%VERSION  VERSION_STAMP = V0001.000  DATE = 10/02/26  14:51:40                  
%FLAG TITLE                                                                     
%FORMAT(20a4)                                                                   
default_name                                                                    
%FLAG POINTERS                                                                  
%FORMAT(10I8)                                                                   
   74865      14   73721    1263    2644    1868    5872    4364       0       0
  110870   24254    1263    1868    4364      25      47      36      17       0
       0       0       0       0       0       0       0       1      55       0
       0
%FLAG ATOM_NAME                                                                 
%FORMAT(20a4)                                                                   
C   C1  C2  C3  C4  C5  C6  C7  C8  C9  C10 C11 C12 C13 C14 C15 H   H1  H2  H3  
H4  H5  H6  H7  H8  H9  CC  HC1 HC2 O   C   C1  H   C2  C3  C4  C6  C7  C8  H1  
N   C10 C11 C12 C13 O1  C14 C15 O2  C16 C17 O3  O4  C18 O5  C19 O6  C20 O7  H2  
H3  H6  H7  H8  H9  H12 H13 H14 H15 H16 H17 H18 H19 H20 H21 H22 H23 H24 H25 H26 
H27 H28 H29 H30 O   C   C1  H   C2  C3  C4  C6  C7  C8  H1  N   C10 C11 C12 C13 
O1  C14 C15 O2  C16 C17 O3  O4  C18 O5  C19 O6  C20 O7  H2  H3  H6  H7  H8  H9  
H12 H13 H14 H15 H16 H17 H18 H19 H20 H21 H22 H23 H24 H25 H26 H27 H28 H29 H30 O   
C   C1  H   C2  C3  C4  C6  C7  C8  H1  N   C10 C11 C12 C13 O1  C14 C15 O2  C16 
C17 O3  O4  C18 O5  C19 O6  C20 O7  H2  H3  H6  H7  H8  H9  H12 H13 H14 H15 H16 
H17 H18 H19 H20 H21 H22 H23 H24 H25 H26 H27 H28 H29 H30 O   C   C1  H   C2  C3  
C4  C6  C7  C8  H1  N   C10 C11 C12 C13 O1  C14 C15 O2  C16 C17 O3  O4  C18 O5  
C19 O6  C20 O7  H2  H3  H6  H7  H8  H9  H12 H13 H14 H15 H16 H17 H18 H19 H20 H21 
H22 H23 H24 H25 H26 H27 H28 H29 H30 O   C   C1  H   C2  C3  C4  C6  C7  C8  H1  
N   C10 C11 C12 C13 O1  C14 C15 O2  C16 C17 O3  O4  C18 O5  C19 O6  C20 O7  H2  
H3  H6  H7  H8  H9  H12 H13 H14 H15 H16 H17 H18 H19 H20 H21 H22 H23 H24 H25 H26 
H27 H28 H29 H30 O   C   C1  H   C2  C3  C4  C6  C7  C8  H1  N   C10 C11 C12 C13 
O1  C14 C15 O2  C16 C17 O3  O4  C18 O5  C19 O6  C20 O7  H2  H3  H6  H7  H8  H9  
H12 H13 H14 H15 H16 H17 H18 H19 H20 H21 H22 H23 H24 H25 H26 H27 H28 H29 H30 O   
C   C1  H   C2  C3  C4  C6  C7  C8  H1  N   C10 C11 C12 C13 O1  C14 C15 O2  C16 
C17 O3  O4  C18 O5  C19 O6  C20 O7  H2  H3  H6  H7  H8  H9  H12 H13 H14 H15 H16 
H17 H18 H19 H20 H21 H22 H23 H24 H25 H26 H27 H28 H29 H30 O   C   C1  H   C2  C3  
C4  C6  C7  C8  H1  N   C10 C11 C12 C13 O1  C14 C15 O2  C16 C17 O3  O4  C18 O5  
C19 O6  C20 O7  H2  H3  H6  H7  H8  H9  H12 H13 H14 H15 H16 H17 H18 H19 H20 H21 
H22 H23 H24 H25 H26 H27 H28 H29 H30 O   C   C1  H   C2  C3  C4  C6  C7  C8  H1  
N   C10 C11 C12 C13 O1  C14 C15 O2  C16 C17 O3  O4  C18 O5  C19 O6  C20 O7  H2  
H3  H6  H7  H8  H9  H12 H13 H14 H15 H16 H17 H18 H19 H20 H21 H22 H23 H24 H25 H26 
H27 H28 H29 H30 O   C   C1  H   C2  C3  C4  C6  C7  C8  H1  N   C10 C11 C12 C13 
O1  C14 C15 O2  C16 C17 O3  O4  C18 O5  C19 O6  C20 O7  H2  H3  H6  H7  H8  H9  
H12 H13 H14 H15 H16 H17 H18 H19 H20 H21 H22 H23 H24 H25 H26 H27 H28 H29 H30 CC  
HC1 HC2 CC  HC1 HC2 O   C   C1  H   C2  C3  C4  C6  C7  C8  H1  N   C10 C11 C12 
C13 O1  C14 C15 O2  C16 C17 O3  O4  C18 O5  C19 O6  C20 O7  H2  H3  H6  H7  H8  
H9  H12 H13 H14 H15 H16 H17 H18 H19 H20 H21 H22 H23 H24 H25 H26 H27 H28 H29 H30 
O   C   C1  H   C2  C3  C4  C6  C7  C8  H1  N   C10 C11 C12 C13 O1  C14 C15 O2  
C16 C17 O3  O4  C18 O5  C19 O6  C20 O7  H2  H3  H6  H7  H8  H9  H12 H13 H14 H15 
H16 H17 H18 H19 H20 H21 H22 H23 H24 H25 H26 H27 H28 H29 H30 O   C   C1  H   C2  
C3  C4  C6  C7  C8  H1  N   C10 C11 C12 C13 O1  C14 C15 O2  C16 C17 O3  O4  C18 
O5  C19 O6  C20 O7  H2  H3  H6  H7  H8  H9  H12 H13 H14 H15 H16 H17 H18 H19 H20 
H21 H22 H23 H24 H25 H26 H27 H28 H29 H30 O   C   C1  H   C2  C3  C4  C6  C7  C8  
H1  N   C10 C11 C12 C13 O1  C14 C15 O2  C16 C17 O3  O4  C18 O5  C19 O6  C20 O7  
H2  H3  H6  H7  H8  H9  H12 H13 H14 H15 H16 H17 H18 H19 H20 H21 H22 H23 H24 H25 
H26 H27 H28 H29 H30 O   C   C1  H   C2  C3  C4  C6  C7  C8  H1  N   C10 C11 C12 
C13 O1  C14 C15 O2  C16 C17 O3  O4  C18 O5  C19 O6  C20 O7  H2  H3  H6  H7  H8  
H9  H12 H13 H14 H15 H16 H17 H18 H19 H20 H21 H22 H23 H24 H25 H26 H27 H28 H29 H30 
O   C   C1  H   C2  C3  C4  C6  C7  C8  H1  N   C10 C11 C12 C13 O1  C14 C15 O2  
C16 C17 O3  O4  C18 O5  C19 O6  C20 O7  H2  H3  H6  H7  H8  H9  H12 H13 H14 H15 
H16 H17 H18 H19 H20 H21 H22 H23 H24 H25 H26 H27 H28 H29 H30 O   C   C1  H   C2  
C3  C4  C6  C7  C8  H1  N   C10 C11 C12 C13 O1  C14 C15 O2  C16 C17 O3  O4  C18 
O5  C19 O6  C20 O7  H2  H3  H6  H7  H8  H9  H12 H13 H14 H15 H16 H17 H18 H19 H20 
H21 H22 H23 H24 H25 H26 H27 H28 H29 H30 O   C   C1  H   C2  C3  C4  C6  C7  C8  
H1  N   C10 C11 C12 C13 O1  C14 C15 O2  C16 C17 O3  O4  C18 O5  C19 O6  C20 O7  
H2  H3  H6  H7  H8  H9  H12 H13 H14 H15 H16 H17 H18 H19 H20 H21 H22 H23 H24 H25 
H26 H27 H28 H29 H30 O   C   C1  H   C2  C3  C4  C6  C7  C8  H1  N   C10 C11 C12 
C13 O1  C14 C15 O2  C16 C17 O3  O4  C18 O5  C19 O6  C20 O7  H2  H3  H6  H7  H8  
H9  H12 H13 H14 H15 H16 H17 H18 H19 H20 H21 H22 H23 H24 H25 H26 H27 H28 H29 H30 
O   C   C1  H   C2  C3  C4  C6  C7  C8  H1  N   C10 C11 C12 C13 O1  C14 C15 O2  
C16 C17 O3  O4  C18 O5  C19 O6  C20 O7  H2  H3  H6  H7  H8  H9  H12 H13 H14 H15 
H16 H17 H18 H19 H20 H21 H22 H23 H24 H25 H26 H27 H28 H29 H30 CC  HC1 HC2 CC  HC1 
HC2 O   C   C1  H   C2  C3  C4  C6  C7  C8  H1  N   C10 C11 C12 C13 O1  C14 C15 
O2  C16 C17 O3  O4  C18 O5  C19 O6  C20 O7  H2  H3  H6  H7  H8  H9  H12 H13 H14 
H15 H16 H17 H18 H19 H20 H21 H22 H23 H24 H25 H26 H27 H28 H29 H30 O   C   C1  H   
C2  C3  C4  C6  C7  C8  H1  N   C10 C11 C12 C13 O1  C14 C15 O2  C16 C17 O3  O4  
C18 O5  C19 O6  C20 O7  H2  H3  H6  H7  H8  H9  H12 H13 H14 H15 H16 H17 H18 H19 
H20 H21 H22 H23 H24 H25 H26 H27 H28 H29 H30 O   C   C1  H   C2  C3  C4  C6  C7  
C8  H1  N   C10 C11 C12 C13 O1  C14 C15 O2  C16 C17 O3  O4  C18 O5  C19 O6  C20 
O7  H2  H3  H6  H7  H8  H9  H12 H13 H14 H15 H16 H17 H18 H19 H20 H21 H22 H23 H24 
H25 H26 H27 H28 H29 H30 O   C   C1  H   C2  C3  C4  C6  C7  C8  H1  N   C10 C11 
C12 C13 O1  C14 C15 O2  C16 C17 O3  O4  C18 O5  C19 O6  C20 O7  H2  H3  H6  H7  
H8  H9  H12 H13 H14 H15 H16 H17 H18 H19 H20 H21 H22 H23 H24 H25 H26 H27 H28 H29 
H30 O   C   C1  H   C2  C3  C4  C6  C7  C8  H1  N   C10 C11 C12 C13 O1  C14 C15 
O2  C16 C17 O3  O4  C18 O5  C19 O6  C20 O7  H2  H3  H6  H7  H8  H9  H12 H13 H14 
H15 H16 H17 H18 H19 H20 H21 H22 H23 H24 H25 H26 H27 H28 H29 H30 O   C   C1  H   
C2  C3  C4  C6  C7  C8  H1  N   C10 C11 C12 C13 O1  C14 C15 O2  C16 C17 O3  O4  
C18 O5  C19 O6  C20 O7  H2  H3  H6  H7  H8  H9  H12 H13 H14 H15 H16 H17 H18 H19 
H20 H21 H22 H23 H24 H25 H26 H27 H28 H29 H30 O   C   C1  H   C2  C3  C4  C6  C7  
C8  H1  N   C10 C11 C12 C13 O1  C14 C15 O2  C16 C17 O3  O4  C18 O5  C19 O6  C20 
O7  H2  H3  H6  H7  H8  H9  H12 H13 H14 H15 H16 H17 H18 H19 H20 H21 H22 H23 H24 
H25 H26 H27 H28 H29 H30 O   C   C1  H   C2  C3  C4  C6  C7  C8  H1  N   C10 C11 
C12 C13 O1  C14 C15 O2  C16 C17 O3  O4  C18 O5  C19 O6  C20 O7  H2  H3  H6  H7  
H8  H9  H12 H13 H14 H15 H16 H17 H18 H19 H20 H21 H22 H23 H24 H25 H26 H27 H28 H29 
H30 O   C   C1  H   C2  C3  C4  C6  C7  C8  H1  N   C10 C11 C12 C13 O1  C14 C15 
O2  C16 C17 O3  O4  C18 O5  C19 O6  C20 O7  H2  H3  H6  H7  H8  H9  H12 H13 H14 
H15 H16 H17 H18 H19 H20 H21 H22 H23 H24 H25 H26 H27 H28 H29 H30 O   C   C1  H   
C2  C3  C4  C6  C7  C8  H1  N   C10 C11 C12 C13 O1  C14 C15 O2  C16 C17 O3  O4  
C18 O5  C19 O6  C20 O7  H2  H3  H6  H7  H8  H9  H12 H13 H14 H15 H16 H17 H18 H19 
H20 H21 H22 H23 H24 H25 H26 H27 H28 H29 H30 CC  HC1 HC2 CC  HC1 HC2 O   C   C1  
H   C2  C3  C4  C6  C7  C8  H1  N   C10 C11 C12 C13 O1  C14 C15 O2  C16 C17 O3  
O4  C18 O5  C19 O6  C20 O7  H2  H3  H6  H7  H8  H9  H12 H13 H14 H15 H16 H17 H18 
H19 H20 H21 H22 H23 H24 H25 H26 H27 H28 H29 H30 O   C   C1  H   C2  C3  C4  C6  
C7  C8  H1  N   C10 C11 C12 C13 O1  C14 C15 O2  C16 C17 O3  O4  C18 O5  C19 O6  
C20 O7  H2  H3  H6  H7  H8  H9  H12 H13 H14 H15 H16 H17 H18 H19 H20 H21 H22 H23 
H24 H25 H26 H27 H28 H29 H30 O   C   C1  H   C2  C3  C4  C6  C7  C8  H1  N   C10 
C11 C12 C13 O1  C14 C15 O2  C16 C17 O3  O4  C18 O5  C19 O6  C20 O7  H2  H3  H6  
H7  H8  H9  H12 H13 H14 H15 H16 H17 H18 H19 H20 H21 H22 H23 H24 H25 H26 H27 H28 
H29 H30 O   C   C1  H   C2  C3  C4  C6  C7  C8  H1  N   C10 C11 C12 C13 O1  C14 
C15 O2  C16 C17 O3  O4  C18 O5  C19 O6  C20 O7  H2  H3  H6  H7  H8  H9  H12 H13 
H14 H15 H16 H17 H18 H19 H20 H21 H22 H23 H24 H25 H26 H27 H28 H29 H30 O   C   C1  
H   C2  C3  C4  C6  C7  C8  H1  N   C10 C11 C12 C13 O1  C14 C15 O2  C16 C17 O3  
O4  C18 O5  C19 O6  C20 O7  H2  H3  H6  H7  H8  H9  H12 H13 H14 H15 H16 H17 H18 
H19 H20 H21 H22 H23 H24 H25 H26 H27 H28 H29 H30 O   C   C1  H   C2  C3  C4  C6  
C7  C8  H1  N   C10 C11 C12 C13 O1  C14 C15 O2  C16 C17 O3  O4  C18 O5  C19 O6  
C20 O7  H2  H3  H6  H7  H8  H9  H12 H13 H14 H15 H16 H17 H18 H19 H20 H21 H22 H23 
H24 H25 H26 H27 H28 H29 H30 O   C   C1  H   C2  C3  C4  C6  C7  C8  H1  N   C10 
C11 C12 C13 O1  C14 C15 O2  C16 C17 O3  O4  C18 O5  C19 O6  C20 O7  H2  H3  H6  
H7  H8  H9  H12 H13 H14 H15 H16 H17 H18 H19 H20 H21 H22 H23 H24 H25 H26 H27 H28 
H29 H30 O   C   C1  H   C2  C3  C4  C6  C7  C8  H1  N   C10 C11 C12 C13 O1  C14 
C15 O2  C16 C17 O3  O4  C18 O5  C19 O6  C20 O7  H2  H3  H6  H7  H8  H9  H12 H13 
H14 H15 H16 H17 H18 H19 H20 H21 H22 H23 H24 H25 H26 H27 H28 H29 H30 O   C   C1  
H   C2  C3  C4  C6  C7  C8  H1  N   C10 C11 C12 C13 O1  C14 C15 O2  C16 C17 O3  
O4  C18 O5  C19 O6  C20 O7  H2  H3  H6  H7  H8  H9  H12 H13 H14 H15 H16 H17 H18 
H19 H20 H21 H22 H23 H24 H25 H26 H27 H28 H29 H30 O   C   C1  H   C2  C3  C4  C6  
C7  C8  H1  N   C10 C11 C12 C13 O1  C14 C15 O2  C16 C17 O3  O4  C18 O5  C19 O6  
C20 O7  H2  H3  H6  H7  H8  H9  H12 H13 H14 H15 H16 H17 H18 H19 H20 H21 H22 H23 
H24 H25 H26 H27 H28 H29 H30 CC  HC1 HC2 O   H1  H2  O   H1  H2  O   H1  H2  O   
H1  H2  O   H1  H2  O   H1  H2  O   H1  H2  O   H1  H2  O   H1  H2  O   H1  H2  
O   H1  H2  O   H1  H2  O   H1  H2  O   H1  H2  O   H1  H2  O   H1  H2  O   H1  
H2  O   H1  H2  O   H1  H2  O   H1  H2  O   H1  H2  O   H1  H2  O   H1  H2  O   
H1  H2  O   H1  H2  O   H1  H2  O   H1  H2  O   H1  H2  O   H1  H2  O   H1  H2  
O   H1  H2  O   H1  H2  O   H1  H2  O   H1  H2  O   H1  H2  O   H1  H2  O   H1  
H2  O   H1  H2  O   H1  H2  O   H1  H2  O   H1  H2  O   H1  H2  O   H1  H2  O   
H1  H2  O   H1  H2  O   H1  H2  O   H1  H2  O   H1  H2  O   H1  H2  O   H1  H2  
O   H1  H2  O   H1  H2  O   H1  H2  O   H1  H2  O   H1  H2  O   H1  H2  O   H1  
H2  O   H1  H2  O   H1  H2  O   H1  H2  O   H1  H2  O   H1  H2  O   H1  H2  O   
H1  H2  O   H1  H2  O   H1  H2  O   H1  H2  O   H1  H2  O   H1  H2  O   H1  H2  
O   H1  H2  O   H1  H2  O   H1  H2  O   H1  H2  O   H1  H2  O   H1  H2  O   H1  
H2  O   H1  H2  O   H1  H2  O   H1  H2  O   H1  H2  O   H1  H2  O   H1  H2  O   
H1  H2  O   H1  H2  O   H1  H2  O   H1  H2  O   H1  H2  O   H1  H2  O   H1  H2  
O   H1  H2  O   H1  H2  O   H1  H2  O   H1  H2  O   H1  H2  O   H1  H2  O   H1  
H2  O   H1  H2  O   H1  H2  O   H1  H2  O   H1  H2  O   H1  H2  O   H1  H2  O   
H1  H2  O   H1  H2  O   H1  H2  O   H1  H2  O   H1  H2  O   H1  H2  O   H1  H2  
O   H1  H2  O   H1  H2  O   H1  H2  O   H1  H2  O   H1  H2  O   H1  H2  O   H1  
H2  O   H1  H2  O   H1  H2  O   H1  H2  O   H1  H2  O   H1  H2  O   H1  H2  O   
H1  H2  O   H1  H2  O   H1  H2  O   H1  H2  O   H1  H2  O   H1  H2  O   H1  H2  
O   H1  H2  O   H1  H2  O   H1  H2  O   H1  H2  O   H1  H2  O   H1  H2  O   H1  
H2  O   H1  H2  O   H1  H2  O   H1  H2  O   H1  H2  O   H1  H2  O   H1  H2  O   
H1  H2  O   H1  H2  O   H1  H2  O   H1  H2  O   H1  H2  O   H1  H2  O   H1  H2  
O   H1  H2  O   H1  H2  O   H1  H2  O   H1  H2  O   H1  H2  O   H1  H2  O   H1  
H2  O   H1  H2  O   H1  H2  O   H1  H2  O   H1  H2  O   H1  H2  O   H1  H2  O   
H1  H2  O   H1  H2  O   H1  H2  O   H1  H2  O   H1  H2  O   H1  H2  O   H1  H2  
O   H1  H2  O   H1  H2  O   H1  H2  O   H1  H2  O   H1  H2  O   H1  H2  O   H1  
H2  O   H1  H2  O   H1  H2  O   H1  H2  O   H1  H2  O   H1  H2  O   H1  H2  O   
H1  H2  O   H1  H2  O   H1  H2  O   H1  H2  O   H1  H2  O   H1  H2  O   H1  H2  
O   H1  H2  O   H1  H2  O   H1  H2  O   H1  H2  O   H1  H2  O   H1  H2  O   H1  
H2  O   H1  H2  O   H1  H2  O   H1  H2  O   H1  H2  O   H1  H2  O   H1  H2  O   
H1  H2  O   H1  H2  O   H1  H2  O   H1  H2  O   H1  H2  O   H1  H2  O   H1  H2  
O   H1  H2  O   H1  H2  O   H1  H2  O   H1  H2  O   H1  H2  O   H1  H2  O   H1  
H2  O   H1  H2  O   H1  H2  O   H1  H2  O   H1  H2  O   H1  H2  O   H1  H2  O   
H1  H2  O   H1  H2  O   H1  H2  O   H1  H2  O   H1  H2  O   H1  H2  O   H1  H2  
O   H1  H2  O   H1  H2  O   H1  H2  O   H1  H2  O   H1  H2  O   H1  H2  O   H1  
H2  O   H1  H2  O   H1  H2  O   H1  H2  O   H1  H2  O   H1  H2  O   H1  H2  O   
H1  H2  O   H1  H2  O   H1  H2  O   H1  H2  O   H1  H2  O   H1  H2  O   H1  H2  
O   H1  H2  O   H1  H2  O   H1  H2  O   H1  H2  O   H1  H2  O   H1  H2  O   H1  
H2  O   H1  H2  O   H1  H2  O   H1  H2  O   H1  H2  O   H1  H2  O   H1  H2  O   
H1  H2  O   H1  H2  O   H1  H2  O   H1  H2  O   H1  H2  O   H1  H2  O   H1  H2  
O   H1  H2  O   H1  H2  O   H1  H2  O   H1  H2  O   H1  H2  O   H1  H2  O   H1  
H2  O   H1  H2  O   H1  H2  O   H1  H2  O   H1  H2  O   H1  H2  O   H1  H2  O   
H1  H2  O   H1  H2  O   H1  H2  O   H1  H2  O   H1  H2  O   H1  H2  O   H1  H2  
O   H1  H2  O   H1  H2  O   H1  H2  O   H1  H2  O   H1  H2  O   H1  H2  O   H1  
H2  O   H1  H2  O   H1  H2  O   H1  H2  O   H1  H2  O   H1  H2  O   H1  H2  O   
H1  H2  O   H1  H2  O   H1  H2  O   H1  H2  O   H1  H2  O   H1  H2  O   H1  H2  
O   H1  H2  O   H1  H2  O   H1  H2  O   H1  H2  O   H1  H2  O   H1  H2  O   H1  
H2  O   H1  H2  O   H1  H2  O   H1  H2  O   H1  H2  O   H1  H2  O   H1  H2  O   
H1  H2  O   H1  H2  O   H1  H2  O   H1  H2  O   H1  H2  O   H1  H2  O   H1  H2  
O   H1  H2  O   H1  H2  O   H1  H2  O   H1  H2  O   H1  H2  O   H1  H2  O   H1  
H2  O   H1  H2  O   H1  H2  O   H1  H2  O   H1  H2  O   H1  H2  O   H1  H2  O   
H1  H2  O   H1  H2  O   H1  H2  O   H1  H2  O   H1  H2  O   H1  H2  O   H1  H2  
O   H1  H2  O   H1  H2  O   H1  H2  O   H1  H2  O   H1  H2  O   H1  H2  O   H1  
H2  O   H1  H2  O   H1  H2  O   H1  H2  O   H1  H2  O   H1  H2  O   H1  H2  O   
H1  H2  O   H1  H2  O   H1  H2  O   H1  H2  O   H1  H2  O   H1  H2  O   H1  H2  
O   H1  H2  O   H1  H2  O   H1  H2  O   H1  H2  O   H1  H2  O   H1  H2  O   H1  
H2  O   H1  H2  O   H1  H2  O   H1  H2  O   H1  H2  O   H1  H2  O   H1  H2  O   
H1  H2  O   H1  H2  O   H1  H2  O   H1  H2  O   H1  H2  O   H1  H2  O   H1  H2  
O   H1  H2  O   H1  H2  O   H1  H2  O   H1  H2  O   H1  H2  O   H1  H2  O   H1  
H2  O   H1  H2  O   H1  H2  O   H1  H2  O   H1  H2  O   H1  H2  O   H1  H2  O   
H1  H2  O   H1  H2  O   H1  H2  O   H1  H2  O   H1  H2  O   H1  H2  O   H1  H2  
O   H1  H2  O   H1  H2  O   H1  H2  O   H1  H2  O   H1  H2  O   H1  H2  O   H1  
H2  O   H1  H2  O   H1  H2  O   H1  H2  O   H1  H2  O   H1  H2  O   H1  H2  O   
H1  H2  O   H1  H2  O   H1  H2  O   H1  H2  O   H1  H2  O   H1  H2  O   H1  H2  
O   H1  H2  O   H1  H2  O   H1  H2  O   H1  H2  O   H1  H2  O   H1  H2  O   H1  
H2  O   H1  H2  O   H1  H2  O   H1  H2  O   H1  H2  O   H1  H2  O   H1  H2  O   
H1  H2  O   H1  H2  O   H1  H2  O   H1  H2  O   H1  H2  O   H1  H2  O   H1  H2  
O   H1  H2  O   H1  H2  O   H1  H2  O   H1  H2  O   H1  H2  O   H1  H2  O   H1  
H2  O   H1  H2  O   H1  H2  O   H1  H2  O   H1  H2  O   H1  H2  O   H1  H2  O   
H1  H2  O   H1  H2  O   H1  H2  O   H1  H2  O   H1  H2  O   H1  H2  O   H1  H2  
O   H1  H2  O   H1  H2  O   H1  H2  O   H1  H2  O   H1  H2  O   H1  H2  O   H1  
H2  O   H1  H2  O   H1  H2  O   H1  H2  O   H1  H2  O   H1  H2  O   H1  H2  O   
H1  H2  O   H1  H2  O   H1  H2  O   H1  H2  O   H1  H2  O   H1  H2  O   H1  H2  
O   H1  H2  O   H1  H2  O   H1  H2  O   H1  H2  O   H1  H2  O   H1  H2  O   H1  
H2  O   H1  H2  O   H1  H2  O   H1  H2  O   H1  H2  O   H1  H2  O   H1  H2  O   
H1  H2  O   H1  H2  O   H1  H2  O   H1  H2  O   H1  H2  O   H1  H2  O   H1  H2  
O   H1  H2  O   H1  H2  O   H1  H2  O   H1  H2  O   H1  H2  O   H1  H2  O   H1  
H2  O   H1  H2  O   H1  H2  O   H1  H2  O   H1  H2  O   H1  H2  O   H1  H2  O   
H1  H2  O   H1  H2  O   H1  H2  O   H1  H2  O   H1  H2  O   H1  H2  O   H1  H2  
O   H1  H2  O   H1  H2  O   H1  H2  O   H1  H2  O   H1  H2  O   H1  H2  O   H1  
H2  O   H1  H2  O   H1  H2  O   H1  H2  O   H1  H2  O   H1  H2  O   H1  H2  O   
H1  H2  O   H1  H2  O   H1  H2  O   H1  H2  O   H1  H2  O   H1  H2  O   H1  H2  
O   H1  H2  O   H1  H2  O   H1  H2  O   H1  H2  O   H1  H2  O   H1  H2  O   H1  
H2  O   H1  H2  O   H1  H2  O   H1  H2  O   H1  H2  O   H1  H2  O   H1  H2  O   
H1  H2  O   H1  H2  O   H1  H2  O   H1  H2  O   H1  H2  O   H1  H2  O   H1  H2  
O   H1  H2  O   H1  H2  O   H1  H2  O   H1  H2  O   H1  H2  O   H1  H2  O   H1  
H2  O   H1  H2  O   H1  H2  O   H1  H2  O   H1  H2  O   H1  H2  O   H1  H2  O   
H1  H2  O   H1  H2  O   H1  H2  O   H1  H2  O   H1  H2  O   H1  H2  O   H1  H2  
O   H1  H2  O   H1  H2  O   H1  H2  O   H1  H2  O   H1  H2  O   H1  H2  O   H1  
H2  O   H1  H2  O   H1  H2  O   H1  H2  O   H1  H2  O   H1  H2  O   H1  H2  O   
H1  H2  O   H1  H2  O   H1  H2  O   H1  H2  O   H1  H2  O   H1  H2  O   H1  H2  
O   H1  H2  O   H1  H2  O   H1  H2  O   H1  H2  O   H1  H2  O   H1  H2  O   H1  
H2  O   H1  H2  O   H1  H2  O   H1  H2  O   H1  H2  O   H1  H2  O   H1  H2  O   
H1  H2  O   H1  H2  O   H1  H2  O   H1  H2  O   H1  H2  O   H1  H2  O   H1  H2  
O   H1  H2  O   H1  H2  O   H1  H2  O   H1  H2  O   H1  H2  O   H1  H2  O   H1  
H2  O   H1  H2  O   H1  H2  O   H1  H2  O   H1  H2  O   H1  H2  O   H1  H2  O   
H1  H2  O   H1  H2  O   H1  H2  O   H1  H2  O   H1  H2  O   H1  H2  O   H1  H2  
O   H1  H2  O   H1  H2  O   H1  H2  O   H1  H2  O   H1  H2  O   H1  H2  O   H1  
H2  O   H1  H2  O   H1  H2  O   H1  H2  O   H1  H2  O   H1  H2  O   H1  H2  O   
H1  H2  O   H1  H2  O   H1  H2  O   H1  H2  O   H1  H2  O   H1  H2  O   H1  H2  
O   H1  H2  O   H1  H2  O   H1  H2  O   H1  H2  O   H1  H2  O   H1  H2  O   H1  
H2  O   H1  H2  O   H1  H2  O   H1  H2  O   H1  H2  O   H1  H2  O   H1  H2  O   
H1  H2  O   H1  H2  O   H1  H2  O   H1  H2  O   H1  H2  O   H1  H2  O   H1  H2  
O   H1  H2  O   H1  H2  O   H1  H2  O   H1  H2  O   H1  H2  O   H1  H2  O   H1  
H2  O   H1  H2  O   H1  H2  O   H1  H2  O   H1  H2  O   H1  H2  O   H1  H2  O   
H1  H2  O   H1  H2  O   H1  H2  O   H1  H2  O   H1  H2  O   H1  H2  O   H1  H2  
O   H1  H2  O   H1  H2  O   H1  H2  O   H1  H2  O   H1  H2  O   H1  H2  O   H1  
H2  O   H1  H2  O   H1  H2  O   H1  H2  O   H1  H2  O   H1  H2  O   H1  H2  O   
H1  H2  O   H1  H2  O   H1  H2  O   H1  H2  O   H1  H2  O   H1  H2  O   H1  H2  
O   H1  H2  O   H1  H2  O   H1  H2  O   H1  H2  O   H1  H2  O   H1  H2  O   H1  
H2  O   H1  H2  O   H1  H2  O   H1  H2  O   H1  H2  O   H1  H2  O   H1  H2  O   
H1  H2  O   H1  H2  O   H1  H2  O   H1  H2  O   H1  H2  O   H1  H2  O   H1  H2  
O   H1  H2  O   H1  H2  O   H1  H2  O   H1  H2  O   H1  H2  O   H1  H2  O   H1  
H2  O   H1  H2  O   H1  H2  O   H1  H2  O   H1  H2  O   H1  H2  O   H1  H2  O   
H1  H2  O   H1  H2  O   H1  H2  O   H1  H2  O   H1  H2  O   H1  H2  O   H1  H2  
O   H1  H2  O   H1  H2  O   H1  H2  O   H1  H2  O   H1  H2  O   H1  H2  O   H1  
H2  O   H1  H2  O   H1  H2  O   H1  H2  O   H1  H2  O   H1  H2  O   H1  H2  O   
H1  H2  O   H1  H2  O   H1  H2  O   H1  H2  O   H1  H2  O   H1  H2  O   H1  H2  
O   H1  H2  O   H1  H2  O   H1  H2  O   H1  H2  O   H1  H2  O   H1  H2  O   H1  
H2  O   H1  H2  O   H1  H2  O   H1  H2  O   H1  H2  O   H1  H2  O   H1  H2  O   
H1  H2  O   H1  H2  O   H1  H2  O   H1  H2  O   H1  H2  O   H1  H2  O   H1  H2  
O   H1  H2  O   H1  H2  O   H1  H2  O   H1  H2  O   H1  H2  O   H1  H2  O   H1  
H2  O   H1  H2  O   H1  H2  O   H1  H2  O   H1  H2  O   H1  H2  O   H1  H2  O   
H1  H2  O   H1  H2  O   H1  H2  O   H1  H2  O   H1  H2  O   H1  H2  O   H1  H2  
O   H1  H2  O   H1  H2  O   H1  H2  O   H1  H2  O   H1  H2  O   H1  H2  O   H1  
H2  O   H1  H2  O   H1  H2  O   H1  H2  O   H1  H2  O   H1  H2  O   H1  H2  O   
H1  H2  O   H1  H2  O   H1  H2  O   H1  H2  O   H1  H2  O   H1  H2  O   H1  H2  
O   H1  H2  O   H1  H2  O   H1  H2  O   H1  H2  O   H1  H2  O   H1  H2  O   H1  
H2  O   H1  H2  O   H1  H2  O   H1  H2  O   H1  H2  O   H1  H2  O   H1  H2  O   
H1  H2  O   H1  H2  O   H1  H2  O   H1  H2  O   H1  H2  O   H1  H2  O   H1  H2  
O   H1  H2  O   H1  H2  O   H1  H2  O   H1  H2  O   H1  H2  O   H1  H2  O   H1  
H2  O   H1  H2  O   H1  H2  O   H1  H2  O   H1  H2  O   H1  H2  O   H1  H2  O   
H1  H2  O   H1  H2  O   H1  H2  O   H1  H2  O   H1  H2  O   H1  H2  O   H1  H2  
O   H1  H2  O   H1  H2  O   H1  H2  O   H1  H2  O   H1  H2  O   H1  H2  O   H1  
H2  O   H1  H2  O   H1  H2  O   H1  H2  O   H1  H2  O   H1  H2  O   H1  H2  O   
H1  H2  O   H1  H2  O   H1  H2  O   H1  H2  O   H1  H2  O   H1  H2  O   H1  H2  
O   H1  H2  O   H1  H2  O   H1  H2  O   H1  H2  O   H1  H2  O   H1  H2  O   H1  
H2  O   H1  H2  O   H1  H2  O   H1  H2  O   H1  H2  O   H1  H2  O   H1  H2  O   
H1  H2  O   H1  H2  O   H1  H2  O   H1  H2  O   H1  H2  O   H1  H2  O   H1  H2  
O   H1  H2  O   H1  H2  O   H1  H2  O   H1  H2  O   H1  H2  O   H1  H2  O   H1  
H2  O   H1  H2  O   H1  H2  O   H1  H2  O   H1  H2  O   H1  H2  O   H1  H2  O   
H1  H2  O   H1  H2  O   H1  H2  O   H1  H2  O   H1  H2  O   H1  H2  O   H1  H2  
O   H1  H2  O   H1  H2  O   H1  H2  O   H1  H2  O   H1  H2  O   H1  H2  O   H1  
H2  O   H1  H2  O   H1  H2  O   H1  H2  O   H1  H2  O   H1  H2  O   H1  H2  O   
H1  H2  O   H1  H2  O   H1  H2  O   H1  H2  O   H1  H2  O   H1  H2  O   H1  H2  
O   H1  H2  O   H1  H2  O   H1  H2  O   H1  H2  O   H1  H2  O   H1  H2  O   H1  
H2  O   H1  H2  O   H1  H2  O   H1  H2  O   H1  H2  O   H1  H2  O   H1  H2  O   
H1  H2  O   H1  H2  O   H1  H2  O   H1  H2  O   H1  H2  O   H1  H2  O   H1  H2  
O   H1  H2  O   H1  H2  O   H1  H2  O   H1  H2  O   H1  H2  O   H1  H2  O   H1  
H2  O   H1  H2  O   H1  H2  O   H1  H2  O   H1  H2  O   H1  H2  O   H1  H2  O   
H1  H2  O   H1  H2  O   H1  H2  O   H1  H2  O   H1  H2  O   H1  H2  O   H1  H2  
O   H1  H2  O   H1  H2  O   H1  H2  O   H1  H2  O   H1  H2  O   H1  H2  O   H1  
H2  O   H1  H2  O   H1  H2  O   H1  H2  O   H1  H2  O   H1  H2  O   H1  H2  O   
H1  H2  O   H1  H2  O   H1  H2  O   H1  H2  O   H1  H2  O   H1  H2  O   H1  H2  
O   H1  H2  O   H1  H2  O   H1  H2  O   H1  H2  O   H1  H2  O   H1  H2  O   H1  
H2  O   H1  H2  O   H1  H2  O   H1  H2  O   H1  H2  O   H1  H2  O   H1  H2  O   
H1  H2  O   H1  H2  O   H1  H2  O   H1  H2  O   H1  H2  O   H1  H2  O   H1  H2  
O   H1  H2  O   H1  H2  O   H1  H2  O   H1  H2  O   H1  H2  O   H1  H2  O   H1  
H2  O   H1  H2  O   H1  H2  O   H1  H2  O   H1  H2  O   H1  H2  O   H1  H2  O   
H1  H2  O   H1  H2  O   H1  H2  O   H1  H2  O   H1  H2  O   H1  H2  O   H1  H2  
O   H1  H2  O   H1  H2  O   H1  H2  O   H1  H2  O   H1  H2  O   H1  H2  O   H1  
H2  O   H1  H2  O   H1  H2  O   H1  H2  O   H1  H2  O   H1  H2  O   H1  H2  O   
H1  H2  O   H1  H2  O   H1  H2  O   H1  H2  O   H1  H2  O   H1  H2  O   H1  H2  
O   H1  H2  O   H1  H2  O   H1  H2  O   H1  H2  O   H1  H2  O   H1  H2  O   H1  
H2  O   H1  H2  O   H1  H2  O   H1  H2  O   H1  H2  O   H1  H2  O   H1  H2  O   
H1  H2  O   H1  H2  O   H1  H2  O   H1  H2  O   H1  H2  O   H1  H2  O   H1  H2  
O   H1  H2  O   H1  H2  O   H1  H2  O   H1  H2  O   H1  H2  O   H1  H2  O   H1  
H2  O   H1  H2  O   H1  H2  O   H1  H2  O   H1  H2  O   H1  H2  O   H1  H2  O   
H1  H2  O   H1  H2  O   H1  H2  O   H1  H2  O   H1  H2  O   H1  H2  O   H1  H2  
O   H1  H2  O   H1  H2  O   H1  H2  O   H1  H2  O   H1  H2  O   H1  H2  O   H1  
H2  O   H1  H2  O   H1  H2  O   H1  H2  O   H1  H2  O   H1  H2  O   H1  H2  O   
H1  H2  O   H1  H2  O   H1  H2  O   H1  H2  O   H1  H2  O   H1  H2  O   H1  H2  
O   H1  H2  O   H1  H2  O   H1  H2  O   H1  H2  O   H1  H2  O   H1  H2  O   H1  
H2  O   H1  H2  O   H1  H2  O   H1  H2  O   H1  H2  O   H1  H2  O   H1  H2  O   
H1  H2  O   H1  H2  O   H1  H2  O   H1  H2  O   H1  H2  O   H1  H2  O   H1  H2  
O   H1  H2  O   H1  H2  O   H1  H2  O   H1  H2  O   H1  H2  O   H1  H2  O   H1  
H2  O   H1  H2  O   H1  H2  O   H1  H2  O   H1  H2  O   H1  H2  O   H1  H2  O   
H1  H2  O   H1  H2  O   H1  H2  O   H1  H2  O   H1  H2  O   H1  H2  O   H1  H2  
O   H1  H2  O   H1  H2  O   H1  H2  O   H1  H2  O   H1  H2  O   H1  H2  O   H1  
H2  O   H1  H2  O   H1  H2  O   H1  H2  O   H1  H2  O   H1  H2  O   H1  H2  O   
H1  H2  O   H1  H2  O   H1  H2  O   H1  H2  O   H1  H2  O   H1  H2  O   H1  H2  
O   H1  H2  O   H1  H2  O   H1  H2  O   H1  H2  O   H1  H2  O   H1  H2  O   H1  
H2  O   H1  H2  O   H1  H2  O   H1  H2  O   H1  H2  O   H1  H2  O   H1  H2  O   
H1  H2  O   H1  H2  O   H1  H2  O   H1  H2  O   H1  H2  O   H1  H2  O   H1  H2  
O   H1  H2  O   H1  H2  O   H1  H2  O   H1  H2  O   H1  H2  O   H1  H2  O   H1  
H2  O   H1  H2  O   H1  H2  O   H1  H2  O   H1  H2  O   H1  H2  O   H1  H2  O   
H1  H2  O   H1  H2  O   H1  H2  O   H1  H2  O   H1  H2  O   H1  H2  O   H1  H2  
O   H1  H2  O   H1  H2  O   H1  H2  O   H1  H2  O   H1  H2  O   H1  H2  O   H1  
H2  O   H1  H2  O   H1  H2  O   H1  H2  O   H1  H2  O   H1  H2  O   H1  H2  O   
H1  H2  O   H1  H2  O   H1  H2  O   H1  H2  O   H1  H2  O   H1  H2  O   H1  H2  
O   H1  H2  O   H1  H2  O   H1  H2  O   H1  H2  O   H1  H2  O   H1  H2  O   H1  
H2  O   H1  H2  O   H1  H2  O   H1  H2  O   H1  H2  O   H1  H2  O   H1  H2  O   
H1  H2  O   H1  H2  O   H1  H2  O   H1  H2  O   H1  H2  O   H1  H2  O   H1  H2  
O   H1  H2  O   H1  H2  O   H1  H2  O   H1  H2  O   H1  H2  O   H1  H2  O   H1  
H2  O   H1  H2  O   H1  H2  O   H1  H2  O   H1  H2  O   H1  H2  O   H1  H2  O   
H1  H2  O   H1  H2  O   H1  H2  O   H1  H2  O   H1  H2  O   H1  H2  O   H1  H2  
O   H1  H2  O   H1  H2  O   H1  H2  O   H1  H2  O   H1  H2  O   H1  H2  O   H1  
H2  O   H1  H2  O   H1  H2  O   H1  H2  O   H1  H2  O   H1  H2  O   H1  H2  O   
H1  H2  O   H1  H2  O   H1  H2  O   H1  H2  O   H1  H2  O   H1  H2  O   H1  H2  
O   H1  H2  O   H1  H2  O   H1  H2  O   H1  H2  O   H1  H2  O   H1  H2  O   H1  
H2  O   H1  H2  O   H1  H2  O   H1  H2  O   H1  H2  O   H1  H2  O   H1  H2  O   
H1  H2  O   H1  H2  O   H1  H2  O   H1  H2  O   H1  H2  O   H1  H2  O   H1  H2  
O   H1  H2  O   H1  H2  O   H1  H2  O   H1  H2  O   H1  H2  O   H1  H2  O   H1  
H2  O   H1  H2  O   H1  H2  O   H1  H2  O   H1  H2  O   H1  H2  O   H1  H2  O   
H1  H2  O   H1  H2  O   H1  H2  O   H1  H2  O   H1  H2  O   H1  H2  O   H1  H2  
O   H1  H2  O   H1  H2  O   H1  H2  O   H1  H2  O   H1  H2  O   H1  H2  O   H1  
H2  O   H1  H2  O   H1  H2  O   H1  H2  O   H1  H2  O   H1  H2  O   H1  H2  O   
H1  H2  O   H1  H2  O   H1  H2  O   H1  H2  O   H1  H2  O   H1  H2  O   H1  H2  
O   H1  H2  O   H1  H2  O   H1  H2  O   H1  H2  O   H1  H2  O   H1  H2  O   H1  
H2  O   H1  H2  O   H1  H2  O   H1  H2  O   H1  H2  O   H1  H2  O   H1  H2  O   
H1  H2  O   H1  H2  O   H1  H2  O   H1  H2  O   H1  H2  O   H1  H2  O   H1  H2  
O   H1  H2  O   H1  H2  O   H1  H2  O   H1  H2  O   H1  H2  O   H1  H2  O   H1  
H2  O   H1  H2  O   H1  H2  O   H1  H2  O   H1  H2  O   H1  H2  O   H1  H2  O   
H1  H2  O   H1  H2  O   H1  H2  O   H1  H2  O   H1  H2  O   H1  H2  O   H1  H2  
O   H1  H2  O   H1  H2  O   H1  H2  O   H1  H2  O   H1  H2  O   H1  H2  O   H1  
H2  O   H1  H2  O   H1  H2  O   H1  H2  O   H1  H2  O   H1  H2  O   H1  H2  O   
H1  H2  O   H1  H2  O   H1  H2  O   H1  H2  O   H1  H2  O   H1  H2  O   H1  H2  
O   H1  H2  O   H1  H2  O   H1  H2  O   H1  H2  O   H1  H2  O   H1  H2  O   H1  
H2  O   H1  H2  O   H1  H2  O   H1  H2  O   H1  H2  O   H1  H2  O   H1  H2  O   
H1  H2  O   H1  H2  O   H1  H2  O   H1  H2  O   H1  H2  O   H1  H2  O   H1  H2  
O   H1  H2  O   H1  H2  O   H1  H2  O   H1  H2  O   H1  H2  O   H1  H2  O   H1  
H2  O   H1  H2  O   H1  H2  O   H1  H2  O   H1  H2  O   H1  H2  O   H1  H2  O   
H1  H2  O   H1  H2  O   H1  H2  O   H1  H2  O   H1  H2  O   H1  H2  O   H1  H2  
O   H1  H2  O   H1  H2  O   H1  H2  O   H1  H2  O   H1  H2  O   H1  H2  O   H1  
H2  O   H1  H2  O   H1  H2  O   H1  H2  O   H1  H2  O   H1  H2  O   H1  H2  O   
H1  H2  O   H1  H2  O   H1  H2  O   H1  H2  O   H1  H2  O   H1  H2  O   H1  H2  
O   H1  H2  O   H1  H2  O   H1  H2  O   H1  H2  O   H1  H2  O   H1  H2  O   H1  
H2  O   H1  H2  O   H1  H2  O   H1  H2  O   H1  H2  O   H1  H2  O   H1  H2  O   
H1  H2  O   H1  H2  O   H1  H2  O   H1  H2  O   H1  H2  O   H1  H2  O   H1  H2  
O   H1  H2  O   H1  H2  O   H1  H2  O   H1  H2  O   H1  H2  O   H1  H2  O   H1  
H2  O   H1  H2  O   H1  H2  O   H1  H2  O   H1  H2  O   H1  H2  O   H1  H2  O   
H1  H2  O   H1  H2  O   H1  H2  O   H1  H2  O   H1  H2  O   H1  H2  O   H1  H2  
O   H1  H2  O   H1  H2  O   H1  H2  O   H1  H2  O   H1  H2  O   H1  H2  O   H1  
H2  O   H1  H2  O   H1  H2  O   H1  H2  O   H1  H2  O   H1  H2  O   H1  H2  O   
H1  H2  O   H1  H2  O   H1  H2  O   H1  H2  O   H1  H2  O   H1  H2  O   H1  H2  
O   H1  H2  O   H1  H2  O   H1  H2  O   H1  H2  O   H1  H2  O   H1  H2  O   H1  
H2  O   H1  H2  O   H1  H2  O   H1  H2  O   H1  H2  O   H1  H2  O   H1  H2  O   
H1  H2  O   H1  H2  O   H1  H2  O   H1  H2  O   H1  H2  O   H1  H2  O   H1  H2  
O   H1  H2  O   H1  H2  O   H1  H2  O   H1  H2  O   H1  H2  O   H1  H2  O   H1  
H2  O   H1  H2  O   H1  H2  O   H1  H2  O   H1  H2  O   H1  H2  O   H1  H2  O   
H1  H2  O   H1  H2  O   H1  H2  O   H1  H2  O   H1  H2  O   H1  H2  O   H1  H2  
O   H1  H2  O   H1  H2  O   H1  H2  O   H1  H2  O   H1  H2  O   H1  H2  O   H1  
H2  O   H1  H2  O   H1  H2  O   H1  H2  O   H1  H2  O   H1  H2  O   H1  H2  O   
H1  H2  O   H1  H2  O   H1  H2  O   H1  H2  O   H1  H2  O   H1  H2  O   H1  H2  
O   H1  H2  O   H1  H2  O   H1  H2  O   H1  H2  O   H1  H2  O   H1  H2  O   H1  
H2  O   H1  H2  O   H1  H2  O   H1  H2  O   H1  H2  O   H1  H2  O   H1  H2  O   
H1  H2  O   H1  H2  O   H1  H2  O   H1  H2  O   H1  H2  O   H1  H2  O   H1  H2  
O   H1  H2  O   H1  H2  O   H1  H2  O   H1  H2  O   H1  H2  O   H1  H2  O   H1  
H2  O   H1  H2  O   H1  H2  O   H1  H2  O   H1  H2  O   H1  H2  O   H1  H2  O   
H1  H2  O   H1  H2  O   H1  H2  O   H1  H2  O   H1  H2  O   H1  H2  O   H1  H2  
O   H1  H2  O   H1  H2  O   H1  H2  O   H1  H2  O   H1  H2  O   H1  H2  O   H1  
H2  O   H1  H2  O   H1  H2  O   H1  H2  O   H1  H2  O   H1  H2  O   H1  H2  O   
H1  H2  O   H1  H2  O   H1  H2  O   H1  H2  O   H1  H2  O   H1  H2  O   H1  H2  
O   H1  H2  O   H1  H2  O   H1  H2  O   H1  H2  O   H1  H2  O   H1  H2  O   H1  
H2  O   H1  H2  O   H1  H2  O   H1  H2  O   H1  H2  O   H1  H2  O   H1  H2  O   
H1  H2  O   H1  H2  O   H1  H2  O   H1  H2  O   H1  H2  O   H1  H2  O   H1  H2  
O   H1  H2  O   H1  H2  O   H1  H2  O   H1  H2  O   H1  H2  O   H1  H2  O   H1  
H2  O   H1  H2  O   H1  H2  O   H1  H2  O   H1  H2  O   H1  H2  O   H1  H2  O   
H1  H2  O   H1  H2  O   H1  H2  O   H1  H2  O   H1  H2  O   H1  H2  O   H1  H2  
O   H1  H2  O   H1  H2  O   H1  H2  O   H1  H2  O   H1  H2  O   H1  H2  O   H1  
H2  O   H1  H2  O   H1  H2  O   H1  H2  O   H1  H2  O   H1  H2  O   H1  H2  O   
H1  H2  O   H1  H2  O   H1  H2  O   H1  H2  O   H1  H2  O   H1  H2  O   H1  H2  
O   H1  H2  O   H1  H2  O   H1  H2  O   H1  H2  O   H1  H2  O   H1  H2  O   H1  
H2  O   H1  H2  O   H1  H2  O   H1  H2  O   H1  H2  O   H1  H2  O   H1  H2  O   
H1  H2  O   H1  H2  O   H1  H2  O   H1  H2  O   H1  H2  O   H1  H2  O   H1  H2  
O   H1  H2  O   H1  H2  O   H1  H2  O   H1  H2  O   H1  H2  O   H1  H2  O   H1  
H2  O   H1  H2  O   H1  H2  O   H1  H2  O   H1  H2  O   H1  H2  O   H1  H2  O   
H1  H2  O   H1  H2  O   H1  H2  O   H1  H2  O   H1  H2  O   H1  H2  O   H1  H2  
O   H1  H2  O   H1  H2  O   H1  H2  O   H1  H2  O   H1  H2  O   H1  H2  O   H1  
H2  O   H1  H2  O   H1  H2  O   H1  H2  O   H1  H2  O   H1  H2  O   H1  H2  O   
H1  H2  O   H1  H2  O   H1  H2  O   H1  H2  O   H1  H2  O   H1  H2  O   H1  H2  
O   H1  H2  O   H1  H2  O   H1  H2  O   H1  H2  O   H1  H2  O   H1  H2  O   H1  
H2  O   H1  H2  O   H1  H2  O   H1  H2  O   H1  H2  O   H1  H2  O   H1  H2  O   
H1  H2  O   H1  H2  O   H1  H2  O   H1  H2  O   H1  H2  O   H1  H2  O   H1  H2  
O   H1  H2  O   H1  H2  O   H1  H2  O   H1  H2  O   H1  H2  O   H1  H2  O   H1  
H2  O   H1  H2  O   H1  H2  O   H1  H2  O   H1  H2  O   H1  H2  O   H1  H2  O   
H1  H2  O   H1  H2  O   H1  H2  O   H1  H2  O   H1  H2  O   H1  H2  O   H1  H2  
O   H1  H2  O   H1  H2  O   H1  H2  O   H1  H2  O   H1  H2  O   H1  H2  O   H1  
H2  O   H1  H2  O   H1  H2  O   H1  H2  O   H1  H2  O   H1  H2  O   H1  H2  O   
H1  H2  O   H1  H2  O   H1  H2  O   H1  H2  O   H1  H2  O   H1  H2  O   H1  H2  
O   H1  H2  O   H1  H2  O   H1  H2  O   H1  H2  O   H1  H2  O   H1  H2  O   H1  
H2  O   H1  H2  O   H1  H2  O   H1  H2  O   H1  H2  O   H1  H2  O   H1  H2  O   
H1  H2  O   H1  H2  O   H1  H2  O   H1  H2  O   H1  H2  O   H1  H2  O   H1  H2  
O   H1  H2  O   H1  H2  O   H1  H2  O   H1  H2  O   H1  H2  O   H1  H2  O   H1  
H2  O   H1  H2  O   H1  H2  O   H1  H2  O   H1  H2  O   H1  H2  O   H1  H2  O   
H1  H2  O   H1  H2  O   H1  H2  O   H1  H2  O   H1  H2  O   H1  H2  O   H1  H2  
O   H1  H2  O   H1  H2  O   H1  H2  O   H1  H2  O   H1  H2  O   H1  H2  O   H1  
H2  O   H1  H2  O   H1  H2  O   H1  H2  O   H1  H2  O   H1  H2  O   H1  H2  O   
H1  H2  O   H1  H2  O   H1  H2  O   H1  H2  O   H1  H2  O   H1  H2  O   H1  H2  
O   H1  H2  O   H1  H2  O   H1  H2  O   H1  H2  O   H1  H2  O   H1  H2  O   H1  
H2  O   H1  H2  O   H1  H2  O   H1  H2  O   H1  H2  O   H1  H2  O   H1  H2  O   
H1  H2  O   H1  H2  O   H1  H2  O   H1  H2  O   H1  H2  O   H1  H2  O   H1  H2  
O   H1  H2  O   H1  H2  O   H1  H2  O   H1  H2  O   H1  H2  O   H1  H2  O   H1  
H2  O   H1  H2  O   H1  H2  O   H1  H2  O   H1  H2  O   H1  H2  O   H1  H2  O   
H1  H2  O   H1  H2  O   H1  H2  O   H1  H2  O   H1  H2  O   H1  H2  O   H1  H2  
O   H1  H2  O   H1  H2  O   H1  H2  O   H1  H2  O   H1  H2  O   H1  H2  O   H1  
H2  O   H1  H2  O   H1  H2  O   H1  H2  O   H1  H2  O   H1  H2  O   H1  H2  O   
H1  H2  O   H1  H2  O   H1  H2  O   H1  H2  O   H1  H2  O   H1  H2  O   H1  H2  
O   H1  H2  O   H1  H2  O   H1  H2  O   H1  H2  O   H1  H2  O   H1  H2  O   H1  
H2  O   H1  H2  O   H1  H2  O   H1  H2  O   H1  H2  O   H1  H2  O   H1  H2  O   
H1  H2  O   H1  H2  O   H1  H2  O   H1  H2  O   H1  H2  O   H1  H2  O   H1  H2  
O   H1  H2  O   H1  H2  O   H1  H2  O   H1  H2  O   H1  H2  O   H1  H2  O   H1  
H2  O   H1  H2  O   H1  H2  O   H1  H2  O   H1  H2  O   H1  H2  O   H1  H2  O   
H1  H2  O   H1  H2  O   H1  H2  O   H1  H2  O   H1  H2  O   H1  H2  O   H1  H2  
O   H1  H2  O   H1  H2  O   H1  H2  O   H1  H2  O   H1  H2  O   H1  H2  O   H1  
H2  O   H1  H2  O   H1  H2  O   H1  H2  O   H1  H2  O   H1  H2  O   H1  H2  O   
H1  H2  O   H1  H2  O   H1  H2  O   H1  H2  O   H1  H2  O   H1  H2  O   H1  H2  
O   H1  H2  O   H1  H2  O   H1  H2  O   H1  H2  O   H1  H2  O   H1  H2  O   H1  
H2  O   H1  H2  O   H1  H2  O   H1  H2  O   H1  H2  O   H1  H2  O   H1  H2  O   
H1  H2  O   H1  H2  O   H1  H2  O   H1  H2  O   H1  H2  O   H1  H2  O   H1  H2  
O   H1  H2  O   H1  H2  O   H1  H2  O   H1  H2  O   H1  H2  O   H1  H2  O   H1  
H2  O   H1  H2  O   H1  H2  O   H1  H2  O   H1  H2  O   H1  H2  O   H1  H2  O   
H1  H2  O   H1  H2  O   H1  H2  O   H1  H2  O   H1  H2  O   H1  H2  O   H1  H2  
O   H1  H2  O   H1  H2  O   H1  H2  O   H1  H2  O   H1  H2  O   H1  H2  O   H1  
H2  O   H1  H2  O   H1  H2  O   H1  H2  O   H1  H2  O   H1  H2  O   H1  H2  O   
H1  H2  O   H1  H2  O   H1  H2  O   H1  H2  O   H1  H2  O   H1  H2  O   H1  H2  
O   H1  H2  O   H1  H2  O   H1  H2  O   H1  H2  O   H1  H2  O   H1  H2  O   H1  
H2  O   H1  H2  O   H1  H2  O   H1  H2  O   H1  H2  O   H1  H2  O   H1  H2  O   
H1  H2  O   H1  H2  O   H1  H2  O   H1  H2  O   H1  H2  O   H1  H2  O   H1  H2  
O   H1  H2  O   H1  H2  O   H1  H2  O   H1  H2  O   H1  H2  O   H1  H2  O   H1  
H2  O   H1  H2  O   H1  H2  O   H1  H2  O   H1  H2  O   H1  H2  O   H1  H2  O   
H1  H2  O   H1  H2  O   H1  H2  O   H1  H2  O   H1  H2  O   H1  H2  O   H1  H2  
O   H1  H2  O   H1  H2  O   H1  H2  O   H1  H2  O   H1  H2  O   H1  H2  O   H1  
H2  O   H1  H2  O   H1  H2  O   H1  H2  O   H1  H2  O   H1  H2  O   H1  H2  O   
H1  H2  O   H1  H2  O   H1  H2  O   H1  H2  O   H1  H2  O   H1  H2  O   H1  H2  
O   H1  H2  O   H1  H2  O   H1  H2  O   H1  H2  O   H1  H2  O   H1  H2  O   H1  
H2  O   H1  H2  O   H1  H2  O   H1  H2  O   H1  H2  O   H1  H2  O   H1  H2  O   
H1  H2  O   H1  H2  O   H1  H2  O   H1  H2  O   H1  H2  O   H1  H2  O   H1  H2  
O   H1  H2  O   H1  H2  O   H1  H2  O   H1  H2  O   H1  H2  O   H1  H2  O   H1  
H2  O   H1  H2  O   H1  H2  O   H1  H2  O   H1  H2  O   H1  H2  O   H1  H2  O   
H1  H2  O   H1  H2  O   H1  H2  O   H1  H2  O   H1  H2  O   H1  H2  O   H1  H2  
O   H1  H2  O   H1  H2  O   H1  H2  O   H1  H2  O   H1  H2  O   H1  H2  O   H1  
H2  O   H1  H2  O   H1  H2  O   H1  H2  O   H1  H2  O   H1  H2  O   H1  H2  O   
H1  H2  O   H1  H2  O   H1  H2  O   H1  H2  O   H1  H2  O   H1  H2  O   H1  H2  
O   H1  H2  O   H1  H2  O   H1  H2  O   H1  H2  O   H1  H2  O   H1  H2  O   H1  
H2  O   H1  H2  O   H1  H2  O   H1  H2  O   H1  H2  O   H1  H2  O   H1  H2  O   
H1  H2  O   H1  H2  O   H1  H2  O   H1  H2  O   H1  H2  O   H1  H2  O   H1  H2  
O   H1  H2  O   H1  H2  O   H1  H2  O   H1  H2  O   H1  H2  O   H1  H2  O   H1  
H2  O   H1  H2  O   H1  H2  O   H1  H2  O   H1  H2  O   H1  H2  O   H1  H2  O   
H1  H2  O   H1  H2  O   H1  H2  O   H1  H2  O   H1  H2  O   H1  H2  O   H1  H2  
O   H1  H2  O   H1  H2  O   H1  H2  O   H1  H2  O   H1  H2  O   H1  H2  O   H1  
H2  O   H1  H2  O   H1  H2  O   H1  H2  O   H1  H2  O   H1  H2  O   H1  H2  O   
H1  H2  O   H1  H2  O   H1  H2  O   H1  H2  O   H1  H2  O   H1  H2  O   H1  H2  
O   H1  H2  O   H1  H2  O   H1  H2  O   H1  H2  O   H1  H2  O   H1  H2  O   H1  
H2  O   H1  H2  O   H1  H2  O   H1  H2  O   H1  H2  O   H1  H2  O   H1  H2  O   
H1  H2  O   H1  H2  O   H1  H2  O   H1  H2  O   H1  H2  O   H1  H2  O   H1  H2  
O   H1  H2  O   H1  H2  O   H1  H2  O   H1  H2  O   H1  H2  O   H1  H2  O   H1  
H2  O   H1  H2  O   H1  H2  O   H1  H2  O   H1  H2  O   H1  H2  O   H1  H2  O   
H1  H2  O   H1  H2  O   H1  H2  O   H1  H2  O   H1  H2  O   H1  H2  O   H1  H2  
O   H1  H2  O   H1  H2  O   H1  H2  O   H1  H2  O   H1  H2  O   H1  H2  O   H1  
H2  O   H1  H2  O   H1  H2  O   H1  H2  O   H1  H2  O   H1  H2  O   H1  H2  O   
H1  H2  O   H1  H2  O   H1  H2  O   H1  H2  O   H1  H2  O   H1  H2  O   H1  H2  
O   H1  H2  O   H1  H2  O   H1  H2  O   H1  H2  O   H1  H2  O   H1  H2  O   H1  
H2  O   H1  H2  O   H1  H2  O   H1  H2  O   H1  H2  O   H1  H2  O   H1  H2  O   
H1  H2  O   H1  H2  O   H1  H2  O   H1  H2  O   H1  H2  O   H1  H2  O   H1  H2  
O   H1  H2  O   H1  H2  O   H1  H2  O   H1  H2  O   H1  H2  O   H1  H2  O   H1  
H2  O   H1  H2  O   H1  H2  O   H1  H2  O   H1  H2  O   H1  H2  O   H1  H2  O   
H1  H2  O   H1  H2  O   H1  H2  O   H1  H2  O   H1  H2  O   H1  H2  O   H1  H2  
O   H1  H2  O   H1  H2  O   H1  H2  O   H1  H2  O   H1  H2  O   H1  H2  O   H1  
H2  O   H1  H2  O   H1  H2  O   H1  H2  O   H1  H2  O   H1  H2  O   H1  H2  O   
H1  H2  O   H1  H2  O   H1  H2  O   H1  H2  O   H1  H2  O   H1  H2  O   H1  H2  
O   H1  H2  O   H1  H2  O   H1  H2  O   H1  H2  O   H1  H2  O   H1  H2  O   H1  
H2  O   H1  H2  O   H1  H2  O   H1  H2  O   H1  H2  O   H1  H2  O   H1  H2  O   
H1  H2  O   H1  H2  O   H1  H2  O   H1  H2  O   H1  H2  O   H1  H2  O   H1  H2  
O   H1  H2  O   H1  H2  O   H1  H2  O   H1  H2  O   H1  H2  O   H1  H2  O   H1  
H2  O   H1  H2  O   H1  H2  O   H1  H2  O   H1  H2  O   H1  H2  O   H1  H2  O   
H1  H2  O   H1  H2  O   H1  H2  O   H1  H2  O   H1  H2  O   H1  H2  O   H1  H2  
O   H1  H2  O   H1  H2  O   H1  H2  O   H1  H2  O   H1  H2  O   H1  H2  O   H1  
H2  O   H1  H2  O   H1  H2  O   H1  H2  O   H1  H2  O   H1  H2  O   H1  H2  O   
H1  H2  O   H1  H2  O   H1  H2  O   H1  H2  O   H1  H2  O   H1  H2  O   H1  H2  
O   H1  H2  O   H1  H2  O   H1  H2  O   H1  H2  O   H1  H2  O   H1  H2  O   H1  
H2  O   H1  H2  O   H1  H2  O   H1  H2  O   H1  H2  O   H1  H2  O   H1  H2  O   
H1  H2  O   H1  H2  O   H1  H2  O   H1  H2  O   H1  H2  O   H1  H2  O   H1  H2  
O   H1  H2  O   H1  H2  O   H1  H2  O   H1  H2  O   H1  H2  O   H1  H2  O   H1  
H2  O   H1  H2  O   H1  H2  O   H1  H2  O   H1  H2  O   H1  H2  O   H1  H2  O   
H1  H2  O   H1  H2  O   H1  H2  O   H1  H2  O   H1  H2  O   H1  H2  O   H1  H2  
O   H1  H2  O   H1  H2  O   H1  H2  O   H1  H2  O   H1  H2  O   H1  H2  O   H1  
H2  O   H1  H2  O   H1  H2  O   H1  H2  O   H1  H2  O   H1  H2  O   H1  H2  O   
H1  H2  O   H1  H2  O   H1  H2  O   H1  H2  O   H1  H2  O   H1  H2  O   H1  H2  
O   H1  H2  O   H1  H2  O   H1  H2  O   H1  H2  O   H1  H2  O   H1  H2  O   H1  
H2  O   H1  H2  O   H1  H2  O   H1  H2  O   H1  H2  O   H1  H2  O   H1  H2  O   
H1  H2  O   H1  H2  O   H1  H2  O   H1  H2  O   H1  H2  O   H1  H2  O   H1  H2  
O   H1  H2  O   H1  H2  O   H1  H2  O   H1  H2  O   H1  H2  O   H1  H2  O   H1  
H2  O   H1  H2  O   H1  H2  O   H1  H2  O   H1  H2  O   H1  H2  O   H1  H2  O   
H1  H2  O   H1  H2  O   H1  H2  O   H1  H2  O   H1  H2  O   H1  H2  O   H1  H2  
O   H1  H2  O   H1  H2  O   H1  H2  O   H1  H2  O   H1  H2  O   H1  H2  O   H1  
H2  O   H1  H2  O   H1  H2  O   H1  H2  O   H1  H2  O   H1  H2  O   H1  H2  O   
H1  H2  O   H1  H2  O   H1  H2  O   H1  H2  O   H1  H2  O   H1  H2  O   H1  H2  
O   H1  H2  O   H1  H2  O   H1  H2  O   H1  H2  O   H1  H2  O   H1  H2  O   H1  
H2  O   H1  H2  O   H1  H2  O   H1  H2  O   H1  H2  O   H1  H2  O   H1  H2  O   
H1  H2  O   H1  H2  O   H1  H2  O   H1  H2  O   H1  H2  O   H1  H2  O   H1  H2  
O   H1  H2  O   H1  H2  O   H1  H2  O   H1  H2  O   H1  H2  O   H1  H2  O   H1  
H2  O   H1  H2  O   H1  H2  O   H1  H2  O   H1  H2  O   H1  H2  O   H1  H2  O   
H1  H2  O   H1  H2  O   H1  H2  O   H1  H2  O   H1  H2  O   H1  H2  O   H1  H2  
O   H1  H2  O   H1  H2  O   H1  H2  O   H1  H2  O   H1  H2  O   H1  H2  O   H1  
H2  O   H1  H2  O   H1  H2  O   H1  H2  O   H1  H2  O   H1  H2  O   H1  H2  O   
H1  H2  O   H1  H2  O   H1  H2  O   H1  H2  O   H1  H2  O   H1  H2  O   H1  H2  
O   H1  H2  O   H1  H2  O   H1  H2  O   H1  H2  O   H1  H2  O   H1  H2  O   H1  
H2  O   H1  H2  O   H1  H2  O   H1  H2  O   H1  H2  O   H1  H2  O   H1  H2  O   
H1  H2  O   H1  H2  O   H1  H2  O   H1  H2  O   H1  H2  O   H1  H2  O   H1  H2  
O   H1  H2  O   H1  H2  O   H1  H2  O   H1  H2  O   H1  H2  O   H1  H2  O   H1  
H2  O   H1  H2  O   H1  H2  O   H1  H2  O   H1  H2  O   H1  H2  O   H1  H2  O   
H1  H2  O   H1  H2  O   H1  H2  O   H1  H2  O   H1  H2  O   H1  H2  O   H1  H2  
O   H1  H2  O   H1  H2  O   H1  H2  O   H1  H2  O   H1  H2  O   H1  H2  O   H1  
H2  O   H1  H2  O   H1  H2  O   H1  H2  O   H1  H2  O   H1  H2  O   H1  H2  O   
H1  H2  O   H1  H2  O   H1  H2  O   H1  H2  O   H1  H2  O   H1  H2  O   H1  H2  
O   H1  H2  O   H1  H2  O   H1  H2  O   H1  H2  O   H1  H2  O   H1  H2  O   H1  
H2  O   H1  H2  O   H1  H2  O   H1  H2  O   H1  H2  O   H1  H2  O   H1  H2  O   
H1  H2  O   H1  H2  O   H1  H2  O   H1  H2  O   H1  H2  O   H1  H2  O   H1  H2  
O   H1  H2  O   H1  H2  O   H1  H2  O   H1  H2  O   H1  H2  O   H1  H2  O   H1  
H2  O   H1  H2  O   H1  H2  O   H1  H2  O   H1  H2  O   H1  H2  O   H1  H2  O   
H1  H2  O   H1  H2  O   H1  H2  O   H1  H2  O   H1  H2  O   H1  H2  O   H1  H2  
O   H1  H2  O   H1  H2  O   H1  H2  O   H1  H2  O   H1  H2  O   H1  H2  O   H1  
H2  O   H1  H2  O   H1  H2  O   H1  H2  O   H1  H2  O   H1  H2  O   H1  H2  O   
H1  H2  O   H1  H2  O   H1  H2  O   H1  H2  O   H1  H2  O   H1  H2  O   H1  H2  
O   H1  H2  O   H1  H2  O   H1  H2  O   H1  H2  O   H1  H2  O   H1  H2  O   H1  
H2  O   H1  H2  O   H1  H2  O   H1  H2  O   H1  H2  O   H1  H2  O   H1  H2  O   
H1  H2  O   H1  H2  O   H1  H2  O   H1  H2  O   H1  H2  O   H1  H2  O   H1  H2  
O   H1  H2  O   H1  H2  O   H1  H2  O   H1  H2  O   H1  H2  O   H1  H2  O   H1  
H2  O   H1  H2  O   H1  H2  O   H1  H2  O   H1  H2  O   H1  H2  O   H1  H2  O   
H1  H2  O   H1  H2  O   H1  H2  O   H1  H2  O   H1  H2  O   H1  H2  O   H1  H2  
O   H1  H2  O   H1  H2  O   H1  H2  O   H1  H2  O   H1  H2  O   H1  H2  O   H1  
H2  O   H1  H2  O   H1  H2  O   H1  H2  O   H1  H2  O   H1  H2  O   H1  H2  O   
H1  H2  O   H1  H2  O   H1  H2  O   H1  H2  O   H1  H2  O   H1  H2  O   H1  H2  
O   H1  H2  O   H1  H2  O   H1  H2  O   H1  H2  O   H1  H2  O   H1  H2  O   H1  
H2  O   H1  H2  O   H1  H2  O   H1  H2  O   H1  H2  O   H1  H2  O   H1  H2  O   
H1  H2  O   H1  H2  O   H1  H2  O   H1  H2  O   H1  H2  O   H1  H2  O   H1  H2  
O   H1  H2  O   H1  H2  O   H1  H2  O   H1  H2  O   H1  H2  O   H1  H2  O   H1  
H2  O   H1  H2  O   H1  H2  O   H1  H2  O   H1  H2  O   H1  H2  O   H1  H2  O   
H1  H2  O   H1  H2  O   H1  H2  O   H1  H2  O   H1  H2  O   H1  H2  O   H1  H2  
O   H1  H2  O   H1  H2  O   H1  H2  O   H1  H2  O   H1  H2  O   H1  H2  O   H1  
H2  O   H1  H2  O   H1  H2  O   H1  H2  O   H1  H2  O   H1  H2  O   H1  H2  O   
H1  H2  O   H1  H2  O   H1  H2  O   H1  H2  O   H1  H2  O   H1  H2  O   H1  H2  
O   H1  H2  O   H1  H2  O   H1  H2  O   H1  H2  O   H1  H2  O   H1  H2  O   H1  
H2  O   H1  H2  O   H1  H2  O   H1  H2  O   H1  H2  O   H1  H2  O   H1  H2  O   
H1  H2  O   H1  H2  O   H1  H2  O   H1  H2  O   H1  H2  O   H1  H2  O   H1  H2  
O   H1  H2  O   H1  H2  O   H1  H2  O   H1  H2  O   H1  H2  O   H1  H2  O   H1  
H2  O   H1  H2  O   H1  H2  O   H1  H2  O   H1  H2  O   H1  H2  O   H1  H2  O   
H1  H2  O   H1  H2  O   H1  H2  O   H1  H2  O   H1  H2  O   H1  H2  O   H1  H2  
O   H1  H2  O   H1  H2  O   H1  H2  O   H1  H2  O   H1  H2  O   H1  H2  O   H1  
H2  O   H1  H2  O   H1  H2  O   H1  H2  O   H1  H2  O   H1  H2  O   H1  H2  O   
H1  H2  O   H1  H2  O   H1  H2  O   H1  H2  O   H1  H2  O   H1  H2  O   H1  H2  
O   H1  H2  O   H1  H2  O   H1  H2  O   H1  H2  O   H1  H2  O   H1  H2  O   H1  
H2  O   H1  H2  O   H1  H2  O   H1  H2  O   H1  H2  O   H1  H2  O   H1  H2  O   
H1  H2  O   H1  H2  O   H1  H2  O   H1  H2  O   H1  H2  O   H1  H2  O   H1  H2  
O   H1  H2  O   H1  H2  O   H1  H2  O   H1  H2  O   H1  H2  O   H1  H2  O   H1  
H2  O   H1  H2  O   H1  H2  O   H1  H2  O   H1  H2  O   H1  H2  O   H1  H2  O   
H1  H2  O   H1  H2  O   H1  H2  O   H1  H2  O   H1  H2  O   H1  H2  O   H1  H2  
O   H1  H2  O   H1  H2  O   H1  H2  O   H1  H2  O   H1  H2  O   H1  H2  O   H1  
H2  O   H1  H2  O   H1  H2  O   H1  H2  O   H1  H2  O   H1  H2  O   H1  H2  O   
H1  H2  O   H1  H2  O   H1  H2  O   H1  H2  O   H1  H2  O   H1  H2  O   H1  H2  
O   H1  H2  O   H1  H2  O   H1  H2  O   H1  H2  O   H1  H2  O   H1  H2  O   H1  
H2  O   H1  H2  O   H1  H2  O   H1  H2  O   H1  H2  O   H1  H2  O   H1  H2  O   
H1  H2  O   H1  H2  O   H1  H2  O   H1  H2  O   H1  H2  O   H1  H2  O   H1  H2  
O   H1  H2  O   H1  H2  O   H1  H2  O   H1  H2  O   H1  H2  O   H1  H2  O   H1  
H2  O   H1  H2  O   H1  H2  O   H1  H2  O   H1  H2  O   H1  H2  O   H1  H2  O   
H1  H2  O   H1  H2  O   H1  H2  O   H1  H2  O   H1  H2  O   H1  H2  O   H1  H2  
O   H1  H2  O   H1  H2  O   H1  H2  O   H1  H2  O   H1  H2  O   H1  H2  O   H1  
H2  O   H1  H2  O   H1  H2  O   H1  H2  O   H1  H2  O   H1  H2  O   H1  H2  O   
H1  H2  O   H1  H2  O   H1  H2  O   H1  H2  O   H1  H2  O   H1  H2  O   H1  H2  
O   H1  H2  O   H1  H2  O   H1  H2  O   H1  H2  O   H1  H2  O   H1  H2  O   H1  
H2  O   H1  H2  O   H1  H2  O   H1  H2  O   H1  H2  O   H1  H2  O   H1  H2  O   
H1  H2  O   H1  H2  O   H1  H2  O   H1  H2  O   H1  H2  O   H1  H2  O   H1  H2  
O   H1  H2  O   H1  H2  O   H1  H2  O   H1  H2  O   H1  H2  O   H1  H2  O   H1  
H2  O   H1  H2  O   H1  H2  O   H1  H2  O   H1  H2  O   H1  H2  O   H1  H2  O   
H1  H2  O   H1  H2  O   H1  H2  O   H1  H2  O   H1  H2  O   H1  H2  O   H1  H2  
O   H1  H2  O   H1  H2  O   H1  H2  O   H1  H2  O   H1  H2  O   H1  H2  O   H1  
H2  O   H1  H2  O   H1  H2  O   H1  H2  O   H1  H2  O   H1  H2  O   H1  H2  O   
H1  H2  O   H1  H2  O   H1  H2  O   H1  H2  O   H1  H2  O   H1  H2  O   H1  H2  
O   H1  H2  O   H1  H2  O   H1  H2  O   H1  H2  O   H1  H2  O   H1  H2  O   H1  
H2  O   H1  H2  O   H1  H2  O   H1  H2  O   H1  H2  O   H1  H2  O   H1  H2  O   
H1  H2  O   H1  H2  O   H1  H2  O   H1  H2  O   H1  H2  O   H1  H2  O   H1  H2  
O   H1  H2  O   H1  H2  O   H1  H2  O   H1  H2  O   H1  H2  O   H1  H2  O   H1  
H2  O   H1  H2  O   H1  H2  O   H1  H2  O   H1  H2  O   H1  H2  O   H1  H2  O   
H1  H2  O   H1  H2  O   H1  H2  O   H1  H2  O   H1  H2  O   H1  H2  O   H1  H2  
O   H1  H2  O   H1  H2  O   H1  H2  O   H1  H2  O   H1  H2  O   H1  H2  O   H1  
H2  O   H1  H2  O   H1  H2  O   H1  H2  O   H1  H2  O   H1  H2  O   H1  H2  O   
H1  H2  O   H1  H2  O   H1  H2  O   H1  H2  O   H1  H2  O   H1  H2  O   H1  H2  
O   H1  H2  O   H1  H2  O   H1  H2  O   H1  H2  O   H1  H2  O   H1  H2  O   H1  
H2  O   H1  H2  O   H1  H2  O   H1  H2  O   H1  H2  O   H1  H2  O   H1  H2  O   
H1  H2  O   H1  H2  O   H1  H2  O   H1  H2  O   H1  H2  O   H1  H2  O   H1  H2  
O   H1  H2  O   H1  H2  O   H1  H2  O   H1  H2  O   H1  H2  O   H1  H2  O   H1  
H2  O   H1  H2  O   H1  H2  O   H1  H2  O   H1  H2  O   H1  H2  O   H1  H2  O   
H1  H2  O   H1  H2  O   H1  H2  O   H1  H2  O   H1  H2  O   H1  H2  O   H1  H2  
O   H1  H2  O   H1  H2  O   H1  H2  O   H1  H2  O   H1  H2  O   H1  H2  O   H1  
H2  O   H1  H2  O   H1  H2  O   H1  H2  O   H1  H2  O   H1  H2  O   H1  H2  O   
H1  H2  O   H1  H2  O   H1  H2  O   H1  H2  O   H1  H2  O   H1  H2  O   H1  H2  
O   H1  H2  O   H1  H2  O   H1  H2  O   H1  H2  O   H1  H2  O   H1  H2  O   H1  
H2  O   H1  H2  O   H1  H2  O   H1  H2  O   H1  H2  O   H1  H2  O   H1  H2  O   
H1  H2  O   H1  H2  O   H1  H2  O   H1  H2  O   H1  H2  O   H1  H2  O   H1  H2  
O   H1  H2  O   H1  H2  O   H1  H2  O   H1  H2  O   H1  H2  O   H1  H2  O   H1  
H2  O   H1  H2  O   H1  H2  O   H1  H2  O   H1  H2  O   H1  H2  O   H1  H2  O   
H1  H2  O   H1  H2  O   H1  H2  O   H1  H2  O   H1  H2  O   H1  H2  O   H1  H2  
O   H1  H2  O   H1  H2  O   H1  H2  O   H1  H2  O   H1  H2  O   H1  H2  O   H1  
H2  O   H1  H2  O   H1  H2  O   H1  H2  O   H1  H2  O   H1  H2  O   H1  H2  O   
H1  H2  O   H1  H2  O   H1  H2  O   H1  H2  O   H1  H2  O   H1  H2  O   H1  H2  
O   H1  H2  O   H1  H2  O   H1  H2  O   H1  H2  O   H1  H2  O   H1  H2  O   H1  
H2  O   H1  H2  O   H1  H2  O   H1  H2  O   H1  H2  O   H1  H2  O   H1  H2  O   
H1  H2  O   H1  H2  O   H1  H2  O   H1  H2  O   H1  H2  O   H1  H2  O   H1  H2  
O   H1  H2  O   H1  H2  O   H1  H2  O   H1  H2  O   H1  H2  O   H1  H2  O   H1  
H2  O   H1  H2  O   H1  H2  O   H1  H2  O   H1  H2  O   H1  H2  O   H1  H2  O   
H1  H2  O   H1  H2  O   H1  H2  O   H1  H2  O   H1  H2  O   H1  H2  O   H1  H2  
O   H1  H2  O   H1  H2  O   H1  H2  O   H1  H2  O   H1  H2  O   H1  H2  O   H1  
H2  O   H1  H2  O   H1  H2  O   H1  H2  O   H1  H2  O   H1  H2  O   H1  H2  O   
H1  H2  O   H1  H2  O   H1  H2  O   H1  H2  O   H1  H2  O   H1  H2  O   H1  H2  
O   H1  H2  O   H1  H2  O   H1  H2  O   H1  H2  O   H1  H2  O   H1  H2  O   H1  
H2  O   H1  H2  O   H1  H2  O   H1  H2  O   H1  H2  O   H1  H2  O   H1  H2  O   
H1  H2  O   H1  H2  O   H1  H2  O   H1  H2  O   H1  H2  O   H1  H2  O   H1  H2  
O   H1  H2  O   H1  H2  O   H1  H2  O   H1  H2  O   H1  H2  O   H1  H2  O   H1  
H2  O   H1  H2  O   H1  H2  O   H1  H2  O   H1  H2  O   H1  H2  O   H1  H2  O   
H1  H2  O   H1  H2  O   H1  H2  O   H1  H2  O   H1  H2  O   H1  H2  O   H1  H2  
O   H1  H2  O   H1  H2  O   H1  H2  O   H1  H2  O   H1  H2  O   H1  H2  O   H1  
H2  O   H1  H2  O   H1  H2  O   H1  H2  O   H1  H2  O   H1  H2  O   H1  H2  O   
H1  H2  O   H1  H2  O   H1  H2  O   H1  H2  O   H1  H2  O   H1  H2  O   H1  H2  
O   H1  H2  O   H1  H2  O   H1  H2  O   H1  H2  O   H1  H2  O   H1  H2  O   H1  
H2  O   H1  H2  O   H1  H2  O   H1  H2  O   H1  H2  O   H1  H2  O   H1  H2  O   
H1  H2  O   H1  H2  O   H1  H2  O   H1  H2  O   H1  H2  O   H1  H2  O   H1  H2  
O   H1  H2  O   H1  H2  O   H1  H2  O   H1  H2  O   H1  H2  O   H1  H2  O   H1  
H2  O   H1  H2  O   H1  H2  O   H1  H2  O   H1  H2  O   H1  H2  O   H1  H2  O   
H1  H2  O   H1  H2  O   H1  H2  O   H1  H2  O   H1  H2  O   H1  H2  O   H1  H2  
O   H1  H2  O   H1  H2  O   H1  H2  O   H1  H2  O   H1  H2  O   H1  H2  O   H1  
H2  O   H1  H2  O   H1  H2  O   H1  H2  O   H1  H2  O   H1  H2  O   H1  H2  O   
H1  H2  O   H1  H2  O   H1  H2  O   H1  H2  O   H1  H2  O   H1  H2  O   H1  H2  
O   H1  H2  O   H1  H2  O   H1  H2  O   H1  H2  O   H1  H2  O   H1  H2  O   H1  
H2  O   H1  H2  O   H1  H2  O   H1  H2  O   H1  H2  O   H1  H2  O   H1  H2  O   
H1  H2  O   H1  H2  O   H1  H2  O   H1  H2  O   H1  H2  O   H1  H2  O   H1  H2  
O   H1  H2  O   H1  H2  O   H1  H2  O   H1  H2  O   H1  H2  O   H1  H2  O   H1  
H2  O   H1  H2  O   H1  H2  O   H1  H2  O   H1  H2  O   H1  H2  O   H1  H2  O   
H1  H2  O   H1  H2  O   H1  H2  O   H1  H2  O   H1  H2  O   H1  H2  O   H1  H2  
O   H1  H2  O   H1  H2  O   H1  H2  O   H1  H2  O   H1  H2  O   H1  H2  O   H1  
H2  O   H1  H2  O   H1  H2  O   H1  H2  O   H1  H2  O   H1  H2  O   H1  H2  O   
H1  H2  O   H1  H2  O   H1  H2  O   H1  H2  O   H1  H2  O   H1  H2  O   H1  H2  
O   H1  H2  O   H1  H2  O   H1  H2  O   H1  H2  O   H1  H2  O   H1  H2  O   H1  
H2  O   H1  H2  O   H1  H2  O   H1  H2  O   H1  H2  O   H1  H2  O   H1  H2  O   
H1  H2  O   H1  H2  O   H1  H2  O   H1  H2  O   H1  H2  O   H1  H2  O   H1  H2  
O   H1  H2  O   H1  H2  O   H1  H2  O   H1  H2  O   H1  H2  O   H1  H2  O   H1  
H2  O   H1  H2  O   H1  H2  O   H1  H2  O   H1  H2  O   H1  H2  O   H1  H2  O   
H1  H2  O   H1  H2  O   H1  H2  O   H1  H2  O   H1  H2  O   H1  H2  O   H1  H2  
O   H1  H2  O   H1  H2  O   H1  H2  O   H1  H2  O   H1  H2  O   H1  H2  O   H1  
H2  O   H1  H2  O   H1  H2  O   H1  H2  O   H1  H2  O   H1  H2  O   H1  H2  O   
H1  H2  O   H1  H2  O   H1  H2  O   H1  H2  O   H1  H2  O   H1  H2  O   H1  H2  
O   H1  H2  O   H1  H2  O   H1  H2  O   H1  H2  O   H1  H2  O   H1  H2  O   H1  
H2  O   H1  H2  O   H1  H2  O   H1  H2  O   H1  H2  O   H1  H2  O   H1  H2  O   
H1  H2  O   H1  H2  O   H1  H2  O   H1  H2  O   H1  H2  O   H1  H2  O   H1  H2  
O   H1  H2  O   H1  H2  O   H1  H2  O   H1  H2  O   H1  H2  O   H1  H2  O   H1  
H2  O   H1  H2  O   H1  H2  O   H1  H2  O   H1  H2  O   H1  H2  O   H1  H2  O   
H1  H2  O   H1  H2  O   H1  H2  O   H1  H2  O   H1  H2  O   H1  H2  O   H1  H2  
O   H1  H2  O   H1  H2  O   H1  H2  O   H1  H2  O   H1  H2  O   H1  H2  O   H1  
H2  O   H1  H2  O   H1  H2  O   H1  H2  O   H1  H2  O   H1  H2  O   H1  H2  O   
H1  H2  O   H1  H2  O   H1  H2  O   H1  H2  O   H1  H2  O   H1  H2  O   H1  H2  
O   H1  H2  O   H1  H2  O   H1  H2  O   H1  H2  O   H1  H2  O   H1  H2  O   H1  
H2  O   H1  H2  O   H1  H2  O   H1  H2  O   H1  H2  O   H1  H2  O   H1  H2  O   
H1  H2  O   H1  H2  O   H1  H2  O   H1  H2  O   H1  H2  O   H1  H2  O   H1  H2  
O   H1  H2  O   H1  H2  O   H1  H2  O   H1  H2  O   H1  H2  O   H1  H2  O   H1  
H2  O   H1  H2  O   H1  H2  O   H1  H2  O   H1  H2  O   H1  H2  O   H1  H2  O   
H1  H2  O   H1  H2  O   H1  H2  O   H1  H2  O   H1  H2  O   H1  H2  O   H1  H2  
O   H1  H2  O   H1  H2  O   H1  H2  O   H1  H2  O   H1  H2  O   H1  H2  O   H1  
H2  O   H1  H2  O   H1  H2  O   H1  H2  O   H1  H2  O   H1  H2  O   H1  H2  O   
H1  H2  O   H1  H2  O   H1  H2  O   H1  H2  O   H1  H2  O   H1  H2  O   H1  H2  
O   H1  H2  O   H1  H2  O   H1  H2  O   H1  H2  O   H1  H2  O   H1  H2  O   H1  
H2  O   H1  H2  O   H1  H2  O   H1  H2  O   H1  H2  O   H1  H2  O   H1  H2  O   
H1  H2  O   H1  H2  O   H1  H2  O   H1  H2  O   H1  H2  O   H1  H2  O   H1  H2  
O   H1  H2  O   H1  H2  O   H1  H2  O   H1  H2  O   H1  H2  O   H1  H2  O   H1  
H2  O   H1  H2  O   H1  H2  O   H1  H2  O   H1  H2  O   H1  H2  O   H1  H2  O   
H1  H2  O   H1  H2  O   H1  H2  O   H1  H2  O   H1  H2  O   H1  H2  O   H1  H2  
O   H1  H2  O   H1  H2  O   H1  H2  O   H1  H2  O   H1  H2  O   H1  H2  O   H1  
H2  O   H1  H2  O   H1  H2  O   H1  H2  O   H1  H2  O   H1  H2  O   H1  H2  O   
H1  H2  O   H1  H2  O   H1  H2  O   H1  H2  O   H1  H2  O   H1  H2  O   H1  H2  
O   H1  H2  O   H1  H2  O   H1  H2  O   H1  H2  O   H1  H2  O   H1  H2  O   H1  
H2  O   H1  H2  O   H1  H2  O   H1  H2  O   H1  H2  O   H1  H2  O   H1  H2  O   
H1  H2  O   H1  H2  O   H1  H2  O   H1  H2  O   H1  H2  O   H1  H2  O   H1  H2  
O   H1  H2  O   H1  H2  O   H1  H2  O   H1  H2  O   H1  H2  O   H1  H2  O   H1  
H2  O   H1  H2  O   H1  H2  O   H1  H2  O   H1  H2  O   H1  H2  O   H1  H2  O   
H1  H2  O   H1  H2  O   H1  H2  O   H1  H2  O   H1  H2  O   H1  H2  O   H1  H2  
O   H1  H2  O   H1  H2  O   H1  H2  O   H1  H2  O   H1  H2  O   H1  H2  O   H1  
H2  O   H1  H2  O   H1  H2  O   H1  H2  O   H1  H2  O   H1  H2  O   H1  H2  O   
H1  H2  O   H1  H2  O   H1  H2  O   H1  H2  O   H1  H2  O   H1  H2  O   H1  H2  
O   H1  H2  O   H1  H2  O   H1  H2  O   H1  H2  O   H1  H2  O   H1  H2  O   H1  
H2  O   H1  H2  O   H1  H2  O   H1  H2  O   H1  H2  O   H1  H2  O   H1  H2  O   
H1  H2  O   H1  H2  O   H1  H2  O   H1  H2  O   H1  H2  O   H1  H2  O   H1  H2  
O   H1  H2  O   H1  H2  O   H1  H2  O   H1  H2  O   H1  H2  O   H1  H2  O   H1  
H2  O   H1  H2  O   H1  H2  O   H1  H2  O   H1  H2  O   H1  H2  O   H1  H2  O   
H1  H2  O   H1  H2  O   H1  H2  O   H1  H2  O   H1  H2  O   H1  H2  O   H1  H2  
O   H1  H2  O   H1  H2  O   H1  H2  O   H1  H2  O   H1  H2  O   H1  H2  O   H1  
H2  O   H1  H2  O   H1  H2  O   H1  H2  O   H1  H2  O   H1  H2  O   H1  H2  O   
H1  H2  O   H1  H2  O   H1  H2  O   H1  H2  O   H1  H2  O   H1  H2  O   H1  H2  
O   H1  H2  O   H1  H2  O   H1  H2  O   H1  H2  O   H1  H2  O   H1  H2  O   H1  
H2  O   H1  H2  O   H1  H2  O   H1  H2  O   H1  H2  O   H1  H2  O   H1  H2  O   
H1  H2  O   H1  H2  O   H1  H2  O   H1  H2  O   H1  H2  O   H1  H2  O   H1  H2  
O   H1  H2  O   H1  H2  O   H1  H2  O   H1  H2  O   H1  H2  O   H1  H2  O   H1  
H2  O   H1  H2  O   H1  H2  O   H1  H2  O   H1  H2  O   H1  H2  O   H1  H2  O   
H1  H2  O   H1  H2  O   H1  H2  O   H1  H2  O   H1  H2  O   H1  H2  O   H1  H2  
O   H1  H2  O   H1  H2  O   H1  H2  O   H1  H2  O   H1  H2  O   H1  H2  O   H1  
H2  O   H1  H2  O   H1  H2  O   H1  H2  O   H1  H2  O   H1  H2  O   H1  H2  O   
H1  H2  O   H1  H2  O   H1  H2  O   H1  H2  O   H1  H2  O   H1  H2  O   H1  H2  
O   H1  H2  O   H1  H2  O   H1  H2  O   H1  H2  O   H1  H2  O   H1  H2  O   H1  
H2  O   H1  H2  O   H1  H2  O   H1  H2  O   H1  H2  O   H1  H2  O   H1  H2  O   
H1  H2  O   H1  H2  O   H1  H2  O   H1  H2  O   H1  H2  O   H1  H2  O   H1  H2  
O   H1  H2  O   H1  H2  O   H1  H2  O   H1  H2  O   H1  H2  O   H1  H2  O   H1  
H2  O   H1  H2  O   H1  H2  O   H1  H2  O   H1  H2  O   H1  H2  O   H1  H2  O   
H1  H2  O   H1  H2  O   H1  H2  O   H1  H2  O   H1  H2  O   H1  H2  O   H1  H2  
O   H1  H2  O   H1  H2  O   H1  H2  O   H1  H2  O   H1  H2  O   H1  H2  O   H1  
H2  O   H1  H2  O   H1  H2  O   H1  H2  O   H1  H2  O   H1  H2  O   H1  H2  O   
H1  H2  O   H1  H2  O   H1  H2  O   H1  H2  O   H1  H2  O   H1  H2  O   H1  H2  
O   H1  H2  O   H1  H2  O   H1  H2  O   H1  H2  O   H1  H2  O   H1  H2  O   H1  
H2  O   H1  H2  O   H1  H2  O   H1  H2  O   H1  H2  O   H1  H2  O   H1  H2  O   
H1  H2  O   H1  H2  O   H1  H2  O   H1  H2  O   H1  H2  O   H1  H2  O   H1  H2  
O   H1  H2  O   H1  H2  O   H1  H2  O   H1  H2  O   H1  H2  O   H1  H2  O   H1  
H2  O   H1  H2  O   H1  H2  O   H1  H2  O   H1  H2  O   H1  H2  O   H1  H2  O   
H1  H2  O   H1  H2  O   H1  H2  O   H1  H2  O   H1  H2  O   H1  H2  O   H1  H2  
O   H1  H2  O   H1  H2  O   H1  H2  O   H1  H2  O   H1  H2  O   H1  H2  O   H1  
H2  O   H1  H2  O   H1  H2  O   H1  H2  O   H1  H2  O   H1  H2  O   H1  H2  O   
H1  H2  O   H1  H2  O   H1  H2  O   H1  H2  O   H1  H2  O   H1  H2  O   H1  H2  
O   H1  H2  O   H1  H2  O   H1  H2  O   H1  H2  O   H1  H2  O   H1  H2  O   H1  
H2  O   H1  H2  O   H1  H2  O   H1  H2  O   H1  H2  O   H1  H2  O   H1  H2  O   
H1  H2  O   H1  H2  O   H1  H2  O   H1  H2  O   H1  H2  O   H1  H2  O   H1  H2  
O   H1  H2  O   H1  H2  O   H1  H2  O   H1  H2  O   H1  H2  O   H1  H2  O   H1  
H2  O   H1  H2  O   H1  H2  O   H1  H2  O   H1  H2  O   H1  H2  O   H1  H2  O   
H1  H2  O   H1  H2  O   H1  H2  O   H1  H2  O   H1  H2  O   H1  H2  O   H1  H2  
O   H1  H2  O   H1  H2  O   H1  H2  O   H1  H2  O   H1  H2  O   H1  H2  O   H1  
H2  O   H1  H2  O   H1  H2  O   H1  H2  O   H1  H2  O   H1  H2  O   H1  H2  O   
H1  H2  O   H1  H2  O   H1  H2  O   H1  H2  O   H1  H2  O   H1  H2  O   H1  H2  
O   H1  H2  O   H1  H2  O   H1  H2  O   H1  H2  O   H1  H2  O   H1  H2  O   H1  
H2  O   H1  H2  O   H1  H2  O   H1  H2  O   H1  H2  O   H1  H2  O   H1  H2  O   
H1  H2  O   H1  H2  O   H1  H2  O   H1  H2  O   H1  H2  O   H1  H2  O   H1  H2  
O   H1  H2  O   H1  H2  O   H1  H2  O   H1  H2  O   H1  H2  O   H1  H2  O   H1  
H2  O   H1  H2  O   H1  H2  O   H1  H2  O   H1  H2  O   H1  H2  O   H1  H2  O   
H1  H2  O   H1  H2  O   H1  H2  O   H1  H2  O   H1  H2  O   H1  H2  O   H1  H2  
O   H1  H2  O   H1  H2  O   H1  H2  O   H1  H2  O   H1  H2  O   H1  H2  O   H1  
H2  O   H1  H2  O   H1  H2  O   H1  H2  O   H1  H2  O   H1  H2  O   H1  H2  O   
H1  H2  O   H1  H2  O   H1  H2  O   H1  H2  O   H1  H2  O   H1  H2  O   H1  H2  
O   H1  H2  O   H1  H2  O   H1  H2  O   H1  H2  O   H1  H2  O   H1  H2  O   H1  
H2  O   H1  H2  O   H1  H2  O   H1  H2  O   H1  H2  O   H1  H2  O   H1  H2  O   
H1  H2  O   H1  H2  O   H1  H2  O   H1  H2  O   H1  H2  O   H1  H2  O   H1  H2  
O   H1  H2  O   H1  H2  O   H1  H2  O   H1  H2  O   H1  H2  O   H1  H2  O   H1  
H2  O   H1  H2  O   H1  H2  O   H1  H2  O   H1  H2  O   H1  H2  O   H1  H2  O   
H1  H2  O   H1  H2  O   H1  H2  O   H1  H2  O   H1  H2  O   H1  H2  O   H1  H2  
O   H1  H2  O   H1  H2  O   H1  H2  O   H1  H2  O   H1  H2  O   H1  H2  O   H1  
H2  O   H1  H2  O   H1  H2  O   H1  H2  O   H1  H2  O   H1  H2  O   H1  H2  O   
H1  H2  O   H1  H2  O   H1  H2  O   H1  H2  O   H1  H2  O   H1  H2  O   H1  H2  
O   H1  H2  O   H1  H2  O   H1  H2  O   H1  H2  O   H1  H2  O   H1  H2  O   H1  
H2  O   H1  H2  O   H1  H2  O   H1  H2  O   H1  H2  O   H1  H2  O   H1  H2  O   
H1  H2  O   H1  H2  O   H1  H2  O   H1  H2  O   H1  H2  O   H1  H2  O   H1  H2  
O   H1  H2  O   H1  H2  O   H1  H2  O   H1  H2  O   H1  H2  O   H1  H2  O   H1  
H2  O   H1  H2  O   H1  H2  O   H1  H2  O   H1  H2  O   H1  H2  O   H1  H2  O   
H1  H2  O   H1  H2  O   H1  H2  O   H1  H2  O   H1  H2  O   H1  H2  O   H1  H2  
O   H1  H2  O   H1  H2  O   H1  H2  O   H1  H2  O   H1  H2  O   H1  H2  O   H1  
H2  O   H1  H2  O   H1  H2  O   H1  H2  O   H1  H2  O   H1  H2  O   H1  H2  O   
H1  H2  O   H1  H2  O   H1  H2  O   H1  H2  O   H1  H2  O   H1  H2  O   H1  H2  
O   H1  H2  O   H1  H2  O   H1  H2  O   H1  H2  O   H1  H2  O   H1  H2  O   H1  
H2  O   H1  H2  O   H1  H2  O   H1  H2  O   H1  H2  O   H1  H2  O   H1  H2  O   
H1  H2  O   H1  H2  O   H1  H2  O   H1  H2  O   H1  H2  O   H1  H2  O   H1  H2  
O   H1  H2  O   H1  H2  O   H1  H2  O   H1  H2  O   H1  H2  O   H1  H2  O   H1  
H2  O   H1  H2  O   H1  H2  O   H1  H2  O   H1  H2  O   H1  H2  O   H1  H2  O   
H1  H2  O   H1  H2  O   H1  H2  O   H1  H2  O   H1  H2  O   H1  H2  O   H1  H2  
O   H1  H2  O   H1  H2  O   H1  H2  O   H1  H2  O   H1  H2  O   H1  H2  O   H1  
H2  O   H1  H2  O   H1  H2  O   H1  H2  O   H1  H2  O   H1  H2  O   H1  H2  O   
H1  H2  O   H1  H2  O   H1  H2  O   H1  H2  O   H1  H2  O   H1  H2  O   H1  H2  
O   H1  H2  O   H1  H2  O   H1  H2  O   H1  H2  O   H1  H2  O   H1  H2  O   H1  
H2  O   H1  H2  O   H1  H2  O   H1  H2  O   H1  H2  O   H1  H2  O   H1  H2  O   
H1  H2  O   H1  H2  O   H1  H2  O   H1  H2  O   H1  H2  O   H1  H2  O   H1  H2  
O   H1  H2  O   H1  H2  O   H1  H2  O   H1  H2  O   H1  H2  O   H1  H2  O   H1  
H2  O   H1  H2  O   H1  H2  O   H1  H2  O   H1  H2  O   H1  H2  O   H1  H2  O   
H1  H2  O   H1  H2  O   H1  H2  O   H1  H2  O   H1  H2  O   H1  H2  O   H1  H2  
O   H1  H2  O   H1  H2  O   H1  H2  O   H1  H2  O   H1  H2  O   H1  H2  O   H1  
H2  O   H1  H2  O   H1  H2  O   H1  H2  O   H1  H2  O   H1  H2  O   H1  H2  O   
H1  H2  O   H1  H2  O   H1  H2  O   H1  H2  O   H1  H2  O   H1  H2  O   H1  H2  
O   H1  H2  O   H1  H2  O   H1  H2  O   H1  H2  O   H1  H2  O   H1  H2  O   H1  
H2  O   H1  H2  O   H1  H2  O   H1  H2  O   H1  H2  O   H1  H2  O   H1  H2  O   
H1  H2  O   H1  H2  O   H1  H2  O   H1  H2  O   H1  H2  O   H1  H2  O   H1  H2  
O   H1  H2  O   H1  H2  O   H1  H2  O   H1  H2  O   H1  H2  O   H1  H2  O   H1  
H2  O   H1  H2  O   H1  H2  O   H1  H2  O   H1  H2  O   H1  H2  O   H1  H2  O   
H1  H2  O   H1  H2  O   H1  H2  O   H1  H2  O   H1  H2  O   H1  H2  O   H1  H2  
O   H1  H2  O   H1  H2  O   H1  H2  O   H1  H2  O   H1  H2  O   H1  H2  O   H1  
H2  O   H1  H2  O   H1  H2  O   H1  H2  O   H1  H2  O   H1  H2  O   H1  H2  O   
H1  H2  O   H1  H2  O   H1  H2  O   H1  H2  O   H1  H2  O   H1  H2  O   H1  H2  
O   H1  H2  O   H1  H2  O   H1  H2  O   H1  H2  O   H1  H2  O   H1  H2  O   H1  
H2  O   H1  H2  O   H1  H2  O   H1  H2  O   H1  H2  O   H1  H2  O   H1  H2  O   
H1  H2  O   H1  H2  O   H1  H2  O   H1  H2  O   H1  H2  O   H1  H2  O   H1  H2  
O   H1  H2  O   H1  H2  O   H1  H2  O   H1  H2  O   H1  H2  O   H1  H2  O   H1  
H2  O   H1  H2  O   H1  H2  O   H1  H2  O   H1  H2  O   H1  H2  O   H1  H2  O   
H1  H2  O   H1  H2  O   H1  H2  O   H1  H2  O   H1  H2  O   H1  H2  O   H1  H2  
O   H1  H2  O   H1  H2  O   H1  H2  O   H1  H2  O   H1  H2  O   H1  H2  O   H1  
H2  O   H1  H2  O   H1  H2  O   H1  H2  O   H1  H2  O   H1  H2  O   H1  H2  O   
H1  H2  O   H1  H2  O   H1  H2  O   H1  H2  O   H1  H2  O   H1  H2  O   H1  H2  
O   H1  H2  O   H1  H2  O   H1  H2  O   H1  H2  O   H1  H2  O   H1  H2  O   H1  
H2  O   H1  H2  O   H1  H2  O   H1  H2  O   H1  H2  O   H1  H2  O   H1  H2  O   
H1  H2  O   H1  H2  O   H1  H2  O   H1  H2  O   H1  H2  O   H1  H2  O   H1  H2  
O   H1  H2  O   H1  H2  O   H1  H2  O   H1  H2  O   H1  H2  O   H1  H2  O   H1  
H2  O   H1  H2  O   H1  H2  O   H1  H2  O   H1  H2  O   H1  H2  O   H1  H2  O   
H1  H2  O   H1  H2  O   H1  H2  O   H1  H2  O   H1  H2  O   H1  H2  O   H1  H2  
O   H1  H2  O   H1  H2  O   H1  H2  O   H1  H2  O   H1  H2  O   H1  H2  O   H1  
H2  O   H1  H2  O   H1  H2  O   H1  H2  O   H1  H2  O   H1  H2  O   H1  H2  O   
H1  H2  O   H1  H2  O   H1  H2  O   H1  H2  O   H1  H2  O   H1  H2  O   H1  H2  
O   H1  H2  O   H1  H2  O   H1  H2  O   H1  H2  O   H1  H2  O   H1  H2  O   H1  
H2  O   H1  H2  O   H1  H2  O   H1  H2  O   H1  H2  O   H1  H2  O   H1  H2  O   
H1  H2  O   H1  H2  O   H1  H2  O   H1  H2  O   H1  H2  O   H1  H2  O   H1  H2  
O   H1  H2  O   H1  H2  O   H1  H2  O   H1  H2  O   H1  H2  O   H1  H2  O   H1  
H2  O   H1  H2  O   H1  H2  O   H1  H2  O   H1  H2  O   H1  H2  O   H1  H2  O   
H1  H2  O   H1  H2  O   H1  H2  O   H1  H2  O   H1  H2  O   H1  H2  O   H1  H2  
O   H1  H2  O   H1  H2  O   H1  H2  O   H1  H2  O   H1  H2  O   H1  H2  O   H1  
H2  O   H1  H2  O   H1  H2  O   H1  H2  O   H1  H2  O   H1  H2  O   H1  H2  O   
H1  H2  O   H1  H2  O   H1  H2  O   H1  H2  O   H1  H2  O   H1  H2  O   H1  H2  
O   H1  H2  O   H1  H2  O   H1  H2  O   H1  H2  O   H1  H2  O   H1  H2  O   H1  
H2  O   H1  H2  O   H1  H2  O   H1  H2  O   H1  H2  O   H1  H2  O   H1  H2  O   
H1  H2  O   H1  H2  O   H1  H2  O   H1  H2  O   H1  H2  O   H1  H2  O   H1  H2  
O   H1  H2  O   H1  H2  O   H1  H2  O   H1  H2  O   H1  H2  O   H1  H2  O   H1  
H2  O   H1  H2  O   H1  H2  O   H1  H2  O   H1  H2  O   H1  H2  O   H1  H2  O   
H1  H2  O   H1  H2  O   H1  H2  O   H1  H2  O   H1  H2  O   H1  H2  O   H1  H2  
O   H1  H2  O   H1  H2  O   H1  H2  O   H1  H2  O   H1  H2  O   H1  H2  O   H1  
H2  O   H1  H2  O   H1  H2  O   H1  H2  O   H1  H2  O   H1  H2  O   H1  H2  O   
H1  H2  O   H1  H2  O   H1  H2  O   H1  H2  O   H1  H2  O   H1  H2  O   H1  H2  
O   H1  H2  O   H1  H2  O   H1  H2  O   H1  H2  O   H1  H2  O   H1  H2  O   H1  
H2  O   H1  H2  O   H1  H2  O   H1  H2  O   H1  H2  O   H1  H2  O   H1  H2  O   
H1  H2  O   H1  H2  O   H1  H2  O   H1  H2  O   H1  H2  O   H1  H2  O   H1  H2  
O   H1  H2  O   H1  H2  O   H1  H2  O   H1  H2  O   H1  H2  O   H1  H2  O   H1  
H2  O   H1  H2  O   H1  H2  O   H1  H2  O   H1  H2  O   H1  H2  O   H1  H2  O   
H1  H2  O   H1  H2  O   H1  H2  O   H1  H2  O   H1  H2  O   H1  H2  O   H1  H2  
O   H1  H2  O   H1  H2  O   H1  H2  O   H1  H2  O   H1  H2  O   H1  H2  O   H1  
H2  O   H1  H2  O   H1  H2  O   H1  H2  O   H1  H2  O   H1  H2  O   H1  H2  O   
H1  H2  O   H1  H2  O   H1  H2  O   H1  H2  O   H1  H2  O   H1  H2  O   H1  H2  
O   H1  H2  O   H1  H2  O   H1  H2  O   H1  H2  O   H1  H2  O   H1  H2  O   H1  
H2  O   H1  H2  O   H1  H2  O   H1  H2  O   H1  H2  O   H1  H2  O   H1  H2  O   
H1  H2  O   H1  H2  O   H1  H2  O   H1  H2  O   H1  H2  O   H1  H2  O   H1  H2  
O   H1  H2  O   H1  H2  O   H1  H2  O   H1  H2  O   H1  H2  O   H1  H2  O   H1  
H2  O   H1  H2  O   H1  H2  O   H1  H2  O   H1  H2  O   H1  H2  O   H1  H2  O   
H1  H2  O   H1  H2  O   H1  H2  O   H1  H2  O   H1  H2  O   H1  H2  O   H1  H2  
O   H1  H2  O   H1  H2  O   H1  H2  O   H1  H2  O   H1  H2  O   H1  H2  O   H1  
H2  O   H1  H2  O   H1  H2  O   H1  H2  O   H1  H2  O   H1  H2  O   H1  H2  O   
H1  H2  O   H1  H2  O   H1  H2  O   H1  H2  O   H1  H2  O   H1  H2  O   H1  H2  
O   H1  H2  O   H1  H2  O   H1  H2  O   H1  H2  O   H1  H2  O   H1  H2  O   H1  
H2  O   H1  H2  O   H1  H2  O   H1  H2  O   H1  H2  O   H1  H2  O   H1  H2  O   
H1  H2  O   H1  H2  O   H1  H2  O   H1  H2  O   H1  H2  O   H1  H2  O   H1  H2  
O   H1  H2  O   H1  H2  O   H1  H2  O   H1  H2  O   H1  H2  O   H1  H2  O   H1  
H2  O   H1  H2  O   H1  H2  O   H1  H2  O   H1  H2  O   H1  H2  O   H1  H2  O   
H1  H2  O   H1  H2  O   H1  H2  O   H1  H2  O   H1  H2  O   H1  H2  O   H1  H2  
O   H1  H2  O   H1  H2  O   H1  H2  O   H1  H2  O   H1  H2  O   H1  H2  O   H1  
H2  O   H1  H2  O   H1  H2  O   H1  H2  O   H1  H2  O   H1  H2  O   H1  H2  O   
H1  H2  O   H1  H2  O   H1  H2  O   H1  H2  O   H1  H2  O   H1  H2  O   H1  H2  
O   H1  H2  O   H1  H2  O   H1  H2  O   H1  H2  O   H1  H2  O   H1  H2  O   H1  
H2  O   H1  H2  O   H1  H2  O   H1  H2  O   H1  H2  O   H1  H2  O   H1  H2  O   
H1  H2  O   H1  H2  O   H1  H2  O   H1  H2  O   H1  H2  O   H1  H2  O   H1  H2  
O   H1  H2  O   H1  H2  O   H1  H2  O   H1  H2  O   H1  H2  O   H1  H2  O   H1  
H2  O   H1  H2  O   H1  H2  O   H1  H2  O   H1  H2  O   H1  H2  O   H1  H2  O   
H1  H2  O   H1  H2  O   H1  H2  O   H1  H2  O   H1  H2  O   H1  H2  O   H1  H2  
O   H1  H2  O   H1  H2  O   H1  H2  O   H1  H2  O   H1  H2  O   H1  H2  O   H1  
H2  O   H1  H2  O   H1  H2  O   H1  H2  O   H1  H2  O   H1  H2  O   H1  H2  O   
H1  H2  O   H1  H2  O   H1  H2  O   H1  H2  O   H1  H2  O   H1  H2  O   H1  H2  
O   H1  H2  O   H1  H2  O   H1  H2  O   H1  H2  O   H1  H2  O   H1  H2  O   H1  
H2  O   H1  H2  O   H1  H2  O   H1  H2  O   H1  H2  O   H1  H2  O   H1  H2  O   
H1  H2  O   H1  H2  O   H1  H2  O   H1  H2  O   H1  H2  O   H1  H2  O   H1  H2  
O   H1  H2  O   H1  H2  O   H1  H2  O   H1  H2  O   H1  H2  O   H1  H2  O   H1  
H2  O   H1  H2  O   H1  H2  O   H1  H2  O   H1  H2  O   H1  H2  O   H1  H2  O   
H1  H2  O   H1  H2  O   H1  H2  O   H1  H2  O   H1  H2  O   H1  H2  O   H1  H2  
O   H1  H2  O   H1  H2  O   H1  H2  O   H1  H2  O   H1  H2  O   H1  H2  O   H1  
H2  O   H1  H2  O   H1  H2  O   H1  H2  O   H1  H2  O   H1  H2  O   H1  H2  O   
H1  H2  O   H1  H2  O   H1  H2  O   H1  H2  O   H1  H2  O   H1  H2  O   H1  H2  
O   H1  H2  O   H1  H2  O   H1  H2  O   H1  H2  O   H1  H2  O   H1  H2  O   H1  
H2  O   H1  H2  O   H1  H2  O   H1  H2  O   H1  H2  O   H1  H2  O   H1  H2  O   
H1  H2  O   H1  H2  O   H1  H2  O   H1  H2  O   H1  H2  O   H1  H2  O   H1  H2  
O   H1  H2  O   H1  H2  O   H1  H2  O   H1  H2  O   H1  H2  O   H1  H2  O   H1  
H2  O   H1  H2  O   H1  H2  O   H1  H2  O   H1  H2  O   H1  H2  O   H1  H2  O   
H1  H2  O   H1  H2  O   H1  H2  O   H1  H2  O   H1  H2  O   H1  H2  O   H1  H2  
O   H1  H2  O   H1  H2  O   H1  H2  O   H1  H2  O   H1  H2  O   H1  H2  O   H1  
H2  O   H1  H2  O   H1  H2  O   H1  H2  O   H1  H2  O   H1  H2  O   H1  H2  O   
H1  H2  O   H1  H2  O   H1  H2  O   H1  H2  O   H1  H2  O   H1  H2  O   H1  H2  
O   H1  H2  O   H1  H2  O   H1  H2  O   H1  H2  O   H1  H2  O   H1  H2  O   H1  
H2  O   H1  H2  O   H1  H2  O   H1  H2  O   H1  H2  O   H1  H2  O   H1  H2  O   
H1  H2  O   H1  H2  O   H1  H2  O   H1  H2  O   H1  H2  O   H1  H2  O   H1  H2  
O   H1  H2  O   H1  H2  O   H1  H2  O   H1  H2  O   H1  H2  O   H1  H2  O   H1  
H2  O   H1  H2  O   H1  H2  O   H1  H2  O   H1  H2  O   H1  H2  O   H1  H2  O   
H1  H2  O   H1  H2  O   H1  H2  O   H1  H2  O   H1  H2  O   H1  H2  O   H1  H2  
O   H1  H2  O   H1  H2  O   H1  H2  O   H1  H2  O   H1  H2  O   H1  H2  O   H1  
H2  O   H1  H2  O   H1  H2  O   H1  H2  O   H1  H2  O   H1  H2  O   H1  H2  O   
H1  H2  O   H1  H2  O   H1  H2  O   H1  H2  O   H1  H2  O   H1  H2  O   H1  H2  
O   H1  H2  O   H1  H2  O   H1  H2  O   H1  H2  O   H1  H2  O   H1  H2  O   H1  
H2  O   H1  H2  O   H1  H2  O   H1  H2  O   H1  H2  O   H1  H2  O   H1  H2  O   
H1  H2  O   H1  H2  O   H1  H2  O   H1  H2  O   H1  H2  O   H1  H2  O   H1  H2  
O   H1  H2  O   H1  H2  O   H1  H2  O   H1  H2  O   H1  H2  O   H1  H2  O   H1  
H2  O   H1  H2  O   H1  H2  O   H1  H2  O   H1  H2  O   H1  H2  O   H1  H2  O   
H1  H2  O   H1  H2  O   H1  H2  O   H1  H2  O   H1  H2  O   H1  H2  O   H1  H2  
O   H1  H2  O   H1  H2  O   H1  H2  O   H1  H2  O   H1  H2  O   H1  H2  O   H1  
H2  O   H1  H2  O   H1  H2  O   H1  H2  O   H1  H2  O   H1  H2  O   H1  H2  O   
H1  H2  O   H1  H2  O   H1  H2  O   H1  H2  O   H1  H2  O   H1  H2  O   H1  H2  
O   H1  H2  O   H1  H2  O   H1  H2  O   H1  H2  O   H1  H2  O   H1  H2  O   H1  
H2  O   H1  H2  O   H1  H2  O   H1  H2  O   H1  H2  O   H1  H2  O   H1  H2  O   
H1  H2  O   H1  H2  O   H1  H2  O   H1  H2  O   H1  H2  O   H1  H2  O   H1  H2  
O   H1  H2  O   H1  H2  O   H1  H2  O   H1  H2  O   H1  H2  O   H1  H2  O   H1  
H2  O   H1  H2  O   H1  H2  O   H1  H2  O   H1  H2  O   H1  H2  O   H1  H2  O   
H1  H2  O   H1  H2  O   H1  H2  O   H1  H2  O   H1  H2  O   H1  H2  O   H1  H2  
O   H1  H2  O   H1  H2  O   H1  H2  O   H1  H2  O   H1  H2  O   H1  H2  O   H1  
H2  O   H1  H2  O   H1  H2  O   H1  H2  O   H1  H2  O   H1  H2  O   H1  H2  O   
H1  H2  O   H1  H2  O   H1  H2  O   H1  H2  O   H1  H2  O   H1  H2  O   H1  H2  
O   H1  H2  O   H1  H2  O   H1  H2  O   H1  H2  O   H1  H2  O   H1  H2  O   H1  
H2  O   H1  H2  O   H1  H2  O   H1  H2  O   H1  H2  O   H1  H2  O   H1  H2  O   
H1  H2  O   H1  H2  O   H1  H2  O   H1  H2  O   H1  H2  O   H1  H2  O   H1  H2  
O   H1  H2  O   H1  H2  O   H1  H2  O   H1  H2  O   H1  H2  O   H1  H2  O   H1  
H2  O   H1  H2  O   H1  H2  O   H1  H2  O   H1  H2  O   H1  H2  O   H1  H2  O   
H1  H2  O   H1  H2  O   H1  H2  O   H1  H2  O   H1  H2  O   H1  H2  O   H1  H2  
O   H1  H2  O   H1  H2  O   H1  H2  O   H1  H2  O   H1  H2  O   H1  H2  O   H1  
H2  O   H1  H2  O   H1  H2  O   H1  H2  O   H1  H2  O   H1  H2  O   H1  H2  O   
H1  H2  O   H1  H2  O   H1  H2  O   H1  H2  O   H1  H2  O   H1  H2  O   H1  H2  
O   H1  H2  O   H1  H2  O   H1  H2  O   H1  H2  O   H1  H2  O   H1  H2  O   H1  
H2  O   H1  H2  O   H1  H2  O   H1  H2  O   H1  H2  O   H1  H2  O   H1  H2  O   
H1  H2  O   H1  H2  O   H1  H2  O   H1  H2  O   H1  H2  O   H1  H2  O   H1  H2  
O   H1  H2  O   H1  H2  O   H1  H2  O   H1  H2  O   H1  H2  O   H1  H2  O   H1  
H2  O   H1  H2  O   H1  H2  O   H1  H2  O   H1  H2  O   H1  H2  O   H1  H2  O   
H1  H2  O   H1  H2  O   H1  H2  O   H1  H2  O   H1  H2  O   H1  H2  O   H1  H2  
O   H1  H2  O   H1  H2  O   H1  H2  O   H1  H2  O   H1  H2  O   H1  H2  O   H1  
H2  O   H1  H2  O   H1  H2  O   H1  H2  O   H1  H2  O   H1  H2  O   H1  H2  O   
H1  H2  O   H1  H2  O   H1  H2  O   H1  H2  O   H1  H2  O   H1  H2  O   H1  H2  
O   H1  H2  O   H1  H2  O   H1  H2  O   H1  H2  O   H1  H2  O   H1  H2  O   H1  
H2  O   H1  H2  O   H1  H2  O   H1  H2  O   H1  H2  O   H1  H2  O   H1  H2  O   
H1  H2  O   H1  H2  O   H1  H2  O   H1  H2  O   H1  H2  O   H1  H2  O   H1  H2  
O   H1  H2  O   H1  H2  O   H1  H2  O   H1  H2  O   H1  H2  O   H1  H2  O   H1  
H2  O   H1  H2  O   H1  H2  O   H1  H2  O   H1  H2  O   H1  H2  O   H1  H2  O   
H1  H2  O   H1  H2  O   H1  H2  O   H1  H2  O   H1  H2  O   H1  H2  O   H1  H2  
O   H1  H2  O   H1  H2  O   H1  H2  O   H1  H2  O   H1  H2  O   H1  H2  O   H1  
H2  O   H1  H2  O   H1  H2  O   H1  H2  O   H1  H2  O   H1  H2  O   H1  H2  O   
H1  H2  O   H1  H2  O   H1  H2  O   H1  H2  O   H1  H2  O   H1  H2  O   H1  H2  
O   H1  H2  O   H1  H2  O   H1  H2  O   H1  H2  O   H1  H2  O   H1  H2  O   H1  
H2  O   H1  H2  O   H1  H2  O   H1  H2  O   H1  H2  O   H1  H2  O   H1  H2  O   
H1  H2  O   H1  H2  O   H1  H2  O   H1  H2  O   H1  H2  O   H1  H2  O   H1  H2  
O   H1  H2  O   H1  H2  O   H1  H2  O   H1  H2  O   H1  H2  O   H1  H2  O   H1  
H2  O   H1  H2  O   H1  H2  O   H1  H2  O   H1  H2  O   H1  H2  O   H1  H2  O   
H1  H2  O   H1  H2  O   H1  H2  O   H1  H2  O   H1  H2  O   H1  H2  O   H1  H2  
O   H1  H2  O   H1  H2  O   H1  H2  O   H1  H2  O   H1  H2  O   H1  H2  O   H1  
H2  O   H1  H2  O   H1  H2  O   H1  H2  O   H1  H2  O   H1  H2  O   H1  H2  O   
H1  H2  O   H1  H2  O   H1  H2  O   H1  H2  O   H1  H2  O   H1  H2  O   H1  H2  
O   H1  H2  O   H1  H2  O   H1  H2  O   H1  H2  O   H1  H2  O   H1  H2  O   H1  
H2  O   H1  H2  O   H1  H2  O   H1  H2  O   H1  H2  O   H1  H2  O   H1  H2  O   
H1  H2  O   H1  H2  O   H1  H2  O   H1  H2  O   H1  H2  O   H1  H2  O   H1  H2  
O   H1  H2  O   H1  H2  O   H1  H2  O   H1  H2  O   H1  H2  O   H1  H2  O   H1  
H2  O   H1  H2  O   H1  H2  O   H1  H2  O   H1  H2  O   H1  H2  O   H1  H2  O   
H1  H2  O   H1  H2  O   H1  H2  O   H1  H2  O   H1  H2  O   H1  H2  O   H1  H2  
O   H1  H2  O   H1  H2  O   H1  H2  O   H1  H2  O   H1  H2  O   H1  H2  O   H1  
H2  O   H1  H2  O   H1  H2  O   H1  H2  O   H1  H2  O   H1  H2  O   H1  H2  O   
H1  H2  O   H1  H2  O   H1  H2  O   H1  H2  O   H1  H2  O   H1  H2  O   H1  H2  
O   H1  H2  O   H1  H2  O   H1  H2  O   H1  H2  O   H1  H2  O   H1  H2  O   H1  
H2  O   H1  H2  O   H1  H2  O   H1  H2  O   H1  H2  O   H1  H2  O   H1  H2  O   
H1  H2  O   H1  H2  O   H1  H2  O   H1  H2  O   H1  H2  O   H1  H2  O   H1  H2  
O   H1  H2  O   H1  H2  O   H1  H2  O   H1  H2  O   H1  H2  O   H1  H2  O   H1  
H2  O   H1  H2  O   H1  H2  O   H1  H2  O   H1  H2  O   H1  H2  O   H1  H2  O   
H1  H2  O   H1  H2  O   H1  H2  O   H1  H2  O   H1  H2  O   H1  H2  O   H1  H2  
O   H1  H2  O   H1  H2  O   H1  H2  O   H1  H2  O   H1  H2  O   H1  H2  O   H1  
H2  O   H1  H2  O   H1  H2  O   H1  H2  O   H1  H2  O   H1  H2  O   H1  H2  O   
H1  H2  O   H1  H2  O   H1  H2  O   H1  H2  O   H1  H2  O   H1  H2  O   H1  H2  
O   H1  H2  O   H1  H2  O   H1  H2  O   H1  H2  O   H1  H2  O   H1  H2  O   H1  
H2  O   H1  H2  O   H1  H2  O   H1  H2  O   H1  H2  O   H1  H2  O   H1  H2  O   
H1  H2  O   H1  H2  O   H1  H2  O   H1  H2  O   H1  H2  O   H1  H2  O   H1  H2  
O   H1  H2  O   H1  H2  O   H1  H2  O   H1  H2  O   H1  H2  O   H1  H2  O   H1  
H2  O   H1  H2  O   H1  H2  O   H1  H2  O   H1  H2  O   H1  H2  O   H1  H2  O   
H1  H2  O   H1  H2  O   H1  H2  O   H1  H2  O   H1  H2  O   H1  H2  O   H1  H2  
O   H1  H2  O   H1  H2  O   H1  H2  O   H1  H2  O   H1  H2  O   H1  H2  O   H1  
H2  O   H1  H2  O   H1  H2  O   H1  H2  O   H1  H2  O   H1  H2  O   H1  H2  O   
H1  H2  O   H1  H2  O   H1  H2  O   H1  H2  O   H1  H2  O   H1  H2  O   H1  H2  
O   H1  H2  O   H1  H2  O   H1  H2  O   H1  H2  O   H1  H2  O   H1  H2  O   H1  
H2  O   H1  H2  O   H1  H2  O   H1  H2  O   H1  H2  O   H1  H2  O   H1  H2  O   
H1  H2  O   H1  H2  O   H1  H2  O   H1  H2  O   H1  H2  O   H1  H2  O   H1  H2  
O   H1  H2  O   H1  H2  O   H1  H2  O   H1  H2  O   H1  H2  O   H1  H2  O   H1  
H2  O   H1  H2  O   H1  H2  O   H1  H2  O   H1  H2  O   H1  H2  O   H1  H2  O   
H1  H2  O   H1  H2  O   H1  H2  O   H1  H2  O   H1  H2  O   H1  H2  O   H1  H2  
O   H1  H2  O   H1  H2  O   H1  H2  O   H1  H2  O   H1  H2  O   H1  H2  O   H1  
H2  O   H1  H2  O   H1  H2  O   H1  H2  O   H1  H2  O   H1  H2  O   H1  H2  O   
H1  H2  O   H1  H2  O   H1  H2  O   H1  H2  O   H1  H2  O   H1  H2  O   H1  H2  
O   H1  H2  O   H1  H2  O   H1  H2  O   H1  H2  O   H1  H2  O   H1  H2  O   H1  
H2  O   H1  H2  O   H1  H2  O   H1  H2  O   H1  H2  O   H1  H2  O   H1  H2  O   
H1  H2  O   H1  H2  O   H1  H2  O   H1  H2  O   H1  H2  O   H1  H2  O   H1  H2  
O   H1  H2  O   H1  H2  O   H1  H2  O   H1  H2  O   H1  H2  O   H1  H2  O   H1  
H2  O   H1  H2  O   H1  H2  O   H1  H2  O   H1  H2  O   H1  H2  O   H1  H2  O   
H1  H2  O   H1  H2  O   H1  H2  O   H1  H2  O   H1  H2  O   H1  H2  O   H1  H2  
O   H1  H2  O   H1  H2  O   H1  H2  O   H1  H2  O   H1  H2  O   H1  H2  O   H1  
H2  O   H1  H2  O   H1  H2  O   H1  H2  O   H1  H2  O   H1  H2  O   H1  H2  O   
H1  H2  O   H1  H2  O   H1  H2  O   H1  H2  O   H1  H2  O   H1  H2  O   H1  H2  
O   H1  H2  O   H1  H2  O   H1  H2  O   H1  H2  O   H1  H2  O   H1  H2  O   H1  
H2  O   H1  H2  O   H1  H2  O   H1  H2  O   H1  H2  O   H1  H2  O   H1  H2  O   
H1  H2  O   H1  H2  O   H1  H2  O   H1  H2  O   H1  H2  O   H1  H2  O   H1  H2  
O   H1  H2  O   H1  H2  O   H1  H2  O   H1  H2  O   H1  H2  O   H1  H2  O   H1  
H2  O   H1  H2  O   H1  H2  O   H1  H2  O   H1  H2  O   H1  H2  O   H1  H2  O   
H1  H2  O   H1  H2  O   H1  H2  O   H1  H2  O   H1  H2  O   H1  H2  O   H1  H2  
O   H1  H2  O   H1  H2  O   H1  H2  O   H1  H2  O   H1  H2  O   H1  H2  O   H1  
H2  O   H1  H2  O   H1  H2  O   H1  H2  O   H1  H2  O   H1  H2  O   H1  H2  O   
H1  H2  O   H1  H2  O   H1  H2  O   H1  H2  O   H1  H2  O   H1  H2  O   H1  H2  
O   H1  H2  O   H1  H2  O   H1  H2  O   H1  H2  O   H1  H2  O   H1  H2  O   H1  
H2  O   H1  H2  O   H1  H2  O   H1  H2  O   H1  H2  O   H1  H2  O   H1  H2  O   
H1  H2  O   H1  H2  O   H1  H2  O   H1  H2  O   H1  H2  O   H1  H2  O   H1  H2  
O   H1  H2  O   H1  H2  O   H1  H2  O   H1  H2  O   H1  H2  O   H1  H2  O   H1  
H2  O   H1  H2  O   H1  H2  O   H1  H2  O   H1  H2  O   H1  H2  O   H1  H2  O   
H1  H2  O   H1  H2  O   H1  H2  O   H1  H2  O   H1  H2  O   H1  H2  O   H1  H2  
O   H1  H2  O   H1  H2  O   H1  H2  O   H1  H2  O   H1  H2  O   H1  H2  O   H1  
H2  O   H1  H2  O   H1  H2  O   H1  H2  O   H1  H2  O   H1  H2  O   H1  H2  O   
H1  H2  O   H1  H2  O   H1  H2  O   H1  H2  O   H1  H2  O   H1  H2  O   H1  H2  
O   H1  H2  O   H1  H2  O   H1  H2  O   H1  H2  O   H1  H2  O   H1  H2  O   H1  
H2  O   H1  H2  O   H1  H2  O   H1  H2  O   H1  H2  O   H1  H2  O   H1  H2  O   
H1  H2  O   H1  H2  O   H1  H2  O   H1  H2  O   H1  H2  O   H1  H2  O   H1  H2  
O   H1  H2  O   H1  H2  O   H1  H2  O   H1  H2  O   H1  H2  O   H1  H2  O   H1  
H2  O   H1  H2  O   H1  H2  O   H1  H2  O   H1  H2  O   H1  H2  O   H1  H2  O   
H1  H2  O   H1  H2  O   H1  H2  O   H1  H2  O   H1  H2  O   H1  H2  O   H1  H2  
O   H1  H2  O   H1  H2  O   H1  H2  O   H1  H2  O   H1  H2  O   H1  H2  O   H1  
H2  O   H1  H2  O   H1  H2  O   H1  H2  O   H1  H2  O   H1  H2  O   H1  H2  O   
H1  H2  O   H1  H2  O   H1  H2  O   H1  H2  O   H1  H2  O   H1  H2  O   H1  H2  
O   H1  H2  O   H1  H2  O   H1  H2  O   H1  H2  O   H1  H2  O   H1  H2  O   H1  
H2  O   H1  H2  O   H1  H2  O   H1  H2  O   H1  H2  O   H1  H2  O   H1  H2  O   
H1  H2  O   H1  H2  O   H1  H2  O   H1  H2  O   H1  H2  O   H1  H2  O   H1  H2  
O   H1  H2  O   H1  H2  O   H1  H2  O   H1  H2  O   H1  H2  O   H1  H2  O   H1  
H2  O   H1  H2  O   H1  H2  O   H1  H2  O   H1  H2  O   H1  H2  O   H1  H2  O   
H1  H2  O   H1  H2  O   H1  H2  O   H1  H2  O   H1  H2  O   H1  H2  O   H1  H2  
O   H1  H2  O   H1  H2  O   H1  H2  O   H1  H2  O   H1  H2  O   H1  H2  O   H1  
H2  O   H1  H2  O   H1  H2  O   H1  H2  O   H1  H2  O   H1  H2  O   H1  H2  O   
H1  H2  O   H1  H2  O   H1  H2  O   H1  H2  O   H1  H2  O   H1  H2  O   H1  H2  
O   H1  H2  O   H1  H2  O   H1  H2  O   H1  H2  O   H1  H2  O   H1  H2  O   H1  
H2  O   H1  H2  O   H1  H2  O   H1  H2  O   H1  H2  O   H1  H2  O   H1  H2  O   
H1  H2  O   H1  H2  O   H1  H2  O   H1  H2  O   H1  H2  O   H1  H2  O   H1  H2  
O   H1  H2  O   H1  H2  O   H1  H2  O   H1  H2  O   H1  H2  O   H1  H2  O   H1  
H2  O   H1  H2  O   H1  H2  O   H1  H2  O   H1  H2  O   H1  H2  O   H1  H2  O   
H1  H2  O   H1  H2  O   H1  H2  O   H1  H2  O   H1  H2  O   H1  H2  O   H1  H2  
O   H1  H2  O   H1  H2  O   H1  H2  O   H1  H2  O   H1  H2  O   H1  H2  O   H1  
H2  O   H1  H2  O   H1  H2  O   H1  H2  O   H1  H2  O   H1  H2  O   H1  H2  O   
H1  H2  O   H1  H2  O   H1  H2  O   H1  H2  O   H1  H2  O   H1  H2  O   H1  H2  
O   H1  H2  O   H1  H2  O   H1  H2  O   H1  H2  O   H1  H2  O   H1  H2  O   H1  
H2  O   H1  H2  O   H1  H2  O   H1  H2  O   H1  H2  O   H1  H2  O   H1  H2  O   
H1  H2  O   H1  H2  O   H1  H2  O   H1  H2  O   H1  H2  O   H1  H2  O   H1  H2  
O   H1  H2  O   H1  H2  O   H1  H2  O   H1  H2  O   H1  H2  O   H1  H2  O   H1  
H2  O   H1  H2  O   H1  H2  O   H1  H2  O   H1  H2  O   H1  H2  O   H1  H2  O   
H1  H2  O   H1  H2  O   H1  H2  O   H1  H2  O   H1  H2  O   H1  H2  O   H1  H2  
O   H1  H2  O   H1  H2  O   H1  H2  O   H1  H2  O   H1  H2  O   H1  H2  O   H1  
H2  O   H1  H2  O   H1  H2  O   H1  H2  O   H1  H2  O   H1  H2  O   H1  H2  O   
H1  H2  O   H1  H2  O   H1  H2  O   H1  H2  O   H1  H2  O   H1  H2  O   H1  H2  
O   H1  H2  O   H1  H2  O   H1  H2  O   H1  H2  O   H1  H2  O   H1  H2  O   H1  
H2  O   H1  H2  O   H1  H2  O   H1  H2  O   H1  H2  O   H1  H2  O   H1  H2  O   
H1  H2  O   H1  H2  O   H1  H2  O   H1  H2  O   H1  H2  O   H1  H2  O   H1  H2  
O   H1  H2  O   H1  H2  O   H1  H2  O   H1  H2  O   H1  H2  O   H1  H2  O   H1  
H2  O   H1  H2  O   H1  H2  O   H1  H2  O   H1  H2  O   H1  H2  O   H1  H2  O   
H1  H2  O   H1  H2  O   H1  H2  O   H1  H2  O   H1  H2  O   H1  H2  O   H1  H2  
O   H1  H2  O   H1  H2  O   H1  H2  O   H1  H2  O   H1  H2  O   H1  H2  O   H1  
H2  O   H1  H2  O   H1  H2  O   H1  H2  O   H1  H2  O   H1  H2  O   H1  H2  O   
H1  H2  O   H1  H2  O   H1  H2  O   H1  H2  O   H1  H2  O   H1  H2  O   H1  H2  
O   H1  H2  O   H1  H2  O   H1  H2  O   H1  H2  O   H1  H2  O   H1  H2  O   H1  
H2  O   H1  H2  O   H1  H2  O   H1  H2  O   H1  H2  O   H1  H2  O   H1  H2  O   
H1  H2  O   H1  H2  O   H1  H2  O   H1  H2  O   H1  H2  O   H1  H2  O   H1  H2  
O   H1  H2  O   H1  H2  O   H1  H2  O   H1  H2  O   H1  H2  O   H1  H2  O   H1  
H2  O   H1  H2  O   H1  H2  O   H1  H2  O   H1  H2  O   H1  H2  O   H1  H2  O   
H1  H2  O   H1  H2  O   H1  H2  O   H1  H2  O   H1  H2  O   H1  H2  O   H1  H2  
O   H1  H2  O   H1  H2  O   H1  H2  O   H1  H2  O   H1  H2  O   H1  H2  O   H1  
H2  O   H1  H2  O   H1  H2  O   H1  H2  O   H1  H2  O   H1  H2  O   H1  H2  O   
H1  H2  O   H1  H2  O   H1  H2  O   H1  H2  O   H1  H2  O   H1  H2  O   H1  H2  
O   H1  H2  O   H1  H2  O   H1  H2  O   H1  H2  O   H1  H2  O   H1  H2  O   H1  
H2  O   H1  H2  O   H1  H2  O   H1  H2  O   H1  H2  O   H1  H2  O   H1  H2  O   
H1  H2  O   H1  H2  O   H1  H2  O   H1  H2  O   H1  H2  O   H1  H2  O   H1  H2  
O   H1  H2  O   H1  H2  O   H1  H2  O   H1  H2  O   H1  H2  O   H1  H2  O   H1  
H2  O   H1  H2  O   H1  H2  O   H1  H2  O   H1  H2  O   H1  H2  O   H1  H2  O   
H1  H2  O   H1  H2  O   H1  H2  O   H1  H2  O   H1  H2  O   H1  H2  O   H1  H2  
O   H1  H2  O   H1  H2  O   H1  H2  O   H1  H2  O   H1  H2  O   H1  H2  O   H1  
H2  O   H1  H2  O   H1  H2  O   H1  H2  O   H1  H2  O   H1  H2  O   H1  H2  O   
H1  H2  O   H1  H2  O   H1  H2  O   H1  H2  O   H1  H2  O   H1  H2  O   H1  H2  
O   H1  H2  O   H1  H2  O   H1  H2  O   H1  H2  O   H1  H2  O   H1  H2  O   H1  
H2  O   H1  H2  O   H1  H2  O   H1  H2  O   H1  H2  O   H1  H2  O   H1  H2  O   
H1  H2  O   H1  H2  O   H1  H2  O   H1  H2  O   H1  H2  O   H1  H2  O   H1  H2  
O   H1  H2  O   H1  H2  O   H1  H2  O   H1  H2  O   H1  H2  O   H1  H2  O   H1  
H2  O   H1  H2  O   H1  H2  O   H1  H2  O   H1  H2  O   H1  H2  O   H1  H2  O   
H1  H2  O   H1  H2  O   H1  H2  O   H1  H2  O   H1  H2  O   H1  H2  O   H1  H2  
O   H1  H2  O   H1  H2  O   H1  H2  O   H1  H2  O   H1  H2  O   H1  H2  O   H1  
H2  O   H1  H2  O   H1  H2  O   H1  H2  O   H1  H2  O   H1  H2  O   H1  H2  O   
H1  H2  O   H1  H2  O   H1  H2  O   H1  H2  O   H1  H2  O   H1  H2  O   H1  H2  
O   H1  H2  O   H1  H2  O   H1  H2  O   H1  H2  O   H1  H2  O   H1  H2  O   H1  
H2  O   H1  H2  O   H1  H2  O   H1  H2  O   H1  H2  O   H1  H2  O   H1  H2  O   
H1  H2  O   H1  H2  O   H1  H2  O   H1  H2  O   H1  H2  O   H1  H2  O   H1  H2  
O   H1  H2  O   H1  H2  O   H1  H2  O   H1  H2  O   H1  H2  O   H1  H2  O   H1  
H2  O   H1  H2  O   H1  H2  O   H1  H2  O   H1  H2  O   H1  H2  O   H1  H2  O   
H1  H2  O   H1  H2  O   H1  H2  O   H1  H2  O   H1  H2  O   H1  H2  O   H1  H2  
O   H1  H2  O   H1  H2  O   H1  H2  O   H1  H2  O   H1  H2  O   H1  H2  O   H1  
H2  O   H1  H2  O   H1  H2  O   H1  H2  O   H1  H2  O   H1  H2  O   H1  H2  O   
H1  H2  O   H1  H2  O   H1  H2  O   H1  H2  O   H1  H2  O   H1  H2  O   H1  H2  
O   H1  H2  O   H1  H2  O   H1  H2  O   H1  H2  O   H1  H2  O   H1  H2  O   H1  
H2  O   H1  H2  O   H1  H2  O   H1  H2  O   H1  H2  O   H1  H2  O   H1  H2  O   
H1  H2  O   H1  H2  O   H1  H2  O   H1  H2  O   H1  H2  O   H1  H2  O   H1  H2  
O   H1  H2  O   H1  H2  O   H1  H2  O   H1  H2  O   H1  H2  O   H1  H2  O   H1  
H2  O   H1  H2  O   H1  H2  O   H1  H2  O   H1  H2  O   H1  H2  O   H1  H2  O   
H1  H2  O   H1  H2  O   H1  H2  O   H1  H2  O   H1  H2  O   H1  H2  O   H1  H2  
O   H1  H2  O   H1  H2  O   H1  H2  O   H1  H2  O   H1  H2  O   H1  H2  O   H1  
H2  O   H1  H2  O   H1  H2  O   H1  H2  O   H1  H2  O   H1  H2  O   H1  H2  O   
H1  H2  O   H1  H2  O   H1  H2  O   H1  H2  O   H1  H2  O   H1  H2  O   H1  H2  
O   H1  H2  O   H1  H2  O   H1  H2  O   H1  H2  O   H1  H2  O   H1  H2  O   H1  
H2  O   H1  H2  O   H1  H2  O   H1  H2  O   H1  H2  O   H1  H2  O   H1  H2  O   
H1  H2  O   H1  H2  O   H1  H2  O   H1  H2  O   H1  H2  O   H1  H2  O   H1  H2  
O   H1  H2  O   H1  H2  O   H1  H2  O   H1  H2  O   H1  H2  O   H1  H2  O   H1  
H2  O   H1  H2  O   H1  H2  O   H1  H2  O   H1  H2  O   H1  H2  O   H1  H2  O   
H1  H2  O   H1  H2  O   H1  H2  O   H1  H2  O   H1  H2  O   H1  H2  O   H1  H2  
O   H1  H2  O   H1  H2  O   H1  H2  O   H1  H2  O   H1  H2  O   H1  H2  O   H1  
H2  O   H1  H2  O   H1  H2  O   H1  H2  O   H1  H2  O   H1  H2  O   H1  H2  O   
H1  H2  O   H1  H2  O   H1  H2  O   H1  H2  O   H1  H2  O   H1  H2  O   H1  H2  
O   H1  H2  O   H1  H2  O   H1  H2  O   H1  H2  O   H1  H2  O   H1  H2  O   H1  
H2  O   H1  H2  O   H1  H2  O   H1  H2  O   H1  H2  O   H1  H2  O   H1  H2  O   
H1  H2  O   H1  H2  O   H1  H2  O   H1  H2  O   H1  H2  O   H1  H2  O   H1  H2  
O   H1  H2  O   H1  H2  O   H1  H2  O   H1  H2  O   H1  H2  O   H1  H2  O   H1  
H2  O   H1  H2  O   H1  H2  O   H1  H2  O   H1  H2  O   H1  H2  O   H1  H2  O   
H1  H2  O   H1  H2  O   H1  H2  O   H1  H2  O   H1  H2  O   H1  H2  O   H1  H2  
O   H1  H2  O   H1  H2  O   H1  H2  O   H1  H2  O   H1  H2  O   H1  H2  O   H1  
H2  O   H1  H2  O   H1  H2  O   H1  H2  O   H1  H2  O   H1  H2  O   H1  H2  O   
H1  H2  O   H1  H2  O   H1  H2  O   H1  H2  O   H1  H2  O   H1  H2  O   H1  H2  
O   H1  H2  O   H1  H2  O   H1  H2  O   H1  H2  O   H1  H2  O   H1  H2  O   H1  
H2  O   H1  H2  O   H1  H2  O   H1  H2  O   H1  H2  O   H1  H2  O   H1  H2  O   
H1  H2  O   H1  H2  O   H1  H2  O   H1  H2  O   H1  H2  O   H1  H2  O   H1  H2  
O   H1  H2  O   H1  H2  O   H1  H2  O   H1  H2  O   H1  H2  O   H1  H2  O   H1  
H2  O   H1  H2  O   H1  H2  O   H1  H2  O   H1  H2  O   H1  H2  O   H1  H2  O   
H1  H2  O   H1  H2  O   H1  H2  O   H1  H2  O   H1  H2  O   H1  H2  O   H1  H2  
O   H1  H2  O   H1  H2  O   H1  H2  O   H1  H2  O   H1  H2  O   H1  H2  O   H1  
H2  O   H1  H2  O   H1  H2  O   H1  H2  O   H1  H2  O   H1  H2  O   H1  H2  O   
H1  H2  O   H1  H2  O   H1  H2  O   H1  H2  O   H1  H2  O   H1  H2  O   H1  H2  
O   H1  H2  O   H1  H2  O   H1  H2  O   H1  H2  O   H1  H2  O   H1  H2  O   H1  
H2  O   H1  H2  O   H1  H2  O   H1  H2  O   H1  H2  O   H1  H2  O   H1  H2  O   
H1  H2  O   H1  H2  O   H1  H2  O   H1  H2  O   H1  H2  O   H1  H2  O   H1  H2  
O   H1  H2  O   H1  H2  O   H1  H2  O   H1  H2  O   H1  H2  O   H1  H2  O   H1  
H2  O   H1  H2  O   H1  H2  O   H1  H2  O   H1  H2  O   H1  H2  O   H1  H2  O   
H1  H2  O   H1  H2  O   H1  H2  O   H1  H2  O   H1  H2  O   H1  H2  O   H1  H2  
O   H1  H2  O   H1  H2  O   H1  H2  O   H1  H2  O   H1  H2  O   H1  H2  O   H1  
H2  O   H1  H2  O   H1  H2  O   H1  H2  O   H1  H2  O   H1  H2  O   H1  H2  O   
H1  H2  O   H1  H2  O   H1  H2  O   H1  H2  O   H1  H2  O   H1  H2  O   H1  H2  
O   H1  H2  O   H1  H2  O   H1  H2  O   H1  H2  O   H1  H2  O   H1  H2  O   H1  
H2  O   H1  H2  O   H1  H2  O   H1  H2  O   H1  H2  O   H1  H2  O   H1  H2  O   
H1  H2  O   H1  H2  O   H1  H2  O   H1  H2  O   H1  H2  O   H1  H2  O   H1  H2  
O   H1  H2  O   H1  H2  O   H1  H2  O   H1  H2  O   H1  H2  O   H1  H2  O   H1  
H2  O   H1  H2  O   H1  H2  O   H1  H2  O   H1  H2  O   H1  H2  O   H1  H2  O   
H1  H2  O   H1  H2  O   H1  H2  O   H1  H2  O   H1  H2  O   H1  H2  O   H1  H2  
O   H1  H2  O   H1  H2  O   H1  H2  O   H1  H2  O   H1  H2  O   H1  H2  O   H1  
H2  O   H1  H2  O   H1  H2  O   H1  H2  O   H1  H2  O   H1  H2  O   H1  H2  O   
H1  H2  O   H1  H2  O   H1  H2  O   H1  H2  O   H1  H2  O   H1  H2  O   H1  H2  
O   H1  H2  O   H1  H2  O   H1  H2  O   H1  H2  O   H1  H2  O   H1  H2  O   H1  
H2  O   H1  H2  O   H1  H2  O   H1  H2  O   H1  H2  O   H1  H2  O   H1  H2  O   
H1  H2  O   H1  H2  O   H1  H2  O   H1  H2  O   H1  H2  O   H1  H2  O   H1  H2  
O   H1  H2  O   H1  H2  O   H1  H2  O   H1  H2  O   H1  H2  O   H1  H2  O   H1  
H2  O   H1  H2  O   H1  H2  O   H1  H2  O   H1  H2  O   H1  H2  O   H1  H2  O   
H1  H2  O   H1  H2  O   H1  H2  O   H1  H2  O   H1  H2  O   H1  H2  O   H1  H2  
O   H1  H2  O   H1  H2  O   H1  H2  O   H1  H2  O   H1  H2  O   H1  H2  O   H1  
H2  O   H1  H2  O   H1  H2  O   H1  H2  O   H1  H2  O   H1  H2  O   H1  H2  O   
H1  H2  O   H1  H2  O   H1  H2  O   H1  H2  O   H1  H2  O   H1  H2  O   H1  H2  
O   H1  H2  O   H1  H2  O   H1  H2  O   H1  H2  O   H1  H2  O   H1  H2  O   H1  
H2  O   H1  H2  O   H1  H2  O   H1  H2  O   H1  H2  O   H1  H2  O   H1  H2  O   
H1  H2  O   H1  H2  O   H1  H2  O   H1  H2  O   H1  H2  O   H1  H2  O   H1  H2  
O   H1  H2  O   H1  H2  O   H1  H2  O   H1  H2  O   H1  H2  O   H1  H2  O   H1  
H2  O   H1  H2  O   H1  H2  O   H1  H2  O   H1  H2  O   H1  H2  O   H1  H2  O   
H1  H2  O   H1  H2  O   H1  H2  O   H1  H2  O   H1  H2  O   H1  H2  O   H1  H2  
O   H1  H2  O   H1  H2  O   H1  H2  O   H1  H2  O   H1  H2  O   H1  H2  O   H1  
H2  O   H1  H2  O   H1  H2  O   H1  H2  O   H1  H2  O   H1  H2  O   H1  H2  O   
H1  H2  O   H1  H2  O   H1  H2  O   H1  H2  O   H1  H2  O   H1  H2  O   H1  H2  
O   H1  H2  O   H1  H2  O   H1  H2  O   H1  H2  O   H1  H2  O   H1  H2  O   H1  
H2  O   H1  H2  O   H1  H2  O   H1  H2  O   H1  H2  O   H1  H2  O   H1  H2  O   
H1  H2  O   H1  H2  O   H1  H2  O   H1  H2  O   H1  H2  O   H1  H2  O   H1  H2  
O   H1  H2  O   H1  H2  O   H1  H2  O   H1  H2  O   H1  H2  O   H1  H2  O   H1  
H2  O   H1  H2  O   H1  H2  O   H1  H2  O   H1  H2  O   H1  H2  O   H1  H2  O   
H1  H2  O   H1  H2  O   H1  H2  O   H1  H2  O   H1  H2  O   H1  H2  O   H1  H2  
O   H1  H2  O   H1  H2  O   H1  H2  O   H1  H2  O   H1  H2  O   H1  H2  O   H1  
H2  O   H1  H2  O   H1  H2  O   H1  H2  O   H1  H2  O   H1  H2  O   H1  H2  O   
H1  H2  O   H1  H2  O   H1  H2  O   H1  H2  O   H1  H2  O   H1  H2  O   H1  H2  
O   H1  H2  O   H1  H2  O   H1  H2  O   H1  H2  O   H1  H2  O   H1  H2  O   H1  
H2  O   H1  H2  O   H1  H2  O   H1  H2  O   H1  H2  O   H1  H2  O   H1  H2  O   
H1  H2  O   H1  H2  O   H1  H2  O   H1  H2  O   H1  H2  O   H1  H2  O   H1  H2  
O   H1  H2  O   H1  H2  O   H1  H2  O   H1  H2  O   H1  H2  O   H1  H2  O   H1  
H2  O   H1  H2  O   H1  H2  O   H1  H2  O   H1  H2  O   H1  H2  O   H1  H2  O   
H1  H2  O   H1  H2  O   H1  H2  O   H1  H2  O   H1  H2  O   H1  H2  O   H1  H2  
O   H1  H2  O   H1  H2  O   H1  H2  O   H1  H2  O   H1  H2  O   H1  H2  O   H1  
H2  O   H1  H2  O   H1  H2  O   H1  H2  O   H1  H2  O   H1  H2  O   H1  H2  O   
H1  H2  O   H1  H2  O   H1  H2  O   H1  H2  O   H1  H2  O   H1  H2  O   H1  H2  
O   H1  H2  O   H1  H2  O   H1  H2  O   H1  H2  O   H1  H2  O   H1  H2  O   H1  
H2  O   H1  H2  O   H1  H2  O   H1  H2  O   H1  H2  O   H1  H2  O   H1  H2  O   
H1  H2  O   H1  H2  O   H1  H2  O   H1  H2  O   H1  H2  O   H1  H2  O   H1  H2  
O   H1  H2  O   H1  H2  O   H1  H2  O   H1  H2  O   H1  H2  O   H1  H2  O   H1  
H2  O   H1  H2  O   H1  H2  O   H1  H2  O   H1  H2  O   H1  H2  O   H1  H2  O   
H1  H2  O   H1  H2  O   H1  H2  O   H1  H2  O   H1  H2  O   H1  H2  O   H1  H2  
O   H1  H2  O   H1  H2  O   H1  H2  O   H1  H2  O   H1  H2  O   H1  H2  O   H1  
H2  O   H1  H2  O   H1  H2  O   H1  H2  O   H1  H2  O   H1  H2  O   H1  H2  O   
H1  H2  O   H1  H2  O   H1  H2  O   H1  H2  O   H1  H2  O   H1  H2  O   H1  H2  
O   H1  H2  O   H1  H2  O   H1  H2  O   H1  H2  O   H1  H2  O   H1  H2  O   H1  
H2  O   H1  H2  O   H1  H2  O   H1  H2  O   H1  H2  O   H1  H2  O   H1  H2  O   
H1  H2  O   H1  H2  O   H1  H2  O   H1  H2  O   H1  H2  O   H1  H2  O   H1  H2  
O   H1  H2  O   H1  H2  O   H1  H2  O   H1  H2  O   H1  H2  O   H1  H2  O   H1  
H2  O   H1  H2  O   H1  H2  O   H1  H2  O   H1  H2  O   H1  H2  O   H1  H2  O   
H1  H2  O   H1  H2  O   H1  H2  O   H1  H2  O   H1  H2  O   H1  H2  O   H1  H2  
O   H1  H2  O   H1  H2  O   H1  H2  O   H1  H2  O   H1  H2  O   H1  H2  O   H1  
H2  O   H1  H2  O   H1  H2  O   H1  H2  O   H1  H2  O   H1  H2  O   H1  H2  O   
H1  H2  O   H1  H2  O   H1  H2  O   H1  H2  O   H1  H2  O   H1  H2  O   H1  H2  
O   H1  H2  O   H1  H2  O   H1  H2  O   H1  H2  O   H1  H2  O   H1  H2  O   H1  
H2  O   H1  H2  O   H1  H2  O   H1  H2  O   H1  H2  O   H1  H2  O   H1  H2  O   
H1  H2  O   H1  H2  O   H1  H2  O   H1  H2  O   H1  H2  O   H1  H2  O   H1  H2  
O   H1  H2  O   H1  H2  O   H1  H2  O   H1  H2  O   H1  H2  O   H1  H2  O   H1  
H2  O   H1  H2  O   H1  H2  O   H1  H2  O   H1  H2  O   H1  H2  O   H1  H2  O   
H1  H2  O   H1  H2  O   H1  H2  O   H1  H2  O   H1  H2  O   H1  H2  O   H1  H2  
O   H1  H2  O   H1  H2  O   H1  H2  O   H1  H2  O   H1  H2  O   H1  H2  O   H1  
H2  O   H1  H2  O   H1  H2  O   H1  H2  O   H1  H2  O   H1  H2  O   H1  H2  O   
H1  H2  O   H1  H2  O   H1  H2  O   H1  H2  O   H1  H2  O   H1  H2  O   H1  H2  
O   H1  H2  O   H1  H2  O   H1  H2  O   H1  H2  O   H1  H2  O   H1  H2  O   H1  
H2  O   H1  H2  O   H1  H2  O   H1  H2  O   H1  H2  O   H1  H2  O   H1  H2  O   
H1  H2  O   H1  H2  O   H1  H2  O   H1  H2  O   H1  H2  O   H1  H2  O   H1  H2  
O   H1  H2  O   H1  H2  O   H1  H2  O   H1  H2  O   H1  H2  O   H1  H2  O   H1  
H2  O   H1  H2  O   H1  H2  O   H1  H2  O   H1  H2  O   H1  H2  O   H1  H2  O   
H1  H2  O   H1  H2  O   H1  H2  O   H1  H2  O   H1  H2  O   H1  H2  O   H1  H2  
O   H1  H2  O   H1  H2  O   H1  H2  O   H1  H2  O   H1  H2  O   H1  H2  O   H1  
H2  O   H1  H2  O   H1  H2  O   H1  H2  O   H1  H2  O   H1  H2  O   H1  H2  O   
H1  H2  O   H1  H2  O   H1  H2  O   H1  H2  O   H1  H2  O   H1  H2  O   H1  H2  
O   H1  H2  O   H1  H2  O   H1  H2  O   H1  H2  O   H1  H2  O   H1  H2  O   H1  
H2  O   H1  H2  O   H1  H2  O   H1  H2  O   H1  H2  O   H1  H2  O   H1  H2  O   
H1  H2  O   H1  H2  O   H1  H2  O   H1  H2  O   H1  H2  O   H1  H2  O   H1  H2  
O   H1  H2  O   H1  H2  O   H1  H2  O   H1  H2  O   H1  H2  O   H1  H2  O   H1  
H2  O   H1  H2  O   H1  H2  O   H1  H2  O   H1  H2  O   H1  H2  O   H1  H2  O   
H1  H2  O   H1  H2  O   H1  H2  O   H1  H2  O   H1  H2  O   H1  H2  O   H1  H2  
O   H1  H2  O   H1  H2  O   H1  H2  O   H1  H2  O   H1  H2  O   H1  H2  O   H1  
H2  O   H1  H2  O   H1  H2  O   H1  H2  O   H1  H2  O   H1  H2  O   H1  H2  O   
H1  H2  O   H1  H2  O   H1  H2  O   H1  H2  O   H1  H2  O   H1  H2  O   H1  H2  
O   H1  H2  O   H1  H2  O   H1  H2  O   H1  H2  O   H1  H2  O   H1  H2  O   H1  
H2  O   H1  H2  O   H1  H2  O   H1  H2  O   H1  H2  O   H1  H2  O   H1  H2  O   
H1  H2  O   H1  H2  O   H1  H2  O   H1  H2  O   H1  H2  O   H1  H2  O   H1  H2  
O   H1  H2  O   H1  H2  O   H1  H2  O   H1  H2  O   H1  H2  O   H1  H2  O   H1  
H2  O   H1  H2  O   H1  H2  O   H1  H2  O   H1  H2  O   H1  H2  O   H1  H2  O   
H1  H2  O   H1  H2  O   H1  H2  O   H1  H2  O   H1  H2  O   H1  H2  O   H1  H2  
O   H1  H2  O   H1  H2  O   H1  H2  O   H1  H2  O   H1  H2  O   H1  H2  O   H1  
H2  O   H1  H2  O   H1  H2  O   H1  H2  O   H1  H2  O   H1  H2  O   H1  H2  O   
H1  H2  O   H1  H2  O   H1  H2  O   H1  H2  O   H1  H2  O   H1  H2  O   H1  H2  
O   H1  H2  O   H1  H2  O   H1  H2  O   H1  H2  O   H1  H2  O   H1  H2  O   H1  
H2  O   H1  H2  O   H1  H2  O   H1  H2  O   H1  H2  O   H1  H2  O   H1  H2  O   
H1  H2  O   H1  H2  O   H1  H2  O   H1  H2  O   H1  H2  O   H1  H2  O   H1  H2  
O   H1  H2  O   H1  H2  O   H1  H2  O   H1  H2  O   H1  H2  O   H1  H2  O   H1  
H2  O   H1  H2  O   H1  H2  O   H1  H2  O   H1  H2  O   H1  H2  O   H1  H2  O   
H1  H2  O   H1  H2  O   H1  H2  O   H1  H2  O   H1  H2  O   H1  H2  O   H1  H2  
O   H1  H2  O   H1  H2  O   H1  H2  O   H1  H2  O   H1  H2  O   H1  H2  O   H1  
H2  O   H1  H2  O   H1  H2  O   H1  H2  O   H1  H2  O   H1  H2  O   H1  H2  O   
H1  H2  O   H1  H2  O   H1  H2  O   H1  H2  O   H1  H2  O   H1  H2  O   H1  H2  
O   H1  H2  O   H1  H2  O   H1  H2  O   H1  H2  O   H1  H2  O   H1  H2  O   H1  
H2  O   H1  H2  O   H1  H2  O   H1  H2  O   H1  H2  O   H1  H2  O   H1  H2  O   
H1  H2  O   H1  H2  O   H1  H2  O   H1  H2  O   H1  H2  O   H1  H2  O   H1  H2  
O   H1  H2  O   H1  H2  O   H1  H2  O   H1  H2  O   H1  H2  O   H1  H2  O   H1  
H2  O   H1  H2  O   H1  H2  O   H1  H2  O   H1  H2  O   H1  H2  O   H1  H2  O   
H1  H2  O   H1  H2  O   H1  H2  O   H1  H2  O   H1  H2  O   H1  H2  O   H1  H2  
O   H1  H2  O   H1  H2  O   H1  H2  O   H1  H2  O   H1  H2  O   H1  H2  O   H1  
H2  O   H1  H2  O   H1  H2  O   H1  H2  O   H1  H2  O   H1  H2  O   H1  H2  O   
H1  H2  O   H1  H2  O   H1  H2  O   H1  H2  O   H1  H2  O   H1  H2  O   H1  H2  
O   H1  H2  O   H1  H2  O   H1  H2  O   H1  H2  O   H1  H2  O   H1  H2  O   H1  
H2  O   H1  H2  O   H1  H2  O   H1  H2  O   H1  H2  O   H1  H2  O   H1  H2  O   
H1  H2  O   H1  H2  O   H1  H2  O   H1  H2  O   H1  H2  O   H1  H2  O   H1  H2  
O   H1  H2  O   H1  H2  O   H1  H2  O   H1  H2  O   H1  H2  O   H1  H2  O   H1  
H2  O   H1  H2  O   H1  H2  O   H1  H2  O   H1  H2  O   H1  H2  O   H1  H2  O   
H1  H2  O   H1  H2  O   H1  H2  O   H1  H2  O   H1  H2  O   H1  H2  O   H1  H2  
O   H1  H2  O   H1  H2  O   H1  H2  O   H1  H2  O   H1  H2  O   H1  H2  O   H1  
H2  O   H1  H2  O   H1  H2  O   H1  H2  O   H1  H2  O   H1  H2  O   H1  H2  O   
H1  H2  O   H1  H2  O   H1  H2  O   H1  H2  O   H1  H2  O   H1  H2  O   H1  H2  
O   H1  H2  O   H1  H2  O   H1  H2  O   H1  H2  O   H1  H2  O   H1  H2  O   H1  
H2  O   H1  H2  O   H1  H2  O   H1  H2  O   H1  H2  O   H1  H2  O   H1  H2  O   
H1  H2  O   H1  H2  O   H1  H2  O   H1  H2  O   H1  H2  O   H1  H2  O   H1  H2  
O   H1  H2  O   H1  H2  O   H1  H2  O   H1  H2  O   H1  H2  O   H1  H2  O   H1  
H2  O   H1  H2  O   H1  H2  O   H1  H2  O   H1  H2  O   H1  H2  O   H1  H2  O   
H1  H2  O   H1  H2  O   H1  H2  O   H1  H2  O   H1  H2  O   H1  H2  O   H1  H2  
O   H1  H2  O   H1  H2  O   H1  H2  O   H1  H2  O   H1  H2  O   H1  H2  O   H1  
H2  O   H1  H2  O   H1  H2  O   H1  H2  O   H1  H2  O   H1  H2  O   H1  H2  O   
H1  H2  O   H1  H2  O   H1  H2  O   H1  H2  O   H1  H2  O   H1  H2  O   H1  H2  
O   H1  H2  O   H1  H2  O   H1  H2  O   H1  H2  O   H1  H2  O   H1  H2  O   H1  
H2  O   H1  H2  O   H1  H2  O   H1  H2  O   H1  H2  O   H1  H2  O   H1  H2  O   
H1  H2  O   H1  H2  O   H1  H2  O   H1  H2  O   H1  H2  O   H1  H2  O   H1  H2  
O   H1  H2  O   H1  H2  O   H1  H2  O   H1  H2  O   H1  H2  O   H1  H2  O   H1  
H2  O   H1  H2  O   H1  H2  O   H1  H2  O   H1  H2  O   H1  H2  O   H1  H2  O   
H1  H2  O   H1  H2  O   H1  H2  O   H1  H2  O   H1  H2  O   H1  H2  O   H1  H2  
O   H1  H2  O   H1  H2  O   H1  H2  O   H1  H2  O   H1  H2  O   H1  H2  O   H1  
H2  O   H1  H2  O   H1  H2  O   H1  H2  O   H1  H2  O   H1  H2  O   H1  H2  O   
H1  H2  O   H1  H2  O   H1  H2  O   H1  H2  O   H1  H2  O   H1  H2  O   H1  H2  
O   H1  H2  O   H1  H2  O   H1  H2  O   H1  H2  O   H1  H2  O   H1  H2  O   H1  
H2  O   H1  H2  O   H1  H2  O   H1  H2  O   H1  H2  O   H1  H2  O   H1  H2  O   
H1  H2  O   H1  H2  O   H1  H2  O   H1  H2  O   H1  H2  O   H1  H2  O   H1  H2  
O   H1  H2  O   H1  H2  O   H1  H2  O   H1  H2  O   H1  H2  O   H1  H2  O   H1  
H2  O   H1  H2  O   H1  H2  O   H1  H2  O   H1  H2  O   H1  H2  O   H1  H2  O   
H1  H2  O   H1  H2  O   H1  H2  O   H1  H2  O   H1  H2  O   H1  H2  O   H1  H2  
O   H1  H2  O   H1  H2  O   H1  H2  O   H1  H2  O   H1  H2  O   H1  H2  O   H1  
H2  O   H1  H2  O   H1  H2  O   H1  H2  O   H1  H2  O   H1  H2  O   H1  H2  O   
H1  H2  O   H1  H2  O   H1  H2  O   H1  H2  O   H1  H2  O   H1  H2  O   H1  H2  
O   H1  H2  O   H1  H2  O   H1  H2  O   H1  H2  O   H1  H2  O   H1  H2  O   H1  
H2  O   H1  H2  O   H1  H2  O   H1  H2  O   H1  H2  O   H1  H2  O   H1  H2  O   
H1  H2  O   H1  H2  O   H1  H2  O   H1  H2  O   H1  H2  O   H1  H2  O   H1  H2  
O   H1  H2  O   H1  H2  O   H1  H2  O   H1  H2  O   H1  H2  O   H1  H2  O   H1  
H2  O   H1  H2  O   H1  H2  O   H1  H2  O   H1  H2  O   H1  H2  O   H1  H2  O   
H1  H2  O   H1  H2  O   H1  H2  O   H1  H2  O   H1  H2  O   H1  H2  O   H1  H2  
O   H1  H2  O   H1  H2  O   H1  H2  O   H1  H2  O   H1  H2  O   H1  H2  O   H1  
H2  O   H1  H2  O   H1  H2  O   H1  H2  O   H1  H2  O   H1  H2  O   H1  H2  O   
H1  H2  O   H1  H2  O   H1  H2  O   H1  H2  O   H1  H2  O   H1  H2  O   H1  H2  
O   H1  H2  O   H1  H2  O   H1  H2  O   H1  H2  O   H1  H2  O   H1  H2  O   H1  
H2  O   H1  H2  O   H1  H2  O   H1  H2  O   H1  H2  O   H1  H2  O   H1  H2  O   
H1  H2  O   H1  H2  O   H1  H2  O   H1  H2  O   H1  H2  O   H1  H2  O   H1  H2  
O   H1  H2  O   H1  H2  O   H1  H2  O   H1  H2  O   H1  H2  O   H1  H2  O   H1  
H2  O   H1  H2  O   H1  H2  O   H1  H2  O   H1  H2  O   H1  H2  O   H1  H2  O   
H1  H2  O   H1  H2  O   H1  H2  O   H1  H2  O   H1  H2  O   H1  H2  O   H1  H2  
O   H1  H2  O   H1  H2  O   H1  H2  O   H1  H2  O   H1  H2  O   H1  H2  O   H1  
H2  O   H1  H2  O   H1  H2  O   H1  H2  O   H1  H2  O   H1  H2  O   H1  H2  O   
H1  H2  O   H1  H2  O   H1  H2  O   H1  H2  O   H1  H2  O   H1  H2  O   H1  H2  
O   H1  H2  O   H1  H2  O   H1  H2  O   H1  H2  O   H1  H2  O   H1  H2  O   H1  
H2  O   H1  H2  O   H1  H2  O   H1  H2  O   H1  H2  O   H1  H2  O   H1  H2  O   
H1  H2  O   H1  H2  O   H1  H2  O   H1  H2  O   H1  H2  O   H1  H2  O   H1  H2  
O   H1  H2  O   H1  H2  O   H1  H2  O   H1  H2  O   H1  H2  O   H1  H2  O   H1  
H2  O   H1  H2  O   H1  H2  O   H1  H2  O   H1  H2  O   H1  H2  O   H1  H2  O   
H1  H2  O   H1  H2  O   H1  H2  O   H1  H2  O   H1  H2  O   H1  H2  O   H1  H2  
O   H1  H2  O   H1  H2  O   H1  H2  O   H1  H2  O   H1  H2  O   H1  H2  O   H1  
H2  O   H1  H2  O   H1  H2  O   H1  H2  O   H1  H2  O   H1  H2  O   H1  H2  O   
H1  H2  O   H1  H2  O   H1  H2  O   H1  H2  O   H1  H2  O   H1  H2  O   H1  H2  
O   H1  H2  O   H1  H2  O   H1  H2  O   H1  H2  O   H1  H2  O   H1  H2  O   H1  
H2  O   H1  H2  O   H1  H2  O   H1  H2  O   H1  H2  O   H1  H2  O   H1  H2  O   
H1  H2  O   H1  H2  O   H1  H2  O   H1  H2  O   H1  H2  O   H1  H2  O   H1  H2  
O   H1  H2  O   H1  H2  O   H1  H2  O   H1  H2  O   H1  H2  O   H1  H2  O   H1  
H2  O   H1  H2  O   H1  H2  O   H1  H2  O   H1  H2  O   H1  H2  O   H1  H2  O   
H1  H2  O   H1  H2  O   H1  H2  O   H1  H2  O   H1  H2  O   H1  H2  O   H1  H2  
O   H1  H2  O   H1  H2  O   H1  H2  O   H1  H2  O   H1  H2  O   H1  H2  O   H1  
H2  O   H1  H2  O   H1  H2  O   H1  H2  O   H1  H2  O   H1  H2  O   H1  H2  O   
H1  H2  O   H1  H2  O   H1  H2  O   H1  H2  O   H1  H2  O   H1  H2  O   H1  H2  
O   H1  H2  O   H1  H2  O   H1  H2  O   H1  H2  O   H1  H2  O   H1  H2  O   H1  
H2  O   H1  H2  O   H1  H2  O   H1  H2  O   H1  H2  O   H1  H2  O   H1  H2  O   
H1  H2  O   H1  H2  O   H1  H2  O   H1  H2  O   H1  H2  O   H1  H2  O   H1  H2  
O   H1  H2  O   H1  H2  O   H1  H2  O   H1  H2  O   H1  H2  O   H1  H2  O   H1  
H2  O   H1  H2  O   H1  H2  O   H1  H2  O   H1  H2  O   H1  H2  O   H1  H2  O   
H1  H2  O   H1  H2  O   H1  H2  O   H1  H2  O   H1  H2  O   H1  H2  O   H1  H2  
O   H1  H2  O   H1  H2  O   H1  H2  O   H1  H2  O   H1  H2  O   H1  H2  O   H1  
H2  O   H1  H2  O   H1  H2  O   H1  H2  O   H1  H2  O   H1  H2  O   H1  H2  O   
H1  H2  O   H1  H2  O   H1  H2  O   H1  H2  O   H1  H2  O   H1  H2  O   H1  H2  
O   H1  H2  O   H1  H2  O   H1  H2  O   H1  H2  O   H1  H2  O   H1  H2  O   H1  
H2  O   H1  H2  O   H1  H2  O   H1  H2  O   H1  H2  O   H1  H2  O   H1  H2  O   
H1  H2  O   H1  H2  O   H1  H2  O   H1  H2  O   H1  H2  O   H1  H2  O   H1  H2  
O   H1  H2  O   H1  H2  O   H1  H2  O   H1  H2  O   H1  H2  O   H1  H2  O   H1  
H2  O   H1  H2  O   H1  H2  O   H1  H2  O   H1  H2  O   H1  H2  O   H1  H2  O   
H1  H2  O   H1  H2  O   H1  H2  O   H1  H2  O   H1  H2  O   H1  H2  O   H1  H2  
O   H1  H2  O   H1  H2  O   H1  H2  O   H1  H2  O   H1  H2  O   H1  H2  O   H1  
H2  O   H1  H2  O   H1  H2  O   H1  H2  O   H1  H2  O   H1  H2  O   H1  H2  O   
H1  H2  O   H1  H2  O   H1  H2  O   H1  H2  O   H1  H2  O   H1  H2  O   H1  H2  
O   H1  H2  O   H1  H2  O   H1  H2  O   H1  H2  O   H1  H2  O   H1  H2  O   H1  
H2  O   H1  H2  O   H1  H2  O   H1  H2  O   H1  H2  O   H1  H2  O   H1  H2  O   
H1  H2  O   H1  H2  O   H1  H2  O   H1  H2  O   H1  H2  O   H1  H2  O   H1  H2  
O   H1  H2  O   H1  H2  O   H1  H2  O   H1  H2  O   H1  H2  O   H1  H2  O   H1  
H2  O   H1  H2  O   H1  H2  O   H1  H2  O   H1  H2  O   H1  H2  O   H1  H2  O   
H1  H2  O   H1  H2  O   H1  H2  O   H1  H2  O   H1  H2  O   H1  H2  O   H1  H2  
O   H1  H2  O   H1  H2  O   H1  H2  O   H1  H2  O   H1  H2  O   H1  H2  O   H1  
H2  O   H1  H2  O   H1  H2  O   H1  H2  O   H1  H2  O   H1  H2  O   H1  H2  O   
H1  H2  O   H1  H2  O   H1  H2  O   H1  H2  O   H1  H2  O   H1  H2  O   H1  H2  
O   H1  H2  O   H1  H2  O   H1  H2  O   H1  H2  O   H1  H2  O   H1  H2  O   H1  
H2  O   H1  H2  O   H1  H2  O   H1  H2  O   H1  H2  O   H1  H2  O   H1  H2  O   
H1  H2  O   H1  H2  O   H1  H2  O   H1  H2  O   H1  H2  O   H1  H2  O   H1  H2  
O   H1  H2  O   H1  H2  O   H1  H2  O   H1  H2  O   H1  H2  O   H1  H2  O   H1  
H2  O   H1  H2  O   H1  H2  O   H1  H2  O   H1  H2  O   H1  H2  O   H1  H2  O   
H1  H2  O   H1  H2  O   H1  H2  O   H1  H2  O   H1  H2  O   H1  H2  O   H1  H2  
O   H1  H2  O   H1  H2  O   H1  H2  O   H1  H2  O   H1  H2  O   H1  H2  O   H1  
H2  O   H1  H2  O   H1  H2  O   H1  H2  O   H1  H2  O   H1  H2  O   H1  H2  O   
H1  H2  O   H1  H2  O   H1  H2  O   H1  H2  O   H1  H2  O   H1  H2  O   H1  H2  
O   H1  H2  O   H1  H2  O   H1  H2  O   H1  H2  O   H1  H2  O   H1  H2  O   H1  
H2  O   H1  H2  O   H1  H2  O   H1  H2  O   H1  H2  O   H1  H2  O   H1  H2  O   
H1  H2  O   H1  H2  O   H1  H2  O   H1  H2  O   H1  H2  O   H1  H2  O   H1  H2  
O   H1  H2  O   H1  H2  O   H1  H2  O   H1  H2  O   H1  H2  O   H1  H2  O   H1  
H2  O   H1  H2  O   H1  H2  O   H1  H2  O   H1  H2  O   H1  H2  O   H1  H2  O   
H1  H2  O   H1  H2  O   H1  H2  O   H1  H2  O   H1  H2  O   H1  H2  O   H1  H2  
O   H1  H2  O   H1  H2  O   H1  H2  O   H1  H2  O   H1  H2  O   H1  H2  O   H1  
H2  O   H1  H2  O   H1  H2  O   H1  H2  O   H1  H2  O   H1  H2  O   H1  H2  O   
H1  H2  O   H1  H2  O   H1  H2  O   H1  H2  O   H1  H2  O   H1  H2  O   H1  H2  
O   H1  H2  O   H1  H2  O   H1  H2  O   H1  H2  O   H1  H2  O   H1  H2  O   H1  
H2  O   H1  H2  O   H1  H2  O   H1  H2  O   H1  H2  O   H1  H2  O   H1  H2  O   
H1  H2  O   H1  H2  O   H1  H2  O   H1  H2  O   H1  H2  O   H1  H2  O   H1  H2  
O   H1  H2  O   H1  H2  O   H1  H2  O   H1  H2  O   H1  H2  O   H1  H2  O   H1  
H2  O   H1  H2  O   H1  H2  O   H1  H2  O   H1  H2  O   H1  H2  O   H1  H2  O   
H1  H2  O   H1  H2  O   H1  H2  O   H1  H2  O   H1  H2  O   H1  H2  O   H1  H2  
O   H1  H2  O   H1  H2  O   H1  H2  O   H1  H2  O   H1  H2  O   H1  H2  O   H1  
H2  O   H1  H2  O   H1  H2  O   H1  H2  O   H1  H2  O   H1  H2  O   H1  H2  O   
H1  H2  O   H1  H2  O   H1  H2  O   H1  H2  O   H1  H2  O   H1  H2  O   H1  H2  
O   H1  H2  O   H1  H2  O   H1  H2  O   H1  H2  O   H1  H2  O   H1  H2  O   H1  
H2  O   H1  H2  O   H1  H2  O   H1  H2  O   H1  H2  O   H1  H2  O   H1  H2  O   
H1  H2  O   H1  H2  O   H1  H2  O   H1  H2  O   H1  H2  O   H1  H2  O   H1  H2  
O   H1  H2  O   H1  H2  O   H1  H2  O   H1  H2  O   H1  H2  O   H1  H2  O   H1  
H2  O   H1  H2  O   H1  H2  O   H1  H2  O   H1  H2  O   H1  H2  O   H1  H2  O   
H1  H2  O   H1  H2  O   H1  H2  O   H1  H2  O   H1  H2  O   H1  H2  O   H1  H2  
O   H1  H2  O   H1  H2  O   H1  H2  O   H1  H2  O   H1  H2  O   H1  H2  O   H1  
H2  O   H1  H2  O   H1  H2  O   H1  H2  O   H1  H2  O   H1  H2  O   H1  H2  O   
H1  H2  O   H1  H2  O   H1  H2  O   H1  H2  O   H1  H2  O   H1  H2  O   H1  H2  
O   H1  H2  O   H1  H2  O   H1  H2  O   H1  H2  O   H1  H2  O   H1  H2  O   H1  
H2  O   H1  H2  O   H1  H2  O   H1  H2  O   H1  H2  O   H1  H2  O   H1  H2  O   
H1  H2  O   H1  H2  O   H1  H2  O   H1  H2  O   H1  H2  O   H1  H2  O   H1  H2  
O   H1  H2  O   H1  H2  O   H1  H2  O   H1  H2  O   H1  H2  O   H1  H2  O   H1  
H2  O   H1  H2  O   H1  H2  O   H1  H2  O   H1  H2  O   H1  H2  O   H1  H2  O   
H1  H2  O   H1  H2  O   H1  H2  O   H1  H2  O   H1  H2  O   H1  H2  O   H1  H2  
O   H1  H2  O   H1  H2  O   H1  H2  O   H1  H2  O   H1  H2  O   H1  H2  O   H1  
H2  O   H1  H2  O   H1  H2  O   H1  H2  O   H1  H2  O   H1  H2  O   H1  H2  O   
H1  H2  O   H1  H2  O   H1  H2  O   H1  H2  O   H1  H2  O   H1  H2  O   H1  H2  
O   H1  H2  O   H1  H2  O   H1  H2  O   H1  H2  O   H1  H2  O   H1  H2  O   H1  
H2  O   H1  H2  O   H1  H2  O   H1  H2  O   H1  H2  O   H1  H2  O   H1  H2  O   
H1  H2  O   H1  H2  O   H1  H2  O   H1  H2  O   H1  H2  O   H1  H2  O   H1  H2  
O   H1  H2  O   H1  H2  O   H1  H2  O   H1  H2  O   H1  H2  O   H1  H2  O   H1  
H2  O   H1  H2  O   H1  H2  O   H1  H2  O   H1  H2  O   H1  H2  O   H1  H2  O   
H1  H2  O   H1  H2  O   H1  H2  O   H1  H2  O   H1  H2  O   H1  H2  O   H1  H2  
O   H1  H2  O   H1  H2  O   H1  H2  O   H1  H2  O   H1  H2  O   H1  H2  O   H1  
H2  O   H1  H2  O   H1  H2  O   H1  H2  O   H1  H2  O   H1  H2  O   H1  H2  O   
H1  H2  O   H1  H2  O   H1  H2  O   H1  H2  O   H1  H2  O   H1  H2  O   H1  H2  
O   H1  H2  O   H1  H2  O   H1  H2  O   H1  H2  O   H1  H2  O   H1  H2  O   H1  
H2  O   H1  H2  O   H1  H2  O   H1  H2  O   H1  H2  O   H1  H2  O   H1  H2  O   
H1  H2  O   H1  H2  O   H1  H2  O   H1  H2  O   H1  H2  O   H1  H2  O   H1  H2  
O   H1  H2  O   H1  H2  O   H1  H2  O   H1  H2  O   H1  H2  O   H1  H2  O   H1  
H2  O   H1  H2  O   H1  H2  O   H1  H2  O   H1  H2  O   H1  H2  O   H1  H2  O   
H1  H2  O   H1  H2  O   H1  H2  O   H1  H2  O   H1  H2  O   H1  H2  O   H1  H2  
O   H1  H2  O   H1  H2  O   H1  H2  O   H1  H2  O   H1  H2  O   H1  H2  O   H1  
H2  O   H1  H2  O   H1  H2  O   H1  H2  O   H1  H2  O   H1  H2  O   H1  H2  O   
H1  H2  O   H1  H2  O   H1  H2  O   H1  H2  O   H1  H2  O   H1  H2  O   H1  H2  
O   H1  H2  O   H1  H2  O   H1  H2  O   H1  H2  O   H1  H2  O   H1  H2  O   H1  
H2  O   H1  H2  O   H1  H2  O   H1  H2  O   H1  H2  O   H1  H2  O   H1  H2  O   
H1  H2  O   H1  H2  O   H1  H2  O   H1  H2  O   H1  H2  O   H1  H2  O   H1  H2  
O   H1  H2  O   H1  H2  O   H1  H2  O   H1  H2  O   H1  H2  O   H1  H2  O   H1  
H2  O   H1  H2  O   H1  H2  O   H1  H2  O   H1  H2  O   H1  H2  O   H1  H2  O   
H1  H2  O   H1  H2  O   H1  H2  O   H1  H2  O   H1  H2  O   H1  H2  O   H1  H2  
O   H1  H2  O   H1  H2  O   H1  H2  O   H1  H2  O   H1  H2  O   H1  H2  O   H1  
H2  O   H1  H2  O   H1  H2  O   H1  H2  O   H1  H2  O   H1  H2  O   H1  H2  O   
H1  H2  O   H1  H2  O   H1  H2  O   H1  H2  O   H1  H2  O   H1  H2  O   H1  H2  
O   H1  H2  O   H1  H2  O   H1  H2  O   H1  H2  O   H1  H2  O   H1  H2  O   H1  
H2  O   H1  H2  O   H1  H2  O   H1  H2  O   H1  H2  O   H1  H2  O   H1  H2  O   
H1  H2  O   H1  H2  O   H1  H2  O   H1  H2  O   H1  H2  O   H1  H2  O   H1  H2  
O   H1  H2  O   H1  H2  O   H1  H2  O   H1  H2  O   H1  H2  O   H1  H2  O   H1  
H2  O   H1  H2  O   H1  H2  O   H1  H2  O   H1  H2  O   H1  H2  O   H1  H2  O   
H1  H2  O   H1  H2  O   H1  H2  O   H1  H2  O   H1  H2  O   H1  H2  O   H1  H2  
O   H1  H2  O   H1  H2  O   H1  H2  O   H1  H2  O   H1  H2  O   H1  H2  O   H1  
H2  O   H1  H2  O   H1  H2  O   H1  H2  O   H1  H2  O   H1  H2  O   H1  H2  O   
H1  H2  O   H1  H2  O   H1  H2  O   H1  H2  O   H1  H2  O   H1  H2  O   H1  H2  
O   H1  H2  O   H1  H2  O   H1  H2  O   H1  H2  O   H1  H2  O   H1  H2  O   H1  
H2  O   H1  H2  O   H1  H2  O   H1  H2  O   H1  H2  O   H1  H2  O   H1  H2  O   
H1  H2  O   H1  H2  O   H1  H2  O   H1  H2  O   H1  H2  O   H1  H2  O   H1  H2  
O   H1  H2  O   H1  H2  O   H1  H2  O   H1  H2  O   H1  H2  O   H1  H2  O   H1  
H2  O   H1  H2  O   H1  H2  O   H1  H2  O   H1  H2  O   H1  H2  O   H1  H2  O   
H1  H2  O   H1  H2  O   H1  H2  O   H1  H2  O   H1  H2  O   H1  H2  O   H1  H2  
O   H1  H2  O   H1  H2  O   H1  H2  O   H1  H2  O   H1  H2  O   H1  H2  O   H1  
H2  O   H1  H2  O   H1  H2  O   H1  H2  O   H1  H2  O   H1  H2  O   H1  H2  O   
H1  H2  O   H1  H2  O   H1  H2  O   H1  H2  O   H1  H2  O   H1  H2  O   H1  H2  
O   H1  H2  O   H1  H2  O   H1  H2  O   H1  H2  O   H1  H2  O   H1  H2  O   H1  
H2  O   H1  H2  O   H1  H2  O   H1  H2  O   H1  H2  O   H1  H2  O   H1  H2  O   
H1  H2  O   H1  H2  O   H1  H2  O   H1  H2  O   H1  H2  O   H1  H2  O   H1  H2  
O   H1  H2  O   H1  H2  O   H1  H2  O   H1  H2  O   H1  H2  O   H1  H2  O   H1  
H2  O   H1  H2  O   H1  H2  O   H1  H2  O   H1  H2  O   H1  H2  O   H1  H2  O   
H1  H2  O   H1  H2  O   H1  H2  O   H1  H2  O   H1  H2  O   H1  H2  O   H1  H2  
O   H1  H2  O   H1  H2  O   H1  H2  O   H1  H2  O   H1  H2  O   H1  H2  O   H1  
H2  O   H1  H2  O   H1  H2  O   H1  H2  O   H1  H2  O   H1  H2  O   H1  H2  O   
H1  H2  O   H1  H2  O   H1  H2  O   H1  H2  O   H1  H2  O   H1  H2  O   H1  H2  
O   H1  H2  O   H1  H2  O   H1  H2  O   H1  H2  O   H1  H2  O   H1  H2  O   H1  
H2  O   H1  H2  O   H1  H2  O   H1  H2  O   H1  H2  O   H1  H2  O   H1  H2  O   
H1  H2  O   H1  H2  O   H1  H2  O   H1  H2  O   H1  H2  O   H1  H2  O   H1  H2  
O   H1  H2  O   H1  H2  O   H1  H2  O   H1  H2  O   H1  H2  O   H1  H2  O   H1  
H2  O   H1  H2  O   H1  H2  O   H1  H2  O   H1  H2  O   H1  H2  O   H1  H2  O   
H1  H2  O   H1  H2  O   H1  H2  O   H1  H2  O   H1  H2  O   H1  H2  O   H1  H2  
O   H1  H2  O   H1  H2  O   H1  H2  O   H1  H2  O   H1  H2  O   H1  H2  O   H1  
H2  O   H1  H2  O   H1  H2  O   H1  H2  O   H1  H2  O   H1  H2  O   H1  H2  O   
H1  H2  O   H1  H2  O   H1  H2  O   H1  H2  O   H1  H2  O   H1  H2  O   H1  H2  
O   H1  H2  O   H1  H2  O   H1  H2  O   H1  H2  O   H1  H2  O   H1  H2  O   H1  
H2  O   H1  H2  O   H1  H2  O   H1  H2  O   H1  H2  O   H1  H2  O   H1  H2  O   
H1  H2  O   H1  H2  O   H1  H2  O   H1  H2  O   H1  H2  O   H1  H2  O   H1  H2  
O   H1  H2  O   H1  H2  O   H1  H2  O   H1  H2  O   H1  H2  O   H1  H2  O   H1  
H2  O   H1  H2  O   H1  H2  O   H1  H2  O   H1  H2  O   H1  H2  O   H1  H2  O   
H1  H2  O   H1  H2  O   H1  H2  O   H1  H2  O   H1  H2  O   H1  H2  O   H1  H2  
O   H1  H2  O   H1  H2  O   H1  H2  O   H1  H2  O   H1  H2  O   H1  H2  O   H1  
H2  O   H1  H2  O   H1  H2  O   H1  H2  O   H1  H2  O   H1  H2  O   H1  H2  O   
H1  H2  O   H1  H2  O   H1  H2  O   H1  H2  O   H1  H2  O   H1  H2  O   H1  H2  
O   H1  H2  O   H1  H2  O   H1  H2  O   H1  H2  O   H1  H2  O   H1  H2  O   H1  
H2  O   H1  H2  O   H1  H2  O   H1  H2  O   H1  H2  O   H1  H2  O   H1  H2  O   
H1  H2  O   H1  H2  O   H1  H2  O   H1  H2  O   H1  H2  O   H1  H2  O   H1  H2  
O   H1  H2  O   H1  H2  O   H1  H2  O   H1  H2  O   H1  H2  O   H1  H2  O   H1  
H2  O   H1  H2  O   H1  H2  O   H1  H2  O   H1  H2  O   H1  H2  O   H1  H2  O   
H1  H2  O   H1  H2  O   H1  H2  O   H1  H2  O   H1  H2  O   H1  H2  O   H1  H2  
O   H1  H2  O   H1  H2  O   H1  H2  O   H1  H2  O   H1  H2  O   H1  H2  O   H1  
H2  O   H1  H2  O   H1  H2  O   H1  H2  O   H1  H2  O   H1  H2  O   H1  H2  O   
H1  H2  O   H1  H2  O   H1  H2  O   H1  H2  O   H1  H2  O   H1  H2  O   H1  H2  
O   H1  H2  O   H1  H2  O   H1  H2  O   H1  H2  O   H1  H2  O   H1  H2  O   H1  
H2  O   H1  H2  O   H1  H2  O   H1  H2  O   H1  H2  O   H1  H2  O   H1  H2  O   
H1  H2  O   H1  H2  O   H1  H2  O   H1  H2  O   H1  H2  O   H1  H2  O   H1  H2  
O   H1  H2  O   H1  H2  O   H1  H2  O   H1  H2  O   H1  H2  O   H1  H2  O   H1  
H2  O   H1  H2  O   H1  H2  O   H1  H2  O   H1  H2  O   H1  H2  O   H1  H2  O   
H1  H2  O   H1  H2  O   H1  H2  O   H1  H2  O   H1  H2  O   H1  H2  O   H1  H2  
O   H1  H2  O   H1  H2  O   H1  H2  O   H1  H2  O   H1  H2  O   H1  H2  O   H1  
H2  O   H1  H2  O   H1  H2  O   H1  H2  O   H1  H2  O   H1  H2  O   H1  H2  O   
H1  H2  O   H1  H2  O   H1  H2  O   H1  H2  O   H1  H2  O   H1  H2  O   H1  H2  
O   H1  H2  O   H1  H2  O   H1  H2  O   H1  H2  O   H1  H2  O   H1  H2  O   H1  
H2  O   H1  H2  O   H1  H2  O   H1  H2  O   H1  H2  O   H1  H2  O   H1  H2  O   
H1  H2  O   H1  H2  O   H1  H2  O   H1  H2  O   H1  H2  O   H1  H2  O   H1  H2  
O   H1  H2  O   H1  H2  O   H1  H2  O   H1  H2  O   H1  H2  O   H1  H2  O   H1  
H2  O   H1  H2  O   H1  H2  O   H1  H2  O   H1  H2  O   H1  H2  O   H1  H2  O   
H1  H2  O   H1  H2  O   H1  H2  O   H1  H2  O   H1  H2  O   H1  H2  O   H1  H2  
O   H1  H2  O   H1  H2  O   H1  H2  O   H1  H2  O   H1  H2  O   H1  H2  O   H1  
H2  O   H1  H2  O   H1  H2  O   H1  H2  O   H1  H2  O   H1  H2  O   H1  H2  O   
H1  H2  O   H1  H2  O   H1  H2  O   H1  H2  O   H1  H2  O   H1  H2  O   H1  H2  
O   H1  H2  O   H1  H2  O   H1  H2  O   H1  H2  O   H1  H2  O   H1  H2  O   H1  
H2  O   H1  H2  O   H1  H2  O   H1  H2  O   H1  H2  O   H1  H2  O   H1  H2  O   
H1  H2  O   H1  H2  O   H1  H2  O   H1  H2  O   H1  H2  O   H1  H2  O   H1  H2  
O   H1  H2  O   H1  H2  O   H1  H2  O   H1  H2  O   H1  H2  O   H1  H2  O   H1  
H2  O   H1  H2  O   H1  H2  O   H1  H2  O   H1  H2  O   H1  H2  O   H1  H2  O   
H1  H2  O   H1  H2  O   H1  H2  O   H1  H2  O   H1  H2  O   H1  H2  O   H1  H2  
O   H1  H2  O   H1  H2  O   H1  H2  O   H1  H2  O   H1  H2  O   H1  H2  O   H1  
H2  O   H1  H2  O   H1  H2  O   H1  H2  O   H1  H2  O   H1  H2  O   H1  H2  O   
H1  H2  O   H1  H2  O   H1  H2  O   H1  H2  O   H1  H2  O   H1  H2  O   H1  H2  
O   H1  H2  O   H1  H2  O   H1  H2  O   H1  H2  O   H1  H2  O   H1  H2  O   H1  
H2  O   H1  H2  O   H1  H2  O   H1  H2  O   H1  H2  O   H1  H2  O   H1  H2  O   
H1  H2  O   H1  H2  O   H1  H2  O   H1  H2  O   H1  H2  O   H1  H2  O   H1  H2  
O   H1  H2  O   H1  H2  O   H1  H2  O   H1  H2  O   H1  H2  O   H1  H2  O   H1  
H2  O   H1  H2  O   H1  H2  O   H1  H2  O   H1  H2  O   H1  H2  O   H1  H2  O   
H1  H2  O   H1  H2  O   H1  H2  O   H1  H2  O   H1  H2  O   H1  H2  O   H1  H2  
O   H1  H2  O   H1  H2  O   H1  H2  O   H1  H2  O   H1  H2  O   H1  H2  O   H1  
H2  O   H1  H2  O   H1  H2  O   H1  H2  O   H1  H2  O   H1  H2  O   H1  H2  O   
H1  H2  O   H1  H2  O   H1  H2  O   H1  H2  O   H1  H2  O   H1  H2  O   H1  H2  
O   H1  H2  O   H1  H2  O   H1  H2  O   H1  H2  O   H1  H2  O   H1  H2  O   H1  
H2  O   H1  H2  O   H1  H2  O   H1  H2  O   H1  H2  O   H1  H2  O   H1  H2  O   
H1  H2  O   H1  H2  O   H1  H2  O   H1  H2  O   H1  H2  O   H1  H2  O   H1  H2  
O   H1  H2  O   H1  H2  O   H1  H2  O   H1  H2  O   H1  H2  O   H1  H2  O   H1  
H2  O   H1  H2  O   H1  H2  O   H1  H2  O   H1  H2  O   H1  H2  O   H1  H2  O   
H1  H2  O   H1  H2  O   H1  H2  O   H1  H2  O   H1  H2  O   H1  H2  O   H1  H2  
O   H1  H2  O   H1  H2  O   H1  H2  O   H1  H2  O   H1  H2  O   H1  H2  O   H1  
H2  O   H1  H2  O   H1  H2  O   H1  H2  O   H1  H2  O   H1  H2  O   H1  H2  O   
H1  H2  O   H1  H2  O   H1  H2  O   H1  H2  O   H1  H2  O   H1  H2  O   H1  H2  
O   H1  H2  O   H1  H2  O   H1  H2  O   H1  H2  O   H1  H2  O   H1  H2  O   H1  
H2  O   H1  H2  O   H1  H2  O   H1  H2  O   H1  H2  O   H1  H2  O   H1  H2  O   
H1  H2  O   H1  H2  O   H1  H2  O   H1  H2  O   H1  H2  O   H1  H2  O   H1  H2  
O   H1  H2  O   H1  H2  O   H1  H2  O   H1  H2  O   H1  H2  O   H1  H2  O   H1  
H2  O   H1  H2  O   H1  H2  O   H1  H2  O   H1  H2  O   H1  H2  O   H1  H2  O   
H1  H2  O   H1  H2  O   H1  H2  O   H1  H2  O   H1  H2  O   H1  H2  O   H1  H2  
O   H1  H2  O   H1  H2  O   H1  H2  O   H1  H2  O   H1  H2  O   H1  H2  O   H1  
H2  O   H1  H2  O   H1  H2  O   H1  H2  O   H1  H2  O   H1  H2  O   H1  H2  O   
H1  H2  O   H1  H2  O   H1  H2  O   H1  H2  O   H1  H2  O   H1  H2  O   H1  H2  
O   H1  H2  O   H1  H2  O   H1  H2  O   H1  H2  O   H1  H2  O   H1  H2  O   H1  
H2  O   H1  H2  O   H1  H2  O   H1  H2  O   H1  H2  O   H1  H2  O   H1  H2  O   
H1  H2  O   H1  H2  O   H1  H2  O   H1  H2  O   H1  H2  O   H1  H2  O   H1  H2  
O   H1  H2  O   H1  H2  O   H1  H2  O   H1  H2  O   H1  H2  O   H1  H2  O   H1  
H2  O   H1  H2  O   H1  H2  O   H1  H2  O   H1  H2  O   H1  H2  O   H1  H2  O   
H1  H2  O   H1  H2  O   H1  H2  O   H1  H2  O   H1  H2  O   H1  H2  O   H1  H2  
O   H1  H2  O   H1  H2  O   H1  H2  O   H1  H2  O   H1  H2  O   H1  H2  O   H1  
H2  O   H1  H2  O   H1  H2  O   H1  H2  O   H1  H2  O   H1  H2  O   H1  H2  O   
H1  H2  O   H1  H2  O   H1  H2  O   H1  H2  O   H1  H2  O   H1  H2  O   H1  H2  
O   H1  H2  O   H1  H2  O   H1  H2  O   H1  H2  O   H1  H2  O   H1  H2  O   H1  
H2  O   H1  H2  O   H1  H2  O   H1  H2  O   H1  H2  O   H1  H2  O   H1  H2  O   
H1  H2  O   H1  H2  O   H1  H2  O   H1  H2  O   H1  H2  O   H1  H2  O   H1  H2  
O   H1  H2  O   H1  H2  O   H1  H2  O   H1  H2  O   H1  H2  O   H1  H2  O   H1  
H2  O   H1  H2  O   H1  H2  O   H1  H2  O   H1  H2  O   H1  H2  O   H1  H2  O   
H1  H2  O   H1  H2  O   H1  H2  O   H1  H2  O   H1  H2  O   H1  H2  O   H1  H2  
O   H1  H2  O   H1  H2  O   H1  H2  O   H1  H2  O   H1  H2  O   H1  H2  O   H1  
H2  O   H1  H2  O   H1  H2  O   H1  H2  O   H1  H2  O   H1  H2  O   H1  H2  O   
H1  H2  O   H1  H2  O   H1  H2  O   H1  H2  O   H1  H2  O   H1  H2  O   H1  H2  
O   H1  H2  O   H1  H2  O   H1  H2  O   H1  H2  O   H1  H2  O   H1  H2  O   H1  
H2  O   H1  H2  O   H1  H2  O   H1  H2  O   H1  H2  O   H1  H2  O   H1  H2  O   
H1  H2  O   H1  H2  O   H1  H2  O   H1  H2  O   H1  H2  O   H1  H2  O   H1  H2  
O   H1  H2  O   H1  H2  O   H1  H2  O   H1  H2  O   H1  H2  O   H1  H2  O   H1  
H2  O   H1  H2  O   H1  H2  O   H1  H2  O   H1  H2  O   H1  H2  O   H1  H2  O   
H1  H2  O   H1  H2  O   H1  H2  O   H1  H2  O   H1  H2  O   H1  H2  O   H1  H2  
O   H1  H2  O   H1  H2  O   H1  H2  O   H1  H2  O   H1  H2  O   H1  H2  O   H1  
H2  O   H1  H2  O   H1  H2  O   H1  H2  O   H1  H2  O   H1  H2  O   H1  H2  O   
H1  H2  O   H1  H2  O   H1  H2  O   H1  H2  O   H1  H2  O   H1  H2  O   H1  H2  
O   H1  H2  O   H1  H2  O   H1  H2  O   H1  H2  O   H1  H2  O   H1  H2  O   H1  
H2  O   H1  H2  O   H1  H2  O   H1  H2  O   H1  H2  O   H1  H2  O   H1  H2  O   
H1  H2  O   H1  H2  O   H1  H2  O   H1  H2  O   H1  H2  O   H1  H2  O   H1  H2  
O   H1  H2  O   H1  H2  O   H1  H2  O   H1  H2  O   H1  H2  O   H1  H2  O   H1  
H2  O   H1  H2  O   H1  H2  O   H1  H2  O   H1  H2  O   H1  H2  O   H1  H2  O   
H1  H2  O   H1  H2  O   H1  H2  O   H1  H2  O   H1  H2  O   H1  H2  O   H1  H2  
O   H1  H2  O   H1  H2  O   H1  H2  O   H1  H2  O   H1  H2  O   H1  H2  O   H1  
H2  O   H1  H2  O   H1  H2  O   H1  H2  O   H1  H2  O   H1  H2  O   H1  H2  O   
H1  H2  O   H1  H2  O   H1  H2  O   H1  H2  O   H1  H2  O   H1  H2  O   H1  H2  
O   H1  H2  O   H1  H2  O   H1  H2  O   H1  H2  O   H1  H2  O   H1  H2  O   H1  
H2  O   H1  H2  O   H1  H2  O   H1  H2  O   H1  H2  O   H1  H2  O   H1  H2  O   
H1  H2  O   H1  H2  O   H1  H2  O   H1  H2  O   H1  H2  O   H1  H2  O   H1  H2  
O   H1  H2  O   H1  H2  O   H1  H2  O   H1  H2  O   H1  H2  O   H1  H2  O   H1  
H2  O   H1  H2  O   H1  H2  O   H1  H2  O   H1  H2  O   H1  H2  O   H1  H2  O   
H1  H2  O   H1  H2  O   H1  H2  O   H1  H2  O   H1  H2  O   H1  H2  O   H1  H2  
O   H1  H2  O   H1  H2  O   H1  H2  O   H1  H2  O   H1  H2  O   H1  H2  O   H1  
H2  O   H1  H2  O   H1  H2  O   H1  H2  O   H1  H2  O   H1  H2  O   H1  H2  O   
H1  H2  O   H1  H2  O   H1  H2  O   H1  H2  O   H1  H2  O   H1  H2  O   H1  H2  
O   H1  H2  O   H1  H2  O   H1  H2  O   H1  H2  O   H1  H2  O   H1  H2  O   H1  
H2  O   H1  H2  O   H1  H2  O   H1  H2  O   H1  H2  O   H1  H2  O   H1  H2  O   
H1  H2  O   H1  H2  O   H1  H2  O   H1  H2  O   H1  H2  O   H1  H2  O   H1  H2  
O   H1  H2  O   H1  H2  O   H1  H2  O   H1  H2  O   H1  H2  O   H1  H2  O   H1  
H2  O   H1  H2  O   H1  H2  O   H1  H2  O   H1  H2  O   H1  H2  O   H1  H2  O   
H1  H2  O   H1  H2  O   H1  H2  O   H1  H2  O   H1  H2  O   H1  H2  O   H1  H2  
O   H1  H2  O   H1  H2  O   H1  H2  O   H1  H2  O   H1  H2  O   H1  H2  O   H1  
H2  O   H1  H2  O   H1  H2  O   H1  H2  O   H1  H2  O   H1  H2  O   H1  H2  O   
H1  H2  O   H1  H2  O   H1  H2  O   H1  H2  O   H1  H2  O   H1  H2  O   H1  H2  
O   H1  H2  O   H1  H2  O   H1  H2  O   H1  H2  O   H1  H2  O   H1  H2  O   H1  
H2  O   H1  H2  O   H1  H2  O   H1  H2  O   H1  H2  O   H1  H2  O   H1  H2  O   
H1  H2  O   H1  H2  O   H1  H2  O   H1  H2  O   H1  H2  O   H1  H2  O   H1  H2  
O   H1  H2  O   H1  H2  O   H1  H2  O   H1  H2  O   H1  H2  O   H1  H2  O   H1  
H2  O   H1  H2  O   H1  H2  O   H1  H2  O   H1  H2  O   H1  H2  O   H1  H2  O   
H1  H2  O   H1  H2  O   H1  H2  O   H1  H2  O   H1  H2  O   H1  H2  O   H1  H2  
O   H1  H2  O   H1  H2  O   H1  H2  O   H1  H2  O   H1  H2  O   H1  H2  O   H1  
H2  O   H1  H2  O   H1  H2  O   H1  H2  O   H1  H2  O   H1  H2  O   H1  H2  O   
H1  H2  O   H1  H2  O   H1  H2  O   H1  H2  O   H1  H2  O   H1  H2  O   H1  H2  
O   H1  H2  O   H1  H2  O   H1  H2  O   H1  H2  O   H1  H2  O   H1  H2  O   H1  
H2  O   H1  H2  O   H1  H2  O   H1  H2  O   H1  H2  O   H1  H2  O   H1  H2  O   
H1  H2  O   H1  H2  O   H1  H2  O   H1  H2  O   H1  H2  O   H1  H2  O   H1  H2  
O   H1  H2  O   H1  H2  O   H1  H2  O   H1  H2  O   H1  H2  O   H1  H2  O   H1  
H2  O   H1  H2  O   H1  H2  O   H1  H2  O   H1  H2  O   H1  H2  O   H1  H2  O   
H1  H2  O   H1  H2  O   H1  H2  O   H1  H2  O   H1  H2  O   H1  H2  O   H1  H2  
O   H1  H2  O   H1  H2  O   H1  H2  O   H1  H2  O   H1  H2  O   H1  H2  O   H1  
H2  O   H1  H2  O   H1  H2  O   H1  H2  O   H1  H2  O   H1  H2  O   H1  H2  O   
H1  H2  O   H1  H2  O   H1  H2  O   H1  H2  O   H1  H2  O   H1  H2  O   H1  H2  
O   H1  H2  O   H1  H2  O   H1  H2  O   H1  H2  O   H1  H2  O   H1  H2  O   H1  
H2  O   H1  H2  O   H1  H2  O   H1  H2  O   H1  H2  O   H1  H2  O   H1  H2  O   
H1  H2  O   H1  H2  O   H1  H2  O   H1  H2  O   H1  H2  O   H1  H2  O   H1  H2  
O   H1  H2  O   H1  H2  O   H1  H2  O   H1  H2  O   H1  H2  O   H1  H2  O   H1  
H2  O   H1  H2  O   H1  H2  O   H1  H2  O   H1  H2  O   H1  H2  O   H1  H2  O   
H1  H2  O   H1  H2  O   H1  H2  O   H1  H2  O   H1  H2  O   H1  H2  O   H1  H2  
O   H1  H2  O   H1  H2  O   H1  H2  O   H1  H2  O   H1  H2  O   H1  H2  O   H1  
H2  O   H1  H2  O   H1  H2  O   H1  H2  O   H1  H2  O   H1  H2  O   H1  H2  O   
H1  H2  O   H1  H2  O   H1  H2  O   H1  H2  O   H1  H2  O   H1  H2  O   H1  H2  
O   H1  H2  O   H1  H2  O   H1  H2  O   H1  H2  O   H1  H2  O   H1  H2  O   H1  
H2  O   H1  H2  O   H1  H2  O   H1  H2  O   H1  H2  O   H1  H2  O   H1  H2  O   
H1  H2  O   H1  H2  O   H1  H2  O   H1  H2  O   H1  H2  O   H1  H2  O   H1  H2  
O   H1  H2  O   H1  H2  O   H1  H2  O   H1  H2  O   H1  H2  O   H1  H2  O   H1  
H2  O   H1  H2  O   H1  H2  O   H1  H2  O   H1  H2  O   H1  H2  O   H1  H2  O   
H1  H2  O   H1  H2  O   H1  H2  O   H1  H2  O   H1  H2  O   H1  H2  O   H1  H2  
O   H1  H2  O   H1  H2  O   H1  H2  O   H1  H2  O   H1  H2  O   H1  H2  O   H1  
H2  O   H1  H2  O   H1  H2  O   H1  H2  O   H1  H2  O   H1  H2  O   H1  H2  O   
H1  H2  O   H1  H2  O   H1  H2  O   H1  H2  O   H1  H2  O   H1  H2  O   H1  H2  
O   H1  H2  O   H1  H2  O   H1  H2  O   H1  H2  O   H1  H2  O   H1  H2  O   H1  
H2  O   H1  H2  O   H1  H2  O   H1  H2  O   H1  H2  O   H1  H2  O   H1  H2  O   
H1  H2  O   H1  H2  O   H1  H2  O   H1  H2  O   H1  H2  O   H1  H2  O   H1  H2  
O   H1  H2  O   H1  H2  O   H1  H2  O   H1  H2  O   H1  H2  O   H1  H2  O   H1  
H2  O   H1  H2  O   H1  H2  O   H1  H2  O   H1  H2  O   H1  H2  O   H1  H2  O   
H1  H2  O   H1  H2  O   H1  H2  O   H1  H2  O   H1  H2  O   H1  H2  O   H1  H2  
O   H1  H2  O   H1  H2  O   H1  H2  O   H1  H2  O   H1  H2  O   H1  H2  O   H1  
H2  O   H1  H2  O   H1  H2  O   H1  H2  O   H1  H2  O   H1  H2  O   H1  H2  O   
H1  H2  O   H1  H2  O   H1  H2  O   H1  H2  O   H1  H2  O   H1  H2  O   H1  H2  
O   H1  H2  O   H1  H2  O   H1  H2  O   H1  H2  O   H1  H2  O   H1  H2  O   H1  
H2  O   H1  H2  O   H1  H2  O   H1  H2  O   H1  H2  O   H1  H2  O   H1  H2  O   
H1  H2  O   H1  H2  O   H1  H2  O   H1  H2  O   H1  H2  O   H1  H2  O   H1  H2  
O   H1  H2  O   H1  H2  O   H1  H2  O   H1  H2  O   H1  H2  O   H1  H2  O   H1  
H2  O   H1  H2  O   H1  H2  O   H1  H2  O   H1  H2  O   H1  H2  O   H1  H2  O   
H1  H2  O   H1  H2  O   H1  H2  O   H1  H2  O   H1  H2  O   H1  H2  O   H1  H2  
O   H1  H2  O   H1  H2  O   H1  H2  O   H1  H2  O   H1  H2  O   H1  H2  O   H1  
H2  O   H1  H2  O   H1  H2  O   H1  H2  O   H1  H2  O   H1  H2  O   H1  H2  O   
H1  H2  O   H1  H2  O   H1  H2  O   H1  H2  O   H1  H2  O   H1  H2  O   H1  H2  
O   H1  H2  O   H1  H2  O   H1  H2  O   H1  H2  O   H1  H2  O   H1  H2  O   H1  
H2  O   H1  H2  O   H1  H2  O   H1  H2  O   H1  H2  O   H1  H2  O   H1  H2  O   
H1  H2  O   H1  H2  O   H1  H2  O   H1  H2  O   H1  H2  O   H1  H2  O   H1  H2  
O   H1  H2  O   H1  H2  O   H1  H2  O   H1  H2  O   H1  H2  O   H1  H2  O   H1  
H2  O   H1  H2  O   H1  H2  O   H1  H2  O   H1  H2  O   H1  H2  O   H1  H2  O   
H1  H2  O   H1  H2  O   H1  H2  O   H1  H2  O   H1  H2  O   H1  H2  O   H1  H2  
O   H1  H2  O   H1  H2  O   H1  H2  O   H1  H2  O   H1  H2  O   H1  H2  O   H1  
H2  O   H1  H2  O   H1  H2  O   H1  H2  O   H1  H2  O   H1  H2  O   H1  H2  O   
H1  H2  O   H1  H2  O   H1  H2  O   H1  H2  O   H1  H2  O   H1  H2  O   H1  H2  
O   H1  H2  O   H1  H2  O   H1  H2  O   H1  H2  O   H1  H2  O   H1  H2  O   H1  
H2  O   H1  H2  O   H1  H2  O   H1  H2  O   H1  H2  O   H1  H2  O   H1  H2  O   
H1  H2  O   H1  H2  O   H1  H2  O   H1  H2  O   H1  H2  O   H1  H2  O   H1  H2  
O   H1  H2  O   H1  H2  O   H1  H2  O   H1  H2  O   H1  H2  O   H1  H2  O   H1  
H2  O   H1  H2  O   H1  H2  O   H1  H2  O   H1  H2  O   H1  H2  O   H1  H2  O   
H1  H2  O   H1  H2  O   H1  H2  O   H1  H2  O   H1  H2  O   H1  H2  O   H1  H2  
O   H1  H2  O   H1  H2  O   H1  H2  O   H1  H2  O   H1  H2  O   H1  H2  O   H1  
H2  O   H1  H2  O   H1  H2  O   H1  H2  O   H1  H2  O   H1  H2  O   H1  H2  O   
H1  H2  O   H1  H2  O   H1  H2  O   H1  H2  O   H1  H2  O   H1  H2  O   H1  H2  
O   H1  H2  O   H1  H2  O   H1  H2  O   H1  H2  O   H1  H2  O   H1  H2  O   H1  
H2  O   H1  H2  O   H1  H2  O   H1  H2  O   H1  H2  O   H1  H2  O   H1  H2  O   
H1  H2  O   H1  H2  O   H1  H2  O   H1  H2  O   H1  H2  O   H1  H2  O   H1  H2  
O   H1  H2  O   H1  H2  O   H1  H2  O   H1  H2  O   H1  H2  O   H1  H2  O   H1  
H2  O   H1  H2  O   H1  H2  O   H1  H2  O   H1  H2  O   H1  H2  O   H1  H2  O   
H1  H2  O   H1  H2  O   H1  H2  O   H1  H2  O   H1  H2  O   H1  H2  O   H1  H2  
O   H1  H2  O   H1  H2  O   H1  H2  O   H1  H2  O   H1  H2  O   H1  H2  O   H1  
H2  O   H1  H2  O   H1  H2  O   H1  H2  O   H1  H2  O   H1  H2  O   H1  H2  O   
H1  H2  O   H1  H2  O   H1  H2  O   H1  H2  O   H1  H2  O   H1  H2  O   H1  H2  
O   H1  H2  O   H1  H2  O   H1  H2  O   H1  H2  O   H1  H2  O   H1  H2  O   H1  
H2  O   H1  H2  O   H1  H2  O   H1  H2  O   H1  H2  O   H1  H2  O   H1  H2  O   
H1  H2  O   H1  H2  O   H1  H2  O   H1  H2  O   H1  H2  O   H1  H2  O   H1  H2  
O   H1  H2  O   H1  H2  O   H1  H2  O   H1  H2  O   H1  H2  O   H1  H2  O   H1  
H2  O   H1  H2  O   H1  H2  O   H1  H2  O   H1  H2  O   H1  H2  O   H1  H2  O   
H1  H2  O   H1  H2  O   H1  H2  O   H1  H2  O   H1  H2  O   H1  H2  O   H1  H2  
O   H1  H2  O   H1  H2  O   H1  H2  O   H1  H2  O   H1  H2  O   H1  H2  O   H1  
H2  O   H1  H2  O   H1  H2  O   H1  H2  O   H1  H2  O   H1  H2  O   H1  H2  O   
H1  H2  O   H1  H2  O   H1  H2  O   H1  H2  O   H1  H2  O   H1  H2  O   H1  H2  
O   H1  H2  O   H1  H2  O   H1  H2  O   H1  H2  O   H1  H2  O   H1  H2  O   H1  
H2  O   H1  H2  O   H1  H2  O   H1  H2  O   H1  H2  O   H1  H2  O   H1  H2  O   
H1  H2  O   H1  H2  O   H1  H2  O   H1  H2  O   H1  H2  O   H1  H2  O   H1  H2  
O   H1  H2  O   H1  H2  O   H1  H2  O   H1  H2  O   H1  H2  O   H1  H2  O   H1  
H2  O   H1  H2  O   H1  H2  O   H1  H2  O   H1  H2  O   H1  H2  O   H1  H2  O   
H1  H2  O   H1  H2  O   H1  H2  O   H1  H2  O   H1  H2  O   H1  H2  O   H1  H2  
O   H1  H2  O   H1  H2  O   H1  H2  O   H1  H2  O   H1  H2  O   H1  H2  O   H1  
H2  O   H1  H2  O   H1  H2  O   H1  H2  O   H1  H2  O   H1  H2  O   H1  H2  O   
H1  H2  O   H1  H2  O   H1  H2  O   H1  H2  O   H1  H2  O   H1  H2  O   H1  H2  
O   H1  H2  O   H1  H2  O   H1  H2  O   H1  H2  O   H1  H2  O   H1  H2  O   H1  
H2  O   H1  H2  O   H1  H2  O   H1  H2  O   H1  H2  O   H1  H2  O   H1  H2  O   
H1  H2  O   H1  H2  O   H1  H2  O   H1  H2  O   H1  H2  O   H1  H2  O   H1  H2  
O   H1  H2  O   H1  H2  O   H1  H2  O   H1  H2  O   H1  H2  O   H1  H2  O   H1  
H2  O   H1  H2  O   H1  H2  O   H1  H2  O   H1  H2  O   H1  H2  O   H1  H2  O   
H1  H2  O   H1  H2  O   H1  H2  O   H1  H2  O   H1  H2  O   H1  H2  O   H1  H2  
O   H1  H2  O   H1  H2  O   H1  H2  O   H1  H2  O   H1  H2  O   H1  H2  O   H1  
H2  O   H1  H2  O   H1  H2  O   H1  H2  O   H1  H2  O   H1  H2  O   H1  H2  O   
H1  H2  O   H1  H2  O   H1  H2  O   H1  H2  O   H1  H2  O   H1  H2  O   H1  H2  
O   H1  H2  O   H1  H2  O   H1  H2  O   H1  H2  O   H1  H2  O   H1  H2  O   H1  
H2  O   H1  H2  O   H1  H2  O   H1  H2  O   H1  H2  O   H1  H2  O   H1  H2  O   
H1  H2  O   H1  H2  O   H1  H2  O   H1  H2  O   H1  H2  O   H1  H2  O   H1  H2  
O   H1  H2  O   H1  H2  O   H1  H2  O   H1  H2  O   H1  H2  O   H1  H2  O   H1  
H2  O   H1  H2  O   H1  H2  O   H1  H2  O   H1  H2  O   H1  H2  O   H1  H2  O   
H1  H2  O   H1  H2  O   H1  H2  O   H1  H2  O   H1  H2  O   H1  H2  O   H1  H2  
O   H1  H2  O   H1  H2  O   H1  H2  O   H1  H2  O   H1  H2  O   H1  H2  O   H1  
H2  O   H1  H2  O   H1  H2  O   H1  H2  O   H1  H2  O   H1  H2  O   H1  H2  O   
H1  H2  O   H1  H2  O   H1  H2  O   H1  H2  O   H1  H2  O   H1  H2  O   H1  H2  
O   H1  H2  O   H1  H2  O   H1  H2  O   H1  H2  O   H1  H2  O   H1  H2  O   H1  
H2  O   H1  H2  O   H1  H2  O   H1  H2  O   H1  H2  O   H1  H2  O   H1  H2  O   
H1  H2  O   H1  H2  O   H1  H2  O   H1  H2  O   H1  H2  O   H1  H2  O   H1  H2  
O   H1  H2  O   H1  H2  O   H1  H2  O   H1  H2  O   H1  H2  O   H1  H2  O   H1  
H2  O   H1  H2  O   H1  H2  O   H1  H2  O   H1  H2  O   H1  H2  O   H1  H2  O   
H1  H2  O   H1  H2  O   H1  H2  O   H1  H2  O   H1  H2  O   H1  H2  O   H1  H2  
O   H1  H2  O   H1  H2  O   H1  H2  O   H1  H2  O   H1  H2  O   H1  H2  O   H1  
H2  O   H1  H2  O   H1  H2  O   H1  H2  O   H1  H2  O   H1  H2  O   H1  H2  O   
H1  H2  O   H1  H2  O   H1  H2  O   H1  H2  O   H1  H2  O   H1  H2  O   H1  H2  
O   H1  H2  O   H1  H2  O   H1  H2  O   H1  H2  O   H1  H2  O   H1  H2  O   H1  
H2  O   H1  H2  O   H1  H2  O   H1  H2  O   H1  H2  O   H1  H2  O   H1  H2  O   
H1  H2  O   H1  H2  O   H1  H2  O   H1  H2  O   H1  H2  O   H1  H2  O   H1  H2  
O   H1  H2  O   H1  H2  O   H1  H2  O   H1  H2  O   H1  H2  O   H1  H2  O   H1  
H2  O   H1  H2  O   H1  H2  O   H1  H2  O   H1  H2  O   H1  H2  O   H1  H2  O   
H1  H2  O   H1  H2  O   H1  H2  O   H1  H2  O   H1  H2  O   H1  H2  O   H1  H2  
O   H1  H2  O   H1  H2  O   H1  H2  O   H1  H2  O   H1  H2  O   H1  H2  O   H1  
H2  O   H1  H2  O   H1  H2  O   H1  H2  O   H1  H2  O   H1  H2  O   H1  H2  O   
H1  H2  O   H1  H2  O   H1  H2  O   H1  H2  O   H1  H2  O   H1  H2  O   H1  H2  
O   H1  H2  O   H1  H2  O   H1  H2  O   H1  H2  O   H1  H2  O   H1  H2  O   H1  
H2  O   H1  H2  O   H1  H2  O   H1  H2  O   H1  H2  O   H1  H2  O   H1  H2  O   
H1  H2  O   H1  H2  O   H1  H2  O   H1  H2  O   H1  H2  O   H1  H2  O   H1  H2  
O   H1  H2  O   H1  H2  O   H1  H2  O   H1  H2  O   H1  H2  O   H1  H2  O   H1  
H2  O   H1  H2  O   H1  H2  O   H1  H2  O   H1  H2  O   H1  H2  O   H1  H2  O   
H1  H2  O   H1  H2  O   H1  H2  O   H1  H2  O   H1  H2  O   H1  H2  O   H1  H2  
O   H1  H2  O   H1  H2  O   H1  H2  O   H1  H2  O   H1  H2  O   H1  H2  O   H1  
H2  O   H1  H2  O   H1  H2  O   H1  H2  O   H1  H2  O   H1  H2  O   H1  H2  O   
H1  H2  O   H1  H2  O   H1  H2  O   H1  H2  O   H1  H2  O   H1  H2  O   H1  H2  
O   H1  H2  O   H1  H2  O   H1  H2  O   H1  H2  O   H1  H2  O   H1  H2  O   H1  
H2  O   H1  H2  O   H1  H2  O   H1  H2  O   H1  H2  O   H1  H2  O   H1  H2  O   
H1  H2  O   H1  H2  O   H1  H2  O   H1  H2  O   H1  H2  O   H1  H2  O   H1  H2  
O   H1  H2  O   H1  H2  O   H1  H2  O   H1  H2  O   H1  H2  O   H1  H2  O   H1  
H2  O   H1  H2  O   H1  H2  O   H1  H2  O   H1  H2  O   H1  H2  O   H1  H2  O   
H1  H2  O   H1  H2  O   H1  H2  O   H1  H2  O   H1  H2  O   H1  H2  O   H1  H2  
O   H1  H2  O   H1  H2  O   H1  H2  O   H1  H2  O   H1  H2  O   H1  H2  O   H1  
H2  O   H1  H2  O   H1  H2  O   H1  H2  O   H1  H2  O   H1  H2  O   H1  H2  O   
H1  H2  O   H1  H2  O   H1  H2  O   H1  H2  O   H1  H2  O   H1  H2  O   H1  H2  
O   H1  H2  O   H1  H2  O   H1  H2  O   H1  H2  O   H1  H2  O   H1  H2  O   H1  
H2  O   H1  H2  O   H1  H2  O   H1  H2  O   H1  H2  O   H1  H2  O   H1  H2  O   
H1  H2  O   H1  H2  O   H1  H2  O   H1  H2  O   H1  H2  O   H1  H2  O   H1  H2  
O   H1  H2  O   H1  H2  O   H1  H2  O   H1  H2  O   H1  H2  O   H1  H2  O   H1  
H2  O   H1  H2  O   H1  H2  O   H1  H2  O   H1  H2  O   H1  H2  O   H1  H2  O   
H1  H2  O   H1  H2  O   H1  H2  O   H1  H2  O   H1  H2  O   H1  H2  O   H1  H2  
O   H1  H2  O   H1  H2  O   H1  H2  O   H1  H2  O   H1  H2  O   H1  H2  O   H1  
H2  O   H1  H2  O   H1  H2  O   H1  H2  O   H1  H2  O   H1  H2  O   H1  H2  O   
H1  H2  O   H1  H2  O   H1  H2  O   H1  H2  O   H1  H2  O   H1  H2  O   H1  H2  
O   H1  H2  O   H1  H2  O   H1  H2  O   H1  H2  O   H1  H2  O   H1  H2  O   H1  
H2  O   H1  H2  O   H1  H2  O   H1  H2  O   H1  H2  O   H1  H2  O   H1  H2  O   
H1  H2  O   H1  H2  O   H1  H2  O   H1  H2  O   H1  H2  O   H1  H2  O   H1  H2  
O   H1  H2  O   H1  H2  O   H1  H2  O   H1  H2  O   H1  H2  O   H1  H2  O   H1  
H2  O   H1  H2  O   H1  H2  O   H1  H2  O   H1  H2  O   H1  H2  O   H1  H2  O   
H1  H2  O   H1  H2  O   H1  H2  O   H1  H2  O   H1  H2  O   H1  H2  O   H1  H2  
O   H1  H2  O   H1  H2  O   H1  H2  O   H1  H2  O   H1  H2  O   H1  H2  O   H1  
H2  O   H1  H2  O   H1  H2  O   H1  H2  O   H1  H2  O   H1  H2  O   H1  H2  O   
H1  H2  O   H1  H2  O   H1  H2  O   H1  H2  O   H1  H2  O   H1  H2  O   H1  H2  
O   H1  H2  O   H1  H2  O   H1  H2  O   H1  H2  O   H1  H2  O   H1  H2  O   H1  
H2  O   H1  H2  O   H1  H2  O   H1  H2  O   H1  H2  O   H1  H2  O   H1  H2  O   
H1  H2  O   H1  H2  O   H1  H2  O   H1  H2  O   H1  H2  O   H1  H2  O   H1  H2  
O   H1  H2  O   H1  H2  O   H1  H2  O   H1  H2  O   H1  H2  O   H1  H2  O   H1  
H2  O   H1  H2  O   H1  H2  O   H1  H2  O   H1  H2  O   H1  H2  O   H1  H2  O   
H1  H2  O   H1  H2  O   H1  H2  O   H1  H2  O   H1  H2  O   H1  H2  O   H1  H2  
O   H1  H2  O   H1  H2  O   H1  H2  O   H1  H2  O   H1  H2  O   H1  H2  O   H1  
H2  O   H1  H2  O   H1  H2  O   H1  H2  O   H1  H2  O   H1  H2  O   H1  H2  O   
H1  H2  O   H1  H2  O   H1  H2  O   H1  H2  O   H1  H2  O   H1  H2  O   H1  H2  
O   H1  H2  O   H1  H2  O   H1  H2  O   H1  H2  O   H1  H2  O   H1  H2  O   H1  
H2  O   H1  H2  O   H1  H2  O   H1  H2  O   H1  H2  O   H1  H2  O   H1  H2  O   
H1  H2  O   H1  H2  O   H1  H2  O   H1  H2  O   H1  H2  O   H1  H2  O   H1  H2  
O   H1  H2  O   H1  H2  O   H1  H2  O   H1  H2  O   H1  H2  O   H1  H2  O   H1  
H2  O   H1  H2  O   H1  H2  O   H1  H2  O   H1  H2  O   H1  H2  O   H1  H2  O   
H1  H2  O   H1  H2  O   H1  H2  O   H1  H2  O   H1  H2  O   H1  H2  O   H1  H2  
O   H1  H2  O   H1  H2  O   H1  H2  O   H1  H2  O   H1  H2  O   H1  H2  O   H1  
H2  O   H1  H2  O   H1  H2  O   H1  H2  O   H1  H2  O   H1  H2  O   H1  H2  O   
H1  H2  O   H1  H2  O   H1  H2  O   H1  H2  O   H1  H2  O   H1  H2  O   H1  H2  
O   H1  H2  O   H1  H2  O   H1  H2  O   H1  H2  O   H1  H2  O   H1  H2  O   H1  
H2  O   H1  H2  O   H1  H2  O   H1  H2  O   H1  H2  O   H1  H2  O   H1  H2  O   
H1  H2  O   H1  H2  O   H1  H2  O   H1  H2  O   H1  H2  O   H1  H2  O   H1  H2  
O   H1  H2  O   H1  H2  O   H1  H2  O   H1  H2  O   H1  H2  O   H1  H2  O   H1  
H2  O   H1  H2  O   H1  H2  O   H1  H2  O   H1  H2  O   H1  H2  O   H1  H2  O   
H1  H2  O   H1  H2  O   H1  H2  O   H1  H2  O   H1  H2  O   H1  H2  O   H1  H2  
O   H1  H2  O   H1  H2  O   H1  H2  O   H1  H2  O   H1  H2  O   H1  H2  O   H1  
H2  O   H1  H2  O   H1  H2  O   H1  H2  O   H1  H2  O   H1  H2  O   H1  H2  O   
H1  H2  O   H1  H2  O   H1  H2  O   H1  H2  O   H1  H2  O   H1  H2  O   H1  H2  
O   H1  H2  O   H1  H2  O   H1  H2  O   H1  H2  O   H1  H2  O   H1  H2  O   H1  
H2  O   H1  H2  O   H1  H2  O   H1  H2  O   H1  H2  O   H1  H2  O   H1  H2  O   
H1  H2  O   H1  H2  O   H1  H2  O   H1  H2  O   H1  H2  O   H1  H2  O   H1  H2  
O   H1  H2  O   H1  H2  O   H1  H2  O   H1  H2  O   H1  H2  O   H1  H2  O   H1  
H2  O   H1  H2  O   H1  H2  O   H1  H2  O   H1  H2  O   H1  H2  O   H1  H2  O   
H1  H2  O   H1  H2  O   H1  H2  O   H1  H2  O   H1  H2  O   H1  H2  O   H1  H2  
O   H1  H2  O   H1  H2  O   H1  H2  O   H1  H2  O   H1  H2  O   H1  H2  O   H1  
H2  O   H1  H2  O   H1  H2  O   H1  H2  O   H1  H2  O   H1  H2  O   H1  H2  O   
H1  H2  O   H1  H2  O   H1  H2  O   H1  H2  O   H1  H2  O   H1  H2  O   H1  H2  
O   H1  H2  O   H1  H2  O   H1  H2  O   H1  H2  O   H1  H2  O   H1  H2  O   H1  
H2  O   H1  H2  O   H1  H2  O   H1  H2  O   H1  H2  O   H1  H2  O   H1  H2  O   
H1  H2  O   H1  H2  O   H1  H2  O   H1  H2  O   H1  H2  O   H1  H2  O   H1  H2  
O   H1  H2  O   H1  H2  O   H1  H2  O   H1  H2  O   H1  H2  O   H1  H2  O   H1  
H2  O   H1  H2  O   H1  H2  O   H1  H2  O   H1  H2  O   H1  H2  O   H1  H2  O   
H1  H2  O   H1  H2  O   H1  H2  O   H1  H2  O   H1  H2  O   H1  H2  O   H1  H2  
O   H1  H2  O   H1  H2  O   H1  H2  O   H1  H2  O   H1  H2  O   H1  H2  O   H1  
H2  O   H1  H2  O   H1  H2  O   H1  H2  O   H1  H2  O   H1  H2  O   H1  H2  O   
H1  H2  O   H1  H2  O   H1  H2  O   H1  H2  O   H1  H2  O   H1  H2  O   H1  H2  
O   H1  H2  O   H1  H2  O   H1  H2  O   H1  H2  O   H1  H2  O   H1  H2  O   H1  
H2  O   H1  H2  O   H1  H2  O   H1  H2  O   H1  H2  O   H1  H2  O   H1  H2  O   
H1  H2  O   H1  H2  O   H1  H2  O   H1  H2  O   H1  H2  O   H1  H2  O   H1  H2  
O   H1  H2  O   H1  H2  O   H1  H2  O   H1  H2  O   H1  H2  O   H1  H2  O   H1  
H2  O   H1  H2  O   H1  H2  O   H1  H2  O   H1  H2  O   H1  H2  O   H1  H2  O   
H1  H2  O   H1  H2  O   H1  H2  O   H1  H2  O   H1  H2  O   H1  H2  O   H1  H2  
O   H1  H2  O   H1  H2  O   H1  H2  O   H1  H2  O   H1  H2  O   H1  H2  O   H1  
H2  O   H1  H2  O   H1  H2  O   H1  H2  O   H1  H2  O   H1  H2  O   H1  H2  O   
H1  H2  O   H1  H2  O   H1  H2  O   H1  H2  O   H1  H2  O   H1  H2  O   H1  H2  
O   H1  H2  O   H1  H2  O   H1  H2  O   H1  H2  O   H1  H2  O   H1  H2  O   H1  
H2  O   H1  H2  O   H1  H2  O   H1  H2  O   H1  H2  O   H1  H2  O   H1  H2  O   
H1  H2  O   H1  H2  O   H1  H2  O   H1  H2  O   H1  H2  O   H1  H2  O   H1  H2  
O   H1  H2  O   H1  H2  O   H1  H2  O   H1  H2  O   H1  H2  O   H1  H2  O   H1  
H2  O   H1  H2  O   H1  H2  O   H1  H2  O   H1  H2  O   H1  H2  O   H1  H2  O   
H1  H2  O   H1  H2  O   H1  H2  O   H1  H2  O   H1  H2  O   H1  H2  O   H1  H2  
O   H1  H2  O   H1  H2  O   H1  H2  O   H1  H2  O   H1  H2  O   H1  H2  O   H1  
H2  O   H1  H2  O   H1  H2  O   H1  H2  O   H1  H2  O   H1  H2  O   H1  H2  O   
H1  H2  O   H1  H2  O   H1  H2  O   H1  H2  O   H1  H2  O   H1  H2  O   H1  H2  
O   H1  H2  O   H1  H2  O   H1  H2  O   H1  H2  O   H1  H2  O   H1  H2  O   H1  
H2  O   H1  H2  O   H1  H2  O   H1  H2  O   H1  H2  O   H1  H2  O   H1  H2  O   
H1  H2  O   H1  H2  O   H1  H2  O   H1  H2  O   H1  H2  O   H1  H2  O   H1  H2  
O   H1  H2  O   H1  H2  O   H1  H2  O   H1  H2  O   H1  H2  O   H1  H2  O   H1  
H2  O   H1  H2  O   H1  H2  O   H1  H2  O   H1  H2  O   H1  H2  O   H1  H2  O   
H1  H2  O   H1  H2  O   H1  H2  O   H1  H2  O   H1  H2  O   H1  H2  O   H1  H2  
O   H1  H2  O   H1  H2  O   H1  H2  O   H1  H2  O   H1  H2  O   H1  H2  O   H1  
H2  O   H1  H2  O   H1  H2  O   H1  H2  O   H1  H2  O   H1  H2  O   H1  H2  O   
H1  H2  O   H1  H2  O   H1  H2  O   H1  H2  O   H1  H2  O   H1  H2  O   H1  H2  
O   H1  H2  O   H1  H2  O   H1  H2  O   H1  H2  O   H1  H2  O   H1  H2  O   H1  
H2  O   H1  H2  O   H1  H2  O   H1  H2  O   H1  H2  O   H1  H2  O   H1  H2  O   
H1  H2  O   H1  H2  O   H1  H2  O   H1  H2  O   H1  H2  O   H1  H2  O   H1  H2  
O   H1  H2  O   H1  H2  O   H1  H2  O   H1  H2  O   H1  H2  O   H1  H2  O   H1  
H2  O   H1  H2  O   H1  H2  O   H1  H2  O   H1  H2  O   H1  H2  O   H1  H2  O   
H1  H2  O   H1  H2  O   H1  H2  O   H1  H2  O   H1  H2  O   H1  H2  O   H1  H2  
O   H1  H2  O   H1  H2  O   H1  H2  O   H1  H2  O   H1  H2  O   H1  H2  O   H1  
H2  O   H1  H2  O   H1  H2  O   H1  H2  O   H1  H2  O   H1  H2  O   H1  H2  O   
H1  H2  O   H1  H2  O   H1  H2  O   H1  H2  O   H1  H2  O   H1  H2  O   H1  H2  
O   H1  H2  O   H1  H2  O   H1  H2  O   H1  H2  O   H1  H2  O   H1  H2  O   H1  
H2  O   H1  H2  O   H1  H2  O   H1  H2  O   H1  H2  O   H1  H2  O   H1  H2  O   
H1  H2  O   H1  H2  O   H1  H2  O   H1  H2  O   H1  H2  O   H1  H2  O   H1  H2  
O   H1  H2  O   H1  H2  O   H1  H2  O   H1  H2  O   H1  H2  O   H1  H2  O   H1  
H2  O   H1  H2  O   H1  H2  O   H1  H2  O   H1  H2  O   H1  H2  O   H1  H2  O   
H1  H2  O   H1  H2  O   H1  H2  O   H1  H2  O   H1  H2  O   H1  H2  O   H1  H2  
O   H1  H2  O   H1  H2  O   H1  H2  O   H1  H2  O   H1  H2  O   H1  H2  O   H1  
H2  O   H1  H2  O   H1  H2  O   H1  H2  O   H1  H2  O   H1  H2  O   H1  H2  O   
H1  H2  O   H1  H2  O   H1  H2  O   H1  H2  O   H1  H2  O   H1  H2  O   H1  H2  
O   H1  H2  O   H1  H2  O   H1  H2  O   H1  H2  O   H1  H2  O   H1  H2  O   H1  
H2  O   H1  H2  O   H1  H2  O   H1  H2  O   H1  H2  O   H1  H2  O   H1  H2  O   
H1  H2  O   H1  H2  O   H1  H2  O   H1  H2  O   H1  H2  O   H1  H2  O   H1  H2  
O   H1  H2  O   H1  H2  O   H1  H2  O   H1  H2  O   H1  H2  O   H1  H2  O   H1  
H2  O   H1  H2  O   H1  H2  O   H1  H2  O   H1  H2  O   H1  H2  O   H1  H2  O   
H1  H2  O   H1  H2  O   H1  H2  O   H1  H2  O   H1  H2  O   H1  H2  O   H1  H2  
O   H1  H2  O   H1  H2  O   H1  H2  O   H1  H2  O   H1  H2  O   H1  H2  O   H1  
H2  O   H1  H2  O   H1  H2  O   H1  H2  O   H1  H2  O   H1  H2  O   H1  H2  O   
H1  H2  O   H1  H2  O   H1  H2  O   H1  H2  O   H1  H2  O   H1  H2  O   H1  H2  
O   H1  H2  O   H1  H2  O   H1  H2  O   H1  H2  O   H1  H2  O   H1  H2  O   H1  
H2  O   H1  H2  O   H1  H2  O   H1  H2  O   H1  H2  O   H1  H2  O   H1  H2  O   
H1  H2  O   H1  H2  O   H1  H2  O   H1  H2  O   H1  H2  O   H1  H2  O   H1  H2  
O   H1  H2  O   H1  H2  O   H1  H2  O   H1  H2  O   H1  H2  O   H1  H2  O   H1  
H2  O   H1  H2  O   H1  H2  O   H1  H2  O   H1  H2  O   H1  H2  O   H1  H2  O   
H1  H2  O   H1  H2  O   H1  H2  O   H1  H2  O   H1  H2  O   H1  H2  O   H1  H2  
O   H1  H2  O   H1  H2  O   H1  H2  O   H1  H2  O   H1  H2  O   H1  H2  O   H1  
H2  O   H1  H2  O   H1  H2  O   H1  H2  O   H1  H2  O   H1  H2  O   H1  H2  O   
H1  H2  O   H1  H2  O   H1  H2  O   H1  H2  O   H1  H2  O   H1  H2  O   H1  H2  
O   H1  H2  O   H1  H2  O   H1  H2  O   H1  H2  O   H1  H2  O   H1  H2  O   H1  
H2  O   H1  H2  O   H1  H2  O   H1  H2  O   H1  H2  O   H1  H2  O   H1  H2  O   
H1  H2  O   H1  H2  O   H1  H2  O   H1  H2  O   H1  H2  O   H1  H2  O   H1  H2  
O   H1  H2  O   H1  H2  O   H1  H2  O   H1  H2  O   H1  H2  O   H1  H2  O   H1  
H2  O   H1  H2  O   H1  H2  O   H1  H2  O   H1  H2  O   H1  H2  O   H1  H2  O   
H1  H2  O   H1  H2  O   H1  H2  O   H1  H2  O   H1  H2  O   H1  H2  O   H1  H2  
O   H1  H2  O   H1  H2  O   H1  H2  O   H1  H2  O   H1  H2  O   H1  H2  O   H1  
H2  O   H1  H2  O   H1  H2  O   H1  H2  O   H1  H2  O   H1  H2  O   H1  H2  O   
H1  H2  O   H1  H2  O   H1  H2  O   H1  H2  O   H1  H2  O   H1  H2  O   H1  H2  
O   H1  H2  O   H1  H2  O   H1  H2  O   H1  H2  O   H1  H2  O   H1  H2  O   H1  
H2  O   H1  H2  O   H1  H2  O   H1  H2  O   H1  H2  O   H1  H2  O   H1  H2  O   
H1  H2  O   H1  H2  O   H1  H2  O   H1  H2  O   H1  H2  O   H1  H2  O   H1  H2  
O   H1  H2  O   H1  H2  O   H1  H2  O   H1  H2  O   H1  H2  O   H1  H2  O   H1  
H2  O   H1  H2  O   H1  H2  O   H1  H2  O   H1  H2  O   H1  H2  O   H1  H2  O   
H1  H2  O   H1  H2  O   H1  H2  O   H1  H2  O   H1  H2  O   H1  H2  O   H1  H2  
O   H1  H2  O   H1  H2  O   H1  H2  O   H1  H2  O   H1  H2  O   H1  H2  O   H1  
H2  O   H1  H2  O   H1  H2  O   H1  H2  O   H1  H2  O   H1  H2  O   H1  H2  O   
H1  H2  O   H1  H2  O   H1  H2  O   H1  H2  O   H1  H2  O   H1  H2  O   H1  H2  
O   H1  H2  O   H1  H2  O   H1  H2  O   H1  H2  O   H1  H2  O   H1  H2  O   H1  
H2  O   H1  H2  O   H1  H2  O   H1  H2  O   H1  H2  O   H1  H2  O   H1  H2  O   
H1  H2  O   H1  H2  O   H1  H2  O   H1  H2  O   H1  H2  O   H1  H2  O   H1  H2  
O   H1  H2  O   H1  H2  O   H1  H2  O   H1  H2  O   H1  H2  O   H1  H2  O   H1  
H2  O   H1  H2  O   H1  H2  O   H1  H2  O   H1  H2  O   H1  H2  O   H1  H2  O   
H1  H2  O   H1  H2  O   H1  H2  O   H1  H2  O   H1  H2  O   H1  H2  O   H1  H2  
O   H1  H2  O   H1  H2  O   H1  H2  O   H1  H2  O   H1  H2  O   H1  H2  O   H1  
H2  O   H1  H2  O   H1  H2  O   H1  H2  O   H1  H2  O   H1  H2  O   H1  H2  O   
H1  H2  O   H1  H2  O   H1  H2  O   H1  H2  O   H1  H2  O   H1  H2  O   H1  H2  
O   H1  H2  O   H1  H2  O   H1  H2  O   H1  H2  O   H1  H2  O   H1  H2  O   H1  
H2  O   H1  H2  O   H1  H2  O   H1  H2  O   H1  H2  O   H1  H2  O   H1  H2  O   
H1  H2  O   H1  H2  O   H1  H2  O   H1  H2  O   H1  H2  O   H1  H2  O   H1  H2  
O   H1  H2  O   H1  H2  O   H1  H2  O   H1  H2  O   H1  H2  O   H1  H2  O   H1  
H2  O   H1  H2  O   H1  H2  O   H1  H2  O   H1  H2  O   H1  H2  O   H1  H2  O   
H1  H2  O   H1  H2  O   H1  H2  O   H1  H2  O   H1  H2  O   H1  H2  O   H1  H2  
O   H1  H2  O   H1  H2  O   H1  H2  O   H1  H2  O   H1  H2  O   H1  H2  O   H1  
H2  O   H1  H2  O   H1  H2  O   H1  H2  O   H1  H2  O   H1  H2  O   H1  H2  O   
H1  H2  O   H1  H2  O   H1  H2  O   H1  H2  O   H1  H2  O   H1  H2  O   H1  H2  
O   H1  H2  O   H1  H2  O   H1  H2  O   H1  H2  O   H1  H2  O   H1  H2  O   H1  
H2  O   H1  H2  O   H1  H2  O   H1  H2  O   H1  H2  O   H1  H2  O   H1  H2  O   
H1  H2  O   H1  H2  O   H1  H2  O   H1  H2  O   H1  H2  O   H1  H2  O   H1  H2  
O   H1  H2  O   H1  H2  O   H1  H2  O   H1  H2  O   H1  H2  O   H1  H2  O   H1  
H2  O   H1  H2  O   H1  H2  O   H1  H2  O   H1  H2  O   H1  H2  O   H1  H2  O   
H1  H2  O   H1  H2  O   H1  H2  O   H1  H2  O   H1  H2  O   H1  H2  O   H1  H2  
O   H1  H2  O   H1  H2  O   H1  H2  O   H1  H2  O   H1  H2  O   H1  H2  O   H1  
H2  O   H1  H2  O   H1  H2  O   H1  H2  O   H1  H2  O   H1  H2  O   H1  H2  O   
H1  H2  O   H1  H2  O   H1  H2  O   H1  H2  O   H1  H2  O   H1  H2  O   H1  H2  
O   H1  H2  O   H1  H2  O   H1  H2  O   H1  H2  O   H1  H2  O   H1  H2  O   H1  
H2  O   H1  H2  O   H1  H2  O   H1  H2  O   H1  H2  O   H1  H2  O   H1  H2  O   
H1  H2  O   H1  H2  O   H1  H2  O   H1  H2  O   H1  H2  O   H1  H2  O   H1  H2  
O   H1  H2  O   H1  H2  O   H1  H2  O   H1  H2  O   H1  H2  O   H1  H2  O   H1  
H2  O   H1  H2  O   H1  H2  O   H1  H2  O   H1  H2  O   H1  H2  O   H1  H2  O   
H1  H2  O   H1  H2  O   H1  H2  O   H1  H2  O   H1  H2  O   H1  H2  O   H1  H2  
O   H1  H2  O   H1  H2  O   H1  H2  O   H1  H2  O   H1  H2  O   H1  H2  O   H1  
H2  O   H1  H2  O   H1  H2  O   H1  H2  O   H1  H2  O   H1  H2  O   H1  H2  O   
H1  H2  O   H1  H2  O   H1  H2  O   H1  H2  O   H1  H2  O   H1  H2  O   H1  H2  
O   H1  H2  O   H1  H2  O   H1  H2  O   H1  H2  O   H1  H2  O   H1  H2  O   H1  
H2  O   H1  H2  O   H1  H2  O   H1  H2  O   H1  H2  O   H1  H2  O   H1  H2  O   
H1  H2  O   H1  H2  O   H1  H2  O   H1  H2  O   H1  H2  O   H1  H2  O   H1  H2  
O   H1  H2  O   H1  H2  O   H1  H2  O   H1  H2  O   H1  H2  O   H1  H2  O   H1  
H2  O   H1  H2  O   H1  H2  O   H1  H2  O   H1  H2  O   H1  H2  O   H1  H2  O   
H1  H2  O   H1  H2  O   H1  H2  O   H1  H2  O   H1  H2  O   H1  H2  O   H1  H2  
O   H1  H2  O   H1  H2  O   H1  H2  O   H1  H2  O   H1  H2  O   H1  H2  O   H1  
H2  O   H1  H2  O   H1  H2  O   H1  H2  O   H1  H2  O   H1  H2  O   H1  H2  O   
H1  H2  O   H1  H2  O   H1  H2  O   H1  H2  O   H1  H2  O   H1  H2  O   H1  H2  
O   H1  H2  O   H1  H2  O   H1  H2  O   H1  H2  O   H1  H2  O   H1  H2  O   H1  
H2  O   H1  H2  O   H1  H2  O   H1  H2  O   H1  H2  O   H1  H2  O   H1  H2  O   
H1  H2  O   H1  H2  O   H1  H2  O   H1  H2  O   H1  H2  O   H1  H2  O   H1  H2  
O   H1  H2  O   H1  H2  O   H1  H2  O   H1  H2  O   H1  H2  O   H1  H2  O   H1  
H2  O   H1  H2  O   H1  H2  O   H1  H2  O   H1  H2  O   H1  H2  O   H1  H2  O   
H1  H2  O   H1  H2  O   H1  H2  O   H1  H2  O   H1  H2  O   H1  H2  O   H1  H2  
O   H1  H2  O   H1  H2  O   H1  H2  O   H1  H2  O   H1  H2  O   H1  H2  O   H1  
H2  O   H1  H2  O   H1  H2  O   H1  H2  O   H1  H2  O   H1  H2  O   H1  H2  O   
H1  H2  O   H1  H2  O   H1  H2  O   H1  H2  O   H1  H2  O   H1  H2  O   H1  H2  
O   H1  H2  O   H1  H2  O   H1  H2  O   H1  H2  O   H1  H2  O   H1  H2  O   H1  
H2  O   H1  H2  O   H1  H2  O   H1  H2  O   H1  H2  O   H1  H2  O   H1  H2  O   
H1  H2  O   H1  H2  O   H1  H2  O   H1  H2  O   H1  H2  O   H1  H2  O   H1  H2  
O   H1  H2  O   H1  H2  O   H1  H2  O   H1  H2  O   H1  H2  O   H1  H2  O   H1  
H2  O   H1  H2  O   H1  H2  O   H1  H2  O   H1  H2  O   H1  H2  O   H1  H2  O   
H1  H2  O   H1  H2  O   H1  H2  O   H1  H2  O   H1  H2  O   H1  H2  O   H1  H2  
O   H1  H2  O   H1  H2  O   H1  H2  O   H1  H2  O   H1  H2  O   H1  H2  O   H1  
H2  O   H1  H2  O   H1  H2  O   H1  H2  O   H1  H2  O   H1  H2  O   H1  H2  O   
H1  H2  O   H1  H2  O   H1  H2  O   H1  H2  O   H1  H2  O   H1  H2  O   H1  H2  
O   H1  H2  O   H1  H2  O   H1  H2  O   H1  H2  O   H1  H2  O   H1  H2  O   H1  
H2  O   H1  H2  O   H1  H2  O   H1  H2  O   H1  H2  O   H1  H2  O   H1  H2  O   
H1  H2  O   H1  H2  O   H1  H2  O   H1  H2  O   H1  H2  O   H1  H2  O   H1  H2  
O   H1  H2  O   H1  H2  O   H1  H2  O   H1  H2  O   H1  H2  O   H1  H2  O   H1  
H2  O   H1  H2  O   H1  H2  O   H1  H2  O   H1  H2  O   H1  H2  O   H1  H2  O   
H1  H2  O   H1  H2  O   H1  H2  O   H1  H2  O   H1  H2  O   H1  H2  O   H1  H2  
O   H1  H2  O   H1  H2  O   H1  H2  O   H1  H2  O   H1  H2  O   H1  H2  O   H1  
H2  O   H1  H2  O   H1  H2  O   H1  H2  O   H1  H2  O   H1  H2  O   H1  H2  O   
H1  H2  O   H1  H2  O   H1  H2  O   H1  H2  O   H1  H2  O   H1  H2  O   H1  H2  
O   H1  H2  O   H1  H2  O   H1  H2  O   H1  H2  O   H1  H2  O   H1  H2  O   H1  
H2  O   H1  H2  O   H1  H2  O   H1  H2  O   H1  H2  O   H1  H2  O   H1  H2  O   
H1  H2  O   H1  H2  O   H1  H2  O   H1  H2  O   H1  H2  O   H1  H2  O   H1  H2  
O   H1  H2  O   H1  H2  O   H1  H2  O   H1  H2  O   H1  H2  O   H1  H2  O   H1  
H2  O   H1  H2  O   H1  H2  O   H1  H2  O   H1  H2  O   H1  H2  O   H1  H2  O   
H1  H2  O   H1  H2  O   H1  H2  O   H1  H2  O   H1  H2  O   H1  H2  O   H1  H2  
O   H1  H2  O   H1  H2  O   H1  H2  O   H1  H2  O   H1  H2  O   H1  H2  O   H1  
H2  O   H1  H2  O   H1  H2  O   H1  H2  O   H1  H2  O   H1  H2  O   H1  H2  O   
H1  H2  O   H1  H2  O   H1  H2  O   H1  H2  O   H1  H2  O   H1  H2  O   H1  H2  
O   H1  H2  O   H1  H2  O   H1  H2  O   H1  H2  O   H1  H2  O   H1  H2  O   H1  
H2  O   H1  H2  O   H1  H2  O   H1  H2  O   H1  H2  O   H1  H2  O   H1  H2  O   
H1  H2  O   H1  H2  O   H1  H2  O   H1  H2  O   H1  H2  O   H1  H2  O   H1  H2  
O   H1  H2  O   H1  H2  O   H1  H2  O   H1  H2  O   H1  H2  O   H1  H2  O   H1  
H2  O   H1  H2  O   H1  H2  O   H1  H2  O   H1  H2  O   H1  H2  O   H1  H2  O   
H1  H2  O   H1  H2  O   H1  H2  O   H1  H2  O   H1  H2  O   H1  H2  O   H1  H2  
O   H1  H2  O   H1  H2  O   H1  H2  O   H1  H2  O   H1  H2  O   H1  H2  O   H1  
H2  O   H1  H2  O   H1  H2  O   H1  H2  O   H1  H2  O   H1  H2  O   H1  H2  O   
H1  H2  O   H1  H2  O   H1  H2  O   H1  H2  O   H1  H2  O   H1  H2  O   H1  H2  
O   H1  H2  O   H1  H2  O   H1  H2  O   H1  H2  O   H1  H2  O   H1  H2  O   H1  
H2  O   H1  H2  O   H1  H2  O   H1  H2  O   H1  H2  O   H1  H2  O   H1  H2  O   
H1  H2  O   H1  H2  O   H1  H2  O   H1  H2  O   H1  H2  O   H1  H2  O   H1  H2  
O   H1  H2  O   H1  H2  O   H1  H2  O   H1  H2  O   H1  H2  O   H1  H2  O   H1  
H2  O   H1  H2  O   H1  H2  O   H1  H2  O   H1  H2  O   H1  H2  O   H1  H2  O   
H1  H2  O   H1  H2  O   H1  H2  O   H1  H2  O   H1  H2  O   H1  H2  O   H1  H2  
O   H1  H2  O   H1  H2  O   H1  H2  O   H1  H2  O   H1  H2  O   H1  H2  O   H1  
H2  O   H1  H2  O   H1  H2  O   H1  H2  O   H1  H2  O   H1  H2  O   H1  H2  O   
H1  H2  O   H1  H2  O   H1  H2  O   H1  H2  O   H1  H2  O   H1  H2  O   H1  H2  
O   H1  H2  O   H1  H2  O   H1  H2  O   H1  H2  O   H1  H2  O   H1  H2  O   H1  
H2  O   H1  H2  O   H1  H2  O   H1  H2  O   H1  H2  O   H1  H2  O   H1  H2  O   
H1  H2  O   H1  H2  O   H1  H2  O   H1  H2  O   H1  H2  O   H1  H2  O   H1  H2  
O   H1  H2  O   H1  H2  O   H1  H2  O   H1  H2  O   H1  H2  O   H1  H2  O   H1  
H2  O   H1  H2  O   H1  H2  O   H1  H2  O   H1  H2  O   H1  H2  O   H1  H2  O   
H1  H2  O   H1  H2  O   H1  H2  O   H1  H2  O   H1  H2  O   H1  H2  O   H1  H2  
O   H1  H2  O   H1  H2  O   H1  H2  O   H1  H2  O   H1  H2  O   H1  H2  O   H1  
H2  O   H1  H2  O   H1  H2  O   H1  H2  O   H1  H2  O   H1  H2  O   H1  H2  O   
H1  H2  O   H1  H2  O   H1  H2  O   H1  H2  O   H1  H2  O   H1  H2  O   H1  H2  
O   H1  H2  O   H1  H2  O   H1  H2  O   H1  H2  O   H1  H2  O   H1  H2  O   H1  
H2  O   H1  H2  O   H1  H2  O   H1  H2  O   H1  H2  O   H1  H2  O   H1  H2  O   
H1  H2  O   H1  H2  O   H1  H2  O   H1  H2  O   H1  H2  O   H1  H2  O   H1  H2  
O   H1  H2  O   H1  H2  O   H1  H2  O   H1  H2  O   H1  H2  O   H1  H2  O   H1  
H2  O   H1  H2  O   H1  H2  O   H1  H2  O   H1  H2  O   H1  H2  O   H1  H2  O   
H1  H2  O   H1  H2  O   H1  H2  O   H1  H2  O   H1  H2  O   H1  H2  O   H1  H2  
O   H1  H2  O   H1  H2  O   H1  H2  O   H1  H2  O   H1  H2  O   H1  H2  O   H1  
H2  O   H1  H2  O   H1  H2  O   H1  H2  O   H1  H2  O   H1  H2  O   H1  H2  O   
H1  H2  O   H1  H2  O   H1  H2  O   H1  H2  O   H1  H2  O   H1  H2  O   H1  H2  
O   H1  H2  O   H1  H2  O   H1  H2  O   H1  H2  O   H1  H2  O   H1  H2  O   H1  
H2  O   H1  H2  O   H1  H2  O   H1  H2  O   H1  H2  O   H1  H2  O   H1  H2  O   
H1  H2  O   H1  H2  O   H1  H2  O   H1  H2  O   H1  H2  O   H1  H2  O   H1  H2  
O   H1  H2  O   H1  H2  O   H1  H2  O   H1  H2  O   H1  H2  O   H1  H2  O   H1  
H2  O   H1  H2  O   H1  H2  O   H1  H2  O   H1  H2  O   H1  H2  O   H1  H2  O   
H1  H2  O   H1  H2  O   H1  H2  O   H1  H2  O   H1  H2  O   H1  H2  O   H1  H2  
O   H1  H2  O   H1  H2  O   H1  H2  O   H1  H2  O   H1  H2  O   H1  H2  O   H1  
H2  O   H1  H2  O   H1  H2  O   H1  H2  O   H1  H2  O   H1  H2  O   H1  H2  O   
H1  H2  O   H1  H2  O   H1  H2  O   H1  H2  O   H1  H2  O   H1  H2  O   H1  H2  
O   H1  H2  O   H1  H2  O   H1  H2  O   H1  H2  O   H1  H2  O   H1  H2  O   H1  
H2  O   H1  H2  O   H1  H2  O   H1  H2  O   H1  H2  O   H1  H2  O   H1  H2  O   
H1  H2  O   H1  H2  O   H1  H2  O   H1  H2  O   H1  H2  O   H1  H2  O   H1  H2  
O   H1  H2  O   H1  H2  O   H1  H2  O   H1  H2  O   H1  H2  O   H1  H2  O   H1  
H2  O   H1  H2  O   H1  H2  O   H1  H2  O   H1  H2  O   H1  H2  O   H1  H2  O   
H1  H2  O   H1  H2  O   H1  H2  O   H1  H2  O   H1  H2  O   H1  H2  O   H1  H2  
O   H1  H2  O   H1  H2  O   H1  H2  O   H1  H2  O   H1  H2  O   H1  H2  O   H1  
H2  O   H1  H2  O   H1  H2  O   H1  H2  O   H1  H2  O   H1  H2  O   H1  H2  O   
H1  H2  O   H1  H2  O   H1  H2  O   H1  H2  O   H1  H2  O   H1  H2  O   H1  H2  
O   H1  H2  O   H1  H2  O   H1  H2  O   H1  H2  O   H1  H2  O   H1  H2  O   H1  
H2  O   H1  H2  O   H1  H2  O   H1  H2  O   H1  H2  O   H1  H2  O   H1  H2  O   
H1  H2  O   H1  H2  O   H1  H2  O   H1  H2  O   H1  H2  O   H1  H2  O   H1  H2  
O   H1  H2  O   H1  H2  O   H1  H2  O   H1  H2  O   H1  H2  O   H1  H2  O   H1  
H2  O   H1  H2  O   H1  H2  O   H1  H2  O   H1  H2  O   H1  H2  O   H1  H2  O   
H1  H2  O   H1  H2  O   H1  H2  O   H1  H2  O   H1  H2  O   H1  H2  O   H1  H2  
O   H1  H2  O   H1  H2  O   H1  H2  O   H1  H2  O   H1  H2  O   H1  H2  O   H1  
H2  O   H1  H2  O   H1  H2  O   H1  H2  O   H1  H2  O   H1  H2  O   H1  H2  O   
H1  H2  O   H1  H2  O   H1  H2  O   H1  H2  O   H1  H2  O   H1  H2  O   H1  H2  
O   H1  H2  O   H1  H2  O   H1  H2  O   H1  H2  O   H1  H2  O   H1  H2  O   H1  
H2  O   H1  H2  O   H1  H2  O   H1  H2  O   H1  H2  O   H1  H2  O   H1  H2  O   
H1  H2  O   H1  H2  O   H1  H2  O   H1  H2  O   H1  H2  O   H1  H2  O   H1  H2  
O   H1  H2  O   H1  H2  O   H1  H2  O   H1  H2  O   H1  H2  O   H1  H2  O   H1  
H2  O   H1  H2  O   H1  H2  O   H1  H2  O   H1  H2  O   H1  H2  O   H1  H2  O   
H1  H2  O   H1  H2  O   H1  H2  O   H1  H2  O   H1  H2  O   H1  H2  O   H1  H2  
O   H1  H2  O   H1  H2  O   H1  H2  O   H1  H2  O   H1  H2  O   H1  H2  O   H1  
H2  O   H1  H2  O   H1  H2  O   H1  H2  O   H1  H2  O   H1  H2  O   H1  H2  O   
H1  H2  O   H1  H2  O   H1  H2  O   H1  H2  O   H1  H2  O   H1  H2  O   H1  H2  
O   H1  H2  O   H1  H2  O   H1  H2  O   H1  H2  O   H1  H2  O   H1  H2  O   H1  
H2  O   H1  H2  O   H1  H2  O   H1  H2  O   H1  H2  O   H1  H2  O   H1  H2  O   
H1  H2  O   H1  H2  O   H1  H2  O   H1  H2  O   H1  H2  O   H1  H2  O   H1  H2  
O   H1  H2  O   H1  H2  O   H1  H2  O   H1  H2  O   H1  H2  O   H1  H2  O   H1  
H2  O   H1  H2  O   H1  H2  O   H1  H2  O   H1  H2  O   H1  H2  O   H1  H2  O   
H1  H2  O   H1  H2  O   H1  H2  O   H1  H2  O   H1  H2  O   H1  H2  O   H1  H2  
O   H1  H2  O   H1  H2  O   H1  H2  O   H1  H2  O   H1  H2  O   H1  H2  O   H1  
H2  O   H1  H2  O   H1  H2  O   H1  H2  O   H1  H2  O   H1  H2  O   H1  H2  O   
H1  H2  O   H1  H2  O   H1  H2  O   H1  H2  O   H1  H2  O   H1  H2  O   H1  H2  
O   H1  H2  O   H1  H2  O   H1  H2  O   H1  H2  O   H1  H2  O   H1  H2  O   H1  
H2  O   H1  H2  O   H1  H2  O   H1  H2  O   H1  H2  O   H1  H2  O   H1  H2  O   
H1  H2  O   H1  H2  O   H1  H2  O   H1  H2  O   H1  H2  O   H1  H2  O   H1  H2  
O   H1  H2  O   H1  H2  O   H1  H2  O   H1  H2  O   H1  H2  O   H1  H2  O   H1  
H2  O   H1  H2  O   H1  H2  O   H1  H2  O   H1  H2  O   H1  H2  O   H1  H2  O   
H1  H2  O   H1  H2  O   H1  H2  O   H1  H2  O   H1  H2  O   H1  H2  O   H1  H2  
O   H1  H2  O   H1  H2  O   H1  H2  O   H1  H2  O   H1  H2  O   H1  H2  O   H1  
H2  O   H1  H2  O   H1  H2  O   H1  H2  O   H1  H2  O   H1  H2  O   H1  H2  O   
H1  H2  O   H1  H2  O   H1  H2  O   H1  H2  O   H1  H2  O   H1  H2  O   H1  H2  
O   H1  H2  O   H1  H2  O   H1  H2  O   H1  H2  O   H1  H2  O   H1  H2  O   H1  
H2  O   H1  H2  O   H1  H2  O   H1  H2  O   H1  H2  O   H1  H2  O   H1  H2  O   
H1  H2  O   H1  H2  O   H1  H2  O   H1  H2  O   H1  H2  O   H1  H2  O   H1  H2  
O   H1  H2  O   H1  H2  O   H1  H2  O   H1  H2  O   H1  H2  O   H1  H2  O   H1  
H2  O   H1  H2  O   H1  H2  O   H1  H2  O   H1  H2  O   H1  H2  O   H1  H2  O   
H1  H2  O   H1  H2  O   H1  H2  O   H1  H2  O   H1  H2  O   H1  H2  O   H1  H2  
O   H1  H2  O   H1  H2  O   H1  H2  O   H1  H2  O   H1  H2  O   H1  H2  O   H1  
H2  O   H1  H2  O   H1  H2  O   H1  H2  O   H1  H2  O   H1  H2  O   H1  H2  O   
H1  H2  O   H1  H2  O   H1  H2  O   H1  H2  O   H1  H2  O   H1  H2  O   H1  H2  
O   H1  H2  O   H1  H2  O   H1  H2  O   H1  H2  O   H1  H2  O   H1  H2  O   H1  
H2  O   H1  H2  O   H1  H2  O   H1  H2  O   H1  H2  O   H1  H2  O   H1  H2  O   
H1  H2  O   H1  H2  O   H1  H2  O   H1  H2  O   H1  H2  O   H1  H2  O   H1  H2  
O   H1  H2  O   H1  H2  O   H1  H2  O   H1  H2  O   H1  H2  O   H1  H2  O   H1  
H2  O   H1  H2  O   H1  H2  O   H1  H2  O   H1  H2  O   H1  H2  O   H1  H2  O   
H1  H2  O   H1  H2  O   H1  H2  O   H1  H2  O   H1  H2  O   H1  H2  O   H1  H2  
O   H1  H2  O   H1  H2  O   H1  H2  O   H1  H2  O   H1  H2  O   H1  H2  O   H1  
H2  O   H1  H2  O   H1  H2  O   H1  H2  O   H1  H2  O   H1  H2  O   H1  H2  O   
H1  H2  O   H1  H2  O   H1  H2  O   H1  H2  O   H1  H2  O   H1  H2  O   H1  H2  
O   H1  H2  O   H1  H2  O   H1  H2  O   H1  H2  O   H1  H2  O   H1  H2  O   H1  
H2  O   H1  H2  O   H1  H2  O   H1  H2  O   H1  H2  O   H1  H2  O   H1  H2  O   
H1  H2  O   H1  H2  O   H1  H2  O   H1  H2  O   H1  H2  O   H1  H2  O   H1  H2  
O   H1  H2  O   H1  H2  O   H1  H2  O   H1  H2  O   H1  H2  O   H1  H2  O   H1  
H2  O   H1  H2  O   H1  H2  O   H1  H2  O   H1  H2  O   H1  H2  O   H1  H2  O   
H1  H2  O   H1  H2  O   H1  H2  O   H1  H2  O   H1  H2  O   H1  H2  O   H1  H2  
O   H1  H2  O   H1  H2  O   H1  H2  O   H1  H2  O   H1  H2  O   H1  H2  O   H1  
H2  O   H1  H2  O   H1  H2  O   H1  H2  O   H1  H2  O   H1  H2  O   H1  H2  O   
H1  H2  O   H1  H2  O   H1  H2  O   H1  H2  O   H1  H2  O   H1  H2  O   H1  H2  
O   H1  H2  O   H1  H2  O   H1  H2  O   H1  H2  O   H1  H2  O   H1  H2  O   H1  
H2  O   H1  H2  O   H1  H2  O   H1  H2  O   H1  H2  O   H1  H2  O   H1  H2  O   
H1  H2  O   H1  H2  O   H1  H2  O   H1  H2  O   H1  H2  O   H1  H2  O   H1  H2  
O   H1  H2  O   H1  H2  O   H1  H2  O   H1  H2  O   H1  H2  O   H1  H2  O   H1  
H2  O   H1  H2  O   H1  H2  O   H1  H2  O   H1  H2  O   H1  H2  O   H1  H2  O   
H1  H2  O   H1  H2  O   H1  H2  O   H1  H2  O   H1  H2  O   H1  H2  O   H1  H2  
O   H1  H2  O   H1  H2  O   H1  H2  O   H1  H2  O   H1  H2  O   H1  H2  O   H1  
H2  O   H1  H2  O   H1  H2  O   H1  H2  O   H1  H2  O   H1  H2  O   H1  H2  O   
H1  H2  O   H1  H2  O   H1  H2  O   H1  H2  O   H1  H2  O   H1  H2  O   H1  H2  
O   H1  H2  O   H1  H2  O   H1  H2  O   H1  H2  O   H1  H2  O   H1  H2  O   H1  
H2  O   H1  H2  O   H1  H2  O   H1  H2  O   H1  H2  O   H1  H2  O   H1  H2  O   
H1  H2  O   H1  H2  O   H1  H2  O   H1  H2  O   H1  H2  O   H1  H2  O   H1  H2  
O   H1  H2  O   H1  H2  O   H1  H2  O   H1  H2  O   H1  H2  O   H1  H2  O   H1  
H2  O   H1  H2  O   H1  H2  O   H1  H2  O   H1  H2  O   H1  H2  O   H1  H2  O   
H1  H2  O   H1  H2  O   H1  H2  O   H1  H2  O   H1  H2  O   H1  H2  O   H1  H2  
O   H1  H2  O   H1  H2  O   H1  H2  O   H1  H2  O   H1  H2  O   H1  H2  O   H1  
H2  O   H1  H2  O   H1  H2  O   H1  H2  O   H1  H2  O   H1  H2  O   H1  H2  O   
H1  H2  O   H1  H2  O   H1  H2  O   H1  H2  O   H1  H2  O   H1  H2  O   H1  H2  
O   H1  H2  O   H1  H2  O   H1  H2  O   H1  H2  O   H1  H2  O   H1  H2  O   H1  
H2  O   H1  H2  O   H1  H2  O   H1  H2  O   H1  H2  O   H1  H2  O   H1  H2  O   
H1  H2  O   H1  H2  O   H1  H2  O   H1  H2  O   H1  H2  O   H1  H2  O   H1  H2  
O   H1  H2  O   H1  H2  O   H1  H2  O   H1  H2  O   H1  H2  O   H1  H2  O   H1  
H2  O   H1  H2  O   H1  H2  O   H1  H2  O   H1  H2  O   H1  H2  O   H1  H2  O   
H1  H2  O   H1  H2  O   H1  H2  O   H1  H2  O   H1  H2  O   H1  H2  O   H1  H2  
O   H1  H2  O   H1  H2  O   H1  H2  O   H1  H2  O   H1  H2  O   H1  H2  O   H1  
H2  O   H1  H2  O   H1  H2  O   H1  H2  O   H1  H2  O   H1  H2  O   H1  H2  O   
H1  H2  O   H1  H2  O   H1  H2  O   H1  H2  O   H1  H2  O   H1  H2  O   H1  H2  
O   H1  H2  O   H1  H2  O   H1  H2  O   H1  H2  O   H1  H2  O   H1  H2  O   H1  
H2  O   H1  H2  O   H1  H2  O   H1  H2  O   H1  H2  O   H1  H2  O   H1  H2  O   
H1  H2  O   H1  H2  O   H1  H2  O   H1  H2  O   H1  H2  O   H1  H2  O   H1  H2  
O   H1  H2  O   H1  H2  O   H1  H2  O   H1  H2  O   H1  H2  O   H1  H2  O   H1  
H2  O   H1  H2  O   H1  H2  O   H1  H2  O   H1  H2  O   H1  H2  O   H1  H2  O   
H1  H2  O   H1  H2  O   H1  H2  O   H1  H2  O   H1  H2  O   H1  H2  O   H1  H2  
O   H1  H2  O   H1  H2  O   H1  H2  O   H1  H2  O   H1  H2  O   H1  H2  O   H1  
H2  O   H1  H2  O   H1  H2  O   H1  H2  O   H1  H2  O   H1  H2  O   H1  H2  O   
H1  H2  O   H1  H2  O   H1  H2  O   H1  H2  O   H1  H2  O   H1  H2  O   H1  H2  
O   H1  H2  O   H1  H2  O   H1  H2  O   H1  H2  O   H1  H2  O   H1  H2  O   H1  
H2  O   H1  H2  O   H1  H2  O   H1  H2  O   H1  H2  O   H1  H2  O   H1  H2  O   
H1  H2  O   H1  H2  O   H1  H2  O   H1  H2  O   H1  H2  O   H1  H2  O   H1  H2  
O   H1  H2  O   H1  H2  O   H1  H2  O   H1  H2  O   H1  H2  O   H1  H2  O   H1  
H2  O   H1  H2  O   H1  H2  O   H1  H2  O   H1  H2  O   H1  H2  O   H1  H2  O   
H1  H2  O   H1  H2  O   H1  H2  O   H1  H2  O   H1  H2  O   H1  H2  O   H1  H2  
O   H1  H2  O   H1  H2  O   H1  H2  O   H1  H2  O   H1  H2  O   H1  H2  O   H1  
H2  O   H1  H2  O   H1  H2  O   H1  H2  O   H1  H2  O   H1  H2  O   H1  H2  O   
H1  H2  O   H1  H2  O   H1  H2  O   H1  H2  O   H1  H2  O   H1  H2  O   H1  H2  
O   H1  H2  O   H1  H2  O   H1  H2  O   H1  H2  O   H1  H2  O   H1  H2  O   H1  
H2  O   H1  H2  O   H1  H2  O   H1  H2  O   H1  H2  O   H1  H2  O   H1  H2  O   
H1  H2  O   H1  H2  O   H1  H2  O   H1  H2  O   H1  H2  O   H1  H2  O   H1  H2  
O   H1  H2  O   H1  H2  O   H1  H2  O   H1  H2  O   H1  H2  O   H1  H2  O   H1  
H2  O   H1  H2  O   H1  H2  O   H1  H2  O   H1  H2  O   H1  H2  O   H1  H2  O   
H1  H2  O   H1  H2  O   H1  H2  O   H1  H2  O   H1  H2  O   H1  H2  O   H1  H2  
O   H1  H2  O   H1  H2  O   H1  H2  O   H1  H2  O   H1  H2  O   H1  H2  O   H1  
H2  O   H1  H2  O   H1  H2  O   H1  H2  O   H1  H2  O   H1  H2  O   H1  H2  O   
H1  H2  O   H1  H2  O   H1  H2  O   H1  H2  O   H1  H2  O   H1  H2  O   H1  H2  
O   H1  H2  O   H1  H2  O   H1  H2  O   H1  H2  O   H1  H2  O   H1  H2  O   H1  
H2  O   H1  H2  O   H1  H2  O   H1  H2  O   H1  H2  O   H1  H2  O   H1  H2  O   
H1  H2  O   H1  H2  O   H1  H2  O   H1  H2  O   H1  H2  O   H1  H2  O   H1  H2  
O   H1  H2  O   H1  H2  O   H1  H2  O   H1  H2  O   H1  H2  O   H1  H2  O   H1  
H2  O   H1  H2  O   H1  H2  O   H1  H2  O   H1  H2  O   H1  H2  O   H1  H2  O   
H1  H2  O   H1  H2  O   H1  H2  O   H1  H2  O   H1  H2  O   H1  H2  O   H1  H2  
O   H1  H2  O   H1  H2  O   H1  H2  O   H1  H2  O   H1  H2  O   H1  H2  O   H1  
H2  O   H1  H2  O   H1  H2  O   H1  H2  O   H1  H2  O   H1  H2  O   H1  H2  O   
H1  H2  O   H1  H2  O   H1  H2  O   H1  H2  O   H1  H2  O   H1  H2  O   H1  H2  
O   H1  H2  O   H1  H2  O   H1  H2  O   H1  H2  O   H1  H2  O   H1  H2  O   H1  
H2  O   H1  H2  O   H1  H2  O   H1  H2  O   H1  H2  O   H1  H2  O   H1  H2  O   
H1  H2  O   H1  H2  O   H1  H2  O   H1  H2  O   H1  H2  O   H1  H2  O   H1  H2  
O   H1  H2  O   H1  H2  O   H1  H2  O   H1  H2  O   H1  H2  O   H1  H2  O   H1  
H2  O   H1  H2  O   H1  H2  O   H1  H2  O   H1  H2  O   H1  H2  O   H1  H2  O   
H1  H2  O   H1  H2  O   H1  H2  O   H1  H2  O   H1  H2  O   H1  H2  O   H1  H2  
O   H1  H2  O   H1  H2  O   H1  H2  O   H1  H2  O   H1  H2  O   H1  H2  O   H1  
H2  O   H1  H2  O   H1  H2  O   H1  H2  O   H1  H2  O   H1  H2  O   H1  H2  O   
H1  H2  O   H1  H2  O   H1  H2  O   H1  H2  O   H1  H2  O   H1  H2  O   H1  H2  
O   H1  H2  O   H1  H2  O   H1  H2  O   H1  H2  O   H1  H2  O   H1  H2  O   H1  
H2  O   H1  H2  O   H1  H2  O   H1  H2  O   H1  H2  O   H1  H2  O   H1  H2  O   
H1  H2  O   H1  H2  O   H1  H2  O   H1  H2  O   H1  H2  O   H1  H2  O   H1  H2  
O   H1  H2  O   H1  H2  O   H1  H2  O   H1  H2  O   H1  H2  O   H1  H2  O   H1  
H2  O   H1  H2  O   H1  H2  O   H1  H2  O   H1  H2  O   H1  H2  O   H1  H2  O   
H1  H2  O   H1  H2  O   H1  H2  O   H1  H2  O   H1  H2  O   H1  H2  O   H1  H2  
O   H1  H2  O   H1  H2  O   H1  H2  O   H1  H2  O   H1  H2  O   H1  H2  O   H1  
H2  O   H1  H2  O   H1  H2  O   H1  H2  O   H1  H2  O   H1  H2  O   H1  H2  O   
H1  H2  O   H1  H2  O   H1  H2  O   H1  H2  O   H1  H2  O   H1  H2  O   H1  H2  
O   H1  H2  O   H1  H2  O   H1  H2  O   H1  H2  O   H1  H2  O   H1  H2  O   H1  
H2  O   H1  H2  O   H1  H2  O   H1  H2  O   H1  H2  O   H1  H2  O   H1  H2  O   
H1  H2  O   H1  H2  O   H1  H2  O   H1  H2  O   H1  H2  O   H1  H2  O   H1  H2  
O   H1  H2  O   H1  H2  O   H1  H2  O   H1  H2  O   H1  H2  O   H1  H2  O   H1  
H2  O   H1  H2  O   H1  H2  O   H1  H2  O   H1  H2  O   H1  H2  O   H1  H2  O   
H1  H2  O   H1  H2  O   H1  H2  O   H1  H2  O   H1  H2  O   H1  H2  O   H1  H2  
O   H1  H2  O   H1  H2  O   H1  H2  O   H1  H2  O   H1  H2  O   H1  H2  O   H1  
H2  O   H1  H2  O   H1  H2  O   H1  H2  O   H1  H2  O   H1  H2  O   H1  H2  O   
H1  H2  O   H1  H2  O   H1  H2  O   H1  H2  O   H1  H2  O   H1  H2  O   H1  H2  
O   H1  H2  O   H1  H2  O   H1  H2  O   H1  H2  O   H1  H2  O   H1  H2  O   H1  
H2  O   H1  H2  O   H1  H2  O   H1  H2  O   H1  H2  O   H1  H2  O   H1  H2  O   
H1  H2  O   H1  H2  O   H1  H2  O   H1  H2  O   H1  H2  O   H1  H2  O   H1  H2  
O   H1  H2  O   H1  H2  O   H1  H2  O   H1  H2  O   H1  H2  O   H1  H2  O   H1  
H2  O   H1  H2  O   H1  H2  O   H1  H2  O   H1  H2  O   H1  H2  O   H1  H2  O   
H1  H2  O   H1  H2  O   H1  H2  O   H1  H2  O   H1  H2  O   H1  H2  O   H1  H2  
O   H1  H2  O   H1  H2  O   H1  H2  O   H1  H2  O   H1  H2  O   H1  H2  O   H1  
H2  O   H1  H2  O   H1  H2  O   H1  H2  O   H1  H2  O   H1  H2  O   H1  H2  O   
H1  H2  O   H1  H2  O   H1  H2  O   H1  H2  O   H1  H2  O   H1  H2  O   H1  H2  
O   H1  H2  O   H1  H2  O   H1  H2  O   H1  H2  O   H1  H2  O   H1  H2  O   H1  
H2  O   H1  H2  O   H1  H2  O   H1  H2  O   H1  H2  O   H1  H2  O   H1  H2  O   
H1  H2  O   H1  H2  O   H1  H2  O   H1  H2  O   H1  H2  O   H1  H2  O   H1  H2  
O   H1  H2  O   H1  H2  O   H1  H2  O   H1  H2  O   H1  H2  O   H1  H2  O   H1  
H2  O   H1  H2  O   H1  H2  O   H1  H2  O   H1  H2  O   H1  H2  O   H1  H2  O   
H1  H2  O   H1  H2  O   H1  H2  O   H1  H2  O   H1  H2  O   H1  H2  O   H1  H2  
O   H1  H2  O   H1  H2  O   H1  H2  O   H1  H2  O   H1  H2  O   H1  H2  O   H1  
H2  O   H1  H2  O   H1  H2  O   H1  H2  O   H1  H2  O   H1  H2  O   H1  H2  O   
H1  H2  O   H1  H2  O   H1  H2  O   H1  H2  O   H1  H2  O   H1  H2  O   H1  H2  
O   H1  H2  O   H1  H2  O   H1  H2  O   H1  H2  O   H1  H2  O   H1  H2  O   H1  
H2  O   H1  H2  O   H1  H2  O   H1  H2  O   H1  H2  O   H1  H2  O   H1  H2  O   
H1  H2  O   H1  H2  O   H1  H2  O   H1  H2  O   H1  H2  O   H1  H2  O   H1  H2  
O   H1  H2  O   H1  H2  O   H1  H2  O   H1  H2  O   H1  H2  O   H1  H2  O   H1  
H2  O   H1  H2  O   H1  H2  O   H1  H2  O   H1  H2  O   H1  H2  O   H1  H2  O   
H1  H2  O   H1  H2  O   H1  H2  O   H1  H2  O   H1  H2  O   H1  H2  O   H1  H2  
O   H1  H2  O   H1  H2  O   H1  H2  O   H1  H2  O   H1  H2  O   H1  H2  O   H1  
H2  O   H1  H2  O   H1  H2  O   H1  H2  O   H1  H2  O   H1  H2  O   H1  H2  O   
H1  H2  O   H1  H2  O   H1  H2  O   H1  H2  O   H1  H2  O   H1  H2  O   H1  H2  
O   H1  H2  O   H1  H2  O   H1  H2  O   H1  H2  O   H1  H2  O   H1  H2  O   H1  
H2  O   H1  H2  O   H1  H2  O   H1  H2  O   H1  H2  O   H1  H2  O   H1  H2  O   
H1  H2  O   H1  H2  O   H1  H2  O   H1  H2  O   H1  H2  O   H1  H2  O   H1  H2  
O   H1  H2  O   H1  H2  O   H1  H2  O   H1  H2  O   H1  H2  O   H1  H2  O   H1  
H2  O   H1  H2  O   H1  H2  O   H1  H2  O   H1  H2  O   H1  H2  O   H1  H2  O   
H1  H2  O   H1  H2  O   H1  H2  O   H1  H2  O   H1  H2  O   H1  H2  O   H1  H2  
O   H1  H2  O   H1  H2  O   H1  H2  O   H1  H2  O   H1  H2  O   H1  H2  O   H1  
H2  O   H1  H2  O   H1  H2  O   H1  H2  O   H1  H2  O   H1  H2  O   H1  H2  O   
H1  H2  O   H1  H2  O   H1  H2  O   H1  H2  O   H1  H2  O   H1  H2  O   H1  H2  
O   H1  H2  O   H1  H2  O   H1  H2  O   H1  H2  O   H1  H2  O   H1  H2  O   H1  
H2  O   H1  H2  O   H1  H2  O   H1  H2  O   H1  H2  O   H1  H2  O   H1  H2  O   
H1  H2  O   H1  H2  O   H1  H2  O   H1  H2  O   H1  H2  O   H1  H2  O   H1  H2  
O   H1  H2  O   H1  H2  O   H1  H2  O   H1  H2  O   H1  H2  O   H1  H2  O   H1  
H2  O   H1  H2  O   H1  H2  O   H1  H2  O   H1  H2  O   H1  H2  O   H1  H2  O   
H1  H2  O   H1  H2  O   H1  H2  O   H1  H2  O   H1  H2  O   H1  H2  O   H1  H2  
O   H1  H2  O   H1  H2  O   H1  H2  O   H1  H2  O   H1  H2  O   H1  H2  O   H1  
H2  O   H1  H2  O   H1  H2  O   H1  H2  O   H1  H2  O   H1  H2  O   H1  H2  O   
H1  H2  O   H1  H2  O   H1  H2  O   H1  H2  O   H1  H2  O   H1  H2  O   H1  H2  
O   H1  H2  O   H1  H2  O   H1  H2  O   H1  H2  O   H1  H2  O   H1  H2  O   H1  
H2  O   H1  H2  O   H1  H2  O   H1  H2  O   H1  H2  O   H1  H2  O   H1  H2  O   
H1  H2  O   H1  H2  O   H1  H2  O   H1  H2  O   H1  H2  O   H1  H2  O   H1  H2  
O   H1  H2  O   H1  H2  O   H1  H2  O   H1  H2  O   H1  H2  O   H1  H2  O   H1  
H2  O   H1  H2  O   H1  H2  O   H1  H2  O   H1  H2  O   H1  H2  O   H1  H2  O   
H1  H2  O   H1  H2  O   H1  H2  O   H1  H2  O   H1  H2  O   H1  H2  O   H1  H2  
O   H1  H2  O   H1  H2  O   H1  H2  O   H1  H2  O   H1  H2  O   H1  H2  O   H1  
H2  O   H1  H2  O   H1  H2  O   H1  H2  O   H1  H2  O   H1  H2  O   H1  H2  O   
H1  H2  O   H1  H2  O   H1  H2  O   H1  H2  O   H1  H2  O   H1  H2  O   H1  H2  
O   H1  H2  O   H1  H2  O   H1  H2  O   H1  H2  O   H1  H2  O   H1  H2  O   H1  
H2  O   H1  H2  O   H1  H2  O   H1  H2  O   H1  H2  O   H1  H2  O   H1  H2  O   
H1  H2  O   H1  H2  O   H1  H2  O   H1  H2  O   H1  H2  O   H1  H2  O   H1  H2  
O   H1  H2  O   H1  H2  O   H1  H2  O   H1  H2  O   H1  H2  O   H1  H2  O   H1  
H2  O   H1  H2  O   H1  H2  O   H1  H2  O   H1  H2  O   H1  H2  O   H1  H2  O   
H1  H2  O   H1  H2  O   H1  H2  O   H1  H2  O   H1  H2  O   H1  H2  O   H1  H2  
O   H1  H2  O   H1  H2  O   H1  H2  O   H1  H2  O   H1  H2  O   H1  H2  O   H1  
H2  O   H1  H2  O   H1  H2  O   H1  H2  O   H1  H2  O   H1  H2  O   H1  H2  O   
H1  H2  O   H1  H2  O   H1  H2  O   H1  H2  O   H1  H2  O   H1  H2  O   H1  H2  
O   H1  H2  O   H1  H2  O   H1  H2  O   H1  H2  O   H1  H2  O   H1  H2  O   H1  
H2  O   H1  H2  O   H1  H2  O   H1  H2  O   H1  H2  O   H1  H2  O   H1  H2  O   
H1  H2  O   H1  H2  O   H1  H2  O   H1  H2  O   H1  H2  O   H1  H2  O   H1  H2  
O   H1  H2  O   H1  H2  O   H1  H2  O   H1  H2  O   H1  H2  O   H1  H2  O   H1  
H2  O   H1  H2  O   H1  H2  O   H1  H2  O   H1  H2  O   H1  H2  O   H1  H2  O   
H1  H2  O   H1  H2  O   H1  H2  O   H1  H2  O   H1  H2  O   H1  H2  O   H1  H2  
O   H1  H2  O   H1  H2  O   H1  H2  O   H1  H2  O   H1  H2  O   H1  H2  O   H1  
H2  O   H1  H2  O   H1  H2  O   H1  H2  O   H1  H2  O   H1  H2  O   H1  H2  O   
H1  H2  O   H1  H2  O   H1  H2  O   H1  H2  O   H1  H2  O   H1  H2  O   H1  H2  
O   H1  H2  O   H1  H2  O   H1  H2  O   H1  H2  O   H1  H2  O   H1  H2  O   H1  
H2  O   H1  H2  O   H1  H2  O   H1  H2  O   H1  H2  O   H1  H2  O   H1  H2  O   
H1  H2  O   H1  H2  O   H1  H2  O   H1  H2  O   H1  H2  O   H1  H2  O   H1  H2  
O   H1  H2  O   H1  H2  O   H1  H2  O   H1  H2  O   H1  H2  O   H1  H2  O   H1  
H2  O   H1  H2  O   H1  H2  O   H1  H2  O   H1  H2  O   H1  H2  O   H1  H2  O   
H1  H2  O   H1  H2  O   H1  H2  O   H1  H2  O   H1  H2  O   H1  H2  O   H1  H2  
O   H1  H2  O   H1  H2  O   H1  H2  O   H1  H2  O   H1  H2  O   H1  H2  O   H1  
H2  O   H1  H2  O   H1  H2  O   H1  H2  O   H1  H2  O   H1  H2  O   H1  H2  O   
H1  H2  O   H1  H2  O   H1  H2  O   H1  H2  O   H1  H2  O   H1  H2  O   H1  H2  
O   H1  H2  O   H1  H2  O   H1  H2  O   H1  H2  O   H1  H2  O   H1  H2  O   H1  
H2  O   H1  H2  O   H1  H2  O   H1  H2  O   H1  H2  O   H1  H2  O   H1  H2  O   
H1  H2  O   H1  H2  O   H1  H2  O   H1  H2  O   H1  H2  O   H1  H2  O   H1  H2  
O   H1  H2  O   H1  H2  O   H1  H2  O   H1  H2  O   H1  H2  O   H1  H2  O   H1  
H2  O   H1  H2  O   H1  H2  O   H1  H2  O   H1  H2  O   H1  H2  O   H1  H2  O   
H1  H2  O   H1  H2  O   H1  H2  O   H1  H2  O   H1  H2  O   H1  H2  O   H1  H2  
O   H1  H2  O   H1  H2  O   H1  H2  O   H1  H2  O   H1  H2  O   H1  H2  O   H1  
H2  O   H1  H2  O   H1  H2  O   H1  H2  O   H1  H2  O   H1  H2  O   H1  H2  O   
H1  H2  O   H1  H2  O   H1  H2  O   H1  H2  O   H1  H2  O   H1  H2  O   H1  H2  
O   H1  H2  O   H1  H2  O   H1  H2  O   H1  H2  O   H1  H2  O   H1  H2  O   H1  
H2  O   H1  H2  O   H1  H2  O   H1  H2  O   H1  H2  O   H1  H2  O   H1  H2  O   
H1  H2  O   H1  H2  O   H1  H2  O   H1  H2  O   H1  H2  O   H1  H2  O   H1  H2  
O   H1  H2  O   H1  H2  O   H1  H2  O   H1  H2  O   H1  H2  O   H1  H2  O   H1  
H2  O   H1  H2  O   H1  H2  O   H1  H2  O   H1  H2  O   H1  H2  O   H1  H2  O   
H1  H2  O   H1  H2  O   H1  H2  O   H1  H2  O   H1  H2  O   H1  H2  O   H1  H2  
O   H1  H2  O   H1  H2  O   H1  H2  O   H1  H2  O   H1  H2  O   H1  H2  O   H1  
H2  O   H1  H2  O   H1  H2  O   H1  H2  O   H1  H2  O   H1  H2  O   H1  H2  O   
H1  H2  O   H1  H2  O   H1  H2  O   H1  H2  O   H1  H2  O   H1  H2  O   H1  H2  
O   H1  H2  O   H1  H2  O   H1  H2  O   H1  H2  O   H1  H2  O   H1  H2  O   H1  
H2  O   H1  H2  O   H1  H2  O   H1  H2  O   H1  H2  O   H1  H2  O   H1  H2  O   
H1  H2  O   H1  H2  O   H1  H2  O   H1  H2  O   H1  H2  O   H1  H2  O   H1  H2  
O   H1  H2  O   H1  H2  O   H1  H2  O   H1  H2  O   H1  H2  O   H1  H2  O   H1  
H2  O   H1  H2  O   H1  H2  O   H1  H2  O   H1  H2  O   H1  H2  O   H1  H2  O   
H1  H2  O   H1  H2  O   H1  H2  O   H1  H2  O   H1  H2  O   H1  H2  O   H1  H2  
O   H1  H2  O   H1  H2  O   H1  H2  O   H1  H2  O   H1  H2  O   H1  H2  O   H1  
H2  O   H1  H2  O   H1  H2  O   H1  H2  O   H1  H2  O   H1  H2  O   H1  H2  O   
H1  H2  O   H1  H2  O   H1  H2  O   H1  H2  O   H1  H2  O   H1  H2  O   H1  H2  
O   H1  H2  O   H1  H2  O   H1  H2  O   H1  H2  O   H1  H2  O   H1  H2  O   H1  
H2  O   H1  H2  O   H1  H2  O   H1  H2  O   H1  H2  O   H1  H2  O   H1  H2  O   
H1  H2  O   H1  H2  O   H1  H2  O   H1  H2  O   H1  H2  O   H1  H2  O   H1  H2  
O   H1  H2  O   H1  H2  O   H1  H2  O   H1  H2  O   H1  H2  O   H1  H2  O   H1  
H2  O   H1  H2  O   H1  H2  O   H1  H2  O   H1  H2  O   H1  H2  O   H1  H2  O   
H1  H2  O   H1  H2  O   H1  H2  O   H1  H2  O   H1  H2  O   H1  H2  O   H1  H2  
O   H1  H2  O   H1  H2  O   H1  H2  O   H1  H2  O   H1  H2  O   H1  H2  O   H1  
H2  O   H1  H2  O   H1  H2  O   H1  H2  O   H1  H2  O   H1  H2  O   H1  H2  O   
H1  H2  O   H1  H2  O   H1  H2  O   H1  H2  O   H1  H2  O   H1  H2  O   H1  H2  
O   H1  H2  O   H1  H2  O   H1  H2  O   H1  H2  O   H1  H2  O   H1  H2  O   H1  
H2  O   H1  H2  O   H1  H2  O   H1  H2  O   H1  H2  O   H1  H2  O   H1  H2  O   
H1  H2  O   H1  H2  O   H1  H2  O   H1  H2  O   H1  H2  O   H1  H2  O   H1  H2  
O   H1  H2  O   H1  H2  O   H1  H2  O   H1  H2  O   H1  H2  O   H1  H2  O   H1  
H2  O   H1  H2  O   H1  H2  O   H1  H2  O   H1  H2  O   H1  H2  O   H1  H2  O   
H1  H2  O   H1  H2  O   H1  H2  O   H1  H2  O   H1  H2  O   H1  H2  O   H1  H2  
O   H1  H2  O   H1  H2  O   H1  H2  O   H1  H2  O   H1  H2  O   H1  H2  O   H1  
H2  O   H1  H2  O   H1  H2  O   H1  H2  O   H1  H2  O   H1  H2  O   H1  H2  O   
H1  H2  O   H1  H2  O   H1  H2  O   H1  H2  O   H1  H2  O   H1  H2  O   H1  H2  
O   H1  H2  O   H1  H2  O   H1  H2  O   H1  H2  O   H1  H2  O   H1  H2  O   H1  
H2  O   H1  H2  O   H1  H2  O   H1  H2  O   H1  H2  O   H1  H2  O   H1  H2  O   
H1  H2  O   H1  H2  O   H1  H2  O   H1  H2  O   H1  H2  O   H1  H2  O   H1  H2  
O   H1  H2  O   H1  H2  O   H1  H2  O   H1  H2  O   H1  H2  O   H1  H2  O   H1  
H2  O   H1  H2  O   H1  H2  O   H1  H2  O   H1  H2  O   H1  H2  O   H1  H2  O   
H1  H2  O   H1  H2  O   H1  H2  O   H1  H2  O   H1  H2  O   H1  H2  O   H1  H2  
O   H1  H2  O   H1  H2  O   H1  H2  O   H1  H2  O   H1  H2  O   H1  H2  O   H1  
H2  O   H1  H2  O   H1  H2  O   H1  H2  O   H1  H2  O   H1  H2  O   H1  H2  O   
H1  H2  O   H1  H2  O   H1  H2  O   H1  H2  O   H1  H2  O   H1  H2  O   H1  H2  
O   H1  H2  O   H1  H2  O   H1  H2  O   H1  H2  O   H1  H2  O   H1  H2  O   H1  
H2  O   H1  H2  O   H1  H2  O   H1  H2  O   H1  H2  O   H1  H2  O   H1  H2  O   
H1  H2  O   H1  H2  O   H1  H2  O   H1  H2  O   H1  H2  O   H1  H2  O   H1  H2  
O   H1  H2  O   H1  H2  O   H1  H2  O   H1  H2  O   H1  H2  O   H1  H2  O   H1  
H2  O   H1  H2  O   H1  H2  O   H1  H2  O   H1  H2  O   H1  H2  O   H1  H2  O   
H1  H2  O   H1  H2  O   H1  H2  O   H1  H2  O   H1  H2  O   H1  H2  O   H1  H2  
O   H1  H2  O   H1  H2  O   H1  H2  O   H1  H2  O   H1  H2  O   H1  H2  O   H1  
H2  O   H1  H2  O   H1  H2  O   H1  H2  O   H1  H2  O   H1  H2  O   H1  H2  O   
H1  H2  O   H1  H2  O   H1  H2  O   H1  H2  O   H1  H2  O   H1  H2  O   H1  H2  
O   H1  H2  O   H1  H2  O   H1  H2  O   H1  H2  O   H1  H2  O   H1  H2  O   H1  
H2  O   H1  H2  O   H1  H2  O   H1  H2  O   H1  H2  O   H1  H2  O   H1  H2  O   
H1  H2  O   H1  H2  O   H1  H2  O   H1  H2  O   H1  H2  O   H1  H2  O   H1  H2  
O   H1  H2  O   H1  H2  O   H1  H2  O   H1  H2  O   H1  H2  O   H1  H2  O   H1  
H2  O   H1  H2  O   H1  H2  O   H1  H2  O   H1  H2  O   H1  H2  O   H1  H2  O   
H1  H2  O   H1  H2  O   H1  H2  O   H1  H2  O   H1  H2  O   H1  H2  O   H1  H2  
O   H1  H2  O   H1  H2  O   H1  H2  O   H1  H2  O   H1  H2  O   H1  H2  O   H1  
H2  O   H1  H2  O   H1  H2  O   H1  H2  O   H1  H2  O   H1  H2  O   H1  H2  O   
H1  H2  O   H1  H2  O   H1  H2  O   H1  H2  O   H1  H2  O   H1  H2  O   H1  H2  
O   H1  H2  O   H1  H2  O   H1  H2  O   H1  H2  O   H1  H2  O   H1  H2  O   H1  
H2  O   H1  H2  O   H1  H2  O   H1  H2  O   H1  H2  O   H1  H2  O   H1  H2  O   
H1  H2  O   H1  H2  O   H1  H2  O   H1  H2  O   H1  H2  O   H1  H2  O   H1  H2  
O   H1  H2  O   H1  H2  O   H1  H2  O   H1  H2  O   H1  H2  O   H1  H2  O   H1  
H2  O   H1  H2  O   H1  H2  O   H1  H2  O   H1  H2  O   H1  H2  O   H1  H2  O   
H1  H2  O   H1  H2  O   H1  H2  O   H1  H2  O   H1  H2  O   H1  H2  O   H1  H2  
O   H1  H2  O   H1  H2  O   H1  H2  O   H1  H2  O   H1  H2  O   H1  H2  O   H1  
H2  O   H1  H2  O   H1  H2  O   H1  H2  O   H1  H2  O   H1  H2  O   H1  H2  O   
H1  H2  O   H1  H2  O   H1  H2  O   H1  H2  O   H1  H2  O   H1  H2  O   H1  H2  
O   H1  H2  O   H1  H2  O   H1  H2  O   H1  H2  O   H1  H2  O   H1  H2  O   H1  
H2  O   H1  H2  O   H1  H2  O   H1  H2  O   H1  H2  O   H1  H2  O   H1  H2  O   
H1  H2  O   H1  H2  O   H1  H2  O   H1  H2  O   H1  H2  O   H1  H2  O   H1  H2  
O   H1  H2  O   H1  H2  O   H1  H2  O   H1  H2  O   H1  H2  O   H1  H2  O   H1  
H2  O   H1  H2  O   H1  H2  O   H1  H2  O   H1  H2  O   H1  H2  O   H1  H2  O   
H1  H2  O   H1  H2  O   H1  H2  O   H1  H2  O   H1  H2  O   H1  H2  O   H1  H2  
O   H1  H2  O   H1  H2  O   H1  H2  O   H1  H2  O   H1  H2  O   H1  H2  O   H1  
H2  O   H1  H2  O   H1  H2  O   H1  H2  O   H1  H2  O   H1  H2  O   H1  H2  O   
H1  H2  O   H1  H2  O   H1  H2  O   H1  H2  O   H1  H2  O   H1  H2  O   H1  H2  
O   H1  H2  O   H1  H2  O   H1  H2  O   H1  H2  O   H1  H2  O   H1  H2  O   H1  
H2  O   H1  H2  O   H1  H2  O   H1  H2  O   H1  H2  O   H1  H2  O   H1  H2  O   
H1  H2  O   H1  H2  O   H1  H2  O   H1  H2  O   H1  H2  O   H1  H2  O   H1  H2  
O   H1  H2  O   H1  H2  O   H1  H2  O   H1  H2  O   H1  H2  O   H1  H2  O   H1  
H2  O   H1  H2  O   H1  H2  O   H1  H2  O   H1  H2  O   H1  H2  O   H1  H2  O   
H1  H2  O   H1  H2  O   H1  H2  O   H1  H2  O   H1  H2  O   H1  H2  O   H1  H2  
O   H1  H2  O   H1  H2  O   H1  H2  O   H1  H2  O   H1  H2  O   H1  H2  O   H1  
H2  O   H1  H2  O   H1  H2  O   H1  H2  O   H1  H2  O   H1  H2  O   H1  H2  O   
H1  H2  O   H1  H2  O   H1  H2  O   H1  H2  O   H1  H2  O   H1  H2  O   H1  H2  
O   H1  H2  O   H1  H2  O   H1  H2  O   H1  H2  O   H1  H2  O   H1  H2  O   H1  
H2  O   H1  H2  O   H1  H2  O   H1  H2  O   H1  H2  O   H1  H2  O   H1  H2  O   
H1  H2  O   H1  H2  O   H1  H2  O   H1  H2  O   H1  H2  O   H1  H2  O   H1  H2  
O   H1  H2  O   H1  H2  O   H1  H2  O   H1  H2  O   H1  H2  O   H1  H2  O   H1  
H2  O   H1  H2  O   H1  H2  O   H1  H2  O   H1  H2  O   H1  H2  O   H1  H2  O   
H1  H2  O   H1  H2  O   H1  H2  O   H1  H2  O   H1  H2  O   H1  H2  O   H1  H2  
O   H1  H2  O   H1  H2  O   H1  H2  O   H1  H2  O   H1  H2  O   H1  H2  O   H1  
H2  O   H1  H2  O   H1  H2  O   H1  H2  O   H1  H2  O   H1  H2  O   H1  H2  O   
H1  H2  O   H1  H2  O   H1  H2  O   H1  H2  O   H1  H2  O   H1  H2  O   H1  H2  
O   H1  H2  O   H1  H2  O   H1  H2  O   H1  H2  O   H1  H2  O   H1  H2  O   H1  
H2  O   H1  H2  O   H1  H2  O   H1  H2  O   H1  H2  O   H1  H2  O   H1  H2  O   
H1  H2  O   H1  H2  O   H1  H2  O   H1  H2  O   H1  H2  O   H1  H2  O   H1  H2  
O   H1  H2  O   H1  H2  O   H1  H2  O   H1  H2  O   H1  H2  O   H1  H2  O   H1  
H2  O   H1  H2  O   H1  H2  O   H1  H2  O   H1  H2  O   H1  H2  O   H1  H2  O   
H1  H2  O   H1  H2  O   H1  H2  O   H1  H2  O   H1  H2  O   H1  H2  O   H1  H2  
O   H1  H2  O   H1  H2  O   H1  H2  O   H1  H2  O   H1  H2  O   H1  H2  O   H1  
H2  O   H1  H2  O   H1  H2  O   H1  H2  O   H1  H2  O   H1  H2  O   H1  H2  O   
H1  H2  O   H1  H2  O   H1  H2  O   H1  H2  O   H1  H2  O   H1  H2  O   H1  H2  
O   H1  H2  O   H1  H2  O   H1  H2  O   H1  H2  O   H1  H2  O   H1  H2  O   H1  
H2  O   H1  H2  O   H1  H2  O   H1  H2  O   H1  H2  O   H1  H2  O   H1  H2  O   
H1  H2  O   H1  H2  O   H1  H2  O   H1  H2  O   H1  H2  O   H1  H2  O   H1  H2  
O   H1  H2  O   H1  H2  O   H1  H2  O   H1  H2  O   H1  H2  O   H1  H2  O   H1  
H2  O   H1  H2  O   H1  H2  O   H1  H2  O   H1  H2  O   H1  H2  O   H1  H2  O   
H1  H2  O   H1  H2  O   H1  H2  O   H1  H2  O   H1  H2  O   H1  H2  O   H1  H2  
O   H1  H2  O   H1  H2  O   H1  H2  O   H1  H2  O   H1  H2  O   H1  H2  O   H1  
H2  O   H1  H2  O   H1  H2  O   H1  H2  O   H1  H2  O   H1  H2  O   H1  H2  O   
H1  H2  O   H1  H2  O   H1  H2  O   H1  H2  O   H1  H2  O   H1  H2  O   H1  H2  
O   H1  H2  O   H1  H2  O   H1  H2  O   H1  H2  O   H1  H2  O   H1  H2  O   H1  
H2  O   H1  H2  O   H1  H2  O   H1  H2  O   H1  H2  O   H1  H2  O   H1  H2  O   
H1  H2  O   H1  H2  O   H1  H2  O   H1  H2  O   H1  H2  O   H1  H2  O   H1  H2  
O   H1  H2  O   H1  H2  O   H1  H2  O   H1  H2  O   H1  H2  O   H1  H2  O   H1  
H2  O   H1  H2  O   H1  H2  O   H1  H2  O   H1  H2  O   H1  H2  O   H1  H2  O   
H1  H2  O   H1  H2  O   H1  H2  O   H1  H2  O   H1  H2  O   H1  H2  O   H1  H2  
O   H1  H2  O   H1  H2  O   H1  H2  O   H1  H2  O   H1  H2  O   H1  H2  O   H1  
H2  O   H1  H2  O   H1  H2  O   H1  H2  O   H1  H2  O   H1  H2  O   H1  H2  O   
H1  H2  O   H1  H2  O   H1  H2  O   H1  H2  O   H1  H2  O   H1  H2  O   H1  H2  
O   H1  H2  O   H1  H2  O   H1  H2  O   H1  H2  O   H1  H2  O   H1  H2  O   H1  
H2  O   H1  H2  O   H1  H2  O   H1  H2  O   H1  H2  O   H1  H2  O   H1  H2  O   
H1  H2  O   H1  H2  O   H1  H2  O   H1  H2  O   H1  H2  O   H1  H2  O   H1  H2  
O   H1  H2  O   H1  H2  O   H1  H2  O   H1  H2  O   H1  H2  O   H1  H2  O   H1  
H2  O   H1  H2  O   H1  H2  O   H1  H2  O   H1  H2  O   H1  H2  O   H1  H2  O   
H1  H2  O   H1  H2  O   H1  H2  O   H1  H2  O   H1  H2  O   H1  H2  O   H1  H2  
O   H1  H2  O   H1  H2  O   H1  H2  O   H1  H2  O   H1  H2  O   H1  H2  O   H1  
H2  O   H1  H2  O   H1  H2  O   H1  H2  O   H1  H2  O   H1  H2  O   H1  H2  O   
H1  H2  O   H1  H2  O   H1  H2  O   H1  H2  O   H1  H2  O   H1  H2  O   H1  H2  
O   H1  H2  O   H1  H2  O   H1  H2  O   H1  H2  O   H1  H2  O   H1  H2  O   H1  
H2  O   H1  H2  O   H1  H2  O   H1  H2  O   H1  H2  O   H1  H2  O   H1  H2  O   
H1  H2  O   H1  H2  O   H1  H2  O   H1  H2  O   H1  H2  O   H1  H2  O   H1  H2  
O   H1  H2  O   H1  H2  O   H1  H2  O   H1  H2  O   H1  H2  O   H1  H2  O   H1  
H2  O   H1  H2  O   H1  H2  O   H1  H2  O   H1  H2  O   H1  H2  O   H1  H2  O   
H1  H2  O   H1  H2  O   H1  H2  O   H1  H2  O   H1  H2  O   H1  H2  O   H1  H2  
O   H1  H2  O   H1  H2  O   H1  H2  O   H1  H2  O   H1  H2  O   H1  H2  O   H1  
H2  O   H1  H2  O   H1  H2  O   H1  H2  O   H1  H2  O   H1  H2  O   H1  H2  O   
H1  H2  O   H1  H2  O   H1  H2  O   H1  H2  O   H1  H2  O   H1  H2  O   H1  H2  
O   H1  H2  O   H1  H2  O   H1  H2  O   H1  H2  O   H1  H2  O   H1  H2  O   H1  
H2  O   H1  H2  O   H1  H2  O   H1  H2  O   H1  H2  O   H1  H2  O   H1  H2  O   
H1  H2  O   H1  H2  O   H1  H2  O   H1  H2  O   H1  H2  O   H1  H2  O   H1  H2  
O   H1  H2  O   H1  H2  O   H1  H2  O   H1  H2  O   H1  H2  O   H1  H2  O   H1  
H2  O   H1  H2  O   H1  H2  O   H1  H2  O   H1  H2  O   H1  H2  O   H1  H2  O   
H1  H2  O   H1  H2  O   H1  H2  O   H1  H2  O   H1  H2  O   H1  H2  O   H1  H2  
O   H1  H2  O   H1  H2  O   H1  H2  O   H1  H2  O   H1  H2  O   H1  H2  O   H1  
H2  O   H1  H2  O   H1  H2  O   H1  H2  O   H1  H2  O   H1  H2  O   H1  H2  O   
H1  H2  O   H1  H2  O   H1  H2  O   H1  H2  O   H1  H2  O   H1  H2  O   H1  H2  
O   H1  H2  O   H1  H2  O   H1  H2  O   H1  H2  O   H1  H2  O   H1  H2  O   H1  
H2  O   H1  H2  O   H1  H2  O   H1  H2  O   H1  H2  O   H1  H2  O   H1  H2  O   
H1  H2  O   H1  H2  O   H1  H2  O   H1  H2  O   H1  H2  O   H1  H2  O   H1  H2  
O   H1  H2  O   H1  H2  O   H1  H2  O   H1  H2  O   H1  H2  O   H1  H2  O   H1  
H2  O   H1  H2  O   H1  H2  O   H1  H2  O   H1  H2  O   H1  H2  O   H1  H2  O   
H1  H2  O   H1  H2  O   H1  H2  O   H1  H2  O   H1  H2  O   H1  H2  O   H1  H2  
O   H1  H2  O   H1  H2  O   H1  H2  O   H1  H2  O   H1  H2  O   H1  H2  O   H1  
H2  O   H1  H2  O   H1  H2  O   H1  H2  O   H1  H2  O   H1  H2  O   H1  H2  O   
H1  H2  O   H1  H2  O   H1  H2  O   H1  H2  O   H1  H2  O   H1  H2  O   H1  H2  
O   H1  H2  O   H1  H2  O   H1  H2  O   H1  H2  O   H1  H2  O   H1  H2  O   H1  
H2  O   H1  H2  O   H1  H2  O   H1  H2  O   H1  H2  O   H1  H2  O   H1  H2  O   
H1  H2  O   H1  H2  O   H1  H2  O   H1  H2  O   H1  H2  O   H1  H2  O   H1  H2  
O   H1  H2  O   H1  H2  O   H1  H2  O   H1  H2  O   H1  H2  O   H1  H2  O   H1  
H2  O   H1  H2  O   H1  H2  O   H1  H2  O   H1  H2  O   H1  H2  O   H1  H2  O   
H1  H2  O   H1  H2  O   H1  H2  O   H1  H2  O   H1  H2  O   H1  H2  O   H1  H2  
O   H1  H2  O   H1  H2  O   H1  H2  O   H1  H2  O   H1  H2  O   H1  H2  O   H1  
H2  O   H1  H2  O   H1  H2  O   H1  H2  O   H1  H2  O   H1  H2  O   H1  H2  O   
H1  H2  O   H1  H2  O   H1  H2  O   H1  H2  O   H1  H2  O   H1  H2  O   H1  H2  
O   H1  H2  O   H1  H2  O   H1  H2  O   H1  H2  O   H1  H2  O   H1  H2  O   H1  
H2  O   H1  H2  O   H1  H2  O   H1  H2  O   H1  H2  O   H1  H2  O   H1  H2  O   
H1  H2  O   H1  H2  O   H1  H2  O   H1  H2  O   H1  H2  O   H1  H2  O   H1  H2  
O   H1  H2  O   H1  H2  O   H1  H2  O   H1  H2  O   H1  H2  O   H1  H2  O   H1  
H2  O   H1  H2  O   H1  H2  O   H1  H2  O   H1  H2  O   H1  H2  O   H1  H2  O   
H1  H2  O   H1  H2  O   H1  H2  O   H1  H2  O   H1  H2  O   H1  H2  O   H1  H2  
O   H1  H2  O   H1  H2  O   H1  H2  O   H1  H2  O   H1  H2  O   H1  H2  O   H1  
H2  O   H1  H2  O   H1  H2  O   H1  H2  O   H1  H2  O   H1  H2  O   H1  H2  O   
H1  H2  O   H1  H2  O   H1  H2  O   H1  H2  O   H1  H2  O   H1  H2  O   H1  H2  
O   H1  H2  O   H1  H2  O   H1  H2  O   H1  H2  O   H1  H2  O   H1  H2  O   H1  
H2  O   H1  H2  O   H1  H2  O   H1  H2  O   H1  H2  O   H1  H2  O   H1  H2  O   
H1  H2  O   H1  H2  O   H1  H2  O   H1  H2  O   H1  H2  O   H1  H2  O   H1  H2  
O   H1  H2  O   H1  H2  O   H1  H2  O   H1  H2  O   H1  H2  O   H1  H2  O   H1  
H2  O   H1  H2  O   H1  H2  O   H1  H2  O   H1  H2  O   H1  H2  O   H1  H2  O   
H1  H2  O   H1  H2  O   H1  H2  O   H1  H2  O   H1  H2  O   H1  H2  O   H1  H2  
O   H1  H2  O   H1  H2  O   H1  H2  O   H1  H2  O   H1  H2  O   H1  H2  O   H1  
H2  O   H1  H2  O   H1  H2  O   H1  H2  O   H1  H2  O   H1  H2  O   H1  H2  O   
H1  H2  O   H1  H2  O   H1  H2  O   H1  H2  O   H1  H2  O   H1  H2  O   H1  H2  
O   H1  H2  O   H1  H2  O   H1  H2  O   H1  H2  O   H1  H2  O   H1  H2  O   H1  
H2  O   H1  H2  O   H1  H2  O   H1  H2  O   H1  H2  O   H1  H2  O   H1  H2  O   
H1  H2  O   H1  H2  O   H1  H2  O   H1  H2  O   H1  H2  O   H1  H2  O   H1  H2  
O   H1  H2  O   H1  H2  O   H1  H2  O   H1  H2  O   H1  H2  O   H1  H2  O   H1  
H2  O   H1  H2  O   H1  H2  O   H1  H2  O   H1  H2  O   H1  H2  O   H1  H2  O   
H1  H2  O   H1  H2  O   H1  H2  O   H1  H2  O   H1  H2  O   H1  H2  O   H1  H2  
O   H1  H2  O   H1  H2  O   H1  H2  O   H1  H2  O   H1  H2  O   H1  H2  O   H1  
H2  O   H1  H2  O   H1  H2  O   H1  H2  O   H1  H2  O   H1  H2  O   H1  H2  O   
H1  H2  O   H1  H2  O   H1  H2  O   H1  H2  O   H1  H2  O   H1  H2  O   H1  H2  
O   H1  H2  O   H1  H2  O   H1  H2  O   H1  H2  O   H1  H2  O   H1  H2  O   H1  
H2  O   H1  H2  O   H1  H2  O   H1  H2  O   H1  H2  O   H1  H2  O   H1  H2  O   
H1  H2  O   H1  H2  O   H1  H2  O   H1  H2  O   H1  H2  O   H1  H2  O   H1  H2  
O   H1  H2  O   H1  H2  O   H1  H2  O   H1  H2  O   H1  H2  O   H1  H2  O   H1  
H2  O   H1  H2  O   H1  H2  O   H1  H2  O   H1  H2  O   H1  H2  O   H1  H2  O   
H1  H2  O   H1  H2  O   H1  H2  O   H1  H2  O   H1  H2  O   H1  H2  O   H1  H2  
O   H1  H2  O   H1  H2  O   H1  H2  O   H1  H2  O   H1  H2  O   H1  H2  O   H1  
H2  O   H1  H2  O   H1  H2  O   H1  H2  O   H1  H2  O   H1  H2  O   H1  H2  O   
H1  H2  O   H1  H2  O   H1  H2  O   H1  H2  O   H1  H2  O   H1  H2  O   H1  H2  
O   H1  H2  O   H1  H2  O   H1  H2  O   H1  H2  O   H1  H2  O   H1  H2  O   H1  
H2  O   H1  H2  O   H1  H2  O   H1  H2  O   H1  H2  O   H1  H2  O   H1  H2  O   
H1  H2  O   H1  H2  O   H1  H2  O   H1  H2  O   H1  H2  O   H1  H2  O   H1  H2  
O   H1  H2  O   H1  H2  O   H1  H2  O   H1  H2  O   H1  H2  O   H1  H2  O   H1  
H2  O   H1  H2  O   H1  H2  O   H1  H2  O   H1  H2  O   H1  H2  O   H1  H2  O   
H1  H2  O   H1  H2  O   H1  H2  O   H1  H2  O   H1  H2  O   H1  H2  O   H1  H2  
O   H1  H2  O   H1  H2  O   H1  H2  O   H1  H2  O   H1  H2  O   H1  H2  O   H1  
H2  O   H1  H2  O   H1  H2  O   H1  H2  O   H1  H2  O   H1  H2  O   H1  H2  O   
H1  H2  O   H1  H2  O   H1  H2  O   H1  H2  O   H1  H2  O   H1  H2  O   H1  H2  
O   H1  H2  O   H1  H2  O   H1  H2  O   H1  H2  O   H1  H2  O   H1  H2  O   H1  
H2  O   H1  H2  O   H1  H2  O   H1  H2  O   H1  H2  O   H1  H2  O   H1  H2  O   
H1  H2  O   H1  H2  O   H1  H2  O   H1  H2  O   H1  H2  O   H1  H2  O   H1  H2  
O   H1  H2  O   H1  H2  O   H1  H2  O   H1  H2  O   H1  H2  O   H1  H2  O   H1  
H2  O   H1  H2  O   H1  H2  O   H1  H2  O   H1  H2  O   H1  H2  O   H1  H2  O   
H1  H2  O   H1  H2  O   H1  H2  O   H1  H2  O   H1  H2  O   H1  H2  O   H1  H2  
O   H1  H2  O   H1  H2  O   H1  H2  O   H1  H2  O   H1  H2  O   H1  H2  O   H1  
H2  O   H1  H2  O   H1  H2  O   H1  H2  O   H1  H2  O   H1  H2  O   H1  H2  O   
H1  H2  O   H1  H2  O   H1  H2  O   H1  H2  O   H1  H2  O   H1  H2  O   H1  H2  
O   H1  H2  O   H1  H2  O   H1  H2  O   H1  H2  O   H1  H2  O   H1  H2  O   H1  
H2  O   H1  H2  O   H1  H2  O   H1  H2  O   H1  H2  O   H1  H2  O   H1  H2  O   
H1  H2  O   H1  H2  O   H1  H2  O   H1  H2  O   H1  H2  O   H1  H2  O   H1  H2  
O   H1  H2  O   H1  H2  O   H1  H2  O   H1  H2  O   H1  H2  O   H1  H2  O   H1  
H2  O   H1  H2  O   H1  H2  O   H1  H2  O   H1  H2  O   H1  H2  O   H1  H2  O   
H1  H2  O   H1  H2  O   H1  H2  O   H1  H2  O   H1  H2  O   H1  H2  O   H1  H2  
O   H1  H2  O   H1  H2  O   H1  H2  O   H1  H2  O   H1  H2  O   H1  H2  O   H1  
H2  O   H1  H2  O   H1  H2  O   H1  H2  O   H1  H2  O   H1  H2  O   H1  H2  O   
H1  H2  O   H1  H2  O   H1  H2  O   H1  H2  O   H1  H2  O   H1  H2  O   H1  H2  
O   H1  H2  O   H1  H2  O   H1  H2  O   H1  H2  O   H1  H2  O   H1  H2  O   H1  
H2  O   H1  H2  O   H1  H2  O   H1  H2  O   H1  H2  O   H1  H2  O   H1  H2  O   
H1  H2  O   H1  H2  O   H1  H2  O   H1  H2  O   H1  H2  O   H1  H2  O   H1  H2  
O   H1  H2  O   H1  H2  O   H1  H2  O   H1  H2  O   H1  H2  O   H1  H2  O   H1  
H2  O   H1  H2  O   H1  H2  O   H1  H2  O   H1  H2  O   H1  H2  O   H1  H2  O   
H1  H2  O   H1  H2  O   H1  H2  O   H1  H2  O   H1  H2  O   H1  H2  O   H1  H2  
O   H1  H2  O   H1  H2  O   H1  H2  O   H1  H2  O   H1  H2  O   H1  H2  O   H1  
H2  O   H1  H2  O   H1  H2  O   H1  H2  O   H1  H2  O   H1  H2  O   H1  H2  O   
H1  H2  O   H1  H2  O   H1  H2  O   H1  H2  O   H1  H2  O   H1  H2  O   H1  H2  
O   H1  H2  O   H1  H2  O   H1  H2  O   H1  H2  O   H1  H2  O   H1  H2  O   H1  
H2  O   H1  H2  O   H1  H2  O   H1  H2  O   H1  H2  O   H1  H2  O   H1  H2  O   
H1  H2  O   H1  H2  O   H1  H2  O   H1  H2  O   H1  H2  O   H1  H2  O   H1  H2  
O   H1  H2  O   H1  H2  O   H1  H2  O   H1  H2  O   H1  H2  O   H1  H2  O   H1  
H2  O   H1  H2  O   H1  H2  O   H1  H2  O   H1  H2  O   H1  H2  O   H1  H2  O   
H1  H2  O   H1  H2  O   H1  H2  O   H1  H2  O   H1  H2  O   H1  H2  O   H1  H2  
O   H1  H2  O   H1  H2  O   H1  H2  O   H1  H2  O   H1  H2  O   H1  H2  O   H1  
H2  O   H1  H2  O   H1  H2  O   H1  H2  O   H1  H2  O   H1  H2  O   H1  H2  O   
H1  H2  O   H1  H2  O   H1  H2  O   H1  H2  O   H1  H2  O   H1  H2  O   H1  H2  
O   H1  H2  O   H1  H2  O   H1  H2  O   H1  H2  O   H1  H2  O   H1  H2  O   H1  
H2  O   H1  H2  O   H1  H2  O   H1  H2  O   H1  H2  O   H1  H2  O   H1  H2  O   
H1  H2  O   H1  H2  O   H1  H2  O   H1  H2  O   H1  H2  O   H1  H2  O   H1  H2  
O   H1  H2  O   H1  H2  O   H1  H2  O   H1  H2  O   H1  H2  O   H1  H2  O   H1  
H2  O   H1  H2  O   H1  H2  O   H1  H2  O   H1  H2  O   H1  H2  O   H1  H2  O   
H1  H2  O   H1  H2  O   H1  H2  O   H1  H2  O   H1  H2  O   H1  H2  O   H1  H2  
O   H1  H2  O   H1  H2  O   H1  H2  O   H1  H2  O   H1  H2  O   H1  H2  O   H1  
H2  O   H1  H2  O   H1  H2  O   H1  H2  O   H1  H2  O   H1  H2  O   H1  H2  O   
H1  H2  O   H1  H2  O   H1  H2  O   H1  H2  O   H1  H2  O   H1  H2  O   H1  H2  
O   H1  H2  O   H1  H2  O   H1  H2  O   H1  H2  O   H1  H2  O   H1  H2  O   H1  
H2  O   H1  H2  O   H1  H2  O   H1  H2  O   H1  H2  O   H1  H2  O   H1  H2  O   
H1  H2  O   H1  H2  O   H1  H2  O   H1  H2  O   H1  H2  O   H1  H2  O   H1  H2  
O   H1  H2  O   H1  H2  O   H1  H2  O   H1  H2  O   H1  H2  O   H1  H2  O   H1  
H2  O   H1  H2  O   H1  H2  O   H1  H2  O   H1  H2  O   H1  H2  O   H1  H2  O   
H1  H2  O   H1  H2  O   H1  H2  O   H1  H2  O   H1  H2  O   H1  H2  O   H1  H2  
O   H1  H2  O   H1  H2  O   H1  H2  O   H1  H2  O   H1  H2  O   H1  H2  O   H1  
H2  O   H1  H2  O   H1  H2  O   H1  H2  O   H1  H2  O   H1  H2  O   H1  H2  O   
H1  H2  O   H1  H2  O   H1  H2  O   H1  H2  O   H1  H2  O   H1  H2  O   H1  H2  
O   H1  H2  O   H1  H2  O   H1  H2  O   H1  H2  O   H1  H2  O   H1  H2  O   H1  
H2  O   H1  H2  O   H1  H2  O   H1  H2  O   H1  H2  O   H1  H2  O   H1  H2  O   
H1  H2  O   H1  H2  O   H1  H2  O   H1  H2  O   H1  H2  O   H1  H2  O   H1  H2  
O   H1  H2  O   H1  H2  O   H1  H2  O   H1  H2  O   H1  H2  O   H1  H2  O   H1  
H2  O   H1  H2  O   H1  H2  O   H1  H2  O   H1  H2  O   H1  H2  O   H1  H2  O   
H1  H2  O   H1  H2  O   H1  H2  O   H1  H2  O   H1  H2  O   H1  H2  O   H1  H2  
O   H1  H2  O   H1  H2  O   H1  H2  O   H1  H2  O   H1  H2  O   H1  H2  O   H1  
H2  O   H1  H2  O   H1  H2  O   H1  H2  O   H1  H2  O   H1  H2  O   H1  H2  O   
H1  H2  O   H1  H2  O   H1  H2  O   H1  H2  O   H1  H2  O   H1  H2  O   H1  H2  
O   H1  H2  O   H1  H2  O   H1  H2  O   H1  H2  O   H1  H2  O   H1  H2  O   H1  
H2  O   H1  H2  O   H1  H2  O   H1  H2  O   H1  H2  O   H1  H2  O   H1  H2  O   
H1  H2  O   H1  H2  O   H1  H2  O   H1  H2  O   H1  H2  O   H1  H2  O   H1  H2  
O   H1  H2  O   H1  H2  O   H1  H2  O   H1  H2  O   H1  H2  O   H1  H2  O   H1  
H2  O   H1  H2  O   H1  H2  O   H1  H2  O   H1  H2  O   H1  H2  O   H1  H2  O   
H1  H2  O   H1  H2  O   H1  H2  O   H1  H2  O   H1  H2  O   H1  H2  O   H1  H2  
O   H1  H2  O   H1  H2  O   H1  H2  O   H1  H2  O   H1  H2  O   H1  H2  O   H1  
H2  O   H1  H2  O   H1  H2  O   H1  H2  O   H1  H2  O   H1  H2  O   H1  H2  O   
H1  H2  O   H1  H2  O   H1  H2  O   H1  H2  O   H1  H2  O   H1  H2  O   H1  H2  
O   H1  H2  O   H1  H2  O   H1  H2  O   H1  H2  O   H1  H2  O   H1  H2  O   H1  
H2  O   H1  H2  O   H1  H2  O   H1  H2  O   H1  H2  O   H1  H2  O   H1  H2  O   
H1  H2  O   H1  H2  O   H1  H2  O   H1  H2  O   H1  H2  O   H1  H2  O   H1  H2  
O   H1  H2  O   H1  H2  O   H1  H2  O   H1  H2  O   H1  H2  O   H1  H2  O   H1  
H2  O   H1  H2  O   H1  H2  O   H1  H2  O   H1  H2  O   H1  H2  O   H1  H2  O   
H1  H2  O   H1  H2  O   H1  H2  O   H1  H2  O   H1  H2  O   H1  H2  O   H1  H2  
O   H1  H2  O   H1  H2  O   H1  H2  O   H1  H2  O   H1  H2  O   H1  H2  O   H1  
H2  O   H1  H2  O   H1  H2  O   H1  H2  O   H1  H2  O   H1  H2  O   H1  H2  O   
H1  H2  O   H1  H2  O   H1  H2  O   H1  H2  O   H1  H2  O   H1  H2  O   H1  H2  
O   H1  H2  O   H1  H2  O   H1  H2  O   H1  H2  O   H1  H2  O   H1  H2  O   H1  
H2  O   H1  H2  O   H1  H2  O   H1  H2  O   H1  H2  O   H1  H2  O   H1  H2  O   
H1  H2  O   H1  H2  O   H1  H2  O   H1  H2  O   H1  H2  O   H1  H2  O   H1  H2  
O   H1  H2  O   H1  H2  O   H1  H2  O   H1  H2  O   H1  H2  O   H1  H2  O   H1  
H2  O   H1  H2  O   H1  H2  O   H1  H2  O   H1  H2  O   H1  H2  O   H1  H2  O   
H1  H2  O   H1  H2  O   H1  H2  O   H1  H2  O   H1  H2  O   H1  H2  O   H1  H2  
O   H1  H2  O   H1  H2  O   H1  H2  O   H1  H2  O   H1  H2  O   H1  H2  O   H1  
H2  O   H1  H2  O   H1  H2  O   H1  H2  O   H1  H2  O   H1  H2  O   H1  H2  O   
H1  H2  O   H1  H2  O   H1  H2  O   H1  H2  O   H1  H2  O   H1  H2  O   H1  H2  
O   H1  H2  O   H1  H2  O   H1  H2  O   H1  H2  O   H1  H2  O   H1  H2  O   H1  
H2  O   H1  H2  O   H1  H2  O   H1  H2  O   H1  H2  O   H1  H2  O   H1  H2  O   
H1  H2  O   H1  H2  O   H1  H2  O   H1  H2  O   H1  H2  O   H1  H2  O   H1  H2  
O   H1  H2  O   H1  H2  O   H1  H2  O   H1  H2  O   H1  H2  O   H1  H2  O   H1  
H2  O   H1  H2  O   H1  H2  O   H1  H2  O   H1  H2  O   H1  H2  O   H1  H2  O   
H1  H2  O   H1  H2  O   H1  H2  O   H1  H2  O   H1  H2  O   H1  H2  O   H1  H2  
O   H1  H2  O   H1  H2  O   H1  H2  O   H1  H2  O   H1  H2  O   H1  H2  O   H1  
H2  O   H1  H2  O   H1  H2  O   H1  H2  O   H1  H2  O   H1  H2  O   H1  H2  O   
H1  H2  O   H1  H2  O   H1  H2  O   H1  H2  O   H1  H2  O   H1  H2  O   H1  H2  
O   H1  H2  O   H1  H2  O   H1  H2  O   H1  H2  O   H1  H2  O   H1  H2  O   H1  
H2  O   H1  H2  O   H1  H2  O   H1  H2  O   H1  H2  O   H1  H2  O   H1  H2  O   
H1  H2  O   H1  H2  O   H1  H2  O   H1  H2  O   H1  H2  O   H1  H2  O   H1  H2  
O   H1  H2  O   H1  H2  O   H1  H2  O   H1  H2  O   H1  H2  O   H1  H2  O   H1  
H2  O   H1  H2  O   H1  H2  O   H1  H2  O   H1  H2  O   H1  H2  O   H1  H2  O   
H1  H2  O   H1  H2  O   H1  H2  O   H1  H2  O   H1  H2  O   H1  H2  O   H1  H2  
O   H1  H2  O   H1  H2  O   H1  H2  O   H1  H2  O   H1  H2  O   H1  H2  O   H1  
H2  O   H1  H2  O   H1  H2  O   H1  H2  O   H1  H2  O   H1  H2  O   H1  H2  O   
H1  H2  O   H1  H2  O   H1  H2  O   H1  H2  O   H1  H2  O   H1  H2  O   H1  H2  
O   H1  H2  O   H1  H2  O   H1  H2  O   H1  H2  O   H1  H2  O   H1  H2  O   H1  
H2  O   H1  H2  O   H1  H2  O   H1  H2  O   H1  H2  O   H1  H2  O   H1  H2  O   
H1  H2  O   H1  H2  O   H1  H2  O   H1  H2  O   H1  H2  O   H1  H2  O   H1  H2  
O   H1  H2  O   H1  H2  O   H1  H2  O   H1  H2  O   H1  H2  O   H1  H2  O   H1  
H2  O   H1  H2  O   H1  H2  O   H1  H2  O   H1  H2  O   H1  H2  O   H1  H2  O   
H1  H2  O   H1  H2  O   H1  H2  O   H1  H2  O   H1  H2  O   H1  H2  O   H1  H2  
O   H1  H2  O   H1  H2  O   H1  H2  O   H1  H2  O   H1  H2  O   H1  H2  O   H1  
H2  O   H1  H2  O   H1  H2  O   H1  H2  O   H1  H2  O   H1  H2  O   H1  H2  O   
H1  H2  O   H1  H2  O   H1  H2  O   H1  H2  O   H1  H2  O   H1  H2  O   H1  H2  
O   H1  H2  O   H1  H2  O   H1  H2  O   H1  H2  O   H1  H2  O   H1  H2  O   H1  
H2  O   H1  H2  O   H1  H2  O   H1  H2  O   H1  H2  O   H1  H2  O   H1  H2  O   
H1  H2  O   H1  H2  O   H1  H2  O   H1  H2  O   H1  H2  O   H1  H2  O   H1  H2  
O   H1  H2  O   H1  H2  O   H1  H2  O   H1  H2  O   H1  H2  O   H1  H2  O   H1  
H2  O   H1  H2  O   H1  H2  O   H1  H2  O   H1  H2  O   H1  H2  O   H1  H2  O   
H1  H2  O   H1  H2  O   H1  H2  O   H1  H2  O   H1  H2  O   H1  H2  O   H1  H2  
O   H1  H2  O   H1  H2  O   H1  H2  O   H1  H2  O   H1  H2  O   H1  H2  O   H1  
H2  O   H1  H2  O   H1  H2  O   H1  H2  O   H1  H2  O   H1  H2  O   H1  H2  O   
H1  H2  O   H1  H2  O   H1  H2  O   H1  H2  O   H1  H2  O   H1  H2  O   H1  H2  
O   H1  H2  O   H1  H2  O   H1  H2  O   H1  H2  O   H1  H2  O   H1  H2  O   H1  
H2  O   H1  H2  O   H1  H2  O   H1  H2  O   H1  H2  O   H1  H2  O   H1  H2  O   
H1  H2  O   H1  H2  O   H1  H2  O   H1  H2  O   H1  H2  O   H1  H2  O   H1  H2  
O   H1  H2  O   H1  H2  O   H1  H2  O   H1  H2  O   H1  H2  O   H1  H2  O   H1  
H2  O   H1  H2  O   H1  H2  O   H1  H2  O   H1  H2  O   H1  H2  O   H1  H2  O   
H1  H2  O   H1  H2  O   H1  H2  O   H1  H2  O   H1  H2  O   H1  H2  O   H1  H2  
O   H1  H2  O   H1  H2  O   H1  H2  O   H1  H2  O   H1  H2  O   H1  H2  O   H1  
H2  O   H1  H2  O   H1  H2  O   H1  H2  O   H1  H2  O   H1  H2  O   H1  H2  O   
H1  H2  O   H1  H2  O   H1  H2  O   H1  H2  O   H1  H2  O   H1  H2  O   H1  H2  
O   H1  H2  O   H1  H2  O   H1  H2  O   H1  H2  O   H1  H2  O   H1  H2  O   H1  
H2  O   H1  H2  O   H1  H2  O   H1  H2  O   H1  H2  O   H1  H2  O   H1  H2  O   
H1  H2  O   H1  H2  O   H1  H2  O   H1  H2  O   H1  H2  O   H1  H2  O   H1  H2  
O   H1  H2  O   H1  H2  O   H1  H2  O   H1  H2  O   H1  H2  O   H1  H2  O   H1  
H2  O   H1  H2  O   H1  H2  O   H1  H2  O   H1  H2  O   H1  H2  O   H1  H2  O   
H1  H2  O   H1  H2  O   H1  H2  O   H1  H2  O   H1  H2  O   H1  H2  O   H1  H2  
O   H1  H2  O   H1  H2  O   H1  H2  O   H1  H2  O   H1  H2  O   H1  H2  O   H1  
H2  O   H1  H2  O   H1  H2  O   H1  H2  O   H1  H2  O   H1  H2  O   H1  H2  O   
H1  H2  O   H1  H2  O   H1  H2  O   H1  H2  O   H1  H2  O   H1  H2  O   H1  H2  
O   H1  H2  O   H1  H2  O   H1  H2  O   H1  H2  O   H1  H2  O   H1  H2  O   H1  
H2  O   H1  H2  O   H1  H2  O   H1  H2  O   H1  H2  O   H1  H2  O   H1  H2  O   
H1  H2  O   H1  H2  O   H1  H2  O   H1  H2  O   H1  H2  O   H1  H2  O   H1  H2  
O   H1  H2  O   H1  H2  O   H1  H2  O   H1  H2  O   H1  H2  O   H1  H2  O   H1  
H2  O   H1  H2  O   H1  H2  O   H1  H2  O   H1  H2  O   H1  H2  O   H1  H2  O   
H1  H2  O   H1  H2  O   H1  H2  O   H1  H2  O   H1  H2  O   H1  H2  O   H1  H2  
O   H1  H2  O   H1  H2  O   H1  H2  O   H1  H2  O   H1  H2  O   H1  H2  O   H1  
H2  O   H1  H2  O   H1  H2  O   H1  H2  O   H1  H2  O   H1  H2  O   H1  H2  O   
H1  H2  O   H1  H2  O   H1  H2  O   H1  H2  O   H1  H2  O   H1  H2  O   H1  H2  
O   H1  H2  O   H1  H2  O   H1  H2  O   H1  H2  O   H1  H2  O   H1  H2  O   H1  
H2  O   H1  H2  O   H1  H2  O   H1  H2  O   H1  H2  O   H1  H2  O   H1  H2  O   
H1  H2  O   H1  H2  O   H1  H2  O   H1  H2  O   H1  H2  O   H1  H2  O   H1  H2  
O   H1  H2  O   H1  H2  O   H1  H2  O   H1  H2  O   H1  H2  O   H1  H2  O   H1  
H2  O   H1  H2  O   H1  H2  O   H1  H2  O   H1  H2  O   H1  H2  O   H1  H2  O   
H1  H2  O   H1  H2  O   H1  H2  O   H1  H2  O   H1  H2  O   H1  H2  O   H1  H2  
O   H1  H2  O   H1  H2  O   H1  H2  O   H1  H2  O   H1  H2  O   H1  H2  O   H1  
H2  O   H1  H2  O   H1  H2  O   H1  H2  O   H1  H2  O   H1  H2  O   H1  H2  O   
H1  H2  O   H1  H2  O   H1  H2  O   H1  H2  O   H1  H2  O   H1  H2  O   H1  H2  
O   H1  H2  O   H1  H2  O   H1  H2  O   H1  H2  O   H1  H2  O   H1  H2  O   H1  
H2  O   H1  H2  O   H1  H2  O   H1  H2  O   H1  H2  O   H1  H2  O   H1  H2  O   
H1  H2  O   H1  H2  O   H1  H2  O   H1  H2  O   H1  H2  O   H1  H2  O   H1  H2  
O   H1  H2  O   H1  H2  O   H1  H2  O   H1  H2  O   H1  H2  O   H1  H2  O   H1  
H2  O   H1  H2  O   H1  H2  O   H1  H2  O   H1  H2  O   H1  H2  O   H1  H2  O   
H1  H2  O   H1  H2  O   H1  H2  O   H1  H2  O   H1  H2  O   H1  H2  O   H1  H2  
O   H1  H2  O   H1  H2  O   H1  H2  O   H1  H2  O   H1  H2  O   H1  H2  O   H1  
H2  O   H1  H2  O   H1  H2  O   H1  H2  O   H1  H2  O   H1  H2  O   H1  H2  O   
H1  H2  O   H1  H2  O   H1  H2  O   H1  H2  O   H1  H2  O   H1  H2  O   H1  H2  
O   H1  H2  O   H1  H2  O   H1  H2  O   H1  H2  O   H1  H2  O   H1  H2  O   H1  
H2  O   H1  H2  O   H1  H2  O   H1  H2  O   H1  H2  O   H1  H2  O   H1  H2  O   
H1  H2  O   H1  H2  O   H1  H2  O   H1  H2  O   H1  H2  O   H1  H2  O   H1  H2  
O   H1  H2  O   H1  H2  O   H1  H2  O   H1  H2  O   H1  H2  O   H1  H2  O   H1  
H2  O   H1  H2  O   H1  H2  O   H1  H2  O   H1  H2  O   H1  H2  O   H1  H2  O   
H1  H2  O   H1  H2  O   H1  H2  O   H1  H2  O   H1  H2  O   H1  H2  O   H1  H2  
O   H1  H2  O   H1  H2  O   H1  H2  O   H1  H2  O   H1  H2  O   H1  H2  O   H1  
H2  O   H1  H2  O   H1  H2  O   H1  H2  O   H1  H2  O   H1  H2  O   H1  H2  O   
H1  H2  O   H1  H2  O   H1  H2  O   H1  H2  O   H1  H2  O   H1  H2  O   H1  H2  
O   H1  H2  O   H1  H2  O   H1  H2  O   H1  H2  O   H1  H2  O   H1  H2  O   H1  
H2  O   H1  H2  O   H1  H2  O   H1  H2  O   H1  H2  O   H1  H2  O   H1  H2  O   
H1  H2  O   H1  H2  O   H1  H2  O   H1  H2  O   H1  H2  O   H1  H2  O   H1  H2  
O   H1  H2  O   H1  H2  O   H1  H2  O   H1  H2  O   H1  H2  O   H1  H2  O   H1  
H2  O   H1  H2  O   H1  H2  O   H1  H2  O   H1  H2  O   H1  H2  O   H1  H2  O   
H1  H2  O   H1  H2  O   H1  H2  O   H1  H2  O   H1  H2  O   H1  H2  O   H1  H2  
O   H1  H2  O   H1  H2  O   H1  H2  O   H1  H2  O   H1  H2  O   H1  H2  O   H1  
H2  O   H1  H2  O   H1  H2  O   H1  H2  O   H1  H2  O   H1  H2  O   H1  H2  O   
H1  H2  O   H1  H2  O   H1  H2  O   H1  H2  O   H1  H2  O   H1  H2  O   H1  H2  
O   H1  H2  O   H1  H2  O   H1  H2  O   H1  H2  O   H1  H2  O   H1  H2  O   H1  
H2  O   H1  H2  O   H1  H2  O   H1  H2  O   H1  H2  O   H1  H2  O   H1  H2  O   
H1  H2  O   H1  H2  O   H1  H2  O   H1  H2  O   H1  H2  O   H1  H2  O   H1  H2  
O   H1  H2  O   H1  H2  O   H1  H2  O   H1  H2  O   H1  H2  O   H1  H2  O   H1  
H2  O   H1  H2  O   H1  H2  O   H1  H2  O   H1  H2  O   H1  H2  O   H1  H2  O   
H1  H2  O   H1  H2  O   H1  H2  O   H1  H2  O   H1  H2  O   H1  H2  O   H1  H2  
O   H1  H2  O   H1  H2  O   H1  H2  O   H1  H2  O   H1  H2  O   H1  H2  O   H1  
H2  O   H1  H2  O   H1  H2  O   H1  H2  O   H1  H2  O   H1  H2  O   H1  H2  O   
H1  H2  O   H1  H2  O   H1  H2  O   H1  H2  O   H1  H2  O   H1  H2  O   H1  H2  
O   H1  H2  O   H1  H2  O   H1  H2  O   H1  H2  O   H1  H2  O   H1  H2  O   H1  
H2  O   H1  H2  O   H1  H2  O   H1  H2  O   H1  H2  O   H1  H2  O   H1  H2  O   
H1  H2  O   H1  H2  O   H1  H2  O   H1  H2  O   H1  H2  O   H1  H2  O   H1  H2  
O   H1  H2  O   H1  H2  O   H1  H2  O   H1  H2  O   H1  H2  O   H1  H2  O   H1  
H2  O   H1  H2  O   H1  H2  O   H1  H2  O   H1  H2  O   H1  H2  O   H1  H2  O   
H1  H2  O   H1  H2  O   H1  H2  O   H1  H2  O   H1  H2  O   H1  H2  O   H1  H2  
O   H1  H2  O   H1  H2  O   H1  H2  O   H1  H2  O   H1  H2  O   H1  H2  O   H1  
H2  O   H1  H2  O   H1  H2  O   H1  H2  O   H1  H2  O   H1  H2  O   H1  H2  O   
H1  H2  O   H1  H2  O   H1  H2  O   H1  H2  O   H1  H2  O   H1  H2  O   H1  H2  
O   H1  H2  O   H1  H2  O   H1  H2  O   H1  H2  O   H1  H2  O   H1  H2  O   H1  
H2  O   H1  H2  O   H1  H2  O   H1  H2  O   H1  H2  O   H1  H2  O   H1  H2  O   
H1  H2  O   H1  H2  O   H1  H2  O   H1  H2  O   H1  H2  O   H1  H2  O   H1  H2  
O   H1  H2  O   H1  H2  O   H1  H2  O   H1  H2  O   H1  H2  O   H1  H2  O   H1  
H2  O   H1  H2  O   H1  H2  O   H1  H2  O   H1  H2  O   H1  H2  O   H1  H2  O   
H1  H2  O   H1  H2  O   H1  H2  O   H1  H2  O   H1  H2  O   H1  H2  O   H1  H2  
O   H1  H2  O   H1  H2  O   H1  H2  O   H1  H2  O   H1  H2  O   H1  H2  O   H1  
H2  O   H1  H2  O   H1  H2  O   H1  H2  O   H1  H2  O   H1  H2  O   H1  H2  O   
H1  H2  O   H1  H2  O   H1  H2  O   H1  H2  O   H1  H2  O   H1  H2  O   H1  H2  
O   H1  H2  O   H1  H2  O   H1  H2  O   H1  H2  O   H1  H2  O   H1  H2  O   H1  
H2  O   H1  H2  O   H1  H2  O   H1  H2  O   H1  H2  O   H1  H2  O   H1  H2  O   
H1  H2  O   H1  H2  O   H1  H2  O   H1  H2  O   H1  H2  O   H1  H2  O   H1  H2  
O   H1  H2  O   H1  H2  O   H1  H2  O   H1  H2  O   H1  H2  O   H1  H2  O   H1  
H2  O   H1  H2  O   H1  H2  O   H1  H2  O   H1  H2  O   H1  H2  O   H1  H2  O   
H1  H2  O   H1  H2  O   H1  H2  O   H1  H2  O   H1  H2  O   H1  H2  O   H1  H2  
O   H1  H2  O   H1  H2  O   H1  H2  O   H1  H2  O   H1  H2  O   H1  H2  O   H1  
H2  O   H1  H2  O   H1  H2  O   H1  H2  O   H1  H2  O   H1  H2  O   H1  H2  O   
H1  H2  O   H1  H2  O   H1  H2  O   H1  H2  O   H1  H2  O   H1  H2  O   H1  H2  
O   H1  H2  O   H1  H2  O   H1  H2  O   H1  H2  O   H1  H2  O   H1  H2  O   H1  
H2  O   H1  H2  O   H1  H2  O   H1  H2  O   H1  H2  O   H1  H2  O   H1  H2  O   
H1  H2  O   H1  H2  O   H1  H2  O   H1  H2  O   H1  H2  O   H1  H2  O   H1  H2  
O   H1  H2  O   H1  H2  O   H1  H2  O   H1  H2  O   H1  H2  O   H1  H2  O   H1  
H2  O   H1  H2  O   H1  H2  O   H1  H2  O   H1  H2  O   H1  H2  O   H1  H2  O   
H1  H2  O   H1  H2  O   H1  H2  O   H1  H2  O   H1  H2  O   H1  H2  O   H1  H2  
O   H1  H2  O   H1  H2  O   H1  H2  O   H1  H2  O   H1  H2  O   H1  H2  O   H1  
H2  O   H1  H2  O   H1  H2  O   H1  H2  O   H1  H2  O   H1  H2  O   H1  H2  O   
H1  H2  O   H1  H2  O   H1  H2  O   H1  H2  O   H1  H2  O   H1  H2  O   H1  H2  
O   H1  H2  O   H1  H2  O   H1  H2  O   H1  H2  O   H1  H2  O   H1  H2  O   H1  
H2  O   H1  H2  O   H1  H2  O   H1  H2  O   H1  H2  O   H1  H2  O   H1  H2  O   
H1  H2  O   H1  H2  O   H1  H2  O   H1  H2  O   H1  H2  O   H1  H2  O   H1  H2  
O   H1  H2  O   H1  H2  O   H1  H2  O   H1  H2  O   H1  H2  O   H1  H2  O   H1  
H2  O   H1  H2  O   H1  H2  O   H1  H2  O   H1  H2  O   H1  H2  O   H1  H2  O   
H1  H2  O   H1  H2  O   H1  H2  O   H1  H2  O   H1  H2  O   H1  H2  O   H1  H2  
O   H1  H2  O   H1  H2  O   H1  H2  O   H1  H2  O   H1  H2  O   H1  H2  O   H1  
H2  O   H1  H2  O   H1  H2  O   H1  H2  O   H1  H2  O   H1  H2  O   H1  H2  O   
H1  H2  O   H1  H2  O   H1  H2  O   H1  H2  O   H1  H2  O   H1  H2  O   H1  H2  
O   H1  H2  O   H1  H2  O   H1  H2  O   H1  H2  O   H1  H2  O   H1  H2  O   H1  
H2  O   H1  H2  O   H1  H2  O   H1  H2  O   H1  H2  O   H1  H2  O   H1  H2  O   
H1  H2  O   H1  H2  O   H1  H2  O   H1  H2  O   H1  H2  O   H1  H2  O   H1  H2  
O   H1  H2  O   H1  H2  O   H1  H2  O   H1  H2  O   H1  H2  O   H1  H2  O   H1  
H2  O   H1  H2  O   H1  H2  O   H1  H2  O   H1  H2  O   H1  H2  O   H1  H2  O   
H1  H2  O   H1  H2  O   H1  H2  O   H1  H2  O   H1  H2  O   H1  H2  O   H1  H2  
O   H1  H2  O   H1  H2  O   H1  H2  O   H1  H2  O   H1  H2  O   H1  H2  O   H1  
H2  O   H1  H2  O   H1  H2  O   H1  H2  O   H1  H2  O   H1  H2  O   H1  H2  O   
H1  H2  O   H1  H2  O   H1  H2  O   H1  H2  O   H1  H2  O   H1  H2  O   H1  H2  
O   H1  H2  O   H1  H2  O   H1  H2  O   H1  H2  O   H1  H2  O   H1  H2  O   H1  
H2  O   H1  H2  O   H1  H2  O   H1  H2  O   H1  H2  O   H1  H2  O   H1  H2  O   
H1  H2  O   H1  H2  O   H1  H2  O   H1  H2  O   H1  H2  O   H1  H2  O   H1  H2  
O   H1  H2  O   H1  H2  O   H1  H2  O   H1  H2  O   H1  H2  O   H1  H2  O   H1  
H2  O   H1  H2  O   H1  H2  O   H1  H2  O   H1  H2  O   H1  H2  O   H1  H2  O   
H1  H2  O   H1  H2  O   H1  H2  O   H1  H2  O   H1  H2  O   H1  H2  O   H1  H2  
O   H1  H2  O   H1  H2  O   H1  H2  O   H1  H2  O   H1  H2  O   H1  H2  O   H1  
H2  O   H1  H2  O   H1  H2  O   H1  H2  O   H1  H2  O   H1  H2  O   H1  H2  O   
H1  H2  O   H1  H2  O   H1  H2  O   H1  H2  O   H1  H2  O   H1  H2  O   H1  H2  
O   H1  H2  O   H1  H2  O   H1  H2  O   H1  H2  O   H1  H2  O   H1  H2  O   H1  
H2  O   H1  H2  O   H1  H2  O   H1  H2  O   H1  H2  O   H1  H2  O   H1  H2  O   
H1  H2  O   H1  H2  O   H1  H2  O   H1  H2  O   H1  H2  O   H1  H2  O   H1  H2  
O   H1  H2  O   H1  H2  O   H1  H2  O   H1  H2  O   H1  H2  O   H1  H2  O   H1  
H2  O   H1  H2  O   H1  H2  O   H1  H2  O   H1  H2  O   H1  H2  O   H1  H2  O   
H1  H2  O   H1  H2  O   H1  H2  O   H1  H2  O   H1  H2  O   H1  H2  O   H1  H2  
O   H1  H2  O   H1  H2  O   H1  H2  O   H1  H2  O   H1  H2  O   H1  H2  O   H1  
H2  O   H1  H2  O   H1  H2  O   H1  H2  O   H1  H2  O   H1  H2  O   H1  H2  O   
H1  H2  O   H1  H2  O   H1  H2  O   H1  H2  O   H1  H2  O   H1  H2  O   H1  H2  
O   H1  H2  O   H1  H2  O   H1  H2  O   H1  H2  O   H1  H2  O   H1  H2  O   H1  
H2  O   H1  H2  O   H1  H2  O   H1  H2  O   H1  H2  O   H1  H2  O   H1  H2  O   
H1  H2  O   H1  H2  O   H1  H2  O   H1  H2  O   H1  H2  O   H1  H2  O   H1  H2  
O   H1  H2  O   H1  H2  O   H1  H2  O   H1  H2  O   H1  H2  O   H1  H2  O   H1  
H2  O   H1  H2  O   H1  H2  O   H1  H2  O   H1  H2  O   H1  H2  O   H1  H2  O   
H1  H2  O   H1  H2  O   H1  H2  O   H1  H2  O   H1  H2  O   H1  H2  O   H1  H2  
O   H1  H2  O   H1  H2  O   H1  H2  O   H1  H2  O   H1  H2  O   H1  H2  O   H1  
H2  O   H1  H2  O   H1  H2  O   H1  H2  O   H1  H2  O   H1  H2  O   H1  H2  O   
H1  H2  O   H1  H2  O   H1  H2  O   H1  H2  O   H1  H2  O   H1  H2  O   H1  H2  
O   H1  H2  O   H1  H2  O   H1  H2  O   H1  H2  O   H1  H2  O   H1  H2  O   H1  
H2  O   H1  H2  O   H1  H2  O   H1  H2  O   H1  H2  O   H1  H2  O   H1  H2  O   
H1  H2  O   H1  H2  O   H1  H2  O   H1  H2  O   H1  H2  O   H1  H2  O   H1  H2  
O   H1  H2  O   H1  H2  O   H1  H2  O   H1  H2  O   H1  H2  O   H1  H2  O   H1  
H2  O   H1  H2  O   H1  H2  O   H1  H2  O   H1  H2  O   H1  H2  O   H1  H2  O   
H1  H2  O   H1  H2  O   H1  H2  O   H1  H2  O   H1  H2  O   H1  H2  O   H1  H2  
O   H1  H2  O   H1  H2  O   H1  H2  O   H1  H2  O   H1  H2  O   H1  H2  O   H1  
H2  O   H1  H2  O   H1  H2  O   H1  H2  O   H1  H2  O   H1  H2  O   H1  H2  O   
H1  H2  O   H1  H2  O   H1  H2  O   H1  H2  O   H1  H2  O   H1  H2  O   H1  H2  
O   H1  H2  O   H1  H2  O   H1  H2  O   H1  H2  O   H1  H2  O   H1  H2  O   H1  
H2  O   H1  H2  O   H1  H2  O   H1  H2  O   H1  H2  O   H1  H2  O   H1  H2  O   
H1  H2  O   H1  H2  O   H1  H2  O   H1  H2  O   H1  H2  O   H1  H2  O   H1  H2  
O   H1  H2  O   H1  H2  O   H1  H2  O   H1  H2  O   H1  H2  O   H1  H2  O   H1  
H2  O   H1  H2  O   H1  H2  O   H1  H2  O   H1  H2  O   H1  H2  O   H1  H2  O   
H1  H2  O   H1  H2  O   H1  H2  O   H1  H2  O   H1  H2  O   H1  H2  O   H1  H2  
O   H1  H2  O   H1  H2  O   H1  H2  O   H1  H2  O   H1  H2  O   H1  H2  O   H1  
H2  O   H1  H2  O   H1  H2  O   H1  H2  O   H1  H2  O   H1  H2  O   H1  H2  O   
H1  H2  O   H1  H2  O   H1  H2  O   H1  H2  O   H1  H2  O   H1  H2  O   H1  H2  
O   H1  H2  O   H1  H2  O   H1  H2  O   H1  H2  O   H1  H2  O   H1  H2  O   H1  
H2  O   H1  H2  O   H1  H2  O   H1  H2  O   H1  H2  O   H1  H2  O   H1  H2  O   
H1  H2  O   H1  H2  O   H1  H2  O   H1  H2  O   H1  H2  O   H1  H2  O   H1  H2  
O   H1  H2  O   H1  H2  O   H1  H2  O   H1  H2  O   H1  H2  O   H1  H2  O   H1  
H2  O   H1  H2  O   H1  H2  O   H1  H2  O   H1  H2  O   H1  H2  O   H1  H2  O   
H1  H2  O   H1  H2  O   H1  H2  O   H1  H2  O   H1  H2  O   H1  H2  O   H1  H2  
O   H1  H2  O   H1  H2  O   H1  H2  O   H1  H2  O   H1  H2  O   H1  H2  O   H1  
H2  O   H1  H2  O   H1  H2  O   H1  H2  O   H1  H2  O   H1  H2  O   H1  H2  O   
H1  H2  O   H1  H2  O   H1  H2  O   H1  H2  O   H1  H2  O   H1  H2  O   H1  H2  
O   H1  H2  O   H1  H2  O   H1  H2  O   H1  H2  O   H1  H2  O   H1  H2  O   H1  
H2  O   H1  H2  O   H1  H2  O   H1  H2  O   H1  H2  O   H1  H2  O   H1  H2  O   
H1  H2  O   H1  H2  O   H1  H2  O   H1  H2  O   H1  H2  O   H1  H2  O   H1  H2  
O   H1  H2  O   H1  H2  O   H1  H2  O   H1  H2  O   H1  H2  O   H1  H2  O   H1  
H2  O   H1  H2  O   H1  H2  O   H1  H2  O   H1  H2  O   H1  H2  O   H1  H2  O   
H1  H2  O   H1  H2  O   H1  H2  O   H1  H2  O   H1  H2  O   H1  H2  O   H1  H2  
O   H1  H2  O   H1  H2  O   H1  H2  O   H1  H2  O   H1  H2  O   H1  H2  O   H1  
H2  O   H1  H2  O   H1  H2  O   H1  H2  O   H1  H2  O   H1  H2  O   H1  H2  O   
H1  H2  O   H1  H2  O   H1  H2  O   H1  H2  O   H1  H2  O   H1  H2  O   H1  H2  
O   H1  H2  O   H1  H2  O   H1  H2  O   H1  H2  O   H1  H2  O   H1  H2  O   H1  
H2  O   H1  H2  O   H1  H2  O   H1  H2  O   H1  H2  O   H1  H2  O   H1  H2  O   
H1  H2  O   H1  H2  O   H1  H2  O   H1  H2  O   H1  H2  O   H1  H2  O   H1  H2  
O   H1  H2  O   H1  H2  O   H1  H2  O   H1  H2  O   H1  H2  O   H1  H2  O   H1  
H2  O   H1  H2  O   H1  H2  O   H1  H2  O   H1  H2  O   H1  H2  O   H1  H2  O   
H1  H2  O   H1  H2  O   H1  H2  O   H1  H2  O   H1  H2  O   H1  H2  O   H1  H2  
O   H1  H2  O   H1  H2  O   H1  H2  O   H1  H2  O   H1  H2  O   H1  H2  O   H1  
H2  O   H1  H2  O   H1  H2  O   H1  H2  O   H1  H2  O   H1  H2  O   H1  H2  O   
H1  H2  O   H1  H2  O   H1  H2  O   H1  H2  O   H1  H2  O   H1  H2  O   H1  H2  
O   H1  H2  O   H1  H2  O   H1  H2  O   H1  H2  O   H1  H2  O   H1  H2  O   H1  
H2  O   H1  H2  O   H1  H2  O   H1  H2  O   H1  H2  O   H1  H2  O   H1  H2  O   
H1  H2  O   H1  H2  O   H1  H2  O   H1  H2  O   H1  H2  O   H1  H2  O   H1  H2  
O   H1  H2  O   H1  H2  O   H1  H2  O   H1  H2  O   H1  H2  O   H1  H2  O   H1  
H2  O   H1  H2  O   H1  H2  O   H1  H2  O   H1  H2  O   H1  H2  O   H1  H2  O   
H1  H2  O   H1  H2  O   H1  H2  O   H1  H2  O   H1  H2  O   H1  H2  O   H1  H2  
O   H1  H2  O   H1  H2  O   H1  H2  O   H1  H2  O   H1  H2  O   H1  H2  O   H1  
H2  O   H1  H2  O   H1  H2  O   H1  H2  O   H1  H2  O   H1  H2  O   H1  H2  O   
H1  H2  O   H1  H2  O   H1  H2  O   H1  H2  O   H1  H2  O   H1  H2  O   H1  H2  
O   H1  H2  O   H1  H2  O   H1  H2  O   H1  H2  O   H1  H2  O   H1  H2  O   H1  
H2  O   H1  H2  O   H1  H2  O   H1  H2  O   H1  H2  O   H1  H2  O   H1  H2  O   
H1  H2  O   H1  H2  O   H1  H2  O   H1  H2  O   H1  H2  O   H1  H2  O   H1  H2  
O   H1  H2  O   H1  H2  O   H1  H2  O   H1  H2  O   H1  H2  O   H1  H2  O   H1  
H2  O   H1  H2  O   H1  H2  O   H1  H2  O   H1  H2  O   H1  H2  O   H1  H2  O   
H1  H2  O   H1  H2  O   H1  H2  O   H1  H2  O   H1  H2  O   H1  H2  O   H1  H2  
O   H1  H2  O   H1  H2  O   H1  H2  O   H1  H2  O   H1  H2  O   H1  H2  O   H1  
H2  O   H1  H2  O   H1  H2  O   H1  H2  O   H1  H2  O   H1  H2  O   H1  H2  O   
H1  H2  O   H1  H2  O   H1  H2  O   H1  H2  O   H1  H2  O   H1  H2  O   H1  H2  
O   H1  H2  O   H1  H2  O   H1  H2  O   H1  H2  O   H1  H2  O   H1  H2  O   H1  
H2  O   H1  H2  O   H1  H2  O   H1  H2  O   H1  H2  O   H1  H2  O   H1  H2  O   
H1  H2  O   H1  H2  O   H1  H2  O   H1  H2  O   H1  H2  O   H1  H2  O   H1  H2  
O   H1  H2  O   H1  H2  O   H1  H2  O   H1  H2  O   H1  H2  O   H1  H2  O   H1  
H2  O   H1  H2  O   H1  H2  O   H1  H2  O   H1  H2  O   H1  H2  O   H1  H2  O   
H1  H2  O   H1  H2  O   H1  H2  O   H1  H2  O   H1  H2  O   H1  H2  O   H1  H2  
O   H1  H2  O   H1  H2  O   H1  H2  O   H1  H2  O   H1  H2  O   H1  H2  O   H1  
H2  O   H1  H2  O   H1  H2  O   H1  H2  O   H1  H2  O   H1  H2  O   H1  H2  O   
H1  H2  O   H1  H2  O   H1  H2  O   H1  H2  O   H1  H2  O   H1  H2  O   H1  H2  
O   H1  H2  O   H1  H2  O   H1  H2  O   H1  H2  O   H1  H2  O   H1  H2  O   H1  
H2  O   H1  H2  O   H1  H2  O   H1  H2  O   H1  H2  O   H1  H2  O   H1  H2  O   
H1  H2  O   H1  H2  O   H1  H2  O   H1  H2  O   H1  H2  O   H1  H2  O   H1  H2  
O   H1  H2  O   H1  H2  O   H1  H2  O   H1  H2  O   H1  H2  O   H1  H2  O   H1  
H2  O   H1  H2  O   H1  H2  O   H1  H2  O   H1  H2  O   H1  H2  O   H1  H2  O   
H1  H2  O   H1  H2  O   H1  H2  O   H1  H2  O   H1  H2  O   H1  H2  O   H1  H2  
O   H1  H2  O   H1  H2  O   H1  H2  O   H1  H2  O   H1  H2  O   H1  H2  O   H1  
H2  O   H1  H2  O   H1  H2  O   H1  H2  O   H1  H2  O   H1  H2  O   H1  H2  O   
H1  H2  O   H1  H2  O   H1  H2  O   H1  H2  O   H1  H2  O   H1  H2  O   H1  H2  
O   H1  H2  O   H1  H2  O   H1  H2  O   H1  H2  O   H1  H2  O   H1  H2  O   H1  
H2  O   H1  H2  O   H1  H2  O   H1  H2  O   H1  H2  O   H1  H2  O   H1  H2  O   
H1  H2  O   H1  H2  O   H1  H2  O   H1  H2  O   H1  H2  O   H1  H2  O   H1  H2  
O   H1  H2  O   H1  H2  O   H1  H2  O   H1  H2  O   H1  H2  O   H1  H2  O   H1  
H2  O   H1  H2  O   H1  H2  O   H1  H2  O   H1  H2  O   H1  H2  O   H1  H2  O   
H1  H2  O   H1  H2  O   H1  H2  O   H1  H2  O   H1  H2  O   H1  H2  O   H1  H2  
O   H1  H2  O   H1  H2  O   H1  H2  O   H1  H2  O   H1  H2  O   H1  H2  O   H1  
H2  O   H1  H2  O   H1  H2  O   H1  H2  O   H1  H2  O   H1  H2  O   H1  H2  O   
H1  H2  O   H1  H2  O   H1  H2  O   H1  H2  O   H1  H2  O   H1  H2  O   H1  H2  
O   H1  H2  O   H1  H2  O   H1  H2  O   H1  H2  O   H1  H2  O   H1  H2  O   H1  
H2  O   H1  H2  O   H1  H2  O   H1  H2  O   H1  H2  O   H1  H2  O   H1  H2  O   
H1  H2  O   H1  H2  O   H1  H2  O   H1  H2  O   H1  H2  O   H1  H2  O   H1  H2  
O   H1  H2  O   H1  H2  O   H1  H2  O   H1  H2  O   H1  H2  O   H1  H2  O   H1  
H2  O   H1  H2  O   H1  H2  O   H1  H2  O   H1  H2  O   H1  H2  O   H1  H2  O   
H1  H2  O   H1  H2  O   H1  H2  O   H1  H2  O   H1  H2  O   H1  H2  O   H1  H2  
O   H1  H2  O   H1  H2  O   H1  H2  O   H1  H2  O   H1  H2  O   H1  H2  O   H1  
H2  O   H1  H2  O   H1  H2  O   H1  H2  O   H1  H2  O   H1  H2  O   H1  H2  O   
H1  H2  O   H1  H2  O   H1  H2  O   H1  H2  O   H1  H2  O   H1  H2  O   H1  H2  
O   H1  H2  O   H1  H2  O   H1  H2  O   H1  H2  O   H1  H2  O   H1  H2  O   H1  
H2  O   H1  H2  O   H1  H2  O   H1  H2  O   H1  H2  O   H1  H2  O   H1  H2  O   
H1  H2  O   H1  H2  O   H1  H2  O   H1  H2  O   H1  H2  O   H1  H2  O   H1  H2  
O   H1  H2  O   H1  H2  O   H1  H2  O   H1  H2  O   H1  H2  O   H1  H2  O   H1  
H2  O   H1  H2  O   H1  H2  O   H1  H2  O   H1  H2  O   H1  H2  O   H1  H2  O   
H1  H2  O   H1  H2  O   H1  H2  O   H1  H2  O   H1  H2  O   H1  H2  O   H1  H2  
O   H1  H2  O   H1  H2  O   H1  H2  O   H1  H2  O   H1  H2  O   H1  H2  O   H1  
H2  O   H1  H2  O   H1  H2  O   H1  H2  O   H1  H2  O   H1  H2  O   H1  H2  O   
H1  H2  O   H1  H2  O   H1  H2  O   H1  H2  O   H1  H2  O   H1  H2  O   H1  H2  
O   H1  H2  O   H1  H2  O   H1  H2  O   H1  H2  O   H1  H2  O   H1  H2  O   H1  
H2  O   H1  H2  O   H1  H2  O   H1  H2  O   H1  H2  O   H1  H2  O   H1  H2  O   
H1  H2  O   H1  H2  O   H1  H2  O   H1  H2  O   H1  H2  O   H1  H2  O   H1  H2  
O   H1  H2  O   H1  H2  O   H1  H2  O   H1  H2  O   H1  H2  O   H1  H2  O   H1  
H2  O   H1  H2  O   H1  H2  O   H1  H2  O   H1  H2  O   H1  H2  O   H1  H2  O   
H1  H2  O   H1  H2  O   H1  H2  O   H1  H2  O   H1  H2  O   H1  H2  O   H1  H2  
O   H1  H2  O   H1  H2  O   H1  H2  O   H1  H2  O   H1  H2  O   H1  H2  O   H1  
H2  O   H1  H2  O   H1  H2  O   H1  H2  O   H1  H2  O   H1  H2  O   H1  H2  O   
H1  H2  O   H1  H2  O   H1  H2  O   H1  H2  O   H1  H2  O   H1  H2  O   H1  H2  
O   H1  H2  O   H1  H2  O   H1  H2  O   H1  H2  O   H1  H2  O   H1  H2  O   H1  
H2  O   H1  H2  O   H1  H2  O   H1  H2  O   H1  H2  O   H1  H2  O   H1  H2  O   
H1  H2  O   H1  H2  O   H1  H2  O   H1  H2  O   H1  H2  O   H1  H2  O   H1  H2  
O   H1  H2  O   H1  H2  O   H1  H2  O   H1  H2  O   H1  H2  O   H1  H2  O   H1  
H2  O   H1  H2  O   H1  H2  O   H1  H2  O   H1  H2  O   H1  H2  O   H1  H2  O   
H1  H2  O   H1  H2  O   H1  H2  O   H1  H2  O   H1  H2  O   H1  H2  O   H1  H2  
O   H1  H2  O   H1  H2  O   H1  H2  O   H1  H2  O   H1  H2  O   H1  H2  O   H1  
H2  O   H1  H2  O   H1  H2  O   H1  H2  O   H1  H2  O   H1  H2  O   H1  H2  O   
H1  H2  O   H1  H2  O   H1  H2  O   H1  H2  O   H1  H2  O   H1  H2  O   H1  H2  
O   H1  H2  O   H1  H2  O   H1  H2  O   H1  H2  O   H1  H2  O   H1  H2  O   H1  
H2  O   H1  H2  O   H1  H2  O   H1  H2  O   H1  H2  O   H1  H2  O   H1  H2  O   
H1  H2  O   H1  H2  O   H1  H2  O   H1  H2  O   H1  H2  O   H1  H2  O   H1  H2  
O   H1  H2  O   H1  H2  O   H1  H2  O   H1  H2  O   H1  H2  O   H1  H2  O   H1  
H2  O   H1  H2  O   H1  H2  O   H1  H2  O   H1  H2  O   H1  H2  O   H1  H2  O   
H1  H2  O   H1  H2  O   H1  H2  O   H1  H2  O   H1  H2  O   H1  H2  O   H1  H2  
O   H1  H2  O   H1  H2  O   H1  H2  O   H1  H2  O   H1  H2  O   H1  H2  O   H1  
H2  O   H1  H2  O   H1  H2  O   H1  H2  O   H1  H2  O   H1  H2  O   H1  H2  O   
H1  H2  O   H1  H2  O   H1  H2  O   H1  H2  O   H1  H2  O   H1  H2  O   H1  H2  
O   H1  H2  O   H1  H2  O   H1  H2  O   H1  H2  O   H1  H2  O   H1  H2  O   H1  
H2  O   H1  H2  O   H1  H2  O   H1  H2  O   H1  H2  O   H1  H2  O   H1  H2  O   
H1  H2  O   H1  H2  O   H1  H2  O   H1  H2  O   H1  H2  O   H1  H2  O   H1  H2  
O   H1  H2  O   H1  H2  O   H1  H2  O   H1  H2  O   H1  H2  O   H1  H2  O   H1  
H2  O   H1  H2  O   H1  H2  O   H1  H2  O   H1  H2  O   H1  H2  O   H1  H2  O   
H1  H2  O   H1  H2  O   H1  H2  O   H1  H2  O   H1  H2  O   H1  H2  O   H1  H2  
O   H1  H2  O   H1  H2  O   H1  H2  O   H1  H2  O   H1  H2  O   H1  H2  O   H1  
H2  O   H1  H2  O   H1  H2  O   H1  H2  O   H1  H2  O   H1  H2  O   H1  H2  O   
H1  H2  O   H1  H2  O   H1  H2  O   H1  H2  O   H1  H2  O   H1  H2  O   H1  H2  
O   H1  H2  O   H1  H2  O   H1  H2  O   H1  H2  O   H1  H2  O   H1  H2  O   H1  
H2  O   H1  H2  O   H1  H2  O   H1  H2  O   H1  H2  O   H1  H2  O   H1  H2  O   
H1  H2  O   H1  H2  O   H1  H2  O   H1  H2  O   H1  H2  O   H1  H2  O   H1  H2  
O   H1  H2  O   H1  H2  O   H1  H2  O   H1  H2  O   H1  H2  O   H1  H2  O   H1  
H2  O   H1  H2  O   H1  H2  O   H1  H2  O   H1  H2  O   H1  H2  O   H1  H2  O   
H1  H2  O   H1  H2  O   H1  H2  O   H1  H2  O   H1  H2  O   H1  H2  O   H1  H2  
O   H1  H2  O   H1  H2  O   H1  H2  O   H1  H2  O   H1  H2  O   H1  H2  O   H1  
H2  O   H1  H2  O   H1  H2  O   H1  H2  O   H1  H2  O   H1  H2  O   H1  H2  O   
H1  H2  O   H1  H2  O   H1  H2  O   H1  H2  O   H1  H2  O   H1  H2  O   H1  H2  
O   H1  H2  O   H1  H2  O   H1  H2  O   H1  H2  O   H1  H2  O   H1  H2  O   H1  
H2  O   H1  H2  O   H1  H2  O   H1  H2  O   H1  H2  O   H1  H2  O   H1  H2  O   
H1  H2  O   H1  H2  O   H1  H2  O   H1  H2  O   H1  H2  O   H1  H2  O   H1  H2  
O   H1  H2  O   H1  H2  O   H1  H2  O   H1  H2  O   H1  H2  O   H1  H2  O   H1  
H2  O   H1  H2  O   H1  H2  O   H1  H2  O   H1  H2  O   H1  H2  O   H1  H2  O   
H1  H2  O   H1  H2  O   H1  H2  O   H1  H2  O   H1  H2  O   H1  H2  O   H1  H2  
O   H1  H2  O   H1  H2  O   H1  H2  O   H1  H2  O   H1  H2  O   H1  H2  O   H1  
H2  O   H1  H2  O   H1  H2  O   H1  H2  O   H1  H2  O   H1  H2  O   H1  H2  O   
H1  H2  O   H1  H2  O   H1  H2  O   H1  H2  O   H1  H2  O   H1  H2  O   H1  H2  
O   H1  H2  O   H1  H2  O   H1  H2  O   H1  H2  O   H1  H2  O   H1  H2  O   H1  
H2  O   H1  H2  O   H1  H2  O   H1  H2  O   H1  H2  O   H1  H2  O   H1  H2  O   
H1  H2  O   H1  H2  O   H1  H2  O   H1  H2  O   H1  H2  O   H1  H2  O   H1  H2  
O   H1  H2  O   H1  H2  O   H1  H2  O   H1  H2  O   H1  H2  O   H1  H2  O   H1  
H2  O   H1  H2  O   H1  H2  O   H1  H2  O   H1  H2  O   H1  H2  O   H1  H2  O   
H1  H2  O   H1  H2  O   H1  H2  O   H1  H2  O   H1  H2  O   H1  H2  O   H1  H2  
O   H1  H2  O   H1  H2  O   H1  H2  O   H1  H2  O   H1  H2  O   H1  H2  O   H1  
H2  O   H1  H2  O   H1  H2  O   H1  H2  O   H1  H2  O   H1  H2  O   H1  H2  O   
H1  H2  O   H1  H2  O   H1  H2  O   H1  H2  O   H1  H2  O   H1  H2  O   H1  H2  
O   H1  H2  O   H1  H2  O   H1  H2  O   H1  H2  O   H1  H2  O   H1  H2  O   H1  
H2  O   H1  H2  O   H1  H2  O   H1  H2  O   H1  H2  O   H1  H2  O   H1  H2  O   
H1  H2  O   H1  H2  O   H1  H2  O   H1  H2  O   H1  H2  O   H1  H2  O   H1  H2  
O   H1  H2  O   H1  H2  O   H1  H2  O   H1  H2  O   H1  H2  O   H1  H2  O   H1  
H2  O   H1  H2  O   H1  H2  O   H1  H2  O   H1  H2  O   H1  H2  O   H1  H2  O   
H1  H2  O   H1  H2  O   H1  H2  O   H1  H2  O   H1  H2  O   H1  H2  O   H1  H2  
O   H1  H2  O   H1  H2  O   H1  H2  O   H1  H2  O   H1  H2  O   H1  H2  O   H1  
H2  O   H1  H2  O   H1  H2  O   H1  H2  O   H1  H2  O   H1  H2  O   H1  H2  O   
H1  H2  O   H1  H2  O   H1  H2  O   H1  H2  O   H1  H2  O   H1  H2  O   H1  H2  
O   H1  H2  O   H1  H2  O   H1  H2  O   H1  H2  O   H1  H2  O   H1  H2  O   H1  
H2  O   H1  H2  O   H1  H2  O   H1  H2  O   H1  H2  O   H1  H2  O   H1  H2  O   
H1  H2  O   H1  H2  O   H1  H2  O   H1  H2  O   H1  H2  O   H1  H2  O   H1  H2  
O   H1  H2  O   H1  H2  O   H1  H2  O   H1  H2  O   H1  H2  O   H1  H2  O   H1  
H2  O   H1  H2  O   H1  H2  O   H1  H2  O   H1  H2  O   H1  H2  O   H1  H2  O   
H1  H2  O   H1  H2  O   H1  H2  O   H1  H2  O   H1  H2  O   H1  H2  O   H1  H2  
O   H1  H2  O   H1  H2  O   H1  H2  O   H1  H2  O   H1  H2  O   H1  H2  O   H1  
H2  O   H1  H2  O   H1  H2  O   H1  H2  O   H1  H2  O   H1  H2  O   H1  H2  O   
H1  H2  O   H1  H2  O   H1  H2  O   H1  H2  O   H1  H2  O   H1  H2  O   H1  H2  
O   H1  H2  O   H1  H2  O   H1  H2  O   H1  H2  O   H1  H2  O   H1  H2  O   H1  
H2  O   H1  H2  O   H1  H2  O   H1  H2  O   H1  H2  O   H1  H2  O   H1  H2  O   
H1  H2  O   H1  H2  O   H1  H2  O   H1  H2  O   H1  H2  O   H1  H2  O   H1  H2  
O   H1  H2  O   H1  H2  O   H1  H2  O   H1  H2  O   H1  H2  O   H1  H2  O   H1  
H2  O   H1  H2  O   H1  H2  O   H1  H2  O   H1  H2  O   H1  H2  O   H1  H2  O   
H1  H2  O   H1  H2  O   H1  H2  O   H1  H2  O   H1  H2  O   H1  H2  O   H1  H2  
O   H1  H2  O   H1  H2  O   H1  H2  O   H1  H2  O   H1  H2  O   H1  H2  O   H1  
H2  O   H1  H2  O   H1  H2  O   H1  H2  O   H1  H2  O   H1  H2  O   H1  H2  O   
H1  H2  O   H1  H2  O   H1  H2  O   H1  H2  O   H1  H2  O   H1  H2  O   H1  H2  
O   H1  H2  O   H1  H2  O   H1  H2  O   H1  H2  O   H1  H2  O   H1  H2  O   H1  
H2  O   H1  H2  O   H1  H2  O   H1  H2  O   H1  H2  O   H1  H2  O   H1  H2  O   
H1  H2  O   H1  H2  O   H1  H2  O   H1  H2  O   H1  H2  O   H1  H2  O   H1  H2  
O   H1  H2  O   H1  H2  O   H1  H2  O   H1  H2  O   H1  H2  O   H1  H2  O   H1  
H2  O   H1  H2  O   H1  H2  O   H1  H2  O   H1  H2  O   H1  H2  O   H1  H2  O   
H1  H2  O   H1  H2  O   H1  H2  O   H1  H2  O   H1  H2  O   H1  H2  O   H1  H2  
O   H1  H2  O   H1  H2  O   H1  H2  O   H1  H2  O   H1  H2  O   H1  H2  O   H1  
H2  O   H1  H2  O   H1  H2  O   H1  H2  O   H1  H2  O   H1  H2  O   H1  H2  O   
H1  H2  O   H1  H2  O   H1  H2  O   H1  H2  O   H1  H2  O   H1  H2  O   H1  H2  
O   H1  H2  O   H1  H2  O   H1  H2  O   H1  H2  O   H1  H2  O   H1  H2  O   H1  
H2  O   H1  H2  O   H1  H2  O   H1  H2  O   H1  H2  O   H1  H2  O   H1  H2  O   
H1  H2  O   H1  H2  O   H1  H2  O   H1  H2  O   H1  H2  O   H1  H2  O   H1  H2  
O   H1  H2  O   H1  H2  O   H1  H2  O   H1  H2  O   H1  H2  O   H1  H2  O   H1  
H2  O   H1  H2  O   H1  H2  O   H1  H2  O   H1  H2  O   H1  H2  O   H1  H2  O   
H1  H2  O   H1  H2  O   H1  H2  O   H1  H2  O   H1  H2  O   H1  H2  O   H1  H2  
O   H1  H2  O   H1  H2  O   H1  H2  O   H1  H2  O   H1  H2  O   H1  H2  O   H1  
H2  O   H1  H2  O   H1  H2  O   H1  H2  O   H1  H2  O   H1  H2  O   H1  H2  O   
H1  H2  O   H1  H2  O   H1  H2  O   H1  H2  O   H1  H2  O   H1  H2  O   H1  H2  
O   H1  H2  O   H1  H2  O   H1  H2  O   H1  H2  O   H1  H2  O   H1  H2  O   H1  
H2  O   H1  H2  O   H1  H2  O   H1  H2  O   H1  H2  O   H1  H2  O   H1  H2  O   
H1  H2  O   H1  H2  O   H1  H2  O   H1  H2  O   H1  H2  O   H1  H2  O   H1  H2  
O   H1  H2  O   H1  H2  O   H1  H2  O   H1  H2  O   H1  H2  O   H1  H2  O   H1  
H2  O   H1  H2  O   H1  H2  O   H1  H2  O   H1  H2  O   H1  H2  O   H1  H2  O   
H1  H2  O   H1  H2  O   H1  H2  O   H1  H2  O   H1  H2  O   H1  H2  O   H1  H2  
O   H1  H2  O   H1  H2  O   H1  H2  O   H1  H2  O   H1  H2  O   H1  H2  O   H1  
H2  O   H1  H2  O   H1  H2  O   H1  H2  O   H1  H2  O   H1  H2  O   H1  H2  O   
H1  H2  O   H1  H2  O   H1  H2  O   H1  H2  O   H1  H2  O   H1  H2  O   H1  H2  
O   H1  H2  O   H1  H2  O   H1  H2  O   H1  H2  O   H1  H2  O   H1  H2  O   H1  
H2  O   H1  H2  O   H1  H2  O   H1  H2  O   H1  H2  O   H1  H2  O   H1  H2  O   
H1  H2  O   H1  H2  O   H1  H2  O   H1  H2  O   H1  H2  O   H1  H2  O   H1  H2  
O   H1  H2  O   H1  H2  O   H1  H2  O   H1  H2  O   H1  H2  O   H1  H2  O   H1  
H2  O   H1  H2  O   H1  H2  O   H1  H2  O   H1  H2  O   H1  H2  O   H1  H2  O   
H1  H2  O   H1  H2  O   H1  H2  O   H1  H2  O   H1  H2  O   H1  H2  O   H1  H2  
O   H1  H2  O   H1  H2  O   H1  H2  O   H1  H2  O   H1  H2  O   H1  H2  O   H1  
H2  O   H1  H2  O   H1  H2  O   H1  H2  O   H1  H2  O   H1  H2  O   H1  H2  O   
H1  H2  O   H1  H2  O   H1  H2  O   H1  H2  O   H1  H2  O   H1  H2  O   H1  H2  
O   H1  H2  O   H1  H2  O   H1  H2  O   H1  H2  O   H1  H2  O   H1  H2  O   H1  
H2  O   H1  H2  O   H1  H2  O   H1  H2  O   H1  H2  O   H1  H2  O   H1  H2  O   
H1  H2  O   H1  H2  O   H1  H2  O   H1  H2  O   H1  H2  O   H1  H2  O   H1  H2  
O   H1  H2  O   H1  H2  O   H1  H2  O   H1  H2  O   H1  H2  O   H1  H2  O   H1  
H2  O   H1  H2  O   H1  H2  O   H1  H2  O   H1  H2  O   H1  H2  O   H1  H2  O   
H1  H2  O   H1  H2  O   H1  H2  O   H1  H2  O   H1  H2  O   H1  H2  O   H1  H2  
O   H1  H2  O   H1  H2  O   H1  H2  O   H1  H2  O   H1  H2  O   H1  H2  O   H1  
H2  O   H1  H2  O   H1  H2  O   H1  H2  O   H1  H2  O   H1  H2  O   H1  H2  O   
H1  H2  O   H1  H2  O   H1  H2  O   H1  H2  O   H1  H2  O   H1  H2  O   H1  H2  
O   H1  H2  O   H1  H2  O   H1  H2  O   H1  H2  O   H1  H2  O   H1  H2  O   H1  
H2  O   H1  H2  O   H1  H2  O   H1  H2  O   H1  H2  O   H1  H2  O   H1  H2  O   
H1  H2  O   H1  H2  O   H1  H2  O   H1  H2  O   H1  H2  O   H1  H2  O   H1  H2  
O   H1  H2  O   H1  H2  O   H1  H2  O   H1  H2  O   H1  H2  O   H1  H2  O   H1  
H2  O   H1  H2  O   H1  H2  O   H1  H2  O   H1  H2  O   H1  H2  O   H1  H2  O   
H1  H2  O   H1  H2  O   H1  H2  O   H1  H2  O   H1  H2  O   H1  H2  O   H1  H2  
O   H1  H2  O   H1  H2  O   H1  H2  O   H1  H2  O   H1  H2  O   H1  H2  O   H1  
H2  O   H1  H2  O   H1  H2  O   H1  H2  O   H1  H2  O   H1  H2  O   H1  H2  O   
H1  H2  O   H1  H2  O   H1  H2  O   H1  H2  O   H1  H2  O   H1  H2  O   H1  H2  
O   H1  H2  O   H1  H2  O   H1  H2  O   H1  H2  O   H1  H2  O   H1  H2  O   H1  
H2  O   H1  H2  O   H1  H2  O   H1  H2  O   H1  H2  O   H1  H2  O   H1  H2  O   
H1  H2  O   H1  H2  O   H1  H2  O   H1  H2  O   H1  H2  O   H1  H2  O   H1  H2  
O   H1  H2  O   H1  H2  O   H1  H2  O   H1  H2  O   H1  H2  O   H1  H2  O   H1  
H2  O   H1  H2  O   H1  H2  O   H1  H2  O   H1  H2  O   H1  H2  O   H1  H2  O   
H1  H2  O   H1  H2  O   H1  H2  O   H1  H2  O   H1  H2  O   H1  H2  O   H1  H2  
O   H1  H2  O   H1  H2  O   H1  H2  O   H1  H2  O   H1  H2  O   H1  H2  O   H1  
H2  O   H1  H2  O   H1  H2  O   H1  H2  O   H1  H2  O   H1  H2  O   H1  H2  O   
H1  H2  O   H1  H2  O   H1  H2  O   H1  H2  O   H1  H2  O   H1  H2  O   H1  H2  
O   H1  H2  O   H1  H2  O   H1  H2  O   H1  H2  O   H1  H2  O   H1  H2  O   H1  
H2  O   H1  H2  O   H1  H2  O   H1  H2  O   H1  H2  O   H1  H2  O   H1  H2  O   
H1  H2  O   H1  H2  O   H1  H2  O   H1  H2  O   H1  H2  O   H1  H2  O   H1  H2  
O   H1  H2  O   H1  H2  O   H1  H2  O   H1  H2  O   H1  H2  O   H1  H2  O   H1  
H2  O   H1  H2  O   H1  H2  O   H1  H2  O   H1  H2  O   H1  H2  O   H1  H2  O   
H1  H2  O   H1  H2  O   H1  H2  O   H1  H2  O   H1  H2  O   H1  H2  O   H1  H2  
O   H1  H2  O   H1  H2  O   H1  H2  O   H1  H2  O   H1  H2  O   H1  H2  O   H1  
H2  O   H1  H2  O   H1  H2  O   H1  H2  O   H1  H2  O   H1  H2  O   H1  H2  O   
H1  H2  O   H1  H2  O   H1  H2  O   H1  H2  O   H1  H2  O   H1  H2  O   H1  H2  
O   H1  H2  O   H1  H2  O   H1  H2  O   H1  H2  O   H1  H2  O   H1  H2  O   H1  
H2  O   H1  H2  O   H1  H2  O   H1  H2  O   H1  H2  O   H1  H2  O   H1  H2  O   
H1  H2  O   H1  H2  O   H1  H2  O   H1  H2  O   H1  H2  O   H1  H2  O   H1  H2  
O   H1  H2  O   H1  H2  O   H1  H2  O   H1  H2  O   H1  H2  O   H1  H2  O   H1  
H2  O   H1  H2  O   H1  H2  O   H1  H2  O   H1  H2  O   H1  H2  O   H1  H2  O   
H1  H2  O   H1  H2  O   H1  H2  O   H1  H2  O   H1  H2  O   H1  H2  O   H1  H2  
O   H1  H2  O   H1  H2  O   H1  H2  O   H1  H2  O   H1  H2  O   H1  H2  O   H1  
H2  O   H1  H2  O   H1  H2  O   H1  H2  O   H1  H2  O   H1  H2  O   H1  H2  O   
H1  H2  O   H1  H2  O   H1  H2  O   H1  H2  O   H1  H2  O   H1  H2  O   H1  H2  
O   H1  H2  O   H1  H2  O   H1  H2  O   H1  H2  O   H1  H2  O   H1  H2  O   H1  
H2  O   H1  H2  O   H1  H2  O   H1  H2  O   H1  H2  O   H1  H2  O   H1  H2  O   
H1  H2  O   H1  H2  O   H1  H2  O   H1  H2  O   H1  H2  O   H1  H2  O   H1  H2  
O   H1  H2  O   H1  H2  O   H1  H2  O   H1  H2  O   H1  H2  O   H1  H2  O   H1  
H2  O   H1  H2  O   H1  H2  O   H1  H2  O   H1  H2  O   H1  H2  O   H1  H2  O   
H1  H2  O   H1  H2  O   H1  H2  O   H1  H2  O   H1  H2  O   H1  H2  O   H1  H2  
O   H1  H2  O   H1  H2  O   H1  H2  O   H1  H2  O   H1  H2  O   H1  H2  O   H1  
H2  O   H1  H2  O   H1  H2  O   H1  H2  O   H1  H2  O   H1  H2  O   H1  H2  O   
H1  H2  O   H1  H2  O   H1  H2  O   H1  H2  O   H1  H2  O   H1  H2  O   H1  H2  
O   H1  H2  O   H1  H2  O   H1  H2  O   H1  H2  O   H1  H2  O   H1  H2  O   H1  
H2  O   H1  H2  O   H1  H2  O   H1  H2  O   H1  H2  O   H1  H2  O   H1  H2  O   
H1  H2  O   H1  H2  O   H1  H2  O   H1  H2  O   H1  H2  O   H1  H2  O   H1  H2  
O   H1  H2  O   H1  H2  O   H1  H2  O   H1  H2  O   H1  H2  O   H1  H2  O   H1  
H2  O   H1  H2  O   H1  H2  O   H1  H2  O   H1  H2  O   H1  H2  O   H1  H2  O   
H1  H2  O   H1  H2  O   H1  H2  O   H1  H2  O   H1  H2  O   H1  H2  O   H1  H2  
O   H1  H2  O   H1  H2  O   H1  H2  O   H1  H2  O   H1  H2  O   H1  H2  O   H1  
H2  O   H1  H2  O   H1  H2  O   H1  H2  O   H1  H2  O   H1  H2  O   H1  H2  O   
H1  H2  O   H1  H2  O   H1  H2  O   H1  H2  O   H1  H2  O   H1  H2  O   H1  H2  
O   H1  H2  O   H1  H2  O   H1  H2  O   H1  H2  O   H1  H2  O   H1  H2  O   H1  
H2  O   H1  H2  O   H1  H2  O   H1  H2  O   H1  H2  O   H1  H2  O   H1  H2  O   
H1  H2  O   H1  H2  O   H1  H2  O   H1  H2  O   H1  H2  O   H1  H2  O   H1  H2  
O   H1  H2  O   H1  H2  O   H1  H2  O   H1  H2  O   H1  H2  O   H1  H2  O   H1  
H2  O   H1  H2  O   H1  H2  O   H1  H2  O   H1  H2  O   H1  H2  O   H1  H2  O   
H1  H2  O   H1  H2  O   H1  H2  O   H1  H2  O   H1  H2  O   H1  H2  O   H1  H2  
O   H1  H2  O   H1  H2  O   H1  H2  O   H1  H2  O   H1  H2  O   H1  H2  O   H1  
H2  O   H1  H2  O   H1  H2  O   H1  H2  O   H1  H2  O   H1  H2  O   H1  H2  O   
H1  H2  O   H1  H2  O   H1  H2  O   H1  H2  O   H1  H2  O   H1  H2  O   H1  H2  
O   H1  H2  O   H1  H2  O   H1  H2  O   H1  H2  O   H1  H2  O   H1  H2  O   H1  
H2  O   H1  H2  O   H1  H2  O   H1  H2  O   H1  H2  O   H1  H2  O   H1  H2  O   
H1  H2  O   H1  H2  O   H1  H2  O   H1  H2  O   H1  H2  O   H1  H2  O   H1  H2  
O   H1  H2  O   H1  H2  O   H1  H2  O   H1  H2  O   H1  H2  O   H1  H2  O   H1  
H2  O   H1  H2  O   H1  H2  O   H1  H2  O   H1  H2  O   H1  H2  O   H1  H2  O   
H1  H2  O   H1  H2  O   H1  H2  O   H1  H2  O   H1  H2  O   H1  H2  O   H1  H2  
O   H1  H2  O   H1  H2  O   H1  H2  O   H1  H2  O   H1  H2  O   H1  H2  O   H1  
H2  O   H1  H2  O   H1  H2  O   H1  H2  O   H1  H2  O   H1  H2  O   H1  H2  O   
H1  H2  O   H1  H2  O   H1  H2  O   H1  H2  O   H1  H2  O   H1  H2  O   H1  H2  
O   H1  H2  O   H1  H2  O   H1  H2  O   H1  H2  O   H1  H2  O   H1  H2  O   H1  
H2  O   H1  H2  O   H1  H2  O   H1  H2  O   H1  H2  O   H1  H2  O   H1  H2  O   
H1  H2  O   H1  H2  O   H1  H2  O   H1  H2  O   H1  H2  O   H1  H2  O   H1  H2  
O   H1  H2  O   H1  H2  O   H1  H2  O   H1  H2  O   H1  H2  O   H1  H2  O   H1  
H2  O   H1  H2  O   H1  H2  O   H1  H2  O   H1  H2  O   H1  H2  O   H1  H2  O   
H1  H2  O   H1  H2  O   H1  H2  O   H1  H2  O   H1  H2  O   H1  H2  O   H1  H2  
O   H1  H2  O   H1  H2  O   H1  H2  O   H1  H2  O   H1  H2  O   H1  H2  O   H1  
H2  O   H1  H2  O   H1  H2  O   H1  H2  O   H1  H2  O   H1  H2  O   H1  H2  O   
H1  H2  O   H1  H2  O   H1  H2  O   H1  H2  O   H1  H2  O   H1  H2  O   H1  H2  
O   H1  H2  O   H1  H2  O   H1  H2  O   H1  H2  O   H1  H2  O   H1  H2  O   H1  
H2  O   H1  H2  O   H1  H2  O   H1  H2  O   H1  H2  O   H1  H2  O   H1  H2  O   
H1  H2  O   H1  H2  O   H1  H2  O   H1  H2  O   H1  H2  O   H1  H2  O   H1  H2  
O   H1  H2  O   H1  H2  O   H1  H2  O   H1  H2  O   H1  H2  O   H1  H2  O   H1  
H2  O   H1  H2  O   H1  H2  O   H1  H2  O   H1  H2  O   H1  H2  O   H1  H2  O   
H1  H2  O   H1  H2  O   H1  H2  O   H1  H2  O   H1  H2  O   H1  H2  O   H1  H2  
O   H1  H2  O   H1  H2  O   H1  H2  O   H1  H2  O   H1  H2  O   H1  H2  O   H1  
H2  O   H1  H2  O   H1  H2  O   H1  H2  O   H1  H2  O   H1  H2  O   H1  H2  O   
H1  H2  O   H1  H2  O   H1  H2  O   H1  H2  O   H1  H2  O   H1  H2  O   H1  H2  
O   H1  H2  O   H1  H2  O   H1  H2  O   H1  H2  O   H1  H2  O   H1  H2  O   H1  
H2  O   H1  H2  O   H1  H2  O   H1  H2  O   H1  H2  O   H1  H2  O   H1  H2  O   
H1  H2  O   H1  H2  O   H1  H2  O   H1  H2  O   H1  H2  O   H1  H2  O   H1  H2  
O   H1  H2  O   H1  H2  O   H1  H2  O   H1  H2  O   H1  H2  O   H1  H2  O   H1  
H2  O   H1  H2  O   H1  H2  O   H1  H2  O   H1  H2  O   H1  H2  O   H1  H2  O   
H1  H2  O   H1  H2  O   H1  H2  O   H1  H2  O   H1  H2  O   H1  H2  O   H1  H2  
O   H1  H2  O   H1  H2  O   H1  H2  O   H1  H2  O   H1  H2  O   H1  H2  O   H1  
H2  O   H1  H2  O   H1  H2  O   H1  H2  O   H1  H2  O   H1  H2  O   H1  H2  O   
H1  H2  O   H1  H2  O   H1  H2  O   H1  H2  O   H1  H2  O   H1  H2  O   H1  H2  
O   H1  H2  O   H1  H2  O   H1  H2  O   H1  H2  O   H1  H2  O   H1  H2  O   H1  
H2  O   H1  H2  O   H1  H2  O   H1  H2  O   H1  H2  O   H1  H2  O   H1  H2  O   
H1  H2  O   H1  H2  O   H1  H2  O   H1  H2  O   H1  H2  O   H1  H2  O   H1  H2  
O   H1  H2  O   H1  H2  O   H1  H2  O   H1  H2  O   H1  H2  O   H1  H2  O   H1  
H2  O   H1  H2  O   H1  H2  O   H1  H2  O   H1  H2  O   H1  H2  O   H1  H2  O   
H1  H2  O   H1  H2  O   H1  H2  O   H1  H2  O   H1  H2  O   H1  H2  O   H1  H2  
O   H1  H2  O   H1  H2  O   H1  H2  O   H1  H2  O   H1  H2  O   H1  H2  O   H1  
H2  O   H1  H2  O   H1  H2  O   H1  H2  O   H1  H2  O   H1  H2  O   H1  H2  O   
H1  H2  O   H1  H2  O   H1  H2  O   H1  H2  O   H1  H2  O   H1  H2  O   H1  H2  
O   H1  H2  O   H1  H2  O   H1  H2  O   H1  H2  O   H1  H2  O   H1  H2  O   H1  
H2  O   H1  H2  O   H1  H2  O   H1  H2  O   H1  H2  O   H1  H2  O   H1  H2  O   
H1  H2  O   H1  H2  O   H1  H2  O   H1  H2  O   H1  H2  O   H1  H2  O   H1  H2  
O   H1  H2  O   H1  H2  O   H1  H2  O   H1  H2  O   H1  H2  O   H1  H2  O   H1  
H2  O   H1  H2  O   H1  H2  O   H1  H2  O   H1  H2  O   H1  H2  O   H1  H2  O   
H1  H2  O   H1  H2  O   H1  H2  O   H1  H2  O   H1  H2  O   H1  H2  O   H1  H2  
O   H1  H2  O   H1  H2  O   H1  H2  O   H1  H2  O   H1  H2  O   H1  H2  O   H1  
H2  O   H1  H2  O   H1  H2  O   H1  H2  O   H1  H2  O   H1  H2  O   H1  H2  O   
H1  H2  O   H1  H2  O   H1  H2  O   H1  H2  O   H1  H2  O   H1  H2  O   H1  H2  
O   H1  H2  O   H1  H2  O   H1  H2  O   H1  H2  O   H1  H2  O   H1  H2  O   H1  
H2  O   H1  H2  O   H1  H2  O   H1  H2  O   H1  H2  O   H1  H2  O   H1  H2  O   
H1  H2  O   H1  H2  O   H1  H2  O   H1  H2  O   H1  H2  O   H1  H2  O   H1  H2  
O   H1  H2  O   H1  H2  O   H1  H2  O   H1  H2  O   H1  H2  O   H1  H2  O   H1  
H2  O   H1  H2  O   H1  H2  O   H1  H2  O   H1  H2  O   H1  H2  O   H1  H2  O   
H1  H2  O   H1  H2  O   H1  H2  O   H1  H2  O   H1  H2  O   H1  H2  O   H1  H2  
O   H1  H2  O   H1  H2  O   H1  H2  O   H1  H2  O   H1  H2  O   H1  H2  O   H1  
H2  O   H1  H2  O   H1  H2  O   H1  H2  O   H1  H2  O   H1  H2  O   H1  H2  O   
H1  H2  O   H1  H2  O   H1  H2  O   H1  H2  O   H1  H2  O   H1  H2  O   H1  H2  
O   H1  H2  O   H1  H2  O   H1  H2  O   H1  H2  O   H1  H2  O   H1  H2  O   H1  
H2  O   H1  H2  O   H1  H2  O   H1  H2  O   H1  H2  O   H1  H2  O   H1  H2  O   
H1  H2  O   H1  H2  O   H1  H2  O   H1  H2  O   H1  H2  O   H1  H2  O   H1  H2  
O   H1  H2  O   H1  H2  O   H1  H2  O   H1  H2  O   H1  H2  O   H1  H2  O   H1  
H2  O   H1  H2  O   H1  H2  O   H1  H2  O   H1  H2  O   H1  H2  O   H1  H2  O   
H1  H2  O   H1  H2  O   H1  H2  O   H1  H2  O   H1  H2  O   H1  H2  O   H1  H2  
O   H1  H2  O   H1  H2  O   H1  H2  O   H1  H2  O   H1  H2  O   H1  H2  O   H1  
H2  O   H1  H2  O   H1  H2  O   H1  H2  O   H1  H2  O   H1  H2  O   H1  H2  O   
H1  H2  O   H1  H2  O   H1  H2  O   H1  H2  O   H1  H2  O   H1  H2  O   H1  H2  
O   H1  H2  O   H1  H2  O   H1  H2  O   H1  H2  O   H1  H2  O   H1  H2  O   H1  
H2  O   H1  H2  O   H1  H2  O   H1  H2  O   H1  H2  O   H1  H2  O   H1  H2  O   
H1  H2  O   H1  H2  O   H1  H2  O   H1  H2  O   H1  H2  O   H1  H2  O   H1  H2  
O   H1  H2  O   H1  H2  O   H1  H2  O   H1  H2  O   H1  H2  O   H1  H2  O   H1  
H2  O   H1  H2  O   H1  H2  O   H1  H2  O   H1  H2  O   H1  H2  O   H1  H2  O   
H1  H2  O   H1  H2  O   H1  H2  O   H1  H2  O   H1  H2  O   H1  H2  O   H1  H2  
O   H1  H2  O   H1  H2  O   H1  H2  O   H1  H2  O   H1  H2  O   H1  H2  O   H1  
H2  O   H1  H2  O   H1  H2  O   H1  H2  O   H1  H2  O   H1  H2  O   H1  H2  O   
H1  H2  O   H1  H2  O   H1  H2  O   H1  H2  O   H1  H2  O   H1  H2  O   H1  H2  
O   H1  H2  O   H1  H2  O   H1  H2  O   H1  H2  O   H1  H2  O   H1  H2  O   H1  
H2  O   H1  H2  O   H1  H2  O   H1  H2  O   H1  H2  O   H1  H2  O   H1  H2  O   
H1  H2  O   H1  H2  O   H1  H2  O   H1  H2  O   H1  H2  O   H1  H2  O   H1  H2  
O   H1  H2  O   H1  H2  O   H1  H2  O   H1  H2  O   H1  H2  O   H1  H2  O   H1  
H2  O   H1  H2  O   H1  H2  O   H1  H2  O   H1  H2  O   H1  H2  O   H1  H2  O   
H1  H2  O   H1  H2  O   H1  H2  O   H1  H2  O   H1  H2  O   H1  H2  O   H1  H2  
O   H1  H2  O   H1  H2  O   H1  H2  O   H1  H2  O   H1  H2  O   H1  H2  O   H1  
H2  O   H1  H2  O   H1  H2  O   H1  H2  O   H1  H2  O   H1  H2  O   H1  H2  O   
H1  H2  O   H1  H2  O   H1  H2  O   H1  H2  O   H1  H2  O   H1  H2  O   H1  H2  
O   H1  H2  O   H1  H2  O   H1  H2  O   H1  H2  O   H1  H2  O   H1  H2  O   H1  
H2  O   H1  H2  O   H1  H2  O   H1  H2  O   H1  H2  O   H1  H2  O   H1  H2  O   
H1  H2  O   H1  H2  O   H1  H2  O   H1  H2  O   H1  H2  O   H1  H2  O   H1  H2  
O   H1  H2  O   H1  H2  O   H1  H2  O   H1  H2  O   H1  H2  O   H1  H2  O   H1  
H2  O   H1  H2  O   H1  H2  O   H1  H2  O   H1  H2  O   H1  H2  O   H1  H2  O   
H1  H2  O   H1  H2  O   H1  H2  O   H1  H2  O   H1  H2  O   H1  H2  O   H1  H2  
O   H1  H2  O   H1  H2  O   H1  H2  O   H1  H2  O   H1  H2  O   H1  H2  O   H1  
H2  O   H1  H2  O   H1  H2  O   H1  H2  O   H1  H2  O   H1  H2  O   H1  H2  O   
H1  H2  O   H1  H2  O   H1  H2  O   H1  H2  O   H1  H2  O   H1  H2  O   H1  H2  
O   H1  H2  O   H1  H2  O   H1  H2  O   H1  H2  O   H1  H2  O   H1  H2  O   H1  
H2  O   H1  H2  O   H1  H2  O   H1  H2  O   H1  H2  O   H1  H2  O   H1  H2  O   
H1  H2  O   H1  H2  O   H1  H2  O   H1  H2  O   H1  H2  O   H1  H2  O   H1  H2  
O   H1  H2  O   H1  H2  O   H1  H2  O   H1  H2  O   H1  H2  O   H1  H2  O   H1  
H2  O   H1  H2  O   H1  H2  O   H1  H2  O   H1  H2  O   H1  H2  O   H1  H2  O   
H1  H2  O   H1  H2  O   H1  H2  O   H1  H2  O   H1  H2  O   H1  H2  O   H1  H2  
O   H1  H2  O   H1  H2  O   H1  H2  O   H1  H2  O   H1  H2  O   H1  H2  O   H1  
H2  O   H1  H2  O   H1  H2  O   H1  H2  O   H1  H2  O   H1  H2  O   H1  H2  O   
H1  H2  O   H1  H2  O   H1  H2  O   H1  H2  O   H1  H2  O   H1  H2  O   H1  H2  
O   H1  H2  O   H1  H2  O   H1  H2  O   H1  H2  O   H1  H2  O   H1  H2  O   H1  
H2  O   H1  H2  O   H1  H2  O   H1  H2  O   H1  H2  O   H1  H2  O   H1  H2  O   
H1  H2  O   H1  H2  O   H1  H2  O   H1  H2  O   H1  H2  O   H1  H2  O   H1  H2  
O   H1  H2  O   H1  H2  O   H1  H2  O   H1  H2  O   H1  H2  O   H1  H2  O   H1  
H2  O   H1  H2  O   H1  H2  O   H1  H2  O   H1  H2  O   H1  H2  O   H1  H2  O   
H1  H2  O   H1  H2  O   H1  H2  O   H1  H2  O   H1  H2  O   H1  H2  O   H1  H2  
O   H1  H2  O   H1  H2  O   H1  H2  O   H1  H2  O   H1  H2  O   H1  H2  O   H1  
H2  O   H1  H2  O   H1  H2  O   H1  H2  O   H1  H2  O   H1  H2  O   H1  H2  O   
H1  H2  O   H1  H2  O   H1  H2  O   H1  H2  O   H1  H2  O   H1  H2  O   H1  H2  
O   H1  H2  O   H1  H2  O   H1  H2  O   H1  H2  O   H1  H2  O   H1  H2  O   H1  
H2  O   H1  H2  O   H1  H2  O   H1  H2  O   H1  H2  O   H1  H2  O   H1  H2  O   
H1  H2  O   H1  H2  O   H1  H2  O   H1  H2  O   H1  H2  O   H1  H2  O   H1  H2  
O   H1  H2  O   H1  H2  O   H1  H2  O   H1  H2  O   H1  H2  O   H1  H2  O   H1  
H2  O   H1  H2  O   H1  H2  O   H1  H2  O   H1  H2  O   H1  H2  O   H1  H2  O   
H1  H2  O   H1  H2  O   H1  H2  O   H1  H2  O   H1  H2  O   H1  H2  O   H1  H2  
O   H1  H2  O   H1  H2  O   H1  H2  O   H1  H2  O   H1  H2  O   H1  H2  O   H1  
H2  O   H1  H2  O   H1  H2  O   H1  H2  O   H1  H2  O   H1  H2  O   H1  H2  O   
H1  H2  O   H1  H2  O   H1  H2  O   H1  H2  O   H1  H2  O   H1  H2  O   H1  H2  
O   H1  H2  O   H1  H2  O   H1  H2  O   H1  H2  O   H1  H2  O   H1  H2  O   H1  
H2  O   H1  H2  O   H1  H2  O   H1  H2  O   H1  H2  O   H1  H2  O   H1  H2  O   
H1  H2  O   H1  H2  O   H1  H2  O   H1  H2  O   H1  H2  O   H1  H2  O   H1  H2  
O   H1  H2  O   H1  H2  O   H1  H2  O   H1  H2  O   H1  H2  O   H1  H2  O   H1  
H2  O   H1  H2  O   H1  H2  O   H1  H2  O   H1  H2  O   H1  H2  O   H1  H2  O   
H1  H2  O   H1  H2  O   H1  H2  O   H1  H2  O   H1  H2  O   H1  H2  O   H1  H2  
O   H1  H2  O   H1  H2  O   H1  H2  O   H1  H2  O   H1  H2  O   H1  H2  O   H1  
H2  O   H1  H2  O   H1  H2  O   H1  H2  O   H1  H2  O   H1  H2  O   H1  H2  O   
H1  H2  O   H1  H2  O   H1  H2  O   H1  H2  O   H1  H2  O   H1  H2  O   H1  H2  
O   H1  H2  O   H1  H2  O   H1  H2  O   H1  H2  O   H1  H2  O   H1  H2  O   H1  
H2  O   H1  H2  O   H1  H2  O   H1  H2  O   H1  H2  O   H1  H2  O   H1  H2  O   
H1  H2  O   H1  H2  O   H1  H2  O   H1  H2  O   H1  H2  O   H1  H2  O   H1  H2  
O   H1  H2  O   H1  H2  O   H1  H2  O   H1  H2  O   H1  H2  O   H1  H2  O   H1  
H2  O   H1  H2  O   H1  H2  O   H1  H2  O   H1  H2  O   H1  H2  O   H1  H2  O   
H1  H2  O   H1  H2  O   H1  H2  O   H1  H2  O   H1  H2  O   H1  H2  O   H1  H2  
O   H1  H2  O   H1  H2  O   H1  H2  O   H1  H2  O   H1  H2  O   H1  H2  O   H1  
H2  O   H1  H2  O   H1  H2  O   H1  H2  O   H1  H2  O   H1  H2  O   H1  H2  O   
H1  H2  O   H1  H2  O   H1  H2  O   H1  H2  O   H1  H2  O   H1  H2  O   H1  H2  
O   H1  H2  O   H1  H2  O   H1  H2  O   H1  H2  O   H1  H2  O   H1  H2  O   H1  
H2  O   H1  H2  O   H1  H2  O   H1  H2  O   H1  H2  O   H1  H2  O   H1  H2  O   
H1  H2  O   H1  H2  O   H1  H2  O   H1  H2  O   H1  H2  O   H1  H2  O   H1  H2  
O   H1  H2  O   H1  H2  O   H1  H2  O   H1  H2  O   H1  H2  O   H1  H2  O   H1  
H2  O   H1  H2  O   H1  H2  O   H1  H2  O   H1  H2  O   H1  H2  O   H1  H2  O   
H1  H2  O   H1  H2  O   H1  H2  O   H1  H2  O   H1  H2  O   H1  H2  O   H1  H2  
O   H1  H2  O   H1  H2  O   H1  H2  O   H1  H2  O   H1  H2  O   H1  H2  O   H1  
H2  O   H1  H2  O   H1  H2  O   H1  H2  O   H1  H2  O   H1  H2  O   H1  H2  O   
H1  H2  O   H1  H2  O   H1  H2  O   H1  H2  O   H1  H2  O   H1  H2  O   H1  H2  
O   H1  H2  O   H1  H2  O   H1  H2  O   H1  H2  O   H1  H2  O   H1  H2  O   H1  
H2  O   H1  H2  O   H1  H2  O   H1  H2  O   H1  H2  O   H1  H2  O   H1  H2  O   
H1  H2  O   H1  H2  O   H1  H2  O   H1  H2  O   H1  H2  O   H1  H2  O   H1  H2  
O   H1  H2  O   H1  H2  O   H1  H2  O   H1  H2  O   H1  H2  O   H1  H2  O   H1  
H2  O   H1  H2  O   H1  H2  O   H1  H2  O   H1  H2  O   H1  H2  O   H1  H2  O   
H1  H2  O   H1  H2  O   H1  H2  O   H1  H2  O   H1  H2  O   H1  H2  O   H1  H2  
O   H1  H2  O   H1  H2  O   H1  H2  O   H1  H2  O   H1  H2  O   H1  H2  O   H1  
H2  O   H1  H2  O   H1  H2  O   H1  H2  O   H1  H2  O   H1  H2  O   H1  H2  O   
H1  H2  O   H1  H2  O   H1  H2  O   H1  H2  O   H1  H2  O   H1  H2  O   H1  H2  
O   H1  H2  O   H1  H2  O   H1  H2  O   H1  H2  O   H1  H2  O   H1  H2  O   H1  
H2  O   H1  H2  O   H1  H2  O   H1  H2  O   H1  H2  O   H1  H2  O   H1  H2  O   
H1  H2  O   H1  H2  O   H1  H2  O   H1  H2  O   H1  H2  O   H1  H2  O   H1  H2  
O   H1  H2  O   H1  H2  O   H1  H2  O   H1  H2  O   H1  H2  O   H1  H2  O   H1  
H2  O   H1  H2  O   H1  H2  O   H1  H2  O   H1  H2  O   H1  H2  O   H1  H2  O   
H1  H2  O   H1  H2  O   H1  H2  O   H1  H2  O   H1  H2  O   H1  H2  O   H1  H2  
O   H1  H2  O   H1  H2  O   H1  H2  O   H1  H2  O   H1  H2  O   H1  H2  O   H1  
H2  O   H1  H2  O   H1  H2  O   H1  H2  O   H1  H2  O   H1  H2  O   H1  H2  O   
H1  H2  O   H1  H2  O   H1  H2  O   H1  H2  O   H1  H2  O   H1  H2  O   H1  H2  
O   H1  H2  O   H1  H2  O   H1  H2  O   H1  H2  O   H1  H2  O   H1  H2  O   H1  
H2  O   H1  H2  O   H1  H2  O   H1  H2  O   H1  H2  O   H1  H2  O   H1  H2  O   
H1  H2  O   H1  H2  O   H1  H2  O   H1  H2  O   H1  H2  O   H1  H2  O   H1  H2  
O   H1  H2  O   H1  H2  O   H1  H2  O   H1  H2  O   H1  H2  O   H1  H2  O   H1  
H2  O   H1  H2  O   H1  H2  O   H1  H2  O   H1  H2  O   H1  H2  O   H1  H2  O   
H1  H2  O   H1  H2  O   H1  H2  O   H1  H2  O   H1  H2  O   H1  H2  O   H1  H2  
O   H1  H2  O   H1  H2  O   H1  H2  O   H1  H2  O   H1  H2  O   H1  H2  O   H1  
H2  O   H1  H2  O   H1  H2  O   H1  H2  O   H1  H2  O   H1  H2  O   H1  H2  O   
H1  H2  O   H1  H2  O   H1  H2  O   H1  H2  O   H1  H2  O   H1  H2  O   H1  H2  
O   H1  H2  O   H1  H2  O   H1  H2  O   H1  H2  O   H1  H2  O   H1  H2  O   H1  
H2  O   H1  H2  O   H1  H2  O   H1  H2  O   H1  H2  O   H1  H2  O   H1  H2  O   
H1  H2  O   H1  H2  O   H1  H2  O   H1  H2  O   H1  H2  O   H1  H2  O   H1  H2  
O   H1  H2  O   H1  H2  O   H1  H2  O   H1  H2  O   H1  H2  O   H1  H2  O   H1  
H2  O   H1  H2  O   H1  H2  O   H1  H2  O   H1  H2  O   H1  H2  O   H1  H2  O   
H1  H2  O   H1  H2  O   H1  H2  O   H1  H2  O   H1  H2  O   H1  H2  O   H1  H2  
O   H1  H2  O   H1  H2  O   H1  H2  O   H1  H2  O   H1  H2  O   H1  H2  O   H1  
H2  O   H1  H2  O   H1  H2  O   H1  H2  O   H1  H2  O   H1  H2  O   H1  H2  O   
H1  H2  O   H1  H2  O   H1  H2  O   H1  H2  O   H1  H2  O   H1  H2  O   H1  H2  
O   H1  H2  O   H1  H2  O   H1  H2  O   H1  H2  O   H1  H2  O   H1  H2  O   H1  
H2  O   H1  H2  O   H1  H2  O   H1  H2  O   H1  H2  O   H1  H2  O   H1  H2  O   
H1  H2  O   H1  H2  O   H1  H2  O   H1  H2  O   H1  H2  O   H1  H2  O   H1  H2  
O   H1  H2  O   H1  H2  O   H1  H2  O   H1  H2  O   H1  H2  O   H1  H2  O   H1  
H2  O   H1  H2  O   H1  H2  O   H1  H2  O   H1  H2  O   H1  H2  O   H1  H2  O   
H1  H2  O   H1  H2  O   H1  H2  O   H1  H2  O   H1  H2  O   H1  H2  O   H1  H2  
O   H1  H2  O   H1  H2  O   H1  H2  O   H1  H2  O   H1  H2  O   H1  H2  O   H1  
H2  O   H1  H2  O   H1  H2  O   H1  H2  O   H1  H2  O   H1  H2  O   H1  H2  O   
H1  H2  O   H1  H2  O   H1  H2  O   H1  H2  O   H1  H2  O   H1  H2  O   H1  H2  
O   H1  H2  O   H1  H2  O   H1  H2  O   H1  H2  O   H1  H2  O   H1  H2  O   H1  
H2  O   H1  H2  O   H1  H2  O   H1  H2  O   H1  H2  O   H1  H2  O   H1  H2  O   
H1  H2  O   H1  H2  O   H1  H2  O   H1  H2  O   H1  H2  O   H1  H2  O   H1  H2  
O   H1  H2  O   H1  H2  O   H1  H2  O   H1  H2  O   H1  H2  O   H1  H2  O   H1  
H2  O   H1  H2  O   H1  H2  O   H1  H2  O   H1  H2  O   H1  H2  O   H1  H2  O   
H1  H2  O   H1  H2  O   H1  H2  O   H1  H2  O   H1  H2  O   H1  H2  O   H1  H2  
O   H1  H2  O   H1  H2  O   H1  H2  O   H1  H2  O   H1  H2  O   H1  H2  O   H1  
H2  O   H1  H2  O   H1  H2  O   H1  H2  O   H1  H2  O   H1  H2  O   H1  H2  O   
H1  H2  O   H1  H2  O   H1  H2  O   H1  H2  O   H1  H2  O   H1  H2  O   H1  H2  
O   H1  H2  O   H1  H2  O   H1  H2  O   H1  H2  O   H1  H2  O   H1  H2  O   H1  
H2  O   H1  H2  O   H1  H2  O   H1  H2  O   H1  H2  O   H1  H2  O   H1  H2  O   
H1  H2  O   H1  H2  O   H1  H2  O   H1  H2  O   H1  H2  O   H1  H2  O   H1  H2  
O   H1  H2  O   H1  H2  O   H1  H2  O   H1  H2  O   H1  H2  O   H1  H2  O   H1  
H2  O   H1  H2  O   H1  H2  O   H1  H2  O   H1  H2  O   H1  H2  O   H1  H2  O   
H1  H2  O   H1  H2  O   H1  H2  O   H1  H2  O   H1  H2  O   H1  H2  O   H1  H2  
O   H1  H2  O   H1  H2  O   H1  H2  O   H1  H2  O   H1  H2  O   H1  H2  O   H1  
H2  O   H1  H2  O   H1  H2  O   H1  H2  O   H1  H2  O   H1  H2  O   H1  H2  O   
H1  H2  O   H1  H2  O   H1  H2  O   H1  H2  O   H1  H2  O   H1  H2  O   H1  H2  
O   H1  H2  O   H1  H2  O   H1  H2  O   H1  H2  O   H1  H2  O   H1  H2  O   H1  
H2  O   H1  H2  O   H1  H2  O   H1  H2  O   H1  H2  O   H1  H2  O   H1  H2  O   
H1  H2  O   H1  H2  O   H1  H2  O   H1  H2  O   H1  H2  O   H1  H2  O   H1  H2  
O   H1  H2  O   H1  H2  O   H1  H2  O   H1  H2  O   H1  H2  O   H1  H2  O   H1  
H2  O   H1  H2  O   H1  H2  O   H1  H2  O   H1  H2  O   H1  H2  O   H1  H2  O   
H1  H2  O   H1  H2  O   H1  H2  O   H1  H2  O   H1  H2  O   H1  H2  O   H1  H2  
O   H1  H2  O   H1  H2  O   H1  H2  O   H1  H2  O   H1  H2  O   H1  H2  O   H1  
H2  O   H1  H2  O   H1  H2  O   H1  H2  O   H1  H2  O   H1  H2  O   H1  H2  O   
H1  H2  O   H1  H2  O   H1  H2  O   H1  H2  O   H1  H2  O   H1  H2  O   H1  H2  
O   H1  H2  O   H1  H2  O   H1  H2  O   H1  H2  O   H1  H2  O   H1  H2  O   H1  
H2  O   H1  H2  O   H1  H2  O   H1  H2  O   H1  H2  O   H1  H2  O   H1  H2  O   
H1  H2  O   H1  H2  O   H1  H2  O   H1  H2  O   H1  H2  O   H1  H2  O   H1  H2  
O   H1  H2  O   H1  H2  O   H1  H2  O   H1  H2  O   H1  H2  O   H1  H2  O   H1  
H2  O   H1  H2  O   H1  H2  O   H1  H2  O   H1  H2  O   H1  H2  O   H1  H2  O   
H1  H2  O   H1  H2  O   H1  H2  O   H1  H2  O   H1  H2  O   H1  H2  O   H1  H2  
O   H1  H2  O   H1  H2  O   H1  H2  O   H1  H2  O   H1  H2  O   H1  H2  O   H1  
H2  O   H1  H2  O   H1  H2  O   H1  H2  O   H1  H2  O   H1  H2  O   H1  H2  O   
H1  H2  O   H1  H2  O   H1  H2  O   H1  H2  O   H1  H2  O   H1  H2  O   H1  H2  
O   H1  H2  O   H1  H2  O   H1  H2  O   H1  H2  O   H1  H2  O   H1  H2  O   H1  
H2  O   H1  H2  O   H1  H2  O   H1  H2  O   H1  H2  O   H1  H2  O   H1  H2  O   
H1  H2  O   H1  H2  O   H1  H2  O   H1  H2  O   H1  H2  O   H1  H2  O   H1  H2  
O   H1  H2  O   H1  H2  O   H1  H2  O   H1  H2  O   H1  H2  O   H1  H2  O   H1  
H2  O   H1  H2  O   H1  H2  O   H1  H2  O   H1  H2  O   H1  H2  O   H1  H2  O   
H1  H2  O   H1  H2  O   H1  H2  O   H1  H2  O   H1  H2  O   H1  H2  O   H1  H2  
O   H1  H2  O   H1  H2  O   H1  H2  O   H1  H2  O   H1  H2  O   H1  H2  O   H1  
H2  O   H1  H2  O   H1  H2  O   H1  H2  O   H1  H2  O   H1  H2  O   H1  H2  O   
H1  H2  O   H1  H2  O   H1  H2  O   H1  H2  O   H1  H2  O   H1  H2  O   H1  H2  
O   H1  H2  O   H1  H2  O   H1  H2  O   H1  H2  O   H1  H2  O   H1  H2  O   H1  
H2  O   H1  H2  O   H1  H2  O   H1  H2  O   H1  H2  O   H1  H2  O   H1  H2  O   
H1  H2  O   H1  H2  O   H1  H2  O   H1  H2  O   H1  H2  O   H1  H2  O   H1  H2  
O   H1  H2  O   H1  H2  O   H1  H2  O   H1  H2  O   H1  H2  O   H1  H2  O   H1  
H2  O   H1  H2  O   H1  H2  O   H1  H2  O   H1  H2  O   H1  H2  O   H1  H2  O   
H1  H2  O   H1  H2  O   H1  H2  O   H1  H2  O   H1  H2  O   H1  H2  O   H1  H2  
O   H1  H2  O   H1  H2  O   H1  H2  O   H1  H2  O   H1  H2  O   H1  H2  O   H1  
H2  O   H1  H2  O   H1  H2  O   H1  H2  O   H1  H2  O   H1  H2  O   H1  H2  O   
H1  H2  O   H1  H2  O   H1  H2  O   H1  H2  O   H1  H2  O   H1  H2  O   H1  H2  
O   H1  H2  O   H1  H2  O   H1  H2  O   H1  H2  O   H1  H2  O   H1  H2  O   H1  
H2  O   H1  H2  O   H1  H2  O   H1  H2  O   H1  H2  O   H1  H2  O   H1  H2  O   
H1  H2  O   H1  H2  O   H1  H2  O   H1  H2  O   H1  H2  O   H1  H2  O   H1  H2  
O   H1  H2  O   H1  H2  O   H1  H2  O   H1  H2  O   H1  H2  O   H1  H2  O   H1  
H2  O   H1  H2  O   H1  H2  O   H1  H2  O   H1  H2  O   H1  H2  O   H1  H2  O   
H1  H2  O   H1  H2  O   H1  H2  O   H1  H2  O   H1  H2  O   H1  H2  O   H1  H2  
O   H1  H2  O   H1  H2  O   H1  H2  O   H1  H2  O   H1  H2  O   H1  H2  O   H1  
H2  O   H1  H2  O   H1  H2  O   H1  H2  O   H1  H2  O   H1  H2  O   H1  H2  O   
H1  H2  O   H1  H2  O   H1  H2  O   H1  H2  O   H1  H2  O   H1  H2  O   H1  H2  
O   H1  H2  O   H1  H2  O   H1  H2  O   H1  H2  O   H1  H2  O   H1  H2  O   H1  
H2  O   H1  H2  O   H1  H2  O   H1  H2  O   H1  H2  O   H1  H2  O   H1  H2  O   
H1  H2  O   H1  H2  O   H1  H2  O   H1  H2  O   H1  H2  O   H1  H2  O   H1  H2  
O   H1  H2  O   H1  H2  O   H1  H2  O   H1  H2  O   H1  H2  O   H1  H2  O   H1  
H2  O   H1  H2  O   H1  H2  O   H1  H2  O   H1  H2  O   H1  H2  O   H1  H2  O   
H1  H2  O   H1  H2  O   H1  H2  O   H1  H2  O   H1  H2  O   H1  H2  O   H1  H2  
O   H1  H2  O   H1  H2  O   H1  H2  O   H1  H2  O   H1  H2  O   H1  H2  O   H1  
H2  O   H1  H2  O   H1  H2  O   H1  H2  O   H1  H2  O   H1  H2  O   H1  H2  O   
H1  H2  O   H1  H2  O   H1  H2  O   H1  H2  O   H1  H2  O   H1  H2  O   H1  H2  
O   H1  H2  O   H1  H2  O   H1  H2  O   H1  H2  O   H1  H2  O   H1  H2  O   H1  
H2  O   H1  H2  O   H1  H2  O   H1  H2  O   H1  H2  O   H1  H2  O   H1  H2  O   
H1  H2  O   H1  H2  O   H1  H2  O   H1  H2  O   H1  H2  O   H1  H2  O   H1  H2  
O   H1  H2  O   H1  H2  O   H1  H2  O   H1  H2  O   H1  H2  O   H1  H2  O   H1  
H2  O   H1  H2  O   H1  H2  O   H1  H2  O   H1  H2  O   H1  H2  O   H1  H2  O   
H1  H2  O   H1  H2  O   H1  H2  O   H1  H2  O   H1  H2  O   H1  H2  O   H1  H2  
O   H1  H2  O   H1  H2  O   H1  H2  O   H1  H2  O   H1  H2  O   H1  H2  O   H1  
H2  O   H1  H2  O   H1  H2  O   H1  H2  O   H1  H2  O   H1  H2  O   H1  H2  O   
H1  H2  O   H1  H2  O   H1  H2  O   H1  H2  O   H1  H2  O   H1  H2  O   H1  H2  
O   H1  H2  O   H1  H2  O   H1  H2  O   H1  H2  O   H1  H2  O   H1  H2  O   H1  
H2  O   H1  H2  O   H1  H2  O   H1  H2  O   H1  H2  O   H1  H2  O   H1  H2  O   
H1  H2  O   H1  H2  O   H1  H2  O   H1  H2  O   H1  H2  O   H1  H2  O   H1  H2  
O   H1  H2  O   H1  H2  O   H1  H2  O   H1  H2  O   H1  H2  O   H1  H2  O   H1  
H2  O   H1  H2  O   H1  H2  O   H1  H2  O   H1  H2  O   H1  H2  O   H1  H2  O   
H1  H2  O   H1  H2  O   H1  H2  O   H1  H2  O   H1  H2  O   H1  H2  O   H1  H2  
O   H1  H2  O   H1  H2  O   H1  H2  O   H1  H2  O   H1  H2  O   H1  H2  O   H1  
H2  O   H1  H2  O   H1  H2  O   H1  H2  O   H1  H2  O   H1  H2  O   H1  H2  O   
H1  H2  O   H1  H2  O   H1  H2  O   H1  H2  O   H1  H2  O   H1  H2  O   H1  H2  
O   H1  H2  O   H1  H2  O   H1  H2  O   H1  H2  O   H1  H2  O   H1  H2  O   H1  
H2  O   H1  H2  O   H1  H2  O   H1  H2  O   H1  H2  O   H1  H2  O   H1  H2  O   
H1  H2  O   H1  H2  O   H1  H2  O   H1  H2  O   H1  H2  O   H1  H2  O   H1  H2  
O   H1  H2  O   H1  H2  O   H1  H2  O   H1  H2  O   H1  H2  O   H1  H2  O   H1  
H2  O   H1  H2  O   H1  H2  O   H1  H2  O   H1  H2  O   H1  H2  O   H1  H2  O   
H1  H2  O   H1  H2  O   H1  H2  O   H1  H2  O   H1  H2  O   H1  H2  O   H1  H2  
O   H1  H2  O   H1  H2  O   H1  H2  O   H1  H2  O   H1  H2  O   H1  H2  O   H1  
H2  O   H1  H2  O   H1  H2  O   H1  H2  O   H1  H2  O   H1  H2  O   H1  H2  O   
H1  H2  O   H1  H2  O   H1  H2  O   H1  H2  O   H1  H2  O   H1  H2  O   H1  H2  
O   H1  H2  O   H1  H2  O   H1  H2  O   H1  H2  O   H1  H2  O   H1  H2  O   H1  
H2  O   H1  H2  O   H1  H2  O   H1  H2  O   H1  H2  O   H1  H2  O   H1  H2  O   
H1  H2  O   H1  H2  O   H1  H2  O   H1  H2  O   H1  H2  O   H1  H2  O   H1  H2  
O   H1  H2  O   H1  H2  O   H1  H2  O   H1  H2  O   H1  H2  O   H1  H2  O   H1  
H2  O   H1  H2  O   H1  H2  O   H1  H2  O   H1  H2  O   H1  H2  O   H1  H2  O   
H1  H2  O   H1  H2  O   H1  H2  O   H1  H2  O   H1  H2  O   H1  H2  O   H1  H2  
O   H1  H2  O   H1  H2  O   H1  H2  O   H1  H2  O   H1  H2  O   H1  H2  O   H1  
H2  O   H1  H2  O   H1  H2  O   H1  H2  O   H1  H2  O   H1  H2  O   H1  H2  O   
H1  H2  O   H1  H2  O   H1  H2  O   H1  H2  O   H1  H2  O   H1  H2  O   H1  H2  
O   H1  H2  O   H1  H2  O   H1  H2  O   H1  H2  O   H1  H2  O   H1  H2  O   H1  
H2  O   H1  H2  O   H1  H2  O   H1  H2  O   H1  H2  O   H1  H2  O   H1  H2  O   
H1  H2  O   H1  H2  O   H1  H2  O   H1  H2  O   H1  H2  O   H1  H2  O   H1  H2  
O   H1  H2  O   H1  H2  O   H1  H2  O   H1  H2  O   H1  H2  O   H1  H2  O   H1  
H2  O   H1  H2  O   H1  H2  O   H1  H2  O   H1  H2  O   H1  H2  O   H1  H2  O   
H1  H2  O   H1  H2  O   H1  H2  O   H1  H2  O   H1  H2  O   H1  H2  O   H1  H2  
O   H1  H2  O   H1  H2  O   H1  H2  O   H1  H2  O   H1  H2  O   H1  H2  O   H1  
H2  O   H1  H2  O   H1  H2  O   H1  H2  O   H1  H2  O   H1  H2  O   H1  H2  O   
H1  H2  O   H1  H2  O   H1  H2  O   H1  H2  O   H1  H2  O   H1  H2  O   H1  H2  
O   H1  H2  O   H1  H2  O   H1  H2  O   H1  H2  O   H1  H2  O   H1  H2  O   H1  
H2  O   H1  H2  O   H1  H2  O   H1  H2  O   H1  H2  O   H1  H2  O   H1  H2  O   
H1  H2  O   H1  H2  O   H1  H2  O   H1  H2  O   H1  H2  O   H1  H2  O   H1  H2  
O   H1  H2  O   H1  H2  O   H1  H2  O   H1  H2  O   H1  H2  O   H1  H2  O   H1  
H2  O   H1  H2  O   H1  H2  O   H1  H2  O   H1  H2  O   H1  H2  O   H1  H2  O   
H1  H2  O   H1  H2  O   H1  H2  O   H1  H2  O   H1  H2  O   H1  H2  O   H1  H2  
O   H1  H2  O   H1  H2  O   H1  H2  O   H1  H2  O   H1  H2  O   H1  H2  O   H1  
H2  O   H1  H2  O   H1  H2  O   H1  H2  O   H1  H2  O   H1  H2  O   H1  H2  O   
H1  H2  O   H1  H2  O   H1  H2  O   H1  H2  O   H1  H2  O   H1  H2  O   H1  H2  
O   H1  H2  O   H1  H2  O   H1  H2  O   H1  H2  O   H1  H2  O   H1  H2  O   H1  
H2  O   H1  H2  O   H1  H2  O   H1  H2  O   H1  H2  O   H1  H2  O   H1  H2  O   
H1  H2  O   H1  H2  O   H1  H2  O   H1  H2  O   H1  H2  O   H1  H2  O   H1  H2  
O   H1  H2  O   H1  H2  O   H1  H2  O   H1  H2  O   H1  H2  O   H1  H2  O   H1  
H2  O   H1  H2  O   H1  H2  O   H1  H2  O   H1  H2  O   H1  H2  O   H1  H2  O   
H1  H2  O   H1  H2  O   H1  H2  O   H1  H2  O   H1  H2  O   H1  H2  O   H1  H2  
O   H1  H2  O   H1  H2  O   H1  H2  O   H1  H2  O   H1  H2  O   H1  H2  O   H1  
H2  O   H1  H2  O   H1  H2  O   H1  H2  O   H1  H2  O   H1  H2  O   H1  H2  O   
H1  H2  O   H1  H2  O   H1  H2  O   H1  H2  O   H1  H2  O   H1  H2  O   H1  H2  
O   H1  H2  O   H1  H2  O   H1  H2  O   H1  H2  O   H1  H2  O   H1  H2  O   H1  
H2  O   H1  H2  O   H1  H2  O   H1  H2  O   H1  H2  O   H1  H2  O   H1  H2  O   
H1  H2  O   H1  H2  O   H1  H2  O   H1  H2  O   H1  H2  O   H1  H2  O   H1  H2  
O   H1  H2  O   H1  H2  O   H1  H2  O   H1  H2  O   H1  H2  O   H1  H2  O   H1  
H2  O   H1  H2  O   H1  H2  O   H1  H2  O   H1  H2  O   H1  H2  O   H1  H2  O   
H1  H2  O   H1  H2  O   H1  H2  O   H1  H2  O   H1  H2  O   H1  H2  O   H1  H2  
O   H1  H2  O   H1  H2  O   H1  H2  O   H1  H2  O   H1  H2  O   H1  H2  O   H1  
H2  O   H1  H2  O   H1  H2  O   H1  H2  O   H1  H2  O   H1  H2  O   H1  H2  O   
H1  H2  O   H1  H2  O   H1  H2  O   H1  H2  O   H1  H2  O   H1  H2  O   H1  H2  
O   H1  H2  O   H1  H2  O   H1  H2  O   H1  H2  O   H1  H2  O   H1  H2  O   H1  
H2  O   H1  H2  O   H1  H2  O   H1  H2  O   H1  H2  O   H1  H2  O   H1  H2  O   
H1  H2  O   H1  H2  O   H1  H2  O   H1  H2  O   H1  H2  O   H1  H2  O   H1  H2  
O   H1  H2  O   H1  H2  O   H1  H2  O   H1  H2  O   H1  H2  O   H1  H2  O   H1  
H2  O   H1  H2  O   H1  H2  O   H1  H2  O   H1  H2  O   H1  H2  O   H1  H2  O   
H1  H2  O   H1  H2  O   H1  H2  O   H1  H2  O   H1  H2  O   H1  H2  O   H1  H2  
O   H1  H2  O   H1  H2  O   H1  H2  O   H1  H2  O   H1  H2  O   H1  H2  O   H1  
H2  O   H1  H2  O   H1  H2  O   H1  H2  O   H1  H2  O   H1  H2  O   H1  H2  O   
H1  H2  O   H1  H2  O   H1  H2  O   H1  H2  O   H1  H2  O   H1  H2  O   H1  H2  
O   H1  H2  O   H1  H2  O   H1  H2  O   H1  H2  O   H1  H2  O   H1  H2  O   H1  
H2  O   H1  H2  O   H1  H2  O   H1  H2  O   H1  H2  O   H1  H2  O   H1  H2  O   
H1  H2  O   H1  H2  O   H1  H2  O   H1  H2  O   H1  H2  O   H1  H2  O   H1  H2  
O   H1  H2  O   H1  H2  O   H1  H2  O   H1  H2  O   H1  H2  O   H1  H2  O   H1  
H2  O   H1  H2  O   H1  H2  O   H1  H2  O   H1  H2  O   H1  H2  O   H1  H2  O   
H1  H2  O   H1  H2  O   H1  H2  O   H1  H2  O   H1  H2  O   H1  H2  O   H1  H2  
O   H1  H2  O   H1  H2  O   H1  H2  O   H1  H2  O   H1  H2  O   H1  H2  O   H1  
H2  O   H1  H2  O   H1  H2  O   H1  H2  O   H1  H2  O   H1  H2  O   H1  H2  O   
H1  H2  O   H1  H2  O   H1  H2  O   H1  H2  O   H1  H2  O   H1  H2  O   H1  H2  
O   H1  H2  O   H1  H2  O   H1  H2  O   H1  H2  O   H1  H2  O   H1  H2  O   H1  
H2  O   H1  H2  O   H1  H2  O   H1  H2  O   H1  H2  O   H1  H2  O   H1  H2  O   
H1  H2  O   H1  H2  O   H1  H2  O   H1  H2  O   H1  H2  O   H1  H2  O   H1  H2  
O   H1  H2  O   H1  H2  O   H1  H2  O   H1  H2  O   H1  H2  O   H1  H2  O   H1  
H2  O   H1  H2  O   H1  H2  O   H1  H2  O   H1  H2  O   H1  H2  O   H1  H2  O   
H1  H2  O   H1  H2  O   H1  H2  O   H1  H2  O   H1  H2  O   H1  H2  O   H1  H2  
O   H1  H2  O   H1  H2  O   H1  H2  O   H1  H2  O   H1  H2  O   H1  H2  O   H1  
H2  O   H1  H2  O   H1  H2  O   H1  H2  O   H1  H2  O   H1  H2  O   H1  H2  O   
H1  H2  O   H1  H2  O   H1  H2  O   H1  H2  O   H1  H2  O   H1  H2  O   H1  H2  
O   H1  H2  O   H1  H2  O   H1  H2  O   H1  H2  O   H1  H2  O   H1  H2  O   H1  
H2  O   H1  H2  O   H1  H2  O   H1  H2  O   H1  H2  O   H1  H2  O   H1  H2  O   
H1  H2  O   H1  H2  O   H1  H2  O   H1  H2  O   H1  H2  O   H1  H2  O   H1  H2  
O   H1  H2  O   H1  H2  O   H1  H2  O   H1  H2  O   H1  H2  O   H1  H2  O   H1  
H2  O   H1  H2  O   H1  H2  O   H1  H2  O   H1  H2  O   H1  H2  O   H1  H2  O   
H1  H2  O   H1  H2  O   H1  H2  O   H1  H2  O   H1  H2  O   H1  H2  O   H1  H2  
O   H1  H2  O   H1  H2  O   H1  H2  O   H1  H2  O   H1  H2  O   H1  H2  O   H1  
H2  O   H1  H2  O   H1  H2  O   H1  H2  O   H1  H2  O   H1  H2  O   H1  H2  O   
H1  H2  O   H1  H2  O   H1  H2  O   H1  H2  O   H1  H2  O   H1  H2  O   H1  H2  
O   H1  H2  O   H1  H2  O   H1  H2  O   H1  H2  O   H1  H2  O   H1  H2  O   H1  
H2  O   H1  H2  O   H1  H2  O   H1  H2  O   H1  H2  O   H1  H2  O   H1  H2  O   
H1  H2  O   H1  H2  O   H1  H2  O   H1  H2  O   H1  H2  O   H1  H2  O   H1  H2  
O   H1  H2  O   H1  H2  O   H1  H2  O   H1  H2  O   H1  H2  O   H1  H2  O   H1  
H2  O   H1  H2  O   H1  H2  O   H1  H2  O   H1  H2  O   H1  H2  O   H1  H2  O   
H1  H2  O   H1  H2  O   H1  H2  O   H1  H2  O   H1  H2  O   H1  H2  O   H1  H2  
O   H1  H2  O   H1  H2  O   H1  H2  O   H1  H2  O   H1  H2  O   H1  H2  O   H1  
H2  O   H1  H2  O   H1  H2  O   H1  H2  O   H1  H2  O   H1  H2  O   H1  H2  O   
H1  H2  O   H1  H2  O   H1  H2  O   H1  H2  O   H1  H2  O   H1  H2  O   H1  H2  
O   H1  H2  O   H1  H2  O   H1  H2  O   H1  H2  O   H1  H2  O   H1  H2  O   H1  
H2  O   H1  H2  O   H1  H2  O   H1  H2  O   H1  H2  O   H1  H2  O   H1  H2  O   
H1  H2  O   H1  H2  O   H1  H2  O   H1  H2  O   H1  H2  O   H1  H2  O   H1  H2  
O   H1  H2  O   H1  H2  O   H1  H2  O   H1  H2  O   H1  H2  O   H1  H2  O   H1  
H2  O   H1  H2  O   H1  H2  O   H1  H2  O   H1  H2  O   H1  H2  O   H1  H2  O   
H1  H2  O   H1  H2  O   H1  H2  O   H1  H2  O   H1  H2  O   H1  H2  O   H1  H2  
O   H1  H2  O   H1  H2  O   H1  H2  O   H1  H2  O   H1  H2  O   H1  H2  O   H1  
H2  O   H1  H2  O   H1  H2  O   H1  H2  O   H1  H2  O   H1  H2  O   H1  H2  O   
H1  H2  O   H1  H2  O   H1  H2  O   H1  H2  O   H1  H2  O   H1  H2  O   H1  H2  
O   H1  H2  O   H1  H2  O   H1  H2  O   H1  H2  O   H1  H2  O   H1  H2  O   H1  
H2  O   H1  H2  O   H1  H2  O   H1  H2  O   H1  H2  O   H1  H2  O   H1  H2  O   
H1  H2  O   H1  H2  O   H1  H2  O   H1  H2  O   H1  H2  O   H1  H2  O   H1  H2  
O   H1  H2  O   H1  H2  O   H1  H2  O   H1  H2  O   H1  H2  O   H1  H2  O   H1  
H2  O   H1  H2  O   H1  H2  O   H1  H2  O   H1  H2  O   H1  H2  O   H1  H2  O   
H1  H2  O   H1  H2  O   H1  H2  O   H1  H2  O   H1  H2  O   H1  H2  O   H1  H2  
O   H1  H2  O   H1  H2  O   H1  H2  O   H1  H2  O   H1  H2  O   H1  H2  O   H1  
H2  O   H1  H2  O   H1  H2  O   H1  H2  O   H1  H2  O   H1  H2  O   H1  H2  O   
H1  H2  O   H1  H2  O   H1  H2  O   H1  H2  O   H1  H2  O   H1  H2  O   H1  H2  
O   H1  H2  O   H1  H2  O   H1  H2  O   H1  H2  O   H1  H2  O   H1  H2  O   H1  
H2  O   H1  H2  O   H1  H2  O   H1  H2  O   H1  H2  O   H1  H2  O   H1  H2  O   
H1  H2  O   H1  H2  O   H1  H2  O   H1  H2  O   H1  H2  O   H1  H2  O   H1  H2  
O   H1  H2  O   H1  H2  O   H1  H2  O   H1  H2  O   H1  H2  O   H1  H2  O   H1  
H2  O   H1  H2  O   H1  H2  O   H1  H2  O   H1  H2  O   H1  H2  O   H1  H2  O   
H1  H2  O   H1  H2  O   H1  H2  O   H1  H2  O   H1  H2  O   H1  H2  O   H1  H2  
O   H1  H2  O   H1  H2  O   H1  H2  O   H1  H2  O   H1  H2  O   H1  H2  O   H1  
H2  O   H1  H2  O   H1  H2  O   H1  H2  O   H1  H2  O   H1  H2  O   H1  H2  O   
H1  H2  O   H1  H2  O   H1  H2  O   H1  H2  O   H1  H2  O   H1  H2  O   H1  H2  
O   H1  H2  O   H1  H2  O   H1  H2  O   H1  H2  O   H1  H2  O   H1  H2  O   H1  
H2  O   H1  H2  O   H1  H2  O   H1  H2  O   H1  H2  O   H1  H2  O   H1  H2  O   
H1  H2  O   H1  H2  O   H1  H2  O   H1  H2  O   H1  H2  O   H1  H2  O   H1  H2  
O   H1  H2  O   H1  H2  O   H1  H2  O   H1  H2  O   H1  H2  O   H1  H2  O   H1  
H2  O   H1  H2  O   H1  H2  O   H1  H2  O   H1  H2  O   H1  H2  O   H1  H2  O   
H1  H2  O   H1  H2  O   H1  H2  O   H1  H2  O   H1  H2  O   H1  H2  O   H1  H2  
O   H1  H2  O   H1  H2  O   H1  H2  O   H1  H2  O   H1  H2  O   H1  H2  O   H1  
H2  O   H1  H2  O   H1  H2  O   H1  H2  O   H1  H2  O   H1  H2  O   H1  H2  O   
H1  H2  O   H1  H2  O   H1  H2  O   H1  H2  O   H1  H2  O   H1  H2  O   H1  H2  
O   H1  H2  O   H1  H2  O   H1  H2  O   H1  H2  O   H1  H2  O   H1  H2  O   H1  
H2  O   H1  H2  O   H1  H2  O   H1  H2  O   H1  H2  O   H1  H2  O   H1  H2  O   
H1  H2  O   H1  H2  O   H1  H2  O   H1  H2  O   H1  H2  O   H1  H2  O   H1  H2  
O   H1  H2  O   H1  H2  O   H1  H2  O   H1  H2  O   H1  H2  O   H1  H2  O   H1  
H2  O   H1  H2  O   H1  H2  O   H1  H2  O   H1  H2  O   H1  H2  O   H1  H2  O   
H1  H2  O   H1  H2  O   H1  H2  O   H1  H2  O   H1  H2  O   H1  H2  O   H1  H2  
O   H1  H2  O   H1  H2  O   H1  H2  O   H1  H2  O   H1  H2  O   H1  H2  O   H1  
H2  O   H1  H2  O   H1  H2  O   H1  H2  O   H1  H2  O   H1  H2  O   H1  H2  O   
H1  H2  O   H1  H2  O   H1  H2  O   H1  H2  O   H1  H2  O   H1  H2  O   H1  H2  
O   H1  H2  O   H1  H2  O   H1  H2  O   H1  H2  O   H1  H2  O   H1  H2  O   H1  
H2  O   H1  H2  O   H1  H2  O   H1  H2  O   H1  H2  O   H1  H2  O   H1  H2  O   
H1  H2  O   H1  H2  O   H1  H2  O   H1  H2  O   H1  H2  O   H1  H2  O   H1  H2  
O   H1  H2  O   H1  H2  O   H1  H2  O   H1  H2  O   H1  H2  O   H1  H2  O   H1  
H2  O   H1  H2  O   H1  H2  O   H1  H2  O   H1  H2  O   H1  H2  O   H1  H2  O   
H1  H2  O   H1  H2  O   H1  H2  O   H1  H2  O   H1  H2  O   H1  H2  O   H1  H2  
O   H1  H2  O   H1  H2  O   H1  H2  O   H1  H2  O   H1  H2  O   H1  H2  O   H1  
H2  O   H1  H2  O   H1  H2  O   H1  H2  O   H1  H2  O   H1  H2  O   H1  H2  O   
H1  H2  O   H1  H2  O   H1  H2  O   H1  H2  O   H1  H2  O   H1  H2  O   H1  H2  
O   H1  H2  O   H1  H2  O   H1  H2  O   H1  H2  O   H1  H2  O   H1  H2  O   H1  
H2  O   H1  H2  O   H1  H2  O   H1  H2  O   H1  H2  O   H1  H2  O   H1  H2  O   
H1  H2  O   H1  H2  O   H1  H2  O   H1  H2  O   H1  H2  O   H1  H2  O   H1  H2  
O   H1  H2  O   H1  H2  O   H1  H2  O   H1  H2  O   H1  H2  O   H1  H2  O   H1  
H2  O   H1  H2  O   H1  H2  O   H1  H2  O   H1  H2  O   H1  H2  O   H1  H2  O   
H1  H2  O   H1  H2  O   H1  H2  O   H1  H2  O   H1  H2  O   H1  H2  O   H1  H2  
O   H1  H2  O   H1  H2  O   H1  H2  O   H1  H2  O   H1  H2  O   H1  H2  O   H1  
H2  O   H1  H2  O   H1  H2  O   H1  H2  O   H1  H2  O   H1  H2  O   H1  H2  O   
H1  H2  O   H1  H2  O   H1  H2  O   H1  H2  O   H1  H2  O   H1  H2  O   H1  H2  
O   H1  H2  O   H1  H2  O   H1  H2  O   H1  H2  O   H1  H2  O   H1  H2  O   H1  
H2  O   H1  H2  O   H1  H2  O   H1  H2  O   H1  H2  O   H1  H2  O   H1  H2  O   
H1  H2  O   H1  H2  O   H1  H2  O   H1  H2  O   H1  H2  O   H1  H2  O   H1  H2  
O   H1  H2  O   H1  H2  O   H1  H2  O   H1  H2  O   H1  H2  O   H1  H2  O   H1  
H2  O   H1  H2  O   H1  H2  O   H1  H2  O   H1  H2  O   H1  H2  O   H1  H2  O   
H1  H2  O   H1  H2  O   H1  H2  O   H1  H2  O   H1  H2  O   H1  H2  O   H1  H2  
O   H1  H2  O   H1  H2  O   H1  H2  O   H1  H2  O   H1  H2  O   H1  H2  O   H1  
H2  O   H1  H2  O   H1  H2  O   H1  H2  O   H1  H2  O   H1  H2  O   H1  H2  O   
H1  H2  O   H1  H2  O   H1  H2  O   H1  H2  O   H1  H2  O   H1  H2  O   H1  H2  
O   H1  H2  O   H1  H2  O   H1  H2  O   H1  H2  O   H1  H2  O   H1  H2  O   H1  
H2  O   H1  H2  O   H1  H2  O   H1  H2  O   H1  H2  O   H1  H2  O   H1  H2  O   
H1  H2  O   H1  H2  O   H1  H2  O   H1  H2  O   H1  H2  O   H1  H2  O   H1  H2  
O   H1  H2  O   H1  H2  O   H1  H2  O   H1  H2  O   H1  H2  O   H1  H2  O   H1  
H2  O   H1  H2  O   H1  H2  O   H1  H2  O   H1  H2  O   H1  H2  O   H1  H2  O   
H1  H2  O   H1  H2  O   H1  H2  O   H1  H2  O   H1  H2  O   H1  H2  O   H1  H2  
O   H1  H2  O   H1  H2  O   H1  H2  O   H1  H2  O   H1  H2  O   H1  H2  O   H1  
H2  O   H1  H2  O   H1  H2  O   H1  H2  O   H1  H2  O   H1  H2  O   H1  H2  O   
H1  H2  O   H1  H2  O   H1  H2  O   H1  H2  O   H1  H2  O   H1  H2  O   H1  H2  
O   H1  H2  O   H1  H2  O   H1  H2  O   H1  H2  O   H1  H2  O   H1  H2  O   H1  
H2  O   H1  H2  O   H1  H2  O   H1  H2  O   H1  H2  O   H1  H2  O   H1  H2  O   
H1  H2  O   H1  H2  O   H1  H2  O   H1  H2  O   H1  H2  O   H1  H2  O   H1  H2  
O   H1  H2  O   H1  H2  O   H1  H2  O   H1  H2  O   H1  H2  O   H1  H2  O   H1  
H2  O   H1  H2  O   H1  H2  O   H1  H2  O   H1  H2  O   H1  H2  O   H1  H2  O   
H1  H2  O   H1  H2  O   H1  H2  O   H1  H2  O   H1  H2  O   H1  H2  O   H1  H2  
O   H1  H2  O   H1  H2  O   H1  H2  O   H1  H2  O   H1  H2  O   H1  H2  O   H1  
H2  O   H1  H2  O   H1  H2  O   H1  H2  O   H1  H2  O   H1  H2  O   H1  H2  O   
H1  H2  O   H1  H2  O   H1  H2  O   H1  H2  O   H1  H2  O   H1  H2  O   H1  H2  
O   H1  H2  O   H1  H2  O   H1  H2  O   H1  H2  O   H1  H2  O   H1  H2  O   H1  
H2  O   H1  H2  O   H1  H2  O   H1  H2  O   H1  H2  O   H1  H2  O   H1  H2  O   
H1  H2  O   H1  H2  O   H1  H2  O   H1  H2  O   H1  H2  O   H1  H2  O   H1  H2  
O   H1  H2  O   H1  H2  O   H1  H2  O   H1  H2  O   H1  H2  O   H1  H2  O   H1  
H2  O   H1  H2  O   H1  H2  O   H1  H2  O   H1  H2  O   H1  H2  O   H1  H2  O   
H1  H2  O   H1  H2  O   H1  H2  O   H1  H2  O   H1  H2  O   H1  H2  O   H1  H2  
O   H1  H2  O   H1  H2  O   H1  H2  O   H1  H2  O   H1  H2  O   H1  H2  O   H1  
H2  O   H1  H2  O   H1  H2  O   H1  H2  O   H1  H2  O   H1  H2  O   H1  H2  O   
H1  H2  O   H1  H2  O   H1  H2  O   H1  H2  O   H1  H2  O   H1  H2  O   H1  H2  
O   H1  H2  O   H1  H2  O   H1  H2  O   H1  H2  O   H1  H2  O   H1  H2  O   H1  
H2  O   H1  H2  O   H1  H2  O   H1  H2  O   H1  H2  O   H1  H2  O   H1  H2  O   
H1  H2  O   H1  H2  O   H1  H2  O   H1  H2  O   H1  H2  O   H1  H2  O   H1  H2  
O   H1  H2  O   H1  H2  O   H1  H2  O   H1  H2  O   H1  H2  O   H1  H2  O   H1  
H2  O   H1  H2  O   H1  H2  O   H1  H2  O   H1  H2  O   H1  H2  O   H1  H2  O   
H1  H2  O   H1  H2  O   H1  H2  O   H1  H2  O   H1  H2  O   H1  H2  O   H1  H2  
O   H1  H2  O   H1  H2  O   H1  H2  O   H1  H2  O   H1  H2  O   H1  H2  O   H1  
H2  O   H1  H2  O   H1  H2  O   H1  H2  O   H1  H2  O   H1  H2  O   H1  H2  O   
H1  H2  O   H1  H2  O   H1  H2  O   H1  H2  O   H1  H2  O   H1  H2  O   H1  H2  
O   H1  H2  O   H1  H2  O   H1  H2  O   H1  H2  O   H1  H2  O   H1  H2  O   H1  
H2  O   H1  H2  O   H1  H2  O   H1  H2  O   H1  H2  O   H1  H2  O   H1  H2  O   
H1  H2  O   H1  H2  O   H1  H2  O   H1  H2  O   H1  H2  O   H1  H2  O   H1  H2  
O   H1  H2  O   H1  H2  O   H1  H2  O   H1  H2  O   H1  H2  O   H1  H2  O   H1  
H2  O   H1  H2  O   H1  H2  O   H1  H2  O   H1  H2  O   H1  H2  O   H1  H2  O   
H1  H2  O   H1  H2  O   H1  H2  O   H1  H2  O   H1  H2  O   H1  H2  O   H1  H2  
O   H1  H2  O   H1  H2  O   H1  H2  O   H1  H2  O   H1  H2  O   H1  H2  O   H1  
H2  O   H1  H2  O   H1  H2  O   H1  H2  O   H1  H2  O   H1  H2  O   H1  H2  O   
H1  H2  O   H1  H2  O   H1  H2  O   H1  H2  O   H1  H2  O   H1  H2  O   H1  H2  
O   H1  H2  O   H1  H2  O   H1  H2  O   H1  H2  O   H1  H2  O   H1  H2  O   H1  
H2  O   H1  H2  O   H1  H2  O   H1  H2  O   H1  H2  O   H1  H2  O   H1  H2  O   
H1  H2  O   H1  H2  O   H1  H2  O   H1  H2  O   H1  H2  O   H1  H2  O   H1  H2  
O   H1  H2  O   H1  H2  O   H1  H2  O   H1  H2  O   H1  H2  O   H1  H2  O   H1  
H2  O   H1  H2  O   H1  H2  O   H1  H2  O   H1  H2  O   H1  H2  O   H1  H2  O   
H1  H2  O   H1  H2  O   H1  H2  O   H1  H2  O   H1  H2  O   H1  H2  O   H1  H2  
O   H1  H2  O   H1  H2  O   H1  H2  O   H1  H2  O   H1  H2  O   H1  H2  O   H1  
H2  O   H1  H2  O   H1  H2  O   H1  H2  O   H1  H2  O   H1  H2  O   H1  H2  O   
H1  H2  O   H1  H2  O   H1  H2  O   H1  H2  O   H1  H2  O   H1  H2  O   H1  H2  
O   H1  H2  O   H1  H2  O   H1  H2  O   H1  H2  O   H1  H2  O   H1  H2  O   H1  
H2  O   H1  H2  O   H1  H2  O   H1  H2  O   H1  H2  O   H1  H2  O   H1  H2  O   
H1  H2  O   H1  H2  O   H1  H2  O   H1  H2  O   H1  H2  O   H1  H2  O   H1  H2  
O   H1  H2  O   H1  H2  O   H1  H2  O   H1  H2  O   H1  H2  O   H1  H2  O   H1  
H2  O   H1  H2  O   H1  H2  O   H1  H2  O   H1  H2  O   H1  H2  O   H1  H2  O   
H1  H2  O   H1  H2  O   H1  H2  O   H1  H2  O   H1  H2  O   H1  H2  O   H1  H2  
O   H1  H2  O   H1  H2  O   H1  H2  O   H1  H2  O   H1  H2  O   H1  H2  O   H1  
H2  O   H1  H2  O   H1  H2  O   H1  H2  O   H1  H2  O   H1  H2  O   H1  H2  O   
H1  H2  O   H1  H2  O   H1  H2  O   H1  H2  O   H1  H2  O   H1  H2  O   H1  H2  
O   H1  H2  O   H1  H2  O   H1  H2  O   H1  H2  O   H1  H2  O   H1  H2  O   H1  
H2  O   H1  H2  O   H1  H2  O   H1  H2  O   H1  H2  O   H1  H2  O   H1  H2  O   
H1  H2  O   H1  H2  O   H1  H2  O   H1  H2  O   H1  H2  O   H1  H2  O   H1  H2  
O   H1  H2  O   H1  H2  O   H1  H2  O   H1  H2  O   H1  H2  O   H1  H2  O   H1  
H2  O   H1  H2  O   H1  H2  O   H1  H2  O   H1  H2  O   H1  H2  O   H1  H2  O   
H1  H2  O   H1  H2  O   H1  H2  O   H1  H2  O   H1  H2  O   H1  H2  O   H1  H2  
O   H1  H2  O   H1  H2  O   H1  H2  O   H1  H2  O   H1  H2  O   H1  H2  O   H1  
H2  O   H1  H2  O   H1  H2  O   H1  H2  O   H1  H2  O   H1  H2  O   H1  H2  O   
H1  H2  O   H1  H2  O   H1  H2  O   H1  H2  O   H1  H2  O   H1  H2  O   H1  H2  
O   H1  H2  O   H1  H2  O   H1  H2  O   H1  H2  O   H1  H2  O   H1  H2  O   H1  
H2  O   H1  H2  O   H1  H2  O   H1  H2  O   H1  H2  O   H1  H2  O   H1  H2  O   
H1  H2  O   H1  H2  O   H1  H2  O   H1  H2  O   H1  H2  O   H1  H2  O   H1  H2  
O   H1  H2  O   H1  H2  O   H1  H2  O   H1  H2  O   H1  H2  O   H1  H2  O   H1  
H2  O   H1  H2  O   H1  H2  O   H1  H2  O   H1  H2  O   H1  H2  O   H1  H2  O   
H1  H2  O   H1  H2  O   H1  H2  O   H1  H2  O   H1  H2  O   H1  H2  O   H1  H2  
O   H1  H2  O   H1  H2  O   H1  H2  O   H1  H2  O   H1  H2  O   H1  H2  O   H1  
H2  O   H1  H2  O   H1  H2  O   H1  H2  O   H1  H2  O   H1  H2  O   H1  H2  O   
H1  H2  O   H1  H2  O   H1  H2  O   H1  H2  O   H1  H2  O   H1  H2  O   H1  H2  
O   H1  H2  O   H1  H2  O   H1  H2  O   H1  H2  O   H1  H2  O   H1  H2  O   H1  
H2  O   H1  H2  O   H1  H2  O   H1  H2  O   H1  H2  O   H1  H2  O   H1  H2  O   
H1  H2  O   H1  H2  O   H1  H2  O   H1  H2  O   H1  H2  O   H1  H2  O   H1  H2  
O   H1  H2  O   H1  H2  O   H1  H2  O   H1  H2  O   H1  H2  O   H1  H2  O   H1  
H2  O   H1  H2  O   H1  H2  O   H1  H2  O   H1  H2  O   H1  H2  O   H1  H2  O   
H1  H2  O   H1  H2  O   H1  H2  O   H1  H2  O   H1  H2  O   H1  H2  O   H1  H2  
O   H1  H2  O   H1  H2  O   H1  H2  O   H1  H2  O   H1  H2  O   H1  H2  O   H1  
H2  O   H1  H2  O   H1  H2  O   H1  H2  O   H1  H2  O   H1  H2  O   H1  H2  O   
H1  H2  O   H1  H2  O   H1  H2  O   H1  H2  O   H1  H2  O   H1  H2  O   H1  H2  
O   H1  H2  O   H1  H2  O   H1  H2  O   H1  H2  O   H1  H2  O   H1  H2  O   H1  
H2  O   H1  H2  O   H1  H2  O   H1  H2  O   H1  H2  O   H1  H2  O   H1  H2  O   
H1  H2  O   H1  H2  O   H1  H2  O   H1  H2  O   H1  H2  O   H1  H2  O   H1  H2  
O   H1  H2  O   H1  H2  O   H1  H2  O   H1  H2  O   H1  H2  O   H1  H2  O   H1  
H2  O   H1  H2  O   H1  H2  O   H1  H2  O   H1  H2  O   H1  H2  O   H1  H2  O   
H1  H2  O   H1  H2  O   H1  H2  O   H1  H2  O   H1  H2  O   H1  H2  O   H1  H2  
O   H1  H2  O   H1  H2  O   H1  H2  O   H1  H2  O   H1  H2  O   H1  H2  O   H1  
H2  O   H1  H2  O   H1  H2  O   H1  H2  O   H1  H2  O   H1  H2  O   H1  H2  O   
H1  H2  O   H1  H2  O   H1  H2  O   H1  H2  O   H1  H2  O   H1  H2  O   H1  H2  
O   H1  H2  O   H1  H2  O   H1  H2  O   H1  H2  O   H1  H2  O   H1  H2  O   H1  
H2  O   H1  H2  O   H1  H2  O   H1  H2  O   H1  H2  O   H1  H2  O   H1  H2  O   
H1  H2  O   H1  H2  O   H1  H2  O   H1  H2  O   H1  H2  O   H1  H2  O   H1  H2  
O   H1  H2  O   H1  H2  O   H1  H2  O   H1  H2  O   H1  H2  O   H1  H2  O   H1  
H2  O   H1  H2  O   H1  H2  O   H1  H2  O   H1  H2  O   H1  H2  O   H1  H2  O   
H1  H2  O   H1  H2  O   H1  H2  O   H1  H2  O   H1  H2  O   H1  H2  O   H1  H2  
O   H1  H2  O   H1  H2  O   H1  H2  O   H1  H2  O   H1  H2  O   H1  H2  O   H1  
H2  O   H1  H2  O   H1  H2  O   H1  H2  O   H1  H2  O   H1  H2  O   H1  H2  O   
H1  H2  O   H1  H2  O   H1  H2  O   H1  H2  O   H1  H2  O   H1  H2  O   H1  H2  
O   H1  H2  O   H1  H2  O   H1  H2  O   H1  H2  O   H1  H2  O   H1  H2  O   H1  
H2  O   H1  H2  O   H1  H2  O   H1  H2  O   H1  H2  O   H1  H2  O   H1  H2  O   
H1  H2  O   H1  H2  O   H1  H2  O   H1  H2  O   H1  H2  O   H1  H2  O   H1  H2  
O   H1  H2  O   H1  H2  O   H1  H2  O   H1  H2  O   H1  H2  O   H1  H2  O   H1  
H2  O   H1  H2  O   H1  H2  O   H1  H2  O   H1  H2  O   H1  H2  O   H1  H2  O   
H1  H2  O   H1  H2  O   H1  H2  O   H1  H2  O   H1  H2  O   H1  H2  O   H1  H2  
O   H1  H2  O   H1  H2  O   H1  H2  O   H1  H2  O   H1  H2  O   H1  H2  O   H1  
H2  O   H1  H2  O   H1  H2  O   H1  H2  O   H1  H2  O   H1  H2  O   H1  H2  O   
H1  H2  O   H1  H2  O   H1  H2  O   H1  H2  O   H1  H2  O   H1  H2  O   H1  H2  
O   H1  H2  O   H1  H2  O   H1  H2  O   H1  H2  O   H1  H2  O   H1  H2  O   H1  
H2  O   H1  H2  O   H1  H2  O   H1  H2  O   H1  H2  O   H1  H2  O   H1  H2  O   
H1  H2  O   H1  H2  O   H1  H2  O   H1  H2  O   H1  H2  O   H1  H2  O   H1  H2  
O   H1  H2  O   H1  H2  O   H1  H2  O   H1  H2  O   H1  H2  O   H1  H2  O   H1  
H2  O   H1  H2  O   H1  H2  O   H1  H2  O   H1  H2  O   H1  H2  O   H1  H2  O   
H1  H2  O   H1  H2  O   H1  H2  O   H1  H2  O   H1  H2  O   H1  H2  O   H1  H2  
O   H1  H2  O   H1  H2  O   H1  H2  O   H1  H2  O   H1  H2  O   H1  H2  O   H1  
H2  O   H1  H2  O   H1  H2  O   H1  H2  O   H1  H2  O   H1  H2  O   H1  H2  O   
H1  H2  O   H1  H2  O   H1  H2  O   H1  H2  O   H1  H2  O   H1  H2  O   H1  H2  
O   H1  H2  O   H1  H2  O   H1  H2  O   H1  H2  O   H1  H2  O   H1  H2  O   H1  
H2  O   H1  H2  O   H1  H2  O   H1  H2  O   H1  H2  O   H1  H2  O   H1  H2  O   
H1  H2  O   H1  H2  O   H1  H2  O   H1  H2  O   H1  H2  O   H1  H2  O   H1  H2  
O   H1  H2  O   H1  H2  O   H1  H2  O   H1  H2  O   H1  H2  O   H1  H2  O   H1  
H2  O   H1  H2  O   H1  H2  O   H1  H2  O   H1  H2  O   H1  H2  O   H1  H2  O   
H1  H2  O   H1  H2  O   H1  H2  O   H1  H2  O   H1  H2  O   H1  H2  O   H1  H2  
O   H1  H2  O   H1  H2  O   H1  H2  O   H1  H2  O   H1  H2  O   H1  H2  O   H1  
H2  O   H1  H2  O   H1  H2  O   H1  H2  O   H1  H2  O   H1  H2  O   H1  H2  O   
H1  H2  O   H1  H2  O   H1  H2  O   H1  H2  O   H1  H2  O   H1  H2  O   H1  H2  
O   H1  H2  O   H1  H2  O   H1  H2  O   H1  H2  O   H1  H2  O   H1  H2  O   H1  
H2  O   H1  H2  O   H1  H2  O   H1  H2  O   H1  H2  O   H1  H2  O   H1  H2  O   
H1  H2  O   H1  H2  O   H1  H2  O   H1  H2  O   H1  H2  O   H1  H2  O   H1  H2  
O   H1  H2  O   H1  H2  O   H1  H2  O   H1  H2  O   H1  H2  O   H1  H2  O   H1  
H2  O   H1  H2  O   H1  H2  O   H1  H2  O   H1  H2  O   H1  H2  O   H1  H2  O   
H1  H2  O   H1  H2  O   H1  H2  O   H1  H2  O   H1  H2  O   H1  H2  O   H1  H2  
O   H1  H2  O   H1  H2  O   H1  H2  O   H1  H2  O   H1  H2  O   H1  H2  O   H1  
H2  O   H1  H2  O   H1  H2  O   H1  H2  O   H1  H2  O   H1  H2  O   H1  H2  O   
H1  H2  O   H1  H2  O   H1  H2  O   H1  H2  O   H1  H2  O   H1  H2  O   H1  H2  
O   H1  H2  O   H1  H2  O   H1  H2  O   H1  H2  O   H1  H2  O   H1  H2  O   H1  
H2  O   H1  H2  O   H1  H2  O   H1  H2  O   H1  H2  O   H1  H2  O   H1  H2  O   
H1  H2  O   H1  H2  O   H1  H2  O   H1  H2  O   H1  H2  O   H1  H2  O   H1  H2  
O   H1  H2  O   H1  H2  O   H1  H2  O   H1  H2  O   H1  H2  O   H1  H2  O   H1  
H2  O   H1  H2  O   H1  H2  O   H1  H2  O   H1  H2  O   H1  H2  O   H1  H2  O   
H1  H2  O   H1  H2  O   H1  H2  O   H1  H2  O   H1  H2  O   H1  H2  O   H1  H2  
O   H1  H2  O   H1  H2  O   H1  H2  O   H1  H2  O   H1  H2  O   H1  H2  O   H1  
H2  O   H1  H2  O   H1  H2  O   H1  H2  O   H1  H2  O   H1  H2  O   H1  H2  O   
H1  H2  O   H1  H2  O   H1  H2  O   H1  H2  O   H1  H2  O   H1  H2  O   H1  H2  
O   H1  H2  O   H1  H2  O   H1  H2  O   H1  H2  O   H1  H2  O   H1  H2  O   H1  
H2  O   H1  H2  O   H1  H2  O   H1  H2  O   H1  H2  O   H1  H2  O   H1  H2  O   
H1  H2  O   H1  H2  O   H1  H2  O   H1  H2  O   H1  H2  O   H1  H2  O   H1  H2  
O   H1  H2  O   H1  H2  O   H1  H2  O   H1  H2  O   H1  H2  O   H1  H2  O   H1  
H2  O   H1  H2  O   H1  H2  O   H1  H2  O   H1  H2  O   H1  H2  O   H1  H2  O   
H1  H2  O   H1  H2  O   H1  H2  O   H1  H2  O   H1  H2  O   H1  H2  O   H1  H2  
O   H1  H2  O   H1  H2  O   H1  H2  O   H1  H2  O   H1  H2  O   H1  H2  O   H1  
H2  O   H1  H2  O   H1  H2  O   H1  H2  O   H1  H2  O   H1  H2  O   H1  H2  O   
H1  H2  O   H1  H2  O   H1  H2  O   H1  H2  O   H1  H2  O   H1  H2  O   H1  H2  
O   H1  H2  O   H1  H2  O   H1  H2  O   H1  H2  O   H1  H2  O   H1  H2  O   H1  
H2  O   H1  H2  O   H1  H2  O   H1  H2  O   H1  H2  O   H1  H2  O   H1  H2  O   
H1  H2  O   H1  H2  O   H1  H2  O   H1  H2  O   H1  H2  O   H1  H2  O   H1  H2  
O   H1  H2  O   H1  H2  O   H1  H2  O   H1  H2  O   H1  H2  O   H1  H2  O   H1  
H2  O   H1  H2  O   H1  H2  O   H1  H2  O   H1  H2  O   H1  H2  O   H1  H2  O   
H1  H2  O   H1  H2  O   H1  H2  O   H1  H2  O   H1  H2  O   H1  H2  O   H1  H2  
O   H1  H2  O   H1  H2  O   H1  H2  O   H1  H2  O   H1  H2  O   H1  H2  O   H1  
H2  O   H1  H2  O   H1  H2  O   H1  H2  O   H1  H2  O   H1  H2  O   H1  H2  O   
H1  H2  O   H1  H2  O   H1  H2  O   H1  H2  O   H1  H2  O   H1  H2  O   H1  H2  
O   H1  H2  O   H1  H2  O   H1  H2  O   H1  H2  O   H1  H2  O   H1  H2  O   H1  
H2  O   H1  H2  O   H1  H2  O   H1  H2  O   H1  H2  O   H1  H2  O   H1  H2  O   
H1  H2  O   H1  H2  O   H1  H2  O   H1  H2  O   H1  H2  O   H1  H2  O   H1  H2  
O   H1  H2  O   H1  H2  O   H1  H2  O   H1  H2  O   H1  H2  O   H1  H2  O   H1  
H2  O   H1  H2  O   H1  H2  O   H1  H2  O   H1  H2  O   H1  H2  O   H1  H2  O   
H1  H2  O   H1  H2  O   H1  H2  O   H1  H2  O   H1  H2  O   H1  H2  O   H1  H2  
O   H1  H2  O   H1  H2  O   H1  H2  O   H1  H2  O   H1  H2  O   H1  H2  O   H1  
H2  O   H1  H2  O   H1  H2  O   H1  H2  O   H1  H2  O   H1  H2  O   H1  H2  O   
H1  H2  O   H1  H2  O   H1  H2  O   H1  H2  O   H1  H2  O   H1  H2  O   H1  H2  
O   H1  H2  O   H1  H2  O   H1  H2  O   H1  H2  O   H1  H2  O   H1  H2  O   H1  
H2  O   H1  H2  O   H1  H2  O   H1  H2  O   H1  H2  O   H1  H2  O   H1  H2  O   
H1  H2  O   H1  H2  O   H1  H2  O   H1  H2  O   H1  H2  O   H1  H2  O   H1  H2  
O   H1  H2  O   H1  H2  O   H1  H2  O   H1  H2  O   H1  H2  O   H1  H2  O   H1  
H2  O   H1  H2  O   H1  H2  O   H1  H2  O   H1  H2  O   H1  H2  O   H1  H2  O   
H1  H2  O   H1  H2  O   H1  H2  O   H1  H2  O   H1  H2  O   H1  H2  O   H1  H2  
O   H1  H2  O   H1  H2  O   H1  H2  O   H1  H2  O   H1  H2  O   H1  H2  O   H1  
H2  O   H1  H2  O   H1  H2  O   H1  H2  O   H1  H2  O   H1  H2  O   H1  H2  O   
H1  H2  O   H1  H2  O   H1  H2  O   H1  H2  O   H1  H2  O   H1  H2  O   H1  H2  
O   H1  H2  O   H1  H2  O   H1  H2  O   H1  H2  O   H1  H2  O   H1  H2  O   H1  
H2  O   H1  H2  O   H1  H2  O   H1  H2  O   H1  H2  O   H1  H2  O   H1  H2  O   
H1  H2  O   H1  H2  O   H1  H2  O   H1  H2  O   H1  H2  O   H1  H2  O   H1  H2  
O   H1  H2  O   H1  H2  O   H1  H2  O   H1  H2  O   H1  H2  O   H1  H2  O   H1  
H2  O   H1  H2  O   H1  H2  O   H1  H2  O   H1  H2  O   H1  H2  O   H1  H2  O   
H1  H2  O   H1  H2  O   H1  H2  O   H1  H2  O   H1  H2  O   H1  H2  O   H1  H2  
O   H1  H2  O   H1  H2  O   H1  H2  O   H1  H2  O   H1  H2  O   H1  H2  O   H1  
H2  O   H1  H2  O   H1  H2  O   H1  H2  O   H1  H2  O   H1  H2  O   H1  H2  O   
H1  H2  O   H1  H2  O   H1  H2  O   H1  H2  O   H1  H2  O   H1  H2  O   H1  H2  
O   H1  H2  O   H1  H2  O   H1  H2  O   H1  H2  O   H1  H2  O   H1  H2  O   H1  
H2  O   H1  H2  O   H1  H2  O   H1  H2  O   H1  H2  O   H1  H2  O   H1  H2  O   
H1  H2  O   H1  H2  O   H1  H2  O   H1  H2  O   H1  H2  O   H1  H2  O   H1  H2  
O   H1  H2  O   H1  H2  O   H1  H2  O   H1  H2  O   H1  H2  O   H1  H2  O   H1  
H2  O   H1  H2  O   H1  H2  O   H1  H2  O   H1  H2  O   H1  H2  O   H1  H2  O   
H1  H2  O   H1  H2  O   H1  H2  O   H1  H2  O   H1  H2  O   H1  H2  O   H1  H2  
O   H1  H2  O   H1  H2  O   H1  H2  O   H1  H2  O   H1  H2  O   H1  H2  O   H1  
H2  O   H1  H2  O   H1  H2  O   H1  H2  O   H1  H2  O   H1  H2  O   H1  H2  O   
H1  H2  O   H1  H2  O   H1  H2  O   H1  H2  O   H1  H2  O   H1  H2  O   H1  H2  
O   H1  H2  O   H1  H2  O   H1  H2  O   H1  H2  O   H1  H2  O   H1  H2  O   H1  
H2  O   H1  H2  O   H1  H2  O   H1  H2  O   H1  H2  O   H1  H2  O   H1  H2  O   
H1  H2  O   H1  H2  O   H1  H2  O   H1  H2  O   H1  H2  O   H1  H2  O   H1  H2  
O   H1  H2  O   H1  H2  O   H1  H2  O   H1  H2  O   H1  H2  O   H1  H2  O   H1  
H2  O   H1  H2  O   H1  H2  O   H1  H2  O   H1  H2  O   H1  H2  O   H1  H2  O   
H1  H2  O   H1  H2  O   H1  H2  O   H1  H2  O   H1  H2  O   H1  H2  O   H1  H2  
O   H1  H2  O   H1  H2  O   H1  H2  O   H1  H2  O   H1  H2  O   H1  H2  O   H1  
H2  O   H1  H2  O   H1  H2  O   H1  H2  O   H1  H2  O   H1  H2  O   H1  H2  O   
H1  H2  O   H1  H2  O   H1  H2  O   H1  H2  O   H1  H2  O   H1  H2  O   H1  H2  
O   H1  H2  O   H1  H2  O   H1  H2  O   H1  H2  O   H1  H2  O   H1  H2  O   H1  
H2  O   H1  H2  O   H1  H2  O   H1  H2  O   H1  H2  O   H1  H2  O   H1  H2  O   
H1  H2  O   H1  H2  O   H1  H2  O   H1  H2  O   H1  H2  O   H1  H2  O   H1  H2  
O   H1  H2  O   H1  H2  O   H1  H2  O   H1  H2  O   H1  H2  O   H1  H2  O   H1  
H2  O   H1  H2  O   H1  H2  O   H1  H2  O   H1  H2  O   H1  H2  O   H1  H2  O   
H1  H2  O   H1  H2  O   H1  H2  O   H1  H2  O   H1  H2  O   H1  H2  O   H1  H2  
O   H1  H2  O   H1  H2  O   H1  H2  O   H1  H2  O   H1  H2  O   H1  H2  O   H1  
H2  O   H1  H2  O   H1  H2  O   H1  H2  O   H1  H2  O   H1  H2  O   H1  H2  O   
H1  H2  O   H1  H2  O   H1  H2  O   H1  H2  O   H1  H2  O   H1  H2  O   H1  H2  
O   H1  H2  O   H1  H2  O   H1  H2  O   H1  H2  O   H1  H2  O   H1  H2  O   H1  
H2  O   H1  H2  O   H1  H2  O   H1  H2  O   H1  H2  O   H1  H2  O   H1  H2  O   
H1  H2  O   H1  H2  
%FLAG CHARGE                                                                    
%FORMAT(5E16.8)                                                                 
 -6.21420519E+00 -3.90221443E+00 -3.74650488E-02 -5.39753637E+00 -5.39753637E+00
 -3.74650488E-02 -3.90221443E+00 -6.21420519E+00 -3.90221443E+00 -3.74650488E-02
 -5.39753637E+00 -5.39753637E+00 -3.74650488E-02 -3.90221443E+00  1.65422039E+00
  1.65422039E+00  4.93817041E+00  4.41327706E+00  4.73484599E+00  4.73484599E+00
  4.41327706E+00  4.93817041E+00  4.41327706E+00  4.73484599E+00  4.73484599E+00
  4.41327706E+00 -7.32694083E+00  3.13350671E+00  3.13350671E+00 -8.31850728E+00
  4.72026815E+00  5.65802415E-02  1.47683541E+00  5.65802415E-02 -7.38968932E-01
 -1.93711249E+00 -1.49838328E+00 -7.38968932E-01 -2.99703990E+00  1.47683541E+00
  1.24995867E+00 -2.34794336E-01 -2.49153508E-01 -1.16934321E+00  3.56482855E-01
 -5.08210836E+00 -7.69053949E-01 -1.84865234E-01 -8.85550935E+00  8.11949243E-01
  9.46101816E-01 -1.08842891E+01 -5.61011772E+00  4.30228503E+00 -1.10303409E+01
 -2.69453150E-01 -1.14920757E+01  4.72026815E+00 -8.31850728E+00  1.76653354E+00
  2.16713258E+00  1.04561380E+00  1.04561380E+00  1.76653354E+00  2.16713258E+00
  9.40398236E-01  9.40398236E-01  5.66932198E-01  5.66932198E-01  6.40112954E-01
  6.40112954E-01  1.02405682E+00  1.02405682E+00  2.48758084E+00  2.73688013E+00
  6.83959453E+00  2.03167712E+00  1.63659943E+00  1.63659943E+00  6.75642795E+00
  1.95532568E+00  8.13197471E+00  2.55369134E+00  8.19646343E+00 -8.31850728E+00
  4.72026815E+00  5.65802415E-02  1.47683541E+00  5.65802415E-02 -7.38968932E-01
 -2.99703990E+00 -1.49838328E+00 -7.38968932E-01 -2.99703990E+00  1.47683541E+00
  1.24995867E+00 -2.34794336E-01 -2.49153508E-01 -1.16934321E+00  3.56482855E-01
 -5.08210836E+00 -7.69053949E-01 -1.84865234E-01 -8.85550935E+00  8.11949243E-01
  9.46101816E-01 -1.08842891E+01 -5.61011772E+00  4.30228503E+00 -1.10303409E+01
 -2.69453150E-01 -1.14920757E+01  4.72026815E+00 -8.31850728E+00  1.76653354E+00
  2.16713258E+00  1.04561380E+00  1.04561380E+00  1.76653354E+00  2.16713258E+00
  9.40398236E-01  9.40398236E-01  5.66932198E-01  5.66932198E-01  6.40112954E-01
  6.40112954E-01  1.02405682E+00  1.02405682E+00  2.48758084E+00  2.73688013E+00
  6.83959453E+00  2.03167712E+00  1.63659943E+00  1.63659943E+00  6.75642795E+00
  1.95532568E+00  8.13197471E+00  2.55369134E+00  8.19646343E+00 -8.31850728E+00
  4.72026815E+00  5.65802415E-02  1.47683541E+00  5.65802415E-02 -7.38968932E-01
 -2.99703990E+00 -1.49838328E+00 -7.38968932E-01 -2.99703990E+00  1.47683541E+00
  1.24995867E+00 -2.34794336E-01 -2.49153508E-01 -1.16934321E+00  3.56482855E-01
 -5.08210836E+00 -7.69053949E-01 -1.84865234E-01 -8.85550935E+00  8.11949243E-01
  9.46101816E-01 -1.08842891E+01 -5.61011772E+00  4.30228503E+00 -1.10303409E+01
 -2.69453150E-01 -1.14920757E+01  4.72026815E+00 -8.31850728E+00  1.76653354E+00
  2.16713258E+00  1.04561380E+00  1.04561380E+00  1.76653354E+00  2.16713258E+00
  9.40398236E-01  9.40398236E-01  5.66932198E-01  5.66932198E-01  6.40112954E-01
  6.40112954E-01  1.02405682E+00  1.02405682E+00  2.48758084E+00  2.73688013E+00
  6.83959453E+00  2.03167712E+00  1.63659943E+00  1.63659943E+00  6.75642795E+00
  1.95532568E+00  8.13197471E+00  2.55369134E+00  8.19646343E+00 -8.31850728E+00
  4.72026815E+00  5.65802415E-02  1.47683541E+00  5.65802415E-02 -7.38968932E-01
 -2.99703990E+00 -1.49838328E+00 -7.38968932E-01 -2.99703990E+00  1.47683541E+00
  1.24995867E+00 -2.34794336E-01 -2.49153508E-01 -1.16934321E+00  3.56482855E-01
 -5.08210836E+00 -7.69053949E-01 -1.84865234E-01 -8.85550935E+00  8.11949243E-01
  9.46101816E-01 -1.08842891E+01 -5.61011772E+00  4.30228503E+00 -1.10303409E+01
 -2.69453150E-01 -1.14920757E+01  4.72026815E+00 -8.31850728E+00  1.76653354E+00
  2.16713258E+00  1.04561380E+00  1.04561380E+00  1.76653354E+00  2.16713258E+00
  9.40398236E-01  9.40398236E-01  5.66932198E-01  5.66932198E-01  6.40112954E-01
  6.40112954E-01  1.02405682E+00  1.02405682E+00  2.48758084E+00  2.73688013E+00
  6.83959453E+00  2.03167712E+00  1.63659943E+00  1.63659943E+00  6.75642795E+00
  1.95532568E+00  8.13197471E+00  2.55369134E+00  8.19646343E+00 -8.31850728E+00
  4.72026815E+00  5.65802415E-02  1.47683541E+00  5.65802415E-02 -7.38968932E-01
 -2.99703990E+00 -1.49838328E+00 -7.38968932E-01 -2.99703990E+00  1.47683541E+00
  1.24995867E+00 -2.34794336E-01 -2.49153508E-01 -1.16934321E+00  3.56482855E-01
 -5.08210836E+00 -7.69053949E-01 -1.84865234E-01 -8.85550935E+00  8.11949243E-01
  9.46101816E-01 -1.08842891E+01 -5.61011772E+00  4.30228503E+00 -1.10303409E+01
 -2.69453150E-01 -1.14920757E+01  4.72026815E+00 -8.31850728E+00  1.76653354E+00
  2.16713258E+00  1.04561380E+00  1.04561380E+00  1.76653354E+00  2.16713258E+00
  9.40398236E-01  9.40398236E-01  5.66932198E-01  5.66932198E-01  6.40112954E-01
  6.40112954E-01  1.02405682E+00  1.02405682E+00  2.48758084E+00  2.73688013E+00
  6.83959453E+00  2.03167712E+00  1.63659943E+00  1.63659943E+00  6.75642795E+00
  1.95532568E+00  8.13197471E+00  2.55369134E+00  8.19646343E+00 -8.31850728E+00
  4.72026815E+00  5.65802415E-02  1.47683541E+00  5.65802415E-02 -7.38968932E-01
 -2.99703990E+00 -1.49838328E+00 -7.38968932E-01 -2.99703990E+00  1.47683541E+00
  1.24995867E+00 -2.34794336E-01 -2.49153508E-01 -1.16934321E+00  3.56482855E-01
 -5.08210836E+00 -7.69053949E-01 -1.84865234E-01 -8.85550935E+00  8.11949243E-01
  9.46101816E-01 -1.08842891E+01 -5.61011772E+00  4.30228503E+00 -1.10303409E+01
 -2.69453150E-01 -1.14920757E+01  4.72026815E+00 -8.31850728E+00  1.76653354E+00
  2.16713258E+00  1.04561380E+00  1.04561380E+00  1.76653354E+00  2.16713258E+00
  9.40398236E-01  9.40398236E-01  5.66932198E-01  5.66932198E-01  6.40112954E-01
  6.40112954E-01  1.02405682E+00  1.02405682E+00  2.48758084E+00  2.73688013E+00
  6.83959453E+00  2.03167712E+00  1.63659943E+00  1.63659943E+00  6.75642795E+00
  1.95532568E+00  8.13197471E+00  2.55369134E+00  8.19646343E+00 -8.31850728E+00
  4.72026815E+00  5.65802415E-02  1.47683541E+00  5.65802415E-02 -7.38968932E-01
 -2.99703990E+00 -1.49838328E+00 -7.38968932E-01 -2.99703990E+00  1.47683541E+00
  1.24995867E+00 -2.34794336E-01 -2.49153508E-01 -1.16934321E+00  3.56482855E-01
 -5.08210836E+00 -7.69053949E-01 -1.84865234E-01 -8.85550935E+00  8.11949243E-01
  9.46101816E-01 -1.08842891E+01 -5.61011772E+00  4.30228503E+00 -1.10303409E+01
 -2.69453150E-01 -1.14920757E+01  4.72026815E+00 -8.31850728E+00  1.76653354E+00
  2.16713258E+00  1.04561380E+00  1.04561380E+00  1.76653354E+00  2.16713258E+00
  9.40398236E-01  9.40398236E-01  5.66932198E-01  5.66932198E-01  6.40112954E-01
  6.40112954E-01  1.02405682E+00  1.02405682E+00  2.48758084E+00  2.73688013E+00
  6.83959453E+00  2.03167712E+00  1.63659943E+00  1.63659943E+00  6.75642795E+00
  1.95532568E+00  8.13197471E+00  2.55369134E+00  8.19646343E+00 -8.31850728E+00
  4.72026815E+00  5.65802415E-02  1.47683541E+00  5.65802415E-02 -7.38968932E-01
 -2.99703990E+00 -1.49838328E+00 -7.38968932E-01 -2.99703990E+00  1.47683541E+00
  1.24995867E+00 -2.34794336E-01 -2.49153508E-01 -1.16934321E+00  3.56482855E-01
 -5.08210836E+00 -7.69053949E-01 -1.84865234E-01 -8.85550935E+00  8.11949243E-01
  9.46101816E-01 -1.08842891E+01 -5.61011772E+00  4.30228503E+00 -1.10303409E+01
 -2.69453150E-01 -1.14920757E+01  4.72026815E+00 -8.31850728E+00  1.76653354E+00
  2.16713258E+00  1.04561380E+00  1.04561380E+00  1.76653354E+00  2.16713258E+00
  9.40398236E-01  9.40398236E-01  5.66932198E-01  5.66932198E-01  6.40112954E-01
  6.40112954E-01  1.02405682E+00  1.02405682E+00  2.48758084E+00  2.73688013E+00
  6.83959453E+00  2.03167712E+00  1.63659943E+00  1.63659943E+00  6.75642795E+00
  1.95532568E+00  8.13197471E+00  2.55369134E+00  8.19646343E+00 -8.31850728E+00
  4.72026815E+00  5.65802415E-02  1.47683541E+00  5.65802415E-02 -7.38968932E-01
 -2.99703990E+00 -1.49838328E+00 -7.38968932E-01 -2.99703990E+00  1.47683541E+00
  1.24995867E+00 -2.34794336E-01 -2.49153508E-01 -1.16934321E+00  3.56482855E-01
 -5.08210836E+00 -7.69053949E-01 -1.84865234E-01 -8.85550935E+00  8.11949243E-01
  9.46101816E-01 -1.08842891E+01 -5.61011772E+00  4.30228503E+00 -1.10303409E+01
 -2.69453150E-01 -1.14920757E+01  4.72026815E+00 -8.31850728E+00  1.76653354E+00
  2.16713258E+00  1.04561380E+00  1.04561380E+00  1.76653354E+00  2.16713258E+00
  9.40398236E-01  9.40398236E-01  5.66932198E-01  5.66932198E-01  6.40112954E-01
  6.40112954E-01  1.02405682E+00  1.02405682E+00  2.48758084E+00  2.73688013E+00
  6.83959453E+00  2.03167712E+00  1.63659943E+00  1.63659943E+00  6.75642795E+00
  1.95532568E+00  8.13197471E+00  2.55369134E+00  8.19646343E+00 -8.31850728E+00
  4.72026815E+00  5.65802415E-02  1.47683541E+00  5.65802415E-02 -7.38968932E-01
 -2.99703990E+00 -1.49838328E+00 -7.38968932E-01 -1.93711249E+00  1.47683541E+00
  1.24995867E+00 -2.34794336E-01 -2.49153508E-01 -1.16934321E+00  3.56482855E-01
 -5.08210836E+00 -7.69053949E-01 -1.84865234E-01 -8.85550935E+00  8.11949243E-01
  9.46101816E-01 -1.08842891E+01 -5.61011772E+00  4.30228503E+00 -1.10303409E+01
 -2.69453150E-01 -1.14920757E+01  4.72026815E+00 -8.31850728E+00  1.76653354E+00
  2.16713258E+00  1.04561380E+00  1.04561380E+00  1.76653354E+00  2.16713258E+00
  9.40398236E-01  9.40398236E-01  5.66932198E-01  5.66932198E-01  6.40112954E-01
  6.40112954E-01  1.02405682E+00  1.02405682E+00  2.48758084E+00  2.73688013E+00
  6.83959453E+00  2.03167712E+00  1.63659943E+00  1.63659943E+00  6.75642795E+00
  1.95532568E+00  8.13197471E+00  2.55369134E+00  8.19646343E+00 -7.32694083E+00
  3.13350671E+00  3.13350671E+00 -7.32694083E+00  3.13350671E+00  3.13350671E+00
 -8.31850728E+00  4.72026815E+00  5.65802415E-02  1.47683541E+00  5.65802415E-02
 -7.38968932E-01 -1.93711249E+00 -1.49838328E+00 -7.38968932E-01 -2.99703990E+00
  1.47683541E+00  1.24995867E+00 -2.34794336E-01 -2.49153508E-01 -1.16934321E+00
  3.56482855E-01 -5.08210836E+00 -7.69053949E-01 -1.84865234E-01 -8.85550935E+00
  8.11949243E-01  9.46101816E-01 -1.08842891E+01 -5.61011772E+00  4.30228503E+00
 -1.10303409E+01 -2.69453150E-01 -1.14920757E+01  4.72026815E+00 -8.31850728E+00
  1.76653354E+00  2.16713258E+00  1.04561380E+00  1.04561380E+00  1.76653354E+00
  2.16713258E+00  9.40398236E-01  9.40398236E-01  5.66932198E-01  5.66932198E-01
  6.40112954E-01  6.40112954E-01  1.02405682E+00  1.02405682E+00  2.48758084E+00
  2.73688013E+00  6.83959453E+00  2.03167712E+00  1.63659943E+00  1.63659943E+00
  6.75642795E+00  1.95532568E+00  8.13197471E+00  2.55369134E+00  8.19646343E+00
 -8.31850728E+00  4.72026815E+00  5.65802415E-02  1.47683541E+00  5.65802415E-02
 -7.38968932E-01 -2.99703990E+00 -1.49838328E+00 -7.38968932E-01 -2.99703990E+00
  1.47683541E+00  1.24995867E+00 -2.34794336E-01 -2.49153508E-01 -1.16934321E+00
  3.56482855E-01 -5.08210836E+00 -7.69053949E-01 -1.84865234E-01 -8.85550935E+00
  8.11949243E-01  9.46101816E-01 -1.08842891E+01 -5.61011772E+00  4.30228503E+00
 -1.10303409E+01 -2.69453150E-01 -1.14920757E+01  4.72026815E+00 -8.31850728E+00
  1.76653354E+00  2.16713258E+00  1.04561380E+00  1.04561380E+00  1.76653354E+00
  2.16713258E+00  9.40398236E-01  9.40398236E-01  5.66932198E-01  5.66932198E-01
  6.40112954E-01  6.40112954E-01  1.02405682E+00  1.02405682E+00  2.48758084E+00
  2.73688013E+00  6.83959453E+00  2.03167712E+00  1.63659943E+00  1.63659943E+00
  6.75642795E+00  1.95532568E+00  8.13197471E+00  2.55369134E+00  8.19646343E+00
 -8.31850728E+00  4.72026815E+00  5.65802415E-02  1.47683541E+00  5.65802415E-02
 -7.38968932E-01 -2.99703990E+00 -1.49838328E+00 -7.38968932E-01 -2.99703990E+00
  1.47683541E+00  1.24995867E+00 -2.34794336E-01 -2.49153508E-01 -1.16934321E+00
  3.56482855E-01 -5.08210836E+00 -7.69053949E-01 -1.84865234E-01 -8.85550935E+00
  8.11949243E-01  9.46101816E-01 -1.08842891E+01 -5.61011772E+00  4.30228503E+00
 -1.10303409E+01 -2.69453150E-01 -1.14920757E+01  4.72026815E+00 -8.31850728E+00
  1.76653354E+00  2.16713258E+00  1.04561380E+00  1.04561380E+00  1.76653354E+00
  2.16713258E+00  9.40398236E-01  9.40398236E-01  5.66932198E-01  5.66932198E-01
  6.40112954E-01  6.40112954E-01  1.02405682E+00  1.02405682E+00  2.48758084E+00
  2.73688013E+00  6.83959453E+00  2.03167712E+00  1.63659943E+00  1.63659943E+00
  6.75642795E+00  1.95532568E+00  8.13197471E+00  2.55369134E+00  8.19646343E+00
 -8.31850728E+00  4.72026815E+00  5.65802415E-02  1.47683541E+00  5.65802415E-02
 -7.38968932E-01 -2.99703990E+00 -1.49838328E+00 -7.38968932E-01 -2.99703990E+00
  1.47683541E+00  1.24995867E+00 -2.34794336E-01 -2.49153508E-01 -1.16934321E+00
  3.56482855E-01 -5.08210836E+00 -7.69053949E-01 -1.84865234E-01 -8.85550935E+00
  8.11949243E-01  9.46101816E-01 -1.08842891E+01 -5.61011772E+00  4.30228503E+00
 -1.10303409E+01 -2.69453150E-01 -1.14920757E+01  4.72026815E+00 -8.31850728E+00
  1.76653354E+00  2.16713258E+00  1.04561380E+00  1.04561380E+00  1.76653354E+00
  2.16713258E+00  9.40398236E-01  9.40398236E-01  5.66932198E-01  5.66932198E-01
  6.40112954E-01  6.40112954E-01  1.02405682E+00  1.02405682E+00  2.48758084E+00
  2.73688013E+00  6.83959453E+00  2.03167712E+00  1.63659943E+00  1.63659943E+00
  6.75642795E+00  1.95532568E+00  8.13197471E+00  2.55369134E+00  8.19646343E+00
 -8.31850728E+00  4.72026815E+00  5.65802415E-02  1.47683541E+00  5.65802415E-02
 -7.38968932E-01 -2.99703990E+00 -1.49838328E+00 -7.38968932E-01 -2.99703990E+00
  1.47683541E+00  1.24995867E+00 -2.34794336E-01 -2.49153508E-01 -1.16934321E+00
  3.56482855E-01 -5.08210836E+00 -7.69053949E-01 -1.84865234E-01 -8.85550935E+00
  8.11949243E-01  9.46101816E-01 -1.08842891E+01 -5.61011772E+00  4.30228503E+00
 -1.10303409E+01 -2.69453150E-01 -1.14920757E+01  4.72026815E+00 -8.31850728E+00
  1.76653354E+00  2.16713258E+00  1.04561380E+00  1.04561380E+00  1.76653354E+00
  2.16713258E+00  9.40398236E-01  9.40398236E-01  5.66932198E-01  5.66932198E-01
  6.40112954E-01  6.40112954E-01  1.02405682E+00  1.02405682E+00  2.48758084E+00
  2.73688013E+00  6.83959453E+00  2.03167712E+00  1.63659943E+00  1.63659943E+00
  6.75642795E+00  1.95532568E+00  8.13197471E+00  2.55369134E+00  8.19646343E+00
 -8.31850728E+00  4.72026815E+00  5.65802415E-02  1.47683541E+00  5.65802415E-02
 -7.38968932E-01 -2.99703990E+00 -1.49838328E+00 -7.38968932E-01 -2.99703990E+00
  1.47683541E+00  1.24995867E+00 -2.34794336E-01 -2.49153508E-01 -1.16934321E+00
  3.56482855E-01 -5.08210836E+00 -7.69053949E-01 -1.84865234E-01 -8.85550935E+00
  8.11949243E-01  9.46101816E-01 -1.08842891E+01 -5.61011772E+00  4.30228503E+00
 -1.10303409E+01 -2.69453150E-01 -1.14920757E+01  4.72026815E+00 -8.31850728E+00
  1.76653354E+00  2.16713258E+00  1.04561380E+00  1.04561380E+00  1.76653354E+00
  2.16713258E+00  9.40398236E-01  9.40398236E-01  5.66932198E-01  5.66932198E-01
  6.40112954E-01  6.40112954E-01  1.02405682E+00  1.02405682E+00  2.48758084E+00
  2.73688013E+00  6.83959453E+00  2.03167712E+00  1.63659943E+00  1.63659943E+00
  6.75642795E+00  1.95532568E+00  8.13197471E+00  2.55369134E+00  8.19646343E+00
 -8.31850728E+00  4.72026815E+00  5.65802415E-02  1.47683541E+00  5.65802415E-02
 -7.38968932E-01 -2.99703990E+00 -1.49838328E+00 -7.38968932E-01 -2.99703990E+00
  1.47683541E+00  1.24995867E+00 -2.34794336E-01 -2.49153508E-01 -1.16934321E+00
  3.56482855E-01 -5.08210836E+00 -7.69053949E-01 -1.84865234E-01 -8.85550935E+00
  8.11949243E-01  9.46101816E-01 -1.08842891E+01 -5.61011772E+00  4.30228503E+00
 -1.10303409E+01 -2.69453150E-01 -1.14920757E+01  4.72026815E+00 -8.31850728E+00
  1.76653354E+00  2.16713258E+00  1.04561380E+00  1.04561380E+00  1.76653354E+00
  2.16713258E+00  9.40398236E-01  9.40398236E-01  5.66932198E-01  5.66932198E-01
  6.40112954E-01  6.40112954E-01  1.02405682E+00  1.02405682E+00  2.48758084E+00
  2.73688013E+00  6.83959453E+00  2.03167712E+00  1.63659943E+00  1.63659943E+00
  6.75642795E+00  1.95532568E+00  8.13197471E+00  2.55369134E+00  8.19646343E+00
 -8.31850728E+00  4.72026815E+00  5.65802415E-02  1.47683541E+00  5.65802415E-02
 -7.38968932E-01 -2.99703990E+00 -1.49838328E+00 -7.38968932E-01 -2.99703990E+00
  1.47683541E+00  1.24995867E+00 -2.34794336E-01 -2.49153508E-01 -1.16934321E+00
  3.56482855E-01 -5.08210836E+00 -7.69053949E-01 -1.84865234E-01 -8.85550935E+00
  8.11949243E-01  9.46101816E-01 -1.08842891E+01 -5.61011772E+00  4.30228503E+00
 -1.10303409E+01 -2.69453150E-01 -1.14920757E+01  4.72026815E+00 -8.31850728E+00
  1.76653354E+00  2.16713258E+00  1.04561380E+00  1.04561380E+00  1.76653354E+00
  2.16713258E+00  9.40398236E-01  9.40398236E-01  5.66932198E-01  5.66932198E-01
  6.40112954E-01  6.40112954E-01  1.02405682E+00  1.02405682E+00  2.48758084E+00
  2.73688013E+00  6.83959453E+00  2.03167712E+00  1.63659943E+00  1.63659943E+00
  6.75642795E+00  1.95532568E+00  8.13197471E+00  2.55369134E+00  8.19646343E+00
 -8.31850728E+00  4.72026815E+00  5.65802415E-02  1.47683541E+00  5.65802415E-02
 -7.38968932E-01 -2.99703990E+00 -1.49838328E+00 -7.38968932E-01 -2.99703990E+00
  1.47683541E+00  1.24995867E+00 -2.34794336E-01 -2.49153508E-01 -1.16934321E+00
  3.56482855E-01 -5.08210836E+00 -7.69053949E-01 -1.84865234E-01 -8.85550935E+00
  8.11949243E-01  9.46101816E-01 -1.08842891E+01 -5.61011772E+00  4.30228503E+00
 -1.10303409E+01 -2.69453150E-01 -1.14920757E+01  4.72026815E+00 -8.31850728E+00
  1.76653354E+00  2.16713258E+00  1.04561380E+00  1.04561380E+00  1.76653354E+00
  2.16713258E+00  9.40398236E-01  9.40398236E-01  5.66932198E-01  5.66932198E-01
  6.40112954E-01  6.40112954E-01  1.02405682E+00  1.02405682E+00  2.48758084E+00
  2.73688013E+00  6.83959453E+00  2.03167712E+00  1.63659943E+00  1.63659943E+00
  6.75642795E+00  1.95532568E+00  8.13197471E+00  2.55369134E+00  8.19646343E+00
 -8.31850728E+00  4.72026815E+00  5.65802415E-02  1.47683541E+00  5.65802415E-02
 -7.38968932E-01 -2.99703990E+00 -1.49838328E+00 -7.38968932E-01 -1.93711249E+00
  1.47683541E+00  1.24995867E+00 -2.34794336E-01 -2.49153508E-01 -1.16934321E+00
  3.56482855E-01 -5.08210836E+00 -7.69053949E-01 -1.84865234E-01 -8.85550935E+00
  8.11949243E-01  9.46101816E-01 -1.08842891E+01 -5.61011772E+00  4.30228503E+00
 -1.10303409E+01 -2.69453150E-01 -1.14920757E+01  4.72026815E+00 -8.31850728E+00
  1.76653354E+00  2.16713258E+00  1.04561380E+00  1.04561380E+00  1.76653354E+00
  2.16713258E+00  9.40398236E-01  9.40398236E-01  5.66932198E-01  5.66932198E-01
  6.40112954E-01  6.40112954E-01  1.02405682E+00  1.02405682E+00  2.48758084E+00
  2.73688013E+00  6.83959453E+00  2.03167712E+00  1.63659943E+00  1.63659943E+00
  6.75642795E+00  1.95532568E+00  8.13197471E+00  2.55369134E+00  8.19646343E+00
 -7.32694083E+00  3.13350671E+00  3.13350671E+00 -7.32694083E+00  3.13350671E+00
  3.13350671E+00 -8.31850728E+00  4.72026815E+00  5.65802415E-02  1.47683541E+00
  5.65802415E-02 -7.38968932E-01 -1.93711249E+00 -1.49838328E+00 -7.38968932E-01
 -2.99703990E+00  1.47683541E+00  1.24995867E+00 -2.34794336E-01 -2.49153508E-01
 -1.16934321E+00  3.56482855E-01 -5.08210836E+00 -7.69053949E-01 -1.84865234E-01
 -8.85550935E+00  8.11949243E-01  9.46101816E-01 -1.08842891E+01 -5.61011772E+00
  4.30228503E+00 -1.10303409E+01 -2.69453150E-01 -1.14920757E+01  4.72026815E+00
 -8.31850728E+00  1.76653354E+00  2.16713258E+00  1.04561380E+00  1.04561380E+00
  1.76653354E+00  2.16713258E+00  9.40398236E-01  9.40398236E-01  5.66932198E-01
  5.66932198E-01  6.40112954E-01  6.40112954E-01  1.02405682E+00  1.02405682E+00
  2.48758084E+00  2.73688013E+00  6.83959453E+00  2.03167712E+00  1.63659943E+00
  1.63659943E+00  6.75642795E+00  1.95532568E+00  8.13197471E+00  2.55369134E+00
  8.19646343E+00 -8.31850728E+00  4.72026815E+00  5.65802415E-02  1.47683541E+00
  5.65802415E-02 -7.38968932E-01 -2.99703990E+00 -1.49838328E+00 -7.38968932E-01
 -2.99703990E+00  1.47683541E+00  1.24995867E+00 -2.34794336E-01 -2.49153508E-01
 -1.16934321E+00  3.56482855E-01 -5.08210836E+00 -7.69053949E-01 -1.84865234E-01
 -8.85550935E+00  8.11949243E-01  9.46101816E-01 -1.08842891E+01 -5.61011772E+00
  4.30228503E+00 -1.10303409E+01 -2.69453150E-01 -1.14920757E+01  4.72026815E+00
 -8.31850728E+00  1.76653354E+00  2.16713258E+00  1.04561380E+00  1.04561380E+00
  1.76653354E+00  2.16713258E+00  9.40398236E-01  9.40398236E-01  5.66932198E-01
  5.66932198E-01  6.40112954E-01  6.40112954E-01  1.02405682E+00  1.02405682E+00
  2.48758084E+00  2.73688013E+00  6.83959453E+00  2.03167712E+00  1.63659943E+00
  1.63659943E+00  6.75642795E+00  1.95532568E+00  8.13197471E+00  2.55369134E+00
  8.19646343E+00 -8.31850728E+00  4.72026815E+00  5.65802415E-02  1.47683541E+00
  5.65802415E-02 -7.38968932E-01 -2.99703990E+00 -1.49838328E+00 -7.38968932E-01
 -2.99703990E+00  1.47683541E+00  1.24995867E+00 -2.34794336E-01 -2.49153508E-01
 -1.16934321E+00  3.56482855E-01 -5.08210836E+00 -7.69053949E-01 -1.84865234E-01
 -8.85550935E+00  8.11949243E-01  9.46101816E-01 -1.08842891E+01 -5.61011772E+00
  4.30228503E+00 -1.10303409E+01 -2.69453150E-01 -1.14920757E+01  4.72026815E+00
 -8.31850728E+00  1.76653354E+00  2.16713258E+00  1.04561380E+00  1.04561380E+00
  1.76653354E+00  2.16713258E+00  9.40398236E-01  9.40398236E-01  5.66932198E-01
  5.66932198E-01  6.40112954E-01  6.40112954E-01  1.02405682E+00  1.02405682E+00
  2.48758084E+00  2.73688013E+00  6.83959453E+00  2.03167712E+00  1.63659943E+00
  1.63659943E+00  6.75642795E+00  1.95532568E+00  8.13197471E+00  2.55369134E+00
  8.19646343E+00 -8.31850728E+00  4.72026815E+00  5.65802415E-02  1.47683541E+00
  5.65802415E-02 -7.38968932E-01 -2.99703990E+00 -1.49838328E+00 -7.38968932E-01
 -2.99703990E+00  1.47683541E+00  1.24995867E+00 -2.34794336E-01 -2.49153508E-01
 -1.16934321E+00  3.56482855E-01 -5.08210836E+00 -7.69053949E-01 -1.84865234E-01
 -8.85550935E+00  8.11949243E-01  9.46101816E-01 -1.08842891E+01 -5.61011772E+00
  4.30228503E+00 -1.10303409E+01 -2.69453150E-01 -1.14920757E+01  4.72026815E+00
 -8.31850728E+00  1.76653354E+00  2.16713258E+00  1.04561380E+00  1.04561380E+00
  1.76653354E+00  2.16713258E+00  9.40398236E-01  9.40398236E-01  5.66932198E-01
  5.66932198E-01  6.40112954E-01  6.40112954E-01  1.02405682E+00  1.02405682E+00
  2.48758084E+00  2.73688013E+00  6.83959453E+00  2.03167712E+00  1.63659943E+00
  1.63659943E+00  6.75642795E+00  1.95532568E+00  8.13197471E+00  2.55369134E+00
  8.19646343E+00 -8.31850728E+00  4.72026815E+00  5.65802415E-02  1.47683541E+00
  5.65802415E-02 -7.38968932E-01 -2.99703990E+00 -1.49838328E+00 -7.38968932E-01
 -2.99703990E+00  1.47683541E+00  1.24995867E+00 -2.34794336E-01 -2.49153508E-01
 -1.16934321E+00  3.56482855E-01 -5.08210836E+00 -7.69053949E-01 -1.84865234E-01
 -8.85550935E+00  8.11949243E-01  9.46101816E-01 -1.08842891E+01 -5.61011772E+00
  4.30228503E+00 -1.10303409E+01 -2.69453150E-01 -1.14920757E+01  4.72026815E+00
 -8.31850728E+00  1.76653354E+00  2.16713258E+00  1.04561380E+00  1.04561380E+00
  1.76653354E+00  2.16713258E+00  9.40398236E-01  9.40398236E-01  5.66932198E-01
  5.66932198E-01  6.40112954E-01  6.40112954E-01  1.02405682E+00  1.02405682E+00
  2.48758084E+00  2.73688013E+00  6.83959453E+00  2.03167712E+00  1.63659943E+00
  1.63659943E+00  6.75642795E+00  1.95532568E+00  8.13197471E+00  2.55369134E+00
  8.19646343E+00 -8.31850728E+00  4.72026815E+00  5.65802415E-02  1.47683541E+00
  5.65802415E-02 -7.38968932E-01 -2.99703990E+00 -1.49838328E+00 -7.38968932E-01
 -2.99703990E+00  1.47683541E+00  1.24995867E+00 -2.34794336E-01 -2.49153508E-01
 -1.16934321E+00  3.56482855E-01 -5.08210836E+00 -7.69053949E-01 -1.84865234E-01
 -8.85550935E+00  8.11949243E-01  9.46101816E-01 -1.08842891E+01 -5.61011772E+00
  4.30228503E+00 -1.10303409E+01 -2.69453150E-01 -1.14920757E+01  4.72026815E+00
 -8.31850728E+00  1.76653354E+00  2.16713258E+00  1.04561380E+00  1.04561380E+00
  1.76653354E+00  2.16713258E+00  9.40398236E-01  9.40398236E-01  5.66932198E-01
  5.66932198E-01  6.40112954E-01  6.40112954E-01  1.02405682E+00  1.02405682E+00
  2.48758084E+00  2.73688013E+00  6.83959453E+00  2.03167712E+00  1.63659943E+00
  1.63659943E+00  6.75642795E+00  1.95532568E+00  8.13197471E+00  2.55369134E+00
  8.19646343E+00 -8.31850728E+00  4.72026815E+00  5.65802415E-02  1.47683541E+00
  5.65802415E-02 -7.38968932E-01 -2.99703990E+00 -1.49838328E+00 -7.38968932E-01
 -2.99703990E+00  1.47683541E+00  1.24995867E+00 -2.34794336E-01 -2.49153508E-01
 -1.16934321E+00  3.56482855E-01 -5.08210836E+00 -7.69053949E-01 -1.84865234E-01
 -8.85550935E+00  8.11949243E-01  9.46101816E-01 -1.08842891E+01 -5.61011772E+00
  4.30228503E+00 -1.10303409E+01 -2.69453150E-01 -1.14920757E+01  4.72026815E+00
 -8.31850728E+00  1.76653354E+00  2.16713258E+00  1.04561380E+00  1.04561380E+00
  1.76653354E+00  2.16713258E+00  9.40398236E-01  9.40398236E-01  5.66932198E-01
  5.66932198E-01  6.40112954E-01  6.40112954E-01  1.02405682E+00  1.02405682E+00
  2.48758084E+00  2.73688013E+00  6.83959453E+00  2.03167712E+00  1.63659943E+00
  1.63659943E+00  6.75642795E+00  1.95532568E+00  8.13197471E+00  2.55369134E+00
  8.19646343E+00 -8.31850728E+00  4.72026815E+00  5.65802415E-02  1.47683541E+00
  5.65802415E-02 -7.38968932E-01 -2.99703990E+00 -1.49838328E+00 -7.38968932E-01
 -2.99703990E+00  1.47683541E+00  1.24995867E+00 -2.34794336E-01 -2.49153508E-01
 -1.16934321E+00  3.56482855E-01 -5.08210836E+00 -7.69053949E-01 -1.84865234E-01
 -8.85550935E+00  8.11949243E-01  9.46101816E-01 -1.08842891E+01 -5.61011772E+00
  4.30228503E+00 -1.10303409E+01 -2.69453150E-01 -1.14920757E+01  4.72026815E+00
 -8.31850728E+00  1.76653354E+00  2.16713258E+00  1.04561380E+00  1.04561380E+00
  1.76653354E+00  2.16713258E+00  9.40398236E-01  9.40398236E-01  5.66932198E-01
  5.66932198E-01  6.40112954E-01  6.40112954E-01  1.02405682E+00  1.02405682E+00
  2.48758084E+00  2.73688013E+00  6.83959453E+00  2.03167712E+00  1.63659943E+00
  1.63659943E+00  6.75642795E+00  1.95532568E+00  8.13197471E+00  2.55369134E+00
  8.19646343E+00 -8.31850728E+00  4.72026815E+00  5.65802415E-02  1.47683541E+00
  5.65802415E-02 -7.38968932E-01 -2.99703990E+00 -1.49838328E+00 -7.38968932E-01
 -2.99703990E+00  1.47683541E+00  1.24995867E+00 -2.34794336E-01 -2.49153508E-01
 -1.16934321E+00  3.56482855E-01 -5.08210836E+00 -7.69053949E-01 -1.84865234E-01
 -8.85550935E+00  8.11949243E-01  9.46101816E-01 -1.08842891E+01 -5.61011772E+00
  4.30228503E+00 -1.10303409E+01 -2.69453150E-01 -1.14920757E+01  4.72026815E+00
 -8.31850728E+00  1.76653354E+00  2.16713258E+00  1.04561380E+00  1.04561380E+00
  1.76653354E+00  2.16713258E+00  9.40398236E-01  9.40398236E-01  5.66932198E-01
  5.66932198E-01  6.40112954E-01  6.40112954E-01  1.02405682E+00  1.02405682E+00
  2.48758084E+00  2.73688013E+00  6.83959453E+00  2.03167712E+00  1.63659943E+00
  1.63659943E+00  6.75642795E+00  1.95532568E+00  8.13197471E+00  2.55369134E+00
  8.19646343E+00 -8.31850728E+00  4.72026815E+00  5.65802415E-02  1.47683541E+00
  5.65802415E-02 -7.38968932E-01 -2.99703990E+00 -1.49838328E+00 -7.38968932E-01
 -1.93711249E+00  1.47683541E+00  1.24995867E+00 -2.34794336E-01 -2.49153508E-01
 -1.16934321E+00  3.56482855E-01 -5.08210836E+00 -7.69053949E-01 -1.84865234E-01
 -8.85550935E+00  8.11949243E-01  9.46101816E-01 -1.08842891E+01 -5.61011772E+00
  4.30228503E+00 -1.10303409E+01 -2.69453150E-01 -1.14920757E+01  4.72026815E+00
 -8.31850728E+00  1.76653354E+00  2.16713258E+00  1.04561380E+00  1.04561380E+00
  1.76653354E+00  2.16713258E+00  9.40398236E-01  9.40398236E-01  5.66932198E-01
  5.66932198E-01  6.40112954E-01  6.40112954E-01  1.02405682E+00  1.02405682E+00
  2.48758084E+00  2.73688013E+00  6.83959453E+00  2.03167712E+00  1.63659943E+00
  1.63659943E+00  6.75642795E+00  1.95532568E+00  8.13197471E+00  2.55369134E+00
  8.19646343E+00 -7.32694083E+00  3.13350671E+00  3.13350671E+00 -7.32694083E+00
  3.13350671E+00  3.13350671E+00 -8.31850728E+00  4.72026815E+00  5.65802415E-02
  1.47683541E+00  5.65802415E-02 -7.38968932E-01 -1.93711249E+00 -1.49838328E+00
 -7.38968932E-01 -2.99703990E+00  1.47683541E+00  1.24995867E+00 -2.34794336E-01
 -2.49153508E-01 -1.16934321E+00  3.56482855E-01 -5.08210836E+00 -7.69053949E-01
 -1.84865234E-01 -8.85550935E+00  8.11949243E-01  9.46101816E-01 -1.08842891E+01
 -5.61011772E+00  4.30228503E+00 -1.10303409E+01 -2.69453150E-01 -1.14920757E+01
  4.72026815E+00 -8.31850728E+00  1.76653354E+00  2.16713258E+00  1.04561380E+00
  1.04561380E+00  1.76653354E+00  2.16713258E+00  9.40398236E-01  9.40398236E-01
  5.66932198E-01  5.66932198E-01  6.40112954E-01  6.40112954E-01  1.02405682E+00
  1.02405682E+00  2.48758084E+00  2.73688013E+00  6.83959453E+00  2.03167712E+00
  1.63659943E+00  1.63659943E+00  6.75642795E+00  1.95532568E+00  8.13197471E+00
  2.55369134E+00  8.19646343E+00 -8.31850728E+00  4.72026815E+00  5.65802415E-02
  1.47683541E+00  5.65802415E-02 -7.38968932E-01 -2.99703990E+00 -1.49838328E+00
 -7.38968932E-01 -2.99703990E+00  1.47683541E+00  1.24995867E+00 -2.34794336E-01
 -2.49153508E-01 -1.16934321E+00  3.56482855E-01 -5.08210836E+00 -7.69053949E-01
 -1.84865234E-01 -8.85550935E+00  8.11949243E-01  9.46101816E-01 -1.08842891E+01
 -5.61011772E+00  4.30228503E+00 -1.10303409E+01 -2.69453150E-01 -1.14920757E+01
  4.72026815E+00 -8.31850728E+00  1.76653354E+00  2.16713258E+00  1.04561380E+00
  1.04561380E+00  1.76653354E+00  2.16713258E+00  9.40398236E-01  9.40398236E-01
  5.66932198E-01  5.66932198E-01  6.40112954E-01  6.40112954E-01  1.02405682E+00
  1.02405682E+00  2.48758084E+00  2.73688013E+00  6.83959453E+00  2.03167712E+00
  1.63659943E+00  1.63659943E+00  6.75642795E+00  1.95532568E+00  8.13197471E+00
  2.55369134E+00  8.19646343E+00 -8.31850728E+00  4.72026815E+00  5.65802415E-02
  1.47683541E+00  5.65802415E-02 -7.38968932E-01 -2.99703990E+00 -1.49838328E+00
 -7.38968932E-01 -2.99703990E+00  1.47683541E+00  1.24995867E+00 -2.34794336E-01
 -2.49153508E-01 -1.16934321E+00  3.56482855E-01 -5.08210836E+00 -7.69053949E-01
 -1.84865234E-01 -8.85550935E+00  8.11949243E-01  9.46101816E-01 -1.08842891E+01
 -5.61011772E+00  4.30228503E+00 -1.10303409E+01 -2.69453150E-01 -1.14920757E+01
  4.72026815E+00 -8.31850728E+00  1.76653354E+00  2.16713258E+00  1.04561380E+00
  1.04561380E+00  1.76653354E+00  2.16713258E+00  9.40398236E-01  9.40398236E-01
  5.66932198E-01  5.66932198E-01  6.40112954E-01  6.40112954E-01  1.02405682E+00
  1.02405682E+00  2.48758084E+00  2.73688013E+00  6.83959453E+00  2.03167712E+00
  1.63659943E+00  1.63659943E+00  6.75642795E+00  1.95532568E+00  8.13197471E+00
  2.55369134E+00  8.19646343E+00 -8.31850728E+00  4.72026815E+00  5.65802415E-02
  1.47683541E+00  5.65802415E-02 -7.38968932E-01 -2.99703990E+00 -1.49838328E+00
 -7.38968932E-01 -2.99703990E+00  1.47683541E+00  1.24995867E+00 -2.34794336E-01
 -2.49153508E-01 -1.16934321E+00  3.56482855E-01 -5.08210836E+00 -7.69053949E-01
 -1.84865234E-01 -8.85550935E+00  8.11949243E-01  9.46101816E-01 -1.08842891E+01
 -5.61011772E+00  4.30228503E+00 -1.10303409E+01 -2.69453150E-01 -1.14920757E+01
  4.72026815E+00 -8.31850728E+00  1.76653354E+00  2.16713258E+00  1.04561380E+00
  1.04561380E+00  1.76653354E+00  2.16713258E+00  9.40398236E-01  9.40398236E-01
  5.66932198E-01  5.66932198E-01  6.40112954E-01  6.40112954E-01  1.02405682E+00
  1.02405682E+00  2.48758084E+00  2.73688013E+00  6.83959453E+00  2.03167712E+00
  1.63659943E+00  1.63659943E+00  6.75642795E+00  1.95532568E+00  8.13197471E+00
  2.55369134E+00  8.19646343E+00 -8.31850728E+00  4.72026815E+00  5.65802415E-02
  1.47683541E+00  5.65802415E-02 -7.38968932E-01 -2.99703990E+00 -1.49838328E+00
 -7.38968932E-01 -2.99703990E+00  1.47683541E+00  1.24995867E+00 -2.34794336E-01
 -2.49153508E-01 -1.16934321E+00  3.56482855E-01 -5.08210836E+00 -7.69053949E-01
 -1.84865234E-01 -8.85550935E+00  8.11949243E-01  9.46101816E-01 -1.08842891E+01
 -5.61011772E+00  4.30228503E+00 -1.10303409E+01 -2.69453150E-01 -1.14920757E+01
  4.72026815E+00 -8.31850728E+00  1.76653354E+00  2.16713258E+00  1.04561380E+00
  1.04561380E+00  1.76653354E+00  2.16713258E+00  9.40398236E-01  9.40398236E-01
  5.66932198E-01  5.66932198E-01  6.40112954E-01  6.40112954E-01  1.02405682E+00
  1.02405682E+00  2.48758084E+00  2.73688013E+00  6.83959453E+00  2.03167712E+00
  1.63659943E+00  1.63659943E+00  6.75642795E+00  1.95532568E+00  8.13197471E+00
  2.55369134E+00  8.19646343E+00 -8.31850728E+00  4.72026815E+00  5.65802415E-02
  1.47683541E+00  5.65802415E-02 -7.38968932E-01 -2.99703990E+00 -1.49838328E+00
 -7.38968932E-01 -2.99703990E+00  1.47683541E+00  1.24995867E+00 -2.34794336E-01
 -2.49153508E-01 -1.16934321E+00  3.56482855E-01 -5.08210836E+00 -7.69053949E-01
 -1.84865234E-01 -8.85550935E+00  8.11949243E-01  9.46101816E-01 -1.08842891E+01
 -5.61011772E+00  4.30228503E+00 -1.10303409E+01 -2.69453150E-01 -1.14920757E+01
  4.72026815E+00 -8.31850728E+00  1.76653354E+00  2.16713258E+00  1.04561380E+00
  1.04561380E+00  1.76653354E+00  2.16713258E+00  9.40398236E-01  9.40398236E-01
  5.66932198E-01  5.66932198E-01  6.40112954E-01  6.40112954E-01  1.02405682E+00
  1.02405682E+00  2.48758084E+00  2.73688013E+00  6.83959453E+00  2.03167712E+00
  1.63659943E+00  1.63659943E+00  6.75642795E+00  1.95532568E+00  8.13197471E+00
  2.55369134E+00  8.19646343E+00 -8.31850728E+00  4.72026815E+00  5.65802415E-02
  1.47683541E+00  5.65802415E-02 -7.38968932E-01 -2.99703990E+00 -1.49838328E+00
 -7.38968932E-01 -2.99703990E+00  1.47683541E+00  1.24995867E+00 -2.34794336E-01
 -2.49153508E-01 -1.16934321E+00  3.56482855E-01 -5.08210836E+00 -7.69053949E-01
 -1.84865234E-01 -8.85550935E+00  8.11949243E-01  9.46101816E-01 -1.08842891E+01
 -5.61011772E+00  4.30228503E+00 -1.10303409E+01 -2.69453150E-01 -1.14920757E+01
  4.72026815E+00 -8.31850728E+00  1.76653354E+00  2.16713258E+00  1.04561380E+00
  1.04561380E+00  1.76653354E+00  2.16713258E+00  9.40398236E-01  9.40398236E-01
  5.66932198E-01  5.66932198E-01  6.40112954E-01  6.40112954E-01  1.02405682E+00
  1.02405682E+00  2.48758084E+00  2.73688013E+00  6.83959453E+00  2.03167712E+00
  1.63659943E+00  1.63659943E+00  6.75642795E+00  1.95532568E+00  8.13197471E+00
  2.55369134E+00  8.19646343E+00 -8.31850728E+00  4.72026815E+00  5.65802415E-02
  1.47683541E+00  5.65802415E-02 -7.38968932E-01 -2.99703990E+00 -1.49838328E+00
 -7.38968932E-01 -2.99703990E+00  1.47683541E+00  1.24995867E+00 -2.34794336E-01
 -2.49153508E-01 -1.16934321E+00  3.56482855E-01 -5.08210836E+00 -7.69053949E-01
 -1.84865234E-01 -8.85550935E+00  8.11949243E-01  9.46101816E-01 -1.08842891E+01
 -5.61011772E+00  4.30228503E+00 -1.10303409E+01 -2.69453150E-01 -1.14920757E+01
  4.72026815E+00 -8.31850728E+00  1.76653354E+00  2.16713258E+00  1.04561380E+00
  1.04561380E+00  1.76653354E+00  2.16713258E+00  9.40398236E-01  9.40398236E-01
  5.66932198E-01  5.66932198E-01  6.40112954E-01  6.40112954E-01  1.02405682E+00
  1.02405682E+00  2.48758084E+00  2.73688013E+00  6.83959453E+00  2.03167712E+00
  1.63659943E+00  1.63659943E+00  6.75642795E+00  1.95532568E+00  8.13197471E+00
  2.55369134E+00  8.19646343E+00 -8.31850728E+00  4.72026815E+00  5.65802415E-02
  1.47683541E+00  5.65802415E-02 -7.38968932E-01 -2.99703990E+00 -1.49838328E+00
 -7.38968932E-01 -2.99703990E+00  1.47683541E+00  1.24995867E+00 -2.34794336E-01
 -2.49153508E-01 -1.16934321E+00  3.56482855E-01 -5.08210836E+00 -7.69053949E-01
 -1.84865234E-01 -8.85550935E+00  8.11949243E-01  9.46101816E-01 -1.08842891E+01
 -5.61011772E+00  4.30228503E+00 -1.10303409E+01 -2.69453150E-01 -1.14920757E+01
  4.72026815E+00 -8.31850728E+00  1.76653354E+00  2.16713258E+00  1.04561380E+00
  1.04561380E+00  1.76653354E+00  2.16713258E+00  9.40398236E-01  9.40398236E-01
  5.66932198E-01  5.66932198E-01  6.40112954E-01  6.40112954E-01  1.02405682E+00
  1.02405682E+00  2.48758084E+00  2.73688013E+00  6.83959453E+00  2.03167712E+00
  1.63659943E+00  1.63659943E+00  6.75642795E+00  1.95532568E+00  8.13197471E+00
  2.55369134E+00  8.19646343E+00 -8.31850728E+00  4.72026815E+00  5.65802415E-02
  1.47683541E+00  5.65802415E-02 -7.38968932E-01 -2.99703990E+00 -1.49838328E+00
 -7.38968932E-01 -1.93711249E+00  1.47683541E+00  1.24995867E+00 -2.34794336E-01
 -2.49153508E-01 -1.16934321E+00  3.56482855E-01 -5.08210836E+00 -7.69053949E-01
 -1.84865234E-01 -8.85550935E+00  8.11949243E-01  9.46101816E-01 -1.08842891E+01
 -5.61011772E+00  4.30228503E+00 -1.10303409E+01 -2.69453150E-01 -1.14920757E+01
  4.72026815E+00 -8.31850728E+00  1.76653354E+00  2.16713258E+00  1.04561380E+00
  1.04561380E+00  1.76653354E+00  2.16713258E+00  9.40398236E-01  9.40398236E-01
  5.66932198E-01  5.66932198E-01  6.40112954E-01  6.40112954E-01  1.02405682E+00
  1.02405682E+00  2.48758084E+00  2.73688013E+00  6.83959453E+00  2.03167712E+00
  1.63659943E+00  1.63659943E+00  6.75642795E+00  1.95532568E+00  8.13197471E+00
  2.55369134E+00  8.19646343E+00 -7.32694083E+00  3.13350671E+00  3.13350671E+00
 -1.51973982E+01  7.59869910E+00  7.59869910E+00 -1.51973982E+01  7.59869910E+00
  7.59869910E+00 -1.51973982E+01  7.59869910E+00  7.59869910E+00 -1.51973982E+01
  7.59869910E+00  7.59869910E+00 -1.51973982E+01  7.59869910E+00  7.59869910E+00
 -1.51973982E+01  7.59869910E+00  7.59869910E+00 -1.51973982E+01  7.59869910E+00
  7.59869910E+00 -1.51973982E+01  7.59869910E+00  7.59869910E+00 -1.51973982E+01
  7.59869910E+00  7.59869910E+00 -1.51973982E+01  7.59869910E+00  7.59869910E+00
 -1.51973982E+01  7.59869910E+00  7.59869910E+00 -1.51973982E+01  7.59869910E+00
  7.59869910E+00 -1.51973982E+01  7.59869910E+00  7.59869910E+00 -1.51973982E+01
  7.59869910E+00  7.59869910E+00 -1.51973982E+01  7.59869910E+00  7.59869910E+00
 -1.51973982E+01  7.59869910E+00  7.59869910E+00 -1.51973982E+01  7.59869910E+00
  7.59869910E+00 -1.51973982E+01  7.59869910E+00  7.59869910E+00 -1.51973982E+01
  7.59869910E+00  7.59869910E+00 -1.51973982E+01  7.59869910E+00  7.59869910E+00
 -1.51973982E+01  7.59869910E+00  7.59869910E+00 -1.51973982E+01  7.59869910E+00
  7.59869910E+00 -1.51973982E+01  7.59869910E+00  7.59869910E+00 -1.51973982E+01
  7.59869910E+00  7.59869910E+00 -1.51973982E+01  7.59869910E+00  7.59869910E+00
 -1.51973982E+01  7.59869910E+00  7.59869910E+00 -1.51973982E+01  7.59869910E+00
  7.59869910E+00 -1.51973982E+01  7.59869910E+00  7.59869910E+00 -1.51973982E+01
  7.59869910E+00  7.59869910E+00 -1.51973982E+01  7.59869910E+00  7.59869910E+00
 -1.51973982E+01  7.59869910E+00  7.59869910E+00 -1.51973982E+01  7.59869910E+00
  7.59869910E+00 -1.51973982E+01  7.59869910E+00  7.59869910E+00 -1.51973982E+01
  7.59869910E+00  7.59869910E+00 -1.51973982E+01  7.59869910E+00  7.59869910E+00
 -1.51973982E+01  7.59869910E+00  7.59869910E+00 -1.51973982E+01  7.59869910E+00
  7.59869910E+00 -1.51973982E+01  7.59869910E+00  7.59869910E+00 -1.51973982E+01
  7.59869910E+00  7.59869910E+00 -1.51973982E+01  7.59869910E+00  7.59869910E+00
 -1.51973982E+01  7.59869910E+00  7.59869910E+00 -1.51973982E+01  7.59869910E+00
  7.59869910E+00 -1.51973982E+01  7.59869910E+00  7.59869910E+00 -1.51973982E+01
  7.59869910E+00  7.59869910E+00 -1.51973982E+01  7.59869910E+00  7.59869910E+00
 -1.51973982E+01  7.59869910E+00  7.59869910E+00 -1.51973982E+01  7.59869910E+00
  7.59869910E+00 -1.51973982E+01  7.59869910E+00  7.59869910E+00 -1.51973982E+01
  7.59869910E+00  7.59869910E+00 -1.51973982E+01  7.59869910E+00  7.59869910E+00
 -1.51973982E+01  7.59869910E+00  7.59869910E+00 -1.51973982E+01  7.59869910E+00
  7.59869910E+00 -1.51973982E+01  7.59869910E+00  7.59869910E+00 -1.51973982E+01
  7.59869910E+00  7.59869910E+00 -1.51973982E+01  7.59869910E+00  7.59869910E+00
 -1.51973982E+01  7.59869910E+00  7.59869910E+00 -1.51973982E+01  7.59869910E+00
  7.59869910E+00 -1.51973982E+01  7.59869910E+00  7.59869910E+00 -1.51973982E+01
  7.59869910E+00  7.59869910E+00 -1.51973982E+01  7.59869910E+00  7.59869910E+00
 -1.51973982E+01  7.59869910E+00  7.59869910E+00 -1.51973982E+01  7.59869910E+00
  7.59869910E+00 -1.51973982E+01  7.59869910E+00  7.59869910E+00 -1.51973982E+01
  7.59869910E+00  7.59869910E+00 -1.51973982E+01  7.59869910E+00  7.59869910E+00
 -1.51973982E+01  7.59869910E+00  7.59869910E+00 -1.51973982E+01  7.59869910E+00
  7.59869910E+00 -1.51973982E+01  7.59869910E+00  7.59869910E+00 -1.51973982E+01
  7.59869910E+00  7.59869910E+00 -1.51973982E+01  7.59869910E+00  7.59869910E+00
 -1.51973982E+01  7.59869910E+00  7.59869910E+00 -1.51973982E+01  7.59869910E+00
  7.59869910E+00 -1.51973982E+01  7.59869910E+00  7.59869910E+00 -1.51973982E+01
  7.59869910E+00  7.59869910E+00 -1.51973982E+01  7.59869910E+00  7.59869910E+00
 -1.51973982E+01  7.59869910E+00  7.59869910E+00 -1.51973982E+01  7.59869910E+00
  7.59869910E+00 -1.51973982E+01  7.59869910E+00  7.59869910E+00 -1.51973982E+01
  7.59869910E+00  7.59869910E+00 -1.51973982E+01  7.59869910E+00  7.59869910E+00
 -1.51973982E+01  7.59869910E+00  7.59869910E+00 -1.51973982E+01  7.59869910E+00
  7.59869910E+00 -1.51973982E+01  7.59869910E+00  7.59869910E+00 -1.51973982E+01
  7.59869910E+00  7.59869910E+00 -1.51973982E+01  7.59869910E+00  7.59869910E+00
 -1.51973982E+01  7.59869910E+00  7.59869910E+00 -1.51973982E+01  7.59869910E+00
  7.59869910E+00 -1.51973982E+01  7.59869910E+00  7.59869910E+00 -1.51973982E+01
  7.59869910E+00  7.59869910E+00 -1.51973982E+01  7.59869910E+00  7.59869910E+00
 -1.51973982E+01  7.59869910E+00  7.59869910E+00 -1.51973982E+01  7.59869910E+00
  7.59869910E+00 -1.51973982E+01  7.59869910E+00  7.59869910E+00 -1.51973982E+01
  7.59869910E+00  7.59869910E+00 -1.51973982E+01  7.59869910E+00  7.59869910E+00
 -1.51973982E+01  7.59869910E+00  7.59869910E+00 -1.51973982E+01  7.59869910E+00
  7.59869910E+00 -1.51973982E+01  7.59869910E+00  7.59869910E+00 -1.51973982E+01
  7.59869910E+00  7.59869910E+00 -1.51973982E+01  7.59869910E+00  7.59869910E+00
 -1.51973982E+01  7.59869910E+00  7.59869910E+00 -1.51973982E+01  7.59869910E+00
  7.59869910E+00 -1.51973982E+01  7.59869910E+00  7.59869910E+00 -1.51973982E+01
  7.59869910E+00  7.59869910E+00 -1.51973982E+01  7.59869910E+00  7.59869910E+00
 -1.51973982E+01  7.59869910E+00  7.59869910E+00 -1.51973982E+01  7.59869910E+00
  7.59869910E+00 -1.51973982E+01  7.59869910E+00  7.59869910E+00 -1.51973982E+01
  7.59869910E+00  7.59869910E+00 -1.51973982E+01  7.59869910E+00  7.59869910E+00
 -1.51973982E+01  7.59869910E+00  7.59869910E+00 -1.51973982E+01  7.59869910E+00
  7.59869910E+00 -1.51973982E+01  7.59869910E+00  7.59869910E+00 -1.51973982E+01
  7.59869910E+00  7.59869910E+00 -1.51973982E+01  7.59869910E+00  7.59869910E+00
 -1.51973982E+01  7.59869910E+00  7.59869910E+00 -1.51973982E+01  7.59869910E+00
  7.59869910E+00 -1.51973982E+01  7.59869910E+00  7.59869910E+00 -1.51973982E+01
  7.59869910E+00  7.59869910E+00 -1.51973982E+01  7.59869910E+00  7.59869910E+00
 -1.51973982E+01  7.59869910E+00  7.59869910E+00 -1.51973982E+01  7.59869910E+00
  7.59869910E+00 -1.51973982E+01  7.59869910E+00  7.59869910E+00 -1.51973982E+01
  7.59869910E+00  7.59869910E+00 -1.51973982E+01  7.59869910E+00  7.59869910E+00
 -1.51973982E+01  7.59869910E+00  7.59869910E+00 -1.51973982E+01  7.59869910E+00
  7.59869910E+00 -1.51973982E+01  7.59869910E+00  7.59869910E+00 -1.51973982E+01
  7.59869910E+00  7.59869910E+00 -1.51973982E+01  7.59869910E+00  7.59869910E+00
 -1.51973982E+01  7.59869910E+00  7.59869910E+00 -1.51973982E+01  7.59869910E+00
  7.59869910E+00 -1.51973982E+01  7.59869910E+00  7.59869910E+00 -1.51973982E+01
  7.59869910E+00  7.59869910E+00 -1.51973982E+01  7.59869910E+00  7.59869910E+00
 -1.51973982E+01  7.59869910E+00  7.59869910E+00 -1.51973982E+01  7.59869910E+00
  7.59869910E+00 -1.51973982E+01  7.59869910E+00  7.59869910E+00 -1.51973982E+01
  7.59869910E+00  7.59869910E+00 -1.51973982E+01  7.59869910E+00  7.59869910E+00
 -1.51973982E+01  7.59869910E+00  7.59869910E+00 -1.51973982E+01  7.59869910E+00
  7.59869910E+00 -1.51973982E+01  7.59869910E+00  7.59869910E+00 -1.51973982E+01
  7.59869910E+00  7.59869910E+00 -1.51973982E+01  7.59869910E+00  7.59869910E+00
 -1.51973982E+01  7.59869910E+00  7.59869910E+00 -1.51973982E+01  7.59869910E+00
  7.59869910E+00 -1.51973982E+01  7.59869910E+00  7.59869910E+00 -1.51973982E+01
  7.59869910E+00  7.59869910E+00 -1.51973982E+01  7.59869910E+00  7.59869910E+00
 -1.51973982E+01  7.59869910E+00  7.59869910E+00 -1.51973982E+01  7.59869910E+00
  7.59869910E+00 -1.51973982E+01  7.59869910E+00  7.59869910E+00 -1.51973982E+01
  7.59869910E+00  7.59869910E+00 -1.51973982E+01  7.59869910E+00  7.59869910E+00
 -1.51973982E+01  7.59869910E+00  7.59869910E+00 -1.51973982E+01  7.59869910E+00
  7.59869910E+00 -1.51973982E+01  7.59869910E+00  7.59869910E+00 -1.51973982E+01
  7.59869910E+00  7.59869910E+00 -1.51973982E+01  7.59869910E+00  7.59869910E+00
 -1.51973982E+01  7.59869910E+00  7.59869910E+00 -1.51973982E+01  7.59869910E+00
  7.59869910E+00 -1.51973982E+01  7.59869910E+00  7.59869910E+00 -1.51973982E+01
  7.59869910E+00  7.59869910E+00 -1.51973982E+01  7.59869910E+00  7.59869910E+00
 -1.51973982E+01  7.59869910E+00  7.59869910E+00 -1.51973982E+01  7.59869910E+00
  7.59869910E+00 -1.51973982E+01  7.59869910E+00  7.59869910E+00 -1.51973982E+01
  7.59869910E+00  7.59869910E+00 -1.51973982E+01  7.59869910E+00  7.59869910E+00
 -1.51973982E+01  7.59869910E+00  7.59869910E+00 -1.51973982E+01  7.59869910E+00
  7.59869910E+00 -1.51973982E+01  7.59869910E+00  7.59869910E+00 -1.51973982E+01
  7.59869910E+00  7.59869910E+00 -1.51973982E+01  7.59869910E+00  7.59869910E+00
 -1.51973982E+01  7.59869910E+00  7.59869910E+00 -1.51973982E+01  7.59869910E+00
  7.59869910E+00 -1.51973982E+01  7.59869910E+00  7.59869910E+00 -1.51973982E+01
  7.59869910E+00  7.59869910E+00 -1.51973982E+01  7.59869910E+00  7.59869910E+00
 -1.51973982E+01  7.59869910E+00  7.59869910E+00 -1.51973982E+01  7.59869910E+00
  7.59869910E+00 -1.51973982E+01  7.59869910E+00  7.59869910E+00 -1.51973982E+01
  7.59869910E+00  7.59869910E+00 -1.51973982E+01  7.59869910E+00  7.59869910E+00
 -1.51973982E+01  7.59869910E+00  7.59869910E+00 -1.51973982E+01  7.59869910E+00
  7.59869910E+00 -1.51973982E+01  7.59869910E+00  7.59869910E+00 -1.51973982E+01
  7.59869910E+00  7.59869910E+00 -1.51973982E+01  7.59869910E+00  7.59869910E+00
 -1.51973982E+01  7.59869910E+00  7.59869910E+00 -1.51973982E+01  7.59869910E+00
  7.59869910E+00 -1.51973982E+01  7.59869910E+00  7.59869910E+00 -1.51973982E+01
  7.59869910E+00  7.59869910E+00 -1.51973982E+01  7.59869910E+00  7.59869910E+00
 -1.51973982E+01  7.59869910E+00  7.59869910E+00 -1.51973982E+01  7.59869910E+00
  7.59869910E+00 -1.51973982E+01  7.59869910E+00  7.59869910E+00 -1.51973982E+01
  7.59869910E+00  7.59869910E+00 -1.51973982E+01  7.59869910E+00  7.59869910E+00
 -1.51973982E+01  7.59869910E+00  7.59869910E+00 -1.51973982E+01  7.59869910E+00
  7.59869910E+00 -1.51973982E+01  7.59869910E+00  7.59869910E+00 -1.51973982E+01
  7.59869910E+00  7.59869910E+00 -1.51973982E+01  7.59869910E+00  7.59869910E+00
 -1.51973982E+01  7.59869910E+00  7.59869910E+00 -1.51973982E+01  7.59869910E+00
  7.59869910E+00 -1.51973982E+01  7.59869910E+00  7.59869910E+00 -1.51973982E+01
  7.59869910E+00  7.59869910E+00 -1.51973982E+01  7.59869910E+00  7.59869910E+00
 -1.51973982E+01  7.59869910E+00  7.59869910E+00 -1.51973982E+01  7.59869910E+00
  7.59869910E+00 -1.51973982E+01  7.59869910E+00  7.59869910E+00 -1.51973982E+01
  7.59869910E+00  7.59869910E+00 -1.51973982E+01  7.59869910E+00  7.59869910E+00
 -1.51973982E+01  7.59869910E+00  7.59869910E+00 -1.51973982E+01  7.59869910E+00
  7.59869910E+00 -1.51973982E+01  7.59869910E+00  7.59869910E+00 -1.51973982E+01
  7.59869910E+00  7.59869910E+00 -1.51973982E+01  7.59869910E+00  7.59869910E+00
 -1.51973982E+01  7.59869910E+00  7.59869910E+00 -1.51973982E+01  7.59869910E+00
  7.59869910E+00 -1.51973982E+01  7.59869910E+00  7.59869910E+00 -1.51973982E+01
  7.59869910E+00  7.59869910E+00 -1.51973982E+01  7.59869910E+00  7.59869910E+00
 -1.51973982E+01  7.59869910E+00  7.59869910E+00 -1.51973982E+01  7.59869910E+00
  7.59869910E+00 -1.51973982E+01  7.59869910E+00  7.59869910E+00 -1.51973982E+01
  7.59869910E+00  7.59869910E+00 -1.51973982E+01  7.59869910E+00  7.59869910E+00
 -1.51973982E+01  7.59869910E+00  7.59869910E+00 -1.51973982E+01  7.59869910E+00
  7.59869910E+00 -1.51973982E+01  7.59869910E+00  7.59869910E+00 -1.51973982E+01
  7.59869910E+00  7.59869910E+00 -1.51973982E+01  7.59869910E+00  7.59869910E+00
 -1.51973982E+01  7.59869910E+00  7.59869910E+00 -1.51973982E+01  7.59869910E+00
  7.59869910E+00 -1.51973982E+01  7.59869910E+00  7.59869910E+00 -1.51973982E+01
  7.59869910E+00  7.59869910E+00 -1.51973982E+01  7.59869910E+00  7.59869910E+00
 -1.51973982E+01  7.59869910E+00  7.59869910E+00 -1.51973982E+01  7.59869910E+00
  7.59869910E+00 -1.51973982E+01  7.59869910E+00  7.59869910E+00 -1.51973982E+01
  7.59869910E+00  7.59869910E+00 -1.51973982E+01  7.59869910E+00  7.59869910E+00
 -1.51973982E+01  7.59869910E+00  7.59869910E+00 -1.51973982E+01  7.59869910E+00
  7.59869910E+00 -1.51973982E+01  7.59869910E+00  7.59869910E+00 -1.51973982E+01
  7.59869910E+00  7.59869910E+00 -1.51973982E+01  7.59869910E+00  7.59869910E+00
 -1.51973982E+01  7.59869910E+00  7.59869910E+00 -1.51973982E+01  7.59869910E+00
  7.59869910E+00 -1.51973982E+01  7.59869910E+00  7.59869910E+00 -1.51973982E+01
  7.59869910E+00  7.59869910E+00 -1.51973982E+01  7.59869910E+00  7.59869910E+00
 -1.51973982E+01  7.59869910E+00  7.59869910E+00 -1.51973982E+01  7.59869910E+00
  7.59869910E+00 -1.51973982E+01  7.59869910E+00  7.59869910E+00 -1.51973982E+01
  7.59869910E+00  7.59869910E+00 -1.51973982E+01  7.59869910E+00  7.59869910E+00
 -1.51973982E+01  7.59869910E+00  7.59869910E+00 -1.51973982E+01  7.59869910E+00
  7.59869910E+00 -1.51973982E+01  7.59869910E+00  7.59869910E+00 -1.51973982E+01
  7.59869910E+00  7.59869910E+00 -1.51973982E+01  7.59869910E+00  7.59869910E+00
 -1.51973982E+01  7.59869910E+00  7.59869910E+00 -1.51973982E+01  7.59869910E+00
  7.59869910E+00 -1.51973982E+01  7.59869910E+00  7.59869910E+00 -1.51973982E+01
  7.59869910E+00  7.59869910E+00 -1.51973982E+01  7.59869910E+00  7.59869910E+00
 -1.51973982E+01  7.59869910E+00  7.59869910E+00 -1.51973982E+01  7.59869910E+00
  7.59869910E+00 -1.51973982E+01  7.59869910E+00  7.59869910E+00 -1.51973982E+01
  7.59869910E+00  7.59869910E+00 -1.51973982E+01  7.59869910E+00  7.59869910E+00
 -1.51973982E+01  7.59869910E+00  7.59869910E+00 -1.51973982E+01  7.59869910E+00
  7.59869910E+00 -1.51973982E+01  7.59869910E+00  7.59869910E+00 -1.51973982E+01
  7.59869910E+00  7.59869910E+00 -1.51973982E+01  7.59869910E+00  7.59869910E+00
 -1.51973982E+01  7.59869910E+00  7.59869910E+00 -1.51973982E+01  7.59869910E+00
  7.59869910E+00 -1.51973982E+01  7.59869910E+00  7.59869910E+00 -1.51973982E+01
  7.59869910E+00  7.59869910E+00 -1.51973982E+01  7.59869910E+00  7.59869910E+00
 -1.51973982E+01  7.59869910E+00  7.59869910E+00 -1.51973982E+01  7.59869910E+00
  7.59869910E+00 -1.51973982E+01  7.59869910E+00  7.59869910E+00 -1.51973982E+01
  7.59869910E+00  7.59869910E+00 -1.51973982E+01  7.59869910E+00  7.59869910E+00
 -1.51973982E+01  7.59869910E+00  7.59869910E+00 -1.51973982E+01  7.59869910E+00
  7.59869910E+00 -1.51973982E+01  7.59869910E+00  7.59869910E+00 -1.51973982E+01
  7.59869910E+00  7.59869910E+00 -1.51973982E+01  7.59869910E+00  7.59869910E+00
 -1.51973982E+01  7.59869910E+00  7.59869910E+00 -1.51973982E+01  7.59869910E+00
  7.59869910E+00 -1.51973982E+01  7.59869910E+00  7.59869910E+00 -1.51973982E+01
  7.59869910E+00  7.59869910E+00 -1.51973982E+01  7.59869910E+00  7.59869910E+00
 -1.51973982E+01  7.59869910E+00  7.59869910E+00 -1.51973982E+01  7.59869910E+00
  7.59869910E+00 -1.51973982E+01  7.59869910E+00  7.59869910E+00 -1.51973982E+01
  7.59869910E+00  7.59869910E+00 -1.51973982E+01  7.59869910E+00  7.59869910E+00
 -1.51973982E+01  7.59869910E+00  7.59869910E+00 -1.51973982E+01  7.59869910E+00
  7.59869910E+00 -1.51973982E+01  7.59869910E+00  7.59869910E+00 -1.51973982E+01
  7.59869910E+00  7.59869910E+00 -1.51973982E+01  7.59869910E+00  7.59869910E+00
 -1.51973982E+01  7.59869910E+00  7.59869910E+00 -1.51973982E+01  7.59869910E+00
  7.59869910E+00 -1.51973982E+01  7.59869910E+00  7.59869910E+00 -1.51973982E+01
  7.59869910E+00  7.59869910E+00 -1.51973982E+01  7.59869910E+00  7.59869910E+00
 -1.51973982E+01  7.59869910E+00  7.59869910E+00 -1.51973982E+01  7.59869910E+00
  7.59869910E+00 -1.51973982E+01  7.59869910E+00  7.59869910E+00 -1.51973982E+01
  7.59869910E+00  7.59869910E+00 -1.51973982E+01  7.59869910E+00  7.59869910E+00
 -1.51973982E+01  7.59869910E+00  7.59869910E+00 -1.51973982E+01  7.59869910E+00
  7.59869910E+00 -1.51973982E+01  7.59869910E+00  7.59869910E+00 -1.51973982E+01
  7.59869910E+00  7.59869910E+00 -1.51973982E+01  7.59869910E+00  7.59869910E+00
 -1.51973982E+01  7.59869910E+00  7.59869910E+00 -1.51973982E+01  7.59869910E+00
  7.59869910E+00 -1.51973982E+01  7.59869910E+00  7.59869910E+00 -1.51973982E+01
  7.59869910E+00  7.59869910E+00 -1.51973982E+01  7.59869910E+00  7.59869910E+00
 -1.51973982E+01  7.59869910E+00  7.59869910E+00 -1.51973982E+01  7.59869910E+00
  7.59869910E+00 -1.51973982E+01  7.59869910E+00  7.59869910E+00 -1.51973982E+01
  7.59869910E+00  7.59869910E+00 -1.51973982E+01  7.59869910E+00  7.59869910E+00
 -1.51973982E+01  7.59869910E+00  7.59869910E+00 -1.51973982E+01  7.59869910E+00
  7.59869910E+00 -1.51973982E+01  7.59869910E+00  7.59869910E+00 -1.51973982E+01
  7.59869910E+00  7.59869910E+00 -1.51973982E+01  7.59869910E+00  7.59869910E+00
 -1.51973982E+01  7.59869910E+00  7.59869910E+00 -1.51973982E+01  7.59869910E+00
  7.59869910E+00 -1.51973982E+01  7.59869910E+00  7.59869910E+00 -1.51973982E+01
  7.59869910E+00  7.59869910E+00 -1.51973982E+01  7.59869910E+00  7.59869910E+00
 -1.51973982E+01  7.59869910E+00  7.59869910E+00 -1.51973982E+01  7.59869910E+00
  7.59869910E+00 -1.51973982E+01  7.59869910E+00  7.59869910E+00 -1.51973982E+01
  7.59869910E+00  7.59869910E+00 -1.51973982E+01  7.59869910E+00  7.59869910E+00
 -1.51973982E+01  7.59869910E+00  7.59869910E+00 -1.51973982E+01  7.59869910E+00
  7.59869910E+00 -1.51973982E+01  7.59869910E+00  7.59869910E+00 -1.51973982E+01
  7.59869910E+00  7.59869910E+00 -1.51973982E+01  7.59869910E+00  7.59869910E+00
 -1.51973982E+01  7.59869910E+00  7.59869910E+00 -1.51973982E+01  7.59869910E+00
  7.59869910E+00 -1.51973982E+01  7.59869910E+00  7.59869910E+00 -1.51973982E+01
  7.59869910E+00  7.59869910E+00 -1.51973982E+01  7.59869910E+00  7.59869910E+00
 -1.51973982E+01  7.59869910E+00  7.59869910E+00 -1.51973982E+01  7.59869910E+00
  7.59869910E+00 -1.51973982E+01  7.59869910E+00  7.59869910E+00 -1.51973982E+01
  7.59869910E+00  7.59869910E+00 -1.51973982E+01  7.59869910E+00  7.59869910E+00
 -1.51973982E+01  7.59869910E+00  7.59869910E+00 -1.51973982E+01  7.59869910E+00
  7.59869910E+00 -1.51973982E+01  7.59869910E+00  7.59869910E+00 -1.51973982E+01
  7.59869910E+00  7.59869910E+00 -1.51973982E+01  7.59869910E+00  7.59869910E+00
 -1.51973982E+01  7.59869910E+00  7.59869910E+00 -1.51973982E+01  7.59869910E+00
  7.59869910E+00 -1.51973982E+01  7.59869910E+00  7.59869910E+00 -1.51973982E+01
  7.59869910E+00  7.59869910E+00 -1.51973982E+01  7.59869910E+00  7.59869910E+00
 -1.51973982E+01  7.59869910E+00  7.59869910E+00 -1.51973982E+01  7.59869910E+00
  7.59869910E+00 -1.51973982E+01  7.59869910E+00  7.59869910E+00 -1.51973982E+01
  7.59869910E+00  7.59869910E+00 -1.51973982E+01  7.59869910E+00  7.59869910E+00
 -1.51973982E+01  7.59869910E+00  7.59869910E+00 -1.51973982E+01  7.59869910E+00
  7.59869910E+00 -1.51973982E+01  7.59869910E+00  7.59869910E+00 -1.51973982E+01
  7.59869910E+00  7.59869910E+00 -1.51973982E+01  7.59869910E+00  7.59869910E+00
 -1.51973982E+01  7.59869910E+00  7.59869910E+00 -1.51973982E+01  7.59869910E+00
  7.59869910E+00 -1.51973982E+01  7.59869910E+00  7.59869910E+00 -1.51973982E+01
  7.59869910E+00  7.59869910E+00 -1.51973982E+01  7.59869910E+00  7.59869910E+00
 -1.51973982E+01  7.59869910E+00  7.59869910E+00 -1.51973982E+01  7.59869910E+00
  7.59869910E+00 -1.51973982E+01  7.59869910E+00  7.59869910E+00 -1.51973982E+01
  7.59869910E+00  7.59869910E+00 -1.51973982E+01  7.59869910E+00  7.59869910E+00
 -1.51973982E+01  7.59869910E+00  7.59869910E+00 -1.51973982E+01  7.59869910E+00
  7.59869910E+00 -1.51973982E+01  7.59869910E+00  7.59869910E+00 -1.51973982E+01
  7.59869910E+00  7.59869910E+00 -1.51973982E+01  7.59869910E+00  7.59869910E+00
 -1.51973982E+01  7.59869910E+00  7.59869910E+00 -1.51973982E+01  7.59869910E+00
  7.59869910E+00 -1.51973982E+01  7.59869910E+00  7.59869910E+00 -1.51973982E+01
  7.59869910E+00  7.59869910E+00 -1.51973982E+01  7.59869910E+00  7.59869910E+00
 -1.51973982E+01  7.59869910E+00  7.59869910E+00 -1.51973982E+01  7.59869910E+00
  7.59869910E+00 -1.51973982E+01  7.59869910E+00  7.59869910E+00 -1.51973982E+01
  7.59869910E+00  7.59869910E+00 -1.51973982E+01  7.59869910E+00  7.59869910E+00
 -1.51973982E+01  7.59869910E+00  7.59869910E+00 -1.51973982E+01  7.59869910E+00
  7.59869910E+00 -1.51973982E+01  7.59869910E+00  7.59869910E+00 -1.51973982E+01
  7.59869910E+00  7.59869910E+00 -1.51973982E+01  7.59869910E+00  7.59869910E+00
 -1.51973982E+01  7.59869910E+00  7.59869910E+00 -1.51973982E+01  7.59869910E+00
  7.59869910E+00 -1.51973982E+01  7.59869910E+00  7.59869910E+00 -1.51973982E+01
  7.59869910E+00  7.59869910E+00 -1.51973982E+01  7.59869910E+00  7.59869910E+00
 -1.51973982E+01  7.59869910E+00  7.59869910E+00 -1.51973982E+01  7.59869910E+00
  7.59869910E+00 -1.51973982E+01  7.59869910E+00  7.59869910E+00 -1.51973982E+01
  7.59869910E+00  7.59869910E+00 -1.51973982E+01  7.59869910E+00  7.59869910E+00
 -1.51973982E+01  7.59869910E+00  7.59869910E+00 -1.51973982E+01  7.59869910E+00
  7.59869910E+00 -1.51973982E+01  7.59869910E+00  7.59869910E+00 -1.51973982E+01
  7.59869910E+00  7.59869910E+00 -1.51973982E+01  7.59869910E+00  7.59869910E+00
 -1.51973982E+01  7.59869910E+00  7.59869910E+00 -1.51973982E+01  7.59869910E+00
  7.59869910E+00 -1.51973982E+01  7.59869910E+00  7.59869910E+00 -1.51973982E+01
  7.59869910E+00  7.59869910E+00 -1.51973982E+01  7.59869910E+00  7.59869910E+00
 -1.51973982E+01  7.59869910E+00  7.59869910E+00 -1.51973982E+01  7.59869910E+00
  7.59869910E+00 -1.51973982E+01  7.59869910E+00  7.59869910E+00 -1.51973982E+01
  7.59869910E+00  7.59869910E+00 -1.51973982E+01  7.59869910E+00  7.59869910E+00
 -1.51973982E+01  7.59869910E+00  7.59869910E+00 -1.51973982E+01  7.59869910E+00
  7.59869910E+00 -1.51973982E+01  7.59869910E+00  7.59869910E+00 -1.51973982E+01
  7.59869910E+00  7.59869910E+00 -1.51973982E+01  7.59869910E+00  7.59869910E+00
 -1.51973982E+01  7.59869910E+00  7.59869910E+00 -1.51973982E+01  7.59869910E+00
  7.59869910E+00 -1.51973982E+01  7.59869910E+00  7.59869910E+00 -1.51973982E+01
  7.59869910E+00  7.59869910E+00 -1.51973982E+01  7.59869910E+00  7.59869910E+00
 -1.51973982E+01  7.59869910E+00  7.59869910E+00 -1.51973982E+01  7.59869910E+00
  7.59869910E+00 -1.51973982E+01  7.59869910E+00  7.59869910E+00 -1.51973982E+01
  7.59869910E+00  7.59869910E+00 -1.51973982E+01  7.59869910E+00  7.59869910E+00
 -1.51973982E+01  7.59869910E+00  7.59869910E+00 -1.51973982E+01  7.59869910E+00
  7.59869910E+00 -1.51973982E+01  7.59869910E+00  7.59869910E+00 -1.51973982E+01
  7.59869910E+00  7.59869910E+00 -1.51973982E+01  7.59869910E+00  7.59869910E+00
 -1.51973982E+01  7.59869910E+00  7.59869910E+00 -1.51973982E+01  7.59869910E+00
  7.59869910E+00 -1.51973982E+01  7.59869910E+00  7.59869910E+00 -1.51973982E+01
  7.59869910E+00  7.59869910E+00 -1.51973982E+01  7.59869910E+00  7.59869910E+00
 -1.51973982E+01  7.59869910E+00  7.59869910E+00 -1.51973982E+01  7.59869910E+00
  7.59869910E+00 -1.51973982E+01  7.59869910E+00  7.59869910E+00 -1.51973982E+01
  7.59869910E+00  7.59869910E+00 -1.51973982E+01  7.59869910E+00  7.59869910E+00
 -1.51973982E+01  7.59869910E+00  7.59869910E+00 -1.51973982E+01  7.59869910E+00
  7.59869910E+00 -1.51973982E+01  7.59869910E+00  7.59869910E+00 -1.51973982E+01
  7.59869910E+00  7.59869910E+00 -1.51973982E+01  7.59869910E+00  7.59869910E+00
 -1.51973982E+01  7.59869910E+00  7.59869910E+00 -1.51973982E+01  7.59869910E+00
  7.59869910E+00 -1.51973982E+01  7.59869910E+00  7.59869910E+00 -1.51973982E+01
  7.59869910E+00  7.59869910E+00 -1.51973982E+01  7.59869910E+00  7.59869910E+00
 -1.51973982E+01  7.59869910E+00  7.59869910E+00 -1.51973982E+01  7.59869910E+00
  7.59869910E+00 -1.51973982E+01  7.59869910E+00  7.59869910E+00 -1.51973982E+01
  7.59869910E+00  7.59869910E+00 -1.51973982E+01  7.59869910E+00  7.59869910E+00
 -1.51973982E+01  7.59869910E+00  7.59869910E+00 -1.51973982E+01  7.59869910E+00
  7.59869910E+00 -1.51973982E+01  7.59869910E+00  7.59869910E+00 -1.51973982E+01
  7.59869910E+00  7.59869910E+00 -1.51973982E+01  7.59869910E+00  7.59869910E+00
 -1.51973982E+01  7.59869910E+00  7.59869910E+00 -1.51973982E+01  7.59869910E+00
  7.59869910E+00 -1.51973982E+01  7.59869910E+00  7.59869910E+00 -1.51973982E+01
  7.59869910E+00  7.59869910E+00 -1.51973982E+01  7.59869910E+00  7.59869910E+00
 -1.51973982E+01  7.59869910E+00  7.59869910E+00 -1.51973982E+01  7.59869910E+00
  7.59869910E+00 -1.51973982E+01  7.59869910E+00  7.59869910E+00 -1.51973982E+01
  7.59869910E+00  7.59869910E+00 -1.51973982E+01  7.59869910E+00  7.59869910E+00
 -1.51973982E+01  7.59869910E+00  7.59869910E+00 -1.51973982E+01  7.59869910E+00
  7.59869910E+00 -1.51973982E+01  7.59869910E+00  7.59869910E+00 -1.51973982E+01
  7.59869910E+00  7.59869910E+00 -1.51973982E+01  7.59869910E+00  7.59869910E+00
 -1.51973982E+01  7.59869910E+00  7.59869910E+00 -1.51973982E+01  7.59869910E+00
  7.59869910E+00 -1.51973982E+01  7.59869910E+00  7.59869910E+00 -1.51973982E+01
  7.59869910E+00  7.59869910E+00 -1.51973982E+01  7.59869910E+00  7.59869910E+00
 -1.51973982E+01  7.59869910E+00  7.59869910E+00 -1.51973982E+01  7.59869910E+00
  7.59869910E+00 -1.51973982E+01  7.59869910E+00  7.59869910E+00 -1.51973982E+01
  7.59869910E+00  7.59869910E+00 -1.51973982E+01  7.59869910E+00  7.59869910E+00
 -1.51973982E+01  7.59869910E+00  7.59869910E+00 -1.51973982E+01  7.59869910E+00
  7.59869910E+00 -1.51973982E+01  7.59869910E+00  7.59869910E+00 -1.51973982E+01
  7.59869910E+00  7.59869910E+00 -1.51973982E+01  7.59869910E+00  7.59869910E+00
 -1.51973982E+01  7.59869910E+00  7.59869910E+00 -1.51973982E+01  7.59869910E+00
  7.59869910E+00 -1.51973982E+01  7.59869910E+00  7.59869910E+00 -1.51973982E+01
  7.59869910E+00  7.59869910E+00 -1.51973982E+01  7.59869910E+00  7.59869910E+00
 -1.51973982E+01  7.59869910E+00  7.59869910E+00 -1.51973982E+01  7.59869910E+00
  7.59869910E+00 -1.51973982E+01  7.59869910E+00  7.59869910E+00 -1.51973982E+01
  7.59869910E+00  7.59869910E+00 -1.51973982E+01  7.59869910E+00  7.59869910E+00
 -1.51973982E+01  7.59869910E+00  7.59869910E+00 -1.51973982E+01  7.59869910E+00
  7.59869910E+00 -1.51973982E+01  7.59869910E+00  7.59869910E+00 -1.51973982E+01
  7.59869910E+00  7.59869910E+00 -1.51973982E+01  7.59869910E+00  7.59869910E+00
 -1.51973982E+01  7.59869910E+00  7.59869910E+00 -1.51973982E+01  7.59869910E+00
  7.59869910E+00 -1.51973982E+01  7.59869910E+00  7.59869910E+00 -1.51973982E+01
  7.59869910E+00  7.59869910E+00 -1.51973982E+01  7.59869910E+00  7.59869910E+00
 -1.51973982E+01  7.59869910E+00  7.59869910E+00 -1.51973982E+01  7.59869910E+00
  7.59869910E+00 -1.51973982E+01  7.59869910E+00  7.59869910E+00 -1.51973982E+01
  7.59869910E+00  7.59869910E+00 -1.51973982E+01  7.59869910E+00  7.59869910E+00
 -1.51973982E+01  7.59869910E+00  7.59869910E+00 -1.51973982E+01  7.59869910E+00
  7.59869910E+00 -1.51973982E+01  7.59869910E+00  7.59869910E+00 -1.51973982E+01
  7.59869910E+00  7.59869910E+00 -1.51973982E+01  7.59869910E+00  7.59869910E+00
 -1.51973982E+01  7.59869910E+00  7.59869910E+00 -1.51973982E+01  7.59869910E+00
  7.59869910E+00 -1.51973982E+01  7.59869910E+00  7.59869910E+00 -1.51973982E+01
  7.59869910E+00  7.59869910E+00 -1.51973982E+01  7.59869910E+00  7.59869910E+00
 -1.51973982E+01  7.59869910E+00  7.59869910E+00 -1.51973982E+01  7.59869910E+00
  7.59869910E+00 -1.51973982E+01  7.59869910E+00  7.59869910E+00 -1.51973982E+01
  7.59869910E+00  7.59869910E+00 -1.51973982E+01  7.59869910E+00  7.59869910E+00
 -1.51973982E+01  7.59869910E+00  7.59869910E+00 -1.51973982E+01  7.59869910E+00
  7.59869910E+00 -1.51973982E+01  7.59869910E+00  7.59869910E+00 -1.51973982E+01
  7.59869910E+00  7.59869910E+00 -1.51973982E+01  7.59869910E+00  7.59869910E+00
 -1.51973982E+01  7.59869910E+00  7.59869910E+00 -1.51973982E+01  7.59869910E+00
  7.59869910E+00 -1.51973982E+01  7.59869910E+00  7.59869910E+00 -1.51973982E+01
  7.59869910E+00  7.59869910E+00 -1.51973982E+01  7.59869910E+00  7.59869910E+00
 -1.51973982E+01  7.59869910E+00  7.59869910E+00 -1.51973982E+01  7.59869910E+00
  7.59869910E+00 -1.51973982E+01  7.59869910E+00  7.59869910E+00 -1.51973982E+01
  7.59869910E+00  7.59869910E+00 -1.51973982E+01  7.59869910E+00  7.59869910E+00
 -1.51973982E+01  7.59869910E+00  7.59869910E+00 -1.51973982E+01  7.59869910E+00
  7.59869910E+00 -1.51973982E+01  7.59869910E+00  7.59869910E+00 -1.51973982E+01
  7.59869910E+00  7.59869910E+00 -1.51973982E+01  7.59869910E+00  7.59869910E+00
 -1.51973982E+01  7.59869910E+00  7.59869910E+00 -1.51973982E+01  7.59869910E+00
  7.59869910E+00 -1.51973982E+01  7.59869910E+00  7.59869910E+00 -1.51973982E+01
  7.59869910E+00  7.59869910E+00 -1.51973982E+01  7.59869910E+00  7.59869910E+00
 -1.51973982E+01  7.59869910E+00  7.59869910E+00 -1.51973982E+01  7.59869910E+00
  7.59869910E+00 -1.51973982E+01  7.59869910E+00  7.59869910E+00 -1.51973982E+01
  7.59869910E+00  7.59869910E+00 -1.51973982E+01  7.59869910E+00  7.59869910E+00
 -1.51973982E+01  7.59869910E+00  7.59869910E+00 -1.51973982E+01  7.59869910E+00
  7.59869910E+00 -1.51973982E+01  7.59869910E+00  7.59869910E+00 -1.51973982E+01
  7.59869910E+00  7.59869910E+00 -1.51973982E+01  7.59869910E+00  7.59869910E+00
 -1.51973982E+01  7.59869910E+00  7.59869910E+00 -1.51973982E+01  7.59869910E+00
  7.59869910E+00 -1.51973982E+01  7.59869910E+00  7.59869910E+00 -1.51973982E+01
  7.59869910E+00  7.59869910E+00 -1.51973982E+01  7.59869910E+00  7.59869910E+00
 -1.51973982E+01  7.59869910E+00  7.59869910E+00 -1.51973982E+01  7.59869910E+00
  7.59869910E+00 -1.51973982E+01  7.59869910E+00  7.59869910E+00 -1.51973982E+01
  7.59869910E+00  7.59869910E+00 -1.51973982E+01  7.59869910E+00  7.59869910E+00
 -1.51973982E+01  7.59869910E+00  7.59869910E+00 -1.51973982E+01  7.59869910E+00
  7.59869910E+00 -1.51973982E+01  7.59869910E+00  7.59869910E+00 -1.51973982E+01
  7.59869910E+00  7.59869910E+00 -1.51973982E+01  7.59869910E+00  7.59869910E+00
 -1.51973982E+01  7.59869910E+00  7.59869910E+00 -1.51973982E+01  7.59869910E+00
  7.59869910E+00 -1.51973982E+01  7.59869910E+00  7.59869910E+00 -1.51973982E+01
  7.59869910E+00  7.59869910E+00 -1.51973982E+01  7.59869910E+00  7.59869910E+00
 -1.51973982E+01  7.59869910E+00  7.59869910E+00 -1.51973982E+01  7.59869910E+00
  7.59869910E+00 -1.51973982E+01  7.59869910E+00  7.59869910E+00 -1.51973982E+01
  7.59869910E+00  7.59869910E+00 -1.51973982E+01  7.59869910E+00  7.59869910E+00
 -1.51973982E+01  7.59869910E+00  7.59869910E+00 -1.51973982E+01  7.59869910E+00
  7.59869910E+00 -1.51973982E+01  7.59869910E+00  7.59869910E+00 -1.51973982E+01
  7.59869910E+00  7.59869910E+00 -1.51973982E+01  7.59869910E+00  7.59869910E+00
 -1.51973982E+01  7.59869910E+00  7.59869910E+00 -1.51973982E+01  7.59869910E+00
  7.59869910E+00 -1.51973982E+01  7.59869910E+00  7.59869910E+00 -1.51973982E+01
  7.59869910E+00  7.59869910E+00 -1.51973982E+01  7.59869910E+00  7.59869910E+00
 -1.51973982E+01  7.59869910E+00  7.59869910E+00 -1.51973982E+01  7.59869910E+00
  7.59869910E+00 -1.51973982E+01  7.59869910E+00  7.59869910E+00 -1.51973982E+01
  7.59869910E+00  7.59869910E+00 -1.51973982E+01  7.59869910E+00  7.59869910E+00
 -1.51973982E+01  7.59869910E+00  7.59869910E+00 -1.51973982E+01  7.59869910E+00
  7.59869910E+00 -1.51973982E+01  7.59869910E+00  7.59869910E+00 -1.51973982E+01
  7.59869910E+00  7.59869910E+00 -1.51973982E+01  7.59869910E+00  7.59869910E+00
 -1.51973982E+01  7.59869910E+00  7.59869910E+00 -1.51973982E+01  7.59869910E+00
  7.59869910E+00 -1.51973982E+01  7.59869910E+00  7.59869910E+00 -1.51973982E+01
  7.59869910E+00  7.59869910E+00 -1.51973982E+01  7.59869910E+00  7.59869910E+00
 -1.51973982E+01  7.59869910E+00  7.59869910E+00 -1.51973982E+01  7.59869910E+00
  7.59869910E+00 -1.51973982E+01  7.59869910E+00  7.59869910E+00 -1.51973982E+01
  7.59869910E+00  7.59869910E+00 -1.51973982E+01  7.59869910E+00  7.59869910E+00
 -1.51973982E+01  7.59869910E+00  7.59869910E+00 -1.51973982E+01  7.59869910E+00
  7.59869910E+00 -1.51973982E+01  7.59869910E+00  7.59869910E+00 -1.51973982E+01
  7.59869910E+00  7.59869910E+00 -1.51973982E+01  7.59869910E+00  7.59869910E+00
 -1.51973982E+01  7.59869910E+00  7.59869910E+00 -1.51973982E+01  7.59869910E+00
  7.59869910E+00 -1.51973982E+01  7.59869910E+00  7.59869910E+00 -1.51973982E+01
  7.59869910E+00  7.59869910E+00 -1.51973982E+01  7.59869910E+00  7.59869910E+00
 -1.51973982E+01  7.59869910E+00  7.59869910E+00 -1.51973982E+01  7.59869910E+00
  7.59869910E+00 -1.51973982E+01  7.59869910E+00  7.59869910E+00 -1.51973982E+01
  7.59869910E+00  7.59869910E+00 -1.51973982E+01  7.59869910E+00  7.59869910E+00
 -1.51973982E+01  7.59869910E+00  7.59869910E+00 -1.51973982E+01  7.59869910E+00
  7.59869910E+00 -1.51973982E+01  7.59869910E+00  7.59869910E+00 -1.51973982E+01
  7.59869910E+00  7.59869910E+00 -1.51973982E+01  7.59869910E+00  7.59869910E+00
 -1.51973982E+01  7.59869910E+00  7.59869910E+00 -1.51973982E+01  7.59869910E+00
  7.59869910E+00 -1.51973982E+01  7.59869910E+00  7.59869910E+00 -1.51973982E+01
  7.59869910E+00  7.59869910E+00 -1.51973982E+01  7.59869910E+00  7.59869910E+00
 -1.51973982E+01  7.59869910E+00  7.59869910E+00 -1.51973982E+01  7.59869910E+00
  7.59869910E+00 -1.51973982E+01  7.59869910E+00  7.59869910E+00 -1.51973982E+01
  7.59869910E+00  7.59869910E+00 -1.51973982E+01  7.59869910E+00  7.59869910E+00
 -1.51973982E+01  7.59869910E+00  7.59869910E+00 -1.51973982E+01  7.59869910E+00
  7.59869910E+00 -1.51973982E+01  7.59869910E+00  7.59869910E+00 -1.51973982E+01
  7.59869910E+00  7.59869910E+00 -1.51973982E+01  7.59869910E+00  7.59869910E+00
 -1.51973982E+01  7.59869910E+00  7.59869910E+00 -1.51973982E+01  7.59869910E+00
  7.59869910E+00 -1.51973982E+01  7.59869910E+00  7.59869910E+00 -1.51973982E+01
  7.59869910E+00  7.59869910E+00 -1.51973982E+01  7.59869910E+00  7.59869910E+00
 -1.51973982E+01  7.59869910E+00  7.59869910E+00 -1.51973982E+01  7.59869910E+00
  7.59869910E+00 -1.51973982E+01  7.59869910E+00  7.59869910E+00 -1.51973982E+01
  7.59869910E+00  7.59869910E+00 -1.51973982E+01  7.59869910E+00  7.59869910E+00
 -1.51973982E+01  7.59869910E+00  7.59869910E+00 -1.51973982E+01  7.59869910E+00
  7.59869910E+00 -1.51973982E+01  7.59869910E+00  7.59869910E+00 -1.51973982E+01
  7.59869910E+00  7.59869910E+00 -1.51973982E+01  7.59869910E+00  7.59869910E+00
 -1.51973982E+01  7.59869910E+00  7.59869910E+00 -1.51973982E+01  7.59869910E+00
  7.59869910E+00 -1.51973982E+01  7.59869910E+00  7.59869910E+00 -1.51973982E+01
  7.59869910E+00  7.59869910E+00 -1.51973982E+01  7.59869910E+00  7.59869910E+00
 -1.51973982E+01  7.59869910E+00  7.59869910E+00 -1.51973982E+01  7.59869910E+00
  7.59869910E+00 -1.51973982E+01  7.59869910E+00  7.59869910E+00 -1.51973982E+01
  7.59869910E+00  7.59869910E+00 -1.51973982E+01  7.59869910E+00  7.59869910E+00
 -1.51973982E+01  7.59869910E+00  7.59869910E+00 -1.51973982E+01  7.59869910E+00
  7.59869910E+00 -1.51973982E+01  7.59869910E+00  7.59869910E+00 -1.51973982E+01
  7.59869910E+00  7.59869910E+00 -1.51973982E+01  7.59869910E+00  7.59869910E+00
 -1.51973982E+01  7.59869910E+00  7.59869910E+00 -1.51973982E+01  7.59869910E+00
  7.59869910E+00 -1.51973982E+01  7.59869910E+00  7.59869910E+00 -1.51973982E+01
  7.59869910E+00  7.59869910E+00 -1.51973982E+01  7.59869910E+00  7.59869910E+00
 -1.51973982E+01  7.59869910E+00  7.59869910E+00 -1.51973982E+01  7.59869910E+00
  7.59869910E+00 -1.51973982E+01  7.59869910E+00  7.59869910E+00 -1.51973982E+01
  7.59869910E+00  7.59869910E+00 -1.51973982E+01  7.59869910E+00  7.59869910E+00
 -1.51973982E+01  7.59869910E+00  7.59869910E+00 -1.51973982E+01  7.59869910E+00
  7.59869910E+00 -1.51973982E+01  7.59869910E+00  7.59869910E+00 -1.51973982E+01
  7.59869910E+00  7.59869910E+00 -1.51973982E+01  7.59869910E+00  7.59869910E+00
 -1.51973982E+01  7.59869910E+00  7.59869910E+00 -1.51973982E+01  7.59869910E+00
  7.59869910E+00 -1.51973982E+01  7.59869910E+00  7.59869910E+00 -1.51973982E+01
  7.59869910E+00  7.59869910E+00 -1.51973982E+01  7.59869910E+00  7.59869910E+00
 -1.51973982E+01  7.59869910E+00  7.59869910E+00 -1.51973982E+01  7.59869910E+00
  7.59869910E+00 -1.51973982E+01  7.59869910E+00  7.59869910E+00 -1.51973982E+01
  7.59869910E+00  7.59869910E+00 -1.51973982E+01  7.59869910E+00  7.59869910E+00
 -1.51973982E+01  7.59869910E+00  7.59869910E+00 -1.51973982E+01  7.59869910E+00
  7.59869910E+00 -1.51973982E+01  7.59869910E+00  7.59869910E+00 -1.51973982E+01
  7.59869910E+00  7.59869910E+00 -1.51973982E+01  7.59869910E+00  7.59869910E+00
 -1.51973982E+01  7.59869910E+00  7.59869910E+00 -1.51973982E+01  7.59869910E+00
  7.59869910E+00 -1.51973982E+01  7.59869910E+00  7.59869910E+00 -1.51973982E+01
  7.59869910E+00  7.59869910E+00 -1.51973982E+01  7.59869910E+00  7.59869910E+00
 -1.51973982E+01  7.59869910E+00  7.59869910E+00 -1.51973982E+01  7.59869910E+00
  7.59869910E+00 -1.51973982E+01  7.59869910E+00  7.59869910E+00 -1.51973982E+01
  7.59869910E+00  7.59869910E+00 -1.51973982E+01  7.59869910E+00  7.59869910E+00
 -1.51973982E+01  7.59869910E+00  7.59869910E+00 -1.51973982E+01  7.59869910E+00
  7.59869910E+00 -1.51973982E+01  7.59869910E+00  7.59869910E+00 -1.51973982E+01
  7.59869910E+00  7.59869910E+00 -1.51973982E+01  7.59869910E+00  7.59869910E+00
 -1.51973982E+01  7.59869910E+00  7.59869910E+00 -1.51973982E+01  7.59869910E+00
  7.59869910E+00 -1.51973982E+01  7.59869910E+00  7.59869910E+00 -1.51973982E+01
  7.59869910E+00  7.59869910E+00 -1.51973982E+01  7.59869910E+00  7.59869910E+00
 -1.51973982E+01  7.59869910E+00  7.59869910E+00 -1.51973982E+01  7.59869910E+00
  7.59869910E+00 -1.51973982E+01  7.59869910E+00  7.59869910E+00 -1.51973982E+01
  7.59869910E+00  7.59869910E+00 -1.51973982E+01  7.59869910E+00  7.59869910E+00
 -1.51973982E+01  7.59869910E+00  7.59869910E+00 -1.51973982E+01  7.59869910E+00
  7.59869910E+00 -1.51973982E+01  7.59869910E+00  7.59869910E+00 -1.51973982E+01
  7.59869910E+00  7.59869910E+00 -1.51973982E+01  7.59869910E+00  7.59869910E+00
 -1.51973982E+01  7.59869910E+00  7.59869910E+00 -1.51973982E+01  7.59869910E+00
  7.59869910E+00 -1.51973982E+01  7.59869910E+00  7.59869910E+00 -1.51973982E+01
  7.59869910E+00  7.59869910E+00 -1.51973982E+01  7.59869910E+00  7.59869910E+00
 -1.51973982E+01  7.59869910E+00  7.59869910E+00 -1.51973982E+01  7.59869910E+00
  7.59869910E+00 -1.51973982E+01  7.59869910E+00  7.59869910E+00 -1.51973982E+01
  7.59869910E+00  7.59869910E+00 -1.51973982E+01  7.59869910E+00  7.59869910E+00
 -1.51973982E+01  7.59869910E+00  7.59869910E+00 -1.51973982E+01  7.59869910E+00
  7.59869910E+00 -1.51973982E+01  7.59869910E+00  7.59869910E+00 -1.51973982E+01
  7.59869910E+00  7.59869910E+00 -1.51973982E+01  7.59869910E+00  7.59869910E+00
 -1.51973982E+01  7.59869910E+00  7.59869910E+00 -1.51973982E+01  7.59869910E+00
  7.59869910E+00 -1.51973982E+01  7.59869910E+00  7.59869910E+00 -1.51973982E+01
  7.59869910E+00  7.59869910E+00 -1.51973982E+01  7.59869910E+00  7.59869910E+00
 -1.51973982E+01  7.59869910E+00  7.59869910E+00 -1.51973982E+01  7.59869910E+00
  7.59869910E+00 -1.51973982E+01  7.59869910E+00  7.59869910E+00 -1.51973982E+01
  7.59869910E+00  7.59869910E+00 -1.51973982E+01  7.59869910E+00  7.59869910E+00
 -1.51973982E+01  7.59869910E+00  7.59869910E+00 -1.51973982E+01  7.59869910E+00
  7.59869910E+00 -1.51973982E+01  7.59869910E+00  7.59869910E+00 -1.51973982E+01
  7.59869910E+00  7.59869910E+00 -1.51973982E+01  7.59869910E+00  7.59869910E+00
 -1.51973982E+01  7.59869910E+00  7.59869910E+00 -1.51973982E+01  7.59869910E+00
  7.59869910E+00 -1.51973982E+01  7.59869910E+00  7.59869910E+00 -1.51973982E+01
  7.59869910E+00  7.59869910E+00 -1.51973982E+01  7.59869910E+00  7.59869910E+00
 -1.51973982E+01  7.59869910E+00  7.59869910E+00 -1.51973982E+01  7.59869910E+00
  7.59869910E+00 -1.51973982E+01  7.59869910E+00  7.59869910E+00 -1.51973982E+01
  7.59869910E+00  7.59869910E+00 -1.51973982E+01  7.59869910E+00  7.59869910E+00
 -1.51973982E+01  7.59869910E+00  7.59869910E+00 -1.51973982E+01  7.59869910E+00
  7.59869910E+00 -1.51973982E+01  7.59869910E+00  7.59869910E+00 -1.51973982E+01
  7.59869910E+00  7.59869910E+00 -1.51973982E+01  7.59869910E+00  7.59869910E+00
 -1.51973982E+01  7.59869910E+00  7.59869910E+00 -1.51973982E+01  7.59869910E+00
  7.59869910E+00 -1.51973982E+01  7.59869910E+00  7.59869910E+00 -1.51973982E+01
  7.59869910E+00  7.59869910E+00 -1.51973982E+01  7.59869910E+00  7.59869910E+00
 -1.51973982E+01  7.59869910E+00  7.59869910E+00 -1.51973982E+01  7.59869910E+00
  7.59869910E+00 -1.51973982E+01  7.59869910E+00  7.59869910E+00 -1.51973982E+01
  7.59869910E+00  7.59869910E+00 -1.51973982E+01  7.59869910E+00  7.59869910E+00
 -1.51973982E+01  7.59869910E+00  7.59869910E+00 -1.51973982E+01  7.59869910E+00
  7.59869910E+00 -1.51973982E+01  7.59869910E+00  7.59869910E+00 -1.51973982E+01
  7.59869910E+00  7.59869910E+00 -1.51973982E+01  7.59869910E+00  7.59869910E+00
 -1.51973982E+01  7.59869910E+00  7.59869910E+00 -1.51973982E+01  7.59869910E+00
  7.59869910E+00 -1.51973982E+01  7.59869910E+00  7.59869910E+00 -1.51973982E+01
  7.59869910E+00  7.59869910E+00 -1.51973982E+01  7.59869910E+00  7.59869910E+00
 -1.51973982E+01  7.59869910E+00  7.59869910E+00 -1.51973982E+01  7.59869910E+00
  7.59869910E+00 -1.51973982E+01  7.59869910E+00  7.59869910E+00 -1.51973982E+01
  7.59869910E+00  7.59869910E+00 -1.51973982E+01  7.59869910E+00  7.59869910E+00
 -1.51973982E+01  7.59869910E+00  7.59869910E+00 -1.51973982E+01  7.59869910E+00
  7.59869910E+00 -1.51973982E+01  7.59869910E+00  7.59869910E+00 -1.51973982E+01
  7.59869910E+00  7.59869910E+00 -1.51973982E+01  7.59869910E+00  7.59869910E+00
 -1.51973982E+01  7.59869910E+00  7.59869910E+00 -1.51973982E+01  7.59869910E+00
  7.59869910E+00 -1.51973982E+01  7.59869910E+00  7.59869910E+00 -1.51973982E+01
  7.59869910E+00  7.59869910E+00 -1.51973982E+01  7.59869910E+00  7.59869910E+00
 -1.51973982E+01  7.59869910E+00  7.59869910E+00 -1.51973982E+01  7.59869910E+00
  7.59869910E+00 -1.51973982E+01  7.59869910E+00  7.59869910E+00 -1.51973982E+01
  7.59869910E+00  7.59869910E+00 -1.51973982E+01  7.59869910E+00  7.59869910E+00
 -1.51973982E+01  7.59869910E+00  7.59869910E+00 -1.51973982E+01  7.59869910E+00
  7.59869910E+00 -1.51973982E+01  7.59869910E+00  7.59869910E+00 -1.51973982E+01
  7.59869910E+00  7.59869910E+00 -1.51973982E+01  7.59869910E+00  7.59869910E+00
 -1.51973982E+01  7.59869910E+00  7.59869910E+00 -1.51973982E+01  7.59869910E+00
  7.59869910E+00 -1.51973982E+01  7.59869910E+00  7.59869910E+00 -1.51973982E+01
  7.59869910E+00  7.59869910E+00 -1.51973982E+01  7.59869910E+00  7.59869910E+00
 -1.51973982E+01  7.59869910E+00  7.59869910E+00 -1.51973982E+01  7.59869910E+00
  7.59869910E+00 -1.51973982E+01  7.59869910E+00  7.59869910E+00 -1.51973982E+01
  7.59869910E+00  7.59869910E+00 -1.51973982E+01  7.59869910E+00  7.59869910E+00
 -1.51973982E+01  7.59869910E+00  7.59869910E+00 -1.51973982E+01  7.59869910E+00
  7.59869910E+00 -1.51973982E+01  7.59869910E+00  7.59869910E+00 -1.51973982E+01
  7.59869910E+00  7.59869910E+00 -1.51973982E+01  7.59869910E+00  7.59869910E+00
 -1.51973982E+01  7.59869910E+00  7.59869910E+00 -1.51973982E+01  7.59869910E+00
  7.59869910E+00 -1.51973982E+01  7.59869910E+00  7.59869910E+00 -1.51973982E+01
  7.59869910E+00  7.59869910E+00 -1.51973982E+01  7.59869910E+00  7.59869910E+00
 -1.51973982E+01  7.59869910E+00  7.59869910E+00 -1.51973982E+01  7.59869910E+00
  7.59869910E+00 -1.51973982E+01  7.59869910E+00  7.59869910E+00 -1.51973982E+01
  7.59869910E+00  7.59869910E+00 -1.51973982E+01  7.59869910E+00  7.59869910E+00
 -1.51973982E+01  7.59869910E+00  7.59869910E+00 -1.51973982E+01  7.59869910E+00
  7.59869910E+00 -1.51973982E+01  7.59869910E+00  7.59869910E+00 -1.51973982E+01
  7.59869910E+00  7.59869910E+00 -1.51973982E+01  7.59869910E+00  7.59869910E+00
 -1.51973982E+01  7.59869910E+00  7.59869910E+00 -1.51973982E+01  7.59869910E+00
  7.59869910E+00 -1.51973982E+01  7.59869910E+00  7.59869910E+00 -1.51973982E+01
  7.59869910E+00  7.59869910E+00 -1.51973982E+01  7.59869910E+00  7.59869910E+00
 -1.51973982E+01  7.59869910E+00  7.59869910E+00 -1.51973982E+01  7.59869910E+00
  7.59869910E+00 -1.51973982E+01  7.59869910E+00  7.59869910E+00 -1.51973982E+01
  7.59869910E+00  7.59869910E+00 -1.51973982E+01  7.59869910E+00  7.59869910E+00
 -1.51973982E+01  7.59869910E+00  7.59869910E+00 -1.51973982E+01  7.59869910E+00
  7.59869910E+00 -1.51973982E+01  7.59869910E+00  7.59869910E+00 -1.51973982E+01
  7.59869910E+00  7.59869910E+00 -1.51973982E+01  7.59869910E+00  7.59869910E+00
 -1.51973982E+01  7.59869910E+00  7.59869910E+00 -1.51973982E+01  7.59869910E+00
  7.59869910E+00 -1.51973982E+01  7.59869910E+00  7.59869910E+00 -1.51973982E+01
  7.59869910E+00  7.59869910E+00 -1.51973982E+01  7.59869910E+00  7.59869910E+00
 -1.51973982E+01  7.59869910E+00  7.59869910E+00 -1.51973982E+01  7.59869910E+00
  7.59869910E+00 -1.51973982E+01  7.59869910E+00  7.59869910E+00 -1.51973982E+01
  7.59869910E+00  7.59869910E+00 -1.51973982E+01  7.59869910E+00  7.59869910E+00
 -1.51973982E+01  7.59869910E+00  7.59869910E+00 -1.51973982E+01  7.59869910E+00
  7.59869910E+00 -1.51973982E+01  7.59869910E+00  7.59869910E+00 -1.51973982E+01
  7.59869910E+00  7.59869910E+00 -1.51973982E+01  7.59869910E+00  7.59869910E+00
 -1.51973982E+01  7.59869910E+00  7.59869910E+00 -1.51973982E+01  7.59869910E+00
  7.59869910E+00 -1.51973982E+01  7.59869910E+00  7.59869910E+00 -1.51973982E+01
  7.59869910E+00  7.59869910E+00 -1.51973982E+01  7.59869910E+00  7.59869910E+00
 -1.51973982E+01  7.59869910E+00  7.59869910E+00 -1.51973982E+01  7.59869910E+00
  7.59869910E+00 -1.51973982E+01  7.59869910E+00  7.59869910E+00 -1.51973982E+01
  7.59869910E+00  7.59869910E+00 -1.51973982E+01  7.59869910E+00  7.59869910E+00
 -1.51973982E+01  7.59869910E+00  7.59869910E+00 -1.51973982E+01  7.59869910E+00
  7.59869910E+00 -1.51973982E+01  7.59869910E+00  7.59869910E+00 -1.51973982E+01
  7.59869910E+00  7.59869910E+00 -1.51973982E+01  7.59869910E+00  7.59869910E+00
 -1.51973982E+01  7.59869910E+00  7.59869910E+00 -1.51973982E+01  7.59869910E+00
  7.59869910E+00 -1.51973982E+01  7.59869910E+00  7.59869910E+00 -1.51973982E+01
  7.59869910E+00  7.59869910E+00 -1.51973982E+01  7.59869910E+00  7.59869910E+00
 -1.51973982E+01  7.59869910E+00  7.59869910E+00 -1.51973982E+01  7.59869910E+00
  7.59869910E+00 -1.51973982E+01  7.59869910E+00  7.59869910E+00 -1.51973982E+01
  7.59869910E+00  7.59869910E+00 -1.51973982E+01  7.59869910E+00  7.59869910E+00
 -1.51973982E+01  7.59869910E+00  7.59869910E+00 -1.51973982E+01  7.59869910E+00
  7.59869910E+00 -1.51973982E+01  7.59869910E+00  7.59869910E+00 -1.51973982E+01
  7.59869910E+00  7.59869910E+00 -1.51973982E+01  7.59869910E+00  7.59869910E+00
 -1.51973982E+01  7.59869910E+00  7.59869910E+00 -1.51973982E+01  7.59869910E+00
  7.59869910E+00 -1.51973982E+01  7.59869910E+00  7.59869910E+00 -1.51973982E+01
  7.59869910E+00  7.59869910E+00 -1.51973982E+01  7.59869910E+00  7.59869910E+00
 -1.51973982E+01  7.59869910E+00  7.59869910E+00 -1.51973982E+01  7.59869910E+00
  7.59869910E+00 -1.51973982E+01  7.59869910E+00  7.59869910E+00 -1.51973982E+01
  7.59869910E+00  7.59869910E+00 -1.51973982E+01  7.59869910E+00  7.59869910E+00
 -1.51973982E+01  7.59869910E+00  7.59869910E+00 -1.51973982E+01  7.59869910E+00
  7.59869910E+00 -1.51973982E+01  7.59869910E+00  7.59869910E+00 -1.51973982E+01
  7.59869910E+00  7.59869910E+00 -1.51973982E+01  7.59869910E+00  7.59869910E+00
 -1.51973982E+01  7.59869910E+00  7.59869910E+00 -1.51973982E+01  7.59869910E+00
  7.59869910E+00 -1.51973982E+01  7.59869910E+00  7.59869910E+00 -1.51973982E+01
  7.59869910E+00  7.59869910E+00 -1.51973982E+01  7.59869910E+00  7.59869910E+00
 -1.51973982E+01  7.59869910E+00  7.59869910E+00 -1.51973982E+01  7.59869910E+00
  7.59869910E+00 -1.51973982E+01  7.59869910E+00  7.59869910E+00 -1.51973982E+01
  7.59869910E+00  7.59869910E+00 -1.51973982E+01  7.59869910E+00  7.59869910E+00
 -1.51973982E+01  7.59869910E+00  7.59869910E+00 -1.51973982E+01  7.59869910E+00
  7.59869910E+00 -1.51973982E+01  7.59869910E+00  7.59869910E+00 -1.51973982E+01
  7.59869910E+00  7.59869910E+00 -1.51973982E+01  7.59869910E+00  7.59869910E+00
 -1.51973982E+01  7.59869910E+00  7.59869910E+00 -1.51973982E+01  7.59869910E+00
  7.59869910E+00 -1.51973982E+01  7.59869910E+00  7.59869910E+00 -1.51973982E+01
  7.59869910E+00  7.59869910E+00 -1.51973982E+01  7.59869910E+00  7.59869910E+00
 -1.51973982E+01  7.59869910E+00  7.59869910E+00 -1.51973982E+01  7.59869910E+00
  7.59869910E+00 -1.51973982E+01  7.59869910E+00  7.59869910E+00 -1.51973982E+01
  7.59869910E+00  7.59869910E+00 -1.51973982E+01  7.59869910E+00  7.59869910E+00
 -1.51973982E+01  7.59869910E+00  7.59869910E+00 -1.51973982E+01  7.59869910E+00
  7.59869910E+00 -1.51973982E+01  7.59869910E+00  7.59869910E+00 -1.51973982E+01
  7.59869910E+00  7.59869910E+00 -1.51973982E+01  7.59869910E+00  7.59869910E+00
 -1.51973982E+01  7.59869910E+00  7.59869910E+00 -1.51973982E+01  7.59869910E+00
  7.59869910E+00 -1.51973982E+01  7.59869910E+00  7.59869910E+00 -1.51973982E+01
  7.59869910E+00  7.59869910E+00 -1.51973982E+01  7.59869910E+00  7.59869910E+00
 -1.51973982E+01  7.59869910E+00  7.59869910E+00 -1.51973982E+01  7.59869910E+00
  7.59869910E+00 -1.51973982E+01  7.59869910E+00  7.59869910E+00 -1.51973982E+01
  7.59869910E+00  7.59869910E+00 -1.51973982E+01  7.59869910E+00  7.59869910E+00
 -1.51973982E+01  7.59869910E+00  7.59869910E+00 -1.51973982E+01  7.59869910E+00
  7.59869910E+00 -1.51973982E+01  7.59869910E+00  7.59869910E+00 -1.51973982E+01
  7.59869910E+00  7.59869910E+00 -1.51973982E+01  7.59869910E+00  7.59869910E+00
 -1.51973982E+01  7.59869910E+00  7.59869910E+00 -1.51973982E+01  7.59869910E+00
  7.59869910E+00 -1.51973982E+01  7.59869910E+00  7.59869910E+00 -1.51973982E+01
  7.59869910E+00  7.59869910E+00 -1.51973982E+01  7.59869910E+00  7.59869910E+00
 -1.51973982E+01  7.59869910E+00  7.59869910E+00 -1.51973982E+01  7.59869910E+00
  7.59869910E+00 -1.51973982E+01  7.59869910E+00  7.59869910E+00 -1.51973982E+01
  7.59869910E+00  7.59869910E+00 -1.51973982E+01  7.59869910E+00  7.59869910E+00
 -1.51973982E+01  7.59869910E+00  7.59869910E+00 -1.51973982E+01  7.59869910E+00
  7.59869910E+00 -1.51973982E+01  7.59869910E+00  7.59869910E+00 -1.51973982E+01
  7.59869910E+00  7.59869910E+00 -1.51973982E+01  7.59869910E+00  7.59869910E+00
 -1.51973982E+01  7.59869910E+00  7.59869910E+00 -1.51973982E+01  7.59869910E+00
  7.59869910E+00 -1.51973982E+01  7.59869910E+00  7.59869910E+00 -1.51973982E+01
  7.59869910E+00  7.59869910E+00 -1.51973982E+01  7.59869910E+00  7.59869910E+00
 -1.51973982E+01  7.59869910E+00  7.59869910E+00 -1.51973982E+01  7.59869910E+00
  7.59869910E+00 -1.51973982E+01  7.59869910E+00  7.59869910E+00 -1.51973982E+01
  7.59869910E+00  7.59869910E+00 -1.51973982E+01  7.59869910E+00  7.59869910E+00
 -1.51973982E+01  7.59869910E+00  7.59869910E+00 -1.51973982E+01  7.59869910E+00
  7.59869910E+00 -1.51973982E+01  7.59869910E+00  7.59869910E+00 -1.51973982E+01
  7.59869910E+00  7.59869910E+00 -1.51973982E+01  7.59869910E+00  7.59869910E+00
 -1.51973982E+01  7.59869910E+00  7.59869910E+00 -1.51973982E+01  7.59869910E+00
  7.59869910E+00 -1.51973982E+01  7.59869910E+00  7.59869910E+00 -1.51973982E+01
  7.59869910E+00  7.59869910E+00 -1.51973982E+01  7.59869910E+00  7.59869910E+00
 -1.51973982E+01  7.59869910E+00  7.59869910E+00 -1.51973982E+01  7.59869910E+00
  7.59869910E+00 -1.51973982E+01  7.59869910E+00  7.59869910E+00 -1.51973982E+01
  7.59869910E+00  7.59869910E+00 -1.51973982E+01  7.59869910E+00  7.59869910E+00
 -1.51973982E+01  7.59869910E+00  7.59869910E+00 -1.51973982E+01  7.59869910E+00
  7.59869910E+00 -1.51973982E+01  7.59869910E+00  7.59869910E+00 -1.51973982E+01
  7.59869910E+00  7.59869910E+00 -1.51973982E+01  7.59869910E+00  7.59869910E+00
 -1.51973982E+01  7.59869910E+00  7.59869910E+00 -1.51973982E+01  7.59869910E+00
  7.59869910E+00 -1.51973982E+01  7.59869910E+00  7.59869910E+00 -1.51973982E+01
  7.59869910E+00  7.59869910E+00 -1.51973982E+01  7.59869910E+00  7.59869910E+00
 -1.51973982E+01  7.59869910E+00  7.59869910E+00 -1.51973982E+01  7.59869910E+00
  7.59869910E+00 -1.51973982E+01  7.59869910E+00  7.59869910E+00 -1.51973982E+01
  7.59869910E+00  7.59869910E+00 -1.51973982E+01  7.59869910E+00  7.59869910E+00
 -1.51973982E+01  7.59869910E+00  7.59869910E+00 -1.51973982E+01  7.59869910E+00
  7.59869910E+00 -1.51973982E+01  7.59869910E+00  7.59869910E+00 -1.51973982E+01
  7.59869910E+00  7.59869910E+00 -1.51973982E+01  7.59869910E+00  7.59869910E+00
 -1.51973982E+01  7.59869910E+00  7.59869910E+00 -1.51973982E+01  7.59869910E+00
  7.59869910E+00 -1.51973982E+01  7.59869910E+00  7.59869910E+00 -1.51973982E+01
  7.59869910E+00  7.59869910E+00 -1.51973982E+01  7.59869910E+00  7.59869910E+00
 -1.51973982E+01  7.59869910E+00  7.59869910E+00 -1.51973982E+01  7.59869910E+00
  7.59869910E+00 -1.51973982E+01  7.59869910E+00  7.59869910E+00 -1.51973982E+01
  7.59869910E+00  7.59869910E+00 -1.51973982E+01  7.59869910E+00  7.59869910E+00
 -1.51973982E+01  7.59869910E+00  7.59869910E+00 -1.51973982E+01  7.59869910E+00
  7.59869910E+00 -1.51973982E+01  7.59869910E+00  7.59869910E+00 -1.51973982E+01
  7.59869910E+00  7.59869910E+00 -1.51973982E+01  7.59869910E+00  7.59869910E+00
 -1.51973982E+01  7.59869910E+00  7.59869910E+00 -1.51973982E+01  7.59869910E+00
  7.59869910E+00 -1.51973982E+01  7.59869910E+00  7.59869910E+00 -1.51973982E+01
  7.59869910E+00  7.59869910E+00 -1.51973982E+01  7.59869910E+00  7.59869910E+00
 -1.51973982E+01  7.59869910E+00  7.59869910E+00 -1.51973982E+01  7.59869910E+00
  7.59869910E+00 -1.51973982E+01  7.59869910E+00  7.59869910E+00 -1.51973982E+01
  7.59869910E+00  7.59869910E+00 -1.51973982E+01  7.59869910E+00  7.59869910E+00
 -1.51973982E+01  7.59869910E+00  7.59869910E+00 -1.51973982E+01  7.59869910E+00
  7.59869910E+00 -1.51973982E+01  7.59869910E+00  7.59869910E+00 -1.51973982E+01
  7.59869910E+00  7.59869910E+00 -1.51973982E+01  7.59869910E+00  7.59869910E+00
 -1.51973982E+01  7.59869910E+00  7.59869910E+00 -1.51973982E+01  7.59869910E+00
  7.59869910E+00 -1.51973982E+01  7.59869910E+00  7.59869910E+00 -1.51973982E+01
  7.59869910E+00  7.59869910E+00 -1.51973982E+01  7.59869910E+00  7.59869910E+00
 -1.51973982E+01  7.59869910E+00  7.59869910E+00 -1.51973982E+01  7.59869910E+00
  7.59869910E+00 -1.51973982E+01  7.59869910E+00  7.59869910E+00 -1.51973982E+01
  7.59869910E+00  7.59869910E+00 -1.51973982E+01  7.59869910E+00  7.59869910E+00
 -1.51973982E+01  7.59869910E+00  7.59869910E+00 -1.51973982E+01  7.59869910E+00
  7.59869910E+00 -1.51973982E+01  7.59869910E+00  7.59869910E+00 -1.51973982E+01
  7.59869910E+00  7.59869910E+00 -1.51973982E+01  7.59869910E+00  7.59869910E+00
 -1.51973982E+01  7.59869910E+00  7.59869910E+00 -1.51973982E+01  7.59869910E+00
  7.59869910E+00 -1.51973982E+01  7.59869910E+00  7.59869910E+00 -1.51973982E+01
  7.59869910E+00  7.59869910E+00 -1.51973982E+01  7.59869910E+00  7.59869910E+00
 -1.51973982E+01  7.59869910E+00  7.59869910E+00 -1.51973982E+01  7.59869910E+00
  7.59869910E+00 -1.51973982E+01  7.59869910E+00  7.59869910E+00 -1.51973982E+01
  7.59869910E+00  7.59869910E+00 -1.51973982E+01  7.59869910E+00  7.59869910E+00
 -1.51973982E+01  7.59869910E+00  7.59869910E+00 -1.51973982E+01  7.59869910E+00
  7.59869910E+00 -1.51973982E+01  7.59869910E+00  7.59869910E+00 -1.51973982E+01
  7.59869910E+00  7.59869910E+00 -1.51973982E+01  7.59869910E+00  7.59869910E+00
 -1.51973982E+01  7.59869910E+00  7.59869910E+00 -1.51973982E+01  7.59869910E+00
  7.59869910E+00 -1.51973982E+01  7.59869910E+00  7.59869910E+00 -1.51973982E+01
  7.59869910E+00  7.59869910E+00 -1.51973982E+01  7.59869910E+00  7.59869910E+00
 -1.51973982E+01  7.59869910E+00  7.59869910E+00 -1.51973982E+01  7.59869910E+00
  7.59869910E+00 -1.51973982E+01  7.59869910E+00  7.59869910E+00 -1.51973982E+01
  7.59869910E+00  7.59869910E+00 -1.51973982E+01  7.59869910E+00  7.59869910E+00
 -1.51973982E+01  7.59869910E+00  7.59869910E+00 -1.51973982E+01  7.59869910E+00
  7.59869910E+00 -1.51973982E+01  7.59869910E+00  7.59869910E+00 -1.51973982E+01
  7.59869910E+00  7.59869910E+00 -1.51973982E+01  7.59869910E+00  7.59869910E+00
 -1.51973982E+01  7.59869910E+00  7.59869910E+00 -1.51973982E+01  7.59869910E+00
  7.59869910E+00 -1.51973982E+01  7.59869910E+00  7.59869910E+00 -1.51973982E+01
  7.59869910E+00  7.59869910E+00 -1.51973982E+01  7.59869910E+00  7.59869910E+00
 -1.51973982E+01  7.59869910E+00  7.59869910E+00 -1.51973982E+01  7.59869910E+00
  7.59869910E+00 -1.51973982E+01  7.59869910E+00  7.59869910E+00 -1.51973982E+01
  7.59869910E+00  7.59869910E+00 -1.51973982E+01  7.59869910E+00  7.59869910E+00
 -1.51973982E+01  7.59869910E+00  7.59869910E+00 -1.51973982E+01  7.59869910E+00
  7.59869910E+00 -1.51973982E+01  7.59869910E+00  7.59869910E+00 -1.51973982E+01
  7.59869910E+00  7.59869910E+00 -1.51973982E+01  7.59869910E+00  7.59869910E+00
 -1.51973982E+01  7.59869910E+00  7.59869910E+00 -1.51973982E+01  7.59869910E+00
  7.59869910E+00 -1.51973982E+01  7.59869910E+00  7.59869910E+00 -1.51973982E+01
  7.59869910E+00  7.59869910E+00 -1.51973982E+01  7.59869910E+00  7.59869910E+00
 -1.51973982E+01  7.59869910E+00  7.59869910E+00 -1.51973982E+01  7.59869910E+00
  7.59869910E+00 -1.51973982E+01  7.59869910E+00  7.59869910E+00 -1.51973982E+01
  7.59869910E+00  7.59869910E+00 -1.51973982E+01  7.59869910E+00  7.59869910E+00
 -1.51973982E+01  7.59869910E+00  7.59869910E+00 -1.51973982E+01  7.59869910E+00
  7.59869910E+00 -1.51973982E+01  7.59869910E+00  7.59869910E+00 -1.51973982E+01
  7.59869910E+00  7.59869910E+00 -1.51973982E+01  7.59869910E+00  7.59869910E+00
 -1.51973982E+01  7.59869910E+00  7.59869910E+00 -1.51973982E+01  7.59869910E+00
  7.59869910E+00 -1.51973982E+01  7.59869910E+00  7.59869910E+00 -1.51973982E+01
  7.59869910E+00  7.59869910E+00 -1.51973982E+01  7.59869910E+00  7.59869910E+00
 -1.51973982E+01  7.59869910E+00  7.59869910E+00 -1.51973982E+01  7.59869910E+00
  7.59869910E+00 -1.51973982E+01  7.59869910E+00  7.59869910E+00 -1.51973982E+01
  7.59869910E+00  7.59869910E+00 -1.51973982E+01  7.59869910E+00  7.59869910E+00
 -1.51973982E+01  7.59869910E+00  7.59869910E+00 -1.51973982E+01  7.59869910E+00
  7.59869910E+00 -1.51973982E+01  7.59869910E+00  7.59869910E+00 -1.51973982E+01
  7.59869910E+00  7.59869910E+00 -1.51973982E+01  7.59869910E+00  7.59869910E+00
 -1.51973982E+01  7.59869910E+00  7.59869910E+00 -1.51973982E+01  7.59869910E+00
  7.59869910E+00 -1.51973982E+01  7.59869910E+00  7.59869910E+00 -1.51973982E+01
  7.59869910E+00  7.59869910E+00 -1.51973982E+01  7.59869910E+00  7.59869910E+00
 -1.51973982E+01  7.59869910E+00  7.59869910E+00 -1.51973982E+01  7.59869910E+00
  7.59869910E+00 -1.51973982E+01  7.59869910E+00  7.59869910E+00 -1.51973982E+01
  7.59869910E+00  7.59869910E+00 -1.51973982E+01  7.59869910E+00  7.59869910E+00
 -1.51973982E+01  7.59869910E+00  7.59869910E+00 -1.51973982E+01  7.59869910E+00
  7.59869910E+00 -1.51973982E+01  7.59869910E+00  7.59869910E+00 -1.51973982E+01
  7.59869910E+00  7.59869910E+00 -1.51973982E+01  7.59869910E+00  7.59869910E+00
 -1.51973982E+01  7.59869910E+00  7.59869910E+00 -1.51973982E+01  7.59869910E+00
  7.59869910E+00 -1.51973982E+01  7.59869910E+00  7.59869910E+00 -1.51973982E+01
  7.59869910E+00  7.59869910E+00 -1.51973982E+01  7.59869910E+00  7.59869910E+00
 -1.51973982E+01  7.59869910E+00  7.59869910E+00 -1.51973982E+01  7.59869910E+00
  7.59869910E+00 -1.51973982E+01  7.59869910E+00  7.59869910E+00 -1.51973982E+01
  7.59869910E+00  7.59869910E+00 -1.51973982E+01  7.59869910E+00  7.59869910E+00
 -1.51973982E+01  7.59869910E+00  7.59869910E+00 -1.51973982E+01  7.59869910E+00
  7.59869910E+00 -1.51973982E+01  7.59869910E+00  7.59869910E+00 -1.51973982E+01
  7.59869910E+00  7.59869910E+00 -1.51973982E+01  7.59869910E+00  7.59869910E+00
 -1.51973982E+01  7.59869910E+00  7.59869910E+00 -1.51973982E+01  7.59869910E+00
  7.59869910E+00 -1.51973982E+01  7.59869910E+00  7.59869910E+00 -1.51973982E+01
  7.59869910E+00  7.59869910E+00 -1.51973982E+01  7.59869910E+00  7.59869910E+00
 -1.51973982E+01  7.59869910E+00  7.59869910E+00 -1.51973982E+01  7.59869910E+00
  7.59869910E+00 -1.51973982E+01  7.59869910E+00  7.59869910E+00 -1.51973982E+01
  7.59869910E+00  7.59869910E+00 -1.51973982E+01  7.59869910E+00  7.59869910E+00
 -1.51973982E+01  7.59869910E+00  7.59869910E+00 -1.51973982E+01  7.59869910E+00
  7.59869910E+00 -1.51973982E+01  7.59869910E+00  7.59869910E+00 -1.51973982E+01
  7.59869910E+00  7.59869910E+00 -1.51973982E+01  7.59869910E+00  7.59869910E+00
 -1.51973982E+01  7.59869910E+00  7.59869910E+00 -1.51973982E+01  7.59869910E+00
  7.59869910E+00 -1.51973982E+01  7.59869910E+00  7.59869910E+00 -1.51973982E+01
  7.59869910E+00  7.59869910E+00 -1.51973982E+01  7.59869910E+00  7.59869910E+00
 -1.51973982E+01  7.59869910E+00  7.59869910E+00 -1.51973982E+01  7.59869910E+00
  7.59869910E+00 -1.51973982E+01  7.59869910E+00  7.59869910E+00 -1.51973982E+01
  7.59869910E+00  7.59869910E+00 -1.51973982E+01  7.59869910E+00  7.59869910E+00
 -1.51973982E+01  7.59869910E+00  7.59869910E+00 -1.51973982E+01  7.59869910E+00
  7.59869910E+00 -1.51973982E+01  7.59869910E+00  7.59869910E+00 -1.51973982E+01
  7.59869910E+00  7.59869910E+00 -1.51973982E+01  7.59869910E+00  7.59869910E+00
 -1.51973982E+01  7.59869910E+00  7.59869910E+00 -1.51973982E+01  7.59869910E+00
  7.59869910E+00 -1.51973982E+01  7.59869910E+00  7.59869910E+00 -1.51973982E+01
  7.59869910E+00  7.59869910E+00 -1.51973982E+01  7.59869910E+00  7.59869910E+00
 -1.51973982E+01  7.59869910E+00  7.59869910E+00 -1.51973982E+01  7.59869910E+00
  7.59869910E+00 -1.51973982E+01  7.59869910E+00  7.59869910E+00 -1.51973982E+01
  7.59869910E+00  7.59869910E+00 -1.51973982E+01  7.59869910E+00  7.59869910E+00
 -1.51973982E+01  7.59869910E+00  7.59869910E+00 -1.51973982E+01  7.59869910E+00
  7.59869910E+00 -1.51973982E+01  7.59869910E+00  7.59869910E+00 -1.51973982E+01
  7.59869910E+00  7.59869910E+00 -1.51973982E+01  7.59869910E+00  7.59869910E+00
 -1.51973982E+01  7.59869910E+00  7.59869910E+00 -1.51973982E+01  7.59869910E+00
  7.59869910E+00 -1.51973982E+01  7.59869910E+00  7.59869910E+00 -1.51973982E+01
  7.59869910E+00  7.59869910E+00 -1.51973982E+01  7.59869910E+00  7.59869910E+00
 -1.51973982E+01  7.59869910E+00  7.59869910E+00 -1.51973982E+01  7.59869910E+00
  7.59869910E+00 -1.51973982E+01  7.59869910E+00  7.59869910E+00 -1.51973982E+01
  7.59869910E+00  7.59869910E+00 -1.51973982E+01  7.59869910E+00  7.59869910E+00
 -1.51973982E+01  7.59869910E+00  7.59869910E+00 -1.51973982E+01  7.59869910E+00
  7.59869910E+00 -1.51973982E+01  7.59869910E+00  7.59869910E+00 -1.51973982E+01
  7.59869910E+00  7.59869910E+00 -1.51973982E+01  7.59869910E+00  7.59869910E+00
 -1.51973982E+01  7.59869910E+00  7.59869910E+00 -1.51973982E+01  7.59869910E+00
  7.59869910E+00 -1.51973982E+01  7.59869910E+00  7.59869910E+00 -1.51973982E+01
  7.59869910E+00  7.59869910E+00 -1.51973982E+01  7.59869910E+00  7.59869910E+00
 -1.51973982E+01  7.59869910E+00  7.59869910E+00 -1.51973982E+01  7.59869910E+00
  7.59869910E+00 -1.51973982E+01  7.59869910E+00  7.59869910E+00 -1.51973982E+01
  7.59869910E+00  7.59869910E+00 -1.51973982E+01  7.59869910E+00  7.59869910E+00
 -1.51973982E+01  7.59869910E+00  7.59869910E+00 -1.51973982E+01  7.59869910E+00
  7.59869910E+00 -1.51973982E+01  7.59869910E+00  7.59869910E+00 -1.51973982E+01
  7.59869910E+00  7.59869910E+00 -1.51973982E+01  7.59869910E+00  7.59869910E+00
 -1.51973982E+01  7.59869910E+00  7.59869910E+00 -1.51973982E+01  7.59869910E+00
  7.59869910E+00 -1.51973982E+01  7.59869910E+00  7.59869910E+00 -1.51973982E+01
  7.59869910E+00  7.59869910E+00 -1.51973982E+01  7.59869910E+00  7.59869910E+00
 -1.51973982E+01  7.59869910E+00  7.59869910E+00 -1.51973982E+01  7.59869910E+00
  7.59869910E+00 -1.51973982E+01  7.59869910E+00  7.59869910E+00 -1.51973982E+01
  7.59869910E+00  7.59869910E+00 -1.51973982E+01  7.59869910E+00  7.59869910E+00
 -1.51973982E+01  7.59869910E+00  7.59869910E+00 -1.51973982E+01  7.59869910E+00
  7.59869910E+00 -1.51973982E+01  7.59869910E+00  7.59869910E+00 -1.51973982E+01
  7.59869910E+00  7.59869910E+00 -1.51973982E+01  7.59869910E+00  7.59869910E+00
 -1.51973982E+01  7.59869910E+00  7.59869910E+00 -1.51973982E+01  7.59869910E+00
  7.59869910E+00 -1.51973982E+01  7.59869910E+00  7.59869910E+00 -1.51973982E+01
  7.59869910E+00  7.59869910E+00 -1.51973982E+01  7.59869910E+00  7.59869910E+00
 -1.51973982E+01  7.59869910E+00  7.59869910E+00 -1.51973982E+01  7.59869910E+00
  7.59869910E+00 -1.51973982E+01  7.59869910E+00  7.59869910E+00 -1.51973982E+01
  7.59869910E+00  7.59869910E+00 -1.51973982E+01  7.59869910E+00  7.59869910E+00
 -1.51973982E+01  7.59869910E+00  7.59869910E+00 -1.51973982E+01  7.59869910E+00
  7.59869910E+00 -1.51973982E+01  7.59869910E+00  7.59869910E+00 -1.51973982E+01
  7.59869910E+00  7.59869910E+00 -1.51973982E+01  7.59869910E+00  7.59869910E+00
 -1.51973982E+01  7.59869910E+00  7.59869910E+00 -1.51973982E+01  7.59869910E+00
  7.59869910E+00 -1.51973982E+01  7.59869910E+00  7.59869910E+00 -1.51973982E+01
  7.59869910E+00  7.59869910E+00 -1.51973982E+01  7.59869910E+00  7.59869910E+00
 -1.51973982E+01  7.59869910E+00  7.59869910E+00 -1.51973982E+01  7.59869910E+00
  7.59869910E+00 -1.51973982E+01  7.59869910E+00  7.59869910E+00 -1.51973982E+01
  7.59869910E+00  7.59869910E+00 -1.51973982E+01  7.59869910E+00  7.59869910E+00
 -1.51973982E+01  7.59869910E+00  7.59869910E+00 -1.51973982E+01  7.59869910E+00
  7.59869910E+00 -1.51973982E+01  7.59869910E+00  7.59869910E+00 -1.51973982E+01
  7.59869910E+00  7.59869910E+00 -1.51973982E+01  7.59869910E+00  7.59869910E+00
 -1.51973982E+01  7.59869910E+00  7.59869910E+00 -1.51973982E+01  7.59869910E+00
  7.59869910E+00 -1.51973982E+01  7.59869910E+00  7.59869910E+00 -1.51973982E+01
  7.59869910E+00  7.59869910E+00 -1.51973982E+01  7.59869910E+00  7.59869910E+00
 -1.51973982E+01  7.59869910E+00  7.59869910E+00 -1.51973982E+01  7.59869910E+00
  7.59869910E+00 -1.51973982E+01  7.59869910E+00  7.59869910E+00 -1.51973982E+01
  7.59869910E+00  7.59869910E+00 -1.51973982E+01  7.59869910E+00  7.59869910E+00
 -1.51973982E+01  7.59869910E+00  7.59869910E+00 -1.51973982E+01  7.59869910E+00
  7.59869910E+00 -1.51973982E+01  7.59869910E+00  7.59869910E+00 -1.51973982E+01
  7.59869910E+00  7.59869910E+00 -1.51973982E+01  7.59869910E+00  7.59869910E+00
 -1.51973982E+01  7.59869910E+00  7.59869910E+00 -1.51973982E+01  7.59869910E+00
  7.59869910E+00 -1.51973982E+01  7.59869910E+00  7.59869910E+00 -1.51973982E+01
  7.59869910E+00  7.59869910E+00 -1.51973982E+01  7.59869910E+00  7.59869910E+00
 -1.51973982E+01  7.59869910E+00  7.59869910E+00 -1.51973982E+01  7.59869910E+00
  7.59869910E+00 -1.51973982E+01  7.59869910E+00  7.59869910E+00 -1.51973982E+01
  7.59869910E+00  7.59869910E+00 -1.51973982E+01  7.59869910E+00  7.59869910E+00
 -1.51973982E+01  7.59869910E+00  7.59869910E+00 -1.51973982E+01  7.59869910E+00
  7.59869910E+00 -1.51973982E+01  7.59869910E+00  7.59869910E+00 -1.51973982E+01
  7.59869910E+00  7.59869910E+00 -1.51973982E+01  7.59869910E+00  7.59869910E+00
 -1.51973982E+01  7.59869910E+00  7.59869910E+00 -1.51973982E+01  7.59869910E+00
  7.59869910E+00 -1.51973982E+01  7.59869910E+00  7.59869910E+00 -1.51973982E+01
  7.59869910E+00  7.59869910E+00 -1.51973982E+01  7.59869910E+00  7.59869910E+00
 -1.51973982E+01  7.59869910E+00  7.59869910E+00 -1.51973982E+01  7.59869910E+00
  7.59869910E+00 -1.51973982E+01  7.59869910E+00  7.59869910E+00 -1.51973982E+01
  7.59869910E+00  7.59869910E+00 -1.51973982E+01  7.59869910E+00  7.59869910E+00
 -1.51973982E+01  7.59869910E+00  7.59869910E+00 -1.51973982E+01  7.59869910E+00
  7.59869910E+00 -1.51973982E+01  7.59869910E+00  7.59869910E+00 -1.51973982E+01
  7.59869910E+00  7.59869910E+00 -1.51973982E+01  7.59869910E+00  7.59869910E+00
 -1.51973982E+01  7.59869910E+00  7.59869910E+00 -1.51973982E+01  7.59869910E+00
  7.59869910E+00 -1.51973982E+01  7.59869910E+00  7.59869910E+00 -1.51973982E+01
  7.59869910E+00  7.59869910E+00 -1.51973982E+01  7.59869910E+00  7.59869910E+00
 -1.51973982E+01  7.59869910E+00  7.59869910E+00 -1.51973982E+01  7.59869910E+00
  7.59869910E+00 -1.51973982E+01  7.59869910E+00  7.59869910E+00 -1.51973982E+01
  7.59869910E+00  7.59869910E+00 -1.51973982E+01  7.59869910E+00  7.59869910E+00
 -1.51973982E+01  7.59869910E+00  7.59869910E+00 -1.51973982E+01  7.59869910E+00
  7.59869910E+00 -1.51973982E+01  7.59869910E+00  7.59869910E+00 -1.51973982E+01
  7.59869910E+00  7.59869910E+00 -1.51973982E+01  7.59869910E+00  7.59869910E+00
 -1.51973982E+01  7.59869910E+00  7.59869910E+00 -1.51973982E+01  7.59869910E+00
  7.59869910E+00 -1.51973982E+01  7.59869910E+00  7.59869910E+00 -1.51973982E+01
  7.59869910E+00  7.59869910E+00 -1.51973982E+01  7.59869910E+00  7.59869910E+00
 -1.51973982E+01  7.59869910E+00  7.59869910E+00 -1.51973982E+01  7.59869910E+00
  7.59869910E+00 -1.51973982E+01  7.59869910E+00  7.59869910E+00 -1.51973982E+01
  7.59869910E+00  7.59869910E+00 -1.51973982E+01  7.59869910E+00  7.59869910E+00
 -1.51973982E+01  7.59869910E+00  7.59869910E+00 -1.51973982E+01  7.59869910E+00
  7.59869910E+00 -1.51973982E+01  7.59869910E+00  7.59869910E+00 -1.51973982E+01
  7.59869910E+00  7.59869910E+00 -1.51973982E+01  7.59869910E+00  7.59869910E+00
 -1.51973982E+01  7.59869910E+00  7.59869910E+00 -1.51973982E+01  7.59869910E+00
  7.59869910E+00 -1.51973982E+01  7.59869910E+00  7.59869910E+00 -1.51973982E+01
  7.59869910E+00  7.59869910E+00 -1.51973982E+01  7.59869910E+00  7.59869910E+00
 -1.51973982E+01  7.59869910E+00  7.59869910E+00 -1.51973982E+01  7.59869910E+00
  7.59869910E+00 -1.51973982E+01  7.59869910E+00  7.59869910E+00 -1.51973982E+01
  7.59869910E+00  7.59869910E+00 -1.51973982E+01  7.59869910E+00  7.59869910E+00
 -1.51973982E+01  7.59869910E+00  7.59869910E+00 -1.51973982E+01  7.59869910E+00
  7.59869910E+00 -1.51973982E+01  7.59869910E+00  7.59869910E+00 -1.51973982E+01
  7.59869910E+00  7.59869910E+00 -1.51973982E+01  7.59869910E+00  7.59869910E+00
 -1.51973982E+01  7.59869910E+00  7.59869910E+00 -1.51973982E+01  7.59869910E+00
  7.59869910E+00 -1.51973982E+01  7.59869910E+00  7.59869910E+00 -1.51973982E+01
  7.59869910E+00  7.59869910E+00 -1.51973982E+01  7.59869910E+00  7.59869910E+00
 -1.51973982E+01  7.59869910E+00  7.59869910E+00 -1.51973982E+01  7.59869910E+00
  7.59869910E+00 -1.51973982E+01  7.59869910E+00  7.59869910E+00 -1.51973982E+01
  7.59869910E+00  7.59869910E+00 -1.51973982E+01  7.59869910E+00  7.59869910E+00
 -1.51973982E+01  7.59869910E+00  7.59869910E+00 -1.51973982E+01  7.59869910E+00
  7.59869910E+00 -1.51973982E+01  7.59869910E+00  7.59869910E+00 -1.51973982E+01
  7.59869910E+00  7.59869910E+00 -1.51973982E+01  7.59869910E+00  7.59869910E+00
 -1.51973982E+01  7.59869910E+00  7.59869910E+00 -1.51973982E+01  7.59869910E+00
  7.59869910E+00 -1.51973982E+01  7.59869910E+00  7.59869910E+00 -1.51973982E+01
  7.59869910E+00  7.59869910E+00 -1.51973982E+01  7.59869910E+00  7.59869910E+00
 -1.51973982E+01  7.59869910E+00  7.59869910E+00 -1.51973982E+01  7.59869910E+00
  7.59869910E+00 -1.51973982E+01  7.59869910E+00  7.59869910E+00 -1.51973982E+01
  7.59869910E+00  7.59869910E+00 -1.51973982E+01  7.59869910E+00  7.59869910E+00
 -1.51973982E+01  7.59869910E+00  7.59869910E+00 -1.51973982E+01  7.59869910E+00
  7.59869910E+00 -1.51973982E+01  7.59869910E+00  7.59869910E+00 -1.51973982E+01
  7.59869910E+00  7.59869910E+00 -1.51973982E+01  7.59869910E+00  7.59869910E+00
 -1.51973982E+01  7.59869910E+00  7.59869910E+00 -1.51973982E+01  7.59869910E+00
  7.59869910E+00 -1.51973982E+01  7.59869910E+00  7.59869910E+00 -1.51973982E+01
  7.59869910E+00  7.59869910E+00 -1.51973982E+01  7.59869910E+00  7.59869910E+00
 -1.51973982E+01  7.59869910E+00  7.59869910E+00 -1.51973982E+01  7.59869910E+00
  7.59869910E+00 -1.51973982E+01  7.59869910E+00  7.59869910E+00 -1.51973982E+01
  7.59869910E+00  7.59869910E+00 -1.51973982E+01  7.59869910E+00  7.59869910E+00
 -1.51973982E+01  7.59869910E+00  7.59869910E+00 -1.51973982E+01  7.59869910E+00
  7.59869910E+00 -1.51973982E+01  7.59869910E+00  7.59869910E+00 -1.51973982E+01
  7.59869910E+00  7.59869910E+00 -1.51973982E+01  7.59869910E+00  7.59869910E+00
 -1.51973982E+01  7.59869910E+00  7.59869910E+00 -1.51973982E+01  7.59869910E+00
  7.59869910E+00 -1.51973982E+01  7.59869910E+00  7.59869910E+00 -1.51973982E+01
  7.59869910E+00  7.59869910E+00 -1.51973982E+01  7.59869910E+00  7.59869910E+00
 -1.51973982E+01  7.59869910E+00  7.59869910E+00 -1.51973982E+01  7.59869910E+00
  7.59869910E+00 -1.51973982E+01  7.59869910E+00  7.59869910E+00 -1.51973982E+01
  7.59869910E+00  7.59869910E+00 -1.51973982E+01  7.59869910E+00  7.59869910E+00
 -1.51973982E+01  7.59869910E+00  7.59869910E+00 -1.51973982E+01  7.59869910E+00
  7.59869910E+00 -1.51973982E+01  7.59869910E+00  7.59869910E+00 -1.51973982E+01
  7.59869910E+00  7.59869910E+00 -1.51973982E+01  7.59869910E+00  7.59869910E+00
 -1.51973982E+01  7.59869910E+00  7.59869910E+00 -1.51973982E+01  7.59869910E+00
  7.59869910E+00 -1.51973982E+01  7.59869910E+00  7.59869910E+00 -1.51973982E+01
  7.59869910E+00  7.59869910E+00 -1.51973982E+01  7.59869910E+00  7.59869910E+00
 -1.51973982E+01  7.59869910E+00  7.59869910E+00 -1.51973982E+01  7.59869910E+00
  7.59869910E+00 -1.51973982E+01  7.59869910E+00  7.59869910E+00 -1.51973982E+01
  7.59869910E+00  7.59869910E+00 -1.51973982E+01  7.59869910E+00  7.59869910E+00
 -1.51973982E+01  7.59869910E+00  7.59869910E+00 -1.51973982E+01  7.59869910E+00
  7.59869910E+00 -1.51973982E+01  7.59869910E+00  7.59869910E+00 -1.51973982E+01
  7.59869910E+00  7.59869910E+00 -1.51973982E+01  7.59869910E+00  7.59869910E+00
 -1.51973982E+01  7.59869910E+00  7.59869910E+00 -1.51973982E+01  7.59869910E+00
  7.59869910E+00 -1.51973982E+01  7.59869910E+00  7.59869910E+00 -1.51973982E+01
  7.59869910E+00  7.59869910E+00 -1.51973982E+01  7.59869910E+00  7.59869910E+00
 -1.51973982E+01  7.59869910E+00  7.59869910E+00 -1.51973982E+01  7.59869910E+00
  7.59869910E+00 -1.51973982E+01  7.59869910E+00  7.59869910E+00 -1.51973982E+01
  7.59869910E+00  7.59869910E+00 -1.51973982E+01  7.59869910E+00  7.59869910E+00
 -1.51973982E+01  7.59869910E+00  7.59869910E+00 -1.51973982E+01  7.59869910E+00
  7.59869910E+00 -1.51973982E+01  7.59869910E+00  7.59869910E+00 -1.51973982E+01
  7.59869910E+00  7.59869910E+00 -1.51973982E+01  7.59869910E+00  7.59869910E+00
 -1.51973982E+01  7.59869910E+00  7.59869910E+00 -1.51973982E+01  7.59869910E+00
  7.59869910E+00 -1.51973982E+01  7.59869910E+00  7.59869910E+00 -1.51973982E+01
  7.59869910E+00  7.59869910E+00 -1.51973982E+01  7.59869910E+00  7.59869910E+00
 -1.51973982E+01  7.59869910E+00  7.59869910E+00 -1.51973982E+01  7.59869910E+00
  7.59869910E+00 -1.51973982E+01  7.59869910E+00  7.59869910E+00 -1.51973982E+01
  7.59869910E+00  7.59869910E+00 -1.51973982E+01  7.59869910E+00  7.59869910E+00
 -1.51973982E+01  7.59869910E+00  7.59869910E+00 -1.51973982E+01  7.59869910E+00
  7.59869910E+00 -1.51973982E+01  7.59869910E+00  7.59869910E+00 -1.51973982E+01
  7.59869910E+00  7.59869910E+00 -1.51973982E+01  7.59869910E+00  7.59869910E+00
 -1.51973982E+01  7.59869910E+00  7.59869910E+00 -1.51973982E+01  7.59869910E+00
  7.59869910E+00 -1.51973982E+01  7.59869910E+00  7.59869910E+00 -1.51973982E+01
  7.59869910E+00  7.59869910E+00 -1.51973982E+01  7.59869910E+00  7.59869910E+00
 -1.51973982E+01  7.59869910E+00  7.59869910E+00 -1.51973982E+01  7.59869910E+00
  7.59869910E+00 -1.51973982E+01  7.59869910E+00  7.59869910E+00 -1.51973982E+01
  7.59869910E+00  7.59869910E+00 -1.51973982E+01  7.59869910E+00  7.59869910E+00
 -1.51973982E+01  7.59869910E+00  7.59869910E+00 -1.51973982E+01  7.59869910E+00
  7.59869910E+00 -1.51973982E+01  7.59869910E+00  7.59869910E+00 -1.51973982E+01
  7.59869910E+00  7.59869910E+00 -1.51973982E+01  7.59869910E+00  7.59869910E+00
 -1.51973982E+01  7.59869910E+00  7.59869910E+00 -1.51973982E+01  7.59869910E+00
  7.59869910E+00 -1.51973982E+01  7.59869910E+00  7.59869910E+00 -1.51973982E+01
  7.59869910E+00  7.59869910E+00 -1.51973982E+01  7.59869910E+00  7.59869910E+00
 -1.51973982E+01  7.59869910E+00  7.59869910E+00 -1.51973982E+01  7.59869910E+00
  7.59869910E+00 -1.51973982E+01  7.59869910E+00  7.59869910E+00 -1.51973982E+01
  7.59869910E+00  7.59869910E+00 -1.51973982E+01  7.59869910E+00  7.59869910E+00
 -1.51973982E+01  7.59869910E+00  7.59869910E+00 -1.51973982E+01  7.59869910E+00
  7.59869910E+00 -1.51973982E+01  7.59869910E+00  7.59869910E+00 -1.51973982E+01
  7.59869910E+00  7.59869910E+00 -1.51973982E+01  7.59869910E+00  7.59869910E+00
 -1.51973982E+01  7.59869910E+00  7.59869910E+00 -1.51973982E+01  7.59869910E+00
  7.59869910E+00 -1.51973982E+01  7.59869910E+00  7.59869910E+00 -1.51973982E+01
  7.59869910E+00  7.59869910E+00 -1.51973982E+01  7.59869910E+00  7.59869910E+00
 -1.51973982E+01  7.59869910E+00  7.59869910E+00 -1.51973982E+01  7.59869910E+00
  7.59869910E+00 -1.51973982E+01  7.59869910E+00  7.59869910E+00 -1.51973982E+01
  7.59869910E+00  7.59869910E+00 -1.51973982E+01  7.59869910E+00  7.59869910E+00
 -1.51973982E+01  7.59869910E+00  7.59869910E+00 -1.51973982E+01  7.59869910E+00
  7.59869910E+00 -1.51973982E+01  7.59869910E+00  7.59869910E+00 -1.51973982E+01
  7.59869910E+00  7.59869910E+00 -1.51973982E+01  7.59869910E+00  7.59869910E+00
 -1.51973982E+01  7.59869910E+00  7.59869910E+00 -1.51973982E+01  7.59869910E+00
  7.59869910E+00 -1.51973982E+01  7.59869910E+00  7.59869910E+00 -1.51973982E+01
  7.59869910E+00  7.59869910E+00 -1.51973982E+01  7.59869910E+00  7.59869910E+00
 -1.51973982E+01  7.59869910E+00  7.59869910E+00 -1.51973982E+01  7.59869910E+00
  7.59869910E+00 -1.51973982E+01  7.59869910E+00  7.59869910E+00 -1.51973982E+01
  7.59869910E+00  7.59869910E+00 -1.51973982E+01  7.59869910E+00  7.59869910E+00
 -1.51973982E+01  7.59869910E+00  7.59869910E+00 -1.51973982E+01  7.59869910E+00
  7.59869910E+00 -1.51973982E+01  7.59869910E+00  7.59869910E+00 -1.51973982E+01
  7.59869910E+00  7.59869910E+00 -1.51973982E+01  7.59869910E+00  7.59869910E+00
 -1.51973982E+01  7.59869910E+00  7.59869910E+00 -1.51973982E+01  7.59869910E+00
  7.59869910E+00 -1.51973982E+01  7.59869910E+00  7.59869910E+00 -1.51973982E+01
  7.59869910E+00  7.59869910E+00 -1.51973982E+01  7.59869910E+00  7.59869910E+00
 -1.51973982E+01  7.59869910E+00  7.59869910E+00 -1.51973982E+01  7.59869910E+00
  7.59869910E+00 -1.51973982E+01  7.59869910E+00  7.59869910E+00 -1.51973982E+01
  7.59869910E+00  7.59869910E+00 -1.51973982E+01  7.59869910E+00  7.59869910E+00
 -1.51973982E+01  7.59869910E+00  7.59869910E+00 -1.51973982E+01  7.59869910E+00
  7.59869910E+00 -1.51973982E+01  7.59869910E+00  7.59869910E+00 -1.51973982E+01
  7.59869910E+00  7.59869910E+00 -1.51973982E+01  7.59869910E+00  7.59869910E+00
 -1.51973982E+01  7.59869910E+00  7.59869910E+00 -1.51973982E+01  7.59869910E+00
  7.59869910E+00 -1.51973982E+01  7.59869910E+00  7.59869910E+00 -1.51973982E+01
  7.59869910E+00  7.59869910E+00 -1.51973982E+01  7.59869910E+00  7.59869910E+00
 -1.51973982E+01  7.59869910E+00  7.59869910E+00 -1.51973982E+01  7.59869910E+00
  7.59869910E+00 -1.51973982E+01  7.59869910E+00  7.59869910E+00 -1.51973982E+01
  7.59869910E+00  7.59869910E+00 -1.51973982E+01  7.59869910E+00  7.59869910E+00
 -1.51973982E+01  7.59869910E+00  7.59869910E+00 -1.51973982E+01  7.59869910E+00
  7.59869910E+00 -1.51973982E+01  7.59869910E+00  7.59869910E+00 -1.51973982E+01
  7.59869910E+00  7.59869910E+00 -1.51973982E+01  7.59869910E+00  7.59869910E+00
 -1.51973982E+01  7.59869910E+00  7.59869910E+00 -1.51973982E+01  7.59869910E+00
  7.59869910E+00 -1.51973982E+01  7.59869910E+00  7.59869910E+00 -1.51973982E+01
  7.59869910E+00  7.59869910E+00 -1.51973982E+01  7.59869910E+00  7.59869910E+00
 -1.51973982E+01  7.59869910E+00  7.59869910E+00 -1.51973982E+01  7.59869910E+00
  7.59869910E+00 -1.51973982E+01  7.59869910E+00  7.59869910E+00 -1.51973982E+01
  7.59869910E+00  7.59869910E+00 -1.51973982E+01  7.59869910E+00  7.59869910E+00
 -1.51973982E+01  7.59869910E+00  7.59869910E+00 -1.51973982E+01  7.59869910E+00
  7.59869910E+00 -1.51973982E+01  7.59869910E+00  7.59869910E+00 -1.51973982E+01
  7.59869910E+00  7.59869910E+00 -1.51973982E+01  7.59869910E+00  7.59869910E+00
 -1.51973982E+01  7.59869910E+00  7.59869910E+00 -1.51973982E+01  7.59869910E+00
  7.59869910E+00 -1.51973982E+01  7.59869910E+00  7.59869910E+00 -1.51973982E+01
  7.59869910E+00  7.59869910E+00 -1.51973982E+01  7.59869910E+00  7.59869910E+00
 -1.51973982E+01  7.59869910E+00  7.59869910E+00 -1.51973982E+01  7.59869910E+00
  7.59869910E+00 -1.51973982E+01  7.59869910E+00  7.59869910E+00 -1.51973982E+01
  7.59869910E+00  7.59869910E+00 -1.51973982E+01  7.59869910E+00  7.59869910E+00
 -1.51973982E+01  7.59869910E+00  7.59869910E+00 -1.51973982E+01  7.59869910E+00
  7.59869910E+00 -1.51973982E+01  7.59869910E+00  7.59869910E+00 -1.51973982E+01
  7.59869910E+00  7.59869910E+00 -1.51973982E+01  7.59869910E+00  7.59869910E+00
 -1.51973982E+01  7.59869910E+00  7.59869910E+00 -1.51973982E+01  7.59869910E+00
  7.59869910E+00 -1.51973982E+01  7.59869910E+00  7.59869910E+00 -1.51973982E+01
  7.59869910E+00  7.59869910E+00 -1.51973982E+01  7.59869910E+00  7.59869910E+00
 -1.51973982E+01  7.59869910E+00  7.59869910E+00 -1.51973982E+01  7.59869910E+00
  7.59869910E+00 -1.51973982E+01  7.59869910E+00  7.59869910E+00 -1.51973982E+01
  7.59869910E+00  7.59869910E+00 -1.51973982E+01  7.59869910E+00  7.59869910E+00
 -1.51973982E+01  7.59869910E+00  7.59869910E+00 -1.51973982E+01  7.59869910E+00
  7.59869910E+00 -1.51973982E+01  7.59869910E+00  7.59869910E+00 -1.51973982E+01
  7.59869910E+00  7.59869910E+00 -1.51973982E+01  7.59869910E+00  7.59869910E+00
 -1.51973982E+01  7.59869910E+00  7.59869910E+00 -1.51973982E+01  7.59869910E+00
  7.59869910E+00 -1.51973982E+01  7.59869910E+00  7.59869910E+00 -1.51973982E+01
  7.59869910E+00  7.59869910E+00 -1.51973982E+01  7.59869910E+00  7.59869910E+00
 -1.51973982E+01  7.59869910E+00  7.59869910E+00 -1.51973982E+01  7.59869910E+00
  7.59869910E+00 -1.51973982E+01  7.59869910E+00  7.59869910E+00 -1.51973982E+01
  7.59869910E+00  7.59869910E+00 -1.51973982E+01  7.59869910E+00  7.59869910E+00
 -1.51973982E+01  7.59869910E+00  7.59869910E+00 -1.51973982E+01  7.59869910E+00
  7.59869910E+00 -1.51973982E+01  7.59869910E+00  7.59869910E+00 -1.51973982E+01
  7.59869910E+00  7.59869910E+00 -1.51973982E+01  7.59869910E+00  7.59869910E+00
 -1.51973982E+01  7.59869910E+00  7.59869910E+00 -1.51973982E+01  7.59869910E+00
  7.59869910E+00 -1.51973982E+01  7.59869910E+00  7.59869910E+00 -1.51973982E+01
  7.59869910E+00  7.59869910E+00 -1.51973982E+01  7.59869910E+00  7.59869910E+00
 -1.51973982E+01  7.59869910E+00  7.59869910E+00 -1.51973982E+01  7.59869910E+00
  7.59869910E+00 -1.51973982E+01  7.59869910E+00  7.59869910E+00 -1.51973982E+01
  7.59869910E+00  7.59869910E+00 -1.51973982E+01  7.59869910E+00  7.59869910E+00
 -1.51973982E+01  7.59869910E+00  7.59869910E+00 -1.51973982E+01  7.59869910E+00
  7.59869910E+00 -1.51973982E+01  7.59869910E+00  7.59869910E+00 -1.51973982E+01
  7.59869910E+00  7.59869910E+00 -1.51973982E+01  7.59869910E+00  7.59869910E+00
 -1.51973982E+01  7.59869910E+00  7.59869910E+00 -1.51973982E+01  7.59869910E+00
  7.59869910E+00 -1.51973982E+01  7.59869910E+00  7.59869910E+00 -1.51973982E+01
  7.59869910E+00  7.59869910E+00 -1.51973982E+01  7.59869910E+00  7.59869910E+00
 -1.51973982E+01  7.59869910E+00  7.59869910E+00 -1.51973982E+01  7.59869910E+00
  7.59869910E+00 -1.51973982E+01  7.59869910E+00  7.59869910E+00 -1.51973982E+01
  7.59869910E+00  7.59869910E+00 -1.51973982E+01  7.59869910E+00  7.59869910E+00
 -1.51973982E+01  7.59869910E+00  7.59869910E+00 -1.51973982E+01  7.59869910E+00
  7.59869910E+00 -1.51973982E+01  7.59869910E+00  7.59869910E+00 -1.51973982E+01
  7.59869910E+00  7.59869910E+00 -1.51973982E+01  7.59869910E+00  7.59869910E+00
 -1.51973982E+01  7.59869910E+00  7.59869910E+00 -1.51973982E+01  7.59869910E+00
  7.59869910E+00 -1.51973982E+01  7.59869910E+00  7.59869910E+00 -1.51973982E+01
  7.59869910E+00  7.59869910E+00 -1.51973982E+01  7.59869910E+00  7.59869910E+00
 -1.51973982E+01  7.59869910E+00  7.59869910E+00 -1.51973982E+01  7.59869910E+00
  7.59869910E+00 -1.51973982E+01  7.59869910E+00  7.59869910E+00 -1.51973982E+01
  7.59869910E+00  7.59869910E+00 -1.51973982E+01  7.59869910E+00  7.59869910E+00
 -1.51973982E+01  7.59869910E+00  7.59869910E+00 -1.51973982E+01  7.59869910E+00
  7.59869910E+00 -1.51973982E+01  7.59869910E+00  7.59869910E+00 -1.51973982E+01
  7.59869910E+00  7.59869910E+00 -1.51973982E+01  7.59869910E+00  7.59869910E+00
 -1.51973982E+01  7.59869910E+00  7.59869910E+00 -1.51973982E+01  7.59869910E+00
  7.59869910E+00 -1.51973982E+01  7.59869910E+00  7.59869910E+00 -1.51973982E+01
  7.59869910E+00  7.59869910E+00 -1.51973982E+01  7.59869910E+00  7.59869910E+00
 -1.51973982E+01  7.59869910E+00  7.59869910E+00 -1.51973982E+01  7.59869910E+00
  7.59869910E+00 -1.51973982E+01  7.59869910E+00  7.59869910E+00 -1.51973982E+01
  7.59869910E+00  7.59869910E+00 -1.51973982E+01  7.59869910E+00  7.59869910E+00
 -1.51973982E+01  7.59869910E+00  7.59869910E+00 -1.51973982E+01  7.59869910E+00
  7.59869910E+00 -1.51973982E+01  7.59869910E+00  7.59869910E+00 -1.51973982E+01
  7.59869910E+00  7.59869910E+00 -1.51973982E+01  7.59869910E+00  7.59869910E+00
 -1.51973982E+01  7.59869910E+00  7.59869910E+00 -1.51973982E+01  7.59869910E+00
  7.59869910E+00 -1.51973982E+01  7.59869910E+00  7.59869910E+00 -1.51973982E+01
  7.59869910E+00  7.59869910E+00 -1.51973982E+01  7.59869910E+00  7.59869910E+00
 -1.51973982E+01  7.59869910E+00  7.59869910E+00 -1.51973982E+01  7.59869910E+00
  7.59869910E+00 -1.51973982E+01  7.59869910E+00  7.59869910E+00 -1.51973982E+01
  7.59869910E+00  7.59869910E+00 -1.51973982E+01  7.59869910E+00  7.59869910E+00
 -1.51973982E+01  7.59869910E+00  7.59869910E+00 -1.51973982E+01  7.59869910E+00
  7.59869910E+00 -1.51973982E+01  7.59869910E+00  7.59869910E+00 -1.51973982E+01
  7.59869910E+00  7.59869910E+00 -1.51973982E+01  7.59869910E+00  7.59869910E+00
 -1.51973982E+01  7.59869910E+00  7.59869910E+00 -1.51973982E+01  7.59869910E+00
  7.59869910E+00 -1.51973982E+01  7.59869910E+00  7.59869910E+00 -1.51973982E+01
  7.59869910E+00  7.59869910E+00 -1.51973982E+01  7.59869910E+00  7.59869910E+00
 -1.51973982E+01  7.59869910E+00  7.59869910E+00 -1.51973982E+01  7.59869910E+00
  7.59869910E+00 -1.51973982E+01  7.59869910E+00  7.59869910E+00 -1.51973982E+01
  7.59869910E+00  7.59869910E+00 -1.51973982E+01  7.59869910E+00  7.59869910E+00
 -1.51973982E+01  7.59869910E+00  7.59869910E+00 -1.51973982E+01  7.59869910E+00
  7.59869910E+00 -1.51973982E+01  7.59869910E+00  7.59869910E+00 -1.51973982E+01
  7.59869910E+00  7.59869910E+00 -1.51973982E+01  7.59869910E+00  7.59869910E+00
 -1.51973982E+01  7.59869910E+00  7.59869910E+00 -1.51973982E+01  7.59869910E+00
  7.59869910E+00 -1.51973982E+01  7.59869910E+00  7.59869910E+00 -1.51973982E+01
  7.59869910E+00  7.59869910E+00 -1.51973982E+01  7.59869910E+00  7.59869910E+00
 -1.51973982E+01  7.59869910E+00  7.59869910E+00 -1.51973982E+01  7.59869910E+00
  7.59869910E+00 -1.51973982E+01  7.59869910E+00  7.59869910E+00 -1.51973982E+01
  7.59869910E+00  7.59869910E+00 -1.51973982E+01  7.59869910E+00  7.59869910E+00
 -1.51973982E+01  7.59869910E+00  7.59869910E+00 -1.51973982E+01  7.59869910E+00
  7.59869910E+00 -1.51973982E+01  7.59869910E+00  7.59869910E+00 -1.51973982E+01
  7.59869910E+00  7.59869910E+00 -1.51973982E+01  7.59869910E+00  7.59869910E+00
 -1.51973982E+01  7.59869910E+00  7.59869910E+00 -1.51973982E+01  7.59869910E+00
  7.59869910E+00 -1.51973982E+01  7.59869910E+00  7.59869910E+00 -1.51973982E+01
  7.59869910E+00  7.59869910E+00 -1.51973982E+01  7.59869910E+00  7.59869910E+00
 -1.51973982E+01  7.59869910E+00  7.59869910E+00 -1.51973982E+01  7.59869910E+00
  7.59869910E+00 -1.51973982E+01  7.59869910E+00  7.59869910E+00 -1.51973982E+01
  7.59869910E+00  7.59869910E+00 -1.51973982E+01  7.59869910E+00  7.59869910E+00
 -1.51973982E+01  7.59869910E+00  7.59869910E+00 -1.51973982E+01  7.59869910E+00
  7.59869910E+00 -1.51973982E+01  7.59869910E+00  7.59869910E+00 -1.51973982E+01
  7.59869910E+00  7.59869910E+00 -1.51973982E+01  7.59869910E+00  7.59869910E+00
 -1.51973982E+01  7.59869910E+00  7.59869910E+00 -1.51973982E+01  7.59869910E+00
  7.59869910E+00 -1.51973982E+01  7.59869910E+00  7.59869910E+00 -1.51973982E+01
  7.59869910E+00  7.59869910E+00 -1.51973982E+01  7.59869910E+00  7.59869910E+00
 -1.51973982E+01  7.59869910E+00  7.59869910E+00 -1.51973982E+01  7.59869910E+00
  7.59869910E+00 -1.51973982E+01  7.59869910E+00  7.59869910E+00 -1.51973982E+01
  7.59869910E+00  7.59869910E+00 -1.51973982E+01  7.59869910E+00  7.59869910E+00
 -1.51973982E+01  7.59869910E+00  7.59869910E+00 -1.51973982E+01  7.59869910E+00
  7.59869910E+00 -1.51973982E+01  7.59869910E+00  7.59869910E+00 -1.51973982E+01
  7.59869910E+00  7.59869910E+00 -1.51973982E+01  7.59869910E+00  7.59869910E+00
 -1.51973982E+01  7.59869910E+00  7.59869910E+00 -1.51973982E+01  7.59869910E+00
  7.59869910E+00 -1.51973982E+01  7.59869910E+00  7.59869910E+00 -1.51973982E+01
  7.59869910E+00  7.59869910E+00 -1.51973982E+01  7.59869910E+00  7.59869910E+00
 -1.51973982E+01  7.59869910E+00  7.59869910E+00 -1.51973982E+01  7.59869910E+00
  7.59869910E+00 -1.51973982E+01  7.59869910E+00  7.59869910E+00 -1.51973982E+01
  7.59869910E+00  7.59869910E+00 -1.51973982E+01  7.59869910E+00  7.59869910E+00
 -1.51973982E+01  7.59869910E+00  7.59869910E+00 -1.51973982E+01  7.59869910E+00
  7.59869910E+00 -1.51973982E+01  7.59869910E+00  7.59869910E+00 -1.51973982E+01
  7.59869910E+00  7.59869910E+00 -1.51973982E+01  7.59869910E+00  7.59869910E+00
 -1.51973982E+01  7.59869910E+00  7.59869910E+00 -1.51973982E+01  7.59869910E+00
  7.59869910E+00 -1.51973982E+01  7.59869910E+00  7.59869910E+00 -1.51973982E+01
  7.59869910E+00  7.59869910E+00 -1.51973982E+01  7.59869910E+00  7.59869910E+00
 -1.51973982E+01  7.59869910E+00  7.59869910E+00 -1.51973982E+01  7.59869910E+00
  7.59869910E+00 -1.51973982E+01  7.59869910E+00  7.59869910E+00 -1.51973982E+01
  7.59869910E+00  7.59869910E+00 -1.51973982E+01  7.59869910E+00  7.59869910E+00
 -1.51973982E+01  7.59869910E+00  7.59869910E+00 -1.51973982E+01  7.59869910E+00
  7.59869910E+00 -1.51973982E+01  7.59869910E+00  7.59869910E+00 -1.51973982E+01
  7.59869910E+00  7.59869910E+00 -1.51973982E+01  7.59869910E+00  7.59869910E+00
 -1.51973982E+01  7.59869910E+00  7.59869910E+00 -1.51973982E+01  7.59869910E+00
  7.59869910E+00 -1.51973982E+01  7.59869910E+00  7.59869910E+00 -1.51973982E+01
  7.59869910E+00  7.59869910E+00 -1.51973982E+01  7.59869910E+00  7.59869910E+00
 -1.51973982E+01  7.59869910E+00  7.59869910E+00 -1.51973982E+01  7.59869910E+00
  7.59869910E+00 -1.51973982E+01  7.59869910E+00  7.59869910E+00 -1.51973982E+01
  7.59869910E+00  7.59869910E+00 -1.51973982E+01  7.59869910E+00  7.59869910E+00
 -1.51973982E+01  7.59869910E+00  7.59869910E+00 -1.51973982E+01  7.59869910E+00
  7.59869910E+00 -1.51973982E+01  7.59869910E+00  7.59869910E+00 -1.51973982E+01
  7.59869910E+00  7.59869910E+00 -1.51973982E+01  7.59869910E+00  7.59869910E+00
 -1.51973982E+01  7.59869910E+00  7.59869910E+00 -1.51973982E+01  7.59869910E+00
  7.59869910E+00 -1.51973982E+01  7.59869910E+00  7.59869910E+00 -1.51973982E+01
  7.59869910E+00  7.59869910E+00 -1.51973982E+01  7.59869910E+00  7.59869910E+00
 -1.51973982E+01  7.59869910E+00  7.59869910E+00 -1.51973982E+01  7.59869910E+00
  7.59869910E+00 -1.51973982E+01  7.59869910E+00  7.59869910E+00 -1.51973982E+01
  7.59869910E+00  7.59869910E+00 -1.51973982E+01  7.59869910E+00  7.59869910E+00
 -1.51973982E+01  7.59869910E+00  7.59869910E+00 -1.51973982E+01  7.59869910E+00
  7.59869910E+00 -1.51973982E+01  7.59869910E+00  7.59869910E+00 -1.51973982E+01
  7.59869910E+00  7.59869910E+00 -1.51973982E+01  7.59869910E+00  7.59869910E+00
 -1.51973982E+01  7.59869910E+00  7.59869910E+00 -1.51973982E+01  7.59869910E+00
  7.59869910E+00 -1.51973982E+01  7.59869910E+00  7.59869910E+00 -1.51973982E+01
  7.59869910E+00  7.59869910E+00 -1.51973982E+01  7.59869910E+00  7.59869910E+00
 -1.51973982E+01  7.59869910E+00  7.59869910E+00 -1.51973982E+01  7.59869910E+00
  7.59869910E+00 -1.51973982E+01  7.59869910E+00  7.59869910E+00 -1.51973982E+01
  7.59869910E+00  7.59869910E+00 -1.51973982E+01  7.59869910E+00  7.59869910E+00
 -1.51973982E+01  7.59869910E+00  7.59869910E+00 -1.51973982E+01  7.59869910E+00
  7.59869910E+00 -1.51973982E+01  7.59869910E+00  7.59869910E+00 -1.51973982E+01
  7.59869910E+00  7.59869910E+00 -1.51973982E+01  7.59869910E+00  7.59869910E+00
 -1.51973982E+01  7.59869910E+00  7.59869910E+00 -1.51973982E+01  7.59869910E+00
  7.59869910E+00 -1.51973982E+01  7.59869910E+00  7.59869910E+00 -1.51973982E+01
  7.59869910E+00  7.59869910E+00 -1.51973982E+01  7.59869910E+00  7.59869910E+00
 -1.51973982E+01  7.59869910E+00  7.59869910E+00 -1.51973982E+01  7.59869910E+00
  7.59869910E+00 -1.51973982E+01  7.59869910E+00  7.59869910E+00 -1.51973982E+01
  7.59869910E+00  7.59869910E+00 -1.51973982E+01  7.59869910E+00  7.59869910E+00
 -1.51973982E+01  7.59869910E+00  7.59869910E+00 -1.51973982E+01  7.59869910E+00
  7.59869910E+00 -1.51973982E+01  7.59869910E+00  7.59869910E+00 -1.51973982E+01
  7.59869910E+00  7.59869910E+00 -1.51973982E+01  7.59869910E+00  7.59869910E+00
 -1.51973982E+01  7.59869910E+00  7.59869910E+00 -1.51973982E+01  7.59869910E+00
  7.59869910E+00 -1.51973982E+01  7.59869910E+00  7.59869910E+00 -1.51973982E+01
  7.59869910E+00  7.59869910E+00 -1.51973982E+01  7.59869910E+00  7.59869910E+00
 -1.51973982E+01  7.59869910E+00  7.59869910E+00 -1.51973982E+01  7.59869910E+00
  7.59869910E+00 -1.51973982E+01  7.59869910E+00  7.59869910E+00 -1.51973982E+01
  7.59869910E+00  7.59869910E+00 -1.51973982E+01  7.59869910E+00  7.59869910E+00
 -1.51973982E+01  7.59869910E+00  7.59869910E+00 -1.51973982E+01  7.59869910E+00
  7.59869910E+00 -1.51973982E+01  7.59869910E+00  7.59869910E+00 -1.51973982E+01
  7.59869910E+00  7.59869910E+00 -1.51973982E+01  7.59869910E+00  7.59869910E+00
 -1.51973982E+01  7.59869910E+00  7.59869910E+00 -1.51973982E+01  7.59869910E+00
  7.59869910E+00 -1.51973982E+01  7.59869910E+00  7.59869910E+00 -1.51973982E+01
  7.59869910E+00  7.59869910E+00 -1.51973982E+01  7.59869910E+00  7.59869910E+00
 -1.51973982E+01  7.59869910E+00  7.59869910E+00 -1.51973982E+01  7.59869910E+00
  7.59869910E+00 -1.51973982E+01  7.59869910E+00  7.59869910E+00 -1.51973982E+01
  7.59869910E+00  7.59869910E+00 -1.51973982E+01  7.59869910E+00  7.59869910E+00
 -1.51973982E+01  7.59869910E+00  7.59869910E+00 -1.51973982E+01  7.59869910E+00
  7.59869910E+00 -1.51973982E+01  7.59869910E+00  7.59869910E+00 -1.51973982E+01
  7.59869910E+00  7.59869910E+00 -1.51973982E+01  7.59869910E+00  7.59869910E+00
 -1.51973982E+01  7.59869910E+00  7.59869910E+00 -1.51973982E+01  7.59869910E+00
  7.59869910E+00 -1.51973982E+01  7.59869910E+00  7.59869910E+00 -1.51973982E+01
  7.59869910E+00  7.59869910E+00 -1.51973982E+01  7.59869910E+00  7.59869910E+00
 -1.51973982E+01  7.59869910E+00  7.59869910E+00 -1.51973982E+01  7.59869910E+00
  7.59869910E+00 -1.51973982E+01  7.59869910E+00  7.59869910E+00 -1.51973982E+01
  7.59869910E+00  7.59869910E+00 -1.51973982E+01  7.59869910E+00  7.59869910E+00
 -1.51973982E+01  7.59869910E+00  7.59869910E+00 -1.51973982E+01  7.59869910E+00
  7.59869910E+00 -1.51973982E+01  7.59869910E+00  7.59869910E+00 -1.51973982E+01
  7.59869910E+00  7.59869910E+00 -1.51973982E+01  7.59869910E+00  7.59869910E+00
 -1.51973982E+01  7.59869910E+00  7.59869910E+00 -1.51973982E+01  7.59869910E+00
  7.59869910E+00 -1.51973982E+01  7.59869910E+00  7.59869910E+00 -1.51973982E+01
  7.59869910E+00  7.59869910E+00 -1.51973982E+01  7.59869910E+00  7.59869910E+00
 -1.51973982E+01  7.59869910E+00  7.59869910E+00 -1.51973982E+01  7.59869910E+00
  7.59869910E+00 -1.51973982E+01  7.59869910E+00  7.59869910E+00 -1.51973982E+01
  7.59869910E+00  7.59869910E+00 -1.51973982E+01  7.59869910E+00  7.59869910E+00
 -1.51973982E+01  7.59869910E+00  7.59869910E+00 -1.51973982E+01  7.59869910E+00
  7.59869910E+00 -1.51973982E+01  7.59869910E+00  7.59869910E+00 -1.51973982E+01
  7.59869910E+00  7.59869910E+00 -1.51973982E+01  7.59869910E+00  7.59869910E+00
 -1.51973982E+01  7.59869910E+00  7.59869910E+00 -1.51973982E+01  7.59869910E+00
  7.59869910E+00 -1.51973982E+01  7.59869910E+00  7.59869910E+00 -1.51973982E+01
  7.59869910E+00  7.59869910E+00 -1.51973982E+01  7.59869910E+00  7.59869910E+00
 -1.51973982E+01  7.59869910E+00  7.59869910E+00 -1.51973982E+01  7.59869910E+00
  7.59869910E+00 -1.51973982E+01  7.59869910E+00  7.59869910E+00 -1.51973982E+01
  7.59869910E+00  7.59869910E+00 -1.51973982E+01  7.59869910E+00  7.59869910E+00
 -1.51973982E+01  7.59869910E+00  7.59869910E+00 -1.51973982E+01  7.59869910E+00
  7.59869910E+00 -1.51973982E+01  7.59869910E+00  7.59869910E+00 -1.51973982E+01
  7.59869910E+00  7.59869910E+00 -1.51973982E+01  7.59869910E+00  7.59869910E+00
 -1.51973982E+01  7.59869910E+00  7.59869910E+00 -1.51973982E+01  7.59869910E+00
  7.59869910E+00 -1.51973982E+01  7.59869910E+00  7.59869910E+00 -1.51973982E+01
  7.59869910E+00  7.59869910E+00 -1.51973982E+01  7.59869910E+00  7.59869910E+00
 -1.51973982E+01  7.59869910E+00  7.59869910E+00 -1.51973982E+01  7.59869910E+00
  7.59869910E+00 -1.51973982E+01  7.59869910E+00  7.59869910E+00 -1.51973982E+01
  7.59869910E+00  7.59869910E+00 -1.51973982E+01  7.59869910E+00  7.59869910E+00
 -1.51973982E+01  7.59869910E+00  7.59869910E+00 -1.51973982E+01  7.59869910E+00
  7.59869910E+00 -1.51973982E+01  7.59869910E+00  7.59869910E+00 -1.51973982E+01
  7.59869910E+00  7.59869910E+00 -1.51973982E+01  7.59869910E+00  7.59869910E+00
 -1.51973982E+01  7.59869910E+00  7.59869910E+00 -1.51973982E+01  7.59869910E+00
  7.59869910E+00 -1.51973982E+01  7.59869910E+00  7.59869910E+00 -1.51973982E+01
  7.59869910E+00  7.59869910E+00 -1.51973982E+01  7.59869910E+00  7.59869910E+00
 -1.51973982E+01  7.59869910E+00  7.59869910E+00 -1.51973982E+01  7.59869910E+00
  7.59869910E+00 -1.51973982E+01  7.59869910E+00  7.59869910E+00 -1.51973982E+01
  7.59869910E+00  7.59869910E+00 -1.51973982E+01  7.59869910E+00  7.59869910E+00
 -1.51973982E+01  7.59869910E+00  7.59869910E+00 -1.51973982E+01  7.59869910E+00
  7.59869910E+00 -1.51973982E+01  7.59869910E+00  7.59869910E+00 -1.51973982E+01
  7.59869910E+00  7.59869910E+00 -1.51973982E+01  7.59869910E+00  7.59869910E+00
 -1.51973982E+01  7.59869910E+00  7.59869910E+00 -1.51973982E+01  7.59869910E+00
  7.59869910E+00 -1.51973982E+01  7.59869910E+00  7.59869910E+00 -1.51973982E+01
  7.59869910E+00  7.59869910E+00 -1.51973982E+01  7.59869910E+00  7.59869910E+00
 -1.51973982E+01  7.59869910E+00  7.59869910E+00 -1.51973982E+01  7.59869910E+00
  7.59869910E+00 -1.51973982E+01  7.59869910E+00  7.59869910E+00 -1.51973982E+01
  7.59869910E+00  7.59869910E+00 -1.51973982E+01  7.59869910E+00  7.59869910E+00
 -1.51973982E+01  7.59869910E+00  7.59869910E+00 -1.51973982E+01  7.59869910E+00
  7.59869910E+00 -1.51973982E+01  7.59869910E+00  7.59869910E+00 -1.51973982E+01
  7.59869910E+00  7.59869910E+00 -1.51973982E+01  7.59869910E+00  7.59869910E+00
 -1.51973982E+01  7.59869910E+00  7.59869910E+00 -1.51973982E+01  7.59869910E+00
  7.59869910E+00 -1.51973982E+01  7.59869910E+00  7.59869910E+00 -1.51973982E+01
  7.59869910E+00  7.59869910E+00 -1.51973982E+01  7.59869910E+00  7.59869910E+00
 -1.51973982E+01  7.59869910E+00  7.59869910E+00 -1.51973982E+01  7.59869910E+00
  7.59869910E+00 -1.51973982E+01  7.59869910E+00  7.59869910E+00 -1.51973982E+01
  7.59869910E+00  7.59869910E+00 -1.51973982E+01  7.59869910E+00  7.59869910E+00
 -1.51973982E+01  7.59869910E+00  7.59869910E+00 -1.51973982E+01  7.59869910E+00
  7.59869910E+00 -1.51973982E+01  7.59869910E+00  7.59869910E+00 -1.51973982E+01
  7.59869910E+00  7.59869910E+00 -1.51973982E+01  7.59869910E+00  7.59869910E+00
 -1.51973982E+01  7.59869910E+00  7.59869910E+00 -1.51973982E+01  7.59869910E+00
  7.59869910E+00 -1.51973982E+01  7.59869910E+00  7.59869910E+00 -1.51973982E+01
  7.59869910E+00  7.59869910E+00 -1.51973982E+01  7.59869910E+00  7.59869910E+00
 -1.51973982E+01  7.59869910E+00  7.59869910E+00 -1.51973982E+01  7.59869910E+00
  7.59869910E+00 -1.51973982E+01  7.59869910E+00  7.59869910E+00 -1.51973982E+01
  7.59869910E+00  7.59869910E+00 -1.51973982E+01  7.59869910E+00  7.59869910E+00
 -1.51973982E+01  7.59869910E+00  7.59869910E+00 -1.51973982E+01  7.59869910E+00
  7.59869910E+00 -1.51973982E+01  7.59869910E+00  7.59869910E+00 -1.51973982E+01
  7.59869910E+00  7.59869910E+00 -1.51973982E+01  7.59869910E+00  7.59869910E+00
 -1.51973982E+01  7.59869910E+00  7.59869910E+00 -1.51973982E+01  7.59869910E+00
  7.59869910E+00 -1.51973982E+01  7.59869910E+00  7.59869910E+00 -1.51973982E+01
  7.59869910E+00  7.59869910E+00 -1.51973982E+01  7.59869910E+00  7.59869910E+00
 -1.51973982E+01  7.59869910E+00  7.59869910E+00 -1.51973982E+01  7.59869910E+00
  7.59869910E+00 -1.51973982E+01  7.59869910E+00  7.59869910E+00 -1.51973982E+01
  7.59869910E+00  7.59869910E+00 -1.51973982E+01  7.59869910E+00  7.59869910E+00
 -1.51973982E+01  7.59869910E+00  7.59869910E+00 -1.51973982E+01  7.59869910E+00
  7.59869910E+00 -1.51973982E+01  7.59869910E+00  7.59869910E+00 -1.51973982E+01
  7.59869910E+00  7.59869910E+00 -1.51973982E+01  7.59869910E+00  7.59869910E+00
 -1.51973982E+01  7.59869910E+00  7.59869910E+00 -1.51973982E+01  7.59869910E+00
  7.59869910E+00 -1.51973982E+01  7.59869910E+00  7.59869910E+00 -1.51973982E+01
  7.59869910E+00  7.59869910E+00 -1.51973982E+01  7.59869910E+00  7.59869910E+00
 -1.51973982E+01  7.59869910E+00  7.59869910E+00 -1.51973982E+01  7.59869910E+00
  7.59869910E+00 -1.51973982E+01  7.59869910E+00  7.59869910E+00 -1.51973982E+01
  7.59869910E+00  7.59869910E+00 -1.51973982E+01  7.59869910E+00  7.59869910E+00
 -1.51973982E+01  7.59869910E+00  7.59869910E+00 -1.51973982E+01  7.59869910E+00
  7.59869910E+00 -1.51973982E+01  7.59869910E+00  7.59869910E+00 -1.51973982E+01
  7.59869910E+00  7.59869910E+00 -1.51973982E+01  7.59869910E+00  7.59869910E+00
 -1.51973982E+01  7.59869910E+00  7.59869910E+00 -1.51973982E+01  7.59869910E+00
  7.59869910E+00 -1.51973982E+01  7.59869910E+00  7.59869910E+00 -1.51973982E+01
  7.59869910E+00  7.59869910E+00 -1.51973982E+01  7.59869910E+00  7.59869910E+00
 -1.51973982E+01  7.59869910E+00  7.59869910E+00 -1.51973982E+01  7.59869910E+00
  7.59869910E+00 -1.51973982E+01  7.59869910E+00  7.59869910E+00 -1.51973982E+01
  7.59869910E+00  7.59869910E+00 -1.51973982E+01  7.59869910E+00  7.59869910E+00
 -1.51973982E+01  7.59869910E+00  7.59869910E+00 -1.51973982E+01  7.59869910E+00
  7.59869910E+00 -1.51973982E+01  7.59869910E+00  7.59869910E+00 -1.51973982E+01
  7.59869910E+00  7.59869910E+00 -1.51973982E+01  7.59869910E+00  7.59869910E+00
 -1.51973982E+01  7.59869910E+00  7.59869910E+00 -1.51973982E+01  7.59869910E+00
  7.59869910E+00 -1.51973982E+01  7.59869910E+00  7.59869910E+00 -1.51973982E+01
  7.59869910E+00  7.59869910E+00 -1.51973982E+01  7.59869910E+00  7.59869910E+00
 -1.51973982E+01  7.59869910E+00  7.59869910E+00 -1.51973982E+01  7.59869910E+00
  7.59869910E+00 -1.51973982E+01  7.59869910E+00  7.59869910E+00 -1.51973982E+01
  7.59869910E+00  7.59869910E+00 -1.51973982E+01  7.59869910E+00  7.59869910E+00
 -1.51973982E+01  7.59869910E+00  7.59869910E+00 -1.51973982E+01  7.59869910E+00
  7.59869910E+00 -1.51973982E+01  7.59869910E+00  7.59869910E+00 -1.51973982E+01
  7.59869910E+00  7.59869910E+00 -1.51973982E+01  7.59869910E+00  7.59869910E+00
 -1.51973982E+01  7.59869910E+00  7.59869910E+00 -1.51973982E+01  7.59869910E+00
  7.59869910E+00 -1.51973982E+01  7.59869910E+00  7.59869910E+00 -1.51973982E+01
  7.59869910E+00  7.59869910E+00 -1.51973982E+01  7.59869910E+00  7.59869910E+00
 -1.51973982E+01  7.59869910E+00  7.59869910E+00 -1.51973982E+01  7.59869910E+00
  7.59869910E+00 -1.51973982E+01  7.59869910E+00  7.59869910E+00 -1.51973982E+01
  7.59869910E+00  7.59869910E+00 -1.51973982E+01  7.59869910E+00  7.59869910E+00
 -1.51973982E+01  7.59869910E+00  7.59869910E+00 -1.51973982E+01  7.59869910E+00
  7.59869910E+00 -1.51973982E+01  7.59869910E+00  7.59869910E+00 -1.51973982E+01
  7.59869910E+00  7.59869910E+00 -1.51973982E+01  7.59869910E+00  7.59869910E+00
 -1.51973982E+01  7.59869910E+00  7.59869910E+00 -1.51973982E+01  7.59869910E+00
  7.59869910E+00 -1.51973982E+01  7.59869910E+00  7.59869910E+00 -1.51973982E+01
  7.59869910E+00  7.59869910E+00 -1.51973982E+01  7.59869910E+00  7.59869910E+00
 -1.51973982E+01  7.59869910E+00  7.59869910E+00 -1.51973982E+01  7.59869910E+00
  7.59869910E+00 -1.51973982E+01  7.59869910E+00  7.59869910E+00 -1.51973982E+01
  7.59869910E+00  7.59869910E+00 -1.51973982E+01  7.59869910E+00  7.59869910E+00
 -1.51973982E+01  7.59869910E+00  7.59869910E+00 -1.51973982E+01  7.59869910E+00
  7.59869910E+00 -1.51973982E+01  7.59869910E+00  7.59869910E+00 -1.51973982E+01
  7.59869910E+00  7.59869910E+00 -1.51973982E+01  7.59869910E+00  7.59869910E+00
 -1.51973982E+01  7.59869910E+00  7.59869910E+00 -1.51973982E+01  7.59869910E+00
  7.59869910E+00 -1.51973982E+01  7.59869910E+00  7.59869910E+00 -1.51973982E+01
  7.59869910E+00  7.59869910E+00 -1.51973982E+01  7.59869910E+00  7.59869910E+00
 -1.51973982E+01  7.59869910E+00  7.59869910E+00 -1.51973982E+01  7.59869910E+00
  7.59869910E+00 -1.51973982E+01  7.59869910E+00  7.59869910E+00 -1.51973982E+01
  7.59869910E+00  7.59869910E+00 -1.51973982E+01  7.59869910E+00  7.59869910E+00
 -1.51973982E+01  7.59869910E+00  7.59869910E+00 -1.51973982E+01  7.59869910E+00
  7.59869910E+00 -1.51973982E+01  7.59869910E+00  7.59869910E+00 -1.51973982E+01
  7.59869910E+00  7.59869910E+00 -1.51973982E+01  7.59869910E+00  7.59869910E+00
 -1.51973982E+01  7.59869910E+00  7.59869910E+00 -1.51973982E+01  7.59869910E+00
  7.59869910E+00 -1.51973982E+01  7.59869910E+00  7.59869910E+00 -1.51973982E+01
  7.59869910E+00  7.59869910E+00 -1.51973982E+01  7.59869910E+00  7.59869910E+00
 -1.51973982E+01  7.59869910E+00  7.59869910E+00 -1.51973982E+01  7.59869910E+00
  7.59869910E+00 -1.51973982E+01  7.59869910E+00  7.59869910E+00 -1.51973982E+01
  7.59869910E+00  7.59869910E+00 -1.51973982E+01  7.59869910E+00  7.59869910E+00
 -1.51973982E+01  7.59869910E+00  7.59869910E+00 -1.51973982E+01  7.59869910E+00
  7.59869910E+00 -1.51973982E+01  7.59869910E+00  7.59869910E+00 -1.51973982E+01
  7.59869910E+00  7.59869910E+00 -1.51973982E+01  7.59869910E+00  7.59869910E+00
 -1.51973982E+01  7.59869910E+00  7.59869910E+00 -1.51973982E+01  7.59869910E+00
  7.59869910E+00 -1.51973982E+01  7.59869910E+00  7.59869910E+00 -1.51973982E+01
  7.59869910E+00  7.59869910E+00 -1.51973982E+01  7.59869910E+00  7.59869910E+00
 -1.51973982E+01  7.59869910E+00  7.59869910E+00 -1.51973982E+01  7.59869910E+00
  7.59869910E+00 -1.51973982E+01  7.59869910E+00  7.59869910E+00 -1.51973982E+01
  7.59869910E+00  7.59869910E+00 -1.51973982E+01  7.59869910E+00  7.59869910E+00
 -1.51973982E+01  7.59869910E+00  7.59869910E+00 -1.51973982E+01  7.59869910E+00
  7.59869910E+00 -1.51973982E+01  7.59869910E+00  7.59869910E+00 -1.51973982E+01
  7.59869910E+00  7.59869910E+00 -1.51973982E+01  7.59869910E+00  7.59869910E+00
 -1.51973982E+01  7.59869910E+00  7.59869910E+00 -1.51973982E+01  7.59869910E+00
  7.59869910E+00 -1.51973982E+01  7.59869910E+00  7.59869910E+00 -1.51973982E+01
  7.59869910E+00  7.59869910E+00 -1.51973982E+01  7.59869910E+00  7.59869910E+00
 -1.51973982E+01  7.59869910E+00  7.59869910E+00 -1.51973982E+01  7.59869910E+00
  7.59869910E+00 -1.51973982E+01  7.59869910E+00  7.59869910E+00 -1.51973982E+01
  7.59869910E+00  7.59869910E+00 -1.51973982E+01  7.59869910E+00  7.59869910E+00
 -1.51973982E+01  7.59869910E+00  7.59869910E+00 -1.51973982E+01  7.59869910E+00
  7.59869910E+00 -1.51973982E+01  7.59869910E+00  7.59869910E+00 -1.51973982E+01
  7.59869910E+00  7.59869910E+00 -1.51973982E+01  7.59869910E+00  7.59869910E+00
 -1.51973982E+01  7.59869910E+00  7.59869910E+00 -1.51973982E+01  7.59869910E+00
  7.59869910E+00 -1.51973982E+01  7.59869910E+00  7.59869910E+00 -1.51973982E+01
  7.59869910E+00  7.59869910E+00 -1.51973982E+01  7.59869910E+00  7.59869910E+00
 -1.51973982E+01  7.59869910E+00  7.59869910E+00 -1.51973982E+01  7.59869910E+00
  7.59869910E+00 -1.51973982E+01  7.59869910E+00  7.59869910E+00 -1.51973982E+01
  7.59869910E+00  7.59869910E+00 -1.51973982E+01  7.59869910E+00  7.59869910E+00
 -1.51973982E+01  7.59869910E+00  7.59869910E+00 -1.51973982E+01  7.59869910E+00
  7.59869910E+00 -1.51973982E+01  7.59869910E+00  7.59869910E+00 -1.51973982E+01
  7.59869910E+00  7.59869910E+00 -1.51973982E+01  7.59869910E+00  7.59869910E+00
 -1.51973982E+01  7.59869910E+00  7.59869910E+00 -1.51973982E+01  7.59869910E+00
  7.59869910E+00 -1.51973982E+01  7.59869910E+00  7.59869910E+00 -1.51973982E+01
  7.59869910E+00  7.59869910E+00 -1.51973982E+01  7.59869910E+00  7.59869910E+00
 -1.51973982E+01  7.59869910E+00  7.59869910E+00 -1.51973982E+01  7.59869910E+00
  7.59869910E+00 -1.51973982E+01  7.59869910E+00  7.59869910E+00 -1.51973982E+01
  7.59869910E+00  7.59869910E+00 -1.51973982E+01  7.59869910E+00  7.59869910E+00
 -1.51973982E+01  7.59869910E+00  7.59869910E+00 -1.51973982E+01  7.59869910E+00
  7.59869910E+00 -1.51973982E+01  7.59869910E+00  7.59869910E+00 -1.51973982E+01
  7.59869910E+00  7.59869910E+00 -1.51973982E+01  7.59869910E+00  7.59869910E+00
 -1.51973982E+01  7.59869910E+00  7.59869910E+00 -1.51973982E+01  7.59869910E+00
  7.59869910E+00 -1.51973982E+01  7.59869910E+00  7.59869910E+00 -1.51973982E+01
  7.59869910E+00  7.59869910E+00 -1.51973982E+01  7.59869910E+00  7.59869910E+00
 -1.51973982E+01  7.59869910E+00  7.59869910E+00 -1.51973982E+01  7.59869910E+00
  7.59869910E+00 -1.51973982E+01  7.59869910E+00  7.59869910E+00 -1.51973982E+01
  7.59869910E+00  7.59869910E+00 -1.51973982E+01  7.59869910E+00  7.59869910E+00
 -1.51973982E+01  7.59869910E+00  7.59869910E+00 -1.51973982E+01  7.59869910E+00
  7.59869910E+00 -1.51973982E+01  7.59869910E+00  7.59869910E+00 -1.51973982E+01
  7.59869910E+00  7.59869910E+00 -1.51973982E+01  7.59869910E+00  7.59869910E+00
 -1.51973982E+01  7.59869910E+00  7.59869910E+00 -1.51973982E+01  7.59869910E+00
  7.59869910E+00 -1.51973982E+01  7.59869910E+00  7.59869910E+00 -1.51973982E+01
  7.59869910E+00  7.59869910E+00 -1.51973982E+01  7.59869910E+00  7.59869910E+00
 -1.51973982E+01  7.59869910E+00  7.59869910E+00 -1.51973982E+01  7.59869910E+00
  7.59869910E+00 -1.51973982E+01  7.59869910E+00  7.59869910E+00 -1.51973982E+01
  7.59869910E+00  7.59869910E+00 -1.51973982E+01  7.59869910E+00  7.59869910E+00
 -1.51973982E+01  7.59869910E+00  7.59869910E+00 -1.51973982E+01  7.59869910E+00
  7.59869910E+00 -1.51973982E+01  7.59869910E+00  7.59869910E+00 -1.51973982E+01
  7.59869910E+00  7.59869910E+00 -1.51973982E+01  7.59869910E+00  7.59869910E+00
 -1.51973982E+01  7.59869910E+00  7.59869910E+00 -1.51973982E+01  7.59869910E+00
  7.59869910E+00 -1.51973982E+01  7.59869910E+00  7.59869910E+00 -1.51973982E+01
  7.59869910E+00  7.59869910E+00 -1.51973982E+01  7.59869910E+00  7.59869910E+00
 -1.51973982E+01  7.59869910E+00  7.59869910E+00 -1.51973982E+01  7.59869910E+00
  7.59869910E+00 -1.51973982E+01  7.59869910E+00  7.59869910E+00 -1.51973982E+01
  7.59869910E+00  7.59869910E+00 -1.51973982E+01  7.59869910E+00  7.59869910E+00
 -1.51973982E+01  7.59869910E+00  7.59869910E+00 -1.51973982E+01  7.59869910E+00
  7.59869910E+00 -1.51973982E+01  7.59869910E+00  7.59869910E+00 -1.51973982E+01
  7.59869910E+00  7.59869910E+00 -1.51973982E+01  7.59869910E+00  7.59869910E+00
 -1.51973982E+01  7.59869910E+00  7.59869910E+00 -1.51973982E+01  7.59869910E+00
  7.59869910E+00 -1.51973982E+01  7.59869910E+00  7.59869910E+00 -1.51973982E+01
  7.59869910E+00  7.59869910E+00 -1.51973982E+01  7.59869910E+00  7.59869910E+00
 -1.51973982E+01  7.59869910E+00  7.59869910E+00 -1.51973982E+01  7.59869910E+00
  7.59869910E+00 -1.51973982E+01  7.59869910E+00  7.59869910E+00 -1.51973982E+01
  7.59869910E+00  7.59869910E+00 -1.51973982E+01  7.59869910E+00  7.59869910E+00
 -1.51973982E+01  7.59869910E+00  7.59869910E+00 -1.51973982E+01  7.59869910E+00
  7.59869910E+00 -1.51973982E+01  7.59869910E+00  7.59869910E+00 -1.51973982E+01
  7.59869910E+00  7.59869910E+00 -1.51973982E+01  7.59869910E+00  7.59869910E+00
 -1.51973982E+01  7.59869910E+00  7.59869910E+00 -1.51973982E+01  7.59869910E+00
  7.59869910E+00 -1.51973982E+01  7.59869910E+00  7.59869910E+00 -1.51973982E+01
  7.59869910E+00  7.59869910E+00 -1.51973982E+01  7.59869910E+00  7.59869910E+00
 -1.51973982E+01  7.59869910E+00  7.59869910E+00 -1.51973982E+01  7.59869910E+00
  7.59869910E+00 -1.51973982E+01  7.59869910E+00  7.59869910E+00 -1.51973982E+01
  7.59869910E+00  7.59869910E+00 -1.51973982E+01  7.59869910E+00  7.59869910E+00
 -1.51973982E+01  7.59869910E+00  7.59869910E+00 -1.51973982E+01  7.59869910E+00
  7.59869910E+00 -1.51973982E+01  7.59869910E+00  7.59869910E+00 -1.51973982E+01
  7.59869910E+00  7.59869910E+00 -1.51973982E+01  7.59869910E+00  7.59869910E+00
 -1.51973982E+01  7.59869910E+00  7.59869910E+00 -1.51973982E+01  7.59869910E+00
  7.59869910E+00 -1.51973982E+01  7.59869910E+00  7.59869910E+00 -1.51973982E+01
  7.59869910E+00  7.59869910E+00 -1.51973982E+01  7.59869910E+00  7.59869910E+00
 -1.51973982E+01  7.59869910E+00  7.59869910E+00 -1.51973982E+01  7.59869910E+00
  7.59869910E+00 -1.51973982E+01  7.59869910E+00  7.59869910E+00 -1.51973982E+01
  7.59869910E+00  7.59869910E+00 -1.51973982E+01  7.59869910E+00  7.59869910E+00
 -1.51973982E+01  7.59869910E+00  7.59869910E+00 -1.51973982E+01  7.59869910E+00
  7.59869910E+00 -1.51973982E+01  7.59869910E+00  7.59869910E+00 -1.51973982E+01
  7.59869910E+00  7.59869910E+00 -1.51973982E+01  7.59869910E+00  7.59869910E+00
 -1.51973982E+01  7.59869910E+00  7.59869910E+00 -1.51973982E+01  7.59869910E+00
  7.59869910E+00 -1.51973982E+01  7.59869910E+00  7.59869910E+00 -1.51973982E+01
  7.59869910E+00  7.59869910E+00 -1.51973982E+01  7.59869910E+00  7.59869910E+00
 -1.51973982E+01  7.59869910E+00  7.59869910E+00 -1.51973982E+01  7.59869910E+00
  7.59869910E+00 -1.51973982E+01  7.59869910E+00  7.59869910E+00 -1.51973982E+01
  7.59869910E+00  7.59869910E+00 -1.51973982E+01  7.59869910E+00  7.59869910E+00
 -1.51973982E+01  7.59869910E+00  7.59869910E+00 -1.51973982E+01  7.59869910E+00
  7.59869910E+00 -1.51973982E+01  7.59869910E+00  7.59869910E+00 -1.51973982E+01
  7.59869910E+00  7.59869910E+00 -1.51973982E+01  7.59869910E+00  7.59869910E+00
 -1.51973982E+01  7.59869910E+00  7.59869910E+00 -1.51973982E+01  7.59869910E+00
  7.59869910E+00 -1.51973982E+01  7.59869910E+00  7.59869910E+00 -1.51973982E+01
  7.59869910E+00  7.59869910E+00 -1.51973982E+01  7.59869910E+00  7.59869910E+00
 -1.51973982E+01  7.59869910E+00  7.59869910E+00 -1.51973982E+01  7.59869910E+00
  7.59869910E+00 -1.51973982E+01  7.59869910E+00  7.59869910E+00 -1.51973982E+01
  7.59869910E+00  7.59869910E+00 -1.51973982E+01  7.59869910E+00  7.59869910E+00
 -1.51973982E+01  7.59869910E+00  7.59869910E+00 -1.51973982E+01  7.59869910E+00
  7.59869910E+00 -1.51973982E+01  7.59869910E+00  7.59869910E+00 -1.51973982E+01
  7.59869910E+00  7.59869910E+00 -1.51973982E+01  7.59869910E+00  7.59869910E+00
 -1.51973982E+01  7.59869910E+00  7.59869910E+00 -1.51973982E+01  7.59869910E+00
  7.59869910E+00 -1.51973982E+01  7.59869910E+00  7.59869910E+00 -1.51973982E+01
  7.59869910E+00  7.59869910E+00 -1.51973982E+01  7.59869910E+00  7.59869910E+00
 -1.51973982E+01  7.59869910E+00  7.59869910E+00 -1.51973982E+01  7.59869910E+00
  7.59869910E+00 -1.51973982E+01  7.59869910E+00  7.59869910E+00 -1.51973982E+01
  7.59869910E+00  7.59869910E+00 -1.51973982E+01  7.59869910E+00  7.59869910E+00
 -1.51973982E+01  7.59869910E+00  7.59869910E+00 -1.51973982E+01  7.59869910E+00
  7.59869910E+00 -1.51973982E+01  7.59869910E+00  7.59869910E+00 -1.51973982E+01
  7.59869910E+00  7.59869910E+00 -1.51973982E+01  7.59869910E+00  7.59869910E+00
 -1.51973982E+01  7.59869910E+00  7.59869910E+00 -1.51973982E+01  7.59869910E+00
  7.59869910E+00 -1.51973982E+01  7.59869910E+00  7.59869910E+00 -1.51973982E+01
  7.59869910E+00  7.59869910E+00 -1.51973982E+01  7.59869910E+00  7.59869910E+00
 -1.51973982E+01  7.59869910E+00  7.59869910E+00 -1.51973982E+01  7.59869910E+00
  7.59869910E+00 -1.51973982E+01  7.59869910E+00  7.59869910E+00 -1.51973982E+01
  7.59869910E+00  7.59869910E+00 -1.51973982E+01  7.59869910E+00  7.59869910E+00
 -1.51973982E+01  7.59869910E+00  7.59869910E+00 -1.51973982E+01  7.59869910E+00
  7.59869910E+00 -1.51973982E+01  7.59869910E+00  7.59869910E+00 -1.51973982E+01
  7.59869910E+00  7.59869910E+00 -1.51973982E+01  7.59869910E+00  7.59869910E+00
 -1.51973982E+01  7.59869910E+00  7.59869910E+00 -1.51973982E+01  7.59869910E+00
  7.59869910E+00 -1.51973982E+01  7.59869910E+00  7.59869910E+00 -1.51973982E+01
  7.59869910E+00  7.59869910E+00 -1.51973982E+01  7.59869910E+00  7.59869910E+00
 -1.51973982E+01  7.59869910E+00  7.59869910E+00 -1.51973982E+01  7.59869910E+00
  7.59869910E+00 -1.51973982E+01  7.59869910E+00  7.59869910E+00 -1.51973982E+01
  7.59869910E+00  7.59869910E+00 -1.51973982E+01  7.59869910E+00  7.59869910E+00
 -1.51973982E+01  7.59869910E+00  7.59869910E+00 -1.51973982E+01  7.59869910E+00
  7.59869910E+00 -1.51973982E+01  7.59869910E+00  7.59869910E+00 -1.51973982E+01
  7.59869910E+00  7.59869910E+00 -1.51973982E+01  7.59869910E+00  7.59869910E+00
 -1.51973982E+01  7.59869910E+00  7.59869910E+00 -1.51973982E+01  7.59869910E+00
  7.59869910E+00 -1.51973982E+01  7.59869910E+00  7.59869910E+00 -1.51973982E+01
  7.59869910E+00  7.59869910E+00 -1.51973982E+01  7.59869910E+00  7.59869910E+00
 -1.51973982E+01  7.59869910E+00  7.59869910E+00 -1.51973982E+01  7.59869910E+00
  7.59869910E+00 -1.51973982E+01  7.59869910E+00  7.59869910E+00 -1.51973982E+01
  7.59869910E+00  7.59869910E+00 -1.51973982E+01  7.59869910E+00  7.59869910E+00
 -1.51973982E+01  7.59869910E+00  7.59869910E+00 -1.51973982E+01  7.59869910E+00
  7.59869910E+00 -1.51973982E+01  7.59869910E+00  7.59869910E+00 -1.51973982E+01
  7.59869910E+00  7.59869910E+00 -1.51973982E+01  7.59869910E+00  7.59869910E+00
 -1.51973982E+01  7.59869910E+00  7.59869910E+00 -1.51973982E+01  7.59869910E+00
  7.59869910E+00 -1.51973982E+01  7.59869910E+00  7.59869910E+00 -1.51973982E+01
  7.59869910E+00  7.59869910E+00 -1.51973982E+01  7.59869910E+00  7.59869910E+00
 -1.51973982E+01  7.59869910E+00  7.59869910E+00 -1.51973982E+01  7.59869910E+00
  7.59869910E+00 -1.51973982E+01  7.59869910E+00  7.59869910E+00 -1.51973982E+01
  7.59869910E+00  7.59869910E+00 -1.51973982E+01  7.59869910E+00  7.59869910E+00
 -1.51973982E+01  7.59869910E+00  7.59869910E+00 -1.51973982E+01  7.59869910E+00
  7.59869910E+00 -1.51973982E+01  7.59869910E+00  7.59869910E+00 -1.51973982E+01
  7.59869910E+00  7.59869910E+00 -1.51973982E+01  7.59869910E+00  7.59869910E+00
 -1.51973982E+01  7.59869910E+00  7.59869910E+00 -1.51973982E+01  7.59869910E+00
  7.59869910E+00 -1.51973982E+01  7.59869910E+00  7.59869910E+00 -1.51973982E+01
  7.59869910E+00  7.59869910E+00 -1.51973982E+01  7.59869910E+00  7.59869910E+00
 -1.51973982E+01  7.59869910E+00  7.59869910E+00 -1.51973982E+01  7.59869910E+00
  7.59869910E+00 -1.51973982E+01  7.59869910E+00  7.59869910E+00 -1.51973982E+01
  7.59869910E+00  7.59869910E+00 -1.51973982E+01  7.59869910E+00  7.59869910E+00
 -1.51973982E+01  7.59869910E+00  7.59869910E+00 -1.51973982E+01  7.59869910E+00
  7.59869910E+00 -1.51973982E+01  7.59869910E+00  7.59869910E+00 -1.51973982E+01
  7.59869910E+00  7.59869910E+00 -1.51973982E+01  7.59869910E+00  7.59869910E+00
 -1.51973982E+01  7.59869910E+00  7.59869910E+00 -1.51973982E+01  7.59869910E+00
  7.59869910E+00 -1.51973982E+01  7.59869910E+00  7.59869910E+00 -1.51973982E+01
  7.59869910E+00  7.59869910E+00 -1.51973982E+01  7.59869910E+00  7.59869910E+00
 -1.51973982E+01  7.59869910E+00  7.59869910E+00 -1.51973982E+01  7.59869910E+00
  7.59869910E+00 -1.51973982E+01  7.59869910E+00  7.59869910E+00 -1.51973982E+01
  7.59869910E+00  7.59869910E+00 -1.51973982E+01  7.59869910E+00  7.59869910E+00
 -1.51973982E+01  7.59869910E+00  7.59869910E+00 -1.51973982E+01  7.59869910E+00
  7.59869910E+00 -1.51973982E+01  7.59869910E+00  7.59869910E+00 -1.51973982E+01
  7.59869910E+00  7.59869910E+00 -1.51973982E+01  7.59869910E+00  7.59869910E+00
 -1.51973982E+01  7.59869910E+00  7.59869910E+00 -1.51973982E+01  7.59869910E+00
  7.59869910E+00 -1.51973982E+01  7.59869910E+00  7.59869910E+00 -1.51973982E+01
  7.59869910E+00  7.59869910E+00 -1.51973982E+01  7.59869910E+00  7.59869910E+00
 -1.51973982E+01  7.59869910E+00  7.59869910E+00 -1.51973982E+01  7.59869910E+00
  7.59869910E+00 -1.51973982E+01  7.59869910E+00  7.59869910E+00 -1.51973982E+01
  7.59869910E+00  7.59869910E+00 -1.51973982E+01  7.59869910E+00  7.59869910E+00
 -1.51973982E+01  7.59869910E+00  7.59869910E+00 -1.51973982E+01  7.59869910E+00
  7.59869910E+00 -1.51973982E+01  7.59869910E+00  7.59869910E+00 -1.51973982E+01
  7.59869910E+00  7.59869910E+00 -1.51973982E+01  7.59869910E+00  7.59869910E+00
 -1.51973982E+01  7.59869910E+00  7.59869910E+00 -1.51973982E+01  7.59869910E+00
  7.59869910E+00 -1.51973982E+01  7.59869910E+00  7.59869910E+00 -1.51973982E+01
  7.59869910E+00  7.59869910E+00 -1.51973982E+01  7.59869910E+00  7.59869910E+00
 -1.51973982E+01  7.59869910E+00  7.59869910E+00 -1.51973982E+01  7.59869910E+00
  7.59869910E+00 -1.51973982E+01  7.59869910E+00  7.59869910E+00 -1.51973982E+01
  7.59869910E+00  7.59869910E+00 -1.51973982E+01  7.59869910E+00  7.59869910E+00
 -1.51973982E+01  7.59869910E+00  7.59869910E+00 -1.51973982E+01  7.59869910E+00
  7.59869910E+00 -1.51973982E+01  7.59869910E+00  7.59869910E+00 -1.51973982E+01
  7.59869910E+00  7.59869910E+00 -1.51973982E+01  7.59869910E+00  7.59869910E+00
 -1.51973982E+01  7.59869910E+00  7.59869910E+00 -1.51973982E+01  7.59869910E+00
  7.59869910E+00 -1.51973982E+01  7.59869910E+00  7.59869910E+00 -1.51973982E+01
  7.59869910E+00  7.59869910E+00 -1.51973982E+01  7.59869910E+00  7.59869910E+00
 -1.51973982E+01  7.59869910E+00  7.59869910E+00 -1.51973982E+01  7.59869910E+00
  7.59869910E+00 -1.51973982E+01  7.59869910E+00  7.59869910E+00 -1.51973982E+01
  7.59869910E+00  7.59869910E+00 -1.51973982E+01  7.59869910E+00  7.59869910E+00
 -1.51973982E+01  7.59869910E+00  7.59869910E+00 -1.51973982E+01  7.59869910E+00
  7.59869910E+00 -1.51973982E+01  7.59869910E+00  7.59869910E+00 -1.51973982E+01
  7.59869910E+00  7.59869910E+00 -1.51973982E+01  7.59869910E+00  7.59869910E+00
 -1.51973982E+01  7.59869910E+00  7.59869910E+00 -1.51973982E+01  7.59869910E+00
  7.59869910E+00 -1.51973982E+01  7.59869910E+00  7.59869910E+00 -1.51973982E+01
  7.59869910E+00  7.59869910E+00 -1.51973982E+01  7.59869910E+00  7.59869910E+00
 -1.51973982E+01  7.59869910E+00  7.59869910E+00 -1.51973982E+01  7.59869910E+00
  7.59869910E+00 -1.51973982E+01  7.59869910E+00  7.59869910E+00 -1.51973982E+01
  7.59869910E+00  7.59869910E+00 -1.51973982E+01  7.59869910E+00  7.59869910E+00
 -1.51973982E+01  7.59869910E+00  7.59869910E+00 -1.51973982E+01  7.59869910E+00
  7.59869910E+00 -1.51973982E+01  7.59869910E+00  7.59869910E+00 -1.51973982E+01
  7.59869910E+00  7.59869910E+00 -1.51973982E+01  7.59869910E+00  7.59869910E+00
 -1.51973982E+01  7.59869910E+00  7.59869910E+00 -1.51973982E+01  7.59869910E+00
  7.59869910E+00 -1.51973982E+01  7.59869910E+00  7.59869910E+00 -1.51973982E+01
  7.59869910E+00  7.59869910E+00 -1.51973982E+01  7.59869910E+00  7.59869910E+00
 -1.51973982E+01  7.59869910E+00  7.59869910E+00 -1.51973982E+01  7.59869910E+00
  7.59869910E+00 -1.51973982E+01  7.59869910E+00  7.59869910E+00 -1.51973982E+01
  7.59869910E+00  7.59869910E+00 -1.51973982E+01  7.59869910E+00  7.59869910E+00
 -1.51973982E+01  7.59869910E+00  7.59869910E+00 -1.51973982E+01  7.59869910E+00
  7.59869910E+00 -1.51973982E+01  7.59869910E+00  7.59869910E+00 -1.51973982E+01
  7.59869910E+00  7.59869910E+00 -1.51973982E+01  7.59869910E+00  7.59869910E+00
 -1.51973982E+01  7.59869910E+00  7.59869910E+00 -1.51973982E+01  7.59869910E+00
  7.59869910E+00 -1.51973982E+01  7.59869910E+00  7.59869910E+00 -1.51973982E+01
  7.59869910E+00  7.59869910E+00 -1.51973982E+01  7.59869910E+00  7.59869910E+00
 -1.51973982E+01  7.59869910E+00  7.59869910E+00 -1.51973982E+01  7.59869910E+00
  7.59869910E+00 -1.51973982E+01  7.59869910E+00  7.59869910E+00 -1.51973982E+01
  7.59869910E+00  7.59869910E+00 -1.51973982E+01  7.59869910E+00  7.59869910E+00
 -1.51973982E+01  7.59869910E+00  7.59869910E+00 -1.51973982E+01  7.59869910E+00
  7.59869910E+00 -1.51973982E+01  7.59869910E+00  7.59869910E+00 -1.51973982E+01
  7.59869910E+00  7.59869910E+00 -1.51973982E+01  7.59869910E+00  7.59869910E+00
 -1.51973982E+01  7.59869910E+00  7.59869910E+00 -1.51973982E+01  7.59869910E+00
  7.59869910E+00 -1.51973982E+01  7.59869910E+00  7.59869910E+00 -1.51973982E+01
  7.59869910E+00  7.59869910E+00 -1.51973982E+01  7.59869910E+00  7.59869910E+00
 -1.51973982E+01  7.59869910E+00  7.59869910E+00 -1.51973982E+01  7.59869910E+00
  7.59869910E+00 -1.51973982E+01  7.59869910E+00  7.59869910E+00 -1.51973982E+01
  7.59869910E+00  7.59869910E+00 -1.51973982E+01  7.59869910E+00  7.59869910E+00
 -1.51973982E+01  7.59869910E+00  7.59869910E+00 -1.51973982E+01  7.59869910E+00
  7.59869910E+00 -1.51973982E+01  7.59869910E+00  7.59869910E+00 -1.51973982E+01
  7.59869910E+00  7.59869910E+00 -1.51973982E+01  7.59869910E+00  7.59869910E+00
 -1.51973982E+01  7.59869910E+00  7.59869910E+00 -1.51973982E+01  7.59869910E+00
  7.59869910E+00 -1.51973982E+01  7.59869910E+00  7.59869910E+00 -1.51973982E+01
  7.59869910E+00  7.59869910E+00 -1.51973982E+01  7.59869910E+00  7.59869910E+00
 -1.51973982E+01  7.59869910E+00  7.59869910E+00 -1.51973982E+01  7.59869910E+00
  7.59869910E+00 -1.51973982E+01  7.59869910E+00  7.59869910E+00 -1.51973982E+01
  7.59869910E+00  7.59869910E+00 -1.51973982E+01  7.59869910E+00  7.59869910E+00
 -1.51973982E+01  7.59869910E+00  7.59869910E+00 -1.51973982E+01  7.59869910E+00
  7.59869910E+00 -1.51973982E+01  7.59869910E+00  7.59869910E+00 -1.51973982E+01
  7.59869910E+00  7.59869910E+00 -1.51973982E+01  7.59869910E+00  7.59869910E+00
 -1.51973982E+01  7.59869910E+00  7.59869910E+00 -1.51973982E+01  7.59869910E+00
  7.59869910E+00 -1.51973982E+01  7.59869910E+00  7.59869910E+00 -1.51973982E+01
  7.59869910E+00  7.59869910E+00 -1.51973982E+01  7.59869910E+00  7.59869910E+00
 -1.51973982E+01  7.59869910E+00  7.59869910E+00 -1.51973982E+01  7.59869910E+00
  7.59869910E+00 -1.51973982E+01  7.59869910E+00  7.59869910E+00 -1.51973982E+01
  7.59869910E+00  7.59869910E+00 -1.51973982E+01  7.59869910E+00  7.59869910E+00
 -1.51973982E+01  7.59869910E+00  7.59869910E+00 -1.51973982E+01  7.59869910E+00
  7.59869910E+00 -1.51973982E+01  7.59869910E+00  7.59869910E+00 -1.51973982E+01
  7.59869910E+00  7.59869910E+00 -1.51973982E+01  7.59869910E+00  7.59869910E+00
 -1.51973982E+01  7.59869910E+00  7.59869910E+00 -1.51973982E+01  7.59869910E+00
  7.59869910E+00 -1.51973982E+01  7.59869910E+00  7.59869910E+00 -1.51973982E+01
  7.59869910E+00  7.59869910E+00 -1.51973982E+01  7.59869910E+00  7.59869910E+00
 -1.51973982E+01  7.59869910E+00  7.59869910E+00 -1.51973982E+01  7.59869910E+00
  7.59869910E+00 -1.51973982E+01  7.59869910E+00  7.59869910E+00 -1.51973982E+01
  7.59869910E+00  7.59869910E+00 -1.51973982E+01  7.59869910E+00  7.59869910E+00
 -1.51973982E+01  7.59869910E+00  7.59869910E+00 -1.51973982E+01  7.59869910E+00
  7.59869910E+00 -1.51973982E+01  7.59869910E+00  7.59869910E+00 -1.51973982E+01
  7.59869910E+00  7.59869910E+00 -1.51973982E+01  7.59869910E+00  7.59869910E+00
 -1.51973982E+01  7.59869910E+00  7.59869910E+00 -1.51973982E+01  7.59869910E+00
  7.59869910E+00 -1.51973982E+01  7.59869910E+00  7.59869910E+00 -1.51973982E+01
  7.59869910E+00  7.59869910E+00 -1.51973982E+01  7.59869910E+00  7.59869910E+00
 -1.51973982E+01  7.59869910E+00  7.59869910E+00 -1.51973982E+01  7.59869910E+00
  7.59869910E+00 -1.51973982E+01  7.59869910E+00  7.59869910E+00 -1.51973982E+01
  7.59869910E+00  7.59869910E+00 -1.51973982E+01  7.59869910E+00  7.59869910E+00
 -1.51973982E+01  7.59869910E+00  7.59869910E+00 -1.51973982E+01  7.59869910E+00
  7.59869910E+00 -1.51973982E+01  7.59869910E+00  7.59869910E+00 -1.51973982E+01
  7.59869910E+00  7.59869910E+00 -1.51973982E+01  7.59869910E+00  7.59869910E+00
 -1.51973982E+01  7.59869910E+00  7.59869910E+00 -1.51973982E+01  7.59869910E+00
  7.59869910E+00 -1.51973982E+01  7.59869910E+00  7.59869910E+00 -1.51973982E+01
  7.59869910E+00  7.59869910E+00 -1.51973982E+01  7.59869910E+00  7.59869910E+00
 -1.51973982E+01  7.59869910E+00  7.59869910E+00 -1.51973982E+01  7.59869910E+00
  7.59869910E+00 -1.51973982E+01  7.59869910E+00  7.59869910E+00 -1.51973982E+01
  7.59869910E+00  7.59869910E+00 -1.51973982E+01  7.59869910E+00  7.59869910E+00
 -1.51973982E+01  7.59869910E+00  7.59869910E+00 -1.51973982E+01  7.59869910E+00
  7.59869910E+00 -1.51973982E+01  7.59869910E+00  7.59869910E+00 -1.51973982E+01
  7.59869910E+00  7.59869910E+00 -1.51973982E+01  7.59869910E+00  7.59869910E+00
 -1.51973982E+01  7.59869910E+00  7.59869910E+00 -1.51973982E+01  7.59869910E+00
  7.59869910E+00 -1.51973982E+01  7.59869910E+00  7.59869910E+00 -1.51973982E+01
  7.59869910E+00  7.59869910E+00 -1.51973982E+01  7.59869910E+00  7.59869910E+00
 -1.51973982E+01  7.59869910E+00  7.59869910E+00 -1.51973982E+01  7.59869910E+00
  7.59869910E+00 -1.51973982E+01  7.59869910E+00  7.59869910E+00 -1.51973982E+01
  7.59869910E+00  7.59869910E+00 -1.51973982E+01  7.59869910E+00  7.59869910E+00
 -1.51973982E+01  7.59869910E+00  7.59869910E+00 -1.51973982E+01  7.59869910E+00
  7.59869910E+00 -1.51973982E+01  7.59869910E+00  7.59869910E+00 -1.51973982E+01
  7.59869910E+00  7.59869910E+00 -1.51973982E+01  7.59869910E+00  7.59869910E+00
 -1.51973982E+01  7.59869910E+00  7.59869910E+00 -1.51973982E+01  7.59869910E+00
  7.59869910E+00 -1.51973982E+01  7.59869910E+00  7.59869910E+00 -1.51973982E+01
  7.59869910E+00  7.59869910E+00 -1.51973982E+01  7.59869910E+00  7.59869910E+00
 -1.51973982E+01  7.59869910E+00  7.59869910E+00 -1.51973982E+01  7.59869910E+00
  7.59869910E+00 -1.51973982E+01  7.59869910E+00  7.59869910E+00 -1.51973982E+01
  7.59869910E+00  7.59869910E+00 -1.51973982E+01  7.59869910E+00  7.59869910E+00
 -1.51973982E+01  7.59869910E+00  7.59869910E+00 -1.51973982E+01  7.59869910E+00
  7.59869910E+00 -1.51973982E+01  7.59869910E+00  7.59869910E+00 -1.51973982E+01
  7.59869910E+00  7.59869910E+00 -1.51973982E+01  7.59869910E+00  7.59869910E+00
 -1.51973982E+01  7.59869910E+00  7.59869910E+00 -1.51973982E+01  7.59869910E+00
  7.59869910E+00 -1.51973982E+01  7.59869910E+00  7.59869910E+00 -1.51973982E+01
  7.59869910E+00  7.59869910E+00 -1.51973982E+01  7.59869910E+00  7.59869910E+00
 -1.51973982E+01  7.59869910E+00  7.59869910E+00 -1.51973982E+01  7.59869910E+00
  7.59869910E+00 -1.51973982E+01  7.59869910E+00  7.59869910E+00 -1.51973982E+01
  7.59869910E+00  7.59869910E+00 -1.51973982E+01  7.59869910E+00  7.59869910E+00
 -1.51973982E+01  7.59869910E+00  7.59869910E+00 -1.51973982E+01  7.59869910E+00
  7.59869910E+00 -1.51973982E+01  7.59869910E+00  7.59869910E+00 -1.51973982E+01
  7.59869910E+00  7.59869910E+00 -1.51973982E+01  7.59869910E+00  7.59869910E+00
 -1.51973982E+01  7.59869910E+00  7.59869910E+00 -1.51973982E+01  7.59869910E+00
  7.59869910E+00 -1.51973982E+01  7.59869910E+00  7.59869910E+00 -1.51973982E+01
  7.59869910E+00  7.59869910E+00 -1.51973982E+01  7.59869910E+00  7.59869910E+00
 -1.51973982E+01  7.59869910E+00  7.59869910E+00 -1.51973982E+01  7.59869910E+00
  7.59869910E+00 -1.51973982E+01  7.59869910E+00  7.59869910E+00 -1.51973982E+01
  7.59869910E+00  7.59869910E+00 -1.51973982E+01  7.59869910E+00  7.59869910E+00
 -1.51973982E+01  7.59869910E+00  7.59869910E+00 -1.51973982E+01  7.59869910E+00
  7.59869910E+00 -1.51973982E+01  7.59869910E+00  7.59869910E+00 -1.51973982E+01
  7.59869910E+00  7.59869910E+00 -1.51973982E+01  7.59869910E+00  7.59869910E+00
 -1.51973982E+01  7.59869910E+00  7.59869910E+00 -1.51973982E+01  7.59869910E+00
  7.59869910E+00 -1.51973982E+01  7.59869910E+00  7.59869910E+00 -1.51973982E+01
  7.59869910E+00  7.59869910E+00 -1.51973982E+01  7.59869910E+00  7.59869910E+00
 -1.51973982E+01  7.59869910E+00  7.59869910E+00 -1.51973982E+01  7.59869910E+00
  7.59869910E+00 -1.51973982E+01  7.59869910E+00  7.59869910E+00 -1.51973982E+01
  7.59869910E+00  7.59869910E+00 -1.51973982E+01  7.59869910E+00  7.59869910E+00
 -1.51973982E+01  7.59869910E+00  7.59869910E+00 -1.51973982E+01  7.59869910E+00
  7.59869910E+00 -1.51973982E+01  7.59869910E+00  7.59869910E+00 -1.51973982E+01
  7.59869910E+00  7.59869910E+00 -1.51973982E+01  7.59869910E+00  7.59869910E+00
 -1.51973982E+01  7.59869910E+00  7.59869910E+00 -1.51973982E+01  7.59869910E+00
  7.59869910E+00 -1.51973982E+01  7.59869910E+00  7.59869910E+00 -1.51973982E+01
  7.59869910E+00  7.59869910E+00 -1.51973982E+01  7.59869910E+00  7.59869910E+00
 -1.51973982E+01  7.59869910E+00  7.59869910E+00 -1.51973982E+01  7.59869910E+00
  7.59869910E+00 -1.51973982E+01  7.59869910E+00  7.59869910E+00 -1.51973982E+01
  7.59869910E+00  7.59869910E+00 -1.51973982E+01  7.59869910E+00  7.59869910E+00
 -1.51973982E+01  7.59869910E+00  7.59869910E+00 -1.51973982E+01  7.59869910E+00
  7.59869910E+00 -1.51973982E+01  7.59869910E+00  7.59869910E+00 -1.51973982E+01
  7.59869910E+00  7.59869910E+00 -1.51973982E+01  7.59869910E+00  7.59869910E+00
 -1.51973982E+01  7.59869910E+00  7.59869910E+00 -1.51973982E+01  7.59869910E+00
  7.59869910E+00 -1.51973982E+01  7.59869910E+00  7.59869910E+00 -1.51973982E+01
  7.59869910E+00  7.59869910E+00 -1.51973982E+01  7.59869910E+00  7.59869910E+00
 -1.51973982E+01  7.59869910E+00  7.59869910E+00 -1.51973982E+01  7.59869910E+00
  7.59869910E+00 -1.51973982E+01  7.59869910E+00  7.59869910E+00 -1.51973982E+01
  7.59869910E+00  7.59869910E+00 -1.51973982E+01  7.59869910E+00  7.59869910E+00
 -1.51973982E+01  7.59869910E+00  7.59869910E+00 -1.51973982E+01  7.59869910E+00
  7.59869910E+00 -1.51973982E+01  7.59869910E+00  7.59869910E+00 -1.51973982E+01
  7.59869910E+00  7.59869910E+00 -1.51973982E+01  7.59869910E+00  7.59869910E+00
 -1.51973982E+01  7.59869910E+00  7.59869910E+00 -1.51973982E+01  7.59869910E+00
  7.59869910E+00 -1.51973982E+01  7.59869910E+00  7.59869910E+00 -1.51973982E+01
  7.59869910E+00  7.59869910E+00 -1.51973982E+01  7.59869910E+00  7.59869910E+00
 -1.51973982E+01  7.59869910E+00  7.59869910E+00 -1.51973982E+01  7.59869910E+00
  7.59869910E+00 -1.51973982E+01  7.59869910E+00  7.59869910E+00 -1.51973982E+01
  7.59869910E+00  7.59869910E+00 -1.51973982E+01  7.59869910E+00  7.59869910E+00
 -1.51973982E+01  7.59869910E+00  7.59869910E+00 -1.51973982E+01  7.59869910E+00
  7.59869910E+00 -1.51973982E+01  7.59869910E+00  7.59869910E+00 -1.51973982E+01
  7.59869910E+00  7.59869910E+00 -1.51973982E+01  7.59869910E+00  7.59869910E+00
 -1.51973982E+01  7.59869910E+00  7.59869910E+00 -1.51973982E+01  7.59869910E+00
  7.59869910E+00 -1.51973982E+01  7.59869910E+00  7.59869910E+00 -1.51973982E+01
  7.59869910E+00  7.59869910E+00 -1.51973982E+01  7.59869910E+00  7.59869910E+00
 -1.51973982E+01  7.59869910E+00  7.59869910E+00 -1.51973982E+01  7.59869910E+00
  7.59869910E+00 -1.51973982E+01  7.59869910E+00  7.59869910E+00 -1.51973982E+01
  7.59869910E+00  7.59869910E+00 -1.51973982E+01  7.59869910E+00  7.59869910E+00
 -1.51973982E+01  7.59869910E+00  7.59869910E+00 -1.51973982E+01  7.59869910E+00
  7.59869910E+00 -1.51973982E+01  7.59869910E+00  7.59869910E+00 -1.51973982E+01
  7.59869910E+00  7.59869910E+00 -1.51973982E+01  7.59869910E+00  7.59869910E+00
 -1.51973982E+01  7.59869910E+00  7.59869910E+00 -1.51973982E+01  7.59869910E+00
  7.59869910E+00 -1.51973982E+01  7.59869910E+00  7.59869910E+00 -1.51973982E+01
  7.59869910E+00  7.59869910E+00 -1.51973982E+01  7.59869910E+00  7.59869910E+00
 -1.51973982E+01  7.59869910E+00  7.59869910E+00 -1.51973982E+01  7.59869910E+00
  7.59869910E+00 -1.51973982E+01  7.59869910E+00  7.59869910E+00 -1.51973982E+01
  7.59869910E+00  7.59869910E+00 -1.51973982E+01  7.59869910E+00  7.59869910E+00
 -1.51973982E+01  7.59869910E+00  7.59869910E+00 -1.51973982E+01  7.59869910E+00
  7.59869910E+00 -1.51973982E+01  7.59869910E+00  7.59869910E+00 -1.51973982E+01
  7.59869910E+00  7.59869910E+00 -1.51973982E+01  7.59869910E+00  7.59869910E+00
 -1.51973982E+01  7.59869910E+00  7.59869910E+00 -1.51973982E+01  7.59869910E+00
  7.59869910E+00 -1.51973982E+01  7.59869910E+00  7.59869910E+00 -1.51973982E+01
  7.59869910E+00  7.59869910E+00 -1.51973982E+01  7.59869910E+00  7.59869910E+00
 -1.51973982E+01  7.59869910E+00  7.59869910E+00 -1.51973982E+01  7.59869910E+00
  7.59869910E+00 -1.51973982E+01  7.59869910E+00  7.59869910E+00 -1.51973982E+01
  7.59869910E+00  7.59869910E+00 -1.51973982E+01  7.59869910E+00  7.59869910E+00
 -1.51973982E+01  7.59869910E+00  7.59869910E+00 -1.51973982E+01  7.59869910E+00
  7.59869910E+00 -1.51973982E+01  7.59869910E+00  7.59869910E+00 -1.51973982E+01
  7.59869910E+00  7.59869910E+00 -1.51973982E+01  7.59869910E+00  7.59869910E+00
 -1.51973982E+01  7.59869910E+00  7.59869910E+00 -1.51973982E+01  7.59869910E+00
  7.59869910E+00 -1.51973982E+01  7.59869910E+00  7.59869910E+00 -1.51973982E+01
  7.59869910E+00  7.59869910E+00 -1.51973982E+01  7.59869910E+00  7.59869910E+00
 -1.51973982E+01  7.59869910E+00  7.59869910E+00 -1.51973982E+01  7.59869910E+00
  7.59869910E+00 -1.51973982E+01  7.59869910E+00  7.59869910E+00 -1.51973982E+01
  7.59869910E+00  7.59869910E+00 -1.51973982E+01  7.59869910E+00  7.59869910E+00
 -1.51973982E+01  7.59869910E+00  7.59869910E+00 -1.51973982E+01  7.59869910E+00
  7.59869910E+00 -1.51973982E+01  7.59869910E+00  7.59869910E+00 -1.51973982E+01
  7.59869910E+00  7.59869910E+00 -1.51973982E+01  7.59869910E+00  7.59869910E+00
 -1.51973982E+01  7.59869910E+00  7.59869910E+00 -1.51973982E+01  7.59869910E+00
  7.59869910E+00 -1.51973982E+01  7.59869910E+00  7.59869910E+00 -1.51973982E+01
  7.59869910E+00  7.59869910E+00 -1.51973982E+01  7.59869910E+00  7.59869910E+00
 -1.51973982E+01  7.59869910E+00  7.59869910E+00 -1.51973982E+01  7.59869910E+00
  7.59869910E+00 -1.51973982E+01  7.59869910E+00  7.59869910E+00 -1.51973982E+01
  7.59869910E+00  7.59869910E+00 -1.51973982E+01  7.59869910E+00  7.59869910E+00
 -1.51973982E+01  7.59869910E+00  7.59869910E+00 -1.51973982E+01  7.59869910E+00
  7.59869910E+00 -1.51973982E+01  7.59869910E+00  7.59869910E+00 -1.51973982E+01
  7.59869910E+00  7.59869910E+00 -1.51973982E+01  7.59869910E+00  7.59869910E+00
 -1.51973982E+01  7.59869910E+00  7.59869910E+00 -1.51973982E+01  7.59869910E+00
  7.59869910E+00 -1.51973982E+01  7.59869910E+00  7.59869910E+00 -1.51973982E+01
  7.59869910E+00  7.59869910E+00 -1.51973982E+01  7.59869910E+00  7.59869910E+00
 -1.51973982E+01  7.59869910E+00  7.59869910E+00 -1.51973982E+01  7.59869910E+00
  7.59869910E+00 -1.51973982E+01  7.59869910E+00  7.59869910E+00 -1.51973982E+01
  7.59869910E+00  7.59869910E+00 -1.51973982E+01  7.59869910E+00  7.59869910E+00
 -1.51973982E+01  7.59869910E+00  7.59869910E+00 -1.51973982E+01  7.59869910E+00
  7.59869910E+00 -1.51973982E+01  7.59869910E+00  7.59869910E+00 -1.51973982E+01
  7.59869910E+00  7.59869910E+00 -1.51973982E+01  7.59869910E+00  7.59869910E+00
 -1.51973982E+01  7.59869910E+00  7.59869910E+00 -1.51973982E+01  7.59869910E+00
  7.59869910E+00 -1.51973982E+01  7.59869910E+00  7.59869910E+00 -1.51973982E+01
  7.59869910E+00  7.59869910E+00 -1.51973982E+01  7.59869910E+00  7.59869910E+00
 -1.51973982E+01  7.59869910E+00  7.59869910E+00 -1.51973982E+01  7.59869910E+00
  7.59869910E+00 -1.51973982E+01  7.59869910E+00  7.59869910E+00 -1.51973982E+01
  7.59869910E+00  7.59869910E+00 -1.51973982E+01  7.59869910E+00  7.59869910E+00
 -1.51973982E+01  7.59869910E+00  7.59869910E+00 -1.51973982E+01  7.59869910E+00
  7.59869910E+00 -1.51973982E+01  7.59869910E+00  7.59869910E+00 -1.51973982E+01
  7.59869910E+00  7.59869910E+00 -1.51973982E+01  7.59869910E+00  7.59869910E+00
 -1.51973982E+01  7.59869910E+00  7.59869910E+00 -1.51973982E+01  7.59869910E+00
  7.59869910E+00 -1.51973982E+01  7.59869910E+00  7.59869910E+00 -1.51973982E+01
  7.59869910E+00  7.59869910E+00 -1.51973982E+01  7.59869910E+00  7.59869910E+00
 -1.51973982E+01  7.59869910E+00  7.59869910E+00 -1.51973982E+01  7.59869910E+00
  7.59869910E+00 -1.51973982E+01  7.59869910E+00  7.59869910E+00 -1.51973982E+01
  7.59869910E+00  7.59869910E+00 -1.51973982E+01  7.59869910E+00  7.59869910E+00
 -1.51973982E+01  7.59869910E+00  7.59869910E+00 -1.51973982E+01  7.59869910E+00
  7.59869910E+00 -1.51973982E+01  7.59869910E+00  7.59869910E+00 -1.51973982E+01
  7.59869910E+00  7.59869910E+00 -1.51973982E+01  7.59869910E+00  7.59869910E+00
 -1.51973982E+01  7.59869910E+00  7.59869910E+00 -1.51973982E+01  7.59869910E+00
  7.59869910E+00 -1.51973982E+01  7.59869910E+00  7.59869910E+00 -1.51973982E+01
  7.59869910E+00  7.59869910E+00 -1.51973982E+01  7.59869910E+00  7.59869910E+00
 -1.51973982E+01  7.59869910E+00  7.59869910E+00 -1.51973982E+01  7.59869910E+00
  7.59869910E+00 -1.51973982E+01  7.59869910E+00  7.59869910E+00 -1.51973982E+01
  7.59869910E+00  7.59869910E+00 -1.51973982E+01  7.59869910E+00  7.59869910E+00
 -1.51973982E+01  7.59869910E+00  7.59869910E+00 -1.51973982E+01  7.59869910E+00
  7.59869910E+00 -1.51973982E+01  7.59869910E+00  7.59869910E+00 -1.51973982E+01
  7.59869910E+00  7.59869910E+00 -1.51973982E+01  7.59869910E+00  7.59869910E+00
 -1.51973982E+01  7.59869910E+00  7.59869910E+00 -1.51973982E+01  7.59869910E+00
  7.59869910E+00 -1.51973982E+01  7.59869910E+00  7.59869910E+00 -1.51973982E+01
  7.59869910E+00  7.59869910E+00 -1.51973982E+01  7.59869910E+00  7.59869910E+00
 -1.51973982E+01  7.59869910E+00  7.59869910E+00 -1.51973982E+01  7.59869910E+00
  7.59869910E+00 -1.51973982E+01  7.59869910E+00  7.59869910E+00 -1.51973982E+01
  7.59869910E+00  7.59869910E+00 -1.51973982E+01  7.59869910E+00  7.59869910E+00
 -1.51973982E+01  7.59869910E+00  7.59869910E+00 -1.51973982E+01  7.59869910E+00
  7.59869910E+00 -1.51973982E+01  7.59869910E+00  7.59869910E+00 -1.51973982E+01
  7.59869910E+00  7.59869910E+00 -1.51973982E+01  7.59869910E+00  7.59869910E+00
 -1.51973982E+01  7.59869910E+00  7.59869910E+00 -1.51973982E+01  7.59869910E+00
  7.59869910E+00 -1.51973982E+01  7.59869910E+00  7.59869910E+00 -1.51973982E+01
  7.59869910E+00  7.59869910E+00 -1.51973982E+01  7.59869910E+00  7.59869910E+00
 -1.51973982E+01  7.59869910E+00  7.59869910E+00 -1.51973982E+01  7.59869910E+00
  7.59869910E+00 -1.51973982E+01  7.59869910E+00  7.59869910E+00 -1.51973982E+01
  7.59869910E+00  7.59869910E+00 -1.51973982E+01  7.59869910E+00  7.59869910E+00
 -1.51973982E+01  7.59869910E+00  7.59869910E+00 -1.51973982E+01  7.59869910E+00
  7.59869910E+00 -1.51973982E+01  7.59869910E+00  7.59869910E+00 -1.51973982E+01
  7.59869910E+00  7.59869910E+00 -1.51973982E+01  7.59869910E+00  7.59869910E+00
 -1.51973982E+01  7.59869910E+00  7.59869910E+00 -1.51973982E+01  7.59869910E+00
  7.59869910E+00 -1.51973982E+01  7.59869910E+00  7.59869910E+00 -1.51973982E+01
  7.59869910E+00  7.59869910E+00 -1.51973982E+01  7.59869910E+00  7.59869910E+00
 -1.51973982E+01  7.59869910E+00  7.59869910E+00 -1.51973982E+01  7.59869910E+00
  7.59869910E+00 -1.51973982E+01  7.59869910E+00  7.59869910E+00 -1.51973982E+01
  7.59869910E+00  7.59869910E+00 -1.51973982E+01  7.59869910E+00  7.59869910E+00
 -1.51973982E+01  7.59869910E+00  7.59869910E+00 -1.51973982E+01  7.59869910E+00
  7.59869910E+00 -1.51973982E+01  7.59869910E+00  7.59869910E+00 -1.51973982E+01
  7.59869910E+00  7.59869910E+00 -1.51973982E+01  7.59869910E+00  7.59869910E+00
 -1.51973982E+01  7.59869910E+00  7.59869910E+00 -1.51973982E+01  7.59869910E+00
  7.59869910E+00 -1.51973982E+01  7.59869910E+00  7.59869910E+00 -1.51973982E+01
  7.59869910E+00  7.59869910E+00 -1.51973982E+01  7.59869910E+00  7.59869910E+00
 -1.51973982E+01  7.59869910E+00  7.59869910E+00 -1.51973982E+01  7.59869910E+00
  7.59869910E+00 -1.51973982E+01  7.59869910E+00  7.59869910E+00 -1.51973982E+01
  7.59869910E+00  7.59869910E+00 -1.51973982E+01  7.59869910E+00  7.59869910E+00
 -1.51973982E+01  7.59869910E+00  7.59869910E+00 -1.51973982E+01  7.59869910E+00
  7.59869910E+00 -1.51973982E+01  7.59869910E+00  7.59869910E+00 -1.51973982E+01
  7.59869910E+00  7.59869910E+00 -1.51973982E+01  7.59869910E+00  7.59869910E+00
 -1.51973982E+01  7.59869910E+00  7.59869910E+00 -1.51973982E+01  7.59869910E+00
  7.59869910E+00 -1.51973982E+01  7.59869910E+00  7.59869910E+00 -1.51973982E+01
  7.59869910E+00  7.59869910E+00 -1.51973982E+01  7.59869910E+00  7.59869910E+00
 -1.51973982E+01  7.59869910E+00  7.59869910E+00 -1.51973982E+01  7.59869910E+00
  7.59869910E+00 -1.51973982E+01  7.59869910E+00  7.59869910E+00 -1.51973982E+01
  7.59869910E+00  7.59869910E+00 -1.51973982E+01  7.59869910E+00  7.59869910E+00
 -1.51973982E+01  7.59869910E+00  7.59869910E+00 -1.51973982E+01  7.59869910E+00
  7.59869910E+00 -1.51973982E+01  7.59869910E+00  7.59869910E+00 -1.51973982E+01
  7.59869910E+00  7.59869910E+00 -1.51973982E+01  7.59869910E+00  7.59869910E+00
 -1.51973982E+01  7.59869910E+00  7.59869910E+00 -1.51973982E+01  7.59869910E+00
  7.59869910E+00 -1.51973982E+01  7.59869910E+00  7.59869910E+00 -1.51973982E+01
  7.59869910E+00  7.59869910E+00 -1.51973982E+01  7.59869910E+00  7.59869910E+00
 -1.51973982E+01  7.59869910E+00  7.59869910E+00 -1.51973982E+01  7.59869910E+00
  7.59869910E+00 -1.51973982E+01  7.59869910E+00  7.59869910E+00 -1.51973982E+01
  7.59869910E+00  7.59869910E+00 -1.51973982E+01  7.59869910E+00  7.59869910E+00
 -1.51973982E+01  7.59869910E+00  7.59869910E+00 -1.51973982E+01  7.59869910E+00
  7.59869910E+00 -1.51973982E+01  7.59869910E+00  7.59869910E+00 -1.51973982E+01
  7.59869910E+00  7.59869910E+00 -1.51973982E+01  7.59869910E+00  7.59869910E+00
 -1.51973982E+01  7.59869910E+00  7.59869910E+00 -1.51973982E+01  7.59869910E+00
  7.59869910E+00 -1.51973982E+01  7.59869910E+00  7.59869910E+00 -1.51973982E+01
  7.59869910E+00  7.59869910E+00 -1.51973982E+01  7.59869910E+00  7.59869910E+00
 -1.51973982E+01  7.59869910E+00  7.59869910E+00 -1.51973982E+01  7.59869910E+00
  7.59869910E+00 -1.51973982E+01  7.59869910E+00  7.59869910E+00 -1.51973982E+01
  7.59869910E+00  7.59869910E+00 -1.51973982E+01  7.59869910E+00  7.59869910E+00
 -1.51973982E+01  7.59869910E+00  7.59869910E+00 -1.51973982E+01  7.59869910E+00
  7.59869910E+00 -1.51973982E+01  7.59869910E+00  7.59869910E+00 -1.51973982E+01
  7.59869910E+00  7.59869910E+00 -1.51973982E+01  7.59869910E+00  7.59869910E+00
 -1.51973982E+01  7.59869910E+00  7.59869910E+00 -1.51973982E+01  7.59869910E+00
  7.59869910E+00 -1.51973982E+01  7.59869910E+00  7.59869910E+00 -1.51973982E+01
  7.59869910E+00  7.59869910E+00 -1.51973982E+01  7.59869910E+00  7.59869910E+00
 -1.51973982E+01  7.59869910E+00  7.59869910E+00 -1.51973982E+01  7.59869910E+00
  7.59869910E+00 -1.51973982E+01  7.59869910E+00  7.59869910E+00 -1.51973982E+01
  7.59869910E+00  7.59869910E+00 -1.51973982E+01  7.59869910E+00  7.59869910E+00
 -1.51973982E+01  7.59869910E+00  7.59869910E+00 -1.51973982E+01  7.59869910E+00
  7.59869910E+00 -1.51973982E+01  7.59869910E+00  7.59869910E+00 -1.51973982E+01
  7.59869910E+00  7.59869910E+00 -1.51973982E+01  7.59869910E+00  7.59869910E+00
 -1.51973982E+01  7.59869910E+00  7.59869910E+00 -1.51973982E+01  7.59869910E+00
  7.59869910E+00 -1.51973982E+01  7.59869910E+00  7.59869910E+00 -1.51973982E+01
  7.59869910E+00  7.59869910E+00 -1.51973982E+01  7.59869910E+00  7.59869910E+00
 -1.51973982E+01  7.59869910E+00  7.59869910E+00 -1.51973982E+01  7.59869910E+00
  7.59869910E+00 -1.51973982E+01  7.59869910E+00  7.59869910E+00 -1.51973982E+01
  7.59869910E+00  7.59869910E+00 -1.51973982E+01  7.59869910E+00  7.59869910E+00
 -1.51973982E+01  7.59869910E+00  7.59869910E+00 -1.51973982E+01  7.59869910E+00
  7.59869910E+00 -1.51973982E+01  7.59869910E+00  7.59869910E+00 -1.51973982E+01
  7.59869910E+00  7.59869910E+00 -1.51973982E+01  7.59869910E+00  7.59869910E+00
 -1.51973982E+01  7.59869910E+00  7.59869910E+00 -1.51973982E+01  7.59869910E+00
  7.59869910E+00 -1.51973982E+01  7.59869910E+00  7.59869910E+00 -1.51973982E+01
  7.59869910E+00  7.59869910E+00 -1.51973982E+01  7.59869910E+00  7.59869910E+00
 -1.51973982E+01  7.59869910E+00  7.59869910E+00 -1.51973982E+01  7.59869910E+00
  7.59869910E+00 -1.51973982E+01  7.59869910E+00  7.59869910E+00 -1.51973982E+01
  7.59869910E+00  7.59869910E+00 -1.51973982E+01  7.59869910E+00  7.59869910E+00
 -1.51973982E+01  7.59869910E+00  7.59869910E+00 -1.51973982E+01  7.59869910E+00
  7.59869910E+00 -1.51973982E+01  7.59869910E+00  7.59869910E+00 -1.51973982E+01
  7.59869910E+00  7.59869910E+00 -1.51973982E+01  7.59869910E+00  7.59869910E+00
 -1.51973982E+01  7.59869910E+00  7.59869910E+00 -1.51973982E+01  7.59869910E+00
  7.59869910E+00 -1.51973982E+01  7.59869910E+00  7.59869910E+00 -1.51973982E+01
  7.59869910E+00  7.59869910E+00 -1.51973982E+01  7.59869910E+00  7.59869910E+00
 -1.51973982E+01  7.59869910E+00  7.59869910E+00 -1.51973982E+01  7.59869910E+00
  7.59869910E+00 -1.51973982E+01  7.59869910E+00  7.59869910E+00 -1.51973982E+01
  7.59869910E+00  7.59869910E+00 -1.51973982E+01  7.59869910E+00  7.59869910E+00
 -1.51973982E+01  7.59869910E+00  7.59869910E+00 -1.51973982E+01  7.59869910E+00
  7.59869910E+00 -1.51973982E+01  7.59869910E+00  7.59869910E+00 -1.51973982E+01
  7.59869910E+00  7.59869910E+00 -1.51973982E+01  7.59869910E+00  7.59869910E+00
 -1.51973982E+01  7.59869910E+00  7.59869910E+00 -1.51973982E+01  7.59869910E+00
  7.59869910E+00 -1.51973982E+01  7.59869910E+00  7.59869910E+00 -1.51973982E+01
  7.59869910E+00  7.59869910E+00 -1.51973982E+01  7.59869910E+00  7.59869910E+00
 -1.51973982E+01  7.59869910E+00  7.59869910E+00 -1.51973982E+01  7.59869910E+00
  7.59869910E+00 -1.51973982E+01  7.59869910E+00  7.59869910E+00 -1.51973982E+01
  7.59869910E+00  7.59869910E+00 -1.51973982E+01  7.59869910E+00  7.59869910E+00
 -1.51973982E+01  7.59869910E+00  7.59869910E+00 -1.51973982E+01  7.59869910E+00
  7.59869910E+00 -1.51973982E+01  7.59869910E+00  7.59869910E+00 -1.51973982E+01
  7.59869910E+00  7.59869910E+00 -1.51973982E+01  7.59869910E+00  7.59869910E+00
 -1.51973982E+01  7.59869910E+00  7.59869910E+00 -1.51973982E+01  7.59869910E+00
  7.59869910E+00 -1.51973982E+01  7.59869910E+00  7.59869910E+00 -1.51973982E+01
  7.59869910E+00  7.59869910E+00 -1.51973982E+01  7.59869910E+00  7.59869910E+00
 -1.51973982E+01  7.59869910E+00  7.59869910E+00 -1.51973982E+01  7.59869910E+00
  7.59869910E+00 -1.51973982E+01  7.59869910E+00  7.59869910E+00 -1.51973982E+01
  7.59869910E+00  7.59869910E+00 -1.51973982E+01  7.59869910E+00  7.59869910E+00
 -1.51973982E+01  7.59869910E+00  7.59869910E+00 -1.51973982E+01  7.59869910E+00
  7.59869910E+00 -1.51973982E+01  7.59869910E+00  7.59869910E+00 -1.51973982E+01
  7.59869910E+00  7.59869910E+00 -1.51973982E+01  7.59869910E+00  7.59869910E+00
 -1.51973982E+01  7.59869910E+00  7.59869910E+00 -1.51973982E+01  7.59869910E+00
  7.59869910E+00 -1.51973982E+01  7.59869910E+00  7.59869910E+00 -1.51973982E+01
  7.59869910E+00  7.59869910E+00 -1.51973982E+01  7.59869910E+00  7.59869910E+00
 -1.51973982E+01  7.59869910E+00  7.59869910E+00 -1.51973982E+01  7.59869910E+00
  7.59869910E+00 -1.51973982E+01  7.59869910E+00  7.59869910E+00 -1.51973982E+01
  7.59869910E+00  7.59869910E+00 -1.51973982E+01  7.59869910E+00  7.59869910E+00
 -1.51973982E+01  7.59869910E+00  7.59869910E+00 -1.51973982E+01  7.59869910E+00
  7.59869910E+00 -1.51973982E+01  7.59869910E+00  7.59869910E+00 -1.51973982E+01
  7.59869910E+00  7.59869910E+00 -1.51973982E+01  7.59869910E+00  7.59869910E+00
 -1.51973982E+01  7.59869910E+00  7.59869910E+00 -1.51973982E+01  7.59869910E+00
  7.59869910E+00 -1.51973982E+01  7.59869910E+00  7.59869910E+00 -1.51973982E+01
  7.59869910E+00  7.59869910E+00 -1.51973982E+01  7.59869910E+00  7.59869910E+00
 -1.51973982E+01  7.59869910E+00  7.59869910E+00 -1.51973982E+01  7.59869910E+00
  7.59869910E+00 -1.51973982E+01  7.59869910E+00  7.59869910E+00 -1.51973982E+01
  7.59869910E+00  7.59869910E+00 -1.51973982E+01  7.59869910E+00  7.59869910E+00
 -1.51973982E+01  7.59869910E+00  7.59869910E+00 -1.51973982E+01  7.59869910E+00
  7.59869910E+00 -1.51973982E+01  7.59869910E+00  7.59869910E+00 -1.51973982E+01
  7.59869910E+00  7.59869910E+00 -1.51973982E+01  7.59869910E+00  7.59869910E+00
 -1.51973982E+01  7.59869910E+00  7.59869910E+00 -1.51973982E+01  7.59869910E+00
  7.59869910E+00 -1.51973982E+01  7.59869910E+00  7.59869910E+00 -1.51973982E+01
  7.59869910E+00  7.59869910E+00 -1.51973982E+01  7.59869910E+00  7.59869910E+00
 -1.51973982E+01  7.59869910E+00  7.59869910E+00 -1.51973982E+01  7.59869910E+00
  7.59869910E+00 -1.51973982E+01  7.59869910E+00  7.59869910E+00 -1.51973982E+01
  7.59869910E+00  7.59869910E+00 -1.51973982E+01  7.59869910E+00  7.59869910E+00
 -1.51973982E+01  7.59869910E+00  7.59869910E+00 -1.51973982E+01  7.59869910E+00
  7.59869910E+00 -1.51973982E+01  7.59869910E+00  7.59869910E+00 -1.51973982E+01
  7.59869910E+00  7.59869910E+00 -1.51973982E+01  7.59869910E+00  7.59869910E+00
 -1.51973982E+01  7.59869910E+00  7.59869910E+00 -1.51973982E+01  7.59869910E+00
  7.59869910E+00 -1.51973982E+01  7.59869910E+00  7.59869910E+00 -1.51973982E+01
  7.59869910E+00  7.59869910E+00 -1.51973982E+01  7.59869910E+00  7.59869910E+00
 -1.51973982E+01  7.59869910E+00  7.59869910E+00 -1.51973982E+01  7.59869910E+00
  7.59869910E+00 -1.51973982E+01  7.59869910E+00  7.59869910E+00 -1.51973982E+01
  7.59869910E+00  7.59869910E+00 -1.51973982E+01  7.59869910E+00  7.59869910E+00
 -1.51973982E+01  7.59869910E+00  7.59869910E+00 -1.51973982E+01  7.59869910E+00
  7.59869910E+00 -1.51973982E+01  7.59869910E+00  7.59869910E+00 -1.51973982E+01
  7.59869910E+00  7.59869910E+00 -1.51973982E+01  7.59869910E+00  7.59869910E+00
 -1.51973982E+01  7.59869910E+00  7.59869910E+00 -1.51973982E+01  7.59869910E+00
  7.59869910E+00 -1.51973982E+01  7.59869910E+00  7.59869910E+00 -1.51973982E+01
  7.59869910E+00  7.59869910E+00 -1.51973982E+01  7.59869910E+00  7.59869910E+00
 -1.51973982E+01  7.59869910E+00  7.59869910E+00 -1.51973982E+01  7.59869910E+00
  7.59869910E+00 -1.51973982E+01  7.59869910E+00  7.59869910E+00 -1.51973982E+01
  7.59869910E+00  7.59869910E+00 -1.51973982E+01  7.59869910E+00  7.59869910E+00
 -1.51973982E+01  7.59869910E+00  7.59869910E+00 -1.51973982E+01  7.59869910E+00
  7.59869910E+00 -1.51973982E+01  7.59869910E+00  7.59869910E+00 -1.51973982E+01
  7.59869910E+00  7.59869910E+00 -1.51973982E+01  7.59869910E+00  7.59869910E+00
 -1.51973982E+01  7.59869910E+00  7.59869910E+00 -1.51973982E+01  7.59869910E+00
  7.59869910E+00 -1.51973982E+01  7.59869910E+00  7.59869910E+00 -1.51973982E+01
  7.59869910E+00  7.59869910E+00 -1.51973982E+01  7.59869910E+00  7.59869910E+00
 -1.51973982E+01  7.59869910E+00  7.59869910E+00 -1.51973982E+01  7.59869910E+00
  7.59869910E+00 -1.51973982E+01  7.59869910E+00  7.59869910E+00 -1.51973982E+01
  7.59869910E+00  7.59869910E+00 -1.51973982E+01  7.59869910E+00  7.59869910E+00
 -1.51973982E+01  7.59869910E+00  7.59869910E+00 -1.51973982E+01  7.59869910E+00
  7.59869910E+00 -1.51973982E+01  7.59869910E+00  7.59869910E+00 -1.51973982E+01
  7.59869910E+00  7.59869910E+00 -1.51973982E+01  7.59869910E+00  7.59869910E+00
 -1.51973982E+01  7.59869910E+00  7.59869910E+00 -1.51973982E+01  7.59869910E+00
  7.59869910E+00 -1.51973982E+01  7.59869910E+00  7.59869910E+00 -1.51973982E+01
  7.59869910E+00  7.59869910E+00 -1.51973982E+01  7.59869910E+00  7.59869910E+00
 -1.51973982E+01  7.59869910E+00  7.59869910E+00 -1.51973982E+01  7.59869910E+00
  7.59869910E+00 -1.51973982E+01  7.59869910E+00  7.59869910E+00 -1.51973982E+01
  7.59869910E+00  7.59869910E+00 -1.51973982E+01  7.59869910E+00  7.59869910E+00
 -1.51973982E+01  7.59869910E+00  7.59869910E+00 -1.51973982E+01  7.59869910E+00
  7.59869910E+00 -1.51973982E+01  7.59869910E+00  7.59869910E+00 -1.51973982E+01
  7.59869910E+00  7.59869910E+00 -1.51973982E+01  7.59869910E+00  7.59869910E+00
 -1.51973982E+01  7.59869910E+00  7.59869910E+00 -1.51973982E+01  7.59869910E+00
  7.59869910E+00 -1.51973982E+01  7.59869910E+00  7.59869910E+00 -1.51973982E+01
  7.59869910E+00  7.59869910E+00 -1.51973982E+01  7.59869910E+00  7.59869910E+00
 -1.51973982E+01  7.59869910E+00  7.59869910E+00 -1.51973982E+01  7.59869910E+00
  7.59869910E+00 -1.51973982E+01  7.59869910E+00  7.59869910E+00 -1.51973982E+01
  7.59869910E+00  7.59869910E+00 -1.51973982E+01  7.59869910E+00  7.59869910E+00
 -1.51973982E+01  7.59869910E+00  7.59869910E+00 -1.51973982E+01  7.59869910E+00
  7.59869910E+00 -1.51973982E+01  7.59869910E+00  7.59869910E+00 -1.51973982E+01
  7.59869910E+00  7.59869910E+00 -1.51973982E+01  7.59869910E+00  7.59869910E+00
 -1.51973982E+01  7.59869910E+00  7.59869910E+00 -1.51973982E+01  7.59869910E+00
  7.59869910E+00 -1.51973982E+01  7.59869910E+00  7.59869910E+00 -1.51973982E+01
  7.59869910E+00  7.59869910E+00 -1.51973982E+01  7.59869910E+00  7.59869910E+00
 -1.51973982E+01  7.59869910E+00  7.59869910E+00 -1.51973982E+01  7.59869910E+00
  7.59869910E+00 -1.51973982E+01  7.59869910E+00  7.59869910E+00 -1.51973982E+01
  7.59869910E+00  7.59869910E+00 -1.51973982E+01  7.59869910E+00  7.59869910E+00
 -1.51973982E+01  7.59869910E+00  7.59869910E+00 -1.51973982E+01  7.59869910E+00
  7.59869910E+00 -1.51973982E+01  7.59869910E+00  7.59869910E+00 -1.51973982E+01
  7.59869910E+00  7.59869910E+00 -1.51973982E+01  7.59869910E+00  7.59869910E+00
 -1.51973982E+01  7.59869910E+00  7.59869910E+00 -1.51973982E+01  7.59869910E+00
  7.59869910E+00 -1.51973982E+01  7.59869910E+00  7.59869910E+00 -1.51973982E+01
  7.59869910E+00  7.59869910E+00 -1.51973982E+01  7.59869910E+00  7.59869910E+00
 -1.51973982E+01  7.59869910E+00  7.59869910E+00 -1.51973982E+01  7.59869910E+00
  7.59869910E+00 -1.51973982E+01  7.59869910E+00  7.59869910E+00 -1.51973982E+01
  7.59869910E+00  7.59869910E+00 -1.51973982E+01  7.59869910E+00  7.59869910E+00
 -1.51973982E+01  7.59869910E+00  7.59869910E+00 -1.51973982E+01  7.59869910E+00
  7.59869910E+00 -1.51973982E+01  7.59869910E+00  7.59869910E+00 -1.51973982E+01
  7.59869910E+00  7.59869910E+00 -1.51973982E+01  7.59869910E+00  7.59869910E+00
 -1.51973982E+01  7.59869910E+00  7.59869910E+00 -1.51973982E+01  7.59869910E+00
  7.59869910E+00 -1.51973982E+01  7.59869910E+00  7.59869910E+00 -1.51973982E+01
  7.59869910E+00  7.59869910E+00 -1.51973982E+01  7.59869910E+00  7.59869910E+00
 -1.51973982E+01  7.59869910E+00  7.59869910E+00 -1.51973982E+01  7.59869910E+00
  7.59869910E+00 -1.51973982E+01  7.59869910E+00  7.59869910E+00 -1.51973982E+01
  7.59869910E+00  7.59869910E+00 -1.51973982E+01  7.59869910E+00  7.59869910E+00
 -1.51973982E+01  7.59869910E+00  7.59869910E+00 -1.51973982E+01  7.59869910E+00
  7.59869910E+00 -1.51973982E+01  7.59869910E+00  7.59869910E+00 -1.51973982E+01
  7.59869910E+00  7.59869910E+00 -1.51973982E+01  7.59869910E+00  7.59869910E+00
 -1.51973982E+01  7.59869910E+00  7.59869910E+00 -1.51973982E+01  7.59869910E+00
  7.59869910E+00 -1.51973982E+01  7.59869910E+00  7.59869910E+00 -1.51973982E+01
  7.59869910E+00  7.59869910E+00 -1.51973982E+01  7.59869910E+00  7.59869910E+00
 -1.51973982E+01  7.59869910E+00  7.59869910E+00 -1.51973982E+01  7.59869910E+00
  7.59869910E+00 -1.51973982E+01  7.59869910E+00  7.59869910E+00 -1.51973982E+01
  7.59869910E+00  7.59869910E+00 -1.51973982E+01  7.59869910E+00  7.59869910E+00
 -1.51973982E+01  7.59869910E+00  7.59869910E+00 -1.51973982E+01  7.59869910E+00
  7.59869910E+00 -1.51973982E+01  7.59869910E+00  7.59869910E+00 -1.51973982E+01
  7.59869910E+00  7.59869910E+00 -1.51973982E+01  7.59869910E+00  7.59869910E+00
 -1.51973982E+01  7.59869910E+00  7.59869910E+00 -1.51973982E+01  7.59869910E+00
  7.59869910E+00 -1.51973982E+01  7.59869910E+00  7.59869910E+00 -1.51973982E+01
  7.59869910E+00  7.59869910E+00 -1.51973982E+01  7.59869910E+00  7.59869910E+00
 -1.51973982E+01  7.59869910E+00  7.59869910E+00 -1.51973982E+01  7.59869910E+00
  7.59869910E+00 -1.51973982E+01  7.59869910E+00  7.59869910E+00 -1.51973982E+01
  7.59869910E+00  7.59869910E+00 -1.51973982E+01  7.59869910E+00  7.59869910E+00
 -1.51973982E+01  7.59869910E+00  7.59869910E+00 -1.51973982E+01  7.59869910E+00
  7.59869910E+00 -1.51973982E+01  7.59869910E+00  7.59869910E+00 -1.51973982E+01
  7.59869910E+00  7.59869910E+00 -1.51973982E+01  7.59869910E+00  7.59869910E+00
 -1.51973982E+01  7.59869910E+00  7.59869910E+00 -1.51973982E+01  7.59869910E+00
  7.59869910E+00 -1.51973982E+01  7.59869910E+00  7.59869910E+00 -1.51973982E+01
  7.59869910E+00  7.59869910E+00 -1.51973982E+01  7.59869910E+00  7.59869910E+00
 -1.51973982E+01  7.59869910E+00  7.59869910E+00 -1.51973982E+01  7.59869910E+00
  7.59869910E+00 -1.51973982E+01  7.59869910E+00  7.59869910E+00 -1.51973982E+01
  7.59869910E+00  7.59869910E+00 -1.51973982E+01  7.59869910E+00  7.59869910E+00
 -1.51973982E+01  7.59869910E+00  7.59869910E+00 -1.51973982E+01  7.59869910E+00
  7.59869910E+00 -1.51973982E+01  7.59869910E+00  7.59869910E+00 -1.51973982E+01
  7.59869910E+00  7.59869910E+00 -1.51973982E+01  7.59869910E+00  7.59869910E+00
 -1.51973982E+01  7.59869910E+00  7.59869910E+00 -1.51973982E+01  7.59869910E+00
  7.59869910E+00 -1.51973982E+01  7.59869910E+00  7.59869910E+00 -1.51973982E+01
  7.59869910E+00  7.59869910E+00 -1.51973982E+01  7.59869910E+00  7.59869910E+00
 -1.51973982E+01  7.59869910E+00  7.59869910E+00 -1.51973982E+01  7.59869910E+00
  7.59869910E+00 -1.51973982E+01  7.59869910E+00  7.59869910E+00 -1.51973982E+01
  7.59869910E+00  7.59869910E+00 -1.51973982E+01  7.59869910E+00  7.59869910E+00
 -1.51973982E+01  7.59869910E+00  7.59869910E+00 -1.51973982E+01  7.59869910E+00
  7.59869910E+00 -1.51973982E+01  7.59869910E+00  7.59869910E+00 -1.51973982E+01
  7.59869910E+00  7.59869910E+00 -1.51973982E+01  7.59869910E+00  7.59869910E+00
 -1.51973982E+01  7.59869910E+00  7.59869910E+00 -1.51973982E+01  7.59869910E+00
  7.59869910E+00 -1.51973982E+01  7.59869910E+00  7.59869910E+00 -1.51973982E+01
  7.59869910E+00  7.59869910E+00 -1.51973982E+01  7.59869910E+00  7.59869910E+00
 -1.51973982E+01  7.59869910E+00  7.59869910E+00 -1.51973982E+01  7.59869910E+00
  7.59869910E+00 -1.51973982E+01  7.59869910E+00  7.59869910E+00 -1.51973982E+01
  7.59869910E+00  7.59869910E+00 -1.51973982E+01  7.59869910E+00  7.59869910E+00
 -1.51973982E+01  7.59869910E+00  7.59869910E+00 -1.51973982E+01  7.59869910E+00
  7.59869910E+00 -1.51973982E+01  7.59869910E+00  7.59869910E+00 -1.51973982E+01
  7.59869910E+00  7.59869910E+00 -1.51973982E+01  7.59869910E+00  7.59869910E+00
 -1.51973982E+01  7.59869910E+00  7.59869910E+00 -1.51973982E+01  7.59869910E+00
  7.59869910E+00 -1.51973982E+01  7.59869910E+00  7.59869910E+00 -1.51973982E+01
  7.59869910E+00  7.59869910E+00 -1.51973982E+01  7.59869910E+00  7.59869910E+00
 -1.51973982E+01  7.59869910E+00  7.59869910E+00 -1.51973982E+01  7.59869910E+00
  7.59869910E+00 -1.51973982E+01  7.59869910E+00  7.59869910E+00 -1.51973982E+01
  7.59869910E+00  7.59869910E+00 -1.51973982E+01  7.59869910E+00  7.59869910E+00
 -1.51973982E+01  7.59869910E+00  7.59869910E+00 -1.51973982E+01  7.59869910E+00
  7.59869910E+00 -1.51973982E+01  7.59869910E+00  7.59869910E+00 -1.51973982E+01
  7.59869910E+00  7.59869910E+00 -1.51973982E+01  7.59869910E+00  7.59869910E+00
 -1.51973982E+01  7.59869910E+00  7.59869910E+00 -1.51973982E+01  7.59869910E+00
  7.59869910E+00 -1.51973982E+01  7.59869910E+00  7.59869910E+00 -1.51973982E+01
  7.59869910E+00  7.59869910E+00 -1.51973982E+01  7.59869910E+00  7.59869910E+00
 -1.51973982E+01  7.59869910E+00  7.59869910E+00 -1.51973982E+01  7.59869910E+00
  7.59869910E+00 -1.51973982E+01  7.59869910E+00  7.59869910E+00 -1.51973982E+01
  7.59869910E+00  7.59869910E+00 -1.51973982E+01  7.59869910E+00  7.59869910E+00
 -1.51973982E+01  7.59869910E+00  7.59869910E+00 -1.51973982E+01  7.59869910E+00
  7.59869910E+00 -1.51973982E+01  7.59869910E+00  7.59869910E+00 -1.51973982E+01
  7.59869910E+00  7.59869910E+00 -1.51973982E+01  7.59869910E+00  7.59869910E+00
 -1.51973982E+01  7.59869910E+00  7.59869910E+00 -1.51973982E+01  7.59869910E+00
  7.59869910E+00 -1.51973982E+01  7.59869910E+00  7.59869910E+00 -1.51973982E+01
  7.59869910E+00  7.59869910E+00 -1.51973982E+01  7.59869910E+00  7.59869910E+00
 -1.51973982E+01  7.59869910E+00  7.59869910E+00 -1.51973982E+01  7.59869910E+00
  7.59869910E+00 -1.51973982E+01  7.59869910E+00  7.59869910E+00 -1.51973982E+01
  7.59869910E+00  7.59869910E+00 -1.51973982E+01  7.59869910E+00  7.59869910E+00
 -1.51973982E+01  7.59869910E+00  7.59869910E+00 -1.51973982E+01  7.59869910E+00
  7.59869910E+00 -1.51973982E+01  7.59869910E+00  7.59869910E+00 -1.51973982E+01
  7.59869910E+00  7.59869910E+00 -1.51973982E+01  7.59869910E+00  7.59869910E+00
 -1.51973982E+01  7.59869910E+00  7.59869910E+00 -1.51973982E+01  7.59869910E+00
  7.59869910E+00 -1.51973982E+01  7.59869910E+00  7.59869910E+00 -1.51973982E+01
  7.59869910E+00  7.59869910E+00 -1.51973982E+01  7.59869910E+00  7.59869910E+00
 -1.51973982E+01  7.59869910E+00  7.59869910E+00 -1.51973982E+01  7.59869910E+00
  7.59869910E+00 -1.51973982E+01  7.59869910E+00  7.59869910E+00 -1.51973982E+01
  7.59869910E+00  7.59869910E+00 -1.51973982E+01  7.59869910E+00  7.59869910E+00
 -1.51973982E+01  7.59869910E+00  7.59869910E+00 -1.51973982E+01  7.59869910E+00
  7.59869910E+00 -1.51973982E+01  7.59869910E+00  7.59869910E+00 -1.51973982E+01
  7.59869910E+00  7.59869910E+00 -1.51973982E+01  7.59869910E+00  7.59869910E+00
 -1.51973982E+01  7.59869910E+00  7.59869910E+00 -1.51973982E+01  7.59869910E+00
  7.59869910E+00 -1.51973982E+01  7.59869910E+00  7.59869910E+00 -1.51973982E+01
  7.59869910E+00  7.59869910E+00 -1.51973982E+01  7.59869910E+00  7.59869910E+00
 -1.51973982E+01  7.59869910E+00  7.59869910E+00 -1.51973982E+01  7.59869910E+00
  7.59869910E+00 -1.51973982E+01  7.59869910E+00  7.59869910E+00 -1.51973982E+01
  7.59869910E+00  7.59869910E+00 -1.51973982E+01  7.59869910E+00  7.59869910E+00
 -1.51973982E+01  7.59869910E+00  7.59869910E+00 -1.51973982E+01  7.59869910E+00
  7.59869910E+00 -1.51973982E+01  7.59869910E+00  7.59869910E+00 -1.51973982E+01
  7.59869910E+00  7.59869910E+00 -1.51973982E+01  7.59869910E+00  7.59869910E+00
 -1.51973982E+01  7.59869910E+00  7.59869910E+00 -1.51973982E+01  7.59869910E+00
  7.59869910E+00 -1.51973982E+01  7.59869910E+00  7.59869910E+00 -1.51973982E+01
  7.59869910E+00  7.59869910E+00 -1.51973982E+01  7.59869910E+00  7.59869910E+00
 -1.51973982E+01  7.59869910E+00  7.59869910E+00 -1.51973982E+01  7.59869910E+00
  7.59869910E+00 -1.51973982E+01  7.59869910E+00  7.59869910E+00 -1.51973982E+01
  7.59869910E+00  7.59869910E+00 -1.51973982E+01  7.59869910E+00  7.59869910E+00
 -1.51973982E+01  7.59869910E+00  7.59869910E+00 -1.51973982E+01  7.59869910E+00
  7.59869910E+00 -1.51973982E+01  7.59869910E+00  7.59869910E+00 -1.51973982E+01
  7.59869910E+00  7.59869910E+00 -1.51973982E+01  7.59869910E+00  7.59869910E+00
 -1.51973982E+01  7.59869910E+00  7.59869910E+00 -1.51973982E+01  7.59869910E+00
  7.59869910E+00 -1.51973982E+01  7.59869910E+00  7.59869910E+00 -1.51973982E+01
  7.59869910E+00  7.59869910E+00 -1.51973982E+01  7.59869910E+00  7.59869910E+00
 -1.51973982E+01  7.59869910E+00  7.59869910E+00 -1.51973982E+01  7.59869910E+00
  7.59869910E+00 -1.51973982E+01  7.59869910E+00  7.59869910E+00 -1.51973982E+01
  7.59869910E+00  7.59869910E+00 -1.51973982E+01  7.59869910E+00  7.59869910E+00
 -1.51973982E+01  7.59869910E+00  7.59869910E+00 -1.51973982E+01  7.59869910E+00
  7.59869910E+00 -1.51973982E+01  7.59869910E+00  7.59869910E+00 -1.51973982E+01
  7.59869910E+00  7.59869910E+00 -1.51973982E+01  7.59869910E+00  7.59869910E+00
 -1.51973982E+01  7.59869910E+00  7.59869910E+00 -1.51973982E+01  7.59869910E+00
  7.59869910E+00 -1.51973982E+01  7.59869910E+00  7.59869910E+00 -1.51973982E+01
  7.59869910E+00  7.59869910E+00 -1.51973982E+01  7.59869910E+00  7.59869910E+00
 -1.51973982E+01  7.59869910E+00  7.59869910E+00 -1.51973982E+01  7.59869910E+00
  7.59869910E+00 -1.51973982E+01  7.59869910E+00  7.59869910E+00 -1.51973982E+01
  7.59869910E+00  7.59869910E+00 -1.51973982E+01  7.59869910E+00  7.59869910E+00
 -1.51973982E+01  7.59869910E+00  7.59869910E+00 -1.51973982E+01  7.59869910E+00
  7.59869910E+00 -1.51973982E+01  7.59869910E+00  7.59869910E+00 -1.51973982E+01
  7.59869910E+00  7.59869910E+00 -1.51973982E+01  7.59869910E+00  7.59869910E+00
 -1.51973982E+01  7.59869910E+00  7.59869910E+00 -1.51973982E+01  7.59869910E+00
  7.59869910E+00 -1.51973982E+01  7.59869910E+00  7.59869910E+00 -1.51973982E+01
  7.59869910E+00  7.59869910E+00 -1.51973982E+01  7.59869910E+00  7.59869910E+00
 -1.51973982E+01  7.59869910E+00  7.59869910E+00 -1.51973982E+01  7.59869910E+00
  7.59869910E+00 -1.51973982E+01  7.59869910E+00  7.59869910E+00 -1.51973982E+01
  7.59869910E+00  7.59869910E+00 -1.51973982E+01  7.59869910E+00  7.59869910E+00
 -1.51973982E+01  7.59869910E+00  7.59869910E+00 -1.51973982E+01  7.59869910E+00
  7.59869910E+00 -1.51973982E+01  7.59869910E+00  7.59869910E+00 -1.51973982E+01
  7.59869910E+00  7.59869910E+00 -1.51973982E+01  7.59869910E+00  7.59869910E+00
 -1.51973982E+01  7.59869910E+00  7.59869910E+00 -1.51973982E+01  7.59869910E+00
  7.59869910E+00 -1.51973982E+01  7.59869910E+00  7.59869910E+00 -1.51973982E+01
  7.59869910E+00  7.59869910E+00 -1.51973982E+01  7.59869910E+00  7.59869910E+00
 -1.51973982E+01  7.59869910E+00  7.59869910E+00 -1.51973982E+01  7.59869910E+00
  7.59869910E+00 -1.51973982E+01  7.59869910E+00  7.59869910E+00 -1.51973982E+01
  7.59869910E+00  7.59869910E+00 -1.51973982E+01  7.59869910E+00  7.59869910E+00
 -1.51973982E+01  7.59869910E+00  7.59869910E+00 -1.51973982E+01  7.59869910E+00
  7.59869910E+00 -1.51973982E+01  7.59869910E+00  7.59869910E+00 -1.51973982E+01
  7.59869910E+00  7.59869910E+00 -1.51973982E+01  7.59869910E+00  7.59869910E+00
 -1.51973982E+01  7.59869910E+00  7.59869910E+00 -1.51973982E+01  7.59869910E+00
  7.59869910E+00 -1.51973982E+01  7.59869910E+00  7.59869910E+00 -1.51973982E+01
  7.59869910E+00  7.59869910E+00 -1.51973982E+01  7.59869910E+00  7.59869910E+00
 -1.51973982E+01  7.59869910E+00  7.59869910E+00 -1.51973982E+01  7.59869910E+00
  7.59869910E+00 -1.51973982E+01  7.59869910E+00  7.59869910E+00 -1.51973982E+01
  7.59869910E+00  7.59869910E+00 -1.51973982E+01  7.59869910E+00  7.59869910E+00
 -1.51973982E+01  7.59869910E+00  7.59869910E+00 -1.51973982E+01  7.59869910E+00
  7.59869910E+00 -1.51973982E+01  7.59869910E+00  7.59869910E+00 -1.51973982E+01
  7.59869910E+00  7.59869910E+00 -1.51973982E+01  7.59869910E+00  7.59869910E+00
 -1.51973982E+01  7.59869910E+00  7.59869910E+00 -1.51973982E+01  7.59869910E+00
  7.59869910E+00 -1.51973982E+01  7.59869910E+00  7.59869910E+00 -1.51973982E+01
  7.59869910E+00  7.59869910E+00 -1.51973982E+01  7.59869910E+00  7.59869910E+00
 -1.51973982E+01  7.59869910E+00  7.59869910E+00 -1.51973982E+01  7.59869910E+00
  7.59869910E+00 -1.51973982E+01  7.59869910E+00  7.59869910E+00 -1.51973982E+01
  7.59869910E+00  7.59869910E+00 -1.51973982E+01  7.59869910E+00  7.59869910E+00
 -1.51973982E+01  7.59869910E+00  7.59869910E+00 -1.51973982E+01  7.59869910E+00
  7.59869910E+00 -1.51973982E+01  7.59869910E+00  7.59869910E+00 -1.51973982E+01
  7.59869910E+00  7.59869910E+00 -1.51973982E+01  7.59869910E+00  7.59869910E+00
 -1.51973982E+01  7.59869910E+00  7.59869910E+00 -1.51973982E+01  7.59869910E+00
  7.59869910E+00 -1.51973982E+01  7.59869910E+00  7.59869910E+00 -1.51973982E+01
  7.59869910E+00  7.59869910E+00 -1.51973982E+01  7.59869910E+00  7.59869910E+00
 -1.51973982E+01  7.59869910E+00  7.59869910E+00 -1.51973982E+01  7.59869910E+00
  7.59869910E+00 -1.51973982E+01  7.59869910E+00  7.59869910E+00 -1.51973982E+01
  7.59869910E+00  7.59869910E+00 -1.51973982E+01  7.59869910E+00  7.59869910E+00
 -1.51973982E+01  7.59869910E+00  7.59869910E+00 -1.51973982E+01  7.59869910E+00
  7.59869910E+00 -1.51973982E+01  7.59869910E+00  7.59869910E+00 -1.51973982E+01
  7.59869910E+00  7.59869910E+00 -1.51973982E+01  7.59869910E+00  7.59869910E+00
 -1.51973982E+01  7.59869910E+00  7.59869910E+00 -1.51973982E+01  7.59869910E+00
  7.59869910E+00 -1.51973982E+01  7.59869910E+00  7.59869910E+00 -1.51973982E+01
  7.59869910E+00  7.59869910E+00 -1.51973982E+01  7.59869910E+00  7.59869910E+00
 -1.51973982E+01  7.59869910E+00  7.59869910E+00 -1.51973982E+01  7.59869910E+00
  7.59869910E+00 -1.51973982E+01  7.59869910E+00  7.59869910E+00 -1.51973982E+01
  7.59869910E+00  7.59869910E+00 -1.51973982E+01  7.59869910E+00  7.59869910E+00
 -1.51973982E+01  7.59869910E+00  7.59869910E+00 -1.51973982E+01  7.59869910E+00
  7.59869910E+00 -1.51973982E+01  7.59869910E+00  7.59869910E+00 -1.51973982E+01
  7.59869910E+00  7.59869910E+00 -1.51973982E+01  7.59869910E+00  7.59869910E+00
 -1.51973982E+01  7.59869910E+00  7.59869910E+00 -1.51973982E+01  7.59869910E+00
  7.59869910E+00 -1.51973982E+01  7.59869910E+00  7.59869910E+00 -1.51973982E+01
  7.59869910E+00  7.59869910E+00 -1.51973982E+01  7.59869910E+00  7.59869910E+00
 -1.51973982E+01  7.59869910E+00  7.59869910E+00 -1.51973982E+01  7.59869910E+00
  7.59869910E+00 -1.51973982E+01  7.59869910E+00  7.59869910E+00 -1.51973982E+01
  7.59869910E+00  7.59869910E+00 -1.51973982E+01  7.59869910E+00  7.59869910E+00
 -1.51973982E+01  7.59869910E+00  7.59869910E+00 -1.51973982E+01  7.59869910E+00
  7.59869910E+00 -1.51973982E+01  7.59869910E+00  7.59869910E+00 -1.51973982E+01
  7.59869910E+00  7.59869910E+00 -1.51973982E+01  7.59869910E+00  7.59869910E+00
 -1.51973982E+01  7.59869910E+00  7.59869910E+00 -1.51973982E+01  7.59869910E+00
  7.59869910E+00 -1.51973982E+01  7.59869910E+00  7.59869910E+00 -1.51973982E+01
  7.59869910E+00  7.59869910E+00 -1.51973982E+01  7.59869910E+00  7.59869910E+00
 -1.51973982E+01  7.59869910E+00  7.59869910E+00 -1.51973982E+01  7.59869910E+00
  7.59869910E+00 -1.51973982E+01  7.59869910E+00  7.59869910E+00 -1.51973982E+01
  7.59869910E+00  7.59869910E+00 -1.51973982E+01  7.59869910E+00  7.59869910E+00
 -1.51973982E+01  7.59869910E+00  7.59869910E+00 -1.51973982E+01  7.59869910E+00
  7.59869910E+00 -1.51973982E+01  7.59869910E+00  7.59869910E+00 -1.51973982E+01
  7.59869910E+00  7.59869910E+00 -1.51973982E+01  7.59869910E+00  7.59869910E+00
 -1.51973982E+01  7.59869910E+00  7.59869910E+00 -1.51973982E+01  7.59869910E+00
  7.59869910E+00 -1.51973982E+01  7.59869910E+00  7.59869910E+00 -1.51973982E+01
  7.59869910E+00  7.59869910E+00 -1.51973982E+01  7.59869910E+00  7.59869910E+00
 -1.51973982E+01  7.59869910E+00  7.59869910E+00 -1.51973982E+01  7.59869910E+00
  7.59869910E+00 -1.51973982E+01  7.59869910E+00  7.59869910E+00 -1.51973982E+01
  7.59869910E+00  7.59869910E+00 -1.51973982E+01  7.59869910E+00  7.59869910E+00
 -1.51973982E+01  7.59869910E+00  7.59869910E+00 -1.51973982E+01  7.59869910E+00
  7.59869910E+00 -1.51973982E+01  7.59869910E+00  7.59869910E+00 -1.51973982E+01
  7.59869910E+00  7.59869910E+00 -1.51973982E+01  7.59869910E+00  7.59869910E+00
 -1.51973982E+01  7.59869910E+00  7.59869910E+00 -1.51973982E+01  7.59869910E+00
  7.59869910E+00 -1.51973982E+01  7.59869910E+00  7.59869910E+00 -1.51973982E+01
  7.59869910E+00  7.59869910E+00 -1.51973982E+01  7.59869910E+00  7.59869910E+00
 -1.51973982E+01  7.59869910E+00  7.59869910E+00 -1.51973982E+01  7.59869910E+00
  7.59869910E+00 -1.51973982E+01  7.59869910E+00  7.59869910E+00 -1.51973982E+01
  7.59869910E+00  7.59869910E+00 -1.51973982E+01  7.59869910E+00  7.59869910E+00
 -1.51973982E+01  7.59869910E+00  7.59869910E+00 -1.51973982E+01  7.59869910E+00
  7.59869910E+00 -1.51973982E+01  7.59869910E+00  7.59869910E+00 -1.51973982E+01
  7.59869910E+00  7.59869910E+00 -1.51973982E+01  7.59869910E+00  7.59869910E+00
 -1.51973982E+01  7.59869910E+00  7.59869910E+00 -1.51973982E+01  7.59869910E+00
  7.59869910E+00 -1.51973982E+01  7.59869910E+00  7.59869910E+00 -1.51973982E+01
  7.59869910E+00  7.59869910E+00 -1.51973982E+01  7.59869910E+00  7.59869910E+00
 -1.51973982E+01  7.59869910E+00  7.59869910E+00 -1.51973982E+01  7.59869910E+00
  7.59869910E+00 -1.51973982E+01  7.59869910E+00  7.59869910E+00 -1.51973982E+01
  7.59869910E+00  7.59869910E+00 -1.51973982E+01  7.59869910E+00  7.59869910E+00
 -1.51973982E+01  7.59869910E+00  7.59869910E+00 -1.51973982E+01  7.59869910E+00
  7.59869910E+00 -1.51973982E+01  7.59869910E+00  7.59869910E+00 -1.51973982E+01
  7.59869910E+00  7.59869910E+00 -1.51973982E+01  7.59869910E+00  7.59869910E+00
 -1.51973982E+01  7.59869910E+00  7.59869910E+00 -1.51973982E+01  7.59869910E+00
  7.59869910E+00 -1.51973982E+01  7.59869910E+00  7.59869910E+00 -1.51973982E+01
  7.59869910E+00  7.59869910E+00 -1.51973982E+01  7.59869910E+00  7.59869910E+00
 -1.51973982E+01  7.59869910E+00  7.59869910E+00 -1.51973982E+01  7.59869910E+00
  7.59869910E+00 -1.51973982E+01  7.59869910E+00  7.59869910E+00 -1.51973982E+01
  7.59869910E+00  7.59869910E+00 -1.51973982E+01  7.59869910E+00  7.59869910E+00
 -1.51973982E+01  7.59869910E+00  7.59869910E+00 -1.51973982E+01  7.59869910E+00
  7.59869910E+00 -1.51973982E+01  7.59869910E+00  7.59869910E+00 -1.51973982E+01
  7.59869910E+00  7.59869910E+00 -1.51973982E+01  7.59869910E+00  7.59869910E+00
 -1.51973982E+01  7.59869910E+00  7.59869910E+00 -1.51973982E+01  7.59869910E+00
  7.59869910E+00 -1.51973982E+01  7.59869910E+00  7.59869910E+00 -1.51973982E+01
  7.59869910E+00  7.59869910E+00 -1.51973982E+01  7.59869910E+00  7.59869910E+00
 -1.51973982E+01  7.59869910E+00  7.59869910E+00 -1.51973982E+01  7.59869910E+00
  7.59869910E+00 -1.51973982E+01  7.59869910E+00  7.59869910E+00 -1.51973982E+01
  7.59869910E+00  7.59869910E+00 -1.51973982E+01  7.59869910E+00  7.59869910E+00
 -1.51973982E+01  7.59869910E+00  7.59869910E+00 -1.51973982E+01  7.59869910E+00
  7.59869910E+00 -1.51973982E+01  7.59869910E+00  7.59869910E+00 -1.51973982E+01
  7.59869910E+00  7.59869910E+00 -1.51973982E+01  7.59869910E+00  7.59869910E+00
 -1.51973982E+01  7.59869910E+00  7.59869910E+00 -1.51973982E+01  7.59869910E+00
  7.59869910E+00 -1.51973982E+01  7.59869910E+00  7.59869910E+00 -1.51973982E+01
  7.59869910E+00  7.59869910E+00 -1.51973982E+01  7.59869910E+00  7.59869910E+00
 -1.51973982E+01  7.59869910E+00  7.59869910E+00 -1.51973982E+01  7.59869910E+00
  7.59869910E+00 -1.51973982E+01  7.59869910E+00  7.59869910E+00 -1.51973982E+01
  7.59869910E+00  7.59869910E+00 -1.51973982E+01  7.59869910E+00  7.59869910E+00
 -1.51973982E+01  7.59869910E+00  7.59869910E+00 -1.51973982E+01  7.59869910E+00
  7.59869910E+00 -1.51973982E+01  7.59869910E+00  7.59869910E+00 -1.51973982E+01
  7.59869910E+00  7.59869910E+00 -1.51973982E+01  7.59869910E+00  7.59869910E+00
 -1.51973982E+01  7.59869910E+00  7.59869910E+00 -1.51973982E+01  7.59869910E+00
  7.59869910E+00 -1.51973982E+01  7.59869910E+00  7.59869910E+00 -1.51973982E+01
  7.59869910E+00  7.59869910E+00 -1.51973982E+01  7.59869910E+00  7.59869910E+00
 -1.51973982E+01  7.59869910E+00  7.59869910E+00 -1.51973982E+01  7.59869910E+00
  7.59869910E+00 -1.51973982E+01  7.59869910E+00  7.59869910E+00 -1.51973982E+01
  7.59869910E+00  7.59869910E+00 -1.51973982E+01  7.59869910E+00  7.59869910E+00
 -1.51973982E+01  7.59869910E+00  7.59869910E+00 -1.51973982E+01  7.59869910E+00
  7.59869910E+00 -1.51973982E+01  7.59869910E+00  7.59869910E+00 -1.51973982E+01
  7.59869910E+00  7.59869910E+00 -1.51973982E+01  7.59869910E+00  7.59869910E+00
 -1.51973982E+01  7.59869910E+00  7.59869910E+00 -1.51973982E+01  7.59869910E+00
  7.59869910E+00 -1.51973982E+01  7.59869910E+00  7.59869910E+00 -1.51973982E+01
  7.59869910E+00  7.59869910E+00 -1.51973982E+01  7.59869910E+00  7.59869910E+00
 -1.51973982E+01  7.59869910E+00  7.59869910E+00 -1.51973982E+01  7.59869910E+00
  7.59869910E+00 -1.51973982E+01  7.59869910E+00  7.59869910E+00 -1.51973982E+01
  7.59869910E+00  7.59869910E+00 -1.51973982E+01  7.59869910E+00  7.59869910E+00
 -1.51973982E+01  7.59869910E+00  7.59869910E+00 -1.51973982E+01  7.59869910E+00
  7.59869910E+00 -1.51973982E+01  7.59869910E+00  7.59869910E+00 -1.51973982E+01
  7.59869910E+00  7.59869910E+00 -1.51973982E+01  7.59869910E+00  7.59869910E+00
 -1.51973982E+01  7.59869910E+00  7.59869910E+00 -1.51973982E+01  7.59869910E+00
  7.59869910E+00 -1.51973982E+01  7.59869910E+00  7.59869910E+00 -1.51973982E+01
  7.59869910E+00  7.59869910E+00 -1.51973982E+01  7.59869910E+00  7.59869910E+00
 -1.51973982E+01  7.59869910E+00  7.59869910E+00 -1.51973982E+01  7.59869910E+00
  7.59869910E+00 -1.51973982E+01  7.59869910E+00  7.59869910E+00 -1.51973982E+01
  7.59869910E+00  7.59869910E+00 -1.51973982E+01  7.59869910E+00  7.59869910E+00
 -1.51973982E+01  7.59869910E+00  7.59869910E+00 -1.51973982E+01  7.59869910E+00
  7.59869910E+00 -1.51973982E+01  7.59869910E+00  7.59869910E+00 -1.51973982E+01
  7.59869910E+00  7.59869910E+00 -1.51973982E+01  7.59869910E+00  7.59869910E+00
 -1.51973982E+01  7.59869910E+00  7.59869910E+00 -1.51973982E+01  7.59869910E+00
  7.59869910E+00 -1.51973982E+01  7.59869910E+00  7.59869910E+00 -1.51973982E+01
  7.59869910E+00  7.59869910E+00 -1.51973982E+01  7.59869910E+00  7.59869910E+00
 -1.51973982E+01  7.59869910E+00  7.59869910E+00 -1.51973982E+01  7.59869910E+00
  7.59869910E+00 -1.51973982E+01  7.59869910E+00  7.59869910E+00 -1.51973982E+01
  7.59869910E+00  7.59869910E+00 -1.51973982E+01  7.59869910E+00  7.59869910E+00
 -1.51973982E+01  7.59869910E+00  7.59869910E+00 -1.51973982E+01  7.59869910E+00
  7.59869910E+00 -1.51973982E+01  7.59869910E+00  7.59869910E+00 -1.51973982E+01
  7.59869910E+00  7.59869910E+00 -1.51973982E+01  7.59869910E+00  7.59869910E+00
 -1.51973982E+01  7.59869910E+00  7.59869910E+00 -1.51973982E+01  7.59869910E+00
  7.59869910E+00 -1.51973982E+01  7.59869910E+00  7.59869910E+00 -1.51973982E+01
  7.59869910E+00  7.59869910E+00 -1.51973982E+01  7.59869910E+00  7.59869910E+00
 -1.51973982E+01  7.59869910E+00  7.59869910E+00 -1.51973982E+01  7.59869910E+00
  7.59869910E+00 -1.51973982E+01  7.59869910E+00  7.59869910E+00 -1.51973982E+01
  7.59869910E+00  7.59869910E+00 -1.51973982E+01  7.59869910E+00  7.59869910E+00
 -1.51973982E+01  7.59869910E+00  7.59869910E+00 -1.51973982E+01  7.59869910E+00
  7.59869910E+00 -1.51973982E+01  7.59869910E+00  7.59869910E+00 -1.51973982E+01
  7.59869910E+00  7.59869910E+00 -1.51973982E+01  7.59869910E+00  7.59869910E+00
 -1.51973982E+01  7.59869910E+00  7.59869910E+00 -1.51973982E+01  7.59869910E+00
  7.59869910E+00 -1.51973982E+01  7.59869910E+00  7.59869910E+00 -1.51973982E+01
  7.59869910E+00  7.59869910E+00 -1.51973982E+01  7.59869910E+00  7.59869910E+00
 -1.51973982E+01  7.59869910E+00  7.59869910E+00 -1.51973982E+01  7.59869910E+00
  7.59869910E+00 -1.51973982E+01  7.59869910E+00  7.59869910E+00 -1.51973982E+01
  7.59869910E+00  7.59869910E+00 -1.51973982E+01  7.59869910E+00  7.59869910E+00
 -1.51973982E+01  7.59869910E+00  7.59869910E+00 -1.51973982E+01  7.59869910E+00
  7.59869910E+00 -1.51973982E+01  7.59869910E+00  7.59869910E+00 -1.51973982E+01
  7.59869910E+00  7.59869910E+00 -1.51973982E+01  7.59869910E+00  7.59869910E+00
 -1.51973982E+01  7.59869910E+00  7.59869910E+00 -1.51973982E+01  7.59869910E+00
  7.59869910E+00 -1.51973982E+01  7.59869910E+00  7.59869910E+00 -1.51973982E+01
  7.59869910E+00  7.59869910E+00 -1.51973982E+01  7.59869910E+00  7.59869910E+00
 -1.51973982E+01  7.59869910E+00  7.59869910E+00 -1.51973982E+01  7.59869910E+00
  7.59869910E+00 -1.51973982E+01  7.59869910E+00  7.59869910E+00 -1.51973982E+01
  7.59869910E+00  7.59869910E+00 -1.51973982E+01  7.59869910E+00  7.59869910E+00
 -1.51973982E+01  7.59869910E+00  7.59869910E+00 -1.51973982E+01  7.59869910E+00
  7.59869910E+00 -1.51973982E+01  7.59869910E+00  7.59869910E+00 -1.51973982E+01
  7.59869910E+00  7.59869910E+00 -1.51973982E+01  7.59869910E+00  7.59869910E+00
 -1.51973982E+01  7.59869910E+00  7.59869910E+00 -1.51973982E+01  7.59869910E+00
  7.59869910E+00 -1.51973982E+01  7.59869910E+00  7.59869910E+00 -1.51973982E+01
  7.59869910E+00  7.59869910E+00 -1.51973982E+01  7.59869910E+00  7.59869910E+00
 -1.51973982E+01  7.59869910E+00  7.59869910E+00 -1.51973982E+01  7.59869910E+00
  7.59869910E+00 -1.51973982E+01  7.59869910E+00  7.59869910E+00 -1.51973982E+01
  7.59869910E+00  7.59869910E+00 -1.51973982E+01  7.59869910E+00  7.59869910E+00
 -1.51973982E+01  7.59869910E+00  7.59869910E+00 -1.51973982E+01  7.59869910E+00
  7.59869910E+00 -1.51973982E+01  7.59869910E+00  7.59869910E+00 -1.51973982E+01
  7.59869910E+00  7.59869910E+00 -1.51973982E+01  7.59869910E+00  7.59869910E+00
 -1.51973982E+01  7.59869910E+00  7.59869910E+00 -1.51973982E+01  7.59869910E+00
  7.59869910E+00 -1.51973982E+01  7.59869910E+00  7.59869910E+00 -1.51973982E+01
  7.59869910E+00  7.59869910E+00 -1.51973982E+01  7.59869910E+00  7.59869910E+00
 -1.51973982E+01  7.59869910E+00  7.59869910E+00 -1.51973982E+01  7.59869910E+00
  7.59869910E+00 -1.51973982E+01  7.59869910E+00  7.59869910E+00 -1.51973982E+01
  7.59869910E+00  7.59869910E+00 -1.51973982E+01  7.59869910E+00  7.59869910E+00
 -1.51973982E+01  7.59869910E+00  7.59869910E+00 -1.51973982E+01  7.59869910E+00
  7.59869910E+00 -1.51973982E+01  7.59869910E+00  7.59869910E+00 -1.51973982E+01
  7.59869910E+00  7.59869910E+00 -1.51973982E+01  7.59869910E+00  7.59869910E+00
 -1.51973982E+01  7.59869910E+00  7.59869910E+00 -1.51973982E+01  7.59869910E+00
  7.59869910E+00 -1.51973982E+01  7.59869910E+00  7.59869910E+00 -1.51973982E+01
  7.59869910E+00  7.59869910E+00 -1.51973982E+01  7.59869910E+00  7.59869910E+00
 -1.51973982E+01  7.59869910E+00  7.59869910E+00 -1.51973982E+01  7.59869910E+00
  7.59869910E+00 -1.51973982E+01  7.59869910E+00  7.59869910E+00 -1.51973982E+01
  7.59869910E+00  7.59869910E+00 -1.51973982E+01  7.59869910E+00  7.59869910E+00
 -1.51973982E+01  7.59869910E+00  7.59869910E+00 -1.51973982E+01  7.59869910E+00
  7.59869910E+00 -1.51973982E+01  7.59869910E+00  7.59869910E+00 -1.51973982E+01
  7.59869910E+00  7.59869910E+00 -1.51973982E+01  7.59869910E+00  7.59869910E+00
 -1.51973982E+01  7.59869910E+00  7.59869910E+00 -1.51973982E+01  7.59869910E+00
  7.59869910E+00 -1.51973982E+01  7.59869910E+00  7.59869910E+00 -1.51973982E+01
  7.59869910E+00  7.59869910E+00 -1.51973982E+01  7.59869910E+00  7.59869910E+00
 -1.51973982E+01  7.59869910E+00  7.59869910E+00 -1.51973982E+01  7.59869910E+00
  7.59869910E+00 -1.51973982E+01  7.59869910E+00  7.59869910E+00 -1.51973982E+01
  7.59869910E+00  7.59869910E+00 -1.51973982E+01  7.59869910E+00  7.59869910E+00
 -1.51973982E+01  7.59869910E+00  7.59869910E+00 -1.51973982E+01  7.59869910E+00
  7.59869910E+00 -1.51973982E+01  7.59869910E+00  7.59869910E+00 -1.51973982E+01
  7.59869910E+00  7.59869910E+00 -1.51973982E+01  7.59869910E+00  7.59869910E+00
 -1.51973982E+01  7.59869910E+00  7.59869910E+00 -1.51973982E+01  7.59869910E+00
  7.59869910E+00 -1.51973982E+01  7.59869910E+00  7.59869910E+00 -1.51973982E+01
  7.59869910E+00  7.59869910E+00 -1.51973982E+01  7.59869910E+00  7.59869910E+00
 -1.51973982E+01  7.59869910E+00  7.59869910E+00 -1.51973982E+01  7.59869910E+00
  7.59869910E+00 -1.51973982E+01  7.59869910E+00  7.59869910E+00 -1.51973982E+01
  7.59869910E+00  7.59869910E+00 -1.51973982E+01  7.59869910E+00  7.59869910E+00
 -1.51973982E+01  7.59869910E+00  7.59869910E+00 -1.51973982E+01  7.59869910E+00
  7.59869910E+00 -1.51973982E+01  7.59869910E+00  7.59869910E+00 -1.51973982E+01
  7.59869910E+00  7.59869910E+00 -1.51973982E+01  7.59869910E+00  7.59869910E+00
 -1.51973982E+01  7.59869910E+00  7.59869910E+00 -1.51973982E+01  7.59869910E+00
  7.59869910E+00 -1.51973982E+01  7.59869910E+00  7.59869910E+00 -1.51973982E+01
  7.59869910E+00  7.59869910E+00 -1.51973982E+01  7.59869910E+00  7.59869910E+00
 -1.51973982E+01  7.59869910E+00  7.59869910E+00 -1.51973982E+01  7.59869910E+00
  7.59869910E+00 -1.51973982E+01  7.59869910E+00  7.59869910E+00 -1.51973982E+01
  7.59869910E+00  7.59869910E+00 -1.51973982E+01  7.59869910E+00  7.59869910E+00
 -1.51973982E+01  7.59869910E+00  7.59869910E+00 -1.51973982E+01  7.59869910E+00
  7.59869910E+00 -1.51973982E+01  7.59869910E+00  7.59869910E+00 -1.51973982E+01
  7.59869910E+00  7.59869910E+00 -1.51973982E+01  7.59869910E+00  7.59869910E+00
 -1.51973982E+01  7.59869910E+00  7.59869910E+00 -1.51973982E+01  7.59869910E+00
  7.59869910E+00 -1.51973982E+01  7.59869910E+00  7.59869910E+00 -1.51973982E+01
  7.59869910E+00  7.59869910E+00 -1.51973982E+01  7.59869910E+00  7.59869910E+00
 -1.51973982E+01  7.59869910E+00  7.59869910E+00 -1.51973982E+01  7.59869910E+00
  7.59869910E+00 -1.51973982E+01  7.59869910E+00  7.59869910E+00 -1.51973982E+01
  7.59869910E+00  7.59869910E+00 -1.51973982E+01  7.59869910E+00  7.59869910E+00
 -1.51973982E+01  7.59869910E+00  7.59869910E+00 -1.51973982E+01  7.59869910E+00
  7.59869910E+00 -1.51973982E+01  7.59869910E+00  7.59869910E+00 -1.51973982E+01
  7.59869910E+00  7.59869910E+00 -1.51973982E+01  7.59869910E+00  7.59869910E+00
 -1.51973982E+01  7.59869910E+00  7.59869910E+00 -1.51973982E+01  7.59869910E+00
  7.59869910E+00 -1.51973982E+01  7.59869910E+00  7.59869910E+00 -1.51973982E+01
  7.59869910E+00  7.59869910E+00 -1.51973982E+01  7.59869910E+00  7.59869910E+00
 -1.51973982E+01  7.59869910E+00  7.59869910E+00 -1.51973982E+01  7.59869910E+00
  7.59869910E+00 -1.51973982E+01  7.59869910E+00  7.59869910E+00 -1.51973982E+01
  7.59869910E+00  7.59869910E+00 -1.51973982E+01  7.59869910E+00  7.59869910E+00
 -1.51973982E+01  7.59869910E+00  7.59869910E+00 -1.51973982E+01  7.59869910E+00
  7.59869910E+00 -1.51973982E+01  7.59869910E+00  7.59869910E+00 -1.51973982E+01
  7.59869910E+00  7.59869910E+00 -1.51973982E+01  7.59869910E+00  7.59869910E+00
 -1.51973982E+01  7.59869910E+00  7.59869910E+00 -1.51973982E+01  7.59869910E+00
  7.59869910E+00 -1.51973982E+01  7.59869910E+00  7.59869910E+00 -1.51973982E+01
  7.59869910E+00  7.59869910E+00 -1.51973982E+01  7.59869910E+00  7.59869910E+00
 -1.51973982E+01  7.59869910E+00  7.59869910E+00 -1.51973982E+01  7.59869910E+00
  7.59869910E+00 -1.51973982E+01  7.59869910E+00  7.59869910E+00 -1.51973982E+01
  7.59869910E+00  7.59869910E+00 -1.51973982E+01  7.59869910E+00  7.59869910E+00
 -1.51973982E+01  7.59869910E+00  7.59869910E+00 -1.51973982E+01  7.59869910E+00
  7.59869910E+00 -1.51973982E+01  7.59869910E+00  7.59869910E+00 -1.51973982E+01
  7.59869910E+00  7.59869910E+00 -1.51973982E+01  7.59869910E+00  7.59869910E+00
 -1.51973982E+01  7.59869910E+00  7.59869910E+00 -1.51973982E+01  7.59869910E+00
  7.59869910E+00 -1.51973982E+01  7.59869910E+00  7.59869910E+00 -1.51973982E+01
  7.59869910E+00  7.59869910E+00 -1.51973982E+01  7.59869910E+00  7.59869910E+00
 -1.51973982E+01  7.59869910E+00  7.59869910E+00 -1.51973982E+01  7.59869910E+00
  7.59869910E+00 -1.51973982E+01  7.59869910E+00  7.59869910E+00 -1.51973982E+01
  7.59869910E+00  7.59869910E+00 -1.51973982E+01  7.59869910E+00  7.59869910E+00
 -1.51973982E+01  7.59869910E+00  7.59869910E+00 -1.51973982E+01  7.59869910E+00
  7.59869910E+00 -1.51973982E+01  7.59869910E+00  7.59869910E+00 -1.51973982E+01
  7.59869910E+00  7.59869910E+00 -1.51973982E+01  7.59869910E+00  7.59869910E+00
 -1.51973982E+01  7.59869910E+00  7.59869910E+00 -1.51973982E+01  7.59869910E+00
  7.59869910E+00 -1.51973982E+01  7.59869910E+00  7.59869910E+00 -1.51973982E+01
  7.59869910E+00  7.59869910E+00 -1.51973982E+01  7.59869910E+00  7.59869910E+00
 -1.51973982E+01  7.59869910E+00  7.59869910E+00 -1.51973982E+01  7.59869910E+00
  7.59869910E+00 -1.51973982E+01  7.59869910E+00  7.59869910E+00 -1.51973982E+01
  7.59869910E+00  7.59869910E+00 -1.51973982E+01  7.59869910E+00  7.59869910E+00
 -1.51973982E+01  7.59869910E+00  7.59869910E+00 -1.51973982E+01  7.59869910E+00
  7.59869910E+00 -1.51973982E+01  7.59869910E+00  7.59869910E+00 -1.51973982E+01
  7.59869910E+00  7.59869910E+00 -1.51973982E+01  7.59869910E+00  7.59869910E+00
 -1.51973982E+01  7.59869910E+00  7.59869910E+00 -1.51973982E+01  7.59869910E+00
  7.59869910E+00 -1.51973982E+01  7.59869910E+00  7.59869910E+00 -1.51973982E+01
  7.59869910E+00  7.59869910E+00 -1.51973982E+01  7.59869910E+00  7.59869910E+00
 -1.51973982E+01  7.59869910E+00  7.59869910E+00 -1.51973982E+01  7.59869910E+00
  7.59869910E+00 -1.51973982E+01  7.59869910E+00  7.59869910E+00 -1.51973982E+01
  7.59869910E+00  7.59869910E+00 -1.51973982E+01  7.59869910E+00  7.59869910E+00
 -1.51973982E+01  7.59869910E+00  7.59869910E+00 -1.51973982E+01  7.59869910E+00
  7.59869910E+00 -1.51973982E+01  7.59869910E+00  7.59869910E+00 -1.51973982E+01
  7.59869910E+00  7.59869910E+00 -1.51973982E+01  7.59869910E+00  7.59869910E+00
 -1.51973982E+01  7.59869910E+00  7.59869910E+00 -1.51973982E+01  7.59869910E+00
  7.59869910E+00 -1.51973982E+01  7.59869910E+00  7.59869910E+00 -1.51973982E+01
  7.59869910E+00  7.59869910E+00 -1.51973982E+01  7.59869910E+00  7.59869910E+00
 -1.51973982E+01  7.59869910E+00  7.59869910E+00 -1.51973982E+01  7.59869910E+00
  7.59869910E+00 -1.51973982E+01  7.59869910E+00  7.59869910E+00 -1.51973982E+01
  7.59869910E+00  7.59869910E+00 -1.51973982E+01  7.59869910E+00  7.59869910E+00
 -1.51973982E+01  7.59869910E+00  7.59869910E+00 -1.51973982E+01  7.59869910E+00
  7.59869910E+00 -1.51973982E+01  7.59869910E+00  7.59869910E+00 -1.51973982E+01
  7.59869910E+00  7.59869910E+00 -1.51973982E+01  7.59869910E+00  7.59869910E+00
 -1.51973982E+01  7.59869910E+00  7.59869910E+00 -1.51973982E+01  7.59869910E+00
  7.59869910E+00 -1.51973982E+01  7.59869910E+00  7.59869910E+00 -1.51973982E+01
  7.59869910E+00  7.59869910E+00 -1.51973982E+01  7.59869910E+00  7.59869910E+00
 -1.51973982E+01  7.59869910E+00  7.59869910E+00 -1.51973982E+01  7.59869910E+00
  7.59869910E+00 -1.51973982E+01  7.59869910E+00  7.59869910E+00 -1.51973982E+01
  7.59869910E+00  7.59869910E+00 -1.51973982E+01  7.59869910E+00  7.59869910E+00
 -1.51973982E+01  7.59869910E+00  7.59869910E+00 -1.51973982E+01  7.59869910E+00
  7.59869910E+00 -1.51973982E+01  7.59869910E+00  7.59869910E+00 -1.51973982E+01
  7.59869910E+00  7.59869910E+00 -1.51973982E+01  7.59869910E+00  7.59869910E+00
 -1.51973982E+01  7.59869910E+00  7.59869910E+00 -1.51973982E+01  7.59869910E+00
  7.59869910E+00 -1.51973982E+01  7.59869910E+00  7.59869910E+00 -1.51973982E+01
  7.59869910E+00  7.59869910E+00 -1.51973982E+01  7.59869910E+00  7.59869910E+00
 -1.51973982E+01  7.59869910E+00  7.59869910E+00 -1.51973982E+01  7.59869910E+00
  7.59869910E+00 -1.51973982E+01  7.59869910E+00  7.59869910E+00 -1.51973982E+01
  7.59869910E+00  7.59869910E+00 -1.51973982E+01  7.59869910E+00  7.59869910E+00
 -1.51973982E+01  7.59869910E+00  7.59869910E+00 -1.51973982E+01  7.59869910E+00
  7.59869910E+00 -1.51973982E+01  7.59869910E+00  7.59869910E+00 -1.51973982E+01
  7.59869910E+00  7.59869910E+00 -1.51973982E+01  7.59869910E+00  7.59869910E+00
 -1.51973982E+01  7.59869910E+00  7.59869910E+00 -1.51973982E+01  7.59869910E+00
  7.59869910E+00 -1.51973982E+01  7.59869910E+00  7.59869910E+00 -1.51973982E+01
  7.59869910E+00  7.59869910E+00 -1.51973982E+01  7.59869910E+00  7.59869910E+00
 -1.51973982E+01  7.59869910E+00  7.59869910E+00 -1.51973982E+01  7.59869910E+00
  7.59869910E+00 -1.51973982E+01  7.59869910E+00  7.59869910E+00 -1.51973982E+01
  7.59869910E+00  7.59869910E+00 -1.51973982E+01  7.59869910E+00  7.59869910E+00
 -1.51973982E+01  7.59869910E+00  7.59869910E+00 -1.51973982E+01  7.59869910E+00
  7.59869910E+00 -1.51973982E+01  7.59869910E+00  7.59869910E+00 -1.51973982E+01
  7.59869910E+00  7.59869910E+00 -1.51973982E+01  7.59869910E+00  7.59869910E+00
 -1.51973982E+01  7.59869910E+00  7.59869910E+00 -1.51973982E+01  7.59869910E+00
  7.59869910E+00 -1.51973982E+01  7.59869910E+00  7.59869910E+00 -1.51973982E+01
  7.59869910E+00  7.59869910E+00 -1.51973982E+01  7.59869910E+00  7.59869910E+00
 -1.51973982E+01  7.59869910E+00  7.59869910E+00 -1.51973982E+01  7.59869910E+00
  7.59869910E+00 -1.51973982E+01  7.59869910E+00  7.59869910E+00 -1.51973982E+01
  7.59869910E+00  7.59869910E+00 -1.51973982E+01  7.59869910E+00  7.59869910E+00
 -1.51973982E+01  7.59869910E+00  7.59869910E+00 -1.51973982E+01  7.59869910E+00
  7.59869910E+00 -1.51973982E+01  7.59869910E+00  7.59869910E+00 -1.51973982E+01
  7.59869910E+00  7.59869910E+00 -1.51973982E+01  7.59869910E+00  7.59869910E+00
 -1.51973982E+01  7.59869910E+00  7.59869910E+00 -1.51973982E+01  7.59869910E+00
  7.59869910E+00 -1.51973982E+01  7.59869910E+00  7.59869910E+00 -1.51973982E+01
  7.59869910E+00  7.59869910E+00 -1.51973982E+01  7.59869910E+00  7.59869910E+00
 -1.51973982E+01  7.59869910E+00  7.59869910E+00 -1.51973982E+01  7.59869910E+00
  7.59869910E+00 -1.51973982E+01  7.59869910E+00  7.59869910E+00 -1.51973982E+01
  7.59869910E+00  7.59869910E+00 -1.51973982E+01  7.59869910E+00  7.59869910E+00
 -1.51973982E+01  7.59869910E+00  7.59869910E+00 -1.51973982E+01  7.59869910E+00
  7.59869910E+00 -1.51973982E+01  7.59869910E+00  7.59869910E+00 -1.51973982E+01
  7.59869910E+00  7.59869910E+00 -1.51973982E+01  7.59869910E+00  7.59869910E+00
 -1.51973982E+01  7.59869910E+00  7.59869910E+00 -1.51973982E+01  7.59869910E+00
  7.59869910E+00 -1.51973982E+01  7.59869910E+00  7.59869910E+00 -1.51973982E+01
  7.59869910E+00  7.59869910E+00 -1.51973982E+01  7.59869910E+00  7.59869910E+00
 -1.51973982E+01  7.59869910E+00  7.59869910E+00 -1.51973982E+01  7.59869910E+00
  7.59869910E+00 -1.51973982E+01  7.59869910E+00  7.59869910E+00 -1.51973982E+01
  7.59869910E+00  7.59869910E+00 -1.51973982E+01  7.59869910E+00  7.59869910E+00
 -1.51973982E+01  7.59869910E+00  7.59869910E+00 -1.51973982E+01  7.59869910E+00
  7.59869910E+00 -1.51973982E+01  7.59869910E+00  7.59869910E+00 -1.51973982E+01
  7.59869910E+00  7.59869910E+00 -1.51973982E+01  7.59869910E+00  7.59869910E+00
 -1.51973982E+01  7.59869910E+00  7.59869910E+00 -1.51973982E+01  7.59869910E+00
  7.59869910E+00 -1.51973982E+01  7.59869910E+00  7.59869910E+00 -1.51973982E+01
  7.59869910E+00  7.59869910E+00 -1.51973982E+01  7.59869910E+00  7.59869910E+00
 -1.51973982E+01  7.59869910E+00  7.59869910E+00 -1.51973982E+01  7.59869910E+00
  7.59869910E+00 -1.51973982E+01  7.59869910E+00  7.59869910E+00 -1.51973982E+01
  7.59869910E+00  7.59869910E+00 -1.51973982E+01  7.59869910E+00  7.59869910E+00
 -1.51973982E+01  7.59869910E+00  7.59869910E+00 -1.51973982E+01  7.59869910E+00
  7.59869910E+00 -1.51973982E+01  7.59869910E+00  7.59869910E+00 -1.51973982E+01
  7.59869910E+00  7.59869910E+00 -1.51973982E+01  7.59869910E+00  7.59869910E+00
 -1.51973982E+01  7.59869910E+00  7.59869910E+00 -1.51973982E+01  7.59869910E+00
  7.59869910E+00 -1.51973982E+01  7.59869910E+00  7.59869910E+00 -1.51973982E+01
  7.59869910E+00  7.59869910E+00 -1.51973982E+01  7.59869910E+00  7.59869910E+00
 -1.51973982E+01  7.59869910E+00  7.59869910E+00 -1.51973982E+01  7.59869910E+00
  7.59869910E+00 -1.51973982E+01  7.59869910E+00  7.59869910E+00 -1.51973982E+01
  7.59869910E+00  7.59869910E+00 -1.51973982E+01  7.59869910E+00  7.59869910E+00
 -1.51973982E+01  7.59869910E+00  7.59869910E+00 -1.51973982E+01  7.59869910E+00
  7.59869910E+00 -1.51973982E+01  7.59869910E+00  7.59869910E+00 -1.51973982E+01
  7.59869910E+00  7.59869910E+00 -1.51973982E+01  7.59869910E+00  7.59869910E+00
 -1.51973982E+01  7.59869910E+00  7.59869910E+00 -1.51973982E+01  7.59869910E+00
  7.59869910E+00 -1.51973982E+01  7.59869910E+00  7.59869910E+00 -1.51973982E+01
  7.59869910E+00  7.59869910E+00 -1.51973982E+01  7.59869910E+00  7.59869910E+00
 -1.51973982E+01  7.59869910E+00  7.59869910E+00 -1.51973982E+01  7.59869910E+00
  7.59869910E+00 -1.51973982E+01  7.59869910E+00  7.59869910E+00 -1.51973982E+01
  7.59869910E+00  7.59869910E+00 -1.51973982E+01  7.59869910E+00  7.59869910E+00
 -1.51973982E+01  7.59869910E+00  7.59869910E+00 -1.51973982E+01  7.59869910E+00
  7.59869910E+00 -1.51973982E+01  7.59869910E+00  7.59869910E+00 -1.51973982E+01
  7.59869910E+00  7.59869910E+00 -1.51973982E+01  7.59869910E+00  7.59869910E+00
 -1.51973982E+01  7.59869910E+00  7.59869910E+00 -1.51973982E+01  7.59869910E+00
  7.59869910E+00 -1.51973982E+01  7.59869910E+00  7.59869910E+00 -1.51973982E+01
  7.59869910E+00  7.59869910E+00 -1.51973982E+01  7.59869910E+00  7.59869910E+00
 -1.51973982E+01  7.59869910E+00  7.59869910E+00 -1.51973982E+01  7.59869910E+00
  7.59869910E+00 -1.51973982E+01  7.59869910E+00  7.59869910E+00 -1.51973982E+01
  7.59869910E+00  7.59869910E+00 -1.51973982E+01  7.59869910E+00  7.59869910E+00
 -1.51973982E+01  7.59869910E+00  7.59869910E+00 -1.51973982E+01  7.59869910E+00
  7.59869910E+00 -1.51973982E+01  7.59869910E+00  7.59869910E+00 -1.51973982E+01
  7.59869910E+00  7.59869910E+00 -1.51973982E+01  7.59869910E+00  7.59869910E+00
 -1.51973982E+01  7.59869910E+00  7.59869910E+00 -1.51973982E+01  7.59869910E+00
  7.59869910E+00 -1.51973982E+01  7.59869910E+00  7.59869910E+00 -1.51973982E+01
  7.59869910E+00  7.59869910E+00 -1.51973982E+01  7.59869910E+00  7.59869910E+00
 -1.51973982E+01  7.59869910E+00  7.59869910E+00 -1.51973982E+01  7.59869910E+00
  7.59869910E+00 -1.51973982E+01  7.59869910E+00  7.59869910E+00 -1.51973982E+01
  7.59869910E+00  7.59869910E+00 -1.51973982E+01  7.59869910E+00  7.59869910E+00
 -1.51973982E+01  7.59869910E+00  7.59869910E+00 -1.51973982E+01  7.59869910E+00
  7.59869910E+00 -1.51973982E+01  7.59869910E+00  7.59869910E+00 -1.51973982E+01
  7.59869910E+00  7.59869910E+00 -1.51973982E+01  7.59869910E+00  7.59869910E+00
 -1.51973982E+01  7.59869910E+00  7.59869910E+00 -1.51973982E+01  7.59869910E+00
  7.59869910E+00 -1.51973982E+01  7.59869910E+00  7.59869910E+00 -1.51973982E+01
  7.59869910E+00  7.59869910E+00 -1.51973982E+01  7.59869910E+00  7.59869910E+00
 -1.51973982E+01  7.59869910E+00  7.59869910E+00 -1.51973982E+01  7.59869910E+00
  7.59869910E+00 -1.51973982E+01  7.59869910E+00  7.59869910E+00 -1.51973982E+01
  7.59869910E+00  7.59869910E+00 -1.51973982E+01  7.59869910E+00  7.59869910E+00
 -1.51973982E+01  7.59869910E+00  7.59869910E+00 -1.51973982E+01  7.59869910E+00
  7.59869910E+00 -1.51973982E+01  7.59869910E+00  7.59869910E+00 -1.51973982E+01
  7.59869910E+00  7.59869910E+00 -1.51973982E+01  7.59869910E+00  7.59869910E+00
 -1.51973982E+01  7.59869910E+00  7.59869910E+00 -1.51973982E+01  7.59869910E+00
  7.59869910E+00 -1.51973982E+01  7.59869910E+00  7.59869910E+00 -1.51973982E+01
  7.59869910E+00  7.59869910E+00 -1.51973982E+01  7.59869910E+00  7.59869910E+00
 -1.51973982E+01  7.59869910E+00  7.59869910E+00 -1.51973982E+01  7.59869910E+00
  7.59869910E+00 -1.51973982E+01  7.59869910E+00  7.59869910E+00 -1.51973982E+01
  7.59869910E+00  7.59869910E+00 -1.51973982E+01  7.59869910E+00  7.59869910E+00
 -1.51973982E+01  7.59869910E+00  7.59869910E+00 -1.51973982E+01  7.59869910E+00
  7.59869910E+00 -1.51973982E+01  7.59869910E+00  7.59869910E+00 -1.51973982E+01
  7.59869910E+00  7.59869910E+00 -1.51973982E+01  7.59869910E+00  7.59869910E+00
 -1.51973982E+01  7.59869910E+00  7.59869910E+00 -1.51973982E+01  7.59869910E+00
  7.59869910E+00 -1.51973982E+01  7.59869910E+00  7.59869910E+00 -1.51973982E+01
  7.59869910E+00  7.59869910E+00 -1.51973982E+01  7.59869910E+00  7.59869910E+00
 -1.51973982E+01  7.59869910E+00  7.59869910E+00 -1.51973982E+01  7.59869910E+00
  7.59869910E+00 -1.51973982E+01  7.59869910E+00  7.59869910E+00 -1.51973982E+01
  7.59869910E+00  7.59869910E+00 -1.51973982E+01  7.59869910E+00  7.59869910E+00
 -1.51973982E+01  7.59869910E+00  7.59869910E+00 -1.51973982E+01  7.59869910E+00
  7.59869910E+00 -1.51973982E+01  7.59869910E+00  7.59869910E+00 -1.51973982E+01
  7.59869910E+00  7.59869910E+00 -1.51973982E+01  7.59869910E+00  7.59869910E+00
 -1.51973982E+01  7.59869910E+00  7.59869910E+00 -1.51973982E+01  7.59869910E+00
  7.59869910E+00 -1.51973982E+01  7.59869910E+00  7.59869910E+00 -1.51973982E+01
  7.59869910E+00  7.59869910E+00 -1.51973982E+01  7.59869910E+00  7.59869910E+00
 -1.51973982E+01  7.59869910E+00  7.59869910E+00 -1.51973982E+01  7.59869910E+00
  7.59869910E+00 -1.51973982E+01  7.59869910E+00  7.59869910E+00 -1.51973982E+01
  7.59869910E+00  7.59869910E+00 -1.51973982E+01  7.59869910E+00  7.59869910E+00
 -1.51973982E+01  7.59869910E+00  7.59869910E+00 -1.51973982E+01  7.59869910E+00
  7.59869910E+00 -1.51973982E+01  7.59869910E+00  7.59869910E+00 -1.51973982E+01
  7.59869910E+00  7.59869910E+00 -1.51973982E+01  7.59869910E+00  7.59869910E+00
 -1.51973982E+01  7.59869910E+00  7.59869910E+00 -1.51973982E+01  7.59869910E+00
  7.59869910E+00 -1.51973982E+01  7.59869910E+00  7.59869910E+00 -1.51973982E+01
  7.59869910E+00  7.59869910E+00 -1.51973982E+01  7.59869910E+00  7.59869910E+00
 -1.51973982E+01  7.59869910E+00  7.59869910E+00 -1.51973982E+01  7.59869910E+00
  7.59869910E+00 -1.51973982E+01  7.59869910E+00  7.59869910E+00 -1.51973982E+01
  7.59869910E+00  7.59869910E+00 -1.51973982E+01  7.59869910E+00  7.59869910E+00
 -1.51973982E+01  7.59869910E+00  7.59869910E+00 -1.51973982E+01  7.59869910E+00
  7.59869910E+00 -1.51973982E+01  7.59869910E+00  7.59869910E+00 -1.51973982E+01
  7.59869910E+00  7.59869910E+00 -1.51973982E+01  7.59869910E+00  7.59869910E+00
 -1.51973982E+01  7.59869910E+00  7.59869910E+00 -1.51973982E+01  7.59869910E+00
  7.59869910E+00 -1.51973982E+01  7.59869910E+00  7.59869910E+00 -1.51973982E+01
  7.59869910E+00  7.59869910E+00 -1.51973982E+01  7.59869910E+00  7.59869910E+00
 -1.51973982E+01  7.59869910E+00  7.59869910E+00 -1.51973982E+01  7.59869910E+00
  7.59869910E+00 -1.51973982E+01  7.59869910E+00  7.59869910E+00 -1.51973982E+01
  7.59869910E+00  7.59869910E+00 -1.51973982E+01  7.59869910E+00  7.59869910E+00
 -1.51973982E+01  7.59869910E+00  7.59869910E+00 -1.51973982E+01  7.59869910E+00
  7.59869910E+00 -1.51973982E+01  7.59869910E+00  7.59869910E+00 -1.51973982E+01
  7.59869910E+00  7.59869910E+00 -1.51973982E+01  7.59869910E+00  7.59869910E+00
 -1.51973982E+01  7.59869910E+00  7.59869910E+00 -1.51973982E+01  7.59869910E+00
  7.59869910E+00 -1.51973982E+01  7.59869910E+00  7.59869910E+00 -1.51973982E+01
  7.59869910E+00  7.59869910E+00 -1.51973982E+01  7.59869910E+00  7.59869910E+00
 -1.51973982E+01  7.59869910E+00  7.59869910E+00 -1.51973982E+01  7.59869910E+00
  7.59869910E+00 -1.51973982E+01  7.59869910E+00  7.59869910E+00 -1.51973982E+01
  7.59869910E+00  7.59869910E+00 -1.51973982E+01  7.59869910E+00  7.59869910E+00
 -1.51973982E+01  7.59869910E+00  7.59869910E+00 -1.51973982E+01  7.59869910E+00
  7.59869910E+00 -1.51973982E+01  7.59869910E+00  7.59869910E+00 -1.51973982E+01
  7.59869910E+00  7.59869910E+00 -1.51973982E+01  7.59869910E+00  7.59869910E+00
 -1.51973982E+01  7.59869910E+00  7.59869910E+00 -1.51973982E+01  7.59869910E+00
  7.59869910E+00 -1.51973982E+01  7.59869910E+00  7.59869910E+00 -1.51973982E+01
  7.59869910E+00  7.59869910E+00 -1.51973982E+01  7.59869910E+00  7.59869910E+00
 -1.51973982E+01  7.59869910E+00  7.59869910E+00 -1.51973982E+01  7.59869910E+00
  7.59869910E+00 -1.51973982E+01  7.59869910E+00  7.59869910E+00 -1.51973982E+01
  7.59869910E+00  7.59869910E+00 -1.51973982E+01  7.59869910E+00  7.59869910E+00
 -1.51973982E+01  7.59869910E+00  7.59869910E+00 -1.51973982E+01  7.59869910E+00
  7.59869910E+00 -1.51973982E+01  7.59869910E+00  7.59869910E+00 -1.51973982E+01
  7.59869910E+00  7.59869910E+00 -1.51973982E+01  7.59869910E+00  7.59869910E+00
 -1.51973982E+01  7.59869910E+00  7.59869910E+00 -1.51973982E+01  7.59869910E+00
  7.59869910E+00 -1.51973982E+01  7.59869910E+00  7.59869910E+00 -1.51973982E+01
  7.59869910E+00  7.59869910E+00 -1.51973982E+01  7.59869910E+00  7.59869910E+00
 -1.51973982E+01  7.59869910E+00  7.59869910E+00 -1.51973982E+01  7.59869910E+00
  7.59869910E+00 -1.51973982E+01  7.59869910E+00  7.59869910E+00 -1.51973982E+01
  7.59869910E+00  7.59869910E+00 -1.51973982E+01  7.59869910E+00  7.59869910E+00
 -1.51973982E+01  7.59869910E+00  7.59869910E+00 -1.51973982E+01  7.59869910E+00
  7.59869910E+00 -1.51973982E+01  7.59869910E+00  7.59869910E+00 -1.51973982E+01
  7.59869910E+00  7.59869910E+00 -1.51973982E+01  7.59869910E+00  7.59869910E+00
 -1.51973982E+01  7.59869910E+00  7.59869910E+00 -1.51973982E+01  7.59869910E+00
  7.59869910E+00 -1.51973982E+01  7.59869910E+00  7.59869910E+00 -1.51973982E+01
  7.59869910E+00  7.59869910E+00 -1.51973982E+01  7.59869910E+00  7.59869910E+00
 -1.51973982E+01  7.59869910E+00  7.59869910E+00 -1.51973982E+01  7.59869910E+00
  7.59869910E+00 -1.51973982E+01  7.59869910E+00  7.59869910E+00 -1.51973982E+01
  7.59869910E+00  7.59869910E+00 -1.51973982E+01  7.59869910E+00  7.59869910E+00
 -1.51973982E+01  7.59869910E+00  7.59869910E+00 -1.51973982E+01  7.59869910E+00
  7.59869910E+00 -1.51973982E+01  7.59869910E+00  7.59869910E+00 -1.51973982E+01
  7.59869910E+00  7.59869910E+00 -1.51973982E+01  7.59869910E+00  7.59869910E+00
 -1.51973982E+01  7.59869910E+00  7.59869910E+00 -1.51973982E+01  7.59869910E+00
  7.59869910E+00 -1.51973982E+01  7.59869910E+00  7.59869910E+00 -1.51973982E+01
  7.59869910E+00  7.59869910E+00 -1.51973982E+01  7.59869910E+00  7.59869910E+00
 -1.51973982E+01  7.59869910E+00  7.59869910E+00 -1.51973982E+01  7.59869910E+00
  7.59869910E+00 -1.51973982E+01  7.59869910E+00  7.59869910E+00 -1.51973982E+01
  7.59869910E+00  7.59869910E+00 -1.51973982E+01  7.59869910E+00  7.59869910E+00
 -1.51973982E+01  7.59869910E+00  7.59869910E+00 -1.51973982E+01  7.59869910E+00
  7.59869910E+00 -1.51973982E+01  7.59869910E+00  7.59869910E+00 -1.51973982E+01
  7.59869910E+00  7.59869910E+00 -1.51973982E+01  7.59869910E+00  7.59869910E+00
 -1.51973982E+01  7.59869910E+00  7.59869910E+00 -1.51973982E+01  7.59869910E+00
  7.59869910E+00 -1.51973982E+01  7.59869910E+00  7.59869910E+00 -1.51973982E+01
  7.59869910E+00  7.59869910E+00 -1.51973982E+01  7.59869910E+00  7.59869910E+00
 -1.51973982E+01  7.59869910E+00  7.59869910E+00 -1.51973982E+01  7.59869910E+00
  7.59869910E+00 -1.51973982E+01  7.59869910E+00  7.59869910E+00 -1.51973982E+01
  7.59869910E+00  7.59869910E+00 -1.51973982E+01  7.59869910E+00  7.59869910E+00
 -1.51973982E+01  7.59869910E+00  7.59869910E+00 -1.51973982E+01  7.59869910E+00
  7.59869910E+00 -1.51973982E+01  7.59869910E+00  7.59869910E+00 -1.51973982E+01
  7.59869910E+00  7.59869910E+00 -1.51973982E+01  7.59869910E+00  7.59869910E+00
 -1.51973982E+01  7.59869910E+00  7.59869910E+00 -1.51973982E+01  7.59869910E+00
  7.59869910E+00 -1.51973982E+01  7.59869910E+00  7.59869910E+00 -1.51973982E+01
  7.59869910E+00  7.59869910E+00 -1.51973982E+01  7.59869910E+00  7.59869910E+00
 -1.51973982E+01  7.59869910E+00  7.59869910E+00 -1.51973982E+01  7.59869910E+00
  7.59869910E+00 -1.51973982E+01  7.59869910E+00  7.59869910E+00 -1.51973982E+01
  7.59869910E+00  7.59869910E+00 -1.51973982E+01  7.59869910E+00  7.59869910E+00
 -1.51973982E+01  7.59869910E+00  7.59869910E+00 -1.51973982E+01  7.59869910E+00
  7.59869910E+00 -1.51973982E+01  7.59869910E+00  7.59869910E+00 -1.51973982E+01
  7.59869910E+00  7.59869910E+00 -1.51973982E+01  7.59869910E+00  7.59869910E+00
 -1.51973982E+01  7.59869910E+00  7.59869910E+00 -1.51973982E+01  7.59869910E+00
  7.59869910E+00 -1.51973982E+01  7.59869910E+00  7.59869910E+00 -1.51973982E+01
  7.59869910E+00  7.59869910E+00 -1.51973982E+01  7.59869910E+00  7.59869910E+00
 -1.51973982E+01  7.59869910E+00  7.59869910E+00 -1.51973982E+01  7.59869910E+00
  7.59869910E+00 -1.51973982E+01  7.59869910E+00  7.59869910E+00 -1.51973982E+01
  7.59869910E+00  7.59869910E+00 -1.51973982E+01  7.59869910E+00  7.59869910E+00
 -1.51973982E+01  7.59869910E+00  7.59869910E+00 -1.51973982E+01  7.59869910E+00
  7.59869910E+00 -1.51973982E+01  7.59869910E+00  7.59869910E+00 -1.51973982E+01
  7.59869910E+00  7.59869910E+00 -1.51973982E+01  7.59869910E+00  7.59869910E+00
 -1.51973982E+01  7.59869910E+00  7.59869910E+00 -1.51973982E+01  7.59869910E+00
  7.59869910E+00 -1.51973982E+01  7.59869910E+00  7.59869910E+00 -1.51973982E+01
  7.59869910E+00  7.59869910E+00 -1.51973982E+01  7.59869910E+00  7.59869910E+00
 -1.51973982E+01  7.59869910E+00  7.59869910E+00 -1.51973982E+01  7.59869910E+00
  7.59869910E+00 -1.51973982E+01  7.59869910E+00  7.59869910E+00 -1.51973982E+01
  7.59869910E+00  7.59869910E+00 -1.51973982E+01  7.59869910E+00  7.59869910E+00
 -1.51973982E+01  7.59869910E+00  7.59869910E+00 -1.51973982E+01  7.59869910E+00
  7.59869910E+00 -1.51973982E+01  7.59869910E+00  7.59869910E+00 -1.51973982E+01
  7.59869910E+00  7.59869910E+00 -1.51973982E+01  7.59869910E+00  7.59869910E+00
 -1.51973982E+01  7.59869910E+00  7.59869910E+00 -1.51973982E+01  7.59869910E+00
  7.59869910E+00 -1.51973982E+01  7.59869910E+00  7.59869910E+00 -1.51973982E+01
  7.59869910E+00  7.59869910E+00 -1.51973982E+01  7.59869910E+00  7.59869910E+00
 -1.51973982E+01  7.59869910E+00  7.59869910E+00 -1.51973982E+01  7.59869910E+00
  7.59869910E+00 -1.51973982E+01  7.59869910E+00  7.59869910E+00 -1.51973982E+01
  7.59869910E+00  7.59869910E+00 -1.51973982E+01  7.59869910E+00  7.59869910E+00
 -1.51973982E+01  7.59869910E+00  7.59869910E+00 -1.51973982E+01  7.59869910E+00
  7.59869910E+00 -1.51973982E+01  7.59869910E+00  7.59869910E+00 -1.51973982E+01
  7.59869910E+00  7.59869910E+00 -1.51973982E+01  7.59869910E+00  7.59869910E+00
 -1.51973982E+01  7.59869910E+00  7.59869910E+00 -1.51973982E+01  7.59869910E+00
  7.59869910E+00 -1.51973982E+01  7.59869910E+00  7.59869910E+00 -1.51973982E+01
  7.59869910E+00  7.59869910E+00 -1.51973982E+01  7.59869910E+00  7.59869910E+00
 -1.51973982E+01  7.59869910E+00  7.59869910E+00 -1.51973982E+01  7.59869910E+00
  7.59869910E+00 -1.51973982E+01  7.59869910E+00  7.59869910E+00 -1.51973982E+01
  7.59869910E+00  7.59869910E+00 -1.51973982E+01  7.59869910E+00  7.59869910E+00
 -1.51973982E+01  7.59869910E+00  7.59869910E+00 -1.51973982E+01  7.59869910E+00
  7.59869910E+00 -1.51973982E+01  7.59869910E+00  7.59869910E+00 -1.51973982E+01
  7.59869910E+00  7.59869910E+00 -1.51973982E+01  7.59869910E+00  7.59869910E+00
 -1.51973982E+01  7.59869910E+00  7.59869910E+00 -1.51973982E+01  7.59869910E+00
  7.59869910E+00 -1.51973982E+01  7.59869910E+00  7.59869910E+00 -1.51973982E+01
  7.59869910E+00  7.59869910E+00 -1.51973982E+01  7.59869910E+00  7.59869910E+00
 -1.51973982E+01  7.59869910E+00  7.59869910E+00 -1.51973982E+01  7.59869910E+00
  7.59869910E+00 -1.51973982E+01  7.59869910E+00  7.59869910E+00 -1.51973982E+01
  7.59869910E+00  7.59869910E+00 -1.51973982E+01  7.59869910E+00  7.59869910E+00
 -1.51973982E+01  7.59869910E+00  7.59869910E+00 -1.51973982E+01  7.59869910E+00
  7.59869910E+00 -1.51973982E+01  7.59869910E+00  7.59869910E+00 -1.51973982E+01
  7.59869910E+00  7.59869910E+00 -1.51973982E+01  7.59869910E+00  7.59869910E+00
 -1.51973982E+01  7.59869910E+00  7.59869910E+00 -1.51973982E+01  7.59869910E+00
  7.59869910E+00 -1.51973982E+01  7.59869910E+00  7.59869910E+00 -1.51973982E+01
  7.59869910E+00  7.59869910E+00 -1.51973982E+01  7.59869910E+00  7.59869910E+00
 -1.51973982E+01  7.59869910E+00  7.59869910E+00 -1.51973982E+01  7.59869910E+00
  7.59869910E+00 -1.51973982E+01  7.59869910E+00  7.59869910E+00 -1.51973982E+01
  7.59869910E+00  7.59869910E+00 -1.51973982E+01  7.59869910E+00  7.59869910E+00
 -1.51973982E+01  7.59869910E+00  7.59869910E+00 -1.51973982E+01  7.59869910E+00
  7.59869910E+00 -1.51973982E+01  7.59869910E+00  7.59869910E+00 -1.51973982E+01
  7.59869910E+00  7.59869910E+00 -1.51973982E+01  7.59869910E+00  7.59869910E+00
 -1.51973982E+01  7.59869910E+00  7.59869910E+00 -1.51973982E+01  7.59869910E+00
  7.59869910E+00 -1.51973982E+01  7.59869910E+00  7.59869910E+00 -1.51973982E+01
  7.59869910E+00  7.59869910E+00 -1.51973982E+01  7.59869910E+00  7.59869910E+00
 -1.51973982E+01  7.59869910E+00  7.59869910E+00 -1.51973982E+01  7.59869910E+00
  7.59869910E+00 -1.51973982E+01  7.59869910E+00  7.59869910E+00 -1.51973982E+01
  7.59869910E+00  7.59869910E+00 -1.51973982E+01  7.59869910E+00  7.59869910E+00
 -1.51973982E+01  7.59869910E+00  7.59869910E+00 -1.51973982E+01  7.59869910E+00
  7.59869910E+00 -1.51973982E+01  7.59869910E+00  7.59869910E+00 -1.51973982E+01
  7.59869910E+00  7.59869910E+00 -1.51973982E+01  7.59869910E+00  7.59869910E+00
 -1.51973982E+01  7.59869910E+00  7.59869910E+00 -1.51973982E+01  7.59869910E+00
  7.59869910E+00 -1.51973982E+01  7.59869910E+00  7.59869910E+00 -1.51973982E+01
  7.59869910E+00  7.59869910E+00 -1.51973982E+01  7.59869910E+00  7.59869910E+00
 -1.51973982E+01  7.59869910E+00  7.59869910E+00 -1.51973982E+01  7.59869910E+00
  7.59869910E+00 -1.51973982E+01  7.59869910E+00  7.59869910E+00 -1.51973982E+01
  7.59869910E+00  7.59869910E+00 -1.51973982E+01  7.59869910E+00  7.59869910E+00
 -1.51973982E+01  7.59869910E+00  7.59869910E+00 -1.51973982E+01  7.59869910E+00
  7.59869910E+00 -1.51973982E+01  7.59869910E+00  7.59869910E+00 -1.51973982E+01
  7.59869910E+00  7.59869910E+00 -1.51973982E+01  7.59869910E+00  7.59869910E+00
 -1.51973982E+01  7.59869910E+00  7.59869910E+00 -1.51973982E+01  7.59869910E+00
  7.59869910E+00 -1.51973982E+01  7.59869910E+00  7.59869910E+00 -1.51973982E+01
  7.59869910E+00  7.59869910E+00 -1.51973982E+01  7.59869910E+00  7.59869910E+00
 -1.51973982E+01  7.59869910E+00  7.59869910E+00 -1.51973982E+01  7.59869910E+00
  7.59869910E+00 -1.51973982E+01  7.59869910E+00  7.59869910E+00 -1.51973982E+01
  7.59869910E+00  7.59869910E+00 -1.51973982E+01  7.59869910E+00  7.59869910E+00
 -1.51973982E+01  7.59869910E+00  7.59869910E+00 -1.51973982E+01  7.59869910E+00
  7.59869910E+00 -1.51973982E+01  7.59869910E+00  7.59869910E+00 -1.51973982E+01
  7.59869910E+00  7.59869910E+00 -1.51973982E+01  7.59869910E+00  7.59869910E+00
 -1.51973982E+01  7.59869910E+00  7.59869910E+00 -1.51973982E+01  7.59869910E+00
  7.59869910E+00 -1.51973982E+01  7.59869910E+00  7.59869910E+00 -1.51973982E+01
  7.59869910E+00  7.59869910E+00 -1.51973982E+01  7.59869910E+00  7.59869910E+00
 -1.51973982E+01  7.59869910E+00  7.59869910E+00 -1.51973982E+01  7.59869910E+00
  7.59869910E+00 -1.51973982E+01  7.59869910E+00  7.59869910E+00 -1.51973982E+01
  7.59869910E+00  7.59869910E+00 -1.51973982E+01  7.59869910E+00  7.59869910E+00
 -1.51973982E+01  7.59869910E+00  7.59869910E+00 -1.51973982E+01  7.59869910E+00
  7.59869910E+00 -1.51973982E+01  7.59869910E+00  7.59869910E+00 -1.51973982E+01
  7.59869910E+00  7.59869910E+00 -1.51973982E+01  7.59869910E+00  7.59869910E+00
 -1.51973982E+01  7.59869910E+00  7.59869910E+00 -1.51973982E+01  7.59869910E+00
  7.59869910E+00 -1.51973982E+01  7.59869910E+00  7.59869910E+00 -1.51973982E+01
  7.59869910E+00  7.59869910E+00 -1.51973982E+01  7.59869910E+00  7.59869910E+00
 -1.51973982E+01  7.59869910E+00  7.59869910E+00 -1.51973982E+01  7.59869910E+00
  7.59869910E+00 -1.51973982E+01  7.59869910E+00  7.59869910E+00 -1.51973982E+01
  7.59869910E+00  7.59869910E+00 -1.51973982E+01  7.59869910E+00  7.59869910E+00
 -1.51973982E+01  7.59869910E+00  7.59869910E+00 -1.51973982E+01  7.59869910E+00
  7.59869910E+00 -1.51973982E+01  7.59869910E+00  7.59869910E+00 -1.51973982E+01
  7.59869910E+00  7.59869910E+00 -1.51973982E+01  7.59869910E+00  7.59869910E+00
 -1.51973982E+01  7.59869910E+00  7.59869910E+00 -1.51973982E+01  7.59869910E+00
  7.59869910E+00 -1.51973982E+01  7.59869910E+00  7.59869910E+00 -1.51973982E+01
  7.59869910E+00  7.59869910E+00 -1.51973982E+01  7.59869910E+00  7.59869910E+00
 -1.51973982E+01  7.59869910E+00  7.59869910E+00 -1.51973982E+01  7.59869910E+00
  7.59869910E+00 -1.51973982E+01  7.59869910E+00  7.59869910E+00 -1.51973982E+01
  7.59869910E+00  7.59869910E+00 -1.51973982E+01  7.59869910E+00  7.59869910E+00
 -1.51973982E+01  7.59869910E+00  7.59869910E+00 -1.51973982E+01  7.59869910E+00
  7.59869910E+00 -1.51973982E+01  7.59869910E+00  7.59869910E+00 -1.51973982E+01
  7.59869910E+00  7.59869910E+00 -1.51973982E+01  7.59869910E+00  7.59869910E+00
 -1.51973982E+01  7.59869910E+00  7.59869910E+00 -1.51973982E+01  7.59869910E+00
  7.59869910E+00 -1.51973982E+01  7.59869910E+00  7.59869910E+00 -1.51973982E+01
  7.59869910E+00  7.59869910E+00 -1.51973982E+01  7.59869910E+00  7.59869910E+00
 -1.51973982E+01  7.59869910E+00  7.59869910E+00 -1.51973982E+01  7.59869910E+00
  7.59869910E+00 -1.51973982E+01  7.59869910E+00  7.59869910E+00 -1.51973982E+01
  7.59869910E+00  7.59869910E+00 -1.51973982E+01  7.59869910E+00  7.59869910E+00
 -1.51973982E+01  7.59869910E+00  7.59869910E+00 -1.51973982E+01  7.59869910E+00
  7.59869910E+00 -1.51973982E+01  7.59869910E+00  7.59869910E+00 -1.51973982E+01
  7.59869910E+00  7.59869910E+00 -1.51973982E+01  7.59869910E+00  7.59869910E+00
 -1.51973982E+01  7.59869910E+00  7.59869910E+00 -1.51973982E+01  7.59869910E+00
  7.59869910E+00 -1.51973982E+01  7.59869910E+00  7.59869910E+00 -1.51973982E+01
  7.59869910E+00  7.59869910E+00 -1.51973982E+01  7.59869910E+00  7.59869910E+00
 -1.51973982E+01  7.59869910E+00  7.59869910E+00 -1.51973982E+01  7.59869910E+00
  7.59869910E+00 -1.51973982E+01  7.59869910E+00  7.59869910E+00 -1.51973982E+01
  7.59869910E+00  7.59869910E+00 -1.51973982E+01  7.59869910E+00  7.59869910E+00
 -1.51973982E+01  7.59869910E+00  7.59869910E+00 -1.51973982E+01  7.59869910E+00
  7.59869910E+00 -1.51973982E+01  7.59869910E+00  7.59869910E+00 -1.51973982E+01
  7.59869910E+00  7.59869910E+00 -1.51973982E+01  7.59869910E+00  7.59869910E+00
 -1.51973982E+01  7.59869910E+00  7.59869910E+00 -1.51973982E+01  7.59869910E+00
  7.59869910E+00 -1.51973982E+01  7.59869910E+00  7.59869910E+00 -1.51973982E+01
  7.59869910E+00  7.59869910E+00 -1.51973982E+01  7.59869910E+00  7.59869910E+00
 -1.51973982E+01  7.59869910E+00  7.59869910E+00 -1.51973982E+01  7.59869910E+00
  7.59869910E+00 -1.51973982E+01  7.59869910E+00  7.59869910E+00 -1.51973982E+01
  7.59869910E+00  7.59869910E+00 -1.51973982E+01  7.59869910E+00  7.59869910E+00
 -1.51973982E+01  7.59869910E+00  7.59869910E+00 -1.51973982E+01  7.59869910E+00
  7.59869910E+00 -1.51973982E+01  7.59869910E+00  7.59869910E+00 -1.51973982E+01
  7.59869910E+00  7.59869910E+00 -1.51973982E+01  7.59869910E+00  7.59869910E+00
 -1.51973982E+01  7.59869910E+00  7.59869910E+00 -1.51973982E+01  7.59869910E+00
  7.59869910E+00 -1.51973982E+01  7.59869910E+00  7.59869910E+00 -1.51973982E+01
  7.59869910E+00  7.59869910E+00 -1.51973982E+01  7.59869910E+00  7.59869910E+00
 -1.51973982E+01  7.59869910E+00  7.59869910E+00 -1.51973982E+01  7.59869910E+00
  7.59869910E+00 -1.51973982E+01  7.59869910E+00  7.59869910E+00 -1.51973982E+01
  7.59869910E+00  7.59869910E+00 -1.51973982E+01  7.59869910E+00  7.59869910E+00
 -1.51973982E+01  7.59869910E+00  7.59869910E+00 -1.51973982E+01  7.59869910E+00
  7.59869910E+00 -1.51973982E+01  7.59869910E+00  7.59869910E+00 -1.51973982E+01
  7.59869910E+00  7.59869910E+00 -1.51973982E+01  7.59869910E+00  7.59869910E+00
 -1.51973982E+01  7.59869910E+00  7.59869910E+00 -1.51973982E+01  7.59869910E+00
  7.59869910E+00 -1.51973982E+01  7.59869910E+00  7.59869910E+00 -1.51973982E+01
  7.59869910E+00  7.59869910E+00 -1.51973982E+01  7.59869910E+00  7.59869910E+00
 -1.51973982E+01  7.59869910E+00  7.59869910E+00 -1.51973982E+01  7.59869910E+00
  7.59869910E+00 -1.51973982E+01  7.59869910E+00  7.59869910E+00 -1.51973982E+01
  7.59869910E+00  7.59869910E+00 -1.51973982E+01  7.59869910E+00  7.59869910E+00
 -1.51973982E+01  7.59869910E+00  7.59869910E+00 -1.51973982E+01  7.59869910E+00
  7.59869910E+00 -1.51973982E+01  7.59869910E+00  7.59869910E+00 -1.51973982E+01
  7.59869910E+00  7.59869910E+00 -1.51973982E+01  7.59869910E+00  7.59869910E+00
 -1.51973982E+01  7.59869910E+00  7.59869910E+00 -1.51973982E+01  7.59869910E+00
  7.59869910E+00 -1.51973982E+01  7.59869910E+00  7.59869910E+00 -1.51973982E+01
  7.59869910E+00  7.59869910E+00 -1.51973982E+01  7.59869910E+00  7.59869910E+00
 -1.51973982E+01  7.59869910E+00  7.59869910E+00 -1.51973982E+01  7.59869910E+00
  7.59869910E+00 -1.51973982E+01  7.59869910E+00  7.59869910E+00 -1.51973982E+01
  7.59869910E+00  7.59869910E+00 -1.51973982E+01  7.59869910E+00  7.59869910E+00
 -1.51973982E+01  7.59869910E+00  7.59869910E+00 -1.51973982E+01  7.59869910E+00
  7.59869910E+00 -1.51973982E+01  7.59869910E+00  7.59869910E+00 -1.51973982E+01
  7.59869910E+00  7.59869910E+00 -1.51973982E+01  7.59869910E+00  7.59869910E+00
 -1.51973982E+01  7.59869910E+00  7.59869910E+00 -1.51973982E+01  7.59869910E+00
  7.59869910E+00 -1.51973982E+01  7.59869910E+00  7.59869910E+00 -1.51973982E+01
  7.59869910E+00  7.59869910E+00 -1.51973982E+01  7.59869910E+00  7.59869910E+00
 -1.51973982E+01  7.59869910E+00  7.59869910E+00 -1.51973982E+01  7.59869910E+00
  7.59869910E+00 -1.51973982E+01  7.59869910E+00  7.59869910E+00 -1.51973982E+01
  7.59869910E+00  7.59869910E+00 -1.51973982E+01  7.59869910E+00  7.59869910E+00
 -1.51973982E+01  7.59869910E+00  7.59869910E+00 -1.51973982E+01  7.59869910E+00
  7.59869910E+00 -1.51973982E+01  7.59869910E+00  7.59869910E+00 -1.51973982E+01
  7.59869910E+00  7.59869910E+00 -1.51973982E+01  7.59869910E+00  7.59869910E+00
 -1.51973982E+01  7.59869910E+00  7.59869910E+00 -1.51973982E+01  7.59869910E+00
  7.59869910E+00 -1.51973982E+01  7.59869910E+00  7.59869910E+00 -1.51973982E+01
  7.59869910E+00  7.59869910E+00 -1.51973982E+01  7.59869910E+00  7.59869910E+00
 -1.51973982E+01  7.59869910E+00  7.59869910E+00 -1.51973982E+01  7.59869910E+00
  7.59869910E+00 -1.51973982E+01  7.59869910E+00  7.59869910E+00 -1.51973982E+01
  7.59869910E+00  7.59869910E+00 -1.51973982E+01  7.59869910E+00  7.59869910E+00
 -1.51973982E+01  7.59869910E+00  7.59869910E+00 -1.51973982E+01  7.59869910E+00
  7.59869910E+00 -1.51973982E+01  7.59869910E+00  7.59869910E+00 -1.51973982E+01
  7.59869910E+00  7.59869910E+00 -1.51973982E+01  7.59869910E+00  7.59869910E+00
 -1.51973982E+01  7.59869910E+00  7.59869910E+00 -1.51973982E+01  7.59869910E+00
  7.59869910E+00 -1.51973982E+01  7.59869910E+00  7.59869910E+00 -1.51973982E+01
  7.59869910E+00  7.59869910E+00 -1.51973982E+01  7.59869910E+00  7.59869910E+00
 -1.51973982E+01  7.59869910E+00  7.59869910E+00 -1.51973982E+01  7.59869910E+00
  7.59869910E+00 -1.51973982E+01  7.59869910E+00  7.59869910E+00 -1.51973982E+01
  7.59869910E+00  7.59869910E+00 -1.51973982E+01  7.59869910E+00  7.59869910E+00
 -1.51973982E+01  7.59869910E+00  7.59869910E+00 -1.51973982E+01  7.59869910E+00
  7.59869910E+00 -1.51973982E+01  7.59869910E+00  7.59869910E+00 -1.51973982E+01
  7.59869910E+00  7.59869910E+00 -1.51973982E+01  7.59869910E+00  7.59869910E+00
 -1.51973982E+01  7.59869910E+00  7.59869910E+00 -1.51973982E+01  7.59869910E+00
  7.59869910E+00 -1.51973982E+01  7.59869910E+00  7.59869910E+00 -1.51973982E+01
  7.59869910E+00  7.59869910E+00 -1.51973982E+01  7.59869910E+00  7.59869910E+00
 -1.51973982E+01  7.59869910E+00  7.59869910E+00 -1.51973982E+01  7.59869910E+00
  7.59869910E+00 -1.51973982E+01  7.59869910E+00  7.59869910E+00 -1.51973982E+01
  7.59869910E+00  7.59869910E+00 -1.51973982E+01  7.59869910E+00  7.59869910E+00
 -1.51973982E+01  7.59869910E+00  7.59869910E+00 -1.51973982E+01  7.59869910E+00
  7.59869910E+00 -1.51973982E+01  7.59869910E+00  7.59869910E+00 -1.51973982E+01
  7.59869910E+00  7.59869910E+00 -1.51973982E+01  7.59869910E+00  7.59869910E+00
 -1.51973982E+01  7.59869910E+00  7.59869910E+00 -1.51973982E+01  7.59869910E+00
  7.59869910E+00 -1.51973982E+01  7.59869910E+00  7.59869910E+00 -1.51973982E+01
  7.59869910E+00  7.59869910E+00 -1.51973982E+01  7.59869910E+00  7.59869910E+00
 -1.51973982E+01  7.59869910E+00  7.59869910E+00 -1.51973982E+01  7.59869910E+00
  7.59869910E+00 -1.51973982E+01  7.59869910E+00  7.59869910E+00 -1.51973982E+01
  7.59869910E+00  7.59869910E+00 -1.51973982E+01  7.59869910E+00  7.59869910E+00
 -1.51973982E+01  7.59869910E+00  7.59869910E+00 -1.51973982E+01  7.59869910E+00
  7.59869910E+00 -1.51973982E+01  7.59869910E+00  7.59869910E+00 -1.51973982E+01
  7.59869910E+00  7.59869910E+00 -1.51973982E+01  7.59869910E+00  7.59869910E+00
 -1.51973982E+01  7.59869910E+00  7.59869910E+00 -1.51973982E+01  7.59869910E+00
  7.59869910E+00 -1.51973982E+01  7.59869910E+00  7.59869910E+00 -1.51973982E+01
  7.59869910E+00  7.59869910E+00 -1.51973982E+01  7.59869910E+00  7.59869910E+00
 -1.51973982E+01  7.59869910E+00  7.59869910E+00 -1.51973982E+01  7.59869910E+00
  7.59869910E+00 -1.51973982E+01  7.59869910E+00  7.59869910E+00 -1.51973982E+01
  7.59869910E+00  7.59869910E+00 -1.51973982E+01  7.59869910E+00  7.59869910E+00
 -1.51973982E+01  7.59869910E+00  7.59869910E+00 -1.51973982E+01  7.59869910E+00
  7.59869910E+00 -1.51973982E+01  7.59869910E+00  7.59869910E+00 -1.51973982E+01
  7.59869910E+00  7.59869910E+00 -1.51973982E+01  7.59869910E+00  7.59869910E+00
 -1.51973982E+01  7.59869910E+00  7.59869910E+00 -1.51973982E+01  7.59869910E+00
  7.59869910E+00 -1.51973982E+01  7.59869910E+00  7.59869910E+00 -1.51973982E+01
  7.59869910E+00  7.59869910E+00 -1.51973982E+01  7.59869910E+00  7.59869910E+00
 -1.51973982E+01  7.59869910E+00  7.59869910E+00 -1.51973982E+01  7.59869910E+00
  7.59869910E+00 -1.51973982E+01  7.59869910E+00  7.59869910E+00 -1.51973982E+01
  7.59869910E+00  7.59869910E+00 -1.51973982E+01  7.59869910E+00  7.59869910E+00
 -1.51973982E+01  7.59869910E+00  7.59869910E+00 -1.51973982E+01  7.59869910E+00
  7.59869910E+00 -1.51973982E+01  7.59869910E+00  7.59869910E+00 -1.51973982E+01
  7.59869910E+00  7.59869910E+00 -1.51973982E+01  7.59869910E+00  7.59869910E+00
 -1.51973982E+01  7.59869910E+00  7.59869910E+00 -1.51973982E+01  7.59869910E+00
  7.59869910E+00 -1.51973982E+01  7.59869910E+00  7.59869910E+00 -1.51973982E+01
  7.59869910E+00  7.59869910E+00 -1.51973982E+01  7.59869910E+00  7.59869910E+00
 -1.51973982E+01  7.59869910E+00  7.59869910E+00 -1.51973982E+01  7.59869910E+00
  7.59869910E+00 -1.51973982E+01  7.59869910E+00  7.59869910E+00 -1.51973982E+01
  7.59869910E+00  7.59869910E+00 -1.51973982E+01  7.59869910E+00  7.59869910E+00
 -1.51973982E+01  7.59869910E+00  7.59869910E+00 -1.51973982E+01  7.59869910E+00
  7.59869910E+00 -1.51973982E+01  7.59869910E+00  7.59869910E+00 -1.51973982E+01
  7.59869910E+00  7.59869910E+00 -1.51973982E+01  7.59869910E+00  7.59869910E+00
 -1.51973982E+01  7.59869910E+00  7.59869910E+00 -1.51973982E+01  7.59869910E+00
  7.59869910E+00 -1.51973982E+01  7.59869910E+00  7.59869910E+00 -1.51973982E+01
  7.59869910E+00  7.59869910E+00 -1.51973982E+01  7.59869910E+00  7.59869910E+00
 -1.51973982E+01  7.59869910E+00  7.59869910E+00 -1.51973982E+01  7.59869910E+00
  7.59869910E+00 -1.51973982E+01  7.59869910E+00  7.59869910E+00 -1.51973982E+01
  7.59869910E+00  7.59869910E+00 -1.51973982E+01  7.59869910E+00  7.59869910E+00
 -1.51973982E+01  7.59869910E+00  7.59869910E+00 -1.51973982E+01  7.59869910E+00
  7.59869910E+00 -1.51973982E+01  7.59869910E+00  7.59869910E+00 -1.51973982E+01
  7.59869910E+00  7.59869910E+00 -1.51973982E+01  7.59869910E+00  7.59869910E+00
 -1.51973982E+01  7.59869910E+00  7.59869910E+00 -1.51973982E+01  7.59869910E+00
  7.59869910E+00 -1.51973982E+01  7.59869910E+00  7.59869910E+00 -1.51973982E+01
  7.59869910E+00  7.59869910E+00 -1.51973982E+01  7.59869910E+00  7.59869910E+00
 -1.51973982E+01  7.59869910E+00  7.59869910E+00 -1.51973982E+01  7.59869910E+00
  7.59869910E+00 -1.51973982E+01  7.59869910E+00  7.59869910E+00 -1.51973982E+01
  7.59869910E+00  7.59869910E+00 -1.51973982E+01  7.59869910E+00  7.59869910E+00
 -1.51973982E+01  7.59869910E+00  7.59869910E+00 -1.51973982E+01  7.59869910E+00
  7.59869910E+00 -1.51973982E+01  7.59869910E+00  7.59869910E+00 -1.51973982E+01
  7.59869910E+00  7.59869910E+00 -1.51973982E+01  7.59869910E+00  7.59869910E+00
 -1.51973982E+01  7.59869910E+00  7.59869910E+00 -1.51973982E+01  7.59869910E+00
  7.59869910E+00 -1.51973982E+01  7.59869910E+00  7.59869910E+00 -1.51973982E+01
  7.59869910E+00  7.59869910E+00 -1.51973982E+01  7.59869910E+00  7.59869910E+00
 -1.51973982E+01  7.59869910E+00  7.59869910E+00 -1.51973982E+01  7.59869910E+00
  7.59869910E+00 -1.51973982E+01  7.59869910E+00  7.59869910E+00 -1.51973982E+01
  7.59869910E+00  7.59869910E+00 -1.51973982E+01  7.59869910E+00  7.59869910E+00
 -1.51973982E+01  7.59869910E+00  7.59869910E+00 -1.51973982E+01  7.59869910E+00
  7.59869910E+00 -1.51973982E+01  7.59869910E+00  7.59869910E+00 -1.51973982E+01
  7.59869910E+00  7.59869910E+00 -1.51973982E+01  7.59869910E+00  7.59869910E+00
 -1.51973982E+01  7.59869910E+00  7.59869910E+00 -1.51973982E+01  7.59869910E+00
  7.59869910E+00 -1.51973982E+01  7.59869910E+00  7.59869910E+00 -1.51973982E+01
  7.59869910E+00  7.59869910E+00 -1.51973982E+01  7.59869910E+00  7.59869910E+00
 -1.51973982E+01  7.59869910E+00  7.59869910E+00 -1.51973982E+01  7.59869910E+00
  7.59869910E+00 -1.51973982E+01  7.59869910E+00  7.59869910E+00 -1.51973982E+01
  7.59869910E+00  7.59869910E+00 -1.51973982E+01  7.59869910E+00  7.59869910E+00
 -1.51973982E+01  7.59869910E+00  7.59869910E+00 -1.51973982E+01  7.59869910E+00
  7.59869910E+00 -1.51973982E+01  7.59869910E+00  7.59869910E+00 -1.51973982E+01
  7.59869910E+00  7.59869910E+00 -1.51973982E+01  7.59869910E+00  7.59869910E+00
 -1.51973982E+01  7.59869910E+00  7.59869910E+00 -1.51973982E+01  7.59869910E+00
  7.59869910E+00 -1.51973982E+01  7.59869910E+00  7.59869910E+00 -1.51973982E+01
  7.59869910E+00  7.59869910E+00 -1.51973982E+01  7.59869910E+00  7.59869910E+00
 -1.51973982E+01  7.59869910E+00  7.59869910E+00 -1.51973982E+01  7.59869910E+00
  7.59869910E+00 -1.51973982E+01  7.59869910E+00  7.59869910E+00 -1.51973982E+01
  7.59869910E+00  7.59869910E+00 -1.51973982E+01  7.59869910E+00  7.59869910E+00
 -1.51973982E+01  7.59869910E+00  7.59869910E+00 -1.51973982E+01  7.59869910E+00
  7.59869910E+00 -1.51973982E+01  7.59869910E+00  7.59869910E+00 -1.51973982E+01
  7.59869910E+00  7.59869910E+00 -1.51973982E+01  7.59869910E+00  7.59869910E+00
 -1.51973982E+01  7.59869910E+00  7.59869910E+00 -1.51973982E+01  7.59869910E+00
  7.59869910E+00 -1.51973982E+01  7.59869910E+00  7.59869910E+00 -1.51973982E+01
  7.59869910E+00  7.59869910E+00 -1.51973982E+01  7.59869910E+00  7.59869910E+00
 -1.51973982E+01  7.59869910E+00  7.59869910E+00 -1.51973982E+01  7.59869910E+00
  7.59869910E+00 -1.51973982E+01  7.59869910E+00  7.59869910E+00 -1.51973982E+01
  7.59869910E+00  7.59869910E+00 -1.51973982E+01  7.59869910E+00  7.59869910E+00
 -1.51973982E+01  7.59869910E+00  7.59869910E+00 -1.51973982E+01  7.59869910E+00
  7.59869910E+00 -1.51973982E+01  7.59869910E+00  7.59869910E+00 -1.51973982E+01
  7.59869910E+00  7.59869910E+00 -1.51973982E+01  7.59869910E+00  7.59869910E+00
 -1.51973982E+01  7.59869910E+00  7.59869910E+00 -1.51973982E+01  7.59869910E+00
  7.59869910E+00 -1.51973982E+01  7.59869910E+00  7.59869910E+00 -1.51973982E+01
  7.59869910E+00  7.59869910E+00 -1.51973982E+01  7.59869910E+00  7.59869910E+00
 -1.51973982E+01  7.59869910E+00  7.59869910E+00 -1.51973982E+01  7.59869910E+00
  7.59869910E+00 -1.51973982E+01  7.59869910E+00  7.59869910E+00 -1.51973982E+01
  7.59869910E+00  7.59869910E+00 -1.51973982E+01  7.59869910E+00  7.59869910E+00
 -1.51973982E+01  7.59869910E+00  7.59869910E+00 -1.51973982E+01  7.59869910E+00
  7.59869910E+00 -1.51973982E+01  7.59869910E+00  7.59869910E+00 -1.51973982E+01
  7.59869910E+00  7.59869910E+00 -1.51973982E+01  7.59869910E+00  7.59869910E+00
 -1.51973982E+01  7.59869910E+00  7.59869910E+00 -1.51973982E+01  7.59869910E+00
  7.59869910E+00 -1.51973982E+01  7.59869910E+00  7.59869910E+00 -1.51973982E+01
  7.59869910E+00  7.59869910E+00 -1.51973982E+01  7.59869910E+00  7.59869910E+00
 -1.51973982E+01  7.59869910E+00  7.59869910E+00 -1.51973982E+01  7.59869910E+00
  7.59869910E+00 -1.51973982E+01  7.59869910E+00  7.59869910E+00 -1.51973982E+01
  7.59869910E+00  7.59869910E+00 -1.51973982E+01  7.59869910E+00  7.59869910E+00
 -1.51973982E+01  7.59869910E+00  7.59869910E+00 -1.51973982E+01  7.59869910E+00
  7.59869910E+00 -1.51973982E+01  7.59869910E+00  7.59869910E+00 -1.51973982E+01
  7.59869910E+00  7.59869910E+00 -1.51973982E+01  7.59869910E+00  7.59869910E+00
 -1.51973982E+01  7.59869910E+00  7.59869910E+00 -1.51973982E+01  7.59869910E+00
  7.59869910E+00 -1.51973982E+01  7.59869910E+00  7.59869910E+00 -1.51973982E+01
  7.59869910E+00  7.59869910E+00 -1.51973982E+01  7.59869910E+00  7.59869910E+00
 -1.51973982E+01  7.59869910E+00  7.59869910E+00 -1.51973982E+01  7.59869910E+00
  7.59869910E+00 -1.51973982E+01  7.59869910E+00  7.59869910E+00 -1.51973982E+01
  7.59869910E+00  7.59869910E+00 -1.51973982E+01  7.59869910E+00  7.59869910E+00
 -1.51973982E+01  7.59869910E+00  7.59869910E+00 -1.51973982E+01  7.59869910E+00
  7.59869910E+00 -1.51973982E+01  7.59869910E+00  7.59869910E+00 -1.51973982E+01
  7.59869910E+00  7.59869910E+00 -1.51973982E+01  7.59869910E+00  7.59869910E+00
 -1.51973982E+01  7.59869910E+00  7.59869910E+00 -1.51973982E+01  7.59869910E+00
  7.59869910E+00 -1.51973982E+01  7.59869910E+00  7.59869910E+00 -1.51973982E+01
  7.59869910E+00  7.59869910E+00 -1.51973982E+01  7.59869910E+00  7.59869910E+00
 -1.51973982E+01  7.59869910E+00  7.59869910E+00 -1.51973982E+01  7.59869910E+00
  7.59869910E+00 -1.51973982E+01  7.59869910E+00  7.59869910E+00 -1.51973982E+01
  7.59869910E+00  7.59869910E+00 -1.51973982E+01  7.59869910E+00  7.59869910E+00
 -1.51973982E+01  7.59869910E+00  7.59869910E+00 -1.51973982E+01  7.59869910E+00
  7.59869910E+00 -1.51973982E+01  7.59869910E+00  7.59869910E+00 -1.51973982E+01
  7.59869910E+00  7.59869910E+00 -1.51973982E+01  7.59869910E+00  7.59869910E+00
 -1.51973982E+01  7.59869910E+00  7.59869910E+00 -1.51973982E+01  7.59869910E+00
  7.59869910E+00 -1.51973982E+01  7.59869910E+00  7.59869910E+00 -1.51973982E+01
  7.59869910E+00  7.59869910E+00 -1.51973982E+01  7.59869910E+00  7.59869910E+00
 -1.51973982E+01  7.59869910E+00  7.59869910E+00 -1.51973982E+01  7.59869910E+00
  7.59869910E+00 -1.51973982E+01  7.59869910E+00  7.59869910E+00 -1.51973982E+01
  7.59869910E+00  7.59869910E+00 -1.51973982E+01  7.59869910E+00  7.59869910E+00
 -1.51973982E+01  7.59869910E+00  7.59869910E+00 -1.51973982E+01  7.59869910E+00
  7.59869910E+00 -1.51973982E+01  7.59869910E+00  7.59869910E+00 -1.51973982E+01
  7.59869910E+00  7.59869910E+00 -1.51973982E+01  7.59869910E+00  7.59869910E+00
 -1.51973982E+01  7.59869910E+00  7.59869910E+00 -1.51973982E+01  7.59869910E+00
  7.59869910E+00 -1.51973982E+01  7.59869910E+00  7.59869910E+00 -1.51973982E+01
  7.59869910E+00  7.59869910E+00 -1.51973982E+01  7.59869910E+00  7.59869910E+00
 -1.51973982E+01  7.59869910E+00  7.59869910E+00 -1.51973982E+01  7.59869910E+00
  7.59869910E+00 -1.51973982E+01  7.59869910E+00  7.59869910E+00 -1.51973982E+01
  7.59869910E+00  7.59869910E+00 -1.51973982E+01  7.59869910E+00  7.59869910E+00
 -1.51973982E+01  7.59869910E+00  7.59869910E+00 -1.51973982E+01  7.59869910E+00
  7.59869910E+00 -1.51973982E+01  7.59869910E+00  7.59869910E+00 -1.51973982E+01
  7.59869910E+00  7.59869910E+00 -1.51973982E+01  7.59869910E+00  7.59869910E+00
 -1.51973982E+01  7.59869910E+00  7.59869910E+00 -1.51973982E+01  7.59869910E+00
  7.59869910E+00 -1.51973982E+01  7.59869910E+00  7.59869910E+00 -1.51973982E+01
  7.59869910E+00  7.59869910E+00 -1.51973982E+01  7.59869910E+00  7.59869910E+00
 -1.51973982E+01  7.59869910E+00  7.59869910E+00 -1.51973982E+01  7.59869910E+00
  7.59869910E+00 -1.51973982E+01  7.59869910E+00  7.59869910E+00 -1.51973982E+01
  7.59869910E+00  7.59869910E+00 -1.51973982E+01  7.59869910E+00  7.59869910E+00
 -1.51973982E+01  7.59869910E+00  7.59869910E+00 -1.51973982E+01  7.59869910E+00
  7.59869910E+00 -1.51973982E+01  7.59869910E+00  7.59869910E+00 -1.51973982E+01
  7.59869910E+00  7.59869910E+00 -1.51973982E+01  7.59869910E+00  7.59869910E+00
 -1.51973982E+01  7.59869910E+00  7.59869910E+00 -1.51973982E+01  7.59869910E+00
  7.59869910E+00 -1.51973982E+01  7.59869910E+00  7.59869910E+00 -1.51973982E+01
  7.59869910E+00  7.59869910E+00 -1.51973982E+01  7.59869910E+00  7.59869910E+00
 -1.51973982E+01  7.59869910E+00  7.59869910E+00 -1.51973982E+01  7.59869910E+00
  7.59869910E+00 -1.51973982E+01  7.59869910E+00  7.59869910E+00 -1.51973982E+01
  7.59869910E+00  7.59869910E+00 -1.51973982E+01  7.59869910E+00  7.59869910E+00
 -1.51973982E+01  7.59869910E+00  7.59869910E+00 -1.51973982E+01  7.59869910E+00
  7.59869910E+00 -1.51973982E+01  7.59869910E+00  7.59869910E+00 -1.51973982E+01
  7.59869910E+00  7.59869910E+00 -1.51973982E+01  7.59869910E+00  7.59869910E+00
 -1.51973982E+01  7.59869910E+00  7.59869910E+00 -1.51973982E+01  7.59869910E+00
  7.59869910E+00 -1.51973982E+01  7.59869910E+00  7.59869910E+00 -1.51973982E+01
  7.59869910E+00  7.59869910E+00 -1.51973982E+01  7.59869910E+00  7.59869910E+00
 -1.51973982E+01  7.59869910E+00  7.59869910E+00 -1.51973982E+01  7.59869910E+00
  7.59869910E+00 -1.51973982E+01  7.59869910E+00  7.59869910E+00 -1.51973982E+01
  7.59869910E+00  7.59869910E+00 -1.51973982E+01  7.59869910E+00  7.59869910E+00
 -1.51973982E+01  7.59869910E+00  7.59869910E+00 -1.51973982E+01  7.59869910E+00
  7.59869910E+00 -1.51973982E+01  7.59869910E+00  7.59869910E+00 -1.51973982E+01
  7.59869910E+00  7.59869910E+00 -1.51973982E+01  7.59869910E+00  7.59869910E+00
 -1.51973982E+01  7.59869910E+00  7.59869910E+00 -1.51973982E+01  7.59869910E+00
  7.59869910E+00 -1.51973982E+01  7.59869910E+00  7.59869910E+00 -1.51973982E+01
  7.59869910E+00  7.59869910E+00 -1.51973982E+01  7.59869910E+00  7.59869910E+00
 -1.51973982E+01  7.59869910E+00  7.59869910E+00 -1.51973982E+01  7.59869910E+00
  7.59869910E+00 -1.51973982E+01  7.59869910E+00  7.59869910E+00 -1.51973982E+01
  7.59869910E+00  7.59869910E+00 -1.51973982E+01  7.59869910E+00  7.59869910E+00
 -1.51973982E+01  7.59869910E+00  7.59869910E+00 -1.51973982E+01  7.59869910E+00
  7.59869910E+00 -1.51973982E+01  7.59869910E+00  7.59869910E+00 -1.51973982E+01
  7.59869910E+00  7.59869910E+00 -1.51973982E+01  7.59869910E+00  7.59869910E+00
 -1.51973982E+01  7.59869910E+00  7.59869910E+00 -1.51973982E+01  7.59869910E+00
  7.59869910E+00 -1.51973982E+01  7.59869910E+00  7.59869910E+00 -1.51973982E+01
  7.59869910E+00  7.59869910E+00 -1.51973982E+01  7.59869910E+00  7.59869910E+00
 -1.51973982E+01  7.59869910E+00  7.59869910E+00 -1.51973982E+01  7.59869910E+00
  7.59869910E+00 -1.51973982E+01  7.59869910E+00  7.59869910E+00 -1.51973982E+01
  7.59869910E+00  7.59869910E+00 -1.51973982E+01  7.59869910E+00  7.59869910E+00
 -1.51973982E+01  7.59869910E+00  7.59869910E+00 -1.51973982E+01  7.59869910E+00
  7.59869910E+00 -1.51973982E+01  7.59869910E+00  7.59869910E+00 -1.51973982E+01
  7.59869910E+00  7.59869910E+00 -1.51973982E+01  7.59869910E+00  7.59869910E+00
 -1.51973982E+01  7.59869910E+00  7.59869910E+00 -1.51973982E+01  7.59869910E+00
  7.59869910E+00 -1.51973982E+01  7.59869910E+00  7.59869910E+00 -1.51973982E+01
  7.59869910E+00  7.59869910E+00 -1.51973982E+01  7.59869910E+00  7.59869910E+00
 -1.51973982E+01  7.59869910E+00  7.59869910E+00 -1.51973982E+01  7.59869910E+00
  7.59869910E+00 -1.51973982E+01  7.59869910E+00  7.59869910E+00 -1.51973982E+01
  7.59869910E+00  7.59869910E+00 -1.51973982E+01  7.59869910E+00  7.59869910E+00
 -1.51973982E+01  7.59869910E+00  7.59869910E+00 -1.51973982E+01  7.59869910E+00
  7.59869910E+00 -1.51973982E+01  7.59869910E+00  7.59869910E+00 -1.51973982E+01
  7.59869910E+00  7.59869910E+00 -1.51973982E+01  7.59869910E+00  7.59869910E+00
 -1.51973982E+01  7.59869910E+00  7.59869910E+00 -1.51973982E+01  7.59869910E+00
  7.59869910E+00 -1.51973982E+01  7.59869910E+00  7.59869910E+00 -1.51973982E+01
  7.59869910E+00  7.59869910E+00 -1.51973982E+01  7.59869910E+00  7.59869910E+00
 -1.51973982E+01  7.59869910E+00  7.59869910E+00 -1.51973982E+01  7.59869910E+00
  7.59869910E+00 -1.51973982E+01  7.59869910E+00  7.59869910E+00 -1.51973982E+01
  7.59869910E+00  7.59869910E+00 -1.51973982E+01  7.59869910E+00  7.59869910E+00
 -1.51973982E+01  7.59869910E+00  7.59869910E+00 -1.51973982E+01  7.59869910E+00
  7.59869910E+00 -1.51973982E+01  7.59869910E+00  7.59869910E+00 -1.51973982E+01
  7.59869910E+00  7.59869910E+00 -1.51973982E+01  7.59869910E+00  7.59869910E+00
 -1.51973982E+01  7.59869910E+00  7.59869910E+00 -1.51973982E+01  7.59869910E+00
  7.59869910E+00 -1.51973982E+01  7.59869910E+00  7.59869910E+00 -1.51973982E+01
  7.59869910E+00  7.59869910E+00 -1.51973982E+01  7.59869910E+00  7.59869910E+00
 -1.51973982E+01  7.59869910E+00  7.59869910E+00 -1.51973982E+01  7.59869910E+00
  7.59869910E+00 -1.51973982E+01  7.59869910E+00  7.59869910E+00 -1.51973982E+01
  7.59869910E+00  7.59869910E+00 -1.51973982E+01  7.59869910E+00  7.59869910E+00
 -1.51973982E+01  7.59869910E+00  7.59869910E+00 -1.51973982E+01  7.59869910E+00
  7.59869910E+00 -1.51973982E+01  7.59869910E+00  7.59869910E+00 -1.51973982E+01
  7.59869910E+00  7.59869910E+00 -1.51973982E+01  7.59869910E+00  7.59869910E+00
 -1.51973982E+01  7.59869910E+00  7.59869910E+00 -1.51973982E+01  7.59869910E+00
  7.59869910E+00 -1.51973982E+01  7.59869910E+00  7.59869910E+00 -1.51973982E+01
  7.59869910E+00  7.59869910E+00 -1.51973982E+01  7.59869910E+00  7.59869910E+00
 -1.51973982E+01  7.59869910E+00  7.59869910E+00 -1.51973982E+01  7.59869910E+00
  7.59869910E+00 -1.51973982E+01  7.59869910E+00  7.59869910E+00 -1.51973982E+01
  7.59869910E+00  7.59869910E+00 -1.51973982E+01  7.59869910E+00  7.59869910E+00
 -1.51973982E+01  7.59869910E+00  7.59869910E+00 -1.51973982E+01  7.59869910E+00
  7.59869910E+00 -1.51973982E+01  7.59869910E+00  7.59869910E+00 -1.51973982E+01
  7.59869910E+00  7.59869910E+00 -1.51973982E+01  7.59869910E+00  7.59869910E+00
 -1.51973982E+01  7.59869910E+00  7.59869910E+00 -1.51973982E+01  7.59869910E+00
  7.59869910E+00 -1.51973982E+01  7.59869910E+00  7.59869910E+00 -1.51973982E+01
  7.59869910E+00  7.59869910E+00 -1.51973982E+01  7.59869910E+00  7.59869910E+00
 -1.51973982E+01  7.59869910E+00  7.59869910E+00 -1.51973982E+01  7.59869910E+00
  7.59869910E+00 -1.51973982E+01  7.59869910E+00  7.59869910E+00 -1.51973982E+01
  7.59869910E+00  7.59869910E+00 -1.51973982E+01  7.59869910E+00  7.59869910E+00
 -1.51973982E+01  7.59869910E+00  7.59869910E+00 -1.51973982E+01  7.59869910E+00
  7.59869910E+00 -1.51973982E+01  7.59869910E+00  7.59869910E+00 -1.51973982E+01
  7.59869910E+00  7.59869910E+00 -1.51973982E+01  7.59869910E+00  7.59869910E+00
 -1.51973982E+01  7.59869910E+00  7.59869910E+00 -1.51973982E+01  7.59869910E+00
  7.59869910E+00 -1.51973982E+01  7.59869910E+00  7.59869910E+00 -1.51973982E+01
  7.59869910E+00  7.59869910E+00 -1.51973982E+01  7.59869910E+00  7.59869910E+00
 -1.51973982E+01  7.59869910E+00  7.59869910E+00 -1.51973982E+01  7.59869910E+00
  7.59869910E+00 -1.51973982E+01  7.59869910E+00  7.59869910E+00 -1.51973982E+01
  7.59869910E+00  7.59869910E+00 -1.51973982E+01  7.59869910E+00  7.59869910E+00
 -1.51973982E+01  7.59869910E+00  7.59869910E+00 -1.51973982E+01  7.59869910E+00
  7.59869910E+00 -1.51973982E+01  7.59869910E+00  7.59869910E+00 -1.51973982E+01
  7.59869910E+00  7.59869910E+00 -1.51973982E+01  7.59869910E+00  7.59869910E+00
 -1.51973982E+01  7.59869910E+00  7.59869910E+00 -1.51973982E+01  7.59869910E+00
  7.59869910E+00 -1.51973982E+01  7.59869910E+00  7.59869910E+00 -1.51973982E+01
  7.59869910E+00  7.59869910E+00 -1.51973982E+01  7.59869910E+00  7.59869910E+00
 -1.51973982E+01  7.59869910E+00  7.59869910E+00 -1.51973982E+01  7.59869910E+00
  7.59869910E+00 -1.51973982E+01  7.59869910E+00  7.59869910E+00 -1.51973982E+01
  7.59869910E+00  7.59869910E+00 -1.51973982E+01  7.59869910E+00  7.59869910E+00
 -1.51973982E+01  7.59869910E+00  7.59869910E+00 -1.51973982E+01  7.59869910E+00
  7.59869910E+00 -1.51973982E+01  7.59869910E+00  7.59869910E+00 -1.51973982E+01
  7.59869910E+00  7.59869910E+00 -1.51973982E+01  7.59869910E+00  7.59869910E+00
 -1.51973982E+01  7.59869910E+00  7.59869910E+00 -1.51973982E+01  7.59869910E+00
  7.59869910E+00 -1.51973982E+01  7.59869910E+00  7.59869910E+00 -1.51973982E+01
  7.59869910E+00  7.59869910E+00 -1.51973982E+01  7.59869910E+00  7.59869910E+00
 -1.51973982E+01  7.59869910E+00  7.59869910E+00 -1.51973982E+01  7.59869910E+00
  7.59869910E+00 -1.51973982E+01  7.59869910E+00  7.59869910E+00 -1.51973982E+01
  7.59869910E+00  7.59869910E+00 -1.51973982E+01  7.59869910E+00  7.59869910E+00
 -1.51973982E+01  7.59869910E+00  7.59869910E+00 -1.51973982E+01  7.59869910E+00
  7.59869910E+00 -1.51973982E+01  7.59869910E+00  7.59869910E+00 -1.51973982E+01
  7.59869910E+00  7.59869910E+00 -1.51973982E+01  7.59869910E+00  7.59869910E+00
 -1.51973982E+01  7.59869910E+00  7.59869910E+00 -1.51973982E+01  7.59869910E+00
  7.59869910E+00 -1.51973982E+01  7.59869910E+00  7.59869910E+00 -1.51973982E+01
  7.59869910E+00  7.59869910E+00 -1.51973982E+01  7.59869910E+00  7.59869910E+00
 -1.51973982E+01  7.59869910E+00  7.59869910E+00 -1.51973982E+01  7.59869910E+00
  7.59869910E+00 -1.51973982E+01  7.59869910E+00  7.59869910E+00 -1.51973982E+01
  7.59869910E+00  7.59869910E+00 -1.51973982E+01  7.59869910E+00  7.59869910E+00
 -1.51973982E+01  7.59869910E+00  7.59869910E+00 -1.51973982E+01  7.59869910E+00
  7.59869910E+00 -1.51973982E+01  7.59869910E+00  7.59869910E+00 -1.51973982E+01
  7.59869910E+00  7.59869910E+00 -1.51973982E+01  7.59869910E+00  7.59869910E+00
 -1.51973982E+01  7.59869910E+00  7.59869910E+00 -1.51973982E+01  7.59869910E+00
  7.59869910E+00 -1.51973982E+01  7.59869910E+00  7.59869910E+00 -1.51973982E+01
  7.59869910E+00  7.59869910E+00 -1.51973982E+01  7.59869910E+00  7.59869910E+00
 -1.51973982E+01  7.59869910E+00  7.59869910E+00 -1.51973982E+01  7.59869910E+00
  7.59869910E+00 -1.51973982E+01  7.59869910E+00  7.59869910E+00 -1.51973982E+01
  7.59869910E+00  7.59869910E+00 -1.51973982E+01  7.59869910E+00  7.59869910E+00
 -1.51973982E+01  7.59869910E+00  7.59869910E+00 -1.51973982E+01  7.59869910E+00
  7.59869910E+00 -1.51973982E+01  7.59869910E+00  7.59869910E+00 -1.51973982E+01
  7.59869910E+00  7.59869910E+00 -1.51973982E+01  7.59869910E+00  7.59869910E+00
 -1.51973982E+01  7.59869910E+00  7.59869910E+00 -1.51973982E+01  7.59869910E+00
  7.59869910E+00 -1.51973982E+01  7.59869910E+00  7.59869910E+00 -1.51973982E+01
  7.59869910E+00  7.59869910E+00 -1.51973982E+01  7.59869910E+00  7.59869910E+00
 -1.51973982E+01  7.59869910E+00  7.59869910E+00 -1.51973982E+01  7.59869910E+00
  7.59869910E+00 -1.51973982E+01  7.59869910E+00  7.59869910E+00 -1.51973982E+01
  7.59869910E+00  7.59869910E+00 -1.51973982E+01  7.59869910E+00  7.59869910E+00
 -1.51973982E+01  7.59869910E+00  7.59869910E+00 -1.51973982E+01  7.59869910E+00
  7.59869910E+00 -1.51973982E+01  7.59869910E+00  7.59869910E+00 -1.51973982E+01
  7.59869910E+00  7.59869910E+00 -1.51973982E+01  7.59869910E+00  7.59869910E+00
 -1.51973982E+01  7.59869910E+00  7.59869910E+00 -1.51973982E+01  7.59869910E+00
  7.59869910E+00 -1.51973982E+01  7.59869910E+00  7.59869910E+00 -1.51973982E+01
  7.59869910E+00  7.59869910E+00 -1.51973982E+01  7.59869910E+00  7.59869910E+00
 -1.51973982E+01  7.59869910E+00  7.59869910E+00 -1.51973982E+01  7.59869910E+00
  7.59869910E+00 -1.51973982E+01  7.59869910E+00  7.59869910E+00 -1.51973982E+01
  7.59869910E+00  7.59869910E+00 -1.51973982E+01  7.59869910E+00  7.59869910E+00
 -1.51973982E+01  7.59869910E+00  7.59869910E+00 -1.51973982E+01  7.59869910E+00
  7.59869910E+00 -1.51973982E+01  7.59869910E+00  7.59869910E+00 -1.51973982E+01
  7.59869910E+00  7.59869910E+00 -1.51973982E+01  7.59869910E+00  7.59869910E+00
 -1.51973982E+01  7.59869910E+00  7.59869910E+00 -1.51973982E+01  7.59869910E+00
  7.59869910E+00 -1.51973982E+01  7.59869910E+00  7.59869910E+00 -1.51973982E+01
  7.59869910E+00  7.59869910E+00 -1.51973982E+01  7.59869910E+00  7.59869910E+00
 -1.51973982E+01  7.59869910E+00  7.59869910E+00 -1.51973982E+01  7.59869910E+00
  7.59869910E+00 -1.51973982E+01  7.59869910E+00  7.59869910E+00 -1.51973982E+01
  7.59869910E+00  7.59869910E+00 -1.51973982E+01  7.59869910E+00  7.59869910E+00
 -1.51973982E+01  7.59869910E+00  7.59869910E+00 -1.51973982E+01  7.59869910E+00
  7.59869910E+00 -1.51973982E+01  7.59869910E+00  7.59869910E+00 -1.51973982E+01
  7.59869910E+00  7.59869910E+00 -1.51973982E+01  7.59869910E+00  7.59869910E+00
 -1.51973982E+01  7.59869910E+00  7.59869910E+00 -1.51973982E+01  7.59869910E+00
  7.59869910E+00 -1.51973982E+01  7.59869910E+00  7.59869910E+00 -1.51973982E+01
  7.59869910E+00  7.59869910E+00 -1.51973982E+01  7.59869910E+00  7.59869910E+00
 -1.51973982E+01  7.59869910E+00  7.59869910E+00 -1.51973982E+01  7.59869910E+00
  7.59869910E+00 -1.51973982E+01  7.59869910E+00  7.59869910E+00 -1.51973982E+01
  7.59869910E+00  7.59869910E+00 -1.51973982E+01  7.59869910E+00  7.59869910E+00
 -1.51973982E+01  7.59869910E+00  7.59869910E+00 -1.51973982E+01  7.59869910E+00
  7.59869910E+00 -1.51973982E+01  7.59869910E+00  7.59869910E+00 -1.51973982E+01
  7.59869910E+00  7.59869910E+00 -1.51973982E+01  7.59869910E+00  7.59869910E+00
 -1.51973982E+01  7.59869910E+00  7.59869910E+00 -1.51973982E+01  7.59869910E+00
  7.59869910E+00 -1.51973982E+01  7.59869910E+00  7.59869910E+00 -1.51973982E+01
  7.59869910E+00  7.59869910E+00 -1.51973982E+01  7.59869910E+00  7.59869910E+00
 -1.51973982E+01  7.59869910E+00  7.59869910E+00 -1.51973982E+01  7.59869910E+00
  7.59869910E+00 -1.51973982E+01  7.59869910E+00  7.59869910E+00 -1.51973982E+01
  7.59869910E+00  7.59869910E+00 -1.51973982E+01  7.59869910E+00  7.59869910E+00
 -1.51973982E+01  7.59869910E+00  7.59869910E+00 -1.51973982E+01  7.59869910E+00
  7.59869910E+00 -1.51973982E+01  7.59869910E+00  7.59869910E+00 -1.51973982E+01
  7.59869910E+00  7.59869910E+00 -1.51973982E+01  7.59869910E+00  7.59869910E+00
 -1.51973982E+01  7.59869910E+00  7.59869910E+00 -1.51973982E+01  7.59869910E+00
  7.59869910E+00 -1.51973982E+01  7.59869910E+00  7.59869910E+00 -1.51973982E+01
  7.59869910E+00  7.59869910E+00 -1.51973982E+01  7.59869910E+00  7.59869910E+00
 -1.51973982E+01  7.59869910E+00  7.59869910E+00 -1.51973982E+01  7.59869910E+00
  7.59869910E+00 -1.51973982E+01  7.59869910E+00  7.59869910E+00 -1.51973982E+01
  7.59869910E+00  7.59869910E+00 -1.51973982E+01  7.59869910E+00  7.59869910E+00
 -1.51973982E+01  7.59869910E+00  7.59869910E+00 -1.51973982E+01  7.59869910E+00
  7.59869910E+00 -1.51973982E+01  7.59869910E+00  7.59869910E+00 -1.51973982E+01
  7.59869910E+00  7.59869910E+00 -1.51973982E+01  7.59869910E+00  7.59869910E+00
 -1.51973982E+01  7.59869910E+00  7.59869910E+00 -1.51973982E+01  7.59869910E+00
  7.59869910E+00 -1.51973982E+01  7.59869910E+00  7.59869910E+00 -1.51973982E+01
  7.59869910E+00  7.59869910E+00 -1.51973982E+01  7.59869910E+00  7.59869910E+00
 -1.51973982E+01  7.59869910E+00  7.59869910E+00 -1.51973982E+01  7.59869910E+00
  7.59869910E+00 -1.51973982E+01  7.59869910E+00  7.59869910E+00 -1.51973982E+01
  7.59869910E+00  7.59869910E+00 -1.51973982E+01  7.59869910E+00  7.59869910E+00
 -1.51973982E+01  7.59869910E+00  7.59869910E+00 -1.51973982E+01  7.59869910E+00
  7.59869910E+00 -1.51973982E+01  7.59869910E+00  7.59869910E+00 -1.51973982E+01
  7.59869910E+00  7.59869910E+00 -1.51973982E+01  7.59869910E+00  7.59869910E+00
 -1.51973982E+01  7.59869910E+00  7.59869910E+00 -1.51973982E+01  7.59869910E+00
  7.59869910E+00 -1.51973982E+01  7.59869910E+00  7.59869910E+00 -1.51973982E+01
  7.59869910E+00  7.59869910E+00 -1.51973982E+01  7.59869910E+00  7.59869910E+00
 -1.51973982E+01  7.59869910E+00  7.59869910E+00 -1.51973982E+01  7.59869910E+00
  7.59869910E+00 -1.51973982E+01  7.59869910E+00  7.59869910E+00 -1.51973982E+01
  7.59869910E+00  7.59869910E+00 -1.51973982E+01  7.59869910E+00  7.59869910E+00
 -1.51973982E+01  7.59869910E+00  7.59869910E+00 -1.51973982E+01  7.59869910E+00
  7.59869910E+00 -1.51973982E+01  7.59869910E+00  7.59869910E+00 -1.51973982E+01
  7.59869910E+00  7.59869910E+00 -1.51973982E+01  7.59869910E+00  7.59869910E+00
 -1.51973982E+01  7.59869910E+00  7.59869910E+00 -1.51973982E+01  7.59869910E+00
  7.59869910E+00 -1.51973982E+01  7.59869910E+00  7.59869910E+00 -1.51973982E+01
  7.59869910E+00  7.59869910E+00 -1.51973982E+01  7.59869910E+00  7.59869910E+00
 -1.51973982E+01  7.59869910E+00  7.59869910E+00 -1.51973982E+01  7.59869910E+00
  7.59869910E+00 -1.51973982E+01  7.59869910E+00  7.59869910E+00 -1.51973982E+01
  7.59869910E+00  7.59869910E+00 -1.51973982E+01  7.59869910E+00  7.59869910E+00
 -1.51973982E+01  7.59869910E+00  7.59869910E+00 -1.51973982E+01  7.59869910E+00
  7.59869910E+00 -1.51973982E+01  7.59869910E+00  7.59869910E+00 -1.51973982E+01
  7.59869910E+00  7.59869910E+00 -1.51973982E+01  7.59869910E+00  7.59869910E+00
 -1.51973982E+01  7.59869910E+00  7.59869910E+00 -1.51973982E+01  7.59869910E+00
  7.59869910E+00 -1.51973982E+01  7.59869910E+00  7.59869910E+00 -1.51973982E+01
  7.59869910E+00  7.59869910E+00 -1.51973982E+01  7.59869910E+00  7.59869910E+00
 -1.51973982E+01  7.59869910E+00  7.59869910E+00 -1.51973982E+01  7.59869910E+00
  7.59869910E+00 -1.51973982E+01  7.59869910E+00  7.59869910E+00 -1.51973982E+01
  7.59869910E+00  7.59869910E+00 -1.51973982E+01  7.59869910E+00  7.59869910E+00
 -1.51973982E+01  7.59869910E+00  7.59869910E+00 -1.51973982E+01  7.59869910E+00
  7.59869910E+00 -1.51973982E+01  7.59869910E+00  7.59869910E+00 -1.51973982E+01
  7.59869910E+00  7.59869910E+00 -1.51973982E+01  7.59869910E+00  7.59869910E+00
 -1.51973982E+01  7.59869910E+00  7.59869910E+00 -1.51973982E+01  7.59869910E+00
  7.59869910E+00 -1.51973982E+01  7.59869910E+00  7.59869910E+00 -1.51973982E+01
  7.59869910E+00  7.59869910E+00 -1.51973982E+01  7.59869910E+00  7.59869910E+00
 -1.51973982E+01  7.59869910E+00  7.59869910E+00 -1.51973982E+01  7.59869910E+00
  7.59869910E+00 -1.51973982E+01  7.59869910E+00  7.59869910E+00 -1.51973982E+01
  7.59869910E+00  7.59869910E+00 -1.51973982E+01  7.59869910E+00  7.59869910E+00
 -1.51973982E+01  7.59869910E+00  7.59869910E+00 -1.51973982E+01  7.59869910E+00
  7.59869910E+00 -1.51973982E+01  7.59869910E+00  7.59869910E+00 -1.51973982E+01
  7.59869910E+00  7.59869910E+00 -1.51973982E+01  7.59869910E+00  7.59869910E+00
 -1.51973982E+01  7.59869910E+00  7.59869910E+00 -1.51973982E+01  7.59869910E+00
  7.59869910E+00 -1.51973982E+01  7.59869910E+00  7.59869910E+00 -1.51973982E+01
  7.59869910E+00  7.59869910E+00 -1.51973982E+01  7.59869910E+00  7.59869910E+00
 -1.51973982E+01  7.59869910E+00  7.59869910E+00 -1.51973982E+01  7.59869910E+00
  7.59869910E+00 -1.51973982E+01  7.59869910E+00  7.59869910E+00 -1.51973982E+01
  7.59869910E+00  7.59869910E+00 -1.51973982E+01  7.59869910E+00  7.59869910E+00
 -1.51973982E+01  7.59869910E+00  7.59869910E+00 -1.51973982E+01  7.59869910E+00
  7.59869910E+00 -1.51973982E+01  7.59869910E+00  7.59869910E+00 -1.51973982E+01
  7.59869910E+00  7.59869910E+00 -1.51973982E+01  7.59869910E+00  7.59869910E+00
 -1.51973982E+01  7.59869910E+00  7.59869910E+00 -1.51973982E+01  7.59869910E+00
  7.59869910E+00 -1.51973982E+01  7.59869910E+00  7.59869910E+00 -1.51973982E+01
  7.59869910E+00  7.59869910E+00 -1.51973982E+01  7.59869910E+00  7.59869910E+00
 -1.51973982E+01  7.59869910E+00  7.59869910E+00 -1.51973982E+01  7.59869910E+00
  7.59869910E+00 -1.51973982E+01  7.59869910E+00  7.59869910E+00 -1.51973982E+01
  7.59869910E+00  7.59869910E+00 -1.51973982E+01  7.59869910E+00  7.59869910E+00
 -1.51973982E+01  7.59869910E+00  7.59869910E+00 -1.51973982E+01  7.59869910E+00
  7.59869910E+00 -1.51973982E+01  7.59869910E+00  7.59869910E+00 -1.51973982E+01
  7.59869910E+00  7.59869910E+00 -1.51973982E+01  7.59869910E+00  7.59869910E+00
 -1.51973982E+01  7.59869910E+00  7.59869910E+00 -1.51973982E+01  7.59869910E+00
  7.59869910E+00 -1.51973982E+01  7.59869910E+00  7.59869910E+00 -1.51973982E+01
  7.59869910E+00  7.59869910E+00 -1.51973982E+01  7.59869910E+00  7.59869910E+00
 -1.51973982E+01  7.59869910E+00  7.59869910E+00 -1.51973982E+01  7.59869910E+00
  7.59869910E+00 -1.51973982E+01  7.59869910E+00  7.59869910E+00 -1.51973982E+01
  7.59869910E+00  7.59869910E+00 -1.51973982E+01  7.59869910E+00  7.59869910E+00
 -1.51973982E+01  7.59869910E+00  7.59869910E+00 -1.51973982E+01  7.59869910E+00
  7.59869910E+00 -1.51973982E+01  7.59869910E+00  7.59869910E+00 -1.51973982E+01
  7.59869910E+00  7.59869910E+00 -1.51973982E+01  7.59869910E+00  7.59869910E+00
 -1.51973982E+01  7.59869910E+00  7.59869910E+00 -1.51973982E+01  7.59869910E+00
  7.59869910E+00 -1.51973982E+01  7.59869910E+00  7.59869910E+00 -1.51973982E+01
  7.59869910E+00  7.59869910E+00 -1.51973982E+01  7.59869910E+00  7.59869910E+00
 -1.51973982E+01  7.59869910E+00  7.59869910E+00 -1.51973982E+01  7.59869910E+00
  7.59869910E+00 -1.51973982E+01  7.59869910E+00  7.59869910E+00 -1.51973982E+01
  7.59869910E+00  7.59869910E+00 -1.51973982E+01  7.59869910E+00  7.59869910E+00
 -1.51973982E+01  7.59869910E+00  7.59869910E+00 -1.51973982E+01  7.59869910E+00
  7.59869910E+00 -1.51973982E+01  7.59869910E+00  7.59869910E+00 -1.51973982E+01
  7.59869910E+00  7.59869910E+00 -1.51973982E+01  7.59869910E+00  7.59869910E+00
 -1.51973982E+01  7.59869910E+00  7.59869910E+00 -1.51973982E+01  7.59869910E+00
  7.59869910E+00 -1.51973982E+01  7.59869910E+00  7.59869910E+00 -1.51973982E+01
  7.59869910E+00  7.59869910E+00 -1.51973982E+01  7.59869910E+00  7.59869910E+00
 -1.51973982E+01  7.59869910E+00  7.59869910E+00 -1.51973982E+01  7.59869910E+00
  7.59869910E+00 -1.51973982E+01  7.59869910E+00  7.59869910E+00 -1.51973982E+01
  7.59869910E+00  7.59869910E+00 -1.51973982E+01  7.59869910E+00  7.59869910E+00
 -1.51973982E+01  7.59869910E+00  7.59869910E+00 -1.51973982E+01  7.59869910E+00
  7.59869910E+00 -1.51973982E+01  7.59869910E+00  7.59869910E+00 -1.51973982E+01
  7.59869910E+00  7.59869910E+00 -1.51973982E+01  7.59869910E+00  7.59869910E+00
 -1.51973982E+01  7.59869910E+00  7.59869910E+00 -1.51973982E+01  7.59869910E+00
  7.59869910E+00 -1.51973982E+01  7.59869910E+00  7.59869910E+00 -1.51973982E+01
  7.59869910E+00  7.59869910E+00 -1.51973982E+01  7.59869910E+00  7.59869910E+00
 -1.51973982E+01  7.59869910E+00  7.59869910E+00 -1.51973982E+01  7.59869910E+00
  7.59869910E+00 -1.51973982E+01  7.59869910E+00  7.59869910E+00 -1.51973982E+01
  7.59869910E+00  7.59869910E+00 -1.51973982E+01  7.59869910E+00  7.59869910E+00
 -1.51973982E+01  7.59869910E+00  7.59869910E+00 -1.51973982E+01  7.59869910E+00
  7.59869910E+00 -1.51973982E+01  7.59869910E+00  7.59869910E+00 -1.51973982E+01
  7.59869910E+00  7.59869910E+00 -1.51973982E+01  7.59869910E+00  7.59869910E+00
 -1.51973982E+01  7.59869910E+00  7.59869910E+00 -1.51973982E+01  7.59869910E+00
  7.59869910E+00 -1.51973982E+01  7.59869910E+00  7.59869910E+00 -1.51973982E+01
  7.59869910E+00  7.59869910E+00 -1.51973982E+01  7.59869910E+00  7.59869910E+00
 -1.51973982E+01  7.59869910E+00  7.59869910E+00 -1.51973982E+01  7.59869910E+00
  7.59869910E+00 -1.51973982E+01  7.59869910E+00  7.59869910E+00 -1.51973982E+01
  7.59869910E+00  7.59869910E+00 -1.51973982E+01  7.59869910E+00  7.59869910E+00
 -1.51973982E+01  7.59869910E+00  7.59869910E+00 -1.51973982E+01  7.59869910E+00
  7.59869910E+00 -1.51973982E+01  7.59869910E+00  7.59869910E+00 -1.51973982E+01
  7.59869910E+00  7.59869910E+00 -1.51973982E+01  7.59869910E+00  7.59869910E+00
 -1.51973982E+01  7.59869910E+00  7.59869910E+00 -1.51973982E+01  7.59869910E+00
  7.59869910E+00 -1.51973982E+01  7.59869910E+00  7.59869910E+00 -1.51973982E+01
  7.59869910E+00  7.59869910E+00 -1.51973982E+01  7.59869910E+00  7.59869910E+00
 -1.51973982E+01  7.59869910E+00  7.59869910E+00 -1.51973982E+01  7.59869910E+00
  7.59869910E+00 -1.51973982E+01  7.59869910E+00  7.59869910E+00 -1.51973982E+01
  7.59869910E+00  7.59869910E+00 -1.51973982E+01  7.59869910E+00  7.59869910E+00
 -1.51973982E+01  7.59869910E+00  7.59869910E+00 -1.51973982E+01  7.59869910E+00
  7.59869910E+00 -1.51973982E+01  7.59869910E+00  7.59869910E+00 -1.51973982E+01
  7.59869910E+00  7.59869910E+00 -1.51973982E+01  7.59869910E+00  7.59869910E+00
 -1.51973982E+01  7.59869910E+00  7.59869910E+00 -1.51973982E+01  7.59869910E+00
  7.59869910E+00 -1.51973982E+01  7.59869910E+00  7.59869910E+00 -1.51973982E+01
  7.59869910E+00  7.59869910E+00 -1.51973982E+01  7.59869910E+00  7.59869910E+00
 -1.51973982E+01  7.59869910E+00  7.59869910E+00 -1.51973982E+01  7.59869910E+00
  7.59869910E+00 -1.51973982E+01  7.59869910E+00  7.59869910E+00 -1.51973982E+01
  7.59869910E+00  7.59869910E+00 -1.51973982E+01  7.59869910E+00  7.59869910E+00
 -1.51973982E+01  7.59869910E+00  7.59869910E+00 -1.51973982E+01  7.59869910E+00
  7.59869910E+00 -1.51973982E+01  7.59869910E+00  7.59869910E+00 -1.51973982E+01
  7.59869910E+00  7.59869910E+00 -1.51973982E+01  7.59869910E+00  7.59869910E+00
 -1.51973982E+01  7.59869910E+00  7.59869910E+00 -1.51973982E+01  7.59869910E+00
  7.59869910E+00 -1.51973982E+01  7.59869910E+00  7.59869910E+00 -1.51973982E+01
  7.59869910E+00  7.59869910E+00 -1.51973982E+01  7.59869910E+00  7.59869910E+00
 -1.51973982E+01  7.59869910E+00  7.59869910E+00 -1.51973982E+01  7.59869910E+00
  7.59869910E+00 -1.51973982E+01  7.59869910E+00  7.59869910E+00 -1.51973982E+01
  7.59869910E+00  7.59869910E+00 -1.51973982E+01  7.59869910E+00  7.59869910E+00
 -1.51973982E+01  7.59869910E+00  7.59869910E+00 -1.51973982E+01  7.59869910E+00
  7.59869910E+00 -1.51973982E+01  7.59869910E+00  7.59869910E+00 -1.51973982E+01
  7.59869910E+00  7.59869910E+00 -1.51973982E+01  7.59869910E+00  7.59869910E+00
 -1.51973982E+01  7.59869910E+00  7.59869910E+00 -1.51973982E+01  7.59869910E+00
  7.59869910E+00 -1.51973982E+01  7.59869910E+00  7.59869910E+00 -1.51973982E+01
  7.59869910E+00  7.59869910E+00 -1.51973982E+01  7.59869910E+00  7.59869910E+00
 -1.51973982E+01  7.59869910E+00  7.59869910E+00 -1.51973982E+01  7.59869910E+00
  7.59869910E+00 -1.51973982E+01  7.59869910E+00  7.59869910E+00 -1.51973982E+01
  7.59869910E+00  7.59869910E+00 -1.51973982E+01  7.59869910E+00  7.59869910E+00
 -1.51973982E+01  7.59869910E+00  7.59869910E+00 -1.51973982E+01  7.59869910E+00
  7.59869910E+00 -1.51973982E+01  7.59869910E+00  7.59869910E+00 -1.51973982E+01
  7.59869910E+00  7.59869910E+00 -1.51973982E+01  7.59869910E+00  7.59869910E+00
 -1.51973982E+01  7.59869910E+00  7.59869910E+00 -1.51973982E+01  7.59869910E+00
  7.59869910E+00 -1.51973982E+01  7.59869910E+00  7.59869910E+00 -1.51973982E+01
  7.59869910E+00  7.59869910E+00 -1.51973982E+01  7.59869910E+00  7.59869910E+00
 -1.51973982E+01  7.59869910E+00  7.59869910E+00 -1.51973982E+01  7.59869910E+00
  7.59869910E+00 -1.51973982E+01  7.59869910E+00  7.59869910E+00 -1.51973982E+01
  7.59869910E+00  7.59869910E+00 -1.51973982E+01  7.59869910E+00  7.59869910E+00
 -1.51973982E+01  7.59869910E+00  7.59869910E+00 -1.51973982E+01  7.59869910E+00
  7.59869910E+00 -1.51973982E+01  7.59869910E+00  7.59869910E+00 -1.51973982E+01
  7.59869910E+00  7.59869910E+00 -1.51973982E+01  7.59869910E+00  7.59869910E+00
 -1.51973982E+01  7.59869910E+00  7.59869910E+00 -1.51973982E+01  7.59869910E+00
  7.59869910E+00 -1.51973982E+01  7.59869910E+00  7.59869910E+00 -1.51973982E+01
  7.59869910E+00  7.59869910E+00 -1.51973982E+01  7.59869910E+00  7.59869910E+00
 -1.51973982E+01  7.59869910E+00  7.59869910E+00 -1.51973982E+01  7.59869910E+00
  7.59869910E+00 -1.51973982E+01  7.59869910E+00  7.59869910E+00 -1.51973982E+01
  7.59869910E+00  7.59869910E+00 -1.51973982E+01  7.59869910E+00  7.59869910E+00
 -1.51973982E+01  7.59869910E+00  7.59869910E+00 -1.51973982E+01  7.59869910E+00
  7.59869910E+00 -1.51973982E+01  7.59869910E+00  7.59869910E+00 -1.51973982E+01
  7.59869910E+00  7.59869910E+00 -1.51973982E+01  7.59869910E+00  7.59869910E+00
 -1.51973982E+01  7.59869910E+00  7.59869910E+00 -1.51973982E+01  7.59869910E+00
  7.59869910E+00 -1.51973982E+01  7.59869910E+00  7.59869910E+00 -1.51973982E+01
  7.59869910E+00  7.59869910E+00 -1.51973982E+01  7.59869910E+00  7.59869910E+00
 -1.51973982E+01  7.59869910E+00  7.59869910E+00 -1.51973982E+01  7.59869910E+00
  7.59869910E+00 -1.51973982E+01  7.59869910E+00  7.59869910E+00 -1.51973982E+01
  7.59869910E+00  7.59869910E+00 -1.51973982E+01  7.59869910E+00  7.59869910E+00
 -1.51973982E+01  7.59869910E+00  7.59869910E+00 -1.51973982E+01  7.59869910E+00
  7.59869910E+00 -1.51973982E+01  7.59869910E+00  7.59869910E+00 -1.51973982E+01
  7.59869910E+00  7.59869910E+00 -1.51973982E+01  7.59869910E+00  7.59869910E+00
 -1.51973982E+01  7.59869910E+00  7.59869910E+00 -1.51973982E+01  7.59869910E+00
  7.59869910E+00 -1.51973982E+01  7.59869910E+00  7.59869910E+00 -1.51973982E+01
  7.59869910E+00  7.59869910E+00 -1.51973982E+01  7.59869910E+00  7.59869910E+00
 -1.51973982E+01  7.59869910E+00  7.59869910E+00 -1.51973982E+01  7.59869910E+00
  7.59869910E+00 -1.51973982E+01  7.59869910E+00  7.59869910E+00 -1.51973982E+01
  7.59869910E+00  7.59869910E+00 -1.51973982E+01  7.59869910E+00  7.59869910E+00
 -1.51973982E+01  7.59869910E+00  7.59869910E+00 -1.51973982E+01  7.59869910E+00
  7.59869910E+00 -1.51973982E+01  7.59869910E+00  7.59869910E+00 -1.51973982E+01
  7.59869910E+00  7.59869910E+00 -1.51973982E+01  7.59869910E+00  7.59869910E+00
 -1.51973982E+01  7.59869910E+00  7.59869910E+00 -1.51973982E+01  7.59869910E+00
  7.59869910E+00 -1.51973982E+01  7.59869910E+00  7.59869910E+00 -1.51973982E+01
  7.59869910E+00  7.59869910E+00 -1.51973982E+01  7.59869910E+00  7.59869910E+00
 -1.51973982E+01  7.59869910E+00  7.59869910E+00 -1.51973982E+01  7.59869910E+00
  7.59869910E+00 -1.51973982E+01  7.59869910E+00  7.59869910E+00 -1.51973982E+01
  7.59869910E+00  7.59869910E+00 -1.51973982E+01  7.59869910E+00  7.59869910E+00
 -1.51973982E+01  7.59869910E+00  7.59869910E+00 -1.51973982E+01  7.59869910E+00
  7.59869910E+00 -1.51973982E+01  7.59869910E+00  7.59869910E+00 -1.51973982E+01
  7.59869910E+00  7.59869910E+00 -1.51973982E+01  7.59869910E+00  7.59869910E+00
 -1.51973982E+01  7.59869910E+00  7.59869910E+00 -1.51973982E+01  7.59869910E+00
  7.59869910E+00 -1.51973982E+01  7.59869910E+00  7.59869910E+00 -1.51973982E+01
  7.59869910E+00  7.59869910E+00 -1.51973982E+01  7.59869910E+00  7.59869910E+00
 -1.51973982E+01  7.59869910E+00  7.59869910E+00 -1.51973982E+01  7.59869910E+00
  7.59869910E+00 -1.51973982E+01  7.59869910E+00  7.59869910E+00 -1.51973982E+01
  7.59869910E+00  7.59869910E+00 -1.51973982E+01  7.59869910E+00  7.59869910E+00
 -1.51973982E+01  7.59869910E+00  7.59869910E+00 -1.51973982E+01  7.59869910E+00
  7.59869910E+00 -1.51973982E+01  7.59869910E+00  7.59869910E+00 -1.51973982E+01
  7.59869910E+00  7.59869910E+00 -1.51973982E+01  7.59869910E+00  7.59869910E+00
 -1.51973982E+01  7.59869910E+00  7.59869910E+00 -1.51973982E+01  7.59869910E+00
  7.59869910E+00 -1.51973982E+01  7.59869910E+00  7.59869910E+00 -1.51973982E+01
  7.59869910E+00  7.59869910E+00 -1.51973982E+01  7.59869910E+00  7.59869910E+00
 -1.51973982E+01  7.59869910E+00  7.59869910E+00 -1.51973982E+01  7.59869910E+00
  7.59869910E+00 -1.51973982E+01  7.59869910E+00  7.59869910E+00 -1.51973982E+01
  7.59869910E+00  7.59869910E+00 -1.51973982E+01  7.59869910E+00  7.59869910E+00
 -1.51973982E+01  7.59869910E+00  7.59869910E+00 -1.51973982E+01  7.59869910E+00
  7.59869910E+00 -1.51973982E+01  7.59869910E+00  7.59869910E+00 -1.51973982E+01
  7.59869910E+00  7.59869910E+00 -1.51973982E+01  7.59869910E+00  7.59869910E+00
 -1.51973982E+01  7.59869910E+00  7.59869910E+00 -1.51973982E+01  7.59869910E+00
  7.59869910E+00 -1.51973982E+01  7.59869910E+00  7.59869910E+00 -1.51973982E+01
  7.59869910E+00  7.59869910E+00 -1.51973982E+01  7.59869910E+00  7.59869910E+00
 -1.51973982E+01  7.59869910E+00  7.59869910E+00 -1.51973982E+01  7.59869910E+00
  7.59869910E+00 -1.51973982E+01  7.59869910E+00  7.59869910E+00 -1.51973982E+01
  7.59869910E+00  7.59869910E+00 -1.51973982E+01  7.59869910E+00  7.59869910E+00
 -1.51973982E+01  7.59869910E+00  7.59869910E+00 -1.51973982E+01  7.59869910E+00
  7.59869910E+00 -1.51973982E+01  7.59869910E+00  7.59869910E+00 -1.51973982E+01
  7.59869910E+00  7.59869910E+00 -1.51973982E+01  7.59869910E+00  7.59869910E+00
 -1.51973982E+01  7.59869910E+00  7.59869910E+00 -1.51973982E+01  7.59869910E+00
  7.59869910E+00 -1.51973982E+01  7.59869910E+00  7.59869910E+00 -1.51973982E+01
  7.59869910E+00  7.59869910E+00 -1.51973982E+01  7.59869910E+00  7.59869910E+00
 -1.51973982E+01  7.59869910E+00  7.59869910E+00 -1.51973982E+01  7.59869910E+00
  7.59869910E+00 -1.51973982E+01  7.59869910E+00  7.59869910E+00 -1.51973982E+01
  7.59869910E+00  7.59869910E+00 -1.51973982E+01  7.59869910E+00  7.59869910E+00
 -1.51973982E+01  7.59869910E+00  7.59869910E+00 -1.51973982E+01  7.59869910E+00
  7.59869910E+00 -1.51973982E+01  7.59869910E+00  7.59869910E+00 -1.51973982E+01
  7.59869910E+00  7.59869910E+00 -1.51973982E+01  7.59869910E+00  7.59869910E+00
 -1.51973982E+01  7.59869910E+00  7.59869910E+00 -1.51973982E+01  7.59869910E+00
  7.59869910E+00 -1.51973982E+01  7.59869910E+00  7.59869910E+00 -1.51973982E+01
  7.59869910E+00  7.59869910E+00 -1.51973982E+01  7.59869910E+00  7.59869910E+00
 -1.51973982E+01  7.59869910E+00  7.59869910E+00 -1.51973982E+01  7.59869910E+00
  7.59869910E+00 -1.51973982E+01  7.59869910E+00  7.59869910E+00 -1.51973982E+01
  7.59869910E+00  7.59869910E+00 -1.51973982E+01  7.59869910E+00  7.59869910E+00
 -1.51973982E+01  7.59869910E+00  7.59869910E+00 -1.51973982E+01  7.59869910E+00
  7.59869910E+00 -1.51973982E+01  7.59869910E+00  7.59869910E+00 -1.51973982E+01
  7.59869910E+00  7.59869910E+00 -1.51973982E+01  7.59869910E+00  7.59869910E+00
 -1.51973982E+01  7.59869910E+00  7.59869910E+00 -1.51973982E+01  7.59869910E+00
  7.59869910E+00 -1.51973982E+01  7.59869910E+00  7.59869910E+00 -1.51973982E+01
  7.59869910E+00  7.59869910E+00 -1.51973982E+01  7.59869910E+00  7.59869910E+00
 -1.51973982E+01  7.59869910E+00  7.59869910E+00 -1.51973982E+01  7.59869910E+00
  7.59869910E+00 -1.51973982E+01  7.59869910E+00  7.59869910E+00 -1.51973982E+01
  7.59869910E+00  7.59869910E+00 -1.51973982E+01  7.59869910E+00  7.59869910E+00
 -1.51973982E+01  7.59869910E+00  7.59869910E+00 -1.51973982E+01  7.59869910E+00
  7.59869910E+00 -1.51973982E+01  7.59869910E+00  7.59869910E+00 -1.51973982E+01
  7.59869910E+00  7.59869910E+00 -1.51973982E+01  7.59869910E+00  7.59869910E+00
 -1.51973982E+01  7.59869910E+00  7.59869910E+00 -1.51973982E+01  7.59869910E+00
  7.59869910E+00 -1.51973982E+01  7.59869910E+00  7.59869910E+00 -1.51973982E+01
  7.59869910E+00  7.59869910E+00 -1.51973982E+01  7.59869910E+00  7.59869910E+00
 -1.51973982E+01  7.59869910E+00  7.59869910E+00 -1.51973982E+01  7.59869910E+00
  7.59869910E+00 -1.51973982E+01  7.59869910E+00  7.59869910E+00 -1.51973982E+01
  7.59869910E+00  7.59869910E+00 -1.51973982E+01  7.59869910E+00  7.59869910E+00
 -1.51973982E+01  7.59869910E+00  7.59869910E+00 -1.51973982E+01  7.59869910E+00
  7.59869910E+00 -1.51973982E+01  7.59869910E+00  7.59869910E+00 -1.51973982E+01
  7.59869910E+00  7.59869910E+00 -1.51973982E+01  7.59869910E+00  7.59869910E+00
 -1.51973982E+01  7.59869910E+00  7.59869910E+00 -1.51973982E+01  7.59869910E+00
  7.59869910E+00 -1.51973982E+01  7.59869910E+00  7.59869910E+00 -1.51973982E+01
  7.59869910E+00  7.59869910E+00 -1.51973982E+01  7.59869910E+00  7.59869910E+00
 -1.51973982E+01  7.59869910E+00  7.59869910E+00 -1.51973982E+01  7.59869910E+00
  7.59869910E+00 -1.51973982E+01  7.59869910E+00  7.59869910E+00 -1.51973982E+01
  7.59869910E+00  7.59869910E+00 -1.51973982E+01  7.59869910E+00  7.59869910E+00
 -1.51973982E+01  7.59869910E+00  7.59869910E+00 -1.51973982E+01  7.59869910E+00
  7.59869910E+00 -1.51973982E+01  7.59869910E+00  7.59869910E+00 -1.51973982E+01
  7.59869910E+00  7.59869910E+00 -1.51973982E+01  7.59869910E+00  7.59869910E+00
 -1.51973982E+01  7.59869910E+00  7.59869910E+00 -1.51973982E+01  7.59869910E+00
  7.59869910E+00 -1.51973982E+01  7.59869910E+00  7.59869910E+00 -1.51973982E+01
  7.59869910E+00  7.59869910E+00 -1.51973982E+01  7.59869910E+00  7.59869910E+00
 -1.51973982E+01  7.59869910E+00  7.59869910E+00 -1.51973982E+01  7.59869910E+00
  7.59869910E+00 -1.51973982E+01  7.59869910E+00  7.59869910E+00 -1.51973982E+01
  7.59869910E+00  7.59869910E+00 -1.51973982E+01  7.59869910E+00  7.59869910E+00
 -1.51973982E+01  7.59869910E+00  7.59869910E+00 -1.51973982E+01  7.59869910E+00
  7.59869910E+00 -1.51973982E+01  7.59869910E+00  7.59869910E+00 -1.51973982E+01
  7.59869910E+00  7.59869910E+00 -1.51973982E+01  7.59869910E+00  7.59869910E+00
 -1.51973982E+01  7.59869910E+00  7.59869910E+00 -1.51973982E+01  7.59869910E+00
  7.59869910E+00 -1.51973982E+01  7.59869910E+00  7.59869910E+00 -1.51973982E+01
  7.59869910E+00  7.59869910E+00 -1.51973982E+01  7.59869910E+00  7.59869910E+00
 -1.51973982E+01  7.59869910E+00  7.59869910E+00 -1.51973982E+01  7.59869910E+00
  7.59869910E+00 -1.51973982E+01  7.59869910E+00  7.59869910E+00 -1.51973982E+01
  7.59869910E+00  7.59869910E+00 -1.51973982E+01  7.59869910E+00  7.59869910E+00
 -1.51973982E+01  7.59869910E+00  7.59869910E+00 -1.51973982E+01  7.59869910E+00
  7.59869910E+00 -1.51973982E+01  7.59869910E+00  7.59869910E+00 -1.51973982E+01
  7.59869910E+00  7.59869910E+00 -1.51973982E+01  7.59869910E+00  7.59869910E+00
 -1.51973982E+01  7.59869910E+00  7.59869910E+00 -1.51973982E+01  7.59869910E+00
  7.59869910E+00 -1.51973982E+01  7.59869910E+00  7.59869910E+00 -1.51973982E+01
  7.59869910E+00  7.59869910E+00 -1.51973982E+01  7.59869910E+00  7.59869910E+00
 -1.51973982E+01  7.59869910E+00  7.59869910E+00 -1.51973982E+01  7.59869910E+00
  7.59869910E+00 -1.51973982E+01  7.59869910E+00  7.59869910E+00 -1.51973982E+01
  7.59869910E+00  7.59869910E+00 -1.51973982E+01  7.59869910E+00  7.59869910E+00
 -1.51973982E+01  7.59869910E+00  7.59869910E+00 -1.51973982E+01  7.59869910E+00
  7.59869910E+00 -1.51973982E+01  7.59869910E+00  7.59869910E+00 -1.51973982E+01
  7.59869910E+00  7.59869910E+00 -1.51973982E+01  7.59869910E+00  7.59869910E+00
 -1.51973982E+01  7.59869910E+00  7.59869910E+00 -1.51973982E+01  7.59869910E+00
  7.59869910E+00 -1.51973982E+01  7.59869910E+00  7.59869910E+00 -1.51973982E+01
  7.59869910E+00  7.59869910E+00 -1.51973982E+01  7.59869910E+00  7.59869910E+00
 -1.51973982E+01  7.59869910E+00  7.59869910E+00 -1.51973982E+01  7.59869910E+00
  7.59869910E+00 -1.51973982E+01  7.59869910E+00  7.59869910E+00 -1.51973982E+01
  7.59869910E+00  7.59869910E+00 -1.51973982E+01  7.59869910E+00  7.59869910E+00
 -1.51973982E+01  7.59869910E+00  7.59869910E+00 -1.51973982E+01  7.59869910E+00
  7.59869910E+00 -1.51973982E+01  7.59869910E+00  7.59869910E+00 -1.51973982E+01
  7.59869910E+00  7.59869910E+00 -1.51973982E+01  7.59869910E+00  7.59869910E+00
 -1.51973982E+01  7.59869910E+00  7.59869910E+00 -1.51973982E+01  7.59869910E+00
  7.59869910E+00 -1.51973982E+01  7.59869910E+00  7.59869910E+00 -1.51973982E+01
  7.59869910E+00  7.59869910E+00 -1.51973982E+01  7.59869910E+00  7.59869910E+00
 -1.51973982E+01  7.59869910E+00  7.59869910E+00 -1.51973982E+01  7.59869910E+00
  7.59869910E+00 -1.51973982E+01  7.59869910E+00  7.59869910E+00 -1.51973982E+01
  7.59869910E+00  7.59869910E+00 -1.51973982E+01  7.59869910E+00  7.59869910E+00
 -1.51973982E+01  7.59869910E+00  7.59869910E+00 -1.51973982E+01  7.59869910E+00
  7.59869910E+00 -1.51973982E+01  7.59869910E+00  7.59869910E+00 -1.51973982E+01
  7.59869910E+00  7.59869910E+00 -1.51973982E+01  7.59869910E+00  7.59869910E+00
 -1.51973982E+01  7.59869910E+00  7.59869910E+00 -1.51973982E+01  7.59869910E+00
  7.59869910E+00 -1.51973982E+01  7.59869910E+00  7.59869910E+00 -1.51973982E+01
  7.59869910E+00  7.59869910E+00 -1.51973982E+01  7.59869910E+00  7.59869910E+00
 -1.51973982E+01  7.59869910E+00  7.59869910E+00 -1.51973982E+01  7.59869910E+00
  7.59869910E+00 -1.51973982E+01  7.59869910E+00  7.59869910E+00 -1.51973982E+01
  7.59869910E+00  7.59869910E+00 -1.51973982E+01  7.59869910E+00  7.59869910E+00
 -1.51973982E+01  7.59869910E+00  7.59869910E+00 -1.51973982E+01  7.59869910E+00
  7.59869910E+00 -1.51973982E+01  7.59869910E+00  7.59869910E+00 -1.51973982E+01
  7.59869910E+00  7.59869910E+00 -1.51973982E+01  7.59869910E+00  7.59869910E+00
 -1.51973982E+01  7.59869910E+00  7.59869910E+00 -1.51973982E+01  7.59869910E+00
  7.59869910E+00 -1.51973982E+01  7.59869910E+00  7.59869910E+00 -1.51973982E+01
  7.59869910E+00  7.59869910E+00 -1.51973982E+01  7.59869910E+00  7.59869910E+00
 -1.51973982E+01  7.59869910E+00  7.59869910E+00 -1.51973982E+01  7.59869910E+00
  7.59869910E+00 -1.51973982E+01  7.59869910E+00  7.59869910E+00 -1.51973982E+01
  7.59869910E+00  7.59869910E+00 -1.51973982E+01  7.59869910E+00  7.59869910E+00
 -1.51973982E+01  7.59869910E+00  7.59869910E+00 -1.51973982E+01  7.59869910E+00
  7.59869910E+00 -1.51973982E+01  7.59869910E+00  7.59869910E+00 -1.51973982E+01
  7.59869910E+00  7.59869910E+00 -1.51973982E+01  7.59869910E+00  7.59869910E+00
 -1.51973982E+01  7.59869910E+00  7.59869910E+00 -1.51973982E+01  7.59869910E+00
  7.59869910E+00 -1.51973982E+01  7.59869910E+00  7.59869910E+00 -1.51973982E+01
  7.59869910E+00  7.59869910E+00 -1.51973982E+01  7.59869910E+00  7.59869910E+00
 -1.51973982E+01  7.59869910E+00  7.59869910E+00 -1.51973982E+01  7.59869910E+00
  7.59869910E+00 -1.51973982E+01  7.59869910E+00  7.59869910E+00 -1.51973982E+01
  7.59869910E+00  7.59869910E+00 -1.51973982E+01  7.59869910E+00  7.59869910E+00
 -1.51973982E+01  7.59869910E+00  7.59869910E+00 -1.51973982E+01  7.59869910E+00
  7.59869910E+00 -1.51973982E+01  7.59869910E+00  7.59869910E+00 -1.51973982E+01
  7.59869910E+00  7.59869910E+00 -1.51973982E+01  7.59869910E+00  7.59869910E+00
 -1.51973982E+01  7.59869910E+00  7.59869910E+00 -1.51973982E+01  7.59869910E+00
  7.59869910E+00 -1.51973982E+01  7.59869910E+00  7.59869910E+00 -1.51973982E+01
  7.59869910E+00  7.59869910E+00 -1.51973982E+01  7.59869910E+00  7.59869910E+00
 -1.51973982E+01  7.59869910E+00  7.59869910E+00 -1.51973982E+01  7.59869910E+00
  7.59869910E+00 -1.51973982E+01  7.59869910E+00  7.59869910E+00 -1.51973982E+01
  7.59869910E+00  7.59869910E+00 -1.51973982E+01  7.59869910E+00  7.59869910E+00
 -1.51973982E+01  7.59869910E+00  7.59869910E+00 -1.51973982E+01  7.59869910E+00
  7.59869910E+00 -1.51973982E+01  7.59869910E+00  7.59869910E+00 -1.51973982E+01
  7.59869910E+00  7.59869910E+00 -1.51973982E+01  7.59869910E+00  7.59869910E+00
 -1.51973982E+01  7.59869910E+00  7.59869910E+00 -1.51973982E+01  7.59869910E+00
  7.59869910E+00 -1.51973982E+01  7.59869910E+00  7.59869910E+00 -1.51973982E+01
  7.59869910E+00  7.59869910E+00 -1.51973982E+01  7.59869910E+00  7.59869910E+00
 -1.51973982E+01  7.59869910E+00  7.59869910E+00 -1.51973982E+01  7.59869910E+00
  7.59869910E+00 -1.51973982E+01  7.59869910E+00  7.59869910E+00 -1.51973982E+01
  7.59869910E+00  7.59869910E+00 -1.51973982E+01  7.59869910E+00  7.59869910E+00
 -1.51973982E+01  7.59869910E+00  7.59869910E+00 -1.51973982E+01  7.59869910E+00
  7.59869910E+00 -1.51973982E+01  7.59869910E+00  7.59869910E+00 -1.51973982E+01
  7.59869910E+00  7.59869910E+00 -1.51973982E+01  7.59869910E+00  7.59869910E+00
 -1.51973982E+01  7.59869910E+00  7.59869910E+00 -1.51973982E+01  7.59869910E+00
  7.59869910E+00 -1.51973982E+01  7.59869910E+00  7.59869910E+00 -1.51973982E+01
  7.59869910E+00  7.59869910E+00 -1.51973982E+01  7.59869910E+00  7.59869910E+00
 -1.51973982E+01  7.59869910E+00  7.59869910E+00 -1.51973982E+01  7.59869910E+00
  7.59869910E+00 -1.51973982E+01  7.59869910E+00  7.59869910E+00 -1.51973982E+01
  7.59869910E+00  7.59869910E+00 -1.51973982E+01  7.59869910E+00  7.59869910E+00
 -1.51973982E+01  7.59869910E+00  7.59869910E+00 -1.51973982E+01  7.59869910E+00
  7.59869910E+00 -1.51973982E+01  7.59869910E+00  7.59869910E+00 -1.51973982E+01
  7.59869910E+00  7.59869910E+00 -1.51973982E+01  7.59869910E+00  7.59869910E+00
 -1.51973982E+01  7.59869910E+00  7.59869910E+00 -1.51973982E+01  7.59869910E+00
  7.59869910E+00 -1.51973982E+01  7.59869910E+00  7.59869910E+00 -1.51973982E+01
  7.59869910E+00  7.59869910E+00 -1.51973982E+01  7.59869910E+00  7.59869910E+00
 -1.51973982E+01  7.59869910E+00  7.59869910E+00 -1.51973982E+01  7.59869910E+00
  7.59869910E+00 -1.51973982E+01  7.59869910E+00  7.59869910E+00 -1.51973982E+01
  7.59869910E+00  7.59869910E+00 -1.51973982E+01  7.59869910E+00  7.59869910E+00
 -1.51973982E+01  7.59869910E+00  7.59869910E+00 -1.51973982E+01  7.59869910E+00
  7.59869910E+00 -1.51973982E+01  7.59869910E+00  7.59869910E+00 -1.51973982E+01
  7.59869910E+00  7.59869910E+00 -1.51973982E+01  7.59869910E+00  7.59869910E+00
 -1.51973982E+01  7.59869910E+00  7.59869910E+00 -1.51973982E+01  7.59869910E+00
  7.59869910E+00 -1.51973982E+01  7.59869910E+00  7.59869910E+00 -1.51973982E+01
  7.59869910E+00  7.59869910E+00 -1.51973982E+01  7.59869910E+00  7.59869910E+00
 -1.51973982E+01  7.59869910E+00  7.59869910E+00 -1.51973982E+01  7.59869910E+00
  7.59869910E+00 -1.51973982E+01  7.59869910E+00  7.59869910E+00 -1.51973982E+01
  7.59869910E+00  7.59869910E+00 -1.51973982E+01  7.59869910E+00  7.59869910E+00
 -1.51973982E+01  7.59869910E+00  7.59869910E+00 -1.51973982E+01  7.59869910E+00
  7.59869910E+00 -1.51973982E+01  7.59869910E+00  7.59869910E+00 -1.51973982E+01
  7.59869910E+00  7.59869910E+00 -1.51973982E+01  7.59869910E+00  7.59869910E+00
 -1.51973982E+01  7.59869910E+00  7.59869910E+00 -1.51973982E+01  7.59869910E+00
  7.59869910E+00 -1.51973982E+01  7.59869910E+00  7.59869910E+00 -1.51973982E+01
  7.59869910E+00  7.59869910E+00 -1.51973982E+01  7.59869910E+00  7.59869910E+00
 -1.51973982E+01  7.59869910E+00  7.59869910E+00 -1.51973982E+01  7.59869910E+00
  7.59869910E+00 -1.51973982E+01  7.59869910E+00  7.59869910E+00 -1.51973982E+01
  7.59869910E+00  7.59869910E+00 -1.51973982E+01  7.59869910E+00  7.59869910E+00
 -1.51973982E+01  7.59869910E+00  7.59869910E+00 -1.51973982E+01  7.59869910E+00
  7.59869910E+00 -1.51973982E+01  7.59869910E+00  7.59869910E+00 -1.51973982E+01
  7.59869910E+00  7.59869910E+00 -1.51973982E+01  7.59869910E+00  7.59869910E+00
 -1.51973982E+01  7.59869910E+00  7.59869910E+00 -1.51973982E+01  7.59869910E+00
  7.59869910E+00 -1.51973982E+01  7.59869910E+00  7.59869910E+00 -1.51973982E+01
  7.59869910E+00  7.59869910E+00 -1.51973982E+01  7.59869910E+00  7.59869910E+00
 -1.51973982E+01  7.59869910E+00  7.59869910E+00 -1.51973982E+01  7.59869910E+00
  7.59869910E+00 -1.51973982E+01  7.59869910E+00  7.59869910E+00 -1.51973982E+01
  7.59869910E+00  7.59869910E+00 -1.51973982E+01  7.59869910E+00  7.59869910E+00
 -1.51973982E+01  7.59869910E+00  7.59869910E+00 -1.51973982E+01  7.59869910E+00
  7.59869910E+00 -1.51973982E+01  7.59869910E+00  7.59869910E+00 -1.51973982E+01
  7.59869910E+00  7.59869910E+00 -1.51973982E+01  7.59869910E+00  7.59869910E+00
 -1.51973982E+01  7.59869910E+00  7.59869910E+00 -1.51973982E+01  7.59869910E+00
  7.59869910E+00 -1.51973982E+01  7.59869910E+00  7.59869910E+00 -1.51973982E+01
  7.59869910E+00  7.59869910E+00 -1.51973982E+01  7.59869910E+00  7.59869910E+00
 -1.51973982E+01  7.59869910E+00  7.59869910E+00 -1.51973982E+01  7.59869910E+00
  7.59869910E+00 -1.51973982E+01  7.59869910E+00  7.59869910E+00 -1.51973982E+01
  7.59869910E+00  7.59869910E+00 -1.51973982E+01  7.59869910E+00  7.59869910E+00
 -1.51973982E+01  7.59869910E+00  7.59869910E+00 -1.51973982E+01  7.59869910E+00
  7.59869910E+00 -1.51973982E+01  7.59869910E+00  7.59869910E+00 -1.51973982E+01
  7.59869910E+00  7.59869910E+00 -1.51973982E+01  7.59869910E+00  7.59869910E+00
 -1.51973982E+01  7.59869910E+00  7.59869910E+00 -1.51973982E+01  7.59869910E+00
  7.59869910E+00 -1.51973982E+01  7.59869910E+00  7.59869910E+00 -1.51973982E+01
  7.59869910E+00  7.59869910E+00 -1.51973982E+01  7.59869910E+00  7.59869910E+00
 -1.51973982E+01  7.59869910E+00  7.59869910E+00 -1.51973982E+01  7.59869910E+00
  7.59869910E+00 -1.51973982E+01  7.59869910E+00  7.59869910E+00 -1.51973982E+01
  7.59869910E+00  7.59869910E+00 -1.51973982E+01  7.59869910E+00  7.59869910E+00
 -1.51973982E+01  7.59869910E+00  7.59869910E+00 -1.51973982E+01  7.59869910E+00
  7.59869910E+00 -1.51973982E+01  7.59869910E+00  7.59869910E+00 -1.51973982E+01
  7.59869910E+00  7.59869910E+00 -1.51973982E+01  7.59869910E+00  7.59869910E+00
 -1.51973982E+01  7.59869910E+00  7.59869910E+00 -1.51973982E+01  7.59869910E+00
  7.59869910E+00 -1.51973982E+01  7.59869910E+00  7.59869910E+00 -1.51973982E+01
  7.59869910E+00  7.59869910E+00 -1.51973982E+01  7.59869910E+00  7.59869910E+00
 -1.51973982E+01  7.59869910E+00  7.59869910E+00 -1.51973982E+01  7.59869910E+00
  7.59869910E+00 -1.51973982E+01  7.59869910E+00  7.59869910E+00 -1.51973982E+01
  7.59869910E+00  7.59869910E+00 -1.51973982E+01  7.59869910E+00  7.59869910E+00
 -1.51973982E+01  7.59869910E+00  7.59869910E+00 -1.51973982E+01  7.59869910E+00
  7.59869910E+00 -1.51973982E+01  7.59869910E+00  7.59869910E+00 -1.51973982E+01
  7.59869910E+00  7.59869910E+00 -1.51973982E+01  7.59869910E+00  7.59869910E+00
 -1.51973982E+01  7.59869910E+00  7.59869910E+00 -1.51973982E+01  7.59869910E+00
  7.59869910E+00 -1.51973982E+01  7.59869910E+00  7.59869910E+00 -1.51973982E+01
  7.59869910E+00  7.59869910E+00 -1.51973982E+01  7.59869910E+00  7.59869910E+00
 -1.51973982E+01  7.59869910E+00  7.59869910E+00 -1.51973982E+01  7.59869910E+00
  7.59869910E+00 -1.51973982E+01  7.59869910E+00  7.59869910E+00 -1.51973982E+01
  7.59869910E+00  7.59869910E+00 -1.51973982E+01  7.59869910E+00  7.59869910E+00
 -1.51973982E+01  7.59869910E+00  7.59869910E+00 -1.51973982E+01  7.59869910E+00
  7.59869910E+00 -1.51973982E+01  7.59869910E+00  7.59869910E+00 -1.51973982E+01
  7.59869910E+00  7.59869910E+00 -1.51973982E+01  7.59869910E+00  7.59869910E+00
 -1.51973982E+01  7.59869910E+00  7.59869910E+00 -1.51973982E+01  7.59869910E+00
  7.59869910E+00 -1.51973982E+01  7.59869910E+00  7.59869910E+00 -1.51973982E+01
  7.59869910E+00  7.59869910E+00 -1.51973982E+01  7.59869910E+00  7.59869910E+00
 -1.51973982E+01  7.59869910E+00  7.59869910E+00 -1.51973982E+01  7.59869910E+00
  7.59869910E+00 -1.51973982E+01  7.59869910E+00  7.59869910E+00 -1.51973982E+01
  7.59869910E+00  7.59869910E+00 -1.51973982E+01  7.59869910E+00  7.59869910E+00
 -1.51973982E+01  7.59869910E+00  7.59869910E+00 -1.51973982E+01  7.59869910E+00
  7.59869910E+00 -1.51973982E+01  7.59869910E+00  7.59869910E+00 -1.51973982E+01
  7.59869910E+00  7.59869910E+00 -1.51973982E+01  7.59869910E+00  7.59869910E+00
 -1.51973982E+01  7.59869910E+00  7.59869910E+00 -1.51973982E+01  7.59869910E+00
  7.59869910E+00 -1.51973982E+01  7.59869910E+00  7.59869910E+00 -1.51973982E+01
  7.59869910E+00  7.59869910E+00 -1.51973982E+01  7.59869910E+00  7.59869910E+00
 -1.51973982E+01  7.59869910E+00  7.59869910E+00 -1.51973982E+01  7.59869910E+00
  7.59869910E+00 -1.51973982E+01  7.59869910E+00  7.59869910E+00 -1.51973982E+01
  7.59869910E+00  7.59869910E+00 -1.51973982E+01  7.59869910E+00  7.59869910E+00
 -1.51973982E+01  7.59869910E+00  7.59869910E+00 -1.51973982E+01  7.59869910E+00
  7.59869910E+00 -1.51973982E+01  7.59869910E+00  7.59869910E+00 -1.51973982E+01
  7.59869910E+00  7.59869910E+00 -1.51973982E+01  7.59869910E+00  7.59869910E+00
 -1.51973982E+01  7.59869910E+00  7.59869910E+00 -1.51973982E+01  7.59869910E+00
  7.59869910E+00 -1.51973982E+01  7.59869910E+00  7.59869910E+00 -1.51973982E+01
  7.59869910E+00  7.59869910E+00 -1.51973982E+01  7.59869910E+00  7.59869910E+00
 -1.51973982E+01  7.59869910E+00  7.59869910E+00 -1.51973982E+01  7.59869910E+00
  7.59869910E+00 -1.51973982E+01  7.59869910E+00  7.59869910E+00 -1.51973982E+01
  7.59869910E+00  7.59869910E+00 -1.51973982E+01  7.59869910E+00  7.59869910E+00
 -1.51973982E+01  7.59869910E+00  7.59869910E+00 -1.51973982E+01  7.59869910E+00
  7.59869910E+00 -1.51973982E+01  7.59869910E+00  7.59869910E+00 -1.51973982E+01
  7.59869910E+00  7.59869910E+00 -1.51973982E+01  7.59869910E+00  7.59869910E+00
 -1.51973982E+01  7.59869910E+00  7.59869910E+00 -1.51973982E+01  7.59869910E+00
  7.59869910E+00 -1.51973982E+01  7.59869910E+00  7.59869910E+00 -1.51973982E+01
  7.59869910E+00  7.59869910E+00 -1.51973982E+01  7.59869910E+00  7.59869910E+00
 -1.51973982E+01  7.59869910E+00  7.59869910E+00 -1.51973982E+01  7.59869910E+00
  7.59869910E+00 -1.51973982E+01  7.59869910E+00  7.59869910E+00 -1.51973982E+01
  7.59869910E+00  7.59869910E+00 -1.51973982E+01  7.59869910E+00  7.59869910E+00
 -1.51973982E+01  7.59869910E+00  7.59869910E+00 -1.51973982E+01  7.59869910E+00
  7.59869910E+00 -1.51973982E+01  7.59869910E+00  7.59869910E+00 -1.51973982E+01
  7.59869910E+00  7.59869910E+00 -1.51973982E+01  7.59869910E+00  7.59869910E+00
 -1.51973982E+01  7.59869910E+00  7.59869910E+00 -1.51973982E+01  7.59869910E+00
  7.59869910E+00 -1.51973982E+01  7.59869910E+00  7.59869910E+00 -1.51973982E+01
  7.59869910E+00  7.59869910E+00 -1.51973982E+01  7.59869910E+00  7.59869910E+00
 -1.51973982E+01  7.59869910E+00  7.59869910E+00 -1.51973982E+01  7.59869910E+00
  7.59869910E+00 -1.51973982E+01  7.59869910E+00  7.59869910E+00 -1.51973982E+01
  7.59869910E+00  7.59869910E+00 -1.51973982E+01  7.59869910E+00  7.59869910E+00
 -1.51973982E+01  7.59869910E+00  7.59869910E+00 -1.51973982E+01  7.59869910E+00
  7.59869910E+00 -1.51973982E+01  7.59869910E+00  7.59869910E+00 -1.51973982E+01
  7.59869910E+00  7.59869910E+00 -1.51973982E+01  7.59869910E+00  7.59869910E+00
 -1.51973982E+01  7.59869910E+00  7.59869910E+00 -1.51973982E+01  7.59869910E+00
  7.59869910E+00 -1.51973982E+01  7.59869910E+00  7.59869910E+00 -1.51973982E+01
  7.59869910E+00  7.59869910E+00 -1.51973982E+01  7.59869910E+00  7.59869910E+00
 -1.51973982E+01  7.59869910E+00  7.59869910E+00 -1.51973982E+01  7.59869910E+00
  7.59869910E+00 -1.51973982E+01  7.59869910E+00  7.59869910E+00 -1.51973982E+01
  7.59869910E+00  7.59869910E+00 -1.51973982E+01  7.59869910E+00  7.59869910E+00
 -1.51973982E+01  7.59869910E+00  7.59869910E+00 -1.51973982E+01  7.59869910E+00
  7.59869910E+00 -1.51973982E+01  7.59869910E+00  7.59869910E+00 -1.51973982E+01
  7.59869910E+00  7.59869910E+00 -1.51973982E+01  7.59869910E+00  7.59869910E+00
 -1.51973982E+01  7.59869910E+00  7.59869910E+00 -1.51973982E+01  7.59869910E+00
  7.59869910E+00 -1.51973982E+01  7.59869910E+00  7.59869910E+00 -1.51973982E+01
  7.59869910E+00  7.59869910E+00 -1.51973982E+01  7.59869910E+00  7.59869910E+00
 -1.51973982E+01  7.59869910E+00  7.59869910E+00 -1.51973982E+01  7.59869910E+00
  7.59869910E+00 -1.51973982E+01  7.59869910E+00  7.59869910E+00 -1.51973982E+01
  7.59869910E+00  7.59869910E+00 -1.51973982E+01  7.59869910E+00  7.59869910E+00
 -1.51973982E+01  7.59869910E+00  7.59869910E+00 -1.51973982E+01  7.59869910E+00
  7.59869910E+00 -1.51973982E+01  7.59869910E+00  7.59869910E+00 -1.51973982E+01
  7.59869910E+00  7.59869910E+00 -1.51973982E+01  7.59869910E+00  7.59869910E+00
 -1.51973982E+01  7.59869910E+00  7.59869910E+00 -1.51973982E+01  7.59869910E+00
  7.59869910E+00 -1.51973982E+01  7.59869910E+00  7.59869910E+00 -1.51973982E+01
  7.59869910E+00  7.59869910E+00 -1.51973982E+01  7.59869910E+00  7.59869910E+00
 -1.51973982E+01  7.59869910E+00  7.59869910E+00 -1.51973982E+01  7.59869910E+00
  7.59869910E+00 -1.51973982E+01  7.59869910E+00  7.59869910E+00 -1.51973982E+01
  7.59869910E+00  7.59869910E+00 -1.51973982E+01  7.59869910E+00  7.59869910E+00
 -1.51973982E+01  7.59869910E+00  7.59869910E+00 -1.51973982E+01  7.59869910E+00
  7.59869910E+00 -1.51973982E+01  7.59869910E+00  7.59869910E+00 -1.51973982E+01
  7.59869910E+00  7.59869910E+00 -1.51973982E+01  7.59869910E+00  7.59869910E+00
 -1.51973982E+01  7.59869910E+00  7.59869910E+00 -1.51973982E+01  7.59869910E+00
  7.59869910E+00 -1.51973982E+01  7.59869910E+00  7.59869910E+00 -1.51973982E+01
  7.59869910E+00  7.59869910E+00 -1.51973982E+01  7.59869910E+00  7.59869910E+00
 -1.51973982E+01  7.59869910E+00  7.59869910E+00 -1.51973982E+01  7.59869910E+00
  7.59869910E+00 -1.51973982E+01  7.59869910E+00  7.59869910E+00 -1.51973982E+01
  7.59869910E+00  7.59869910E+00 -1.51973982E+01  7.59869910E+00  7.59869910E+00
 -1.51973982E+01  7.59869910E+00  7.59869910E+00 -1.51973982E+01  7.59869910E+00
  7.59869910E+00 -1.51973982E+01  7.59869910E+00  7.59869910E+00 -1.51973982E+01
  7.59869910E+00  7.59869910E+00 -1.51973982E+01  7.59869910E+00  7.59869910E+00
 -1.51973982E+01  7.59869910E+00  7.59869910E+00 -1.51973982E+01  7.59869910E+00
  7.59869910E+00 -1.51973982E+01  7.59869910E+00  7.59869910E+00 -1.51973982E+01
  7.59869910E+00  7.59869910E+00 -1.51973982E+01  7.59869910E+00  7.59869910E+00
 -1.51973982E+01  7.59869910E+00  7.59869910E+00 -1.51973982E+01  7.59869910E+00
  7.59869910E+00 -1.51973982E+01  7.59869910E+00  7.59869910E+00 -1.51973982E+01
  7.59869910E+00  7.59869910E+00 -1.51973982E+01  7.59869910E+00  7.59869910E+00
 -1.51973982E+01  7.59869910E+00  7.59869910E+00 -1.51973982E+01  7.59869910E+00
  7.59869910E+00 -1.51973982E+01  7.59869910E+00  7.59869910E+00 -1.51973982E+01
  7.59869910E+00  7.59869910E+00 -1.51973982E+01  7.59869910E+00  7.59869910E+00
 -1.51973982E+01  7.59869910E+00  7.59869910E+00 -1.51973982E+01  7.59869910E+00
  7.59869910E+00 -1.51973982E+01  7.59869910E+00  7.59869910E+00 -1.51973982E+01
  7.59869910E+00  7.59869910E+00 -1.51973982E+01  7.59869910E+00  7.59869910E+00
 -1.51973982E+01  7.59869910E+00  7.59869910E+00 -1.51973982E+01  7.59869910E+00
  7.59869910E+00 -1.51973982E+01  7.59869910E+00  7.59869910E+00 -1.51973982E+01
  7.59869910E+00  7.59869910E+00 -1.51973982E+01  7.59869910E+00  7.59869910E+00
 -1.51973982E+01  7.59869910E+00  7.59869910E+00 -1.51973982E+01  7.59869910E+00
  7.59869910E+00 -1.51973982E+01  7.59869910E+00  7.59869910E+00 -1.51973982E+01
  7.59869910E+00  7.59869910E+00 -1.51973982E+01  7.59869910E+00  7.59869910E+00
 -1.51973982E+01  7.59869910E+00  7.59869910E+00 -1.51973982E+01  7.59869910E+00
  7.59869910E+00 -1.51973982E+01  7.59869910E+00  7.59869910E+00 -1.51973982E+01
  7.59869910E+00  7.59869910E+00 -1.51973982E+01  7.59869910E+00  7.59869910E+00
 -1.51973982E+01  7.59869910E+00  7.59869910E+00 -1.51973982E+01  7.59869910E+00
  7.59869910E+00 -1.51973982E+01  7.59869910E+00  7.59869910E+00 -1.51973982E+01
  7.59869910E+00  7.59869910E+00 -1.51973982E+01  7.59869910E+00  7.59869910E+00
 -1.51973982E+01  7.59869910E+00  7.59869910E+00 -1.51973982E+01  7.59869910E+00
  7.59869910E+00 -1.51973982E+01  7.59869910E+00  7.59869910E+00 -1.51973982E+01
  7.59869910E+00  7.59869910E+00 -1.51973982E+01  7.59869910E+00  7.59869910E+00
 -1.51973982E+01  7.59869910E+00  7.59869910E+00 -1.51973982E+01  7.59869910E+00
  7.59869910E+00 -1.51973982E+01  7.59869910E+00  7.59869910E+00 -1.51973982E+01
  7.59869910E+00  7.59869910E+00 -1.51973982E+01  7.59869910E+00  7.59869910E+00
 -1.51973982E+01  7.59869910E+00  7.59869910E+00 -1.51973982E+01  7.59869910E+00
  7.59869910E+00 -1.51973982E+01  7.59869910E+00  7.59869910E+00 -1.51973982E+01
  7.59869910E+00  7.59869910E+00 -1.51973982E+01  7.59869910E+00  7.59869910E+00
 -1.51973982E+01  7.59869910E+00  7.59869910E+00 -1.51973982E+01  7.59869910E+00
  7.59869910E+00 -1.51973982E+01  7.59869910E+00  7.59869910E+00 -1.51973982E+01
  7.59869910E+00  7.59869910E+00 -1.51973982E+01  7.59869910E+00  7.59869910E+00
 -1.51973982E+01  7.59869910E+00  7.59869910E+00 -1.51973982E+01  7.59869910E+00
  7.59869910E+00 -1.51973982E+01  7.59869910E+00  7.59869910E+00 -1.51973982E+01
  7.59869910E+00  7.59869910E+00 -1.51973982E+01  7.59869910E+00  7.59869910E+00
 -1.51973982E+01  7.59869910E+00  7.59869910E+00 -1.51973982E+01  7.59869910E+00
  7.59869910E+00 -1.51973982E+01  7.59869910E+00  7.59869910E+00 -1.51973982E+01
  7.59869910E+00  7.59869910E+00 -1.51973982E+01  7.59869910E+00  7.59869910E+00
 -1.51973982E+01  7.59869910E+00  7.59869910E+00 -1.51973982E+01  7.59869910E+00
  7.59869910E+00 -1.51973982E+01  7.59869910E+00  7.59869910E+00 -1.51973982E+01
  7.59869910E+00  7.59869910E+00 -1.51973982E+01  7.59869910E+00  7.59869910E+00
 -1.51973982E+01  7.59869910E+00  7.59869910E+00 -1.51973982E+01  7.59869910E+00
  7.59869910E+00 -1.51973982E+01  7.59869910E+00  7.59869910E+00 -1.51973982E+01
  7.59869910E+00  7.59869910E+00 -1.51973982E+01  7.59869910E+00  7.59869910E+00
 -1.51973982E+01  7.59869910E+00  7.59869910E+00 -1.51973982E+01  7.59869910E+00
  7.59869910E+00 -1.51973982E+01  7.59869910E+00  7.59869910E+00 -1.51973982E+01
  7.59869910E+00  7.59869910E+00 -1.51973982E+01  7.59869910E+00  7.59869910E+00
 -1.51973982E+01  7.59869910E+00  7.59869910E+00 -1.51973982E+01  7.59869910E+00
  7.59869910E+00 -1.51973982E+01  7.59869910E+00  7.59869910E+00 -1.51973982E+01
  7.59869910E+00  7.59869910E+00 -1.51973982E+01  7.59869910E+00  7.59869910E+00
 -1.51973982E+01  7.59869910E+00  7.59869910E+00 -1.51973982E+01  7.59869910E+00
  7.59869910E+00 -1.51973982E+01  7.59869910E+00  7.59869910E+00 -1.51973982E+01
  7.59869910E+00  7.59869910E+00 -1.51973982E+01  7.59869910E+00  7.59869910E+00
 -1.51973982E+01  7.59869910E+00  7.59869910E+00 -1.51973982E+01  7.59869910E+00
  7.59869910E+00 -1.51973982E+01  7.59869910E+00  7.59869910E+00 -1.51973982E+01
  7.59869910E+00  7.59869910E+00 -1.51973982E+01  7.59869910E+00  7.59869910E+00
 -1.51973982E+01  7.59869910E+00  7.59869910E+00 -1.51973982E+01  7.59869910E+00
  7.59869910E+00 -1.51973982E+01  7.59869910E+00  7.59869910E+00 -1.51973982E+01
  7.59869910E+00  7.59869910E+00 -1.51973982E+01  7.59869910E+00  7.59869910E+00
 -1.51973982E+01  7.59869910E+00  7.59869910E+00 -1.51973982E+01  7.59869910E+00
  7.59869910E+00 -1.51973982E+01  7.59869910E+00  7.59869910E+00 -1.51973982E+01
  7.59869910E+00  7.59869910E+00 -1.51973982E+01  7.59869910E+00  7.59869910E+00
 -1.51973982E+01  7.59869910E+00  7.59869910E+00 -1.51973982E+01  7.59869910E+00
  7.59869910E+00 -1.51973982E+01  7.59869910E+00  7.59869910E+00 -1.51973982E+01
  7.59869910E+00  7.59869910E+00 -1.51973982E+01  7.59869910E+00  7.59869910E+00
 -1.51973982E+01  7.59869910E+00  7.59869910E+00 -1.51973982E+01  7.59869910E+00
  7.59869910E+00 -1.51973982E+01  7.59869910E+00  7.59869910E+00 -1.51973982E+01
  7.59869910E+00  7.59869910E+00 -1.51973982E+01  7.59869910E+00  7.59869910E+00
 -1.51973982E+01  7.59869910E+00  7.59869910E+00 -1.51973982E+01  7.59869910E+00
  7.59869910E+00 -1.51973982E+01  7.59869910E+00  7.59869910E+00 -1.51973982E+01
  7.59869910E+00  7.59869910E+00 -1.51973982E+01  7.59869910E+00  7.59869910E+00
 -1.51973982E+01  7.59869910E+00  7.59869910E+00 -1.51973982E+01  7.59869910E+00
  7.59869910E+00 -1.51973982E+01  7.59869910E+00  7.59869910E+00 -1.51973982E+01
  7.59869910E+00  7.59869910E+00 -1.51973982E+01  7.59869910E+00  7.59869910E+00
 -1.51973982E+01  7.59869910E+00  7.59869910E+00 -1.51973982E+01  7.59869910E+00
  7.59869910E+00 -1.51973982E+01  7.59869910E+00  7.59869910E+00 -1.51973982E+01
  7.59869910E+00  7.59869910E+00 -1.51973982E+01  7.59869910E+00  7.59869910E+00
 -1.51973982E+01  7.59869910E+00  7.59869910E+00 -1.51973982E+01  7.59869910E+00
  7.59869910E+00 -1.51973982E+01  7.59869910E+00  7.59869910E+00 -1.51973982E+01
  7.59869910E+00  7.59869910E+00 -1.51973982E+01  7.59869910E+00  7.59869910E+00
 -1.51973982E+01  7.59869910E+00  7.59869910E+00 -1.51973982E+01  7.59869910E+00
  7.59869910E+00 -1.51973982E+01  7.59869910E+00  7.59869910E+00 -1.51973982E+01
  7.59869910E+00  7.59869910E+00 -1.51973982E+01  7.59869910E+00  7.59869910E+00
 -1.51973982E+01  7.59869910E+00  7.59869910E+00 -1.51973982E+01  7.59869910E+00
  7.59869910E+00 -1.51973982E+01  7.59869910E+00  7.59869910E+00 -1.51973982E+01
  7.59869910E+00  7.59869910E+00 -1.51973982E+01  7.59869910E+00  7.59869910E+00
 -1.51973982E+01  7.59869910E+00  7.59869910E+00 -1.51973982E+01  7.59869910E+00
  7.59869910E+00 -1.51973982E+01  7.59869910E+00  7.59869910E+00 -1.51973982E+01
  7.59869910E+00  7.59869910E+00 -1.51973982E+01  7.59869910E+00  7.59869910E+00
 -1.51973982E+01  7.59869910E+00  7.59869910E+00 -1.51973982E+01  7.59869910E+00
  7.59869910E+00 -1.51973982E+01  7.59869910E+00  7.59869910E+00 -1.51973982E+01
  7.59869910E+00  7.59869910E+00 -1.51973982E+01  7.59869910E+00  7.59869910E+00
 -1.51973982E+01  7.59869910E+00  7.59869910E+00 -1.51973982E+01  7.59869910E+00
  7.59869910E+00 -1.51973982E+01  7.59869910E+00  7.59869910E+00 -1.51973982E+01
  7.59869910E+00  7.59869910E+00 -1.51973982E+01  7.59869910E+00  7.59869910E+00
 -1.51973982E+01  7.59869910E+00  7.59869910E+00 -1.51973982E+01  7.59869910E+00
  7.59869910E+00 -1.51973982E+01  7.59869910E+00  7.59869910E+00 -1.51973982E+01
  7.59869910E+00  7.59869910E+00 -1.51973982E+01  7.59869910E+00  7.59869910E+00
 -1.51973982E+01  7.59869910E+00  7.59869910E+00 -1.51973982E+01  7.59869910E+00
  7.59869910E+00 -1.51973982E+01  7.59869910E+00  7.59869910E+00 -1.51973982E+01
  7.59869910E+00  7.59869910E+00 -1.51973982E+01  7.59869910E+00  7.59869910E+00
 -1.51973982E+01  7.59869910E+00  7.59869910E+00 -1.51973982E+01  7.59869910E+00
  7.59869910E+00 -1.51973982E+01  7.59869910E+00  7.59869910E+00 -1.51973982E+01
  7.59869910E+00  7.59869910E+00 -1.51973982E+01  7.59869910E+00  7.59869910E+00
 -1.51973982E+01  7.59869910E+00  7.59869910E+00 -1.51973982E+01  7.59869910E+00
  7.59869910E+00 -1.51973982E+01  7.59869910E+00  7.59869910E+00 -1.51973982E+01
  7.59869910E+00  7.59869910E+00 -1.51973982E+01  7.59869910E+00  7.59869910E+00
 -1.51973982E+01  7.59869910E+00  7.59869910E+00 -1.51973982E+01  7.59869910E+00
  7.59869910E+00 -1.51973982E+01  7.59869910E+00  7.59869910E+00 -1.51973982E+01
  7.59869910E+00  7.59869910E+00 -1.51973982E+01  7.59869910E+00  7.59869910E+00
 -1.51973982E+01  7.59869910E+00  7.59869910E+00 -1.51973982E+01  7.59869910E+00
  7.59869910E+00 -1.51973982E+01  7.59869910E+00  7.59869910E+00 -1.51973982E+01
  7.59869910E+00  7.59869910E+00 -1.51973982E+01  7.59869910E+00  7.59869910E+00
 -1.51973982E+01  7.59869910E+00  7.59869910E+00 -1.51973982E+01  7.59869910E+00
  7.59869910E+00 -1.51973982E+01  7.59869910E+00  7.59869910E+00 -1.51973982E+01
  7.59869910E+00  7.59869910E+00 -1.51973982E+01  7.59869910E+00  7.59869910E+00
 -1.51973982E+01  7.59869910E+00  7.59869910E+00 -1.51973982E+01  7.59869910E+00
  7.59869910E+00 -1.51973982E+01  7.59869910E+00  7.59869910E+00 -1.51973982E+01
  7.59869910E+00  7.59869910E+00 -1.51973982E+01  7.59869910E+00  7.59869910E+00
 -1.51973982E+01  7.59869910E+00  7.59869910E+00 -1.51973982E+01  7.59869910E+00
  7.59869910E+00 -1.51973982E+01  7.59869910E+00  7.59869910E+00 -1.51973982E+01
  7.59869910E+00  7.59869910E+00 -1.51973982E+01  7.59869910E+00  7.59869910E+00
 -1.51973982E+01  7.59869910E+00  7.59869910E+00 -1.51973982E+01  7.59869910E+00
  7.59869910E+00 -1.51973982E+01  7.59869910E+00  7.59869910E+00 -1.51973982E+01
  7.59869910E+00  7.59869910E+00 -1.51973982E+01  7.59869910E+00  7.59869910E+00
 -1.51973982E+01  7.59869910E+00  7.59869910E+00 -1.51973982E+01  7.59869910E+00
  7.59869910E+00 -1.51973982E+01  7.59869910E+00  7.59869910E+00 -1.51973982E+01
  7.59869910E+00  7.59869910E+00 -1.51973982E+01  7.59869910E+00  7.59869910E+00
 -1.51973982E+01  7.59869910E+00  7.59869910E+00 -1.51973982E+01  7.59869910E+00
  7.59869910E+00 -1.51973982E+01  7.59869910E+00  7.59869910E+00 -1.51973982E+01
  7.59869910E+00  7.59869910E+00 -1.51973982E+01  7.59869910E+00  7.59869910E+00
 -1.51973982E+01  7.59869910E+00  7.59869910E+00 -1.51973982E+01  7.59869910E+00
  7.59869910E+00 -1.51973982E+01  7.59869910E+00  7.59869910E+00 -1.51973982E+01
  7.59869910E+00  7.59869910E+00 -1.51973982E+01  7.59869910E+00  7.59869910E+00
 -1.51973982E+01  7.59869910E+00  7.59869910E+00 -1.51973982E+01  7.59869910E+00
  7.59869910E+00 -1.51973982E+01  7.59869910E+00  7.59869910E+00 -1.51973982E+01
  7.59869910E+00  7.59869910E+00 -1.51973982E+01  7.59869910E+00  7.59869910E+00
 -1.51973982E+01  7.59869910E+00  7.59869910E+00 -1.51973982E+01  7.59869910E+00
  7.59869910E+00 -1.51973982E+01  7.59869910E+00  7.59869910E+00 -1.51973982E+01
  7.59869910E+00  7.59869910E+00 -1.51973982E+01  7.59869910E+00  7.59869910E+00
 -1.51973982E+01  7.59869910E+00  7.59869910E+00 -1.51973982E+01  7.59869910E+00
  7.59869910E+00 -1.51973982E+01  7.59869910E+00  7.59869910E+00 -1.51973982E+01
  7.59869910E+00  7.59869910E+00 -1.51973982E+01  7.59869910E+00  7.59869910E+00
 -1.51973982E+01  7.59869910E+00  7.59869910E+00 -1.51973982E+01  7.59869910E+00
  7.59869910E+00 -1.51973982E+01  7.59869910E+00  7.59869910E+00 -1.51973982E+01
  7.59869910E+00  7.59869910E+00 -1.51973982E+01  7.59869910E+00  7.59869910E+00
 -1.51973982E+01  7.59869910E+00  7.59869910E+00 -1.51973982E+01  7.59869910E+00
  7.59869910E+00 -1.51973982E+01  7.59869910E+00  7.59869910E+00 -1.51973982E+01
  7.59869910E+00  7.59869910E+00 -1.51973982E+01  7.59869910E+00  7.59869910E+00
 -1.51973982E+01  7.59869910E+00  7.59869910E+00 -1.51973982E+01  7.59869910E+00
  7.59869910E+00 -1.51973982E+01  7.59869910E+00  7.59869910E+00 -1.51973982E+01
  7.59869910E+00  7.59869910E+00 -1.51973982E+01  7.59869910E+00  7.59869910E+00
 -1.51973982E+01  7.59869910E+00  7.59869910E+00 -1.51973982E+01  7.59869910E+00
  7.59869910E+00 -1.51973982E+01  7.59869910E+00  7.59869910E+00 -1.51973982E+01
  7.59869910E+00  7.59869910E+00 -1.51973982E+01  7.59869910E+00  7.59869910E+00
 -1.51973982E+01  7.59869910E+00  7.59869910E+00 -1.51973982E+01  7.59869910E+00
  7.59869910E+00 -1.51973982E+01  7.59869910E+00  7.59869910E+00 -1.51973982E+01
  7.59869910E+00  7.59869910E+00 -1.51973982E+01  7.59869910E+00  7.59869910E+00
 -1.51973982E+01  7.59869910E+00  7.59869910E+00 -1.51973982E+01  7.59869910E+00
  7.59869910E+00 -1.51973982E+01  7.59869910E+00  7.59869910E+00 -1.51973982E+01
  7.59869910E+00  7.59869910E+00 -1.51973982E+01  7.59869910E+00  7.59869910E+00
 -1.51973982E+01  7.59869910E+00  7.59869910E+00 -1.51973982E+01  7.59869910E+00
  7.59869910E+00 -1.51973982E+01  7.59869910E+00  7.59869910E+00 -1.51973982E+01
  7.59869910E+00  7.59869910E+00 -1.51973982E+01  7.59869910E+00  7.59869910E+00
 -1.51973982E+01  7.59869910E+00  7.59869910E+00 -1.51973982E+01  7.59869910E+00
  7.59869910E+00 -1.51973982E+01  7.59869910E+00  7.59869910E+00 -1.51973982E+01
  7.59869910E+00  7.59869910E+00 -1.51973982E+01  7.59869910E+00  7.59869910E+00
 -1.51973982E+01  7.59869910E+00  7.59869910E+00 -1.51973982E+01  7.59869910E+00
  7.59869910E+00 -1.51973982E+01  7.59869910E+00  7.59869910E+00 -1.51973982E+01
  7.59869910E+00  7.59869910E+00 -1.51973982E+01  7.59869910E+00  7.59869910E+00
 -1.51973982E+01  7.59869910E+00  7.59869910E+00 -1.51973982E+01  7.59869910E+00
  7.59869910E+00 -1.51973982E+01  7.59869910E+00  7.59869910E+00 -1.51973982E+01
  7.59869910E+00  7.59869910E+00 -1.51973982E+01  7.59869910E+00  7.59869910E+00
 -1.51973982E+01  7.59869910E+00  7.59869910E+00 -1.51973982E+01  7.59869910E+00
  7.59869910E+00 -1.51973982E+01  7.59869910E+00  7.59869910E+00 -1.51973982E+01
  7.59869910E+00  7.59869910E+00 -1.51973982E+01  7.59869910E+00  7.59869910E+00
 -1.51973982E+01  7.59869910E+00  7.59869910E+00 -1.51973982E+01  7.59869910E+00
  7.59869910E+00 -1.51973982E+01  7.59869910E+00  7.59869910E+00 -1.51973982E+01
  7.59869910E+00  7.59869910E+00 -1.51973982E+01  7.59869910E+00  7.59869910E+00
 -1.51973982E+01  7.59869910E+00  7.59869910E+00 -1.51973982E+01  7.59869910E+00
  7.59869910E+00 -1.51973982E+01  7.59869910E+00  7.59869910E+00 -1.51973982E+01
  7.59869910E+00  7.59869910E+00 -1.51973982E+01  7.59869910E+00  7.59869910E+00
 -1.51973982E+01  7.59869910E+00  7.59869910E+00 -1.51973982E+01  7.59869910E+00
  7.59869910E+00 -1.51973982E+01  7.59869910E+00  7.59869910E+00 -1.51973982E+01
  7.59869910E+00  7.59869910E+00 -1.51973982E+01  7.59869910E+00  7.59869910E+00
 -1.51973982E+01  7.59869910E+00  7.59869910E+00 -1.51973982E+01  7.59869910E+00
  7.59869910E+00 -1.51973982E+01  7.59869910E+00  7.59869910E+00 -1.51973982E+01
  7.59869910E+00  7.59869910E+00 -1.51973982E+01  7.59869910E+00  7.59869910E+00
 -1.51973982E+01  7.59869910E+00  7.59869910E+00 -1.51973982E+01  7.59869910E+00
  7.59869910E+00 -1.51973982E+01  7.59869910E+00  7.59869910E+00 -1.51973982E+01
  7.59869910E+00  7.59869910E+00 -1.51973982E+01  7.59869910E+00  7.59869910E+00
 -1.51973982E+01  7.59869910E+00  7.59869910E+00 -1.51973982E+01  7.59869910E+00
  7.59869910E+00 -1.51973982E+01  7.59869910E+00  7.59869910E+00 -1.51973982E+01
  7.59869910E+00  7.59869910E+00 -1.51973982E+01  7.59869910E+00  7.59869910E+00
 -1.51973982E+01  7.59869910E+00  7.59869910E+00 -1.51973982E+01  7.59869910E+00
  7.59869910E+00 -1.51973982E+01  7.59869910E+00  7.59869910E+00 -1.51973982E+01
  7.59869910E+00  7.59869910E+00 -1.51973982E+01  7.59869910E+00  7.59869910E+00
 -1.51973982E+01  7.59869910E+00  7.59869910E+00 -1.51973982E+01  7.59869910E+00
  7.59869910E+00 -1.51973982E+01  7.59869910E+00  7.59869910E+00 -1.51973982E+01
  7.59869910E+00  7.59869910E+00 -1.51973982E+01  7.59869910E+00  7.59869910E+00
 -1.51973982E+01  7.59869910E+00  7.59869910E+00 -1.51973982E+01  7.59869910E+00
  7.59869910E+00 -1.51973982E+01  7.59869910E+00  7.59869910E+00 -1.51973982E+01
  7.59869910E+00  7.59869910E+00 -1.51973982E+01  7.59869910E+00  7.59869910E+00
 -1.51973982E+01  7.59869910E+00  7.59869910E+00 -1.51973982E+01  7.59869910E+00
  7.59869910E+00 -1.51973982E+01  7.59869910E+00  7.59869910E+00 -1.51973982E+01
  7.59869910E+00  7.59869910E+00 -1.51973982E+01  7.59869910E+00  7.59869910E+00
 -1.51973982E+01  7.59869910E+00  7.59869910E+00 -1.51973982E+01  7.59869910E+00
  7.59869910E+00 -1.51973982E+01  7.59869910E+00  7.59869910E+00 -1.51973982E+01
  7.59869910E+00  7.59869910E+00 -1.51973982E+01  7.59869910E+00  7.59869910E+00
 -1.51973982E+01  7.59869910E+00  7.59869910E+00 -1.51973982E+01  7.59869910E+00
  7.59869910E+00 -1.51973982E+01  7.59869910E+00  7.59869910E+00 -1.51973982E+01
  7.59869910E+00  7.59869910E+00 -1.51973982E+01  7.59869910E+00  7.59869910E+00
 -1.51973982E+01  7.59869910E+00  7.59869910E+00 -1.51973982E+01  7.59869910E+00
  7.59869910E+00 -1.51973982E+01  7.59869910E+00  7.59869910E+00 -1.51973982E+01
  7.59869910E+00  7.59869910E+00 -1.51973982E+01  7.59869910E+00  7.59869910E+00
 -1.51973982E+01  7.59869910E+00  7.59869910E+00 -1.51973982E+01  7.59869910E+00
  7.59869910E+00 -1.51973982E+01  7.59869910E+00  7.59869910E+00 -1.51973982E+01
  7.59869910E+00  7.59869910E+00 -1.51973982E+01  7.59869910E+00  7.59869910E+00
 -1.51973982E+01  7.59869910E+00  7.59869910E+00 -1.51973982E+01  7.59869910E+00
  7.59869910E+00 -1.51973982E+01  7.59869910E+00  7.59869910E+00 -1.51973982E+01
  7.59869910E+00  7.59869910E+00 -1.51973982E+01  7.59869910E+00  7.59869910E+00
 -1.51973982E+01  7.59869910E+00  7.59869910E+00 -1.51973982E+01  7.59869910E+00
  7.59869910E+00 -1.51973982E+01  7.59869910E+00  7.59869910E+00 -1.51973982E+01
  7.59869910E+00  7.59869910E+00 -1.51973982E+01  7.59869910E+00  7.59869910E+00
 -1.51973982E+01  7.59869910E+00  7.59869910E+00 -1.51973982E+01  7.59869910E+00
  7.59869910E+00 -1.51973982E+01  7.59869910E+00  7.59869910E+00 -1.51973982E+01
  7.59869910E+00  7.59869910E+00 -1.51973982E+01  7.59869910E+00  7.59869910E+00
 -1.51973982E+01  7.59869910E+00  7.59869910E+00 -1.51973982E+01  7.59869910E+00
  7.59869910E+00 -1.51973982E+01  7.59869910E+00  7.59869910E+00 -1.51973982E+01
  7.59869910E+00  7.59869910E+00 -1.51973982E+01  7.59869910E+00  7.59869910E+00
 -1.51973982E+01  7.59869910E+00  7.59869910E+00 -1.51973982E+01  7.59869910E+00
  7.59869910E+00 -1.51973982E+01  7.59869910E+00  7.59869910E+00 -1.51973982E+01
  7.59869910E+00  7.59869910E+00 -1.51973982E+01  7.59869910E+00  7.59869910E+00
 -1.51973982E+01  7.59869910E+00  7.59869910E+00 -1.51973982E+01  7.59869910E+00
  7.59869910E+00 -1.51973982E+01  7.59869910E+00  7.59869910E+00 -1.51973982E+01
  7.59869910E+00  7.59869910E+00 -1.51973982E+01  7.59869910E+00  7.59869910E+00
 -1.51973982E+01  7.59869910E+00  7.59869910E+00 -1.51973982E+01  7.59869910E+00
  7.59869910E+00 -1.51973982E+01  7.59869910E+00  7.59869910E+00 -1.51973982E+01
  7.59869910E+00  7.59869910E+00 -1.51973982E+01  7.59869910E+00  7.59869910E+00
 -1.51973982E+01  7.59869910E+00  7.59869910E+00 -1.51973982E+01  7.59869910E+00
  7.59869910E+00 -1.51973982E+01  7.59869910E+00  7.59869910E+00 -1.51973982E+01
  7.59869910E+00  7.59869910E+00 -1.51973982E+01  7.59869910E+00  7.59869910E+00
 -1.51973982E+01  7.59869910E+00  7.59869910E+00 -1.51973982E+01  7.59869910E+00
  7.59869910E+00 -1.51973982E+01  7.59869910E+00  7.59869910E+00 -1.51973982E+01
  7.59869910E+00  7.59869910E+00 -1.51973982E+01  7.59869910E+00  7.59869910E+00
 -1.51973982E+01  7.59869910E+00  7.59869910E+00 -1.51973982E+01  7.59869910E+00
  7.59869910E+00 -1.51973982E+01  7.59869910E+00  7.59869910E+00 -1.51973982E+01
  7.59869910E+00  7.59869910E+00 -1.51973982E+01  7.59869910E+00  7.59869910E+00
 -1.51973982E+01  7.59869910E+00  7.59869910E+00 -1.51973982E+01  7.59869910E+00
  7.59869910E+00 -1.51973982E+01  7.59869910E+00  7.59869910E+00 -1.51973982E+01
  7.59869910E+00  7.59869910E+00 -1.51973982E+01  7.59869910E+00  7.59869910E+00
 -1.51973982E+01  7.59869910E+00  7.59869910E+00 -1.51973982E+01  7.59869910E+00
  7.59869910E+00 -1.51973982E+01  7.59869910E+00  7.59869910E+00 -1.51973982E+01
  7.59869910E+00  7.59869910E+00 -1.51973982E+01  7.59869910E+00  7.59869910E+00
 -1.51973982E+01  7.59869910E+00  7.59869910E+00 -1.51973982E+01  7.59869910E+00
  7.59869910E+00 -1.51973982E+01  7.59869910E+00  7.59869910E+00 -1.51973982E+01
  7.59869910E+00  7.59869910E+00 -1.51973982E+01  7.59869910E+00  7.59869910E+00
 -1.51973982E+01  7.59869910E+00  7.59869910E+00 -1.51973982E+01  7.59869910E+00
  7.59869910E+00 -1.51973982E+01  7.59869910E+00  7.59869910E+00 -1.51973982E+01
  7.59869910E+00  7.59869910E+00 -1.51973982E+01  7.59869910E+00  7.59869910E+00
 -1.51973982E+01  7.59869910E+00  7.59869910E+00 -1.51973982E+01  7.59869910E+00
  7.59869910E+00 -1.51973982E+01  7.59869910E+00  7.59869910E+00 -1.51973982E+01
  7.59869910E+00  7.59869910E+00 -1.51973982E+01  7.59869910E+00  7.59869910E+00
 -1.51973982E+01  7.59869910E+00  7.59869910E+00 -1.51973982E+01  7.59869910E+00
  7.59869910E+00 -1.51973982E+01  7.59869910E+00  7.59869910E+00 -1.51973982E+01
  7.59869910E+00  7.59869910E+00 -1.51973982E+01  7.59869910E+00  7.59869910E+00
 -1.51973982E+01  7.59869910E+00  7.59869910E+00 -1.51973982E+01  7.59869910E+00
  7.59869910E+00 -1.51973982E+01  7.59869910E+00  7.59869910E+00 -1.51973982E+01
  7.59869910E+00  7.59869910E+00 -1.51973982E+01  7.59869910E+00  7.59869910E+00
 -1.51973982E+01  7.59869910E+00  7.59869910E+00 -1.51973982E+01  7.59869910E+00
  7.59869910E+00 -1.51973982E+01  7.59869910E+00  7.59869910E+00 -1.51973982E+01
  7.59869910E+00  7.59869910E+00 -1.51973982E+01  7.59869910E+00  7.59869910E+00
 -1.51973982E+01  7.59869910E+00  7.59869910E+00 -1.51973982E+01  7.59869910E+00
  7.59869910E+00 -1.51973982E+01  7.59869910E+00  7.59869910E+00 -1.51973982E+01
  7.59869910E+00  7.59869910E+00 -1.51973982E+01  7.59869910E+00  7.59869910E+00
 -1.51973982E+01  7.59869910E+00  7.59869910E+00 -1.51973982E+01  7.59869910E+00
  7.59869910E+00 -1.51973982E+01  7.59869910E+00  7.59869910E+00 -1.51973982E+01
  7.59869910E+00  7.59869910E+00 -1.51973982E+01  7.59869910E+00  7.59869910E+00
 -1.51973982E+01  7.59869910E+00  7.59869910E+00 -1.51973982E+01  7.59869910E+00
  7.59869910E+00 -1.51973982E+01  7.59869910E+00  7.59869910E+00 -1.51973982E+01
  7.59869910E+00  7.59869910E+00 -1.51973982E+01  7.59869910E+00  7.59869910E+00
 -1.51973982E+01  7.59869910E+00  7.59869910E+00 -1.51973982E+01  7.59869910E+00
  7.59869910E+00 -1.51973982E+01  7.59869910E+00  7.59869910E+00 -1.51973982E+01
  7.59869910E+00  7.59869910E+00 -1.51973982E+01  7.59869910E+00  7.59869910E+00
 -1.51973982E+01  7.59869910E+00  7.59869910E+00 -1.51973982E+01  7.59869910E+00
  7.59869910E+00 -1.51973982E+01  7.59869910E+00  7.59869910E+00 -1.51973982E+01
  7.59869910E+00  7.59869910E+00 -1.51973982E+01  7.59869910E+00  7.59869910E+00
 -1.51973982E+01  7.59869910E+00  7.59869910E+00 -1.51973982E+01  7.59869910E+00
  7.59869910E+00 -1.51973982E+01  7.59869910E+00  7.59869910E+00 -1.51973982E+01
  7.59869910E+00  7.59869910E+00 -1.51973982E+01  7.59869910E+00  7.59869910E+00
 -1.51973982E+01  7.59869910E+00  7.59869910E+00 -1.51973982E+01  7.59869910E+00
  7.59869910E+00 -1.51973982E+01  7.59869910E+00  7.59869910E+00 -1.51973982E+01
  7.59869910E+00  7.59869910E+00 -1.51973982E+01  7.59869910E+00  7.59869910E+00
 -1.51973982E+01  7.59869910E+00  7.59869910E+00 -1.51973982E+01  7.59869910E+00
  7.59869910E+00 -1.51973982E+01  7.59869910E+00  7.59869910E+00 -1.51973982E+01
  7.59869910E+00  7.59869910E+00 -1.51973982E+01  7.59869910E+00  7.59869910E+00
 -1.51973982E+01  7.59869910E+00  7.59869910E+00 -1.51973982E+01  7.59869910E+00
  7.59869910E+00 -1.51973982E+01  7.59869910E+00  7.59869910E+00 -1.51973982E+01
  7.59869910E+00  7.59869910E+00 -1.51973982E+01  7.59869910E+00  7.59869910E+00
 -1.51973982E+01  7.59869910E+00  7.59869910E+00 -1.51973982E+01  7.59869910E+00
  7.59869910E+00 -1.51973982E+01  7.59869910E+00  7.59869910E+00 -1.51973982E+01
  7.59869910E+00  7.59869910E+00 -1.51973982E+01  7.59869910E+00  7.59869910E+00
 -1.51973982E+01  7.59869910E+00  7.59869910E+00 -1.51973982E+01  7.59869910E+00
  7.59869910E+00 -1.51973982E+01  7.59869910E+00  7.59869910E+00 -1.51973982E+01
  7.59869910E+00  7.59869910E+00 -1.51973982E+01  7.59869910E+00  7.59869910E+00
 -1.51973982E+01  7.59869910E+00  7.59869910E+00 -1.51973982E+01  7.59869910E+00
  7.59869910E+00 -1.51973982E+01  7.59869910E+00  7.59869910E+00 -1.51973982E+01
  7.59869910E+00  7.59869910E+00 -1.51973982E+01  7.59869910E+00  7.59869910E+00
 -1.51973982E+01  7.59869910E+00  7.59869910E+00 -1.51973982E+01  7.59869910E+00
  7.59869910E+00 -1.51973982E+01  7.59869910E+00  7.59869910E+00 -1.51973982E+01
  7.59869910E+00  7.59869910E+00 -1.51973982E+01  7.59869910E+00  7.59869910E+00
 -1.51973982E+01  7.59869910E+00  7.59869910E+00 -1.51973982E+01  7.59869910E+00
  7.59869910E+00 -1.51973982E+01  7.59869910E+00  7.59869910E+00 -1.51973982E+01
  7.59869910E+00  7.59869910E+00 -1.51973982E+01  7.59869910E+00  7.59869910E+00
 -1.51973982E+01  7.59869910E+00  7.59869910E+00 -1.51973982E+01  7.59869910E+00
  7.59869910E+00 -1.51973982E+01  7.59869910E+00  7.59869910E+00 -1.51973982E+01
  7.59869910E+00  7.59869910E+00 -1.51973982E+01  7.59869910E+00  7.59869910E+00
 -1.51973982E+01  7.59869910E+00  7.59869910E+00 -1.51973982E+01  7.59869910E+00
  7.59869910E+00 -1.51973982E+01  7.59869910E+00  7.59869910E+00 -1.51973982E+01
  7.59869910E+00  7.59869910E+00 -1.51973982E+01  7.59869910E+00  7.59869910E+00
 -1.51973982E+01  7.59869910E+00  7.59869910E+00 -1.51973982E+01  7.59869910E+00
  7.59869910E+00 -1.51973982E+01  7.59869910E+00  7.59869910E+00 -1.51973982E+01
  7.59869910E+00  7.59869910E+00 -1.51973982E+01  7.59869910E+00  7.59869910E+00
 -1.51973982E+01  7.59869910E+00  7.59869910E+00 -1.51973982E+01  7.59869910E+00
  7.59869910E+00 -1.51973982E+01  7.59869910E+00  7.59869910E+00 -1.51973982E+01
  7.59869910E+00  7.59869910E+00 -1.51973982E+01  7.59869910E+00  7.59869910E+00
 -1.51973982E+01  7.59869910E+00  7.59869910E+00 -1.51973982E+01  7.59869910E+00
  7.59869910E+00 -1.51973982E+01  7.59869910E+00  7.59869910E+00 -1.51973982E+01
  7.59869910E+00  7.59869910E+00 -1.51973982E+01  7.59869910E+00  7.59869910E+00
 -1.51973982E+01  7.59869910E+00  7.59869910E+00 -1.51973982E+01  7.59869910E+00
  7.59869910E+00 -1.51973982E+01  7.59869910E+00  7.59869910E+00 -1.51973982E+01
  7.59869910E+00  7.59869910E+00 -1.51973982E+01  7.59869910E+00  7.59869910E+00
 -1.51973982E+01  7.59869910E+00  7.59869910E+00 -1.51973982E+01  7.59869910E+00
  7.59869910E+00 -1.51973982E+01  7.59869910E+00  7.59869910E+00 -1.51973982E+01
  7.59869910E+00  7.59869910E+00 -1.51973982E+01  7.59869910E+00  7.59869910E+00
 -1.51973982E+01  7.59869910E+00  7.59869910E+00 -1.51973982E+01  7.59869910E+00
  7.59869910E+00 -1.51973982E+01  7.59869910E+00  7.59869910E+00 -1.51973982E+01
  7.59869910E+00  7.59869910E+00 -1.51973982E+01  7.59869910E+00  7.59869910E+00
 -1.51973982E+01  7.59869910E+00  7.59869910E+00 -1.51973982E+01  7.59869910E+00
  7.59869910E+00 -1.51973982E+01  7.59869910E+00  7.59869910E+00 -1.51973982E+01
  7.59869910E+00  7.59869910E+00 -1.51973982E+01  7.59869910E+00  7.59869910E+00
 -1.51973982E+01  7.59869910E+00  7.59869910E+00 -1.51973982E+01  7.59869910E+00
  7.59869910E+00 -1.51973982E+01  7.59869910E+00  7.59869910E+00 -1.51973982E+01
  7.59869910E+00  7.59869910E+00 -1.51973982E+01  7.59869910E+00  7.59869910E+00
 -1.51973982E+01  7.59869910E+00  7.59869910E+00 -1.51973982E+01  7.59869910E+00
  7.59869910E+00 -1.51973982E+01  7.59869910E+00  7.59869910E+00 -1.51973982E+01
  7.59869910E+00  7.59869910E+00 -1.51973982E+01  7.59869910E+00  7.59869910E+00
 -1.51973982E+01  7.59869910E+00  7.59869910E+00 -1.51973982E+01  7.59869910E+00
  7.59869910E+00 -1.51973982E+01  7.59869910E+00  7.59869910E+00 -1.51973982E+01
  7.59869910E+00  7.59869910E+00 -1.51973982E+01  7.59869910E+00  7.59869910E+00
 -1.51973982E+01  7.59869910E+00  7.59869910E+00 -1.51973982E+01  7.59869910E+00
  7.59869910E+00 -1.51973982E+01  7.59869910E+00  7.59869910E+00 -1.51973982E+01
  7.59869910E+00  7.59869910E+00 -1.51973982E+01  7.59869910E+00  7.59869910E+00
 -1.51973982E+01  7.59869910E+00  7.59869910E+00 -1.51973982E+01  7.59869910E+00
  7.59869910E+00 -1.51973982E+01  7.59869910E+00  7.59869910E+00 -1.51973982E+01
  7.59869910E+00  7.59869910E+00 -1.51973982E+01  7.59869910E+00  7.59869910E+00
 -1.51973982E+01  7.59869910E+00  7.59869910E+00 -1.51973982E+01  7.59869910E+00
  7.59869910E+00 -1.51973982E+01  7.59869910E+00  7.59869910E+00 -1.51973982E+01
  7.59869910E+00  7.59869910E+00 -1.51973982E+01  7.59869910E+00  7.59869910E+00
 -1.51973982E+01  7.59869910E+00  7.59869910E+00 -1.51973982E+01  7.59869910E+00
  7.59869910E+00 -1.51973982E+01  7.59869910E+00  7.59869910E+00 -1.51973982E+01
  7.59869910E+00  7.59869910E+00 -1.51973982E+01  7.59869910E+00  7.59869910E+00
 -1.51973982E+01  7.59869910E+00  7.59869910E+00 -1.51973982E+01  7.59869910E+00
  7.59869910E+00 -1.51973982E+01  7.59869910E+00  7.59869910E+00 -1.51973982E+01
  7.59869910E+00  7.59869910E+00 -1.51973982E+01  7.59869910E+00  7.59869910E+00
 -1.51973982E+01  7.59869910E+00  7.59869910E+00 -1.51973982E+01  7.59869910E+00
  7.59869910E+00 -1.51973982E+01  7.59869910E+00  7.59869910E+00 -1.51973982E+01
  7.59869910E+00  7.59869910E+00 -1.51973982E+01  7.59869910E+00  7.59869910E+00
 -1.51973982E+01  7.59869910E+00  7.59869910E+00 -1.51973982E+01  7.59869910E+00
  7.59869910E+00 -1.51973982E+01  7.59869910E+00  7.59869910E+00 -1.51973982E+01
  7.59869910E+00  7.59869910E+00 -1.51973982E+01  7.59869910E+00  7.59869910E+00
 -1.51973982E+01  7.59869910E+00  7.59869910E+00 -1.51973982E+01  7.59869910E+00
  7.59869910E+00 -1.51973982E+01  7.59869910E+00  7.59869910E+00 -1.51973982E+01
  7.59869910E+00  7.59869910E+00 -1.51973982E+01  7.59869910E+00  7.59869910E+00
 -1.51973982E+01  7.59869910E+00  7.59869910E+00 -1.51973982E+01  7.59869910E+00
  7.59869910E+00 -1.51973982E+01  7.59869910E+00  7.59869910E+00 -1.51973982E+01
  7.59869910E+00  7.59869910E+00 -1.51973982E+01  7.59869910E+00  7.59869910E+00
 -1.51973982E+01  7.59869910E+00  7.59869910E+00 -1.51973982E+01  7.59869910E+00
  7.59869910E+00 -1.51973982E+01  7.59869910E+00  7.59869910E+00 -1.51973982E+01
  7.59869910E+00  7.59869910E+00 -1.51973982E+01  7.59869910E+00  7.59869910E+00
 -1.51973982E+01  7.59869910E+00  7.59869910E+00 -1.51973982E+01  7.59869910E+00
  7.59869910E+00 -1.51973982E+01  7.59869910E+00  7.59869910E+00 -1.51973982E+01
  7.59869910E+00  7.59869910E+00 -1.51973982E+01  7.59869910E+00  7.59869910E+00
 -1.51973982E+01  7.59869910E+00  7.59869910E+00 -1.51973982E+01  7.59869910E+00
  7.59869910E+00 -1.51973982E+01  7.59869910E+00  7.59869910E+00 -1.51973982E+01
  7.59869910E+00  7.59869910E+00 -1.51973982E+01  7.59869910E+00  7.59869910E+00
 -1.51973982E+01  7.59869910E+00  7.59869910E+00 -1.51973982E+01  7.59869910E+00
  7.59869910E+00 -1.51973982E+01  7.59869910E+00  7.59869910E+00 -1.51973982E+01
  7.59869910E+00  7.59869910E+00 -1.51973982E+01  7.59869910E+00  7.59869910E+00
 -1.51973982E+01  7.59869910E+00  7.59869910E+00 -1.51973982E+01  7.59869910E+00
  7.59869910E+00 -1.51973982E+01  7.59869910E+00  7.59869910E+00 -1.51973982E+01
  7.59869910E+00  7.59869910E+00 -1.51973982E+01  7.59869910E+00  7.59869910E+00
 -1.51973982E+01  7.59869910E+00  7.59869910E+00 -1.51973982E+01  7.59869910E+00
  7.59869910E+00 -1.51973982E+01  7.59869910E+00  7.59869910E+00 -1.51973982E+01
  7.59869910E+00  7.59869910E+00 -1.51973982E+01  7.59869910E+00  7.59869910E+00
 -1.51973982E+01  7.59869910E+00  7.59869910E+00 -1.51973982E+01  7.59869910E+00
  7.59869910E+00 -1.51973982E+01  7.59869910E+00  7.59869910E+00 -1.51973982E+01
  7.59869910E+00  7.59869910E+00 -1.51973982E+01  7.59869910E+00  7.59869910E+00
 -1.51973982E+01  7.59869910E+00  7.59869910E+00 -1.51973982E+01  7.59869910E+00
  7.59869910E+00 -1.51973982E+01  7.59869910E+00  7.59869910E+00 -1.51973982E+01
  7.59869910E+00  7.59869910E+00 -1.51973982E+01  7.59869910E+00  7.59869910E+00
 -1.51973982E+01  7.59869910E+00  7.59869910E+00 -1.51973982E+01  7.59869910E+00
  7.59869910E+00 -1.51973982E+01  7.59869910E+00  7.59869910E+00 -1.51973982E+01
  7.59869910E+00  7.59869910E+00 -1.51973982E+01  7.59869910E+00  7.59869910E+00
 -1.51973982E+01  7.59869910E+00  7.59869910E+00 -1.51973982E+01  7.59869910E+00
  7.59869910E+00 -1.51973982E+01  7.59869910E+00  7.59869910E+00 -1.51973982E+01
  7.59869910E+00  7.59869910E+00 -1.51973982E+01  7.59869910E+00  7.59869910E+00
 -1.51973982E+01  7.59869910E+00  7.59869910E+00 -1.51973982E+01  7.59869910E+00
  7.59869910E+00 -1.51973982E+01  7.59869910E+00  7.59869910E+00 -1.51973982E+01
  7.59869910E+00  7.59869910E+00 -1.51973982E+01  7.59869910E+00  7.59869910E+00
 -1.51973982E+01  7.59869910E+00  7.59869910E+00 -1.51973982E+01  7.59869910E+00
  7.59869910E+00 -1.51973982E+01  7.59869910E+00  7.59869910E+00 -1.51973982E+01
  7.59869910E+00  7.59869910E+00 -1.51973982E+01  7.59869910E+00  7.59869910E+00
 -1.51973982E+01  7.59869910E+00  7.59869910E+00 -1.51973982E+01  7.59869910E+00
  7.59869910E+00 -1.51973982E+01  7.59869910E+00  7.59869910E+00 -1.51973982E+01
  7.59869910E+00  7.59869910E+00 -1.51973982E+01  7.59869910E+00  7.59869910E+00
 -1.51973982E+01  7.59869910E+00  7.59869910E+00 -1.51973982E+01  7.59869910E+00
  7.59869910E+00 -1.51973982E+01  7.59869910E+00  7.59869910E+00 -1.51973982E+01
  7.59869910E+00  7.59869910E+00 -1.51973982E+01  7.59869910E+00  7.59869910E+00
 -1.51973982E+01  7.59869910E+00  7.59869910E+00 -1.51973982E+01  7.59869910E+00
  7.59869910E+00 -1.51973982E+01  7.59869910E+00  7.59869910E+00 -1.51973982E+01
  7.59869910E+00  7.59869910E+00 -1.51973982E+01  7.59869910E+00  7.59869910E+00
 -1.51973982E+01  7.59869910E+00  7.59869910E+00 -1.51973982E+01  7.59869910E+00
  7.59869910E+00 -1.51973982E+01  7.59869910E+00  7.59869910E+00 -1.51973982E+01
  7.59869910E+00  7.59869910E+00 -1.51973982E+01  7.59869910E+00  7.59869910E+00
 -1.51973982E+01  7.59869910E+00  7.59869910E+00 -1.51973982E+01  7.59869910E+00
  7.59869910E+00 -1.51973982E+01  7.59869910E+00  7.59869910E+00 -1.51973982E+01
  7.59869910E+00  7.59869910E+00 -1.51973982E+01  7.59869910E+00  7.59869910E+00
 -1.51973982E+01  7.59869910E+00  7.59869910E+00 -1.51973982E+01  7.59869910E+00
  7.59869910E+00 -1.51973982E+01  7.59869910E+00  7.59869910E+00 -1.51973982E+01
  7.59869910E+00  7.59869910E+00 -1.51973982E+01  7.59869910E+00  7.59869910E+00
 -1.51973982E+01  7.59869910E+00  7.59869910E+00 -1.51973982E+01  7.59869910E+00
  7.59869910E+00 -1.51973982E+01  7.59869910E+00  7.59869910E+00 -1.51973982E+01
  7.59869910E+00  7.59869910E+00 -1.51973982E+01  7.59869910E+00  7.59869910E+00
 -1.51973982E+01  7.59869910E+00  7.59869910E+00 -1.51973982E+01  7.59869910E+00
  7.59869910E+00 -1.51973982E+01  7.59869910E+00  7.59869910E+00 -1.51973982E+01
  7.59869910E+00  7.59869910E+00 -1.51973982E+01  7.59869910E+00  7.59869910E+00
 -1.51973982E+01  7.59869910E+00  7.59869910E+00 -1.51973982E+01  7.59869910E+00
  7.59869910E+00 -1.51973982E+01  7.59869910E+00  7.59869910E+00 -1.51973982E+01
  7.59869910E+00  7.59869910E+00 -1.51973982E+01  7.59869910E+00  7.59869910E+00
 -1.51973982E+01  7.59869910E+00  7.59869910E+00 -1.51973982E+01  7.59869910E+00
  7.59869910E+00 -1.51973982E+01  7.59869910E+00  7.59869910E+00 -1.51973982E+01
  7.59869910E+00  7.59869910E+00 -1.51973982E+01  7.59869910E+00  7.59869910E+00
 -1.51973982E+01  7.59869910E+00  7.59869910E+00 -1.51973982E+01  7.59869910E+00
  7.59869910E+00 -1.51973982E+01  7.59869910E+00  7.59869910E+00 -1.51973982E+01
  7.59869910E+00  7.59869910E+00 -1.51973982E+01  7.59869910E+00  7.59869910E+00
 -1.51973982E+01  7.59869910E+00  7.59869910E+00 -1.51973982E+01  7.59869910E+00
  7.59869910E+00 -1.51973982E+01  7.59869910E+00  7.59869910E+00 -1.51973982E+01
  7.59869910E+00  7.59869910E+00 -1.51973982E+01  7.59869910E+00  7.59869910E+00
 -1.51973982E+01  7.59869910E+00  7.59869910E+00 -1.51973982E+01  7.59869910E+00
  7.59869910E+00 -1.51973982E+01  7.59869910E+00  7.59869910E+00 -1.51973982E+01
  7.59869910E+00  7.59869910E+00 -1.51973982E+01  7.59869910E+00  7.59869910E+00
 -1.51973982E+01  7.59869910E+00  7.59869910E+00 -1.51973982E+01  7.59869910E+00
  7.59869910E+00 -1.51973982E+01  7.59869910E+00  7.59869910E+00 -1.51973982E+01
  7.59869910E+00  7.59869910E+00 -1.51973982E+01  7.59869910E+00  7.59869910E+00
 -1.51973982E+01  7.59869910E+00  7.59869910E+00 -1.51973982E+01  7.59869910E+00
  7.59869910E+00 -1.51973982E+01  7.59869910E+00  7.59869910E+00 -1.51973982E+01
  7.59869910E+00  7.59869910E+00 -1.51973982E+01  7.59869910E+00  7.59869910E+00
 -1.51973982E+01  7.59869910E+00  7.59869910E+00 -1.51973982E+01  7.59869910E+00
  7.59869910E+00 -1.51973982E+01  7.59869910E+00  7.59869910E+00 -1.51973982E+01
  7.59869910E+00  7.59869910E+00 -1.51973982E+01  7.59869910E+00  7.59869910E+00
 -1.51973982E+01  7.59869910E+00  7.59869910E+00 -1.51973982E+01  7.59869910E+00
  7.59869910E+00 -1.51973982E+01  7.59869910E+00  7.59869910E+00 -1.51973982E+01
  7.59869910E+00  7.59869910E+00 -1.51973982E+01  7.59869910E+00  7.59869910E+00
 -1.51973982E+01  7.59869910E+00  7.59869910E+00 -1.51973982E+01  7.59869910E+00
  7.59869910E+00 -1.51973982E+01  7.59869910E+00  7.59869910E+00 -1.51973982E+01
  7.59869910E+00  7.59869910E+00 -1.51973982E+01  7.59869910E+00  7.59869910E+00
 -1.51973982E+01  7.59869910E+00  7.59869910E+00 -1.51973982E+01  7.59869910E+00
  7.59869910E+00 -1.51973982E+01  7.59869910E+00  7.59869910E+00 -1.51973982E+01
  7.59869910E+00  7.59869910E+00 -1.51973982E+01  7.59869910E+00  7.59869910E+00
 -1.51973982E+01  7.59869910E+00  7.59869910E+00 -1.51973982E+01  7.59869910E+00
  7.59869910E+00 -1.51973982E+01  7.59869910E+00  7.59869910E+00 -1.51973982E+01
  7.59869910E+00  7.59869910E+00 -1.51973982E+01  7.59869910E+00  7.59869910E+00
 -1.51973982E+01  7.59869910E+00  7.59869910E+00 -1.51973982E+01  7.59869910E+00
  7.59869910E+00 -1.51973982E+01  7.59869910E+00  7.59869910E+00 -1.51973982E+01
  7.59869910E+00  7.59869910E+00 -1.51973982E+01  7.59869910E+00  7.59869910E+00
 -1.51973982E+01  7.59869910E+00  7.59869910E+00 -1.51973982E+01  7.59869910E+00
  7.59869910E+00 -1.51973982E+01  7.59869910E+00  7.59869910E+00 -1.51973982E+01
  7.59869910E+00  7.59869910E+00 -1.51973982E+01  7.59869910E+00  7.59869910E+00
 -1.51973982E+01  7.59869910E+00  7.59869910E+00 -1.51973982E+01  7.59869910E+00
  7.59869910E+00 -1.51973982E+01  7.59869910E+00  7.59869910E+00 -1.51973982E+01
  7.59869910E+00  7.59869910E+00 -1.51973982E+01  7.59869910E+00  7.59869910E+00
 -1.51973982E+01  7.59869910E+00  7.59869910E+00 -1.51973982E+01  7.59869910E+00
  7.59869910E+00 -1.51973982E+01  7.59869910E+00  7.59869910E+00 -1.51973982E+01
  7.59869910E+00  7.59869910E+00 -1.51973982E+01  7.59869910E+00  7.59869910E+00
 -1.51973982E+01  7.59869910E+00  7.59869910E+00 -1.51973982E+01  7.59869910E+00
  7.59869910E+00 -1.51973982E+01  7.59869910E+00  7.59869910E+00 -1.51973982E+01
  7.59869910E+00  7.59869910E+00 -1.51973982E+01  7.59869910E+00  7.59869910E+00
 -1.51973982E+01  7.59869910E+00  7.59869910E+00 -1.51973982E+01  7.59869910E+00
  7.59869910E+00 -1.51973982E+01  7.59869910E+00  7.59869910E+00 -1.51973982E+01
  7.59869910E+00  7.59869910E+00 -1.51973982E+01  7.59869910E+00  7.59869910E+00
 -1.51973982E+01  7.59869910E+00  7.59869910E+00 -1.51973982E+01  7.59869910E+00
  7.59869910E+00 -1.51973982E+01  7.59869910E+00  7.59869910E+00 -1.51973982E+01
  7.59869910E+00  7.59869910E+00 -1.51973982E+01  7.59869910E+00  7.59869910E+00
 -1.51973982E+01  7.59869910E+00  7.59869910E+00 -1.51973982E+01  7.59869910E+00
  7.59869910E+00 -1.51973982E+01  7.59869910E+00  7.59869910E+00 -1.51973982E+01
  7.59869910E+00  7.59869910E+00 -1.51973982E+01  7.59869910E+00  7.59869910E+00
 -1.51973982E+01  7.59869910E+00  7.59869910E+00 -1.51973982E+01  7.59869910E+00
  7.59869910E+00 -1.51973982E+01  7.59869910E+00  7.59869910E+00 -1.51973982E+01
  7.59869910E+00  7.59869910E+00 -1.51973982E+01  7.59869910E+00  7.59869910E+00
 -1.51973982E+01  7.59869910E+00  7.59869910E+00 -1.51973982E+01  7.59869910E+00
  7.59869910E+00 -1.51973982E+01  7.59869910E+00  7.59869910E+00 -1.51973982E+01
  7.59869910E+00  7.59869910E+00 -1.51973982E+01  7.59869910E+00  7.59869910E+00
 -1.51973982E+01  7.59869910E+00  7.59869910E+00 -1.51973982E+01  7.59869910E+00
  7.59869910E+00 -1.51973982E+01  7.59869910E+00  7.59869910E+00 -1.51973982E+01
  7.59869910E+00  7.59869910E+00 -1.51973982E+01  7.59869910E+00  7.59869910E+00
 -1.51973982E+01  7.59869910E+00  7.59869910E+00 -1.51973982E+01  7.59869910E+00
  7.59869910E+00 -1.51973982E+01  7.59869910E+00  7.59869910E+00 -1.51973982E+01
  7.59869910E+00  7.59869910E+00 -1.51973982E+01  7.59869910E+00  7.59869910E+00
 -1.51973982E+01  7.59869910E+00  7.59869910E+00 -1.51973982E+01  7.59869910E+00
  7.59869910E+00 -1.51973982E+01  7.59869910E+00  7.59869910E+00 -1.51973982E+01
  7.59869910E+00  7.59869910E+00 -1.51973982E+01  7.59869910E+00  7.59869910E+00
 -1.51973982E+01  7.59869910E+00  7.59869910E+00 -1.51973982E+01  7.59869910E+00
  7.59869910E+00 -1.51973982E+01  7.59869910E+00  7.59869910E+00 -1.51973982E+01
  7.59869910E+00  7.59869910E+00 -1.51973982E+01  7.59869910E+00  7.59869910E+00
 -1.51973982E+01  7.59869910E+00  7.59869910E+00 -1.51973982E+01  7.59869910E+00
  7.59869910E+00 -1.51973982E+01  7.59869910E+00  7.59869910E+00 -1.51973982E+01
  7.59869910E+00  7.59869910E+00 -1.51973982E+01  7.59869910E+00  7.59869910E+00
 -1.51973982E+01  7.59869910E+00  7.59869910E+00 -1.51973982E+01  7.59869910E+00
  7.59869910E+00 -1.51973982E+01  7.59869910E+00  7.59869910E+00 -1.51973982E+01
  7.59869910E+00  7.59869910E+00 -1.51973982E+01  7.59869910E+00  7.59869910E+00
 -1.51973982E+01  7.59869910E+00  7.59869910E+00 -1.51973982E+01  7.59869910E+00
  7.59869910E+00 -1.51973982E+01  7.59869910E+00  7.59869910E+00 -1.51973982E+01
  7.59869910E+00  7.59869910E+00 -1.51973982E+01  7.59869910E+00  7.59869910E+00
 -1.51973982E+01  7.59869910E+00  7.59869910E+00 -1.51973982E+01  7.59869910E+00
  7.59869910E+00 -1.51973982E+01  7.59869910E+00  7.59869910E+00 -1.51973982E+01
  7.59869910E+00  7.59869910E+00 -1.51973982E+01  7.59869910E+00  7.59869910E+00
 -1.51973982E+01  7.59869910E+00  7.59869910E+00 -1.51973982E+01  7.59869910E+00
  7.59869910E+00 -1.51973982E+01  7.59869910E+00  7.59869910E+00 -1.51973982E+01
  7.59869910E+00  7.59869910E+00 -1.51973982E+01  7.59869910E+00  7.59869910E+00
 -1.51973982E+01  7.59869910E+00  7.59869910E+00 -1.51973982E+01  7.59869910E+00
  7.59869910E+00 -1.51973982E+01  7.59869910E+00  7.59869910E+00 -1.51973982E+01
  7.59869910E+00  7.59869910E+00 -1.51973982E+01  7.59869910E+00  7.59869910E+00
 -1.51973982E+01  7.59869910E+00  7.59869910E+00 -1.51973982E+01  7.59869910E+00
  7.59869910E+00 -1.51973982E+01  7.59869910E+00  7.59869910E+00 -1.51973982E+01
  7.59869910E+00  7.59869910E+00 -1.51973982E+01  7.59869910E+00  7.59869910E+00
 -1.51973982E+01  7.59869910E+00  7.59869910E+00 -1.51973982E+01  7.59869910E+00
  7.59869910E+00 -1.51973982E+01  7.59869910E+00  7.59869910E+00 -1.51973982E+01
  7.59869910E+00  7.59869910E+00 -1.51973982E+01  7.59869910E+00  7.59869910E+00
 -1.51973982E+01  7.59869910E+00  7.59869910E+00 -1.51973982E+01  7.59869910E+00
  7.59869910E+00 -1.51973982E+01  7.59869910E+00  7.59869910E+00 -1.51973982E+01
  7.59869910E+00  7.59869910E+00 -1.51973982E+01  7.59869910E+00  7.59869910E+00
 -1.51973982E+01  7.59869910E+00  7.59869910E+00 -1.51973982E+01  7.59869910E+00
  7.59869910E+00 -1.51973982E+01  7.59869910E+00  7.59869910E+00 -1.51973982E+01
  7.59869910E+00  7.59869910E+00 -1.51973982E+01  7.59869910E+00  7.59869910E+00
 -1.51973982E+01  7.59869910E+00  7.59869910E+00 -1.51973982E+01  7.59869910E+00
  7.59869910E+00 -1.51973982E+01  7.59869910E+00  7.59869910E+00 -1.51973982E+01
  7.59869910E+00  7.59869910E+00 -1.51973982E+01  7.59869910E+00  7.59869910E+00
 -1.51973982E+01  7.59869910E+00  7.59869910E+00 -1.51973982E+01  7.59869910E+00
  7.59869910E+00 -1.51973982E+01  7.59869910E+00  7.59869910E+00 -1.51973982E+01
  7.59869910E+00  7.59869910E+00 -1.51973982E+01  7.59869910E+00  7.59869910E+00
 -1.51973982E+01  7.59869910E+00  7.59869910E+00 -1.51973982E+01  7.59869910E+00
  7.59869910E+00 -1.51973982E+01  7.59869910E+00  7.59869910E+00 -1.51973982E+01
  7.59869910E+00  7.59869910E+00 -1.51973982E+01  7.59869910E+00  7.59869910E+00
 -1.51973982E+01  7.59869910E+00  7.59869910E+00 -1.51973982E+01  7.59869910E+00
  7.59869910E+00 -1.51973982E+01  7.59869910E+00  7.59869910E+00 -1.51973982E+01
  7.59869910E+00  7.59869910E+00 -1.51973982E+01  7.59869910E+00  7.59869910E+00
 -1.51973982E+01  7.59869910E+00  7.59869910E+00 -1.51973982E+01  7.59869910E+00
  7.59869910E+00 -1.51973982E+01  7.59869910E+00  7.59869910E+00 -1.51973982E+01
  7.59869910E+00  7.59869910E+00 -1.51973982E+01  7.59869910E+00  7.59869910E+00
 -1.51973982E+01  7.59869910E+00  7.59869910E+00 -1.51973982E+01  7.59869910E+00
  7.59869910E+00 -1.51973982E+01  7.59869910E+00  7.59869910E+00 -1.51973982E+01
  7.59869910E+00  7.59869910E+00 -1.51973982E+01  7.59869910E+00  7.59869910E+00
 -1.51973982E+01  7.59869910E+00  7.59869910E+00 -1.51973982E+01  7.59869910E+00
  7.59869910E+00 -1.51973982E+01  7.59869910E+00  7.59869910E+00 -1.51973982E+01
  7.59869910E+00  7.59869910E+00 -1.51973982E+01  7.59869910E+00  7.59869910E+00
 -1.51973982E+01  7.59869910E+00  7.59869910E+00 -1.51973982E+01  7.59869910E+00
  7.59869910E+00 -1.51973982E+01  7.59869910E+00  7.59869910E+00 -1.51973982E+01
  7.59869910E+00  7.59869910E+00 -1.51973982E+01  7.59869910E+00  7.59869910E+00
 -1.51973982E+01  7.59869910E+00  7.59869910E+00 -1.51973982E+01  7.59869910E+00
  7.59869910E+00 -1.51973982E+01  7.59869910E+00  7.59869910E+00 -1.51973982E+01
  7.59869910E+00  7.59869910E+00 -1.51973982E+01  7.59869910E+00  7.59869910E+00
 -1.51973982E+01  7.59869910E+00  7.59869910E+00 -1.51973982E+01  7.59869910E+00
  7.59869910E+00 -1.51973982E+01  7.59869910E+00  7.59869910E+00 -1.51973982E+01
  7.59869910E+00  7.59869910E+00 -1.51973982E+01  7.59869910E+00  7.59869910E+00
 -1.51973982E+01  7.59869910E+00  7.59869910E+00 -1.51973982E+01  7.59869910E+00
  7.59869910E+00 -1.51973982E+01  7.59869910E+00  7.59869910E+00 -1.51973982E+01
  7.59869910E+00  7.59869910E+00 -1.51973982E+01  7.59869910E+00  7.59869910E+00
 -1.51973982E+01  7.59869910E+00  7.59869910E+00 -1.51973982E+01  7.59869910E+00
  7.59869910E+00 -1.51973982E+01  7.59869910E+00  7.59869910E+00 -1.51973982E+01
  7.59869910E+00  7.59869910E+00 -1.51973982E+01  7.59869910E+00  7.59869910E+00
 -1.51973982E+01  7.59869910E+00  7.59869910E+00 -1.51973982E+01  7.59869910E+00
  7.59869910E+00 -1.51973982E+01  7.59869910E+00  7.59869910E+00 -1.51973982E+01
  7.59869910E+00  7.59869910E+00 -1.51973982E+01  7.59869910E+00  7.59869910E+00
 -1.51973982E+01  7.59869910E+00  7.59869910E+00 -1.51973982E+01  7.59869910E+00
  7.59869910E+00 -1.51973982E+01  7.59869910E+00  7.59869910E+00 -1.51973982E+01
  7.59869910E+00  7.59869910E+00 -1.51973982E+01  7.59869910E+00  7.59869910E+00
 -1.51973982E+01  7.59869910E+00  7.59869910E+00 -1.51973982E+01  7.59869910E+00
  7.59869910E+00 -1.51973982E+01  7.59869910E+00  7.59869910E+00 -1.51973982E+01
  7.59869910E+00  7.59869910E+00 -1.51973982E+01  7.59869910E+00  7.59869910E+00
 -1.51973982E+01  7.59869910E+00  7.59869910E+00 -1.51973982E+01  7.59869910E+00
  7.59869910E+00 -1.51973982E+01  7.59869910E+00  7.59869910E+00 -1.51973982E+01
  7.59869910E+00  7.59869910E+00 -1.51973982E+01  7.59869910E+00  7.59869910E+00
 -1.51973982E+01  7.59869910E+00  7.59869910E+00 -1.51973982E+01  7.59869910E+00
  7.59869910E+00 -1.51973982E+01  7.59869910E+00  7.59869910E+00 -1.51973982E+01
  7.59869910E+00  7.59869910E+00 -1.51973982E+01  7.59869910E+00  7.59869910E+00
 -1.51973982E+01  7.59869910E+00  7.59869910E+00 -1.51973982E+01  7.59869910E+00
  7.59869910E+00 -1.51973982E+01  7.59869910E+00  7.59869910E+00 -1.51973982E+01
  7.59869910E+00  7.59869910E+00 -1.51973982E+01  7.59869910E+00  7.59869910E+00
 -1.51973982E+01  7.59869910E+00  7.59869910E+00 -1.51973982E+01  7.59869910E+00
  7.59869910E+00 -1.51973982E+01  7.59869910E+00  7.59869910E+00 -1.51973982E+01
  7.59869910E+00  7.59869910E+00 -1.51973982E+01  7.59869910E+00  7.59869910E+00
 -1.51973982E+01  7.59869910E+00  7.59869910E+00 -1.51973982E+01  7.59869910E+00
  7.59869910E+00 -1.51973982E+01  7.59869910E+00  7.59869910E+00 -1.51973982E+01
  7.59869910E+00  7.59869910E+00 -1.51973982E+01  7.59869910E+00  7.59869910E+00
 -1.51973982E+01  7.59869910E+00  7.59869910E+00 -1.51973982E+01  7.59869910E+00
  7.59869910E+00 -1.51973982E+01  7.59869910E+00  7.59869910E+00 -1.51973982E+01
  7.59869910E+00  7.59869910E+00 -1.51973982E+01  7.59869910E+00  7.59869910E+00
 -1.51973982E+01  7.59869910E+00  7.59869910E+00 -1.51973982E+01  7.59869910E+00
  7.59869910E+00 -1.51973982E+01  7.59869910E+00  7.59869910E+00 -1.51973982E+01
  7.59869910E+00  7.59869910E+00 -1.51973982E+01  7.59869910E+00  7.59869910E+00
 -1.51973982E+01  7.59869910E+00  7.59869910E+00 -1.51973982E+01  7.59869910E+00
  7.59869910E+00 -1.51973982E+01  7.59869910E+00  7.59869910E+00 -1.51973982E+01
  7.59869910E+00  7.59869910E+00 -1.51973982E+01  7.59869910E+00  7.59869910E+00
 -1.51973982E+01  7.59869910E+00  7.59869910E+00 -1.51973982E+01  7.59869910E+00
  7.59869910E+00 -1.51973982E+01  7.59869910E+00  7.59869910E+00 -1.51973982E+01
  7.59869910E+00  7.59869910E+00 -1.51973982E+01  7.59869910E+00  7.59869910E+00
 -1.51973982E+01  7.59869910E+00  7.59869910E+00 -1.51973982E+01  7.59869910E+00
  7.59869910E+00 -1.51973982E+01  7.59869910E+00  7.59869910E+00 -1.51973982E+01
  7.59869910E+00  7.59869910E+00 -1.51973982E+01  7.59869910E+00  7.59869910E+00
 -1.51973982E+01  7.59869910E+00  7.59869910E+00 -1.51973982E+01  7.59869910E+00
  7.59869910E+00 -1.51973982E+01  7.59869910E+00  7.59869910E+00 -1.51973982E+01
  7.59869910E+00  7.59869910E+00 -1.51973982E+01  7.59869910E+00  7.59869910E+00
 -1.51973982E+01  7.59869910E+00  7.59869910E+00 -1.51973982E+01  7.59869910E+00
  7.59869910E+00 -1.51973982E+01  7.59869910E+00  7.59869910E+00 -1.51973982E+01
  7.59869910E+00  7.59869910E+00 -1.51973982E+01  7.59869910E+00  7.59869910E+00
 -1.51973982E+01  7.59869910E+00  7.59869910E+00 -1.51973982E+01  7.59869910E+00
  7.59869910E+00 -1.51973982E+01  7.59869910E+00  7.59869910E+00 -1.51973982E+01
  7.59869910E+00  7.59869910E+00 -1.51973982E+01  7.59869910E+00  7.59869910E+00
 -1.51973982E+01  7.59869910E+00  7.59869910E+00 -1.51973982E+01  7.59869910E+00
  7.59869910E+00 -1.51973982E+01  7.59869910E+00  7.59869910E+00 -1.51973982E+01
  7.59869910E+00  7.59869910E+00 -1.51973982E+01  7.59869910E+00  7.59869910E+00
 -1.51973982E+01  7.59869910E+00  7.59869910E+00 -1.51973982E+01  7.59869910E+00
  7.59869910E+00 -1.51973982E+01  7.59869910E+00  7.59869910E+00 -1.51973982E+01
  7.59869910E+00  7.59869910E+00 -1.51973982E+01  7.59869910E+00  7.59869910E+00
 -1.51973982E+01  7.59869910E+00  7.59869910E+00 -1.51973982E+01  7.59869910E+00
  7.59869910E+00 -1.51973982E+01  7.59869910E+00  7.59869910E+00 -1.51973982E+01
  7.59869910E+00  7.59869910E+00 -1.51973982E+01  7.59869910E+00  7.59869910E+00
 -1.51973982E+01  7.59869910E+00  7.59869910E+00 -1.51973982E+01  7.59869910E+00
  7.59869910E+00 -1.51973982E+01  7.59869910E+00  7.59869910E+00 -1.51973982E+01
  7.59869910E+00  7.59869910E+00 -1.51973982E+01  7.59869910E+00  7.59869910E+00
 -1.51973982E+01  7.59869910E+00  7.59869910E+00 -1.51973982E+01  7.59869910E+00
  7.59869910E+00 -1.51973982E+01  7.59869910E+00  7.59869910E+00 -1.51973982E+01
  7.59869910E+00  7.59869910E+00 -1.51973982E+01  7.59869910E+00  7.59869910E+00
 -1.51973982E+01  7.59869910E+00  7.59869910E+00 -1.51973982E+01  7.59869910E+00
  7.59869910E+00 -1.51973982E+01  7.59869910E+00  7.59869910E+00 -1.51973982E+01
  7.59869910E+00  7.59869910E+00 -1.51973982E+01  7.59869910E+00  7.59869910E+00
 -1.51973982E+01  7.59869910E+00  7.59869910E+00 -1.51973982E+01  7.59869910E+00
  7.59869910E+00 -1.51973982E+01  7.59869910E+00  7.59869910E+00 -1.51973982E+01
  7.59869910E+00  7.59869910E+00 -1.51973982E+01  7.59869910E+00  7.59869910E+00
 -1.51973982E+01  7.59869910E+00  7.59869910E+00 -1.51973982E+01  7.59869910E+00
  7.59869910E+00 -1.51973982E+01  7.59869910E+00  7.59869910E+00 -1.51973982E+01
  7.59869910E+00  7.59869910E+00 -1.51973982E+01  7.59869910E+00  7.59869910E+00
 -1.51973982E+01  7.59869910E+00  7.59869910E+00 -1.51973982E+01  7.59869910E+00
  7.59869910E+00 -1.51973982E+01  7.59869910E+00  7.59869910E+00 -1.51973982E+01
  7.59869910E+00  7.59869910E+00 -1.51973982E+01  7.59869910E+00  7.59869910E+00
 -1.51973982E+01  7.59869910E+00  7.59869910E+00 -1.51973982E+01  7.59869910E+00
  7.59869910E+00 -1.51973982E+01  7.59869910E+00  7.59869910E+00 -1.51973982E+01
  7.59869910E+00  7.59869910E+00 -1.51973982E+01  7.59869910E+00  7.59869910E+00
 -1.51973982E+01  7.59869910E+00  7.59869910E+00 -1.51973982E+01  7.59869910E+00
  7.59869910E+00 -1.51973982E+01  7.59869910E+00  7.59869910E+00 -1.51973982E+01
  7.59869910E+00  7.59869910E+00 -1.51973982E+01  7.59869910E+00  7.59869910E+00
 -1.51973982E+01  7.59869910E+00  7.59869910E+00 -1.51973982E+01  7.59869910E+00
  7.59869910E+00 -1.51973982E+01  7.59869910E+00  7.59869910E+00 -1.51973982E+01
  7.59869910E+00  7.59869910E+00 -1.51973982E+01  7.59869910E+00  7.59869910E+00
 -1.51973982E+01  7.59869910E+00  7.59869910E+00 -1.51973982E+01  7.59869910E+00
  7.59869910E+00 -1.51973982E+01  7.59869910E+00  7.59869910E+00 -1.51973982E+01
  7.59869910E+00  7.59869910E+00 -1.51973982E+01  7.59869910E+00  7.59869910E+00
 -1.51973982E+01  7.59869910E+00  7.59869910E+00 -1.51973982E+01  7.59869910E+00
  7.59869910E+00 -1.51973982E+01  7.59869910E+00  7.59869910E+00 -1.51973982E+01
  7.59869910E+00  7.59869910E+00 -1.51973982E+01  7.59869910E+00  7.59869910E+00
 -1.51973982E+01  7.59869910E+00  7.59869910E+00 -1.51973982E+01  7.59869910E+00
  7.59869910E+00 -1.51973982E+01  7.59869910E+00  7.59869910E+00 -1.51973982E+01
  7.59869910E+00  7.59869910E+00 -1.51973982E+01  7.59869910E+00  7.59869910E+00
 -1.51973982E+01  7.59869910E+00  7.59869910E+00 -1.51973982E+01  7.59869910E+00
  7.59869910E+00 -1.51973982E+01  7.59869910E+00  7.59869910E+00 -1.51973982E+01
  7.59869910E+00  7.59869910E+00 -1.51973982E+01  7.59869910E+00  7.59869910E+00
 -1.51973982E+01  7.59869910E+00  7.59869910E+00 -1.51973982E+01  7.59869910E+00
  7.59869910E+00 -1.51973982E+01  7.59869910E+00  7.59869910E+00 -1.51973982E+01
  7.59869910E+00  7.59869910E+00 -1.51973982E+01  7.59869910E+00  7.59869910E+00
 -1.51973982E+01  7.59869910E+00  7.59869910E+00 -1.51973982E+01  7.59869910E+00
  7.59869910E+00 -1.51973982E+01  7.59869910E+00  7.59869910E+00 -1.51973982E+01
  7.59869910E+00  7.59869910E+00 -1.51973982E+01  7.59869910E+00  7.59869910E+00
 -1.51973982E+01  7.59869910E+00  7.59869910E+00 -1.51973982E+01  7.59869910E+00
  7.59869910E+00 -1.51973982E+01  7.59869910E+00  7.59869910E+00 -1.51973982E+01
  7.59869910E+00  7.59869910E+00 -1.51973982E+01  7.59869910E+00  7.59869910E+00
 -1.51973982E+01  7.59869910E+00  7.59869910E+00 -1.51973982E+01  7.59869910E+00
  7.59869910E+00 -1.51973982E+01  7.59869910E+00  7.59869910E+00 -1.51973982E+01
  7.59869910E+00  7.59869910E+00 -1.51973982E+01  7.59869910E+00  7.59869910E+00
 -1.51973982E+01  7.59869910E+00  7.59869910E+00 -1.51973982E+01  7.59869910E+00
  7.59869910E+00 -1.51973982E+01  7.59869910E+00  7.59869910E+00 -1.51973982E+01
  7.59869910E+00  7.59869910E+00 -1.51973982E+01  7.59869910E+00  7.59869910E+00
 -1.51973982E+01  7.59869910E+00  7.59869910E+00 -1.51973982E+01  7.59869910E+00
  7.59869910E+00 -1.51973982E+01  7.59869910E+00  7.59869910E+00 -1.51973982E+01
  7.59869910E+00  7.59869910E+00 -1.51973982E+01  7.59869910E+00  7.59869910E+00
 -1.51973982E+01  7.59869910E+00  7.59869910E+00 -1.51973982E+01  7.59869910E+00
  7.59869910E+00 -1.51973982E+01  7.59869910E+00  7.59869910E+00 -1.51973982E+01
  7.59869910E+00  7.59869910E+00 -1.51973982E+01  7.59869910E+00  7.59869910E+00
 -1.51973982E+01  7.59869910E+00  7.59869910E+00 -1.51973982E+01  7.59869910E+00
  7.59869910E+00 -1.51973982E+01  7.59869910E+00  7.59869910E+00 -1.51973982E+01
  7.59869910E+00  7.59869910E+00 -1.51973982E+01  7.59869910E+00  7.59869910E+00
 -1.51973982E+01  7.59869910E+00  7.59869910E+00 -1.51973982E+01  7.59869910E+00
  7.59869910E+00 -1.51973982E+01  7.59869910E+00  7.59869910E+00 -1.51973982E+01
  7.59869910E+00  7.59869910E+00 -1.51973982E+01  7.59869910E+00  7.59869910E+00
 -1.51973982E+01  7.59869910E+00  7.59869910E+00 -1.51973982E+01  7.59869910E+00
  7.59869910E+00 -1.51973982E+01  7.59869910E+00  7.59869910E+00 -1.51973982E+01
  7.59869910E+00  7.59869910E+00 -1.51973982E+01  7.59869910E+00  7.59869910E+00
 -1.51973982E+01  7.59869910E+00  7.59869910E+00 -1.51973982E+01  7.59869910E+00
  7.59869910E+00 -1.51973982E+01  7.59869910E+00  7.59869910E+00 -1.51973982E+01
  7.59869910E+00  7.59869910E+00 -1.51973982E+01  7.59869910E+00  7.59869910E+00
 -1.51973982E+01  7.59869910E+00  7.59869910E+00 -1.51973982E+01  7.59869910E+00
  7.59869910E+00 -1.51973982E+01  7.59869910E+00  7.59869910E+00 -1.51973982E+01
  7.59869910E+00  7.59869910E+00 -1.51973982E+01  7.59869910E+00  7.59869910E+00
 -1.51973982E+01  7.59869910E+00  7.59869910E+00 -1.51973982E+01  7.59869910E+00
  7.59869910E+00 -1.51973982E+01  7.59869910E+00  7.59869910E+00 -1.51973982E+01
  7.59869910E+00  7.59869910E+00 -1.51973982E+01  7.59869910E+00  7.59869910E+00
 -1.51973982E+01  7.59869910E+00  7.59869910E+00 -1.51973982E+01  7.59869910E+00
  7.59869910E+00 -1.51973982E+01  7.59869910E+00  7.59869910E+00 -1.51973982E+01
  7.59869910E+00  7.59869910E+00 -1.51973982E+01  7.59869910E+00  7.59869910E+00
 -1.51973982E+01  7.59869910E+00  7.59869910E+00 -1.51973982E+01  7.59869910E+00
  7.59869910E+00 -1.51973982E+01  7.59869910E+00  7.59869910E+00 -1.51973982E+01
  7.59869910E+00  7.59869910E+00 -1.51973982E+01  7.59869910E+00  7.59869910E+00
 -1.51973982E+01  7.59869910E+00  7.59869910E+00 -1.51973982E+01  7.59869910E+00
  7.59869910E+00 -1.51973982E+01  7.59869910E+00  7.59869910E+00 -1.51973982E+01
  7.59869910E+00  7.59869910E+00 -1.51973982E+01  7.59869910E+00  7.59869910E+00
 -1.51973982E+01  7.59869910E+00  7.59869910E+00 -1.51973982E+01  7.59869910E+00
  7.59869910E+00 -1.51973982E+01  7.59869910E+00  7.59869910E+00 -1.51973982E+01
  7.59869910E+00  7.59869910E+00 -1.51973982E+01  7.59869910E+00  7.59869910E+00
 -1.51973982E+01  7.59869910E+00  7.59869910E+00 -1.51973982E+01  7.59869910E+00
  7.59869910E+00 -1.51973982E+01  7.59869910E+00  7.59869910E+00 -1.51973982E+01
  7.59869910E+00  7.59869910E+00 -1.51973982E+01  7.59869910E+00  7.59869910E+00
 -1.51973982E+01  7.59869910E+00  7.59869910E+00 -1.51973982E+01  7.59869910E+00
  7.59869910E+00 -1.51973982E+01  7.59869910E+00  7.59869910E+00 -1.51973982E+01
  7.59869910E+00  7.59869910E+00 -1.51973982E+01  7.59869910E+00  7.59869910E+00
 -1.51973982E+01  7.59869910E+00  7.59869910E+00 -1.51973982E+01  7.59869910E+00
  7.59869910E+00 -1.51973982E+01  7.59869910E+00  7.59869910E+00 -1.51973982E+01
  7.59869910E+00  7.59869910E+00 -1.51973982E+01  7.59869910E+00  7.59869910E+00
 -1.51973982E+01  7.59869910E+00  7.59869910E+00 -1.51973982E+01  7.59869910E+00
  7.59869910E+00 -1.51973982E+01  7.59869910E+00  7.59869910E+00 -1.51973982E+01
  7.59869910E+00  7.59869910E+00 -1.51973982E+01  7.59869910E+00  7.59869910E+00
 -1.51973982E+01  7.59869910E+00  7.59869910E+00 -1.51973982E+01  7.59869910E+00
  7.59869910E+00 -1.51973982E+01  7.59869910E+00  7.59869910E+00 -1.51973982E+01
  7.59869910E+00  7.59869910E+00 -1.51973982E+01  7.59869910E+00  7.59869910E+00
 -1.51973982E+01  7.59869910E+00  7.59869910E+00 -1.51973982E+01  7.59869910E+00
  7.59869910E+00 -1.51973982E+01  7.59869910E+00  7.59869910E+00 -1.51973982E+01
  7.59869910E+00  7.59869910E+00 -1.51973982E+01  7.59869910E+00  7.59869910E+00
 -1.51973982E+01  7.59869910E+00  7.59869910E+00 -1.51973982E+01  7.59869910E+00
  7.59869910E+00 -1.51973982E+01  7.59869910E+00  7.59869910E+00 -1.51973982E+01
  7.59869910E+00  7.59869910E+00 -1.51973982E+01  7.59869910E+00  7.59869910E+00
 -1.51973982E+01  7.59869910E+00  7.59869910E+00 -1.51973982E+01  7.59869910E+00
  7.59869910E+00 -1.51973982E+01  7.59869910E+00  7.59869910E+00 -1.51973982E+01
  7.59869910E+00  7.59869910E+00 -1.51973982E+01  7.59869910E+00  7.59869910E+00
 -1.51973982E+01  7.59869910E+00  7.59869910E+00 -1.51973982E+01  7.59869910E+00
  7.59869910E+00 -1.51973982E+01  7.59869910E+00  7.59869910E+00 -1.51973982E+01
  7.59869910E+00  7.59869910E+00 -1.51973982E+01  7.59869910E+00  7.59869910E+00
 -1.51973982E+01  7.59869910E+00  7.59869910E+00 -1.51973982E+01  7.59869910E+00
  7.59869910E+00 -1.51973982E+01  7.59869910E+00  7.59869910E+00 -1.51973982E+01
  7.59869910E+00  7.59869910E+00 -1.51973982E+01  7.59869910E+00  7.59869910E+00
 -1.51973982E+01  7.59869910E+00  7.59869910E+00 -1.51973982E+01  7.59869910E+00
  7.59869910E+00 -1.51973982E+01  7.59869910E+00  7.59869910E+00 -1.51973982E+01
  7.59869910E+00  7.59869910E+00 -1.51973982E+01  7.59869910E+00  7.59869910E+00
 -1.51973982E+01  7.59869910E+00  7.59869910E+00 -1.51973982E+01  7.59869910E+00
  7.59869910E+00 -1.51973982E+01  7.59869910E+00  7.59869910E+00 -1.51973982E+01
  7.59869910E+00  7.59869910E+00 -1.51973982E+01  7.59869910E+00  7.59869910E+00
 -1.51973982E+01  7.59869910E+00  7.59869910E+00 -1.51973982E+01  7.59869910E+00
  7.59869910E+00 -1.51973982E+01  7.59869910E+00  7.59869910E+00 -1.51973982E+01
  7.59869910E+00  7.59869910E+00 -1.51973982E+01  7.59869910E+00  7.59869910E+00
 -1.51973982E+01  7.59869910E+00  7.59869910E+00 -1.51973982E+01  7.59869910E+00
  7.59869910E+00 -1.51973982E+01  7.59869910E+00  7.59869910E+00 -1.51973982E+01
  7.59869910E+00  7.59869910E+00 -1.51973982E+01  7.59869910E+00  7.59869910E+00
 -1.51973982E+01  7.59869910E+00  7.59869910E+00 -1.51973982E+01  7.59869910E+00
  7.59869910E+00 -1.51973982E+01  7.59869910E+00  7.59869910E+00 -1.51973982E+01
  7.59869910E+00  7.59869910E+00 -1.51973982E+01  7.59869910E+00  7.59869910E+00
 -1.51973982E+01  7.59869910E+00  7.59869910E+00 -1.51973982E+01  7.59869910E+00
  7.59869910E+00 -1.51973982E+01  7.59869910E+00  7.59869910E+00 -1.51973982E+01
  7.59869910E+00  7.59869910E+00 -1.51973982E+01  7.59869910E+00  7.59869910E+00
 -1.51973982E+01  7.59869910E+00  7.59869910E+00 -1.51973982E+01  7.59869910E+00
  7.59869910E+00 -1.51973982E+01  7.59869910E+00  7.59869910E+00 -1.51973982E+01
  7.59869910E+00  7.59869910E+00 -1.51973982E+01  7.59869910E+00  7.59869910E+00
 -1.51973982E+01  7.59869910E+00  7.59869910E+00 -1.51973982E+01  7.59869910E+00
  7.59869910E+00 -1.51973982E+01  7.59869910E+00  7.59869910E+00 -1.51973982E+01
  7.59869910E+00  7.59869910E+00 -1.51973982E+01  7.59869910E+00  7.59869910E+00
 -1.51973982E+01  7.59869910E+00  7.59869910E+00 -1.51973982E+01  7.59869910E+00
  7.59869910E+00 -1.51973982E+01  7.59869910E+00  7.59869910E+00 -1.51973982E+01
  7.59869910E+00  7.59869910E+00 -1.51973982E+01  7.59869910E+00  7.59869910E+00
 -1.51973982E+01  7.59869910E+00  7.59869910E+00 -1.51973982E+01  7.59869910E+00
  7.59869910E+00 -1.51973982E+01  7.59869910E+00  7.59869910E+00 -1.51973982E+01
  7.59869910E+00  7.59869910E+00 -1.51973982E+01  7.59869910E+00  7.59869910E+00
 -1.51973982E+01  7.59869910E+00  7.59869910E+00 -1.51973982E+01  7.59869910E+00
  7.59869910E+00 -1.51973982E+01  7.59869910E+00  7.59869910E+00 -1.51973982E+01
  7.59869910E+00  7.59869910E+00 -1.51973982E+01  7.59869910E+00  7.59869910E+00
 -1.51973982E+01  7.59869910E+00  7.59869910E+00 -1.51973982E+01  7.59869910E+00
  7.59869910E+00 -1.51973982E+01  7.59869910E+00  7.59869910E+00 -1.51973982E+01
  7.59869910E+00  7.59869910E+00 -1.51973982E+01  7.59869910E+00  7.59869910E+00
 -1.51973982E+01  7.59869910E+00  7.59869910E+00 -1.51973982E+01  7.59869910E+00
  7.59869910E+00 -1.51973982E+01  7.59869910E+00  7.59869910E+00 -1.51973982E+01
  7.59869910E+00  7.59869910E+00 -1.51973982E+01  7.59869910E+00  7.59869910E+00
 -1.51973982E+01  7.59869910E+00  7.59869910E+00 -1.51973982E+01  7.59869910E+00
  7.59869910E+00 -1.51973982E+01  7.59869910E+00  7.59869910E+00 -1.51973982E+01
  7.59869910E+00  7.59869910E+00 -1.51973982E+01  7.59869910E+00  7.59869910E+00
 -1.51973982E+01  7.59869910E+00  7.59869910E+00 -1.51973982E+01  7.59869910E+00
  7.59869910E+00 -1.51973982E+01  7.59869910E+00  7.59869910E+00 -1.51973982E+01
  7.59869910E+00  7.59869910E+00 -1.51973982E+01  7.59869910E+00  7.59869910E+00
 -1.51973982E+01  7.59869910E+00  7.59869910E+00 -1.51973982E+01  7.59869910E+00
  7.59869910E+00 -1.51973982E+01  7.59869910E+00  7.59869910E+00 -1.51973982E+01
  7.59869910E+00  7.59869910E+00 -1.51973982E+01  7.59869910E+00  7.59869910E+00
 -1.51973982E+01  7.59869910E+00  7.59869910E+00 -1.51973982E+01  7.59869910E+00
  7.59869910E+00 -1.51973982E+01  7.59869910E+00  7.59869910E+00 -1.51973982E+01
  7.59869910E+00  7.59869910E+00 -1.51973982E+01  7.59869910E+00  7.59869910E+00
 -1.51973982E+01  7.59869910E+00  7.59869910E+00 -1.51973982E+01  7.59869910E+00
  7.59869910E+00 -1.51973982E+01  7.59869910E+00  7.59869910E+00 -1.51973982E+01
  7.59869910E+00  7.59869910E+00 -1.51973982E+01  7.59869910E+00  7.59869910E+00
 -1.51973982E+01  7.59869910E+00  7.59869910E+00 -1.51973982E+01  7.59869910E+00
  7.59869910E+00 -1.51973982E+01  7.59869910E+00  7.59869910E+00 -1.51973982E+01
  7.59869910E+00  7.59869910E+00 -1.51973982E+01  7.59869910E+00  7.59869910E+00
 -1.51973982E+01  7.59869910E+00  7.59869910E+00 -1.51973982E+01  7.59869910E+00
  7.59869910E+00 -1.51973982E+01  7.59869910E+00  7.59869910E+00 -1.51973982E+01
  7.59869910E+00  7.59869910E+00 -1.51973982E+01  7.59869910E+00  7.59869910E+00
 -1.51973982E+01  7.59869910E+00  7.59869910E+00 -1.51973982E+01  7.59869910E+00
  7.59869910E+00 -1.51973982E+01  7.59869910E+00  7.59869910E+00 -1.51973982E+01
  7.59869910E+00  7.59869910E+00 -1.51973982E+01  7.59869910E+00  7.59869910E+00
 -1.51973982E+01  7.59869910E+00  7.59869910E+00 -1.51973982E+01  7.59869910E+00
  7.59869910E+00 -1.51973982E+01  7.59869910E+00  7.59869910E+00 -1.51973982E+01
  7.59869910E+00  7.59869910E+00 -1.51973982E+01  7.59869910E+00  7.59869910E+00
 -1.51973982E+01  7.59869910E+00  7.59869910E+00 -1.51973982E+01  7.59869910E+00
  7.59869910E+00 -1.51973982E+01  7.59869910E+00  7.59869910E+00 -1.51973982E+01
  7.59869910E+00  7.59869910E+00 -1.51973982E+01  7.59869910E+00  7.59869910E+00
 -1.51973982E+01  7.59869910E+00  7.59869910E+00 -1.51973982E+01  7.59869910E+00
  7.59869910E+00 -1.51973982E+01  7.59869910E+00  7.59869910E+00 -1.51973982E+01
  7.59869910E+00  7.59869910E+00 -1.51973982E+01  7.59869910E+00  7.59869910E+00
 -1.51973982E+01  7.59869910E+00  7.59869910E+00 -1.51973982E+01  7.59869910E+00
  7.59869910E+00 -1.51973982E+01  7.59869910E+00  7.59869910E+00 -1.51973982E+01
  7.59869910E+00  7.59869910E+00 -1.51973982E+01  7.59869910E+00  7.59869910E+00
 -1.51973982E+01  7.59869910E+00  7.59869910E+00 -1.51973982E+01  7.59869910E+00
  7.59869910E+00 -1.51973982E+01  7.59869910E+00  7.59869910E+00 -1.51973982E+01
  7.59869910E+00  7.59869910E+00 -1.51973982E+01  7.59869910E+00  7.59869910E+00
 -1.51973982E+01  7.59869910E+00  7.59869910E+00 -1.51973982E+01  7.59869910E+00
  7.59869910E+00 -1.51973982E+01  7.59869910E+00  7.59869910E+00 -1.51973982E+01
  7.59869910E+00  7.59869910E+00 -1.51973982E+01  7.59869910E+00  7.59869910E+00
 -1.51973982E+01  7.59869910E+00  7.59869910E+00 -1.51973982E+01  7.59869910E+00
  7.59869910E+00 -1.51973982E+01  7.59869910E+00  7.59869910E+00 -1.51973982E+01
  7.59869910E+00  7.59869910E+00 -1.51973982E+01  7.59869910E+00  7.59869910E+00
 -1.51973982E+01  7.59869910E+00  7.59869910E+00 -1.51973982E+01  7.59869910E+00
  7.59869910E+00 -1.51973982E+01  7.59869910E+00  7.59869910E+00 -1.51973982E+01
  7.59869910E+00  7.59869910E+00 -1.51973982E+01  7.59869910E+00  7.59869910E+00
 -1.51973982E+01  7.59869910E+00  7.59869910E+00 -1.51973982E+01  7.59869910E+00
  7.59869910E+00 -1.51973982E+01  7.59869910E+00  7.59869910E+00 -1.51973982E+01
  7.59869910E+00  7.59869910E+00 -1.51973982E+01  7.59869910E+00  7.59869910E+00
 -1.51973982E+01  7.59869910E+00  7.59869910E+00 -1.51973982E+01  7.59869910E+00
  7.59869910E+00 -1.51973982E+01  7.59869910E+00  7.59869910E+00 -1.51973982E+01
  7.59869910E+00  7.59869910E+00 -1.51973982E+01  7.59869910E+00  7.59869910E+00
 -1.51973982E+01  7.59869910E+00  7.59869910E+00 -1.51973982E+01  7.59869910E+00
  7.59869910E+00 -1.51973982E+01  7.59869910E+00  7.59869910E+00 -1.51973982E+01
  7.59869910E+00  7.59869910E+00 -1.51973982E+01  7.59869910E+00  7.59869910E+00
 -1.51973982E+01  7.59869910E+00  7.59869910E+00 -1.51973982E+01  7.59869910E+00
  7.59869910E+00 -1.51973982E+01  7.59869910E+00  7.59869910E+00 -1.51973982E+01
  7.59869910E+00  7.59869910E+00 -1.51973982E+01  7.59869910E+00  7.59869910E+00
 -1.51973982E+01  7.59869910E+00  7.59869910E+00 -1.51973982E+01  7.59869910E+00
  7.59869910E+00 -1.51973982E+01  7.59869910E+00  7.59869910E+00 -1.51973982E+01
  7.59869910E+00  7.59869910E+00 -1.51973982E+01  7.59869910E+00  7.59869910E+00
 -1.51973982E+01  7.59869910E+00  7.59869910E+00 -1.51973982E+01  7.59869910E+00
  7.59869910E+00 -1.51973982E+01  7.59869910E+00  7.59869910E+00 -1.51973982E+01
  7.59869910E+00  7.59869910E+00 -1.51973982E+01  7.59869910E+00  7.59869910E+00
 -1.51973982E+01  7.59869910E+00  7.59869910E+00 -1.51973982E+01  7.59869910E+00
  7.59869910E+00 -1.51973982E+01  7.59869910E+00  7.59869910E+00 -1.51973982E+01
  7.59869910E+00  7.59869910E+00 -1.51973982E+01  7.59869910E+00  7.59869910E+00
 -1.51973982E+01  7.59869910E+00  7.59869910E+00 -1.51973982E+01  7.59869910E+00
  7.59869910E+00 -1.51973982E+01  7.59869910E+00  7.59869910E+00 -1.51973982E+01
  7.59869910E+00  7.59869910E+00 -1.51973982E+01  7.59869910E+00  7.59869910E+00
 -1.51973982E+01  7.59869910E+00  7.59869910E+00 -1.51973982E+01  7.59869910E+00
  7.59869910E+00 -1.51973982E+01  7.59869910E+00  7.59869910E+00 -1.51973982E+01
  7.59869910E+00  7.59869910E+00 -1.51973982E+01  7.59869910E+00  7.59869910E+00
 -1.51973982E+01  7.59869910E+00  7.59869910E+00 -1.51973982E+01  7.59869910E+00
  7.59869910E+00 -1.51973982E+01  7.59869910E+00  7.59869910E+00 -1.51973982E+01
  7.59869910E+00  7.59869910E+00 -1.51973982E+01  7.59869910E+00  7.59869910E+00
 -1.51973982E+01  7.59869910E+00  7.59869910E+00 -1.51973982E+01  7.59869910E+00
  7.59869910E+00 -1.51973982E+01  7.59869910E+00  7.59869910E+00 -1.51973982E+01
  7.59869910E+00  7.59869910E+00 -1.51973982E+01  7.59869910E+00  7.59869910E+00
 -1.51973982E+01  7.59869910E+00  7.59869910E+00 -1.51973982E+01  7.59869910E+00
  7.59869910E+00 -1.51973982E+01  7.59869910E+00  7.59869910E+00 -1.51973982E+01
  7.59869910E+00  7.59869910E+00 -1.51973982E+01  7.59869910E+00  7.59869910E+00
 -1.51973982E+01  7.59869910E+00  7.59869910E+00 -1.51973982E+01  7.59869910E+00
  7.59869910E+00 -1.51973982E+01  7.59869910E+00  7.59869910E+00 -1.51973982E+01
  7.59869910E+00  7.59869910E+00 -1.51973982E+01  7.59869910E+00  7.59869910E+00
 -1.51973982E+01  7.59869910E+00  7.59869910E+00 -1.51973982E+01  7.59869910E+00
  7.59869910E+00 -1.51973982E+01  7.59869910E+00  7.59869910E+00 -1.51973982E+01
  7.59869910E+00  7.59869910E+00 -1.51973982E+01  7.59869910E+00  7.59869910E+00
 -1.51973982E+01  7.59869910E+00  7.59869910E+00 -1.51973982E+01  7.59869910E+00
  7.59869910E+00 -1.51973982E+01  7.59869910E+00  7.59869910E+00 -1.51973982E+01
  7.59869910E+00  7.59869910E+00 -1.51973982E+01  7.59869910E+00  7.59869910E+00
 -1.51973982E+01  7.59869910E+00  7.59869910E+00 -1.51973982E+01  7.59869910E+00
  7.59869910E+00 -1.51973982E+01  7.59869910E+00  7.59869910E+00 -1.51973982E+01
  7.59869910E+00  7.59869910E+00 -1.51973982E+01  7.59869910E+00  7.59869910E+00
 -1.51973982E+01  7.59869910E+00  7.59869910E+00 -1.51973982E+01  7.59869910E+00
  7.59869910E+00 -1.51973982E+01  7.59869910E+00  7.59869910E+00 -1.51973982E+01
  7.59869910E+00  7.59869910E+00 -1.51973982E+01  7.59869910E+00  7.59869910E+00
 -1.51973982E+01  7.59869910E+00  7.59869910E+00 -1.51973982E+01  7.59869910E+00
  7.59869910E+00 -1.51973982E+01  7.59869910E+00  7.59869910E+00 -1.51973982E+01
  7.59869910E+00  7.59869910E+00 -1.51973982E+01  7.59869910E+00  7.59869910E+00
 -1.51973982E+01  7.59869910E+00  7.59869910E+00 -1.51973982E+01  7.59869910E+00
  7.59869910E+00 -1.51973982E+01  7.59869910E+00  7.59869910E+00 -1.51973982E+01
  7.59869910E+00  7.59869910E+00 -1.51973982E+01  7.59869910E+00  7.59869910E+00
 -1.51973982E+01  7.59869910E+00  7.59869910E+00 -1.51973982E+01  7.59869910E+00
  7.59869910E+00 -1.51973982E+01  7.59869910E+00  7.59869910E+00 -1.51973982E+01
  7.59869910E+00  7.59869910E+00 -1.51973982E+01  7.59869910E+00  7.59869910E+00
 -1.51973982E+01  7.59869910E+00  7.59869910E+00 -1.51973982E+01  7.59869910E+00
  7.59869910E+00 -1.51973982E+01  7.59869910E+00  7.59869910E+00 -1.51973982E+01
  7.59869910E+00  7.59869910E+00 -1.51973982E+01  7.59869910E+00  7.59869910E+00
 -1.51973982E+01  7.59869910E+00  7.59869910E+00 -1.51973982E+01  7.59869910E+00
  7.59869910E+00 -1.51973982E+01  7.59869910E+00  7.59869910E+00 -1.51973982E+01
  7.59869910E+00  7.59869910E+00 -1.51973982E+01  7.59869910E+00  7.59869910E+00
 -1.51973982E+01  7.59869910E+00  7.59869910E+00 -1.51973982E+01  7.59869910E+00
  7.59869910E+00 -1.51973982E+01  7.59869910E+00  7.59869910E+00 -1.51973982E+01
  7.59869910E+00  7.59869910E+00 -1.51973982E+01  7.59869910E+00  7.59869910E+00
 -1.51973982E+01  7.59869910E+00  7.59869910E+00 -1.51973982E+01  7.59869910E+00
  7.59869910E+00 -1.51973982E+01  7.59869910E+00  7.59869910E+00 -1.51973982E+01
  7.59869910E+00  7.59869910E+00 -1.51973982E+01  7.59869910E+00  7.59869910E+00
 -1.51973982E+01  7.59869910E+00  7.59869910E+00 -1.51973982E+01  7.59869910E+00
  7.59869910E+00 -1.51973982E+01  7.59869910E+00  7.59869910E+00 -1.51973982E+01
  7.59869910E+00  7.59869910E+00 -1.51973982E+01  7.59869910E+00  7.59869910E+00
 -1.51973982E+01  7.59869910E+00  7.59869910E+00 -1.51973982E+01  7.59869910E+00
  7.59869910E+00 -1.51973982E+01  7.59869910E+00  7.59869910E+00 -1.51973982E+01
  7.59869910E+00  7.59869910E+00 -1.51973982E+01  7.59869910E+00  7.59869910E+00
 -1.51973982E+01  7.59869910E+00  7.59869910E+00 -1.51973982E+01  7.59869910E+00
  7.59869910E+00 -1.51973982E+01  7.59869910E+00  7.59869910E+00 -1.51973982E+01
  7.59869910E+00  7.59869910E+00 -1.51973982E+01  7.59869910E+00  7.59869910E+00
 -1.51973982E+01  7.59869910E+00  7.59869910E+00 -1.51973982E+01  7.59869910E+00
  7.59869910E+00 -1.51973982E+01  7.59869910E+00  7.59869910E+00 -1.51973982E+01
  7.59869910E+00  7.59869910E+00 -1.51973982E+01  7.59869910E+00  7.59869910E+00
 -1.51973982E+01  7.59869910E+00  7.59869910E+00 -1.51973982E+01  7.59869910E+00
  7.59869910E+00 -1.51973982E+01  7.59869910E+00  7.59869910E+00 -1.51973982E+01
  7.59869910E+00  7.59869910E+00 -1.51973982E+01  7.59869910E+00  7.59869910E+00
 -1.51973982E+01  7.59869910E+00  7.59869910E+00 -1.51973982E+01  7.59869910E+00
  7.59869910E+00 -1.51973982E+01  7.59869910E+00  7.59869910E+00 -1.51973982E+01
  7.59869910E+00  7.59869910E+00 -1.51973982E+01  7.59869910E+00  7.59869910E+00
 -1.51973982E+01  7.59869910E+00  7.59869910E+00 -1.51973982E+01  7.59869910E+00
  7.59869910E+00 -1.51973982E+01  7.59869910E+00  7.59869910E+00 -1.51973982E+01
  7.59869910E+00  7.59869910E+00 -1.51973982E+01  7.59869910E+00  7.59869910E+00
 -1.51973982E+01  7.59869910E+00  7.59869910E+00 -1.51973982E+01  7.59869910E+00
  7.59869910E+00 -1.51973982E+01  7.59869910E+00  7.59869910E+00 -1.51973982E+01
  7.59869910E+00  7.59869910E+00 -1.51973982E+01  7.59869910E+00  7.59869910E+00
 -1.51973982E+01  7.59869910E+00  7.59869910E+00 -1.51973982E+01  7.59869910E+00
  7.59869910E+00 -1.51973982E+01  7.59869910E+00  7.59869910E+00 -1.51973982E+01
  7.59869910E+00  7.59869910E+00 -1.51973982E+01  7.59869910E+00  7.59869910E+00
 -1.51973982E+01  7.59869910E+00  7.59869910E+00 -1.51973982E+01  7.59869910E+00
  7.59869910E+00 -1.51973982E+01  7.59869910E+00  7.59869910E+00 -1.51973982E+01
  7.59869910E+00  7.59869910E+00 -1.51973982E+01  7.59869910E+00  7.59869910E+00
 -1.51973982E+01  7.59869910E+00  7.59869910E+00 -1.51973982E+01  7.59869910E+00
  7.59869910E+00 -1.51973982E+01  7.59869910E+00  7.59869910E+00 -1.51973982E+01
  7.59869910E+00  7.59869910E+00 -1.51973982E+01  7.59869910E+00  7.59869910E+00
 -1.51973982E+01  7.59869910E+00  7.59869910E+00 -1.51973982E+01  7.59869910E+00
  7.59869910E+00 -1.51973982E+01  7.59869910E+00  7.59869910E+00 -1.51973982E+01
  7.59869910E+00  7.59869910E+00 -1.51973982E+01  7.59869910E+00  7.59869910E+00
 -1.51973982E+01  7.59869910E+00  7.59869910E+00 -1.51973982E+01  7.59869910E+00
  7.59869910E+00 -1.51973982E+01  7.59869910E+00  7.59869910E+00 -1.51973982E+01
  7.59869910E+00  7.59869910E+00 -1.51973982E+01  7.59869910E+00  7.59869910E+00
 -1.51973982E+01  7.59869910E+00  7.59869910E+00 -1.51973982E+01  7.59869910E+00
  7.59869910E+00 -1.51973982E+01  7.59869910E+00  7.59869910E+00 -1.51973982E+01
  7.59869910E+00  7.59869910E+00 -1.51973982E+01  7.59869910E+00  7.59869910E+00
 -1.51973982E+01  7.59869910E+00  7.59869910E+00 -1.51973982E+01  7.59869910E+00
  7.59869910E+00 -1.51973982E+01  7.59869910E+00  7.59869910E+00 -1.51973982E+01
  7.59869910E+00  7.59869910E+00 -1.51973982E+01  7.59869910E+00  7.59869910E+00
 -1.51973982E+01  7.59869910E+00  7.59869910E+00 -1.51973982E+01  7.59869910E+00
  7.59869910E+00 -1.51973982E+01  7.59869910E+00  7.59869910E+00 -1.51973982E+01
  7.59869910E+00  7.59869910E+00 -1.51973982E+01  7.59869910E+00  7.59869910E+00
 -1.51973982E+01  7.59869910E+00  7.59869910E+00 -1.51973982E+01  7.59869910E+00
  7.59869910E+00 -1.51973982E+01  7.59869910E+00  7.59869910E+00 -1.51973982E+01
  7.59869910E+00  7.59869910E+00 -1.51973982E+01  7.59869910E+00  7.59869910E+00
 -1.51973982E+01  7.59869910E+00  7.59869910E+00 -1.51973982E+01  7.59869910E+00
  7.59869910E+00 -1.51973982E+01  7.59869910E+00  7.59869910E+00 -1.51973982E+01
  7.59869910E+00  7.59869910E+00 -1.51973982E+01  7.59869910E+00  7.59869910E+00
 -1.51973982E+01  7.59869910E+00  7.59869910E+00 -1.51973982E+01  7.59869910E+00
  7.59869910E+00 -1.51973982E+01  7.59869910E+00  7.59869910E+00 -1.51973982E+01
  7.59869910E+00  7.59869910E+00 -1.51973982E+01  7.59869910E+00  7.59869910E+00
 -1.51973982E+01  7.59869910E+00  7.59869910E+00 -1.51973982E+01  7.59869910E+00
  7.59869910E+00 -1.51973982E+01  7.59869910E+00  7.59869910E+00 -1.51973982E+01
  7.59869910E+00  7.59869910E+00 -1.51973982E+01  7.59869910E+00  7.59869910E+00
 -1.51973982E+01  7.59869910E+00  7.59869910E+00 -1.51973982E+01  7.59869910E+00
  7.59869910E+00 -1.51973982E+01  7.59869910E+00  7.59869910E+00 -1.51973982E+01
  7.59869910E+00  7.59869910E+00 -1.51973982E+01  7.59869910E+00  7.59869910E+00
 -1.51973982E+01  7.59869910E+00  7.59869910E+00 -1.51973982E+01  7.59869910E+00
  7.59869910E+00 -1.51973982E+01  7.59869910E+00  7.59869910E+00 -1.51973982E+01
  7.59869910E+00  7.59869910E+00 -1.51973982E+01  7.59869910E+00  7.59869910E+00
 -1.51973982E+01  7.59869910E+00  7.59869910E+00 -1.51973982E+01  7.59869910E+00
  7.59869910E+00 -1.51973982E+01  7.59869910E+00  7.59869910E+00 -1.51973982E+01
  7.59869910E+00  7.59869910E+00 -1.51973982E+01  7.59869910E+00  7.59869910E+00
 -1.51973982E+01  7.59869910E+00  7.59869910E+00 -1.51973982E+01  7.59869910E+00
  7.59869910E+00 -1.51973982E+01  7.59869910E+00  7.59869910E+00 -1.51973982E+01
  7.59869910E+00  7.59869910E+00 -1.51973982E+01  7.59869910E+00  7.59869910E+00
 -1.51973982E+01  7.59869910E+00  7.59869910E+00 -1.51973982E+01  7.59869910E+00
  7.59869910E+00 -1.51973982E+01  7.59869910E+00  7.59869910E+00 -1.51973982E+01
  7.59869910E+00  7.59869910E+00 -1.51973982E+01  7.59869910E+00  7.59869910E+00
 -1.51973982E+01  7.59869910E+00  7.59869910E+00 -1.51973982E+01  7.59869910E+00
  7.59869910E+00 -1.51973982E+01  7.59869910E+00  7.59869910E+00 -1.51973982E+01
  7.59869910E+00  7.59869910E+00 -1.51973982E+01  7.59869910E+00  7.59869910E+00
 -1.51973982E+01  7.59869910E+00  7.59869910E+00 -1.51973982E+01  7.59869910E+00
  7.59869910E+00 -1.51973982E+01  7.59869910E+00  7.59869910E+00 -1.51973982E+01
  7.59869910E+00  7.59869910E+00 -1.51973982E+01  7.59869910E+00  7.59869910E+00
 -1.51973982E+01  7.59869910E+00  7.59869910E+00 -1.51973982E+01  7.59869910E+00
  7.59869910E+00 -1.51973982E+01  7.59869910E+00  7.59869910E+00 -1.51973982E+01
  7.59869910E+00  7.59869910E+00 -1.51973982E+01  7.59869910E+00  7.59869910E+00
 -1.51973982E+01  7.59869910E+00  7.59869910E+00 -1.51973982E+01  7.59869910E+00
  7.59869910E+00 -1.51973982E+01  7.59869910E+00  7.59869910E+00 -1.51973982E+01
  7.59869910E+00  7.59869910E+00 -1.51973982E+01  7.59869910E+00  7.59869910E+00
 -1.51973982E+01  7.59869910E+00  7.59869910E+00 -1.51973982E+01  7.59869910E+00
  7.59869910E+00 -1.51973982E+01  7.59869910E+00  7.59869910E+00 -1.51973982E+01
  7.59869910E+00  7.59869910E+00 -1.51973982E+01  7.59869910E+00  7.59869910E+00
 -1.51973982E+01  7.59869910E+00  7.59869910E+00 -1.51973982E+01  7.59869910E+00
  7.59869910E+00 -1.51973982E+01  7.59869910E+00  7.59869910E+00 -1.51973982E+01
  7.59869910E+00  7.59869910E+00 -1.51973982E+01  7.59869910E+00  7.59869910E+00
 -1.51973982E+01  7.59869910E+00  7.59869910E+00 -1.51973982E+01  7.59869910E+00
  7.59869910E+00 -1.51973982E+01  7.59869910E+00  7.59869910E+00 -1.51973982E+01
  7.59869910E+00  7.59869910E+00 -1.51973982E+01  7.59869910E+00  7.59869910E+00
 -1.51973982E+01  7.59869910E+00  7.59869910E+00 -1.51973982E+01  7.59869910E+00
  7.59869910E+00 -1.51973982E+01  7.59869910E+00  7.59869910E+00 -1.51973982E+01
  7.59869910E+00  7.59869910E+00 -1.51973982E+01  7.59869910E+00  7.59869910E+00
 -1.51973982E+01  7.59869910E+00  7.59869910E+00 -1.51973982E+01  7.59869910E+00
  7.59869910E+00 -1.51973982E+01  7.59869910E+00  7.59869910E+00 -1.51973982E+01
  7.59869910E+00  7.59869910E+00 -1.51973982E+01  7.59869910E+00  7.59869910E+00
 -1.51973982E+01  7.59869910E+00  7.59869910E+00 -1.51973982E+01  7.59869910E+00
  7.59869910E+00 -1.51973982E+01  7.59869910E+00  7.59869910E+00 -1.51973982E+01
  7.59869910E+00  7.59869910E+00 -1.51973982E+01  7.59869910E+00  7.59869910E+00
 -1.51973982E+01  7.59869910E+00  7.59869910E+00 -1.51973982E+01  7.59869910E+00
  7.59869910E+00 -1.51973982E+01  7.59869910E+00  7.59869910E+00 -1.51973982E+01
  7.59869910E+00  7.59869910E+00 -1.51973982E+01  7.59869910E+00  7.59869910E+00
 -1.51973982E+01  7.59869910E+00  7.59869910E+00 -1.51973982E+01  7.59869910E+00
  7.59869910E+00 -1.51973982E+01  7.59869910E+00  7.59869910E+00 -1.51973982E+01
  7.59869910E+00  7.59869910E+00 -1.51973982E+01  7.59869910E+00  7.59869910E+00
 -1.51973982E+01  7.59869910E+00  7.59869910E+00 -1.51973982E+01  7.59869910E+00
  7.59869910E+00 -1.51973982E+01  7.59869910E+00  7.59869910E+00 -1.51973982E+01
  7.59869910E+00  7.59869910E+00 -1.51973982E+01  7.59869910E+00  7.59869910E+00
 -1.51973982E+01  7.59869910E+00  7.59869910E+00 -1.51973982E+01  7.59869910E+00
  7.59869910E+00 -1.51973982E+01  7.59869910E+00  7.59869910E+00 -1.51973982E+01
  7.59869910E+00  7.59869910E+00 -1.51973982E+01  7.59869910E+00  7.59869910E+00
 -1.51973982E+01  7.59869910E+00  7.59869910E+00 -1.51973982E+01  7.59869910E+00
  7.59869910E+00 -1.51973982E+01  7.59869910E+00  7.59869910E+00 -1.51973982E+01
  7.59869910E+00  7.59869910E+00 -1.51973982E+01  7.59869910E+00  7.59869910E+00
 -1.51973982E+01  7.59869910E+00  7.59869910E+00 -1.51973982E+01  7.59869910E+00
  7.59869910E+00 -1.51973982E+01  7.59869910E+00  7.59869910E+00 -1.51973982E+01
  7.59869910E+00  7.59869910E+00 -1.51973982E+01  7.59869910E+00  7.59869910E+00
 -1.51973982E+01  7.59869910E+00  7.59869910E+00 -1.51973982E+01  7.59869910E+00
  7.59869910E+00 -1.51973982E+01  7.59869910E+00  7.59869910E+00 -1.51973982E+01
  7.59869910E+00  7.59869910E+00 -1.51973982E+01  7.59869910E+00  7.59869910E+00
 -1.51973982E+01  7.59869910E+00  7.59869910E+00 -1.51973982E+01  7.59869910E+00
  7.59869910E+00 -1.51973982E+01  7.59869910E+00  7.59869910E+00 -1.51973982E+01
  7.59869910E+00  7.59869910E+00 -1.51973982E+01  7.59869910E+00  7.59869910E+00
 -1.51973982E+01  7.59869910E+00  7.59869910E+00 -1.51973982E+01  7.59869910E+00
  7.59869910E+00 -1.51973982E+01  7.59869910E+00  7.59869910E+00 -1.51973982E+01
  7.59869910E+00  7.59869910E+00 -1.51973982E+01  7.59869910E+00  7.59869910E+00
 -1.51973982E+01  7.59869910E+00  7.59869910E+00 -1.51973982E+01  7.59869910E+00
  7.59869910E+00 -1.51973982E+01  7.59869910E+00  7.59869910E+00 -1.51973982E+01
  7.59869910E+00  7.59869910E+00 -1.51973982E+01  7.59869910E+00  7.59869910E+00
 -1.51973982E+01  7.59869910E+00  7.59869910E+00 -1.51973982E+01  7.59869910E+00
  7.59869910E+00 -1.51973982E+01  7.59869910E+00  7.59869910E+00 -1.51973982E+01
  7.59869910E+00  7.59869910E+00 -1.51973982E+01  7.59869910E+00  7.59869910E+00
 -1.51973982E+01  7.59869910E+00  7.59869910E+00 -1.51973982E+01  7.59869910E+00
  7.59869910E+00 -1.51973982E+01  7.59869910E+00  7.59869910E+00 -1.51973982E+01
  7.59869910E+00  7.59869910E+00 -1.51973982E+01  7.59869910E+00  7.59869910E+00
 -1.51973982E+01  7.59869910E+00  7.59869910E+00 -1.51973982E+01  7.59869910E+00
  7.59869910E+00 -1.51973982E+01  7.59869910E+00  7.59869910E+00 -1.51973982E+01
  7.59869910E+00  7.59869910E+00 -1.51973982E+01  7.59869910E+00  7.59869910E+00
 -1.51973982E+01  7.59869910E+00  7.59869910E+00 -1.51973982E+01  7.59869910E+00
  7.59869910E+00 -1.51973982E+01  7.59869910E+00  7.59869910E+00 -1.51973982E+01
  7.59869910E+00  7.59869910E+00 -1.51973982E+01  7.59869910E+00  7.59869910E+00
 -1.51973982E+01  7.59869910E+00  7.59869910E+00 -1.51973982E+01  7.59869910E+00
  7.59869910E+00 -1.51973982E+01  7.59869910E+00  7.59869910E+00 -1.51973982E+01
  7.59869910E+00  7.59869910E+00 -1.51973982E+01  7.59869910E+00  7.59869910E+00
 -1.51973982E+01  7.59869910E+00  7.59869910E+00 -1.51973982E+01  7.59869910E+00
  7.59869910E+00 -1.51973982E+01  7.59869910E+00  7.59869910E+00 -1.51973982E+01
  7.59869910E+00  7.59869910E+00 -1.51973982E+01  7.59869910E+00  7.59869910E+00
 -1.51973982E+01  7.59869910E+00  7.59869910E+00 -1.51973982E+01  7.59869910E+00
  7.59869910E+00 -1.51973982E+01  7.59869910E+00  7.59869910E+00 -1.51973982E+01
  7.59869910E+00  7.59869910E+00 -1.51973982E+01  7.59869910E+00  7.59869910E+00
 -1.51973982E+01  7.59869910E+00  7.59869910E+00 -1.51973982E+01  7.59869910E+00
  7.59869910E+00 -1.51973982E+01  7.59869910E+00  7.59869910E+00 -1.51973982E+01
  7.59869910E+00  7.59869910E+00 -1.51973982E+01  7.59869910E+00  7.59869910E+00
 -1.51973982E+01  7.59869910E+00  7.59869910E+00 -1.51973982E+01  7.59869910E+00
  7.59869910E+00 -1.51973982E+01  7.59869910E+00  7.59869910E+00 -1.51973982E+01
  7.59869910E+00  7.59869910E+00 -1.51973982E+01  7.59869910E+00  7.59869910E+00
 -1.51973982E+01  7.59869910E+00  7.59869910E+00 -1.51973982E+01  7.59869910E+00
  7.59869910E+00 -1.51973982E+01  7.59869910E+00  7.59869910E+00 -1.51973982E+01
  7.59869910E+00  7.59869910E+00 -1.51973982E+01  7.59869910E+00  7.59869910E+00
 -1.51973982E+01  7.59869910E+00  7.59869910E+00 -1.51973982E+01  7.59869910E+00
  7.59869910E+00 -1.51973982E+01  7.59869910E+00  7.59869910E+00 -1.51973982E+01
  7.59869910E+00  7.59869910E+00 -1.51973982E+01  7.59869910E+00  7.59869910E+00
 -1.51973982E+01  7.59869910E+00  7.59869910E+00 -1.51973982E+01  7.59869910E+00
  7.59869910E+00 -1.51973982E+01  7.59869910E+00  7.59869910E+00 -1.51973982E+01
  7.59869910E+00  7.59869910E+00 -1.51973982E+01  7.59869910E+00  7.59869910E+00
 -1.51973982E+01  7.59869910E+00  7.59869910E+00 -1.51973982E+01  7.59869910E+00
  7.59869910E+00 -1.51973982E+01  7.59869910E+00  7.59869910E+00 -1.51973982E+01
  7.59869910E+00  7.59869910E+00 -1.51973982E+01  7.59869910E+00  7.59869910E+00
 -1.51973982E+01  7.59869910E+00  7.59869910E+00 -1.51973982E+01  7.59869910E+00
  7.59869910E+00 -1.51973982E+01  7.59869910E+00  7.59869910E+00 -1.51973982E+01
  7.59869910E+00  7.59869910E+00 -1.51973982E+01  7.59869910E+00  7.59869910E+00
 -1.51973982E+01  7.59869910E+00  7.59869910E+00 -1.51973982E+01  7.59869910E+00
  7.59869910E+00 -1.51973982E+01  7.59869910E+00  7.59869910E+00 -1.51973982E+01
  7.59869910E+00  7.59869910E+00 -1.51973982E+01  7.59869910E+00  7.59869910E+00
 -1.51973982E+01  7.59869910E+00  7.59869910E+00 -1.51973982E+01  7.59869910E+00
  7.59869910E+00 -1.51973982E+01  7.59869910E+00  7.59869910E+00 -1.51973982E+01
  7.59869910E+00  7.59869910E+00 -1.51973982E+01  7.59869910E+00  7.59869910E+00
 -1.51973982E+01  7.59869910E+00  7.59869910E+00 -1.51973982E+01  7.59869910E+00
  7.59869910E+00 -1.51973982E+01  7.59869910E+00  7.59869910E+00 -1.51973982E+01
  7.59869910E+00  7.59869910E+00 -1.51973982E+01  7.59869910E+00  7.59869910E+00
 -1.51973982E+01  7.59869910E+00  7.59869910E+00 -1.51973982E+01  7.59869910E+00
  7.59869910E+00 -1.51973982E+01  7.59869910E+00  7.59869910E+00 -1.51973982E+01
  7.59869910E+00  7.59869910E+00 -1.51973982E+01  7.59869910E+00  7.59869910E+00
 -1.51973982E+01  7.59869910E+00  7.59869910E+00 -1.51973982E+01  7.59869910E+00
  7.59869910E+00 -1.51973982E+01  7.59869910E+00  7.59869910E+00 -1.51973982E+01
  7.59869910E+00  7.59869910E+00 -1.51973982E+01  7.59869910E+00  7.59869910E+00
 -1.51973982E+01  7.59869910E+00  7.59869910E+00 -1.51973982E+01  7.59869910E+00
  7.59869910E+00 -1.51973982E+01  7.59869910E+00  7.59869910E+00 -1.51973982E+01
  7.59869910E+00  7.59869910E+00 -1.51973982E+01  7.59869910E+00  7.59869910E+00
 -1.51973982E+01  7.59869910E+00  7.59869910E+00 -1.51973982E+01  7.59869910E+00
  7.59869910E+00 -1.51973982E+01  7.59869910E+00  7.59869910E+00 -1.51973982E+01
  7.59869910E+00  7.59869910E+00 -1.51973982E+01  7.59869910E+00  7.59869910E+00
 -1.51973982E+01  7.59869910E+00  7.59869910E+00 -1.51973982E+01  7.59869910E+00
  7.59869910E+00 -1.51973982E+01  7.59869910E+00  7.59869910E+00 -1.51973982E+01
  7.59869910E+00  7.59869910E+00 -1.51973982E+01  7.59869910E+00  7.59869910E+00
 -1.51973982E+01  7.59869910E+00  7.59869910E+00 -1.51973982E+01  7.59869910E+00
  7.59869910E+00 -1.51973982E+01  7.59869910E+00  7.59869910E+00 -1.51973982E+01
  7.59869910E+00  7.59869910E+00 -1.51973982E+01  7.59869910E+00  7.59869910E+00
 -1.51973982E+01  7.59869910E+00  7.59869910E+00 -1.51973982E+01  7.59869910E+00
  7.59869910E+00 -1.51973982E+01  7.59869910E+00  7.59869910E+00 -1.51973982E+01
  7.59869910E+00  7.59869910E+00 -1.51973982E+01  7.59869910E+00  7.59869910E+00
 -1.51973982E+01  7.59869910E+00  7.59869910E+00 -1.51973982E+01  7.59869910E+00
  7.59869910E+00 -1.51973982E+01  7.59869910E+00  7.59869910E+00 -1.51973982E+01
  7.59869910E+00  7.59869910E+00 -1.51973982E+01  7.59869910E+00  7.59869910E+00
 -1.51973982E+01  7.59869910E+00  7.59869910E+00 -1.51973982E+01  7.59869910E+00
  7.59869910E+00 -1.51973982E+01  7.59869910E+00  7.59869910E+00 -1.51973982E+01
  7.59869910E+00  7.59869910E+00 -1.51973982E+01  7.59869910E+00  7.59869910E+00
 -1.51973982E+01  7.59869910E+00  7.59869910E+00 -1.51973982E+01  7.59869910E+00
  7.59869910E+00 -1.51973982E+01  7.59869910E+00  7.59869910E+00 -1.51973982E+01
  7.59869910E+00  7.59869910E+00 -1.51973982E+01  7.59869910E+00  7.59869910E+00
 -1.51973982E+01  7.59869910E+00  7.59869910E+00 -1.51973982E+01  7.59869910E+00
  7.59869910E+00 -1.51973982E+01  7.59869910E+00  7.59869910E+00 -1.51973982E+01
  7.59869910E+00  7.59869910E+00 -1.51973982E+01  7.59869910E+00  7.59869910E+00
 -1.51973982E+01  7.59869910E+00  7.59869910E+00 -1.51973982E+01  7.59869910E+00
  7.59869910E+00 -1.51973982E+01  7.59869910E+00  7.59869910E+00 -1.51973982E+01
  7.59869910E+00  7.59869910E+00 -1.51973982E+01  7.59869910E+00  7.59869910E+00
 -1.51973982E+01  7.59869910E+00  7.59869910E+00 -1.51973982E+01  7.59869910E+00
  7.59869910E+00 -1.51973982E+01  7.59869910E+00  7.59869910E+00 -1.51973982E+01
  7.59869910E+00  7.59869910E+00 -1.51973982E+01  7.59869910E+00  7.59869910E+00
 -1.51973982E+01  7.59869910E+00  7.59869910E+00 -1.51973982E+01  7.59869910E+00
  7.59869910E+00 -1.51973982E+01  7.59869910E+00  7.59869910E+00 -1.51973982E+01
  7.59869910E+00  7.59869910E+00 -1.51973982E+01  7.59869910E+00  7.59869910E+00
 -1.51973982E+01  7.59869910E+00  7.59869910E+00 -1.51973982E+01  7.59869910E+00
  7.59869910E+00 -1.51973982E+01  7.59869910E+00  7.59869910E+00 -1.51973982E+01
  7.59869910E+00  7.59869910E+00 -1.51973982E+01  7.59869910E+00  7.59869910E+00
 -1.51973982E+01  7.59869910E+00  7.59869910E+00 -1.51973982E+01  7.59869910E+00
  7.59869910E+00 -1.51973982E+01  7.59869910E+00  7.59869910E+00 -1.51973982E+01
  7.59869910E+00  7.59869910E+00 -1.51973982E+01  7.59869910E+00  7.59869910E+00
 -1.51973982E+01  7.59869910E+00  7.59869910E+00 -1.51973982E+01  7.59869910E+00
  7.59869910E+00 -1.51973982E+01  7.59869910E+00  7.59869910E+00 -1.51973982E+01
  7.59869910E+00  7.59869910E+00 -1.51973982E+01  7.59869910E+00  7.59869910E+00
 -1.51973982E+01  7.59869910E+00  7.59869910E+00 -1.51973982E+01  7.59869910E+00
  7.59869910E+00 -1.51973982E+01  7.59869910E+00  7.59869910E+00 -1.51973982E+01
  7.59869910E+00  7.59869910E+00 -1.51973982E+01  7.59869910E+00  7.59869910E+00
 -1.51973982E+01  7.59869910E+00  7.59869910E+00 -1.51973982E+01  7.59869910E+00
  7.59869910E+00 -1.51973982E+01  7.59869910E+00  7.59869910E+00 -1.51973982E+01
  7.59869910E+00  7.59869910E+00 -1.51973982E+01  7.59869910E+00  7.59869910E+00
 -1.51973982E+01  7.59869910E+00  7.59869910E+00 -1.51973982E+01  7.59869910E+00
  7.59869910E+00 -1.51973982E+01  7.59869910E+00  7.59869910E+00 -1.51973982E+01
  7.59869910E+00  7.59869910E+00 -1.51973982E+01  7.59869910E+00  7.59869910E+00
 -1.51973982E+01  7.59869910E+00  7.59869910E+00 -1.51973982E+01  7.59869910E+00
  7.59869910E+00 -1.51973982E+01  7.59869910E+00  7.59869910E+00 -1.51973982E+01
  7.59869910E+00  7.59869910E+00 -1.51973982E+01  7.59869910E+00  7.59869910E+00
 -1.51973982E+01  7.59869910E+00  7.59869910E+00 -1.51973982E+01  7.59869910E+00
  7.59869910E+00 -1.51973982E+01  7.59869910E+00  7.59869910E+00 -1.51973982E+01
  7.59869910E+00  7.59869910E+00 -1.51973982E+01  7.59869910E+00  7.59869910E+00
 -1.51973982E+01  7.59869910E+00  7.59869910E+00 -1.51973982E+01  7.59869910E+00
  7.59869910E+00 -1.51973982E+01  7.59869910E+00  7.59869910E+00 -1.51973982E+01
  7.59869910E+00  7.59869910E+00 -1.51973982E+01  7.59869910E+00  7.59869910E+00
 -1.51973982E+01  7.59869910E+00  7.59869910E+00 -1.51973982E+01  7.59869910E+00
  7.59869910E+00 -1.51973982E+01  7.59869910E+00  7.59869910E+00 -1.51973982E+01
  7.59869910E+00  7.59869910E+00 -1.51973982E+01  7.59869910E+00  7.59869910E+00
 -1.51973982E+01  7.59869910E+00  7.59869910E+00 -1.51973982E+01  7.59869910E+00
  7.59869910E+00 -1.51973982E+01  7.59869910E+00  7.59869910E+00 -1.51973982E+01
  7.59869910E+00  7.59869910E+00 -1.51973982E+01  7.59869910E+00  7.59869910E+00
 -1.51973982E+01  7.59869910E+00  7.59869910E+00 -1.51973982E+01  7.59869910E+00
  7.59869910E+00 -1.51973982E+01  7.59869910E+00  7.59869910E+00 -1.51973982E+01
  7.59869910E+00  7.59869910E+00 -1.51973982E+01  7.59869910E+00  7.59869910E+00
 -1.51973982E+01  7.59869910E+00  7.59869910E+00 -1.51973982E+01  7.59869910E+00
  7.59869910E+00 -1.51973982E+01  7.59869910E+00  7.59869910E+00 -1.51973982E+01
  7.59869910E+00  7.59869910E+00 -1.51973982E+01  7.59869910E+00  7.59869910E+00
 -1.51973982E+01  7.59869910E+00  7.59869910E+00 -1.51973982E+01  7.59869910E+00
  7.59869910E+00 -1.51973982E+01  7.59869910E+00  7.59869910E+00 -1.51973982E+01
  7.59869910E+00  7.59869910E+00 -1.51973982E+01  7.59869910E+00  7.59869910E+00
 -1.51973982E+01  7.59869910E+00  7.59869910E+00 -1.51973982E+01  7.59869910E+00
  7.59869910E+00 -1.51973982E+01  7.59869910E+00  7.59869910E+00 -1.51973982E+01
  7.59869910E+00  7.59869910E+00 -1.51973982E+01  7.59869910E+00  7.59869910E+00
 -1.51973982E+01  7.59869910E+00  7.59869910E+00 -1.51973982E+01  7.59869910E+00
  7.59869910E+00 -1.51973982E+01  7.59869910E+00  7.59869910E+00 -1.51973982E+01
  7.59869910E+00  7.59869910E+00 -1.51973982E+01  7.59869910E+00  7.59869910E+00
 -1.51973982E+01  7.59869910E+00  7.59869910E+00 -1.51973982E+01  7.59869910E+00
  7.59869910E+00 -1.51973982E+01  7.59869910E+00  7.59869910E+00 -1.51973982E+01
  7.59869910E+00  7.59869910E+00 -1.51973982E+01  7.59869910E+00  7.59869910E+00
 -1.51973982E+01  7.59869910E+00  7.59869910E+00 -1.51973982E+01  7.59869910E+00
  7.59869910E+00 -1.51973982E+01  7.59869910E+00  7.59869910E+00 -1.51973982E+01
  7.59869910E+00  7.59869910E+00 -1.51973982E+01  7.59869910E+00  7.59869910E+00
 -1.51973982E+01  7.59869910E+00  7.59869910E+00 -1.51973982E+01  7.59869910E+00
  7.59869910E+00 -1.51973982E+01  7.59869910E+00  7.59869910E+00 -1.51973982E+01
  7.59869910E+00  7.59869910E+00 -1.51973982E+01  7.59869910E+00  7.59869910E+00
 -1.51973982E+01  7.59869910E+00  7.59869910E+00 -1.51973982E+01  7.59869910E+00
  7.59869910E+00 -1.51973982E+01  7.59869910E+00  7.59869910E+00 -1.51973982E+01
  7.59869910E+00  7.59869910E+00 -1.51973982E+01  7.59869910E+00  7.59869910E+00
 -1.51973982E+01  7.59869910E+00  7.59869910E+00 -1.51973982E+01  7.59869910E+00
  7.59869910E+00 -1.51973982E+01  7.59869910E+00  7.59869910E+00 -1.51973982E+01
  7.59869910E+00  7.59869910E+00 -1.51973982E+01  7.59869910E+00  7.59869910E+00
 -1.51973982E+01  7.59869910E+00  7.59869910E+00 -1.51973982E+01  7.59869910E+00
  7.59869910E+00 -1.51973982E+01  7.59869910E+00  7.59869910E+00 -1.51973982E+01
  7.59869910E+00  7.59869910E+00 -1.51973982E+01  7.59869910E+00  7.59869910E+00
 -1.51973982E+01  7.59869910E+00  7.59869910E+00 -1.51973982E+01  7.59869910E+00
  7.59869910E+00 -1.51973982E+01  7.59869910E+00  7.59869910E+00 -1.51973982E+01
  7.59869910E+00  7.59869910E+00 -1.51973982E+01  7.59869910E+00  7.59869910E+00
 -1.51973982E+01  7.59869910E+00  7.59869910E+00 -1.51973982E+01  7.59869910E+00
  7.59869910E+00 -1.51973982E+01  7.59869910E+00  7.59869910E+00 -1.51973982E+01
  7.59869910E+00  7.59869910E+00 -1.51973982E+01  7.59869910E+00  7.59869910E+00
 -1.51973982E+01  7.59869910E+00  7.59869910E+00 -1.51973982E+01  7.59869910E+00
  7.59869910E+00 -1.51973982E+01  7.59869910E+00  7.59869910E+00 -1.51973982E+01
  7.59869910E+00  7.59869910E+00 -1.51973982E+01  7.59869910E+00  7.59869910E+00
 -1.51973982E+01  7.59869910E+00  7.59869910E+00 -1.51973982E+01  7.59869910E+00
  7.59869910E+00 -1.51973982E+01  7.59869910E+00  7.59869910E+00 -1.51973982E+01
  7.59869910E+00  7.59869910E+00 -1.51973982E+01  7.59869910E+00  7.59869910E+00
 -1.51973982E+01  7.59869910E+00  7.59869910E+00 -1.51973982E+01  7.59869910E+00
  7.59869910E+00 -1.51973982E+01  7.59869910E+00  7.59869910E+00 -1.51973982E+01
  7.59869910E+00  7.59869910E+00 -1.51973982E+01  7.59869910E+00  7.59869910E+00
 -1.51973982E+01  7.59869910E+00  7.59869910E+00 -1.51973982E+01  7.59869910E+00
  7.59869910E+00 -1.51973982E+01  7.59869910E+00  7.59869910E+00 -1.51973982E+01
  7.59869910E+00  7.59869910E+00 -1.51973982E+01  7.59869910E+00  7.59869910E+00
 -1.51973982E+01  7.59869910E+00  7.59869910E+00 -1.51973982E+01  7.59869910E+00
  7.59869910E+00 -1.51973982E+01  7.59869910E+00  7.59869910E+00 -1.51973982E+01
  7.59869910E+00  7.59869910E+00 -1.51973982E+01  7.59869910E+00  7.59869910E+00
 -1.51973982E+01  7.59869910E+00  7.59869910E+00 -1.51973982E+01  7.59869910E+00
  7.59869910E+00 -1.51973982E+01  7.59869910E+00  7.59869910E+00 -1.51973982E+01
  7.59869910E+00  7.59869910E+00 -1.51973982E+01  7.59869910E+00  7.59869910E+00
 -1.51973982E+01  7.59869910E+00  7.59869910E+00 -1.51973982E+01  7.59869910E+00
  7.59869910E+00 -1.51973982E+01  7.59869910E+00  7.59869910E+00 -1.51973982E+01
  7.59869910E+00  7.59869910E+00 -1.51973982E+01  7.59869910E+00  7.59869910E+00
 -1.51973982E+01  7.59869910E+00  7.59869910E+00 -1.51973982E+01  7.59869910E+00
  7.59869910E+00 -1.51973982E+01  7.59869910E+00  7.59869910E+00 -1.51973982E+01
  7.59869910E+00  7.59869910E+00 -1.51973982E+01  7.59869910E+00  7.59869910E+00
 -1.51973982E+01  7.59869910E+00  7.59869910E+00 -1.51973982E+01  7.59869910E+00
  7.59869910E+00 -1.51973982E+01  7.59869910E+00  7.59869910E+00 -1.51973982E+01
  7.59869910E+00  7.59869910E+00 -1.51973982E+01  7.59869910E+00  7.59869910E+00
 -1.51973982E+01  7.59869910E+00  7.59869910E+00 -1.51973982E+01  7.59869910E+00
  7.59869910E+00 -1.51973982E+01  7.59869910E+00  7.59869910E+00 -1.51973982E+01
  7.59869910E+00  7.59869910E+00 -1.51973982E+01  7.59869910E+00  7.59869910E+00
 -1.51973982E+01  7.59869910E+00  7.59869910E+00 -1.51973982E+01  7.59869910E+00
  7.59869910E+00 -1.51973982E+01  7.59869910E+00  7.59869910E+00 -1.51973982E+01
  7.59869910E+00  7.59869910E+00 -1.51973982E+01  7.59869910E+00  7.59869910E+00
 -1.51973982E+01  7.59869910E+00  7.59869910E+00 -1.51973982E+01  7.59869910E+00
  7.59869910E+00 -1.51973982E+01  7.59869910E+00  7.59869910E+00 -1.51973982E+01
  7.59869910E+00  7.59869910E+00 -1.51973982E+01  7.59869910E+00  7.59869910E+00
 -1.51973982E+01  7.59869910E+00  7.59869910E+00 -1.51973982E+01  7.59869910E+00
  7.59869910E+00 -1.51973982E+01  7.59869910E+00  7.59869910E+00 -1.51973982E+01
  7.59869910E+00  7.59869910E+00 -1.51973982E+01  7.59869910E+00  7.59869910E+00
 -1.51973982E+01  7.59869910E+00  7.59869910E+00 -1.51973982E+01  7.59869910E+00
  7.59869910E+00 -1.51973982E+01  7.59869910E+00  7.59869910E+00 -1.51973982E+01
  7.59869910E+00  7.59869910E+00 -1.51973982E+01  7.59869910E+00  7.59869910E+00
 -1.51973982E+01  7.59869910E+00  7.59869910E+00 -1.51973982E+01  7.59869910E+00
  7.59869910E+00 -1.51973982E+01  7.59869910E+00  7.59869910E+00 -1.51973982E+01
  7.59869910E+00  7.59869910E+00 -1.51973982E+01  7.59869910E+00  7.59869910E+00
 -1.51973982E+01  7.59869910E+00  7.59869910E+00 -1.51973982E+01  7.59869910E+00
  7.59869910E+00 -1.51973982E+01  7.59869910E+00  7.59869910E+00 -1.51973982E+01
  7.59869910E+00  7.59869910E+00 -1.51973982E+01  7.59869910E+00  7.59869910E+00
 -1.51973982E+01  7.59869910E+00  7.59869910E+00 -1.51973982E+01  7.59869910E+00
  7.59869910E+00 -1.51973982E+01  7.59869910E+00  7.59869910E+00 -1.51973982E+01
  7.59869910E+00  7.59869910E+00 -1.51973982E+01  7.59869910E+00  7.59869910E+00
 -1.51973982E+01  7.59869910E+00  7.59869910E+00 -1.51973982E+01  7.59869910E+00
  7.59869910E+00 -1.51973982E+01  7.59869910E+00  7.59869910E+00 -1.51973982E+01
  7.59869910E+00  7.59869910E+00 -1.51973982E+01  7.59869910E+00  7.59869910E+00
 -1.51973982E+01  7.59869910E+00  7.59869910E+00 -1.51973982E+01  7.59869910E+00
  7.59869910E+00 -1.51973982E+01  7.59869910E+00  7.59869910E+00 -1.51973982E+01
  7.59869910E+00  7.59869910E+00 -1.51973982E+01  7.59869910E+00  7.59869910E+00
 -1.51973982E+01  7.59869910E+00  7.59869910E+00 -1.51973982E+01  7.59869910E+00
  7.59869910E+00 -1.51973982E+01  7.59869910E+00  7.59869910E+00 -1.51973982E+01
  7.59869910E+00  7.59869910E+00 -1.51973982E+01  7.59869910E+00  7.59869910E+00
 -1.51973982E+01  7.59869910E+00  7.59869910E+00 -1.51973982E+01  7.59869910E+00
  7.59869910E+00 -1.51973982E+01  7.59869910E+00  7.59869910E+00 -1.51973982E+01
  7.59869910E+00  7.59869910E+00 -1.51973982E+01  7.59869910E+00  7.59869910E+00
 -1.51973982E+01  7.59869910E+00  7.59869910E+00 -1.51973982E+01  7.59869910E+00
  7.59869910E+00 -1.51973982E+01  7.59869910E+00  7.59869910E+00 -1.51973982E+01
  7.59869910E+00  7.59869910E+00 -1.51973982E+01  7.59869910E+00  7.59869910E+00
 -1.51973982E+01  7.59869910E+00  7.59869910E+00 -1.51973982E+01  7.59869910E+00
  7.59869910E+00 -1.51973982E+01  7.59869910E+00  7.59869910E+00 -1.51973982E+01
  7.59869910E+00  7.59869910E+00 -1.51973982E+01  7.59869910E+00  7.59869910E+00
 -1.51973982E+01  7.59869910E+00  7.59869910E+00 -1.51973982E+01  7.59869910E+00
  7.59869910E+00 -1.51973982E+01  7.59869910E+00  7.59869910E+00 -1.51973982E+01
  7.59869910E+00  7.59869910E+00 -1.51973982E+01  7.59869910E+00  7.59869910E+00
 -1.51973982E+01  7.59869910E+00  7.59869910E+00 -1.51973982E+01  7.59869910E+00
  7.59869910E+00 -1.51973982E+01  7.59869910E+00  7.59869910E+00 -1.51973982E+01
  7.59869910E+00  7.59869910E+00 -1.51973982E+01  7.59869910E+00  7.59869910E+00
 -1.51973982E+01  7.59869910E+00  7.59869910E+00 -1.51973982E+01  7.59869910E+00
  7.59869910E+00 -1.51973982E+01  7.59869910E+00  7.59869910E+00 -1.51973982E+01
  7.59869910E+00  7.59869910E+00 -1.51973982E+01  7.59869910E+00  7.59869910E+00
 -1.51973982E+01  7.59869910E+00  7.59869910E+00 -1.51973982E+01  7.59869910E+00
  7.59869910E+00 -1.51973982E+01  7.59869910E+00  7.59869910E+00 -1.51973982E+01
  7.59869910E+00  7.59869910E+00 -1.51973982E+01  7.59869910E+00  7.59869910E+00
 -1.51973982E+01  7.59869910E+00  7.59869910E+00 -1.51973982E+01  7.59869910E+00
  7.59869910E+00 -1.51973982E+01  7.59869910E+00  7.59869910E+00 -1.51973982E+01
  7.59869910E+00  7.59869910E+00 -1.51973982E+01  7.59869910E+00  7.59869910E+00
 -1.51973982E+01  7.59869910E+00  7.59869910E+00 -1.51973982E+01  7.59869910E+00
  7.59869910E+00 -1.51973982E+01  7.59869910E+00  7.59869910E+00 -1.51973982E+01
  7.59869910E+00  7.59869910E+00 -1.51973982E+01  7.59869910E+00  7.59869910E+00
 -1.51973982E+01  7.59869910E+00  7.59869910E+00 -1.51973982E+01  7.59869910E+00
  7.59869910E+00 -1.51973982E+01  7.59869910E+00  7.59869910E+00 -1.51973982E+01
  7.59869910E+00  7.59869910E+00 -1.51973982E+01  7.59869910E+00  7.59869910E+00
 -1.51973982E+01  7.59869910E+00  7.59869910E+00 -1.51973982E+01  7.59869910E+00
  7.59869910E+00 -1.51973982E+01  7.59869910E+00  7.59869910E+00 -1.51973982E+01
  7.59869910E+00  7.59869910E+00 -1.51973982E+01  7.59869910E+00  7.59869910E+00
 -1.51973982E+01  7.59869910E+00  7.59869910E+00 -1.51973982E+01  7.59869910E+00
  7.59869910E+00 -1.51973982E+01  7.59869910E+00  7.59869910E+00 -1.51973982E+01
  7.59869910E+00  7.59869910E+00 -1.51973982E+01  7.59869910E+00  7.59869910E+00
 -1.51973982E+01  7.59869910E+00  7.59869910E+00 -1.51973982E+01  7.59869910E+00
  7.59869910E+00 -1.51973982E+01  7.59869910E+00  7.59869910E+00 -1.51973982E+01
  7.59869910E+00  7.59869910E+00 -1.51973982E+01  7.59869910E+00  7.59869910E+00
 -1.51973982E+01  7.59869910E+00  7.59869910E+00 -1.51973982E+01  7.59869910E+00
  7.59869910E+00 -1.51973982E+01  7.59869910E+00  7.59869910E+00 -1.51973982E+01
  7.59869910E+00  7.59869910E+00 -1.51973982E+01  7.59869910E+00  7.59869910E+00
 -1.51973982E+01  7.59869910E+00  7.59869910E+00 -1.51973982E+01  7.59869910E+00
  7.59869910E+00 -1.51973982E+01  7.59869910E+00  7.59869910E+00 -1.51973982E+01
  7.59869910E+00  7.59869910E+00 -1.51973982E+01  7.59869910E+00  7.59869910E+00
 -1.51973982E+01  7.59869910E+00  7.59869910E+00 -1.51973982E+01  7.59869910E+00
  7.59869910E+00 -1.51973982E+01  7.59869910E+00  7.59869910E+00 -1.51973982E+01
  7.59869910E+00  7.59869910E+00 -1.51973982E+01  7.59869910E+00  7.59869910E+00
 -1.51973982E+01  7.59869910E+00  7.59869910E+00 -1.51973982E+01  7.59869910E+00
  7.59869910E+00 -1.51973982E+01  7.59869910E+00  7.59869910E+00 -1.51973982E+01
  7.59869910E+00  7.59869910E+00 -1.51973982E+01  7.59869910E+00  7.59869910E+00
 -1.51973982E+01  7.59869910E+00  7.59869910E+00 -1.51973982E+01  7.59869910E+00
  7.59869910E+00 -1.51973982E+01  7.59869910E+00  7.59869910E+00 -1.51973982E+01
  7.59869910E+00  7.59869910E+00 -1.51973982E+01  7.59869910E+00  7.59869910E+00
 -1.51973982E+01  7.59869910E+00  7.59869910E+00 -1.51973982E+01  7.59869910E+00
  7.59869910E+00 -1.51973982E+01  7.59869910E+00  7.59869910E+00 -1.51973982E+01
  7.59869910E+00  7.59869910E+00 -1.51973982E+01  7.59869910E+00  7.59869910E+00
 -1.51973982E+01  7.59869910E+00  7.59869910E+00 -1.51973982E+01  7.59869910E+00
  7.59869910E+00 -1.51973982E+01  7.59869910E+00  7.59869910E+00 -1.51973982E+01
  7.59869910E+00  7.59869910E+00 -1.51973982E+01  7.59869910E+00  7.59869910E+00
 -1.51973982E+01  7.59869910E+00  7.59869910E+00 -1.51973982E+01  7.59869910E+00
  7.59869910E+00 -1.51973982E+01  7.59869910E+00  7.59869910E+00 -1.51973982E+01
  7.59869910E+00  7.59869910E+00 -1.51973982E+01  7.59869910E+00  7.59869910E+00
 -1.51973982E+01  7.59869910E+00  7.59869910E+00 -1.51973982E+01  7.59869910E+00
  7.59869910E+00 -1.51973982E+01  7.59869910E+00  7.59869910E+00 -1.51973982E+01
  7.59869910E+00  7.59869910E+00 -1.51973982E+01  7.59869910E+00  7.59869910E+00
 -1.51973982E+01  7.59869910E+00  7.59869910E+00 -1.51973982E+01  7.59869910E+00
  7.59869910E+00 -1.51973982E+01  7.59869910E+00  7.59869910E+00 -1.51973982E+01
  7.59869910E+00  7.59869910E+00 -1.51973982E+01  7.59869910E+00  7.59869910E+00
 -1.51973982E+01  7.59869910E+00  7.59869910E+00 -1.51973982E+01  7.59869910E+00
  7.59869910E+00 -1.51973982E+01  7.59869910E+00  7.59869910E+00 -1.51973982E+01
  7.59869910E+00  7.59869910E+00 -1.51973982E+01  7.59869910E+00  7.59869910E+00
 -1.51973982E+01  7.59869910E+00  7.59869910E+00 -1.51973982E+01  7.59869910E+00
  7.59869910E+00 -1.51973982E+01  7.59869910E+00  7.59869910E+00 -1.51973982E+01
  7.59869910E+00  7.59869910E+00 -1.51973982E+01  7.59869910E+00  7.59869910E+00
 -1.51973982E+01  7.59869910E+00  7.59869910E+00 -1.51973982E+01  7.59869910E+00
  7.59869910E+00 -1.51973982E+01  7.59869910E+00  7.59869910E+00 -1.51973982E+01
  7.59869910E+00  7.59869910E+00 -1.51973982E+01  7.59869910E+00  7.59869910E+00
 -1.51973982E+01  7.59869910E+00  7.59869910E+00 -1.51973982E+01  7.59869910E+00
  7.59869910E+00 -1.51973982E+01  7.59869910E+00  7.59869910E+00 -1.51973982E+01
  7.59869910E+00  7.59869910E+00 -1.51973982E+01  7.59869910E+00  7.59869910E+00
 -1.51973982E+01  7.59869910E+00  7.59869910E+00 -1.51973982E+01  7.59869910E+00
  7.59869910E+00 -1.51973982E+01  7.59869910E+00  7.59869910E+00 -1.51973982E+01
  7.59869910E+00  7.59869910E+00 -1.51973982E+01  7.59869910E+00  7.59869910E+00
 -1.51973982E+01  7.59869910E+00  7.59869910E+00 -1.51973982E+01  7.59869910E+00
  7.59869910E+00 -1.51973982E+01  7.59869910E+00  7.59869910E+00 -1.51973982E+01
  7.59869910E+00  7.59869910E+00 -1.51973982E+01  7.59869910E+00  7.59869910E+00
 -1.51973982E+01  7.59869910E+00  7.59869910E+00 -1.51973982E+01  7.59869910E+00
  7.59869910E+00 -1.51973982E+01  7.59869910E+00  7.59869910E+00 -1.51973982E+01
  7.59869910E+00  7.59869910E+00 -1.51973982E+01  7.59869910E+00  7.59869910E+00
 -1.51973982E+01  7.59869910E+00  7.59869910E+00 -1.51973982E+01  7.59869910E+00
  7.59869910E+00 -1.51973982E+01  7.59869910E+00  7.59869910E+00 -1.51973982E+01
  7.59869910E+00  7.59869910E+00 -1.51973982E+01  7.59869910E+00  7.59869910E+00
 -1.51973982E+01  7.59869910E+00  7.59869910E+00 -1.51973982E+01  7.59869910E+00
  7.59869910E+00 -1.51973982E+01  7.59869910E+00  7.59869910E+00 -1.51973982E+01
  7.59869910E+00  7.59869910E+00 -1.51973982E+01  7.59869910E+00  7.59869910E+00
 -1.51973982E+01  7.59869910E+00  7.59869910E+00 -1.51973982E+01  7.59869910E+00
  7.59869910E+00 -1.51973982E+01  7.59869910E+00  7.59869910E+00 -1.51973982E+01
  7.59869910E+00  7.59869910E+00 -1.51973982E+01  7.59869910E+00  7.59869910E+00
 -1.51973982E+01  7.59869910E+00  7.59869910E+00 -1.51973982E+01  7.59869910E+00
  7.59869910E+00 -1.51973982E+01  7.59869910E+00  7.59869910E+00 -1.51973982E+01
  7.59869910E+00  7.59869910E+00 -1.51973982E+01  7.59869910E+00  7.59869910E+00
 -1.51973982E+01  7.59869910E+00  7.59869910E+00 -1.51973982E+01  7.59869910E+00
  7.59869910E+00 -1.51973982E+01  7.59869910E+00  7.59869910E+00 -1.51973982E+01
  7.59869910E+00  7.59869910E+00 -1.51973982E+01  7.59869910E+00  7.59869910E+00
 -1.51973982E+01  7.59869910E+00  7.59869910E+00 -1.51973982E+01  7.59869910E+00
  7.59869910E+00 -1.51973982E+01  7.59869910E+00  7.59869910E+00 -1.51973982E+01
  7.59869910E+00  7.59869910E+00 -1.51973982E+01  7.59869910E+00  7.59869910E+00
 -1.51973982E+01  7.59869910E+00  7.59869910E+00 -1.51973982E+01  7.59869910E+00
  7.59869910E+00 -1.51973982E+01  7.59869910E+00  7.59869910E+00 -1.51973982E+01
  7.59869910E+00  7.59869910E+00 -1.51973982E+01  7.59869910E+00  7.59869910E+00
 -1.51973982E+01  7.59869910E+00  7.59869910E+00 -1.51973982E+01  7.59869910E+00
  7.59869910E+00 -1.51973982E+01  7.59869910E+00  7.59869910E+00 -1.51973982E+01
  7.59869910E+00  7.59869910E+00 -1.51973982E+01  7.59869910E+00  7.59869910E+00
 -1.51973982E+01  7.59869910E+00  7.59869910E+00 -1.51973982E+01  7.59869910E+00
  7.59869910E+00 -1.51973982E+01  7.59869910E+00  7.59869910E+00 -1.51973982E+01
  7.59869910E+00  7.59869910E+00 -1.51973982E+01  7.59869910E+00  7.59869910E+00
 -1.51973982E+01  7.59869910E+00  7.59869910E+00 -1.51973982E+01  7.59869910E+00
  7.59869910E+00 -1.51973982E+01  7.59869910E+00  7.59869910E+00 -1.51973982E+01
  7.59869910E+00  7.59869910E+00 -1.51973982E+01  7.59869910E+00  7.59869910E+00
 -1.51973982E+01  7.59869910E+00  7.59869910E+00 -1.51973982E+01  7.59869910E+00
  7.59869910E+00 -1.51973982E+01  7.59869910E+00  7.59869910E+00 -1.51973982E+01
  7.59869910E+00  7.59869910E+00 -1.51973982E+01  7.59869910E+00  7.59869910E+00
 -1.51973982E+01  7.59869910E+00  7.59869910E+00 -1.51973982E+01  7.59869910E+00
  7.59869910E+00 -1.51973982E+01  7.59869910E+00  7.59869910E+00 -1.51973982E+01
  7.59869910E+00  7.59869910E+00 -1.51973982E+01  7.59869910E+00  7.59869910E+00
 -1.51973982E+01  7.59869910E+00  7.59869910E+00 -1.51973982E+01  7.59869910E+00
  7.59869910E+00 -1.51973982E+01  7.59869910E+00  7.59869910E+00 -1.51973982E+01
  7.59869910E+00  7.59869910E+00 -1.51973982E+01  7.59869910E+00  7.59869910E+00
 -1.51973982E+01  7.59869910E+00  7.59869910E+00 -1.51973982E+01  7.59869910E+00
  7.59869910E+00 -1.51973982E+01  7.59869910E+00  7.59869910E+00 -1.51973982E+01
  7.59869910E+00  7.59869910E+00 -1.51973982E+01  7.59869910E+00  7.59869910E+00
 -1.51973982E+01  7.59869910E+00  7.59869910E+00 -1.51973982E+01  7.59869910E+00
  7.59869910E+00 -1.51973982E+01  7.59869910E+00  7.59869910E+00 -1.51973982E+01
  7.59869910E+00  7.59869910E+00 -1.51973982E+01  7.59869910E+00  7.59869910E+00
 -1.51973982E+01  7.59869910E+00  7.59869910E+00 -1.51973982E+01  7.59869910E+00
  7.59869910E+00 -1.51973982E+01  7.59869910E+00  7.59869910E+00 -1.51973982E+01
  7.59869910E+00  7.59869910E+00 -1.51973982E+01  7.59869910E+00  7.59869910E+00
 -1.51973982E+01  7.59869910E+00  7.59869910E+00 -1.51973982E+01  7.59869910E+00
  7.59869910E+00 -1.51973982E+01  7.59869910E+00  7.59869910E+00 -1.51973982E+01
  7.59869910E+00  7.59869910E+00 -1.51973982E+01  7.59869910E+00  7.59869910E+00
 -1.51973982E+01  7.59869910E+00  7.59869910E+00 -1.51973982E+01  7.59869910E+00
  7.59869910E+00 -1.51973982E+01  7.59869910E+00  7.59869910E+00 -1.51973982E+01
  7.59869910E+00  7.59869910E+00 -1.51973982E+01  7.59869910E+00  7.59869910E+00
 -1.51973982E+01  7.59869910E+00  7.59869910E+00 -1.51973982E+01  7.59869910E+00
  7.59869910E+00 -1.51973982E+01  7.59869910E+00  7.59869910E+00 -1.51973982E+01
  7.59869910E+00  7.59869910E+00 -1.51973982E+01  7.59869910E+00  7.59869910E+00
 -1.51973982E+01  7.59869910E+00  7.59869910E+00 -1.51973982E+01  7.59869910E+00
  7.59869910E+00 -1.51973982E+01  7.59869910E+00  7.59869910E+00 -1.51973982E+01
  7.59869910E+00  7.59869910E+00 -1.51973982E+01  7.59869910E+00  7.59869910E+00
 -1.51973982E+01  7.59869910E+00  7.59869910E+00 -1.51973982E+01  7.59869910E+00
  7.59869910E+00 -1.51973982E+01  7.59869910E+00  7.59869910E+00 -1.51973982E+01
  7.59869910E+00  7.59869910E+00 -1.51973982E+01  7.59869910E+00  7.59869910E+00
 -1.51973982E+01  7.59869910E+00  7.59869910E+00 -1.51973982E+01  7.59869910E+00
  7.59869910E+00 -1.51973982E+01  7.59869910E+00  7.59869910E+00 -1.51973982E+01
  7.59869910E+00  7.59869910E+00 -1.51973982E+01  7.59869910E+00  7.59869910E+00
 -1.51973982E+01  7.59869910E+00  7.59869910E+00 -1.51973982E+01  7.59869910E+00
  7.59869910E+00 -1.51973982E+01  7.59869910E+00  7.59869910E+00 -1.51973982E+01
  7.59869910E+00  7.59869910E+00 -1.51973982E+01  7.59869910E+00  7.59869910E+00
 -1.51973982E+01  7.59869910E+00  7.59869910E+00 -1.51973982E+01  7.59869910E+00
  7.59869910E+00 -1.51973982E+01  7.59869910E+00  7.59869910E+00 -1.51973982E+01
  7.59869910E+00  7.59869910E+00 -1.51973982E+01  7.59869910E+00  7.59869910E+00
 -1.51973982E+01  7.59869910E+00  7.59869910E+00 -1.51973982E+01  7.59869910E+00
  7.59869910E+00 -1.51973982E+01  7.59869910E+00  7.59869910E+00 -1.51973982E+01
  7.59869910E+00  7.59869910E+00 -1.51973982E+01  7.59869910E+00  7.59869910E+00
 -1.51973982E+01  7.59869910E+00  7.59869910E+00 -1.51973982E+01  7.59869910E+00
  7.59869910E+00 -1.51973982E+01  7.59869910E+00  7.59869910E+00 -1.51973982E+01
  7.59869910E+00  7.59869910E+00 -1.51973982E+01  7.59869910E+00  7.59869910E+00
 -1.51973982E+01  7.59869910E+00  7.59869910E+00 -1.51973982E+01  7.59869910E+00
  7.59869910E+00 -1.51973982E+01  7.59869910E+00  7.59869910E+00 -1.51973982E+01
  7.59869910E+00  7.59869910E+00 -1.51973982E+01  7.59869910E+00  7.59869910E+00
 -1.51973982E+01  7.59869910E+00  7.59869910E+00 -1.51973982E+01  7.59869910E+00
  7.59869910E+00 -1.51973982E+01  7.59869910E+00  7.59869910E+00 -1.51973982E+01
  7.59869910E+00  7.59869910E+00 -1.51973982E+01  7.59869910E+00  7.59869910E+00
 -1.51973982E+01  7.59869910E+00  7.59869910E+00 -1.51973982E+01  7.59869910E+00
  7.59869910E+00 -1.51973982E+01  7.59869910E+00  7.59869910E+00 -1.51973982E+01
  7.59869910E+00  7.59869910E+00 -1.51973982E+01  7.59869910E+00  7.59869910E+00
 -1.51973982E+01  7.59869910E+00  7.59869910E+00 -1.51973982E+01  7.59869910E+00
  7.59869910E+00 -1.51973982E+01  7.59869910E+00  7.59869910E+00 -1.51973982E+01
  7.59869910E+00  7.59869910E+00 -1.51973982E+01  7.59869910E+00  7.59869910E+00
 -1.51973982E+01  7.59869910E+00  7.59869910E+00 -1.51973982E+01  7.59869910E+00
  7.59869910E+00 -1.51973982E+01  7.59869910E+00  7.59869910E+00 -1.51973982E+01
  7.59869910E+00  7.59869910E+00 -1.51973982E+01  7.59869910E+00  7.59869910E+00
 -1.51973982E+01  7.59869910E+00  7.59869910E+00 -1.51973982E+01  7.59869910E+00
  7.59869910E+00 -1.51973982E+01  7.59869910E+00  7.59869910E+00 -1.51973982E+01
  7.59869910E+00  7.59869910E+00 -1.51973982E+01  7.59869910E+00  7.59869910E+00
 -1.51973982E+01  7.59869910E+00  7.59869910E+00 -1.51973982E+01  7.59869910E+00
  7.59869910E+00 -1.51973982E+01  7.59869910E+00  7.59869910E+00 -1.51973982E+01
  7.59869910E+00  7.59869910E+00 -1.51973982E+01  7.59869910E+00  7.59869910E+00
 -1.51973982E+01  7.59869910E+00  7.59869910E+00 -1.51973982E+01  7.59869910E+00
  7.59869910E+00 -1.51973982E+01  7.59869910E+00  7.59869910E+00 -1.51973982E+01
  7.59869910E+00  7.59869910E+00 -1.51973982E+01  7.59869910E+00  7.59869910E+00
 -1.51973982E+01  7.59869910E+00  7.59869910E+00 -1.51973982E+01  7.59869910E+00
  7.59869910E+00 -1.51973982E+01  7.59869910E+00  7.59869910E+00 -1.51973982E+01
  7.59869910E+00  7.59869910E+00 -1.51973982E+01  7.59869910E+00  7.59869910E+00
 -1.51973982E+01  7.59869910E+00  7.59869910E+00 -1.51973982E+01  7.59869910E+00
  7.59869910E+00 -1.51973982E+01  7.59869910E+00  7.59869910E+00 -1.51973982E+01
  7.59869910E+00  7.59869910E+00 -1.51973982E+01  7.59869910E+00  7.59869910E+00
 -1.51973982E+01  7.59869910E+00  7.59869910E+00 -1.51973982E+01  7.59869910E+00
  7.59869910E+00 -1.51973982E+01  7.59869910E+00  7.59869910E+00 -1.51973982E+01
  7.59869910E+00  7.59869910E+00 -1.51973982E+01  7.59869910E+00  7.59869910E+00
 -1.51973982E+01  7.59869910E+00  7.59869910E+00 -1.51973982E+01  7.59869910E+00
  7.59869910E+00 -1.51973982E+01  7.59869910E+00  7.59869910E+00 -1.51973982E+01
  7.59869910E+00  7.59869910E+00 -1.51973982E+01  7.59869910E+00  7.59869910E+00
 -1.51973982E+01  7.59869910E+00  7.59869910E+00 -1.51973982E+01  7.59869910E+00
  7.59869910E+00 -1.51973982E+01  7.59869910E+00  7.59869910E+00 -1.51973982E+01
  7.59869910E+00  7.59869910E+00 -1.51973982E+01  7.59869910E+00  7.59869910E+00
 -1.51973982E+01  7.59869910E+00  7.59869910E+00 -1.51973982E+01  7.59869910E+00
  7.59869910E+00 -1.51973982E+01  7.59869910E+00  7.59869910E+00 -1.51973982E+01
  7.59869910E+00  7.59869910E+00 -1.51973982E+01  7.59869910E+00  7.59869910E+00
 -1.51973982E+01  7.59869910E+00  7.59869910E+00 -1.51973982E+01  7.59869910E+00
  7.59869910E+00 -1.51973982E+01  7.59869910E+00  7.59869910E+00 -1.51973982E+01
  7.59869910E+00  7.59869910E+00 -1.51973982E+01  7.59869910E+00  7.59869910E+00
 -1.51973982E+01  7.59869910E+00  7.59869910E+00 -1.51973982E+01  7.59869910E+00
  7.59869910E+00 -1.51973982E+01  7.59869910E+00  7.59869910E+00 -1.51973982E+01
  7.59869910E+00  7.59869910E+00 -1.51973982E+01  7.59869910E+00  7.59869910E+00
 -1.51973982E+01  7.59869910E+00  7.59869910E+00 -1.51973982E+01  7.59869910E+00
  7.59869910E+00 -1.51973982E+01  7.59869910E+00  7.59869910E+00 -1.51973982E+01
  7.59869910E+00  7.59869910E+00 -1.51973982E+01  7.59869910E+00  7.59869910E+00
 -1.51973982E+01  7.59869910E+00  7.59869910E+00 -1.51973982E+01  7.59869910E+00
  7.59869910E+00 -1.51973982E+01  7.59869910E+00  7.59869910E+00 -1.51973982E+01
  7.59869910E+00  7.59869910E+00 -1.51973982E+01  7.59869910E+00  7.59869910E+00
 -1.51973982E+01  7.59869910E+00  7.59869910E+00 -1.51973982E+01  7.59869910E+00
  7.59869910E+00 -1.51973982E+01  7.59869910E+00  7.59869910E+00 -1.51973982E+01
  7.59869910E+00  7.59869910E+00 -1.51973982E+01  7.59869910E+00  7.59869910E+00
 -1.51973982E+01  7.59869910E+00  7.59869910E+00 -1.51973982E+01  7.59869910E+00
  7.59869910E+00 -1.51973982E+01  7.59869910E+00  7.59869910E+00 -1.51973982E+01
  7.59869910E+00  7.59869910E+00 -1.51973982E+01  7.59869910E+00  7.59869910E+00
 -1.51973982E+01  7.59869910E+00  7.59869910E+00 -1.51973982E+01  7.59869910E+00
  7.59869910E+00 -1.51973982E+01  7.59869910E+00  7.59869910E+00 -1.51973982E+01
  7.59869910E+00  7.59869910E+00 -1.51973982E+01  7.59869910E+00  7.59869910E+00
 -1.51973982E+01  7.59869910E+00  7.59869910E+00 -1.51973982E+01  7.59869910E+00
  7.59869910E+00 -1.51973982E+01  7.59869910E+00  7.59869910E+00 -1.51973982E+01
  7.59869910E+00  7.59869910E+00 -1.51973982E+01  7.59869910E+00  7.59869910E+00
 -1.51973982E+01  7.59869910E+00  7.59869910E+00 -1.51973982E+01  7.59869910E+00
  7.59869910E+00 -1.51973982E+01  7.59869910E+00  7.59869910E+00 -1.51973982E+01
  7.59869910E+00  7.59869910E+00 -1.51973982E+01  7.59869910E+00  7.59869910E+00
 -1.51973982E+01  7.59869910E+00  7.59869910E+00 -1.51973982E+01  7.59869910E+00
  7.59869910E+00 -1.51973982E+01  7.59869910E+00  7.59869910E+00 -1.51973982E+01
  7.59869910E+00  7.59869910E+00 -1.51973982E+01  7.59869910E+00  7.59869910E+00
 -1.51973982E+01  7.59869910E+00  7.59869910E+00 -1.51973982E+01  7.59869910E+00
  7.59869910E+00 -1.51973982E+01  7.59869910E+00  7.59869910E+00 -1.51973982E+01
  7.59869910E+00  7.59869910E+00 -1.51973982E+01  7.59869910E+00  7.59869910E+00
 -1.51973982E+01  7.59869910E+00  7.59869910E+00 -1.51973982E+01  7.59869910E+00
  7.59869910E+00 -1.51973982E+01  7.59869910E+00  7.59869910E+00 -1.51973982E+01
  7.59869910E+00  7.59869910E+00 -1.51973982E+01  7.59869910E+00  7.59869910E+00
 -1.51973982E+01  7.59869910E+00  7.59869910E+00 -1.51973982E+01  7.59869910E+00
  7.59869910E+00 -1.51973982E+01  7.59869910E+00  7.59869910E+00 -1.51973982E+01
  7.59869910E+00  7.59869910E+00 -1.51973982E+01  7.59869910E+00  7.59869910E+00
 -1.51973982E+01  7.59869910E+00  7.59869910E+00 -1.51973982E+01  7.59869910E+00
  7.59869910E+00 -1.51973982E+01  7.59869910E+00  7.59869910E+00 -1.51973982E+01
  7.59869910E+00  7.59869910E+00 -1.51973982E+01  7.59869910E+00  7.59869910E+00
 -1.51973982E+01  7.59869910E+00  7.59869910E+00 -1.51973982E+01  7.59869910E+00
  7.59869910E+00 -1.51973982E+01  7.59869910E+00  7.59869910E+00 -1.51973982E+01
  7.59869910E+00  7.59869910E+00 -1.51973982E+01  7.59869910E+00  7.59869910E+00
 -1.51973982E+01  7.59869910E+00  7.59869910E+00 -1.51973982E+01  7.59869910E+00
  7.59869910E+00 -1.51973982E+01  7.59869910E+00  7.59869910E+00 -1.51973982E+01
  7.59869910E+00  7.59869910E+00 -1.51973982E+01  7.59869910E+00  7.59869910E+00
 -1.51973982E+01  7.59869910E+00  7.59869910E+00 -1.51973982E+01  7.59869910E+00
  7.59869910E+00 -1.51973982E+01  7.59869910E+00  7.59869910E+00 -1.51973982E+01
  7.59869910E+00  7.59869910E+00 -1.51973982E+01  7.59869910E+00  7.59869910E+00
 -1.51973982E+01  7.59869910E+00  7.59869910E+00 -1.51973982E+01  7.59869910E+00
  7.59869910E+00 -1.51973982E+01  7.59869910E+00  7.59869910E+00 -1.51973982E+01
  7.59869910E+00  7.59869910E+00 -1.51973982E+01  7.59869910E+00  7.59869910E+00
 -1.51973982E+01  7.59869910E+00  7.59869910E+00 -1.51973982E+01  7.59869910E+00
  7.59869910E+00 -1.51973982E+01  7.59869910E+00  7.59869910E+00 -1.51973982E+01
  7.59869910E+00  7.59869910E+00 -1.51973982E+01  7.59869910E+00  7.59869910E+00
 -1.51973982E+01  7.59869910E+00  7.59869910E+00 -1.51973982E+01  7.59869910E+00
  7.59869910E+00 -1.51973982E+01  7.59869910E+00  7.59869910E+00 -1.51973982E+01
  7.59869910E+00  7.59869910E+00 -1.51973982E+01  7.59869910E+00  7.59869910E+00
 -1.51973982E+01  7.59869910E+00  7.59869910E+00 -1.51973982E+01  7.59869910E+00
  7.59869910E+00 -1.51973982E+01  7.59869910E+00  7.59869910E+00 -1.51973982E+01
  7.59869910E+00  7.59869910E+00 -1.51973982E+01  7.59869910E+00  7.59869910E+00
 -1.51973982E+01  7.59869910E+00  7.59869910E+00 -1.51973982E+01  7.59869910E+00
  7.59869910E+00 -1.51973982E+01  7.59869910E+00  7.59869910E+00 -1.51973982E+01
  7.59869910E+00  7.59869910E+00 -1.51973982E+01  7.59869910E+00  7.59869910E+00
 -1.51973982E+01  7.59869910E+00  7.59869910E+00 -1.51973982E+01  7.59869910E+00
  7.59869910E+00 -1.51973982E+01  7.59869910E+00  7.59869910E+00 -1.51973982E+01
  7.59869910E+00  7.59869910E+00 -1.51973982E+01  7.59869910E+00  7.59869910E+00
 -1.51973982E+01  7.59869910E+00  7.59869910E+00 -1.51973982E+01  7.59869910E+00
  7.59869910E+00 -1.51973982E+01  7.59869910E+00  7.59869910E+00 -1.51973982E+01
  7.59869910E+00  7.59869910E+00 -1.51973982E+01  7.59869910E+00  7.59869910E+00
 -1.51973982E+01  7.59869910E+00  7.59869910E+00 -1.51973982E+01  7.59869910E+00
  7.59869910E+00 -1.51973982E+01  7.59869910E+00  7.59869910E+00 -1.51973982E+01
  7.59869910E+00  7.59869910E+00 -1.51973982E+01  7.59869910E+00  7.59869910E+00
 -1.51973982E+01  7.59869910E+00  7.59869910E+00 -1.51973982E+01  7.59869910E+00
  7.59869910E+00 -1.51973982E+01  7.59869910E+00  7.59869910E+00 -1.51973982E+01
  7.59869910E+00  7.59869910E+00 -1.51973982E+01  7.59869910E+00  7.59869910E+00
 -1.51973982E+01  7.59869910E+00  7.59869910E+00 -1.51973982E+01  7.59869910E+00
  7.59869910E+00 -1.51973982E+01  7.59869910E+00  7.59869910E+00 -1.51973982E+01
  7.59869910E+00  7.59869910E+00 -1.51973982E+01  7.59869910E+00  7.59869910E+00
 -1.51973982E+01  7.59869910E+00  7.59869910E+00 -1.51973982E+01  7.59869910E+00
  7.59869910E+00 -1.51973982E+01  7.59869910E+00  7.59869910E+00 -1.51973982E+01
  7.59869910E+00  7.59869910E+00 -1.51973982E+01  7.59869910E+00  7.59869910E+00
 -1.51973982E+01  7.59869910E+00  7.59869910E+00 -1.51973982E+01  7.59869910E+00
  7.59869910E+00 -1.51973982E+01  7.59869910E+00  7.59869910E+00 -1.51973982E+01
  7.59869910E+00  7.59869910E+00 -1.51973982E+01  7.59869910E+00  7.59869910E+00
 -1.51973982E+01  7.59869910E+00  7.59869910E+00 -1.51973982E+01  7.59869910E+00
  7.59869910E+00 -1.51973982E+01  7.59869910E+00  7.59869910E+00 -1.51973982E+01
  7.59869910E+00  7.59869910E+00 -1.51973982E+01  7.59869910E+00  7.59869910E+00
 -1.51973982E+01  7.59869910E+00  7.59869910E+00 -1.51973982E+01  7.59869910E+00
  7.59869910E+00 -1.51973982E+01  7.59869910E+00  7.59869910E+00 -1.51973982E+01
  7.59869910E+00  7.59869910E+00 -1.51973982E+01  7.59869910E+00  7.59869910E+00
 -1.51973982E+01  7.59869910E+00  7.59869910E+00 -1.51973982E+01  7.59869910E+00
  7.59869910E+00 -1.51973982E+01  7.59869910E+00  7.59869910E+00 -1.51973982E+01
  7.59869910E+00  7.59869910E+00 -1.51973982E+01  7.59869910E+00  7.59869910E+00
 -1.51973982E+01  7.59869910E+00  7.59869910E+00 -1.51973982E+01  7.59869910E+00
  7.59869910E+00 -1.51973982E+01  7.59869910E+00  7.59869910E+00 -1.51973982E+01
  7.59869910E+00  7.59869910E+00 -1.51973982E+01  7.59869910E+00  7.59869910E+00
 -1.51973982E+01  7.59869910E+00  7.59869910E+00 -1.51973982E+01  7.59869910E+00
  7.59869910E+00 -1.51973982E+01  7.59869910E+00  7.59869910E+00 -1.51973982E+01
  7.59869910E+00  7.59869910E+00 -1.51973982E+01  7.59869910E+00  7.59869910E+00
 -1.51973982E+01  7.59869910E+00  7.59869910E+00 -1.51973982E+01  7.59869910E+00
  7.59869910E+00 -1.51973982E+01  7.59869910E+00  7.59869910E+00 -1.51973982E+01
  7.59869910E+00  7.59869910E+00 -1.51973982E+01  7.59869910E+00  7.59869910E+00
 -1.51973982E+01  7.59869910E+00  7.59869910E+00 -1.51973982E+01  7.59869910E+00
  7.59869910E+00 -1.51973982E+01  7.59869910E+00  7.59869910E+00 -1.51973982E+01
  7.59869910E+00  7.59869910E+00 -1.51973982E+01  7.59869910E+00  7.59869910E+00
 -1.51973982E+01  7.59869910E+00  7.59869910E+00 -1.51973982E+01  7.59869910E+00
  7.59869910E+00 -1.51973982E+01  7.59869910E+00  7.59869910E+00 -1.51973982E+01
  7.59869910E+00  7.59869910E+00 -1.51973982E+01  7.59869910E+00  7.59869910E+00
 -1.51973982E+01  7.59869910E+00  7.59869910E+00 -1.51973982E+01  7.59869910E+00
  7.59869910E+00 -1.51973982E+01  7.59869910E+00  7.59869910E+00 -1.51973982E+01
  7.59869910E+00  7.59869910E+00 -1.51973982E+01  7.59869910E+00  7.59869910E+00
 -1.51973982E+01  7.59869910E+00  7.59869910E+00 -1.51973982E+01  7.59869910E+00
  7.59869910E+00 -1.51973982E+01  7.59869910E+00  7.59869910E+00 -1.51973982E+01
  7.59869910E+00  7.59869910E+00 -1.51973982E+01  7.59869910E+00  7.59869910E+00
 -1.51973982E+01  7.59869910E+00  7.59869910E+00 -1.51973982E+01  7.59869910E+00
  7.59869910E+00 -1.51973982E+01  7.59869910E+00  7.59869910E+00 -1.51973982E+01
  7.59869910E+00  7.59869910E+00 -1.51973982E+01  7.59869910E+00  7.59869910E+00
 -1.51973982E+01  7.59869910E+00  7.59869910E+00 -1.51973982E+01  7.59869910E+00
  7.59869910E+00 -1.51973982E+01  7.59869910E+00  7.59869910E+00 -1.51973982E+01
  7.59869910E+00  7.59869910E+00 -1.51973982E+01  7.59869910E+00  7.59869910E+00
 -1.51973982E+01  7.59869910E+00  7.59869910E+00 -1.51973982E+01  7.59869910E+00
  7.59869910E+00 -1.51973982E+01  7.59869910E+00  7.59869910E+00 -1.51973982E+01
  7.59869910E+00  7.59869910E+00 -1.51973982E+01  7.59869910E+00  7.59869910E+00
 -1.51973982E+01  7.59869910E+00  7.59869910E+00 -1.51973982E+01  7.59869910E+00
  7.59869910E+00 -1.51973982E+01  7.59869910E+00  7.59869910E+00 -1.51973982E+01
  7.59869910E+00  7.59869910E+00 -1.51973982E+01  7.59869910E+00  7.59869910E+00
 -1.51973982E+01  7.59869910E+00  7.59869910E+00 -1.51973982E+01  7.59869910E+00
  7.59869910E+00 -1.51973982E+01  7.59869910E+00  7.59869910E+00 -1.51973982E+01
  7.59869910E+00  7.59869910E+00 -1.51973982E+01  7.59869910E+00  7.59869910E+00
 -1.51973982E+01  7.59869910E+00  7.59869910E+00 -1.51973982E+01  7.59869910E+00
  7.59869910E+00 -1.51973982E+01  7.59869910E+00  7.59869910E+00 -1.51973982E+01
  7.59869910E+00  7.59869910E+00 -1.51973982E+01  7.59869910E+00  7.59869910E+00
 -1.51973982E+01  7.59869910E+00  7.59869910E+00 -1.51973982E+01  7.59869910E+00
  7.59869910E+00 -1.51973982E+01  7.59869910E+00  7.59869910E+00 -1.51973982E+01
  7.59869910E+00  7.59869910E+00 -1.51973982E+01  7.59869910E+00  7.59869910E+00
 -1.51973982E+01  7.59869910E+00  7.59869910E+00 -1.51973982E+01  7.59869910E+00
  7.59869910E+00 -1.51973982E+01  7.59869910E+00  7.59869910E+00 -1.51973982E+01
  7.59869910E+00  7.59869910E+00 -1.51973982E+01  7.59869910E+00  7.59869910E+00
 -1.51973982E+01  7.59869910E+00  7.59869910E+00 -1.51973982E+01  7.59869910E+00
  7.59869910E+00 -1.51973982E+01  7.59869910E+00  7.59869910E+00 -1.51973982E+01
  7.59869910E+00  7.59869910E+00 -1.51973982E+01  7.59869910E+00  7.59869910E+00
 -1.51973982E+01  7.59869910E+00  7.59869910E+00 -1.51973982E+01  7.59869910E+00
  7.59869910E+00 -1.51973982E+01  7.59869910E+00  7.59869910E+00 -1.51973982E+01
  7.59869910E+00  7.59869910E+00 -1.51973982E+01  7.59869910E+00  7.59869910E+00
 -1.51973982E+01  7.59869910E+00  7.59869910E+00 -1.51973982E+01  7.59869910E+00
  7.59869910E+00 -1.51973982E+01  7.59869910E+00  7.59869910E+00 -1.51973982E+01
  7.59869910E+00  7.59869910E+00 -1.51973982E+01  7.59869910E+00  7.59869910E+00
 -1.51973982E+01  7.59869910E+00  7.59869910E+00 -1.51973982E+01  7.59869910E+00
  7.59869910E+00 -1.51973982E+01  7.59869910E+00  7.59869910E+00 -1.51973982E+01
  7.59869910E+00  7.59869910E+00 -1.51973982E+01  7.59869910E+00  7.59869910E+00
 -1.51973982E+01  7.59869910E+00  7.59869910E+00 -1.51973982E+01  7.59869910E+00
  7.59869910E+00 -1.51973982E+01  7.59869910E+00  7.59869910E+00 -1.51973982E+01
  7.59869910E+00  7.59869910E+00 -1.51973982E+01  7.59869910E+00  7.59869910E+00
 -1.51973982E+01  7.59869910E+00  7.59869910E+00 -1.51973982E+01  7.59869910E+00
  7.59869910E+00 -1.51973982E+01  7.59869910E+00  7.59869910E+00 -1.51973982E+01
  7.59869910E+00  7.59869910E+00 -1.51973982E+01  7.59869910E+00  7.59869910E+00
 -1.51973982E+01  7.59869910E+00  7.59869910E+00 -1.51973982E+01  7.59869910E+00
  7.59869910E+00 -1.51973982E+01  7.59869910E+00  7.59869910E+00 -1.51973982E+01
  7.59869910E+00  7.59869910E+00 -1.51973982E+01  7.59869910E+00  7.59869910E+00
 -1.51973982E+01  7.59869910E+00  7.59869910E+00 -1.51973982E+01  7.59869910E+00
  7.59869910E+00 -1.51973982E+01  7.59869910E+00  7.59869910E+00 -1.51973982E+01
  7.59869910E+00  7.59869910E+00 -1.51973982E+01  7.59869910E+00  7.59869910E+00
 -1.51973982E+01  7.59869910E+00  7.59869910E+00 -1.51973982E+01  7.59869910E+00
  7.59869910E+00 -1.51973982E+01  7.59869910E+00  7.59869910E+00 -1.51973982E+01
  7.59869910E+00  7.59869910E+00 -1.51973982E+01  7.59869910E+00  7.59869910E+00
 -1.51973982E+01  7.59869910E+00  7.59869910E+00 -1.51973982E+01  7.59869910E+00
  7.59869910E+00 -1.51973982E+01  7.59869910E+00  7.59869910E+00 -1.51973982E+01
  7.59869910E+00  7.59869910E+00 -1.51973982E+01  7.59869910E+00  7.59869910E+00
 -1.51973982E+01  7.59869910E+00  7.59869910E+00 -1.51973982E+01  7.59869910E+00
  7.59869910E+00 -1.51973982E+01  7.59869910E+00  7.59869910E+00 -1.51973982E+01
  7.59869910E+00  7.59869910E+00 -1.51973982E+01  7.59869910E+00  7.59869910E+00
 -1.51973982E+01  7.59869910E+00  7.59869910E+00 -1.51973982E+01  7.59869910E+00
  7.59869910E+00 -1.51973982E+01  7.59869910E+00  7.59869910E+00 -1.51973982E+01
  7.59869910E+00  7.59869910E+00 -1.51973982E+01  7.59869910E+00  7.59869910E+00
 -1.51973982E+01  7.59869910E+00  7.59869910E+00 -1.51973982E+01  7.59869910E+00
  7.59869910E+00 -1.51973982E+01  7.59869910E+00  7.59869910E+00 -1.51973982E+01
  7.59869910E+00  7.59869910E+00 -1.51973982E+01  7.59869910E+00  7.59869910E+00
 -1.51973982E+01  7.59869910E+00  7.59869910E+00 -1.51973982E+01  7.59869910E+00
  7.59869910E+00 -1.51973982E+01  7.59869910E+00  7.59869910E+00 -1.51973982E+01
  7.59869910E+00  7.59869910E+00 -1.51973982E+01  7.59869910E+00  7.59869910E+00
 -1.51973982E+01  7.59869910E+00  7.59869910E+00 -1.51973982E+01  7.59869910E+00
  7.59869910E+00 -1.51973982E+01  7.59869910E+00  7.59869910E+00 -1.51973982E+01
  7.59869910E+00  7.59869910E+00 -1.51973982E+01  7.59869910E+00  7.59869910E+00
 -1.51973982E+01  7.59869910E+00  7.59869910E+00 -1.51973982E+01  7.59869910E+00
  7.59869910E+00 -1.51973982E+01  7.59869910E+00  7.59869910E+00 -1.51973982E+01
  7.59869910E+00  7.59869910E+00 -1.51973982E+01  7.59869910E+00  7.59869910E+00
 -1.51973982E+01  7.59869910E+00  7.59869910E+00 -1.51973982E+01  7.59869910E+00
  7.59869910E+00 -1.51973982E+01  7.59869910E+00  7.59869910E+00 -1.51973982E+01
  7.59869910E+00  7.59869910E+00 -1.51973982E+01  7.59869910E+00  7.59869910E+00
 -1.51973982E+01  7.59869910E+00  7.59869910E+00 -1.51973982E+01  7.59869910E+00
  7.59869910E+00 -1.51973982E+01  7.59869910E+00  7.59869910E+00 -1.51973982E+01
  7.59869910E+00  7.59869910E+00 -1.51973982E+01  7.59869910E+00  7.59869910E+00
 -1.51973982E+01  7.59869910E+00  7.59869910E+00 -1.51973982E+01  7.59869910E+00
  7.59869910E+00 -1.51973982E+01  7.59869910E+00  7.59869910E+00 -1.51973982E+01
  7.59869910E+00  7.59869910E+00 -1.51973982E+01  7.59869910E+00  7.59869910E+00
 -1.51973982E+01  7.59869910E+00  7.59869910E+00 -1.51973982E+01  7.59869910E+00
  7.59869910E+00 -1.51973982E+01  7.59869910E+00  7.59869910E+00 -1.51973982E+01
  7.59869910E+00  7.59869910E+00 -1.51973982E+01  7.59869910E+00  7.59869910E+00
 -1.51973982E+01  7.59869910E+00  7.59869910E+00 -1.51973982E+01  7.59869910E+00
  7.59869910E+00 -1.51973982E+01  7.59869910E+00  7.59869910E+00 -1.51973982E+01
  7.59869910E+00  7.59869910E+00 -1.51973982E+01  7.59869910E+00  7.59869910E+00
 -1.51973982E+01  7.59869910E+00  7.59869910E+00 -1.51973982E+01  7.59869910E+00
  7.59869910E+00 -1.51973982E+01  7.59869910E+00  7.59869910E+00 -1.51973982E+01
  7.59869910E+00  7.59869910E+00 -1.51973982E+01  7.59869910E+00  7.59869910E+00
 -1.51973982E+01  7.59869910E+00  7.59869910E+00 -1.51973982E+01  7.59869910E+00
  7.59869910E+00 -1.51973982E+01  7.59869910E+00  7.59869910E+00 -1.51973982E+01
  7.59869910E+00  7.59869910E+00 -1.51973982E+01  7.59869910E+00  7.59869910E+00
 -1.51973982E+01  7.59869910E+00  7.59869910E+00 -1.51973982E+01  7.59869910E+00
  7.59869910E+00 -1.51973982E+01  7.59869910E+00  7.59869910E+00 -1.51973982E+01
  7.59869910E+00  7.59869910E+00 -1.51973982E+01  7.59869910E+00  7.59869910E+00
 -1.51973982E+01  7.59869910E+00  7.59869910E+00 -1.51973982E+01  7.59869910E+00
  7.59869910E+00 -1.51973982E+01  7.59869910E+00  7.59869910E+00 -1.51973982E+01
  7.59869910E+00  7.59869910E+00 -1.51973982E+01  7.59869910E+00  7.59869910E+00
 -1.51973982E+01  7.59869910E+00  7.59869910E+00 -1.51973982E+01  7.59869910E+00
  7.59869910E+00 -1.51973982E+01  7.59869910E+00  7.59869910E+00 -1.51973982E+01
  7.59869910E+00  7.59869910E+00 -1.51973982E+01  7.59869910E+00  7.59869910E+00
 -1.51973982E+01  7.59869910E+00  7.59869910E+00 -1.51973982E+01  7.59869910E+00
  7.59869910E+00 -1.51973982E+01  7.59869910E+00  7.59869910E+00 -1.51973982E+01
  7.59869910E+00  7.59869910E+00 -1.51973982E+01  7.59869910E+00  7.59869910E+00
 -1.51973982E+01  7.59869910E+00  7.59869910E+00 -1.51973982E+01  7.59869910E+00
  7.59869910E+00 -1.51973982E+01  7.59869910E+00  7.59869910E+00 -1.51973982E+01
  7.59869910E+00  7.59869910E+00 -1.51973982E+01  7.59869910E+00  7.59869910E+00
 -1.51973982E+01  7.59869910E+00  7.59869910E+00 -1.51973982E+01  7.59869910E+00
  7.59869910E+00 -1.51973982E+01  7.59869910E+00  7.59869910E+00 -1.51973982E+01
  7.59869910E+00  7.59869910E+00 -1.51973982E+01  7.59869910E+00  7.59869910E+00
 -1.51973982E+01  7.59869910E+00  7.59869910E+00 -1.51973982E+01  7.59869910E+00
  7.59869910E+00 -1.51973982E+01  7.59869910E+00  7.59869910E+00 -1.51973982E+01
  7.59869910E+00  7.59869910E+00 -1.51973982E+01  7.59869910E+00  7.59869910E+00
 -1.51973982E+01  7.59869910E+00  7.59869910E+00 -1.51973982E+01  7.59869910E+00
  7.59869910E+00 -1.51973982E+01  7.59869910E+00  7.59869910E+00 -1.51973982E+01
  7.59869910E+00  7.59869910E+00 -1.51973982E+01  7.59869910E+00  7.59869910E+00
 -1.51973982E+01  7.59869910E+00  7.59869910E+00 -1.51973982E+01  7.59869910E+00
  7.59869910E+00 -1.51973982E+01  7.59869910E+00  7.59869910E+00 -1.51973982E+01
  7.59869910E+00  7.59869910E+00 -1.51973982E+01  7.59869910E+00  7.59869910E+00
 -1.51973982E+01  7.59869910E+00  7.59869910E+00 -1.51973982E+01  7.59869910E+00
  7.59869910E+00 -1.51973982E+01  7.59869910E+00  7.59869910E+00 -1.51973982E+01
  7.59869910E+00  7.59869910E+00 -1.51973982E+01  7.59869910E+00  7.59869910E+00
 -1.51973982E+01  7.59869910E+00  7.59869910E+00 -1.51973982E+01  7.59869910E+00
  7.59869910E+00 -1.51973982E+01  7.59869910E+00  7.59869910E+00 -1.51973982E+01
  7.59869910E+00  7.59869910E+00 -1.51973982E+01  7.59869910E+00  7.59869910E+00
 -1.51973982E+01  7.59869910E+00  7.59869910E+00 -1.51973982E+01  7.59869910E+00
  7.59869910E+00 -1.51973982E+01  7.59869910E+00  7.59869910E+00 -1.51973982E+01
  7.59869910E+00  7.59869910E+00 -1.51973982E+01  7.59869910E+00  7.59869910E+00
 -1.51973982E+01  7.59869910E+00  7.59869910E+00 -1.51973982E+01  7.59869910E+00
  7.59869910E+00 -1.51973982E+01  7.59869910E+00  7.59869910E+00 -1.51973982E+01
  7.59869910E+00  7.59869910E+00 -1.51973982E+01  7.59869910E+00  7.59869910E+00
 -1.51973982E+01  7.59869910E+00  7.59869910E+00 -1.51973982E+01  7.59869910E+00
  7.59869910E+00 -1.51973982E+01  7.59869910E+00  7.59869910E+00 -1.51973982E+01
  7.59869910E+00  7.59869910E+00 -1.51973982E+01  7.59869910E+00  7.59869910E+00
 -1.51973982E+01  7.59869910E+00  7.59869910E+00 -1.51973982E+01  7.59869910E+00
  7.59869910E+00 -1.51973982E+01  7.59869910E+00  7.59869910E+00 -1.51973982E+01
  7.59869910E+00  7.59869910E+00 -1.51973982E+01  7.59869910E+00  7.59869910E+00
 -1.51973982E+01  7.59869910E+00  7.59869910E+00 -1.51973982E+01  7.59869910E+00
  7.59869910E+00 -1.51973982E+01  7.59869910E+00  7.59869910E+00 -1.51973982E+01
  7.59869910E+00  7.59869910E+00 -1.51973982E+01  7.59869910E+00  7.59869910E+00
 -1.51973982E+01  7.59869910E+00  7.59869910E+00 -1.51973982E+01  7.59869910E+00
  7.59869910E+00 -1.51973982E+01  7.59869910E+00  7.59869910E+00 -1.51973982E+01
  7.59869910E+00  7.59869910E+00 -1.51973982E+01  7.59869910E+00  7.59869910E+00
 -1.51973982E+01  7.59869910E+00  7.59869910E+00 -1.51973982E+01  7.59869910E+00
  7.59869910E+00 -1.51973982E+01  7.59869910E+00  7.59869910E+00 -1.51973982E+01
  7.59869910E+00  7.59869910E+00 -1.51973982E+01  7.59869910E+00  7.59869910E+00
 -1.51973982E+01  7.59869910E+00  7.59869910E+00 -1.51973982E+01  7.59869910E+00
  7.59869910E+00 -1.51973982E+01  7.59869910E+00  7.59869910E+00 -1.51973982E+01
  7.59869910E+00  7.59869910E+00 -1.51973982E+01  7.59869910E+00  7.59869910E+00
 -1.51973982E+01  7.59869910E+00  7.59869910E+00 -1.51973982E+01  7.59869910E+00
  7.59869910E+00 -1.51973982E+01  7.59869910E+00  7.59869910E+00 -1.51973982E+01
  7.59869910E+00  7.59869910E+00 -1.51973982E+01  7.59869910E+00  7.59869910E+00
 -1.51973982E+01  7.59869910E+00  7.59869910E+00 -1.51973982E+01  7.59869910E+00
  7.59869910E+00 -1.51973982E+01  7.59869910E+00  7.59869910E+00 -1.51973982E+01
  7.59869910E+00  7.59869910E+00 -1.51973982E+01  7.59869910E+00  7.59869910E+00
 -1.51973982E+01  7.59869910E+00  7.59869910E+00 -1.51973982E+01  7.59869910E+00
  7.59869910E+00 -1.51973982E+01  7.59869910E+00  7.59869910E+00 -1.51973982E+01
  7.59869910E+00  7.59869910E+00 -1.51973982E+01  7.59869910E+00  7.59869910E+00
 -1.51973982E+01  7.59869910E+00  7.59869910E+00 -1.51973982E+01  7.59869910E+00
  7.59869910E+00 -1.51973982E+01  7.59869910E+00  7.59869910E+00 -1.51973982E+01
  7.59869910E+00  7.59869910E+00 -1.51973982E+01  7.59869910E+00  7.59869910E+00
 -1.51973982E+01  7.59869910E+00  7.59869910E+00 -1.51973982E+01  7.59869910E+00
  7.59869910E+00 -1.51973982E+01  7.59869910E+00  7.59869910E+00 -1.51973982E+01
  7.59869910E+00  7.59869910E+00 -1.51973982E+01  7.59869910E+00  7.59869910E+00
 -1.51973982E+01  7.59869910E+00  7.59869910E+00 -1.51973982E+01  7.59869910E+00
  7.59869910E+00 -1.51973982E+01  7.59869910E+00  7.59869910E+00 -1.51973982E+01
  7.59869910E+00  7.59869910E+00 -1.51973982E+01  7.59869910E+00  7.59869910E+00
 -1.51973982E+01  7.59869910E+00  7.59869910E+00 -1.51973982E+01  7.59869910E+00
  7.59869910E+00 -1.51973982E+01  7.59869910E+00  7.59869910E+00 -1.51973982E+01
  7.59869910E+00  7.59869910E+00 -1.51973982E+01  7.59869910E+00  7.59869910E+00
 -1.51973982E+01  7.59869910E+00  7.59869910E+00 -1.51973982E+01  7.59869910E+00
  7.59869910E+00 -1.51973982E+01  7.59869910E+00  7.59869910E+00 -1.51973982E+01
  7.59869910E+00  7.59869910E+00 -1.51973982E+01  7.59869910E+00  7.59869910E+00
 -1.51973982E+01  7.59869910E+00  7.59869910E+00 -1.51973982E+01  7.59869910E+00
  7.59869910E+00 -1.51973982E+01  7.59869910E+00  7.59869910E+00 -1.51973982E+01
  7.59869910E+00  7.59869910E+00 -1.51973982E+01  7.59869910E+00  7.59869910E+00
 -1.51973982E+01  7.59869910E+00  7.59869910E+00 -1.51973982E+01  7.59869910E+00
  7.59869910E+00 -1.51973982E+01  7.59869910E+00  7.59869910E+00 -1.51973982E+01
  7.59869910E+00  7.59869910E+00 -1.51973982E+01  7.59869910E+00  7.59869910E+00
 -1.51973982E+01  7.59869910E+00  7.59869910E+00 -1.51973982E+01  7.59869910E+00
  7.59869910E+00 -1.51973982E+01  7.59869910E+00  7.59869910E+00 -1.51973982E+01
  7.59869910E+00  7.59869910E+00 -1.51973982E+01  7.59869910E+00  7.59869910E+00
 -1.51973982E+01  7.59869910E+00  7.59869910E+00 -1.51973982E+01  7.59869910E+00
  7.59869910E+00 -1.51973982E+01  7.59869910E+00  7.59869910E+00 -1.51973982E+01
  7.59869910E+00  7.59869910E+00 -1.51973982E+01  7.59869910E+00  7.59869910E+00
 -1.51973982E+01  7.59869910E+00  7.59869910E+00 -1.51973982E+01  7.59869910E+00
  7.59869910E+00 -1.51973982E+01  7.59869910E+00  7.59869910E+00 -1.51973982E+01
  7.59869910E+00  7.59869910E+00 -1.51973982E+01  7.59869910E+00  7.59869910E+00
 -1.51973982E+01  7.59869910E+00  7.59869910E+00 -1.51973982E+01  7.59869910E+00
  7.59869910E+00 -1.51973982E+01  7.59869910E+00  7.59869910E+00 -1.51973982E+01
  7.59869910E+00  7.59869910E+00 -1.51973982E+01  7.59869910E+00  7.59869910E+00
 -1.51973982E+01  7.59869910E+00  7.59869910E+00 -1.51973982E+01  7.59869910E+00
  7.59869910E+00 -1.51973982E+01  7.59869910E+00  7.59869910E+00 -1.51973982E+01
  7.59869910E+00  7.59869910E+00 -1.51973982E+01  7.59869910E+00  7.59869910E+00
 -1.51973982E+01  7.59869910E+00  7.59869910E+00 -1.51973982E+01  7.59869910E+00
  7.59869910E+00 -1.51973982E+01  7.59869910E+00  7.59869910E+00 -1.51973982E+01
  7.59869910E+00  7.59869910E+00 -1.51973982E+01  7.59869910E+00  7.59869910E+00
 -1.51973982E+01  7.59869910E+00  7.59869910E+00 -1.51973982E+01  7.59869910E+00
  7.59869910E+00 -1.51973982E+01  7.59869910E+00  7.59869910E+00 -1.51973982E+01
  7.59869910E+00  7.59869910E+00 -1.51973982E+01  7.59869910E+00  7.59869910E+00
 -1.51973982E+01  7.59869910E+00  7.59869910E+00 -1.51973982E+01  7.59869910E+00
  7.59869910E+00 -1.51973982E+01  7.59869910E+00  7.59869910E+00 -1.51973982E+01
  7.59869910E+00  7.59869910E+00 -1.51973982E+01  7.59869910E+00  7.59869910E+00
 -1.51973982E+01  7.59869910E+00  7.59869910E+00 -1.51973982E+01  7.59869910E+00
  7.59869910E+00 -1.51973982E+01  7.59869910E+00  7.59869910E+00 -1.51973982E+01
  7.59869910E+00  7.59869910E+00 -1.51973982E+01  7.59869910E+00  7.59869910E+00
 -1.51973982E+01  7.59869910E+00  7.59869910E+00 -1.51973982E+01  7.59869910E+00
  7.59869910E+00 -1.51973982E+01  7.59869910E+00  7.59869910E+00 -1.51973982E+01
  7.59869910E+00  7.59869910E+00 -1.51973982E+01  7.59869910E+00  7.59869910E+00
 -1.51973982E+01  7.59869910E+00  7.59869910E+00 -1.51973982E+01  7.59869910E+00
  7.59869910E+00 -1.51973982E+01  7.59869910E+00  7.59869910E+00 -1.51973982E+01
  7.59869910E+00  7.59869910E+00 -1.51973982E+01  7.59869910E+00  7.59869910E+00
 -1.51973982E+01  7.59869910E+00  7.59869910E+00 -1.51973982E+01  7.59869910E+00
  7.59869910E+00 -1.51973982E+01  7.59869910E+00  7.59869910E+00 -1.51973982E+01
  7.59869910E+00  7.59869910E+00 -1.51973982E+01  7.59869910E+00  7.59869910E+00
 -1.51973982E+01  7.59869910E+00  7.59869910E+00 -1.51973982E+01  7.59869910E+00
  7.59869910E+00 -1.51973982E+01  7.59869910E+00  7.59869910E+00 -1.51973982E+01
  7.59869910E+00  7.59869910E+00 -1.51973982E+01  7.59869910E+00  7.59869910E+00
 -1.51973982E+01  7.59869910E+00  7.59869910E+00 -1.51973982E+01  7.59869910E+00
  7.59869910E+00 -1.51973982E+01  7.59869910E+00  7.59869910E+00 -1.51973982E+01
  7.59869910E+00  7.59869910E+00 -1.51973982E+01  7.59869910E+00  7.59869910E+00
 -1.51973982E+01  7.59869910E+00  7.59869910E+00 -1.51973982E+01  7.59869910E+00
  7.59869910E+00 -1.51973982E+01  7.59869910E+00  7.59869910E+00 -1.51973982E+01
  7.59869910E+00  7.59869910E+00 -1.51973982E+01  7.59869910E+00  7.59869910E+00
 -1.51973982E+01  7.59869910E+00  7.59869910E+00 -1.51973982E+01  7.59869910E+00
  7.59869910E+00 -1.51973982E+01  7.59869910E+00  7.59869910E+00 -1.51973982E+01
  7.59869910E+00  7.59869910E+00 -1.51973982E+01  7.59869910E+00  7.59869910E+00
 -1.51973982E+01  7.59869910E+00  7.59869910E+00 -1.51973982E+01  7.59869910E+00
  7.59869910E+00 -1.51973982E+01  7.59869910E+00  7.59869910E+00 -1.51973982E+01
  7.59869910E+00  7.59869910E+00 -1.51973982E+01  7.59869910E+00  7.59869910E+00
 -1.51973982E+01  7.59869910E+00  7.59869910E+00 -1.51973982E+01  7.59869910E+00
  7.59869910E+00 -1.51973982E+01  7.59869910E+00  7.59869910E+00 -1.51973982E+01
  7.59869910E+00  7.59869910E+00 -1.51973982E+01  7.59869910E+00  7.59869910E+00
 -1.51973982E+01  7.59869910E+00  7.59869910E+00 -1.51973982E+01  7.59869910E+00
  7.59869910E+00 -1.51973982E+01  7.59869910E+00  7.59869910E+00 -1.51973982E+01
  7.59869910E+00  7.59869910E+00 -1.51973982E+01  7.59869910E+00  7.59869910E+00
 -1.51973982E+01  7.59869910E+00  7.59869910E+00 -1.51973982E+01  7.59869910E+00
  7.59869910E+00 -1.51973982E+01  7.59869910E+00  7.59869910E+00 -1.51973982E+01
  7.59869910E+00  7.59869910E+00 -1.51973982E+01  7.59869910E+00  7.59869910E+00
 -1.51973982E+01  7.59869910E+00  7.59869910E+00 -1.51973982E+01  7.59869910E+00
  7.59869910E+00 -1.51973982E+01  7.59869910E+00  7.59869910E+00 -1.51973982E+01
  7.59869910E+00  7.59869910E+00 -1.51973982E+01  7.59869910E+00  7.59869910E+00
 -1.51973982E+01  7.59869910E+00  7.59869910E+00 -1.51973982E+01  7.59869910E+00
  7.59869910E+00 -1.51973982E+01  7.59869910E+00  7.59869910E+00 -1.51973982E+01
  7.59869910E+00  7.59869910E+00 -1.51973982E+01  7.59869910E+00  7.59869910E+00
 -1.51973982E+01  7.59869910E+00  7.59869910E+00 -1.51973982E+01  7.59869910E+00
  7.59869910E+00 -1.51973982E+01  7.59869910E+00  7.59869910E+00 -1.51973982E+01
  7.59869910E+00  7.59869910E+00 -1.51973982E+01  7.59869910E+00  7.59869910E+00
 -1.51973982E+01  7.59869910E+00  7.59869910E+00 -1.51973982E+01  7.59869910E+00
  7.59869910E+00 -1.51973982E+01  7.59869910E+00  7.59869910E+00 -1.51973982E+01
  7.59869910E+00  7.59869910E+00 -1.51973982E+01  7.59869910E+00  7.59869910E+00
 -1.51973982E+01  7.59869910E+00  7.59869910E+00 -1.51973982E+01  7.59869910E+00
  7.59869910E+00 -1.51973982E+01  7.59869910E+00  7.59869910E+00 -1.51973982E+01
  7.59869910E+00  7.59869910E+00 -1.51973982E+01  7.59869910E+00  7.59869910E+00
 -1.51973982E+01  7.59869910E+00  7.59869910E+00 -1.51973982E+01  7.59869910E+00
  7.59869910E+00 -1.51973982E+01  7.59869910E+00  7.59869910E+00 -1.51973982E+01
  7.59869910E+00  7.59869910E+00 -1.51973982E+01  7.59869910E+00  7.59869910E+00
 -1.51973982E+01  7.59869910E+00  7.59869910E+00 -1.51973982E+01  7.59869910E+00
  7.59869910E+00 -1.51973982E+01  7.59869910E+00  7.59869910E+00 -1.51973982E+01
  7.59869910E+00  7.59869910E+00 -1.51973982E+01  7.59869910E+00  7.59869910E+00
 -1.51973982E+01  7.59869910E+00  7.59869910E+00 -1.51973982E+01  7.59869910E+00
  7.59869910E+00 -1.51973982E+01  7.59869910E+00  7.59869910E+00 -1.51973982E+01
  7.59869910E+00  7.59869910E+00 -1.51973982E+01  7.59869910E+00  7.59869910E+00
 -1.51973982E+01  7.59869910E+00  7.59869910E+00 -1.51973982E+01  7.59869910E+00
  7.59869910E+00 -1.51973982E+01  7.59869910E+00  7.59869910E+00 -1.51973982E+01
  7.59869910E+00  7.59869910E+00 -1.51973982E+01  7.59869910E+00  7.59869910E+00
 -1.51973982E+01  7.59869910E+00  7.59869910E+00 -1.51973982E+01  7.59869910E+00
  7.59869910E+00 -1.51973982E+01  7.59869910E+00  7.59869910E+00 -1.51973982E+01
  7.59869910E+00  7.59869910E+00 -1.51973982E+01  7.59869910E+00  7.59869910E+00
 -1.51973982E+01  7.59869910E+00  7.59869910E+00 -1.51973982E+01  7.59869910E+00
  7.59869910E+00 -1.51973982E+01  7.59869910E+00  7.59869910E+00 -1.51973982E+01
  7.59869910E+00  7.59869910E+00 -1.51973982E+01  7.59869910E+00  7.59869910E+00
 -1.51973982E+01  7.59869910E+00  7.59869910E+00 -1.51973982E+01  7.59869910E+00
  7.59869910E+00 -1.51973982E+01  7.59869910E+00  7.59869910E+00 -1.51973982E+01
  7.59869910E+00  7.59869910E+00 -1.51973982E+01  7.59869910E+00  7.59869910E+00
 -1.51973982E+01  7.59869910E+00  7.59869910E+00 -1.51973982E+01  7.59869910E+00
  7.59869910E+00 -1.51973982E+01  7.59869910E+00  7.59869910E+00 -1.51973982E+01
  7.59869910E+00  7.59869910E+00 -1.51973982E+01  7.59869910E+00  7.59869910E+00
 -1.51973982E+01  7.59869910E+00  7.59869910E+00 -1.51973982E+01  7.59869910E+00
  7.59869910E+00 -1.51973982E+01  7.59869910E+00  7.59869910E+00 -1.51973982E+01
  7.59869910E+00  7.59869910E+00 -1.51973982E+01  7.59869910E+00  7.59869910E+00
 -1.51973982E+01  7.59869910E+00  7.59869910E+00 -1.51973982E+01  7.59869910E+00
  7.59869910E+00 -1.51973982E+01  7.59869910E+00  7.59869910E+00 -1.51973982E+01
  7.59869910E+00  7.59869910E+00 -1.51973982E+01  7.59869910E+00  7.59869910E+00
 -1.51973982E+01  7.59869910E+00  7.59869910E+00 -1.51973982E+01  7.59869910E+00
  7.59869910E+00 -1.51973982E+01  7.59869910E+00  7.59869910E+00 -1.51973982E+01
  7.59869910E+00  7.59869910E+00 -1.51973982E+01  7.59869910E+00  7.59869910E+00
 -1.51973982E+01  7.59869910E+00  7.59869910E+00 -1.51973982E+01  7.59869910E+00
  7.59869910E+00 -1.51973982E+01  7.59869910E+00  7.59869910E+00 -1.51973982E+01
  7.59869910E+00  7.59869910E+00 -1.51973982E+01  7.59869910E+00  7.59869910E+00
 -1.51973982E+01  7.59869910E+00  7.59869910E+00 -1.51973982E+01  7.59869910E+00
  7.59869910E+00 -1.51973982E+01  7.59869910E+00  7.59869910E+00 -1.51973982E+01
  7.59869910E+00  7.59869910E+00 -1.51973982E+01  7.59869910E+00  7.59869910E+00
 -1.51973982E+01  7.59869910E+00  7.59869910E+00 -1.51973982E+01  7.59869910E+00
  7.59869910E+00 -1.51973982E+01  7.59869910E+00  7.59869910E+00 -1.51973982E+01
  7.59869910E+00  7.59869910E+00 -1.51973982E+01  7.59869910E+00  7.59869910E+00
 -1.51973982E+01  7.59869910E+00  7.59869910E+00 -1.51973982E+01  7.59869910E+00
  7.59869910E+00 -1.51973982E+01  7.59869910E+00  7.59869910E+00 -1.51973982E+01
  7.59869910E+00  7.59869910E+00 -1.51973982E+01  7.59869910E+00  7.59869910E+00
 -1.51973982E+01  7.59869910E+00  7.59869910E+00 -1.51973982E+01  7.59869910E+00
  7.59869910E+00 -1.51973982E+01  7.59869910E+00  7.59869910E+00 -1.51973982E+01
  7.59869910E+00  7.59869910E+00 -1.51973982E+01  7.59869910E+00  7.59869910E+00
 -1.51973982E+01  7.59869910E+00  7.59869910E+00 -1.51973982E+01  7.59869910E+00
  7.59869910E+00 -1.51973982E+01  7.59869910E+00  7.59869910E+00 -1.51973982E+01
  7.59869910E+00  7.59869910E+00 -1.51973982E+01  7.59869910E+00  7.59869910E+00
 -1.51973982E+01  7.59869910E+00  7.59869910E+00 -1.51973982E+01  7.59869910E+00
  7.59869910E+00 -1.51973982E+01  7.59869910E+00  7.59869910E+00 -1.51973982E+01
  7.59869910E+00  7.59869910E+00 -1.51973982E+01  7.59869910E+00  7.59869910E+00
 -1.51973982E+01  7.59869910E+00  7.59869910E+00 -1.51973982E+01  7.59869910E+00
  7.59869910E+00 -1.51973982E+01  7.59869910E+00  7.59869910E+00 -1.51973982E+01
  7.59869910E+00  7.59869910E+00 -1.51973982E+01  7.59869910E+00  7.59869910E+00
 -1.51973982E+01  7.59869910E+00  7.59869910E+00 -1.51973982E+01  7.59869910E+00
  7.59869910E+00 -1.51973982E+01  7.59869910E+00  7.59869910E+00 -1.51973982E+01
  7.59869910E+00  7.59869910E+00 -1.51973982E+01  7.59869910E+00  7.59869910E+00
 -1.51973982E+01  7.59869910E+00  7.59869910E+00 -1.51973982E+01  7.59869910E+00
  7.59869910E+00 -1.51973982E+01  7.59869910E+00  7.59869910E+00 -1.51973982E+01
  7.59869910E+00  7.59869910E+00 -1.51973982E+01  7.59869910E+00  7.59869910E+00
 -1.51973982E+01  7.59869910E+00  7.59869910E+00 -1.51973982E+01  7.59869910E+00
  7.59869910E+00 -1.51973982E+01  7.59869910E+00  7.59869910E+00 -1.51973982E+01
  7.59869910E+00  7.59869910E+00 -1.51973982E+01  7.59869910E+00  7.59869910E+00
 -1.51973982E+01  7.59869910E+00  7.59869910E+00 -1.51973982E+01  7.59869910E+00
  7.59869910E+00 -1.51973982E+01  7.59869910E+00  7.59869910E+00 -1.51973982E+01
  7.59869910E+00  7.59869910E+00 -1.51973982E+01  7.59869910E+00  7.59869910E+00
 -1.51973982E+01  7.59869910E+00  7.59869910E+00 -1.51973982E+01  7.59869910E+00
  7.59869910E+00 -1.51973982E+01  7.59869910E+00  7.59869910E+00 -1.51973982E+01
  7.59869910E+00  7.59869910E+00 -1.51973982E+01  7.59869910E+00  7.59869910E+00
 -1.51973982E+01  7.59869910E+00  7.59869910E+00 -1.51973982E+01  7.59869910E+00
  7.59869910E+00 -1.51973982E+01  7.59869910E+00  7.59869910E+00 -1.51973982E+01
  7.59869910E+00  7.59869910E+00 -1.51973982E+01  7.59869910E+00  7.59869910E+00
 -1.51973982E+01  7.59869910E+00  7.59869910E+00 -1.51973982E+01  7.59869910E+00
  7.59869910E+00 -1.51973982E+01  7.59869910E+00  7.59869910E+00 -1.51973982E+01
  7.59869910E+00  7.59869910E+00 -1.51973982E+01  7.59869910E+00  7.59869910E+00
 -1.51973982E+01  7.59869910E+00  7.59869910E+00 -1.51973982E+01  7.59869910E+00
  7.59869910E+00 -1.51973982E+01  7.59869910E+00  7.59869910E+00 -1.51973982E+01
  7.59869910E+00  7.59869910E+00 -1.51973982E+01  7.59869910E+00  7.59869910E+00
 -1.51973982E+01  7.59869910E+00  7.59869910E+00 -1.51973982E+01  7.59869910E+00
  7.59869910E+00 -1.51973982E+01  7.59869910E+00  7.59869910E+00 -1.51973982E+01
  7.59869910E+00  7.59869910E+00 -1.51973982E+01  7.59869910E+00  7.59869910E+00
 -1.51973982E+01  7.59869910E+00  7.59869910E+00 -1.51973982E+01  7.59869910E+00
  7.59869910E+00 -1.51973982E+01  7.59869910E+00  7.59869910E+00 -1.51973982E+01
  7.59869910E+00  7.59869910E+00 -1.51973982E+01  7.59869910E+00  7.59869910E+00
 -1.51973982E+01  7.59869910E+00  7.59869910E+00 -1.51973982E+01  7.59869910E+00
  7.59869910E+00 -1.51973982E+01  7.59869910E+00  7.59869910E+00 -1.51973982E+01
  7.59869910E+00  7.59869910E+00 -1.51973982E+01  7.59869910E+00  7.59869910E+00
 -1.51973982E+01  7.59869910E+00  7.59869910E+00 -1.51973982E+01  7.59869910E+00
  7.59869910E+00 -1.51973982E+01  7.59869910E+00  7.59869910E+00 -1.51973982E+01
  7.59869910E+00  7.59869910E+00 -1.51973982E+01  7.59869910E+00  7.59869910E+00
 -1.51973982E+01  7.59869910E+00  7.59869910E+00 -1.51973982E+01  7.59869910E+00
  7.59869910E+00 -1.51973982E+01  7.59869910E+00  7.59869910E+00 -1.51973982E+01
  7.59869910E+00  7.59869910E+00 -1.51973982E+01  7.59869910E+00  7.59869910E+00
 -1.51973982E+01  7.59869910E+00  7.59869910E+00 -1.51973982E+01  7.59869910E+00
  7.59869910E+00 -1.51973982E+01  7.59869910E+00  7.59869910E+00 -1.51973982E+01
  7.59869910E+00  7.59869910E+00 -1.51973982E+01  7.59869910E+00  7.59869910E+00
 -1.51973982E+01  7.59869910E+00  7.59869910E+00 -1.51973982E+01  7.59869910E+00
  7.59869910E+00 -1.51973982E+01  7.59869910E+00  7.59869910E+00 -1.51973982E+01
  7.59869910E+00  7.59869910E+00 -1.51973982E+01  7.59869910E+00  7.59869910E+00
 -1.51973982E+01  7.59869910E+00  7.59869910E+00 -1.51973982E+01  7.59869910E+00
  7.59869910E+00 -1.51973982E+01  7.59869910E+00  7.59869910E+00 -1.51973982E+01
  7.59869910E+00  7.59869910E+00 -1.51973982E+01  7.59869910E+00  7.59869910E+00
 -1.51973982E+01  7.59869910E+00  7.59869910E+00 -1.51973982E+01  7.59869910E+00
  7.59869910E+00 -1.51973982E+01  7.59869910E+00  7.59869910E+00 -1.51973982E+01
  7.59869910E+00  7.59869910E+00 -1.51973982E+01  7.59869910E+00  7.59869910E+00
 -1.51973982E+01  7.59869910E+00  7.59869910E+00 -1.51973982E+01  7.59869910E+00
  7.59869910E+00 -1.51973982E+01  7.59869910E+00  7.59869910E+00 -1.51973982E+01
  7.59869910E+00  7.59869910E+00 -1.51973982E+01  7.59869910E+00  7.59869910E+00
 -1.51973982E+01  7.59869910E+00  7.59869910E+00 -1.51973982E+01  7.59869910E+00
  7.59869910E+00 -1.51973982E+01  7.59869910E+00  7.59869910E+00 -1.51973982E+01
  7.59869910E+00  7.59869910E+00 -1.51973982E+01  7.59869910E+00  7.59869910E+00
 -1.51973982E+01  7.59869910E+00  7.59869910E+00 -1.51973982E+01  7.59869910E+00
  7.59869910E+00 -1.51973982E+01  7.59869910E+00  7.59869910E+00 -1.51973982E+01
  7.59869910E+00  7.59869910E+00 -1.51973982E+01  7.59869910E+00  7.59869910E+00
 -1.51973982E+01  7.59869910E+00  7.59869910E+00 -1.51973982E+01  7.59869910E+00
  7.59869910E+00 -1.51973982E+01  7.59869910E+00  7.59869910E+00 -1.51973982E+01
  7.59869910E+00  7.59869910E+00 -1.51973982E+01  7.59869910E+00  7.59869910E+00
 -1.51973982E+01  7.59869910E+00  7.59869910E+00 -1.51973982E+01  7.59869910E+00
  7.59869910E+00 -1.51973982E+01  7.59869910E+00  7.59869910E+00 -1.51973982E+01
  7.59869910E+00  7.59869910E+00 -1.51973982E+01  7.59869910E+00  7.59869910E+00
 -1.51973982E+01  7.59869910E+00  7.59869910E+00 -1.51973982E+01  7.59869910E+00
  7.59869910E+00 -1.51973982E+01  7.59869910E+00  7.59869910E+00 -1.51973982E+01
  7.59869910E+00  7.59869910E+00 -1.51973982E+01  7.59869910E+00  7.59869910E+00
 -1.51973982E+01  7.59869910E+00  7.59869910E+00 -1.51973982E+01  7.59869910E+00
  7.59869910E+00 -1.51973982E+01  7.59869910E+00  7.59869910E+00 -1.51973982E+01
  7.59869910E+00  7.59869910E+00 -1.51973982E+01  7.59869910E+00  7.59869910E+00
 -1.51973982E+01  7.59869910E+00  7.59869910E+00 -1.51973982E+01  7.59869910E+00
  7.59869910E+00 -1.51973982E+01  7.59869910E+00  7.59869910E+00 -1.51973982E+01
  7.59869910E+00  7.59869910E+00 -1.51973982E+01  7.59869910E+00  7.59869910E+00
 -1.51973982E+01  7.59869910E+00  7.59869910E+00 -1.51973982E+01  7.59869910E+00
  7.59869910E+00 -1.51973982E+01  7.59869910E+00  7.59869910E+00 -1.51973982E+01
  7.59869910E+00  7.59869910E+00 -1.51973982E+01  7.59869910E+00  7.59869910E+00
 -1.51973982E+01  7.59869910E+00  7.59869910E+00 -1.51973982E+01  7.59869910E+00
  7.59869910E+00 -1.51973982E+01  7.59869910E+00  7.59869910E+00 -1.51973982E+01
  7.59869910E+00  7.59869910E+00 -1.51973982E+01  7.59869910E+00  7.59869910E+00
 -1.51973982E+01  7.59869910E+00  7.59869910E+00 -1.51973982E+01  7.59869910E+00
  7.59869910E+00 -1.51973982E+01  7.59869910E+00  7.59869910E+00 -1.51973982E+01
  7.59869910E+00  7.59869910E+00 -1.51973982E+01  7.59869910E+00  7.59869910E+00
 -1.51973982E+01  7.59869910E+00  7.59869910E+00 -1.51973982E+01  7.59869910E+00
  7.59869910E+00 -1.51973982E+01  7.59869910E+00  7.59869910E+00 -1.51973982E+01
  7.59869910E+00  7.59869910E+00 -1.51973982E+01  7.59869910E+00  7.59869910E+00
 -1.51973982E+01  7.59869910E+00  7.59869910E+00 -1.51973982E+01  7.59869910E+00
  7.59869910E+00 -1.51973982E+01  7.59869910E+00  7.59869910E+00 -1.51973982E+01
  7.59869910E+00  7.59869910E+00 -1.51973982E+01  7.59869910E+00  7.59869910E+00
 -1.51973982E+01  7.59869910E+00  7.59869910E+00 -1.51973982E+01  7.59869910E+00
  7.59869910E+00 -1.51973982E+01  7.59869910E+00  7.59869910E+00 -1.51973982E+01
  7.59869910E+00  7.59869910E+00 -1.51973982E+01  7.59869910E+00  7.59869910E+00
 -1.51973982E+01  7.59869910E+00  7.59869910E+00 -1.51973982E+01  7.59869910E+00
  7.59869910E+00 -1.51973982E+01  7.59869910E+00  7.59869910E+00 -1.51973982E+01
  7.59869910E+00  7.59869910E+00 -1.51973982E+01  7.59869910E+00  7.59869910E+00
 -1.51973982E+01  7.59869910E+00  7.59869910E+00 -1.51973982E+01  7.59869910E+00
  7.59869910E+00 -1.51973982E+01  7.59869910E+00  7.59869910E+00 -1.51973982E+01
  7.59869910E+00  7.59869910E+00 -1.51973982E+01  7.59869910E+00  7.59869910E+00
 -1.51973982E+01  7.59869910E+00  7.59869910E+00 -1.51973982E+01  7.59869910E+00
  7.59869910E+00 -1.51973982E+01  7.59869910E+00  7.59869910E+00 -1.51973982E+01
  7.59869910E+00  7.59869910E+00 -1.51973982E+01  7.59869910E+00  7.59869910E+00
 -1.51973982E+01  7.59869910E+00  7.59869910E+00 -1.51973982E+01  7.59869910E+00
  7.59869910E+00 -1.51973982E+01  7.59869910E+00  7.59869910E+00 -1.51973982E+01
  7.59869910E+00  7.59869910E+00 -1.51973982E+01  7.59869910E+00  7.59869910E+00
 -1.51973982E+01  7.59869910E+00  7.59869910E+00 -1.51973982E+01  7.59869910E+00
  7.59869910E+00 -1.51973982E+01  7.59869910E+00  7.59869910E+00 -1.51973982E+01
  7.59869910E+00  7.59869910E+00 -1.51973982E+01  7.59869910E+00  7.59869910E+00
 -1.51973982E+01  7.59869910E+00  7.59869910E+00 -1.51973982E+01  7.59869910E+00
  7.59869910E+00 -1.51973982E+01  7.59869910E+00  7.59869910E+00 -1.51973982E+01
  7.59869910E+00  7.59869910E+00 -1.51973982E+01  7.59869910E+00  7.59869910E+00
 -1.51973982E+01  7.59869910E+00  7.59869910E+00 -1.51973982E+01  7.59869910E+00
  7.59869910E+00 -1.51973982E+01  7.59869910E+00  7.59869910E+00 -1.51973982E+01
  7.59869910E+00  7.59869910E+00 -1.51973982E+01  7.59869910E+00  7.59869910E+00
 -1.51973982E+01  7.59869910E+00  7.59869910E+00 -1.51973982E+01  7.59869910E+00
  7.59869910E+00 -1.51973982E+01  7.59869910E+00  7.59869910E+00 -1.51973982E+01
  7.59869910E+00  7.59869910E+00 -1.51973982E+01  7.59869910E+00  7.59869910E+00
 -1.51973982E+01  7.59869910E+00  7.59869910E+00 -1.51973982E+01  7.59869910E+00
  7.59869910E+00 -1.51973982E+01  7.59869910E+00  7.59869910E+00 -1.51973982E+01
  7.59869910E+00  7.59869910E+00 -1.51973982E+01  7.59869910E+00  7.59869910E+00
 -1.51973982E+01  7.59869910E+00  7.59869910E+00 -1.51973982E+01  7.59869910E+00
  7.59869910E+00 -1.51973982E+01  7.59869910E+00  7.59869910E+00 -1.51973982E+01
  7.59869910E+00  7.59869910E+00 -1.51973982E+01  7.59869910E+00  7.59869910E+00
 -1.51973982E+01  7.59869910E+00  7.59869910E+00 -1.51973982E+01  7.59869910E+00
  7.59869910E+00 -1.51973982E+01  7.59869910E+00  7.59869910E+00 -1.51973982E+01
  7.59869910E+00  7.59869910E+00 -1.51973982E+01  7.59869910E+00  7.59869910E+00
 -1.51973982E+01  7.59869910E+00  7.59869910E+00 -1.51973982E+01  7.59869910E+00
  7.59869910E+00 -1.51973982E+01  7.59869910E+00  7.59869910E+00 -1.51973982E+01
  7.59869910E+00  7.59869910E+00 -1.51973982E+01  7.59869910E+00  7.59869910E+00
 -1.51973982E+01  7.59869910E+00  7.59869910E+00 -1.51973982E+01  7.59869910E+00
  7.59869910E+00 -1.51973982E+01  7.59869910E+00  7.59869910E+00 -1.51973982E+01
  7.59869910E+00  7.59869910E+00 -1.51973982E+01  7.59869910E+00  7.59869910E+00
 -1.51973982E+01  7.59869910E+00  7.59869910E+00 -1.51973982E+01  7.59869910E+00
  7.59869910E+00 -1.51973982E+01  7.59869910E+00  7.59869910E+00 -1.51973982E+01
  7.59869910E+00  7.59869910E+00 -1.51973982E+01  7.59869910E+00  7.59869910E+00
 -1.51973982E+01  7.59869910E+00  7.59869910E+00 -1.51973982E+01  7.59869910E+00
  7.59869910E+00 -1.51973982E+01  7.59869910E+00  7.59869910E+00 -1.51973982E+01
  7.59869910E+00  7.59869910E+00 -1.51973982E+01  7.59869910E+00  7.59869910E+00
 -1.51973982E+01  7.59869910E+00  7.59869910E+00 -1.51973982E+01  7.59869910E+00
  7.59869910E+00 -1.51973982E+01  7.59869910E+00  7.59869910E+00 -1.51973982E+01
  7.59869910E+00  7.59869910E+00 -1.51973982E+01  7.59869910E+00  7.59869910E+00
 -1.51973982E+01  7.59869910E+00  7.59869910E+00 -1.51973982E+01  7.59869910E+00
  7.59869910E+00 -1.51973982E+01  7.59869910E+00  7.59869910E+00 -1.51973982E+01
  7.59869910E+00  7.59869910E+00 -1.51973982E+01  7.59869910E+00  7.59869910E+00
 -1.51973982E+01  7.59869910E+00  7.59869910E+00 -1.51973982E+01  7.59869910E+00
  7.59869910E+00 -1.51973982E+01  7.59869910E+00  7.59869910E+00 -1.51973982E+01
  7.59869910E+00  7.59869910E+00 -1.51973982E+01  7.59869910E+00  7.59869910E+00
 -1.51973982E+01  7.59869910E+00  7.59869910E+00 -1.51973982E+01  7.59869910E+00
  7.59869910E+00 -1.51973982E+01  7.59869910E+00  7.59869910E+00 -1.51973982E+01
  7.59869910E+00  7.59869910E+00 -1.51973982E+01  7.59869910E+00  7.59869910E+00
 -1.51973982E+01  7.59869910E+00  7.59869910E+00 -1.51973982E+01  7.59869910E+00
  7.59869910E+00 -1.51973982E+01  7.59869910E+00  7.59869910E+00 -1.51973982E+01
  7.59869910E+00  7.59869910E+00 -1.51973982E+01  7.59869910E+00  7.59869910E+00
 -1.51973982E+01  7.59869910E+00  7.59869910E+00 -1.51973982E+01  7.59869910E+00
  7.59869910E+00 -1.51973982E+01  7.59869910E+00  7.59869910E+00 -1.51973982E+01
  7.59869910E+00  7.59869910E+00 -1.51973982E+01  7.59869910E+00  7.59869910E+00
 -1.51973982E+01  7.59869910E+00  7.59869910E+00 -1.51973982E+01  7.59869910E+00
  7.59869910E+00 -1.51973982E+01  7.59869910E+00  7.59869910E+00 -1.51973982E+01
  7.59869910E+00  7.59869910E+00 -1.51973982E+01  7.59869910E+00  7.59869910E+00
 -1.51973982E+01  7.59869910E+00  7.59869910E+00 -1.51973982E+01  7.59869910E+00
  7.59869910E+00 -1.51973982E+01  7.59869910E+00  7.59869910E+00 -1.51973982E+01
  7.59869910E+00  7.59869910E+00 -1.51973982E+01  7.59869910E+00  7.59869910E+00
 -1.51973982E+01  7.59869910E+00  7.59869910E+00 -1.51973982E+01  7.59869910E+00
  7.59869910E+00 -1.51973982E+01  7.59869910E+00  7.59869910E+00 -1.51973982E+01
  7.59869910E+00  7.59869910E+00 -1.51973982E+01  7.59869910E+00  7.59869910E+00
 -1.51973982E+01  7.59869910E+00  7.59869910E+00 -1.51973982E+01  7.59869910E+00
  7.59869910E+00 -1.51973982E+01  7.59869910E+00  7.59869910E+00 -1.51973982E+01
  7.59869910E+00  7.59869910E+00 -1.51973982E+01  7.59869910E+00  7.59869910E+00
 -1.51973982E+01  7.59869910E+00  7.59869910E+00 -1.51973982E+01  7.59869910E+00
  7.59869910E+00 -1.51973982E+01  7.59869910E+00  7.59869910E+00 -1.51973982E+01
  7.59869910E+00  7.59869910E+00 -1.51973982E+01  7.59869910E+00  7.59869910E+00
 -1.51973982E+01  7.59869910E+00  7.59869910E+00 -1.51973982E+01  7.59869910E+00
  7.59869910E+00 -1.51973982E+01  7.59869910E+00  7.59869910E+00 -1.51973982E+01
  7.59869910E+00  7.59869910E+00 -1.51973982E+01  7.59869910E+00  7.59869910E+00
 -1.51973982E+01  7.59869910E+00  7.59869910E+00 -1.51973982E+01  7.59869910E+00
  7.59869910E+00 -1.51973982E+01  7.59869910E+00  7.59869910E+00 -1.51973982E+01
  7.59869910E+00  7.59869910E+00 -1.51973982E+01  7.59869910E+00  7.59869910E+00
 -1.51973982E+01  7.59869910E+00  7.59869910E+00 -1.51973982E+01  7.59869910E+00
  7.59869910E+00 -1.51973982E+01  7.59869910E+00  7.59869910E+00 -1.51973982E+01
  7.59869910E+00  7.59869910E+00 -1.51973982E+01  7.59869910E+00  7.59869910E+00
 -1.51973982E+01  7.59869910E+00  7.59869910E+00 -1.51973982E+01  7.59869910E+00
  7.59869910E+00 -1.51973982E+01  7.59869910E+00  7.59869910E+00 -1.51973982E+01
  7.59869910E+00  7.59869910E+00 -1.51973982E+01  7.59869910E+00  7.59869910E+00
 -1.51973982E+01  7.59869910E+00  7.59869910E+00 -1.51973982E+01  7.59869910E+00
  7.59869910E+00 -1.51973982E+01  7.59869910E+00  7.59869910E+00 -1.51973982E+01
  7.59869910E+00  7.59869910E+00 -1.51973982E+01  7.59869910E+00  7.59869910E+00
 -1.51973982E+01  7.59869910E+00  7.59869910E+00 -1.51973982E+01  7.59869910E+00
  7.59869910E+00 -1.51973982E+01  7.59869910E+00  7.59869910E+00 -1.51973982E+01
  7.59869910E+00  7.59869910E+00 -1.51973982E+01  7.59869910E+00  7.59869910E+00
 -1.51973982E+01  7.59869910E+00  7.59869910E+00 -1.51973982E+01  7.59869910E+00
  7.59869910E+00 -1.51973982E+01  7.59869910E+00  7.59869910E+00 -1.51973982E+01
  7.59869910E+00  7.59869910E+00 -1.51973982E+01  7.59869910E+00  7.59869910E+00
 -1.51973982E+01  7.59869910E+00  7.59869910E+00 -1.51973982E+01  7.59869910E+00
  7.59869910E+00 -1.51973982E+01  7.59869910E+00  7.59869910E+00 -1.51973982E+01
  7.59869910E+00  7.59869910E+00 -1.51973982E+01  7.59869910E+00  7.59869910E+00
 -1.51973982E+01  7.59869910E+00  7.59869910E+00 -1.51973982E+01  7.59869910E+00
  7.59869910E+00 -1.51973982E+01  7.59869910E+00  7.59869910E+00 -1.51973982E+01
  7.59869910E+00  7.59869910E+00 -1.51973982E+01  7.59869910E+00  7.59869910E+00
 -1.51973982E+01  7.59869910E+00  7.59869910E+00 -1.51973982E+01  7.59869910E+00
  7.59869910E+00 -1.51973982E+01  7.59869910E+00  7.59869910E+00 -1.51973982E+01
  7.59869910E+00  7.59869910E+00 -1.51973982E+01  7.59869910E+00  7.59869910E+00
 -1.51973982E+01  7.59869910E+00  7.59869910E+00 -1.51973982E+01  7.59869910E+00
  7.59869910E+00 -1.51973982E+01  7.59869910E+00  7.59869910E+00 -1.51973982E+01
  7.59869910E+00  7.59869910E+00 -1.51973982E+01  7.59869910E+00  7.59869910E+00
 -1.51973982E+01  7.59869910E+00  7.59869910E+00 -1.51973982E+01  7.59869910E+00
  7.59869910E+00 -1.51973982E+01  7.59869910E+00  7.59869910E+00 -1.51973982E+01
  7.59869910E+00  7.59869910E+00 -1.51973982E+01  7.59869910E+00  7.59869910E+00
 -1.51973982E+01  7.59869910E+00  7.59869910E+00 -1.51973982E+01  7.59869910E+00
  7.59869910E+00 -1.51973982E+01  7.59869910E+00  7.59869910E+00 -1.51973982E+01
  7.59869910E+00  7.59869910E+00 -1.51973982E+01  7.59869910E+00  7.59869910E+00
 -1.51973982E+01  7.59869910E+00  7.59869910E+00 -1.51973982E+01  7.59869910E+00
  7.59869910E+00 -1.51973982E+01  7.59869910E+00  7.59869910E+00 -1.51973982E+01
  7.59869910E+00  7.59869910E+00 -1.51973982E+01  7.59869910E+00  7.59869910E+00
 -1.51973982E+01  7.59869910E+00  7.59869910E+00 -1.51973982E+01  7.59869910E+00
  7.59869910E+00 -1.51973982E+01  7.59869910E+00  7.59869910E+00 -1.51973982E+01
  7.59869910E+00  7.59869910E+00 -1.51973982E+01  7.59869910E+00  7.59869910E+00
 -1.51973982E+01  7.59869910E+00  7.59869910E+00 -1.51973982E+01  7.59869910E+00
  7.59869910E+00 -1.51973982E+01  7.59869910E+00  7.59869910E+00 -1.51973982E+01
  7.59869910E+00  7.59869910E+00 -1.51973982E+01  7.59869910E+00  7.59869910E+00
 -1.51973982E+01  7.59869910E+00  7.59869910E+00 -1.51973982E+01  7.59869910E+00
  7.59869910E+00 -1.51973982E+01  7.59869910E+00  7.59869910E+00 -1.51973982E+01
  7.59869910E+00  7.59869910E+00 -1.51973982E+01  7.59869910E+00  7.59869910E+00
 -1.51973982E+01  7.59869910E+00  7.59869910E+00 -1.51973982E+01  7.59869910E+00
  7.59869910E+00 -1.51973982E+01  7.59869910E+00  7.59869910E+00 -1.51973982E+01
  7.59869910E+00  7.59869910E+00 -1.51973982E+01  7.59869910E+00  7.59869910E+00
 -1.51973982E+01  7.59869910E+00  7.59869910E+00 -1.51973982E+01  7.59869910E+00
  7.59869910E+00 -1.51973982E+01  7.59869910E+00  7.59869910E+00 -1.51973982E+01
  7.59869910E+00  7.59869910E+00 -1.51973982E+01  7.59869910E+00  7.59869910E+00
 -1.51973982E+01  7.59869910E+00  7.59869910E+00 -1.51973982E+01  7.59869910E+00
  7.59869910E+00 -1.51973982E+01  7.59869910E+00  7.59869910E+00 -1.51973982E+01
  7.59869910E+00  7.59869910E+00 -1.51973982E+01  7.59869910E+00  7.59869910E+00
 -1.51973982E+01  7.59869910E+00  7.59869910E+00 -1.51973982E+01  7.59869910E+00
  7.59869910E+00 -1.51973982E+01  7.59869910E+00  7.59869910E+00 -1.51973982E+01
  7.59869910E+00  7.59869910E+00 -1.51973982E+01  7.59869910E+00  7.59869910E+00
 -1.51973982E+01  7.59869910E+00  7.59869910E+00 -1.51973982E+01  7.59869910E+00
  7.59869910E+00 -1.51973982E+01  7.59869910E+00  7.59869910E+00 -1.51973982E+01
  7.59869910E+00  7.59869910E+00 -1.51973982E+01  7.59869910E+00  7.59869910E+00
 -1.51973982E+01  7.59869910E+00  7.59869910E+00 -1.51973982E+01  7.59869910E+00
  7.59869910E+00 -1.51973982E+01  7.59869910E+00  7.59869910E+00 -1.51973982E+01
  7.59869910E+00  7.59869910E+00 -1.51973982E+01  7.59869910E+00  7.59869910E+00
 -1.51973982E+01  7.59869910E+00  7.59869910E+00 -1.51973982E+01  7.59869910E+00
  7.59869910E+00 -1.51973982E+01  7.59869910E+00  7.59869910E+00 -1.51973982E+01
  7.59869910E+00  7.59869910E+00 -1.51973982E+01  7.59869910E+00  7.59869910E+00
 -1.51973982E+01  7.59869910E+00  7.59869910E+00 -1.51973982E+01  7.59869910E+00
  7.59869910E+00 -1.51973982E+01  7.59869910E+00  7.59869910E+00 -1.51973982E+01
  7.59869910E+00  7.59869910E+00 -1.51973982E+01  7.59869910E+00  7.59869910E+00
 -1.51973982E+01  7.59869910E+00  7.59869910E+00 -1.51973982E+01  7.59869910E+00
  7.59869910E+00 -1.51973982E+01  7.59869910E+00  7.59869910E+00 -1.51973982E+01
  7.59869910E+00  7.59869910E+00 -1.51973982E+01  7.59869910E+00  7.59869910E+00
 -1.51973982E+01  7.59869910E+00  7.59869910E+00 -1.51973982E+01  7.59869910E+00
  7.59869910E+00 -1.51973982E+01  7.59869910E+00  7.59869910E+00 -1.51973982E+01
  7.59869910E+00  7.59869910E+00 -1.51973982E+01  7.59869910E+00  7.59869910E+00
 -1.51973982E+01  7.59869910E+00  7.59869910E+00 -1.51973982E+01  7.59869910E+00
  7.59869910E+00 -1.51973982E+01  7.59869910E+00  7.59869910E+00 -1.51973982E+01
  7.59869910E+00  7.59869910E+00 -1.51973982E+01  7.59869910E+00  7.59869910E+00
 -1.51973982E+01  7.59869910E+00  7.59869910E+00 -1.51973982E+01  7.59869910E+00
  7.59869910E+00 -1.51973982E+01  7.59869910E+00  7.59869910E+00 -1.51973982E+01
  7.59869910E+00  7.59869910E+00 -1.51973982E+01  7.59869910E+00  7.59869910E+00
 -1.51973982E+01  7.59869910E+00  7.59869910E+00 -1.51973982E+01  7.59869910E+00
  7.59869910E+00 -1.51973982E+01  7.59869910E+00  7.59869910E+00 -1.51973982E+01
  7.59869910E+00  7.59869910E+00 -1.51973982E+01  7.59869910E+00  7.59869910E+00
 -1.51973982E+01  7.59869910E+00  7.59869910E+00 -1.51973982E+01  7.59869910E+00
  7.59869910E+00 -1.51973982E+01  7.59869910E+00  7.59869910E+00 -1.51973982E+01
  7.59869910E+00  7.59869910E+00 -1.51973982E+01  7.59869910E+00  7.59869910E+00
 -1.51973982E+01  7.59869910E+00  7.59869910E+00 -1.51973982E+01  7.59869910E+00
  7.59869910E+00 -1.51973982E+01  7.59869910E+00  7.59869910E+00 -1.51973982E+01
  7.59869910E+00  7.59869910E+00 -1.51973982E+01  7.59869910E+00  7.59869910E+00
 -1.51973982E+01  7.59869910E+00  7.59869910E+00 -1.51973982E+01  7.59869910E+00
  7.59869910E+00 -1.51973982E+01  7.59869910E+00  7.59869910E+00 -1.51973982E+01
  7.59869910E+00  7.59869910E+00 -1.51973982E+01  7.59869910E+00  7.59869910E+00
 -1.51973982E+01  7.59869910E+00  7.59869910E+00 -1.51973982E+01  7.59869910E+00
  7.59869910E+00 -1.51973982E+01  7.59869910E+00  7.59869910E+00 -1.51973982E+01
  7.59869910E+00  7.59869910E+00 -1.51973982E+01  7.59869910E+00  7.59869910E+00
 -1.51973982E+01  7.59869910E+00  7.59869910E+00 -1.51973982E+01  7.59869910E+00
  7.59869910E+00 -1.51973982E+01  7.59869910E+00  7.59869910E+00 -1.51973982E+01
  7.59869910E+00  7.59869910E+00 -1.51973982E+01  7.59869910E+00  7.59869910E+00
 -1.51973982E+01  7.59869910E+00  7.59869910E+00 -1.51973982E+01  7.59869910E+00
  7.59869910E+00 -1.51973982E+01  7.59869910E+00  7.59869910E+00 -1.51973982E+01
  7.59869910E+00  7.59869910E+00 -1.51973982E+01  7.59869910E+00  7.59869910E+00
 -1.51973982E+01  7.59869910E+00  7.59869910E+00 -1.51973982E+01  7.59869910E+00
  7.59869910E+00 -1.51973982E+01  7.59869910E+00  7.59869910E+00 -1.51973982E+01
  7.59869910E+00  7.59869910E+00 -1.51973982E+01  7.59869910E+00  7.59869910E+00
 -1.51973982E+01  7.59869910E+00  7.59869910E+00 -1.51973982E+01  7.59869910E+00
  7.59869910E+00 -1.51973982E+01  7.59869910E+00  7.59869910E+00 -1.51973982E+01
  7.59869910E+00  7.59869910E+00 -1.51973982E+01  7.59869910E+00  7.59869910E+00
 -1.51973982E+01  7.59869910E+00  7.59869910E+00 -1.51973982E+01  7.59869910E+00
  7.59869910E+00 -1.51973982E+01  7.59869910E+00  7.59869910E+00 -1.51973982E+01
  7.59869910E+00  7.59869910E+00 -1.51973982E+01  7.59869910E+00  7.59869910E+00
 -1.51973982E+01  7.59869910E+00  7.59869910E+00 -1.51973982E+01  7.59869910E+00
  7.59869910E+00 -1.51973982E+01  7.59869910E+00  7.59869910E+00 -1.51973982E+01
  7.59869910E+00  7.59869910E+00 -1.51973982E+01  7.59869910E+00  7.59869910E+00
 -1.51973982E+01  7.59869910E+00  7.59869910E+00 -1.51973982E+01  7.59869910E+00
  7.59869910E+00 -1.51973982E+01  7.59869910E+00  7.59869910E+00 -1.51973982E+01
  7.59869910E+00  7.59869910E+00 -1.51973982E+01  7.59869910E+00  7.59869910E+00
 -1.51973982E+01  7.59869910E+00  7.59869910E+00 -1.51973982E+01  7.59869910E+00
  7.59869910E+00 -1.51973982E+01  7.59869910E+00  7.59869910E+00 -1.51973982E+01
  7.59869910E+00  7.59869910E+00 -1.51973982E+01  7.59869910E+00  7.59869910E+00
 -1.51973982E+01  7.59869910E+00  7.59869910E+00 -1.51973982E+01  7.59869910E+00
  7.59869910E+00 -1.51973982E+01  7.59869910E+00  7.59869910E+00 -1.51973982E+01
  7.59869910E+00  7.59869910E+00 -1.51973982E+01  7.59869910E+00  7.59869910E+00
 -1.51973982E+01  7.59869910E+00  7.59869910E+00 -1.51973982E+01  7.59869910E+00
  7.59869910E+00 -1.51973982E+01  7.59869910E+00  7.59869910E+00 -1.51973982E+01
  7.59869910E+00  7.59869910E+00 -1.51973982E+01  7.59869910E+00  7.59869910E+00
 -1.51973982E+01  7.59869910E+00  7.59869910E+00 -1.51973982E+01  7.59869910E+00
  7.59869910E+00 -1.51973982E+01  7.59869910E+00  7.59869910E+00 -1.51973982E+01
  7.59869910E+00  7.59869910E+00 -1.51973982E+01  7.59869910E+00  7.59869910E+00
 -1.51973982E+01  7.59869910E+00  7.59869910E+00 -1.51973982E+01  7.59869910E+00
  7.59869910E+00 -1.51973982E+01  7.59869910E+00  7.59869910E+00 -1.51973982E+01
  7.59869910E+00  7.59869910E+00 -1.51973982E+01  7.59869910E+00  7.59869910E+00
 -1.51973982E+01  7.59869910E+00  7.59869910E+00 -1.51973982E+01  7.59869910E+00
  7.59869910E+00 -1.51973982E+01  7.59869910E+00  7.59869910E+00 -1.51973982E+01
  7.59869910E+00  7.59869910E+00 -1.51973982E+01  7.59869910E+00  7.59869910E+00
 -1.51973982E+01  7.59869910E+00  7.59869910E+00 -1.51973982E+01  7.59869910E+00
  7.59869910E+00 -1.51973982E+01  7.59869910E+00  7.59869910E+00 -1.51973982E+01
  7.59869910E+00  7.59869910E+00 -1.51973982E+01  7.59869910E+00  7.59869910E+00
 -1.51973982E+01  7.59869910E+00  7.59869910E+00 -1.51973982E+01  7.59869910E+00
  7.59869910E+00 -1.51973982E+01  7.59869910E+00  7.59869910E+00 -1.51973982E+01
  7.59869910E+00  7.59869910E+00 -1.51973982E+01  7.59869910E+00  7.59869910E+00
 -1.51973982E+01  7.59869910E+00  7.59869910E+00 -1.51973982E+01  7.59869910E+00
  7.59869910E+00 -1.51973982E+01  7.59869910E+00  7.59869910E+00 -1.51973982E+01
  7.59869910E+00  7.59869910E+00 -1.51973982E+01  7.59869910E+00  7.59869910E+00
 -1.51973982E+01  7.59869910E+00  7.59869910E+00 -1.51973982E+01  7.59869910E+00
  7.59869910E+00 -1.51973982E+01  7.59869910E+00  7.59869910E+00 -1.51973982E+01
  7.59869910E+00  7.59869910E+00 -1.51973982E+01  7.59869910E+00  7.59869910E+00
 -1.51973982E+01  7.59869910E+00  7.59869910E+00 -1.51973982E+01  7.59869910E+00
  7.59869910E+00 -1.51973982E+01  7.59869910E+00  7.59869910E+00 -1.51973982E+01
  7.59869910E+00  7.59869910E+00 -1.51973982E+01  7.59869910E+00  7.59869910E+00
 -1.51973982E+01  7.59869910E+00  7.59869910E+00 -1.51973982E+01  7.59869910E+00
  7.59869910E+00 -1.51973982E+01  7.59869910E+00  7.59869910E+00 -1.51973982E+01
  7.59869910E+00  7.59869910E+00 -1.51973982E+01  7.59869910E+00  7.59869910E+00
 -1.51973982E+01  7.59869910E+00  7.59869910E+00 -1.51973982E+01  7.59869910E+00
  7.59869910E+00 -1.51973982E+01  7.59869910E+00  7.59869910E+00 -1.51973982E+01
  7.59869910E+00  7.59869910E+00 -1.51973982E+01  7.59869910E+00  7.59869910E+00
 -1.51973982E+01  7.59869910E+00  7.59869910E+00 -1.51973982E+01  7.59869910E+00
  7.59869910E+00 -1.51973982E+01  7.59869910E+00  7.59869910E+00 -1.51973982E+01
  7.59869910E+00  7.59869910E+00 -1.51973982E+01  7.59869910E+00  7.59869910E+00
 -1.51973982E+01  7.59869910E+00  7.59869910E+00 -1.51973982E+01  7.59869910E+00
  7.59869910E+00 -1.51973982E+01  7.59869910E+00  7.59869910E+00 -1.51973982E+01
  7.59869910E+00  7.59869910E+00 -1.51973982E+01  7.59869910E+00  7.59869910E+00
 -1.51973982E+01  7.59869910E+00  7.59869910E+00 -1.51973982E+01  7.59869910E+00
  7.59869910E+00 -1.51973982E+01  7.59869910E+00  7.59869910E+00 -1.51973982E+01
  7.59869910E+00  7.59869910E+00 -1.51973982E+01  7.59869910E+00  7.59869910E+00
 -1.51973982E+01  7.59869910E+00  7.59869910E+00 -1.51973982E+01  7.59869910E+00
  7.59869910E+00 -1.51973982E+01  7.59869910E+00  7.59869910E+00 -1.51973982E+01
  7.59869910E+00  7.59869910E+00 -1.51973982E+01  7.59869910E+00  7.59869910E+00
 -1.51973982E+01  7.59869910E+00  7.59869910E+00 -1.51973982E+01  7.59869910E+00
  7.59869910E+00 -1.51973982E+01  7.59869910E+00  7.59869910E+00 -1.51973982E+01
  7.59869910E+00  7.59869910E+00 -1.51973982E+01  7.59869910E+00  7.59869910E+00
 -1.51973982E+01  7.59869910E+00  7.59869910E+00 -1.51973982E+01  7.59869910E+00
  7.59869910E+00 -1.51973982E+01  7.59869910E+00  7.59869910E+00 -1.51973982E+01
  7.59869910E+00  7.59869910E+00 -1.51973982E+01  7.59869910E+00  7.59869910E+00
 -1.51973982E+01  7.59869910E+00  7.59869910E+00 -1.51973982E+01  7.59869910E+00
  7.59869910E+00 -1.51973982E+01  7.59869910E+00  7.59869910E+00 -1.51973982E+01
  7.59869910E+00  7.59869910E+00 -1.51973982E+01  7.59869910E+00  7.59869910E+00
 -1.51973982E+01  7.59869910E+00  7.59869910E+00 -1.51973982E+01  7.59869910E+00
  7.59869910E+00 -1.51973982E+01  7.59869910E+00  7.59869910E+00 -1.51973982E+01
  7.59869910E+00  7.59869910E+00 -1.51973982E+01  7.59869910E+00  7.59869910E+00
 -1.51973982E+01  7.59869910E+00  7.59869910E+00 -1.51973982E+01  7.59869910E+00
  7.59869910E+00 -1.51973982E+01  7.59869910E+00  7.59869910E+00 -1.51973982E+01
  7.59869910E+00  7.59869910E+00 -1.51973982E+01  7.59869910E+00  7.59869910E+00
 -1.51973982E+01  7.59869910E+00  7.59869910E+00 -1.51973982E+01  7.59869910E+00
  7.59869910E+00 -1.51973982E+01  7.59869910E+00  7.59869910E+00 -1.51973982E+01
  7.59869910E+00  7.59869910E+00 -1.51973982E+01  7.59869910E+00  7.59869910E+00
 -1.51973982E+01  7.59869910E+00  7.59869910E+00 -1.51973982E+01  7.59869910E+00
  7.59869910E+00 -1.51973982E+01  7.59869910E+00  7.59869910E+00 -1.51973982E+01
  7.59869910E+00  7.59869910E+00 -1.51973982E+01  7.59869910E+00  7.59869910E+00
 -1.51973982E+01  7.59869910E+00  7.59869910E+00 -1.51973982E+01  7.59869910E+00
  7.59869910E+00 -1.51973982E+01  7.59869910E+00  7.59869910E+00 -1.51973982E+01
  7.59869910E+00  7.59869910E+00 -1.51973982E+01  7.59869910E+00  7.59869910E+00
 -1.51973982E+01  7.59869910E+00  7.59869910E+00 -1.51973982E+01  7.59869910E+00
  7.59869910E+00 -1.51973982E+01  7.59869910E+00  7.59869910E+00 -1.51973982E+01
  7.59869910E+00  7.59869910E+00 -1.51973982E+01  7.59869910E+00  7.59869910E+00
 -1.51973982E+01  7.59869910E+00  7.59869910E+00 -1.51973982E+01  7.59869910E+00
  7.59869910E+00 -1.51973982E+01  7.59869910E+00  7.59869910E+00 -1.51973982E+01
  7.59869910E+00  7.59869910E+00 -1.51973982E+01  7.59869910E+00  7.59869910E+00
 -1.51973982E+01  7.59869910E+00  7.59869910E+00 -1.51973982E+01  7.59869910E+00
  7.59869910E+00 -1.51973982E+01  7.59869910E+00  7.59869910E+00 -1.51973982E+01
  7.59869910E+00  7.59869910E+00 -1.51973982E+01  7.59869910E+00  7.59869910E+00
 -1.51973982E+01  7.59869910E+00  7.59869910E+00 -1.51973982E+01  7.59869910E+00
  7.59869910E+00 -1.51973982E+01  7.59869910E+00  7.59869910E+00 -1.51973982E+01
  7.59869910E+00  7.59869910E+00 -1.51973982E+01  7.59869910E+00  7.59869910E+00
 -1.51973982E+01  7.59869910E+00  7.59869910E+00 -1.51973982E+01  7.59869910E+00
  7.59869910E+00 -1.51973982E+01  7.59869910E+00  7.59869910E+00 -1.51973982E+01
  7.59869910E+00  7.59869910E+00 -1.51973982E+01  7.59869910E+00  7.59869910E+00
 -1.51973982E+01  7.59869910E+00  7.59869910E+00 -1.51973982E+01  7.59869910E+00
  7.59869910E+00 -1.51973982E+01  7.59869910E+00  7.59869910E+00 -1.51973982E+01
  7.59869910E+00  7.59869910E+00 -1.51973982E+01  7.59869910E+00  7.59869910E+00
 -1.51973982E+01  7.59869910E+00  7.59869910E+00 -1.51973982E+01  7.59869910E+00
  7.59869910E+00 -1.51973982E+01  7.59869910E+00  7.59869910E+00 -1.51973982E+01
  7.59869910E+00  7.59869910E+00 -1.51973982E+01  7.59869910E+00  7.59869910E+00
 -1.51973982E+01  7.59869910E+00  7.59869910E+00 -1.51973982E+01  7.59869910E+00
  7.59869910E+00 -1.51973982E+01  7.59869910E+00  7.59869910E+00 -1.51973982E+01
  7.59869910E+00  7.59869910E+00 -1.51973982E+01  7.59869910E+00  7.59869910E+00
 -1.51973982E+01  7.59869910E+00  7.59869910E+00 -1.51973982E+01  7.59869910E+00
  7.59869910E+00 -1.51973982E+01  7.59869910E+00  7.59869910E+00 -1.51973982E+01
  7.59869910E+00  7.59869910E+00 -1.51973982E+01  7.59869910E+00  7.59869910E+00
 -1.51973982E+01  7.59869910E+00  7.59869910E+00 -1.51973982E+01  7.59869910E+00
  7.59869910E+00 -1.51973982E+01  7.59869910E+00  7.59869910E+00 -1.51973982E+01
  7.59869910E+00  7.59869910E+00 -1.51973982E+01  7.59869910E+00  7.59869910E+00
 -1.51973982E+01  7.59869910E+00  7.59869910E+00 -1.51973982E+01  7.59869910E+00
  7.59869910E+00 -1.51973982E+01  7.59869910E+00  7.59869910E+00 -1.51973982E+01
  7.59869910E+00  7.59869910E+00 -1.51973982E+01  7.59869910E+00  7.59869910E+00
 -1.51973982E+01  7.59869910E+00  7.59869910E+00 -1.51973982E+01  7.59869910E+00
  7.59869910E+00 -1.51973982E+01  7.59869910E+00  7.59869910E+00 -1.51973982E+01
  7.59869910E+00  7.59869910E+00 -1.51973982E+01  7.59869910E+00  7.59869910E+00
 -1.51973982E+01  7.59869910E+00  7.59869910E+00 -1.51973982E+01  7.59869910E+00
  7.59869910E+00 -1.51973982E+01  7.59869910E+00  7.59869910E+00 -1.51973982E+01
  7.59869910E+00  7.59869910E+00 -1.51973982E+01  7.59869910E+00  7.59869910E+00
 -1.51973982E+01  7.59869910E+00  7.59869910E+00 -1.51973982E+01  7.59869910E+00
  7.59869910E+00 -1.51973982E+01  7.59869910E+00  7.59869910E+00 -1.51973982E+01
  7.59869910E+00  7.59869910E+00 -1.51973982E+01  7.59869910E+00  7.59869910E+00
 -1.51973982E+01  7.59869910E+00  7.59869910E+00 -1.51973982E+01  7.59869910E+00
  7.59869910E+00 -1.51973982E+01  7.59869910E+00  7.59869910E+00 -1.51973982E+01
  7.59869910E+00  7.59869910E+00 -1.51973982E+01  7.59869910E+00  7.59869910E+00
 -1.51973982E+01  7.59869910E+00  7.59869910E+00 -1.51973982E+01  7.59869910E+00
  7.59869910E+00 -1.51973982E+01  7.59869910E+00  7.59869910E+00 -1.51973982E+01
  7.59869910E+00  7.59869910E+00 -1.51973982E+01  7.59869910E+00  7.59869910E+00
 -1.51973982E+01  7.59869910E+00  7.59869910E+00 -1.51973982E+01  7.59869910E+00
  7.59869910E+00 -1.51973982E+01  7.59869910E+00  7.59869910E+00 -1.51973982E+01
  7.59869910E+00  7.59869910E+00 -1.51973982E+01  7.59869910E+00  7.59869910E+00
 -1.51973982E+01  7.59869910E+00  7.59869910E+00 -1.51973982E+01  7.59869910E+00
  7.59869910E+00 -1.51973982E+01  7.59869910E+00  7.59869910E+00 -1.51973982E+01
  7.59869910E+00  7.59869910E+00 -1.51973982E+01  7.59869910E+00  7.59869910E+00
 -1.51973982E+01  7.59869910E+00  7.59869910E+00 -1.51973982E+01  7.59869910E+00
  7.59869910E+00 -1.51973982E+01  7.59869910E+00  7.59869910E+00 -1.51973982E+01
  7.59869910E+00  7.59869910E+00 -1.51973982E+01  7.59869910E+00  7.59869910E+00
 -1.51973982E+01  7.59869910E+00  7.59869910E+00 -1.51973982E+01  7.59869910E+00
  7.59869910E+00 -1.51973982E+01  7.59869910E+00  7.59869910E+00 -1.51973982E+01
  7.59869910E+00  7.59869910E+00 -1.51973982E+01  7.59869910E+00  7.59869910E+00
 -1.51973982E+01  7.59869910E+00  7.59869910E+00 -1.51973982E+01  7.59869910E+00
  7.59869910E+00 -1.51973982E+01  7.59869910E+00  7.59869910E+00 -1.51973982E+01
  7.59869910E+00  7.59869910E+00 -1.51973982E+01  7.59869910E+00  7.59869910E+00
 -1.51973982E+01  7.59869910E+00  7.59869910E+00 -1.51973982E+01  7.59869910E+00
  7.59869910E+00 -1.51973982E+01  7.59869910E+00  7.59869910E+00 -1.51973982E+01
  7.59869910E+00  7.59869910E+00 -1.51973982E+01  7.59869910E+00  7.59869910E+00
 -1.51973982E+01  7.59869910E+00  7.59869910E+00 -1.51973982E+01  7.59869910E+00
  7.59869910E+00 -1.51973982E+01  7.59869910E+00  7.59869910E+00 -1.51973982E+01
  7.59869910E+00  7.59869910E+00 -1.51973982E+01  7.59869910E+00  7.59869910E+00
 -1.51973982E+01  7.59869910E+00  7.59869910E+00 -1.51973982E+01  7.59869910E+00
  7.59869910E+00 -1.51973982E+01  7.59869910E+00  7.59869910E+00 -1.51973982E+01
  7.59869910E+00  7.59869910E+00 -1.51973982E+01  7.59869910E+00  7.59869910E+00
 -1.51973982E+01  7.59869910E+00  7.59869910E+00 -1.51973982E+01  7.59869910E+00
  7.59869910E+00 -1.51973982E+01  7.59869910E+00  7.59869910E+00 -1.51973982E+01
  7.59869910E+00  7.59869910E+00 -1.51973982E+01  7.59869910E+00  7.59869910E+00
 -1.51973982E+01  7.59869910E+00  7.59869910E+00 -1.51973982E+01  7.59869910E+00
  7.59869910E+00 -1.51973982E+01  7.59869910E+00  7.59869910E+00 -1.51973982E+01
  7.59869910E+00  7.59869910E+00 -1.51973982E+01  7.59869910E+00  7.59869910E+00
 -1.51973982E+01  7.59869910E+00  7.59869910E+00 -1.51973982E+01  7.59869910E+00
  7.59869910E+00 -1.51973982E+01  7.59869910E+00  7.59869910E+00 -1.51973982E+01
  7.59869910E+00  7.59869910E+00 -1.51973982E+01  7.59869910E+00  7.59869910E+00
 -1.51973982E+01  7.59869910E+00  7.59869910E+00 -1.51973982E+01  7.59869910E+00
  7.59869910E+00 -1.51973982E+01  7.59869910E+00  7.59869910E+00 -1.51973982E+01
  7.59869910E+00  7.59869910E+00 -1.51973982E+01  7.59869910E+00  7.59869910E+00
 -1.51973982E+01  7.59869910E+00  7.59869910E+00 -1.51973982E+01  7.59869910E+00
  7.59869910E+00 -1.51973982E+01  7.59869910E+00  7.59869910E+00 -1.51973982E+01
  7.59869910E+00  7.59869910E+00 -1.51973982E+01  7.59869910E+00  7.59869910E+00
 -1.51973982E+01  7.59869910E+00  7.59869910E+00 -1.51973982E+01  7.59869910E+00
  7.59869910E+00 -1.51973982E+01  7.59869910E+00  7.59869910E+00 -1.51973982E+01
  7.59869910E+00  7.59869910E+00 -1.51973982E+01  7.59869910E+00  7.59869910E+00
 -1.51973982E+01  7.59869910E+00  7.59869910E+00 -1.51973982E+01  7.59869910E+00
  7.59869910E+00 -1.51973982E+01  7.59869910E+00  7.59869910E+00 -1.51973982E+01
  7.59869910E+00  7.59869910E+00 -1.51973982E+01  7.59869910E+00  7.59869910E+00
 -1.51973982E+01  7.59869910E+00  7.59869910E+00 -1.51973982E+01  7.59869910E+00
  7.59869910E+00 -1.51973982E+01  7.59869910E+00  7.59869910E+00 -1.51973982E+01
  7.59869910E+00  7.59869910E+00 -1.51973982E+01  7.59869910E+00  7.59869910E+00
 -1.51973982E+01  7.59869910E+00  7.59869910E+00 -1.51973982E+01  7.59869910E+00
  7.59869910E+00 -1.51973982E+01  7.59869910E+00  7.59869910E+00 -1.51973982E+01
  7.59869910E+00  7.59869910E+00 -1.51973982E+01  7.59869910E+00  7.59869910E+00
 -1.51973982E+01  7.59869910E+00  7.59869910E+00 -1.51973982E+01  7.59869910E+00
  7.59869910E+00 -1.51973982E+01  7.59869910E+00  7.59869910E+00 -1.51973982E+01
  7.59869910E+00  7.59869910E+00 -1.51973982E+01  7.59869910E+00  7.59869910E+00
 -1.51973982E+01  7.59869910E+00  7.59869910E+00 -1.51973982E+01  7.59869910E+00
  7.59869910E+00 -1.51973982E+01  7.59869910E+00  7.59869910E+00 -1.51973982E+01
  7.59869910E+00  7.59869910E+00 -1.51973982E+01  7.59869910E+00  7.59869910E+00
 -1.51973982E+01  7.59869910E+00  7.59869910E+00 -1.51973982E+01  7.59869910E+00
  7.59869910E+00 -1.51973982E+01  7.59869910E+00  7.59869910E+00 -1.51973982E+01
  7.59869910E+00  7.59869910E+00 -1.51973982E+01  7.59869910E+00  7.59869910E+00
 -1.51973982E+01  7.59869910E+00  7.59869910E+00 -1.51973982E+01  7.59869910E+00
  7.59869910E+00 -1.51973982E+01  7.59869910E+00  7.59869910E+00 -1.51973982E+01
  7.59869910E+00  7.59869910E+00 -1.51973982E+01  7.59869910E+00  7.59869910E+00
 -1.51973982E+01  7.59869910E+00  7.59869910E+00 -1.51973982E+01  7.59869910E+00
  7.59869910E+00 -1.51973982E+01  7.59869910E+00  7.59869910E+00 -1.51973982E+01
  7.59869910E+00  7.59869910E+00 -1.51973982E+01  7.59869910E+00  7.59869910E+00
 -1.51973982E+01  7.59869910E+00  7.59869910E+00 -1.51973982E+01  7.59869910E+00
  7.59869910E+00 -1.51973982E+01  7.59869910E+00  7.59869910E+00 -1.51973982E+01
  7.59869910E+00  7.59869910E+00 -1.51973982E+01  7.59869910E+00  7.59869910E+00
 -1.51973982E+01  7.59869910E+00  7.59869910E+00 -1.51973982E+01  7.59869910E+00
  7.59869910E+00 -1.51973982E+01  7.59869910E+00  7.59869910E+00 -1.51973982E+01
  7.59869910E+00  7.59869910E+00 -1.51973982E+01  7.59869910E+00  7.59869910E+00
 -1.51973982E+01  7.59869910E+00  7.59869910E+00 -1.51973982E+01  7.59869910E+00
  7.59869910E+00 -1.51973982E+01  7.59869910E+00  7.59869910E+00 -1.51973982E+01
  7.59869910E+00  7.59869910E+00 -1.51973982E+01  7.59869910E+00  7.59869910E+00
 -1.51973982E+01  7.59869910E+00  7.59869910E+00 -1.51973982E+01  7.59869910E+00
  7.59869910E+00 -1.51973982E+01  7.59869910E+00  7.59869910E+00 -1.51973982E+01
  7.59869910E+00  7.59869910E+00 -1.51973982E+01  7.59869910E+00  7.59869910E+00
 -1.51973982E+01  7.59869910E+00  7.59869910E+00 -1.51973982E+01  7.59869910E+00
  7.59869910E+00 -1.51973982E+01  7.59869910E+00  7.59869910E+00 -1.51973982E+01
  7.59869910E+00  7.59869910E+00 -1.51973982E+01  7.59869910E+00  7.59869910E+00
 -1.51973982E+01  7.59869910E+00  7.59869910E+00 -1.51973982E+01  7.59869910E+00
  7.59869910E+00 -1.51973982E+01  7.59869910E+00  7.59869910E+00 -1.51973982E+01
  7.59869910E+00  7.59869910E+00 -1.51973982E+01  7.59869910E+00  7.59869910E+00
 -1.51973982E+01  7.59869910E+00  7.59869910E+00 -1.51973982E+01  7.59869910E+00
  7.59869910E+00 -1.51973982E+01  7.59869910E+00  7.59869910E+00 -1.51973982E+01
  7.59869910E+00  7.59869910E+00 -1.51973982E+01  7.59869910E+00  7.59869910E+00
 -1.51973982E+01  7.59869910E+00  7.59869910E+00 -1.51973982E+01  7.59869910E+00
  7.59869910E+00 -1.51973982E+01  7.59869910E+00  7.59869910E+00 -1.51973982E+01
  7.59869910E+00  7.59869910E+00 -1.51973982E+01  7.59869910E+00  7.59869910E+00
 -1.51973982E+01  7.59869910E+00  7.59869910E+00 -1.51973982E+01  7.59869910E+00
  7.59869910E+00 -1.51973982E+01  7.59869910E+00  7.59869910E+00 -1.51973982E+01
  7.59869910E+00  7.59869910E+00 -1.51973982E+01  7.59869910E+00  7.59869910E+00
 -1.51973982E+01  7.59869910E+00  7.59869910E+00 -1.51973982E+01  7.59869910E+00
  7.59869910E+00 -1.51973982E+01  7.59869910E+00  7.59869910E+00 -1.51973982E+01
  7.59869910E+00  7.59869910E+00 -1.51973982E+01  7.59869910E+00  7.59869910E+00
 -1.51973982E+01  7.59869910E+00  7.59869910E+00 -1.51973982E+01  7.59869910E+00
  7.59869910E+00 -1.51973982E+01  7.59869910E+00  7.59869910E+00 -1.51973982E+01
  7.59869910E+00  7.59869910E+00 -1.51973982E+01  7.59869910E+00  7.59869910E+00
 -1.51973982E+01  7.59869910E+00  7.59869910E+00 -1.51973982E+01  7.59869910E+00
  7.59869910E+00 -1.51973982E+01  7.59869910E+00  7.59869910E+00 -1.51973982E+01
  7.59869910E+00  7.59869910E+00 -1.51973982E+01  7.59869910E+00  7.59869910E+00
 -1.51973982E+01  7.59869910E+00  7.59869910E+00 -1.51973982E+01  7.59869910E+00
  7.59869910E+00 -1.51973982E+01  7.59869910E+00  7.59869910E+00 -1.51973982E+01
  7.59869910E+00  7.59869910E+00 -1.51973982E+01  7.59869910E+00  7.59869910E+00
 -1.51973982E+01  7.59869910E+00  7.59869910E+00 -1.51973982E+01  7.59869910E+00
  7.59869910E+00 -1.51973982E+01  7.59869910E+00  7.59869910E+00 -1.51973982E+01
  7.59869910E+00  7.59869910E+00 -1.51973982E+01  7.59869910E+00  7.59869910E+00
 -1.51973982E+01  7.59869910E+00  7.59869910E+00 -1.51973982E+01  7.59869910E+00
  7.59869910E+00 -1.51973982E+01  7.59869910E+00  7.59869910E+00 -1.51973982E+01
  7.59869910E+00  7.59869910E+00 -1.51973982E+01  7.59869910E+00  7.59869910E+00
 -1.51973982E+01  7.59869910E+00  7.59869910E+00 -1.51973982E+01  7.59869910E+00
  7.59869910E+00 -1.51973982E+01  7.59869910E+00  7.59869910E+00 -1.51973982E+01
  7.59869910E+00  7.59869910E+00 -1.51973982E+01  7.59869910E+00  7.59869910E+00
 -1.51973982E+01  7.59869910E+00  7.59869910E+00 -1.51973982E+01  7.59869910E+00
  7.59869910E+00 -1.51973982E+01  7.59869910E+00  7.59869910E+00 -1.51973982E+01
  7.59869910E+00  7.59869910E+00 -1.51973982E+01  7.59869910E+00  7.59869910E+00
 -1.51973982E+01  7.59869910E+00  7.59869910E+00 -1.51973982E+01  7.59869910E+00
  7.59869910E+00 -1.51973982E+01  7.59869910E+00  7.59869910E+00 -1.51973982E+01
  7.59869910E+00  7.59869910E+00 -1.51973982E+01  7.59869910E+00  7.59869910E+00
 -1.51973982E+01  7.59869910E+00  7.59869910E+00 -1.51973982E+01  7.59869910E+00
  7.59869910E+00 -1.51973982E+01  7.59869910E+00  7.59869910E+00 -1.51973982E+01
  7.59869910E+00  7.59869910E+00 -1.51973982E+01  7.59869910E+00  7.59869910E+00
 -1.51973982E+01  7.59869910E+00  7.59869910E+00 -1.51973982E+01  7.59869910E+00
  7.59869910E+00 -1.51973982E+01  7.59869910E+00  7.59869910E+00 -1.51973982E+01
  7.59869910E+00  7.59869910E+00 -1.51973982E+01  7.59869910E+00  7.59869910E+00
 -1.51973982E+01  7.59869910E+00  7.59869910E+00 -1.51973982E+01  7.59869910E+00
  7.59869910E+00 -1.51973982E+01  7.59869910E+00  7.59869910E+00 -1.51973982E+01
  7.59869910E+00  7.59869910E+00 -1.51973982E+01  7.59869910E+00  7.59869910E+00
 -1.51973982E+01  7.59869910E+00  7.59869910E+00 -1.51973982E+01  7.59869910E+00
  7.59869910E+00 -1.51973982E+01  7.59869910E+00  7.59869910E+00 -1.51973982E+01
  7.59869910E+00  7.59869910E+00 -1.51973982E+01  7.59869910E+00  7.59869910E+00
 -1.51973982E+01  7.59869910E+00  7.59869910E+00 -1.51973982E+01  7.59869910E+00
  7.59869910E+00 -1.51973982E+01  7.59869910E+00  7.59869910E+00 -1.51973982E+01
  7.59869910E+00  7.59869910E+00 -1.51973982E+01  7.59869910E+00  7.59869910E+00
 -1.51973982E+01  7.59869910E+00  7.59869910E+00 -1.51973982E+01  7.59869910E+00
  7.59869910E+00 -1.51973982E+01  7.59869910E+00  7.59869910E+00 -1.51973982E+01
  7.59869910E+00  7.59869910E+00 -1.51973982E+01  7.59869910E+00  7.59869910E+00
 -1.51973982E+01  7.59869910E+00  7.59869910E+00 -1.51973982E+01  7.59869910E+00
  7.59869910E+00 -1.51973982E+01  7.59869910E+00  7.59869910E+00 -1.51973982E+01
  7.59869910E+00  7.59869910E+00 -1.51973982E+01  7.59869910E+00  7.59869910E+00
 -1.51973982E+01  7.59869910E+00  7.59869910E+00 -1.51973982E+01  7.59869910E+00
  7.59869910E+00 -1.51973982E+01  7.59869910E+00  7.59869910E+00 -1.51973982E+01
  7.59869910E+00  7.59869910E+00 -1.51973982E+01  7.59869910E+00  7.59869910E+00
 -1.51973982E+01  7.59869910E+00  7.59869910E+00 -1.51973982E+01  7.59869910E+00
  7.59869910E+00 -1.51973982E+01  7.59869910E+00  7.59869910E+00 -1.51973982E+01
  7.59869910E+00  7.59869910E+00 -1.51973982E+01  7.59869910E+00  7.59869910E+00
 -1.51973982E+01  7.59869910E+00  7.59869910E+00 -1.51973982E+01  7.59869910E+00
  7.59869910E+00 -1.51973982E+01  7.59869910E+00  7.59869910E+00 -1.51973982E+01
  7.59869910E+00  7.59869910E+00 -1.51973982E+01  7.59869910E+00  7.59869910E+00
 -1.51973982E+01  7.59869910E+00  7.59869910E+00 -1.51973982E+01  7.59869910E+00
  7.59869910E+00 -1.51973982E+01  7.59869910E+00  7.59869910E+00 -1.51973982E+01
  7.59869910E+00  7.59869910E+00 -1.51973982E+01  7.59869910E+00  7.59869910E+00
 -1.51973982E+01  7.59869910E+00  7.59869910E+00 -1.51973982E+01  7.59869910E+00
  7.59869910E+00 -1.51973982E+01  7.59869910E+00  7.59869910E+00 -1.51973982E+01
  7.59869910E+00  7.59869910E+00 -1.51973982E+01  7.59869910E+00  7.59869910E+00
 -1.51973982E+01  7.59869910E+00  7.59869910E+00 -1.51973982E+01  7.59869910E+00
  7.59869910E+00 -1.51973982E+01  7.59869910E+00  7.59869910E+00 -1.51973982E+01
  7.59869910E+00  7.59869910E+00 -1.51973982E+01  7.59869910E+00  7.59869910E+00
 -1.51973982E+01  7.59869910E+00  7.59869910E+00 -1.51973982E+01  7.59869910E+00
  7.59869910E+00 -1.51973982E+01  7.59869910E+00  7.59869910E+00 -1.51973982E+01
  7.59869910E+00  7.59869910E+00 -1.51973982E+01  7.59869910E+00  7.59869910E+00
 -1.51973982E+01  7.59869910E+00  7.59869910E+00 -1.51973982E+01  7.59869910E+00
  7.59869910E+00 -1.51973982E+01  7.59869910E+00  7.59869910E+00 -1.51973982E+01
  7.59869910E+00  7.59869910E+00 -1.51973982E+01  7.59869910E+00  7.59869910E+00
 -1.51973982E+01  7.59869910E+00  7.59869910E+00 -1.51973982E+01  7.59869910E+00
  7.59869910E+00 -1.51973982E+01  7.59869910E+00  7.59869910E+00 -1.51973982E+01
  7.59869910E+00  7.59869910E+00 -1.51973982E+01  7.59869910E+00  7.59869910E+00
 -1.51973982E+01  7.59869910E+00  7.59869910E+00 -1.51973982E+01  7.59869910E+00
  7.59869910E+00 -1.51973982E+01  7.59869910E+00  7.59869910E+00 -1.51973982E+01
  7.59869910E+00  7.59869910E+00 -1.51973982E+01  7.59869910E+00  7.59869910E+00
 -1.51973982E+01  7.59869910E+00  7.59869910E+00 -1.51973982E+01  7.59869910E+00
  7.59869910E+00 -1.51973982E+01  7.59869910E+00  7.59869910E+00 -1.51973982E+01
  7.59869910E+00  7.59869910E+00 -1.51973982E+01  7.59869910E+00  7.59869910E+00
 -1.51973982E+01  7.59869910E+00  7.59869910E+00 -1.51973982E+01  7.59869910E+00
  7.59869910E+00 -1.51973982E+01  7.59869910E+00  7.59869910E+00 -1.51973982E+01
  7.59869910E+00  7.59869910E+00 -1.51973982E+01  7.59869910E+00  7.59869910E+00
 -1.51973982E+01  7.59869910E+00  7.59869910E+00 -1.51973982E+01  7.59869910E+00
  7.59869910E+00 -1.51973982E+01  7.59869910E+00  7.59869910E+00 -1.51973982E+01
  7.59869910E+00  7.59869910E+00 -1.51973982E+01  7.59869910E+00  7.59869910E+00
 -1.51973982E+01  7.59869910E+00  7.59869910E+00 -1.51973982E+01  7.59869910E+00
  7.59869910E+00 -1.51973982E+01  7.59869910E+00  7.59869910E+00 -1.51973982E+01
  7.59869910E+00  7.59869910E+00 -1.51973982E+01  7.59869910E+00  7.59869910E+00
 -1.51973982E+01  7.59869910E+00  7.59869910E+00 -1.51973982E+01  7.59869910E+00
  7.59869910E+00 -1.51973982E+01  7.59869910E+00  7.59869910E+00 -1.51973982E+01
  7.59869910E+00  7.59869910E+00 -1.51973982E+01  7.59869910E+00  7.59869910E+00
 -1.51973982E+01  7.59869910E+00  7.59869910E+00 -1.51973982E+01  7.59869910E+00
  7.59869910E+00 -1.51973982E+01  7.59869910E+00  7.59869910E+00 -1.51973982E+01
  7.59869910E+00  7.59869910E+00 -1.51973982E+01  7.59869910E+00  7.59869910E+00
 -1.51973982E+01  7.59869910E+00  7.59869910E+00 -1.51973982E+01  7.59869910E+00
  7.59869910E+00 -1.51973982E+01  7.59869910E+00  7.59869910E+00 -1.51973982E+01
  7.59869910E+00  7.59869910E+00 -1.51973982E+01  7.59869910E+00  7.59869910E+00
 -1.51973982E+01  7.59869910E+00  7.59869910E+00 -1.51973982E+01  7.59869910E+00
  7.59869910E+00 -1.51973982E+01  7.59869910E+00  7.59869910E+00 -1.51973982E+01
  7.59869910E+00  7.59869910E+00 -1.51973982E+01  7.59869910E+00  7.59869910E+00
 -1.51973982E+01  7.59869910E+00  7.59869910E+00 -1.51973982E+01  7.59869910E+00
  7.59869910E+00 -1.51973982E+01  7.59869910E+00  7.59869910E+00 -1.51973982E+01
  7.59869910E+00  7.59869910E+00 -1.51973982E+01  7.59869910E+00  7.59869910E+00
 -1.51973982E+01  7.59869910E+00  7.59869910E+00 -1.51973982E+01  7.59869910E+00
  7.59869910E+00 -1.51973982E+01  7.59869910E+00  7.59869910E+00 -1.51973982E+01
  7.59869910E+00  7.59869910E+00 -1.51973982E+01  7.59869910E+00  7.59869910E+00
 -1.51973982E+01  7.59869910E+00  7.59869910E+00 -1.51973982E+01  7.59869910E+00
  7.59869910E+00 -1.51973982E+01  7.59869910E+00  7.59869910E+00 -1.51973982E+01
  7.59869910E+00  7.59869910E+00 -1.51973982E+01  7.59869910E+00  7.59869910E+00
 -1.51973982E+01  7.59869910E+00  7.59869910E+00 -1.51973982E+01  7.59869910E+00
  7.59869910E+00 -1.51973982E+01  7.59869910E+00  7.59869910E+00 -1.51973982E+01
  7.59869910E+00  7.59869910E+00 -1.51973982E+01  7.59869910E+00  7.59869910E+00
 -1.51973982E+01  7.59869910E+00  7.59869910E+00 -1.51973982E+01  7.59869910E+00
  7.59869910E+00 -1.51973982E+01  7.59869910E+00  7.59869910E+00 -1.51973982E+01
  7.59869910E+00  7.59869910E+00 -1.51973982E+01  7.59869910E+00  7.59869910E+00
 -1.51973982E+01  7.59869910E+00  7.59869910E+00 -1.51973982E+01  7.59869910E+00
  7.59869910E+00 -1.51973982E+01  7.59869910E+00  7.59869910E+00 -1.51973982E+01
  7.59869910E+00  7.59869910E+00 -1.51973982E+01  7.59869910E+00  7.59869910E+00
 -1.51973982E+01  7.59869910E+00  7.59869910E+00 -1.51973982E+01  7.59869910E+00
  7.59869910E+00 -1.51973982E+01  7.59869910E+00  7.59869910E+00 -1.51973982E+01
  7.59869910E+00  7.59869910E+00 -1.51973982E+01  7.59869910E+00  7.59869910E+00
 -1.51973982E+01  7.59869910E+00  7.59869910E+00 -1.51973982E+01  7.59869910E+00
  7.59869910E+00 -1.51973982E+01  7.59869910E+00  7.59869910E+00 -1.51973982E+01
  7.59869910E+00  7.59869910E+00 -1.51973982E+01  7.59869910E+00  7.59869910E+00
 -1.51973982E+01  7.59869910E+00  7.59869910E+00 -1.51973982E+01  7.59869910E+00
  7.59869910E+00 -1.51973982E+01  7.59869910E+00  7.59869910E+00 -1.51973982E+01
  7.59869910E+00  7.59869910E+00 -1.51973982E+01  7.59869910E+00  7.59869910E+00
 -1.51973982E+01  7.59869910E+00  7.59869910E+00 -1.51973982E+01  7.59869910E+00
  7.59869910E+00 -1.51973982E+01  7.59869910E+00  7.59869910E+00 -1.51973982E+01
  7.59869910E+00  7.59869910E+00 -1.51973982E+01  7.59869910E+00  7.59869910E+00
 -1.51973982E+01  7.59869910E+00  7.59869910E+00 -1.51973982E+01  7.59869910E+00
  7.59869910E+00 -1.51973982E+01  7.59869910E+00  7.59869910E+00 -1.51973982E+01
  7.59869910E+00  7.59869910E+00 -1.51973982E+01  7.59869910E+00  7.59869910E+00
 -1.51973982E+01  7.59869910E+00  7.59869910E+00 -1.51973982E+01  7.59869910E+00
  7.59869910E+00 -1.51973982E+01  7.59869910E+00  7.59869910E+00 -1.51973982E+01
  7.59869910E+00  7.59869910E+00 -1.51973982E+01  7.59869910E+00  7.59869910E+00
 -1.51973982E+01  7.59869910E+00  7.59869910E+00 -1.51973982E+01  7.59869910E+00
  7.59869910E+00 -1.51973982E+01  7.59869910E+00  7.59869910E+00 -1.51973982E+01
  7.59869910E+00  7.59869910E+00 -1.51973982E+01  7.59869910E+00  7.59869910E+00
 -1.51973982E+01  7.59869910E+00  7.59869910E+00 -1.51973982E+01  7.59869910E+00
  7.59869910E+00 -1.51973982E+01  7.59869910E+00  7.59869910E+00 -1.51973982E+01
  7.59869910E+00  7.59869910E+00 -1.51973982E+01  7.59869910E+00  7.59869910E+00
 -1.51973982E+01  7.59869910E+00  7.59869910E+00 -1.51973982E+01  7.59869910E+00
  7.59869910E+00 -1.51973982E+01  7.59869910E+00  7.59869910E+00 -1.51973982E+01
  7.59869910E+00  7.59869910E+00 -1.51973982E+01  7.59869910E+00  7.59869910E+00
 -1.51973982E+01  7.59869910E+00  7.59869910E+00 -1.51973982E+01  7.59869910E+00
  7.59869910E+00 -1.51973982E+01  7.59869910E+00  7.59869910E+00 -1.51973982E+01
  7.59869910E+00  7.59869910E+00 -1.51973982E+01  7.59869910E+00  7.59869910E+00
 -1.51973982E+01  7.59869910E+00  7.59869910E+00 -1.51973982E+01  7.59869910E+00
  7.59869910E+00 -1.51973982E+01  7.59869910E+00  7.59869910E+00 -1.51973982E+01
  7.59869910E+00  7.59869910E+00 -1.51973982E+01  7.59869910E+00  7.59869910E+00
 -1.51973982E+01  7.59869910E+00  7.59869910E+00 -1.51973982E+01  7.59869910E+00
  7.59869910E+00 -1.51973982E+01  7.59869910E+00  7.59869910E+00 -1.51973982E+01
  7.59869910E+00  7.59869910E+00 -1.51973982E+01  7.59869910E+00  7.59869910E+00
 -1.51973982E+01  7.59869910E+00  7.59869910E+00 -1.51973982E+01  7.59869910E+00
  7.59869910E+00 -1.51973982E+01  7.59869910E+00  7.59869910E+00 -1.51973982E+01
  7.59869910E+00  7.59869910E+00 -1.51973982E+01  7.59869910E+00  7.59869910E+00
 -1.51973982E+01  7.59869910E+00  7.59869910E+00 -1.51973982E+01  7.59869910E+00
  7.59869910E+00 -1.51973982E+01  7.59869910E+00  7.59869910E+00 -1.51973982E+01
  7.59869910E+00  7.59869910E+00 -1.51973982E+01  7.59869910E+00  7.59869910E+00
 -1.51973982E+01  7.59869910E+00  7.59869910E+00 -1.51973982E+01  7.59869910E+00
  7.59869910E+00 -1.51973982E+01  7.59869910E+00  7.59869910E+00 -1.51973982E+01
  7.59869910E+00  7.59869910E+00 -1.51973982E+01  7.59869910E+00  7.59869910E+00
 -1.51973982E+01  7.59869910E+00  7.59869910E+00 -1.51973982E+01  7.59869910E+00
  7.59869910E+00 -1.51973982E+01  7.59869910E+00  7.59869910E+00 -1.51973982E+01
  7.59869910E+00  7.59869910E+00 -1.51973982E+01  7.59869910E+00  7.59869910E+00
 -1.51973982E+01  7.59869910E+00  7.59869910E+00 -1.51973982E+01  7.59869910E+00
  7.59869910E+00 -1.51973982E+01  7.59869910E+00  7.59869910E+00 -1.51973982E+01
  7.59869910E+00  7.59869910E+00 -1.51973982E+01  7.59869910E+00  7.59869910E+00
 -1.51973982E+01  7.59869910E+00  7.59869910E+00 -1.51973982E+01  7.59869910E+00
  7.59869910E+00 -1.51973982E+01  7.59869910E+00  7.59869910E+00 -1.51973982E+01
  7.59869910E+00  7.59869910E+00 -1.51973982E+01  7.59869910E+00  7.59869910E+00
 -1.51973982E+01  7.59869910E+00  7.59869910E+00 -1.51973982E+01  7.59869910E+00
  7.59869910E+00 -1.51973982E+01  7.59869910E+00  7.59869910E+00 -1.51973982E+01
  7.59869910E+00  7.59869910E+00 -1.51973982E+01  7.59869910E+00  7.59869910E+00
 -1.51973982E+01  7.59869910E+00  7.59869910E+00 -1.51973982E+01  7.59869910E+00
  7.59869910E+00 -1.51973982E+01  7.59869910E+00  7.59869910E+00 -1.51973982E+01
  7.59869910E+00  7.59869910E+00 -1.51973982E+01  7.59869910E+00  7.59869910E+00
 -1.51973982E+01  7.59869910E+00  7.59869910E+00 -1.51973982E+01  7.59869910E+00
  7.59869910E+00 -1.51973982E+01  7.59869910E+00  7.59869910E+00 -1.51973982E+01
  7.59869910E+00  7.59869910E+00 -1.51973982E+01  7.59869910E+00  7.59869910E+00
 -1.51973982E+01  7.59869910E+00  7.59869910E+00 -1.51973982E+01  7.59869910E+00
  7.59869910E+00 -1.51973982E+01  7.59869910E+00  7.59869910E+00 -1.51973982E+01
  7.59869910E+00  7.59869910E+00 -1.51973982E+01  7.59869910E+00  7.59869910E+00
 -1.51973982E+01  7.59869910E+00  7.59869910E+00 -1.51973982E+01  7.59869910E+00
  7.59869910E+00 -1.51973982E+01  7.59869910E+00  7.59869910E+00 -1.51973982E+01
  7.59869910E+00  7.59869910E+00 -1.51973982E+01  7.59869910E+00  7.59869910E+00
 -1.51973982E+01  7.59869910E+00  7.59869910E+00 -1.51973982E+01  7.59869910E+00
  7.59869910E+00 -1.51973982E+01  7.59869910E+00  7.59869910E+00 -1.51973982E+01
  7.59869910E+00  7.59869910E+00 -1.51973982E+01  7.59869910E+00  7.59869910E+00
 -1.51973982E+01  7.59869910E+00  7.59869910E+00 -1.51973982E+01  7.59869910E+00
  7.59869910E+00 -1.51973982E+01  7.59869910E+00  7.59869910E+00 -1.51973982E+01
  7.59869910E+00  7.59869910E+00 -1.51973982E+01  7.59869910E+00  7.59869910E+00
 -1.51973982E+01  7.59869910E+00  7.59869910E+00 -1.51973982E+01  7.59869910E+00
  7.59869910E+00 -1.51973982E+01  7.59869910E+00  7.59869910E+00 -1.51973982E+01
  7.59869910E+00  7.59869910E+00 -1.51973982E+01  7.59869910E+00  7.59869910E+00
 -1.51973982E+01  7.59869910E+00  7.59869910E+00 -1.51973982E+01  7.59869910E+00
  7.59869910E+00 -1.51973982E+01  7.59869910E+00  7.59869910E+00 -1.51973982E+01
  7.59869910E+00  7.59869910E+00 -1.51973982E+01  7.59869910E+00  7.59869910E+00
 -1.51973982E+01  7.59869910E+00  7.59869910E+00 -1.51973982E+01  7.59869910E+00
  7.59869910E+00 -1.51973982E+01  7.59869910E+00  7.59869910E+00 -1.51973982E+01
  7.59869910E+00  7.59869910E+00 -1.51973982E+01  7.59869910E+00  7.59869910E+00
 -1.51973982E+01  7.59869910E+00  7.59869910E+00 -1.51973982E+01  7.59869910E+00
  7.59869910E+00 -1.51973982E+01  7.59869910E+00  7.59869910E+00 -1.51973982E+01
  7.59869910E+00  7.59869910E+00 -1.51973982E+01  7.59869910E+00  7.59869910E+00
 -1.51973982E+01  7.59869910E+00  7.59869910E+00 -1.51973982E+01  7.59869910E+00
  7.59869910E+00 -1.51973982E+01  7.59869910E+00  7.59869910E+00 -1.51973982E+01
  7.59869910E+00  7.59869910E+00 -1.51973982E+01  7.59869910E+00  7.59869910E+00
 -1.51973982E+01  7.59869910E+00  7.59869910E+00 -1.51973982E+01  7.59869910E+00
  7.59869910E+00 -1.51973982E+01  7.59869910E+00  7.59869910E+00 -1.51973982E+01
  7.59869910E+00  7.59869910E+00 -1.51973982E+01  7.59869910E+00  7.59869910E+00
 -1.51973982E+01  7.59869910E+00  7.59869910E+00 -1.51973982E+01  7.59869910E+00
  7.59869910E+00 -1.51973982E+01  7.59869910E+00  7.59869910E+00 -1.51973982E+01
  7.59869910E+00  7.59869910E+00 -1.51973982E+01  7.59869910E+00  7.59869910E+00
 -1.51973982E+01  7.59869910E+00  7.59869910E+00 -1.51973982E+01  7.59869910E+00
  7.59869910E+00 -1.51973982E+01  7.59869910E+00  7.59869910E+00 -1.51973982E+01
  7.59869910E+00  7.59869910E+00 -1.51973982E+01  7.59869910E+00  7.59869910E+00
 -1.51973982E+01  7.59869910E+00  7.59869910E+00 -1.51973982E+01  7.59869910E+00
  7.59869910E+00 -1.51973982E+01  7.59869910E+00  7.59869910E+00 -1.51973982E+01
  7.59869910E+00  7.59869910E+00 -1.51973982E+01  7.59869910E+00  7.59869910E+00
 -1.51973982E+01  7.59869910E+00  7.59869910E+00 -1.51973982E+01  7.59869910E+00
  7.59869910E+00 -1.51973982E+01  7.59869910E+00  7.59869910E+00 -1.51973982E+01
  7.59869910E+00  7.59869910E+00 -1.51973982E+01  7.59869910E+00  7.59869910E+00
 -1.51973982E+01  7.59869910E+00  7.59869910E+00 -1.51973982E+01  7.59869910E+00
  7.59869910E+00 -1.51973982E+01  7.59869910E+00  7.59869910E+00 -1.51973982E+01
  7.59869910E+00  7.59869910E+00 -1.51973982E+01  7.59869910E+00  7.59869910E+00
 -1.51973982E+01  7.59869910E+00  7.59869910E+00 -1.51973982E+01  7.59869910E+00
  7.59869910E+00 -1.51973982E+01  7.59869910E+00  7.59869910E+00 -1.51973982E+01
  7.59869910E+00  7.59869910E+00 -1.51973982E+01  7.59869910E+00  7.59869910E+00
 -1.51973982E+01  7.59869910E+00  7.59869910E+00 -1.51973982E+01  7.59869910E+00
  7.59869910E+00 -1.51973982E+01  7.59869910E+00  7.59869910E+00 -1.51973982E+01
  7.59869910E+00  7.59869910E+00 -1.51973982E+01  7.59869910E+00  7.59869910E+00
 -1.51973982E+01  7.59869910E+00  7.59869910E+00 -1.51973982E+01  7.59869910E+00
  7.59869910E+00 -1.51973982E+01  7.59869910E+00  7.59869910E+00 -1.51973982E+01
  7.59869910E+00  7.59869910E+00 -1.51973982E+01  7.59869910E+00  7.59869910E+00
 -1.51973982E+01  7.59869910E+00  7.59869910E+00 -1.51973982E+01  7.59869910E+00
  7.59869910E+00 -1.51973982E+01  7.59869910E+00  7.59869910E+00 -1.51973982E+01
  7.59869910E+00  7.59869910E+00 -1.51973982E+01  7.59869910E+00  7.59869910E+00
 -1.51973982E+01  7.59869910E+00  7.59869910E+00 -1.51973982E+01  7.59869910E+00
  7.59869910E+00 -1.51973982E+01  7.59869910E+00  7.59869910E+00 -1.51973982E+01
  7.59869910E+00  7.59869910E+00 -1.51973982E+01  7.59869910E+00  7.59869910E+00
 -1.51973982E+01  7.59869910E+00  7.59869910E+00 -1.51973982E+01  7.59869910E+00
  7.59869910E+00 -1.51973982E+01  7.59869910E+00  7.59869910E+00 -1.51973982E+01
  7.59869910E+00  7.59869910E+00 -1.51973982E+01  7.59869910E+00  7.59869910E+00
 -1.51973982E+01  7.59869910E+00  7.59869910E+00 -1.51973982E+01  7.59869910E+00
  7.59869910E+00 -1.51973982E+01  7.59869910E+00  7.59869910E+00 -1.51973982E+01
  7.59869910E+00  7.59869910E+00 -1.51973982E+01  7.59869910E+00  7.59869910E+00
 -1.51973982E+01  7.59869910E+00  7.59869910E+00 -1.51973982E+01  7.59869910E+00
  7.59869910E+00 -1.51973982E+01  7.59869910E+00  7.59869910E+00 -1.51973982E+01
  7.59869910E+00  7.59869910E+00 -1.51973982E+01  7.59869910E+00  7.59869910E+00
 -1.51973982E+01  7.59869910E+00  7.59869910E+00 -1.51973982E+01  7.59869910E+00
  7.59869910E+00 -1.51973982E+01  7.59869910E+00  7.59869910E+00 -1.51973982E+01
  7.59869910E+00  7.59869910E+00 -1.51973982E+01  7.59869910E+00  7.59869910E+00
 -1.51973982E+01  7.59869910E+00  7.59869910E+00 -1.51973982E+01  7.59869910E+00
  7.59869910E+00 -1.51973982E+01  7.59869910E+00  7.59869910E+00 -1.51973982E+01
  7.59869910E+00  7.59869910E+00 -1.51973982E+01  7.59869910E+00  7.59869910E+00
 -1.51973982E+01  7.59869910E+00  7.59869910E+00 -1.51973982E+01  7.59869910E+00
  7.59869910E+00 -1.51973982E+01  7.59869910E+00  7.59869910E+00 -1.51973982E+01
  7.59869910E+00  7.59869910E+00 -1.51973982E+01  7.59869910E+00  7.59869910E+00
 -1.51973982E+01  7.59869910E+00  7.59869910E+00 -1.51973982E+01  7.59869910E+00
  7.59869910E+00 -1.51973982E+01  7.59869910E+00  7.59869910E+00 -1.51973982E+01
  7.59869910E+00  7.59869910E+00 -1.51973982E+01  7.59869910E+00  7.59869910E+00
 -1.51973982E+01  7.59869910E+00  7.59869910E+00 -1.51973982E+01  7.59869910E+00
  7.59869910E+00 -1.51973982E+01  7.59869910E+00  7.59869910E+00 -1.51973982E+01
  7.59869910E+00  7.59869910E+00 -1.51973982E+01  7.59869910E+00  7.59869910E+00
 -1.51973982E+01  7.59869910E+00  7.59869910E+00 -1.51973982E+01  7.59869910E+00
  7.59869910E+00 -1.51973982E+01  7.59869910E+00  7.59869910E+00 -1.51973982E+01
  7.59869910E+00  7.59869910E+00 -1.51973982E+01  7.59869910E+00  7.59869910E+00
 -1.51973982E+01  7.59869910E+00  7.59869910E+00 -1.51973982E+01  7.59869910E+00
  7.59869910E+00 -1.51973982E+01  7.59869910E+00  7.59869910E+00 -1.51973982E+01
  7.59869910E+00  7.59869910E+00 -1.51973982E+01  7.59869910E+00  7.59869910E+00
 -1.51973982E+01  7.59869910E+00  7.59869910E+00 -1.51973982E+01  7.59869910E+00
  7.59869910E+00 -1.51973982E+01  7.59869910E+00  7.59869910E+00 -1.51973982E+01
  7.59869910E+00  7.59869910E+00 -1.51973982E+01  7.59869910E+00  7.59869910E+00
 -1.51973982E+01  7.59869910E+00  7.59869910E+00 -1.51973982E+01  7.59869910E+00
  7.59869910E+00 -1.51973982E+01  7.59869910E+00  7.59869910E+00 -1.51973982E+01
  7.59869910E+00  7.59869910E+00 -1.51973982E+01  7.59869910E+00  7.59869910E+00
 -1.51973982E+01  7.59869910E+00  7.59869910E+00 -1.51973982E+01  7.59869910E+00
  7.59869910E+00 -1.51973982E+01  7.59869910E+00  7.59869910E+00 -1.51973982E+01
  7.59869910E+00  7.59869910E+00 -1.51973982E+01  7.59869910E+00  7.59869910E+00
 -1.51973982E+01  7.59869910E+00  7.59869910E+00 -1.51973982E+01  7.59869910E+00
  7.59869910E+00 -1.51973982E+01  7.59869910E+00  7.59869910E+00 -1.51973982E+01
  7.59869910E+00  7.59869910E+00 -1.51973982E+01  7.59869910E+00  7.59869910E+00
 -1.51973982E+01  7.59869910E+00  7.59869910E+00 -1.51973982E+01  7.59869910E+00
  7.59869910E+00 -1.51973982E+01  7.59869910E+00  7.59869910E+00 -1.51973982E+01
  7.59869910E+00  7.59869910E+00 -1.51973982E+01  7.59869910E+00  7.59869910E+00
 -1.51973982E+01  7.59869910E+00  7.59869910E+00 -1.51973982E+01  7.59869910E+00
  7.59869910E+00 -1.51973982E+01  7.59869910E+00  7.59869910E+00 -1.51973982E+01
  7.59869910E+00  7.59869910E+00 -1.51973982E+01  7.59869910E+00  7.59869910E+00
 -1.51973982E+01  7.59869910E+00  7.59869910E+00 -1.51973982E+01  7.59869910E+00
  7.59869910E+00 -1.51973982E+01  7.59869910E+00  7.59869910E+00 -1.51973982E+01
  7.59869910E+00  7.59869910E+00 -1.51973982E+01  7.59869910E+00  7.59869910E+00
 -1.51973982E+01  7.59869910E+00  7.59869910E+00 -1.51973982E+01  7.59869910E+00
  7.59869910E+00 -1.51973982E+01  7.59869910E+00  7.59869910E+00 -1.51973982E+01
  7.59869910E+00  7.59869910E+00 -1.51973982E+01  7.59869910E+00  7.59869910E+00
 -1.51973982E+01  7.59869910E+00  7.59869910E+00 -1.51973982E+01  7.59869910E+00
  7.59869910E+00 -1.51973982E+01  7.59869910E+00  7.59869910E+00 -1.51973982E+01
  7.59869910E+00  7.59869910E+00 -1.51973982E+01  7.59869910E+00  7.59869910E+00
 -1.51973982E+01  7.59869910E+00  7.59869910E+00 -1.51973982E+01  7.59869910E+00
  7.59869910E+00 -1.51973982E+01  7.59869910E+00  7.59869910E+00 -1.51973982E+01
  7.59869910E+00  7.59869910E+00 -1.51973982E+01  7.59869910E+00  7.59869910E+00
 -1.51973982E+01  7.59869910E+00  7.59869910E+00 -1.51973982E+01  7.59869910E+00
  7.59869910E+00 -1.51973982E+01  7.59869910E+00  7.59869910E+00 -1.51973982E+01
  7.59869910E+00  7.59869910E+00 -1.51973982E+01  7.59869910E+00  7.59869910E+00
 -1.51973982E+01  7.59869910E+00  7.59869910E+00 -1.51973982E+01  7.59869910E+00
  7.59869910E+00 -1.51973982E+01  7.59869910E+00  7.59869910E+00 -1.51973982E+01
  7.59869910E+00  7.59869910E+00 -1.51973982E+01  7.59869910E+00  7.59869910E+00
 -1.51973982E+01  7.59869910E+00  7.59869910E+00 -1.51973982E+01  7.59869910E+00
  7.59869910E+00 -1.51973982E+01  7.59869910E+00  7.59869910E+00 -1.51973982E+01
  7.59869910E+00  7.59869910E+00 -1.51973982E+01  7.59869910E+00  7.59869910E+00
 -1.51973982E+01  7.59869910E+00  7.59869910E+00 -1.51973982E+01  7.59869910E+00
  7.59869910E+00 -1.51973982E+01  7.59869910E+00  7.59869910E+00 -1.51973982E+01
  7.59869910E+00  7.59869910E+00 -1.51973982E+01  7.59869910E+00  7.59869910E+00
 -1.51973982E+01  7.59869910E+00  7.59869910E+00 -1.51973982E+01  7.59869910E+00
  7.59869910E+00 -1.51973982E+01  7.59869910E+00  7.59869910E+00 -1.51973982E+01
  7.59869910E+00  7.59869910E+00 -1.51973982E+01  7.59869910E+00  7.59869910E+00
 -1.51973982E+01  7.59869910E+00  7.59869910E+00 -1.51973982E+01  7.59869910E+00
  7.59869910E+00 -1.51973982E+01  7.59869910E+00  7.59869910E+00 -1.51973982E+01
  7.59869910E+00  7.59869910E+00 -1.51973982E+01  7.59869910E+00  7.59869910E+00
 -1.51973982E+01  7.59869910E+00  7.59869910E+00 -1.51973982E+01  7.59869910E+00
  7.59869910E+00 -1.51973982E+01  7.59869910E+00  7.59869910E+00 -1.51973982E+01
  7.59869910E+00  7.59869910E+00 -1.51973982E+01  7.59869910E+00  7.59869910E+00
 -1.51973982E+01  7.59869910E+00  7.59869910E+00 -1.51973982E+01  7.59869910E+00
  7.59869910E+00 -1.51973982E+01  7.59869910E+00  7.59869910E+00 -1.51973982E+01
  7.59869910E+00  7.59869910E+00 -1.51973982E+01  7.59869910E+00  7.59869910E+00
 -1.51973982E+01  7.59869910E+00  7.59869910E+00 -1.51973982E+01  7.59869910E+00
  7.59869910E+00 -1.51973982E+01  7.59869910E+00  7.59869910E+00 -1.51973982E+01
  7.59869910E+00  7.59869910E+00 -1.51973982E+01  7.59869910E+00  7.59869910E+00
 -1.51973982E+01  7.59869910E+00  7.59869910E+00 -1.51973982E+01  7.59869910E+00
  7.59869910E+00 -1.51973982E+01  7.59869910E+00  7.59869910E+00 -1.51973982E+01
  7.59869910E+00  7.59869910E+00 -1.51973982E+01  7.59869910E+00  7.59869910E+00
 -1.51973982E+01  7.59869910E+00  7.59869910E+00 -1.51973982E+01  7.59869910E+00
  7.59869910E+00 -1.51973982E+01  7.59869910E+00  7.59869910E+00 -1.51973982E+01
  7.59869910E+00  7.59869910E+00 -1.51973982E+01  7.59869910E+00  7.59869910E+00
 -1.51973982E+01  7.59869910E+00  7.59869910E+00 -1.51973982E+01  7.59869910E+00
  7.59869910E+00 -1.51973982E+01  7.59869910E+00  7.59869910E+00 -1.51973982E+01
  7.59869910E+00  7.59869910E+00 -1.51973982E+01  7.59869910E+00  7.59869910E+00
 -1.51973982E+01  7.59869910E+00  7.59869910E+00 -1.51973982E+01  7.59869910E+00
  7.59869910E+00 -1.51973982E+01  7.59869910E+00  7.59869910E+00 -1.51973982E+01
  7.59869910E+00  7.59869910E+00 -1.51973982E+01  7.59869910E+00  7.59869910E+00
 -1.51973982E+01  7.59869910E+00  7.59869910E+00 -1.51973982E+01  7.59869910E+00
  7.59869910E+00 -1.51973982E+01  7.59869910E+00  7.59869910E+00 -1.51973982E+01
  7.59869910E+00  7.59869910E+00 -1.51973982E+01  7.59869910E+00  7.59869910E+00
 -1.51973982E+01  7.59869910E+00  7.59869910E+00 -1.51973982E+01  7.59869910E+00
  7.59869910E+00 -1.51973982E+01  7.59869910E+00  7.59869910E+00 -1.51973982E+01
  7.59869910E+00  7.59869910E+00 -1.51973982E+01  7.59869910E+00  7.59869910E+00
 -1.51973982E+01  7.59869910E+00  7.59869910E+00 -1.51973982E+01  7.59869910E+00
  7.59869910E+00 -1.51973982E+01  7.59869910E+00  7.59869910E+00 -1.51973982E+01
  7.59869910E+00  7.59869910E+00 -1.51973982E+01  7.59869910E+00  7.59869910E+00
 -1.51973982E+01  7.59869910E+00  7.59869910E+00 -1.51973982E+01  7.59869910E+00
  7.59869910E+00 -1.51973982E+01  7.59869910E+00  7.59869910E+00 -1.51973982E+01
  7.59869910E+00  7.59869910E+00 -1.51973982E+01  7.59869910E+00  7.59869910E+00
 -1.51973982E+01  7.59869910E+00  7.59869910E+00 -1.51973982E+01  7.59869910E+00
  7.59869910E+00 -1.51973982E+01  7.59869910E+00  7.59869910E+00 -1.51973982E+01
  7.59869910E+00  7.59869910E+00 -1.51973982E+01  7.59869910E+00  7.59869910E+00
 -1.51973982E+01  7.59869910E+00  7.59869910E+00 -1.51973982E+01  7.59869910E+00
  7.59869910E+00 -1.51973982E+01  7.59869910E+00  7.59869910E+00 -1.51973982E+01
  7.59869910E+00  7.59869910E+00 -1.51973982E+01  7.59869910E+00  7.59869910E+00
 -1.51973982E+01  7.59869910E+00  7.59869910E+00 -1.51973982E+01  7.59869910E+00
  7.59869910E+00 -1.51973982E+01  7.59869910E+00  7.59869910E+00 -1.51973982E+01
  7.59869910E+00  7.59869910E+00 -1.51973982E+01  7.59869910E+00  7.59869910E+00
 -1.51973982E+01  7.59869910E+00  7.59869910E+00 -1.51973982E+01  7.59869910E+00
  7.59869910E+00 -1.51973982E+01  7.59869910E+00  7.59869910E+00 -1.51973982E+01
  7.59869910E+00  7.59869910E+00 -1.51973982E+01  7.59869910E+00  7.59869910E+00
 -1.51973982E+01  7.59869910E+00  7.59869910E+00 -1.51973982E+01  7.59869910E+00
  7.59869910E+00 -1.51973982E+01  7.59869910E+00  7.59869910E+00 -1.51973982E+01
  7.59869910E+00  7.59869910E+00 -1.51973982E+01  7.59869910E+00  7.59869910E+00
 -1.51973982E+01  7.59869910E+00  7.59869910E+00 -1.51973982E+01  7.59869910E+00
  7.59869910E+00 -1.51973982E+01  7.59869910E+00  7.59869910E+00 -1.51973982E+01
  7.59869910E+00  7.59869910E+00 -1.51973982E+01  7.59869910E+00  7.59869910E+00
 -1.51973982E+01  7.59869910E+00  7.59869910E+00 -1.51973982E+01  7.59869910E+00
  7.59869910E+00 -1.51973982E+01  7.59869910E+00  7.59869910E+00 -1.51973982E+01
  7.59869910E+00  7.59869910E+00 -1.51973982E+01  7.59869910E+00  7.59869910E+00
 -1.51973982E+01  7.59869910E+00  7.59869910E+00 -1.51973982E+01  7.59869910E+00
  7.59869910E+00 -1.51973982E+01  7.59869910E+00  7.59869910E+00 -1.51973982E+01
  7.59869910E+00  7.59869910E+00 -1.51973982E+01  7.59869910E+00  7.59869910E+00
 -1.51973982E+01  7.59869910E+00  7.59869910E+00 -1.51973982E+01  7.59869910E+00
  7.59869910E+00 -1.51973982E+01  7.59869910E+00  7.59869910E+00 -1.51973982E+01
  7.59869910E+00  7.59869910E+00 -1.51973982E+01  7.59869910E+00  7.59869910E+00
 -1.51973982E+01  7.59869910E+00  7.59869910E+00 -1.51973982E+01  7.59869910E+00
  7.59869910E+00 -1.51973982E+01  7.59869910E+00  7.59869910E+00 -1.51973982E+01
  7.59869910E+00  7.59869910E+00 -1.51973982E+01  7.59869910E+00  7.59869910E+00
 -1.51973982E+01  7.59869910E+00  7.59869910E+00 -1.51973982E+01  7.59869910E+00
  7.59869910E+00 -1.51973982E+01  7.59869910E+00  7.59869910E+00 -1.51973982E+01
  7.59869910E+00  7.59869910E+00 -1.51973982E+01  7.59869910E+00  7.59869910E+00
 -1.51973982E+01  7.59869910E+00  7.59869910E+00 -1.51973982E+01  7.59869910E+00
  7.59869910E+00 -1.51973982E+01  7.59869910E+00  7.59869910E+00 -1.51973982E+01
  7.59869910E+00  7.59869910E+00 -1.51973982E+01  7.59869910E+00  7.59869910E+00
 -1.51973982E+01  7.59869910E+00  7.59869910E+00 -1.51973982E+01  7.59869910E+00
  7.59869910E+00 -1.51973982E+01  7.59869910E+00  7.59869910E+00 -1.51973982E+01
  7.59869910E+00  7.59869910E+00 -1.51973982E+01  7.59869910E+00  7.59869910E+00
 -1.51973982E+01  7.59869910E+00  7.59869910E+00 -1.51973982E+01  7.59869910E+00
  7.59869910E+00 -1.51973982E+01  7.59869910E+00  7.59869910E+00 -1.51973982E+01
  7.59869910E+00  7.59869910E+00 -1.51973982E+01  7.59869910E+00  7.59869910E+00
 -1.51973982E+01  7.59869910E+00  7.59869910E+00 -1.51973982E+01  7.59869910E+00
  7.59869910E+00 -1.51973982E+01  7.59869910E+00  7.59869910E+00 -1.51973982E+01
  7.59869910E+00  7.59869910E+00 -1.51973982E+01  7.59869910E+00  7.59869910E+00
 -1.51973982E+01  7.59869910E+00  7.59869910E+00 -1.51973982E+01  7.59869910E+00
  7.59869910E+00 -1.51973982E+01  7.59869910E+00  7.59869910E+00 -1.51973982E+01
  7.59869910E+00  7.59869910E+00 -1.51973982E+01  7.59869910E+00  7.59869910E+00
 -1.51973982E+01  7.59869910E+00  7.59869910E+00 -1.51973982E+01  7.59869910E+00
  7.59869910E+00 -1.51973982E+01  7.59869910E+00  7.59869910E+00 -1.51973982E+01
  7.59869910E+00  7.59869910E+00 -1.51973982E+01  7.59869910E+00  7.59869910E+00
 -1.51973982E+01  7.59869910E+00  7.59869910E+00 -1.51973982E+01  7.59869910E+00
  7.59869910E+00 -1.51973982E+01  7.59869910E+00  7.59869910E+00 -1.51973982E+01
  7.59869910E+00  7.59869910E+00 -1.51973982E+01  7.59869910E+00  7.59869910E+00
 -1.51973982E+01  7.59869910E+00  7.59869910E+00 -1.51973982E+01  7.59869910E+00
  7.59869910E+00 -1.51973982E+01  7.59869910E+00  7.59869910E+00 -1.51973982E+01
  7.59869910E+00  7.59869910E+00 -1.51973982E+01  7.59869910E+00  7.59869910E+00
 -1.51973982E+01  7.59869910E+00  7.59869910E+00 -1.51973982E+01  7.59869910E+00
  7.59869910E+00 -1.51973982E+01  7.59869910E+00  7.59869910E+00 -1.51973982E+01
  7.59869910E+00  7.59869910E+00 -1.51973982E+01  7.59869910E+00  7.59869910E+00
 -1.51973982E+01  7.59869910E+00  7.59869910E+00 -1.51973982E+01  7.59869910E+00
  7.59869910E+00 -1.51973982E+01  7.59869910E+00  7.59869910E+00 -1.51973982E+01
  7.59869910E+00  7.59869910E+00 -1.51973982E+01  7.59869910E+00  7.59869910E+00
 -1.51973982E+01  7.59869910E+00  7.59869910E+00 -1.51973982E+01  7.59869910E+00
  7.59869910E+00 -1.51973982E+01  7.59869910E+00  7.59869910E+00 -1.51973982E+01
  7.59869910E+00  7.59869910E+00 -1.51973982E+01  7.59869910E+00  7.59869910E+00
 -1.51973982E+01  7.59869910E+00  7.59869910E+00 -1.51973982E+01  7.59869910E+00
  7.59869910E+00 -1.51973982E+01  7.59869910E+00  7.59869910E+00 -1.51973982E+01
  7.59869910E+00  7.59869910E+00 -1.51973982E+01  7.59869910E+00  7.59869910E+00
 -1.51973982E+01  7.59869910E+00  7.59869910E+00 -1.51973982E+01  7.59869910E+00
  7.59869910E+00 -1.51973982E+01  7.59869910E+00  7.59869910E+00 -1.51973982E+01
  7.59869910E+00  7.59869910E+00 -1.51973982E+01  7.59869910E+00  7.59869910E+00
 -1.51973982E+01  7.59869910E+00  7.59869910E+00 -1.51973982E+01  7.59869910E+00
  7.59869910E+00 -1.51973982E+01  7.59869910E+00  7.59869910E+00 -1.51973982E+01
  7.59869910E+00  7.59869910E+00 -1.51973982E+01  7.59869910E+00  7.59869910E+00
 -1.51973982E+01  7.59869910E+00  7.59869910E+00 -1.51973982E+01  7.59869910E+00
  7.59869910E+00 -1.51973982E+01  7.59869910E+00  7.59869910E+00 -1.51973982E+01
  7.59869910E+00  7.59869910E+00 -1.51973982E+01  7.59869910E+00  7.59869910E+00
 -1.51973982E+01  7.59869910E+00  7.59869910E+00 -1.51973982E+01  7.59869910E+00
  7.59869910E+00 -1.51973982E+01  7.59869910E+00  7.59869910E+00 -1.51973982E+01
  7.59869910E+00  7.59869910E+00 -1.51973982E+01  7.59869910E+00  7.59869910E+00
 -1.51973982E+01  7.59869910E+00  7.59869910E+00 -1.51973982E+01  7.59869910E+00
  7.59869910E+00 -1.51973982E+01  7.59869910E+00  7.59869910E+00 -1.51973982E+01
  7.59869910E+00  7.59869910E+00 -1.51973982E+01  7.59869910E+00  7.59869910E+00
 -1.51973982E+01  7.59869910E+00  7.59869910E+00 -1.51973982E+01  7.59869910E+00
  7.59869910E+00 -1.51973982E+01  7.59869910E+00  7.59869910E+00 -1.51973982E+01
  7.59869910E+00  7.59869910E+00 -1.51973982E+01  7.59869910E+00  7.59869910E+00
 -1.51973982E+01  7.59869910E+00  7.59869910E+00 -1.51973982E+01  7.59869910E+00
  7.59869910E+00 -1.51973982E+01  7.59869910E+00  7.59869910E+00 -1.51973982E+01
  7.59869910E+00  7.59869910E+00 -1.51973982E+01  7.59869910E+00  7.59869910E+00
 -1.51973982E+01  7.59869910E+00  7.59869910E+00 -1.51973982E+01  7.59869910E+00
  7.59869910E+00 -1.51973982E+01  7.59869910E+00  7.59869910E+00 -1.51973982E+01
  7.59869910E+00  7.59869910E+00 -1.51973982E+01  7.59869910E+00  7.59869910E+00
 -1.51973982E+01  7.59869910E+00  7.59869910E+00 -1.51973982E+01  7.59869910E+00
  7.59869910E+00 -1.51973982E+01  7.59869910E+00  7.59869910E+00 -1.51973982E+01
  7.59869910E+00  7.59869910E+00 -1.51973982E+01  7.59869910E+00  7.59869910E+00
 -1.51973982E+01  7.59869910E+00  7.59869910E+00 -1.51973982E+01  7.59869910E+00
  7.59869910E+00 -1.51973982E+01  7.59869910E+00  7.59869910E+00 -1.51973982E+01
  7.59869910E+00  7.59869910E+00 -1.51973982E+01  7.59869910E+00  7.59869910E+00
 -1.51973982E+01  7.59869910E+00  7.59869910E+00 -1.51973982E+01  7.59869910E+00
  7.59869910E+00 -1.51973982E+01  7.59869910E+00  7.59869910E+00 -1.51973982E+01
  7.59869910E+00  7.59869910E+00 -1.51973982E+01  7.59869910E+00  7.59869910E+00
 -1.51973982E+01  7.59869910E+00  7.59869910E+00 -1.51973982E+01  7.59869910E+00
  7.59869910E+00 -1.51973982E+01  7.59869910E+00  7.59869910E+00 -1.51973982E+01
  7.59869910E+00  7.59869910E+00 -1.51973982E+01  7.59869910E+00  7.59869910E+00
 -1.51973982E+01  7.59869910E+00  7.59869910E+00 -1.51973982E+01  7.59869910E+00
  7.59869910E+00 -1.51973982E+01  7.59869910E+00  7.59869910E+00 -1.51973982E+01
  7.59869910E+00  7.59869910E+00 -1.51973982E+01  7.59869910E+00  7.59869910E+00
 -1.51973982E+01  7.59869910E+00  7.59869910E+00 -1.51973982E+01  7.59869910E+00
  7.59869910E+00 -1.51973982E+01  7.59869910E+00  7.59869910E+00 -1.51973982E+01
  7.59869910E+00  7.59869910E+00 -1.51973982E+01  7.59869910E+00  7.59869910E+00
 -1.51973982E+01  7.59869910E+00  7.59869910E+00 -1.51973982E+01  7.59869910E+00
  7.59869910E+00 -1.51973982E+01  7.59869910E+00  7.59869910E+00 -1.51973982E+01
  7.59869910E+00  7.59869910E+00 -1.51973982E+01  7.59869910E+00  7.59869910E+00
 -1.51973982E+01  7.59869910E+00  7.59869910E+00 -1.51973982E+01  7.59869910E+00
  7.59869910E+00 -1.51973982E+01  7.59869910E+00  7.59869910E+00 -1.51973982E+01
  7.59869910E+00  7.59869910E+00 -1.51973982E+01  7.59869910E+00  7.59869910E+00
 -1.51973982E+01  7.59869910E+00  7.59869910E+00 -1.51973982E+01  7.59869910E+00
  7.59869910E+00 -1.51973982E+01  7.59869910E+00  7.59869910E+00 -1.51973982E+01
  7.59869910E+00  7.59869910E+00 -1.51973982E+01  7.59869910E+00  7.59869910E+00
 -1.51973982E+01  7.59869910E+00  7.59869910E+00 -1.51973982E+01  7.59869910E+00
  7.59869910E+00 -1.51973982E+01  7.59869910E+00  7.59869910E+00 -1.51973982E+01
  7.59869910E+00  7.59869910E+00 -1.51973982E+01  7.59869910E+00  7.59869910E+00
 -1.51973982E+01  7.59869910E+00  7.59869910E+00 -1.51973982E+01  7.59869910E+00
  7.59869910E+00 -1.51973982E+01  7.59869910E+00  7.59869910E+00 -1.51973982E+01
  7.59869910E+00  7.59869910E+00 -1.51973982E+01  7.59869910E+00  7.59869910E+00
 -1.51973982E+01  7.59869910E+00  7.59869910E+00 -1.51973982E+01  7.59869910E+00
  7.59869910E+00 -1.51973982E+01  7.59869910E+00  7.59869910E+00 -1.51973982E+01
  7.59869910E+00  7.59869910E+00 -1.51973982E+01  7.59869910E+00  7.59869910E+00
 -1.51973982E+01  7.59869910E+00  7.59869910E+00 -1.51973982E+01  7.59869910E+00
  7.59869910E+00 -1.51973982E+01  7.59869910E+00  7.59869910E+00 -1.51973982E+01
  7.59869910E+00  7.59869910E+00 -1.51973982E+01  7.59869910E+00  7.59869910E+00
 -1.51973982E+01  7.59869910E+00  7.59869910E+00 -1.51973982E+01  7.59869910E+00
  7.59869910E+00 -1.51973982E+01  7.59869910E+00  7.59869910E+00 -1.51973982E+01
  7.59869910E+00  7.59869910E+00 -1.51973982E+01  7.59869910E+00  7.59869910E+00
 -1.51973982E+01  7.59869910E+00  7.59869910E+00 -1.51973982E+01  7.59869910E+00
  7.59869910E+00 -1.51973982E+01  7.59869910E+00  7.59869910E+00 -1.51973982E+01
  7.59869910E+00  7.59869910E+00 -1.51973982E+01  7.59869910E+00  7.59869910E+00
 -1.51973982E+01  7.59869910E+00  7.59869910E+00 -1.51973982E+01  7.59869910E+00
  7.59869910E+00 -1.51973982E+01  7.59869910E+00  7.59869910E+00 -1.51973982E+01
  7.59869910E+00  7.59869910E+00 -1.51973982E+01  7.59869910E+00  7.59869910E+00
 -1.51973982E+01  7.59869910E+00  7.59869910E+00 -1.51973982E+01  7.59869910E+00
  7.59869910E+00 -1.51973982E+01  7.59869910E+00  7.59869910E+00 -1.51973982E+01
  7.59869910E+00  7.59869910E+00 -1.51973982E+01  7.59869910E+00  7.59869910E+00
 -1.51973982E+01  7.59869910E+00  7.59869910E+00 -1.51973982E+01  7.59869910E+00
  7.59869910E+00 -1.51973982E+01  7.59869910E+00  7.59869910E+00 -1.51973982E+01
  7.59869910E+00  7.59869910E+00 -1.51973982E+01  7.59869910E+00  7.59869910E+00
 -1.51973982E+01  7.59869910E+00  7.59869910E+00 -1.51973982E+01  7.59869910E+00
  7.59869910E+00 -1.51973982E+01  7.59869910E+00  7.59869910E+00 -1.51973982E+01
  7.59869910E+00  7.59869910E+00 -1.51973982E+01  7.59869910E+00  7.59869910E+00
 -1.51973982E+01  7.59869910E+00  7.59869910E+00 -1.51973982E+01  7.59869910E+00
  7.59869910E+00 -1.51973982E+01  7.59869910E+00  7.59869910E+00 -1.51973982E+01
  7.59869910E+00  7.59869910E+00 -1.51973982E+01  7.59869910E+00  7.59869910E+00
 -1.51973982E+01  7.59869910E+00  7.59869910E+00 -1.51973982E+01  7.59869910E+00
  7.59869910E+00 -1.51973982E+01  7.59869910E+00  7.59869910E+00 -1.51973982E+01
  7.59869910E+00  7.59869910E+00 -1.51973982E+01  7.59869910E+00  7.59869910E+00
 -1.51973982E+01  7.59869910E+00  7.59869910E+00 -1.51973982E+01  7.59869910E+00
  7.59869910E+00 -1.51973982E+01  7.59869910E+00  7.59869910E+00 -1.51973982E+01
  7.59869910E+00  7.59869910E+00 -1.51973982E+01  7.59869910E+00  7.59869910E+00
 -1.51973982E+01  7.59869910E+00  7.59869910E+00 -1.51973982E+01  7.59869910E+00
  7.59869910E+00 -1.51973982E+01  7.59869910E+00  7.59869910E+00 -1.51973982E+01
  7.59869910E+00  7.59869910E+00 -1.51973982E+01  7.59869910E+00  7.59869910E+00
 -1.51973982E+01  7.59869910E+00  7.59869910E+00 -1.51973982E+01  7.59869910E+00
  7.59869910E+00 -1.51973982E+01  7.59869910E+00  7.59869910E+00 -1.51973982E+01
  7.59869910E+00  7.59869910E+00 -1.51973982E+01  7.59869910E+00  7.59869910E+00
 -1.51973982E+01  7.59869910E+00  7.59869910E+00 -1.51973982E+01  7.59869910E+00
  7.59869910E+00 -1.51973982E+01  7.59869910E+00  7.59869910E+00 -1.51973982E+01
  7.59869910E+00  7.59869910E+00 -1.51973982E+01  7.59869910E+00  7.59869910E+00
 -1.51973982E+01  7.59869910E+00  7.59869910E+00 -1.51973982E+01  7.59869910E+00
  7.59869910E+00 -1.51973982E+01  7.59869910E+00  7.59869910E+00 -1.51973982E+01
  7.59869910E+00  7.59869910E+00 -1.51973982E+01  7.59869910E+00  7.59869910E+00
 -1.51973982E+01  7.59869910E+00  7.59869910E+00 -1.51973982E+01  7.59869910E+00
  7.59869910E+00 -1.51973982E+01  7.59869910E+00  7.59869910E+00 -1.51973982E+01
  7.59869910E+00  7.59869910E+00 -1.51973982E+01  7.59869910E+00  7.59869910E+00
 -1.51973982E+01  7.59869910E+00  7.59869910E+00 -1.51973982E+01  7.59869910E+00
  7.59869910E+00 -1.51973982E+01  7.59869910E+00  7.59869910E+00 -1.51973982E+01
  7.59869910E+00  7.59869910E+00 -1.51973982E+01  7.59869910E+00  7.59869910E+00
 -1.51973982E+01  7.59869910E+00  7.59869910E+00 -1.51973982E+01  7.59869910E+00
  7.59869910E+00 -1.51973982E+01  7.59869910E+00  7.59869910E+00 -1.51973982E+01
  7.59869910E+00  7.59869910E+00 -1.51973982E+01  7.59869910E+00  7.59869910E+00
 -1.51973982E+01  7.59869910E+00  7.59869910E+00 -1.51973982E+01  7.59869910E+00
  7.59869910E+00 -1.51973982E+01  7.59869910E+00  7.59869910E+00 -1.51973982E+01
  7.59869910E+00  7.59869910E+00 -1.51973982E+01  7.59869910E+00  7.59869910E+00
 -1.51973982E+01  7.59869910E+00  7.59869910E+00 -1.51973982E+01  7.59869910E+00
  7.59869910E+00 -1.51973982E+01  7.59869910E+00  7.59869910E+00 -1.51973982E+01
  7.59869910E+00  7.59869910E+00 -1.51973982E+01  7.59869910E+00  7.59869910E+00
 -1.51973982E+01  7.59869910E+00  7.59869910E+00 -1.51973982E+01  7.59869910E+00
  7.59869910E+00 -1.51973982E+01  7.59869910E+00  7.59869910E+00 -1.51973982E+01
  7.59869910E+00  7.59869910E+00 -1.51973982E+01  7.59869910E+00  7.59869910E+00
 -1.51973982E+01  7.59869910E+00  7.59869910E+00 -1.51973982E+01  7.59869910E+00
  7.59869910E+00 -1.51973982E+01  7.59869910E+00  7.59869910E+00 -1.51973982E+01
  7.59869910E+00  7.59869910E+00 -1.51973982E+01  7.59869910E+00  7.59869910E+00
 -1.51973982E+01  7.59869910E+00  7.59869910E+00 -1.51973982E+01  7.59869910E+00
  7.59869910E+00 -1.51973982E+01  7.59869910E+00  7.59869910E+00 -1.51973982E+01
  7.59869910E+00  7.59869910E+00 -1.51973982E+01  7.59869910E+00  7.59869910E+00
 -1.51973982E+01  7.59869910E+00  7.59869910E+00 -1.51973982E+01  7.59869910E+00
  7.59869910E+00 -1.51973982E+01  7.59869910E+00  7.59869910E+00 -1.51973982E+01
  7.59869910E+00  7.59869910E+00 -1.51973982E+01  7.59869910E+00  7.59869910E+00
 -1.51973982E+01  7.59869910E+00  7.59869910E+00 -1.51973982E+01  7.59869910E+00
  7.59869910E+00 -1.51973982E+01  7.59869910E+00  7.59869910E+00 -1.51973982E+01
  7.59869910E+00  7.59869910E+00 -1.51973982E+01  7.59869910E+00  7.59869910E+00
 -1.51973982E+01  7.59869910E+00  7.59869910E+00 -1.51973982E+01  7.59869910E+00
  7.59869910E+00 -1.51973982E+01  7.59869910E+00  7.59869910E+00 -1.51973982E+01
  7.59869910E+00  7.59869910E+00 -1.51973982E+01  7.59869910E+00  7.59869910E+00
 -1.51973982E+01  7.59869910E+00  7.59869910E+00 -1.51973982E+01  7.59869910E+00
  7.59869910E+00 -1.51973982E+01  7.59869910E+00  7.59869910E+00 -1.51973982E+01
  7.59869910E+00  7.59869910E+00 -1.51973982E+01  7.59869910E+00  7.59869910E+00
 -1.51973982E+01  7.59869910E+00  7.59869910E+00 -1.51973982E+01  7.59869910E+00
  7.59869910E+00 -1.51973982E+01  7.59869910E+00  7.59869910E+00 -1.51973982E+01
  7.59869910E+00  7.59869910E+00 -1.51973982E+01  7.59869910E+00  7.59869910E+00
 -1.51973982E+01  7.59869910E+00  7.59869910E+00 -1.51973982E+01  7.59869910E+00
  7.59869910E+00 -1.51973982E+01  7.59869910E+00  7.59869910E+00 -1.51973982E+01
  7.59869910E+00  7.59869910E+00 -1.51973982E+01  7.59869910E+00  7.59869910E+00
 -1.51973982E+01  7.59869910E+00  7.59869910E+00 -1.51973982E+01  7.59869910E+00
  7.59869910E+00 -1.51973982E+01  7.59869910E+00  7.59869910E+00 -1.51973982E+01
  7.59869910E+00  7.59869910E+00 -1.51973982E+01  7.59869910E+00  7.59869910E+00
 -1.51973982E+01  7.59869910E+00  7.59869910E+00 -1.51973982E+01  7.59869910E+00
  7.59869910E+00 -1.51973982E+01  7.59869910E+00  7.59869910E+00 -1.51973982E+01
  7.59869910E+00  7.59869910E+00 -1.51973982E+01  7.59869910E+00  7.59869910E+00
 -1.51973982E+01  7.59869910E+00  7.59869910E+00 -1.51973982E+01  7.59869910E+00
  7.59869910E+00 -1.51973982E+01  7.59869910E+00  7.59869910E+00 -1.51973982E+01
  7.59869910E+00  7.59869910E+00 -1.51973982E+01  7.59869910E+00  7.59869910E+00
 -1.51973982E+01  7.59869910E+00  7.59869910E+00 -1.51973982E+01  7.59869910E+00
  7.59869910E+00 -1.51973982E+01  7.59869910E+00  7.59869910E+00 -1.51973982E+01
  7.59869910E+00  7.59869910E+00 -1.51973982E+01  7.59869910E+00  7.59869910E+00
 -1.51973982E+01  7.59869910E+00  7.59869910E+00 -1.51973982E+01  7.59869910E+00
  7.59869910E+00 -1.51973982E+01  7.59869910E+00  7.59869910E+00 -1.51973982E+01
  7.59869910E+00  7.59869910E+00 -1.51973982E+01  7.59869910E+00  7.59869910E+00
 -1.51973982E+01  7.59869910E+00  7.59869910E+00 -1.51973982E+01  7.59869910E+00
  7.59869910E+00 -1.51973982E+01  7.59869910E+00  7.59869910E+00 -1.51973982E+01
  7.59869910E+00  7.59869910E+00 -1.51973982E+01  7.59869910E+00  7.59869910E+00
 -1.51973982E+01  7.59869910E+00  7.59869910E+00 -1.51973982E+01  7.59869910E+00
  7.59869910E+00 -1.51973982E+01  7.59869910E+00  7.59869910E+00 -1.51973982E+01
  7.59869910E+00  7.59869910E+00 -1.51973982E+01  7.59869910E+00  7.59869910E+00
 -1.51973982E+01  7.59869910E+00  7.59869910E+00 -1.51973982E+01  7.59869910E+00
  7.59869910E+00 -1.51973982E+01  7.59869910E+00  7.59869910E+00 -1.51973982E+01
  7.59869910E+00  7.59869910E+00 -1.51973982E+01  7.59869910E+00  7.59869910E+00
 -1.51973982E+01  7.59869910E+00  7.59869910E+00 -1.51973982E+01  7.59869910E+00
  7.59869910E+00 -1.51973982E+01  7.59869910E+00  7.59869910E+00 -1.51973982E+01
  7.59869910E+00  7.59869910E+00 -1.51973982E+01  7.59869910E+00  7.59869910E+00
 -1.51973982E+01  7.59869910E+00  7.59869910E+00 -1.51973982E+01  7.59869910E+00
  7.59869910E+00 -1.51973982E+01  7.59869910E+00  7.59869910E+00 -1.51973982E+01
  7.59869910E+00  7.59869910E+00 -1.51973982E+01  7.59869910E+00  7.59869910E+00
 -1.51973982E+01  7.59869910E+00  7.59869910E+00 -1.51973982E+01  7.59869910E+00
  7.59869910E+00 -1.51973982E+01  7.59869910E+00  7.59869910E+00 -1.51973982E+01
  7.59869910E+00  7.59869910E+00 -1.51973982E+01  7.59869910E+00  7.59869910E+00
 -1.51973982E+01  7.59869910E+00  7.59869910E+00 -1.51973982E+01  7.59869910E+00
  7.59869910E+00 -1.51973982E+01  7.59869910E+00  7.59869910E+00 -1.51973982E+01
  7.59869910E+00  7.59869910E+00 -1.51973982E+01  7.59869910E+00  7.59869910E+00
 -1.51973982E+01  7.59869910E+00  7.59869910E+00 -1.51973982E+01  7.59869910E+00
  7.59869910E+00 -1.51973982E+01  7.59869910E+00  7.59869910E+00 -1.51973982E+01
  7.59869910E+00  7.59869910E+00 -1.51973982E+01  7.59869910E+00  7.59869910E+00
 -1.51973982E+01  7.59869910E+00  7.59869910E+00 -1.51973982E+01  7.59869910E+00
  7.59869910E+00 -1.51973982E+01  7.59869910E+00  7.59869910E+00 -1.51973982E+01
  7.59869910E+00  7.59869910E+00 -1.51973982E+01  7.59869910E+00  7.59869910E+00
 -1.51973982E+01  7.59869910E+00  7.59869910E+00 -1.51973982E+01  7.59869910E+00
  7.59869910E+00 -1.51973982E+01  7.59869910E+00  7.59869910E+00 -1.51973982E+01
  7.59869910E+00  7.59869910E+00 -1.51973982E+01  7.59869910E+00  7.59869910E+00
 -1.51973982E+01  7.59869910E+00  7.59869910E+00 -1.51973982E+01  7.59869910E+00
  7.59869910E+00 -1.51973982E+01  7.59869910E+00  7.59869910E+00 -1.51973982E+01
  7.59869910E+00  7.59869910E+00 -1.51973982E+01  7.59869910E+00  7.59869910E+00
 -1.51973982E+01  7.59869910E+00  7.59869910E+00 -1.51973982E+01  7.59869910E+00
  7.59869910E+00 -1.51973982E+01  7.59869910E+00  7.59869910E+00 -1.51973982E+01
  7.59869910E+00  7.59869910E+00 -1.51973982E+01  7.59869910E+00  7.59869910E+00
 -1.51973982E+01  7.59869910E+00  7.59869910E+00 -1.51973982E+01  7.59869910E+00
  7.59869910E+00 -1.51973982E+01  7.59869910E+00  7.59869910E+00 -1.51973982E+01
  7.59869910E+00  7.59869910E+00 -1.51973982E+01  7.59869910E+00  7.59869910E+00
 -1.51973982E+01  7.59869910E+00  7.59869910E+00 -1.51973982E+01  7.59869910E+00
  7.59869910E+00 -1.51973982E+01  7.59869910E+00  7.59869910E+00 -1.51973982E+01
  7.59869910E+00  7.59869910E+00 -1.51973982E+01  7.59869910E+00  7.59869910E+00
 -1.51973982E+01  7.59869910E+00  7.59869910E+00 -1.51973982E+01  7.59869910E+00
  7.59869910E+00 -1.51973982E+01  7.59869910E+00  7.59869910E+00 -1.51973982E+01
  7.59869910E+00  7.59869910E+00 -1.51973982E+01  7.59869910E+00  7.59869910E+00
 -1.51973982E+01  7.59869910E+00  7.59869910E+00 -1.51973982E+01  7.59869910E+00
  7.59869910E+00 -1.51973982E+01  7.59869910E+00  7.59869910E+00 -1.51973982E+01
  7.59869910E+00  7.59869910E+00 -1.51973982E+01  7.59869910E+00  7.59869910E+00
 -1.51973982E+01  7.59869910E+00  7.59869910E+00 -1.51973982E+01  7.59869910E+00
  7.59869910E+00 -1.51973982E+01  7.59869910E+00  7.59869910E+00 -1.51973982E+01
  7.59869910E+00  7.59869910E+00 -1.51973982E+01  7.59869910E+00  7.59869910E+00
 -1.51973982E+01  7.59869910E+00  7.59869910E+00 -1.51973982E+01  7.59869910E+00
  7.59869910E+00 -1.51973982E+01  7.59869910E+00  7.59869910E+00 -1.51973982E+01
  7.59869910E+00  7.59869910E+00 -1.51973982E+01  7.59869910E+00  7.59869910E+00
 -1.51973982E+01  7.59869910E+00  7.59869910E+00 -1.51973982E+01  7.59869910E+00
  7.59869910E+00 -1.51973982E+01  7.59869910E+00  7.59869910E+00 -1.51973982E+01
  7.59869910E+00  7.59869910E+00 -1.51973982E+01  7.59869910E+00  7.59869910E+00
 -1.51973982E+01  7.59869910E+00  7.59869910E+00 -1.51973982E+01  7.59869910E+00
  7.59869910E+00 -1.51973982E+01  7.59869910E+00  7.59869910E+00 -1.51973982E+01
  7.59869910E+00  7.59869910E+00 -1.51973982E+01  7.59869910E+00  7.59869910E+00
 -1.51973982E+01  7.59869910E+00  7.59869910E+00 -1.51973982E+01  7.59869910E+00
  7.59869910E+00 -1.51973982E+01  7.59869910E+00  7.59869910E+00 -1.51973982E+01
  7.59869910E+00  7.59869910E+00 -1.51973982E+01  7.59869910E+00  7.59869910E+00
 -1.51973982E+01  7.59869910E+00  7.59869910E+00 -1.51973982E+01  7.59869910E+00
  7.59869910E+00 -1.51973982E+01  7.59869910E+00  7.59869910E+00 -1.51973982E+01
  7.59869910E+00  7.59869910E+00 -1.51973982E+01  7.59869910E+00  7.59869910E+00
 -1.51973982E+01  7.59869910E+00  7.59869910E+00 -1.51973982E+01  7.59869910E+00
  7.59869910E+00 -1.51973982E+01  7.59869910E+00  7.59869910E+00 -1.51973982E+01
  7.59869910E+00  7.59869910E+00 -1.51973982E+01  7.59869910E+00  7.59869910E+00
 -1.51973982E+01  7.59869910E+00  7.59869910E+00 -1.51973982E+01  7.59869910E+00
  7.59869910E+00 -1.51973982E+01  7.59869910E+00  7.59869910E+00 -1.51973982E+01
  7.59869910E+00  7.59869910E+00 -1.51973982E+01  7.59869910E+00  7.59869910E+00
 -1.51973982E+01  7.59869910E+00  7.59869910E+00 -1.51973982E+01  7.59869910E+00
  7.59869910E+00 -1.51973982E+01  7.59869910E+00  7.59869910E+00 -1.51973982E+01
  7.59869910E+00  7.59869910E+00 -1.51973982E+01  7.59869910E+00  7.59869910E+00
 -1.51973982E+01  7.59869910E+00  7.59869910E+00 -1.51973982E+01  7.59869910E+00
  7.59869910E+00 -1.51973982E+01  7.59869910E+00  7.59869910E+00 -1.51973982E+01
  7.59869910E+00  7.59869910E+00 -1.51973982E+01  7.59869910E+00  7.59869910E+00
 -1.51973982E+01  7.59869910E+00  7.59869910E+00 -1.51973982E+01  7.59869910E+00
  7.59869910E+00 -1.51973982E+01  7.59869910E+00  7.59869910E+00 -1.51973982E+01
  7.59869910E+00  7.59869910E+00 -1.51973982E+01  7.59869910E+00  7.59869910E+00
 -1.51973982E+01  7.59869910E+00  7.59869910E+00 -1.51973982E+01  7.59869910E+00
  7.59869910E+00 -1.51973982E+01  7.59869910E+00  7.59869910E+00 -1.51973982E+01
  7.59869910E+00  7.59869910E+00 -1.51973982E+01  7.59869910E+00  7.59869910E+00
 -1.51973982E+01  7.59869910E+00  7.59869910E+00 -1.51973982E+01  7.59869910E+00
  7.59869910E+00 -1.51973982E+01  7.59869910E+00  7.59869910E+00 -1.51973982E+01
  7.59869910E+00  7.59869910E+00 -1.51973982E+01  7.59869910E+00  7.59869910E+00
 -1.51973982E+01  7.59869910E+00  7.59869910E+00 -1.51973982E+01  7.59869910E+00
  7.59869910E+00 -1.51973982E+01  7.59869910E+00  7.59869910E+00 -1.51973982E+01
  7.59869910E+00  7.59869910E+00 -1.51973982E+01  7.59869910E+00  7.59869910E+00
 -1.51973982E+01  7.59869910E+00  7.59869910E+00 -1.51973982E+01  7.59869910E+00
  7.59869910E+00 -1.51973982E+01  7.59869910E+00  7.59869910E+00 -1.51973982E+01
  7.59869910E+00  7.59869910E+00 -1.51973982E+01  7.59869910E+00  7.59869910E+00
 -1.51973982E+01  7.59869910E+00  7.59869910E+00 -1.51973982E+01  7.59869910E+00
  7.59869910E+00 -1.51973982E+01  7.59869910E+00  7.59869910E+00 -1.51973982E+01
  7.59869910E+00  7.59869910E+00 -1.51973982E+01  7.59869910E+00  7.59869910E+00
 -1.51973982E+01  7.59869910E+00  7.59869910E+00 -1.51973982E+01  7.59869910E+00
  7.59869910E+00 -1.51973982E+01  7.59869910E+00  7.59869910E+00 -1.51973982E+01
  7.59869910E+00  7.59869910E+00 -1.51973982E+01  7.59869910E+00  7.59869910E+00
 -1.51973982E+01  7.59869910E+00  7.59869910E+00 -1.51973982E+01  7.59869910E+00
  7.59869910E+00 -1.51973982E+01  7.59869910E+00  7.59869910E+00 -1.51973982E+01
  7.59869910E+00  7.59869910E+00 -1.51973982E+01  7.59869910E+00  7.59869910E+00
 -1.51973982E+01  7.59869910E+00  7.59869910E+00 -1.51973982E+01  7.59869910E+00
  7.59869910E+00 -1.51973982E+01  7.59869910E+00  7.59869910E+00 -1.51973982E+01
  7.59869910E+00  7.59869910E+00 -1.51973982E+01  7.59869910E+00  7.59869910E+00
 -1.51973982E+01  7.59869910E+00  7.59869910E+00 -1.51973982E+01  7.59869910E+00
  7.59869910E+00 -1.51973982E+01  7.59869910E+00  7.59869910E+00 -1.51973982E+01
  7.59869910E+00  7.59869910E+00 -1.51973982E+01  7.59869910E+00  7.59869910E+00
 -1.51973982E+01  7.59869910E+00  7.59869910E+00 -1.51973982E+01  7.59869910E+00
  7.59869910E+00 -1.51973982E+01  7.59869910E+00  7.59869910E+00 -1.51973982E+01
  7.59869910E+00  7.59869910E+00 -1.51973982E+01  7.59869910E+00  7.59869910E+00
 -1.51973982E+01  7.59869910E+00  7.59869910E+00 -1.51973982E+01  7.59869910E+00
  7.59869910E+00 -1.51973982E+01  7.59869910E+00  7.59869910E+00 -1.51973982E+01
  7.59869910E+00  7.59869910E+00 -1.51973982E+01  7.59869910E+00  7.59869910E+00
 -1.51973982E+01  7.59869910E+00  7.59869910E+00 -1.51973982E+01  7.59869910E+00
  7.59869910E+00 -1.51973982E+01  7.59869910E+00  7.59869910E+00 -1.51973982E+01
  7.59869910E+00  7.59869910E+00 -1.51973982E+01  7.59869910E+00  7.59869910E+00
 -1.51973982E+01  7.59869910E+00  7.59869910E+00 -1.51973982E+01  7.59869910E+00
  7.59869910E+00 -1.51973982E+01  7.59869910E+00  7.59869910E+00 -1.51973982E+01
  7.59869910E+00  7.59869910E+00 -1.51973982E+01  7.59869910E+00  7.59869910E+00
 -1.51973982E+01  7.59869910E+00  7.59869910E+00 -1.51973982E+01  7.59869910E+00
  7.59869910E+00 -1.51973982E+01  7.59869910E+00  7.59869910E+00 -1.51973982E+01
  7.59869910E+00  7.59869910E+00 -1.51973982E+01  7.59869910E+00  7.59869910E+00
 -1.51973982E+01  7.59869910E+00  7.59869910E+00 -1.51973982E+01  7.59869910E+00
  7.59869910E+00 -1.51973982E+01  7.59869910E+00  7.59869910E+00 -1.51973982E+01
  7.59869910E+00  7.59869910E+00 -1.51973982E+01  7.59869910E+00  7.59869910E+00
 -1.51973982E+01  7.59869910E+00  7.59869910E+00 -1.51973982E+01  7.59869910E+00
  7.59869910E+00 -1.51973982E+01  7.59869910E+00  7.59869910E+00 -1.51973982E+01
  7.59869910E+00  7.59869910E+00 -1.51973982E+01  7.59869910E+00  7.59869910E+00
 -1.51973982E+01  7.59869910E+00  7.59869910E+00 -1.51973982E+01  7.59869910E+00
  7.59869910E+00 -1.51973982E+01  7.59869910E+00  7.59869910E+00 -1.51973982E+01
  7.59869910E+00  7.59869910E+00 -1.51973982E+01  7.59869910E+00  7.59869910E+00
 -1.51973982E+01  7.59869910E+00  7.59869910E+00 -1.51973982E+01  7.59869910E+00
  7.59869910E+00 -1.51973982E+01  7.59869910E+00  7.59869910E+00 -1.51973982E+01
  7.59869910E+00  7.59869910E+00 -1.51973982E+01  7.59869910E+00  7.59869910E+00
 -1.51973982E+01  7.59869910E+00  7.59869910E+00 -1.51973982E+01  7.59869910E+00
  7.59869910E+00 -1.51973982E+01  7.59869910E+00  7.59869910E+00 -1.51973982E+01
  7.59869910E+00  7.59869910E+00 -1.51973982E+01  7.59869910E+00  7.59869910E+00
 -1.51973982E+01  7.59869910E+00  7.59869910E+00 -1.51973982E+01  7.59869910E+00
  7.59869910E+00 -1.51973982E+01  7.59869910E+00  7.59869910E+00 -1.51973982E+01
  7.59869910E+00  7.59869910E+00 -1.51973982E+01  7.59869910E+00  7.59869910E+00
 -1.51973982E+01  7.59869910E+00  7.59869910E+00 -1.51973982E+01  7.59869910E+00
  7.59869910E+00 -1.51973982E+01  7.59869910E+00  7.59869910E+00 -1.51973982E+01
  7.59869910E+00  7.59869910E+00 -1.51973982E+01  7.59869910E+00  7.59869910E+00
 -1.51973982E+01  7.59869910E+00  7.59869910E+00 -1.51973982E+01  7.59869910E+00
  7.59869910E+00 -1.51973982E+01  7.59869910E+00  7.59869910E+00 -1.51973982E+01
  7.59869910E+00  7.59869910E+00 -1.51973982E+01  7.59869910E+00  7.59869910E+00
 -1.51973982E+01  7.59869910E+00  7.59869910E+00 -1.51973982E+01  7.59869910E+00
  7.59869910E+00 -1.51973982E+01  7.59869910E+00  7.59869910E+00 -1.51973982E+01
  7.59869910E+00  7.59869910E+00 -1.51973982E+01  7.59869910E+00  7.59869910E+00
 -1.51973982E+01  7.59869910E+00  7.59869910E+00 -1.51973982E+01  7.59869910E+00
  7.59869910E+00 -1.51973982E+01  7.59869910E+00  7.59869910E+00 -1.51973982E+01
  7.59869910E+00  7.59869910E+00 -1.51973982E+01  7.59869910E+00  7.59869910E+00
 -1.51973982E+01  7.59869910E+00  7.59869910E+00 -1.51973982E+01  7.59869910E+00
  7.59869910E+00 -1.51973982E+01  7.59869910E+00  7.59869910E+00 -1.51973982E+01
  7.59869910E+00  7.59869910E+00 -1.51973982E+01  7.59869910E+00  7.59869910E+00
 -1.51973982E+01  7.59869910E+00  7.59869910E+00 -1.51973982E+01  7.59869910E+00
  7.59869910E+00 -1.51973982E+01  7.59869910E+00  7.59869910E+00 -1.51973982E+01
  7.59869910E+00  7.59869910E+00 -1.51973982E+01  7.59869910E+00  7.59869910E+00
 -1.51973982E+01  7.59869910E+00  7.59869910E+00 -1.51973982E+01  7.59869910E+00
  7.59869910E+00 -1.51973982E+01  7.59869910E+00  7.59869910E+00 -1.51973982E+01
  7.59869910E+00  7.59869910E+00 -1.51973982E+01  7.59869910E+00  7.59869910E+00
 -1.51973982E+01  7.59869910E+00  7.59869910E+00 -1.51973982E+01  7.59869910E+00
  7.59869910E+00 -1.51973982E+01  7.59869910E+00  7.59869910E+00 -1.51973982E+01
  7.59869910E+00  7.59869910E+00 -1.51973982E+01  7.59869910E+00  7.59869910E+00
 -1.51973982E+01  7.59869910E+00  7.59869910E+00 -1.51973982E+01  7.59869910E+00
  7.59869910E+00 -1.51973982E+01  7.59869910E+00  7.59869910E+00 -1.51973982E+01
  7.59869910E+00  7.59869910E+00 -1.51973982E+01  7.59869910E+00  7.59869910E+00
 -1.51973982E+01  7.59869910E+00  7.59869910E+00 -1.51973982E+01  7.59869910E+00
  7.59869910E+00 -1.51973982E+01  7.59869910E+00  7.59869910E+00 -1.51973982E+01
  7.59869910E+00  7.59869910E+00 -1.51973982E+01  7.59869910E+00  7.59869910E+00
 -1.51973982E+01  7.59869910E+00  7.59869910E+00 -1.51973982E+01  7.59869910E+00
  7.59869910E+00 -1.51973982E+01  7.59869910E+00  7.59869910E+00 -1.51973982E+01
  7.59869910E+00  7.59869910E+00 -1.51973982E+01  7.59869910E+00  7.59869910E+00
 -1.51973982E+01  7.59869910E+00  7.59869910E+00 -1.51973982E+01  7.59869910E+00
  7.59869910E+00 -1.51973982E+01  7.59869910E+00  7.59869910E+00 -1.51973982E+01
  7.59869910E+00  7.59869910E+00 -1.51973982E+01  7.59869910E+00  7.59869910E+00
 -1.51973982E+01  7.59869910E+00  7.59869910E+00 -1.51973982E+01  7.59869910E+00
  7.59869910E+00 -1.51973982E+01  7.59869910E+00  7.59869910E+00 -1.51973982E+01
  7.59869910E+00  7.59869910E+00 -1.51973982E+01  7.59869910E+00  7.59869910E+00
 -1.51973982E+01  7.59869910E+00  7.59869910E+00 -1.51973982E+01  7.59869910E+00
  7.59869910E+00 -1.51973982E+01  7.59869910E+00  7.59869910E+00 -1.51973982E+01
  7.59869910E+00  7.59869910E+00 -1.51973982E+01  7.59869910E+00  7.59869910E+00
 -1.51973982E+01  7.59869910E+00  7.59869910E+00 -1.51973982E+01  7.59869910E+00
  7.59869910E+00 -1.51973982E+01  7.59869910E+00  7.59869910E+00 -1.51973982E+01
  7.59869910E+00  7.59869910E+00 -1.51973982E+01  7.59869910E+00  7.59869910E+00
 -1.51973982E+01  7.59869910E+00  7.59869910E+00 -1.51973982E+01  7.59869910E+00
  7.59869910E+00 -1.51973982E+01  7.59869910E+00  7.59869910E+00 -1.51973982E+01
  7.59869910E+00  7.59869910E+00 -1.51973982E+01  7.59869910E+00  7.59869910E+00
 -1.51973982E+01  7.59869910E+00  7.59869910E+00 -1.51973982E+01  7.59869910E+00
  7.59869910E+00 -1.51973982E+01  7.59869910E+00  7.59869910E+00 -1.51973982E+01
  7.59869910E+00  7.59869910E+00 -1.51973982E+01  7.59869910E+00  7.59869910E+00
 -1.51973982E+01  7.59869910E+00  7.59869910E+00 -1.51973982E+01  7.59869910E+00
  7.59869910E+00 -1.51973982E+01  7.59869910E+00  7.59869910E+00 -1.51973982E+01
  7.59869910E+00  7.59869910E+00 -1.51973982E+01  7.59869910E+00  7.59869910E+00
 -1.51973982E+01  7.59869910E+00  7.59869910E+00 -1.51973982E+01  7.59869910E+00
  7.59869910E+00 -1.51973982E+01  7.59869910E+00  7.59869910E+00 -1.51973982E+01
  7.59869910E+00  7.59869910E+00 -1.51973982E+01  7.59869910E+00  7.59869910E+00
 -1.51973982E+01  7.59869910E+00  7.59869910E+00 -1.51973982E+01  7.59869910E+00
  7.59869910E+00 -1.51973982E+01  7.59869910E+00  7.59869910E+00 -1.51973982E+01
  7.59869910E+00  7.59869910E+00 -1.51973982E+01  7.59869910E+00  7.59869910E+00
 -1.51973982E+01  7.59869910E+00  7.59869910E+00 -1.51973982E+01  7.59869910E+00
  7.59869910E+00 -1.51973982E+01  7.59869910E+00  7.59869910E+00 -1.51973982E+01
  7.59869910E+00  7.59869910E+00 -1.51973982E+01  7.59869910E+00  7.59869910E+00
 -1.51973982E+01  7.59869910E+00  7.59869910E+00 -1.51973982E+01  7.59869910E+00
  7.59869910E+00 -1.51973982E+01  7.59869910E+00  7.59869910E+00 -1.51973982E+01
  7.59869910E+00  7.59869910E+00 -1.51973982E+01  7.59869910E+00  7.59869910E+00
 -1.51973982E+01  7.59869910E+00  7.59869910E+00 -1.51973982E+01  7.59869910E+00
  7.59869910E+00 -1.51973982E+01  7.59869910E+00  7.59869910E+00 -1.51973982E+01
  7.59869910E+00  7.59869910E+00 -1.51973982E+01  7.59869910E+00  7.59869910E+00
 -1.51973982E+01  7.59869910E+00  7.59869910E+00 -1.51973982E+01  7.59869910E+00
  7.59869910E+00 -1.51973982E+01  7.59869910E+00  7.59869910E+00 -1.51973982E+01
  7.59869910E+00  7.59869910E+00 -1.51973982E+01  7.59869910E+00  7.59869910E+00
 -1.51973982E+01  7.59869910E+00  7.59869910E+00 -1.51973982E+01  7.59869910E+00
  7.59869910E+00 -1.51973982E+01  7.59869910E+00  7.59869910E+00 -1.51973982E+01
  7.59869910E+00  7.59869910E+00 -1.51973982E+01  7.59869910E+00  7.59869910E+00
 -1.51973982E+01  7.59869910E+00  7.59869910E+00 -1.51973982E+01  7.59869910E+00
  7.59869910E+00 -1.51973982E+01  7.59869910E+00  7.59869910E+00 -1.51973982E+01
  7.59869910E+00  7.59869910E+00 -1.51973982E+01  7.59869910E+00  7.59869910E+00
 -1.51973982E+01  7.59869910E+00  7.59869910E+00 -1.51973982E+01  7.59869910E+00
  7.59869910E+00 -1.51973982E+01  7.59869910E+00  7.59869910E+00 -1.51973982E+01
  7.59869910E+00  7.59869910E+00 -1.51973982E+01  7.59869910E+00  7.59869910E+00
 -1.51973982E+01  7.59869910E+00  7.59869910E+00 -1.51973982E+01  7.59869910E+00
  7.59869910E+00 -1.51973982E+01  7.59869910E+00  7.59869910E+00 -1.51973982E+01
  7.59869910E+00  7.59869910E+00 -1.51973982E+01  7.59869910E+00  7.59869910E+00
 -1.51973982E+01  7.59869910E+00  7.59869910E+00 -1.51973982E+01  7.59869910E+00
  7.59869910E+00 -1.51973982E+01  7.59869910E+00  7.59869910E+00 -1.51973982E+01
  7.59869910E+00  7.59869910E+00 -1.51973982E+01  7.59869910E+00  7.59869910E+00
 -1.51973982E+01  7.59869910E+00  7.59869910E+00 -1.51973982E+01  7.59869910E+00
  7.59869910E+00 -1.51973982E+01  7.59869910E+00  7.59869910E+00 -1.51973982E+01
  7.59869910E+00  7.59869910E+00 -1.51973982E+01  7.59869910E+00  7.59869910E+00
 -1.51973982E+01  7.59869910E+00  7.59869910E+00 -1.51973982E+01  7.59869910E+00
  7.59869910E+00 -1.51973982E+01  7.59869910E+00  7.59869910E+00 -1.51973982E+01
  7.59869910E+00  7.59869910E+00 -1.51973982E+01  7.59869910E+00  7.59869910E+00
 -1.51973982E+01  7.59869910E+00  7.59869910E+00 -1.51973982E+01  7.59869910E+00
  7.59869910E+00 -1.51973982E+01  7.59869910E+00  7.59869910E+00 -1.51973982E+01
  7.59869910E+00  7.59869910E+00 -1.51973982E+01  7.59869910E+00  7.59869910E+00
 -1.51973982E+01  7.59869910E+00  7.59869910E+00 -1.51973982E+01  7.59869910E+00
  7.59869910E+00 -1.51973982E+01  7.59869910E+00  7.59869910E+00 -1.51973982E+01
  7.59869910E+00  7.59869910E+00 -1.51973982E+01  7.59869910E+00  7.59869910E+00
 -1.51973982E+01  7.59869910E+00  7.59869910E+00 -1.51973982E+01  7.59869910E+00
  7.59869910E+00 -1.51973982E+01  7.59869910E+00  7.59869910E+00 -1.51973982E+01
  7.59869910E+00  7.59869910E+00 -1.51973982E+01  7.59869910E+00  7.59869910E+00
 -1.51973982E+01  7.59869910E+00  7.59869910E+00 -1.51973982E+01  7.59869910E+00
  7.59869910E+00 -1.51973982E+01  7.59869910E+00  7.59869910E+00 -1.51973982E+01
  7.59869910E+00  7.59869910E+00 -1.51973982E+01  7.59869910E+00  7.59869910E+00
 -1.51973982E+01  7.59869910E+00  7.59869910E+00 -1.51973982E+01  7.59869910E+00
  7.59869910E+00 -1.51973982E+01  7.59869910E+00  7.59869910E+00 -1.51973982E+01
  7.59869910E+00  7.59869910E+00 -1.51973982E+01  7.59869910E+00  7.59869910E+00
 -1.51973982E+01  7.59869910E+00  7.59869910E+00 -1.51973982E+01  7.59869910E+00
  7.59869910E+00 -1.51973982E+01  7.59869910E+00  7.59869910E+00 -1.51973982E+01
  7.59869910E+00  7.59869910E+00 -1.51973982E+01  7.59869910E+00  7.59869910E+00
 -1.51973982E+01  7.59869910E+00  7.59869910E+00 -1.51973982E+01  7.59869910E+00
  7.59869910E+00 -1.51973982E+01  7.59869910E+00  7.59869910E+00 -1.51973982E+01
  7.59869910E+00  7.59869910E+00 -1.51973982E+01  7.59869910E+00  7.59869910E+00
 -1.51973982E+01  7.59869910E+00  7.59869910E+00 -1.51973982E+01  7.59869910E+00
  7.59869910E+00 -1.51973982E+01  7.59869910E+00  7.59869910E+00 -1.51973982E+01
  7.59869910E+00  7.59869910E+00 -1.51973982E+01  7.59869910E+00  7.59869910E+00
 -1.51973982E+01  7.59869910E+00  7.59869910E+00 -1.51973982E+01  7.59869910E+00
  7.59869910E+00 -1.51973982E+01  7.59869910E+00  7.59869910E+00 -1.51973982E+01
  7.59869910E+00  7.59869910E+00 -1.51973982E+01  7.59869910E+00  7.59869910E+00
 -1.51973982E+01  7.59869910E+00  7.59869910E+00 -1.51973982E+01  7.59869910E+00
  7.59869910E+00 -1.51973982E+01  7.59869910E+00  7.59869910E+00 -1.51973982E+01
  7.59869910E+00  7.59869910E+00 -1.51973982E+01  7.59869910E+00  7.59869910E+00
 -1.51973982E+01  7.59869910E+00  7.59869910E+00 -1.51973982E+01  7.59869910E+00
  7.59869910E+00 -1.51973982E+01  7.59869910E+00  7.59869910E+00 -1.51973982E+01
  7.59869910E+00  7.59869910E+00 -1.51973982E+01  7.59869910E+00  7.59869910E+00
 -1.51973982E+01  7.59869910E+00  7.59869910E+00 -1.51973982E+01  7.59869910E+00
  7.59869910E+00 -1.51973982E+01  7.59869910E+00  7.59869910E+00 -1.51973982E+01
  7.59869910E+00  7.59869910E+00 -1.51973982E+01  7.59869910E+00  7.59869910E+00
 -1.51973982E+01  7.59869910E+00  7.59869910E+00 -1.51973982E+01  7.59869910E+00
  7.59869910E+00 -1.51973982E+01  7.59869910E+00  7.59869910E+00 -1.51973982E+01
  7.59869910E+00  7.59869910E+00 -1.51973982E+01  7.59869910E+00  7.59869910E+00
 -1.51973982E+01  7.59869910E+00  7.59869910E+00 -1.51973982E+01  7.59869910E+00
  7.59869910E+00 -1.51973982E+01  7.59869910E+00  7.59869910E+00 -1.51973982E+01
  7.59869910E+00  7.59869910E+00 -1.51973982E+01  7.59869910E+00  7.59869910E+00
 -1.51973982E+01  7.59869910E+00  7.59869910E+00 -1.51973982E+01  7.59869910E+00
  7.59869910E+00 -1.51973982E+01  7.59869910E+00  7.59869910E+00 -1.51973982E+01
  7.59869910E+00  7.59869910E+00 -1.51973982E+01  7.59869910E+00  7.59869910E+00
 -1.51973982E+01  7.59869910E+00  7.59869910E+00 -1.51973982E+01  7.59869910E+00
  7.59869910E+00 -1.51973982E+01  7.59869910E+00  7.59869910E+00 -1.51973982E+01
  7.59869910E+00  7.59869910E+00 -1.51973982E+01  7.59869910E+00  7.59869910E+00
 -1.51973982E+01  7.59869910E+00  7.59869910E+00 -1.51973982E+01  7.59869910E+00
  7.59869910E+00 -1.51973982E+01  7.59869910E+00  7.59869910E+00 -1.51973982E+01
  7.59869910E+00  7.59869910E+00 -1.51973982E+01  7.59869910E+00  7.59869910E+00
 -1.51973982E+01  7.59869910E+00  7.59869910E+00 -1.51973982E+01  7.59869910E+00
  7.59869910E+00 -1.51973982E+01  7.59869910E+00  7.59869910E+00 -1.51973982E+01
  7.59869910E+00  7.59869910E+00 -1.51973982E+01  7.59869910E+00  7.59869910E+00
 -1.51973982E+01  7.59869910E+00  7.59869910E+00 -1.51973982E+01  7.59869910E+00
  7.59869910E+00 -1.51973982E+01  7.59869910E+00  7.59869910E+00 -1.51973982E+01
  7.59869910E+00  7.59869910E+00 -1.51973982E+01  7.59869910E+00  7.59869910E+00
 -1.51973982E+01  7.59869910E+00  7.59869910E+00 -1.51973982E+01  7.59869910E+00
  7.59869910E+00 -1.51973982E+01  7.59869910E+00  7.59869910E+00 -1.51973982E+01
  7.59869910E+00  7.59869910E+00 -1.51973982E+01  7.59869910E+00  7.59869910E+00
 -1.51973982E+01  7.59869910E+00  7.59869910E+00 -1.51973982E+01  7.59869910E+00
  7.59869910E+00 -1.51973982E+01  7.59869910E+00  7.59869910E+00 -1.51973982E+01
  7.59869910E+00  7.59869910E+00 -1.51973982E+01  7.59869910E+00  7.59869910E+00
 -1.51973982E+01  7.59869910E+00  7.59869910E+00 -1.51973982E+01  7.59869910E+00
  7.59869910E+00 -1.51973982E+01  7.59869910E+00  7.59869910E+00 -1.51973982E+01
  7.59869910E+00  7.59869910E+00 -1.51973982E+01  7.59869910E+00  7.59869910E+00
 -1.51973982E+01  7.59869910E+00  7.59869910E+00 -1.51973982E+01  7.59869910E+00
  7.59869910E+00 -1.51973982E+01  7.59869910E+00  7.59869910E+00 -1.51973982E+01
  7.59869910E+00  7.59869910E+00 -1.51973982E+01  7.59869910E+00  7.59869910E+00
 -1.51973982E+01  7.59869910E+00  7.59869910E+00 -1.51973982E+01  7.59869910E+00
  7.59869910E+00 -1.51973982E+01  7.59869910E+00  7.59869910E+00 -1.51973982E+01
  7.59869910E+00  7.59869910E+00 -1.51973982E+01  7.59869910E+00  7.59869910E+00
 -1.51973982E+01  7.59869910E+00  7.59869910E+00 -1.51973982E+01  7.59869910E+00
  7.59869910E+00 -1.51973982E+01  7.59869910E+00  7.59869910E+00 -1.51973982E+01
  7.59869910E+00  7.59869910E+00 -1.51973982E+01  7.59869910E+00  7.59869910E+00
 -1.51973982E+01  7.59869910E+00  7.59869910E+00 -1.51973982E+01  7.59869910E+00
  7.59869910E+00 -1.51973982E+01  7.59869910E+00  7.59869910E+00 -1.51973982E+01
  7.59869910E+00  7.59869910E+00 -1.51973982E+01  7.59869910E+00  7.59869910E+00
 -1.51973982E+01  7.59869910E+00  7.59869910E+00 -1.51973982E+01  7.59869910E+00
  7.59869910E+00 -1.51973982E+01  7.59869910E+00  7.59869910E+00 -1.51973982E+01
  7.59869910E+00  7.59869910E+00 -1.51973982E+01  7.59869910E+00  7.59869910E+00
 -1.51973982E+01  7.59869910E+00  7.59869910E+00 -1.51973982E+01  7.59869910E+00
  7.59869910E+00 -1.51973982E+01  7.59869910E+00  7.59869910E+00 -1.51973982E+01
  7.59869910E+00  7.59869910E+00 -1.51973982E+01  7.59869910E+00  7.59869910E+00
 -1.51973982E+01  7.59869910E+00  7.59869910E+00 -1.51973982E+01  7.59869910E+00
  7.59869910E+00 -1.51973982E+01  7.59869910E+00  7.59869910E+00 -1.51973982E+01
  7.59869910E+00  7.59869910E+00 -1.51973982E+01  7.59869910E+00  7.59869910E+00
 -1.51973982E+01  7.59869910E+00  7.59869910E+00 -1.51973982E+01  7.59869910E+00
  7.59869910E+00 -1.51973982E+01  7.59869910E+00  7.59869910E+00 -1.51973982E+01
  7.59869910E+00  7.59869910E+00 -1.51973982E+01  7.59869910E+00  7.59869910E+00
 -1.51973982E+01  7.59869910E+00  7.59869910E+00 -1.51973982E+01  7.59869910E+00
  7.59869910E+00 -1.51973982E+01  7.59869910E+00  7.59869910E+00 -1.51973982E+01
  7.59869910E+00  7.59869910E+00 -1.51973982E+01  7.59869910E+00  7.59869910E+00
 -1.51973982E+01  7.59869910E+00  7.59869910E+00 -1.51973982E+01  7.59869910E+00
  7.59869910E+00 -1.51973982E+01  7.59869910E+00  7.59869910E+00 -1.51973982E+01
  7.59869910E+00  7.59869910E+00 -1.51973982E+01  7.59869910E+00  7.59869910E+00
 -1.51973982E+01  7.59869910E+00  7.59869910E+00 -1.51973982E+01  7.59869910E+00
  7.59869910E+00 -1.51973982E+01  7.59869910E+00  7.59869910E+00 -1.51973982E+01
  7.59869910E+00  7.59869910E+00 -1.51973982E+01  7.59869910E+00  7.59869910E+00
 -1.51973982E+01  7.59869910E+00  7.59869910E+00 -1.51973982E+01  7.59869910E+00
  7.59869910E+00 -1.51973982E+01  7.59869910E+00  7.59869910E+00 -1.51973982E+01
  7.59869910E+00  7.59869910E+00 -1.51973982E+01  7.59869910E+00  7.59869910E+00
 -1.51973982E+01  7.59869910E+00  7.59869910E+00 -1.51973982E+01  7.59869910E+00
  7.59869910E+00 -1.51973982E+01  7.59869910E+00  7.59869910E+00 -1.51973982E+01
  7.59869910E+00  7.59869910E+00 -1.51973982E+01  7.59869910E+00  7.59869910E+00
 -1.51973982E+01  7.59869910E+00  7.59869910E+00 -1.51973982E+01  7.59869910E+00
  7.59869910E+00 -1.51973982E+01  7.59869910E+00  7.59869910E+00 -1.51973982E+01
  7.59869910E+00  7.59869910E+00 -1.51973982E+01  7.59869910E+00  7.59869910E+00
 -1.51973982E+01  7.59869910E+00  7.59869910E+00 -1.51973982E+01  7.59869910E+00
  7.59869910E+00 -1.51973982E+01  7.59869910E+00  7.59869910E+00 -1.51973982E+01
  7.59869910E+00  7.59869910E+00 -1.51973982E+01  7.59869910E+00  7.59869910E+00
 -1.51973982E+01  7.59869910E+00  7.59869910E+00 -1.51973982E+01  7.59869910E+00
  7.59869910E+00 -1.51973982E+01  7.59869910E+00  7.59869910E+00 -1.51973982E+01
  7.59869910E+00  7.59869910E+00 -1.51973982E+01  7.59869910E+00  7.59869910E+00
 -1.51973982E+01  7.59869910E+00  7.59869910E+00 -1.51973982E+01  7.59869910E+00
  7.59869910E+00 -1.51973982E+01  7.59869910E+00  7.59869910E+00 -1.51973982E+01
  7.59869910E+00  7.59869910E+00 -1.51973982E+01  7.59869910E+00  7.59869910E+00
 -1.51973982E+01  7.59869910E+00  7.59869910E+00 -1.51973982E+01  7.59869910E+00
  7.59869910E+00 -1.51973982E+01  7.59869910E+00  7.59869910E+00 -1.51973982E+01
  7.59869910E+00  7.59869910E+00 -1.51973982E+01  7.59869910E+00  7.59869910E+00
 -1.51973982E+01  7.59869910E+00  7.59869910E+00 -1.51973982E+01  7.59869910E+00
  7.59869910E+00 -1.51973982E+01  7.59869910E+00  7.59869910E+00 -1.51973982E+01
  7.59869910E+00  7.59869910E+00 -1.51973982E+01  7.59869910E+00  7.59869910E+00
 -1.51973982E+01  7.59869910E+00  7.59869910E+00 -1.51973982E+01  7.59869910E+00
  7.59869910E+00 -1.51973982E+01  7.59869910E+00  7.59869910E+00 -1.51973982E+01
  7.59869910E+00  7.59869910E+00 -1.51973982E+01  7.59869910E+00  7.59869910E+00
 -1.51973982E+01  7.59869910E+00  7.59869910E+00 -1.51973982E+01  7.59869910E+00
  7.59869910E+00 -1.51973982E+01  7.59869910E+00  7.59869910E+00 -1.51973982E+01
  7.59869910E+00  7.59869910E+00 -1.51973982E+01  7.59869910E+00  7.59869910E+00
 -1.51973982E+01  7.59869910E+00  7.59869910E+00 -1.51973982E+01  7.59869910E+00
  7.59869910E+00 -1.51973982E+01  7.59869910E+00  7.59869910E+00 -1.51973982E+01
  7.59869910E+00  7.59869910E+00 -1.51973982E+01  7.59869910E+00  7.59869910E+00
 -1.51973982E+01  7.59869910E+00  7.59869910E+00 -1.51973982E+01  7.59869910E+00
  7.59869910E+00 -1.51973982E+01  7.59869910E+00  7.59869910E+00 -1.51973982E+01
  7.59869910E+00  7.59869910E+00 -1.51973982E+01  7.59869910E+00  7.59869910E+00
 -1.51973982E+01  7.59869910E+00  7.59869910E+00 -1.51973982E+01  7.59869910E+00
  7.59869910E+00 -1.51973982E+01  7.59869910E+00  7.59869910E+00 -1.51973982E+01
  7.59869910E+00  7.59869910E+00 -1.51973982E+01  7.59869910E+00  7.59869910E+00
 -1.51973982E+01  7.59869910E+00  7.59869910E+00 -1.51973982E+01  7.59869910E+00
  7.59869910E+00 -1.51973982E+01  7.59869910E+00  7.59869910E+00 -1.51973982E+01
  7.59869910E+00  7.59869910E+00 -1.51973982E+01  7.59869910E+00  7.59869910E+00
 -1.51973982E+01  7.59869910E+00  7.59869910E+00 -1.51973982E+01  7.59869910E+00
  7.59869910E+00 -1.51973982E+01  7.59869910E+00  7.59869910E+00 -1.51973982E+01
  7.59869910E+00  7.59869910E+00 -1.51973982E+01  7.59869910E+00  7.59869910E+00
 -1.51973982E+01  7.59869910E+00  7.59869910E+00 -1.51973982E+01  7.59869910E+00
  7.59869910E+00 -1.51973982E+01  7.59869910E+00  7.59869910E+00 -1.51973982E+01
  7.59869910E+00  7.59869910E+00 -1.51973982E+01  7.59869910E+00  7.59869910E+00
 -1.51973982E+01  7.59869910E+00  7.59869910E+00 -1.51973982E+01  7.59869910E+00
  7.59869910E+00 -1.51973982E+01  7.59869910E+00  7.59869910E+00 -1.51973982E+01
  7.59869910E+00  7.59869910E+00 -1.51973982E+01  7.59869910E+00  7.59869910E+00
 -1.51973982E+01  7.59869910E+00  7.59869910E+00 -1.51973982E+01  7.59869910E+00
  7.59869910E+00 -1.51973982E+01  7.59869910E+00  7.59869910E+00 -1.51973982E+01
  7.59869910E+00  7.59869910E+00 -1.51973982E+01  7.59869910E+00  7.59869910E+00
 -1.51973982E+01  7.59869910E+00  7.59869910E+00 -1.51973982E+01  7.59869910E+00
  7.59869910E+00 -1.51973982E+01  7.59869910E+00  7.59869910E+00 -1.51973982E+01
  7.59869910E+00  7.59869910E+00 -1.51973982E+01  7.59869910E+00  7.59869910E+00
 -1.51973982E+01  7.59869910E+00  7.59869910E+00 -1.51973982E+01  7.59869910E+00
  7.59869910E+00 -1.51973982E+01  7.59869910E+00  7.59869910E+00 -1.51973982E+01
  7.59869910E+00  7.59869910E+00 -1.51973982E+01  7.59869910E+00  7.59869910E+00
 -1.51973982E+01  7.59869910E+00  7.59869910E+00 -1.51973982E+01  7.59869910E+00
  7.59869910E+00 -1.51973982E+01  7.59869910E+00  7.59869910E+00 -1.51973982E+01
  7.59869910E+00  7.59869910E+00 -1.51973982E+01  7.59869910E+00  7.59869910E+00
 -1.51973982E+01  7.59869910E+00  7.59869910E+00 -1.51973982E+01  7.59869910E+00
  7.59869910E+00 -1.51973982E+01  7.59869910E+00  7.59869910E+00 -1.51973982E+01
  7.59869910E+00  7.59869910E+00 -1.51973982E+01  7.59869910E+00  7.59869910E+00
 -1.51973982E+01  7.59869910E+00  7.59869910E+00 -1.51973982E+01  7.59869910E+00
  7.59869910E+00 -1.51973982E+01  7.59869910E+00  7.59869910E+00 -1.51973982E+01
  7.59869910E+00  7.59869910E+00 -1.51973982E+01  7.59869910E+00  7.59869910E+00
 -1.51973982E+01  7.59869910E+00  7.59869910E+00 -1.51973982E+01  7.59869910E+00
  7.59869910E+00 -1.51973982E+01  7.59869910E+00  7.59869910E+00 -1.51973982E+01
  7.59869910E+00  7.59869910E+00 -1.51973982E+01  7.59869910E+00  7.59869910E+00
 -1.51973982E+01  7.59869910E+00  7.59869910E+00 -1.51973982E+01  7.59869910E+00
  7.59869910E+00 -1.51973982E+01  7.59869910E+00  7.59869910E+00 -1.51973982E+01
  7.59869910E+00  7.59869910E+00 -1.51973982E+01  7.59869910E+00  7.59869910E+00
 -1.51973982E+01  7.59869910E+00  7.59869910E+00 -1.51973982E+01  7.59869910E+00
  7.59869910E+00 -1.51973982E+01  7.59869910E+00  7.59869910E+00 -1.51973982E+01
  7.59869910E+00  7.59869910E+00 -1.51973982E+01  7.59869910E+00  7.59869910E+00
 -1.51973982E+01  7.59869910E+00  7.59869910E+00 -1.51973982E+01  7.59869910E+00
  7.59869910E+00 -1.51973982E+01  7.59869910E+00  7.59869910E+00 -1.51973982E+01
  7.59869910E+00  7.59869910E+00 -1.51973982E+01  7.59869910E+00  7.59869910E+00
 -1.51973982E+01  7.59869910E+00  7.59869910E+00 -1.51973982E+01  7.59869910E+00
  7.59869910E+00 -1.51973982E+01  7.59869910E+00  7.59869910E+00 -1.51973982E+01
  7.59869910E+00  7.59869910E+00 -1.51973982E+01  7.59869910E+00  7.59869910E+00
 -1.51973982E+01  7.59869910E+00  7.59869910E+00 -1.51973982E+01  7.59869910E+00
  7.59869910E+00 -1.51973982E+01  7.59869910E+00  7.59869910E+00 -1.51973982E+01
  7.59869910E+00  7.59869910E+00 -1.51973982E+01  7.59869910E+00  7.59869910E+00
 -1.51973982E+01  7.59869910E+00  7.59869910E+00 -1.51973982E+01  7.59869910E+00
  7.59869910E+00 -1.51973982E+01  7.59869910E+00  7.59869910E+00 -1.51973982E+01
  7.59869910E+00  7.59869910E+00 -1.51973982E+01  7.59869910E+00  7.59869910E+00
 -1.51973982E+01  7.59869910E+00  7.59869910E+00 -1.51973982E+01  7.59869910E+00
  7.59869910E+00 -1.51973982E+01  7.59869910E+00  7.59869910E+00 -1.51973982E+01
  7.59869910E+00  7.59869910E+00 -1.51973982E+01  7.59869910E+00  7.59869910E+00
 -1.51973982E+01  7.59869910E+00  7.59869910E+00 -1.51973982E+01  7.59869910E+00
  7.59869910E+00 -1.51973982E+01  7.59869910E+00  7.59869910E+00 -1.51973982E+01
  7.59869910E+00  7.59869910E+00 -1.51973982E+01  7.59869910E+00  7.59869910E+00
 -1.51973982E+01  7.59869910E+00  7.59869910E+00 -1.51973982E+01  7.59869910E+00
  7.59869910E+00 -1.51973982E+01  7.59869910E+00  7.59869910E+00 -1.51973982E+01
  7.59869910E+00  7.59869910E+00 -1.51973982E+01  7.59869910E+00  7.59869910E+00
 -1.51973982E+01  7.59869910E+00  7.59869910E+00 -1.51973982E+01  7.59869910E+00
  7.59869910E+00 -1.51973982E+01  7.59869910E+00  7.59869910E+00 -1.51973982E+01
  7.59869910E+00  7.59869910E+00 -1.51973982E+01  7.59869910E+00  7.59869910E+00
 -1.51973982E+01  7.59869910E+00  7.59869910E+00 -1.51973982E+01  7.59869910E+00
  7.59869910E+00 -1.51973982E+01  7.59869910E+00  7.59869910E+00 -1.51973982E+01
  7.59869910E+00  7.59869910E+00 -1.51973982E+01  7.59869910E+00  7.59869910E+00
 -1.51973982E+01  7.59869910E+00  7.59869910E+00 -1.51973982E+01  7.59869910E+00
  7.59869910E+00 -1.51973982E+01  7.59869910E+00  7.59869910E+00 -1.51973982E+01
  7.59869910E+00  7.59869910E+00 -1.51973982E+01  7.59869910E+00  7.59869910E+00
 -1.51973982E+01  7.59869910E+00  7.59869910E+00 -1.51973982E+01  7.59869910E+00
  7.59869910E+00 -1.51973982E+01  7.59869910E+00  7.59869910E+00 -1.51973982E+01
  7.59869910E+00  7.59869910E+00 -1.51973982E+01  7.59869910E+00  7.59869910E+00
 -1.51973982E+01  7.59869910E+00  7.59869910E+00 -1.51973982E+01  7.59869910E+00
  7.59869910E+00 -1.51973982E+01  7.59869910E+00  7.59869910E+00 -1.51973982E+01
  7.59869910E+00  7.59869910E+00 -1.51973982E+01  7.59869910E+00  7.59869910E+00
 -1.51973982E+01  7.59869910E+00  7.59869910E+00 -1.51973982E+01  7.59869910E+00
  7.59869910E+00 -1.51973982E+01  7.59869910E+00  7.59869910E+00 -1.51973982E+01
  7.59869910E+00  7.59869910E+00 -1.51973982E+01  7.59869910E+00  7.59869910E+00
 -1.51973982E+01  7.59869910E+00  7.59869910E+00 -1.51973982E+01  7.59869910E+00
  7.59869910E+00 -1.51973982E+01  7.59869910E+00  7.59869910E+00 -1.51973982E+01
  7.59869910E+00  7.59869910E+00 -1.51973982E+01  7.59869910E+00  7.59869910E+00
 -1.51973982E+01  7.59869910E+00  7.59869910E+00 -1.51973982E+01  7.59869910E+00
  7.59869910E+00 -1.51973982E+01  7.59869910E+00  7.59869910E+00 -1.51973982E+01
  7.59869910E+00  7.59869910E+00 -1.51973982E+01  7.59869910E+00  7.59869910E+00
 -1.51973982E+01  7.59869910E+00  7.59869910E+00 -1.51973982E+01  7.59869910E+00
  7.59869910E+00 -1.51973982E+01  7.59869910E+00  7.59869910E+00 -1.51973982E+01
  7.59869910E+00  7.59869910E+00 -1.51973982E+01  7.59869910E+00  7.59869910E+00
 -1.51973982E+01  7.59869910E+00  7.59869910E+00 -1.51973982E+01  7.59869910E+00
  7.59869910E+00 -1.51973982E+01  7.59869910E+00  7.59869910E+00 -1.51973982E+01
  7.59869910E+00  7.59869910E+00 -1.51973982E+01  7.59869910E+00  7.59869910E+00
 -1.51973982E+01  7.59869910E+00  7.59869910E+00 -1.51973982E+01  7.59869910E+00
  7.59869910E+00 -1.51973982E+01  7.59869910E+00  7.59869910E+00 -1.51973982E+01
  7.59869910E+00  7.59869910E+00 -1.51973982E+01  7.59869910E+00  7.59869910E+00
 -1.51973982E+01  7.59869910E+00  7.59869910E+00 -1.51973982E+01  7.59869910E+00
  7.59869910E+00 -1.51973982E+01  7.59869910E+00  7.59869910E+00 -1.51973982E+01
  7.59869910E+00  7.59869910E+00 -1.51973982E+01  7.59869910E+00  7.59869910E+00
 -1.51973982E+01  7.59869910E+00  7.59869910E+00 -1.51973982E+01  7.59869910E+00
  7.59869910E+00 -1.51973982E+01  7.59869910E+00  7.59869910E+00 -1.51973982E+01
  7.59869910E+00  7.59869910E+00 -1.51973982E+01  7.59869910E+00  7.59869910E+00
 -1.51973982E+01  7.59869910E+00  7.59869910E+00 -1.51973982E+01  7.59869910E+00
  7.59869910E+00 -1.51973982E+01  7.59869910E+00  7.59869910E+00 -1.51973982E+01
  7.59869910E+00  7.59869910E+00 -1.51973982E+01  7.59869910E+00  7.59869910E+00
 -1.51973982E+01  7.59869910E+00  7.59869910E+00 -1.51973982E+01  7.59869910E+00
  7.59869910E+00 -1.51973982E+01  7.59869910E+00  7.59869910E+00 -1.51973982E+01
  7.59869910E+00  7.59869910E+00 -1.51973982E+01  7.59869910E+00  7.59869910E+00
 -1.51973982E+01  7.59869910E+00  7.59869910E+00 -1.51973982E+01  7.59869910E+00
  7.59869910E+00 -1.51973982E+01  7.59869910E+00  7.59869910E+00 -1.51973982E+01
  7.59869910E+00  7.59869910E+00 -1.51973982E+01  7.59869910E+00  7.59869910E+00
 -1.51973982E+01  7.59869910E+00  7.59869910E+00 -1.51973982E+01  7.59869910E+00
  7.59869910E+00 -1.51973982E+01  7.59869910E+00  7.59869910E+00 -1.51973982E+01
  7.59869910E+00  7.59869910E+00 -1.51973982E+01  7.59869910E+00  7.59869910E+00
 -1.51973982E+01  7.59869910E+00  7.59869910E+00 -1.51973982E+01  7.59869910E+00
  7.59869910E+00 -1.51973982E+01  7.59869910E+00  7.59869910E+00 -1.51973982E+01
  7.59869910E+00  7.59869910E+00 -1.51973982E+01  7.59869910E+00  7.59869910E+00
 -1.51973982E+01  7.59869910E+00  7.59869910E+00 -1.51973982E+01  7.59869910E+00
  7.59869910E+00 -1.51973982E+01  7.59869910E+00  7.59869910E+00 -1.51973982E+01
  7.59869910E+00  7.59869910E+00 -1.51973982E+01  7.59869910E+00  7.59869910E+00
 -1.51973982E+01  7.59869910E+00  7.59869910E+00 -1.51973982E+01  7.59869910E+00
  7.59869910E+00 -1.51973982E+01  7.59869910E+00  7.59869910E+00 -1.51973982E+01
  7.59869910E+00  7.59869910E+00 -1.51973982E+01  7.59869910E+00  7.59869910E+00
 -1.51973982E+01  7.59869910E+00  7.59869910E+00 -1.51973982E+01  7.59869910E+00
  7.59869910E+00 -1.51973982E+01  7.59869910E+00  7.59869910E+00 -1.51973982E+01
  7.59869910E+00  7.59869910E+00 -1.51973982E+01  7.59869910E+00  7.59869910E+00
 -1.51973982E+01  7.59869910E+00  7.59869910E+00 -1.51973982E+01  7.59869910E+00
  7.59869910E+00 -1.51973982E+01  7.59869910E+00  7.59869910E+00 -1.51973982E+01
  7.59869910E+00  7.59869910E+00 -1.51973982E+01  7.59869910E+00  7.59869910E+00
 -1.51973982E+01  7.59869910E+00  7.59869910E+00 -1.51973982E+01  7.59869910E+00
  7.59869910E+00 -1.51973982E+01  7.59869910E+00  7.59869910E+00 -1.51973982E+01
  7.59869910E+00  7.59869910E+00 -1.51973982E+01  7.59869910E+00  7.59869910E+00
 -1.51973982E+01  7.59869910E+00  7.59869910E+00 -1.51973982E+01  7.59869910E+00
  7.59869910E+00 -1.51973982E+01  7.59869910E+00  7.59869910E+00 -1.51973982E+01
  7.59869910E+00  7.59869910E+00 -1.51973982E+01  7.59869910E+00  7.59869910E+00
 -1.51973982E+01  7.59869910E+00  7.59869910E+00 -1.51973982E+01  7.59869910E+00
  7.59869910E+00 -1.51973982E+01  7.59869910E+00  7.59869910E+00 -1.51973982E+01
  7.59869910E+00  7.59869910E+00 -1.51973982E+01  7.59869910E+00  7.59869910E+00
 -1.51973982E+01  7.59869910E+00  7.59869910E+00 -1.51973982E+01  7.59869910E+00
  7.59869910E+00 -1.51973982E+01  7.59869910E+00  7.59869910E+00 -1.51973982E+01
  7.59869910E+00  7.59869910E+00 -1.51973982E+01  7.59869910E+00  7.59869910E+00
 -1.51973982E+01  7.59869910E+00  7.59869910E+00 -1.51973982E+01  7.59869910E+00
  7.59869910E+00 -1.51973982E+01  7.59869910E+00  7.59869910E+00 -1.51973982E+01
  7.59869910E+00  7.59869910E+00 -1.51973982E+01  7.59869910E+00  7.59869910E+00
 -1.51973982E+01  7.59869910E+00  7.59869910E+00 -1.51973982E+01  7.59869910E+00
  7.59869910E+00 -1.51973982E+01  7.59869910E+00  7.59869910E+00 -1.51973982E+01
  7.59869910E+00  7.59869910E+00 -1.51973982E+01  7.59869910E+00  7.59869910E+00
 -1.51973982E+01  7.59869910E+00  7.59869910E+00 -1.51973982E+01  7.59869910E+00
  7.59869910E+00 -1.51973982E+01  7.59869910E+00  7.59869910E+00 -1.51973982E+01
  7.59869910E+00  7.59869910E+00 -1.51973982E+01  7.59869910E+00  7.59869910E+00
 -1.51973982E+01  7.59869910E+00  7.59869910E+00 -1.51973982E+01  7.59869910E+00
  7.59869910E+00 -1.51973982E+01  7.59869910E+00  7.59869910E+00 -1.51973982E+01
  7.59869910E+00  7.59869910E+00 -1.51973982E+01  7.59869910E+00  7.59869910E+00
 -1.51973982E+01  7.59869910E+00  7.59869910E+00 -1.51973982E+01  7.59869910E+00
  7.59869910E+00 -1.51973982E+01  7.59869910E+00  7.59869910E+00 -1.51973982E+01
  7.59869910E+00  7.59869910E+00 -1.51973982E+01  7.59869910E+00  7.59869910E+00
 -1.51973982E+01  7.59869910E+00  7.59869910E+00 -1.51973982E+01  7.59869910E+00
  7.59869910E+00 -1.51973982E+01  7.59869910E+00  7.59869910E+00 -1.51973982E+01
  7.59869910E+00  7.59869910E+00 -1.51973982E+01  7.59869910E+00  7.59869910E+00
 -1.51973982E+01  7.59869910E+00  7.59869910E+00 -1.51973982E+01  7.59869910E+00
  7.59869910E+00 -1.51973982E+01  7.59869910E+00  7.59869910E+00 -1.51973982E+01
  7.59869910E+00  7.59869910E+00 -1.51973982E+01  7.59869910E+00  7.59869910E+00
 -1.51973982E+01  7.59869910E+00  7.59869910E+00 -1.51973982E+01  7.59869910E+00
  7.59869910E+00 -1.51973982E+01  7.59869910E+00  7.59869910E+00 -1.51973982E+01
  7.59869910E+00  7.59869910E+00 -1.51973982E+01  7.59869910E+00  7.59869910E+00
 -1.51973982E+01  7.59869910E+00  7.59869910E+00 -1.51973982E+01  7.59869910E+00
  7.59869910E+00 -1.51973982E+01  7.59869910E+00  7.59869910E+00 -1.51973982E+01
  7.59869910E+00  7.59869910E+00 -1.51973982E+01  7.59869910E+00  7.59869910E+00
 -1.51973982E+01  7.59869910E+00  7.59869910E+00 -1.51973982E+01  7.59869910E+00
  7.59869910E+00 -1.51973982E+01  7.59869910E+00  7.59869910E+00 -1.51973982E+01
  7.59869910E+00  7.59869910E+00 -1.51973982E+01  7.59869910E+00  7.59869910E+00
 -1.51973982E+01  7.59869910E+00  7.59869910E+00 -1.51973982E+01  7.59869910E+00
  7.59869910E+00 -1.51973982E+01  7.59869910E+00  7.59869910E+00 -1.51973982E+01
  7.59869910E+00  7.59869910E+00 -1.51973982E+01  7.59869910E+00  7.59869910E+00
 -1.51973982E+01  7.59869910E+00  7.59869910E+00 -1.51973982E+01  7.59869910E+00
  7.59869910E+00 -1.51973982E+01  7.59869910E+00  7.59869910E+00 -1.51973982E+01
  7.59869910E+00  7.59869910E+00 -1.51973982E+01  7.59869910E+00  7.59869910E+00
 -1.51973982E+01  7.59869910E+00  7.59869910E+00 -1.51973982E+01  7.59869910E+00
  7.59869910E+00 -1.51973982E+01  7.59869910E+00  7.59869910E+00 -1.51973982E+01
  7.59869910E+00  7.59869910E+00 -1.51973982E+01  7.59869910E+00  7.59869910E+00
 -1.51973982E+01  7.59869910E+00  7.59869910E+00 -1.51973982E+01  7.59869910E+00
  7.59869910E+00 -1.51973982E+01  7.59869910E+00  7.59869910E+00 -1.51973982E+01
  7.59869910E+00  7.59869910E+00 -1.51973982E+01  7.59869910E+00  7.59869910E+00
 -1.51973982E+01  7.59869910E+00  7.59869910E+00 -1.51973982E+01  7.59869910E+00
  7.59869910E+00 -1.51973982E+01  7.59869910E+00  7.59869910E+00 -1.51973982E+01
  7.59869910E+00  7.59869910E+00 -1.51973982E+01  7.59869910E+00  7.59869910E+00
 -1.51973982E+01  7.59869910E+00  7.59869910E+00 -1.51973982E+01  7.59869910E+00
  7.59869910E+00 -1.51973982E+01  7.59869910E+00  7.59869910E+00 -1.51973982E+01
  7.59869910E+00  7.59869910E+00 -1.51973982E+01  7.59869910E+00  7.59869910E+00
 -1.51973982E+01  7.59869910E+00  7.59869910E+00 -1.51973982E+01  7.59869910E+00
  7.59869910E+00 -1.51973982E+01  7.59869910E+00  7.59869910E+00 -1.51973982E+01
  7.59869910E+00  7.59869910E+00 -1.51973982E+01  7.59869910E+00  7.59869910E+00
 -1.51973982E+01  7.59869910E+00  7.59869910E+00 -1.51973982E+01  7.59869910E+00
  7.59869910E+00 -1.51973982E+01  7.59869910E+00  7.59869910E+00 -1.51973982E+01
  7.59869910E+00  7.59869910E+00 -1.51973982E+01  7.59869910E+00  7.59869910E+00
 -1.51973982E+01  7.59869910E+00  7.59869910E+00 -1.51973982E+01  7.59869910E+00
  7.59869910E+00 -1.51973982E+01  7.59869910E+00  7.59869910E+00 -1.51973982E+01
  7.59869910E+00  7.59869910E+00 -1.51973982E+01  7.59869910E+00  7.59869910E+00
 -1.51973982E+01  7.59869910E+00  7.59869910E+00 -1.51973982E+01  7.59869910E+00
  7.59869910E+00 -1.51973982E+01  7.59869910E+00  7.59869910E+00 -1.51973982E+01
  7.59869910E+00  7.59869910E+00 -1.51973982E+01  7.59869910E+00  7.59869910E+00
 -1.51973982E+01  7.59869910E+00  7.59869910E+00 -1.51973982E+01  7.59869910E+00
  7.59869910E+00 -1.51973982E+01  7.59869910E+00  7.59869910E+00 -1.51973982E+01
  7.59869910E+00  7.59869910E+00 -1.51973982E+01  7.59869910E+00  7.59869910E+00
 -1.51973982E+01  7.59869910E+00  7.59869910E+00 -1.51973982E+01  7.59869910E+00
  7.59869910E+00 -1.51973982E+01  7.59869910E+00  7.59869910E+00 -1.51973982E+01
  7.59869910E+00  7.59869910E+00 -1.51973982E+01  7.59869910E+00  7.59869910E+00
 -1.51973982E+01  7.59869910E+00  7.59869910E+00 -1.51973982E+01  7.59869910E+00
  7.59869910E+00 -1.51973982E+01  7.59869910E+00  7.59869910E+00 -1.51973982E+01
  7.59869910E+00  7.59869910E+00 -1.51973982E+01  7.59869910E+00  7.59869910E+00
 -1.51973982E+01  7.59869910E+00  7.59869910E+00 -1.51973982E+01  7.59869910E+00
  7.59869910E+00 -1.51973982E+01  7.59869910E+00  7.59869910E+00 -1.51973982E+01
  7.59869910E+00  7.59869910E+00 -1.51973982E+01  7.59869910E+00  7.59869910E+00
 -1.51973982E+01  7.59869910E+00  7.59869910E+00 -1.51973982E+01  7.59869910E+00
  7.59869910E+00 -1.51973982E+01  7.59869910E+00  7.59869910E+00 -1.51973982E+01
  7.59869910E+00  7.59869910E+00 -1.51973982E+01  7.59869910E+00  7.59869910E+00
 -1.51973982E+01  7.59869910E+00  7.59869910E+00 -1.51973982E+01  7.59869910E+00
  7.59869910E+00 -1.51973982E+01  7.59869910E+00  7.59869910E+00 -1.51973982E+01
  7.59869910E+00  7.59869910E+00 -1.51973982E+01  7.59869910E+00  7.59869910E+00
 -1.51973982E+01  7.59869910E+00  7.59869910E+00 -1.51973982E+01  7.59869910E+00
  7.59869910E+00 -1.51973982E+01  7.59869910E+00  7.59869910E+00 -1.51973982E+01
  7.59869910E+00  7.59869910E+00 -1.51973982E+01  7.59869910E+00  7.59869910E+00
 -1.51973982E+01  7.59869910E+00  7.59869910E+00 -1.51973982E+01  7.59869910E+00
  7.59869910E+00 -1.51973982E+01  7.59869910E+00  7.59869910E+00 -1.51973982E+01
  7.59869910E+00  7.59869910E+00 -1.51973982E+01  7.59869910E+00  7.59869910E+00
 -1.51973982E+01  7.59869910E+00  7.59869910E+00 -1.51973982E+01  7.59869910E+00
  7.59869910E+00 -1.51973982E+01  7.59869910E+00  7.59869910E+00 -1.51973982E+01
  7.59869910E+00  7.59869910E+00 -1.51973982E+01  7.59869910E+00  7.59869910E+00
 -1.51973982E+01  7.59869910E+00  7.59869910E+00 -1.51973982E+01  7.59869910E+00
  7.59869910E+00 -1.51973982E+01  7.59869910E+00  7.59869910E+00 -1.51973982E+01
  7.59869910E+00  7.59869910E+00 -1.51973982E+01  7.59869910E+00  7.59869910E+00
 -1.51973982E+01  7.59869910E+00  7.59869910E+00 -1.51973982E+01  7.59869910E+00
  7.59869910E+00 -1.51973982E+01  7.59869910E+00  7.59869910E+00 -1.51973982E+01
  7.59869910E+00  7.59869910E+00 -1.51973982E+01  7.59869910E+00  7.59869910E+00
 -1.51973982E+01  7.59869910E+00  7.59869910E+00 -1.51973982E+01  7.59869910E+00
  7.59869910E+00 -1.51973982E+01  7.59869910E+00  7.59869910E+00 -1.51973982E+01
  7.59869910E+00  7.59869910E+00 -1.51973982E+01  7.59869910E+00  7.59869910E+00
 -1.51973982E+01  7.59869910E+00  7.59869910E+00 -1.51973982E+01  7.59869910E+00
  7.59869910E+00 -1.51973982E+01  7.59869910E+00  7.59869910E+00 -1.51973982E+01
  7.59869910E+00  7.59869910E+00 -1.51973982E+01  7.59869910E+00  7.59869910E+00
 -1.51973982E+01  7.59869910E+00  7.59869910E+00 -1.51973982E+01  7.59869910E+00
  7.59869910E+00 -1.51973982E+01  7.59869910E+00  7.59869910E+00 -1.51973982E+01
  7.59869910E+00  7.59869910E+00 -1.51973982E+01  7.59869910E+00  7.59869910E+00
 -1.51973982E+01  7.59869910E+00  7.59869910E+00 -1.51973982E+01  7.59869910E+00
  7.59869910E+00 -1.51973982E+01  7.59869910E+00  7.59869910E+00 -1.51973982E+01
  7.59869910E+00  7.59869910E+00 -1.51973982E+01  7.59869910E+00  7.59869910E+00
 -1.51973982E+01  7.59869910E+00  7.59869910E+00 -1.51973982E+01  7.59869910E+00
  7.59869910E+00 -1.51973982E+01  7.59869910E+00  7.59869910E+00 -1.51973982E+01
  7.59869910E+00  7.59869910E+00 -1.51973982E+01  7.59869910E+00  7.59869910E+00
 -1.51973982E+01  7.59869910E+00  7.59869910E+00 -1.51973982E+01  7.59869910E+00
  7.59869910E+00 -1.51973982E+01  7.59869910E+00  7.59869910E+00 -1.51973982E+01
  7.59869910E+00  7.59869910E+00 -1.51973982E+01  7.59869910E+00  7.59869910E+00
 -1.51973982E+01  7.59869910E+00  7.59869910E+00 -1.51973982E+01  7.59869910E+00
  7.59869910E+00 -1.51973982E+01  7.59869910E+00  7.59869910E+00 -1.51973982E+01
  7.59869910E+00  7.59869910E+00 -1.51973982E+01  7.59869910E+00  7.59869910E+00
 -1.51973982E+01  7.59869910E+00  7.59869910E+00 -1.51973982E+01  7.59869910E+00
  7.59869910E+00 -1.51973982E+01  7.59869910E+00  7.59869910E+00 -1.51973982E+01
  7.59869910E+00  7.59869910E+00 -1.51973982E+01  7.59869910E+00  7.59869910E+00
 -1.51973982E+01  7.59869910E+00  7.59869910E+00 -1.51973982E+01  7.59869910E+00
  7.59869910E+00 -1.51973982E+01  7.59869910E+00  7.59869910E+00 -1.51973982E+01
  7.59869910E+00  7.59869910E+00 -1.51973982E+01  7.59869910E+00  7.59869910E+00
 -1.51973982E+01  7.59869910E+00  7.59869910E+00 -1.51973982E+01  7.59869910E+00
  7.59869910E+00 -1.51973982E+01  7.59869910E+00  7.59869910E+00 -1.51973982E+01
  7.59869910E+00  7.59869910E+00 -1.51973982E+01  7.59869910E+00  7.59869910E+00
 -1.51973982E+01  7.59869910E+00  7.59869910E+00 -1.51973982E+01  7.59869910E+00
  7.59869910E+00 -1.51973982E+01  7.59869910E+00  7.59869910E+00 -1.51973982E+01
  7.59869910E+00  7.59869910E+00 -1.51973982E+01  7.59869910E+00  7.59869910E+00
 -1.51973982E+01  7.59869910E+00  7.59869910E+00 -1.51973982E+01  7.59869910E+00
  7.59869910E+00 -1.51973982E+01  7.59869910E+00  7.59869910E+00 -1.51973982E+01
  7.59869910E+00  7.59869910E+00 -1.51973982E+01  7.59869910E+00  7.59869910E+00
 -1.51973982E+01  7.59869910E+00  7.59869910E+00 -1.51973982E+01  7.59869910E+00
  7.59869910E+00 -1.51973982E+01  7.59869910E+00  7.59869910E+00 -1.51973982E+01
  7.59869910E+00  7.59869910E+00 -1.51973982E+01  7.59869910E+00  7.59869910E+00
 -1.51973982E+01  7.59869910E+00  7.59869910E+00 -1.51973982E+01  7.59869910E+00
  7.59869910E+00 -1.51973982E+01  7.59869910E+00  7.59869910E+00 -1.51973982E+01
  7.59869910E+00  7.59869910E+00 -1.51973982E+01  7.59869910E+00  7.59869910E+00
 -1.51973982E+01  7.59869910E+00  7.59869910E+00 -1.51973982E+01  7.59869910E+00
  7.59869910E+00 -1.51973982E+01  7.59869910E+00  7.59869910E+00 -1.51973982E+01
  7.59869910E+00  7.59869910E+00 -1.51973982E+01  7.59869910E+00  7.59869910E+00
 -1.51973982E+01  7.59869910E+00  7.59869910E+00 -1.51973982E+01  7.59869910E+00
  7.59869910E+00 -1.51973982E+01  7.59869910E+00  7.59869910E+00 -1.51973982E+01
  7.59869910E+00  7.59869910E+00 -1.51973982E+01  7.59869910E+00  7.59869910E+00
 -1.51973982E+01  7.59869910E+00  7.59869910E+00 -1.51973982E+01  7.59869910E+00
  7.59869910E+00 -1.51973982E+01  7.59869910E+00  7.59869910E+00 -1.51973982E+01
  7.59869910E+00  7.59869910E+00 -1.51973982E+01  7.59869910E+00  7.59869910E+00
 -1.51973982E+01  7.59869910E+00  7.59869910E+00 -1.51973982E+01  7.59869910E+00
  7.59869910E+00 -1.51973982E+01  7.59869910E+00  7.59869910E+00 -1.51973982E+01
  7.59869910E+00  7.59869910E+00 -1.51973982E+01  7.59869910E+00  7.59869910E+00
 -1.51973982E+01  7.59869910E+00  7.59869910E+00 -1.51973982E+01  7.59869910E+00
  7.59869910E+00 -1.51973982E+01  7.59869910E+00  7.59869910E+00 -1.51973982E+01
  7.59869910E+00  7.59869910E+00 -1.51973982E+01  7.59869910E+00  7.59869910E+00
 -1.51973982E+01  7.59869910E+00  7.59869910E+00 -1.51973982E+01  7.59869910E+00
  7.59869910E+00 -1.51973982E+01  7.59869910E+00  7.59869910E+00 -1.51973982E+01
  7.59869910E+00  7.59869910E+00 -1.51973982E+01  7.59869910E+00  7.59869910E+00
 -1.51973982E+01  7.59869910E+00  7.59869910E+00 -1.51973982E+01  7.59869910E+00
  7.59869910E+00 -1.51973982E+01  7.59869910E+00  7.59869910E+00 -1.51973982E+01
  7.59869910E+00  7.59869910E+00 -1.51973982E+01  7.59869910E+00  7.59869910E+00
 -1.51973982E+01  7.59869910E+00  7.59869910E+00 -1.51973982E+01  7.59869910E+00
  7.59869910E+00 -1.51973982E+01  7.59869910E+00  7.59869910E+00 -1.51973982E+01
  7.59869910E+00  7.59869910E+00 -1.51973982E+01  7.59869910E+00  7.59869910E+00
 -1.51973982E+01  7.59869910E+00  7.59869910E+00 -1.51973982E+01  7.59869910E+00
  7.59869910E+00 -1.51973982E+01  7.59869910E+00  7.59869910E+00 -1.51973982E+01
  7.59869910E+00  7.59869910E+00 -1.51973982E+01  7.59869910E+00  7.59869910E+00
 -1.51973982E+01  7.59869910E+00  7.59869910E+00 -1.51973982E+01  7.59869910E+00
  7.59869910E+00 -1.51973982E+01  7.59869910E+00  7.59869910E+00 -1.51973982E+01
  7.59869910E+00  7.59869910E+00 -1.51973982E+01  7.59869910E+00  7.59869910E+00
 -1.51973982E+01  7.59869910E+00  7.59869910E+00 -1.51973982E+01  7.59869910E+00
  7.59869910E+00 -1.51973982E+01  7.59869910E+00  7.59869910E+00 -1.51973982E+01
  7.59869910E+00  7.59869910E+00 -1.51973982E+01  7.59869910E+00  7.59869910E+00
 -1.51973982E+01  7.59869910E+00  7.59869910E+00 -1.51973982E+01  7.59869910E+00
  7.59869910E+00 -1.51973982E+01  7.59869910E+00  7.59869910E+00 -1.51973982E+01
  7.59869910E+00  7.59869910E+00 -1.51973982E+01  7.59869910E+00  7.59869910E+00
 -1.51973982E+01  7.59869910E+00  7.59869910E+00 -1.51973982E+01  7.59869910E+00
  7.59869910E+00 -1.51973982E+01  7.59869910E+00  7.59869910E+00 -1.51973982E+01
  7.59869910E+00  7.59869910E+00 -1.51973982E+01  7.59869910E+00  7.59869910E+00
 -1.51973982E+01  7.59869910E+00  7.59869910E+00 -1.51973982E+01  7.59869910E+00
  7.59869910E+00 -1.51973982E+01  7.59869910E+00  7.59869910E+00 -1.51973982E+01
  7.59869910E+00  7.59869910E+00 -1.51973982E+01  7.59869910E+00  7.59869910E+00
 -1.51973982E+01  7.59869910E+00  7.59869910E+00 -1.51973982E+01  7.59869910E+00
  7.59869910E+00 -1.51973982E+01  7.59869910E+00  7.59869910E+00 -1.51973982E+01
  7.59869910E+00  7.59869910E+00 -1.51973982E+01  7.59869910E+00  7.59869910E+00
 -1.51973982E+01  7.59869910E+00  7.59869910E+00 -1.51973982E+01  7.59869910E+00
  7.59869910E+00 -1.51973982E+01  7.59869910E+00  7.59869910E+00 -1.51973982E+01
  7.59869910E+00  7.59869910E+00 -1.51973982E+01  7.59869910E+00  7.59869910E+00
 -1.51973982E+01  7.59869910E+00  7.59869910E+00 -1.51973982E+01  7.59869910E+00
  7.59869910E+00 -1.51973982E+01  7.59869910E+00  7.59869910E+00 -1.51973982E+01
  7.59869910E+00  7.59869910E+00 -1.51973982E+01  7.59869910E+00  7.59869910E+00
 -1.51973982E+01  7.59869910E+00  7.59869910E+00 -1.51973982E+01  7.59869910E+00
  7.59869910E+00 -1.51973982E+01  7.59869910E+00  7.59869910E+00 -1.51973982E+01
  7.59869910E+00  7.59869910E+00 -1.51973982E+01  7.59869910E+00  7.59869910E+00
 -1.51973982E+01  7.59869910E+00  7.59869910E+00 -1.51973982E+01  7.59869910E+00
  7.59869910E+00 -1.51973982E+01  7.59869910E+00  7.59869910E+00 -1.51973982E+01
  7.59869910E+00  7.59869910E+00 -1.51973982E+01  7.59869910E+00  7.59869910E+00
 -1.51973982E+01  7.59869910E+00  7.59869910E+00 -1.51973982E+01  7.59869910E+00
  7.59869910E+00 -1.51973982E+01  7.59869910E+00  7.59869910E+00 -1.51973982E+01
  7.59869910E+00  7.59869910E+00 -1.51973982E+01  7.59869910E+00  7.59869910E+00
 -1.51973982E+01  7.59869910E+00  7.59869910E+00 -1.51973982E+01  7.59869910E+00
  7.59869910E+00 -1.51973982E+01  7.59869910E+00  7.59869910E+00 -1.51973982E+01
  7.59869910E+00  7.59869910E+00 -1.51973982E+01  7.59869910E+00  7.59869910E+00
 -1.51973982E+01  7.59869910E+00  7.59869910E+00 -1.51973982E+01  7.59869910E+00
  7.59869910E+00 -1.51973982E+01  7.59869910E+00  7.59869910E+00 -1.51973982E+01
  7.59869910E+00  7.59869910E+00 -1.51973982E+01  7.59869910E+00  7.59869910E+00
 -1.51973982E+01  7.59869910E+00  7.59869910E+00 -1.51973982E+01  7.59869910E+00
  7.59869910E+00 -1.51973982E+01  7.59869910E+00  7.59869910E+00 -1.51973982E+01
  7.59869910E+00  7.59869910E+00 -1.51973982E+01  7.59869910E+00  7.59869910E+00
 -1.51973982E+01  7.59869910E+00  7.59869910E+00 -1.51973982E+01  7.59869910E+00
  7.59869910E+00 -1.51973982E+01  7.59869910E+00  7.59869910E+00 -1.51973982E+01
  7.59869910E+00  7.59869910E+00 -1.51973982E+01  7.59869910E+00  7.59869910E+00
 -1.51973982E+01  7.59869910E+00  7.59869910E+00 -1.51973982E+01  7.59869910E+00
  7.59869910E+00 -1.51973982E+01  7.59869910E+00  7.59869910E+00 -1.51973982E+01
  7.59869910E+00  7.59869910E+00 -1.51973982E+01  7.59869910E+00  7.59869910E+00
 -1.51973982E+01  7.59869910E+00  7.59869910E+00 -1.51973982E+01  7.59869910E+00
  7.59869910E+00 -1.51973982E+01  7.59869910E+00  7.59869910E+00 -1.51973982E+01
  7.59869910E+00  7.59869910E+00 -1.51973982E+01  7.59869910E+00  7.59869910E+00
 -1.51973982E+01  7.59869910E+00  7.59869910E+00 -1.51973982E+01  7.59869910E+00
  7.59869910E+00 -1.51973982E+01  7.59869910E+00  7.59869910E+00 -1.51973982E+01
  7.59869910E+00  7.59869910E+00 -1.51973982E+01  7.59869910E+00  7.59869910E+00
 -1.51973982E+01  7.59869910E+00  7.59869910E+00 -1.51973982E+01  7.59869910E+00
  7.59869910E+00 -1.51973982E+01  7.59869910E+00  7.59869910E+00 -1.51973982E+01
  7.59869910E+00  7.59869910E+00 -1.51973982E+01  7.59869910E+00  7.59869910E+00
 -1.51973982E+01  7.59869910E+00  7.59869910E+00 -1.51973982E+01  7.59869910E+00
  7.59869910E+00 -1.51973982E+01  7.59869910E+00  7.59869910E+00 -1.51973982E+01
  7.59869910E+00  7.59869910E+00 -1.51973982E+01  7.59869910E+00  7.59869910E+00
 -1.51973982E+01  7.59869910E+00  7.59869910E+00 -1.51973982E+01  7.59869910E+00
  7.59869910E+00 -1.51973982E+01  7.59869910E+00  7.59869910E+00 -1.51973982E+01
  7.59869910E+00  7.59869910E+00 -1.51973982E+01  7.59869910E+00  7.59869910E+00
 -1.51973982E+01  7.59869910E+00  7.59869910E+00 -1.51973982E+01  7.59869910E+00
  7.59869910E+00 -1.51973982E+01  7.59869910E+00  7.59869910E+00 -1.51973982E+01
  7.59869910E+00  7.59869910E+00 -1.51973982E+01  7.59869910E+00  7.59869910E+00
 -1.51973982E+01  7.59869910E+00  7.59869910E+00 -1.51973982E+01  7.59869910E+00
  7.59869910E+00 -1.51973982E+01  7.59869910E+00  7.59869910E+00 -1.51973982E+01
  7.59869910E+00  7.59869910E+00 -1.51973982E+01  7.59869910E+00  7.59869910E+00
 -1.51973982E+01  7.59869910E+00  7.59869910E+00 -1.51973982E+01  7.59869910E+00
  7.59869910E+00 -1.51973982E+01  7.59869910E+00  7.59869910E+00 -1.51973982E+01
  7.59869910E+00  7.59869910E+00 -1.51973982E+01  7.59869910E+00  7.59869910E+00
 -1.51973982E+01  7.59869910E+00  7.59869910E+00 -1.51973982E+01  7.59869910E+00
  7.59869910E+00 -1.51973982E+01  7.59869910E+00  7.59869910E+00 -1.51973982E+01
  7.59869910E+00  7.59869910E+00 -1.51973982E+01  7.59869910E+00  7.59869910E+00
 -1.51973982E+01  7.59869910E+00  7.59869910E+00 -1.51973982E+01  7.59869910E+00
  7.59869910E+00 -1.51973982E+01  7.59869910E+00  7.59869910E+00 -1.51973982E+01
  7.59869910E+00  7.59869910E+00 -1.51973982E+01  7.59869910E+00  7.59869910E+00
 -1.51973982E+01  7.59869910E+00  7.59869910E+00 -1.51973982E+01  7.59869910E+00
  7.59869910E+00 -1.51973982E+01  7.59869910E+00  7.59869910E+00 -1.51973982E+01
  7.59869910E+00  7.59869910E+00 -1.51973982E+01  7.59869910E+00  7.59869910E+00
 -1.51973982E+01  7.59869910E+00  7.59869910E+00 -1.51973982E+01  7.59869910E+00
  7.59869910E+00 -1.51973982E+01  7.59869910E+00  7.59869910E+00 -1.51973982E+01
  7.59869910E+00  7.59869910E+00 -1.51973982E+01  7.59869910E+00  7.59869910E+00
 -1.51973982E+01  7.59869910E+00  7.59869910E+00 -1.51973982E+01  7.59869910E+00
  7.59869910E+00 -1.51973982E+01  7.59869910E+00  7.59869910E+00 -1.51973982E+01
  7.59869910E+00  7.59869910E+00 -1.51973982E+01  7.59869910E+00  7.59869910E+00
 -1.51973982E+01  7.59869910E+00  7.59869910E+00 -1.51973982E+01  7.59869910E+00
  7.59869910E+00 -1.51973982E+01  7.59869910E+00  7.59869910E+00 -1.51973982E+01
  7.59869910E+00  7.59869910E+00 -1.51973982E+01  7.59869910E+00  7.59869910E+00
 -1.51973982E+01  7.59869910E+00  7.59869910E+00 -1.51973982E+01  7.59869910E+00
  7.59869910E+00 -1.51973982E+01  7.59869910E+00  7.59869910E+00 -1.51973982E+01
  7.59869910E+00  7.59869910E+00 -1.51973982E+01  7.59869910E+00  7.59869910E+00
 -1.51973982E+01  7.59869910E+00  7.59869910E+00 -1.51973982E+01  7.59869910E+00
  7.59869910E+00 -1.51973982E+01  7.59869910E+00  7.59869910E+00 -1.51973982E+01
  7.59869910E+00  7.59869910E+00 -1.51973982E+01  7.59869910E+00  7.59869910E+00
 -1.51973982E+01  7.59869910E+00  7.59869910E+00 -1.51973982E+01  7.59869910E+00
  7.59869910E+00 -1.51973982E+01  7.59869910E+00  7.59869910E+00 -1.51973982E+01
  7.59869910E+00  7.59869910E+00 -1.51973982E+01  7.59869910E+00  7.59869910E+00
 -1.51973982E+01  7.59869910E+00  7.59869910E+00 -1.51973982E+01  7.59869910E+00
  7.59869910E+00 -1.51973982E+01  7.59869910E+00  7.59869910E+00 -1.51973982E+01
  7.59869910E+00  7.59869910E+00 -1.51973982E+01  7.59869910E+00  7.59869910E+00
 -1.51973982E+01  7.59869910E+00  7.59869910E+00 -1.51973982E+01  7.59869910E+00
  7.59869910E+00 -1.51973982E+01  7.59869910E+00  7.59869910E+00 -1.51973982E+01
  7.59869910E+00  7.59869910E+00 -1.51973982E+01  7.59869910E+00  7.59869910E+00
 -1.51973982E+01  7.59869910E+00  7.59869910E+00 -1.51973982E+01  7.59869910E+00
  7.59869910E+00 -1.51973982E+01  7.59869910E+00  7.59869910E+00 -1.51973982E+01
  7.59869910E+00  7.59869910E+00 -1.51973982E+01  7.59869910E+00  7.59869910E+00
 -1.51973982E+01  7.59869910E+00  7.59869910E+00 -1.51973982E+01  7.59869910E+00
  7.59869910E+00 -1.51973982E+01  7.59869910E+00  7.59869910E+00 -1.51973982E+01
  7.59869910E+00  7.59869910E+00 -1.51973982E+01  7.59869910E+00  7.59869910E+00
 -1.51973982E+01  7.59869910E+00  7.59869910E+00 -1.51973982E+01  7.59869910E+00
  7.59869910E+00 -1.51973982E+01  7.59869910E+00  7.59869910E+00 -1.51973982E+01
  7.59869910E+00  7.59869910E+00 -1.51973982E+01  7.59869910E+00  7.59869910E+00
 -1.51973982E+01  7.59869910E+00  7.59869910E+00 -1.51973982E+01  7.59869910E+00
  7.59869910E+00 -1.51973982E+01  7.59869910E+00  7.59869910E+00 -1.51973982E+01
  7.59869910E+00  7.59869910E+00 -1.51973982E+01  7.59869910E+00  7.59869910E+00
 -1.51973982E+01  7.59869910E+00  7.59869910E+00 -1.51973982E+01  7.59869910E+00
  7.59869910E+00 -1.51973982E+01  7.59869910E+00  7.59869910E+00 -1.51973982E+01
  7.59869910E+00  7.59869910E+00 -1.51973982E+01  7.59869910E+00  7.59869910E+00
 -1.51973982E+01  7.59869910E+00  7.59869910E+00 -1.51973982E+01  7.59869910E+00
  7.59869910E+00 -1.51973982E+01  7.59869910E+00  7.59869910E+00 -1.51973982E+01
  7.59869910E+00  7.59869910E+00 -1.51973982E+01  7.59869910E+00  7.59869910E+00
 -1.51973982E+01  7.59869910E+00  7.59869910E+00 -1.51973982E+01  7.59869910E+00
  7.59869910E+00 -1.51973982E+01  7.59869910E+00  7.59869910E+00 -1.51973982E+01
  7.59869910E+00  7.59869910E+00 -1.51973982E+01  7.59869910E+00  7.59869910E+00
 -1.51973982E+01  7.59869910E+00  7.59869910E+00 -1.51973982E+01  7.59869910E+00
  7.59869910E+00 -1.51973982E+01  7.59869910E+00  7.59869910E+00 -1.51973982E+01
  7.59869910E+00  7.59869910E+00 -1.51973982E+01  7.59869910E+00  7.59869910E+00
 -1.51973982E+01  7.59869910E+00  7.59869910E+00 -1.51973982E+01  7.59869910E+00
  7.59869910E+00 -1.51973982E+01  7.59869910E+00  7.59869910E+00 -1.51973982E+01
  7.59869910E+00  7.59869910E+00 -1.51973982E+01  7.59869910E+00  7.59869910E+00
 -1.51973982E+01  7.59869910E+00  7.59869910E+00 -1.51973982E+01  7.59869910E+00
  7.59869910E+00 -1.51973982E+01  7.59869910E+00  7.59869910E+00 -1.51973982E+01
  7.59869910E+00  7.59869910E+00 -1.51973982E+01  7.59869910E+00  7.59869910E+00
 -1.51973982E+01  7.59869910E+00  7.59869910E+00 -1.51973982E+01  7.59869910E+00
  7.59869910E+00 -1.51973982E+01  7.59869910E+00  7.59869910E+00 -1.51973982E+01
  7.59869910E+00  7.59869910E+00 -1.51973982E+01  7.59869910E+00  7.59869910E+00
 -1.51973982E+01  7.59869910E+00  7.59869910E+00 -1.51973982E+01  7.59869910E+00
  7.59869910E+00 -1.51973982E+01  7.59869910E+00  7.59869910E+00 -1.51973982E+01
  7.59869910E+00  7.59869910E+00 -1.51973982E+01  7.59869910E+00  7.59869910E+00
 -1.51973982E+01  7.59869910E+00  7.59869910E+00 -1.51973982E+01  7.59869910E+00
  7.59869910E+00 -1.51973982E+01  7.59869910E+00  7.59869910E+00 -1.51973982E+01
  7.59869910E+00  7.59869910E+00 -1.51973982E+01  7.59869910E+00  7.59869910E+00
 -1.51973982E+01  7.59869910E+00  7.59869910E+00 -1.51973982E+01  7.59869910E+00
  7.59869910E+00 -1.51973982E+01  7.59869910E+00  7.59869910E+00 -1.51973982E+01
  7.59869910E+00  7.59869910E+00 -1.51973982E+01  7.59869910E+00  7.59869910E+00
 -1.51973982E+01  7.59869910E+00  7.59869910E+00 -1.51973982E+01  7.59869910E+00
  7.59869910E+00 -1.51973982E+01  7.59869910E+00  7.59869910E+00 -1.51973982E+01
  7.59869910E+00  7.59869910E+00 -1.51973982E+01  7.59869910E+00  7.59869910E+00
 -1.51973982E+01  7.59869910E+00  7.59869910E+00 -1.51973982E+01  7.59869910E+00
  7.59869910E+00 -1.51973982E+01  7.59869910E+00  7.59869910E+00 -1.51973982E+01
  7.59869910E+00  7.59869910E+00 -1.51973982E+01  7.59869910E+00  7.59869910E+00
 -1.51973982E+01  7.59869910E+00  7.59869910E+00 -1.51973982E+01  7.59869910E+00
  7.59869910E+00 -1.51973982E+01  7.59869910E+00  7.59869910E+00 -1.51973982E+01
  7.59869910E+00  7.59869910E+00 -1.51973982E+01  7.59869910E+00  7.59869910E+00
 -1.51973982E+01  7.59869910E+00  7.59869910E+00 -1.51973982E+01  7.59869910E+00
  7.59869910E+00 -1.51973982E+01  7.59869910E+00  7.59869910E+00 -1.51973982E+01
  7.59869910E+00  7.59869910E+00 -1.51973982E+01  7.59869910E+00  7.59869910E+00
 -1.51973982E+01  7.59869910E+00  7.59869910E+00 -1.51973982E+01  7.59869910E+00
  7.59869910E+00 -1.51973982E+01  7.59869910E+00  7.59869910E+00 -1.51973982E+01
  7.59869910E+00  7.59869910E+00 -1.51973982E+01  7.59869910E+00  7.59869910E+00
 -1.51973982E+01  7.59869910E+00  7.59869910E+00 -1.51973982E+01  7.59869910E+00
  7.59869910E+00 -1.51973982E+01  7.59869910E+00  7.59869910E+00 -1.51973982E+01
  7.59869910E+00  7.59869910E+00 -1.51973982E+01  7.59869910E+00  7.59869910E+00
 -1.51973982E+01  7.59869910E+00  7.59869910E+00 -1.51973982E+01  7.59869910E+00
  7.59869910E+00 -1.51973982E+01  7.59869910E+00  7.59869910E+00 -1.51973982E+01
  7.59869910E+00  7.59869910E+00 -1.51973982E+01  7.59869910E+00  7.59869910E+00
 -1.51973982E+01  7.59869910E+00  7.59869910E+00 -1.51973982E+01  7.59869910E+00
  7.59869910E+00 -1.51973982E+01  7.59869910E+00  7.59869910E+00 -1.51973982E+01
  7.59869910E+00  7.59869910E+00 -1.51973982E+01  7.59869910E+00  7.59869910E+00
 -1.51973982E+01  7.59869910E+00  7.59869910E+00 -1.51973982E+01  7.59869910E+00
  7.59869910E+00 -1.51973982E+01  7.59869910E+00  7.59869910E+00 -1.51973982E+01
  7.59869910E+00  7.59869910E+00 -1.51973982E+01  7.59869910E+00  7.59869910E+00
 -1.51973982E+01  7.59869910E+00  7.59869910E+00 -1.51973982E+01  7.59869910E+00
  7.59869910E+00 -1.51973982E+01  7.59869910E+00  7.59869910E+00 -1.51973982E+01
  7.59869910E+00  7.59869910E+00 -1.51973982E+01  7.59869910E+00  7.59869910E+00
 -1.51973982E+01  7.59869910E+00  7.59869910E+00 -1.51973982E+01  7.59869910E+00
  7.59869910E+00 -1.51973982E+01  7.59869910E+00  7.59869910E+00 -1.51973982E+01
  7.59869910E+00  7.59869910E+00 -1.51973982E+01  7.59869910E+00  7.59869910E+00
 -1.51973982E+01  7.59869910E+00  7.59869910E+00 -1.51973982E+01  7.59869910E+00
  7.59869910E+00 -1.51973982E+01  7.59869910E+00  7.59869910E+00 -1.51973982E+01
  7.59869910E+00  7.59869910E+00 -1.51973982E+01  7.59869910E+00  7.59869910E+00
 -1.51973982E+01  7.59869910E+00  7.59869910E+00 -1.51973982E+01  7.59869910E+00
  7.59869910E+00 -1.51973982E+01  7.59869910E+00  7.59869910E+00 -1.51973982E+01
  7.59869910E+00  7.59869910E+00 -1.51973982E+01  7.59869910E+00  7.59869910E+00
 -1.51973982E+01  7.59869910E+00  7.59869910E+00 -1.51973982E+01  7.59869910E+00
  7.59869910E+00 -1.51973982E+01  7.59869910E+00  7.59869910E+00 -1.51973982E+01
  7.59869910E+00  7.59869910E+00 -1.51973982E+01  7.59869910E+00  7.59869910E+00
 -1.51973982E+01  7.59869910E+00  7.59869910E+00 -1.51973982E+01  7.59869910E+00
  7.59869910E+00 -1.51973982E+01  7.59869910E+00  7.59869910E+00 -1.51973982E+01
  7.59869910E+00  7.59869910E+00 -1.51973982E+01  7.59869910E+00  7.59869910E+00
 -1.51973982E+01  7.59869910E+00  7.59869910E+00 -1.51973982E+01  7.59869910E+00
  7.59869910E+00 -1.51973982E+01  7.59869910E+00  7.59869910E+00 -1.51973982E+01
  7.59869910E+00  7.59869910E+00 -1.51973982E+01  7.59869910E+00  7.59869910E+00
 -1.51973982E+01  7.59869910E+00  7.59869910E+00 -1.51973982E+01  7.59869910E+00
  7.59869910E+00 -1.51973982E+01  7.59869910E+00  7.59869910E+00 -1.51973982E+01
  7.59869910E+00  7.59869910E+00 -1.51973982E+01  7.59869910E+00  7.59869910E+00
 -1.51973982E+01  7.59869910E+00  7.59869910E+00 -1.51973982E+01  7.59869910E+00
  7.59869910E+00 -1.51973982E+01  7.59869910E+00  7.59869910E+00 -1.51973982E+01
  7.59869910E+00  7.59869910E+00 -1.51973982E+01  7.59869910E+00  7.59869910E+00
 -1.51973982E+01  7.59869910E+00  7.59869910E+00 -1.51973982E+01  7.59869910E+00
  7.59869910E+00 -1.51973982E+01  7.59869910E+00  7.59869910E+00 -1.51973982E+01
  7.59869910E+00  7.59869910E+00 -1.51973982E+01  7.59869910E+00  7.59869910E+00
 -1.51973982E+01  7.59869910E+00  7.59869910E+00 -1.51973982E+01  7.59869910E+00
  7.59869910E+00 -1.51973982E+01  7.59869910E+00  7.59869910E+00 -1.51973982E+01
  7.59869910E+00  7.59869910E+00 -1.51973982E+01  7.59869910E+00  7.59869910E+00
 -1.51973982E+01  7.59869910E+00  7.59869910E+00 -1.51973982E+01  7.59869910E+00
  7.59869910E+00 -1.51973982E+01  7.59869910E+00  7.59869910E+00 -1.51973982E+01
  7.59869910E+00  7.59869910E+00 -1.51973982E+01  7.59869910E+00  7.59869910E+00
 -1.51973982E+01  7.59869910E+00  7.59869910E+00 -1.51973982E+01  7.59869910E+00
  7.59869910E+00 -1.51973982E+01  7.59869910E+00  7.59869910E+00 -1.51973982E+01
  7.59869910E+00  7.59869910E+00 -1.51973982E+01  7.59869910E+00  7.59869910E+00
 -1.51973982E+01  7.59869910E+00  7.59869910E+00 -1.51973982E+01  7.59869910E+00
  7.59869910E+00 -1.51973982E+01  7.59869910E+00  7.59869910E+00 -1.51973982E+01
  7.59869910E+00  7.59869910E+00 -1.51973982E+01  7.59869910E+00  7.59869910E+00
 -1.51973982E+01  7.59869910E+00  7.59869910E+00 -1.51973982E+01  7.59869910E+00
  7.59869910E+00 -1.51973982E+01  7.59869910E+00  7.59869910E+00 -1.51973982E+01
  7.59869910E+00  7.59869910E+00 -1.51973982E+01  7.59869910E+00  7.59869910E+00
 -1.51973982E+01  7.59869910E+00  7.59869910E+00 -1.51973982E+01  7.59869910E+00
  7.59869910E+00 -1.51973982E+01  7.59869910E+00  7.59869910E+00 -1.51973982E+01
  7.59869910E+00  7.59869910E+00 -1.51973982E+01  7.59869910E+00  7.59869910E+00
 -1.51973982E+01  7.59869910E+00  7.59869910E+00 -1.51973982E+01  7.59869910E+00
  7.59869910E+00 -1.51973982E+01  7.59869910E+00  7.59869910E+00 -1.51973982E+01
  7.59869910E+00  7.59869910E+00 -1.51973982E+01  7.59869910E+00  7.59869910E+00
 -1.51973982E+01  7.59869910E+00  7.59869910E+00 -1.51973982E+01  7.59869910E+00
  7.59869910E+00 -1.51973982E+01  7.59869910E+00  7.59869910E+00 -1.51973982E+01
  7.59869910E+00  7.59869910E+00 -1.51973982E+01  7.59869910E+00  7.59869910E+00
 -1.51973982E+01  7.59869910E+00  7.59869910E+00 -1.51973982E+01  7.59869910E+00
  7.59869910E+00 -1.51973982E+01  7.59869910E+00  7.59869910E+00 -1.51973982E+01
  7.59869910E+00  7.59869910E+00 -1.51973982E+01  7.59869910E+00  7.59869910E+00
 -1.51973982E+01  7.59869910E+00  7.59869910E+00 -1.51973982E+01  7.59869910E+00
  7.59869910E+00 -1.51973982E+01  7.59869910E+00  7.59869910E+00 -1.51973982E+01
  7.59869910E+00  7.59869910E+00 -1.51973982E+01  7.59869910E+00  7.59869910E+00
 -1.51973982E+01  7.59869910E+00  7.59869910E+00 -1.51973982E+01  7.59869910E+00
  7.59869910E+00 -1.51973982E+01  7.59869910E+00  7.59869910E+00 -1.51973982E+01
  7.59869910E+00  7.59869910E+00 -1.51973982E+01  7.59869910E+00  7.59869910E+00
 -1.51973982E+01  7.59869910E+00  7.59869910E+00 -1.51973982E+01  7.59869910E+00
  7.59869910E+00 -1.51973982E+01  7.59869910E+00  7.59869910E+00 -1.51973982E+01
  7.59869910E+00  7.59869910E+00 -1.51973982E+01  7.59869910E+00  7.59869910E+00
 -1.51973982E+01  7.59869910E+00  7.59869910E+00 -1.51973982E+01  7.59869910E+00
  7.59869910E+00 -1.51973982E+01  7.59869910E+00  7.59869910E+00 -1.51973982E+01
  7.59869910E+00  7.59869910E+00 -1.51973982E+01  7.59869910E+00  7.59869910E+00
 -1.51973982E+01  7.59869910E+00  7.59869910E+00 -1.51973982E+01  7.59869910E+00
  7.59869910E+00 -1.51973982E+01  7.59869910E+00  7.59869910E+00 -1.51973982E+01
  7.59869910E+00  7.59869910E+00 -1.51973982E+01  7.59869910E+00  7.59869910E+00
 -1.51973982E+01  7.59869910E+00  7.59869910E+00 -1.51973982E+01  7.59869910E+00
  7.59869910E+00 -1.51973982E+01  7.59869910E+00  7.59869910E+00 -1.51973982E+01
  7.59869910E+00  7.59869910E+00 -1.51973982E+01  7.59869910E+00  7.59869910E+00
 -1.51973982E+01  7.59869910E+00  7.59869910E+00 -1.51973982E+01  7.59869910E+00
  7.59869910E+00 -1.51973982E+01  7.59869910E+00  7.59869910E+00 -1.51973982E+01
  7.59869910E+00  7.59869910E+00 -1.51973982E+01  7.59869910E+00  7.59869910E+00
 -1.51973982E+01  7.59869910E+00  7.59869910E+00 -1.51973982E+01  7.59869910E+00
  7.59869910E+00 -1.51973982E+01  7.59869910E+00  7.59869910E+00 -1.51973982E+01
  7.59869910E+00  7.59869910E+00 -1.51973982E+01  7.59869910E+00  7.59869910E+00
 -1.51973982E+01  7.59869910E+00  7.59869910E+00 -1.51973982E+01  7.59869910E+00
  7.59869910E+00 -1.51973982E+01  7.59869910E+00  7.59869910E+00 -1.51973982E+01
  7.59869910E+00  7.59869910E+00 -1.51973982E+01  7.59869910E+00  7.59869910E+00
 -1.51973982E+01  7.59869910E+00  7.59869910E+00 -1.51973982E+01  7.59869910E+00
  7.59869910E+00 -1.51973982E+01  7.59869910E+00  7.59869910E+00 -1.51973982E+01
  7.59869910E+00  7.59869910E+00 -1.51973982E+01  7.59869910E+00  7.59869910E+00
 -1.51973982E+01  7.59869910E+00  7.59869910E+00 -1.51973982E+01  7.59869910E+00
  7.59869910E+00 -1.51973982E+01  7.59869910E+00  7.59869910E+00 -1.51973982E+01
  7.59869910E+00  7.59869910E+00 -1.51973982E+01  7.59869910E+00  7.59869910E+00
 -1.51973982E+01  7.59869910E+00  7.59869910E+00 -1.51973982E+01  7.59869910E+00
  7.59869910E+00 -1.51973982E+01  7.59869910E+00  7.59869910E+00 -1.51973982E+01
  7.59869910E+00  7.59869910E+00 -1.51973982E+01  7.59869910E+00  7.59869910E+00
 -1.51973982E+01  7.59869910E+00  7.59869910E+00 -1.51973982E+01  7.59869910E+00
  7.59869910E+00 -1.51973982E+01  7.59869910E+00  7.59869910E+00 -1.51973982E+01
  7.59869910E+00  7.59869910E+00 -1.51973982E+01  7.59869910E+00  7.59869910E+00
 -1.51973982E+01  7.59869910E+00  7.59869910E+00 -1.51973982E+01  7.59869910E+00
  7.59869910E+00 -1.51973982E+01  7.59869910E+00  7.59869910E+00 -1.51973982E+01
  7.59869910E+00  7.59869910E+00 -1.51973982E+01  7.59869910E+00  7.59869910E+00
 -1.51973982E+01  7.59869910E+00  7.59869910E+00 -1.51973982E+01  7.59869910E+00
  7.59869910E+00 -1.51973982E+01  7.59869910E+00  7.59869910E+00 -1.51973982E+01
  7.59869910E+00  7.59869910E+00 -1.51973982E+01  7.59869910E+00  7.59869910E+00
 -1.51973982E+01  7.59869910E+00  7.59869910E+00 -1.51973982E+01  7.59869910E+00
  7.59869910E+00 -1.51973982E+01  7.59869910E+00  7.59869910E+00 -1.51973982E+01
  7.59869910E+00  7.59869910E+00 -1.51973982E+01  7.59869910E+00  7.59869910E+00
 -1.51973982E+01  7.59869910E+00  7.59869910E+00 -1.51973982E+01  7.59869910E+00
  7.59869910E+00 -1.51973982E+01  7.59869910E+00  7.59869910E+00 -1.51973982E+01
  7.59869910E+00  7.59869910E+00 -1.51973982E+01  7.59869910E+00  7.59869910E+00
 -1.51973982E+01  7.59869910E+00  7.59869910E+00 -1.51973982E+01  7.59869910E+00
  7.59869910E+00 -1.51973982E+01  7.59869910E+00  7.59869910E+00 -1.51973982E+01
  7.59869910E+00  7.59869910E+00 -1.51973982E+01  7.59869910E+00  7.59869910E+00
 -1.51973982E+01  7.59869910E+00  7.59869910E+00 -1.51973982E+01  7.59869910E+00
  7.59869910E+00 -1.51973982E+01  7.59869910E+00  7.59869910E+00 -1.51973982E+01
  7.59869910E+00  7.59869910E+00 -1.51973982E+01  7.59869910E+00  7.59869910E+00
 -1.51973982E+01  7.59869910E+00  7.59869910E+00 -1.51973982E+01  7.59869910E+00
  7.59869910E+00 -1.51973982E+01  7.59869910E+00  7.59869910E+00 -1.51973982E+01
  7.59869910E+00  7.59869910E+00 -1.51973982E+01  7.59869910E+00  7.59869910E+00
 -1.51973982E+01  7.59869910E+00  7.59869910E+00 -1.51973982E+01  7.59869910E+00
  7.59869910E+00 -1.51973982E+01  7.59869910E+00  7.59869910E+00 -1.51973982E+01
  7.59869910E+00  7.59869910E+00 -1.51973982E+01  7.59869910E+00  7.59869910E+00
 -1.51973982E+01  7.59869910E+00  7.59869910E+00 -1.51973982E+01  7.59869910E+00
  7.59869910E+00 -1.51973982E+01  7.59869910E+00  7.59869910E+00 -1.51973982E+01
  7.59869910E+00  7.59869910E+00 -1.51973982E+01  7.59869910E+00  7.59869910E+00
 -1.51973982E+01  7.59869910E+00  7.59869910E+00 -1.51973982E+01  7.59869910E+00
  7.59869910E+00 -1.51973982E+01  7.59869910E+00  7.59869910E+00 -1.51973982E+01
  7.59869910E+00  7.59869910E+00 -1.51973982E+01  7.59869910E+00  7.59869910E+00
 -1.51973982E+01  7.59869910E+00  7.59869910E+00 -1.51973982E+01  7.59869910E+00
  7.59869910E+00 -1.51973982E+01  7.59869910E+00  7.59869910E+00 -1.51973982E+01
  7.59869910E+00  7.59869910E+00 -1.51973982E+01  7.59869910E+00  7.59869910E+00
 -1.51973982E+01  7.59869910E+00  7.59869910E+00 -1.51973982E+01  7.59869910E+00
  7.59869910E+00 -1.51973982E+01  7.59869910E+00  7.59869910E+00 -1.51973982E+01
  7.59869910E+00  7.59869910E+00 -1.51973982E+01  7.59869910E+00  7.59869910E+00
 -1.51973982E+01  7.59869910E+00  7.59869910E+00 -1.51973982E+01  7.59869910E+00
  7.59869910E+00 -1.51973982E+01  7.59869910E+00  7.59869910E+00 -1.51973982E+01
  7.59869910E+00  7.59869910E+00 -1.51973982E+01  7.59869910E+00  7.59869910E+00
 -1.51973982E+01  7.59869910E+00  7.59869910E+00 -1.51973982E+01  7.59869910E+00
  7.59869910E+00 -1.51973982E+01  7.59869910E+00  7.59869910E+00 -1.51973982E+01
  7.59869910E+00  7.59869910E+00 -1.51973982E+01  7.59869910E+00  7.59869910E+00
 -1.51973982E+01  7.59869910E+00  7.59869910E+00 -1.51973982E+01  7.59869910E+00
  7.59869910E+00 -1.51973982E+01  7.59869910E+00  7.59869910E+00 -1.51973982E+01
  7.59869910E+00  7.59869910E+00 -1.51973982E+01  7.59869910E+00  7.59869910E+00
 -1.51973982E+01  7.59869910E+00  7.59869910E+00 -1.51973982E+01  7.59869910E+00
  7.59869910E+00 -1.51973982E+01  7.59869910E+00  7.59869910E+00 -1.51973982E+01
  7.59869910E+00  7.59869910E+00 -1.51973982E+01  7.59869910E+00  7.59869910E+00
 -1.51973982E+01  7.59869910E+00  7.59869910E+00 -1.51973982E+01  7.59869910E+00
  7.59869910E+00 -1.51973982E+01  7.59869910E+00  7.59869910E+00 -1.51973982E+01
  7.59869910E+00  7.59869910E+00 -1.51973982E+01  7.59869910E+00  7.59869910E+00
 -1.51973982E+01  7.59869910E+00  7.59869910E+00 -1.51973982E+01  7.59869910E+00
  7.59869910E+00 -1.51973982E+01  7.59869910E+00  7.59869910E+00 -1.51973982E+01
  7.59869910E+00  7.59869910E+00 -1.51973982E+01  7.59869910E+00  7.59869910E+00
 -1.51973982E+01  7.59869910E+00  7.59869910E+00 -1.51973982E+01  7.59869910E+00
  7.59869910E+00 -1.51973982E+01  7.59869910E+00  7.59869910E+00 -1.51973982E+01
  7.59869910E+00  7.59869910E+00 -1.51973982E+01  7.59869910E+00  7.59869910E+00
 -1.51973982E+01  7.59869910E+00  7.59869910E+00 -1.51973982E+01  7.59869910E+00
  7.59869910E+00 -1.51973982E+01  7.59869910E+00  7.59869910E+00 -1.51973982E+01
  7.59869910E+00  7.59869910E+00 -1.51973982E+01  7.59869910E+00  7.59869910E+00
 -1.51973982E+01  7.59869910E+00  7.59869910E+00 -1.51973982E+01  7.59869910E+00
  7.59869910E+00 -1.51973982E+01  7.59869910E+00  7.59869910E+00 -1.51973982E+01
  7.59869910E+00  7.59869910E+00 -1.51973982E+01  7.59869910E+00  7.59869910E+00
 -1.51973982E+01  7.59869910E+00  7.59869910E+00 -1.51973982E+01  7.59869910E+00
  7.59869910E+00 -1.51973982E+01  7.59869910E+00  7.59869910E+00 -1.51973982E+01
  7.59869910E+00  7.59869910E+00 -1.51973982E+01  7.59869910E+00  7.59869910E+00
 -1.51973982E+01  7.59869910E+00  7.59869910E+00 -1.51973982E+01  7.59869910E+00
  7.59869910E+00 -1.51973982E+01  7.59869910E+00  7.59869910E+00 -1.51973982E+01
  7.59869910E+00  7.59869910E+00 -1.51973982E+01  7.59869910E+00  7.59869910E+00
 -1.51973982E+01  7.59869910E+00  7.59869910E+00 -1.51973982E+01  7.59869910E+00
  7.59869910E+00 -1.51973982E+01  7.59869910E+00  7.59869910E+00 -1.51973982E+01
  7.59869910E+00  7.59869910E+00 -1.51973982E+01  7.59869910E+00  7.59869910E+00
 -1.51973982E+01  7.59869910E+00  7.59869910E+00 -1.51973982E+01  7.59869910E+00
  7.59869910E+00 -1.51973982E+01  7.59869910E+00  7.59869910E+00 -1.51973982E+01
  7.59869910E+00  7.59869910E+00 -1.51973982E+01  7.59869910E+00  7.59869910E+00
 -1.51973982E+01  7.59869910E+00  7.59869910E+00 -1.51973982E+01  7.59869910E+00
  7.59869910E+00 -1.51973982E+01  7.59869910E+00  7.59869910E+00 -1.51973982E+01
  7.59869910E+00  7.59869910E+00 -1.51973982E+01  7.59869910E+00  7.59869910E+00
 -1.51973982E+01  7.59869910E+00  7.59869910E+00 -1.51973982E+01  7.59869910E+00
  7.59869910E+00 -1.51973982E+01  7.59869910E+00  7.59869910E+00 -1.51973982E+01
  7.59869910E+00  7.59869910E+00 -1.51973982E+01  7.59869910E+00  7.59869910E+00
 -1.51973982E+01  7.59869910E+00  7.59869910E+00 -1.51973982E+01  7.59869910E+00
  7.59869910E+00 -1.51973982E+01  7.59869910E+00  7.59869910E+00 -1.51973982E+01
  7.59869910E+00  7.59869910E+00 -1.51973982E+01  7.59869910E+00  7.59869910E+00
 -1.51973982E+01  7.59869910E+00  7.59869910E+00 -1.51973982E+01  7.59869910E+00
  7.59869910E+00 -1.51973982E+01  7.59869910E+00  7.59869910E+00 -1.51973982E+01
  7.59869910E+00  7.59869910E+00 -1.51973982E+01  7.59869910E+00  7.59869910E+00
 -1.51973982E+01  7.59869910E+00  7.59869910E+00 -1.51973982E+01  7.59869910E+00
  7.59869910E+00 -1.51973982E+01  7.59869910E+00  7.59869910E+00 -1.51973982E+01
  7.59869910E+00  7.59869910E+00 -1.51973982E+01  7.59869910E+00  7.59869910E+00
 -1.51973982E+01  7.59869910E+00  7.59869910E+00 -1.51973982E+01  7.59869910E+00
  7.59869910E+00 -1.51973982E+01  7.59869910E+00  7.59869910E+00 -1.51973982E+01
  7.59869910E+00  7.59869910E+00 -1.51973982E+01  7.59869910E+00  7.59869910E+00
 -1.51973982E+01  7.59869910E+00  7.59869910E+00 -1.51973982E+01  7.59869910E+00
  7.59869910E+00 -1.51973982E+01  7.59869910E+00  7.59869910E+00 -1.51973982E+01
  7.59869910E+00  7.59869910E+00 -1.51973982E+01  7.59869910E+00  7.59869910E+00
 -1.51973982E+01  7.59869910E+00  7.59869910E+00 -1.51973982E+01  7.59869910E+00
  7.59869910E+00 -1.51973982E+01  7.59869910E+00  7.59869910E+00 -1.51973982E+01
  7.59869910E+00  7.59869910E+00 -1.51973982E+01  7.59869910E+00  7.59869910E+00
 -1.51973982E+01  7.59869910E+00  7.59869910E+00 -1.51973982E+01  7.59869910E+00
  7.59869910E+00 -1.51973982E+01  7.59869910E+00  7.59869910E+00 -1.51973982E+01
  7.59869910E+00  7.59869910E+00 -1.51973982E+01  7.59869910E+00  7.59869910E+00
 -1.51973982E+01  7.59869910E+00  7.59869910E+00 -1.51973982E+01  7.59869910E+00
  7.59869910E+00 -1.51973982E+01  7.59869910E+00  7.59869910E+00 -1.51973982E+01
  7.59869910E+00  7.59869910E+00 -1.51973982E+01  7.59869910E+00  7.59869910E+00
 -1.51973982E+01  7.59869910E+00  7.59869910E+00 -1.51973982E+01  7.59869910E+00
  7.59869910E+00 -1.51973982E+01  7.59869910E+00  7.59869910E+00 -1.51973982E+01
  7.59869910E+00  7.59869910E+00 -1.51973982E+01  7.59869910E+00  7.59869910E+00
 -1.51973982E+01  7.59869910E+00  7.59869910E+00 -1.51973982E+01  7.59869910E+00
  7.59869910E+00 -1.51973982E+01  7.59869910E+00  7.59869910E+00 -1.51973982E+01
  7.59869910E+00  7.59869910E+00 -1.51973982E+01  7.59869910E+00  7.59869910E+00
 -1.51973982E+01  7.59869910E+00  7.59869910E+00 -1.51973982E+01  7.59869910E+00
  7.59869910E+00 -1.51973982E+01  7.59869910E+00  7.59869910E+00 -1.51973982E+01
  7.59869910E+00  7.59869910E+00 -1.51973982E+01  7.59869910E+00  7.59869910E+00
 -1.51973982E+01  7.59869910E+00  7.59869910E+00 -1.51973982E+01  7.59869910E+00
  7.59869910E+00 -1.51973982E+01  7.59869910E+00  7.59869910E+00 -1.51973982E+01
  7.59869910E+00  7.59869910E+00 -1.51973982E+01  7.59869910E+00  7.59869910E+00
 -1.51973982E+01  7.59869910E+00  7.59869910E+00 -1.51973982E+01  7.59869910E+00
  7.59869910E+00 -1.51973982E+01  7.59869910E+00  7.59869910E+00 -1.51973982E+01
  7.59869910E+00  7.59869910E+00 -1.51973982E+01  7.59869910E+00  7.59869910E+00
 -1.51973982E+01  7.59869910E+00  7.59869910E+00 -1.51973982E+01  7.59869910E+00
  7.59869910E+00 -1.51973982E+01  7.59869910E+00  7.59869910E+00 -1.51973982E+01
  7.59869910E+00  7.59869910E+00 -1.51973982E+01  7.59869910E+00  7.59869910E+00
 -1.51973982E+01  7.59869910E+00  7.59869910E+00 -1.51973982E+01  7.59869910E+00
  7.59869910E+00 -1.51973982E+01  7.59869910E+00  7.59869910E+00 -1.51973982E+01
  7.59869910E+00  7.59869910E+00 -1.51973982E+01  7.59869910E+00  7.59869910E+00
 -1.51973982E+01  7.59869910E+00  7.59869910E+00 -1.51973982E+01  7.59869910E+00
  7.59869910E+00 -1.51973982E+01  7.59869910E+00  7.59869910E+00 -1.51973982E+01
  7.59869910E+00  7.59869910E+00 -1.51973982E+01  7.59869910E+00  7.59869910E+00
 -1.51973982E+01  7.59869910E+00  7.59869910E+00 -1.51973982E+01  7.59869910E+00
  7.59869910E+00 -1.51973982E+01  7.59869910E+00  7.59869910E+00 -1.51973982E+01
  7.59869910E+00  7.59869910E+00 -1.51973982E+01  7.59869910E+00  7.59869910E+00
 -1.51973982E+01  7.59869910E+00  7.59869910E+00 -1.51973982E+01  7.59869910E+00
  7.59869910E+00 -1.51973982E+01  7.59869910E+00  7.59869910E+00 -1.51973982E+01
  7.59869910E+00  7.59869910E+00 -1.51973982E+01  7.59869910E+00  7.59869910E+00
 -1.51973982E+01  7.59869910E+00  7.59869910E+00 -1.51973982E+01  7.59869910E+00
  7.59869910E+00 -1.51973982E+01  7.59869910E+00  7.59869910E+00 -1.51973982E+01
  7.59869910E+00  7.59869910E+00 -1.51973982E+01  7.59869910E+00  7.59869910E+00
 -1.51973982E+01  7.59869910E+00  7.59869910E+00 -1.51973982E+01  7.59869910E+00
  7.59869910E+00 -1.51973982E+01  7.59869910E+00  7.59869910E+00 -1.51973982E+01
  7.59869910E+00  7.59869910E+00 -1.51973982E+01  7.59869910E+00  7.59869910E+00
 -1.51973982E+01  7.59869910E+00  7.59869910E+00 -1.51973982E+01  7.59869910E+00
  7.59869910E+00 -1.51973982E+01  7.59869910E+00  7.59869910E+00 -1.51973982E+01
  7.59869910E+00  7.59869910E+00 -1.51973982E+01  7.59869910E+00  7.59869910E+00
 -1.51973982E+01  7.59869910E+00  7.59869910E+00 -1.51973982E+01  7.59869910E+00
  7.59869910E+00 -1.51973982E+01  7.59869910E+00  7.59869910E+00 -1.51973982E+01
  7.59869910E+00  7.59869910E+00 -1.51973982E+01  7.59869910E+00  7.59869910E+00
 -1.51973982E+01  7.59869910E+00  7.59869910E+00 -1.51973982E+01  7.59869910E+00
  7.59869910E+00 -1.51973982E+01  7.59869910E+00  7.59869910E+00 -1.51973982E+01
  7.59869910E+00  7.59869910E+00 -1.51973982E+01  7.59869910E+00  7.59869910E+00
 -1.51973982E+01  7.59869910E+00  7.59869910E+00 -1.51973982E+01  7.59869910E+00
  7.59869910E+00 -1.51973982E+01  7.59869910E+00  7.59869910E+00 -1.51973982E+01
  7.59869910E+00  7.59869910E+00 -1.51973982E+01  7.59869910E+00  7.59869910E+00
 -1.51973982E+01  7.59869910E+00  7.59869910E+00 -1.51973982E+01  7.59869910E+00
  7.59869910E+00 -1.51973982E+01  7.59869910E+00  7.59869910E+00 -1.51973982E+01
  7.59869910E+00  7.59869910E+00 -1.51973982E+01  7.59869910E+00  7.59869910E+00
 -1.51973982E+01  7.59869910E+00  7.59869910E+00 -1.51973982E+01  7.59869910E+00
  7.59869910E+00 -1.51973982E+01  7.59869910E+00  7.59869910E+00 -1.51973982E+01
  7.59869910E+00  7.59869910E+00 -1.51973982E+01  7.59869910E+00  7.59869910E+00
 -1.51973982E+01  7.59869910E+00  7.59869910E+00 -1.51973982E+01  7.59869910E+00
  7.59869910E+00 -1.51973982E+01  7.59869910E+00  7.59869910E+00 -1.51973982E+01
  7.59869910E+00  7.59869910E+00 -1.51973982E+01  7.59869910E+00  7.59869910E+00
 -1.51973982E+01  7.59869910E+00  7.59869910E+00 -1.51973982E+01  7.59869910E+00
  7.59869910E+00 -1.51973982E+01  7.59869910E+00  7.59869910E+00 -1.51973982E+01
  7.59869910E+00  7.59869910E+00 -1.51973982E+01  7.59869910E+00  7.59869910E+00
 -1.51973982E+01  7.59869910E+00  7.59869910E+00 -1.51973982E+01  7.59869910E+00
  7.59869910E+00 -1.51973982E+01  7.59869910E+00  7.59869910E+00 -1.51973982E+01
  7.59869910E+00  7.59869910E+00 -1.51973982E+01  7.59869910E+00  7.59869910E+00
 -1.51973982E+01  7.59869910E+00  7.59869910E+00 -1.51973982E+01  7.59869910E+00
  7.59869910E+00 -1.51973982E+01  7.59869910E+00  7.59869910E+00 -1.51973982E+01
  7.59869910E+00  7.59869910E+00 -1.51973982E+01  7.59869910E+00  7.59869910E+00
 -1.51973982E+01  7.59869910E+00  7.59869910E+00 -1.51973982E+01  7.59869910E+00
  7.59869910E+00 -1.51973982E+01  7.59869910E+00  7.59869910E+00 -1.51973982E+01
  7.59869910E+00  7.59869910E+00 -1.51973982E+01  7.59869910E+00  7.59869910E+00
 -1.51973982E+01  7.59869910E+00  7.59869910E+00 -1.51973982E+01  7.59869910E+00
  7.59869910E+00 -1.51973982E+01  7.59869910E+00  7.59869910E+00 -1.51973982E+01
  7.59869910E+00  7.59869910E+00 -1.51973982E+01  7.59869910E+00  7.59869910E+00
 -1.51973982E+01  7.59869910E+00  7.59869910E+00 -1.51973982E+01  7.59869910E+00
  7.59869910E+00 -1.51973982E+01  7.59869910E+00  7.59869910E+00 -1.51973982E+01
  7.59869910E+00  7.59869910E+00 -1.51973982E+01  7.59869910E+00  7.59869910E+00
 -1.51973982E+01  7.59869910E+00  7.59869910E+00 -1.51973982E+01  7.59869910E+00
  7.59869910E+00 -1.51973982E+01  7.59869910E+00  7.59869910E+00 -1.51973982E+01
  7.59869910E+00  7.59869910E+00 -1.51973982E+01  7.59869910E+00  7.59869910E+00
 -1.51973982E+01  7.59869910E+00  7.59869910E+00 -1.51973982E+01  7.59869910E+00
  7.59869910E+00 -1.51973982E+01  7.59869910E+00  7.59869910E+00 -1.51973982E+01
  7.59869910E+00  7.59869910E+00 -1.51973982E+01  7.59869910E+00  7.59869910E+00
 -1.51973982E+01  7.59869910E+00  7.59869910E+00 -1.51973982E+01  7.59869910E+00
  7.59869910E+00 -1.51973982E+01  7.59869910E+00  7.59869910E+00 -1.51973982E+01
  7.59869910E+00  7.59869910E+00 -1.51973982E+01  7.59869910E+00  7.59869910E+00
 -1.51973982E+01  7.59869910E+00  7.59869910E+00 -1.51973982E+01  7.59869910E+00
  7.59869910E+00 -1.51973982E+01  7.59869910E+00  7.59869910E+00 -1.51973982E+01
  7.59869910E+00  7.59869910E+00 -1.51973982E+01  7.59869910E+00  7.59869910E+00
 -1.51973982E+01  7.59869910E+00  7.59869910E+00 -1.51973982E+01  7.59869910E+00
  7.59869910E+00 -1.51973982E+01  7.59869910E+00  7.59869910E+00 -1.51973982E+01
  7.59869910E+00  7.59869910E+00 -1.51973982E+01  7.59869910E+00  7.59869910E+00
 -1.51973982E+01  7.59869910E+00  7.59869910E+00 -1.51973982E+01  7.59869910E+00
  7.59869910E+00 -1.51973982E+01  7.59869910E+00  7.59869910E+00 -1.51973982E+01
  7.59869910E+00  7.59869910E+00 -1.51973982E+01  7.59869910E+00  7.59869910E+00
 -1.51973982E+01  7.59869910E+00  7.59869910E+00 -1.51973982E+01  7.59869910E+00
  7.59869910E+00 -1.51973982E+01  7.59869910E+00  7.59869910E+00 -1.51973982E+01
  7.59869910E+00  7.59869910E+00 -1.51973982E+01  7.59869910E+00  7.59869910E+00
 -1.51973982E+01  7.59869910E+00  7.59869910E+00 -1.51973982E+01  7.59869910E+00
  7.59869910E+00 -1.51973982E+01  7.59869910E+00  7.59869910E+00 -1.51973982E+01
  7.59869910E+00  7.59869910E+00 -1.51973982E+01  7.59869910E+00  7.59869910E+00
 -1.51973982E+01  7.59869910E+00  7.59869910E+00 -1.51973982E+01  7.59869910E+00
  7.59869910E+00 -1.51973982E+01  7.59869910E+00  7.59869910E+00 -1.51973982E+01
  7.59869910E+00  7.59869910E+00 -1.51973982E+01  7.59869910E+00  7.59869910E+00
 -1.51973982E+01  7.59869910E+00  7.59869910E+00 -1.51973982E+01  7.59869910E+00
  7.59869910E+00 -1.51973982E+01  7.59869910E+00  7.59869910E+00 -1.51973982E+01
  7.59869910E+00  7.59869910E+00 -1.51973982E+01  7.59869910E+00  7.59869910E+00
 -1.51973982E+01  7.59869910E+00  7.59869910E+00 -1.51973982E+01  7.59869910E+00
  7.59869910E+00 -1.51973982E+01  7.59869910E+00  7.59869910E+00 -1.51973982E+01
  7.59869910E+00  7.59869910E+00 -1.51973982E+01  7.59869910E+00  7.59869910E+00
 -1.51973982E+01  7.59869910E+00  7.59869910E+00 -1.51973982E+01  7.59869910E+00
  7.59869910E+00 -1.51973982E+01  7.59869910E+00  7.59869910E+00 -1.51973982E+01
  7.59869910E+00  7.59869910E+00 -1.51973982E+01  7.59869910E+00  7.59869910E+00
 -1.51973982E+01  7.59869910E+00  7.59869910E+00 -1.51973982E+01  7.59869910E+00
  7.59869910E+00 -1.51973982E+01  7.59869910E+00  7.59869910E+00 -1.51973982E+01
  7.59869910E+00  7.59869910E+00 -1.51973982E+01  7.59869910E+00  7.59869910E+00
 -1.51973982E+01  7.59869910E+00  7.59869910E+00 -1.51973982E+01  7.59869910E+00
  7.59869910E+00 -1.51973982E+01  7.59869910E+00  7.59869910E+00 -1.51973982E+01
  7.59869910E+00  7.59869910E+00 -1.51973982E+01  7.59869910E+00  7.59869910E+00
 -1.51973982E+01  7.59869910E+00  7.59869910E+00 -1.51973982E+01  7.59869910E+00
  7.59869910E+00 -1.51973982E+01  7.59869910E+00  7.59869910E+00 -1.51973982E+01
  7.59869910E+00  7.59869910E+00 -1.51973982E+01  7.59869910E+00  7.59869910E+00
 -1.51973982E+01  7.59869910E+00  7.59869910E+00 -1.51973982E+01  7.59869910E+00
  7.59869910E+00 -1.51973982E+01  7.59869910E+00  7.59869910E+00 -1.51973982E+01
  7.59869910E+00  7.59869910E+00 -1.51973982E+01  7.59869910E+00  7.59869910E+00
 -1.51973982E+01  7.59869910E+00  7.59869910E+00 -1.51973982E+01  7.59869910E+00
  7.59869910E+00 -1.51973982E+01  7.59869910E+00  7.59869910E+00 -1.51973982E+01
  7.59869910E+00  7.59869910E+00 -1.51973982E+01  7.59869910E+00  7.59869910E+00
 -1.51973982E+01  7.59869910E+00  7.59869910E+00 -1.51973982E+01  7.59869910E+00
  7.59869910E+00 -1.51973982E+01  7.59869910E+00  7.59869910E+00 -1.51973982E+01
  7.59869910E+00  7.59869910E+00 -1.51973982E+01  7.59869910E+00  7.59869910E+00
 -1.51973982E+01  7.59869910E+00  7.59869910E+00 -1.51973982E+01  7.59869910E+00
  7.59869910E+00 -1.51973982E+01  7.59869910E+00  7.59869910E+00 -1.51973982E+01
  7.59869910E+00  7.59869910E+00 -1.51973982E+01  7.59869910E+00  7.59869910E+00
 -1.51973982E+01  7.59869910E+00  7.59869910E+00 -1.51973982E+01  7.59869910E+00
  7.59869910E+00 -1.51973982E+01  7.59869910E+00  7.59869910E+00 -1.51973982E+01
  7.59869910E+00  7.59869910E+00 -1.51973982E+01  7.59869910E+00  7.59869910E+00
 -1.51973982E+01  7.59869910E+00  7.59869910E+00 -1.51973982E+01  7.59869910E+00
  7.59869910E+00 -1.51973982E+01  7.59869910E+00  7.59869910E+00 -1.51973982E+01
  7.59869910E+00  7.59869910E+00 -1.51973982E+01  7.59869910E+00  7.59869910E+00
 -1.51973982E+01  7.59869910E+00  7.59869910E+00 -1.51973982E+01  7.59869910E+00
  7.59869910E+00 -1.51973982E+01  7.59869910E+00  7.59869910E+00 -1.51973982E+01
  7.59869910E+00  7.59869910E+00 -1.51973982E+01  7.59869910E+00  7.59869910E+00
 -1.51973982E+01  7.59869910E+00  7.59869910E+00 -1.51973982E+01  7.59869910E+00
  7.59869910E+00 -1.51973982E+01  7.59869910E+00  7.59869910E+00 -1.51973982E+01
  7.59869910E+00  7.59869910E+00 -1.51973982E+01  7.59869910E+00  7.59869910E+00
 -1.51973982E+01  7.59869910E+00  7.59869910E+00 -1.51973982E+01  7.59869910E+00
  7.59869910E+00 -1.51973982E+01  7.59869910E+00  7.59869910E+00 -1.51973982E+01
  7.59869910E+00  7.59869910E+00 -1.51973982E+01  7.59869910E+00  7.59869910E+00
 -1.51973982E+01  7.59869910E+00  7.59869910E+00 -1.51973982E+01  7.59869910E+00
  7.59869910E+00 -1.51973982E+01  7.59869910E+00  7.59869910E+00 -1.51973982E+01
  7.59869910E+00  7.59869910E+00 -1.51973982E+01  7.59869910E+00  7.59869910E+00
 -1.51973982E+01  7.59869910E+00  7.59869910E+00 -1.51973982E+01  7.59869910E+00
  7.59869910E+00 -1.51973982E+01  7.59869910E+00  7.59869910E+00 -1.51973982E+01
  7.59869910E+00  7.59869910E+00 -1.51973982E+01  7.59869910E+00  7.59869910E+00
 -1.51973982E+01  7.59869910E+00  7.59869910E+00 -1.51973982E+01  7.59869910E+00
  7.59869910E+00 -1.51973982E+01  7.59869910E+00  7.59869910E+00 -1.51973982E+01
  7.59869910E+00  7.59869910E+00 -1.51973982E+01  7.59869910E+00  7.59869910E+00
 -1.51973982E+01  7.59869910E+00  7.59869910E+00 -1.51973982E+01  7.59869910E+00
  7.59869910E+00 -1.51973982E+01  7.59869910E+00  7.59869910E+00 -1.51973982E+01
  7.59869910E+00  7.59869910E+00 -1.51973982E+01  7.59869910E+00  7.59869910E+00
 -1.51973982E+01  7.59869910E+00  7.59869910E+00 -1.51973982E+01  7.59869910E+00
  7.59869910E+00 -1.51973982E+01  7.59869910E+00  7.59869910E+00 -1.51973982E+01
  7.59869910E+00  7.59869910E+00 -1.51973982E+01  7.59869910E+00  7.59869910E+00
 -1.51973982E+01  7.59869910E+00  7.59869910E+00 -1.51973982E+01  7.59869910E+00
  7.59869910E+00 -1.51973982E+01  7.59869910E+00  7.59869910E+00 -1.51973982E+01
  7.59869910E+00  7.59869910E+00 -1.51973982E+01  7.59869910E+00  7.59869910E+00
 -1.51973982E+01  7.59869910E+00  7.59869910E+00 -1.51973982E+01  7.59869910E+00
  7.59869910E+00 -1.51973982E+01  7.59869910E+00  7.59869910E+00 -1.51973982E+01
  7.59869910E+00  7.59869910E+00 -1.51973982E+01  7.59869910E+00  7.59869910E+00
 -1.51973982E+01  7.59869910E+00  7.59869910E+00 -1.51973982E+01  7.59869910E+00
  7.59869910E+00 -1.51973982E+01  7.59869910E+00  7.59869910E+00 -1.51973982E+01
  7.59869910E+00  7.59869910E+00 -1.51973982E+01  7.59869910E+00  7.59869910E+00
 -1.51973982E+01  7.59869910E+00  7.59869910E+00 -1.51973982E+01  7.59869910E+00
  7.59869910E+00 -1.51973982E+01  7.59869910E+00  7.59869910E+00 -1.51973982E+01
  7.59869910E+00  7.59869910E+00 -1.51973982E+01  7.59869910E+00  7.59869910E+00
 -1.51973982E+01  7.59869910E+00  7.59869910E+00 -1.51973982E+01  7.59869910E+00
  7.59869910E+00 -1.51973982E+01  7.59869910E+00  7.59869910E+00 -1.51973982E+01
  7.59869910E+00  7.59869910E+00 -1.51973982E+01  7.59869910E+00  7.59869910E+00
 -1.51973982E+01  7.59869910E+00  7.59869910E+00 -1.51973982E+01  7.59869910E+00
  7.59869910E+00 -1.51973982E+01  7.59869910E+00  7.59869910E+00 -1.51973982E+01
  7.59869910E+00  7.59869910E+00 -1.51973982E+01  7.59869910E+00  7.59869910E+00
 -1.51973982E+01  7.59869910E+00  7.59869910E+00 -1.51973982E+01  7.59869910E+00
  7.59869910E+00 -1.51973982E+01  7.59869910E+00  7.59869910E+00 -1.51973982E+01
  7.59869910E+00  7.59869910E+00 -1.51973982E+01  7.59869910E+00  7.59869910E+00
 -1.51973982E+01  7.59869910E+00  7.59869910E+00 -1.51973982E+01  7.59869910E+00
  7.59869910E+00 -1.51973982E+01  7.59869910E+00  7.59869910E+00 -1.51973982E+01
  7.59869910E+00  7.59869910E+00 -1.51973982E+01  7.59869910E+00  7.59869910E+00
 -1.51973982E+01  7.59869910E+00  7.59869910E+00 -1.51973982E+01  7.59869910E+00
  7.59869910E+00 -1.51973982E+01  7.59869910E+00  7.59869910E+00 -1.51973982E+01
  7.59869910E+00  7.59869910E+00 -1.51973982E+01  7.59869910E+00  7.59869910E+00
 -1.51973982E+01  7.59869910E+00  7.59869910E+00 -1.51973982E+01  7.59869910E+00
  7.59869910E+00 -1.51973982E+01  7.59869910E+00  7.59869910E+00 -1.51973982E+01
  7.59869910E+00  7.59869910E+00 -1.51973982E+01  7.59869910E+00  7.59869910E+00
 -1.51973982E+01  7.59869910E+00  7.59869910E+00 -1.51973982E+01  7.59869910E+00
  7.59869910E+00 -1.51973982E+01  7.59869910E+00  7.59869910E+00 -1.51973982E+01
  7.59869910E+00  7.59869910E+00 -1.51973982E+01  7.59869910E+00  7.59869910E+00
 -1.51973982E+01  7.59869910E+00  7.59869910E+00 -1.51973982E+01  7.59869910E+00
  7.59869910E+00 -1.51973982E+01  7.59869910E+00  7.59869910E+00 -1.51973982E+01
  7.59869910E+00  7.59869910E+00 -1.51973982E+01  7.59869910E+00  7.59869910E+00
 -1.51973982E+01  7.59869910E+00  7.59869910E+00 -1.51973982E+01  7.59869910E+00
  7.59869910E+00 -1.51973982E+01  7.59869910E+00  7.59869910E+00 -1.51973982E+01
  7.59869910E+00  7.59869910E+00 -1.51973982E+01  7.59869910E+00  7.59869910E+00
 -1.51973982E+01  7.59869910E+00  7.59869910E+00 -1.51973982E+01  7.59869910E+00
  7.59869910E+00 -1.51973982E+01  7.59869910E+00  7.59869910E+00 -1.51973982E+01
  7.59869910E+00  7.59869910E+00 -1.51973982E+01  7.59869910E+00  7.59869910E+00
 -1.51973982E+01  7.59869910E+00  7.59869910E+00 -1.51973982E+01  7.59869910E+00
  7.59869910E+00 -1.51973982E+01  7.59869910E+00  7.59869910E+00 -1.51973982E+01
  7.59869910E+00  7.59869910E+00 -1.51973982E+01  7.59869910E+00  7.59869910E+00
 -1.51973982E+01  7.59869910E+00  7.59869910E+00 -1.51973982E+01  7.59869910E+00
  7.59869910E+00 -1.51973982E+01  7.59869910E+00  7.59869910E+00 -1.51973982E+01
  7.59869910E+00  7.59869910E+00 -1.51973982E+01  7.59869910E+00  7.59869910E+00
 -1.51973982E+01  7.59869910E+00  7.59869910E+00 -1.51973982E+01  7.59869910E+00
  7.59869910E+00 -1.51973982E+01  7.59869910E+00  7.59869910E+00 -1.51973982E+01
  7.59869910E+00  7.59869910E+00 -1.51973982E+01  7.59869910E+00  7.59869910E+00
 -1.51973982E+01  7.59869910E+00  7.59869910E+00 -1.51973982E+01  7.59869910E+00
  7.59869910E+00 -1.51973982E+01  7.59869910E+00  7.59869910E+00 -1.51973982E+01
  7.59869910E+00  7.59869910E+00 -1.51973982E+01  7.59869910E+00  7.59869910E+00
 -1.51973982E+01  7.59869910E+00  7.59869910E+00 -1.51973982E+01  7.59869910E+00
  7.59869910E+00 -1.51973982E+01  7.59869910E+00  7.59869910E+00 -1.51973982E+01
  7.59869910E+00  7.59869910E+00 -1.51973982E+01  7.59869910E+00  7.59869910E+00
 -1.51973982E+01  7.59869910E+00  7.59869910E+00 -1.51973982E+01  7.59869910E+00
  7.59869910E+00 -1.51973982E+01  7.59869910E+00  7.59869910E+00 -1.51973982E+01
  7.59869910E+00  7.59869910E+00 -1.51973982E+01  7.59869910E+00  7.59869910E+00
 -1.51973982E+01  7.59869910E+00  7.59869910E+00 -1.51973982E+01  7.59869910E+00
  7.59869910E+00 -1.51973982E+01  7.59869910E+00  7.59869910E+00 -1.51973982E+01
  7.59869910E+00  7.59869910E+00 -1.51973982E+01  7.59869910E+00  7.59869910E+00
 -1.51973982E+01  7.59869910E+00  7.59869910E+00 -1.51973982E+01  7.59869910E+00
  7.59869910E+00 -1.51973982E+01  7.59869910E+00  7.59869910E+00 -1.51973982E+01
  7.59869910E+00  7.59869910E+00 -1.51973982E+01  7.59869910E+00  7.59869910E+00
 -1.51973982E+01  7.59869910E+00  7.59869910E+00 -1.51973982E+01  7.59869910E+00
  7.59869910E+00 -1.51973982E+01  7.59869910E+00  7.59869910E+00 -1.51973982E+01
  7.59869910E+00  7.59869910E+00 -1.51973982E+01  7.59869910E+00  7.59869910E+00
 -1.51973982E+01  7.59869910E+00  7.59869910E+00 -1.51973982E+01  7.59869910E+00
  7.59869910E+00 -1.51973982E+01  7.59869910E+00  7.59869910E+00 -1.51973982E+01
  7.59869910E+00  7.59869910E+00 -1.51973982E+01  7.59869910E+00  7.59869910E+00
 -1.51973982E+01  7.59869910E+00  7.59869910E+00 -1.51973982E+01  7.59869910E+00
  7.59869910E+00 -1.51973982E+01  7.59869910E+00  7.59869910E+00 -1.51973982E+01
  7.59869910E+00  7.59869910E+00 -1.51973982E+01  7.59869910E+00  7.59869910E+00
 -1.51973982E+01  7.59869910E+00  7.59869910E+00 -1.51973982E+01  7.59869910E+00
  7.59869910E+00 -1.51973982E+01  7.59869910E+00  7.59869910E+00 -1.51973982E+01
  7.59869910E+00  7.59869910E+00 -1.51973982E+01  7.59869910E+00  7.59869910E+00
 -1.51973982E+01  7.59869910E+00  7.59869910E+00 -1.51973982E+01  7.59869910E+00
  7.59869910E+00 -1.51973982E+01  7.59869910E+00  7.59869910E+00 -1.51973982E+01
  7.59869910E+00  7.59869910E+00 -1.51973982E+01  7.59869910E+00  7.59869910E+00
 -1.51973982E+01  7.59869910E+00  7.59869910E+00 -1.51973982E+01  7.59869910E+00
  7.59869910E+00 -1.51973982E+01  7.59869910E+00  7.59869910E+00 -1.51973982E+01
  7.59869910E+00  7.59869910E+00 -1.51973982E+01  7.59869910E+00  7.59869910E+00
 -1.51973982E+01  7.59869910E+00  7.59869910E+00 -1.51973982E+01  7.59869910E+00
  7.59869910E+00 -1.51973982E+01  7.59869910E+00  7.59869910E+00 -1.51973982E+01
  7.59869910E+00  7.59869910E+00 -1.51973982E+01  7.59869910E+00  7.59869910E+00
 -1.51973982E+01  7.59869910E+00  7.59869910E+00 -1.51973982E+01  7.59869910E+00
  7.59869910E+00 -1.51973982E+01  7.59869910E+00  7.59869910E+00 -1.51973982E+01
  7.59869910E+00  7.59869910E+00 -1.51973982E+01  7.59869910E+00  7.59869910E+00
 -1.51973982E+01  7.59869910E+00  7.59869910E+00 -1.51973982E+01  7.59869910E+00
  7.59869910E+00 -1.51973982E+01  7.59869910E+00  7.59869910E+00 -1.51973982E+01
  7.59869910E+00  7.59869910E+00 -1.51973982E+01  7.59869910E+00  7.59869910E+00
 -1.51973982E+01  7.59869910E+00  7.59869910E+00 -1.51973982E+01  7.59869910E+00
  7.59869910E+00 -1.51973982E+01  7.59869910E+00  7.59869910E+00 -1.51973982E+01
  7.59869910E+00  7.59869910E+00 -1.51973982E+01  7.59869910E+00  7.59869910E+00
 -1.51973982E+01  7.59869910E+00  7.59869910E+00 -1.51973982E+01  7.59869910E+00
  7.59869910E+00 -1.51973982E+01  7.59869910E+00  7.59869910E+00 -1.51973982E+01
  7.59869910E+00  7.59869910E+00 -1.51973982E+01  7.59869910E+00  7.59869910E+00
 -1.51973982E+01  7.59869910E+00  7.59869910E+00 -1.51973982E+01  7.59869910E+00
  7.59869910E+00 -1.51973982E+01  7.59869910E+00  7.59869910E+00 -1.51973982E+01
  7.59869910E+00  7.59869910E+00 -1.51973982E+01  7.59869910E+00  7.59869910E+00
 -1.51973982E+01  7.59869910E+00  7.59869910E+00 -1.51973982E+01  7.59869910E+00
  7.59869910E+00 -1.51973982E+01  7.59869910E+00  7.59869910E+00 -1.51973982E+01
  7.59869910E+00  7.59869910E+00 -1.51973982E+01  7.59869910E+00  7.59869910E+00
 -1.51973982E+01  7.59869910E+00  7.59869910E+00 -1.51973982E+01  7.59869910E+00
  7.59869910E+00 -1.51973982E+01  7.59869910E+00  7.59869910E+00 -1.51973982E+01
  7.59869910E+00  7.59869910E+00 -1.51973982E+01  7.59869910E+00  7.59869910E+00
 -1.51973982E+01  7.59869910E+00  7.59869910E+00 -1.51973982E+01  7.59869910E+00
  7.59869910E+00 -1.51973982E+01  7.59869910E+00  7.59869910E+00 -1.51973982E+01
  7.59869910E+00  7.59869910E+00 -1.51973982E+01  7.59869910E+00  7.59869910E+00
 -1.51973982E+01  7.59869910E+00  7.59869910E+00 -1.51973982E+01  7.59869910E+00
  7.59869910E+00 -1.51973982E+01  7.59869910E+00  7.59869910E+00 -1.51973982E+01
  7.59869910E+00  7.59869910E+00 -1.51973982E+01  7.59869910E+00  7.59869910E+00
 -1.51973982E+01  7.59869910E+00  7.59869910E+00 -1.51973982E+01  7.59869910E+00
  7.59869910E+00 -1.51973982E+01  7.59869910E+00  7.59869910E+00 -1.51973982E+01
  7.59869910E+00  7.59869910E+00 -1.51973982E+01  7.59869910E+00  7.59869910E+00
 -1.51973982E+01  7.59869910E+00  7.59869910E+00 -1.51973982E+01  7.59869910E+00
  7.59869910E+00 -1.51973982E+01  7.59869910E+00  7.59869910E+00 -1.51973982E+01
  7.59869910E+00  7.59869910E+00 -1.51973982E+01  7.59869910E+00  7.59869910E+00
 -1.51973982E+01  7.59869910E+00  7.59869910E+00 -1.51973982E+01  7.59869910E+00
  7.59869910E+00 -1.51973982E+01  7.59869910E+00  7.59869910E+00 -1.51973982E+01
  7.59869910E+00  7.59869910E+00 -1.51973982E+01  7.59869910E+00  7.59869910E+00
 -1.51973982E+01  7.59869910E+00  7.59869910E+00 -1.51973982E+01  7.59869910E+00
  7.59869910E+00 -1.51973982E+01  7.59869910E+00  7.59869910E+00 -1.51973982E+01
  7.59869910E+00  7.59869910E+00 -1.51973982E+01  7.59869910E+00  7.59869910E+00
 -1.51973982E+01  7.59869910E+00  7.59869910E+00 -1.51973982E+01  7.59869910E+00
  7.59869910E+00 -1.51973982E+01  7.59869910E+00  7.59869910E+00 -1.51973982E+01
  7.59869910E+00  7.59869910E+00 -1.51973982E+01  7.59869910E+00  7.59869910E+00
 -1.51973982E+01  7.59869910E+00  7.59869910E+00 -1.51973982E+01  7.59869910E+00
  7.59869910E+00 -1.51973982E+01  7.59869910E+00  7.59869910E+00 -1.51973982E+01
  7.59869910E+00  7.59869910E+00 -1.51973982E+01  7.59869910E+00  7.59869910E+00
 -1.51973982E+01  7.59869910E+00  7.59869910E+00 -1.51973982E+01  7.59869910E+00
  7.59869910E+00 -1.51973982E+01  7.59869910E+00  7.59869910E+00 -1.51973982E+01
  7.59869910E+00  7.59869910E+00 -1.51973982E+01  7.59869910E+00  7.59869910E+00
 -1.51973982E+01  7.59869910E+00  7.59869910E+00 -1.51973982E+01  7.59869910E+00
  7.59869910E+00 -1.51973982E+01  7.59869910E+00  7.59869910E+00 -1.51973982E+01
  7.59869910E+00  7.59869910E+00 -1.51973982E+01  7.59869910E+00  7.59869910E+00
 -1.51973982E+01  7.59869910E+00  7.59869910E+00 -1.51973982E+01  7.59869910E+00
  7.59869910E+00 -1.51973982E+01  7.59869910E+00  7.59869910E+00 -1.51973982E+01
  7.59869910E+00  7.59869910E+00 -1.51973982E+01  7.59869910E+00  7.59869910E+00
 -1.51973982E+01  7.59869910E+00  7.59869910E+00 -1.51973982E+01  7.59869910E+00
  7.59869910E+00 -1.51973982E+01  7.59869910E+00  7.59869910E+00 -1.51973982E+01
  7.59869910E+00  7.59869910E+00 -1.51973982E+01  7.59869910E+00  7.59869910E+00
 -1.51973982E+01  7.59869910E+00  7.59869910E+00 -1.51973982E+01  7.59869910E+00
  7.59869910E+00 -1.51973982E+01  7.59869910E+00  7.59869910E+00 -1.51973982E+01
  7.59869910E+00  7.59869910E+00 -1.51973982E+01  7.59869910E+00  7.59869910E+00
 -1.51973982E+01  7.59869910E+00  7.59869910E+00 -1.51973982E+01  7.59869910E+00
  7.59869910E+00 -1.51973982E+01  7.59869910E+00  7.59869910E+00 -1.51973982E+01
  7.59869910E+00  7.59869910E+00 -1.51973982E+01  7.59869910E+00  7.59869910E+00
 -1.51973982E+01  7.59869910E+00  7.59869910E+00 -1.51973982E+01  7.59869910E+00
  7.59869910E+00 -1.51973982E+01  7.59869910E+00  7.59869910E+00 -1.51973982E+01
  7.59869910E+00  7.59869910E+00 -1.51973982E+01  7.59869910E+00  7.59869910E+00
 -1.51973982E+01  7.59869910E+00  7.59869910E+00 -1.51973982E+01  7.59869910E+00
  7.59869910E+00 -1.51973982E+01  7.59869910E+00  7.59869910E+00 -1.51973982E+01
  7.59869910E+00  7.59869910E+00 -1.51973982E+01  7.59869910E+00  7.59869910E+00
 -1.51973982E+01  7.59869910E+00  7.59869910E+00 -1.51973982E+01  7.59869910E+00
  7.59869910E+00 -1.51973982E+01  7.59869910E+00  7.59869910E+00 -1.51973982E+01
  7.59869910E+00  7.59869910E+00 -1.51973982E+01  7.59869910E+00  7.59869910E+00
 -1.51973982E+01  7.59869910E+00  7.59869910E+00 -1.51973982E+01  7.59869910E+00
  7.59869910E+00 -1.51973982E+01  7.59869910E+00  7.59869910E+00 -1.51973982E+01
  7.59869910E+00  7.59869910E+00 -1.51973982E+01  7.59869910E+00  7.59869910E+00
 -1.51973982E+01  7.59869910E+00  7.59869910E+00 -1.51973982E+01  7.59869910E+00
  7.59869910E+00 -1.51973982E+01  7.59869910E+00  7.59869910E+00 -1.51973982E+01
  7.59869910E+00  7.59869910E+00 -1.51973982E+01  7.59869910E+00  7.59869910E+00
 -1.51973982E+01  7.59869910E+00  7.59869910E+00 -1.51973982E+01  7.59869910E+00
  7.59869910E+00 -1.51973982E+01  7.59869910E+00  7.59869910E+00 -1.51973982E+01
  7.59869910E+00  7.59869910E+00 -1.51973982E+01  7.59869910E+00  7.59869910E+00
 -1.51973982E+01  7.59869910E+00  7.59869910E+00 -1.51973982E+01  7.59869910E+00
  7.59869910E+00 -1.51973982E+01  7.59869910E+00  7.59869910E+00 -1.51973982E+01
  7.59869910E+00  7.59869910E+00 -1.51973982E+01  7.59869910E+00  7.59869910E+00
 -1.51973982E+01  7.59869910E+00  7.59869910E+00 -1.51973982E+01  7.59869910E+00
  7.59869910E+00 -1.51973982E+01  7.59869910E+00  7.59869910E+00 -1.51973982E+01
  7.59869910E+00  7.59869910E+00 -1.51973982E+01  7.59869910E+00  7.59869910E+00
 -1.51973982E+01  7.59869910E+00  7.59869910E+00 -1.51973982E+01  7.59869910E+00
  7.59869910E+00 -1.51973982E+01  7.59869910E+00  7.59869910E+00 -1.51973982E+01
  7.59869910E+00  7.59869910E+00 -1.51973982E+01  7.59869910E+00  7.59869910E+00
 -1.51973982E+01  7.59869910E+00  7.59869910E+00 -1.51973982E+01  7.59869910E+00
  7.59869910E+00 -1.51973982E+01  7.59869910E+00  7.59869910E+00 -1.51973982E+01
  7.59869910E+00  7.59869910E+00 -1.51973982E+01  7.59869910E+00  7.59869910E+00
 -1.51973982E+01  7.59869910E+00  7.59869910E+00 -1.51973982E+01  7.59869910E+00
  7.59869910E+00 -1.51973982E+01  7.59869910E+00  7.59869910E+00 -1.51973982E+01
  7.59869910E+00  7.59869910E+00 -1.51973982E+01  7.59869910E+00  7.59869910E+00
 -1.51973982E+01  7.59869910E+00  7.59869910E+00 -1.51973982E+01  7.59869910E+00
  7.59869910E+00 -1.51973982E+01  7.59869910E+00  7.59869910E+00 -1.51973982E+01
  7.59869910E+00  7.59869910E+00 -1.51973982E+01  7.59869910E+00  7.59869910E+00
 -1.51973982E+01  7.59869910E+00  7.59869910E+00 -1.51973982E+01  7.59869910E+00
  7.59869910E+00 -1.51973982E+01  7.59869910E+00  7.59869910E+00 -1.51973982E+01
  7.59869910E+00  7.59869910E+00 -1.51973982E+01  7.59869910E+00  7.59869910E+00
 -1.51973982E+01  7.59869910E+00  7.59869910E+00 -1.51973982E+01  7.59869910E+00
  7.59869910E+00 -1.51973982E+01  7.59869910E+00  7.59869910E+00 -1.51973982E+01
  7.59869910E+00  7.59869910E+00 -1.51973982E+01  7.59869910E+00  7.59869910E+00
 -1.51973982E+01  7.59869910E+00  7.59869910E+00 -1.51973982E+01  7.59869910E+00
  7.59869910E+00 -1.51973982E+01  7.59869910E+00  7.59869910E+00 -1.51973982E+01
  7.59869910E+00  7.59869910E+00 -1.51973982E+01  7.59869910E+00  7.59869910E+00
 -1.51973982E+01  7.59869910E+00  7.59869910E+00 -1.51973982E+01  7.59869910E+00
  7.59869910E+00 -1.51973982E+01  7.59869910E+00  7.59869910E+00 -1.51973982E+01
  7.59869910E+00  7.59869910E+00 -1.51973982E+01  7.59869910E+00  7.59869910E+00
 -1.51973982E+01  7.59869910E+00  7.59869910E+00 -1.51973982E+01  7.59869910E+00
  7.59869910E+00 -1.51973982E+01  7.59869910E+00  7.59869910E+00 -1.51973982E+01
  7.59869910E+00  7.59869910E+00 -1.51973982E+01  7.59869910E+00  7.59869910E+00
 -1.51973982E+01  7.59869910E+00  7.59869910E+00 -1.51973982E+01  7.59869910E+00
  7.59869910E+00 -1.51973982E+01  7.59869910E+00  7.59869910E+00 -1.51973982E+01
  7.59869910E+00  7.59869910E+00 -1.51973982E+01  7.59869910E+00  7.59869910E+00
 -1.51973982E+01  7.59869910E+00  7.59869910E+00 -1.51973982E+01  7.59869910E+00
  7.59869910E+00 -1.51973982E+01  7.59869910E+00  7.59869910E+00 -1.51973982E+01
  7.59869910E+00  7.59869910E+00 -1.51973982E+01  7.59869910E+00  7.59869910E+00
 -1.51973982E+01  7.59869910E+00  7.59869910E+00 -1.51973982E+01  7.59869910E+00
  7.59869910E+00 -1.51973982E+01  7.59869910E+00  7.59869910E+00 -1.51973982E+01
  7.59869910E+00  7.59869910E+00 -1.51973982E+01  7.59869910E+00  7.59869910E+00
 -1.51973982E+01  7.59869910E+00  7.59869910E+00 -1.51973982E+01  7.59869910E+00
  7.59869910E+00 -1.51973982E+01  7.59869910E+00  7.59869910E+00 -1.51973982E+01
  7.59869910E+00  7.59869910E+00 -1.51973982E+01  7.59869910E+00  7.59869910E+00
 -1.51973982E+01  7.59869910E+00  7.59869910E+00 -1.51973982E+01  7.59869910E+00
  7.59869910E+00 -1.51973982E+01  7.59869910E+00  7.59869910E+00 -1.51973982E+01
  7.59869910E+00  7.59869910E+00 -1.51973982E+01  7.59869910E+00  7.59869910E+00
 -1.51973982E+01  7.59869910E+00  7.59869910E+00 -1.51973982E+01  7.59869910E+00
  7.59869910E+00 -1.51973982E+01  7.59869910E+00  7.59869910E+00 -1.51973982E+01
  7.59869910E+00  7.59869910E+00 -1.51973982E+01  7.59869910E+00  7.59869910E+00
 -1.51973982E+01  7.59869910E+00  7.59869910E+00 -1.51973982E+01  7.59869910E+00
  7.59869910E+00 -1.51973982E+01  7.59869910E+00  7.59869910E+00 -1.51973982E+01
  7.59869910E+00  7.59869910E+00 -1.51973982E+01  7.59869910E+00  7.59869910E+00
 -1.51973982E+01  7.59869910E+00  7.59869910E+00 -1.51973982E+01  7.59869910E+00
  7.59869910E+00 -1.51973982E+01  7.59869910E+00  7.59869910E+00 -1.51973982E+01
  7.59869910E+00  7.59869910E+00 -1.51973982E+01  7.59869910E+00  7.59869910E+00
 -1.51973982E+01  7.59869910E+00  7.59869910E+00 -1.51973982E+01  7.59869910E+00
  7.59869910E+00 -1.51973982E+01  7.59869910E+00  7.59869910E+00 -1.51973982E+01
  7.59869910E+00  7.59869910E+00 -1.51973982E+01  7.59869910E+00  7.59869910E+00
 -1.51973982E+01  7.59869910E+00  7.59869910E+00 -1.51973982E+01  7.59869910E+00
  7.59869910E+00 -1.51973982E+01  7.59869910E+00  7.59869910E+00 -1.51973982E+01
  7.59869910E+00  7.59869910E+00 -1.51973982E+01  7.59869910E+00  7.59869910E+00
 -1.51973982E+01  7.59869910E+00  7.59869910E+00 -1.51973982E+01  7.59869910E+00
  7.59869910E+00 -1.51973982E+01  7.59869910E+00  7.59869910E+00 -1.51973982E+01
  7.59869910E+00  7.59869910E+00 -1.51973982E+01  7.59869910E+00  7.59869910E+00
 -1.51973982E+01  7.59869910E+00  7.59869910E+00 -1.51973982E+01  7.59869910E+00
  7.59869910E+00 -1.51973982E+01  7.59869910E+00  7.59869910E+00 -1.51973982E+01
  7.59869910E+00  7.59869910E+00 -1.51973982E+01  7.59869910E+00  7.59869910E+00
 -1.51973982E+01  7.59869910E+00  7.59869910E+00 -1.51973982E+01  7.59869910E+00
  7.59869910E+00 -1.51973982E+01  7.59869910E+00  7.59869910E+00 -1.51973982E+01
  7.59869910E+00  7.59869910E+00 -1.51973982E+01  7.59869910E+00  7.59869910E+00
 -1.51973982E+01  7.59869910E+00  7.59869910E+00 -1.51973982E+01  7.59869910E+00
  7.59869910E+00 -1.51973982E+01  7.59869910E+00  7.59869910E+00 -1.51973982E+01
  7.59869910E+00  7.59869910E+00 -1.51973982E+01  7.59869910E+00  7.59869910E+00
 -1.51973982E+01  7.59869910E+00  7.59869910E+00 -1.51973982E+01  7.59869910E+00
  7.59869910E+00 -1.51973982E+01  7.59869910E+00  7.59869910E+00 -1.51973982E+01
  7.59869910E+00  7.59869910E+00 -1.51973982E+01  7.59869910E+00  7.59869910E+00
 -1.51973982E+01  7.59869910E+00  7.59869910E+00 -1.51973982E+01  7.59869910E+00
  7.59869910E+00 -1.51973982E+01  7.59869910E+00  7.59869910E+00 -1.51973982E+01
  7.59869910E+00  7.59869910E+00 -1.51973982E+01  7.59869910E+00  7.59869910E+00
 -1.51973982E+01  7.59869910E+00  7.59869910E+00 -1.51973982E+01  7.59869910E+00
  7.59869910E+00 -1.51973982E+01  7.59869910E+00  7.59869910E+00 -1.51973982E+01
  7.59869910E+00  7.59869910E+00 -1.51973982E+01  7.59869910E+00  7.59869910E+00
 -1.51973982E+01  7.59869910E+00  7.59869910E+00 -1.51973982E+01  7.59869910E+00
  7.59869910E+00 -1.51973982E+01  7.59869910E+00  7.59869910E+00 -1.51973982E+01
  7.59869910E+00  7.59869910E+00 -1.51973982E+01  7.59869910E+00  7.59869910E+00
 -1.51973982E+01  7.59869910E+00  7.59869910E+00 -1.51973982E+01  7.59869910E+00
  7.59869910E+00 -1.51973982E+01  7.59869910E+00  7.59869910E+00 -1.51973982E+01
  7.59869910E+00  7.59869910E+00 -1.51973982E+01  7.59869910E+00  7.59869910E+00
 -1.51973982E+01  7.59869910E+00  7.59869910E+00 -1.51973982E+01  7.59869910E+00
  7.59869910E+00 -1.51973982E+01  7.59869910E+00  7.59869910E+00 -1.51973982E+01
  7.59869910E+00  7.59869910E+00 -1.51973982E+01  7.59869910E+00  7.59869910E+00
 -1.51973982E+01  7.59869910E+00  7.59869910E+00 -1.51973982E+01  7.59869910E+00
  7.59869910E+00 -1.51973982E+01  7.59869910E+00  7.59869910E+00 -1.51973982E+01
  7.59869910E+00  7.59869910E+00 -1.51973982E+01  7.59869910E+00  7.59869910E+00
 -1.51973982E+01  7.59869910E+00  7.59869910E+00 -1.51973982E+01  7.59869910E+00
  7.59869910E+00 -1.51973982E+01  7.59869910E+00  7.59869910E+00 -1.51973982E+01
  7.59869910E+00  7.59869910E+00 -1.51973982E+01  7.59869910E+00  7.59869910E+00
 -1.51973982E+01  7.59869910E+00  7.59869910E+00 -1.51973982E+01  7.59869910E+00
  7.59869910E+00 -1.51973982E+01  7.59869910E+00  7.59869910E+00 -1.51973982E+01
  7.59869910E+00  7.59869910E+00 -1.51973982E+01  7.59869910E+00  7.59869910E+00
 -1.51973982E+01  7.59869910E+00  7.59869910E+00 -1.51973982E+01  7.59869910E+00
  7.59869910E+00 -1.51973982E+01  7.59869910E+00  7.59869910E+00 -1.51973982E+01
  7.59869910E+00  7.59869910E+00 -1.51973982E+01  7.59869910E+00  7.59869910E+00
 -1.51973982E+01  7.59869910E+00  7.59869910E+00 -1.51973982E+01  7.59869910E+00
  7.59869910E+00 -1.51973982E+01  7.59869910E+00  7.59869910E+00 -1.51973982E+01
  7.59869910E+00  7.59869910E+00 -1.51973982E+01  7.59869910E+00  7.59869910E+00
 -1.51973982E+01  7.59869910E+00  7.59869910E+00 -1.51973982E+01  7.59869910E+00
  7.59869910E+00 -1.51973982E+01  7.59869910E+00  7.59869910E+00 -1.51973982E+01
  7.59869910E+00  7.59869910E+00 -1.51973982E+01  7.59869910E+00  7.59869910E+00
 -1.51973982E+01  7.59869910E+00  7.59869910E+00 -1.51973982E+01  7.59869910E+00
  7.59869910E+00 -1.51973982E+01  7.59869910E+00  7.59869910E+00 -1.51973982E+01
  7.59869910E+00  7.59869910E+00 -1.51973982E+01  7.59869910E+00  7.59869910E+00
 -1.51973982E+01  7.59869910E+00  7.59869910E+00 -1.51973982E+01  7.59869910E+00
  7.59869910E+00 -1.51973982E+01  7.59869910E+00  7.59869910E+00 -1.51973982E+01
  7.59869910E+00  7.59869910E+00 -1.51973982E+01  7.59869910E+00  7.59869910E+00
 -1.51973982E+01  7.59869910E+00  7.59869910E+00 -1.51973982E+01  7.59869910E+00
  7.59869910E+00 -1.51973982E+01  7.59869910E+00  7.59869910E+00 -1.51973982E+01
  7.59869910E+00  7.59869910E+00 -1.51973982E+01  7.59869910E+00  7.59869910E+00
 -1.51973982E+01  7.59869910E+00  7.59869910E+00 -1.51973982E+01  7.59869910E+00
  7.59869910E+00 -1.51973982E+01  7.59869910E+00  7.59869910E+00 -1.51973982E+01
  7.59869910E+00  7.59869910E+00 -1.51973982E+01  7.59869910E+00  7.59869910E+00
 -1.51973982E+01  7.59869910E+00  7.59869910E+00 -1.51973982E+01  7.59869910E+00
  7.59869910E+00 -1.51973982E+01  7.59869910E+00  7.59869910E+00 -1.51973982E+01
  7.59869910E+00  7.59869910E+00 -1.51973982E+01  7.59869910E+00  7.59869910E+00
 -1.51973982E+01  7.59869910E+00  7.59869910E+00 -1.51973982E+01  7.59869910E+00
  7.59869910E+00 -1.51973982E+01  7.59869910E+00  7.59869910E+00 -1.51973982E+01
  7.59869910E+00  7.59869910E+00 -1.51973982E+01  7.59869910E+00  7.59869910E+00
 -1.51973982E+01  7.59869910E+00  7.59869910E+00 -1.51973982E+01  7.59869910E+00
  7.59869910E+00 -1.51973982E+01  7.59869910E+00  7.59869910E+00 -1.51973982E+01
  7.59869910E+00  7.59869910E+00 -1.51973982E+01  7.59869910E+00  7.59869910E+00
 -1.51973982E+01  7.59869910E+00  7.59869910E+00 -1.51973982E+01  7.59869910E+00
  7.59869910E+00 -1.51973982E+01  7.59869910E+00  7.59869910E+00 -1.51973982E+01
  7.59869910E+00  7.59869910E+00 -1.51973982E+01  7.59869910E+00  7.59869910E+00
 -1.51973982E+01  7.59869910E+00  7.59869910E+00 -1.51973982E+01  7.59869910E+00
  7.59869910E+00 -1.51973982E+01  7.59869910E+00  7.59869910E+00 -1.51973982E+01
  7.59869910E+00  7.59869910E+00 -1.51973982E+01  7.59869910E+00  7.59869910E+00
 -1.51973982E+01  7.59869910E+00  7.59869910E+00 -1.51973982E+01  7.59869910E+00
  7.59869910E+00 -1.51973982E+01  7.59869910E+00  7.59869910E+00 -1.51973982E+01
  7.59869910E+00  7.59869910E+00 -1.51973982E+01  7.59869910E+00  7.59869910E+00
 -1.51973982E+01  7.59869910E+00  7.59869910E+00 -1.51973982E+01  7.59869910E+00
  7.59869910E+00 -1.51973982E+01  7.59869910E+00  7.59869910E+00 -1.51973982E+01
  7.59869910E+00  7.59869910E+00 -1.51973982E+01  7.59869910E+00  7.59869910E+00
 -1.51973982E+01  7.59869910E+00  7.59869910E+00 -1.51973982E+01  7.59869910E+00
  7.59869910E+00 -1.51973982E+01  7.59869910E+00  7.59869910E+00 -1.51973982E+01
  7.59869910E+00  7.59869910E+00 -1.51973982E+01  7.59869910E+00  7.59869910E+00
 -1.51973982E+01  7.59869910E+00  7.59869910E+00 -1.51973982E+01  7.59869910E+00
  7.59869910E+00 -1.51973982E+01  7.59869910E+00  7.59869910E+00 -1.51973982E+01
  7.59869910E+00  7.59869910E+00 -1.51973982E+01  7.59869910E+00  7.59869910E+00
 -1.51973982E+01  7.59869910E+00  7.59869910E+00 -1.51973982E+01  7.59869910E+00
  7.59869910E+00 -1.51973982E+01  7.59869910E+00  7.59869910E+00 -1.51973982E+01
  7.59869910E+00  7.59869910E+00 -1.51973982E+01  7.59869910E+00  7.59869910E+00
 -1.51973982E+01  7.59869910E+00  7.59869910E+00 -1.51973982E+01  7.59869910E+00
  7.59869910E+00 -1.51973982E+01  7.59869910E+00  7.59869910E+00 -1.51973982E+01
  7.59869910E+00  7.59869910E+00 -1.51973982E+01  7.59869910E+00  7.59869910E+00
 -1.51973982E+01  7.59869910E+00  7.59869910E+00 -1.51973982E+01  7.59869910E+00
  7.59869910E+00 -1.51973982E+01  7.59869910E+00  7.59869910E+00 -1.51973982E+01
  7.59869910E+00  7.59869910E+00 -1.51973982E+01  7.59869910E+00  7.59869910E+00
 -1.51973982E+01  7.59869910E+00  7.59869910E+00 -1.51973982E+01  7.59869910E+00
  7.59869910E+00 -1.51973982E+01  7.59869910E+00  7.59869910E+00 -1.51973982E+01
  7.59869910E+00  7.59869910E+00 -1.51973982E+01  7.59869910E+00  7.59869910E+00
 -1.51973982E+01  7.59869910E+00  7.59869910E+00 -1.51973982E+01  7.59869910E+00
  7.59869910E+00 -1.51973982E+01  7.59869910E+00  7.59869910E+00 -1.51973982E+01
  7.59869910E+00  7.59869910E+00 -1.51973982E+01  7.59869910E+00  7.59869910E+00
 -1.51973982E+01  7.59869910E+00  7.59869910E+00 -1.51973982E+01  7.59869910E+00
  7.59869910E+00 -1.51973982E+01  7.59869910E+00  7.59869910E+00 -1.51973982E+01
  7.59869910E+00  7.59869910E+00 -1.51973982E+01  7.59869910E+00  7.59869910E+00
 -1.51973982E+01  7.59869910E+00  7.59869910E+00 -1.51973982E+01  7.59869910E+00
  7.59869910E+00 -1.51973982E+01  7.59869910E+00  7.59869910E+00 -1.51973982E+01
  7.59869910E+00  7.59869910E+00 -1.51973982E+01  7.59869910E+00  7.59869910E+00
 -1.51973982E+01  7.59869910E+00  7.59869910E+00 -1.51973982E+01  7.59869910E+00
  7.59869910E+00 -1.51973982E+01  7.59869910E+00  7.59869910E+00 -1.51973982E+01
  7.59869910E+00  7.59869910E+00 -1.51973982E+01  7.59869910E+00  7.59869910E+00
 -1.51973982E+01  7.59869910E+00  7.59869910E+00 -1.51973982E+01  7.59869910E+00
  7.59869910E+00 -1.51973982E+01  7.59869910E+00  7.59869910E+00 -1.51973982E+01
  7.59869910E+00  7.59869910E+00 -1.51973982E+01  7.59869910E+00  7.59869910E+00
 -1.51973982E+01  7.59869910E+00  7.59869910E+00 -1.51973982E+01  7.59869910E+00
  7.59869910E+00 -1.51973982E+01  7.59869910E+00  7.59869910E+00 -1.51973982E+01
  7.59869910E+00  7.59869910E+00 -1.51973982E+01  7.59869910E+00  7.59869910E+00
 -1.51973982E+01  7.59869910E+00  7.59869910E+00 -1.51973982E+01  7.59869910E+00
  7.59869910E+00 -1.51973982E+01  7.59869910E+00  7.59869910E+00 -1.51973982E+01
  7.59869910E+00  7.59869910E+00 -1.51973982E+01  7.59869910E+00  7.59869910E+00
 -1.51973982E+01  7.59869910E+00  7.59869910E+00 -1.51973982E+01  7.59869910E+00
  7.59869910E+00 -1.51973982E+01  7.59869910E+00  7.59869910E+00 -1.51973982E+01
  7.59869910E+00  7.59869910E+00 -1.51973982E+01  7.59869910E+00  7.59869910E+00
 -1.51973982E+01  7.59869910E+00  7.59869910E+00 -1.51973982E+01  7.59869910E+00
  7.59869910E+00 -1.51973982E+01  7.59869910E+00  7.59869910E+00 -1.51973982E+01
  7.59869910E+00  7.59869910E+00 -1.51973982E+01  7.59869910E+00  7.59869910E+00
 -1.51973982E+01  7.59869910E+00  7.59869910E+00 -1.51973982E+01  7.59869910E+00
  7.59869910E+00 -1.51973982E+01  7.59869910E+00  7.59869910E+00 -1.51973982E+01
  7.59869910E+00  7.59869910E+00 -1.51973982E+01  7.59869910E+00  7.59869910E+00
 -1.51973982E+01  7.59869910E+00  7.59869910E+00 -1.51973982E+01  7.59869910E+00
  7.59869910E+00 -1.51973982E+01  7.59869910E+00  7.59869910E+00 -1.51973982E+01
  7.59869910E+00  7.59869910E+00 -1.51973982E+01  7.59869910E+00  7.59869910E+00
 -1.51973982E+01  7.59869910E+00  7.59869910E+00 -1.51973982E+01  7.59869910E+00
  7.59869910E+00 -1.51973982E+01  7.59869910E+00  7.59869910E+00 -1.51973982E+01
  7.59869910E+00  7.59869910E+00 -1.51973982E+01  7.59869910E+00  7.59869910E+00
 -1.51973982E+01  7.59869910E+00  7.59869910E+00 -1.51973982E+01  7.59869910E+00
  7.59869910E+00 -1.51973982E+01  7.59869910E+00  7.59869910E+00 -1.51973982E+01
  7.59869910E+00  7.59869910E+00 -1.51973982E+01  7.59869910E+00  7.59869910E+00
 -1.51973982E+01  7.59869910E+00  7.59869910E+00 -1.51973982E+01  7.59869910E+00
  7.59869910E+00 -1.51973982E+01  7.59869910E+00  7.59869910E+00 -1.51973982E+01
  7.59869910E+00  7.59869910E+00 -1.51973982E+01  7.59869910E+00  7.59869910E+00
 -1.51973982E+01  7.59869910E+00  7.59869910E+00 -1.51973982E+01  7.59869910E+00
  7.59869910E+00 -1.51973982E+01  7.59869910E+00  7.59869910E+00 -1.51973982E+01
  7.59869910E+00  7.59869910E+00 -1.51973982E+01  7.59869910E+00  7.59869910E+00
 -1.51973982E+01  7.59869910E+00  7.59869910E+00 -1.51973982E+01  7.59869910E+00
  7.59869910E+00 -1.51973982E+01  7.59869910E+00  7.59869910E+00 -1.51973982E+01
  7.59869910E+00  7.59869910E+00 -1.51973982E+01  7.59869910E+00  7.59869910E+00
 -1.51973982E+01  7.59869910E+00  7.59869910E+00 -1.51973982E+01  7.59869910E+00
  7.59869910E+00 -1.51973982E+01  7.59869910E+00  7.59869910E+00 -1.51973982E+01
  7.59869910E+00  7.59869910E+00 -1.51973982E+01  7.59869910E+00  7.59869910E+00
 -1.51973982E+01  7.59869910E+00  7.59869910E+00 -1.51973982E+01  7.59869910E+00
  7.59869910E+00 -1.51973982E+01  7.59869910E+00  7.59869910E+00 -1.51973982E+01
  7.59869910E+00  7.59869910E+00 -1.51973982E+01  7.59869910E+00  7.59869910E+00
 -1.51973982E+01  7.59869910E+00  7.59869910E+00 -1.51973982E+01  7.59869910E+00
  7.59869910E+00 -1.51973982E+01  7.59869910E+00  7.59869910E+00 -1.51973982E+01
  7.59869910E+00  7.59869910E+00 -1.51973982E+01  7.59869910E+00  7.59869910E+00
 -1.51973982E+01  7.59869910E+00  7.59869910E+00 -1.51973982E+01  7.59869910E+00
  7.59869910E+00 -1.51973982E+01  7.59869910E+00  7.59869910E+00 -1.51973982E+01
  7.59869910E+00  7.59869910E+00 -1.51973982E+01  7.59869910E+00  7.59869910E+00
 -1.51973982E+01  7.59869910E+00  7.59869910E+00 -1.51973982E+01  7.59869910E+00
  7.59869910E+00 -1.51973982E+01  7.59869910E+00  7.59869910E+00 -1.51973982E+01
  7.59869910E+00  7.59869910E+00 -1.51973982E+01  7.59869910E+00  7.59869910E+00
 -1.51973982E+01  7.59869910E+00  7.59869910E+00 -1.51973982E+01  7.59869910E+00
  7.59869910E+00 -1.51973982E+01  7.59869910E+00  7.59869910E+00 -1.51973982E+01
  7.59869910E+00  7.59869910E+00 -1.51973982E+01  7.59869910E+00  7.59869910E+00
 -1.51973982E+01  7.59869910E+00  7.59869910E+00 -1.51973982E+01  7.59869910E+00
  7.59869910E+00 -1.51973982E+01  7.59869910E+00  7.59869910E+00 -1.51973982E+01
  7.59869910E+00  7.59869910E+00 -1.51973982E+01  7.59869910E+00  7.59869910E+00
 -1.51973982E+01  7.59869910E+00  7.59869910E+00 -1.51973982E+01  7.59869910E+00
  7.59869910E+00 -1.51973982E+01  7.59869910E+00  7.59869910E+00 -1.51973982E+01
  7.59869910E+00  7.59869910E+00 -1.51973982E+01  7.59869910E+00  7.59869910E+00
 -1.51973982E+01  7.59869910E+00  7.59869910E+00 -1.51973982E+01  7.59869910E+00
  7.59869910E+00 -1.51973982E+01  7.59869910E+00  7.59869910E+00 -1.51973982E+01
  7.59869910E+00  7.59869910E+00 -1.51973982E+01  7.59869910E+00  7.59869910E+00
 -1.51973982E+01  7.59869910E+00  7.59869910E+00 -1.51973982E+01  7.59869910E+00
  7.59869910E+00 -1.51973982E+01  7.59869910E+00  7.59869910E+00 -1.51973982E+01
  7.59869910E+00  7.59869910E+00 -1.51973982E+01  7.59869910E+00  7.59869910E+00
 -1.51973982E+01  7.59869910E+00  7.59869910E+00 -1.51973982E+01  7.59869910E+00
  7.59869910E+00 -1.51973982E+01  7.59869910E+00  7.59869910E+00 -1.51973982E+01
  7.59869910E+00  7.59869910E+00 -1.51973982E+01  7.59869910E+00  7.59869910E+00
 -1.51973982E+01  7.59869910E+00  7.59869910E+00 -1.51973982E+01  7.59869910E+00
  7.59869910E+00 -1.51973982E+01  7.59869910E+00  7.59869910E+00 -1.51973982E+01
  7.59869910E+00  7.59869910E+00 -1.51973982E+01  7.59869910E+00  7.59869910E+00
 -1.51973982E+01  7.59869910E+00  7.59869910E+00 -1.51973982E+01  7.59869910E+00
  7.59869910E+00 -1.51973982E+01  7.59869910E+00  7.59869910E+00 -1.51973982E+01
  7.59869910E+00  7.59869910E+00 -1.51973982E+01  7.59869910E+00  7.59869910E+00
 -1.51973982E+01  7.59869910E+00  7.59869910E+00 -1.51973982E+01  7.59869910E+00
  7.59869910E+00 -1.51973982E+01  7.59869910E+00  7.59869910E+00 -1.51973982E+01
  7.59869910E+00  7.59869910E+00 -1.51973982E+01  7.59869910E+00  7.59869910E+00
 -1.51973982E+01  7.59869910E+00  7.59869910E+00 -1.51973982E+01  7.59869910E+00
  7.59869910E+00 -1.51973982E+01  7.59869910E+00  7.59869910E+00 -1.51973982E+01
  7.59869910E+00  7.59869910E+00 -1.51973982E+01  7.59869910E+00  7.59869910E+00
 -1.51973982E+01  7.59869910E+00  7.59869910E+00 -1.51973982E+01  7.59869910E+00
  7.59869910E+00 -1.51973982E+01  7.59869910E+00  7.59869910E+00 -1.51973982E+01
  7.59869910E+00  7.59869910E+00 -1.51973982E+01  7.59869910E+00  7.59869910E+00
 -1.51973982E+01  7.59869910E+00  7.59869910E+00 -1.51973982E+01  7.59869910E+00
  7.59869910E+00 -1.51973982E+01  7.59869910E+00  7.59869910E+00 -1.51973982E+01
  7.59869910E+00  7.59869910E+00 -1.51973982E+01  7.59869910E+00  7.59869910E+00
 -1.51973982E+01  7.59869910E+00  7.59869910E+00 -1.51973982E+01  7.59869910E+00
  7.59869910E+00 -1.51973982E+01  7.59869910E+00  7.59869910E+00 -1.51973982E+01
  7.59869910E+00  7.59869910E+00 -1.51973982E+01  7.59869910E+00  7.59869910E+00
 -1.51973982E+01  7.59869910E+00  7.59869910E+00 -1.51973982E+01  7.59869910E+00
  7.59869910E+00 -1.51973982E+01  7.59869910E+00  7.59869910E+00 -1.51973982E+01
  7.59869910E+00  7.59869910E+00 -1.51973982E+01  7.59869910E+00  7.59869910E+00
 -1.51973982E+01  7.59869910E+00  7.59869910E+00 -1.51973982E+01  7.59869910E+00
  7.59869910E+00 -1.51973982E+01  7.59869910E+00  7.59869910E+00 -1.51973982E+01
  7.59869910E+00  7.59869910E+00 -1.51973982E+01  7.59869910E+00  7.59869910E+00
 -1.51973982E+01  7.59869910E+00  7.59869910E+00 -1.51973982E+01  7.59869910E+00
  7.59869910E+00 -1.51973982E+01  7.59869910E+00  7.59869910E+00 -1.51973982E+01
  7.59869910E+00  7.59869910E+00 -1.51973982E+01  7.59869910E+00  7.59869910E+00
 -1.51973982E+01  7.59869910E+00  7.59869910E+00 -1.51973982E+01  7.59869910E+00
  7.59869910E+00 -1.51973982E+01  7.59869910E+00  7.59869910E+00 -1.51973982E+01
  7.59869910E+00  7.59869910E+00 -1.51973982E+01  7.59869910E+00  7.59869910E+00
 -1.51973982E+01  7.59869910E+00  7.59869910E+00 -1.51973982E+01  7.59869910E+00
  7.59869910E+00 -1.51973982E+01  7.59869910E+00  7.59869910E+00 -1.51973982E+01
  7.59869910E+00  7.59869910E+00 -1.51973982E+01  7.59869910E+00  7.59869910E+00
 -1.51973982E+01  7.59869910E+00  7.59869910E+00 -1.51973982E+01  7.59869910E+00
  7.59869910E+00 -1.51973982E+01  7.59869910E+00  7.59869910E+00 -1.51973982E+01
  7.59869910E+00  7.59869910E+00 -1.51973982E+01  7.59869910E+00  7.59869910E+00
 -1.51973982E+01  7.59869910E+00  7.59869910E+00 -1.51973982E+01  7.59869910E+00
  7.59869910E+00 -1.51973982E+01  7.59869910E+00  7.59869910E+00 -1.51973982E+01
  7.59869910E+00  7.59869910E+00 -1.51973982E+01  7.59869910E+00  7.59869910E+00
 -1.51973982E+01  7.59869910E+00  7.59869910E+00 -1.51973982E+01  7.59869910E+00
  7.59869910E+00 -1.51973982E+01  7.59869910E+00  7.59869910E+00 -1.51973982E+01
  7.59869910E+00  7.59869910E+00 -1.51973982E+01  7.59869910E+00  7.59869910E+00
 -1.51973982E+01  7.59869910E+00  7.59869910E+00 -1.51973982E+01  7.59869910E+00
  7.59869910E+00 -1.51973982E+01  7.59869910E+00  7.59869910E+00 -1.51973982E+01
  7.59869910E+00  7.59869910E+00 -1.51973982E+01  7.59869910E+00  7.59869910E+00
 -1.51973982E+01  7.59869910E+00  7.59869910E+00 -1.51973982E+01  7.59869910E+00
  7.59869910E+00 -1.51973982E+01  7.59869910E+00  7.59869910E+00 -1.51973982E+01
  7.59869910E+00  7.59869910E+00 -1.51973982E+01  7.59869910E+00  7.59869910E+00
 -1.51973982E+01  7.59869910E+00  7.59869910E+00 -1.51973982E+01  7.59869910E+00
  7.59869910E+00 -1.51973982E+01  7.59869910E+00  7.59869910E+00 -1.51973982E+01
  7.59869910E+00  7.59869910E+00 -1.51973982E+01  7.59869910E+00  7.59869910E+00
 -1.51973982E+01  7.59869910E+00  7.59869910E+00 -1.51973982E+01  7.59869910E+00
  7.59869910E+00 -1.51973982E+01  7.59869910E+00  7.59869910E+00 -1.51973982E+01
  7.59869910E+00  7.59869910E+00 -1.51973982E+01  7.59869910E+00  7.59869910E+00
 -1.51973982E+01  7.59869910E+00  7.59869910E+00 -1.51973982E+01  7.59869910E+00
  7.59869910E+00 -1.51973982E+01  7.59869910E+00  7.59869910E+00 -1.51973982E+01
  7.59869910E+00  7.59869910E+00 -1.51973982E+01  7.59869910E+00  7.59869910E+00
 -1.51973982E+01  7.59869910E+00  7.59869910E+00 -1.51973982E+01  7.59869910E+00
  7.59869910E+00 -1.51973982E+01  7.59869910E+00  7.59869910E+00 -1.51973982E+01
  7.59869910E+00  7.59869910E+00 -1.51973982E+01  7.59869910E+00  7.59869910E+00
 -1.51973982E+01  7.59869910E+00  7.59869910E+00 -1.51973982E+01  7.59869910E+00
  7.59869910E+00 -1.51973982E+01  7.59869910E+00  7.59869910E+00 -1.51973982E+01
  7.59869910E+00  7.59869910E+00 -1.51973982E+01  7.59869910E+00  7.59869910E+00
 -1.51973982E+01  7.59869910E+00  7.59869910E+00 -1.51973982E+01  7.59869910E+00
  7.59869910E+00 -1.51973982E+01  7.59869910E+00  7.59869910E+00 -1.51973982E+01
  7.59869910E+00  7.59869910E+00 -1.51973982E+01  7.59869910E+00  7.59869910E+00
 -1.51973982E+01  7.59869910E+00  7.59869910E+00 -1.51973982E+01  7.59869910E+00
  7.59869910E+00 -1.51973982E+01  7.59869910E+00  7.59869910E+00 -1.51973982E+01
  7.59869910E+00  7.59869910E+00 -1.51973982E+01  7.59869910E+00  7.59869910E+00
 -1.51973982E+01  7.59869910E+00  7.59869910E+00 -1.51973982E+01  7.59869910E+00
  7.59869910E+00 -1.51973982E+01  7.59869910E+00  7.59869910E+00 -1.51973982E+01
  7.59869910E+00  7.59869910E+00 -1.51973982E+01  7.59869910E+00  7.59869910E+00
 -1.51973982E+01  7.59869910E+00  7.59869910E+00 -1.51973982E+01  7.59869910E+00
  7.59869910E+00 -1.51973982E+01  7.59869910E+00  7.59869910E+00 -1.51973982E+01
  7.59869910E+00  7.59869910E+00 -1.51973982E+01  7.59869910E+00  7.59869910E+00
 -1.51973982E+01  7.59869910E+00  7.59869910E+00 -1.51973982E+01  7.59869910E+00
  7.59869910E+00 -1.51973982E+01  7.59869910E+00  7.59869910E+00 -1.51973982E+01
  7.59869910E+00  7.59869910E+00 -1.51973982E+01  7.59869910E+00  7.59869910E+00
 -1.51973982E+01  7.59869910E+00  7.59869910E+00 -1.51973982E+01  7.59869910E+00
  7.59869910E+00 -1.51973982E+01  7.59869910E+00  7.59869910E+00 -1.51973982E+01
  7.59869910E+00  7.59869910E+00 -1.51973982E+01  7.59869910E+00  7.59869910E+00
 -1.51973982E+01  7.59869910E+00  7.59869910E+00 -1.51973982E+01  7.59869910E+00
  7.59869910E+00 -1.51973982E+01  7.59869910E+00  7.59869910E+00 -1.51973982E+01
  7.59869910E+00  7.59869910E+00 -1.51973982E+01  7.59869910E+00  7.59869910E+00
 -1.51973982E+01  7.59869910E+00  7.59869910E+00 -1.51973982E+01  7.59869910E+00
  7.59869910E+00 -1.51973982E+01  7.59869910E+00  7.59869910E+00 -1.51973982E+01
  7.59869910E+00  7.59869910E+00 -1.51973982E+01  7.59869910E+00  7.59869910E+00
 -1.51973982E+01  7.59869910E+00  7.59869910E+00 -1.51973982E+01  7.59869910E+00
  7.59869910E+00 -1.51973982E+01  7.59869910E+00  7.59869910E+00 -1.51973982E+01
  7.59869910E+00  7.59869910E+00 -1.51973982E+01  7.59869910E+00  7.59869910E+00
 -1.51973982E+01  7.59869910E+00  7.59869910E+00 -1.51973982E+01  7.59869910E+00
  7.59869910E+00 -1.51973982E+01  7.59869910E+00  7.59869910E+00 -1.51973982E+01
  7.59869910E+00  7.59869910E+00 -1.51973982E+01  7.59869910E+00  7.59869910E+00
 -1.51973982E+01  7.59869910E+00  7.59869910E+00 -1.51973982E+01  7.59869910E+00
  7.59869910E+00 -1.51973982E+01  7.59869910E+00  7.59869910E+00 -1.51973982E+01
  7.59869910E+00  7.59869910E+00 -1.51973982E+01  7.59869910E+00  7.59869910E+00
 -1.51973982E+01  7.59869910E+00  7.59869910E+00 -1.51973982E+01  7.59869910E+00
  7.59869910E+00 -1.51973982E+01  7.59869910E+00  7.59869910E+00 -1.51973982E+01
  7.59869910E+00  7.59869910E+00 -1.51973982E+01  7.59869910E+00  7.59869910E+00
 -1.51973982E+01  7.59869910E+00  7.59869910E+00 -1.51973982E+01  7.59869910E+00
  7.59869910E+00 -1.51973982E+01  7.59869910E+00  7.59869910E+00 -1.51973982E+01
  7.59869910E+00  7.59869910E+00 -1.51973982E+01  7.59869910E+00  7.59869910E+00
 -1.51973982E+01  7.59869910E+00  7.59869910E+00 -1.51973982E+01  7.59869910E+00
  7.59869910E+00 -1.51973982E+01  7.59869910E+00  7.59869910E+00 -1.51973982E+01
  7.59869910E+00  7.59869910E+00 -1.51973982E+01  7.59869910E+00  7.59869910E+00
 -1.51973982E+01  7.59869910E+00  7.59869910E+00 -1.51973982E+01  7.59869910E+00
  7.59869910E+00 -1.51973982E+01  7.59869910E+00  7.59869910E+00 -1.51973982E+01
  7.59869910E+00  7.59869910E+00 -1.51973982E+01  7.59869910E+00  7.59869910E+00
 -1.51973982E+01  7.59869910E+00  7.59869910E+00 -1.51973982E+01  7.59869910E+00
  7.59869910E+00 -1.51973982E+01  7.59869910E+00  7.59869910E+00 -1.51973982E+01
  7.59869910E+00  7.59869910E+00 -1.51973982E+01  7.59869910E+00  7.59869910E+00
 -1.51973982E+01  7.59869910E+00  7.59869910E+00 -1.51973982E+01  7.59869910E+00
  7.59869910E+00 -1.51973982E+01  7.59869910E+00  7.59869910E+00 -1.51973982E+01
  7.59869910E+00  7.59869910E+00 -1.51973982E+01  7.59869910E+00  7.59869910E+00
 -1.51973982E+01  7.59869910E+00  7.59869910E+00 -1.51973982E+01  7.59869910E+00
  7.59869910E+00 -1.51973982E+01  7.59869910E+00  7.59869910E+00 -1.51973982E+01
  7.59869910E+00  7.59869910E+00 -1.51973982E+01  7.59869910E+00  7.59869910E+00
 -1.51973982E+01  7.59869910E+00  7.59869910E+00 -1.51973982E+01  7.59869910E+00
  7.59869910E+00 -1.51973982E+01  7.59869910E+00  7.59869910E+00 -1.51973982E+01
  7.59869910E+00  7.59869910E+00 -1.51973982E+01  7.59869910E+00  7.59869910E+00
 -1.51973982E+01  7.59869910E+00  7.59869910E+00 -1.51973982E+01  7.59869910E+00
  7.59869910E+00 -1.51973982E+01  7.59869910E+00  7.59869910E+00 -1.51973982E+01
  7.59869910E+00  7.59869910E+00 -1.51973982E+01  7.59869910E+00  7.59869910E+00
 -1.51973982E+01  7.59869910E+00  7.59869910E+00 -1.51973982E+01  7.59869910E+00
  7.59869910E+00 -1.51973982E+01  7.59869910E+00  7.59869910E+00 -1.51973982E+01
  7.59869910E+00  7.59869910E+00 -1.51973982E+01  7.59869910E+00  7.59869910E+00
 -1.51973982E+01  7.59869910E+00  7.59869910E+00 -1.51973982E+01  7.59869910E+00
  7.59869910E+00 -1.51973982E+01  7.59869910E+00  7.59869910E+00 -1.51973982E+01
  7.59869910E+00  7.59869910E+00 -1.51973982E+01  7.59869910E+00  7.59869910E+00
 -1.51973982E+01  7.59869910E+00  7.59869910E+00 -1.51973982E+01  7.59869910E+00
  7.59869910E+00 -1.51973982E+01  7.59869910E+00  7.59869910E+00 -1.51973982E+01
  7.59869910E+00  7.59869910E+00 -1.51973982E+01  7.59869910E+00  7.59869910E+00
 -1.51973982E+01  7.59869910E+00  7.59869910E+00 -1.51973982E+01  7.59869910E+00
  7.59869910E+00 -1.51973982E+01  7.59869910E+00  7.59869910E+00 -1.51973982E+01
  7.59869910E+00  7.59869910E+00 -1.51973982E+01  7.59869910E+00  7.59869910E+00
 -1.51973982E+01  7.59869910E+00  7.59869910E+00 -1.51973982E+01  7.59869910E+00
  7.59869910E+00 -1.51973982E+01  7.59869910E+00  7.59869910E+00 -1.51973982E+01
  7.59869910E+00  7.59869910E+00 -1.51973982E+01  7.59869910E+00  7.59869910E+00
 -1.51973982E+01  7.59869910E+00  7.59869910E+00 -1.51973982E+01  7.59869910E+00
  7.59869910E+00 -1.51973982E+01  7.59869910E+00  7.59869910E+00 -1.51973982E+01
  7.59869910E+00  7.59869910E+00 -1.51973982E+01  7.59869910E+00  7.59869910E+00
 -1.51973982E+01  7.59869910E+00  7.59869910E+00 -1.51973982E+01  7.59869910E+00
  7.59869910E+00 -1.51973982E+01  7.59869910E+00  7.59869910E+00 -1.51973982E+01
  7.59869910E+00  7.59869910E+00 -1.51973982E+01  7.59869910E+00  7.59869910E+00
 -1.51973982E+01  7.59869910E+00  7.59869910E+00 -1.51973982E+01  7.59869910E+00
  7.59869910E+00 -1.51973982E+01  7.59869910E+00  7.59869910E+00 -1.51973982E+01
  7.59869910E+00  7.59869910E+00 -1.51973982E+01  7.59869910E+00  7.59869910E+00
 -1.51973982E+01  7.59869910E+00  7.59869910E+00 -1.51973982E+01  7.59869910E+00
  7.59869910E+00 -1.51973982E+01  7.59869910E+00  7.59869910E+00 -1.51973982E+01
  7.59869910E+00  7.59869910E+00 -1.51973982E+01  7.59869910E+00  7.59869910E+00
 -1.51973982E+01  7.59869910E+00  7.59869910E+00 -1.51973982E+01  7.59869910E+00
  7.59869910E+00 -1.51973982E+01  7.59869910E+00  7.59869910E+00 -1.51973982E+01
  7.59869910E+00  7.59869910E+00 -1.51973982E+01  7.59869910E+00  7.59869910E+00
 -1.51973982E+01  7.59869910E+00  7.59869910E+00 -1.51973982E+01  7.59869910E+00
  7.59869910E+00 -1.51973982E+01  7.59869910E+00  7.59869910E+00 -1.51973982E+01
  7.59869910E+00  7.59869910E+00 -1.51973982E+01  7.59869910E+00  7.59869910E+00
 -1.51973982E+01  7.59869910E+00  7.59869910E+00 -1.51973982E+01  7.59869910E+00
  7.59869910E+00 -1.51973982E+01  7.59869910E+00  7.59869910E+00 -1.51973982E+01
  7.59869910E+00  7.59869910E+00 -1.51973982E+01  7.59869910E+00  7.59869910E+00
 -1.51973982E+01  7.59869910E+00  7.59869910E+00 -1.51973982E+01  7.59869910E+00
  7.59869910E+00 -1.51973982E+01  7.59869910E+00  7.59869910E+00 -1.51973982E+01
  7.59869910E+00  7.59869910E+00 -1.51973982E+01  7.59869910E+00  7.59869910E+00
 -1.51973982E+01  7.59869910E+00  7.59869910E+00 -1.51973982E+01  7.59869910E+00
  7.59869910E+00 -1.51973982E+01  7.59869910E+00  7.59869910E+00 -1.51973982E+01
  7.59869910E+00  7.59869910E+00 -1.51973982E+01  7.59869910E+00  7.59869910E+00
 -1.51973982E+01  7.59869910E+00  7.59869910E+00 -1.51973982E+01  7.59869910E+00
  7.59869910E+00 -1.51973982E+01  7.59869910E+00  7.59869910E+00 -1.51973982E+01
  7.59869910E+00  7.59869910E+00 -1.51973982E+01  7.59869910E+00  7.59869910E+00
 -1.51973982E+01  7.59869910E+00  7.59869910E+00 -1.51973982E+01  7.59869910E+00
  7.59869910E+00 -1.51973982E+01  7.59869910E+00  7.59869910E+00 -1.51973982E+01
  7.59869910E+00  7.59869910E+00 -1.51973982E+01  7.59869910E+00  7.59869910E+00
 -1.51973982E+01  7.59869910E+00  7.59869910E+00 -1.51973982E+01  7.59869910E+00
  7.59869910E+00 -1.51973982E+01  7.59869910E+00  7.59869910E+00 -1.51973982E+01
  7.59869910E+00  7.59869910E+00 -1.51973982E+01  7.59869910E+00  7.59869910E+00
 -1.51973982E+01  7.59869910E+00  7.59869910E+00 -1.51973982E+01  7.59869910E+00
  7.59869910E+00 -1.51973982E+01  7.59869910E+00  7.59869910E+00 -1.51973982E+01
  7.59869910E+00  7.59869910E+00 -1.51973982E+01  7.59869910E+00  7.59869910E+00
 -1.51973982E+01  7.59869910E+00  7.59869910E+00 -1.51973982E+01  7.59869910E+00
  7.59869910E+00 -1.51973982E+01  7.59869910E+00  7.59869910E+00 -1.51973982E+01
  7.59869910E+00  7.59869910E+00 -1.51973982E+01  7.59869910E+00  7.59869910E+00
 -1.51973982E+01  7.59869910E+00  7.59869910E+00 -1.51973982E+01  7.59869910E+00
  7.59869910E+00 -1.51973982E+01  7.59869910E+00  7.59869910E+00 -1.51973982E+01
  7.59869910E+00  7.59869910E+00 -1.51973982E+01  7.59869910E+00  7.59869910E+00
 -1.51973982E+01  7.59869910E+00  7.59869910E+00 -1.51973982E+01  7.59869910E+00
  7.59869910E+00 -1.51973982E+01  7.59869910E+00  7.59869910E+00 -1.51973982E+01
  7.59869910E+00  7.59869910E+00 -1.51973982E+01  7.59869910E+00  7.59869910E+00
 -1.51973982E+01  7.59869910E+00  7.59869910E+00 -1.51973982E+01  7.59869910E+00
  7.59869910E+00 -1.51973982E+01  7.59869910E+00  7.59869910E+00 -1.51973982E+01
  7.59869910E+00  7.59869910E+00 -1.51973982E+01  7.59869910E+00  7.59869910E+00
 -1.51973982E+01  7.59869910E+00  7.59869910E+00 -1.51973982E+01  7.59869910E+00
  7.59869910E+00 -1.51973982E+01  7.59869910E+00  7.59869910E+00 -1.51973982E+01
  7.59869910E+00  7.59869910E+00 -1.51973982E+01  7.59869910E+00  7.59869910E+00
 -1.51973982E+01  7.59869910E+00  7.59869910E+00 -1.51973982E+01  7.59869910E+00
  7.59869910E+00 -1.51973982E+01  7.59869910E+00  7.59869910E+00 -1.51973982E+01
  7.59869910E+00  7.59869910E+00 -1.51973982E+01  7.59869910E+00  7.59869910E+00
 -1.51973982E+01  7.59869910E+00  7.59869910E+00 -1.51973982E+01  7.59869910E+00
  7.59869910E+00 -1.51973982E+01  7.59869910E+00  7.59869910E+00 -1.51973982E+01
  7.59869910E+00  7.59869910E+00 -1.51973982E+01  7.59869910E+00  7.59869910E+00
 -1.51973982E+01  7.59869910E+00  7.59869910E+00 -1.51973982E+01  7.59869910E+00
  7.59869910E+00 -1.51973982E+01  7.59869910E+00  7.59869910E+00 -1.51973982E+01
  7.59869910E+00  7.59869910E+00 -1.51973982E+01  7.59869910E+00  7.59869910E+00
 -1.51973982E+01  7.59869910E+00  7.59869910E+00 -1.51973982E+01  7.59869910E+00
  7.59869910E+00 -1.51973982E+01  7.59869910E+00  7.59869910E+00 -1.51973982E+01
  7.59869910E+00  7.59869910E+00 -1.51973982E+01  7.59869910E+00  7.59869910E+00
 -1.51973982E+01  7.59869910E+00  7.59869910E+00 -1.51973982E+01  7.59869910E+00
  7.59869910E+00 -1.51973982E+01  7.59869910E+00  7.59869910E+00 -1.51973982E+01
  7.59869910E+00  7.59869910E+00 -1.51973982E+01  7.59869910E+00  7.59869910E+00
 -1.51973982E+01  7.59869910E+00  7.59869910E+00 -1.51973982E+01  7.59869910E+00
  7.59869910E+00 -1.51973982E+01  7.59869910E+00  7.59869910E+00 -1.51973982E+01
  7.59869910E+00  7.59869910E+00 -1.51973982E+01  7.59869910E+00  7.59869910E+00
 -1.51973982E+01  7.59869910E+00  7.59869910E+00 -1.51973982E+01  7.59869910E+00
  7.59869910E+00 -1.51973982E+01  7.59869910E+00  7.59869910E+00 -1.51973982E+01
  7.59869910E+00  7.59869910E+00 -1.51973982E+01  7.59869910E+00  7.59869910E+00
 -1.51973982E+01  7.59869910E+00  7.59869910E+00 -1.51973982E+01  7.59869910E+00
  7.59869910E+00 -1.51973982E+01  7.59869910E+00  7.59869910E+00 -1.51973982E+01
  7.59869910E+00  7.59869910E+00 -1.51973982E+01  7.59869910E+00  7.59869910E+00
 -1.51973982E+01  7.59869910E+00  7.59869910E+00 -1.51973982E+01  7.59869910E+00
  7.59869910E+00 -1.51973982E+01  7.59869910E+00  7.59869910E+00 -1.51973982E+01
  7.59869910E+00  7.59869910E+00 -1.51973982E+01  7.59869910E+00  7.59869910E+00
 -1.51973982E+01  7.59869910E+00  7.59869910E+00 -1.51973982E+01  7.59869910E+00
  7.59869910E+00 -1.51973982E+01  7.59869910E+00  7.59869910E+00 -1.51973982E+01
  7.59869910E+00  7.59869910E+00 -1.51973982E+01  7.59869910E+00  7.59869910E+00
 -1.51973982E+01  7.59869910E+00  7.59869910E+00 -1.51973982E+01  7.59869910E+00
  7.59869910E+00 -1.51973982E+01  7.59869910E+00  7.59869910E+00 -1.51973982E+01
  7.59869910E+00  7.59869910E+00 -1.51973982E+01  7.59869910E+00  7.59869910E+00
 -1.51973982E+01  7.59869910E+00  7.59869910E+00 -1.51973982E+01  7.59869910E+00
  7.59869910E+00 -1.51973982E+01  7.59869910E+00  7.59869910E+00 -1.51973982E+01
  7.59869910E+00  7.59869910E+00 -1.51973982E+01  7.59869910E+00  7.59869910E+00
 -1.51973982E+01  7.59869910E+00  7.59869910E+00 -1.51973982E+01  7.59869910E+00
  7.59869910E+00 -1.51973982E+01  7.59869910E+00  7.59869910E+00 -1.51973982E+01
  7.59869910E+00  7.59869910E+00 -1.51973982E+01  7.59869910E+00  7.59869910E+00
 -1.51973982E+01  7.59869910E+00  7.59869910E+00 -1.51973982E+01  7.59869910E+00
  7.59869910E+00 -1.51973982E+01  7.59869910E+00  7.59869910E+00 -1.51973982E+01
  7.59869910E+00  7.59869910E+00 -1.51973982E+01  7.59869910E+00  7.59869910E+00
 -1.51973982E+01  7.59869910E+00  7.59869910E+00 -1.51973982E+01  7.59869910E+00
  7.59869910E+00 -1.51973982E+01  7.59869910E+00  7.59869910E+00 -1.51973982E+01
  7.59869910E+00  7.59869910E+00 -1.51973982E+01  7.59869910E+00  7.59869910E+00
 -1.51973982E+01  7.59869910E+00  7.59869910E+00 -1.51973982E+01  7.59869910E+00
  7.59869910E+00 -1.51973982E+01  7.59869910E+00  7.59869910E+00 -1.51973982E+01
  7.59869910E+00  7.59869910E+00 -1.51973982E+01  7.59869910E+00  7.59869910E+00
 -1.51973982E+01  7.59869910E+00  7.59869910E+00 -1.51973982E+01  7.59869910E+00
  7.59869910E+00 -1.51973982E+01  7.59869910E+00  7.59869910E+00 -1.51973982E+01
  7.59869910E+00  7.59869910E+00 -1.51973982E+01  7.59869910E+00  7.59869910E+00
 -1.51973982E+01  7.59869910E+00  7.59869910E+00 -1.51973982E+01  7.59869910E+00
  7.59869910E+00 -1.51973982E+01  7.59869910E+00  7.59869910E+00 -1.51973982E+01
  7.59869910E+00  7.59869910E+00 -1.51973982E+01  7.59869910E+00  7.59869910E+00
 -1.51973982E+01  7.59869910E+00  7.59869910E+00 -1.51973982E+01  7.59869910E+00
  7.59869910E+00 -1.51973982E+01  7.59869910E+00  7.59869910E+00 -1.51973982E+01
  7.59869910E+00  7.59869910E+00 -1.51973982E+01  7.59869910E+00  7.59869910E+00
 -1.51973982E+01  7.59869910E+00  7.59869910E+00 -1.51973982E+01  7.59869910E+00
  7.59869910E+00 -1.51973982E+01  7.59869910E+00  7.59869910E+00 -1.51973982E+01
  7.59869910E+00  7.59869910E+00 -1.51973982E+01  7.59869910E+00  7.59869910E+00
 -1.51973982E+01  7.59869910E+00  7.59869910E+00 -1.51973982E+01  7.59869910E+00
  7.59869910E+00 -1.51973982E+01  7.59869910E+00  7.59869910E+00 -1.51973982E+01
  7.59869910E+00  7.59869910E+00 -1.51973982E+01  7.59869910E+00  7.59869910E+00
 -1.51973982E+01  7.59869910E+00  7.59869910E+00 -1.51973982E+01  7.59869910E+00
  7.59869910E+00 -1.51973982E+01  7.59869910E+00  7.59869910E+00 -1.51973982E+01
  7.59869910E+00  7.59869910E+00 -1.51973982E+01  7.59869910E+00  7.59869910E+00
 -1.51973982E+01  7.59869910E+00  7.59869910E+00 -1.51973982E+01  7.59869910E+00
  7.59869910E+00 -1.51973982E+01  7.59869910E+00  7.59869910E+00 -1.51973982E+01
  7.59869910E+00  7.59869910E+00 -1.51973982E+01  7.59869910E+00  7.59869910E+00
 -1.51973982E+01  7.59869910E+00  7.59869910E+00 -1.51973982E+01  7.59869910E+00
  7.59869910E+00 -1.51973982E+01  7.59869910E+00  7.59869910E+00 -1.51973982E+01
  7.59869910E+00  7.59869910E+00 -1.51973982E+01  7.59869910E+00  7.59869910E+00
 -1.51973982E+01  7.59869910E+00  7.59869910E+00 -1.51973982E+01  7.59869910E+00
  7.59869910E+00 -1.51973982E+01  7.59869910E+00  7.59869910E+00 -1.51973982E+01
  7.59869910E+00  7.59869910E+00 -1.51973982E+01  7.59869910E+00  7.59869910E+00
 -1.51973982E+01  7.59869910E+00  7.59869910E+00 -1.51973982E+01  7.59869910E+00
  7.59869910E+00 -1.51973982E+01  7.59869910E+00  7.59869910E+00 -1.51973982E+01
  7.59869910E+00  7.59869910E+00 -1.51973982E+01  7.59869910E+00  7.59869910E+00
 -1.51973982E+01  7.59869910E+00  7.59869910E+00 -1.51973982E+01  7.59869910E+00
  7.59869910E+00 -1.51973982E+01  7.59869910E+00  7.59869910E+00 -1.51973982E+01
  7.59869910E+00  7.59869910E+00 -1.51973982E+01  7.59869910E+00  7.59869910E+00
 -1.51973982E+01  7.59869910E+00  7.59869910E+00 -1.51973982E+01  7.59869910E+00
  7.59869910E+00 -1.51973982E+01  7.59869910E+00  7.59869910E+00 -1.51973982E+01
  7.59869910E+00  7.59869910E+00 -1.51973982E+01  7.59869910E+00  7.59869910E+00
 -1.51973982E+01  7.59869910E+00  7.59869910E+00 -1.51973982E+01  7.59869910E+00
  7.59869910E+00 -1.51973982E+01  7.59869910E+00  7.59869910E+00 -1.51973982E+01
  7.59869910E+00  7.59869910E+00 -1.51973982E+01  7.59869910E+00  7.59869910E+00
 -1.51973982E+01  7.59869910E+00  7.59869910E+00 -1.51973982E+01  7.59869910E+00
  7.59869910E+00 -1.51973982E+01  7.59869910E+00  7.59869910E+00 -1.51973982E+01
  7.59869910E+00  7.59869910E+00 -1.51973982E+01  7.59869910E+00  7.59869910E+00
 -1.51973982E+01  7.59869910E+00  7.59869910E+00 -1.51973982E+01  7.59869910E+00
  7.59869910E+00 -1.51973982E+01  7.59869910E+00  7.59869910E+00 -1.51973982E+01
  7.59869910E+00  7.59869910E+00 -1.51973982E+01  7.59869910E+00  7.59869910E+00
 -1.51973982E+01  7.59869910E+00  7.59869910E+00 -1.51973982E+01  7.59869910E+00
  7.59869910E+00 -1.51973982E+01  7.59869910E+00  7.59869910E+00 -1.51973982E+01
  7.59869910E+00  7.59869910E+00 -1.51973982E+01  7.59869910E+00  7.59869910E+00
 -1.51973982E+01  7.59869910E+00  7.59869910E+00 -1.51973982E+01  7.59869910E+00
  7.59869910E+00 -1.51973982E+01  7.59869910E+00  7.59869910E+00 -1.51973982E+01
  7.59869910E+00  7.59869910E+00 -1.51973982E+01  7.59869910E+00  7.59869910E+00
 -1.51973982E+01  7.59869910E+00  7.59869910E+00 -1.51973982E+01  7.59869910E+00
  7.59869910E+00 -1.51973982E+01  7.59869910E+00  7.59869910E+00 -1.51973982E+01
  7.59869910E+00  7.59869910E+00 -1.51973982E+01  7.59869910E+00  7.59869910E+00
 -1.51973982E+01  7.59869910E+00  7.59869910E+00 -1.51973982E+01  7.59869910E+00
  7.59869910E+00 -1.51973982E+01  7.59869910E+00  7.59869910E+00 -1.51973982E+01
  7.59869910E+00  7.59869910E+00 -1.51973982E+01  7.59869910E+00  7.59869910E+00
 -1.51973982E+01  7.59869910E+00  7.59869910E+00 -1.51973982E+01  7.59869910E+00
  7.59869910E+00 -1.51973982E+01  7.59869910E+00  7.59869910E+00 -1.51973982E+01
  7.59869910E+00  7.59869910E+00 -1.51973982E+01  7.59869910E+00  7.59869910E+00
 -1.51973982E+01  7.59869910E+00  7.59869910E+00 -1.51973982E+01  7.59869910E+00
  7.59869910E+00 -1.51973982E+01  7.59869910E+00  7.59869910E+00 -1.51973982E+01
  7.59869910E+00  7.59869910E+00 -1.51973982E+01  7.59869910E+00  7.59869910E+00
 -1.51973982E+01  7.59869910E+00  7.59869910E+00 -1.51973982E+01  7.59869910E+00
  7.59869910E+00 -1.51973982E+01  7.59869910E+00  7.59869910E+00 -1.51973982E+01
  7.59869910E+00  7.59869910E+00 -1.51973982E+01  7.59869910E+00  7.59869910E+00
 -1.51973982E+01  7.59869910E+00  7.59869910E+00 -1.51973982E+01  7.59869910E+00
  7.59869910E+00 -1.51973982E+01  7.59869910E+00  7.59869910E+00 -1.51973982E+01
  7.59869910E+00  7.59869910E+00 -1.51973982E+01  7.59869910E+00  7.59869910E+00
 -1.51973982E+01  7.59869910E+00  7.59869910E+00 -1.51973982E+01  7.59869910E+00
  7.59869910E+00 -1.51973982E+01  7.59869910E+00  7.59869910E+00 -1.51973982E+01
  7.59869910E+00  7.59869910E+00 -1.51973982E+01  7.59869910E+00  7.59869910E+00
 -1.51973982E+01  7.59869910E+00  7.59869910E+00 -1.51973982E+01  7.59869910E+00
  7.59869910E+00 -1.51973982E+01  7.59869910E+00  7.59869910E+00 -1.51973982E+01
  7.59869910E+00  7.59869910E+00 -1.51973982E+01  7.59869910E+00  7.59869910E+00
 -1.51973982E+01  7.59869910E+00  7.59869910E+00 -1.51973982E+01  7.59869910E+00
  7.59869910E+00 -1.51973982E+01  7.59869910E+00  7.59869910E+00 -1.51973982E+01
  7.59869910E+00  7.59869910E+00 -1.51973982E+01  7.59869910E+00  7.59869910E+00
 -1.51973982E+01  7.59869910E+00  7.59869910E+00 -1.51973982E+01  7.59869910E+00
  7.59869910E+00 -1.51973982E+01  7.59869910E+00  7.59869910E+00 -1.51973982E+01
  7.59869910E+00  7.59869910E+00 -1.51973982E+01  7.59869910E+00  7.59869910E+00
 -1.51973982E+01  7.59869910E+00  7.59869910E+00 -1.51973982E+01  7.59869910E+00
  7.59869910E+00 -1.51973982E+01  7.59869910E+00  7.59869910E+00 -1.51973982E+01
  7.59869910E+00  7.59869910E+00 -1.51973982E+01  7.59869910E+00  7.59869910E+00
 -1.51973982E+01  7.59869910E+00  7.59869910E+00 -1.51973982E+01  7.59869910E+00
  7.59869910E+00 -1.51973982E+01  7.59869910E+00  7.59869910E+00 -1.51973982E+01
  7.59869910E+00  7.59869910E+00 -1.51973982E+01  7.59869910E+00  7.59869910E+00
 -1.51973982E+01  7.59869910E+00  7.59869910E+00 -1.51973982E+01  7.59869910E+00
  7.59869910E+00 -1.51973982E+01  7.59869910E+00  7.59869910E+00 -1.51973982E+01
  7.59869910E+00  7.59869910E+00 -1.51973982E+01  7.59869910E+00  7.59869910E+00
 -1.51973982E+01  7.59869910E+00  7.59869910E+00 -1.51973982E+01  7.59869910E+00
  7.59869910E+00 -1.51973982E+01  7.59869910E+00  7.59869910E+00 -1.51973982E+01
  7.59869910E+00  7.59869910E+00 -1.51973982E+01  7.59869910E+00  7.59869910E+00
 -1.51973982E+01  7.59869910E+00  7.59869910E+00 -1.51973982E+01  7.59869910E+00
  7.59869910E+00 -1.51973982E+01  7.59869910E+00  7.59869910E+00 -1.51973982E+01
  7.59869910E+00  7.59869910E+00 -1.51973982E+01  7.59869910E+00  7.59869910E+00
 -1.51973982E+01  7.59869910E+00  7.59869910E+00 -1.51973982E+01  7.59869910E+00
  7.59869910E+00 -1.51973982E+01  7.59869910E+00  7.59869910E+00 -1.51973982E+01
  7.59869910E+00  7.59869910E+00 -1.51973982E+01  7.59869910E+00  7.59869910E+00
 -1.51973982E+01  7.59869910E+00  7.59869910E+00 -1.51973982E+01  7.59869910E+00
  7.59869910E+00 -1.51973982E+01  7.59869910E+00  7.59869910E+00 -1.51973982E+01
  7.59869910E+00  7.59869910E+00 -1.51973982E+01  7.59869910E+00  7.59869910E+00
 -1.51973982E+01  7.59869910E+00  7.59869910E+00 -1.51973982E+01  7.59869910E+00
  7.59869910E+00 -1.51973982E+01  7.59869910E+00  7.59869910E+00 -1.51973982E+01
  7.59869910E+00  7.59869910E+00 -1.51973982E+01  7.59869910E+00  7.59869910E+00
 -1.51973982E+01  7.59869910E+00  7.59869910E+00 -1.51973982E+01  7.59869910E+00
  7.59869910E+00 -1.51973982E+01  7.59869910E+00  7.59869910E+00 -1.51973982E+01
  7.59869910E+00  7.59869910E+00 -1.51973982E+01  7.59869910E+00  7.59869910E+00
 -1.51973982E+01  7.59869910E+00  7.59869910E+00 -1.51973982E+01  7.59869910E+00
  7.59869910E+00 -1.51973982E+01  7.59869910E+00  7.59869910E+00 -1.51973982E+01
  7.59869910E+00  7.59869910E+00 -1.51973982E+01  7.59869910E+00  7.59869910E+00
 -1.51973982E+01  7.59869910E+00  7.59869910E+00 -1.51973982E+01  7.59869910E+00
  7.59869910E+00 -1.51973982E+01  7.59869910E+00  7.59869910E+00 -1.51973982E+01
  7.59869910E+00  7.59869910E+00 -1.51973982E+01  7.59869910E+00  7.59869910E+00
 -1.51973982E+01  7.59869910E+00  7.59869910E+00 -1.51973982E+01  7.59869910E+00
  7.59869910E+00 -1.51973982E+01  7.59869910E+00  7.59869910E+00 -1.51973982E+01
  7.59869910E+00  7.59869910E+00 -1.51973982E+01  7.59869910E+00  7.59869910E+00
 -1.51973982E+01  7.59869910E+00  7.59869910E+00 -1.51973982E+01  7.59869910E+00
  7.59869910E+00 -1.51973982E+01  7.59869910E+00  7.59869910E+00 -1.51973982E+01
  7.59869910E+00  7.59869910E+00 -1.51973982E+01  7.59869910E+00  7.59869910E+00
 -1.51973982E+01  7.59869910E+00  7.59869910E+00 -1.51973982E+01  7.59869910E+00
  7.59869910E+00 -1.51973982E+01  7.59869910E+00  7.59869910E+00 -1.51973982E+01
  7.59869910E+00  7.59869910E+00 -1.51973982E+01  7.59869910E+00  7.59869910E+00
 -1.51973982E+01  7.59869910E+00  7.59869910E+00 -1.51973982E+01  7.59869910E+00
  7.59869910E+00 -1.51973982E+01  7.59869910E+00  7.59869910E+00 -1.51973982E+01
  7.59869910E+00  7.59869910E+00 -1.51973982E+01  7.59869910E+00  7.59869910E+00
 -1.51973982E+01  7.59869910E+00  7.59869910E+00 -1.51973982E+01  7.59869910E+00
  7.59869910E+00 -1.51973982E+01  7.59869910E+00  7.59869910E+00 -1.51973982E+01
  7.59869910E+00  7.59869910E+00 -1.51973982E+01  7.59869910E+00  7.59869910E+00
 -1.51973982E+01  7.59869910E+00  7.59869910E+00 -1.51973982E+01  7.59869910E+00
  7.59869910E+00 -1.51973982E+01  7.59869910E+00  7.59869910E+00 -1.51973982E+01
  7.59869910E+00  7.59869910E+00 -1.51973982E+01  7.59869910E+00  7.59869910E+00
 -1.51973982E+01  7.59869910E+00  7.59869910E+00 -1.51973982E+01  7.59869910E+00
  7.59869910E+00 -1.51973982E+01  7.59869910E+00  7.59869910E+00 -1.51973982E+01
  7.59869910E+00  7.59869910E+00 -1.51973982E+01  7.59869910E+00  7.59869910E+00
 -1.51973982E+01  7.59869910E+00  7.59869910E+00 -1.51973982E+01  7.59869910E+00
  7.59869910E+00 -1.51973982E+01  7.59869910E+00  7.59869910E+00 -1.51973982E+01
  7.59869910E+00  7.59869910E+00 -1.51973982E+01  7.59869910E+00  7.59869910E+00
 -1.51973982E+01  7.59869910E+00  7.59869910E+00 -1.51973982E+01  7.59869910E+00
  7.59869910E+00 -1.51973982E+01  7.59869910E+00  7.59869910E+00 -1.51973982E+01
  7.59869910E+00  7.59869910E+00 -1.51973982E+01  7.59869910E+00  7.59869910E+00
 -1.51973982E+01  7.59869910E+00  7.59869910E+00 -1.51973982E+01  7.59869910E+00
  7.59869910E+00 -1.51973982E+01  7.59869910E+00  7.59869910E+00 -1.51973982E+01
  7.59869910E+00  7.59869910E+00 -1.51973982E+01  7.59869910E+00  7.59869910E+00
 -1.51973982E+01  7.59869910E+00  7.59869910E+00 -1.51973982E+01  7.59869910E+00
  7.59869910E+00 -1.51973982E+01  7.59869910E+00  7.59869910E+00 -1.51973982E+01
  7.59869910E+00  7.59869910E+00 -1.51973982E+01  7.59869910E+00  7.59869910E+00
 -1.51973982E+01  7.59869910E+00  7.59869910E+00 -1.51973982E+01  7.59869910E+00
  7.59869910E+00 -1.51973982E+01  7.59869910E+00  7.59869910E+00 -1.51973982E+01
  7.59869910E+00  7.59869910E+00 -1.51973982E+01  7.59869910E+00  7.59869910E+00
 -1.51973982E+01  7.59869910E+00  7.59869910E+00 -1.51973982E+01  7.59869910E+00
  7.59869910E+00 -1.51973982E+01  7.59869910E+00  7.59869910E+00 -1.51973982E+01
  7.59869910E+00  7.59869910E+00 -1.51973982E+01  7.59869910E+00  7.59869910E+00
 -1.51973982E+01  7.59869910E+00  7.59869910E+00 -1.51973982E+01  7.59869910E+00
  7.59869910E+00 -1.51973982E+01  7.59869910E+00  7.59869910E+00 -1.51973982E+01
  7.59869910E+00  7.59869910E+00 -1.51973982E+01  7.59869910E+00  7.59869910E+00
 -1.51973982E+01  7.59869910E+00  7.59869910E+00 -1.51973982E+01  7.59869910E+00
  7.59869910E+00 -1.51973982E+01  7.59869910E+00  7.59869910E+00 -1.51973982E+01
  7.59869910E+00  7.59869910E+00 -1.51973982E+01  7.59869910E+00  7.59869910E+00
 -1.51973982E+01  7.59869910E+00  7.59869910E+00 -1.51973982E+01  7.59869910E+00
  7.59869910E+00 -1.51973982E+01  7.59869910E+00  7.59869910E+00 -1.51973982E+01
  7.59869910E+00  7.59869910E+00 -1.51973982E+01  7.59869910E+00  7.59869910E+00
 -1.51973982E+01  7.59869910E+00  7.59869910E+00 -1.51973982E+01  7.59869910E+00
  7.59869910E+00 -1.51973982E+01  7.59869910E+00  7.59869910E+00 -1.51973982E+01
  7.59869910E+00  7.59869910E+00 -1.51973982E+01  7.59869910E+00  7.59869910E+00
 -1.51973982E+01  7.59869910E+00  7.59869910E+00 -1.51973982E+01  7.59869910E+00
  7.59869910E+00 -1.51973982E+01  7.59869910E+00  7.59869910E+00 -1.51973982E+01
  7.59869910E+00  7.59869910E+00 -1.51973982E+01  7.59869910E+00  7.59869910E+00
 -1.51973982E+01  7.59869910E+00  7.59869910E+00 -1.51973982E+01  7.59869910E+00
  7.59869910E+00 -1.51973982E+01  7.59869910E+00  7.59869910E+00 -1.51973982E+01
  7.59869910E+00  7.59869910E+00 -1.51973982E+01  7.59869910E+00  7.59869910E+00
 -1.51973982E+01  7.59869910E+00  7.59869910E+00 -1.51973982E+01  7.59869910E+00
  7.59869910E+00 -1.51973982E+01  7.59869910E+00  7.59869910E+00 -1.51973982E+01
  7.59869910E+00  7.59869910E+00 -1.51973982E+01  7.59869910E+00  7.59869910E+00
 -1.51973982E+01  7.59869910E+00  7.59869910E+00 -1.51973982E+01  7.59869910E+00
  7.59869910E+00 -1.51973982E+01  7.59869910E+00  7.59869910E+00 -1.51973982E+01
  7.59869910E+00  7.59869910E+00 -1.51973982E+01  7.59869910E+00  7.59869910E+00
 -1.51973982E+01  7.59869910E+00  7.59869910E+00 -1.51973982E+01  7.59869910E+00
  7.59869910E+00 -1.51973982E+01  7.59869910E+00  7.59869910E+00 -1.51973982E+01
  7.59869910E+00  7.59869910E+00 -1.51973982E+01  7.59869910E+00  7.59869910E+00
 -1.51973982E+01  7.59869910E+00  7.59869910E+00 -1.51973982E+01  7.59869910E+00
  7.59869910E+00 -1.51973982E+01  7.59869910E+00  7.59869910E+00 -1.51973982E+01
  7.59869910E+00  7.59869910E+00 -1.51973982E+01  7.59869910E+00  7.59869910E+00
 -1.51973982E+01  7.59869910E+00  7.59869910E+00 -1.51973982E+01  7.59869910E+00
  7.59869910E+00 -1.51973982E+01  7.59869910E+00  7.59869910E+00 -1.51973982E+01
  7.59869910E+00  7.59869910E+00 -1.51973982E+01  7.59869910E+00  7.59869910E+00
 -1.51973982E+01  7.59869910E+00  7.59869910E+00 -1.51973982E+01  7.59869910E+00
  7.59869910E+00 -1.51973982E+01  7.59869910E+00  7.59869910E+00 -1.51973982E+01
  7.59869910E+00  7.59869910E+00 -1.51973982E+01  7.59869910E+00  7.59869910E+00
 -1.51973982E+01  7.59869910E+00  7.59869910E+00 -1.51973982E+01  7.59869910E+00
  7.59869910E+00 -1.51973982E+01  7.59869910E+00  7.59869910E+00 -1.51973982E+01
  7.59869910E+00  7.59869910E+00 -1.51973982E+01  7.59869910E+00  7.59869910E+00
 -1.51973982E+01  7.59869910E+00  7.59869910E+00 -1.51973982E+01  7.59869910E+00
  7.59869910E+00 -1.51973982E+01  7.59869910E+00  7.59869910E+00 -1.51973982E+01
  7.59869910E+00  7.59869910E+00 -1.51973982E+01  7.59869910E+00  7.59869910E+00
 -1.51973982E+01  7.59869910E+00  7.59869910E+00 -1.51973982E+01  7.59869910E+00
  7.59869910E+00 -1.51973982E+01  7.59869910E+00  7.59869910E+00 -1.51973982E+01
  7.59869910E+00  7.59869910E+00 -1.51973982E+01  7.59869910E+00  7.59869910E+00
 -1.51973982E+01  7.59869910E+00  7.59869910E+00 -1.51973982E+01  7.59869910E+00
  7.59869910E+00 -1.51973982E+01  7.59869910E+00  7.59869910E+00 -1.51973982E+01
  7.59869910E+00  7.59869910E+00 -1.51973982E+01  7.59869910E+00  7.59869910E+00
 -1.51973982E+01  7.59869910E+00  7.59869910E+00 -1.51973982E+01  7.59869910E+00
  7.59869910E+00 -1.51973982E+01  7.59869910E+00  7.59869910E+00 -1.51973982E+01
  7.59869910E+00  7.59869910E+00 -1.51973982E+01  7.59869910E+00  7.59869910E+00
 -1.51973982E+01  7.59869910E+00  7.59869910E+00 -1.51973982E+01  7.59869910E+00
  7.59869910E+00 -1.51973982E+01  7.59869910E+00  7.59869910E+00 -1.51973982E+01
  7.59869910E+00  7.59869910E+00 -1.51973982E+01  7.59869910E+00  7.59869910E+00
 -1.51973982E+01  7.59869910E+00  7.59869910E+00 -1.51973982E+01  7.59869910E+00
  7.59869910E+00 -1.51973982E+01  7.59869910E+00  7.59869910E+00 -1.51973982E+01
  7.59869910E+00  7.59869910E+00 -1.51973982E+01  7.59869910E+00  7.59869910E+00
 -1.51973982E+01  7.59869910E+00  7.59869910E+00 -1.51973982E+01  7.59869910E+00
  7.59869910E+00 -1.51973982E+01  7.59869910E+00  7.59869910E+00 -1.51973982E+01
  7.59869910E+00  7.59869910E+00 -1.51973982E+01  7.59869910E+00  7.59869910E+00
 -1.51973982E+01  7.59869910E+00  7.59869910E+00 -1.51973982E+01  7.59869910E+00
  7.59869910E+00 -1.51973982E+01  7.59869910E+00  7.59869910E+00 -1.51973982E+01
  7.59869910E+00  7.59869910E+00 -1.51973982E+01  7.59869910E+00  7.59869910E+00
 -1.51973982E+01  7.59869910E+00  7.59869910E+00 -1.51973982E+01  7.59869910E+00
  7.59869910E+00 -1.51973982E+01  7.59869910E+00  7.59869910E+00 -1.51973982E+01
  7.59869910E+00  7.59869910E+00 -1.51973982E+01  7.59869910E+00  7.59869910E+00
 -1.51973982E+01  7.59869910E+00  7.59869910E+00 -1.51973982E+01  7.59869910E+00
  7.59869910E+00 -1.51973982E+01  7.59869910E+00  7.59869910E+00 -1.51973982E+01
  7.59869910E+00  7.59869910E+00 -1.51973982E+01  7.59869910E+00  7.59869910E+00
 -1.51973982E+01  7.59869910E+00  7.59869910E+00 -1.51973982E+01  7.59869910E+00
  7.59869910E+00 -1.51973982E+01  7.59869910E+00  7.59869910E+00 -1.51973982E+01
  7.59869910E+00  7.59869910E+00 -1.51973982E+01  7.59869910E+00  7.59869910E+00
 -1.51973982E+01  7.59869910E+00  7.59869910E+00 -1.51973982E+01  7.59869910E+00
  7.59869910E+00 -1.51973982E+01  7.59869910E+00  7.59869910E+00 -1.51973982E+01
  7.59869910E+00  7.59869910E+00 -1.51973982E+01  7.59869910E+00  7.59869910E+00
 -1.51973982E+01  7.59869910E+00  7.59869910E+00 -1.51973982E+01  7.59869910E+00
  7.59869910E+00 -1.51973982E+01  7.59869910E+00  7.59869910E+00 -1.51973982E+01
  7.59869910E+00  7.59869910E+00 -1.51973982E+01  7.59869910E+00  7.59869910E+00
 -1.51973982E+01  7.59869910E+00  7.59869910E+00 -1.51973982E+01  7.59869910E+00
  7.59869910E+00 -1.51973982E+01  7.59869910E+00  7.59869910E+00 -1.51973982E+01
  7.59869910E+00  7.59869910E+00 -1.51973982E+01  7.59869910E+00  7.59869910E+00
 -1.51973982E+01  7.59869910E+00  7.59869910E+00 -1.51973982E+01  7.59869910E+00
  7.59869910E+00 -1.51973982E+01  7.59869910E+00  7.59869910E+00 -1.51973982E+01
  7.59869910E+00  7.59869910E+00 -1.51973982E+01  7.59869910E+00  7.59869910E+00
 -1.51973982E+01  7.59869910E+00  7.59869910E+00 -1.51973982E+01  7.59869910E+00
  7.59869910E+00 -1.51973982E+01  7.59869910E+00  7.59869910E+00 -1.51973982E+01
  7.59869910E+00  7.59869910E+00 -1.51973982E+01  7.59869910E+00  7.59869910E+00
 -1.51973982E+01  7.59869910E+00  7.59869910E+00 -1.51973982E+01  7.59869910E+00
  7.59869910E+00 -1.51973982E+01  7.59869910E+00  7.59869910E+00 -1.51973982E+01
  7.59869910E+00  7.59869910E+00 -1.51973982E+01  7.59869910E+00  7.59869910E+00
 -1.51973982E+01  7.59869910E+00  7.59869910E+00 -1.51973982E+01  7.59869910E+00
  7.59869910E+00 -1.51973982E+01  7.59869910E+00  7.59869910E+00 -1.51973982E+01
  7.59869910E+00  7.59869910E+00 -1.51973982E+01  7.59869910E+00  7.59869910E+00
 -1.51973982E+01  7.59869910E+00  7.59869910E+00 -1.51973982E+01  7.59869910E+00
  7.59869910E+00 -1.51973982E+01  7.59869910E+00  7.59869910E+00 -1.51973982E+01
  7.59869910E+00  7.59869910E+00 -1.51973982E+01  7.59869910E+00  7.59869910E+00
 -1.51973982E+01  7.59869910E+00  7.59869910E+00 -1.51973982E+01  7.59869910E+00
  7.59869910E+00 -1.51973982E+01  7.59869910E+00  7.59869910E+00 -1.51973982E+01
  7.59869910E+00  7.59869910E+00 -1.51973982E+01  7.59869910E+00  7.59869910E+00
 -1.51973982E+01  7.59869910E+00  7.59869910E+00 -1.51973982E+01  7.59869910E+00
  7.59869910E+00 -1.51973982E+01  7.59869910E+00  7.59869910E+00 -1.51973982E+01
  7.59869910E+00  7.59869910E+00 -1.51973982E+01  7.59869910E+00  7.59869910E+00
 -1.51973982E+01  7.59869910E+00  7.59869910E+00 -1.51973982E+01  7.59869910E+00
  7.59869910E+00 -1.51973982E+01  7.59869910E+00  7.59869910E+00 -1.51973982E+01
  7.59869910E+00  7.59869910E+00 -1.51973982E+01  7.59869910E+00  7.59869910E+00
 -1.51973982E+01  7.59869910E+00  7.59869910E+00 -1.51973982E+01  7.59869910E+00
  7.59869910E+00 -1.51973982E+01  7.59869910E+00  7.59869910E+00 -1.51973982E+01
  7.59869910E+00  7.59869910E+00 -1.51973982E+01  7.59869910E+00  7.59869910E+00
 -1.51973982E+01  7.59869910E+00  7.59869910E+00 -1.51973982E+01  7.59869910E+00
  7.59869910E+00 -1.51973982E+01  7.59869910E+00  7.59869910E+00 -1.51973982E+01
  7.59869910E+00  7.59869910E+00 -1.51973982E+01  7.59869910E+00  7.59869910E+00
 -1.51973982E+01  7.59869910E+00  7.59869910E+00 -1.51973982E+01  7.59869910E+00
  7.59869910E+00 -1.51973982E+01  7.59869910E+00  7.59869910E+00 -1.51973982E+01
  7.59869910E+00  7.59869910E+00 -1.51973982E+01  7.59869910E+00  7.59869910E+00
 -1.51973982E+01  7.59869910E+00  7.59869910E+00 -1.51973982E+01  7.59869910E+00
  7.59869910E+00 -1.51973982E+01  7.59869910E+00  7.59869910E+00 -1.51973982E+01
  7.59869910E+00  7.59869910E+00 -1.51973982E+01  7.59869910E+00  7.59869910E+00
 -1.51973982E+01  7.59869910E+00  7.59869910E+00 -1.51973982E+01  7.59869910E+00
  7.59869910E+00 -1.51973982E+01  7.59869910E+00  7.59869910E+00 -1.51973982E+01
  7.59869910E+00  7.59869910E+00 -1.51973982E+01  7.59869910E+00  7.59869910E+00
 -1.51973982E+01  7.59869910E+00  7.59869910E+00 -1.51973982E+01  7.59869910E+00
  7.59869910E+00 -1.51973982E+01  7.59869910E+00  7.59869910E+00 -1.51973982E+01
  7.59869910E+00  7.59869910E+00 -1.51973982E+01  7.59869910E+00  7.59869910E+00
 -1.51973982E+01  7.59869910E+00  7.59869910E+00 -1.51973982E+01  7.59869910E+00
  7.59869910E+00 -1.51973982E+01  7.59869910E+00  7.59869910E+00 -1.51973982E+01
  7.59869910E+00  7.59869910E+00 -1.51973982E+01  7.59869910E+00  7.59869910E+00
 -1.51973982E+01  7.59869910E+00  7.59869910E+00 -1.51973982E+01  7.59869910E+00
  7.59869910E+00 -1.51973982E+01  7.59869910E+00  7.59869910E+00 -1.51973982E+01
  7.59869910E+00  7.59869910E+00 -1.51973982E+01  7.59869910E+00  7.59869910E+00
 -1.51973982E+01  7.59869910E+00  7.59869910E+00 -1.51973982E+01  7.59869910E+00
  7.59869910E+00 -1.51973982E+01  7.59869910E+00  7.59869910E+00 -1.51973982E+01
  7.59869910E+00  7.59869910E+00 -1.51973982E+01  7.59869910E+00  7.59869910E+00
 -1.51973982E+01  7.59869910E+00  7.59869910E+00 -1.51973982E+01  7.59869910E+00
  7.59869910E+00 -1.51973982E+01  7.59869910E+00  7.59869910E+00 -1.51973982E+01
  7.59869910E+00  7.59869910E+00 -1.51973982E+01  7.59869910E+00  7.59869910E+00
 -1.51973982E+01  7.59869910E+00  7.59869910E+00 -1.51973982E+01  7.59869910E+00
  7.59869910E+00 -1.51973982E+01  7.59869910E+00  7.59869910E+00 -1.51973982E+01
  7.59869910E+00  7.59869910E+00 -1.51973982E+01  7.59869910E+00  7.59869910E+00
 -1.51973982E+01  7.59869910E+00  7.59869910E+00 -1.51973982E+01  7.59869910E+00
  7.59869910E+00 -1.51973982E+01  7.59869910E+00  7.59869910E+00 -1.51973982E+01
  7.59869910E+00  7.59869910E+00 -1.51973982E+01  7.59869910E+00  7.59869910E+00
 -1.51973982E+01  7.59869910E+00  7.59869910E+00 -1.51973982E+01  7.59869910E+00
  7.59869910E+00 -1.51973982E+01  7.59869910E+00  7.59869910E+00 -1.51973982E+01
  7.59869910E+00  7.59869910E+00 -1.51973982E+01  7.59869910E+00  7.59869910E+00
 -1.51973982E+01  7.59869910E+00  7.59869910E+00 -1.51973982E+01  7.59869910E+00
  7.59869910E+00 -1.51973982E+01  7.59869910E+00  7.59869910E+00 -1.51973982E+01
  7.59869910E+00  7.59869910E+00 -1.51973982E+01  7.59869910E+00  7.59869910E+00
 -1.51973982E+01  7.59869910E+00  7.59869910E+00 -1.51973982E+01  7.59869910E+00
  7.59869910E+00 -1.51973982E+01  7.59869910E+00  7.59869910E+00 -1.51973982E+01
  7.59869910E+00  7.59869910E+00 -1.51973982E+01  7.59869910E+00  7.59869910E+00
 -1.51973982E+01  7.59869910E+00  7.59869910E+00 -1.51973982E+01  7.59869910E+00
  7.59869910E+00 -1.51973982E+01  7.59869910E+00  7.59869910E+00 -1.51973982E+01
  7.59869910E+00  7.59869910E+00 -1.51973982E+01  7.59869910E+00  7.59869910E+00
 -1.51973982E+01  7.59869910E+00  7.59869910E+00 -1.51973982E+01  7.59869910E+00
  7.59869910E+00 -1.51973982E+01  7.59869910E+00  7.59869910E+00 -1.51973982E+01
  7.59869910E+00  7.59869910E+00 -1.51973982E+01  7.59869910E+00  7.59869910E+00
 -1.51973982E+01  7.59869910E+00  7.59869910E+00 -1.51973982E+01  7.59869910E+00
  7.59869910E+00 -1.51973982E+01  7.59869910E+00  7.59869910E+00 -1.51973982E+01
  7.59869910E+00  7.59869910E+00 -1.51973982E+01  7.59869910E+00  7.59869910E+00
 -1.51973982E+01  7.59869910E+00  7.59869910E+00 -1.51973982E+01  7.59869910E+00
  7.59869910E+00 -1.51973982E+01  7.59869910E+00  7.59869910E+00 -1.51973982E+01
  7.59869910E+00  7.59869910E+00 -1.51973982E+01  7.59869910E+00  7.59869910E+00
 -1.51973982E+01  7.59869910E+00  7.59869910E+00 -1.51973982E+01  7.59869910E+00
  7.59869910E+00 -1.51973982E+01  7.59869910E+00  7.59869910E+00 -1.51973982E+01
  7.59869910E+00  7.59869910E+00 -1.51973982E+01  7.59869910E+00  7.59869910E+00
 -1.51973982E+01  7.59869910E+00  7.59869910E+00 -1.51973982E+01  7.59869910E+00
  7.59869910E+00 -1.51973982E+01  7.59869910E+00  7.59869910E+00 -1.51973982E+01
  7.59869910E+00  7.59869910E+00 -1.51973982E+01  7.59869910E+00  7.59869910E+00
 -1.51973982E+01  7.59869910E+00  7.59869910E+00 -1.51973982E+01  7.59869910E+00
  7.59869910E+00 -1.51973982E+01  7.59869910E+00  7.59869910E+00 -1.51973982E+01
  7.59869910E+00  7.59869910E+00 -1.51973982E+01  7.59869910E+00  7.59869910E+00
 -1.51973982E+01  7.59869910E+00  7.59869910E+00 -1.51973982E+01  7.59869910E+00
  7.59869910E+00 -1.51973982E+01  7.59869910E+00  7.59869910E+00 -1.51973982E+01
  7.59869910E+00  7.59869910E+00 -1.51973982E+01  7.59869910E+00  7.59869910E+00
 -1.51973982E+01  7.59869910E+00  7.59869910E+00 -1.51973982E+01  7.59869910E+00
  7.59869910E+00 -1.51973982E+01  7.59869910E+00  7.59869910E+00 -1.51973982E+01
  7.59869910E+00  7.59869910E+00 -1.51973982E+01  7.59869910E+00  7.59869910E+00
 -1.51973982E+01  7.59869910E+00  7.59869910E+00 -1.51973982E+01  7.59869910E+00
  7.59869910E+00 -1.51973982E+01  7.59869910E+00  7.59869910E+00 -1.51973982E+01
  7.59869910E+00  7.59869910E+00 -1.51973982E+01  7.59869910E+00  7.59869910E+00
 -1.51973982E+01  7.59869910E+00  7.59869910E+00 -1.51973982E+01  7.59869910E+00
  7.59869910E+00 -1.51973982E+01  7.59869910E+00  7.59869910E+00 -1.51973982E+01
  7.59869910E+00  7.59869910E+00 -1.51973982E+01  7.59869910E+00  7.59869910E+00
 -1.51973982E+01  7.59869910E+00  7.59869910E+00 -1.51973982E+01  7.59869910E+00
  7.59869910E+00 -1.51973982E+01  7.59869910E+00  7.59869910E+00 -1.51973982E+01
  7.59869910E+00  7.59869910E+00 -1.51973982E+01  7.59869910E+00  7.59869910E+00
 -1.51973982E+01  7.59869910E+00  7.59869910E+00 -1.51973982E+01  7.59869910E+00
  7.59869910E+00 -1.51973982E+01  7.59869910E+00  7.59869910E+00 -1.51973982E+01
  7.59869910E+00  7.59869910E+00 -1.51973982E+01  7.59869910E+00  7.59869910E+00
 -1.51973982E+01  7.59869910E+00  7.59869910E+00 -1.51973982E+01  7.59869910E+00
  7.59869910E+00 -1.51973982E+01  7.59869910E+00  7.59869910E+00 -1.51973982E+01
  7.59869910E+00  7.59869910E+00 -1.51973982E+01  7.59869910E+00  7.59869910E+00
 -1.51973982E+01  7.59869910E+00  7.59869910E+00 -1.51973982E+01  7.59869910E+00
  7.59869910E+00 -1.51973982E+01  7.59869910E+00  7.59869910E+00 -1.51973982E+01
  7.59869910E+00  7.59869910E+00 -1.51973982E+01  7.59869910E+00  7.59869910E+00
 -1.51973982E+01  7.59869910E+00  7.59869910E+00 -1.51973982E+01  7.59869910E+00
  7.59869910E+00 -1.51973982E+01  7.59869910E+00  7.59869910E+00 -1.51973982E+01
  7.59869910E+00  7.59869910E+00 -1.51973982E+01  7.59869910E+00  7.59869910E+00
 -1.51973982E+01  7.59869910E+00  7.59869910E+00 -1.51973982E+01  7.59869910E+00
  7.59869910E+00 -1.51973982E+01  7.59869910E+00  7.59869910E+00 -1.51973982E+01
  7.59869910E+00  7.59869910E+00 -1.51973982E+01  7.59869910E+00  7.59869910E+00
 -1.51973982E+01  7.59869910E+00  7.59869910E+00 -1.51973982E+01  7.59869910E+00
  7.59869910E+00 -1.51973982E+01  7.59869910E+00  7.59869910E+00 -1.51973982E+01
  7.59869910E+00  7.59869910E+00 -1.51973982E+01  7.59869910E+00  7.59869910E+00
 -1.51973982E+01  7.59869910E+00  7.59869910E+00 -1.51973982E+01  7.59869910E+00
  7.59869910E+00 -1.51973982E+01  7.59869910E+00  7.59869910E+00 -1.51973982E+01
  7.59869910E+00  7.59869910E+00 -1.51973982E+01  7.59869910E+00  7.59869910E+00
 -1.51973982E+01  7.59869910E+00  7.59869910E+00 -1.51973982E+01  7.59869910E+00
  7.59869910E+00 -1.51973982E+01  7.59869910E+00  7.59869910E+00 -1.51973982E+01
  7.59869910E+00  7.59869910E+00 -1.51973982E+01  7.59869910E+00  7.59869910E+00
 -1.51973982E+01  7.59869910E+00  7.59869910E+00 -1.51973982E+01  7.59869910E+00
  7.59869910E+00 -1.51973982E+01  7.59869910E+00  7.59869910E+00 -1.51973982E+01
  7.59869910E+00  7.59869910E+00 -1.51973982E+01  7.59869910E+00  7.59869910E+00
 -1.51973982E+01  7.59869910E+00  7.59869910E+00 -1.51973982E+01  7.59869910E+00
  7.59869910E+00 -1.51973982E+01  7.59869910E+00  7.59869910E+00 -1.51973982E+01
  7.59869910E+00  7.59869910E+00 -1.51973982E+01  7.59869910E+00  7.59869910E+00
 -1.51973982E+01  7.59869910E+00  7.59869910E+00 -1.51973982E+01  7.59869910E+00
  7.59869910E+00 -1.51973982E+01  7.59869910E+00  7.59869910E+00 -1.51973982E+01
  7.59869910E+00  7.59869910E+00 -1.51973982E+01  7.59869910E+00  7.59869910E+00
 -1.51973982E+01  7.59869910E+00  7.59869910E+00 -1.51973982E+01  7.59869910E+00
  7.59869910E+00 -1.51973982E+01  7.59869910E+00  7.59869910E+00 -1.51973982E+01
  7.59869910E+00  7.59869910E+00 -1.51973982E+01  7.59869910E+00  7.59869910E+00
 -1.51973982E+01  7.59869910E+00  7.59869910E+00 -1.51973982E+01  7.59869910E+00
  7.59869910E+00 -1.51973982E+01  7.59869910E+00  7.59869910E+00 -1.51973982E+01
  7.59869910E+00  7.59869910E+00 -1.51973982E+01  7.59869910E+00  7.59869910E+00
 -1.51973982E+01  7.59869910E+00  7.59869910E+00 -1.51973982E+01  7.59869910E+00
  7.59869910E+00 -1.51973982E+01  7.59869910E+00  7.59869910E+00 -1.51973982E+01
  7.59869910E+00  7.59869910E+00 -1.51973982E+01  7.59869910E+00  7.59869910E+00
 -1.51973982E+01  7.59869910E+00  7.59869910E+00 -1.51973982E+01  7.59869910E+00
  7.59869910E+00 -1.51973982E+01  7.59869910E+00  7.59869910E+00 -1.51973982E+01
  7.59869910E+00  7.59869910E+00 -1.51973982E+01  7.59869910E+00  7.59869910E+00
 -1.51973982E+01  7.59869910E+00  7.59869910E+00 -1.51973982E+01  7.59869910E+00
  7.59869910E+00 -1.51973982E+01  7.59869910E+00  7.59869910E+00 -1.51973982E+01
  7.59869910E+00  7.59869910E+00 -1.51973982E+01  7.59869910E+00  7.59869910E+00
 -1.51973982E+01  7.59869910E+00  7.59869910E+00 -1.51973982E+01  7.59869910E+00
  7.59869910E+00 -1.51973982E+01  7.59869910E+00  7.59869910E+00 -1.51973982E+01
  7.59869910E+00  7.59869910E+00 -1.51973982E+01  7.59869910E+00  7.59869910E+00
 -1.51973982E+01  7.59869910E+00  7.59869910E+00 -1.51973982E+01  7.59869910E+00
  7.59869910E+00 -1.51973982E+01  7.59869910E+00  7.59869910E+00 -1.51973982E+01
  7.59869910E+00  7.59869910E+00 -1.51973982E+01  7.59869910E+00  7.59869910E+00
 -1.51973982E+01  7.59869910E+00  7.59869910E+00 -1.51973982E+01  7.59869910E+00
  7.59869910E+00 -1.51973982E+01  7.59869910E+00  7.59869910E+00 -1.51973982E+01
  7.59869910E+00  7.59869910E+00 -1.51973982E+01  7.59869910E+00  7.59869910E+00
 -1.51973982E+01  7.59869910E+00  7.59869910E+00 -1.51973982E+01  7.59869910E+00
  7.59869910E+00 -1.51973982E+01  7.59869910E+00  7.59869910E+00 -1.51973982E+01
  7.59869910E+00  7.59869910E+00 -1.51973982E+01  7.59869910E+00  7.59869910E+00
 -1.51973982E+01  7.59869910E+00  7.59869910E+00 -1.51973982E+01  7.59869910E+00
  7.59869910E+00 -1.51973982E+01  7.59869910E+00  7.59869910E+00 -1.51973982E+01
  7.59869910E+00  7.59869910E+00 -1.51973982E+01  7.59869910E+00  7.59869910E+00
 -1.51973982E+01  7.59869910E+00  7.59869910E+00 -1.51973982E+01  7.59869910E+00
  7.59869910E+00 -1.51973982E+01  7.59869910E+00  7.59869910E+00 -1.51973982E+01
  7.59869910E+00  7.59869910E+00 -1.51973982E+01  7.59869910E+00  7.59869910E+00
 -1.51973982E+01  7.59869910E+00  7.59869910E+00 -1.51973982E+01  7.59869910E+00
  7.59869910E+00 -1.51973982E+01  7.59869910E+00  7.59869910E+00 -1.51973982E+01
  7.59869910E+00  7.59869910E+00 -1.51973982E+01  7.59869910E+00  7.59869910E+00
 -1.51973982E+01  7.59869910E+00  7.59869910E+00 -1.51973982E+01  7.59869910E+00
  7.59869910E+00 -1.51973982E+01  7.59869910E+00  7.59869910E+00 -1.51973982E+01
  7.59869910E+00  7.59869910E+00 -1.51973982E+01  7.59869910E+00  7.59869910E+00
 -1.51973982E+01  7.59869910E+00  7.59869910E+00 -1.51973982E+01  7.59869910E+00
  7.59869910E+00 -1.51973982E+01  7.59869910E+00  7.59869910E+00 -1.51973982E+01
  7.59869910E+00  7.59869910E+00 -1.51973982E+01  7.59869910E+00  7.59869910E+00
 -1.51973982E+01  7.59869910E+00  7.59869910E+00 -1.51973982E+01  7.59869910E+00
  7.59869910E+00 -1.51973982E+01  7.59869910E+00  7.59869910E+00 -1.51973982E+01
  7.59869910E+00  7.59869910E+00 -1.51973982E+01  7.59869910E+00  7.59869910E+00
 -1.51973982E+01  7.59869910E+00  7.59869910E+00 -1.51973982E+01  7.59869910E+00
  7.59869910E+00 -1.51973982E+01  7.59869910E+00  7.59869910E+00 -1.51973982E+01
  7.59869910E+00  7.59869910E+00 -1.51973982E+01  7.59869910E+00  7.59869910E+00
 -1.51973982E+01  7.59869910E+00  7.59869910E+00 -1.51973982E+01  7.59869910E+00
  7.59869910E+00 -1.51973982E+01  7.59869910E+00  7.59869910E+00 -1.51973982E+01
  7.59869910E+00  7.59869910E+00 -1.51973982E+01  7.59869910E+00  7.59869910E+00
 -1.51973982E+01  7.59869910E+00  7.59869910E+00 -1.51973982E+01  7.59869910E+00
  7.59869910E+00 -1.51973982E+01  7.59869910E+00  7.59869910E+00 -1.51973982E+01
  7.59869910E+00  7.59869910E+00 -1.51973982E+01  7.59869910E+00  7.59869910E+00
 -1.51973982E+01  7.59869910E+00  7.59869910E+00 -1.51973982E+01  7.59869910E+00
  7.59869910E+00 -1.51973982E+01  7.59869910E+00  7.59869910E+00 -1.51973982E+01
  7.59869910E+00  7.59869910E+00 -1.51973982E+01  7.59869910E+00  7.59869910E+00
 -1.51973982E+01  7.59869910E+00  7.59869910E+00 -1.51973982E+01  7.59869910E+00
  7.59869910E+00 -1.51973982E+01  7.59869910E+00  7.59869910E+00 -1.51973982E+01
  7.59869910E+00  7.59869910E+00 -1.51973982E+01  7.59869910E+00  7.59869910E+00
 -1.51973982E+01  7.59869910E+00  7.59869910E+00 -1.51973982E+01  7.59869910E+00
  7.59869910E+00 -1.51973982E+01  7.59869910E+00  7.59869910E+00 -1.51973982E+01
  7.59869910E+00  7.59869910E+00 -1.51973982E+01  7.59869910E+00  7.59869910E+00
 -1.51973982E+01  7.59869910E+00  7.59869910E+00 -1.51973982E+01  7.59869910E+00
  7.59869910E+00 -1.51973982E+01  7.59869910E+00  7.59869910E+00 -1.51973982E+01
  7.59869910E+00  7.59869910E+00 -1.51973982E+01  7.59869910E+00  7.59869910E+00
 -1.51973982E+01  7.59869910E+00  7.59869910E+00 -1.51973982E+01  7.59869910E+00
  7.59869910E+00 -1.51973982E+01  7.59869910E+00  7.59869910E+00 -1.51973982E+01
  7.59869910E+00  7.59869910E+00 -1.51973982E+01  7.59869910E+00  7.59869910E+00
 -1.51973982E+01  7.59869910E+00  7.59869910E+00 -1.51973982E+01  7.59869910E+00
  7.59869910E+00 -1.51973982E+01  7.59869910E+00  7.59869910E+00 -1.51973982E+01
  7.59869910E+00  7.59869910E+00 -1.51973982E+01  7.59869910E+00  7.59869910E+00
 -1.51973982E+01  7.59869910E+00  7.59869910E+00 -1.51973982E+01  7.59869910E+00
  7.59869910E+00 -1.51973982E+01  7.59869910E+00  7.59869910E+00 -1.51973982E+01
  7.59869910E+00  7.59869910E+00 -1.51973982E+01  7.59869910E+00  7.59869910E+00
 -1.51973982E+01  7.59869910E+00  7.59869910E+00 -1.51973982E+01  7.59869910E+00
  7.59869910E+00 -1.51973982E+01  7.59869910E+00  7.59869910E+00 -1.51973982E+01
  7.59869910E+00  7.59869910E+00 -1.51973982E+01  7.59869910E+00  7.59869910E+00
 -1.51973982E+01  7.59869910E+00  7.59869910E+00 -1.51973982E+01  7.59869910E+00
  7.59869910E+00 -1.51973982E+01  7.59869910E+00  7.59869910E+00 -1.51973982E+01
  7.59869910E+00  7.59869910E+00 -1.51973982E+01  7.59869910E+00  7.59869910E+00
 -1.51973982E+01  7.59869910E+00  7.59869910E+00 -1.51973982E+01  7.59869910E+00
  7.59869910E+00 -1.51973982E+01  7.59869910E+00  7.59869910E+00 -1.51973982E+01
  7.59869910E+00  7.59869910E+00 -1.51973982E+01  7.59869910E+00  7.59869910E+00
 -1.51973982E+01  7.59869910E+00  7.59869910E+00 -1.51973982E+01  7.59869910E+00
  7.59869910E+00 -1.51973982E+01  7.59869910E+00  7.59869910E+00 -1.51973982E+01
  7.59869910E+00  7.59869910E+00 -1.51973982E+01  7.59869910E+00  7.59869910E+00
 -1.51973982E+01  7.59869910E+00  7.59869910E+00 -1.51973982E+01  7.59869910E+00
  7.59869910E+00 -1.51973982E+01  7.59869910E+00  7.59869910E+00 -1.51973982E+01
  7.59869910E+00  7.59869910E+00 -1.51973982E+01  7.59869910E+00  7.59869910E+00
 -1.51973982E+01  7.59869910E+00  7.59869910E+00 -1.51973982E+01  7.59869910E+00
  7.59869910E+00 -1.51973982E+01  7.59869910E+00  7.59869910E+00 -1.51973982E+01
  7.59869910E+00  7.59869910E+00 -1.51973982E+01  7.59869910E+00  7.59869910E+00
 -1.51973982E+01  7.59869910E+00  7.59869910E+00 -1.51973982E+01  7.59869910E+00
  7.59869910E+00 -1.51973982E+01  7.59869910E+00  7.59869910E+00 -1.51973982E+01
  7.59869910E+00  7.59869910E+00 -1.51973982E+01  7.59869910E+00  7.59869910E+00
 -1.51973982E+01  7.59869910E+00  7.59869910E+00 -1.51973982E+01  7.59869910E+00
  7.59869910E+00 -1.51973982E+01  7.59869910E+00  7.59869910E+00 -1.51973982E+01
  7.59869910E+00  7.59869910E+00 -1.51973982E+01  7.59869910E+00  7.59869910E+00
 -1.51973982E+01  7.59869910E+00  7.59869910E+00 -1.51973982E+01  7.59869910E+00
  7.59869910E+00 -1.51973982E+01  7.59869910E+00  7.59869910E+00 -1.51973982E+01
  7.59869910E+00  7.59869910E+00 -1.51973982E+01  7.59869910E+00  7.59869910E+00
 -1.51973982E+01  7.59869910E+00  7.59869910E+00 -1.51973982E+01  7.59869910E+00
  7.59869910E+00 -1.51973982E+01  7.59869910E+00  7.59869910E+00 -1.51973982E+01
  7.59869910E+00  7.59869910E+00 -1.51973982E+01  7.59869910E+00  7.59869910E+00
 -1.51973982E+01  7.59869910E+00  7.59869910E+00 -1.51973982E+01  7.59869910E+00
  7.59869910E+00 -1.51973982E+01  7.59869910E+00  7.59869910E+00 -1.51973982E+01
  7.59869910E+00  7.59869910E+00 -1.51973982E+01  7.59869910E+00  7.59869910E+00
 -1.51973982E+01  7.59869910E+00  7.59869910E+00 -1.51973982E+01  7.59869910E+00
  7.59869910E+00 -1.51973982E+01  7.59869910E+00  7.59869910E+00 -1.51973982E+01
  7.59869910E+00  7.59869910E+00 -1.51973982E+01  7.59869910E+00  7.59869910E+00
 -1.51973982E+01  7.59869910E+00  7.59869910E+00 -1.51973982E+01  7.59869910E+00
  7.59869910E+00 -1.51973982E+01  7.59869910E+00  7.59869910E+00 -1.51973982E+01
  7.59869910E+00  7.59869910E+00 -1.51973982E+01  7.59869910E+00  7.59869910E+00
 -1.51973982E+01  7.59869910E+00  7.59869910E+00 -1.51973982E+01  7.59869910E+00
  7.59869910E+00 -1.51973982E+01  7.59869910E+00  7.59869910E+00 -1.51973982E+01
  7.59869910E+00  7.59869910E+00 -1.51973982E+01  7.59869910E+00  7.59869910E+00
 -1.51973982E+01  7.59869910E+00  7.59869910E+00 -1.51973982E+01  7.59869910E+00
  7.59869910E+00 -1.51973982E+01  7.59869910E+00  7.59869910E+00 -1.51973982E+01
  7.59869910E+00  7.59869910E+00 -1.51973982E+01  7.59869910E+00  7.59869910E+00
 -1.51973982E+01  7.59869910E+00  7.59869910E+00 -1.51973982E+01  7.59869910E+00
  7.59869910E+00 -1.51973982E+01  7.59869910E+00  7.59869910E+00 -1.51973982E+01
  7.59869910E+00  7.59869910E+00 -1.51973982E+01  7.59869910E+00  7.59869910E+00
 -1.51973982E+01  7.59869910E+00  7.59869910E+00 -1.51973982E+01  7.59869910E+00
  7.59869910E+00 -1.51973982E+01  7.59869910E+00  7.59869910E+00 -1.51973982E+01
  7.59869910E+00  7.59869910E+00 -1.51973982E+01  7.59869910E+00  7.59869910E+00
 -1.51973982E+01  7.59869910E+00  7.59869910E+00 -1.51973982E+01  7.59869910E+00
  7.59869910E+00 -1.51973982E+01  7.59869910E+00  7.59869910E+00 -1.51973982E+01
  7.59869910E+00  7.59869910E+00 -1.51973982E+01  7.59869910E+00  7.59869910E+00
 -1.51973982E+01  7.59869910E+00  7.59869910E+00 -1.51973982E+01  7.59869910E+00
  7.59869910E+00 -1.51973982E+01  7.59869910E+00  7.59869910E+00 -1.51973982E+01
  7.59869910E+00  7.59869910E+00 -1.51973982E+01  7.59869910E+00  7.59869910E+00
 -1.51973982E+01  7.59869910E+00  7.59869910E+00 -1.51973982E+01  7.59869910E+00
  7.59869910E+00 -1.51973982E+01  7.59869910E+00  7.59869910E+00 -1.51973982E+01
  7.59869910E+00  7.59869910E+00 -1.51973982E+01  7.59869910E+00  7.59869910E+00
 -1.51973982E+01  7.59869910E+00  7.59869910E+00 -1.51973982E+01  7.59869910E+00
  7.59869910E+00 -1.51973982E+01  7.59869910E+00  7.59869910E+00 -1.51973982E+01
  7.59869910E+00  7.59869910E+00 -1.51973982E+01  7.59869910E+00  7.59869910E+00
 -1.51973982E+01  7.59869910E+00  7.59869910E+00 -1.51973982E+01  7.59869910E+00
  7.59869910E+00 -1.51973982E+01  7.59869910E+00  7.59869910E+00 -1.51973982E+01
  7.59869910E+00  7.59869910E+00 -1.51973982E+01  7.59869910E+00  7.59869910E+00
 -1.51973982E+01  7.59869910E+00  7.59869910E+00 -1.51973982E+01  7.59869910E+00
  7.59869910E+00 -1.51973982E+01  7.59869910E+00  7.59869910E+00 -1.51973982E+01
  7.59869910E+00  7.59869910E+00 -1.51973982E+01  7.59869910E+00  7.59869910E+00
 -1.51973982E+01  7.59869910E+00  7.59869910E+00 -1.51973982E+01  7.59869910E+00
  7.59869910E+00 -1.51973982E+01  7.59869910E+00  7.59869910E+00 -1.51973982E+01
  7.59869910E+00  7.59869910E+00 -1.51973982E+01  7.59869910E+00  7.59869910E+00
 -1.51973982E+01  7.59869910E+00  7.59869910E+00 -1.51973982E+01  7.59869910E+00
  7.59869910E+00 -1.51973982E+01  7.59869910E+00  7.59869910E+00 -1.51973982E+01
  7.59869910E+00  7.59869910E+00 -1.51973982E+01  7.59869910E+00  7.59869910E+00
 -1.51973982E+01  7.59869910E+00  7.59869910E+00 -1.51973982E+01  7.59869910E+00
  7.59869910E+00 -1.51973982E+01  7.59869910E+00  7.59869910E+00 -1.51973982E+01
  7.59869910E+00  7.59869910E+00 -1.51973982E+01  7.59869910E+00  7.59869910E+00
 -1.51973982E+01  7.59869910E+00  7.59869910E+00 -1.51973982E+01  7.59869910E+00
  7.59869910E+00 -1.51973982E+01  7.59869910E+00  7.59869910E+00 -1.51973982E+01
  7.59869910E+00  7.59869910E+00 -1.51973982E+01  7.59869910E+00  7.59869910E+00
 -1.51973982E+01  7.59869910E+00  7.59869910E+00 -1.51973982E+01  7.59869910E+00
  7.59869910E+00 -1.51973982E+01  7.59869910E+00  7.59869910E+00 -1.51973982E+01
  7.59869910E+00  7.59869910E+00 -1.51973982E+01  7.59869910E+00  7.59869910E+00
 -1.51973982E+01  7.59869910E+00  7.59869910E+00 -1.51973982E+01  7.59869910E+00
  7.59869910E+00 -1.51973982E+01  7.59869910E+00  7.59869910E+00 -1.51973982E+01
  7.59869910E+00  7.59869910E+00 -1.51973982E+01  7.59869910E+00  7.59869910E+00
 -1.51973982E+01  7.59869910E+00  7.59869910E+00 -1.51973982E+01  7.59869910E+00
  7.59869910E+00 -1.51973982E+01  7.59869910E+00  7.59869910E+00 -1.51973982E+01
  7.59869910E+00  7.59869910E+00 -1.51973982E+01  7.59869910E+00  7.59869910E+00
 -1.51973982E+01  7.59869910E+00  7.59869910E+00 -1.51973982E+01  7.59869910E+00
  7.59869910E+00 -1.51973982E+01  7.59869910E+00  7.59869910E+00 -1.51973982E+01
  7.59869910E+00  7.59869910E+00 -1.51973982E+01  7.59869910E+00  7.59869910E+00
 -1.51973982E+01  7.59869910E+00  7.59869910E+00 -1.51973982E+01  7.59869910E+00
  7.59869910E+00 -1.51973982E+01  7.59869910E+00  7.59869910E+00 -1.51973982E+01
  7.59869910E+00  7.59869910E+00 -1.51973982E+01  7.59869910E+00  7.59869910E+00
 -1.51973982E+01  7.59869910E+00  7.59869910E+00 -1.51973982E+01  7.59869910E+00
  7.59869910E+00 -1.51973982E+01  7.59869910E+00  7.59869910E+00 -1.51973982E+01
  7.59869910E+00  7.59869910E+00 -1.51973982E+01  7.59869910E+00  7.59869910E+00
 -1.51973982E+01  7.59869910E+00  7.59869910E+00 -1.51973982E+01  7.59869910E+00
  7.59869910E+00 -1.51973982E+01  7.59869910E+00  7.59869910E+00 -1.51973982E+01
  7.59869910E+00  7.59869910E+00 -1.51973982E+01  7.59869910E+00  7.59869910E+00
 -1.51973982E+01  7.59869910E+00  7.59869910E+00 -1.51973982E+01  7.59869910E+00
  7.59869910E+00 -1.51973982E+01  7.59869910E+00  7.59869910E+00 -1.51973982E+01
  7.59869910E+00  7.59869910E+00 -1.51973982E+01  7.59869910E+00  7.59869910E+00
 -1.51973982E+01  7.59869910E+00  7.59869910E+00 -1.51973982E+01  7.59869910E+00
  7.59869910E+00 -1.51973982E+01  7.59869910E+00  7.59869910E+00 -1.51973982E+01
  7.59869910E+00  7.59869910E+00 -1.51973982E+01  7.59869910E+00  7.59869910E+00
 -1.51973982E+01  7.59869910E+00  7.59869910E+00 -1.51973982E+01  7.59869910E+00
  7.59869910E+00 -1.51973982E+01  7.59869910E+00  7.59869910E+00 -1.51973982E+01
  7.59869910E+00  7.59869910E+00 -1.51973982E+01  7.59869910E+00  7.59869910E+00
 -1.51973982E+01  7.59869910E+00  7.59869910E+00 -1.51973982E+01  7.59869910E+00
  7.59869910E+00 -1.51973982E+01  7.59869910E+00  7.59869910E+00 -1.51973982E+01
  7.59869910E+00  7.59869910E+00 -1.51973982E+01  7.59869910E+00  7.59869910E+00
 -1.51973982E+01  7.59869910E+00  7.59869910E+00 -1.51973982E+01  7.59869910E+00
  7.59869910E+00 -1.51973982E+01  7.59869910E+00  7.59869910E+00 -1.51973982E+01
  7.59869910E+00  7.59869910E+00 -1.51973982E+01  7.59869910E+00  7.59869910E+00
 -1.51973982E+01  7.59869910E+00  7.59869910E+00 -1.51973982E+01  7.59869910E+00
  7.59869910E+00 -1.51973982E+01  7.59869910E+00  7.59869910E+00 -1.51973982E+01
  7.59869910E+00  7.59869910E+00 -1.51973982E+01  7.59869910E+00  7.59869910E+00
 -1.51973982E+01  7.59869910E+00  7.59869910E+00 -1.51973982E+01  7.59869910E+00
  7.59869910E+00 -1.51973982E+01  7.59869910E+00  7.59869910E+00 -1.51973982E+01
  7.59869910E+00  7.59869910E+00 -1.51973982E+01  7.59869910E+00  7.59869910E+00
 -1.51973982E+01  7.59869910E+00  7.59869910E+00 -1.51973982E+01  7.59869910E+00
  7.59869910E+00 -1.51973982E+01  7.59869910E+00  7.59869910E+00 -1.51973982E+01
  7.59869910E+00  7.59869910E+00 -1.51973982E+01  7.59869910E+00  7.59869910E+00
 -1.51973982E+01  7.59869910E+00  7.59869910E+00 -1.51973982E+01  7.59869910E+00
  7.59869910E+00 -1.51973982E+01  7.59869910E+00  7.59869910E+00 -1.51973982E+01
  7.59869910E+00  7.59869910E+00 -1.51973982E+01  7.59869910E+00  7.59869910E+00
 -1.51973982E+01  7.59869910E+00  7.59869910E+00 -1.51973982E+01  7.59869910E+00
  7.59869910E+00 -1.51973982E+01  7.59869910E+00  7.59869910E+00 -1.51973982E+01
  7.59869910E+00  7.59869910E+00 -1.51973982E+01  7.59869910E+00  7.59869910E+00
 -1.51973982E+01  7.59869910E+00  7.59869910E+00 -1.51973982E+01  7.59869910E+00
  7.59869910E+00 -1.51973982E+01  7.59869910E+00  7.59869910E+00 -1.51973982E+01
  7.59869910E+00  7.59869910E+00 -1.51973982E+01  7.59869910E+00  7.59869910E+00
 -1.51973982E+01  7.59869910E+00  7.59869910E+00 -1.51973982E+01  7.59869910E+00
  7.59869910E+00 -1.51973982E+01  7.59869910E+00  7.59869910E+00 -1.51973982E+01
  7.59869910E+00  7.59869910E+00 -1.51973982E+01  7.59869910E+00  7.59869910E+00
 -1.51973982E+01  7.59869910E+00  7.59869910E+00 -1.51973982E+01  7.59869910E+00
  7.59869910E+00 -1.51973982E+01  7.59869910E+00  7.59869910E+00 -1.51973982E+01
  7.59869910E+00  7.59869910E+00 -1.51973982E+01  7.59869910E+00  7.59869910E+00
 -1.51973982E+01  7.59869910E+00  7.59869910E+00 -1.51973982E+01  7.59869910E+00
  7.59869910E+00 -1.51973982E+01  7.59869910E+00  7.59869910E+00 -1.51973982E+01
  7.59869910E+00  7.59869910E+00 -1.51973982E+01  7.59869910E+00  7.59869910E+00
 -1.51973982E+01  7.59869910E+00  7.59869910E+00 -1.51973982E+01  7.59869910E+00
  7.59869910E+00 -1.51973982E+01  7.59869910E+00  7.59869910E+00 -1.51973982E+01
  7.59869910E+00  7.59869910E+00 -1.51973982E+01  7.59869910E+00  7.59869910E+00
 -1.51973982E+01  7.59869910E+00  7.59869910E+00 -1.51973982E+01  7.59869910E+00
  7.59869910E+00 -1.51973982E+01  7.59869910E+00  7.59869910E+00 -1.51973982E+01
  7.59869910E+00  7.59869910E+00 -1.51973982E+01  7.59869910E+00  7.59869910E+00
 -1.51973982E+01  7.59869910E+00  7.59869910E+00 -1.51973982E+01  7.59869910E+00
  7.59869910E+00 -1.51973982E+01  7.59869910E+00  7.59869910E+00 -1.51973982E+01
  7.59869910E+00  7.59869910E+00 -1.51973982E+01  7.59869910E+00  7.59869910E+00
 -1.51973982E+01  7.59869910E+00  7.59869910E+00 -1.51973982E+01  7.59869910E+00
  7.59869910E+00 -1.51973982E+01  7.59869910E+00  7.59869910E+00 -1.51973982E+01
  7.59869910E+00  7.59869910E+00 -1.51973982E+01  7.59869910E+00  7.59869910E+00
 -1.51973982E+01  7.59869910E+00  7.59869910E+00 -1.51973982E+01  7.59869910E+00
  7.59869910E+00 -1.51973982E+01  7.59869910E+00  7.59869910E+00 -1.51973982E+01
  7.59869910E+00  7.59869910E+00 -1.51973982E+01  7.59869910E+00  7.59869910E+00
 -1.51973982E+01  7.59869910E+00  7.59869910E+00 -1.51973982E+01  7.59869910E+00
  7.59869910E+00 -1.51973982E+01  7.59869910E+00  7.59869910E+00 -1.51973982E+01
  7.59869910E+00  7.59869910E+00 -1.51973982E+01  7.59869910E+00  7.59869910E+00
 -1.51973982E+01  7.59869910E+00  7.59869910E+00 -1.51973982E+01  7.59869910E+00
  7.59869910E+00 -1.51973982E+01  7.59869910E+00  7.59869910E+00 -1.51973982E+01
  7.59869910E+00  7.59869910E+00 -1.51973982E+01  7.59869910E+00  7.59869910E+00
 -1.51973982E+01  7.59869910E+00  7.59869910E+00 -1.51973982E+01  7.59869910E+00
  7.59869910E+00 -1.51973982E+01  7.59869910E+00  7.59869910E+00 -1.51973982E+01
  7.59869910E+00  7.59869910E+00 -1.51973982E+01  7.59869910E+00  7.59869910E+00
 -1.51973982E+01  7.59869910E+00  7.59869910E+00 -1.51973982E+01  7.59869910E+00
  7.59869910E+00 -1.51973982E+01  7.59869910E+00  7.59869910E+00 -1.51973982E+01
  7.59869910E+00  7.59869910E+00 -1.51973982E+01  7.59869910E+00  7.59869910E+00
 -1.51973982E+01  7.59869910E+00  7.59869910E+00 -1.51973982E+01  7.59869910E+00
  7.59869910E+00 -1.51973982E+01  7.59869910E+00  7.59869910E+00 -1.51973982E+01
  7.59869910E+00  7.59869910E+00 -1.51973982E+01  7.59869910E+00  7.59869910E+00
 -1.51973982E+01  7.59869910E+00  7.59869910E+00 -1.51973982E+01  7.59869910E+00
  7.59869910E+00 -1.51973982E+01  7.59869910E+00  7.59869910E+00 -1.51973982E+01
  7.59869910E+00  7.59869910E+00 -1.51973982E+01  7.59869910E+00  7.59869910E+00
 -1.51973982E+01  7.59869910E+00  7.59869910E+00 -1.51973982E+01  7.59869910E+00
  7.59869910E+00 -1.51973982E+01  7.59869910E+00  7.59869910E+00 -1.51973982E+01
  7.59869910E+00  7.59869910E+00 -1.51973982E+01  7.59869910E+00  7.59869910E+00
 -1.51973982E+01  7.59869910E+00  7.59869910E+00 -1.51973982E+01  7.59869910E+00
  7.59869910E+00 -1.51973982E+01  7.59869910E+00  7.59869910E+00 -1.51973982E+01
  7.59869910E+00  7.59869910E+00 -1.51973982E+01  7.59869910E+00  7.59869910E+00
 -1.51973982E+01  7.59869910E+00  7.59869910E+00 -1.51973982E+01  7.59869910E+00
  7.59869910E+00 -1.51973982E+01  7.59869910E+00  7.59869910E+00 -1.51973982E+01
  7.59869910E+00  7.59869910E+00 -1.51973982E+01  7.59869910E+00  7.59869910E+00
 -1.51973982E+01  7.59869910E+00  7.59869910E+00 -1.51973982E+01  7.59869910E+00
  7.59869910E+00 -1.51973982E+01  7.59869910E+00  7.59869910E+00 -1.51973982E+01
  7.59869910E+00  7.59869910E+00 -1.51973982E+01  7.59869910E+00  7.59869910E+00
 -1.51973982E+01  7.59869910E+00  7.59869910E+00 -1.51973982E+01  7.59869910E+00
  7.59869910E+00 -1.51973982E+01  7.59869910E+00  7.59869910E+00 -1.51973982E+01
  7.59869910E+00  7.59869910E+00 -1.51973982E+01  7.59869910E+00  7.59869910E+00
 -1.51973982E+01  7.59869910E+00  7.59869910E+00 -1.51973982E+01  7.59869910E+00
  7.59869910E+00 -1.51973982E+01  7.59869910E+00  7.59869910E+00 -1.51973982E+01
  7.59869910E+00  7.59869910E+00 -1.51973982E+01  7.59869910E+00  7.59869910E+00
 -1.51973982E+01  7.59869910E+00  7.59869910E+00 -1.51973982E+01  7.59869910E+00
  7.59869910E+00 -1.51973982E+01  7.59869910E+00  7.59869910E+00 -1.51973982E+01
  7.59869910E+00  7.59869910E+00 -1.51973982E+01  7.59869910E+00  7.59869910E+00
 -1.51973982E+01  7.59869910E+00  7.59869910E+00 -1.51973982E+01  7.59869910E+00
  7.59869910E+00 -1.51973982E+01  7.59869910E+00  7.59869910E+00 -1.51973982E+01
  7.59869910E+00  7.59869910E+00 -1.51973982E+01  7.59869910E+00  7.59869910E+00
 -1.51973982E+01  7.59869910E+00  7.59869910E+00 -1.51973982E+01  7.59869910E+00
  7.59869910E+00 -1.51973982E+01  7.59869910E+00  7.59869910E+00 -1.51973982E+01
  7.59869910E+00  7.59869910E+00 -1.51973982E+01  7.59869910E+00  7.59869910E+00
 -1.51973982E+01  7.59869910E+00  7.59869910E+00 -1.51973982E+01  7.59869910E+00
  7.59869910E+00 -1.51973982E+01  7.59869910E+00  7.59869910E+00 -1.51973982E+01
  7.59869910E+00  7.59869910E+00 -1.51973982E+01  7.59869910E+00  7.59869910E+00
 -1.51973982E+01  7.59869910E+00  7.59869910E+00 -1.51973982E+01  7.59869910E+00
  7.59869910E+00 -1.51973982E+01  7.59869910E+00  7.59869910E+00 -1.51973982E+01
  7.59869910E+00  7.59869910E+00 -1.51973982E+01  7.59869910E+00  7.59869910E+00
 -1.51973982E+01  7.59869910E+00  7.59869910E+00 -1.51973982E+01  7.59869910E+00
  7.59869910E+00 -1.51973982E+01  7.59869910E+00  7.59869910E+00 -1.51973982E+01
  7.59869910E+00  7.59869910E+00 -1.51973982E+01  7.59869910E+00  7.59869910E+00
 -1.51973982E+01  7.59869910E+00  7.59869910E+00 -1.51973982E+01  7.59869910E+00
  7.59869910E+00 -1.51973982E+01  7.59869910E+00  7.59869910E+00 -1.51973982E+01
  7.59869910E+00  7.59869910E+00 -1.51973982E+01  7.59869910E+00  7.59869910E+00
 -1.51973982E+01  7.59869910E+00  7.59869910E+00 -1.51973982E+01  7.59869910E+00
  7.59869910E+00 -1.51973982E+01  7.59869910E+00  7.59869910E+00 -1.51973982E+01
  7.59869910E+00  7.59869910E+00 -1.51973982E+01  7.59869910E+00  7.59869910E+00
 -1.51973982E+01  7.59869910E+00  7.59869910E+00 -1.51973982E+01  7.59869910E+00
  7.59869910E+00 -1.51973982E+01  7.59869910E+00  7.59869910E+00 -1.51973982E+01
  7.59869910E+00  7.59869910E+00 -1.51973982E+01  7.59869910E+00  7.59869910E+00
 -1.51973982E+01  7.59869910E+00  7.59869910E+00 -1.51973982E+01  7.59869910E+00
  7.59869910E+00 -1.51973982E+01  7.59869910E+00  7.59869910E+00 -1.51973982E+01
  7.59869910E+00  7.59869910E+00 -1.51973982E+01  7.59869910E+00  7.59869910E+00
 -1.51973982E+01  7.59869910E+00  7.59869910E+00 -1.51973982E+01  7.59869910E+00
  7.59869910E+00 -1.51973982E+01  7.59869910E+00  7.59869910E+00 -1.51973982E+01
  7.59869910E+00  7.59869910E+00 -1.51973982E+01  7.59869910E+00  7.59869910E+00
 -1.51973982E+01  7.59869910E+00  7.59869910E+00 -1.51973982E+01  7.59869910E+00
  7.59869910E+00 -1.51973982E+01  7.59869910E+00  7.59869910E+00 -1.51973982E+01
  7.59869910E+00  7.59869910E+00 -1.51973982E+01  7.59869910E+00  7.59869910E+00
 -1.51973982E+01  7.59869910E+00  7.59869910E+00 -1.51973982E+01  7.59869910E+00
  7.59869910E+00 -1.51973982E+01  7.59869910E+00  7.59869910E+00 -1.51973982E+01
  7.59869910E+00  7.59869910E+00 -1.51973982E+01  7.59869910E+00  7.59869910E+00
 -1.51973982E+01  7.59869910E+00  7.59869910E+00 -1.51973982E+01  7.59869910E+00
  7.59869910E+00 -1.51973982E+01  7.59869910E+00  7.59869910E+00 -1.51973982E+01
  7.59869910E+00  7.59869910E+00 -1.51973982E+01  7.59869910E+00  7.59869910E+00
 -1.51973982E+01  7.59869910E+00  7.59869910E+00 -1.51973982E+01  7.59869910E+00
  7.59869910E+00 -1.51973982E+01  7.59869910E+00  7.59869910E+00 -1.51973982E+01
  7.59869910E+00  7.59869910E+00 -1.51973982E+01  7.59869910E+00  7.59869910E+00
 -1.51973982E+01  7.59869910E+00  7.59869910E+00 -1.51973982E+01  7.59869910E+00
  7.59869910E+00 -1.51973982E+01  7.59869910E+00  7.59869910E+00 -1.51973982E+01
  7.59869910E+00  7.59869910E+00 -1.51973982E+01  7.59869910E+00  7.59869910E+00
 -1.51973982E+01  7.59869910E+00  7.59869910E+00 -1.51973982E+01  7.59869910E+00
  7.59869910E+00 -1.51973982E+01  7.59869910E+00  7.59869910E+00 -1.51973982E+01
  7.59869910E+00  7.59869910E+00 -1.51973982E+01  7.59869910E+00  7.59869910E+00
 -1.51973982E+01  7.59869910E+00  7.59869910E+00 -1.51973982E+01  7.59869910E+00
  7.59869910E+00 -1.51973982E+01  7.59869910E+00  7.59869910E+00 -1.51973982E+01
  7.59869910E+00  7.59869910E+00 -1.51973982E+01  7.59869910E+00  7.59869910E+00
 -1.51973982E+01  7.59869910E+00  7.59869910E+00 -1.51973982E+01  7.59869910E+00
  7.59869910E+00 -1.51973982E+01  7.59869910E+00  7.59869910E+00 -1.51973982E+01
  7.59869910E+00  7.59869910E+00 -1.51973982E+01  7.59869910E+00  7.59869910E+00
 -1.51973982E+01  7.59869910E+00  7.59869910E+00 -1.51973982E+01  7.59869910E+00
  7.59869910E+00 -1.51973982E+01  7.59869910E+00  7.59869910E+00 -1.51973982E+01
  7.59869910E+00  7.59869910E+00 -1.51973982E+01  7.59869910E+00  7.59869910E+00
 -1.51973982E+01  7.59869910E+00  7.59869910E+00 -1.51973982E+01  7.59869910E+00
  7.59869910E+00 -1.51973982E+01  7.59869910E+00  7.59869910E+00 -1.51973982E+01
  7.59869910E+00  7.59869910E+00 -1.51973982E+01  7.59869910E+00  7.59869910E+00
 -1.51973982E+01  7.59869910E+00  7.59869910E+00 -1.51973982E+01  7.59869910E+00
  7.59869910E+00 -1.51973982E+01  7.59869910E+00  7.59869910E+00 -1.51973982E+01
  7.59869910E+00  7.59869910E+00 -1.51973982E+01  7.59869910E+00  7.59869910E+00
 -1.51973982E+01  7.59869910E+00  7.59869910E+00 -1.51973982E+01  7.59869910E+00
  7.59869910E+00 -1.51973982E+01  7.59869910E+00  7.59869910E+00 -1.51973982E+01
  7.59869910E+00  7.59869910E+00 -1.51973982E+01  7.59869910E+00  7.59869910E+00
 -1.51973982E+01  7.59869910E+00  7.59869910E+00 -1.51973982E+01  7.59869910E+00
  7.59869910E+00 -1.51973982E+01  7.59869910E+00  7.59869910E+00 -1.51973982E+01
  7.59869910E+00  7.59869910E+00 -1.51973982E+01  7.59869910E+00  7.59869910E+00
 -1.51973982E+01  7.59869910E+00  7.59869910E+00 -1.51973982E+01  7.59869910E+00
  7.59869910E+00 -1.51973982E+01  7.59869910E+00  7.59869910E+00 -1.51973982E+01
  7.59869910E+00  7.59869910E+00 -1.51973982E+01  7.59869910E+00  7.59869910E+00
 -1.51973982E+01  7.59869910E+00  7.59869910E+00 -1.51973982E+01  7.59869910E+00
  7.59869910E+00 -1.51973982E+01  7.59869910E+00  7.59869910E+00 -1.51973982E+01
  7.59869910E+00  7.59869910E+00 -1.51973982E+01  7.59869910E+00  7.59869910E+00
 -1.51973982E+01  7.59869910E+00  7.59869910E+00 -1.51973982E+01  7.59869910E+00
  7.59869910E+00 -1.51973982E+01  7.59869910E+00  7.59869910E+00 -1.51973982E+01
  7.59869910E+00  7.59869910E+00 -1.51973982E+01  7.59869910E+00  7.59869910E+00
 -1.51973982E+01  7.59869910E+00  7.59869910E+00 -1.51973982E+01  7.59869910E+00
  7.59869910E+00 -1.51973982E+01  7.59869910E+00  7.59869910E+00 -1.51973982E+01
  7.59869910E+00  7.59869910E+00 -1.51973982E+01  7.59869910E+00  7.59869910E+00
 -1.51973982E+01  7.59869910E+00  7.59869910E+00 -1.51973982E+01  7.59869910E+00
  7.59869910E+00 -1.51973982E+01  7.59869910E+00  7.59869910E+00 -1.51973982E+01
  7.59869910E+00  7.59869910E+00 -1.51973982E+01  7.59869910E+00  7.59869910E+00
 -1.51973982E+01  7.59869910E+00  7.59869910E+00 -1.51973982E+01  7.59869910E+00
  7.59869910E+00 -1.51973982E+01  7.59869910E+00  7.59869910E+00 -1.51973982E+01
  7.59869910E+00  7.59869910E+00 -1.51973982E+01  7.59869910E+00  7.59869910E+00
 -1.51973982E+01  7.59869910E+00  7.59869910E+00 -1.51973982E+01  7.59869910E+00
  7.59869910E+00 -1.51973982E+01  7.59869910E+00  7.59869910E+00 -1.51973982E+01
  7.59869910E+00  7.59869910E+00 -1.51973982E+01  7.59869910E+00  7.59869910E+00
 -1.51973982E+01  7.59869910E+00  7.59869910E+00 -1.51973982E+01  7.59869910E+00
  7.59869910E+00 -1.51973982E+01  7.59869910E+00  7.59869910E+00 -1.51973982E+01
  7.59869910E+00  7.59869910E+00 -1.51973982E+01  7.59869910E+00  7.59869910E+00
 -1.51973982E+01  7.59869910E+00  7.59869910E+00 -1.51973982E+01  7.59869910E+00
  7.59869910E+00 -1.51973982E+01  7.59869910E+00  7.59869910E+00 -1.51973982E+01
  7.59869910E+00  7.59869910E+00 -1.51973982E+01  7.59869910E+00  7.59869910E+00
 -1.51973982E+01  7.59869910E+00  7.59869910E+00 -1.51973982E+01  7.59869910E+00
  7.59869910E+00 -1.51973982E+01  7.59869910E+00  7.59869910E+00 -1.51973982E+01
  7.59869910E+00  7.59869910E+00 -1.51973982E+01  7.59869910E+00  7.59869910E+00
 -1.51973982E+01  7.59869910E+00  7.59869910E+00 -1.51973982E+01  7.59869910E+00
  7.59869910E+00 -1.51973982E+01  7.59869910E+00  7.59869910E+00 -1.51973982E+01
  7.59869910E+00  7.59869910E+00 -1.51973982E+01  7.59869910E+00  7.59869910E+00
 -1.51973982E+01  7.59869910E+00  7.59869910E+00 -1.51973982E+01  7.59869910E+00
  7.59869910E+00 -1.51973982E+01  7.59869910E+00  7.59869910E+00 -1.51973982E+01
  7.59869910E+00  7.59869910E+00 -1.51973982E+01  7.59869910E+00  7.59869910E+00
 -1.51973982E+01  7.59869910E+00  7.59869910E+00 -1.51973982E+01  7.59869910E+00
  7.59869910E+00 -1.51973982E+01  7.59869910E+00  7.59869910E+00 -1.51973982E+01
  7.59869910E+00  7.59869910E+00 -1.51973982E+01  7.59869910E+00  7.59869910E+00
 -1.51973982E+01  7.59869910E+00  7.59869910E+00 -1.51973982E+01  7.59869910E+00
  7.59869910E+00 -1.51973982E+01  7.59869910E+00  7.59869910E+00 -1.51973982E+01
  7.59869910E+00  7.59869910E+00 -1.51973982E+01  7.59869910E+00  7.59869910E+00
 -1.51973982E+01  7.59869910E+00  7.59869910E+00 -1.51973982E+01  7.59869910E+00
  7.59869910E+00 -1.51973982E+01  7.59869910E+00  7.59869910E+00 -1.51973982E+01
  7.59869910E+00  7.59869910E+00 -1.51973982E+01  7.59869910E+00  7.59869910E+00
 -1.51973982E+01  7.59869910E+00  7.59869910E+00 -1.51973982E+01  7.59869910E+00
  7.59869910E+00 -1.51973982E+01  7.59869910E+00  7.59869910E+00 -1.51973982E+01
  7.59869910E+00  7.59869910E+00 -1.51973982E+01  7.59869910E+00  7.59869910E+00
 -1.51973982E+01  7.59869910E+00  7.59869910E+00 -1.51973982E+01  7.59869910E+00
  7.59869910E+00 -1.51973982E+01  7.59869910E+00  7.59869910E+00 -1.51973982E+01
  7.59869910E+00  7.59869910E+00 -1.51973982E+01  7.59869910E+00  7.59869910E+00
 -1.51973982E+01  7.59869910E+00  7.59869910E+00 -1.51973982E+01  7.59869910E+00
  7.59869910E+00 -1.51973982E+01  7.59869910E+00  7.59869910E+00 -1.51973982E+01
  7.59869910E+00  7.59869910E+00 -1.51973982E+01  7.59869910E+00  7.59869910E+00
 -1.51973982E+01  7.59869910E+00  7.59869910E+00 -1.51973982E+01  7.59869910E+00
  7.59869910E+00 -1.51973982E+01  7.59869910E+00  7.59869910E+00 -1.51973982E+01
  7.59869910E+00  7.59869910E+00 -1.51973982E+01  7.59869910E+00  7.59869910E+00
 -1.51973982E+01  7.59869910E+00  7.59869910E+00 -1.51973982E+01  7.59869910E+00
  7.59869910E+00 -1.51973982E+01  7.59869910E+00  7.59869910E+00 -1.51973982E+01
  7.59869910E+00  7.59869910E+00 -1.51973982E+01  7.59869910E+00  7.59869910E+00
 -1.51973982E+01  7.59869910E+00  7.59869910E+00 -1.51973982E+01  7.59869910E+00
  7.59869910E+00 -1.51973982E+01  7.59869910E+00  7.59869910E+00 -1.51973982E+01
  7.59869910E+00  7.59869910E+00 -1.51973982E+01  7.59869910E+00  7.59869910E+00
 -1.51973982E+01  7.59869910E+00  7.59869910E+00 -1.51973982E+01  7.59869910E+00
  7.59869910E+00 -1.51973982E+01  7.59869910E+00  7.59869910E+00 -1.51973982E+01
  7.59869910E+00  7.59869910E+00 -1.51973982E+01  7.59869910E+00  7.59869910E+00
 -1.51973982E+01  7.59869910E+00  7.59869910E+00 -1.51973982E+01  7.59869910E+00
  7.59869910E+00 -1.51973982E+01  7.59869910E+00  7.59869910E+00 -1.51973982E+01
  7.59869910E+00  7.59869910E+00 -1.51973982E+01  7.59869910E+00  7.59869910E+00
 -1.51973982E+01  7.59869910E+00  7.59869910E+00 -1.51973982E+01  7.59869910E+00
  7.59869910E+00 -1.51973982E+01  7.59869910E+00  7.59869910E+00 -1.51973982E+01
  7.59869910E+00  7.59869910E+00 -1.51973982E+01  7.59869910E+00  7.59869910E+00
 -1.51973982E+01  7.59869910E+00  7.59869910E+00 -1.51973982E+01  7.59869910E+00
  7.59869910E+00 -1.51973982E+01  7.59869910E+00  7.59869910E+00 -1.51973982E+01
  7.59869910E+00  7.59869910E+00 -1.51973982E+01  7.59869910E+00  7.59869910E+00
 -1.51973982E+01  7.59869910E+00  7.59869910E+00 -1.51973982E+01  7.59869910E+00
  7.59869910E+00 -1.51973982E+01  7.59869910E+00  7.59869910E+00 -1.51973982E+01
  7.59869910E+00  7.59869910E+00 -1.51973982E+01  7.59869910E+00  7.59869910E+00
 -1.51973982E+01  7.59869910E+00  7.59869910E+00 -1.51973982E+01  7.59869910E+00
  7.59869910E+00 -1.51973982E+01  7.59869910E+00  7.59869910E+00 -1.51973982E+01
  7.59869910E+00  7.59869910E+00 -1.51973982E+01  7.59869910E+00  7.59869910E+00
 -1.51973982E+01  7.59869910E+00  7.59869910E+00 -1.51973982E+01  7.59869910E+00
  7.59869910E+00 -1.51973982E+01  7.59869910E+00  7.59869910E+00 -1.51973982E+01
  7.59869910E+00  7.59869910E+00 -1.51973982E+01  7.59869910E+00  7.59869910E+00
 -1.51973982E+01  7.59869910E+00  7.59869910E+00 -1.51973982E+01  7.59869910E+00
  7.59869910E+00 -1.51973982E+01  7.59869910E+00  7.59869910E+00 -1.51973982E+01
  7.59869910E+00  7.59869910E+00 -1.51973982E+01  7.59869910E+00  7.59869910E+00
 -1.51973982E+01  7.59869910E+00  7.59869910E+00 -1.51973982E+01  7.59869910E+00
  7.59869910E+00 -1.51973982E+01  7.59869910E+00  7.59869910E+00 -1.51973982E+01
  7.59869910E+00  7.59869910E+00 -1.51973982E+01  7.59869910E+00  7.59869910E+00
 -1.51973982E+01  7.59869910E+00  7.59869910E+00 -1.51973982E+01  7.59869910E+00
  7.59869910E+00 -1.51973982E+01  7.59869910E+00  7.59869910E+00 -1.51973982E+01
  7.59869910E+00  7.59869910E+00 -1.51973982E+01  7.59869910E+00  7.59869910E+00
 -1.51973982E+01  7.59869910E+00  7.59869910E+00 -1.51973982E+01  7.59869910E+00
  7.59869910E+00 -1.51973982E+01  7.59869910E+00  7.59869910E+00 -1.51973982E+01
  7.59869910E+00  7.59869910E+00 -1.51973982E+01  7.59869910E+00  7.59869910E+00
 -1.51973982E+01  7.59869910E+00  7.59869910E+00 -1.51973982E+01  7.59869910E+00
  7.59869910E+00 -1.51973982E+01  7.59869910E+00  7.59869910E+00 -1.51973982E+01
  7.59869910E+00  7.59869910E+00 -1.51973982E+01  7.59869910E+00  7.59869910E+00
 -1.51973982E+01  7.59869910E+00  7.59869910E+00 -1.51973982E+01  7.59869910E+00
  7.59869910E+00 -1.51973982E+01  7.59869910E+00  7.59869910E+00 -1.51973982E+01
  7.59869910E+00  7.59869910E+00 -1.51973982E+01  7.59869910E+00  7.59869910E+00
 -1.51973982E+01  7.59869910E+00  7.59869910E+00 -1.51973982E+01  7.59869910E+00
  7.59869910E+00 -1.51973982E+01  7.59869910E+00  7.59869910E+00 -1.51973982E+01
  7.59869910E+00  7.59869910E+00 -1.51973982E+01  7.59869910E+00  7.59869910E+00
 -1.51973982E+01  7.59869910E+00  7.59869910E+00 -1.51973982E+01  7.59869910E+00
  7.59869910E+00 -1.51973982E+01  7.59869910E+00  7.59869910E+00 -1.51973982E+01
  7.59869910E+00  7.59869910E+00 -1.51973982E+01  7.59869910E+00  7.59869910E+00
 -1.51973982E+01  7.59869910E+00  7.59869910E+00 -1.51973982E+01  7.59869910E+00
  7.59869910E+00 -1.51973982E+01  7.59869910E+00  7.59869910E+00 -1.51973982E+01
  7.59869910E+00  7.59869910E+00 -1.51973982E+01  7.59869910E+00  7.59869910E+00
 -1.51973982E+01  7.59869910E+00  7.59869910E+00 -1.51973982E+01  7.59869910E+00
  7.59869910E+00 -1.51973982E+01  7.59869910E+00  7.59869910E+00 -1.51973982E+01
  7.59869910E+00  7.59869910E+00 -1.51973982E+01  7.59869910E+00  7.59869910E+00
 -1.51973982E+01  7.59869910E+00  7.59869910E+00 -1.51973982E+01  7.59869910E+00
  7.59869910E+00 -1.51973982E+01  7.59869910E+00  7.59869910E+00 -1.51973982E+01
  7.59869910E+00  7.59869910E+00 -1.51973982E+01  7.59869910E+00  7.59869910E+00
 -1.51973982E+01  7.59869910E+00  7.59869910E+00 -1.51973982E+01  7.59869910E+00
  7.59869910E+00 -1.51973982E+01  7.59869910E+00  7.59869910E+00 -1.51973982E+01
  7.59869910E+00  7.59869910E+00 -1.51973982E+01  7.59869910E+00  7.59869910E+00
 -1.51973982E+01  7.59869910E+00  7.59869910E+00 -1.51973982E+01  7.59869910E+00
  7.59869910E+00 -1.51973982E+01  7.59869910E+00  7.59869910E+00 -1.51973982E+01
  7.59869910E+00  7.59869910E+00 -1.51973982E+01  7.59869910E+00  7.59869910E+00
 -1.51973982E+01  7.59869910E+00  7.59869910E+00 -1.51973982E+01  7.59869910E+00
  7.59869910E+00 -1.51973982E+01  7.59869910E+00  7.59869910E+00 -1.51973982E+01
  7.59869910E+00  7.59869910E+00 -1.51973982E+01  7.59869910E+00  7.59869910E+00
 -1.51973982E+01  7.59869910E+00  7.59869910E+00 -1.51973982E+01  7.59869910E+00
  7.59869910E+00 -1.51973982E+01  7.59869910E+00  7.59869910E+00 -1.51973982E+01
  7.59869910E+00  7.59869910E+00 -1.51973982E+01  7.59869910E+00  7.59869910E+00
 -1.51973982E+01  7.59869910E+00  7.59869910E+00 -1.51973982E+01  7.59869910E+00
  7.59869910E+00 -1.51973982E+01  7.59869910E+00  7.59869910E+00 -1.51973982E+01
  7.59869910E+00  7.59869910E+00 -1.51973982E+01  7.59869910E+00  7.59869910E+00
 -1.51973982E+01  7.59869910E+00  7.59869910E+00 -1.51973982E+01  7.59869910E+00
  7.59869910E+00 -1.51973982E+01  7.59869910E+00  7.59869910E+00 -1.51973982E+01
  7.59869910E+00  7.59869910E+00 -1.51973982E+01  7.59869910E+00  7.59869910E+00
 -1.51973982E+01  7.59869910E+00  7.59869910E+00 -1.51973982E+01  7.59869910E+00
  7.59869910E+00 -1.51973982E+01  7.59869910E+00  7.59869910E+00 -1.51973982E+01
  7.59869910E+00  7.59869910E+00 -1.51973982E+01  7.59869910E+00  7.59869910E+00
 -1.51973982E+01  7.59869910E+00  7.59869910E+00 -1.51973982E+01  7.59869910E+00
  7.59869910E+00 -1.51973982E+01  7.59869910E+00  7.59869910E+00 -1.51973982E+01
  7.59869910E+00  7.59869910E+00 -1.51973982E+01  7.59869910E+00  7.59869910E+00
 -1.51973982E+01  7.59869910E+00  7.59869910E+00 -1.51973982E+01  7.59869910E+00
  7.59869910E+00 -1.51973982E+01  7.59869910E+00  7.59869910E+00 -1.51973982E+01
  7.59869910E+00  7.59869910E+00 -1.51973982E+01  7.59869910E+00  7.59869910E+00
 -1.51973982E+01  7.59869910E+00  7.59869910E+00 -1.51973982E+01  7.59869910E+00
  7.59869910E+00 -1.51973982E+01  7.59869910E+00  7.59869910E+00 -1.51973982E+01
  7.59869910E+00  7.59869910E+00 -1.51973982E+01  7.59869910E+00  7.59869910E+00
 -1.51973982E+01  7.59869910E+00  7.59869910E+00 -1.51973982E+01  7.59869910E+00
  7.59869910E+00 -1.51973982E+01  7.59869910E+00  7.59869910E+00 -1.51973982E+01
  7.59869910E+00  7.59869910E+00 -1.51973982E+01  7.59869910E+00  7.59869910E+00
 -1.51973982E+01  7.59869910E+00  7.59869910E+00 -1.51973982E+01  7.59869910E+00
  7.59869910E+00 -1.51973982E+01  7.59869910E+00  7.59869910E+00 -1.51973982E+01
  7.59869910E+00  7.59869910E+00 -1.51973982E+01  7.59869910E+00  7.59869910E+00
 -1.51973982E+01  7.59869910E+00  7.59869910E+00 -1.51973982E+01  7.59869910E+00
  7.59869910E+00 -1.51973982E+01  7.59869910E+00  7.59869910E+00 -1.51973982E+01
  7.59869910E+00  7.59869910E+00 -1.51973982E+01  7.59869910E+00  7.59869910E+00
 -1.51973982E+01  7.59869910E+00  7.59869910E+00 -1.51973982E+01  7.59869910E+00
  7.59869910E+00 -1.51973982E+01  7.59869910E+00  7.59869910E+00 -1.51973982E+01
  7.59869910E+00  7.59869910E+00 -1.51973982E+01  7.59869910E+00  7.59869910E+00
 -1.51973982E+01  7.59869910E+00  7.59869910E+00 -1.51973982E+01  7.59869910E+00
  7.59869910E+00 -1.51973982E+01  7.59869910E+00  7.59869910E+00 -1.51973982E+01
  7.59869910E+00  7.59869910E+00 -1.51973982E+01  7.59869910E+00  7.59869910E+00
 -1.51973982E+01  7.59869910E+00  7.59869910E+00 -1.51973982E+01  7.59869910E+00
  7.59869910E+00 -1.51973982E+01  7.59869910E+00  7.59869910E+00 -1.51973982E+01
  7.59869910E+00  7.59869910E+00 -1.51973982E+01  7.59869910E+00  7.59869910E+00
 -1.51973982E+01  7.59869910E+00  7.59869910E+00 -1.51973982E+01  7.59869910E+00
  7.59869910E+00 -1.51973982E+01  7.59869910E+00  7.59869910E+00 -1.51973982E+01
  7.59869910E+00  7.59869910E+00 -1.51973982E+01  7.59869910E+00  7.59869910E+00
 -1.51973982E+01  7.59869910E+00  7.59869910E+00 -1.51973982E+01  7.59869910E+00
  7.59869910E+00 -1.51973982E+01  7.59869910E+00  7.59869910E+00 -1.51973982E+01
  7.59869910E+00  7.59869910E+00 -1.51973982E+01  7.59869910E+00  7.59869910E+00
 -1.51973982E+01  7.59869910E+00  7.59869910E+00 -1.51973982E+01  7.59869910E+00
  7.59869910E+00 -1.51973982E+01  7.59869910E+00  7.59869910E+00 -1.51973982E+01
  7.59869910E+00  7.59869910E+00 -1.51973982E+01  7.59869910E+00  7.59869910E+00
 -1.51973982E+01  7.59869910E+00  7.59869910E+00 -1.51973982E+01  7.59869910E+00
  7.59869910E+00 -1.51973982E+01  7.59869910E+00  7.59869910E+00 -1.51973982E+01
  7.59869910E+00  7.59869910E+00 -1.51973982E+01  7.59869910E+00  7.59869910E+00
 -1.51973982E+01  7.59869910E+00  7.59869910E+00 -1.51973982E+01  7.59869910E+00
  7.59869910E+00 -1.51973982E+01  7.59869910E+00  7.59869910E+00 -1.51973982E+01
  7.59869910E+00  7.59869910E+00 -1.51973982E+01  7.59869910E+00  7.59869910E+00
 -1.51973982E+01  7.59869910E+00  7.59869910E+00 -1.51973982E+01  7.59869910E+00
  7.59869910E+00 -1.51973982E+01  7.59869910E+00  7.59869910E+00 -1.51973982E+01
  7.59869910E+00  7.59869910E+00 -1.51973982E+01  7.59869910E+00  7.59869910E+00
 -1.51973982E+01  7.59869910E+00  7.59869910E+00 -1.51973982E+01  7.59869910E+00
  7.59869910E+00 -1.51973982E+01  7.59869910E+00  7.59869910E+00 -1.51973982E+01
  7.59869910E+00  7.59869910E+00 -1.51973982E+01  7.59869910E+00  7.59869910E+00
 -1.51973982E+01  7.59869910E+00  7.59869910E+00 -1.51973982E+01  7.59869910E+00
  7.59869910E+00 -1.51973982E+01  7.59869910E+00  7.59869910E+00 -1.51973982E+01
  7.59869910E+00  7.59869910E+00 -1.51973982E+01  7.59869910E+00  7.59869910E+00
 -1.51973982E+01  7.59869910E+00  7.59869910E+00 -1.51973982E+01  7.59869910E+00
  7.59869910E+00 -1.51973982E+01  7.59869910E+00  7.59869910E+00 -1.51973982E+01
  7.59869910E+00  7.59869910E+00 -1.51973982E+01  7.59869910E+00  7.59869910E+00
 -1.51973982E+01  7.59869910E+00  7.59869910E+00 -1.51973982E+01  7.59869910E+00
  7.59869910E+00 -1.51973982E+01  7.59869910E+00  7.59869910E+00 -1.51973982E+01
  7.59869910E+00  7.59869910E+00 -1.51973982E+01  7.59869910E+00  7.59869910E+00
 -1.51973982E+01  7.59869910E+00  7.59869910E+00 -1.51973982E+01  7.59869910E+00
  7.59869910E+00 -1.51973982E+01  7.59869910E+00  7.59869910E+00 -1.51973982E+01
  7.59869910E+00  7.59869910E+00 -1.51973982E+01  7.59869910E+00  7.59869910E+00
 -1.51973982E+01  7.59869910E+00  7.59869910E+00 -1.51973982E+01  7.59869910E+00
  7.59869910E+00 -1.51973982E+01  7.59869910E+00  7.59869910E+00 -1.51973982E+01
  7.59869910E+00  7.59869910E+00 -1.51973982E+01  7.59869910E+00  7.59869910E+00
 -1.51973982E+01  7.59869910E+00  7.59869910E+00 -1.51973982E+01  7.59869910E+00
  7.59869910E+00 -1.51973982E+01  7.59869910E+00  7.59869910E+00 -1.51973982E+01
  7.59869910E+00  7.59869910E+00 -1.51973982E+01  7.59869910E+00  7.59869910E+00
 -1.51973982E+01  7.59869910E+00  7.59869910E+00 -1.51973982E+01  7.59869910E+00
  7.59869910E+00 -1.51973982E+01  7.59869910E+00  7.59869910E+00 -1.51973982E+01
  7.59869910E+00  7.59869910E+00 -1.51973982E+01  7.59869910E+00  7.59869910E+00
 -1.51973982E+01  7.59869910E+00  7.59869910E+00 -1.51973982E+01  7.59869910E+00
  7.59869910E+00 -1.51973982E+01  7.59869910E+00  7.59869910E+00 -1.51973982E+01
  7.59869910E+00  7.59869910E+00 -1.51973982E+01  7.59869910E+00  7.59869910E+00
 -1.51973982E+01  7.59869910E+00  7.59869910E+00 -1.51973982E+01  7.59869910E+00
  7.59869910E+00 -1.51973982E+01  7.59869910E+00  7.59869910E+00 -1.51973982E+01
  7.59869910E+00  7.59869910E+00 -1.51973982E+01  7.59869910E+00  7.59869910E+00
 -1.51973982E+01  7.59869910E+00  7.59869910E+00 -1.51973982E+01  7.59869910E+00
  7.59869910E+00 -1.51973982E+01  7.59869910E+00  7.59869910E+00 -1.51973982E+01
  7.59869910E+00  7.59869910E+00 -1.51973982E+01  7.59869910E+00  7.59869910E+00
 -1.51973982E+01  7.59869910E+00  7.59869910E+00 -1.51973982E+01  7.59869910E+00
  7.59869910E+00 -1.51973982E+01  7.59869910E+00  7.59869910E+00 -1.51973982E+01
  7.59869910E+00  7.59869910E+00 -1.51973982E+01  7.59869910E+00  7.59869910E+00
 -1.51973982E+01  7.59869910E+00  7.59869910E+00 -1.51973982E+01  7.59869910E+00
  7.59869910E+00 -1.51973982E+01  7.59869910E+00  7.59869910E+00 -1.51973982E+01
  7.59869910E+00  7.59869910E+00 -1.51973982E+01  7.59869910E+00  7.59869910E+00
 -1.51973982E+01  7.59869910E+00  7.59869910E+00 -1.51973982E+01  7.59869910E+00
  7.59869910E+00 -1.51973982E+01  7.59869910E+00  7.59869910E+00 -1.51973982E+01
  7.59869910E+00  7.59869910E+00 -1.51973982E+01  7.59869910E+00  7.59869910E+00
 -1.51973982E+01  7.59869910E+00  7.59869910E+00 -1.51973982E+01  7.59869910E+00
  7.59869910E+00 -1.51973982E+01  7.59869910E+00  7.59869910E+00 -1.51973982E+01
  7.59869910E+00  7.59869910E+00 -1.51973982E+01  7.59869910E+00  7.59869910E+00
 -1.51973982E+01  7.59869910E+00  7.59869910E+00 -1.51973982E+01  7.59869910E+00
  7.59869910E+00 -1.51973982E+01  7.59869910E+00  7.59869910E+00 -1.51973982E+01
  7.59869910E+00  7.59869910E+00 -1.51973982E+01  7.59869910E+00  7.59869910E+00
 -1.51973982E+01  7.59869910E+00  7.59869910E+00 -1.51973982E+01  7.59869910E+00
  7.59869910E+00 -1.51973982E+01  7.59869910E+00  7.59869910E+00 -1.51973982E+01
  7.59869910E+00  7.59869910E+00 -1.51973982E+01  7.59869910E+00  7.59869910E+00
 -1.51973982E+01  7.59869910E+00  7.59869910E+00 -1.51973982E+01  7.59869910E+00
  7.59869910E+00 -1.51973982E+01  7.59869910E+00  7.59869910E+00 -1.51973982E+01
  7.59869910E+00  7.59869910E+00 -1.51973982E+01  7.59869910E+00  7.59869910E+00
 -1.51973982E+01  7.59869910E+00  7.59869910E+00 -1.51973982E+01  7.59869910E+00
  7.59869910E+00 -1.51973982E+01  7.59869910E+00  7.59869910E+00 -1.51973982E+01
  7.59869910E+00  7.59869910E+00 -1.51973982E+01  7.59869910E+00  7.59869910E+00
 -1.51973982E+01  7.59869910E+00  7.59869910E+00 -1.51973982E+01  7.59869910E+00
  7.59869910E+00 -1.51973982E+01  7.59869910E+00  7.59869910E+00 -1.51973982E+01
  7.59869910E+00  7.59869910E+00 -1.51973982E+01  7.59869910E+00  7.59869910E+00
 -1.51973982E+01  7.59869910E+00  7.59869910E+00 -1.51973982E+01  7.59869910E+00
  7.59869910E+00 -1.51973982E+01  7.59869910E+00  7.59869910E+00 -1.51973982E+01
  7.59869910E+00  7.59869910E+00 -1.51973982E+01  7.59869910E+00  7.59869910E+00
 -1.51973982E+01  7.59869910E+00  7.59869910E+00 -1.51973982E+01  7.59869910E+00
  7.59869910E+00 -1.51973982E+01  7.59869910E+00  7.59869910E+00 -1.51973982E+01
  7.59869910E+00  7.59869910E+00 -1.51973982E+01  7.59869910E+00  7.59869910E+00
 -1.51973982E+01  7.59869910E+00  7.59869910E+00 -1.51973982E+01  7.59869910E+00
  7.59869910E+00 -1.51973982E+01  7.59869910E+00  7.59869910E+00 -1.51973982E+01
  7.59869910E+00  7.59869910E+00 -1.51973982E+01  7.59869910E+00  7.59869910E+00
 -1.51973982E+01  7.59869910E+00  7.59869910E+00 -1.51973982E+01  7.59869910E+00
  7.59869910E+00 -1.51973982E+01  7.59869910E+00  7.59869910E+00 -1.51973982E+01
  7.59869910E+00  7.59869910E+00 -1.51973982E+01  7.59869910E+00  7.59869910E+00
 -1.51973982E+01  7.59869910E+00  7.59869910E+00 -1.51973982E+01  7.59869910E+00
  7.59869910E+00 -1.51973982E+01  7.59869910E+00  7.59869910E+00 -1.51973982E+01
  7.59869910E+00  7.59869910E+00 -1.51973982E+01  7.59869910E+00  7.59869910E+00
 -1.51973982E+01  7.59869910E+00  7.59869910E+00 -1.51973982E+01  7.59869910E+00
  7.59869910E+00 -1.51973982E+01  7.59869910E+00  7.59869910E+00 -1.51973982E+01
  7.59869910E+00  7.59869910E+00 -1.51973982E+01  7.59869910E+00  7.59869910E+00
 -1.51973982E+01  7.59869910E+00  7.59869910E+00 -1.51973982E+01  7.59869910E+00
  7.59869910E+00 -1.51973982E+01  7.59869910E+00  7.59869910E+00 -1.51973982E+01
  7.59869910E+00  7.59869910E+00 -1.51973982E+01  7.59869910E+00  7.59869910E+00
 -1.51973982E+01  7.59869910E+00  7.59869910E+00 -1.51973982E+01  7.59869910E+00
  7.59869910E+00 -1.51973982E+01  7.59869910E+00  7.59869910E+00 -1.51973982E+01
  7.59869910E+00  7.59869910E+00 -1.51973982E+01  7.59869910E+00  7.59869910E+00
 -1.51973982E+01  7.59869910E+00  7.59869910E+00 -1.51973982E+01  7.59869910E+00
  7.59869910E+00 -1.51973982E+01  7.59869910E+00  7.59869910E+00 -1.51973982E+01
  7.59869910E+00  7.59869910E+00 -1.51973982E+01  7.59869910E+00  7.59869910E+00
 -1.51973982E+01  7.59869910E+00  7.59869910E+00 -1.51973982E+01  7.59869910E+00
  7.59869910E+00 -1.51973982E+01  7.59869910E+00  7.59869910E+00 -1.51973982E+01
  7.59869910E+00  7.59869910E+00 -1.51973982E+01  7.59869910E+00  7.59869910E+00
 -1.51973982E+01  7.59869910E+00  7.59869910E+00 -1.51973982E+01  7.59869910E+00
  7.59869910E+00 -1.51973982E+01  7.59869910E+00  7.59869910E+00 -1.51973982E+01
  7.59869910E+00  7.59869910E+00 -1.51973982E+01  7.59869910E+00  7.59869910E+00
 -1.51973982E+01  7.59869910E+00  7.59869910E+00 -1.51973982E+01  7.59869910E+00
  7.59869910E+00 -1.51973982E+01  7.59869910E+00  7.59869910E+00 -1.51973982E+01
  7.59869910E+00  7.59869910E+00 -1.51973982E+01  7.59869910E+00  7.59869910E+00
 -1.51973982E+01  7.59869910E+00  7.59869910E+00 -1.51973982E+01  7.59869910E+00
  7.59869910E+00 -1.51973982E+01  7.59869910E+00  7.59869910E+00 -1.51973982E+01
  7.59869910E+00  7.59869910E+00 -1.51973982E+01  7.59869910E+00  7.59869910E+00
 -1.51973982E+01  7.59869910E+00  7.59869910E+00 -1.51973982E+01  7.59869910E+00
  7.59869910E+00 -1.51973982E+01  7.59869910E+00  7.59869910E+00 -1.51973982E+01
  7.59869910E+00  7.59869910E+00 -1.51973982E+01  7.59869910E+00  7.59869910E+00
 -1.51973982E+01  7.59869910E+00  7.59869910E+00 -1.51973982E+01  7.59869910E+00
  7.59869910E+00 -1.51973982E+01  7.59869910E+00  7.59869910E+00 -1.51973982E+01
  7.59869910E+00  7.59869910E+00 -1.51973982E+01  7.59869910E+00  7.59869910E+00
 -1.51973982E+01  7.59869910E+00  7.59869910E+00 -1.51973982E+01  7.59869910E+00
  7.59869910E+00 -1.51973982E+01  7.59869910E+00  7.59869910E+00 -1.51973982E+01
  7.59869910E+00  7.59869910E+00 -1.51973982E+01  7.59869910E+00  7.59869910E+00
 -1.51973982E+01  7.59869910E+00  7.59869910E+00 -1.51973982E+01  7.59869910E+00
  7.59869910E+00 -1.51973982E+01  7.59869910E+00  7.59869910E+00 -1.51973982E+01
  7.59869910E+00  7.59869910E+00 -1.51973982E+01  7.59869910E+00  7.59869910E+00
 -1.51973982E+01  7.59869910E+00  7.59869910E+00 -1.51973982E+01  7.59869910E+00
  7.59869910E+00 -1.51973982E+01  7.59869910E+00  7.59869910E+00 -1.51973982E+01
  7.59869910E+00  7.59869910E+00 -1.51973982E+01  7.59869910E+00  7.59869910E+00
 -1.51973982E+01  7.59869910E+00  7.59869910E+00 -1.51973982E+01  7.59869910E+00
  7.59869910E+00 -1.51973982E+01  7.59869910E+00  7.59869910E+00 -1.51973982E+01
  7.59869910E+00  7.59869910E+00 -1.51973982E+01  7.59869910E+00  7.59869910E+00
 -1.51973982E+01  7.59869910E+00  7.59869910E+00 -1.51973982E+01  7.59869910E+00
  7.59869910E+00 -1.51973982E+01  7.59869910E+00  7.59869910E+00 -1.51973982E+01
  7.59869910E+00  7.59869910E+00 -1.51973982E+01  7.59869910E+00  7.59869910E+00
 -1.51973982E+01  7.59869910E+00  7.59869910E+00 -1.51973982E+01  7.59869910E+00
  7.59869910E+00 -1.51973982E+01  7.59869910E+00  7.59869910E+00 -1.51973982E+01
  7.59869910E+00  7.59869910E+00 -1.51973982E+01  7.59869910E+00  7.59869910E+00
 -1.51973982E+01  7.59869910E+00  7.59869910E+00 -1.51973982E+01  7.59869910E+00
  7.59869910E+00 -1.51973982E+01  7.59869910E+00  7.59869910E+00 -1.51973982E+01
  7.59869910E+00  7.59869910E+00 -1.51973982E+01  7.59869910E+00  7.59869910E+00
 -1.51973982E+01  7.59869910E+00  7.59869910E+00 -1.51973982E+01  7.59869910E+00
  7.59869910E+00 -1.51973982E+01  7.59869910E+00  7.59869910E+00 -1.51973982E+01
  7.59869910E+00  7.59869910E+00 -1.51973982E+01  7.59869910E+00  7.59869910E+00
 -1.51973982E+01  7.59869910E+00  7.59869910E+00 -1.51973982E+01  7.59869910E+00
  7.59869910E+00 -1.51973982E+01  7.59869910E+00  7.59869910E+00 -1.51973982E+01
  7.59869910E+00  7.59869910E+00 -1.51973982E+01  7.59869910E+00  7.59869910E+00
 -1.51973982E+01  7.59869910E+00  7.59869910E+00 -1.51973982E+01  7.59869910E+00
  7.59869910E+00 -1.51973982E+01  7.59869910E+00  7.59869910E+00 -1.51973982E+01
  7.59869910E+00  7.59869910E+00 -1.51973982E+01  7.59869910E+00  7.59869910E+00
 -1.51973982E+01  7.59869910E+00  7.59869910E+00 -1.51973982E+01  7.59869910E+00
  7.59869910E+00 -1.51973982E+01  7.59869910E+00  7.59869910E+00 -1.51973982E+01
  7.59869910E+00  7.59869910E+00 -1.51973982E+01  7.59869910E+00  7.59869910E+00
 -1.51973982E+01  7.59869910E+00  7.59869910E+00 -1.51973982E+01  7.59869910E+00
  7.59869910E+00 -1.51973982E+01  7.59869910E+00  7.59869910E+00 -1.51973982E+01
  7.59869910E+00  7.59869910E+00 -1.51973982E+01  7.59869910E+00  7.59869910E+00
 -1.51973982E+01  7.59869910E+00  7.59869910E+00 -1.51973982E+01  7.59869910E+00
  7.59869910E+00 -1.51973982E+01  7.59869910E+00  7.59869910E+00 -1.51973982E+01
  7.59869910E+00  7.59869910E+00 -1.51973982E+01  7.59869910E+00  7.59869910E+00
 -1.51973982E+01  7.59869910E+00  7.59869910E+00 -1.51973982E+01  7.59869910E+00
  7.59869910E+00 -1.51973982E+01  7.59869910E+00  7.59869910E+00 -1.51973982E+01
  7.59869910E+00  7.59869910E+00 -1.51973982E+01  7.59869910E+00  7.59869910E+00
 -1.51973982E+01  7.59869910E+00  7.59869910E+00 -1.51973982E+01  7.59869910E+00
  7.59869910E+00 -1.51973982E+01  7.59869910E+00  7.59869910E+00 -1.51973982E+01
  7.59869910E+00  7.59869910E+00 -1.51973982E+01  7.59869910E+00  7.59869910E+00
 -1.51973982E+01  7.59869910E+00  7.59869910E+00 -1.51973982E+01  7.59869910E+00
  7.59869910E+00 -1.51973982E+01  7.59869910E+00  7.59869910E+00 -1.51973982E+01
  7.59869910E+00  7.59869910E+00 -1.51973982E+01  7.59869910E+00  7.59869910E+00
 -1.51973982E+01  7.59869910E+00  7.59869910E+00 -1.51973982E+01  7.59869910E+00
  7.59869910E+00 -1.51973982E+01  7.59869910E+00  7.59869910E+00 -1.51973982E+01
  7.59869910E+00  7.59869910E+00 -1.51973982E+01  7.59869910E+00  7.59869910E+00
 -1.51973982E+01  7.59869910E+00  7.59869910E+00 -1.51973982E+01  7.59869910E+00
  7.59869910E+00 -1.51973982E+01  7.59869910E+00  7.59869910E+00 -1.51973982E+01
  7.59869910E+00  7.59869910E+00 -1.51973982E+01  7.59869910E+00  7.59869910E+00
 -1.51973982E+01  7.59869910E+00  7.59869910E+00 -1.51973982E+01  7.59869910E+00
  7.59869910E+00 -1.51973982E+01  7.59869910E+00  7.59869910E+00 -1.51973982E+01
  7.59869910E+00  7.59869910E+00 -1.51973982E+01  7.59869910E+00  7.59869910E+00
 -1.51973982E+01  7.59869910E+00  7.59869910E+00 -1.51973982E+01  7.59869910E+00
  7.59869910E+00 -1.51973982E+01  7.59869910E+00  7.59869910E+00 -1.51973982E+01
  7.59869910E+00  7.59869910E+00 -1.51973982E+01  7.59869910E+00  7.59869910E+00
 -1.51973982E+01  7.59869910E+00  7.59869910E+00 -1.51973982E+01  7.59869910E+00
  7.59869910E+00 -1.51973982E+01  7.59869910E+00  7.59869910E+00 -1.51973982E+01
  7.59869910E+00  7.59869910E+00 -1.51973982E+01  7.59869910E+00  7.59869910E+00
 -1.51973982E+01  7.59869910E+00  7.59869910E+00 -1.51973982E+01  7.59869910E+00
  7.59869910E+00 -1.51973982E+01  7.59869910E+00  7.59869910E+00 -1.51973982E+01
  7.59869910E+00  7.59869910E+00 -1.51973982E+01  7.59869910E+00  7.59869910E+00
 -1.51973982E+01  7.59869910E+00  7.59869910E+00 -1.51973982E+01  7.59869910E+00
  7.59869910E+00 -1.51973982E+01  7.59869910E+00  7.59869910E+00 -1.51973982E+01
  7.59869910E+00  7.59869910E+00 -1.51973982E+01  7.59869910E+00  7.59869910E+00
 -1.51973982E+01  7.59869910E+00  7.59869910E+00 -1.51973982E+01  7.59869910E+00
  7.59869910E+00 -1.51973982E+01  7.59869910E+00  7.59869910E+00 -1.51973982E+01
  7.59869910E+00  7.59869910E+00 -1.51973982E+01  7.59869910E+00  7.59869910E+00
 -1.51973982E+01  7.59869910E+00  7.59869910E+00 -1.51973982E+01  7.59869910E+00
  7.59869910E+00 -1.51973982E+01  7.59869910E+00  7.59869910E+00 -1.51973982E+01
  7.59869910E+00  7.59869910E+00 -1.51973982E+01  7.59869910E+00  7.59869910E+00
 -1.51973982E+01  7.59869910E+00  7.59869910E+00 -1.51973982E+01  7.59869910E+00
  7.59869910E+00 -1.51973982E+01  7.59869910E+00  7.59869910E+00 -1.51973982E+01
  7.59869910E+00  7.59869910E+00 -1.51973982E+01  7.59869910E+00  7.59869910E+00
 -1.51973982E+01  7.59869910E+00  7.59869910E+00 -1.51973982E+01  7.59869910E+00
  7.59869910E+00 -1.51973982E+01  7.59869910E+00  7.59869910E+00 -1.51973982E+01
  7.59869910E+00  7.59869910E+00 -1.51973982E+01  7.59869910E+00  7.59869910E+00
 -1.51973982E+01  7.59869910E+00  7.59869910E+00 -1.51973982E+01  7.59869910E+00
  7.59869910E+00 -1.51973982E+01  7.59869910E+00  7.59869910E+00 -1.51973982E+01
  7.59869910E+00  7.59869910E+00 -1.51973982E+01  7.59869910E+00  7.59869910E+00
 -1.51973982E+01  7.59869910E+00  7.59869910E+00 -1.51973982E+01  7.59869910E+00
  7.59869910E+00 -1.51973982E+01  7.59869910E+00  7.59869910E+00 -1.51973982E+01
  7.59869910E+00  7.59869910E+00 -1.51973982E+01  7.59869910E+00  7.59869910E+00
 -1.51973982E+01  7.59869910E+00  7.59869910E+00 -1.51973982E+01  7.59869910E+00
  7.59869910E+00 -1.51973982E+01  7.59869910E+00  7.59869910E+00 -1.51973982E+01
  7.59869910E+00  7.59869910E+00 -1.51973982E+01  7.59869910E+00  7.59869910E+00
 -1.51973982E+01  7.59869910E+00  7.59869910E+00 -1.51973982E+01  7.59869910E+00
  7.59869910E+00 -1.51973982E+01  7.59869910E+00  7.59869910E+00 -1.51973982E+01
  7.59869910E+00  7.59869910E+00 -1.51973982E+01  7.59869910E+00  7.59869910E+00
 -1.51973982E+01  7.59869910E+00  7.59869910E+00 -1.51973982E+01  7.59869910E+00
  7.59869910E+00 -1.51973982E+01  7.59869910E+00  7.59869910E+00 -1.51973982E+01
  7.59869910E+00  7.59869910E+00 -1.51973982E+01  7.59869910E+00  7.59869910E+00
 -1.51973982E+01  7.59869910E+00  7.59869910E+00 -1.51973982E+01  7.59869910E+00
  7.59869910E+00 -1.51973982E+01  7.59869910E+00  7.59869910E+00 -1.51973982E+01
  7.59869910E+00  7.59869910E+00 -1.51973982E+01  7.59869910E+00  7.59869910E+00
 -1.51973982E+01  7.59869910E+00  7.59869910E+00 -1.51973982E+01  7.59869910E+00
  7.59869910E+00 -1.51973982E+01  7.59869910E+00  7.59869910E+00 -1.51973982E+01
  7.59869910E+00  7.59869910E+00 -1.51973982E+01  7.59869910E+00  7.59869910E+00
 -1.51973982E+01  7.59869910E+00  7.59869910E+00 -1.51973982E+01  7.59869910E+00
  7.59869910E+00 -1.51973982E+01  7.59869910E+00  7.59869910E+00 -1.51973982E+01
  7.59869910E+00  7.59869910E+00 -1.51973982E+01  7.59869910E+00  7.59869910E+00
 -1.51973982E+01  7.59869910E+00  7.59869910E+00 -1.51973982E+01  7.59869910E+00
  7.59869910E+00 -1.51973982E+01  7.59869910E+00  7.59869910E+00 -1.51973982E+01
  7.59869910E+00  7.59869910E+00 -1.51973982E+01  7.59869910E+00  7.59869910E+00
 -1.51973982E+01  7.59869910E+00  7.59869910E+00 -1.51973982E+01  7.59869910E+00
  7.59869910E+00 -1.51973982E+01  7.59869910E+00  7.59869910E+00 -1.51973982E+01
  7.59869910E+00  7.59869910E+00 -1.51973982E+01  7.59869910E+00  7.59869910E+00
 -1.51973982E+01  7.59869910E+00  7.59869910E+00 -1.51973982E+01  7.59869910E+00
  7.59869910E+00 -1.51973982E+01  7.59869910E+00  7.59869910E+00 -1.51973982E+01
  7.59869910E+00  7.59869910E+00 -1.51973982E+01  7.59869910E+00  7.59869910E+00
 -1.51973982E+01  7.59869910E+00  7.59869910E+00 -1.51973982E+01  7.59869910E+00
  7.59869910E+00 -1.51973982E+01  7.59869910E+00  7.59869910E+00 -1.51973982E+01
  7.59869910E+00  7.59869910E+00 -1.51973982E+01  7.59869910E+00  7.59869910E+00
 -1.51973982E+01  7.59869910E+00  7.59869910E+00 -1.51973982E+01  7.59869910E+00
  7.59869910E+00 -1.51973982E+01  7.59869910E+00  7.59869910E+00 -1.51973982E+01
  7.59869910E+00  7.59869910E+00 -1.51973982E+01  7.59869910E+00  7.59869910E+00
 -1.51973982E+01  7.59869910E+00  7.59869910E+00 -1.51973982E+01  7.59869910E+00
  7.59869910E+00 -1.51973982E+01  7.59869910E+00  7.59869910E+00 -1.51973982E+01
  7.59869910E+00  7.59869910E+00 -1.51973982E+01  7.59869910E+00  7.59869910E+00
 -1.51973982E+01  7.59869910E+00  7.59869910E+00 -1.51973982E+01  7.59869910E+00
  7.59869910E+00 -1.51973982E+01  7.59869910E+00  7.59869910E+00 -1.51973982E+01
  7.59869910E+00  7.59869910E+00 -1.51973982E+01  7.59869910E+00  7.59869910E+00
 -1.51973982E+01  7.59869910E+00  7.59869910E+00 -1.51973982E+01  7.59869910E+00
  7.59869910E+00 -1.51973982E+01  7.59869910E+00  7.59869910E+00 -1.51973982E+01
  7.59869910E+00  7.59869910E+00 -1.51973982E+01  7.59869910E+00  7.59869910E+00
 -1.51973982E+01  7.59869910E+00  7.59869910E+00 -1.51973982E+01  7.59869910E+00
  7.59869910E+00 -1.51973982E+01  7.59869910E+00  7.59869910E+00 -1.51973982E+01
  7.59869910E+00  7.59869910E+00 -1.51973982E+01  7.59869910E+00  7.59869910E+00
 -1.51973982E+01  7.59869910E+00  7.59869910E+00 -1.51973982E+01  7.59869910E+00
  7.59869910E+00 -1.51973982E+01  7.59869910E+00  7.59869910E+00 -1.51973982E+01
  7.59869910E+00  7.59869910E+00 -1.51973982E+01  7.59869910E+00  7.59869910E+00
 -1.51973982E+01  7.59869910E+00  7.59869910E+00 -1.51973982E+01  7.59869910E+00
  7.59869910E+00 -1.51973982E+01  7.59869910E+00  7.59869910E+00 -1.51973982E+01
  7.59869910E+00  7.59869910E+00 -1.51973982E+01  7.59869910E+00  7.59869910E+00
 -1.51973982E+01  7.59869910E+00  7.59869910E+00 -1.51973982E+01  7.59869910E+00
  7.59869910E+00 -1.51973982E+01  7.59869910E+00  7.59869910E+00 -1.51973982E+01
  7.59869910E+00  7.59869910E+00 -1.51973982E+01  7.59869910E+00  7.59869910E+00
 -1.51973982E+01  7.59869910E+00  7.59869910E+00 -1.51973982E+01  7.59869910E+00
  7.59869910E+00 -1.51973982E+01  7.59869910E+00  7.59869910E+00 -1.51973982E+01
  7.59869910E+00  7.59869910E+00 -1.51973982E+01  7.59869910E+00  7.59869910E+00
 -1.51973982E+01  7.59869910E+00  7.59869910E+00 -1.51973982E+01  7.59869910E+00
  7.59869910E+00 -1.51973982E+01  7.59869910E+00  7.59869910E+00 -1.51973982E+01
  7.59869910E+00  7.59869910E+00 -1.51973982E+01  7.59869910E+00  7.59869910E+00
 -1.51973982E+01  7.59869910E+00  7.59869910E+00 -1.51973982E+01  7.59869910E+00
  7.59869910E+00 -1.51973982E+01  7.59869910E+00  7.59869910E+00 -1.51973982E+01
  7.59869910E+00  7.59869910E+00 -1.51973982E+01  7.59869910E+00  7.59869910E+00
 -1.51973982E+01  7.59869910E+00  7.59869910E+00 -1.51973982E+01  7.59869910E+00
  7.59869910E+00 -1.51973982E+01  7.59869910E+00  7.59869910E+00 -1.51973982E+01
  7.59869910E+00  7.59869910E+00 -1.51973982E+01  7.59869910E+00  7.59869910E+00
 -1.51973982E+01  7.59869910E+00  7.59869910E+00 -1.51973982E+01  7.59869910E+00
  7.59869910E+00 -1.51973982E+01  7.59869910E+00  7.59869910E+00 -1.51973982E+01
  7.59869910E+00  7.59869910E+00 -1.51973982E+01  7.59869910E+00  7.59869910E+00
 -1.51973982E+01  7.59869910E+00  7.59869910E+00 -1.51973982E+01  7.59869910E+00
  7.59869910E+00 -1.51973982E+01  7.59869910E+00  7.59869910E+00 -1.51973982E+01
  7.59869910E+00  7.59869910E+00 -1.51973982E+01  7.59869910E+00  7.59869910E+00
 -1.51973982E+01  7.59869910E+00  7.59869910E+00 -1.51973982E+01  7.59869910E+00
  7.59869910E+00 -1.51973982E+01  7.59869910E+00  7.59869910E+00 -1.51973982E+01
  7.59869910E+00  7.59869910E+00 -1.51973982E+01  7.59869910E+00  7.59869910E+00
 -1.51973982E+01  7.59869910E+00  7.59869910E+00 -1.51973982E+01  7.59869910E+00
  7.59869910E+00 -1.51973982E+01  7.59869910E+00  7.59869910E+00 -1.51973982E+01
  7.59869910E+00  7.59869910E+00 -1.51973982E+01  7.59869910E+00  7.59869910E+00
 -1.51973982E+01  7.59869910E+00  7.59869910E+00 -1.51973982E+01  7.59869910E+00
  7.59869910E+00 -1.51973982E+01  7.59869910E+00  7.59869910E+00 -1.51973982E+01
  7.59869910E+00  7.59869910E+00 -1.51973982E+01  7.59869910E+00  7.59869910E+00
 -1.51973982E+01  7.59869910E+00  7.59869910E+00 -1.51973982E+01  7.59869910E+00
  7.59869910E+00 -1.51973982E+01  7.59869910E+00  7.59869910E+00 -1.51973982E+01
  7.59869910E+00  7.59869910E+00 -1.51973982E+01  7.59869910E+00  7.59869910E+00
 -1.51973982E+01  7.59869910E+00  7.59869910E+00 -1.51973982E+01  7.59869910E+00
  7.59869910E+00 -1.51973982E+01  7.59869910E+00  7.59869910E+00 -1.51973982E+01
  7.59869910E+00  7.59869910E+00 -1.51973982E+01  7.59869910E+00  7.59869910E+00
 -1.51973982E+01  7.59869910E+00  7.59869910E+00 -1.51973982E+01  7.59869910E+00
  7.59869910E+00 -1.51973982E+01  7.59869910E+00  7.59869910E+00 -1.51973982E+01
  7.59869910E+00  7.59869910E+00 -1.51973982E+01  7.59869910E+00  7.59869910E+00
 -1.51973982E+01  7.59869910E+00  7.59869910E+00 -1.51973982E+01  7.59869910E+00
  7.59869910E+00 -1.51973982E+01  7.59869910E+00  7.59869910E+00 -1.51973982E+01
  7.59869910E+00  7.59869910E+00 -1.51973982E+01  7.59869910E+00  7.59869910E+00
 -1.51973982E+01  7.59869910E+00  7.59869910E+00 -1.51973982E+01  7.59869910E+00
  7.59869910E+00 -1.51973982E+01  7.59869910E+00  7.59869910E+00 -1.51973982E+01
  7.59869910E+00  7.59869910E+00 -1.51973982E+01  7.59869910E+00  7.59869910E+00
 -1.51973982E+01  7.59869910E+00  7.59869910E+00 -1.51973982E+01  7.59869910E+00
  7.59869910E+00 -1.51973982E+01  7.59869910E+00  7.59869910E+00 -1.51973982E+01
  7.59869910E+00  7.59869910E+00 -1.51973982E+01  7.59869910E+00  7.59869910E+00
 -1.51973982E+01  7.59869910E+00  7.59869910E+00 -1.51973982E+01  7.59869910E+00
  7.59869910E+00 -1.51973982E+01  7.59869910E+00  7.59869910E+00 -1.51973982E+01
  7.59869910E+00  7.59869910E+00 -1.51973982E+01  7.59869910E+00  7.59869910E+00
 -1.51973982E+01  7.59869910E+00  7.59869910E+00 -1.51973982E+01  7.59869910E+00
  7.59869910E+00 -1.51973982E+01  7.59869910E+00  7.59869910E+00 -1.51973982E+01
  7.59869910E+00  7.59869910E+00 -1.51973982E+01  7.59869910E+00  7.59869910E+00
 -1.51973982E+01  7.59869910E+00  7.59869910E+00 -1.51973982E+01  7.59869910E+00
  7.59869910E+00 -1.51973982E+01  7.59869910E+00  7.59869910E+00 -1.51973982E+01
  7.59869910E+00  7.59869910E+00 -1.51973982E+01  7.59869910E+00  7.59869910E+00
 -1.51973982E+01  7.59869910E+00  7.59869910E+00 -1.51973982E+01  7.59869910E+00
  7.59869910E+00 -1.51973982E+01  7.59869910E+00  7.59869910E+00 -1.51973982E+01
  7.59869910E+00  7.59869910E+00 -1.51973982E+01  7.59869910E+00  7.59869910E+00
 -1.51973982E+01  7.59869910E+00  7.59869910E+00 -1.51973982E+01  7.59869910E+00
  7.59869910E+00 -1.51973982E+01  7.59869910E+00  7.59869910E+00 -1.51973982E+01
  7.59869910E+00  7.59869910E+00 -1.51973982E+01  7.59869910E+00  7.59869910E+00
 -1.51973982E+01  7.59869910E+00  7.59869910E+00 -1.51973982E+01  7.59869910E+00
  7.59869910E+00 -1.51973982E+01  7.59869910E+00  7.59869910E+00 -1.51973982E+01
  7.59869910E+00  7.59869910E+00 -1.51973982E+01  7.59869910E+00  7.59869910E+00
 -1.51973982E+01  7.59869910E+00  7.59869910E+00 -1.51973982E+01  7.59869910E+00
  7.59869910E+00 -1.51973982E+01  7.59869910E+00  7.59869910E+00 -1.51973982E+01
  7.59869910E+00  7.59869910E+00 -1.51973982E+01  7.59869910E+00  7.59869910E+00
 -1.51973982E+01  7.59869910E+00  7.59869910E+00 -1.51973982E+01  7.59869910E+00
  7.59869910E+00 -1.51973982E+01  7.59869910E+00  7.59869910E+00 -1.51973982E+01
  7.59869910E+00  7.59869910E+00 -1.51973982E+01  7.59869910E+00  7.59869910E+00
 -1.51973982E+01  7.59869910E+00  7.59869910E+00 -1.51973982E+01  7.59869910E+00
  7.59869910E+00 -1.51973982E+01  7.59869910E+00  7.59869910E+00 -1.51973982E+01
  7.59869910E+00  7.59869910E+00 -1.51973982E+01  7.59869910E+00  7.59869910E+00
 -1.51973982E+01  7.59869910E+00  7.59869910E+00 -1.51973982E+01  7.59869910E+00
  7.59869910E+00 -1.51973982E+01  7.59869910E+00  7.59869910E+00 -1.51973982E+01
  7.59869910E+00  7.59869910E+00 -1.51973982E+01  7.59869910E+00  7.59869910E+00
 -1.51973982E+01  7.59869910E+00  7.59869910E+00 -1.51973982E+01  7.59869910E+00
  7.59869910E+00 -1.51973982E+01  7.59869910E+00  7.59869910E+00 -1.51973982E+01
  7.59869910E+00  7.59869910E+00 -1.51973982E+01  7.59869910E+00  7.59869910E+00
 -1.51973982E+01  7.59869910E+00  7.59869910E+00 -1.51973982E+01  7.59869910E+00
  7.59869910E+00 -1.51973982E+01  7.59869910E+00  7.59869910E+00 -1.51973982E+01
  7.59869910E+00  7.59869910E+00 -1.51973982E+01  7.59869910E+00  7.59869910E+00
 -1.51973982E+01  7.59869910E+00  7.59869910E+00 -1.51973982E+01  7.59869910E+00
  7.59869910E+00 -1.51973982E+01  7.59869910E+00  7.59869910E+00 -1.51973982E+01
  7.59869910E+00  7.59869910E+00 -1.51973982E+01  7.59869910E+00  7.59869910E+00
 -1.51973982E+01  7.59869910E+00  7.59869910E+00 -1.51973982E+01  7.59869910E+00
  7.59869910E+00 -1.51973982E+01  7.59869910E+00  7.59869910E+00 -1.51973982E+01
  7.59869910E+00  7.59869910E+00 -1.51973982E+01  7.59869910E+00  7.59869910E+00
 -1.51973982E+01  7.59869910E+00  7.59869910E+00 -1.51973982E+01  7.59869910E+00
  7.59869910E+00 -1.51973982E+01  7.59869910E+00  7.59869910E+00 -1.51973982E+01
  7.59869910E+00  7.59869910E+00 -1.51973982E+01  7.59869910E+00  7.59869910E+00
 -1.51973982E+01  7.59869910E+00  7.59869910E+00 -1.51973982E+01  7.59869910E+00
  7.59869910E+00 -1.51973982E+01  7.59869910E+00  7.59869910E+00 -1.51973982E+01
  7.59869910E+00  7.59869910E+00 -1.51973982E+01  7.59869910E+00  7.59869910E+00
 -1.51973982E+01  7.59869910E+00  7.59869910E+00 -1.51973982E+01  7.59869910E+00
  7.59869910E+00 -1.51973982E+01  7.59869910E+00  7.59869910E+00 -1.51973982E+01
  7.59869910E+00  7.59869910E+00 -1.51973982E+01  7.59869910E+00  7.59869910E+00
 -1.51973982E+01  7.59869910E+00  7.59869910E+00 -1.51973982E+01  7.59869910E+00
  7.59869910E+00 -1.51973982E+01  7.59869910E+00  7.59869910E+00 -1.51973982E+01
  7.59869910E+00  7.59869910E+00 -1.51973982E+01  7.59869910E+00  7.59869910E+00
 -1.51973982E+01  7.59869910E+00  7.59869910E+00 -1.51973982E+01  7.59869910E+00
  7.59869910E+00 -1.51973982E+01  7.59869910E+00  7.59869910E+00 -1.51973982E+01
  7.59869910E+00  7.59869910E+00 -1.51973982E+01  7.59869910E+00  7.59869910E+00
 -1.51973982E+01  7.59869910E+00  7.59869910E+00 -1.51973982E+01  7.59869910E+00
  7.59869910E+00 -1.51973982E+01  7.59869910E+00  7.59869910E+00 -1.51973982E+01
  7.59869910E+00  7.59869910E+00 -1.51973982E+01  7.59869910E+00  7.59869910E+00
 -1.51973982E+01  7.59869910E+00  7.59869910E+00 -1.51973982E+01  7.59869910E+00
  7.59869910E+00 -1.51973982E+01  7.59869910E+00  7.59869910E+00 -1.51973982E+01
  7.59869910E+00  7.59869910E+00 -1.51973982E+01  7.59869910E+00  7.59869910E+00
 -1.51973982E+01  7.59869910E+00  7.59869910E+00 -1.51973982E+01  7.59869910E+00
  7.59869910E+00 -1.51973982E+01  7.59869910E+00  7.59869910E+00 -1.51973982E+01
  7.59869910E+00  7.59869910E+00 -1.51973982E+01  7.59869910E+00  7.59869910E+00
 -1.51973982E+01  7.59869910E+00  7.59869910E+00 -1.51973982E+01  7.59869910E+00
  7.59869910E+00 -1.51973982E+01  7.59869910E+00  7.59869910E+00 -1.51973982E+01
  7.59869910E+00  7.59869910E+00 -1.51973982E+01  7.59869910E+00  7.59869910E+00
 -1.51973982E+01  7.59869910E+00  7.59869910E+00 -1.51973982E+01  7.59869910E+00
  7.59869910E+00 -1.51973982E+01  7.59869910E+00  7.59869910E+00 -1.51973982E+01
  7.59869910E+00  7.59869910E+00 -1.51973982E+01  7.59869910E+00  7.59869910E+00
 -1.51973982E+01  7.59869910E+00  7.59869910E+00 -1.51973982E+01  7.59869910E+00
  7.59869910E+00 -1.51973982E+01  7.59869910E+00  7.59869910E+00 -1.51973982E+01
  7.59869910E+00  7.59869910E+00 -1.51973982E+01  7.59869910E+00  7.59869910E+00
 -1.51973982E+01  7.59869910E+00  7.59869910E+00 -1.51973982E+01  7.59869910E+00
  7.59869910E+00 -1.51973982E+01  7.59869910E+00  7.59869910E+00 -1.51973982E+01
  7.59869910E+00  7.59869910E+00 -1.51973982E+01  7.59869910E+00  7.59869910E+00
 -1.51973982E+01  7.59869910E+00  7.59869910E+00 -1.51973982E+01  7.59869910E+00
  7.59869910E+00 -1.51973982E+01  7.59869910E+00  7.59869910E+00 -1.51973982E+01
  7.59869910E+00  7.59869910E+00 -1.51973982E+01  7.59869910E+00  7.59869910E+00
 -1.51973982E+01  7.59869910E+00  7.59869910E+00 -1.51973982E+01  7.59869910E+00
  7.59869910E+00 -1.51973982E+01  7.59869910E+00  7.59869910E+00 -1.51973982E+01
  7.59869910E+00  7.59869910E+00 -1.51973982E+01  7.59869910E+00  7.59869910E+00
 -1.51973982E+01  7.59869910E+00  7.59869910E+00 -1.51973982E+01  7.59869910E+00
  7.59869910E+00 -1.51973982E+01  7.59869910E+00  7.59869910E+00 -1.51973982E+01
  7.59869910E+00  7.59869910E+00 -1.51973982E+01  7.59869910E+00  7.59869910E+00
 -1.51973982E+01  7.59869910E+00  7.59869910E+00 -1.51973982E+01  7.59869910E+00
  7.59869910E+00 -1.51973982E+01  7.59869910E+00  7.59869910E+00 -1.51973982E+01
  7.59869910E+00  7.59869910E+00 -1.51973982E+01  7.59869910E+00  7.59869910E+00
 -1.51973982E+01  7.59869910E+00  7.59869910E+00 -1.51973982E+01  7.59869910E+00
  7.59869910E+00 -1.51973982E+01  7.59869910E+00  7.59869910E+00 -1.51973982E+01
  7.59869910E+00  7.59869910E+00 -1.51973982E+01  7.59869910E+00  7.59869910E+00
 -1.51973982E+01  7.59869910E+00  7.59869910E+00 -1.51973982E+01  7.59869910E+00
  7.59869910E+00 -1.51973982E+01  7.59869910E+00  7.59869910E+00 -1.51973982E+01
  7.59869910E+00  7.59869910E+00 -1.51973982E+01  7.59869910E+00  7.59869910E+00
 -1.51973982E+01  7.59869910E+00  7.59869910E+00 -1.51973982E+01  7.59869910E+00
  7.59869910E+00 -1.51973982E+01  7.59869910E+00  7.59869910E+00 -1.51973982E+01
  7.59869910E+00  7.59869910E+00 -1.51973982E+01  7.59869910E+00  7.59869910E+00
 -1.51973982E+01  7.59869910E+00  7.59869910E+00 -1.51973982E+01  7.59869910E+00
  7.59869910E+00 -1.51973982E+01  7.59869910E+00  7.59869910E+00 -1.51973982E+01
  7.59869910E+00  7.59869910E+00 -1.51973982E+01  7.59869910E+00  7.59869910E+00
 -1.51973982E+01  7.59869910E+00  7.59869910E+00 -1.51973982E+01  7.59869910E+00
  7.59869910E+00 -1.51973982E+01  7.59869910E+00  7.59869910E+00 -1.51973982E+01
  7.59869910E+00  7.59869910E+00 -1.51973982E+01  7.59869910E+00  7.59869910E+00
 -1.51973982E+01  7.59869910E+00  7.59869910E+00 -1.51973982E+01  7.59869910E+00
  7.59869910E+00 -1.51973982E+01  7.59869910E+00  7.59869910E+00 -1.51973982E+01
  7.59869910E+00  7.59869910E+00 -1.51973982E+01  7.59869910E+00  7.59869910E+00
 -1.51973982E+01  7.59869910E+00  7.59869910E+00 -1.51973982E+01  7.59869910E+00
  7.59869910E+00 -1.51973982E+01  7.59869910E+00  7.59869910E+00 -1.51973982E+01
  7.59869910E+00  7.59869910E+00 -1.51973982E+01  7.59869910E+00  7.59869910E+00
 -1.51973982E+01  7.59869910E+00  7.59869910E+00 -1.51973982E+01  7.59869910E+00
  7.59869910E+00 -1.51973982E+01  7.59869910E+00  7.59869910E+00 -1.51973982E+01
  7.59869910E+00  7.59869910E+00 -1.51973982E+01  7.59869910E+00  7.59869910E+00
 -1.51973982E+01  7.59869910E+00  7.59869910E+00 -1.51973982E+01  7.59869910E+00
  7.59869910E+00 -1.51973982E+01  7.59869910E+00  7.59869910E+00 -1.51973982E+01
  7.59869910E+00  7.59869910E+00 -1.51973982E+01  7.59869910E+00  7.59869910E+00
 -1.51973982E+01  7.59869910E+00  7.59869910E+00 -1.51973982E+01  7.59869910E+00
  7.59869910E+00 -1.51973982E+01  7.59869910E+00  7.59869910E+00 -1.51973982E+01
  7.59869910E+00  7.59869910E+00 -1.51973982E+01  7.59869910E+00  7.59869910E+00
 -1.51973982E+01  7.59869910E+00  7.59869910E+00 -1.51973982E+01  7.59869910E+00
  7.59869910E+00 -1.51973982E+01  7.59869910E+00  7.59869910E+00 -1.51973982E+01
  7.59869910E+00  7.59869910E+00 -1.51973982E+01  7.59869910E+00  7.59869910E+00
 -1.51973982E+01  7.59869910E+00  7.59869910E+00 -1.51973982E+01  7.59869910E+00
  7.59869910E+00 -1.51973982E+01  7.59869910E+00  7.59869910E+00 -1.51973982E+01
  7.59869910E+00  7.59869910E+00 -1.51973982E+01  7.59869910E+00  7.59869910E+00
 -1.51973982E+01  7.59869910E+00  7.59869910E+00 -1.51973982E+01  7.59869910E+00
  7.59869910E+00 -1.51973982E+01  7.59869910E+00  7.59869910E+00 -1.51973982E+01
  7.59869910E+00  7.59869910E+00 -1.51973982E+01  7.59869910E+00  7.59869910E+00
 -1.51973982E+01  7.59869910E+00  7.59869910E+00 -1.51973982E+01  7.59869910E+00
  7.59869910E+00 -1.51973982E+01  7.59869910E+00  7.59869910E+00 -1.51973982E+01
  7.59869910E+00  7.59869910E+00 -1.51973982E+01  7.59869910E+00  7.59869910E+00
 -1.51973982E+01  7.59869910E+00  7.59869910E+00 -1.51973982E+01  7.59869910E+00
  7.59869910E+00 -1.51973982E+01  7.59869910E+00  7.59869910E+00 -1.51973982E+01
  7.59869910E+00  7.59869910E+00 -1.51973982E+01  7.59869910E+00  7.59869910E+00
 -1.51973982E+01  7.59869910E+00  7.59869910E+00 -1.51973982E+01  7.59869910E+00
  7.59869910E+00 -1.51973982E+01  7.59869910E+00  7.59869910E+00 -1.51973982E+01
  7.59869910E+00  7.59869910E+00 -1.51973982E+01  7.59869910E+00  7.59869910E+00
 -1.51973982E+01  7.59869910E+00  7.59869910E+00 -1.51973982E+01  7.59869910E+00
  7.59869910E+00 -1.51973982E+01  7.59869910E+00  7.59869910E+00 -1.51973982E+01
  7.59869910E+00  7.59869910E+00 -1.51973982E+01  7.59869910E+00  7.59869910E+00
 -1.51973982E+01  7.59869910E+00  7.59869910E+00 -1.51973982E+01  7.59869910E+00
  7.59869910E+00 -1.51973982E+01  7.59869910E+00  7.59869910E+00 -1.51973982E+01
  7.59869910E+00  7.59869910E+00 -1.51973982E+01  7.59869910E+00  7.59869910E+00
 -1.51973982E+01  7.59869910E+00  7.59869910E+00 -1.51973982E+01  7.59869910E+00
  7.59869910E+00 -1.51973982E+01  7.59869910E+00  7.59869910E+00 -1.51973982E+01
  7.59869910E+00  7.59869910E+00 -1.51973982E+01  7.59869910E+00  7.59869910E+00
 -1.51973982E+01  7.59869910E+00  7.59869910E+00 -1.51973982E+01  7.59869910E+00
  7.59869910E+00 -1.51973982E+01  7.59869910E+00  7.59869910E+00 -1.51973982E+01
  7.59869910E+00  7.59869910E+00 -1.51973982E+01  7.59869910E+00  7.59869910E+00
 -1.51973982E+01  7.59869910E+00  7.59869910E+00 -1.51973982E+01  7.59869910E+00
  7.59869910E+00 -1.51973982E+01  7.59869910E+00  7.59869910E+00 -1.51973982E+01
  7.59869910E+00  7.59869910E+00 -1.51973982E+01  7.59869910E+00  7.59869910E+00
 -1.51973982E+01  7.59869910E+00  7.59869910E+00 -1.51973982E+01  7.59869910E+00
  7.59869910E+00 -1.51973982E+01  7.59869910E+00  7.59869910E+00 -1.51973982E+01
  7.59869910E+00  7.59869910E+00 -1.51973982E+01  7.59869910E+00  7.59869910E+00
 -1.51973982E+01  7.59869910E+00  7.59869910E+00 -1.51973982E+01  7.59869910E+00
  7.59869910E+00 -1.51973982E+01  7.59869910E+00  7.59869910E+00 -1.51973982E+01
  7.59869910E+00  7.59869910E+00 -1.51973982E+01  7.59869910E+00  7.59869910E+00
 -1.51973982E+01  7.59869910E+00  7.59869910E+00 -1.51973982E+01  7.59869910E+00
  7.59869910E+00 -1.51973982E+01  7.59869910E+00  7.59869910E+00 -1.51973982E+01
  7.59869910E+00  7.59869910E+00 -1.51973982E+01  7.59869910E+00  7.59869910E+00
 -1.51973982E+01  7.59869910E+00  7.59869910E+00 -1.51973982E+01  7.59869910E+00
  7.59869910E+00 -1.51973982E+01  7.59869910E+00  7.59869910E+00 -1.51973982E+01
  7.59869910E+00  7.59869910E+00 -1.51973982E+01  7.59869910E+00  7.59869910E+00
 -1.51973982E+01  7.59869910E+00  7.59869910E+00 -1.51973982E+01  7.59869910E+00
  7.59869910E+00 -1.51973982E+01  7.59869910E+00  7.59869910E+00 -1.51973982E+01
  7.59869910E+00  7.59869910E+00 -1.51973982E+01  7.59869910E+00  7.59869910E+00
 -1.51973982E+01  7.59869910E+00  7.59869910E+00 -1.51973982E+01  7.59869910E+00
  7.59869910E+00 -1.51973982E+01  7.59869910E+00  7.59869910E+00 -1.51973982E+01
  7.59869910E+00  7.59869910E+00 -1.51973982E+01  7.59869910E+00  7.59869910E+00
 -1.51973982E+01  7.59869910E+00  7.59869910E+00 -1.51973982E+01  7.59869910E+00
  7.59869910E+00 -1.51973982E+01  7.59869910E+00  7.59869910E+00 -1.51973982E+01
  7.59869910E+00  7.59869910E+00 -1.51973982E+01  7.59869910E+00  7.59869910E+00
 -1.51973982E+01  7.59869910E+00  7.59869910E+00 -1.51973982E+01  7.59869910E+00
  7.59869910E+00 -1.51973982E+01  7.59869910E+00  7.59869910E+00 -1.51973982E+01
  7.59869910E+00  7.59869910E+00 -1.51973982E+01  7.59869910E+00  7.59869910E+00
 -1.51973982E+01  7.59869910E+00  7.59869910E+00 -1.51973982E+01  7.59869910E+00
  7.59869910E+00 -1.51973982E+01  7.59869910E+00  7.59869910E+00 -1.51973982E+01
  7.59869910E+00  7.59869910E+00 -1.51973982E+01  7.59869910E+00  7.59869910E+00
 -1.51973982E+01  7.59869910E+00  7.59869910E+00 -1.51973982E+01  7.59869910E+00
  7.59869910E+00 -1.51973982E+01  7.59869910E+00  7.59869910E+00 -1.51973982E+01
  7.59869910E+00  7.59869910E+00 -1.51973982E+01  7.59869910E+00  7.59869910E+00
 -1.51973982E+01  7.59869910E+00  7.59869910E+00 -1.51973982E+01  7.59869910E+00
  7.59869910E+00 -1.51973982E+01  7.59869910E+00  7.59869910E+00 -1.51973982E+01
  7.59869910E+00  7.59869910E+00 -1.51973982E+01  7.59869910E+00  7.59869910E+00
 -1.51973982E+01  7.59869910E+00  7.59869910E+00 -1.51973982E+01  7.59869910E+00
  7.59869910E+00 -1.51973982E+01  7.59869910E+00  7.59869910E+00 -1.51973982E+01
  7.59869910E+00  7.59869910E+00 -1.51973982E+01  7.59869910E+00  7.59869910E+00
 -1.51973982E+01  7.59869910E+00  7.59869910E+00 -1.51973982E+01  7.59869910E+00
  7.59869910E+00 -1.51973982E+01  7.59869910E+00  7.59869910E+00 -1.51973982E+01
  7.59869910E+00  7.59869910E+00 -1.51973982E+01  7.59869910E+00  7.59869910E+00
 -1.51973982E+01  7.59869910E+00  7.59869910E+00 -1.51973982E+01  7.59869910E+00
  7.59869910E+00 -1.51973982E+01  7.59869910E+00  7.59869910E+00 -1.51973982E+01
  7.59869910E+00  7.59869910E+00 -1.51973982E+01  7.59869910E+00  7.59869910E+00
 -1.51973982E+01  7.59869910E+00  7.59869910E+00 -1.51973982E+01  7.59869910E+00
  7.59869910E+00 -1.51973982E+01  7.59869910E+00  7.59869910E+00 -1.51973982E+01
  7.59869910E+00  7.59869910E+00 -1.51973982E+01  7.59869910E+00  7.59869910E+00
 -1.51973982E+01  7.59869910E+00  7.59869910E+00 -1.51973982E+01  7.59869910E+00
  7.59869910E+00 -1.51973982E+01  7.59869910E+00  7.59869910E+00 -1.51973982E+01
  7.59869910E+00  7.59869910E+00 -1.51973982E+01  7.59869910E+00  7.59869910E+00
 -1.51973982E+01  7.59869910E+00  7.59869910E+00 -1.51973982E+01  7.59869910E+00
  7.59869910E+00 -1.51973982E+01  7.59869910E+00  7.59869910E+00 -1.51973982E+01
  7.59869910E+00  7.59869910E+00 -1.51973982E+01  7.59869910E+00  7.59869910E+00
 -1.51973982E+01  7.59869910E+00  7.59869910E+00 -1.51973982E+01  7.59869910E+00
  7.59869910E+00 -1.51973982E+01  7.59869910E+00  7.59869910E+00 -1.51973982E+01
  7.59869910E+00  7.59869910E+00 -1.51973982E+01  7.59869910E+00  7.59869910E+00
 -1.51973982E+01  7.59869910E+00  7.59869910E+00 -1.51973982E+01  7.59869910E+00
  7.59869910E+00 -1.51973982E+01  7.59869910E+00  7.59869910E+00 -1.51973982E+01
  7.59869910E+00  7.59869910E+00 -1.51973982E+01  7.59869910E+00  7.59869910E+00
 -1.51973982E+01  7.59869910E+00  7.59869910E+00 -1.51973982E+01  7.59869910E+00
  7.59869910E+00 -1.51973982E+01  7.59869910E+00  7.59869910E+00 -1.51973982E+01
  7.59869910E+00  7.59869910E+00 -1.51973982E+01  7.59869910E+00  7.59869910E+00
 -1.51973982E+01  7.59869910E+00  7.59869910E+00 -1.51973982E+01  7.59869910E+00
  7.59869910E+00 -1.51973982E+01  7.59869910E+00  7.59869910E+00 -1.51973982E+01
  7.59869910E+00  7.59869910E+00 -1.51973982E+01  7.59869910E+00  7.59869910E+00
 -1.51973982E+01  7.59869910E+00  7.59869910E+00 -1.51973982E+01  7.59869910E+00
  7.59869910E+00 -1.51973982E+01  7.59869910E+00  7.59869910E+00 -1.51973982E+01
  7.59869910E+00  7.59869910E+00 -1.51973982E+01  7.59869910E+00  7.59869910E+00
 -1.51973982E+01  7.59869910E+00  7.59869910E+00 -1.51973982E+01  7.59869910E+00
  7.59869910E+00 -1.51973982E+01  7.59869910E+00  7.59869910E+00 -1.51973982E+01
  7.59869910E+00  7.59869910E+00 -1.51973982E+01  7.59869910E+00  7.59869910E+00
 -1.51973982E+01  7.59869910E+00  7.59869910E+00 -1.51973982E+01  7.59869910E+00
  7.59869910E+00 -1.51973982E+01  7.59869910E+00  7.59869910E+00 -1.51973982E+01
  7.59869910E+00  7.59869910E+00 -1.51973982E+01  7.59869910E+00  7.59869910E+00
 -1.51973982E+01  7.59869910E+00  7.59869910E+00 -1.51973982E+01  7.59869910E+00
  7.59869910E+00 -1.51973982E+01  7.59869910E+00  7.59869910E+00 -1.51973982E+01
  7.59869910E+00  7.59869910E+00 -1.51973982E+01  7.59869910E+00  7.59869910E+00
 -1.51973982E+01  7.59869910E+00  7.59869910E+00 -1.51973982E+01  7.59869910E+00
  7.59869910E+00 -1.51973982E+01  7.59869910E+00  7.59869910E+00 -1.51973982E+01
  7.59869910E+00  7.59869910E+00 -1.51973982E+01  7.59869910E+00  7.59869910E+00
 -1.51973982E+01  7.59869910E+00  7.59869910E+00 -1.51973982E+01  7.59869910E+00
  7.59869910E+00 -1.51973982E+01  7.59869910E+00  7.59869910E+00 -1.51973982E+01
  7.59869910E+00  7.59869910E+00 -1.51973982E+01  7.59869910E+00  7.59869910E+00
 -1.51973982E+01  7.59869910E+00  7.59869910E+00 -1.51973982E+01  7.59869910E+00
  7.59869910E+00 -1.51973982E+01  7.59869910E+00  7.59869910E+00 -1.51973982E+01
  7.59869910E+00  7.59869910E+00 -1.51973982E+01  7.59869910E+00  7.59869910E+00
 -1.51973982E+01  7.59869910E+00  7.59869910E+00 -1.51973982E+01  7.59869910E+00
  7.59869910E+00 -1.51973982E+01  7.59869910E+00  7.59869910E+00 -1.51973982E+01
  7.59869910E+00  7.59869910E+00 -1.51973982E+01  7.59869910E+00  7.59869910E+00
 -1.51973982E+01  7.59869910E+00  7.59869910E+00 -1.51973982E+01  7.59869910E+00
  7.59869910E+00 -1.51973982E+01  7.59869910E+00  7.59869910E+00 -1.51973982E+01
  7.59869910E+00  7.59869910E+00 -1.51973982E+01  7.59869910E+00  7.59869910E+00
 -1.51973982E+01  7.59869910E+00  7.59869910E+00 -1.51973982E+01  7.59869910E+00
  7.59869910E+00 -1.51973982E+01  7.59869910E+00  7.59869910E+00 -1.51973982E+01
  7.59869910E+00  7.59869910E+00 -1.51973982E+01  7.59869910E+00  7.59869910E+00
 -1.51973982E+01  7.59869910E+00  7.59869910E+00 -1.51973982E+01  7.59869910E+00
  7.59869910E+00 -1.51973982E+01  7.59869910E+00  7.59869910E+00 -1.51973982E+01
  7.59869910E+00  7.59869910E+00 -1.51973982E+01  7.59869910E+00  7.59869910E+00
 -1.51973982E+01  7.59869910E+00  7.59869910E+00 -1.51973982E+01  7.59869910E+00
  7.59869910E+00 -1.51973982E+01  7.59869910E+00  7.59869910E+00 -1.51973982E+01
  7.59869910E+00  7.59869910E+00 -1.51973982E+01  7.59869910E+00  7.59869910E+00
 -1.51973982E+01  7.59869910E+00  7.59869910E+00 -1.51973982E+01  7.59869910E+00
  7.59869910E+00 -1.51973982E+01  7.59869910E+00  7.59869910E+00 -1.51973982E+01
  7.59869910E+00  7.59869910E+00 -1.51973982E+01  7.59869910E+00  7.59869910E+00
 -1.51973982E+01  7.59869910E+00  7.59869910E+00 -1.51973982E+01  7.59869910E+00
  7.59869910E+00 -1.51973982E+01  7.59869910E+00  7.59869910E+00 -1.51973982E+01
  7.59869910E+00  7.59869910E+00 -1.51973982E+01  7.59869910E+00  7.59869910E+00
 -1.51973982E+01  7.59869910E+00  7.59869910E+00 -1.51973982E+01  7.59869910E+00
  7.59869910E+00 -1.51973982E+01  7.59869910E+00  7.59869910E+00 -1.51973982E+01
  7.59869910E+00  7.59869910E+00 -1.51973982E+01  7.59869910E+00  7.59869910E+00
 -1.51973982E+01  7.59869910E+00  7.59869910E+00 -1.51973982E+01  7.59869910E+00
  7.59869910E+00 -1.51973982E+01  7.59869910E+00  7.59869910E+00 -1.51973982E+01
  7.59869910E+00  7.59869910E+00 -1.51973982E+01  7.59869910E+00  7.59869910E+00
 -1.51973982E+01  7.59869910E+00  7.59869910E+00 -1.51973982E+01  7.59869910E+00
  7.59869910E+00 -1.51973982E+01  7.59869910E+00  7.59869910E+00 -1.51973982E+01
  7.59869910E+00  7.59869910E+00 -1.51973982E+01  7.59869910E+00  7.59869910E+00
 -1.51973982E+01  7.59869910E+00  7.59869910E+00 -1.51973982E+01  7.59869910E+00
  7.59869910E+00 -1.51973982E+01  7.59869910E+00  7.59869910E+00 -1.51973982E+01
  7.59869910E+00  7.59869910E+00 -1.51973982E+01  7.59869910E+00  7.59869910E+00
 -1.51973982E+01  7.59869910E+00  7.59869910E+00 -1.51973982E+01  7.59869910E+00
  7.59869910E+00 -1.51973982E+01  7.59869910E+00  7.59869910E+00 -1.51973982E+01
  7.59869910E+00  7.59869910E+00 -1.51973982E+01  7.59869910E+00  7.59869910E+00
 -1.51973982E+01  7.59869910E+00  7.59869910E+00 -1.51973982E+01  7.59869910E+00
  7.59869910E+00 -1.51973982E+01  7.59869910E+00  7.59869910E+00 -1.51973982E+01
  7.59869910E+00  7.59869910E+00 -1.51973982E+01  7.59869910E+00  7.59869910E+00
 -1.51973982E+01  7.59869910E+00  7.59869910E+00 -1.51973982E+01  7.59869910E+00
  7.59869910E+00 -1.51973982E+01  7.59869910E+00  7.59869910E+00 -1.51973982E+01
  7.59869910E+00  7.59869910E+00 -1.51973982E+01  7.59869910E+00  7.59869910E+00
 -1.51973982E+01  7.59869910E+00  7.59869910E+00 -1.51973982E+01  7.59869910E+00
  7.59869910E+00 -1.51973982E+01  7.59869910E+00  7.59869910E+00 -1.51973982E+01
  7.59869910E+00  7.59869910E+00 -1.51973982E+01  7.59869910E+00  7.59869910E+00
 -1.51973982E+01  7.59869910E+00  7.59869910E+00 -1.51973982E+01  7.59869910E+00
  7.59869910E+00 -1.51973982E+01  7.59869910E+00  7.59869910E+00 -1.51973982E+01
  7.59869910E+00  7.59869910E+00 -1.51973982E+01  7.59869910E+00  7.59869910E+00
 -1.51973982E+01  7.59869910E+00  7.59869910E+00 -1.51973982E+01  7.59869910E+00
  7.59869910E+00 -1.51973982E+01  7.59869910E+00  7.59869910E+00 -1.51973982E+01
  7.59869910E+00  7.59869910E+00 -1.51973982E+01  7.59869910E+00  7.59869910E+00
 -1.51973982E+01  7.59869910E+00  7.59869910E+00 -1.51973982E+01  7.59869910E+00
  7.59869910E+00 -1.51973982E+01  7.59869910E+00  7.59869910E+00 -1.51973982E+01
  7.59869910E+00  7.59869910E+00 -1.51973982E+01  7.59869910E+00  7.59869910E+00
 -1.51973982E+01  7.59869910E+00  7.59869910E+00 -1.51973982E+01  7.59869910E+00
  7.59869910E+00 -1.51973982E+01  7.59869910E+00  7.59869910E+00 -1.51973982E+01
  7.59869910E+00  7.59869910E+00 -1.51973982E+01  7.59869910E+00  7.59869910E+00
 -1.51973982E+01  7.59869910E+00  7.59869910E+00 -1.51973982E+01  7.59869910E+00
  7.59869910E+00 -1.51973982E+01  7.59869910E+00  7.59869910E+00 -1.51973982E+01
  7.59869910E+00  7.59869910E+00 -1.51973982E+01  7.59869910E+00  7.59869910E+00
 -1.51973982E+01  7.59869910E+00  7.59869910E+00 -1.51973982E+01  7.59869910E+00
  7.59869910E+00 -1.51973982E+01  7.59869910E+00  7.59869910E+00 -1.51973982E+01
  7.59869910E+00  7.59869910E+00 -1.51973982E+01  7.59869910E+00  7.59869910E+00
 -1.51973982E+01  7.59869910E+00  7.59869910E+00 -1.51973982E+01  7.59869910E+00
  7.59869910E+00 -1.51973982E+01  7.59869910E+00  7.59869910E+00 -1.51973982E+01
  7.59869910E+00  7.59869910E+00 -1.51973982E+01  7.59869910E+00  7.59869910E+00
 -1.51973982E+01  7.59869910E+00  7.59869910E+00 -1.51973982E+01  7.59869910E+00
  7.59869910E+00 -1.51973982E+01  7.59869910E+00  7.59869910E+00 -1.51973982E+01
  7.59869910E+00  7.59869910E+00 -1.51973982E+01  7.59869910E+00  7.59869910E+00
 -1.51973982E+01  7.59869910E+00  7.59869910E+00 -1.51973982E+01  7.59869910E+00
  7.59869910E+00 -1.51973982E+01  7.59869910E+00  7.59869910E+00 -1.51973982E+01
  7.59869910E+00  7.59869910E+00 -1.51973982E+01  7.59869910E+00  7.59869910E+00
 -1.51973982E+01  7.59869910E+00  7.59869910E+00 -1.51973982E+01  7.59869910E+00
  7.59869910E+00 -1.51973982E+01  7.59869910E+00  7.59869910E+00 -1.51973982E+01
  7.59869910E+00  7.59869910E+00 -1.51973982E+01  7.59869910E+00  7.59869910E+00
 -1.51973982E+01  7.59869910E+00  7.59869910E+00 -1.51973982E+01  7.59869910E+00
  7.59869910E+00 -1.51973982E+01  7.59869910E+00  7.59869910E+00 -1.51973982E+01
  7.59869910E+00  7.59869910E+00 -1.51973982E+01  7.59869910E+00  7.59869910E+00
 -1.51973982E+01  7.59869910E+00  7.59869910E+00 -1.51973982E+01  7.59869910E+00
  7.59869910E+00 -1.51973982E+01  7.59869910E+00  7.59869910E+00 -1.51973982E+01
  7.59869910E+00  7.59869910E+00 -1.51973982E+01  7.59869910E+00  7.59869910E+00
 -1.51973982E+01  7.59869910E+00  7.59869910E+00 -1.51973982E+01  7.59869910E+00
  7.59869910E+00 -1.51973982E+01  7.59869910E+00  7.59869910E+00 -1.51973982E+01
  7.59869910E+00  7.59869910E+00 -1.51973982E+01  7.59869910E+00  7.59869910E+00
 -1.51973982E+01  7.59869910E+00  7.59869910E+00 -1.51973982E+01  7.59869910E+00
  7.59869910E+00 -1.51973982E+01  7.59869910E+00  7.59869910E+00 -1.51973982E+01
  7.59869910E+00  7.59869910E+00 -1.51973982E+01  7.59869910E+00  7.59869910E+00
 -1.51973982E+01  7.59869910E+00  7.59869910E+00 -1.51973982E+01  7.59869910E+00
  7.59869910E+00 -1.51973982E+01  7.59869910E+00  7.59869910E+00 -1.51973982E+01
  7.59869910E+00  7.59869910E+00 -1.51973982E+01  7.59869910E+00  7.59869910E+00
 -1.51973982E+01  7.59869910E+00  7.59869910E+00 -1.51973982E+01  7.59869910E+00
  7.59869910E+00 -1.51973982E+01  7.59869910E+00  7.59869910E+00 -1.51973982E+01
  7.59869910E+00  7.59869910E+00 -1.51973982E+01  7.59869910E+00  7.59869910E+00
 -1.51973982E+01  7.59869910E+00  7.59869910E+00 -1.51973982E+01  7.59869910E+00
  7.59869910E+00 -1.51973982E+01  7.59869910E+00  7.59869910E+00 -1.51973982E+01
  7.59869910E+00  7.59869910E+00 -1.51973982E+01  7.59869910E+00  7.59869910E+00
 -1.51973982E+01  7.59869910E+00  7.59869910E+00 -1.51973982E+01  7.59869910E+00
  7.59869910E+00 -1.51973982E+01  7.59869910E+00  7.59869910E+00 -1.51973982E+01
  7.59869910E+00  7.59869910E+00 -1.51973982E+01  7.59869910E+00  7.59869910E+00
 -1.51973982E+01  7.59869910E+00  7.59869910E+00 -1.51973982E+01  7.59869910E+00
  7.59869910E+00 -1.51973982E+01  7.59869910E+00  7.59869910E+00 -1.51973982E+01
  7.59869910E+00  7.59869910E+00 -1.51973982E+01  7.59869910E+00  7.59869910E+00
 -1.51973982E+01  7.59869910E+00  7.59869910E+00 -1.51973982E+01  7.59869910E+00
  7.59869910E+00 -1.51973982E+01  7.59869910E+00  7.59869910E+00 -1.51973982E+01
  7.59869910E+00  7.59869910E+00 -1.51973982E+01  7.59869910E+00  7.59869910E+00
 -1.51973982E+01  7.59869910E+00  7.59869910E+00 -1.51973982E+01  7.59869910E+00
  7.59869910E+00 -1.51973982E+01  7.59869910E+00  7.59869910E+00 -1.51973982E+01
  7.59869910E+00  7.59869910E+00 -1.51973982E+01  7.59869910E+00  7.59869910E+00
 -1.51973982E+01  7.59869910E+00  7.59869910E+00 -1.51973982E+01  7.59869910E+00
  7.59869910E+00 -1.51973982E+01  7.59869910E+00  7.59869910E+00 -1.51973982E+01
  7.59869910E+00  7.59869910E+00 -1.51973982E+01  7.59869910E+00  7.59869910E+00
 -1.51973982E+01  7.59869910E+00  7.59869910E+00 -1.51973982E+01  7.59869910E+00
  7.59869910E+00 -1.51973982E+01  7.59869910E+00  7.59869910E+00 -1.51973982E+01
  7.59869910E+00  7.59869910E+00 -1.51973982E+01  7.59869910E+00  7.59869910E+00
 -1.51973982E+01  7.59869910E+00  7.59869910E+00 -1.51973982E+01  7.59869910E+00
  7.59869910E+00 -1.51973982E+01  7.59869910E+00  7.59869910E+00 -1.51973982E+01
  7.59869910E+00  7.59869910E+00 -1.51973982E+01  7.59869910E+00  7.59869910E+00
 -1.51973982E+01  7.59869910E+00  7.59869910E+00 -1.51973982E+01  7.59869910E+00
  7.59869910E+00 -1.51973982E+01  7.59869910E+00  7.59869910E+00 -1.51973982E+01
  7.59869910E+00  7.59869910E+00 -1.51973982E+01  7.59869910E+00  7.59869910E+00
 -1.51973982E+01  7.59869910E+00  7.59869910E+00 -1.51973982E+01  7.59869910E+00
  7.59869910E+00 -1.51973982E+01  7.59869910E+00  7.59869910E+00 -1.51973982E+01
  7.59869910E+00  7.59869910E+00 -1.51973982E+01  7.59869910E+00  7.59869910E+00
 -1.51973982E+01  7.59869910E+00  7.59869910E+00 -1.51973982E+01  7.59869910E+00
  7.59869910E+00 -1.51973982E+01  7.59869910E+00  7.59869910E+00 -1.51973982E+01
  7.59869910E+00  7.59869910E+00 -1.51973982E+01  7.59869910E+00  7.59869910E+00
 -1.51973982E+01  7.59869910E+00  7.59869910E+00 -1.51973982E+01  7.59869910E+00
  7.59869910E+00 -1.51973982E+01  7.59869910E+00  7.59869910E+00 -1.51973982E+01
  7.59869910E+00  7.59869910E+00 -1.51973982E+01  7.59869910E+00  7.59869910E+00
 -1.51973982E+01  7.59869910E+00  7.59869910E+00 -1.51973982E+01  7.59869910E+00
  7.59869910E+00 -1.51973982E+01  7.59869910E+00  7.59869910E+00 -1.51973982E+01
  7.59869910E+00  7.59869910E+00 -1.51973982E+01  7.59869910E+00  7.59869910E+00
 -1.51973982E+01  7.59869910E+00  7.59869910E+00 -1.51973982E+01  7.59869910E+00
  7.59869910E+00 -1.51973982E+01  7.59869910E+00  7.59869910E+00 -1.51973982E+01
  7.59869910E+00  7.59869910E+00 -1.51973982E+01  7.59869910E+00  7.59869910E+00
 -1.51973982E+01  7.59869910E+00  7.59869910E+00 -1.51973982E+01  7.59869910E+00
  7.59869910E+00 -1.51973982E+01  7.59869910E+00  7.59869910E+00 -1.51973982E+01
  7.59869910E+00  7.59869910E+00 -1.51973982E+01  7.59869910E+00  7.59869910E+00
 -1.51973982E+01  7.59869910E+00  7.59869910E+00 -1.51973982E+01  7.59869910E+00
  7.59869910E+00 -1.51973982E+01  7.59869910E+00  7.59869910E+00 -1.51973982E+01
  7.59869910E+00  7.59869910E+00 -1.51973982E+01  7.59869910E+00  7.59869910E+00
 -1.51973982E+01  7.59869910E+00  7.59869910E+00 -1.51973982E+01  7.59869910E+00
  7.59869910E+00 -1.51973982E+01  7.59869910E+00  7.59869910E+00 -1.51973982E+01
  7.59869910E+00  7.59869910E+00 -1.51973982E+01  7.59869910E+00  7.59869910E+00
 -1.51973982E+01  7.59869910E+00  7.59869910E+00 -1.51973982E+01  7.59869910E+00
  7.59869910E+00 -1.51973982E+01  7.59869910E+00  7.59869910E+00 -1.51973982E+01
  7.59869910E+00  7.59869910E+00 -1.51973982E+01  7.59869910E+00  7.59869910E+00
 -1.51973982E+01  7.59869910E+00  7.59869910E+00 -1.51973982E+01  7.59869910E+00
  7.59869910E+00 -1.51973982E+01  7.59869910E+00  7.59869910E+00 -1.51973982E+01
  7.59869910E+00  7.59869910E+00 -1.51973982E+01  7.59869910E+00  7.59869910E+00
 -1.51973982E+01  7.59869910E+00  7.59869910E+00 -1.51973982E+01  7.59869910E+00
  7.59869910E+00 -1.51973982E+01  7.59869910E+00  7.59869910E+00 -1.51973982E+01
  7.59869910E+00  7.59869910E+00 -1.51973982E+01  7.59869910E+00  7.59869910E+00
 -1.51973982E+01  7.59869910E+00  7.59869910E+00 -1.51973982E+01  7.59869910E+00
  7.59869910E+00 -1.51973982E+01  7.59869910E+00  7.59869910E+00 -1.51973982E+01
  7.59869910E+00  7.59869910E+00 -1.51973982E+01  7.59869910E+00  7.59869910E+00
 -1.51973982E+01  7.59869910E+00  7.59869910E+00 -1.51973982E+01  7.59869910E+00
  7.59869910E+00 -1.51973982E+01  7.59869910E+00  7.59869910E+00 -1.51973982E+01
  7.59869910E+00  7.59869910E+00 -1.51973982E+01  7.59869910E+00  7.59869910E+00
 -1.51973982E+01  7.59869910E+00  7.59869910E+00 -1.51973982E+01  7.59869910E+00
  7.59869910E+00 -1.51973982E+01  7.59869910E+00  7.59869910E+00 -1.51973982E+01
  7.59869910E+00  7.59869910E+00 -1.51973982E+01  7.59869910E+00  7.59869910E+00
 -1.51973982E+01  7.59869910E+00  7.59869910E+00 -1.51973982E+01  7.59869910E+00
  7.59869910E+00 -1.51973982E+01  7.59869910E+00  7.59869910E+00 -1.51973982E+01
  7.59869910E+00  7.59869910E+00 -1.51973982E+01  7.59869910E+00  7.59869910E+00
 -1.51973982E+01  7.59869910E+00  7.59869910E+00 -1.51973982E+01  7.59869910E+00
  7.59869910E+00 -1.51973982E+01  7.59869910E+00  7.59869910E+00 -1.51973982E+01
  7.59869910E+00  7.59869910E+00 -1.51973982E+01  7.59869910E+00  7.59869910E+00
 -1.51973982E+01  7.59869910E+00  7.59869910E+00 -1.51973982E+01  7.59869910E+00
  7.59869910E+00 -1.51973982E+01  7.59869910E+00  7.59869910E+00 -1.51973982E+01
  7.59869910E+00  7.59869910E+00 -1.51973982E+01  7.59869910E+00  7.59869910E+00
 -1.51973982E+01  7.59869910E+00  7.59869910E+00 -1.51973982E+01  7.59869910E+00
  7.59869910E+00 -1.51973982E+01  7.59869910E+00  7.59869910E+00 -1.51973982E+01
  7.59869910E+00  7.59869910E+00 -1.51973982E+01  7.59869910E+00  7.59869910E+00
 -1.51973982E+01  7.59869910E+00  7.59869910E+00 -1.51973982E+01  7.59869910E+00
  7.59869910E+00 -1.51973982E+01  7.59869910E+00  7.59869910E+00 -1.51973982E+01
  7.59869910E+00  7.59869910E+00 -1.51973982E+01  7.59869910E+00  7.59869910E+00
 -1.51973982E+01  7.59869910E+00  7.59869910E+00 -1.51973982E+01  7.59869910E+00
  7.59869910E+00 -1.51973982E+01  7.59869910E+00  7.59869910E+00 -1.51973982E+01
  7.59869910E+00  7.59869910E+00 -1.51973982E+01  7.59869910E+00  7.59869910E+00
 -1.51973982E+01  7.59869910E+00  7.59869910E+00 -1.51973982E+01  7.59869910E+00
  7.59869910E+00 -1.51973982E+01  7.59869910E+00  7.59869910E+00 -1.51973982E+01
  7.59869910E+00  7.59869910E+00 -1.51973982E+01  7.59869910E+00  7.59869910E+00
 -1.51973982E+01  7.59869910E+00  7.59869910E+00 -1.51973982E+01  7.59869910E+00
  7.59869910E+00 -1.51973982E+01  7.59869910E+00  7.59869910E+00 -1.51973982E+01
  7.59869910E+00  7.59869910E+00 -1.51973982E+01  7.59869910E+00  7.59869910E+00
 -1.51973982E+01  7.59869910E+00  7.59869910E+00 -1.51973982E+01  7.59869910E+00
  7.59869910E+00 -1.51973982E+01  7.59869910E+00  7.59869910E+00 -1.51973982E+01
  7.59869910E+00  7.59869910E+00 -1.51973982E+01  7.59869910E+00  7.59869910E+00
 -1.51973982E+01  7.59869910E+00  7.59869910E+00 -1.51973982E+01  7.59869910E+00
  7.59869910E+00 -1.51973982E+01  7.59869910E+00  7.59869910E+00 -1.51973982E+01
  7.59869910E+00  7.59869910E+00 -1.51973982E+01  7.59869910E+00  7.59869910E+00
 -1.51973982E+01  7.59869910E+00  7.59869910E+00 -1.51973982E+01  7.59869910E+00
  7.59869910E+00 -1.51973982E+01  7.59869910E+00  7.59869910E+00 -1.51973982E+01
  7.59869910E+00  7.59869910E+00 -1.51973982E+01  7.59869910E+00  7.59869910E+00
 -1.51973982E+01  7.59869910E+00  7.59869910E+00 -1.51973982E+01  7.59869910E+00
  7.59869910E+00 -1.51973982E+01  7.59869910E+00  7.59869910E+00 -1.51973982E+01
  7.59869910E+00  7.59869910E+00 -1.51973982E+01  7.59869910E+00  7.59869910E+00
 -1.51973982E+01  7.59869910E+00  7.59869910E+00 -1.51973982E+01  7.59869910E+00
  7.59869910E+00 -1.51973982E+01  7.59869910E+00  7.59869910E+00 -1.51973982E+01
  7.59869910E+00  7.59869910E+00 -1.51973982E+01  7.59869910E+00  7.59869910E+00
 -1.51973982E+01  7.59869910E+00  7.59869910E+00 -1.51973982E+01  7.59869910E+00
  7.59869910E+00 -1.51973982E+01  7.59869910E+00  7.59869910E+00 -1.51973982E+01
  7.59869910E+00  7.59869910E+00 -1.51973982E+01  7.59869910E+00  7.59869910E+00
 -1.51973982E+01  7.59869910E+00  7.59869910E+00 -1.51973982E+01  7.59869910E+00
  7.59869910E+00 -1.51973982E+01  7.59869910E+00  7.59869910E+00 -1.51973982E+01
  7.59869910E+00  7.59869910E+00 -1.51973982E+01  7.59869910E+00  7.59869910E+00
 -1.51973982E+01  7.59869910E+00  7.59869910E+00 -1.51973982E+01  7.59869910E+00
  7.59869910E+00 -1.51973982E+01  7.59869910E+00  7.59869910E+00 -1.51973982E+01
  7.59869910E+00  7.59869910E+00 -1.51973982E+01  7.59869910E+00  7.59869910E+00
 -1.51973982E+01  7.59869910E+00  7.59869910E+00 -1.51973982E+01  7.59869910E+00
  7.59869910E+00 -1.51973982E+01  7.59869910E+00  7.59869910E+00 -1.51973982E+01
  7.59869910E+00  7.59869910E+00 -1.51973982E+01  7.59869910E+00  7.59869910E+00
 -1.51973982E+01  7.59869910E+00  7.59869910E+00 -1.51973982E+01  7.59869910E+00
  7.59869910E+00 -1.51973982E+01  7.59869910E+00  7.59869910E+00 -1.51973982E+01
  7.59869910E+00  7.59869910E+00 -1.51973982E+01  7.59869910E+00  7.59869910E+00
 -1.51973982E+01  7.59869910E+00  7.59869910E+00 -1.51973982E+01  7.59869910E+00
  7.59869910E+00 -1.51973982E+01  7.59869910E+00  7.59869910E+00 -1.51973982E+01
  7.59869910E+00  7.59869910E+00 -1.51973982E+01  7.59869910E+00  7.59869910E+00
 -1.51973982E+01  7.59869910E+00  7.59869910E+00 -1.51973982E+01  7.59869910E+00
  7.59869910E+00 -1.51973982E+01  7.59869910E+00  7.59869910E+00 -1.51973982E+01
  7.59869910E+00  7.59869910E+00 -1.51973982E+01  7.59869910E+00  7.59869910E+00
 -1.51973982E+01  7.59869910E+00  7.59869910E+00 -1.51973982E+01  7.59869910E+00
  7.59869910E+00 -1.51973982E+01  7.59869910E+00  7.59869910E+00 -1.51973982E+01
  7.59869910E+00  7.59869910E+00 -1.51973982E+01  7.59869910E+00  7.59869910E+00
 -1.51973982E+01  7.59869910E+00  7.59869910E+00 -1.51973982E+01  7.59869910E+00
  7.59869910E+00 -1.51973982E+01  7.59869910E+00  7.59869910E+00 -1.51973982E+01
  7.59869910E+00  7.59869910E+00 -1.51973982E+01  7.59869910E+00  7.59869910E+00
 -1.51973982E+01  7.59869910E+00  7.59869910E+00 -1.51973982E+01  7.59869910E+00
  7.59869910E+00 -1.51973982E+01  7.59869910E+00  7.59869910E+00 -1.51973982E+01
  7.59869910E+00  7.59869910E+00 -1.51973982E+01  7.59869910E+00  7.59869910E+00
 -1.51973982E+01  7.59869910E+00  7.59869910E+00 -1.51973982E+01  7.59869910E+00
  7.59869910E+00 -1.51973982E+01  7.59869910E+00  7.59869910E+00 -1.51973982E+01
  7.59869910E+00  7.59869910E+00 -1.51973982E+01  7.59869910E+00  7.59869910E+00
 -1.51973982E+01  7.59869910E+00  7.59869910E+00 -1.51973982E+01  7.59869910E+00
  7.59869910E+00 -1.51973982E+01  7.59869910E+00  7.59869910E+00 -1.51973982E+01
  7.59869910E+00  7.59869910E+00 -1.51973982E+01  7.59869910E+00  7.59869910E+00
 -1.51973982E+01  7.59869910E+00  7.59869910E+00 -1.51973982E+01  7.59869910E+00
  7.59869910E+00 -1.51973982E+01  7.59869910E+00  7.59869910E+00 -1.51973982E+01
  7.59869910E+00  7.59869910E+00 -1.51973982E+01  7.59869910E+00  7.59869910E+00
 -1.51973982E+01  7.59869910E+00  7.59869910E+00 -1.51973982E+01  7.59869910E+00
  7.59869910E+00 -1.51973982E+01  7.59869910E+00  7.59869910E+00 -1.51973982E+01
  7.59869910E+00  7.59869910E+00 -1.51973982E+01  7.59869910E+00  7.59869910E+00
 -1.51973982E+01  7.59869910E+00  7.59869910E+00 -1.51973982E+01  7.59869910E+00
  7.59869910E+00 -1.51973982E+01  7.59869910E+00  7.59869910E+00 -1.51973982E+01
  7.59869910E+00  7.59869910E+00 -1.51973982E+01  7.59869910E+00  7.59869910E+00
 -1.51973982E+01  7.59869910E+00  7.59869910E+00 -1.51973982E+01  7.59869910E+00
  7.59869910E+00 -1.51973982E+01  7.59869910E+00  7.59869910E+00 -1.51973982E+01
  7.59869910E+00  7.59869910E+00 -1.51973982E+01  7.59869910E+00  7.59869910E+00
 -1.51973982E+01  7.59869910E+00  7.59869910E+00 -1.51973982E+01  7.59869910E+00
  7.59869910E+00 -1.51973982E+01  7.59869910E+00  7.59869910E+00 -1.51973982E+01
  7.59869910E+00  7.59869910E+00 -1.51973982E+01  7.59869910E+00  7.59869910E+00
 -1.51973982E+01  7.59869910E+00  7.59869910E+00 -1.51973982E+01  7.59869910E+00
  7.59869910E+00 -1.51973982E+01  7.59869910E+00  7.59869910E+00 -1.51973982E+01
  7.59869910E+00  7.59869910E+00 -1.51973982E+01  7.59869910E+00  7.59869910E+00
 -1.51973982E+01  7.59869910E+00  7.59869910E+00 -1.51973982E+01  7.59869910E+00
  7.59869910E+00 -1.51973982E+01  7.59869910E+00  7.59869910E+00 -1.51973982E+01
  7.59869910E+00  7.59869910E+00 -1.51973982E+01  7.59869910E+00  7.59869910E+00
 -1.51973982E+01  7.59869910E+00  7.59869910E+00 -1.51973982E+01  7.59869910E+00
  7.59869910E+00 -1.51973982E+01  7.59869910E+00  7.59869910E+00 -1.51973982E+01
  7.59869910E+00  7.59869910E+00 -1.51973982E+01  7.59869910E+00  7.59869910E+00
 -1.51973982E+01  7.59869910E+00  7.59869910E+00 -1.51973982E+01  7.59869910E+00
  7.59869910E+00 -1.51973982E+01  7.59869910E+00  7.59869910E+00 -1.51973982E+01
  7.59869910E+00  7.59869910E+00 -1.51973982E+01  7.59869910E+00  7.59869910E+00
 -1.51973982E+01  7.59869910E+00  7.59869910E+00 -1.51973982E+01  7.59869910E+00
  7.59869910E+00 -1.51973982E+01  7.59869910E+00  7.59869910E+00 -1.51973982E+01
  7.59869910E+00  7.59869910E+00 -1.51973982E+01  7.59869910E+00  7.59869910E+00
 -1.51973982E+01  7.59869910E+00  7.59869910E+00 -1.51973982E+01  7.59869910E+00
  7.59869910E+00 -1.51973982E+01  7.59869910E+00  7.59869910E+00 -1.51973982E+01
  7.59869910E+00  7.59869910E+00 -1.51973982E+01  7.59869910E+00  7.59869910E+00
 -1.51973982E+01  7.59869910E+00  7.59869910E+00 -1.51973982E+01  7.59869910E+00
  7.59869910E+00 -1.51973982E+01  7.59869910E+00  7.59869910E+00 -1.51973982E+01
  7.59869910E+00  7.59869910E+00 -1.51973982E+01  7.59869910E+00  7.59869910E+00
 -1.51973982E+01  7.59869910E+00  7.59869910E+00 -1.51973982E+01  7.59869910E+00
  7.59869910E+00 -1.51973982E+01  7.59869910E+00  7.59869910E+00 -1.51973982E+01
  7.59869910E+00  7.59869910E+00 -1.51973982E+01  7.59869910E+00  7.59869910E+00
 -1.51973982E+01  7.59869910E+00  7.59869910E+00 -1.51973982E+01  7.59869910E+00
  7.59869910E+00 -1.51973982E+01  7.59869910E+00  7.59869910E+00 -1.51973982E+01
  7.59869910E+00  7.59869910E+00 -1.51973982E+01  7.59869910E+00  7.59869910E+00
 -1.51973982E+01  7.59869910E+00  7.59869910E+00 -1.51973982E+01  7.59869910E+00
  7.59869910E+00 -1.51973982E+01  7.59869910E+00  7.59869910E+00 -1.51973982E+01
  7.59869910E+00  7.59869910E+00 -1.51973982E+01  7.59869910E+00  7.59869910E+00
 -1.51973982E+01  7.59869910E+00  7.59869910E+00 -1.51973982E+01  7.59869910E+00
  7.59869910E+00 -1.51973982E+01  7.59869910E+00  7.59869910E+00 -1.51973982E+01
  7.59869910E+00  7.59869910E+00 -1.51973982E+01  7.59869910E+00  7.59869910E+00
 -1.51973982E+01  7.59869910E+00  7.59869910E+00 -1.51973982E+01  7.59869910E+00
  7.59869910E+00 -1.51973982E+01  7.59869910E+00  7.59869910E+00 -1.51973982E+01
  7.59869910E+00  7.59869910E+00 -1.51973982E+01  7.59869910E+00  7.59869910E+00
 -1.51973982E+01  7.59869910E+00  7.59869910E+00 -1.51973982E+01  7.59869910E+00
  7.59869910E+00 -1.51973982E+01  7.59869910E+00  7.59869910E+00 -1.51973982E+01
  7.59869910E+00  7.59869910E+00 -1.51973982E+01  7.59869910E+00  7.59869910E+00
 -1.51973982E+01  7.59869910E+00  7.59869910E+00 -1.51973982E+01  7.59869910E+00
  7.59869910E+00 -1.51973982E+01  7.59869910E+00  7.59869910E+00 -1.51973982E+01
  7.59869910E+00  7.59869910E+00 -1.51973982E+01  7.59869910E+00  7.59869910E+00
 -1.51973982E+01  7.59869910E+00  7.59869910E+00 -1.51973982E+01  7.59869910E+00
  7.59869910E+00 -1.51973982E+01  7.59869910E+00  7.59869910E+00 -1.51973982E+01
  7.59869910E+00  7.59869910E+00 -1.51973982E+01  7.59869910E+00  7.59869910E+00
 -1.51973982E+01  7.59869910E+00  7.59869910E+00 -1.51973982E+01  7.59869910E+00
  7.59869910E+00 -1.51973982E+01  7.59869910E+00  7.59869910E+00 -1.51973982E+01
  7.59869910E+00  7.59869910E+00 -1.51973982E+01  7.59869910E+00  7.59869910E+00
 -1.51973982E+01  7.59869910E+00  7.59869910E+00 -1.51973982E+01  7.59869910E+00
  7.59869910E+00 -1.51973982E+01  7.59869910E+00  7.59869910E+00 -1.51973982E+01
  7.59869910E+00  7.59869910E+00 -1.51973982E+01  7.59869910E+00  7.59869910E+00
 -1.51973982E+01  7.59869910E+00  7.59869910E+00 -1.51973982E+01  7.59869910E+00
  7.59869910E+00 -1.51973982E+01  7.59869910E+00  7.59869910E+00 -1.51973982E+01
  7.59869910E+00  7.59869910E+00 -1.51973982E+01  7.59869910E+00  7.59869910E+00
 -1.51973982E+01  7.59869910E+00  7.59869910E+00 -1.51973982E+01  7.59869910E+00
  7.59869910E+00 -1.51973982E+01  7.59869910E+00  7.59869910E+00 -1.51973982E+01
  7.59869910E+00  7.59869910E+00 -1.51973982E+01  7.59869910E+00  7.59869910E+00
 -1.51973982E+01  7.59869910E+00  7.59869910E+00 -1.51973982E+01  7.59869910E+00
  7.59869910E+00 -1.51973982E+01  7.59869910E+00  7.59869910E+00 -1.51973982E+01
  7.59869910E+00  7.59869910E+00 -1.51973982E+01  7.59869910E+00  7.59869910E+00
 -1.51973982E+01  7.59869910E+00  7.59869910E+00 -1.51973982E+01  7.59869910E+00
  7.59869910E+00 -1.51973982E+01  7.59869910E+00  7.59869910E+00 -1.51973982E+01
  7.59869910E+00  7.59869910E+00 -1.51973982E+01  7.59869910E+00  7.59869910E+00
 -1.51973982E+01  7.59869910E+00  7.59869910E+00 -1.51973982E+01  7.59869910E+00
  7.59869910E+00 -1.51973982E+01  7.59869910E+00  7.59869910E+00 -1.51973982E+01
  7.59869910E+00  7.59869910E+00 -1.51973982E+01  7.59869910E+00  7.59869910E+00
 -1.51973982E+01  7.59869910E+00  7.59869910E+00 -1.51973982E+01  7.59869910E+00
  7.59869910E+00 -1.51973982E+01  7.59869910E+00  7.59869910E+00 -1.51973982E+01
  7.59869910E+00  7.59869910E+00 -1.51973982E+01  7.59869910E+00  7.59869910E+00
 -1.51973982E+01  7.59869910E+00  7.59869910E+00 -1.51973982E+01  7.59869910E+00
  7.59869910E+00 -1.51973982E+01  7.59869910E+00  7.59869910E+00 -1.51973982E+01
  7.59869910E+00  7.59869910E+00 -1.51973982E+01  7.59869910E+00  7.59869910E+00
 -1.51973982E+01  7.59869910E+00  7.59869910E+00 -1.51973982E+01  7.59869910E+00
  7.59869910E+00 -1.51973982E+01  7.59869910E+00  7.59869910E+00 -1.51973982E+01
  7.59869910E+00  7.59869910E+00 -1.51973982E+01  7.59869910E+00  7.59869910E+00
 -1.51973982E+01  7.59869910E+00  7.59869910E+00 -1.51973982E+01  7.59869910E+00
  7.59869910E+00 -1.51973982E+01  7.59869910E+00  7.59869910E+00 -1.51973982E+01
  7.59869910E+00  7.59869910E+00 -1.51973982E+01  7.59869910E+00  7.59869910E+00
 -1.51973982E+01  7.59869910E+00  7.59869910E+00 -1.51973982E+01  7.59869910E+00
  7.59869910E+00 -1.51973982E+01  7.59869910E+00  7.59869910E+00 -1.51973982E+01
  7.59869910E+00  7.59869910E+00 -1.51973982E+01  7.59869910E+00  7.59869910E+00
 -1.51973982E+01  7.59869910E+00  7.59869910E+00 -1.51973982E+01  7.59869910E+00
  7.59869910E+00 -1.51973982E+01  7.59869910E+00  7.59869910E+00 -1.51973982E+01
  7.59869910E+00  7.59869910E+00 -1.51973982E+01  7.59869910E+00  7.59869910E+00
 -1.51973982E+01  7.59869910E+00  7.59869910E+00 -1.51973982E+01  7.59869910E+00
  7.59869910E+00 -1.51973982E+01  7.59869910E+00  7.59869910E+00 -1.51973982E+01
  7.59869910E+00  7.59869910E+00 -1.51973982E+01  7.59869910E+00  7.59869910E+00
 -1.51973982E+01  7.59869910E+00  7.59869910E+00 -1.51973982E+01  7.59869910E+00
  7.59869910E+00 -1.51973982E+01  7.59869910E+00  7.59869910E+00 -1.51973982E+01
  7.59869910E+00  7.59869910E+00 -1.51973982E+01  7.59869910E+00  7.59869910E+00
 -1.51973982E+01  7.59869910E+00  7.59869910E+00 -1.51973982E+01  7.59869910E+00
  7.59869910E+00 -1.51973982E+01  7.59869910E+00  7.59869910E+00 -1.51973982E+01
  7.59869910E+00  7.59869910E+00 -1.51973982E+01  7.59869910E+00  7.59869910E+00
 -1.51973982E+01  7.59869910E+00  7.59869910E+00 -1.51973982E+01  7.59869910E+00
  7.59869910E+00 -1.51973982E+01  7.59869910E+00  7.59869910E+00 -1.51973982E+01
  7.59869910E+00  7.59869910E+00 -1.51973982E+01  7.59869910E+00  7.59869910E+00
 -1.51973982E+01  7.59869910E+00  7.59869910E+00 -1.51973982E+01  7.59869910E+00
  7.59869910E+00 -1.51973982E+01  7.59869910E+00  7.59869910E+00 -1.51973982E+01
  7.59869910E+00  7.59869910E+00 -1.51973982E+01  7.59869910E+00  7.59869910E+00
 -1.51973982E+01  7.59869910E+00  7.59869910E+00 -1.51973982E+01  7.59869910E+00
  7.59869910E+00 -1.51973982E+01  7.59869910E+00  7.59869910E+00 -1.51973982E+01
  7.59869910E+00  7.59869910E+00 -1.51973982E+01  7.59869910E+00  7.59869910E+00
 -1.51973982E+01  7.59869910E+00  7.59869910E+00 -1.51973982E+01  7.59869910E+00
  7.59869910E+00 -1.51973982E+01  7.59869910E+00  7.59869910E+00 -1.51973982E+01
  7.59869910E+00  7.59869910E+00 -1.51973982E+01  7.59869910E+00  7.59869910E+00
 -1.51973982E+01  7.59869910E+00  7.59869910E+00 -1.51973982E+01  7.59869910E+00
  7.59869910E+00 -1.51973982E+01  7.59869910E+00  7.59869910E+00 -1.51973982E+01
  7.59869910E+00  7.59869910E+00 -1.51973982E+01  7.59869910E+00  7.59869910E+00
 -1.51973982E+01  7.59869910E+00  7.59869910E+00 -1.51973982E+01  7.59869910E+00
  7.59869910E+00 -1.51973982E+01  7.59869910E+00  7.59869910E+00 -1.51973982E+01
  7.59869910E+00  7.59869910E+00 -1.51973982E+01  7.59869910E+00  7.59869910E+00
 -1.51973982E+01  7.59869910E+00  7.59869910E+00 -1.51973982E+01  7.59869910E+00
  7.59869910E+00 -1.51973982E+01  7.59869910E+00  7.59869910E+00 -1.51973982E+01
  7.59869910E+00  7.59869910E+00 -1.51973982E+01  7.59869910E+00  7.59869910E+00
 -1.51973982E+01  7.59869910E+00  7.59869910E+00 -1.51973982E+01  7.59869910E+00
  7.59869910E+00 -1.51973982E+01  7.59869910E+00  7.59869910E+00 -1.51973982E+01
  7.59869910E+00  7.59869910E+00 -1.51973982E+01  7.59869910E+00  7.59869910E+00
 -1.51973982E+01  7.59869910E+00  7.59869910E+00 -1.51973982E+01  7.59869910E+00
  7.59869910E+00 -1.51973982E+01  7.59869910E+00  7.59869910E+00 -1.51973982E+01
  7.59869910E+00  7.59869910E+00 -1.51973982E+01  7.59869910E+00  7.59869910E+00
 -1.51973982E+01  7.59869910E+00  7.59869910E+00 -1.51973982E+01  7.59869910E+00
  7.59869910E+00 -1.51973982E+01  7.59869910E+00  7.59869910E+00 -1.51973982E+01
  7.59869910E+00  7.59869910E+00 -1.51973982E+01  7.59869910E+00  7.59869910E+00
 -1.51973982E+01  7.59869910E+00  7.59869910E+00 -1.51973982E+01  7.59869910E+00
  7.59869910E+00 -1.51973982E+01  7.59869910E+00  7.59869910E+00 -1.51973982E+01
  7.59869910E+00  7.59869910E+00 -1.51973982E+01  7.59869910E+00  7.59869910E+00
 -1.51973982E+01  7.59869910E+00  7.59869910E+00 -1.51973982E+01  7.59869910E+00
  7.59869910E+00 -1.51973982E+01  7.59869910E+00  7.59869910E+00 -1.51973982E+01
  7.59869910E+00  7.59869910E+00 -1.51973982E+01  7.59869910E+00  7.59869910E+00
 -1.51973982E+01  7.59869910E+00  7.59869910E+00 -1.51973982E+01  7.59869910E+00
  7.59869910E+00 -1.51973982E+01  7.59869910E+00  7.59869910E+00 -1.51973982E+01
  7.59869910E+00  7.59869910E+00 -1.51973982E+01  7.59869910E+00  7.59869910E+00
 -1.51973982E+01  7.59869910E+00  7.59869910E+00 -1.51973982E+01  7.59869910E+00
  7.59869910E+00 -1.51973982E+01  7.59869910E+00  7.59869910E+00 -1.51973982E+01
  7.59869910E+00  7.59869910E+00 -1.51973982E+01  7.59869910E+00  7.59869910E+00
 -1.51973982E+01  7.59869910E+00  7.59869910E+00 -1.51973982E+01  7.59869910E+00
  7.59869910E+00 -1.51973982E+01  7.59869910E+00  7.59869910E+00 -1.51973982E+01
  7.59869910E+00  7.59869910E+00 -1.51973982E+01  7.59869910E+00  7.59869910E+00
 -1.51973982E+01  7.59869910E+00  7.59869910E+00 -1.51973982E+01  7.59869910E+00
  7.59869910E+00 -1.51973982E+01  7.59869910E+00  7.59869910E+00 -1.51973982E+01
  7.59869910E+00  7.59869910E+00 -1.51973982E+01  7.59869910E+00  7.59869910E+00
 -1.51973982E+01  7.59869910E+00  7.59869910E+00 -1.51973982E+01  7.59869910E+00
  7.59869910E+00 -1.51973982E+01  7.59869910E+00  7.59869910E+00 -1.51973982E+01
  7.59869910E+00  7.59869910E+00 -1.51973982E+01  7.59869910E+00  7.59869910E+00
 -1.51973982E+01  7.59869910E+00  7.59869910E+00 -1.51973982E+01  7.59869910E+00
  7.59869910E+00 -1.51973982E+01  7.59869910E+00  7.59869910E+00 -1.51973982E+01
  7.59869910E+00  7.59869910E+00 -1.51973982E+01  7.59869910E+00  7.59869910E+00
 -1.51973982E+01  7.59869910E+00  7.59869910E+00 -1.51973982E+01  7.59869910E+00
  7.59869910E+00 -1.51973982E+01  7.59869910E+00  7.59869910E+00 -1.51973982E+01
  7.59869910E+00  7.59869910E+00 -1.51973982E+01  7.59869910E+00  7.59869910E+00
 -1.51973982E+01  7.59869910E+00  7.59869910E+00 -1.51973982E+01  7.59869910E+00
  7.59869910E+00 -1.51973982E+01  7.59869910E+00  7.59869910E+00 -1.51973982E+01
  7.59869910E+00  7.59869910E+00 -1.51973982E+01  7.59869910E+00  7.59869910E+00
 -1.51973982E+01  7.59869910E+00  7.59869910E+00 -1.51973982E+01  7.59869910E+00
  7.59869910E+00 -1.51973982E+01  7.59869910E+00  7.59869910E+00 -1.51973982E+01
  7.59869910E+00  7.59869910E+00 -1.51973982E+01  7.59869910E+00  7.59869910E+00
 -1.51973982E+01  7.59869910E+00  7.59869910E+00 -1.51973982E+01  7.59869910E+00
  7.59869910E+00 -1.51973982E+01  7.59869910E+00  7.59869910E+00 -1.51973982E+01
  7.59869910E+00  7.59869910E+00 -1.51973982E+01  7.59869910E+00  7.59869910E+00
 -1.51973982E+01  7.59869910E+00  7.59869910E+00 -1.51973982E+01  7.59869910E+00
  7.59869910E+00 -1.51973982E+01  7.59869910E+00  7.59869910E+00 -1.51973982E+01
  7.59869910E+00  7.59869910E+00 -1.51973982E+01  7.59869910E+00  7.59869910E+00
 -1.51973982E+01  7.59869910E+00  7.59869910E+00 -1.51973982E+01  7.59869910E+00
  7.59869910E+00 -1.51973982E+01  7.59869910E+00  7.59869910E+00 -1.51973982E+01
  7.59869910E+00  7.59869910E+00 -1.51973982E+01  7.59869910E+00  7.59869910E+00
 -1.51973982E+01  7.59869910E+00  7.59869910E+00 -1.51973982E+01  7.59869910E+00
  7.59869910E+00 -1.51973982E+01  7.59869910E+00  7.59869910E+00 -1.51973982E+01
  7.59869910E+00  7.59869910E+00 -1.51973982E+01  7.59869910E+00  7.59869910E+00
 -1.51973982E+01  7.59869910E+00  7.59869910E+00 -1.51973982E+01  7.59869910E+00
  7.59869910E+00 -1.51973982E+01  7.59869910E+00  7.59869910E+00 -1.51973982E+01
  7.59869910E+00  7.59869910E+00 -1.51973982E+01  7.59869910E+00  7.59869910E+00
 -1.51973982E+01  7.59869910E+00  7.59869910E+00 -1.51973982E+01  7.59869910E+00
  7.59869910E+00 -1.51973982E+01  7.59869910E+00  7.59869910E+00 -1.51973982E+01
  7.59869910E+00  7.59869910E+00 -1.51973982E+01  7.59869910E+00  7.59869910E+00
 -1.51973982E+01  7.59869910E+00  7.59869910E+00 -1.51973982E+01  7.59869910E+00
  7.59869910E+00 -1.51973982E+01  7.59869910E+00  7.59869910E+00 -1.51973982E+01
  7.59869910E+00  7.59869910E+00 -1.51973982E+01  7.59869910E+00  7.59869910E+00
 -1.51973982E+01  7.59869910E+00  7.59869910E+00 -1.51973982E+01  7.59869910E+00
  7.59869910E+00 -1.51973982E+01  7.59869910E+00  7.59869910E+00 -1.51973982E+01
  7.59869910E+00  7.59869910E+00 -1.51973982E+01  7.59869910E+00  7.59869910E+00
 -1.51973982E+01  7.59869910E+00  7.59869910E+00 -1.51973982E+01  7.59869910E+00
  7.59869910E+00 -1.51973982E+01  7.59869910E+00  7.59869910E+00 -1.51973982E+01
  7.59869910E+00  7.59869910E+00 -1.51973982E+01  7.59869910E+00  7.59869910E+00
 -1.51973982E+01  7.59869910E+00  7.59869910E+00 -1.51973982E+01  7.59869910E+00
  7.59869910E+00 -1.51973982E+01  7.59869910E+00  7.59869910E+00 -1.51973982E+01
  7.59869910E+00  7.59869910E+00 -1.51973982E+01  7.59869910E+00  7.59869910E+00
 -1.51973982E+01  7.59869910E+00  7.59869910E+00 -1.51973982E+01  7.59869910E+00
  7.59869910E+00 -1.51973982E+01  7.59869910E+00  7.59869910E+00 -1.51973982E+01
  7.59869910E+00  7.59869910E+00 -1.51973982E+01  7.59869910E+00  7.59869910E+00
 -1.51973982E+01  7.59869910E+00  7.59869910E+00 -1.51973982E+01  7.59869910E+00
  7.59869910E+00 -1.51973982E+01  7.59869910E+00  7.59869910E+00 -1.51973982E+01
  7.59869910E+00  7.59869910E+00 -1.51973982E+01  7.59869910E+00  7.59869910E+00
 -1.51973982E+01  7.59869910E+00  7.59869910E+00 -1.51973982E+01  7.59869910E+00
  7.59869910E+00 -1.51973982E+01  7.59869910E+00  7.59869910E+00 -1.51973982E+01
  7.59869910E+00  7.59869910E+00 -1.51973982E+01  7.59869910E+00  7.59869910E+00
 -1.51973982E+01  7.59869910E+00  7.59869910E+00 -1.51973982E+01  7.59869910E+00
  7.59869910E+00 -1.51973982E+01  7.59869910E+00  7.59869910E+00 -1.51973982E+01
  7.59869910E+00  7.59869910E+00 -1.51973982E+01  7.59869910E+00  7.59869910E+00
 -1.51973982E+01  7.59869910E+00  7.59869910E+00 -1.51973982E+01  7.59869910E+00
  7.59869910E+00 -1.51973982E+01  7.59869910E+00  7.59869910E+00 -1.51973982E+01
  7.59869910E+00  7.59869910E+00 -1.51973982E+01  7.59869910E+00  7.59869910E+00
 -1.51973982E+01  7.59869910E+00  7.59869910E+00 -1.51973982E+01  7.59869910E+00
  7.59869910E+00 -1.51973982E+01  7.59869910E+00  7.59869910E+00 -1.51973982E+01
  7.59869910E+00  7.59869910E+00 -1.51973982E+01  7.59869910E+00  7.59869910E+00
 -1.51973982E+01  7.59869910E+00  7.59869910E+00 -1.51973982E+01  7.59869910E+00
  7.59869910E+00 -1.51973982E+01  7.59869910E+00  7.59869910E+00 -1.51973982E+01
  7.59869910E+00  7.59869910E+00 -1.51973982E+01  7.59869910E+00  7.59869910E+00
 -1.51973982E+01  7.59869910E+00  7.59869910E+00 -1.51973982E+01  7.59869910E+00
  7.59869910E+00 -1.51973982E+01  7.59869910E+00  7.59869910E+00 -1.51973982E+01
  7.59869910E+00  7.59869910E+00 -1.51973982E+01  7.59869910E+00  7.59869910E+00
 -1.51973982E+01  7.59869910E+00  7.59869910E+00 -1.51973982E+01  7.59869910E+00
  7.59869910E+00 -1.51973982E+01  7.59869910E+00  7.59869910E+00 -1.51973982E+01
  7.59869910E+00  7.59869910E+00 -1.51973982E+01  7.59869910E+00  7.59869910E+00
 -1.51973982E+01  7.59869910E+00  7.59869910E+00 -1.51973982E+01  7.59869910E+00
  7.59869910E+00 -1.51973982E+01  7.59869910E+00  7.59869910E+00 -1.51973982E+01
  7.59869910E+00  7.59869910E+00 -1.51973982E+01  7.59869910E+00  7.59869910E+00
 -1.51973982E+01  7.59869910E+00  7.59869910E+00 -1.51973982E+01  7.59869910E+00
  7.59869910E+00 -1.51973982E+01  7.59869910E+00  7.59869910E+00 -1.51973982E+01
  7.59869910E+00  7.59869910E+00 -1.51973982E+01  7.59869910E+00  7.59869910E+00
 -1.51973982E+01  7.59869910E+00  7.59869910E+00 -1.51973982E+01  7.59869910E+00
  7.59869910E+00 -1.51973982E+01  7.59869910E+00  7.59869910E+00 -1.51973982E+01
  7.59869910E+00  7.59869910E+00 -1.51973982E+01  7.59869910E+00  7.59869910E+00
 -1.51973982E+01  7.59869910E+00  7.59869910E+00 -1.51973982E+01  7.59869910E+00
  7.59869910E+00 -1.51973982E+01  7.59869910E+00  7.59869910E+00 -1.51973982E+01
  7.59869910E+00  7.59869910E+00 -1.51973982E+01  7.59869910E+00  7.59869910E+00
 -1.51973982E+01  7.59869910E+00  7.59869910E+00 -1.51973982E+01  7.59869910E+00
  7.59869910E+00 -1.51973982E+01  7.59869910E+00  7.59869910E+00 -1.51973982E+01
  7.59869910E+00  7.59869910E+00 -1.51973982E+01  7.59869910E+00  7.59869910E+00
 -1.51973982E+01  7.59869910E+00  7.59869910E+00 -1.51973982E+01  7.59869910E+00
  7.59869910E+00 -1.51973982E+01  7.59869910E+00  7.59869910E+00 -1.51973982E+01
  7.59869910E+00  7.59869910E+00 -1.51973982E+01  7.59869910E+00  7.59869910E+00
 -1.51973982E+01  7.59869910E+00  7.59869910E+00 -1.51973982E+01  7.59869910E+00
  7.59869910E+00 -1.51973982E+01  7.59869910E+00  7.59869910E+00 -1.51973982E+01
  7.59869910E+00  7.59869910E+00 -1.51973982E+01  7.59869910E+00  7.59869910E+00
 -1.51973982E+01  7.59869910E+00  7.59869910E+00 -1.51973982E+01  7.59869910E+00
  7.59869910E+00 -1.51973982E+01  7.59869910E+00  7.59869910E+00 -1.51973982E+01
  7.59869910E+00  7.59869910E+00 -1.51973982E+01  7.59869910E+00  7.59869910E+00
 -1.51973982E+01  7.59869910E+00  7.59869910E+00 -1.51973982E+01  7.59869910E+00
  7.59869910E+00 -1.51973982E+01  7.59869910E+00  7.59869910E+00 -1.51973982E+01
  7.59869910E+00  7.59869910E+00 -1.51973982E+01  7.59869910E+00  7.59869910E+00
 -1.51973982E+01  7.59869910E+00  7.59869910E+00 -1.51973982E+01  7.59869910E+00
  7.59869910E+00 -1.51973982E+01  7.59869910E+00  7.59869910E+00 -1.51973982E+01
  7.59869910E+00  7.59869910E+00 -1.51973982E+01  7.59869910E+00  7.59869910E+00
 -1.51973982E+01  7.59869910E+00  7.59869910E+00 -1.51973982E+01  7.59869910E+00
  7.59869910E+00 -1.51973982E+01  7.59869910E+00  7.59869910E+00 -1.51973982E+01
  7.59869910E+00  7.59869910E+00 -1.51973982E+01  7.59869910E+00  7.59869910E+00
 -1.51973982E+01  7.59869910E+00  7.59869910E+00 -1.51973982E+01  7.59869910E+00
  7.59869910E+00 -1.51973982E+01  7.59869910E+00  7.59869910E+00 -1.51973982E+01
  7.59869910E+00  7.59869910E+00 -1.51973982E+01  7.59869910E+00  7.59869910E+00
 -1.51973982E+01  7.59869910E+00  7.59869910E+00 -1.51973982E+01  7.59869910E+00
  7.59869910E+00 -1.51973982E+01  7.59869910E+00  7.59869910E+00 -1.51973982E+01
  7.59869910E+00  7.59869910E+00 -1.51973982E+01  7.59869910E+00  7.59869910E+00
 -1.51973982E+01  7.59869910E+00  7.59869910E+00 -1.51973982E+01  7.59869910E+00
  7.59869910E+00 -1.51973982E+01  7.59869910E+00  7.59869910E+00 -1.51973982E+01
  7.59869910E+00  7.59869910E+00 -1.51973982E+01  7.59869910E+00  7.59869910E+00
 -1.51973982E+01  7.59869910E+00  7.59869910E+00 -1.51973982E+01  7.59869910E+00
  7.59869910E+00 -1.51973982E+01  7.59869910E+00  7.59869910E+00 -1.51973982E+01
  7.59869910E+00  7.59869910E+00 -1.51973982E+01  7.59869910E+00  7.59869910E+00
 -1.51973982E+01  7.59869910E+00  7.59869910E+00 -1.51973982E+01  7.59869910E+00
  7.59869910E+00 -1.51973982E+01  7.59869910E+00  7.59869910E+00 -1.51973982E+01
  7.59869910E+00  7.59869910E+00 -1.51973982E+01  7.59869910E+00  7.59869910E+00
 -1.51973982E+01  7.59869910E+00  7.59869910E+00 -1.51973982E+01  7.59869910E+00
  7.59869910E+00 -1.51973982E+01  7.59869910E+00  7.59869910E+00 -1.51973982E+01
  7.59869910E+00  7.59869910E+00 -1.51973982E+01  7.59869910E+00  7.59869910E+00
 -1.51973982E+01  7.59869910E+00  7.59869910E+00 -1.51973982E+01  7.59869910E+00
  7.59869910E+00 -1.51973982E+01  7.59869910E+00  7.59869910E+00 -1.51973982E+01
  7.59869910E+00  7.59869910E+00 -1.51973982E+01  7.59869910E+00  7.59869910E+00
 -1.51973982E+01  7.59869910E+00  7.59869910E+00 -1.51973982E+01  7.59869910E+00
  7.59869910E+00 -1.51973982E+01  7.59869910E+00  7.59869910E+00 -1.51973982E+01
  7.59869910E+00  7.59869910E+00 -1.51973982E+01  7.59869910E+00  7.59869910E+00
 -1.51973982E+01  7.59869910E+00  7.59869910E+00 -1.51973982E+01  7.59869910E+00
  7.59869910E+00 -1.51973982E+01  7.59869910E+00  7.59869910E+00 -1.51973982E+01
  7.59869910E+00  7.59869910E+00 -1.51973982E+01  7.59869910E+00  7.59869910E+00
 -1.51973982E+01  7.59869910E+00  7.59869910E+00 -1.51973982E+01  7.59869910E+00
  7.59869910E+00 -1.51973982E+01  7.59869910E+00  7.59869910E+00 -1.51973982E+01
  7.59869910E+00  7.59869910E+00 -1.51973982E+01  7.59869910E+00  7.59869910E+00
 -1.51973982E+01  7.59869910E+00  7.59869910E+00 -1.51973982E+01  7.59869910E+00
  7.59869910E+00 -1.51973982E+01  7.59869910E+00  7.59869910E+00 -1.51973982E+01
  7.59869910E+00  7.59869910E+00 -1.51973982E+01  7.59869910E+00  7.59869910E+00
 -1.51973982E+01  7.59869910E+00  7.59869910E+00 -1.51973982E+01  7.59869910E+00
  7.59869910E+00 -1.51973982E+01  7.59869910E+00  7.59869910E+00 -1.51973982E+01
  7.59869910E+00  7.59869910E+00 -1.51973982E+01  7.59869910E+00  7.59869910E+00
 -1.51973982E+01  7.59869910E+00  7.59869910E+00 -1.51973982E+01  7.59869910E+00
  7.59869910E+00 -1.51973982E+01  7.59869910E+00  7.59869910E+00 -1.51973982E+01
  7.59869910E+00  7.59869910E+00 -1.51973982E+01  7.59869910E+00  7.59869910E+00
 -1.51973982E+01  7.59869910E+00  7.59869910E+00 -1.51973982E+01  7.59869910E+00
  7.59869910E+00 -1.51973982E+01  7.59869910E+00  7.59869910E+00 -1.51973982E+01
  7.59869910E+00  7.59869910E+00 -1.51973982E+01  7.59869910E+00  7.59869910E+00
 -1.51973982E+01  7.59869910E+00  7.59869910E+00 -1.51973982E+01  7.59869910E+00
  7.59869910E+00 -1.51973982E+01  7.59869910E+00  7.59869910E+00 -1.51973982E+01
  7.59869910E+00  7.59869910E+00 -1.51973982E+01  7.59869910E+00  7.59869910E+00
 -1.51973982E+01  7.59869910E+00  7.59869910E+00 -1.51973982E+01  7.59869910E+00
  7.59869910E+00 -1.51973982E+01  7.59869910E+00  7.59869910E+00 -1.51973982E+01
  7.59869910E+00  7.59869910E+00 -1.51973982E+01  7.59869910E+00  7.59869910E+00
 -1.51973982E+01  7.59869910E+00  7.59869910E+00 -1.51973982E+01  7.59869910E+00
  7.59869910E+00 -1.51973982E+01  7.59869910E+00  7.59869910E+00 -1.51973982E+01
  7.59869910E+00  7.59869910E+00 -1.51973982E+01  7.59869910E+00  7.59869910E+00
 -1.51973982E+01  7.59869910E+00  7.59869910E+00 -1.51973982E+01  7.59869910E+00
  7.59869910E+00 -1.51973982E+01  7.59869910E+00  7.59869910E+00 -1.51973982E+01
  7.59869910E+00  7.59869910E+00 -1.51973982E+01  7.59869910E+00  7.59869910E+00
 -1.51973982E+01  7.59869910E+00  7.59869910E+00 -1.51973982E+01  7.59869910E+00
  7.59869910E+00 -1.51973982E+01  7.59869910E+00  7.59869910E+00 -1.51973982E+01
  7.59869910E+00  7.59869910E+00 -1.51973982E+01  7.59869910E+00  7.59869910E+00
 -1.51973982E+01  7.59869910E+00  7.59869910E+00 -1.51973982E+01  7.59869910E+00
  7.59869910E+00 -1.51973982E+01  7.59869910E+00  7.59869910E+00 -1.51973982E+01
  7.59869910E+00  7.59869910E+00 -1.51973982E+01  7.59869910E+00  7.59869910E+00
 -1.51973982E+01  7.59869910E+00  7.59869910E+00 -1.51973982E+01  7.59869910E+00
  7.59869910E+00 -1.51973982E+01  7.59869910E+00  7.59869910E+00 -1.51973982E+01
  7.59869910E+00  7.59869910E+00 -1.51973982E+01  7.59869910E+00  7.59869910E+00
 -1.51973982E+01  7.59869910E+00  7.59869910E+00 -1.51973982E+01  7.59869910E+00
  7.59869910E+00 -1.51973982E+01  7.59869910E+00  7.59869910E+00 -1.51973982E+01
  7.59869910E+00  7.59869910E+00 -1.51973982E+01  7.59869910E+00  7.59869910E+00
 -1.51973982E+01  7.59869910E+00  7.59869910E+00 -1.51973982E+01  7.59869910E+00
  7.59869910E+00 -1.51973982E+01  7.59869910E+00  7.59869910E+00 -1.51973982E+01
  7.59869910E+00  7.59869910E+00 -1.51973982E+01  7.59869910E+00  7.59869910E+00
 -1.51973982E+01  7.59869910E+00  7.59869910E+00 -1.51973982E+01  7.59869910E+00
  7.59869910E+00 -1.51973982E+01  7.59869910E+00  7.59869910E+00 -1.51973982E+01
  7.59869910E+00  7.59869910E+00 -1.51973982E+01  7.59869910E+00  7.59869910E+00
 -1.51973982E+01  7.59869910E+00  7.59869910E+00 -1.51973982E+01  7.59869910E+00
  7.59869910E+00 -1.51973982E+01  7.59869910E+00  7.59869910E+00 -1.51973982E+01
  7.59869910E+00  7.59869910E+00 -1.51973982E+01  7.59869910E+00  7.59869910E+00
 -1.51973982E+01  7.59869910E+00  7.59869910E+00 -1.51973982E+01  7.59869910E+00
  7.59869910E+00 -1.51973982E+01  7.59869910E+00  7.59869910E+00 -1.51973982E+01
  7.59869910E+00  7.59869910E+00 -1.51973982E+01  7.59869910E+00  7.59869910E+00
 -1.51973982E+01  7.59869910E+00  7.59869910E+00 -1.51973982E+01  7.59869910E+00
  7.59869910E+00 -1.51973982E+01  7.59869910E+00  7.59869910E+00 -1.51973982E+01
  7.59869910E+00  7.59869910E+00 -1.51973982E+01  7.59869910E+00  7.59869910E+00
 -1.51973982E+01  7.59869910E+00  7.59869910E+00 -1.51973982E+01  7.59869910E+00
  7.59869910E+00 -1.51973982E+01  7.59869910E+00  7.59869910E+00 -1.51973982E+01
  7.59869910E+00  7.59869910E+00 -1.51973982E+01  7.59869910E+00  7.59869910E+00
 -1.51973982E+01  7.59869910E+00  7.59869910E+00 -1.51973982E+01  7.59869910E+00
  7.59869910E+00 -1.51973982E+01  7.59869910E+00  7.59869910E+00 -1.51973982E+01
  7.59869910E+00  7.59869910E+00 -1.51973982E+01  7.59869910E+00  7.59869910E+00
 -1.51973982E+01  7.59869910E+00  7.59869910E+00 -1.51973982E+01  7.59869910E+00
  7.59869910E+00 -1.51973982E+01  7.59869910E+00  7.59869910E+00 -1.51973982E+01
  7.59869910E+00  7.59869910E+00 -1.51973982E+01  7.59869910E+00  7.59869910E+00
 -1.51973982E+01  7.59869910E+00  7.59869910E+00 -1.51973982E+01  7.59869910E+00
  7.59869910E+00 -1.51973982E+01  7.59869910E+00  7.59869910E+00 -1.51973982E+01
  7.59869910E+00  7.59869910E+00 -1.51973982E+01  7.59869910E+00  7.59869910E+00
 -1.51973982E+01  7.59869910E+00  7.59869910E+00 -1.51973982E+01  7.59869910E+00
  7.59869910E+00 -1.51973982E+01  7.59869910E+00  7.59869910E+00 -1.51973982E+01
  7.59869910E+00  7.59869910E+00 -1.51973982E+01  7.59869910E+00  7.59869910E+00
 -1.51973982E+01  7.59869910E+00  7.59869910E+00 -1.51973982E+01  7.59869910E+00
  7.59869910E+00 -1.51973982E+01  7.59869910E+00  7.59869910E+00 -1.51973982E+01
  7.59869910E+00  7.59869910E+00 -1.51973982E+01  7.59869910E+00  7.59869910E+00
 -1.51973982E+01  7.59869910E+00  7.59869910E+00 -1.51973982E+01  7.59869910E+00
  7.59869910E+00 -1.51973982E+01  7.59869910E+00  7.59869910E+00 -1.51973982E+01
  7.59869910E+00  7.59869910E+00 -1.51973982E+01  7.59869910E+00  7.59869910E+00
 -1.51973982E+01  7.59869910E+00  7.59869910E+00 -1.51973982E+01  7.59869910E+00
  7.59869910E+00 -1.51973982E+01  7.59869910E+00  7.59869910E+00 -1.51973982E+01
  7.59869910E+00  7.59869910E+00 -1.51973982E+01  7.59869910E+00  7.59869910E+00
 -1.51973982E+01  7.59869910E+00  7.59869910E+00 -1.51973982E+01  7.59869910E+00
  7.59869910E+00 -1.51973982E+01  7.59869910E+00  7.59869910E+00 -1.51973982E+01
  7.59869910E+00  7.59869910E+00 -1.51973982E+01  7.59869910E+00  7.59869910E+00
 -1.51973982E+01  7.59869910E+00  7.59869910E+00 -1.51973982E+01  7.59869910E+00
  7.59869910E+00 -1.51973982E+01  7.59869910E+00  7.59869910E+00 -1.51973982E+01
  7.59869910E+00  7.59869910E+00 -1.51973982E+01  7.59869910E+00  7.59869910E+00
 -1.51973982E+01  7.59869910E+00  7.59869910E+00 -1.51973982E+01  7.59869910E+00
  7.59869910E+00 -1.51973982E+01  7.59869910E+00  7.59869910E+00 -1.51973982E+01
  7.59869910E+00  7.59869910E+00 -1.51973982E+01  7.59869910E+00  7.59869910E+00
 -1.51973982E+01  7.59869910E+00  7.59869910E+00 -1.51973982E+01  7.59869910E+00
  7.59869910E+00 -1.51973982E+01  7.59869910E+00  7.59869910E+00 -1.51973982E+01
  7.59869910E+00  7.59869910E+00 -1.51973982E+01  7.59869910E+00  7.59869910E+00
 -1.51973982E+01  7.59869910E+00  7.59869910E+00 -1.51973982E+01  7.59869910E+00
  7.59869910E+00 -1.51973982E+01  7.59869910E+00  7.59869910E+00 -1.51973982E+01
  7.59869910E+00  7.59869910E+00 -1.51973982E+01  7.59869910E+00  7.59869910E+00
 -1.51973982E+01  7.59869910E+00  7.59869910E+00 -1.51973982E+01  7.59869910E+00
  7.59869910E+00 -1.51973982E+01  7.59869910E+00  7.59869910E+00 -1.51973982E+01
  7.59869910E+00  7.59869910E+00 -1.51973982E+01  7.59869910E+00  7.59869910E+00
 -1.51973982E+01  7.59869910E+00  7.59869910E+00 -1.51973982E+01  7.59869910E+00
  7.59869910E+00 -1.51973982E+01  7.59869910E+00  7.59869910E+00 -1.51973982E+01
  7.59869910E+00  7.59869910E+00 -1.51973982E+01  7.59869910E+00  7.59869910E+00
 -1.51973982E+01  7.59869910E+00  7.59869910E+00 -1.51973982E+01  7.59869910E+00
  7.59869910E+00 -1.51973982E+01  7.59869910E+00  7.59869910E+00 -1.51973982E+01
  7.59869910E+00  7.59869910E+00 -1.51973982E+01  7.59869910E+00  7.59869910E+00
 -1.51973982E+01  7.59869910E+00  7.59869910E+00 -1.51973982E+01  7.59869910E+00
  7.59869910E+00 -1.51973982E+01  7.59869910E+00  7.59869910E+00 -1.51973982E+01
  7.59869910E+00  7.59869910E+00 -1.51973982E+01  7.59869910E+00  7.59869910E+00
 -1.51973982E+01  7.59869910E+00  7.59869910E+00 -1.51973982E+01  7.59869910E+00
  7.59869910E+00 -1.51973982E+01  7.59869910E+00  7.59869910E+00 -1.51973982E+01
  7.59869910E+00  7.59869910E+00 -1.51973982E+01  7.59869910E+00  7.59869910E+00
 -1.51973982E+01  7.59869910E+00  7.59869910E+00 -1.51973982E+01  7.59869910E+00
  7.59869910E+00 -1.51973982E+01  7.59869910E+00  7.59869910E+00 -1.51973982E+01
  7.59869910E+00  7.59869910E+00 -1.51973982E+01  7.59869910E+00  7.59869910E+00
 -1.51973982E+01  7.59869910E+00  7.59869910E+00 -1.51973982E+01  7.59869910E+00
  7.59869910E+00 -1.51973982E+01  7.59869910E+00  7.59869910E+00 -1.51973982E+01
  7.59869910E+00  7.59869910E+00 -1.51973982E+01  7.59869910E+00  7.59869910E+00
 -1.51973982E+01  7.59869910E+00  7.59869910E+00 -1.51973982E+01  7.59869910E+00
  7.59869910E+00 -1.51973982E+01  7.59869910E+00  7.59869910E+00 -1.51973982E+01
  7.59869910E+00  7.59869910E+00 -1.51973982E+01  7.59869910E+00  7.59869910E+00
 -1.51973982E+01  7.59869910E+00  7.59869910E+00 -1.51973982E+01  7.59869910E+00
  7.59869910E+00 -1.51973982E+01  7.59869910E+00  7.59869910E+00 -1.51973982E+01
  7.59869910E+00  7.59869910E+00 -1.51973982E+01  7.59869910E+00  7.59869910E+00
 -1.51973982E+01  7.59869910E+00  7.59869910E+00 -1.51973982E+01  7.59869910E+00
  7.59869910E+00 -1.51973982E+01  7.59869910E+00  7.59869910E+00 -1.51973982E+01
  7.59869910E+00  7.59869910E+00 -1.51973982E+01  7.59869910E+00  7.59869910E+00
 -1.51973982E+01  7.59869910E+00  7.59869910E+00 -1.51973982E+01  7.59869910E+00
  7.59869910E+00 -1.51973982E+01  7.59869910E+00  7.59869910E+00 -1.51973982E+01
  7.59869910E+00  7.59869910E+00 -1.51973982E+01  7.59869910E+00  7.59869910E+00
 -1.51973982E+01  7.59869910E+00  7.59869910E+00 -1.51973982E+01  7.59869910E+00
  7.59869910E+00 -1.51973982E+01  7.59869910E+00  7.59869910E+00 -1.51973982E+01
  7.59869910E+00  7.59869910E+00 -1.51973982E+01  7.59869910E+00  7.59869910E+00
 -1.51973982E+01  7.59869910E+00  7.59869910E+00 -1.51973982E+01  7.59869910E+00
  7.59869910E+00 -1.51973982E+01  7.59869910E+00  7.59869910E+00 -1.51973982E+01
  7.59869910E+00  7.59869910E+00 -1.51973982E+01  7.59869910E+00  7.59869910E+00
 -1.51973982E+01  7.59869910E+00  7.59869910E+00 -1.51973982E+01  7.59869910E+00
  7.59869910E+00 -1.51973982E+01  7.59869910E+00  7.59869910E+00 -1.51973982E+01
  7.59869910E+00  7.59869910E+00 -1.51973982E+01  7.59869910E+00  7.59869910E+00
 -1.51973982E+01  7.59869910E+00  7.59869910E+00 -1.51973982E+01  7.59869910E+00
  7.59869910E+00 -1.51973982E+01  7.59869910E+00  7.59869910E+00 -1.51973982E+01
  7.59869910E+00  7.59869910E+00 -1.51973982E+01  7.59869910E+00  7.59869910E+00
 -1.51973982E+01  7.59869910E+00  7.59869910E+00 -1.51973982E+01  7.59869910E+00
  7.59869910E+00 -1.51973982E+01  7.59869910E+00  7.59869910E+00 -1.51973982E+01
  7.59869910E+00  7.59869910E+00 -1.51973982E+01  7.59869910E+00  7.59869910E+00
 -1.51973982E+01  7.59869910E+00  7.59869910E+00 -1.51973982E+01  7.59869910E+00
  7.59869910E+00 -1.51973982E+01  7.59869910E+00  7.59869910E+00 -1.51973982E+01
  7.59869910E+00  7.59869910E+00 -1.51973982E+01  7.59869910E+00  7.59869910E+00
 -1.51973982E+01  7.59869910E+00  7.59869910E+00 -1.51973982E+01  7.59869910E+00
  7.59869910E+00 -1.51973982E+01  7.59869910E+00  7.59869910E+00 -1.51973982E+01
  7.59869910E+00  7.59869910E+00 -1.51973982E+01  7.59869910E+00  7.59869910E+00
 -1.51973982E+01  7.59869910E+00  7.59869910E+00 -1.51973982E+01  7.59869910E+00
  7.59869910E+00 -1.51973982E+01  7.59869910E+00  7.59869910E+00 -1.51973982E+01
  7.59869910E+00  7.59869910E+00 -1.51973982E+01  7.59869910E+00  7.59869910E+00
 -1.51973982E+01  7.59869910E+00  7.59869910E+00 -1.51973982E+01  7.59869910E+00
  7.59869910E+00 -1.51973982E+01  7.59869910E+00  7.59869910E+00 -1.51973982E+01
  7.59869910E+00  7.59869910E+00 -1.51973982E+01  7.59869910E+00  7.59869910E+00
 -1.51973982E+01  7.59869910E+00  7.59869910E+00 -1.51973982E+01  7.59869910E+00
  7.59869910E+00 -1.51973982E+01  7.59869910E+00  7.59869910E+00 -1.51973982E+01
  7.59869910E+00  7.59869910E+00 -1.51973982E+01  7.59869910E+00  7.59869910E+00
 -1.51973982E+01  7.59869910E+00  7.59869910E+00 -1.51973982E+01  7.59869910E+00
  7.59869910E+00 -1.51973982E+01  7.59869910E+00  7.59869910E+00 -1.51973982E+01
  7.59869910E+00  7.59869910E+00 -1.51973982E+01  7.59869910E+00  7.59869910E+00
 -1.51973982E+01  7.59869910E+00  7.59869910E+00 -1.51973982E+01  7.59869910E+00
  7.59869910E+00 -1.51973982E+01  7.59869910E+00  7.59869910E+00 -1.51973982E+01
  7.59869910E+00  7.59869910E+00 -1.51973982E+01  7.59869910E+00  7.59869910E+00
 -1.51973982E+01  7.59869910E+00  7.59869910E+00 -1.51973982E+01  7.59869910E+00
  7.59869910E+00 -1.51973982E+01  7.59869910E+00  7.59869910E+00 -1.51973982E+01
  7.59869910E+00  7.59869910E+00 -1.51973982E+01  7.59869910E+00  7.59869910E+00
 -1.51973982E+01  7.59869910E+00  7.59869910E+00 -1.51973982E+01  7.59869910E+00
  7.59869910E+00 -1.51973982E+01  7.59869910E+00  7.59869910E+00 -1.51973982E+01
  7.59869910E+00  7.59869910E+00 -1.51973982E+01  7.59869910E+00  7.59869910E+00
 -1.51973982E+01  7.59869910E+00  7.59869910E+00 -1.51973982E+01  7.59869910E+00
  7.59869910E+00 -1.51973982E+01  7.59869910E+00  7.59869910E+00 -1.51973982E+01
  7.59869910E+00  7.59869910E+00 -1.51973982E+01  7.59869910E+00  7.59869910E+00
 -1.51973982E+01  7.59869910E+00  7.59869910E+00 -1.51973982E+01  7.59869910E+00
  7.59869910E+00 -1.51973982E+01  7.59869910E+00  7.59869910E+00 -1.51973982E+01
  7.59869910E+00  7.59869910E+00 -1.51973982E+01  7.59869910E+00  7.59869910E+00
 -1.51973982E+01  7.59869910E+00  7.59869910E+00 -1.51973982E+01  7.59869910E+00
  7.59869910E+00 -1.51973982E+01  7.59869910E+00  7.59869910E+00 -1.51973982E+01
  7.59869910E+00  7.59869910E+00 -1.51973982E+01  7.59869910E+00  7.59869910E+00
 -1.51973982E+01  7.59869910E+00  7.59869910E+00 -1.51973982E+01  7.59869910E+00
  7.59869910E+00 -1.51973982E+01  7.59869910E+00  7.59869910E+00 -1.51973982E+01
  7.59869910E+00  7.59869910E+00 -1.51973982E+01  7.59869910E+00  7.59869910E+00
 -1.51973982E+01  7.59869910E+00  7.59869910E+00 -1.51973982E+01  7.59869910E+00
  7.59869910E+00 -1.51973982E+01  7.59869910E+00  7.59869910E+00 -1.51973982E+01
  7.59869910E+00  7.59869910E+00 -1.51973982E+01  7.59869910E+00  7.59869910E+00
 -1.51973982E+01  7.59869910E+00  7.59869910E+00 -1.51973982E+01  7.59869910E+00
  7.59869910E+00 -1.51973982E+01  7.59869910E+00  7.59869910E+00 -1.51973982E+01
  7.59869910E+00  7.59869910E+00 -1.51973982E+01  7.59869910E+00  7.59869910E+00
 -1.51973982E+01  7.59869910E+00  7.59869910E+00 -1.51973982E+01  7.59869910E+00
  7.59869910E+00 -1.51973982E+01  7.59869910E+00  7.59869910E+00 -1.51973982E+01
  7.59869910E+00  7.59869910E+00 -1.51973982E+01  7.59869910E+00  7.59869910E+00
 -1.51973982E+01  7.59869910E+00  7.59869910E+00 -1.51973982E+01  7.59869910E+00
  7.59869910E+00 -1.51973982E+01  7.59869910E+00  7.59869910E+00 -1.51973982E+01
  7.59869910E+00  7.59869910E+00 -1.51973982E+01  7.59869910E+00  7.59869910E+00
 -1.51973982E+01  7.59869910E+00  7.59869910E+00 -1.51973982E+01  7.59869910E+00
  7.59869910E+00 -1.51973982E+01  7.59869910E+00  7.59869910E+00 -1.51973982E+01
  7.59869910E+00  7.59869910E+00 -1.51973982E+01  7.59869910E+00  7.59869910E+00
 -1.51973982E+01  7.59869910E+00  7.59869910E+00 -1.51973982E+01  7.59869910E+00
  7.59869910E+00 -1.51973982E+01  7.59869910E+00  7.59869910E+00 -1.51973982E+01
  7.59869910E+00  7.59869910E+00 -1.51973982E+01  7.59869910E+00  7.59869910E+00
 -1.51973982E+01  7.59869910E+00  7.59869910E+00 -1.51973982E+01  7.59869910E+00
  7.59869910E+00 -1.51973982E+01  7.59869910E+00  7.59869910E+00 -1.51973982E+01
  7.59869910E+00  7.59869910E+00 -1.51973982E+01  7.59869910E+00  7.59869910E+00
 -1.51973982E+01  7.59869910E+00  7.59869910E+00 -1.51973982E+01  7.59869910E+00
  7.59869910E+00 -1.51973982E+01  7.59869910E+00  7.59869910E+00 -1.51973982E+01
  7.59869910E+00  7.59869910E+00 -1.51973982E+01  7.59869910E+00  7.59869910E+00
 -1.51973982E+01  7.59869910E+00  7.59869910E+00 -1.51973982E+01  7.59869910E+00
  7.59869910E+00 -1.51973982E+01  7.59869910E+00  7.59869910E+00 -1.51973982E+01
  7.59869910E+00  7.59869910E+00 -1.51973982E+01  7.59869910E+00  7.59869910E+00
 -1.51973982E+01  7.59869910E+00  7.59869910E+00 -1.51973982E+01  7.59869910E+00
  7.59869910E+00 -1.51973982E+01  7.59869910E+00  7.59869910E+00 -1.51973982E+01
  7.59869910E+00  7.59869910E+00 -1.51973982E+01  7.59869910E+00  7.59869910E+00
 -1.51973982E+01  7.59869910E+00  7.59869910E+00 -1.51973982E+01  7.59869910E+00
  7.59869910E+00 -1.51973982E+01  7.59869910E+00  7.59869910E+00 -1.51973982E+01
  7.59869910E+00  7.59869910E+00 -1.51973982E+01  7.59869910E+00  7.59869910E+00
 -1.51973982E+01  7.59869910E+00  7.59869910E+00 -1.51973982E+01  7.59869910E+00
  7.59869910E+00 -1.51973982E+01  7.59869910E+00  7.59869910E+00 -1.51973982E+01
  7.59869910E+00  7.59869910E+00 -1.51973982E+01  7.59869910E+00  7.59869910E+00
 -1.51973982E+01  7.59869910E+00  7.59869910E+00 -1.51973982E+01  7.59869910E+00
  7.59869910E+00 -1.51973982E+01  7.59869910E+00  7.59869910E+00 -1.51973982E+01
  7.59869910E+00  7.59869910E+00 -1.51973982E+01  7.59869910E+00  7.59869910E+00
 -1.51973982E+01  7.59869910E+00  7.59869910E+00 -1.51973982E+01  7.59869910E+00
  7.59869910E+00 -1.51973982E+01  7.59869910E+00  7.59869910E+00 -1.51973982E+01
  7.59869910E+00  7.59869910E+00 -1.51973982E+01  7.59869910E+00  7.59869910E+00
 -1.51973982E+01  7.59869910E+00  7.59869910E+00 -1.51973982E+01  7.59869910E+00
  7.59869910E+00 -1.51973982E+01  7.59869910E+00  7.59869910E+00 -1.51973982E+01
  7.59869910E+00  7.59869910E+00 -1.51973982E+01  7.59869910E+00  7.59869910E+00
 -1.51973982E+01  7.59869910E+00  7.59869910E+00 -1.51973982E+01  7.59869910E+00
  7.59869910E+00 -1.51973982E+01  7.59869910E+00  7.59869910E+00 -1.51973982E+01
  7.59869910E+00  7.59869910E+00 -1.51973982E+01  7.59869910E+00  7.59869910E+00
 -1.51973982E+01  7.59869910E+00  7.59869910E+00 -1.51973982E+01  7.59869910E+00
  7.59869910E+00 -1.51973982E+01  7.59869910E+00  7.59869910E+00 -1.51973982E+01
  7.59869910E+00  7.59869910E+00 -1.51973982E+01  7.59869910E+00  7.59869910E+00
 -1.51973982E+01  7.59869910E+00  7.59869910E+00 -1.51973982E+01  7.59869910E+00
  7.59869910E+00 -1.51973982E+01  7.59869910E+00  7.59869910E+00 -1.51973982E+01
  7.59869910E+00  7.59869910E+00 -1.51973982E+01  7.59869910E+00  7.59869910E+00
 -1.51973982E+01  7.59869910E+00  7.59869910E+00 -1.51973982E+01  7.59869910E+00
  7.59869910E+00 -1.51973982E+01  7.59869910E+00  7.59869910E+00 -1.51973982E+01
  7.59869910E+00  7.59869910E+00 -1.51973982E+01  7.59869910E+00  7.59869910E+00
 -1.51973982E+01  7.59869910E+00  7.59869910E+00 -1.51973982E+01  7.59869910E+00
  7.59869910E+00 -1.51973982E+01  7.59869910E+00  7.59869910E+00 -1.51973982E+01
  7.59869910E+00  7.59869910E+00 -1.51973982E+01  7.59869910E+00  7.59869910E+00
 -1.51973982E+01  7.59869910E+00  7.59869910E+00 -1.51973982E+01  7.59869910E+00
  7.59869910E+00 -1.51973982E+01  7.59869910E+00  7.59869910E+00 -1.51973982E+01
  7.59869910E+00  7.59869910E+00 -1.51973982E+01  7.59869910E+00  7.59869910E+00
 -1.51973982E+01  7.59869910E+00  7.59869910E+00 -1.51973982E+01  7.59869910E+00
  7.59869910E+00 -1.51973982E+01  7.59869910E+00  7.59869910E+00 -1.51973982E+01
  7.59869910E+00  7.59869910E+00 -1.51973982E+01  7.59869910E+00  7.59869910E+00
 -1.51973982E+01  7.59869910E+00  7.59869910E+00 -1.51973982E+01  7.59869910E+00
  7.59869910E+00 -1.51973982E+01  7.59869910E+00  7.59869910E+00 -1.51973982E+01
  7.59869910E+00  7.59869910E+00 -1.51973982E+01  7.59869910E+00  7.59869910E+00
 -1.51973982E+01  7.59869910E+00  7.59869910E+00 -1.51973982E+01  7.59869910E+00
  7.59869910E+00 -1.51973982E+01  7.59869910E+00  7.59869910E+00 -1.51973982E+01
  7.59869910E+00  7.59869910E+00 -1.51973982E+01  7.59869910E+00  7.59869910E+00
 -1.51973982E+01  7.59869910E+00  7.59869910E+00 -1.51973982E+01  7.59869910E+00
  7.59869910E+00 -1.51973982E+01  7.59869910E+00  7.59869910E+00 -1.51973982E+01
  7.59869910E+00  7.59869910E+00 -1.51973982E+01  7.59869910E+00  7.59869910E+00
 -1.51973982E+01  7.59869910E+00  7.59869910E+00 -1.51973982E+01  7.59869910E+00
  7.59869910E+00 -1.51973982E+01  7.59869910E+00  7.59869910E+00 -1.51973982E+01
  7.59869910E+00  7.59869910E+00 -1.51973982E+01  7.59869910E+00  7.59869910E+00
 -1.51973982E+01  7.59869910E+00  7.59869910E+00 -1.51973982E+01  7.59869910E+00
  7.59869910E+00 -1.51973982E+01  7.59869910E+00  7.59869910E+00 -1.51973982E+01
  7.59869910E+00  7.59869910E+00 -1.51973982E+01  7.59869910E+00  7.59869910E+00
 -1.51973982E+01  7.59869910E+00  7.59869910E+00 -1.51973982E+01  7.59869910E+00
  7.59869910E+00 -1.51973982E+01  7.59869910E+00  7.59869910E+00 -1.51973982E+01
  7.59869910E+00  7.59869910E+00 -1.51973982E+01  7.59869910E+00  7.59869910E+00
 -1.51973982E+01  7.59869910E+00  7.59869910E+00 -1.51973982E+01  7.59869910E+00
  7.59869910E+00 -1.51973982E+01  7.59869910E+00  7.59869910E+00 -1.51973982E+01
  7.59869910E+00  7.59869910E+00 -1.51973982E+01  7.59869910E+00  7.59869910E+00
 -1.51973982E+01  7.59869910E+00  7.59869910E+00 -1.51973982E+01  7.59869910E+00
  7.59869910E+00 -1.51973982E+01  7.59869910E+00  7.59869910E+00 -1.51973982E+01
  7.59869910E+00  7.59869910E+00 -1.51973982E+01  7.59869910E+00  7.59869910E+00
 -1.51973982E+01  7.59869910E+00  7.59869910E+00 -1.51973982E+01  7.59869910E+00
  7.59869910E+00 -1.51973982E+01  7.59869910E+00  7.59869910E+00 -1.51973982E+01
  7.59869910E+00  7.59869910E+00 -1.51973982E+01  7.59869910E+00  7.59869910E+00
 -1.51973982E+01  7.59869910E+00  7.59869910E+00 -1.51973982E+01  7.59869910E+00
  7.59869910E+00 -1.51973982E+01  7.59869910E+00  7.59869910E+00 -1.51973982E+01
  7.59869910E+00  7.59869910E+00 -1.51973982E+01  7.59869910E+00  7.59869910E+00
 -1.51973982E+01  7.59869910E+00  7.59869910E+00 -1.51973982E+01  7.59869910E+00
  7.59869910E+00 -1.51973982E+01  7.59869910E+00  7.59869910E+00 -1.51973982E+01
  7.59869910E+00  7.59869910E+00 -1.51973982E+01  7.59869910E+00  7.59869910E+00
 -1.51973982E+01  7.59869910E+00  7.59869910E+00 -1.51973982E+01  7.59869910E+00
  7.59869910E+00 -1.51973982E+01  7.59869910E+00  7.59869910E+00 -1.51973982E+01
  7.59869910E+00  7.59869910E+00 -1.51973982E+01  7.59869910E+00  7.59869910E+00
 -1.51973982E+01  7.59869910E+00  7.59869910E+00 -1.51973982E+01  7.59869910E+00
  7.59869910E+00 -1.51973982E+01  7.59869910E+00  7.59869910E+00 -1.51973982E+01
  7.59869910E+00  7.59869910E+00 -1.51973982E+01  7.59869910E+00  7.59869910E+00
 -1.51973982E+01  7.59869910E+00  7.59869910E+00 -1.51973982E+01  7.59869910E+00
  7.59869910E+00 -1.51973982E+01  7.59869910E+00  7.59869910E+00 -1.51973982E+01
  7.59869910E+00  7.59869910E+00 -1.51973982E+01  7.59869910E+00  7.59869910E+00
 -1.51973982E+01  7.59869910E+00  7.59869910E+00 -1.51973982E+01  7.59869910E+00
  7.59869910E+00 -1.51973982E+01  7.59869910E+00  7.59869910E+00 -1.51973982E+01
  7.59869910E+00  7.59869910E+00 -1.51973982E+01  7.59869910E+00  7.59869910E+00
 -1.51973982E+01  7.59869910E+00  7.59869910E+00 -1.51973982E+01  7.59869910E+00
  7.59869910E+00 -1.51973982E+01  7.59869910E+00  7.59869910E+00 -1.51973982E+01
  7.59869910E+00  7.59869910E+00 -1.51973982E+01  7.59869910E+00  7.59869910E+00
 -1.51973982E+01  7.59869910E+00  7.59869910E+00 -1.51973982E+01  7.59869910E+00
  7.59869910E+00 -1.51973982E+01  7.59869910E+00  7.59869910E+00 -1.51973982E+01
  7.59869910E+00  7.59869910E+00 -1.51973982E+01  7.59869910E+00  7.59869910E+00
 -1.51973982E+01  7.59869910E+00  7.59869910E+00 -1.51973982E+01  7.59869910E+00
  7.59869910E+00 -1.51973982E+01  7.59869910E+00  7.59869910E+00 -1.51973982E+01
  7.59869910E+00  7.59869910E+00 -1.51973982E+01  7.59869910E+00  7.59869910E+00
 -1.51973982E+01  7.59869910E+00  7.59869910E+00 -1.51973982E+01  7.59869910E+00
  7.59869910E+00 -1.51973982E+01  7.59869910E+00  7.59869910E+00 -1.51973982E+01
  7.59869910E+00  7.59869910E+00 -1.51973982E+01  7.59869910E+00  7.59869910E+00
 -1.51973982E+01  7.59869910E+00  7.59869910E+00 -1.51973982E+01  7.59869910E+00
  7.59869910E+00 -1.51973982E+01  7.59869910E+00  7.59869910E+00 -1.51973982E+01
  7.59869910E+00  7.59869910E+00 -1.51973982E+01  7.59869910E+00  7.59869910E+00
 -1.51973982E+01  7.59869910E+00  7.59869910E+00 -1.51973982E+01  7.59869910E+00
  7.59869910E+00 -1.51973982E+01  7.59869910E+00  7.59869910E+00 -1.51973982E+01
  7.59869910E+00  7.59869910E+00 -1.51973982E+01  7.59869910E+00  7.59869910E+00
 -1.51973982E+01  7.59869910E+00  7.59869910E+00 -1.51973982E+01  7.59869910E+00
  7.59869910E+00 -1.51973982E+01  7.59869910E+00  7.59869910E+00 -1.51973982E+01
  7.59869910E+00  7.59869910E+00 -1.51973982E+01  7.59869910E+00  7.59869910E+00
 -1.51973982E+01  7.59869910E+00  7.59869910E+00 -1.51973982E+01  7.59869910E+00
  7.59869910E+00 -1.51973982E+01  7.59869910E+00  7.59869910E+00 -1.51973982E+01
  7.59869910E+00  7.59869910E+00 -1.51973982E+01  7.59869910E+00  7.59869910E+00
 -1.51973982E+01  7.59869910E+00  7.59869910E+00 -1.51973982E+01  7.59869910E+00
  7.59869910E+00 -1.51973982E+01  7.59869910E+00  7.59869910E+00 -1.51973982E+01
  7.59869910E+00  7.59869910E+00 -1.51973982E+01  7.59869910E+00  7.59869910E+00
 -1.51973982E+01  7.59869910E+00  7.59869910E+00 -1.51973982E+01  7.59869910E+00
  7.59869910E+00 -1.51973982E+01  7.59869910E+00  7.59869910E+00 -1.51973982E+01
  7.59869910E+00  7.59869910E+00 -1.51973982E+01  7.59869910E+00  7.59869910E+00
 -1.51973982E+01  7.59869910E+00  7.59869910E+00 -1.51973982E+01  7.59869910E+00
  7.59869910E+00 -1.51973982E+01  7.59869910E+00  7.59869910E+00 -1.51973982E+01
  7.59869910E+00  7.59869910E+00 -1.51973982E+01  7.59869910E+00  7.59869910E+00
 -1.51973982E+01  7.59869910E+00  7.59869910E+00 -1.51973982E+01  7.59869910E+00
  7.59869910E+00 -1.51973982E+01  7.59869910E+00  7.59869910E+00 -1.51973982E+01
  7.59869910E+00  7.59869910E+00 -1.51973982E+01  7.59869910E+00  7.59869910E+00
 -1.51973982E+01  7.59869910E+00  7.59869910E+00 -1.51973982E+01  7.59869910E+00
  7.59869910E+00 -1.51973982E+01  7.59869910E+00  7.59869910E+00 -1.51973982E+01
  7.59869910E+00  7.59869910E+00 -1.51973982E+01  7.59869910E+00  7.59869910E+00
 -1.51973982E+01  7.59869910E+00  7.59869910E+00 -1.51973982E+01  7.59869910E+00
  7.59869910E+00 -1.51973982E+01  7.59869910E+00  7.59869910E+00 -1.51973982E+01
  7.59869910E+00  7.59869910E+00 -1.51973982E+01  7.59869910E+00  7.59869910E+00
 -1.51973982E+01  7.59869910E+00  7.59869910E+00 -1.51973982E+01  7.59869910E+00
  7.59869910E+00 -1.51973982E+01  7.59869910E+00  7.59869910E+00 -1.51973982E+01
  7.59869910E+00  7.59869910E+00 -1.51973982E+01  7.59869910E+00  7.59869910E+00
 -1.51973982E+01  7.59869910E+00  7.59869910E+00 -1.51973982E+01  7.59869910E+00
  7.59869910E+00 -1.51973982E+01  7.59869910E+00  7.59869910E+00 -1.51973982E+01
  7.59869910E+00  7.59869910E+00 -1.51973982E+01  7.59869910E+00  7.59869910E+00
 -1.51973982E+01  7.59869910E+00  7.59869910E+00 -1.51973982E+01  7.59869910E+00
  7.59869910E+00 -1.51973982E+01  7.59869910E+00  7.59869910E+00 -1.51973982E+01
  7.59869910E+00  7.59869910E+00 -1.51973982E+01  7.59869910E+00  7.59869910E+00
 -1.51973982E+01  7.59869910E+00  7.59869910E+00 -1.51973982E+01  7.59869910E+00
  7.59869910E+00 -1.51973982E+01  7.59869910E+00  7.59869910E+00 -1.51973982E+01
  7.59869910E+00  7.59869910E+00 -1.51973982E+01  7.59869910E+00  7.59869910E+00
 -1.51973982E+01  7.59869910E+00  7.59869910E+00 -1.51973982E+01  7.59869910E+00
  7.59869910E+00 -1.51973982E+01  7.59869910E+00  7.59869910E+00 -1.51973982E+01
  7.59869910E+00  7.59869910E+00 -1.51973982E+01  7.59869910E+00  7.59869910E+00
 -1.51973982E+01  7.59869910E+00  7.59869910E+00 -1.51973982E+01  7.59869910E+00
  7.59869910E+00 -1.51973982E+01  7.59869910E+00  7.59869910E+00 -1.51973982E+01
  7.59869910E+00  7.59869910E+00 -1.51973982E+01  7.59869910E+00  7.59869910E+00
 -1.51973982E+01  7.59869910E+00  7.59869910E+00 -1.51973982E+01  7.59869910E+00
  7.59869910E+00 -1.51973982E+01  7.59869910E+00  7.59869910E+00 -1.51973982E+01
  7.59869910E+00  7.59869910E+00 -1.51973982E+01  7.59869910E+00  7.59869910E+00
 -1.51973982E+01  7.59869910E+00  7.59869910E+00 -1.51973982E+01  7.59869910E+00
  7.59869910E+00 -1.51973982E+01  7.59869910E+00  7.59869910E+00 -1.51973982E+01
  7.59869910E+00  7.59869910E+00 -1.51973982E+01  7.59869910E+00  7.59869910E+00
 -1.51973982E+01  7.59869910E+00  7.59869910E+00 -1.51973982E+01  7.59869910E+00
  7.59869910E+00 -1.51973982E+01  7.59869910E+00  7.59869910E+00 -1.51973982E+01
  7.59869910E+00  7.59869910E+00 -1.51973982E+01  7.59869910E+00  7.59869910E+00
 -1.51973982E+01  7.59869910E+00  7.59869910E+00 -1.51973982E+01  7.59869910E+00
  7.59869910E+00 -1.51973982E+01  7.59869910E+00  7.59869910E+00 -1.51973982E+01
  7.59869910E+00  7.59869910E+00 -1.51973982E+01  7.59869910E+00  7.59869910E+00
 -1.51973982E+01  7.59869910E+00  7.59869910E+00 -1.51973982E+01  7.59869910E+00
  7.59869910E+00 -1.51973982E+01  7.59869910E+00  7.59869910E+00 -1.51973982E+01
  7.59869910E+00  7.59869910E+00 -1.51973982E+01  7.59869910E+00  7.59869910E+00
 -1.51973982E+01  7.59869910E+00  7.59869910E+00 -1.51973982E+01  7.59869910E+00
  7.59869910E+00 -1.51973982E+01  7.59869910E+00  7.59869910E+00 -1.51973982E+01
  7.59869910E+00  7.59869910E+00 -1.51973982E+01  7.59869910E+00  7.59869910E+00
 -1.51973982E+01  7.59869910E+00  7.59869910E+00 -1.51973982E+01  7.59869910E+00
  7.59869910E+00 -1.51973982E+01  7.59869910E+00  7.59869910E+00 -1.51973982E+01
  7.59869910E+00  7.59869910E+00 -1.51973982E+01  7.59869910E+00  7.59869910E+00
 -1.51973982E+01  7.59869910E+00  7.59869910E+00 -1.51973982E+01  7.59869910E+00
  7.59869910E+00 -1.51973982E+01  7.59869910E+00  7.59869910E+00 -1.51973982E+01
  7.59869910E+00  7.59869910E+00 -1.51973982E+01  7.59869910E+00  7.59869910E+00
 -1.51973982E+01  7.59869910E+00  7.59869910E+00 -1.51973982E+01  7.59869910E+00
  7.59869910E+00 -1.51973982E+01  7.59869910E+00  7.59869910E+00 -1.51973982E+01
  7.59869910E+00  7.59869910E+00 -1.51973982E+01  7.59869910E+00  7.59869910E+00
 -1.51973982E+01  7.59869910E+00  7.59869910E+00 -1.51973982E+01  7.59869910E+00
  7.59869910E+00 -1.51973982E+01  7.59869910E+00  7.59869910E+00 -1.51973982E+01
  7.59869910E+00  7.59869910E+00 -1.51973982E+01  7.59869910E+00  7.59869910E+00
 -1.51973982E+01  7.59869910E+00  7.59869910E+00 -1.51973982E+01  7.59869910E+00
  7.59869910E+00 -1.51973982E+01  7.59869910E+00  7.59869910E+00 -1.51973982E+01
  7.59869910E+00  7.59869910E+00 -1.51973982E+01  7.59869910E+00  7.59869910E+00
 -1.51973982E+01  7.59869910E+00  7.59869910E+00 -1.51973982E+01  7.59869910E+00
  7.59869910E+00 -1.51973982E+01  7.59869910E+00  7.59869910E+00 -1.51973982E+01
  7.59869910E+00  7.59869910E+00 -1.51973982E+01  7.59869910E+00  7.59869910E+00
 -1.51973982E+01  7.59869910E+00  7.59869910E+00 -1.51973982E+01  7.59869910E+00
  7.59869910E+00 -1.51973982E+01  7.59869910E+00  7.59869910E+00 -1.51973982E+01
  7.59869910E+00  7.59869910E+00 -1.51973982E+01  7.59869910E+00  7.59869910E+00
 -1.51973982E+01  7.59869910E+00  7.59869910E+00 -1.51973982E+01  7.59869910E+00
  7.59869910E+00 -1.51973982E+01  7.59869910E+00  7.59869910E+00 -1.51973982E+01
  7.59869910E+00  7.59869910E+00 -1.51973982E+01  7.59869910E+00  7.59869910E+00
 -1.51973982E+01  7.59869910E+00  7.59869910E+00 -1.51973982E+01  7.59869910E+00
  7.59869910E+00 -1.51973982E+01  7.59869910E+00  7.59869910E+00 -1.51973982E+01
  7.59869910E+00  7.59869910E+00 -1.51973982E+01  7.59869910E+00  7.59869910E+00
 -1.51973982E+01  7.59869910E+00  7.59869910E+00 -1.51973982E+01  7.59869910E+00
  7.59869910E+00 -1.51973982E+01  7.59869910E+00  7.59869910E+00 -1.51973982E+01
  7.59869910E+00  7.59869910E+00 -1.51973982E+01  7.59869910E+00  7.59869910E+00
 -1.51973982E+01  7.59869910E+00  7.59869910E+00 -1.51973982E+01  7.59869910E+00
  7.59869910E+00 -1.51973982E+01  7.59869910E+00  7.59869910E+00 -1.51973982E+01
  7.59869910E+00  7.59869910E+00 -1.51973982E+01  7.59869910E+00  7.59869910E+00
 -1.51973982E+01  7.59869910E+00  7.59869910E+00 -1.51973982E+01  7.59869910E+00
  7.59869910E+00 -1.51973982E+01  7.59869910E+00  7.59869910E+00 -1.51973982E+01
  7.59869910E+00  7.59869910E+00 -1.51973982E+01  7.59869910E+00  7.59869910E+00
 -1.51973982E+01  7.59869910E+00  7.59869910E+00 -1.51973982E+01  7.59869910E+00
  7.59869910E+00 -1.51973982E+01  7.59869910E+00  7.59869910E+00 -1.51973982E+01
  7.59869910E+00  7.59869910E+00 -1.51973982E+01  7.59869910E+00  7.59869910E+00
 -1.51973982E+01  7.59869910E+00  7.59869910E+00 -1.51973982E+01  7.59869910E+00
  7.59869910E+00 -1.51973982E+01  7.59869910E+00  7.59869910E+00 -1.51973982E+01
  7.59869910E+00  7.59869910E+00 -1.51973982E+01  7.59869910E+00  7.59869910E+00
 -1.51973982E+01  7.59869910E+00  7.59869910E+00 -1.51973982E+01  7.59869910E+00
  7.59869910E+00 -1.51973982E+01  7.59869910E+00  7.59869910E+00 -1.51973982E+01
  7.59869910E+00  7.59869910E+00 -1.51973982E+01  7.59869910E+00  7.59869910E+00
 -1.51973982E+01  7.59869910E+00  7.59869910E+00 -1.51973982E+01  7.59869910E+00
  7.59869910E+00 -1.51973982E+01  7.59869910E+00  7.59869910E+00 -1.51973982E+01
  7.59869910E+00  7.59869910E+00 -1.51973982E+01  7.59869910E+00  7.59869910E+00
 -1.51973982E+01  7.59869910E+00  7.59869910E+00 -1.51973982E+01  7.59869910E+00
  7.59869910E+00 -1.51973982E+01  7.59869910E+00  7.59869910E+00 -1.51973982E+01
  7.59869910E+00  7.59869910E+00 -1.51973982E+01  7.59869910E+00  7.59869910E+00
 -1.51973982E+01  7.59869910E+00  7.59869910E+00 -1.51973982E+01  7.59869910E+00
  7.59869910E+00 -1.51973982E+01  7.59869910E+00  7.59869910E+00 -1.51973982E+01
  7.59869910E+00  7.59869910E+00 -1.51973982E+01  7.59869910E+00  7.59869910E+00
 -1.51973982E+01  7.59869910E+00  7.59869910E+00 -1.51973982E+01  7.59869910E+00
  7.59869910E+00 -1.51973982E+01  7.59869910E+00  7.59869910E+00 -1.51973982E+01
  7.59869910E+00  7.59869910E+00 -1.51973982E+01  7.59869910E+00  7.59869910E+00
 -1.51973982E+01  7.59869910E+00  7.59869910E+00 -1.51973982E+01  7.59869910E+00
  7.59869910E+00 -1.51973982E+01  7.59869910E+00  7.59869910E+00 -1.51973982E+01
  7.59869910E+00  7.59869910E+00 -1.51973982E+01  7.59869910E+00  7.59869910E+00
 -1.51973982E+01  7.59869910E+00  7.59869910E+00 -1.51973982E+01  7.59869910E+00
  7.59869910E+00 -1.51973982E+01  7.59869910E+00  7.59869910E+00 -1.51973982E+01
  7.59869910E+00  7.59869910E+00 -1.51973982E+01  7.59869910E+00  7.59869910E+00
 -1.51973982E+01  7.59869910E+00  7.59869910E+00 -1.51973982E+01  7.59869910E+00
  7.59869910E+00 -1.51973982E+01  7.59869910E+00  7.59869910E+00 -1.51973982E+01
  7.59869910E+00  7.59869910E+00 -1.51973982E+01  7.59869910E+00  7.59869910E+00
 -1.51973982E+01  7.59869910E+00  7.59869910E+00 -1.51973982E+01  7.59869910E+00
  7.59869910E+00 -1.51973982E+01  7.59869910E+00  7.59869910E+00 -1.51973982E+01
  7.59869910E+00  7.59869910E+00 -1.51973982E+01  7.59869910E+00  7.59869910E+00
 -1.51973982E+01  7.59869910E+00  7.59869910E+00 -1.51973982E+01  7.59869910E+00
  7.59869910E+00 -1.51973982E+01  7.59869910E+00  7.59869910E+00 -1.51973982E+01
  7.59869910E+00  7.59869910E+00 -1.51973982E+01  7.59869910E+00  7.59869910E+00
 -1.51973982E+01  7.59869910E+00  7.59869910E+00 -1.51973982E+01  7.59869910E+00
  7.59869910E+00 -1.51973982E+01  7.59869910E+00  7.59869910E+00 -1.51973982E+01
  7.59869910E+00  7.59869910E+00 -1.51973982E+01  7.59869910E+00  7.59869910E+00
 -1.51973982E+01  7.59869910E+00  7.59869910E+00 -1.51973982E+01  7.59869910E+00
  7.59869910E+00 -1.51973982E+01  7.59869910E+00  7.59869910E+00 -1.51973982E+01
  7.59869910E+00  7.59869910E+00 -1.51973982E+01  7.59869910E+00  7.59869910E+00
 -1.51973982E+01  7.59869910E+00  7.59869910E+00 -1.51973982E+01  7.59869910E+00
  7.59869910E+00 -1.51973982E+01  7.59869910E+00  7.59869910E+00 -1.51973982E+01
  7.59869910E+00  7.59869910E+00 -1.51973982E+01  7.59869910E+00  7.59869910E+00
 -1.51973982E+01  7.59869910E+00  7.59869910E+00 -1.51973982E+01  7.59869910E+00
  7.59869910E+00 -1.51973982E+01  7.59869910E+00  7.59869910E+00 -1.51973982E+01
  7.59869910E+00  7.59869910E+00 -1.51973982E+01  7.59869910E+00  7.59869910E+00
 -1.51973982E+01  7.59869910E+00  7.59869910E+00 -1.51973982E+01  7.59869910E+00
  7.59869910E+00 -1.51973982E+01  7.59869910E+00  7.59869910E+00 -1.51973982E+01
  7.59869910E+00  7.59869910E+00 -1.51973982E+01  7.59869910E+00  7.59869910E+00
 -1.51973982E+01  7.59869910E+00  7.59869910E+00 -1.51973982E+01  7.59869910E+00
  7.59869910E+00 -1.51973982E+01  7.59869910E+00  7.59869910E+00 -1.51973982E+01
  7.59869910E+00  7.59869910E+00 -1.51973982E+01  7.59869910E+00  7.59869910E+00
 -1.51973982E+01  7.59869910E+00  7.59869910E+00 -1.51973982E+01  7.59869910E+00
  7.59869910E+00 -1.51973982E+01  7.59869910E+00  7.59869910E+00 -1.51973982E+01
  7.59869910E+00  7.59869910E+00 -1.51973982E+01  7.59869910E+00  7.59869910E+00
 -1.51973982E+01  7.59869910E+00  7.59869910E+00 -1.51973982E+01  7.59869910E+00
  7.59869910E+00 -1.51973982E+01  7.59869910E+00  7.59869910E+00 -1.51973982E+01
  7.59869910E+00  7.59869910E+00 -1.51973982E+01  7.59869910E+00  7.59869910E+00
 -1.51973982E+01  7.59869910E+00  7.59869910E+00 -1.51973982E+01  7.59869910E+00
  7.59869910E+00 -1.51973982E+01  7.59869910E+00  7.59869910E+00 -1.51973982E+01
  7.59869910E+00  7.59869910E+00 -1.51973982E+01  7.59869910E+00  7.59869910E+00
 -1.51973982E+01  7.59869910E+00  7.59869910E+00 -1.51973982E+01  7.59869910E+00
  7.59869910E+00 -1.51973982E+01  7.59869910E+00  7.59869910E+00 -1.51973982E+01
  7.59869910E+00  7.59869910E+00 -1.51973982E+01  7.59869910E+00  7.59869910E+00
 -1.51973982E+01  7.59869910E+00  7.59869910E+00 -1.51973982E+01  7.59869910E+00
  7.59869910E+00 -1.51973982E+01  7.59869910E+00  7.59869910E+00 -1.51973982E+01
  7.59869910E+00  7.59869910E+00 -1.51973982E+01  7.59869910E+00  7.59869910E+00
 -1.51973982E+01  7.59869910E+00  7.59869910E+00 -1.51973982E+01  7.59869910E+00
  7.59869910E+00 -1.51973982E+01  7.59869910E+00  7.59869910E+00 -1.51973982E+01
  7.59869910E+00  7.59869910E+00 -1.51973982E+01  7.59869910E+00  7.59869910E+00
 -1.51973982E+01  7.59869910E+00  7.59869910E+00 -1.51973982E+01  7.59869910E+00
  7.59869910E+00 -1.51973982E+01  7.59869910E+00  7.59869910E+00 -1.51973982E+01
  7.59869910E+00  7.59869910E+00 -1.51973982E+01  7.59869910E+00  7.59869910E+00
 -1.51973982E+01  7.59869910E+00  7.59869910E+00 -1.51973982E+01  7.59869910E+00
  7.59869910E+00 -1.51973982E+01  7.59869910E+00  7.59869910E+00 -1.51973982E+01
  7.59869910E+00  7.59869910E+00 -1.51973982E+01  7.59869910E+00  7.59869910E+00
 -1.51973982E+01  7.59869910E+00  7.59869910E+00 -1.51973982E+01  7.59869910E+00
  7.59869910E+00 -1.51973982E+01  7.59869910E+00  7.59869910E+00 -1.51973982E+01
  7.59869910E+00  7.59869910E+00 -1.51973982E+01  7.59869910E+00  7.59869910E+00
 -1.51973982E+01  7.59869910E+00  7.59869910E+00 -1.51973982E+01  7.59869910E+00
  7.59869910E+00 -1.51973982E+01  7.59869910E+00  7.59869910E+00 -1.51973982E+01
  7.59869910E+00  7.59869910E+00 -1.51973982E+01  7.59869910E+00  7.59869910E+00
 -1.51973982E+01  7.59869910E+00  7.59869910E+00 -1.51973982E+01  7.59869910E+00
  7.59869910E+00 -1.51973982E+01  7.59869910E+00  7.59869910E+00 -1.51973982E+01
  7.59869910E+00  7.59869910E+00 -1.51973982E+01  7.59869910E+00  7.59869910E+00
 -1.51973982E+01  7.59869910E+00  7.59869910E+00 -1.51973982E+01  7.59869910E+00
  7.59869910E+00 -1.51973982E+01  7.59869910E+00  7.59869910E+00 -1.51973982E+01
  7.59869910E+00  7.59869910E+00 -1.51973982E+01  7.59869910E+00  7.59869910E+00
 -1.51973982E+01  7.59869910E+00  7.59869910E+00 -1.51973982E+01  7.59869910E+00
  7.59869910E+00 -1.51973982E+01  7.59869910E+00  7.59869910E+00 -1.51973982E+01
  7.59869910E+00  7.59869910E+00 -1.51973982E+01  7.59869910E+00  7.59869910E+00
 -1.51973982E+01  7.59869910E+00  7.59869910E+00 -1.51973982E+01  7.59869910E+00
  7.59869910E+00 -1.51973982E+01  7.59869910E+00  7.59869910E+00 -1.51973982E+01
  7.59869910E+00  7.59869910E+00 -1.51973982E+01  7.59869910E+00  7.59869910E+00
 -1.51973982E+01  7.59869910E+00  7.59869910E+00 -1.51973982E+01  7.59869910E+00
  7.59869910E+00 -1.51973982E+01  7.59869910E+00  7.59869910E+00 -1.51973982E+01
  7.59869910E+00  7.59869910E+00 -1.51973982E+01  7.59869910E+00  7.59869910E+00
 -1.51973982E+01  7.59869910E+00  7.59869910E+00 -1.51973982E+01  7.59869910E+00
  7.59869910E+00 -1.51973982E+01  7.59869910E+00  7.59869910E+00 -1.51973982E+01
  7.59869910E+00  7.59869910E+00 -1.51973982E+01  7.59869910E+00  7.59869910E+00
 -1.51973982E+01  7.59869910E+00  7.59869910E+00 -1.51973982E+01  7.59869910E+00
  7.59869910E+00 -1.51973982E+01  7.59869910E+00  7.59869910E+00 -1.51973982E+01
  7.59869910E+00  7.59869910E+00 -1.51973982E+01  7.59869910E+00  7.59869910E+00
 -1.51973982E+01  7.59869910E+00  7.59869910E+00 -1.51973982E+01  7.59869910E+00
  7.59869910E+00 -1.51973982E+01  7.59869910E+00  7.59869910E+00 -1.51973982E+01
  7.59869910E+00  7.59869910E+00 -1.51973982E+01  7.59869910E+00  7.59869910E+00
 -1.51973982E+01  7.59869910E+00  7.59869910E+00 -1.51973982E+01  7.59869910E+00
  7.59869910E+00 -1.51973982E+01  7.59869910E+00  7.59869910E+00 -1.51973982E+01
  7.59869910E+00  7.59869910E+00 -1.51973982E+01  7.59869910E+00  7.59869910E+00
 -1.51973982E+01  7.59869910E+00  7.59869910E+00 -1.51973982E+01  7.59869910E+00
  7.59869910E+00 -1.51973982E+01  7.59869910E+00  7.59869910E+00 -1.51973982E+01
  7.59869910E+00  7.59869910E+00 -1.51973982E+01  7.59869910E+00  7.59869910E+00
 -1.51973982E+01  7.59869910E+00  7.59869910E+00 -1.51973982E+01  7.59869910E+00
  7.59869910E+00 -1.51973982E+01  7.59869910E+00  7.59869910E+00 -1.51973982E+01
  7.59869910E+00  7.59869910E+00 -1.51973982E+01  7.59869910E+00  7.59869910E+00
 -1.51973982E+01  7.59869910E+00  7.59869910E+00 -1.51973982E+01  7.59869910E+00
  7.59869910E+00 -1.51973982E+01  7.59869910E+00  7.59869910E+00 -1.51973982E+01
  7.59869910E+00  7.59869910E+00 -1.51973982E+01  7.59869910E+00  7.59869910E+00
 -1.51973982E+01  7.59869910E+00  7.59869910E+00 -1.51973982E+01  7.59869910E+00
  7.59869910E+00 -1.51973982E+01  7.59869910E+00  7.59869910E+00 -1.51973982E+01
  7.59869910E+00  7.59869910E+00 -1.51973982E+01  7.59869910E+00  7.59869910E+00
 -1.51973982E+01  7.59869910E+00  7.59869910E+00 -1.51973982E+01  7.59869910E+00
  7.59869910E+00 -1.51973982E+01  7.59869910E+00  7.59869910E+00 -1.51973982E+01
  7.59869910E+00  7.59869910E+00 -1.51973982E+01  7.59869910E+00  7.59869910E+00
 -1.51973982E+01  7.59869910E+00  7.59869910E+00 -1.51973982E+01  7.59869910E+00
  7.59869910E+00 -1.51973982E+01  7.59869910E+00  7.59869910E+00 -1.51973982E+01
  7.59869910E+00  7.59869910E+00 -1.51973982E+01  7.59869910E+00  7.59869910E+00
 -1.51973982E+01  7.59869910E+00  7.59869910E+00 -1.51973982E+01  7.59869910E+00
  7.59869910E+00 -1.51973982E+01  7.59869910E+00  7.59869910E+00 -1.51973982E+01
  7.59869910E+00  7.59869910E+00 -1.51973982E+01  7.59869910E+00  7.59869910E+00
 -1.51973982E+01  7.59869910E+00  7.59869910E+00 -1.51973982E+01  7.59869910E+00
  7.59869910E+00 -1.51973982E+01  7.59869910E+00  7.59869910E+00 -1.51973982E+01
  7.59869910E+00  7.59869910E+00 -1.51973982E+01  7.59869910E+00  7.59869910E+00
 -1.51973982E+01  7.59869910E+00  7.59869910E+00 -1.51973982E+01  7.59869910E+00
  7.59869910E+00 -1.51973982E+01  7.59869910E+00  7.59869910E+00 -1.51973982E+01
  7.59869910E+00  7.59869910E+00 -1.51973982E+01  7.59869910E+00  7.59869910E+00
 -1.51973982E+01  7.59869910E+00  7.59869910E+00 -1.51973982E+01  7.59869910E+00
  7.59869910E+00 -1.51973982E+01  7.59869910E+00  7.59869910E+00 -1.51973982E+01
  7.59869910E+00  7.59869910E+00 -1.51973982E+01  7.59869910E+00  7.59869910E+00
 -1.51973982E+01  7.59869910E+00  7.59869910E+00 -1.51973982E+01  7.59869910E+00
  7.59869910E+00 -1.51973982E+01  7.59869910E+00  7.59869910E+00 -1.51973982E+01
  7.59869910E+00  7.59869910E+00 -1.51973982E+01  7.59869910E+00  7.59869910E+00
 -1.51973982E+01  7.59869910E+00  7.59869910E+00 -1.51973982E+01  7.59869910E+00
  7.59869910E+00 -1.51973982E+01  7.59869910E+00  7.59869910E+00 -1.51973982E+01
  7.59869910E+00  7.59869910E+00 -1.51973982E+01  7.59869910E+00  7.59869910E+00
 -1.51973982E+01  7.59869910E+00  7.59869910E+00 -1.51973982E+01  7.59869910E+00
  7.59869910E+00 -1.51973982E+01  7.59869910E+00  7.59869910E+00 -1.51973982E+01
  7.59869910E+00  7.59869910E+00 -1.51973982E+01  7.59869910E+00  7.59869910E+00
 -1.51973982E+01  7.59869910E+00  7.59869910E+00 -1.51973982E+01  7.59869910E+00
  7.59869910E+00 -1.51973982E+01  7.59869910E+00  7.59869910E+00 -1.51973982E+01
  7.59869910E+00  7.59869910E+00 -1.51973982E+01  7.59869910E+00  7.59869910E+00
 -1.51973982E+01  7.59869910E+00  7.59869910E+00 -1.51973982E+01  7.59869910E+00
  7.59869910E+00 -1.51973982E+01  7.59869910E+00  7.59869910E+00 -1.51973982E+01
  7.59869910E+00  7.59869910E+00 -1.51973982E+01  7.59869910E+00  7.59869910E+00
 -1.51973982E+01  7.59869910E+00  7.59869910E+00 -1.51973982E+01  7.59869910E+00
  7.59869910E+00 -1.51973982E+01  7.59869910E+00  7.59869910E+00 -1.51973982E+01
  7.59869910E+00  7.59869910E+00 -1.51973982E+01  7.59869910E+00  7.59869910E+00
 -1.51973982E+01  7.59869910E+00  7.59869910E+00 -1.51973982E+01  7.59869910E+00
  7.59869910E+00 -1.51973982E+01  7.59869910E+00  7.59869910E+00 -1.51973982E+01
  7.59869910E+00  7.59869910E+00 -1.51973982E+01  7.59869910E+00  7.59869910E+00
 -1.51973982E+01  7.59869910E+00  7.59869910E+00 -1.51973982E+01  7.59869910E+00
  7.59869910E+00 -1.51973982E+01  7.59869910E+00  7.59869910E+00 -1.51973982E+01
  7.59869910E+00  7.59869910E+00 -1.51973982E+01  7.59869910E+00  7.59869910E+00
 -1.51973982E+01  7.59869910E+00  7.59869910E+00 -1.51973982E+01  7.59869910E+00
  7.59869910E+00 -1.51973982E+01  7.59869910E+00  7.59869910E+00 -1.51973982E+01
  7.59869910E+00  7.59869910E+00 -1.51973982E+01  7.59869910E+00  7.59869910E+00
 -1.51973982E+01  7.59869910E+00  7.59869910E+00 -1.51973982E+01  7.59869910E+00
  7.59869910E+00 -1.51973982E+01  7.59869910E+00  7.59869910E+00 -1.51973982E+01
  7.59869910E+00  7.59869910E+00 -1.51973982E+01  7.59869910E+00  7.59869910E+00
 -1.51973982E+01  7.59869910E+00  7.59869910E+00 -1.51973982E+01  7.59869910E+00
  7.59869910E+00 -1.51973982E+01  7.59869910E+00  7.59869910E+00 -1.51973982E+01
  7.59869910E+00  7.59869910E+00 -1.51973982E+01  7.59869910E+00  7.59869910E+00
 -1.51973982E+01  7.59869910E+00  7.59869910E+00 -1.51973982E+01  7.59869910E+00
  7.59869910E+00 -1.51973982E+01  7.59869910E+00  7.59869910E+00 -1.51973982E+01
  7.59869910E+00  7.59869910E+00 -1.51973982E+01  7.59869910E+00  7.59869910E+00
 -1.51973982E+01  7.59869910E+00  7.59869910E+00 -1.51973982E+01  7.59869910E+00
  7.59869910E+00 -1.51973982E+01  7.59869910E+00  7.59869910E+00 -1.51973982E+01
  7.59869910E+00  7.59869910E+00 -1.51973982E+01  7.59869910E+00  7.59869910E+00
 -1.51973982E+01  7.59869910E+00  7.59869910E+00 -1.51973982E+01  7.59869910E+00
  7.59869910E+00 -1.51973982E+01  7.59869910E+00  7.59869910E+00 -1.51973982E+01
  7.59869910E+00  7.59869910E+00 -1.51973982E+01  7.59869910E+00  7.59869910E+00
 -1.51973982E+01  7.59869910E+00  7.59869910E+00 -1.51973982E+01  7.59869910E+00
  7.59869910E+00 -1.51973982E+01  7.59869910E+00  7.59869910E+00 -1.51973982E+01
  7.59869910E+00  7.59869910E+00 -1.51973982E+01  7.59869910E+00  7.59869910E+00
 -1.51973982E+01  7.59869910E+00  7.59869910E+00 -1.51973982E+01  7.59869910E+00
  7.59869910E+00 -1.51973982E+01  7.59869910E+00  7.59869910E+00 -1.51973982E+01
  7.59869910E+00  7.59869910E+00 -1.51973982E+01  7.59869910E+00  7.59869910E+00
 -1.51973982E+01  7.59869910E+00  7.59869910E+00 -1.51973982E+01  7.59869910E+00
  7.59869910E+00 -1.51973982E+01  7.59869910E+00  7.59869910E+00 -1.51973982E+01
  7.59869910E+00  7.59869910E+00 -1.51973982E+01  7.59869910E+00  7.59869910E+00
 -1.51973982E+01  7.59869910E+00  7.59869910E+00 -1.51973982E+01  7.59869910E+00
  7.59869910E+00 -1.51973982E+01  7.59869910E+00  7.59869910E+00 -1.51973982E+01
  7.59869910E+00  7.59869910E+00 -1.51973982E+01  7.59869910E+00  7.59869910E+00
 -1.51973982E+01  7.59869910E+00  7.59869910E+00 -1.51973982E+01  7.59869910E+00
  7.59869910E+00 -1.51973982E+01  7.59869910E+00  7.59869910E+00 -1.51973982E+01
  7.59869910E+00  7.59869910E+00 -1.51973982E+01  7.59869910E+00  7.59869910E+00
 -1.51973982E+01  7.59869910E+00  7.59869910E+00 -1.51973982E+01  7.59869910E+00
  7.59869910E+00 -1.51973982E+01  7.59869910E+00  7.59869910E+00 -1.51973982E+01
  7.59869910E+00  7.59869910E+00 -1.51973982E+01  7.59869910E+00  7.59869910E+00
 -1.51973982E+01  7.59869910E+00  7.59869910E+00 -1.51973982E+01  7.59869910E+00
  7.59869910E+00 -1.51973982E+01  7.59869910E+00  7.59869910E+00 -1.51973982E+01
  7.59869910E+00  7.59869910E+00 -1.51973982E+01  7.59869910E+00  7.59869910E+00
 -1.51973982E+01  7.59869910E+00  7.59869910E+00 -1.51973982E+01  7.59869910E+00
  7.59869910E+00 -1.51973982E+01  7.59869910E+00  7.59869910E+00 -1.51973982E+01
  7.59869910E+00  7.59869910E+00 -1.51973982E+01  7.59869910E+00  7.59869910E+00
 -1.51973982E+01  7.59869910E+00  7.59869910E+00 -1.51973982E+01  7.59869910E+00
  7.59869910E+00 -1.51973982E+01  7.59869910E+00  7.59869910E+00 -1.51973982E+01
  7.59869910E+00  7.59869910E+00 -1.51973982E+01  7.59869910E+00  7.59869910E+00
 -1.51973982E+01  7.59869910E+00  7.59869910E+00 -1.51973982E+01  7.59869910E+00
  7.59869910E+00 -1.51973982E+01  7.59869910E+00  7.59869910E+00 -1.51973982E+01
  7.59869910E+00  7.59869910E+00 -1.51973982E+01  7.59869910E+00  7.59869910E+00
 -1.51973982E+01  7.59869910E+00  7.59869910E+00 -1.51973982E+01  7.59869910E+00
  7.59869910E+00 -1.51973982E+01  7.59869910E+00  7.59869910E+00 -1.51973982E+01
  7.59869910E+00  7.59869910E+00 -1.51973982E+01  7.59869910E+00  7.59869910E+00
 -1.51973982E+01  7.59869910E+00  7.59869910E+00 -1.51973982E+01  7.59869910E+00
  7.59869910E+00 -1.51973982E+01  7.59869910E+00  7.59869910E+00 -1.51973982E+01
  7.59869910E+00  7.59869910E+00 -1.51973982E+01  7.59869910E+00  7.59869910E+00
 -1.51973982E+01  7.59869910E+00  7.59869910E+00 -1.51973982E+01  7.59869910E+00
  7.59869910E+00 -1.51973982E+01  7.59869910E+00  7.59869910E+00 -1.51973982E+01
  7.59869910E+00  7.59869910E+00 -1.51973982E+01  7.59869910E+00  7.59869910E+00
 -1.51973982E+01  7.59869910E+00  7.59869910E+00 -1.51973982E+01  7.59869910E+00
  7.59869910E+00 -1.51973982E+01  7.59869910E+00  7.59869910E+00 -1.51973982E+01
  7.59869910E+00  7.59869910E+00 -1.51973982E+01  7.59869910E+00  7.59869910E+00
 -1.51973982E+01  7.59869910E+00  7.59869910E+00 -1.51973982E+01  7.59869910E+00
  7.59869910E+00 -1.51973982E+01  7.59869910E+00  7.59869910E+00 -1.51973982E+01
  7.59869910E+00  7.59869910E+00 -1.51973982E+01  7.59869910E+00  7.59869910E+00
 -1.51973982E+01  7.59869910E+00  7.59869910E+00 -1.51973982E+01  7.59869910E+00
  7.59869910E+00 -1.51973982E+01  7.59869910E+00  7.59869910E+00 -1.51973982E+01
  7.59869910E+00  7.59869910E+00 -1.51973982E+01  7.59869910E+00  7.59869910E+00
 -1.51973982E+01  7.59869910E+00  7.59869910E+00 -1.51973982E+01  7.59869910E+00
  7.59869910E+00 -1.51973982E+01  7.59869910E+00  7.59869910E+00 -1.51973982E+01
  7.59869910E+00  7.59869910E+00 -1.51973982E+01  7.59869910E+00  7.59869910E+00
 -1.51973982E+01  7.59869910E+00  7.59869910E+00 -1.51973982E+01  7.59869910E+00
  7.59869910E+00 -1.51973982E+01  7.59869910E+00  7.59869910E+00 -1.51973982E+01
  7.59869910E+00  7.59869910E+00 -1.51973982E+01  7.59869910E+00  7.59869910E+00
 -1.51973982E+01  7.59869910E+00  7.59869910E+00 -1.51973982E+01  7.59869910E+00
  7.59869910E+00 -1.51973982E+01  7.59869910E+00  7.59869910E+00 -1.51973982E+01
  7.59869910E+00  7.59869910E+00 -1.51973982E+01  7.59869910E+00  7.59869910E+00
 -1.51973982E+01  7.59869910E+00  7.59869910E+00 -1.51973982E+01  7.59869910E+00
  7.59869910E+00 -1.51973982E+01  7.59869910E+00  7.59869910E+00 -1.51973982E+01
  7.59869910E+00  7.59869910E+00 -1.51973982E+01  7.59869910E+00  7.59869910E+00
 -1.51973982E+01  7.59869910E+00  7.59869910E+00 -1.51973982E+01  7.59869910E+00
  7.59869910E+00 -1.51973982E+01  7.59869910E+00  7.59869910E+00 -1.51973982E+01
  7.59869910E+00  7.59869910E+00 -1.51973982E+01  7.59869910E+00  7.59869910E+00
 -1.51973982E+01  7.59869910E+00  7.59869910E+00 -1.51973982E+01  7.59869910E+00
  7.59869910E+00 -1.51973982E+01  7.59869910E+00  7.59869910E+00 -1.51973982E+01
  7.59869910E+00  7.59869910E+00 -1.51973982E+01  7.59869910E+00  7.59869910E+00
 -1.51973982E+01  7.59869910E+00  7.59869910E+00 -1.51973982E+01  7.59869910E+00
  7.59869910E+00 -1.51973982E+01  7.59869910E+00  7.59869910E+00 -1.51973982E+01
  7.59869910E+00  7.59869910E+00 -1.51973982E+01  7.59869910E+00  7.59869910E+00
 -1.51973982E+01  7.59869910E+00  7.59869910E+00 -1.51973982E+01  7.59869910E+00
  7.59869910E+00 -1.51973982E+01  7.59869910E+00  7.59869910E+00 -1.51973982E+01
  7.59869910E+00  7.59869910E+00 -1.51973982E+01  7.59869910E+00  7.59869910E+00
 -1.51973982E+01  7.59869910E+00  7.59869910E+00 -1.51973982E+01  7.59869910E+00
  7.59869910E+00 -1.51973982E+01  7.59869910E+00  7.59869910E+00 -1.51973982E+01
  7.59869910E+00  7.59869910E+00 -1.51973982E+01  7.59869910E+00  7.59869910E+00
 -1.51973982E+01  7.59869910E+00  7.59869910E+00 -1.51973982E+01  7.59869910E+00
  7.59869910E+00 -1.51973982E+01  7.59869910E+00  7.59869910E+00 -1.51973982E+01
  7.59869910E+00  7.59869910E+00 -1.51973982E+01  7.59869910E+00  7.59869910E+00
 -1.51973982E+01  7.59869910E+00  7.59869910E+00 -1.51973982E+01  7.59869910E+00
  7.59869910E+00 -1.51973982E+01  7.59869910E+00  7.59869910E+00 -1.51973982E+01
  7.59869910E+00  7.59869910E+00 -1.51973982E+01  7.59869910E+00  7.59869910E+00
 -1.51973982E+01  7.59869910E+00  7.59869910E+00 -1.51973982E+01  7.59869910E+00
  7.59869910E+00 -1.51973982E+01  7.59869910E+00  7.59869910E+00 -1.51973982E+01
  7.59869910E+00  7.59869910E+00 -1.51973982E+01  7.59869910E+00  7.59869910E+00
 -1.51973982E+01  7.59869910E+00  7.59869910E+00 -1.51973982E+01  7.59869910E+00
  7.59869910E+00 -1.51973982E+01  7.59869910E+00  7.59869910E+00 -1.51973982E+01
  7.59869910E+00  7.59869910E+00 -1.51973982E+01  7.59869910E+00  7.59869910E+00
 -1.51973982E+01  7.59869910E+00  7.59869910E+00 -1.51973982E+01  7.59869910E+00
  7.59869910E+00 -1.51973982E+01  7.59869910E+00  7.59869910E+00 -1.51973982E+01
  7.59869910E+00  7.59869910E+00 -1.51973982E+01  7.59869910E+00  7.59869910E+00
 -1.51973982E+01  7.59869910E+00  7.59869910E+00 -1.51973982E+01  7.59869910E+00
  7.59869910E+00 -1.51973982E+01  7.59869910E+00  7.59869910E+00 -1.51973982E+01
  7.59869910E+00  7.59869910E+00 -1.51973982E+01  7.59869910E+00  7.59869910E+00
 -1.51973982E+01  7.59869910E+00  7.59869910E+00 -1.51973982E+01  7.59869910E+00
  7.59869910E+00 -1.51973982E+01  7.59869910E+00  7.59869910E+00 -1.51973982E+01
  7.59869910E+00  7.59869910E+00 -1.51973982E+01  7.59869910E+00  7.59869910E+00
 -1.51973982E+01  7.59869910E+00  7.59869910E+00 -1.51973982E+01  7.59869910E+00
  7.59869910E+00 -1.51973982E+01  7.59869910E+00  7.59869910E+00 -1.51973982E+01
  7.59869910E+00  7.59869910E+00 -1.51973982E+01  7.59869910E+00  7.59869910E+00
 -1.51973982E+01  7.59869910E+00  7.59869910E+00 -1.51973982E+01  7.59869910E+00
  7.59869910E+00 -1.51973982E+01  7.59869910E+00  7.59869910E+00 -1.51973982E+01
  7.59869910E+00  7.59869910E+00 -1.51973982E+01  7.59869910E+00  7.59869910E+00
 -1.51973982E+01  7.59869910E+00  7.59869910E+00 -1.51973982E+01  7.59869910E+00
  7.59869910E+00 -1.51973982E+01  7.59869910E+00  7.59869910E+00 -1.51973982E+01
  7.59869910E+00  7.59869910E+00 -1.51973982E+01  7.59869910E+00  7.59869910E+00
 -1.51973982E+01  7.59869910E+00  7.59869910E+00 -1.51973982E+01  7.59869910E+00
  7.59869910E+00 -1.51973982E+01  7.59869910E+00  7.59869910E+00 -1.51973982E+01
  7.59869910E+00  7.59869910E+00 -1.51973982E+01  7.59869910E+00  7.59869910E+00
 -1.51973982E+01  7.59869910E+00  7.59869910E+00 -1.51973982E+01  7.59869910E+00
  7.59869910E+00 -1.51973982E+01  7.59869910E+00  7.59869910E+00 -1.51973982E+01
  7.59869910E+00  7.59869910E+00 -1.51973982E+01  7.59869910E+00  7.59869910E+00
 -1.51973982E+01  7.59869910E+00  7.59869910E+00 -1.51973982E+01  7.59869910E+00
  7.59869910E+00 -1.51973982E+01  7.59869910E+00  7.59869910E+00 -1.51973982E+01
  7.59869910E+00  7.59869910E+00 -1.51973982E+01  7.59869910E+00  7.59869910E+00
 -1.51973982E+01  7.59869910E+00  7.59869910E+00 -1.51973982E+01  7.59869910E+00
  7.59869910E+00 -1.51973982E+01  7.59869910E+00  7.59869910E+00 -1.51973982E+01
  7.59869910E+00  7.59869910E+00 -1.51973982E+01  7.59869910E+00  7.59869910E+00
 -1.51973982E+01  7.59869910E+00  7.59869910E+00 -1.51973982E+01  7.59869910E+00
  7.59869910E+00 -1.51973982E+01  7.59869910E+00  7.59869910E+00 -1.51973982E+01
  7.59869910E+00  7.59869910E+00 -1.51973982E+01  7.59869910E+00  7.59869910E+00
 -1.51973982E+01  7.59869910E+00  7.59869910E+00 -1.51973982E+01  7.59869910E+00
  7.59869910E+00 -1.51973982E+01  7.59869910E+00  7.59869910E+00 -1.51973982E+01
  7.59869910E+00  7.59869910E+00 -1.51973982E+01  7.59869910E+00  7.59869910E+00
 -1.51973982E+01  7.59869910E+00  7.59869910E+00 -1.51973982E+01  7.59869910E+00
  7.59869910E+00 -1.51973982E+01  7.59869910E+00  7.59869910E+00 -1.51973982E+01
  7.59869910E+00  7.59869910E+00 -1.51973982E+01  7.59869910E+00  7.59869910E+00
 -1.51973982E+01  7.59869910E+00  7.59869910E+00 -1.51973982E+01  7.59869910E+00
  7.59869910E+00 -1.51973982E+01  7.59869910E+00  7.59869910E+00 -1.51973982E+01
  7.59869910E+00  7.59869910E+00 -1.51973982E+01  7.59869910E+00  7.59869910E+00
 -1.51973982E+01  7.59869910E+00  7.59869910E+00 -1.51973982E+01  7.59869910E+00
  7.59869910E+00 -1.51973982E+01  7.59869910E+00  7.59869910E+00 -1.51973982E+01
  7.59869910E+00  7.59869910E+00 -1.51973982E+01  7.59869910E+00  7.59869910E+00
 -1.51973982E+01  7.59869910E+00  7.59869910E+00 -1.51973982E+01  7.59869910E+00
  7.59869910E+00 -1.51973982E+01  7.59869910E+00  7.59869910E+00 -1.51973982E+01
  7.59869910E+00  7.59869910E+00 -1.51973982E+01  7.59869910E+00  7.59869910E+00
 -1.51973982E+01  7.59869910E+00  7.59869910E+00 -1.51973982E+01  7.59869910E+00
  7.59869910E+00 -1.51973982E+01  7.59869910E+00  7.59869910E+00 -1.51973982E+01
  7.59869910E+00  7.59869910E+00 -1.51973982E+01  7.59869910E+00  7.59869910E+00
 -1.51973982E+01  7.59869910E+00  7.59869910E+00 -1.51973982E+01  7.59869910E+00
  7.59869910E+00 -1.51973982E+01  7.59869910E+00  7.59869910E+00 -1.51973982E+01
  7.59869910E+00  7.59869910E+00 -1.51973982E+01  7.59869910E+00  7.59869910E+00
 -1.51973982E+01  7.59869910E+00  7.59869910E+00 -1.51973982E+01  7.59869910E+00
  7.59869910E+00 -1.51973982E+01  7.59869910E+00  7.59869910E+00 -1.51973982E+01
  7.59869910E+00  7.59869910E+00 -1.51973982E+01  7.59869910E+00  7.59869910E+00
 -1.51973982E+01  7.59869910E+00  7.59869910E+00 -1.51973982E+01  7.59869910E+00
  7.59869910E+00 -1.51973982E+01  7.59869910E+00  7.59869910E+00 -1.51973982E+01
  7.59869910E+00  7.59869910E+00 -1.51973982E+01  7.59869910E+00  7.59869910E+00
 -1.51973982E+01  7.59869910E+00  7.59869910E+00 -1.51973982E+01  7.59869910E+00
  7.59869910E+00 -1.51973982E+01  7.59869910E+00  7.59869910E+00 -1.51973982E+01
  7.59869910E+00  7.59869910E+00 -1.51973982E+01  7.59869910E+00  7.59869910E+00
 -1.51973982E+01  7.59869910E+00  7.59869910E+00 -1.51973982E+01  7.59869910E+00
  7.59869910E+00 -1.51973982E+01  7.59869910E+00  7.59869910E+00 -1.51973982E+01
  7.59869910E+00  7.59869910E+00 -1.51973982E+01  7.59869910E+00  7.59869910E+00
 -1.51973982E+01  7.59869910E+00  7.59869910E+00 -1.51973982E+01  7.59869910E+00
  7.59869910E+00 -1.51973982E+01  7.59869910E+00  7.59869910E+00 -1.51973982E+01
  7.59869910E+00  7.59869910E+00 -1.51973982E+01  7.59869910E+00  7.59869910E+00
 -1.51973982E+01  7.59869910E+00  7.59869910E+00 -1.51973982E+01  7.59869910E+00
  7.59869910E+00 -1.51973982E+01  7.59869910E+00  7.59869910E+00 -1.51973982E+01
  7.59869910E+00  7.59869910E+00 -1.51973982E+01  7.59869910E+00  7.59869910E+00
 -1.51973982E+01  7.59869910E+00  7.59869910E+00 -1.51973982E+01  7.59869910E+00
  7.59869910E+00 -1.51973982E+01  7.59869910E+00  7.59869910E+00 -1.51973982E+01
  7.59869910E+00  7.59869910E+00 -1.51973982E+01  7.59869910E+00  7.59869910E+00
 -1.51973982E+01  7.59869910E+00  7.59869910E+00 -1.51973982E+01  7.59869910E+00
  7.59869910E+00 -1.51973982E+01  7.59869910E+00  7.59869910E+00 -1.51973982E+01
  7.59869910E+00  7.59869910E+00 -1.51973982E+01  7.59869910E+00  7.59869910E+00
 -1.51973982E+01  7.59869910E+00  7.59869910E+00 -1.51973982E+01  7.59869910E+00
  7.59869910E+00 -1.51973982E+01  7.59869910E+00  7.59869910E+00 -1.51973982E+01
  7.59869910E+00  7.59869910E+00 -1.51973982E+01  7.59869910E+00  7.59869910E+00
 -1.51973982E+01  7.59869910E+00  7.59869910E+00 -1.51973982E+01  7.59869910E+00
  7.59869910E+00 -1.51973982E+01  7.59869910E+00  7.59869910E+00 -1.51973982E+01
  7.59869910E+00  7.59869910E+00 -1.51973982E+01  7.59869910E+00  7.59869910E+00
 -1.51973982E+01  7.59869910E+00  7.59869910E+00 -1.51973982E+01  7.59869910E+00
  7.59869910E+00 -1.51973982E+01  7.59869910E+00  7.59869910E+00 -1.51973982E+01
  7.59869910E+00  7.59869910E+00 -1.51973982E+01  7.59869910E+00  7.59869910E+00
 -1.51973982E+01  7.59869910E+00  7.59869910E+00 -1.51973982E+01  7.59869910E+00
  7.59869910E+00 -1.51973982E+01  7.59869910E+00  7.59869910E+00 -1.51973982E+01
  7.59869910E+00  7.59869910E+00 -1.51973982E+01  7.59869910E+00  7.59869910E+00
 -1.51973982E+01  7.59869910E+00  7.59869910E+00 -1.51973982E+01  7.59869910E+00
  7.59869910E+00 -1.51973982E+01  7.59869910E+00  7.59869910E+00 -1.51973982E+01
  7.59869910E+00  7.59869910E+00 -1.51973982E+01  7.59869910E+00  7.59869910E+00
 -1.51973982E+01  7.59869910E+00  7.59869910E+00 -1.51973982E+01  7.59869910E+00
  7.59869910E+00 -1.51973982E+01  7.59869910E+00  7.59869910E+00 -1.51973982E+01
  7.59869910E+00  7.59869910E+00 -1.51973982E+01  7.59869910E+00  7.59869910E+00
 -1.51973982E+01  7.59869910E+00  7.59869910E+00 -1.51973982E+01  7.59869910E+00
  7.59869910E+00 -1.51973982E+01  7.59869910E+00  7.59869910E+00 -1.51973982E+01
  7.59869910E+00  7.59869910E+00 -1.51973982E+01  7.59869910E+00  7.59869910E+00
 -1.51973982E+01  7.59869910E+00  7.59869910E+00 -1.51973982E+01  7.59869910E+00
  7.59869910E+00 -1.51973982E+01  7.59869910E+00  7.59869910E+00 -1.51973982E+01
  7.59869910E+00  7.59869910E+00 -1.51973982E+01  7.59869910E+00  7.59869910E+00
 -1.51973982E+01  7.59869910E+00  7.59869910E+00 -1.51973982E+01  7.59869910E+00
  7.59869910E+00 -1.51973982E+01  7.59869910E+00  7.59869910E+00 -1.51973982E+01
  7.59869910E+00  7.59869910E+00 -1.51973982E+01  7.59869910E+00  7.59869910E+00
 -1.51973982E+01  7.59869910E+00  7.59869910E+00 -1.51973982E+01  7.59869910E+00
  7.59869910E+00 -1.51973982E+01  7.59869910E+00  7.59869910E+00 -1.51973982E+01
  7.59869910E+00  7.59869910E+00 -1.51973982E+01  7.59869910E+00  7.59869910E+00
 -1.51973982E+01  7.59869910E+00  7.59869910E+00 -1.51973982E+01  7.59869910E+00
  7.59869910E+00 -1.51973982E+01  7.59869910E+00  7.59869910E+00 -1.51973982E+01
  7.59869910E+00  7.59869910E+00 -1.51973982E+01  7.59869910E+00  7.59869910E+00
 -1.51973982E+01  7.59869910E+00  7.59869910E+00 -1.51973982E+01  7.59869910E+00
  7.59869910E+00 -1.51973982E+01  7.59869910E+00  7.59869910E+00 -1.51973982E+01
  7.59869910E+00  7.59869910E+00 -1.51973982E+01  7.59869910E+00  7.59869910E+00
 -1.51973982E+01  7.59869910E+00  7.59869910E+00 -1.51973982E+01  7.59869910E+00
  7.59869910E+00 -1.51973982E+01  7.59869910E+00  7.59869910E+00 -1.51973982E+01
  7.59869910E+00  7.59869910E+00 -1.51973982E+01  7.59869910E+00  7.59869910E+00
 -1.51973982E+01  7.59869910E+00  7.59869910E+00 -1.51973982E+01  7.59869910E+00
  7.59869910E+00 -1.51973982E+01  7.59869910E+00  7.59869910E+00 -1.51973982E+01
  7.59869910E+00  7.59869910E+00 -1.51973982E+01  7.59869910E+00  7.59869910E+00
 -1.51973982E+01  7.59869910E+00  7.59869910E+00 -1.51973982E+01  7.59869910E+00
  7.59869910E+00 -1.51973982E+01  7.59869910E+00  7.59869910E+00 -1.51973982E+01
  7.59869910E+00  7.59869910E+00 -1.51973982E+01  7.59869910E+00  7.59869910E+00
 -1.51973982E+01  7.59869910E+00  7.59869910E+00 -1.51973982E+01  7.59869910E+00
  7.59869910E+00 -1.51973982E+01  7.59869910E+00  7.59869910E+00 -1.51973982E+01
  7.59869910E+00  7.59869910E+00 -1.51973982E+01  7.59869910E+00  7.59869910E+00
 -1.51973982E+01  7.59869910E+00  7.59869910E+00 -1.51973982E+01  7.59869910E+00
  7.59869910E+00 -1.51973982E+01  7.59869910E+00  7.59869910E+00 -1.51973982E+01
  7.59869910E+00  7.59869910E+00 -1.51973982E+01  7.59869910E+00  7.59869910E+00
 -1.51973982E+01  7.59869910E+00  7.59869910E+00 -1.51973982E+01  7.59869910E+00
  7.59869910E+00 -1.51973982E+01  7.59869910E+00  7.59869910E+00 -1.51973982E+01
  7.59869910E+00  7.59869910E+00 -1.51973982E+01  7.59869910E+00  7.59869910E+00
 -1.51973982E+01  7.59869910E+00  7.59869910E+00 -1.51973982E+01  7.59869910E+00
  7.59869910E+00 -1.51973982E+01  7.59869910E+00  7.59869910E+00 -1.51973982E+01
  7.59869910E+00  7.59869910E+00 -1.51973982E+01  7.59869910E+00  7.59869910E+00
 -1.51973982E+01  7.59869910E+00  7.59869910E+00 -1.51973982E+01  7.59869910E+00
  7.59869910E+00 -1.51973982E+01  7.59869910E+00  7.59869910E+00 -1.51973982E+01
  7.59869910E+00  7.59869910E+00 -1.51973982E+01  7.59869910E+00  7.59869910E+00
 -1.51973982E+01  7.59869910E+00  7.59869910E+00 -1.51973982E+01  7.59869910E+00
  7.59869910E+00 -1.51973982E+01  7.59869910E+00  7.59869910E+00 -1.51973982E+01
  7.59869910E+00  7.59869910E+00 -1.51973982E+01  7.59869910E+00  7.59869910E+00
 -1.51973982E+01  7.59869910E+00  7.59869910E+00 -1.51973982E+01  7.59869910E+00
  7.59869910E+00 -1.51973982E+01  7.59869910E+00  7.59869910E+00 -1.51973982E+01
  7.59869910E+00  7.59869910E+00 -1.51973982E+01  7.59869910E+00  7.59869910E+00
 -1.51973982E+01  7.59869910E+00  7.59869910E+00 -1.51973982E+01  7.59869910E+00
  7.59869910E+00 -1.51973982E+01  7.59869910E+00  7.59869910E+00 -1.51973982E+01
  7.59869910E+00  7.59869910E+00 -1.51973982E+01  7.59869910E+00  7.59869910E+00
 -1.51973982E+01  7.59869910E+00  7.59869910E+00 -1.51973982E+01  7.59869910E+00
  7.59869910E+00 -1.51973982E+01  7.59869910E+00  7.59869910E+00 -1.51973982E+01
  7.59869910E+00  7.59869910E+00 -1.51973982E+01  7.59869910E+00  7.59869910E+00
 -1.51973982E+01  7.59869910E+00  7.59869910E+00 -1.51973982E+01  7.59869910E+00
  7.59869910E+00 -1.51973982E+01  7.59869910E+00  7.59869910E+00 -1.51973982E+01
  7.59869910E+00  7.59869910E+00 -1.51973982E+01  7.59869910E+00  7.59869910E+00
 -1.51973982E+01  7.59869910E+00  7.59869910E+00 -1.51973982E+01  7.59869910E+00
  7.59869910E+00 -1.51973982E+01  7.59869910E+00  7.59869910E+00 -1.51973982E+01
  7.59869910E+00  7.59869910E+00 -1.51973982E+01  7.59869910E+00  7.59869910E+00
 -1.51973982E+01  7.59869910E+00  7.59869910E+00 -1.51973982E+01  7.59869910E+00
  7.59869910E+00 -1.51973982E+01  7.59869910E+00  7.59869910E+00 -1.51973982E+01
  7.59869910E+00  7.59869910E+00 -1.51973982E+01  7.59869910E+00  7.59869910E+00
 -1.51973982E+01  7.59869910E+00  7.59869910E+00 -1.51973982E+01  7.59869910E+00
  7.59869910E+00 -1.51973982E+01  7.59869910E+00  7.59869910E+00 -1.51973982E+01
  7.59869910E+00  7.59869910E+00 -1.51973982E+01  7.59869910E+00  7.59869910E+00
 -1.51973982E+01  7.59869910E+00  7.59869910E+00 -1.51973982E+01  7.59869910E+00
  7.59869910E+00 -1.51973982E+01  7.59869910E+00  7.59869910E+00 -1.51973982E+01
  7.59869910E+00  7.59869910E+00 -1.51973982E+01  7.59869910E+00  7.59869910E+00
 -1.51973982E+01  7.59869910E+00  7.59869910E+00 -1.51973982E+01  7.59869910E+00
  7.59869910E+00 -1.51973982E+01  7.59869910E+00  7.59869910E+00 -1.51973982E+01
  7.59869910E+00  7.59869910E+00 -1.51973982E+01  7.59869910E+00  7.59869910E+00
 -1.51973982E+01  7.59869910E+00  7.59869910E+00 -1.51973982E+01  7.59869910E+00
  7.59869910E+00 -1.51973982E+01  7.59869910E+00  7.59869910E+00 -1.51973982E+01
  7.59869910E+00  7.59869910E+00 -1.51973982E+01  7.59869910E+00  7.59869910E+00
 -1.51973982E+01  7.59869910E+00  7.59869910E+00 -1.51973982E+01  7.59869910E+00
  7.59869910E+00 -1.51973982E+01  7.59869910E+00  7.59869910E+00 -1.51973982E+01
  7.59869910E+00  7.59869910E+00 -1.51973982E+01  7.59869910E+00  7.59869910E+00
 -1.51973982E+01  7.59869910E+00  7.59869910E+00 -1.51973982E+01  7.59869910E+00
  7.59869910E+00 -1.51973982E+01  7.59869910E+00  7.59869910E+00 -1.51973982E+01
  7.59869910E+00  7.59869910E+00 -1.51973982E+01  7.59869910E+00  7.59869910E+00
 -1.51973982E+01  7.59869910E+00  7.59869910E+00 -1.51973982E+01  7.59869910E+00
  7.59869910E+00 -1.51973982E+01  7.59869910E+00  7.59869910E+00 -1.51973982E+01
  7.59869910E+00  7.59869910E+00 -1.51973982E+01  7.59869910E+00  7.59869910E+00
 -1.51973982E+01  7.59869910E+00  7.59869910E+00 -1.51973982E+01  7.59869910E+00
  7.59869910E+00 -1.51973982E+01  7.59869910E+00  7.59869910E+00 -1.51973982E+01
  7.59869910E+00  7.59869910E+00 -1.51973982E+01  7.59869910E+00  7.59869910E+00
 -1.51973982E+01  7.59869910E+00  7.59869910E+00 -1.51973982E+01  7.59869910E+00
  7.59869910E+00 -1.51973982E+01  7.59869910E+00  7.59869910E+00 -1.51973982E+01
  7.59869910E+00  7.59869910E+00 -1.51973982E+01  7.59869910E+00  7.59869910E+00
 -1.51973982E+01  7.59869910E+00  7.59869910E+00 -1.51973982E+01  7.59869910E+00
  7.59869910E+00 -1.51973982E+01  7.59869910E+00  7.59869910E+00 -1.51973982E+01
  7.59869910E+00  7.59869910E+00 -1.51973982E+01  7.59869910E+00  7.59869910E+00
 -1.51973982E+01  7.59869910E+00  7.59869910E+00 -1.51973982E+01  7.59869910E+00
  7.59869910E+00 -1.51973982E+01  7.59869910E+00  7.59869910E+00 -1.51973982E+01
  7.59869910E+00  7.59869910E+00 -1.51973982E+01  7.59869910E+00  7.59869910E+00
 -1.51973982E+01  7.59869910E+00  7.59869910E+00 -1.51973982E+01  7.59869910E+00
  7.59869910E+00 -1.51973982E+01  7.59869910E+00  7.59869910E+00 -1.51973982E+01
  7.59869910E+00  7.59869910E+00 -1.51973982E+01  7.59869910E+00  7.59869910E+00
 -1.51973982E+01  7.59869910E+00  7.59869910E+00 -1.51973982E+01  7.59869910E+00
  7.59869910E+00 -1.51973982E+01  7.59869910E+00  7.59869910E+00 -1.51973982E+01
  7.59869910E+00  7.59869910E+00 -1.51973982E+01  7.59869910E+00  7.59869910E+00
 -1.51973982E+01  7.59869910E+00  7.59869910E+00 -1.51973982E+01  7.59869910E+00
  7.59869910E+00 -1.51973982E+01  7.59869910E+00  7.59869910E+00 -1.51973982E+01
  7.59869910E+00  7.59869910E+00 -1.51973982E+01  7.59869910E+00  7.59869910E+00
 -1.51973982E+01  7.59869910E+00  7.59869910E+00 -1.51973982E+01  7.59869910E+00
  7.59869910E+00 -1.51973982E+01  7.59869910E+00  7.59869910E+00 -1.51973982E+01
  7.59869910E+00  7.59869910E+00 -1.51973982E+01  7.59869910E+00  7.59869910E+00
 -1.51973982E+01  7.59869910E+00  7.59869910E+00 -1.51973982E+01  7.59869910E+00
  7.59869910E+00 -1.51973982E+01  7.59869910E+00  7.59869910E+00 -1.51973982E+01
  7.59869910E+00  7.59869910E+00 -1.51973982E+01  7.59869910E+00  7.59869910E+00
 -1.51973982E+01  7.59869910E+00  7.59869910E+00 -1.51973982E+01  7.59869910E+00
  7.59869910E+00 -1.51973982E+01  7.59869910E+00  7.59869910E+00 -1.51973982E+01
  7.59869910E+00  7.59869910E+00 -1.51973982E+01  7.59869910E+00  7.59869910E+00
 -1.51973982E+01  7.59869910E+00  7.59869910E+00 -1.51973982E+01  7.59869910E+00
  7.59869910E+00 -1.51973982E+01  7.59869910E+00  7.59869910E+00 -1.51973982E+01
  7.59869910E+00  7.59869910E+00 -1.51973982E+01  7.59869910E+00  7.59869910E+00
 -1.51973982E+01  7.59869910E+00  7.59869910E+00 -1.51973982E+01  7.59869910E+00
  7.59869910E+00 -1.51973982E+01  7.59869910E+00  7.59869910E+00 -1.51973982E+01
  7.59869910E+00  7.59869910E+00 -1.51973982E+01  7.59869910E+00  7.59869910E+00
 -1.51973982E+01  7.59869910E+00  7.59869910E+00 -1.51973982E+01  7.59869910E+00
  7.59869910E+00 -1.51973982E+01  7.59869910E+00  7.59869910E+00 -1.51973982E+01
  7.59869910E+00  7.59869910E+00 -1.51973982E+01  7.59869910E+00  7.59869910E+00
 -1.51973982E+01  7.59869910E+00  7.59869910E+00 -1.51973982E+01  7.59869910E+00
  7.59869910E+00 -1.51973982E+01  7.59869910E+00  7.59869910E+00 -1.51973982E+01
  7.59869910E+00  7.59869910E+00 -1.51973982E+01  7.59869910E+00  7.59869910E+00
 -1.51973982E+01  7.59869910E+00  7.59869910E+00 -1.51973982E+01  7.59869910E+00
  7.59869910E+00 -1.51973982E+01  7.59869910E+00  7.59869910E+00 -1.51973982E+01
  7.59869910E+00  7.59869910E+00 -1.51973982E+01  7.59869910E+00  7.59869910E+00
 -1.51973982E+01  7.59869910E+00  7.59869910E+00 -1.51973982E+01  7.59869910E+00
  7.59869910E+00 -1.51973982E+01  7.59869910E+00  7.59869910E+00 -1.51973982E+01
  7.59869910E+00  7.59869910E+00 -1.51973982E+01  7.59869910E+00  7.59869910E+00
 -1.51973982E+01  7.59869910E+00  7.59869910E+00 -1.51973982E+01  7.59869910E+00
  7.59869910E+00 -1.51973982E+01  7.59869910E+00  7.59869910E+00 -1.51973982E+01
  7.59869910E+00  7.59869910E+00 -1.51973982E+01  7.59869910E+00  7.59869910E+00
 -1.51973982E+01  7.59869910E+00  7.59869910E+00 -1.51973982E+01  7.59869910E+00
  7.59869910E+00 -1.51973982E+01  7.59869910E+00  7.59869910E+00 -1.51973982E+01
  7.59869910E+00  7.59869910E+00 -1.51973982E+01  7.59869910E+00  7.59869910E+00
 -1.51973982E+01  7.59869910E+00  7.59869910E+00 -1.51973982E+01  7.59869910E+00
  7.59869910E+00 -1.51973982E+01  7.59869910E+00  7.59869910E+00 -1.51973982E+01
  7.59869910E+00  7.59869910E+00 -1.51973982E+01  7.59869910E+00  7.59869910E+00
 -1.51973982E+01  7.59869910E+00  7.59869910E+00 -1.51973982E+01  7.59869910E+00
  7.59869910E+00 -1.51973982E+01  7.59869910E+00  7.59869910E+00 -1.51973982E+01
  7.59869910E+00  7.59869910E+00 -1.51973982E+01  7.59869910E+00  7.59869910E+00
 -1.51973982E+01  7.59869910E+00  7.59869910E+00 -1.51973982E+01  7.59869910E+00
  7.59869910E+00 -1.51973982E+01  7.59869910E+00  7.59869910E+00 -1.51973982E+01
  7.59869910E+00  7.59869910E+00 -1.51973982E+01  7.59869910E+00  7.59869910E+00
 -1.51973982E+01  7.59869910E+00  7.59869910E+00 -1.51973982E+01  7.59869910E+00
  7.59869910E+00 -1.51973982E+01  7.59869910E+00  7.59869910E+00 -1.51973982E+01
  7.59869910E+00  7.59869910E+00 -1.51973982E+01  7.59869910E+00  7.59869910E+00
 -1.51973982E+01  7.59869910E+00  7.59869910E+00 -1.51973982E+01  7.59869910E+00
  7.59869910E+00 -1.51973982E+01  7.59869910E+00  7.59869910E+00 -1.51973982E+01
  7.59869910E+00  7.59869910E+00 -1.51973982E+01  7.59869910E+00  7.59869910E+00
 -1.51973982E+01  7.59869910E+00  7.59869910E+00 -1.51973982E+01  7.59869910E+00
  7.59869910E+00 -1.51973982E+01  7.59869910E+00  7.59869910E+00 -1.51973982E+01
  7.59869910E+00  7.59869910E+00 -1.51973982E+01  7.59869910E+00  7.59869910E+00
 -1.51973982E+01  7.59869910E+00  7.59869910E+00 -1.51973982E+01  7.59869910E+00
  7.59869910E+00 -1.51973982E+01  7.59869910E+00  7.59869910E+00 -1.51973982E+01
  7.59869910E+00  7.59869910E+00 -1.51973982E+01  7.59869910E+00  7.59869910E+00
 -1.51973982E+01  7.59869910E+00  7.59869910E+00 -1.51973982E+01  7.59869910E+00
  7.59869910E+00 -1.51973982E+01  7.59869910E+00  7.59869910E+00 -1.51973982E+01
  7.59869910E+00  7.59869910E+00 -1.51973982E+01  7.59869910E+00  7.59869910E+00
 -1.51973982E+01  7.59869910E+00  7.59869910E+00 -1.51973982E+01  7.59869910E+00
  7.59869910E+00 -1.51973982E+01  7.59869910E+00  7.59869910E+00 -1.51973982E+01
  7.59869910E+00  7.59869910E+00 -1.51973982E+01  7.59869910E+00  7.59869910E+00
 -1.51973982E+01  7.59869910E+00  7.59869910E+00 -1.51973982E+01  7.59869910E+00
  7.59869910E+00 -1.51973982E+01  7.59869910E+00  7.59869910E+00 -1.51973982E+01
  7.59869910E+00  7.59869910E+00 -1.51973982E+01  7.59869910E+00  7.59869910E+00
 -1.51973982E+01  7.59869910E+00  7.59869910E+00 -1.51973982E+01  7.59869910E+00
  7.59869910E+00 -1.51973982E+01  7.59869910E+00  7.59869910E+00 -1.51973982E+01
  7.59869910E+00  7.59869910E+00 -1.51973982E+01  7.59869910E+00  7.59869910E+00
 -1.51973982E+01  7.59869910E+00  7.59869910E+00 -1.51973982E+01  7.59869910E+00
  7.59869910E+00 -1.51973982E+01  7.59869910E+00  7.59869910E+00 -1.51973982E+01
  7.59869910E+00  7.59869910E+00 -1.51973982E+01  7.59869910E+00  7.59869910E+00
 -1.51973982E+01  7.59869910E+00  7.59869910E+00 -1.51973982E+01  7.59869910E+00
  7.59869910E+00 -1.51973982E+01  7.59869910E+00  7.59869910E+00 -1.51973982E+01
  7.59869910E+00  7.59869910E+00 -1.51973982E+01  7.59869910E+00  7.59869910E+00
 -1.51973982E+01  7.59869910E+00  7.59869910E+00 -1.51973982E+01  7.59869910E+00
  7.59869910E+00 -1.51973982E+01  7.59869910E+00  7.59869910E+00 -1.51973982E+01
  7.59869910E+00  7.59869910E+00 -1.51973982E+01  7.59869910E+00  7.59869910E+00
 -1.51973982E+01  7.59869910E+00  7.59869910E+00 -1.51973982E+01  7.59869910E+00
  7.59869910E+00 -1.51973982E+01  7.59869910E+00  7.59869910E+00 -1.51973982E+01
  7.59869910E+00  7.59869910E+00 -1.51973982E+01  7.59869910E+00  7.59869910E+00
 -1.51973982E+01  7.59869910E+00  7.59869910E+00 -1.51973982E+01  7.59869910E+00
  7.59869910E+00 -1.51973982E+01  7.59869910E+00  7.59869910E+00 -1.51973982E+01
  7.59869910E+00  7.59869910E+00 -1.51973982E+01  7.59869910E+00  7.59869910E+00
 -1.51973982E+01  7.59869910E+00  7.59869910E+00 -1.51973982E+01  7.59869910E+00
  7.59869910E+00 -1.51973982E+01  7.59869910E+00  7.59869910E+00 -1.51973982E+01
  7.59869910E+00  7.59869910E+00 -1.51973982E+01  7.59869910E+00  7.59869910E+00
 -1.51973982E+01  7.59869910E+00  7.59869910E+00 -1.51973982E+01  7.59869910E+00
  7.59869910E+00 -1.51973982E+01  7.59869910E+00  7.59869910E+00 -1.51973982E+01
  7.59869910E+00  7.59869910E+00 -1.51973982E+01  7.59869910E+00  7.59869910E+00
 -1.51973982E+01  7.59869910E+00  7.59869910E+00 -1.51973982E+01  7.59869910E+00
  7.59869910E+00 -1.51973982E+01  7.59869910E+00  7.59869910E+00 -1.51973982E+01
  7.59869910E+00  7.59869910E+00 -1.51973982E+01  7.59869910E+00  7.59869910E+00
 -1.51973982E+01  7.59869910E+00  7.59869910E+00 -1.51973982E+01  7.59869910E+00
  7.59869910E+00 -1.51973982E+01  7.59869910E+00  7.59869910E+00 -1.51973982E+01
  7.59869910E+00  7.59869910E+00 -1.51973982E+01  7.59869910E+00  7.59869910E+00
 -1.51973982E+01  7.59869910E+00  7.59869910E+00 -1.51973982E+01  7.59869910E+00
  7.59869910E+00 -1.51973982E+01  7.59869910E+00  7.59869910E+00 -1.51973982E+01
  7.59869910E+00  7.59869910E+00 -1.51973982E+01  7.59869910E+00  7.59869910E+00
 -1.51973982E+01  7.59869910E+00  7.59869910E+00 -1.51973982E+01  7.59869910E+00
  7.59869910E+00 -1.51973982E+01  7.59869910E+00  7.59869910E+00 -1.51973982E+01
  7.59869910E+00  7.59869910E+00 -1.51973982E+01  7.59869910E+00  7.59869910E+00
 -1.51973982E+01  7.59869910E+00  7.59869910E+00 -1.51973982E+01  7.59869910E+00
  7.59869910E+00 -1.51973982E+01  7.59869910E+00  7.59869910E+00 -1.51973982E+01
  7.59869910E+00  7.59869910E+00 -1.51973982E+01  7.59869910E+00  7.59869910E+00
 -1.51973982E+01  7.59869910E+00  7.59869910E+00 -1.51973982E+01  7.59869910E+00
  7.59869910E+00 -1.51973982E+01  7.59869910E+00  7.59869910E+00 -1.51973982E+01
  7.59869910E+00  7.59869910E+00 -1.51973982E+01  7.59869910E+00  7.59869910E+00
 -1.51973982E+01  7.59869910E+00  7.59869910E+00 -1.51973982E+01  7.59869910E+00
  7.59869910E+00 -1.51973982E+01  7.59869910E+00  7.59869910E+00 -1.51973982E+01
  7.59869910E+00  7.59869910E+00 -1.51973982E+01  7.59869910E+00  7.59869910E+00
 -1.51973982E+01  7.59869910E+00  7.59869910E+00 -1.51973982E+01  7.59869910E+00
  7.59869910E+00 -1.51973982E+01  7.59869910E+00  7.59869910E+00 -1.51973982E+01
  7.59869910E+00  7.59869910E+00 -1.51973982E+01  7.59869910E+00  7.59869910E+00
 -1.51973982E+01  7.59869910E+00  7.59869910E+00 -1.51973982E+01  7.59869910E+00
  7.59869910E+00 -1.51973982E+01  7.59869910E+00  7.59869910E+00 -1.51973982E+01
  7.59869910E+00  7.59869910E+00 -1.51973982E+01  7.59869910E+00  7.59869910E+00
 -1.51973982E+01  7.59869910E+00  7.59869910E+00 -1.51973982E+01  7.59869910E+00
  7.59869910E+00 -1.51973982E+01  7.59869910E+00  7.59869910E+00 -1.51973982E+01
  7.59869910E+00  7.59869910E+00 -1.51973982E+01  7.59869910E+00  7.59869910E+00
 -1.51973982E+01  7.59869910E+00  7.59869910E+00 -1.51973982E+01  7.59869910E+00
  7.59869910E+00 -1.51973982E+01  7.59869910E+00  7.59869910E+00 -1.51973982E+01
  7.59869910E+00  7.59869910E+00 -1.51973982E+01  7.59869910E+00  7.59869910E+00
 -1.51973982E+01  7.59869910E+00  7.59869910E+00 -1.51973982E+01  7.59869910E+00
  7.59869910E+00 -1.51973982E+01  7.59869910E+00  7.59869910E+00 -1.51973982E+01
  7.59869910E+00  7.59869910E+00 -1.51973982E+01  7.59869910E+00  7.59869910E+00
 -1.51973982E+01  7.59869910E+00  7.59869910E+00 -1.51973982E+01  7.59869910E+00
  7.59869910E+00 -1.51973982E+01  7.59869910E+00  7.59869910E+00 -1.51973982E+01
  7.59869910E+00  7.59869910E+00 -1.51973982E+01  7.59869910E+00  7.59869910E+00
 -1.51973982E+01  7.59869910E+00  7.59869910E+00 -1.51973982E+01  7.59869910E+00
  7.59869910E+00 -1.51973982E+01  7.59869910E+00  7.59869910E+00 -1.51973982E+01
  7.59869910E+00  7.59869910E+00 -1.51973982E+01  7.59869910E+00  7.59869910E+00
 -1.51973982E+01  7.59869910E+00  7.59869910E+00 -1.51973982E+01  7.59869910E+00
  7.59869910E+00 -1.51973982E+01  7.59869910E+00  7.59869910E+00 -1.51973982E+01
  7.59869910E+00  7.59869910E+00 -1.51973982E+01  7.59869910E+00  7.59869910E+00
 -1.51973982E+01  7.59869910E+00  7.59869910E+00 -1.51973982E+01  7.59869910E+00
  7.59869910E+00 -1.51973982E+01  7.59869910E+00  7.59869910E+00 -1.51973982E+01
  7.59869910E+00  7.59869910E+00 -1.51973982E+01  7.59869910E+00  7.59869910E+00
 -1.51973982E+01  7.59869910E+00  7.59869910E+00 -1.51973982E+01  7.59869910E+00
  7.59869910E+00 -1.51973982E+01  7.59869910E+00  7.59869910E+00 -1.51973982E+01
  7.59869910E+00  7.59869910E+00 -1.51973982E+01  7.59869910E+00  7.59869910E+00
 -1.51973982E+01  7.59869910E+00  7.59869910E+00 -1.51973982E+01  7.59869910E+00
  7.59869910E+00 -1.51973982E+01  7.59869910E+00  7.59869910E+00 -1.51973982E+01
  7.59869910E+00  7.59869910E+00 -1.51973982E+01  7.59869910E+00  7.59869910E+00
 -1.51973982E+01  7.59869910E+00  7.59869910E+00 -1.51973982E+01  7.59869910E+00
  7.59869910E+00 -1.51973982E+01  7.59869910E+00  7.59869910E+00 -1.51973982E+01
  7.59869910E+00  7.59869910E+00 -1.51973982E+01  7.59869910E+00  7.59869910E+00
 -1.51973982E+01  7.59869910E+00  7.59869910E+00 -1.51973982E+01  7.59869910E+00
  7.59869910E+00 -1.51973982E+01  7.59869910E+00  7.59869910E+00 -1.51973982E+01
  7.59869910E+00  7.59869910E+00 -1.51973982E+01  7.59869910E+00  7.59869910E+00
 -1.51973982E+01  7.59869910E+00  7.59869910E+00 -1.51973982E+01  7.59869910E+00
  7.59869910E+00 -1.51973982E+01  7.59869910E+00  7.59869910E+00 -1.51973982E+01
  7.59869910E+00  7.59869910E+00 -1.51973982E+01  7.59869910E+00  7.59869910E+00
 -1.51973982E+01  7.59869910E+00  7.59869910E+00 -1.51973982E+01  7.59869910E+00
  7.59869910E+00 -1.51973982E+01  7.59869910E+00  7.59869910E+00 -1.51973982E+01
  7.59869910E+00  7.59869910E+00 -1.51973982E+01  7.59869910E+00  7.59869910E+00
 -1.51973982E+01  7.59869910E+00  7.59869910E+00 -1.51973982E+01  7.59869910E+00
  7.59869910E+00 -1.51973982E+01  7.59869910E+00  7.59869910E+00 -1.51973982E+01
  7.59869910E+00  7.59869910E+00 -1.51973982E+01  7.59869910E+00  7.59869910E+00
 -1.51973982E+01  7.59869910E+00  7.59869910E+00 -1.51973982E+01  7.59869910E+00
  7.59869910E+00 -1.51973982E+01  7.59869910E+00  7.59869910E+00 -1.51973982E+01
  7.59869910E+00  7.59869910E+00 -1.51973982E+01  7.59869910E+00  7.59869910E+00
 -1.51973982E+01  7.59869910E+00  7.59869910E+00 -1.51973982E+01  7.59869910E+00
  7.59869910E+00 -1.51973982E+01  7.59869910E+00  7.59869910E+00 -1.51973982E+01
  7.59869910E+00  7.59869910E+00 -1.51973982E+01  7.59869910E+00  7.59869910E+00
 -1.51973982E+01  7.59869910E+00  7.59869910E+00 -1.51973982E+01  7.59869910E+00
  7.59869910E+00 -1.51973982E+01  7.59869910E+00  7.59869910E+00 -1.51973982E+01
  7.59869910E+00  7.59869910E+00 -1.51973982E+01  7.59869910E+00  7.59869910E+00
 -1.51973982E+01  7.59869910E+00  7.59869910E+00 -1.51973982E+01  7.59869910E+00
  7.59869910E+00 -1.51973982E+01  7.59869910E+00  7.59869910E+00 -1.51973982E+01
  7.59869910E+00  7.59869910E+00 -1.51973982E+01  7.59869910E+00  7.59869910E+00
 -1.51973982E+01  7.59869910E+00  7.59869910E+00 -1.51973982E+01  7.59869910E+00
  7.59869910E+00 -1.51973982E+01  7.59869910E+00  7.59869910E+00 -1.51973982E+01
  7.59869910E+00  7.59869910E+00 -1.51973982E+01  7.59869910E+00  7.59869910E+00
 -1.51973982E+01  7.59869910E+00  7.59869910E+00 -1.51973982E+01  7.59869910E+00
  7.59869910E+00 -1.51973982E+01  7.59869910E+00  7.59869910E+00 -1.51973982E+01
  7.59869910E+00  7.59869910E+00 -1.51973982E+01  7.59869910E+00  7.59869910E+00
 -1.51973982E+01  7.59869910E+00  7.59869910E+00 -1.51973982E+01  7.59869910E+00
  7.59869910E+00 -1.51973982E+01  7.59869910E+00  7.59869910E+00 -1.51973982E+01
  7.59869910E+00  7.59869910E+00 -1.51973982E+01  7.59869910E+00  7.59869910E+00
 -1.51973982E+01  7.59869910E+00  7.59869910E+00 -1.51973982E+01  7.59869910E+00
  7.59869910E+00 -1.51973982E+01  7.59869910E+00  7.59869910E+00 -1.51973982E+01
  7.59869910E+00  7.59869910E+00 -1.51973982E+01  7.59869910E+00  7.59869910E+00
 -1.51973982E+01  7.59869910E+00  7.59869910E+00 -1.51973982E+01  7.59869910E+00
  7.59869910E+00 -1.51973982E+01  7.59869910E+00  7.59869910E+00 -1.51973982E+01
  7.59869910E+00  7.59869910E+00 -1.51973982E+01  7.59869910E+00  7.59869910E+00
 -1.51973982E+01  7.59869910E+00  7.59869910E+00 -1.51973982E+01  7.59869910E+00
  7.59869910E+00 -1.51973982E+01  7.59869910E+00  7.59869910E+00 -1.51973982E+01
  7.59869910E+00  7.59869910E+00 -1.51973982E+01  7.59869910E+00  7.59869910E+00
 -1.51973982E+01  7.59869910E+00  7.59869910E+00 -1.51973982E+01  7.59869910E+00
  7.59869910E+00 -1.51973982E+01  7.59869910E+00  7.59869910E+00 -1.51973982E+01
  7.59869910E+00  7.59869910E+00 -1.51973982E+01  7.59869910E+00  7.59869910E+00
 -1.51973982E+01  7.59869910E+00  7.59869910E+00 -1.51973982E+01  7.59869910E+00
  7.59869910E+00 -1.51973982E+01  7.59869910E+00  7.59869910E+00 -1.51973982E+01
  7.59869910E+00  7.59869910E+00 -1.51973982E+01  7.59869910E+00  7.59869910E+00
 -1.51973982E+01  7.59869910E+00  7.59869910E+00 -1.51973982E+01  7.59869910E+00
  7.59869910E+00 -1.51973982E+01  7.59869910E+00  7.59869910E+00 -1.51973982E+01
  7.59869910E+00  7.59869910E+00 -1.51973982E+01  7.59869910E+00  7.59869910E+00
 -1.51973982E+01  7.59869910E+00  7.59869910E+00 -1.51973982E+01  7.59869910E+00
  7.59869910E+00 -1.51973982E+01  7.59869910E+00  7.59869910E+00 -1.51973982E+01
  7.59869910E+00  7.59869910E+00 -1.51973982E+01  7.59869910E+00  7.59869910E+00
 -1.51973982E+01  7.59869910E+00  7.59869910E+00 -1.51973982E+01  7.59869910E+00
  7.59869910E+00 -1.51973982E+01  7.59869910E+00  7.59869910E+00 -1.51973982E+01
  7.59869910E+00  7.59869910E+00 -1.51973982E+01  7.59869910E+00  7.59869910E+00
 -1.51973982E+01  7.59869910E+00  7.59869910E+00 -1.51973982E+01  7.59869910E+00
  7.59869910E+00 -1.51973982E+01  7.59869910E+00  7.59869910E+00 -1.51973982E+01
  7.59869910E+00  7.59869910E+00 -1.51973982E+01  7.59869910E+00  7.59869910E+00
 -1.51973982E+01  7.59869910E+00  7.59869910E+00 -1.51973982E+01  7.59869910E+00
  7.59869910E+00 -1.51973982E+01  7.59869910E+00  7.59869910E+00 -1.51973982E+01
  7.59869910E+00  7.59869910E+00 -1.51973982E+01  7.59869910E+00  7.59869910E+00
 -1.51973982E+01  7.59869910E+00  7.59869910E+00 -1.51973982E+01  7.59869910E+00
  7.59869910E+00 -1.51973982E+01  7.59869910E+00  7.59869910E+00 -1.51973982E+01
  7.59869910E+00  7.59869910E+00 -1.51973982E+01  7.59869910E+00  7.59869910E+00
 -1.51973982E+01  7.59869910E+00  7.59869910E+00 -1.51973982E+01  7.59869910E+00
  7.59869910E+00 -1.51973982E+01  7.59869910E+00  7.59869910E+00 -1.51973982E+01
  7.59869910E+00  7.59869910E+00 -1.51973982E+01  7.59869910E+00  7.59869910E+00
 -1.51973982E+01  7.59869910E+00  7.59869910E+00 -1.51973982E+01  7.59869910E+00
  7.59869910E+00 -1.51973982E+01  7.59869910E+00  7.59869910E+00 -1.51973982E+01
  7.59869910E+00  7.59869910E+00 -1.51973982E+01  7.59869910E+00  7.59869910E+00
 -1.51973982E+01  7.59869910E+00  7.59869910E+00 -1.51973982E+01  7.59869910E+00
  7.59869910E+00 -1.51973982E+01  7.59869910E+00  7.59869910E+00 -1.51973982E+01
  7.59869910E+00  7.59869910E+00 -1.51973982E+01  7.59869910E+00  7.59869910E+00
 -1.51973982E+01  7.59869910E+00  7.59869910E+00 -1.51973982E+01  7.59869910E+00
  7.59869910E+00 -1.51973982E+01  7.59869910E+00  7.59869910E+00 -1.51973982E+01
  7.59869910E+00  7.59869910E+00 -1.51973982E+01  7.59869910E+00  7.59869910E+00
 -1.51973982E+01  7.59869910E+00  7.59869910E+00 -1.51973982E+01  7.59869910E+00
  7.59869910E+00 -1.51973982E+01  7.59869910E+00  7.59869910E+00 -1.51973982E+01
  7.59869910E+00  7.59869910E+00 -1.51973982E+01  7.59869910E+00  7.59869910E+00
 -1.51973982E+01  7.59869910E+00  7.59869910E+00 -1.51973982E+01  7.59869910E+00
  7.59869910E+00 -1.51973982E+01  7.59869910E+00  7.59869910E+00 -1.51973982E+01
  7.59869910E+00  7.59869910E+00 -1.51973982E+01  7.59869910E+00  7.59869910E+00
 -1.51973982E+01  7.59869910E+00  7.59869910E+00 -1.51973982E+01  7.59869910E+00
  7.59869910E+00 -1.51973982E+01  7.59869910E+00  7.59869910E+00 -1.51973982E+01
  7.59869910E+00  7.59869910E+00 -1.51973982E+01  7.59869910E+00  7.59869910E+00
 -1.51973982E+01  7.59869910E+00  7.59869910E+00 -1.51973982E+01  7.59869910E+00
  7.59869910E+00 -1.51973982E+01  7.59869910E+00  7.59869910E+00 -1.51973982E+01
  7.59869910E+00  7.59869910E+00 -1.51973982E+01  7.59869910E+00  7.59869910E+00
 -1.51973982E+01  7.59869910E+00  7.59869910E+00 -1.51973982E+01  7.59869910E+00
  7.59869910E+00 -1.51973982E+01  7.59869910E+00  7.59869910E+00 -1.51973982E+01
  7.59869910E+00  7.59869910E+00 -1.51973982E+01  7.59869910E+00  7.59869910E+00
 -1.51973982E+01  7.59869910E+00  7.59869910E+00 -1.51973982E+01  7.59869910E+00
  7.59869910E+00 -1.51973982E+01  7.59869910E+00  7.59869910E+00 -1.51973982E+01
  7.59869910E+00  7.59869910E+00 -1.51973982E+01  7.59869910E+00  7.59869910E+00
 -1.51973982E+01  7.59869910E+00  7.59869910E+00 -1.51973982E+01  7.59869910E+00
  7.59869910E+00 -1.51973982E+01  7.59869910E+00  7.59869910E+00 -1.51973982E+01
  7.59869910E+00  7.59869910E+00 -1.51973982E+01  7.59869910E+00  7.59869910E+00
 -1.51973982E+01  7.59869910E+00  7.59869910E+00 -1.51973982E+01  7.59869910E+00
  7.59869910E+00 -1.51973982E+01  7.59869910E+00  7.59869910E+00 -1.51973982E+01
  7.59869910E+00  7.59869910E+00 -1.51973982E+01  7.59869910E+00  7.59869910E+00
 -1.51973982E+01  7.59869910E+00  7.59869910E+00 -1.51973982E+01  7.59869910E+00
  7.59869910E+00 -1.51973982E+01  7.59869910E+00  7.59869910E+00 -1.51973982E+01
  7.59869910E+00  7.59869910E+00 -1.51973982E+01  7.59869910E+00  7.59869910E+00
 -1.51973982E+01  7.59869910E+00  7.59869910E+00 -1.51973982E+01  7.59869910E+00
  7.59869910E+00 -1.51973982E+01  7.59869910E+00  7.59869910E+00 -1.51973982E+01
  7.59869910E+00  7.59869910E+00 -1.51973982E+01  7.59869910E+00  7.59869910E+00
 -1.51973982E+01  7.59869910E+00  7.59869910E+00 -1.51973982E+01  7.59869910E+00
  7.59869910E+00 -1.51973982E+01  7.59869910E+00  7.59869910E+00 -1.51973982E+01
  7.59869910E+00  7.59869910E+00 -1.51973982E+01  7.59869910E+00  7.59869910E+00
 -1.51973982E+01  7.59869910E+00  7.59869910E+00 -1.51973982E+01  7.59869910E+00
  7.59869910E+00 -1.51973982E+01  7.59869910E+00  7.59869910E+00 -1.51973982E+01
  7.59869910E+00  7.59869910E+00 -1.51973982E+01  7.59869910E+00  7.59869910E+00
 -1.51973982E+01  7.59869910E+00  7.59869910E+00 -1.51973982E+01  7.59869910E+00
  7.59869910E+00 -1.51973982E+01  7.59869910E+00  7.59869910E+00 -1.51973982E+01
  7.59869910E+00  7.59869910E+00 -1.51973982E+01  7.59869910E+00  7.59869910E+00
 -1.51973982E+01  7.59869910E+00  7.59869910E+00 -1.51973982E+01  7.59869910E+00
  7.59869910E+00 -1.51973982E+01  7.59869910E+00  7.59869910E+00 -1.51973982E+01
  7.59869910E+00  7.59869910E+00 -1.51973982E+01  7.59869910E+00  7.59869910E+00
 -1.51973982E+01  7.59869910E+00  7.59869910E+00 -1.51973982E+01  7.59869910E+00
  7.59869910E+00 -1.51973982E+01  7.59869910E+00  7.59869910E+00 -1.51973982E+01
  7.59869910E+00  7.59869910E+00 -1.51973982E+01  7.59869910E+00  7.59869910E+00
 -1.51973982E+01  7.59869910E+00  7.59869910E+00 -1.51973982E+01  7.59869910E+00
  7.59869910E+00 -1.51973982E+01  7.59869910E+00  7.59869910E+00 -1.51973982E+01
  7.59869910E+00  7.59869910E+00 -1.51973982E+01  7.59869910E+00  7.59869910E+00
 -1.51973982E+01  7.59869910E+00  7.59869910E+00 -1.51973982E+01  7.59869910E+00
  7.59869910E+00 -1.51973982E+01  7.59869910E+00  7.59869910E+00 -1.51973982E+01
  7.59869910E+00  7.59869910E+00 -1.51973982E+01  7.59869910E+00  7.59869910E+00
 -1.51973982E+01  7.59869910E+00  7.59869910E+00 -1.51973982E+01  7.59869910E+00
  7.59869910E+00 -1.51973982E+01  7.59869910E+00  7.59869910E+00 -1.51973982E+01
  7.59869910E+00  7.59869910E+00 -1.51973982E+01  7.59869910E+00  7.59869910E+00
 -1.51973982E+01  7.59869910E+00  7.59869910E+00 -1.51973982E+01  7.59869910E+00
  7.59869910E+00 -1.51973982E+01  7.59869910E+00  7.59869910E+00 -1.51973982E+01
  7.59869910E+00  7.59869910E+00 -1.51973982E+01  7.59869910E+00  7.59869910E+00
 -1.51973982E+01  7.59869910E+00  7.59869910E+00 -1.51973982E+01  7.59869910E+00
  7.59869910E+00 -1.51973982E+01  7.59869910E+00  7.59869910E+00 -1.51973982E+01
  7.59869910E+00  7.59869910E+00 -1.51973982E+01  7.59869910E+00  7.59869910E+00
 -1.51973982E+01  7.59869910E+00  7.59869910E+00 -1.51973982E+01  7.59869910E+00
  7.59869910E+00 -1.51973982E+01  7.59869910E+00  7.59869910E+00 -1.51973982E+01
  7.59869910E+00  7.59869910E+00 -1.51973982E+01  7.59869910E+00  7.59869910E+00
 -1.51973982E+01  7.59869910E+00  7.59869910E+00 -1.51973982E+01  7.59869910E+00
  7.59869910E+00 -1.51973982E+01  7.59869910E+00  7.59869910E+00 -1.51973982E+01
  7.59869910E+00  7.59869910E+00 -1.51973982E+01  7.59869910E+00  7.59869910E+00
 -1.51973982E+01  7.59869910E+00  7.59869910E+00 -1.51973982E+01  7.59869910E+00
  7.59869910E+00 -1.51973982E+01  7.59869910E+00  7.59869910E+00 -1.51973982E+01
  7.59869910E+00  7.59869910E+00 -1.51973982E+01  7.59869910E+00  7.59869910E+00
 -1.51973982E+01  7.59869910E+00  7.59869910E+00 -1.51973982E+01  7.59869910E+00
  7.59869910E+00 -1.51973982E+01  7.59869910E+00  7.59869910E+00 -1.51973982E+01
  7.59869910E+00  7.59869910E+00 -1.51973982E+01  7.59869910E+00  7.59869910E+00
 -1.51973982E+01  7.59869910E+00  7.59869910E+00 -1.51973982E+01  7.59869910E+00
  7.59869910E+00 -1.51973982E+01  7.59869910E+00  7.59869910E+00 -1.51973982E+01
  7.59869910E+00  7.59869910E+00 -1.51973982E+01  7.59869910E+00  7.59869910E+00
 -1.51973982E+01  7.59869910E+00  7.59869910E+00 -1.51973982E+01  7.59869910E+00
  7.59869910E+00 -1.51973982E+01  7.59869910E+00  7.59869910E+00 -1.51973982E+01
  7.59869910E+00  7.59869910E+00 -1.51973982E+01  7.59869910E+00  7.59869910E+00
 -1.51973982E+01  7.59869910E+00  7.59869910E+00 -1.51973982E+01  7.59869910E+00
  7.59869910E+00 -1.51973982E+01  7.59869910E+00  7.59869910E+00 -1.51973982E+01
  7.59869910E+00  7.59869910E+00 -1.51973982E+01  7.59869910E+00  7.59869910E+00
 -1.51973982E+01  7.59869910E+00  7.59869910E+00 -1.51973982E+01  7.59869910E+00
  7.59869910E+00 -1.51973982E+01  7.59869910E+00  7.59869910E+00 -1.51973982E+01
  7.59869910E+00  7.59869910E+00 -1.51973982E+01  7.59869910E+00  7.59869910E+00
 -1.51973982E+01  7.59869910E+00  7.59869910E+00 -1.51973982E+01  7.59869910E+00
  7.59869910E+00 -1.51973982E+01  7.59869910E+00  7.59869910E+00 -1.51973982E+01
  7.59869910E+00  7.59869910E+00 -1.51973982E+01  7.59869910E+00  7.59869910E+00
 -1.51973982E+01  7.59869910E+00  7.59869910E+00 -1.51973982E+01  7.59869910E+00
  7.59869910E+00 -1.51973982E+01  7.59869910E+00  7.59869910E+00 -1.51973982E+01
  7.59869910E+00  7.59869910E+00 -1.51973982E+01  7.59869910E+00  7.59869910E+00
 -1.51973982E+01  7.59869910E+00  7.59869910E+00 -1.51973982E+01  7.59869910E+00
  7.59869910E+00 -1.51973982E+01  7.59869910E+00  7.59869910E+00 -1.51973982E+01
  7.59869910E+00  7.59869910E+00 -1.51973982E+01  7.59869910E+00  7.59869910E+00
 -1.51973982E+01  7.59869910E+00  7.59869910E+00 -1.51973982E+01  7.59869910E+00
  7.59869910E+00 -1.51973982E+01  7.59869910E+00  7.59869910E+00 -1.51973982E+01
  7.59869910E+00  7.59869910E+00 -1.51973982E+01  7.59869910E+00  7.59869910E+00
 -1.51973982E+01  7.59869910E+00  7.59869910E+00 -1.51973982E+01  7.59869910E+00
  7.59869910E+00 -1.51973982E+01  7.59869910E+00  7.59869910E+00 -1.51973982E+01
  7.59869910E+00  7.59869910E+00 -1.51973982E+01  7.59869910E+00  7.59869910E+00
 -1.51973982E+01  7.59869910E+00  7.59869910E+00 -1.51973982E+01  7.59869910E+00
  7.59869910E+00 -1.51973982E+01  7.59869910E+00  7.59869910E+00 -1.51973982E+01
  7.59869910E+00  7.59869910E+00 -1.51973982E+01  7.59869910E+00  7.59869910E+00
 -1.51973982E+01  7.59869910E+00  7.59869910E+00 -1.51973982E+01  7.59869910E+00
  7.59869910E+00 -1.51973982E+01  7.59869910E+00  7.59869910E+00 -1.51973982E+01
  7.59869910E+00  7.59869910E+00 -1.51973982E+01  7.59869910E+00  7.59869910E+00
 -1.51973982E+01  7.59869910E+00  7.59869910E+00 -1.51973982E+01  7.59869910E+00
  7.59869910E+00 -1.51973982E+01  7.59869910E+00  7.59869910E+00 -1.51973982E+01
  7.59869910E+00  7.59869910E+00 -1.51973982E+01  7.59869910E+00  7.59869910E+00
 -1.51973982E+01  7.59869910E+00  7.59869910E+00 -1.51973982E+01  7.59869910E+00
  7.59869910E+00 -1.51973982E+01  7.59869910E+00  7.59869910E+00 -1.51973982E+01
  7.59869910E+00  7.59869910E+00 -1.51973982E+01  7.59869910E+00  7.59869910E+00
 -1.51973982E+01  7.59869910E+00  7.59869910E+00 -1.51973982E+01  7.59869910E+00
  7.59869910E+00 -1.51973982E+01  7.59869910E+00  7.59869910E+00 -1.51973982E+01
  7.59869910E+00  7.59869910E+00 -1.51973982E+01  7.59869910E+00  7.59869910E+00
 -1.51973982E+01  7.59869910E+00  7.59869910E+00 -1.51973982E+01  7.59869910E+00
  7.59869910E+00 -1.51973982E+01  7.59869910E+00  7.59869910E+00 -1.51973982E+01
  7.59869910E+00  7.59869910E+00 -1.51973982E+01  7.59869910E+00  7.59869910E+00
 -1.51973982E+01  7.59869910E+00  7.59869910E+00 -1.51973982E+01  7.59869910E+00
  7.59869910E+00 -1.51973982E+01  7.59869910E+00  7.59869910E+00 -1.51973982E+01
  7.59869910E+00  7.59869910E+00 -1.51973982E+01  7.59869910E+00  7.59869910E+00
 -1.51973982E+01  7.59869910E+00  7.59869910E+00 -1.51973982E+01  7.59869910E+00
  7.59869910E+00 -1.51973982E+01  7.59869910E+00  7.59869910E+00 -1.51973982E+01
  7.59869910E+00  7.59869910E+00 -1.51973982E+01  7.59869910E+00  7.59869910E+00
 -1.51973982E+01  7.59869910E+00  7.59869910E+00 -1.51973982E+01  7.59869910E+00
  7.59869910E+00 -1.51973982E+01  7.59869910E+00  7.59869910E+00 -1.51973982E+01
  7.59869910E+00  7.59869910E+00 -1.51973982E+01  7.59869910E+00  7.59869910E+00
 -1.51973982E+01  7.59869910E+00  7.59869910E+00 -1.51973982E+01  7.59869910E+00
  7.59869910E+00 -1.51973982E+01  7.59869910E+00  7.59869910E+00 -1.51973982E+01
  7.59869910E+00  7.59869910E+00 -1.51973982E+01  7.59869910E+00  7.59869910E+00
 -1.51973982E+01  7.59869910E+00  7.59869910E+00 -1.51973982E+01  7.59869910E+00
  7.59869910E+00 -1.51973982E+01  7.59869910E+00  7.59869910E+00 -1.51973982E+01
  7.59869910E+00  7.59869910E+00 -1.51973982E+01  7.59869910E+00  7.59869910E+00
 -1.51973982E+01  7.59869910E+00  7.59869910E+00 -1.51973982E+01  7.59869910E+00
  7.59869910E+00 -1.51973982E+01  7.59869910E+00  7.59869910E+00 -1.51973982E+01
  7.59869910E+00  7.59869910E+00 -1.51973982E+01  7.59869910E+00  7.59869910E+00
 -1.51973982E+01  7.59869910E+00  7.59869910E+00 -1.51973982E+01  7.59869910E+00
  7.59869910E+00 -1.51973982E+01  7.59869910E+00  7.59869910E+00 -1.51973982E+01
  7.59869910E+00  7.59869910E+00 -1.51973982E+01  7.59869910E+00  7.59869910E+00
 -1.51973982E+01  7.59869910E+00  7.59869910E+00 -1.51973982E+01  7.59869910E+00
  7.59869910E+00 -1.51973982E+01  7.59869910E+00  7.59869910E+00 -1.51973982E+01
  7.59869910E+00  7.59869910E+00 -1.51973982E+01  7.59869910E+00  7.59869910E+00
 -1.51973982E+01  7.59869910E+00  7.59869910E+00 -1.51973982E+01  7.59869910E+00
  7.59869910E+00 -1.51973982E+01  7.59869910E+00  7.59869910E+00 -1.51973982E+01
  7.59869910E+00  7.59869910E+00 -1.51973982E+01  7.59869910E+00  7.59869910E+00
 -1.51973982E+01  7.59869910E+00  7.59869910E+00 -1.51973982E+01  7.59869910E+00
  7.59869910E+00 -1.51973982E+01  7.59869910E+00  7.59869910E+00 -1.51973982E+01
  7.59869910E+00  7.59869910E+00 -1.51973982E+01  7.59869910E+00  7.59869910E+00
 -1.51973982E+01  7.59869910E+00  7.59869910E+00 -1.51973982E+01  7.59869910E+00
  7.59869910E+00 -1.51973982E+01  7.59869910E+00  7.59869910E+00 -1.51973982E+01
  7.59869910E+00  7.59869910E+00 -1.51973982E+01  7.59869910E+00  7.59869910E+00
 -1.51973982E+01  7.59869910E+00  7.59869910E+00 -1.51973982E+01  7.59869910E+00
  7.59869910E+00 -1.51973982E+01  7.59869910E+00  7.59869910E+00 -1.51973982E+01
  7.59869910E+00  7.59869910E+00 -1.51973982E+01  7.59869910E+00  7.59869910E+00
 -1.51973982E+01  7.59869910E+00  7.59869910E+00 -1.51973982E+01  7.59869910E+00
  7.59869910E+00 -1.51973982E+01  7.59869910E+00  7.59869910E+00 -1.51973982E+01
  7.59869910E+00  7.59869910E+00 -1.51973982E+01  7.59869910E+00  7.59869910E+00
 -1.51973982E+01  7.59869910E+00  7.59869910E+00 -1.51973982E+01  7.59869910E+00
  7.59869910E+00 -1.51973982E+01  7.59869910E+00  7.59869910E+00 -1.51973982E+01
  7.59869910E+00  7.59869910E+00 -1.51973982E+01  7.59869910E+00  7.59869910E+00
 -1.51973982E+01  7.59869910E+00  7.59869910E+00 -1.51973982E+01  7.59869910E+00
  7.59869910E+00 -1.51973982E+01  7.59869910E+00  7.59869910E+00 -1.51973982E+01
  7.59869910E+00  7.59869910E+00 -1.51973982E+01  7.59869910E+00  7.59869910E+00
 -1.51973982E+01  7.59869910E+00  7.59869910E+00 -1.51973982E+01  7.59869910E+00
  7.59869910E+00 -1.51973982E+01  7.59869910E+00  7.59869910E+00 -1.51973982E+01
  7.59869910E+00  7.59869910E+00 -1.51973982E+01  7.59869910E+00  7.59869910E+00
 -1.51973982E+01  7.59869910E+00  7.59869910E+00 -1.51973982E+01  7.59869910E+00
  7.59869910E+00 -1.51973982E+01  7.59869910E+00  7.59869910E+00 -1.51973982E+01
  7.59869910E+00  7.59869910E+00 -1.51973982E+01  7.59869910E+00  7.59869910E+00
 -1.51973982E+01  7.59869910E+00  7.59869910E+00 -1.51973982E+01  7.59869910E+00
  7.59869910E+00 -1.51973982E+01  7.59869910E+00  7.59869910E+00 -1.51973982E+01
  7.59869910E+00  7.59869910E+00 -1.51973982E+01  7.59869910E+00  7.59869910E+00
 -1.51973982E+01  7.59869910E+00  7.59869910E+00 -1.51973982E+01  7.59869910E+00
  7.59869910E+00 -1.51973982E+01  7.59869910E+00  7.59869910E+00 -1.51973982E+01
  7.59869910E+00  7.59869910E+00 -1.51973982E+01  7.59869910E+00  7.59869910E+00
 -1.51973982E+01  7.59869910E+00  7.59869910E+00 -1.51973982E+01  7.59869910E+00
  7.59869910E+00 -1.51973982E+01  7.59869910E+00  7.59869910E+00 -1.51973982E+01
  7.59869910E+00  7.59869910E+00 -1.51973982E+01  7.59869910E+00  7.59869910E+00
 -1.51973982E+01  7.59869910E+00  7.59869910E+00 -1.51973982E+01  7.59869910E+00
  7.59869910E+00 -1.51973982E+01  7.59869910E+00  7.59869910E+00 -1.51973982E+01
  7.59869910E+00  7.59869910E+00 -1.51973982E+01  7.59869910E+00  7.59869910E+00
 -1.51973982E+01  7.59869910E+00  7.59869910E+00 -1.51973982E+01  7.59869910E+00
  7.59869910E+00 -1.51973982E+01  7.59869910E+00  7.59869910E+00 -1.51973982E+01
  7.59869910E+00  7.59869910E+00 -1.51973982E+01  7.59869910E+00  7.59869910E+00
 -1.51973982E+01  7.59869910E+00  7.59869910E+00 -1.51973982E+01  7.59869910E+00
  7.59869910E+00 -1.51973982E+01  7.59869910E+00  7.59869910E+00 -1.51973982E+01
  7.59869910E+00  7.59869910E+00 -1.51973982E+01  7.59869910E+00  7.59869910E+00
 -1.51973982E+01  7.59869910E+00  7.59869910E+00 -1.51973982E+01  7.59869910E+00
  7.59869910E+00 -1.51973982E+01  7.59869910E+00  7.59869910E+00 -1.51973982E+01
  7.59869910E+00  7.59869910E+00 -1.51973982E+01  7.59869910E+00  7.59869910E+00
 -1.51973982E+01  7.59869910E+00  7.59869910E+00 -1.51973982E+01  7.59869910E+00
  7.59869910E+00 -1.51973982E+01  7.59869910E+00  7.59869910E+00 -1.51973982E+01
  7.59869910E+00  7.59869910E+00 -1.51973982E+01  7.59869910E+00  7.59869910E+00
 -1.51973982E+01  7.59869910E+00  7.59869910E+00 -1.51973982E+01  7.59869910E+00
  7.59869910E+00 -1.51973982E+01  7.59869910E+00  7.59869910E+00 -1.51973982E+01
  7.59869910E+00  7.59869910E+00 -1.51973982E+01  7.59869910E+00  7.59869910E+00
 -1.51973982E+01  7.59869910E+00  7.59869910E+00 -1.51973982E+01  7.59869910E+00
  7.59869910E+00 -1.51973982E+01  7.59869910E+00  7.59869910E+00 -1.51973982E+01
  7.59869910E+00  7.59869910E+00 -1.51973982E+01  7.59869910E+00  7.59869910E+00
 -1.51973982E+01  7.59869910E+00  7.59869910E+00 -1.51973982E+01  7.59869910E+00
  7.59869910E+00 -1.51973982E+01  7.59869910E+00  7.59869910E+00 -1.51973982E+01
  7.59869910E+00  7.59869910E+00 -1.51973982E+01  7.59869910E+00  7.59869910E+00
 -1.51973982E+01  7.59869910E+00  7.59869910E+00 -1.51973982E+01  7.59869910E+00
  7.59869910E+00 -1.51973982E+01  7.59869910E+00  7.59869910E+00 -1.51973982E+01
  7.59869910E+00  7.59869910E+00 -1.51973982E+01  7.59869910E+00  7.59869910E+00
 -1.51973982E+01  7.59869910E+00  7.59869910E+00 -1.51973982E+01  7.59869910E+00
  7.59869910E+00 -1.51973982E+01  7.59869910E+00  7.59869910E+00 -1.51973982E+01
  7.59869910E+00  7.59869910E+00 -1.51973982E+01  7.59869910E+00  7.59869910E+00
 -1.51973982E+01  7.59869910E+00  7.59869910E+00 -1.51973982E+01  7.59869910E+00
  7.59869910E+00 -1.51973982E+01  7.59869910E+00  7.59869910E+00 -1.51973982E+01
  7.59869910E+00  7.59869910E+00 -1.51973982E+01  7.59869910E+00  7.59869910E+00
 -1.51973982E+01  7.59869910E+00  7.59869910E+00 -1.51973982E+01  7.59869910E+00
  7.59869910E+00 -1.51973982E+01  7.59869910E+00  7.59869910E+00 -1.51973982E+01
  7.59869910E+00  7.59869910E+00 -1.51973982E+01  7.59869910E+00  7.59869910E+00
 -1.51973982E+01  7.59869910E+00  7.59869910E+00 -1.51973982E+01  7.59869910E+00
  7.59869910E+00 -1.51973982E+01  7.59869910E+00  7.59869910E+00 -1.51973982E+01
  7.59869910E+00  7.59869910E+00 -1.51973982E+01  7.59869910E+00  7.59869910E+00
 -1.51973982E+01  7.59869910E+00  7.59869910E+00 -1.51973982E+01  7.59869910E+00
  7.59869910E+00 -1.51973982E+01  7.59869910E+00  7.59869910E+00 -1.51973982E+01
  7.59869910E+00  7.59869910E+00 -1.51973982E+01  7.59869910E+00  7.59869910E+00
 -1.51973982E+01  7.59869910E+00  7.59869910E+00 -1.51973982E+01  7.59869910E+00
  7.59869910E+00 -1.51973982E+01  7.59869910E+00  7.59869910E+00 -1.51973982E+01
  7.59869910E+00  7.59869910E+00 -1.51973982E+01  7.59869910E+00  7.59869910E+00
 -1.51973982E+01  7.59869910E+00  7.59869910E+00 -1.51973982E+01  7.59869910E+00
  7.59869910E+00 -1.51973982E+01  7.59869910E+00  7.59869910E+00 -1.51973982E+01
  7.59869910E+00  7.59869910E+00 -1.51973982E+01  7.59869910E+00  7.59869910E+00
 -1.51973982E+01  7.59869910E+00  7.59869910E+00 -1.51973982E+01  7.59869910E+00
  7.59869910E+00 -1.51973982E+01  7.59869910E+00  7.59869910E+00 -1.51973982E+01
  7.59869910E+00  7.59869910E+00 -1.51973982E+01  7.59869910E+00  7.59869910E+00
 -1.51973982E+01  7.59869910E+00  7.59869910E+00 -1.51973982E+01  7.59869910E+00
  7.59869910E+00 -1.51973982E+01  7.59869910E+00  7.59869910E+00 -1.51973982E+01
  7.59869910E+00  7.59869910E+00 -1.51973982E+01  7.59869910E+00  7.59869910E+00
 -1.51973982E+01  7.59869910E+00  7.59869910E+00 -1.51973982E+01  7.59869910E+00
  7.59869910E+00 -1.51973982E+01  7.59869910E+00  7.59869910E+00 -1.51973982E+01
  7.59869910E+00  7.59869910E+00 -1.51973982E+01  7.59869910E+00  7.59869910E+00
 -1.51973982E+01  7.59869910E+00  7.59869910E+00 -1.51973982E+01  7.59869910E+00
  7.59869910E+00 -1.51973982E+01  7.59869910E+00  7.59869910E+00 -1.51973982E+01
  7.59869910E+00  7.59869910E+00 -1.51973982E+01  7.59869910E+00  7.59869910E+00
 -1.51973982E+01  7.59869910E+00  7.59869910E+00 -1.51973982E+01  7.59869910E+00
  7.59869910E+00 -1.51973982E+01  7.59869910E+00  7.59869910E+00 -1.51973982E+01
  7.59869910E+00  7.59869910E+00 -1.51973982E+01  7.59869910E+00  7.59869910E+00
 -1.51973982E+01  7.59869910E+00  7.59869910E+00 -1.51973982E+01  7.59869910E+00
  7.59869910E+00 -1.51973982E+01  7.59869910E+00  7.59869910E+00 -1.51973982E+01
  7.59869910E+00  7.59869910E+00 -1.51973982E+01  7.59869910E+00  7.59869910E+00
 -1.51973982E+01  7.59869910E+00  7.59869910E+00 -1.51973982E+01  7.59869910E+00
  7.59869910E+00 -1.51973982E+01  7.59869910E+00  7.59869910E+00 -1.51973982E+01
  7.59869910E+00  7.59869910E+00 -1.51973982E+01  7.59869910E+00  7.59869910E+00
 -1.51973982E+01  7.59869910E+00  7.59869910E+00 -1.51973982E+01  7.59869910E+00
  7.59869910E+00 -1.51973982E+01  7.59869910E+00  7.59869910E+00 -1.51973982E+01
  7.59869910E+00  7.59869910E+00 -1.51973982E+01  7.59869910E+00  7.59869910E+00
 -1.51973982E+01  7.59869910E+00  7.59869910E+00 -1.51973982E+01  7.59869910E+00
  7.59869910E+00 -1.51973982E+01  7.59869910E+00  7.59869910E+00 -1.51973982E+01
  7.59869910E+00  7.59869910E+00 -1.51973982E+01  7.59869910E+00  7.59869910E+00
 -1.51973982E+01  7.59869910E+00  7.59869910E+00 -1.51973982E+01  7.59869910E+00
  7.59869910E+00 -1.51973982E+01  7.59869910E+00  7.59869910E+00 -1.51973982E+01
  7.59869910E+00  7.59869910E+00 -1.51973982E+01  7.59869910E+00  7.59869910E+00
 -1.51973982E+01  7.59869910E+00  7.59869910E+00 -1.51973982E+01  7.59869910E+00
  7.59869910E+00 -1.51973982E+01  7.59869910E+00  7.59869910E+00 -1.51973982E+01
  7.59869910E+00  7.59869910E+00 -1.51973982E+01  7.59869910E+00  7.59869910E+00
 -1.51973982E+01  7.59869910E+00  7.59869910E+00 -1.51973982E+01  7.59869910E+00
  7.59869910E+00 -1.51973982E+01  7.59869910E+00  7.59869910E+00 -1.51973982E+01
  7.59869910E+00  7.59869910E+00 -1.51973982E+01  7.59869910E+00  7.59869910E+00
 -1.51973982E+01  7.59869910E+00  7.59869910E+00 -1.51973982E+01  7.59869910E+00
  7.59869910E+00 -1.51973982E+01  7.59869910E+00  7.59869910E+00 -1.51973982E+01
  7.59869910E+00  7.59869910E+00 -1.51973982E+01  7.59869910E+00  7.59869910E+00
 -1.51973982E+01  7.59869910E+00  7.59869910E+00 -1.51973982E+01  7.59869910E+00
  7.59869910E+00 -1.51973982E+01  7.59869910E+00  7.59869910E+00 -1.51973982E+01
  7.59869910E+00  7.59869910E+00 -1.51973982E+01  7.59869910E+00  7.59869910E+00
 -1.51973982E+01  7.59869910E+00  7.59869910E+00 -1.51973982E+01  7.59869910E+00
  7.59869910E+00 -1.51973982E+01  7.59869910E+00  7.59869910E+00 -1.51973982E+01
  7.59869910E+00  7.59869910E+00 -1.51973982E+01  7.59869910E+00  7.59869910E+00
 -1.51973982E+01  7.59869910E+00  7.59869910E+00 -1.51973982E+01  7.59869910E+00
  7.59869910E+00 -1.51973982E+01  7.59869910E+00  7.59869910E+00 -1.51973982E+01
  7.59869910E+00  7.59869910E+00 -1.51973982E+01  7.59869910E+00  7.59869910E+00
 -1.51973982E+01  7.59869910E+00  7.59869910E+00 -1.51973982E+01  7.59869910E+00
  7.59869910E+00 -1.51973982E+01  7.59869910E+00  7.59869910E+00 -1.51973982E+01
  7.59869910E+00  7.59869910E+00 -1.51973982E+01  7.59869910E+00  7.59869910E+00
 -1.51973982E+01  7.59869910E+00  7.59869910E+00 -1.51973982E+01  7.59869910E+00
  7.59869910E+00 -1.51973982E+01  7.59869910E+00  7.59869910E+00 -1.51973982E+01
  7.59869910E+00  7.59869910E+00 -1.51973982E+01  7.59869910E+00  7.59869910E+00
 -1.51973982E+01  7.59869910E+00  7.59869910E+00 -1.51973982E+01  7.59869910E+00
  7.59869910E+00 -1.51973982E+01  7.59869910E+00  7.59869910E+00 -1.51973982E+01
  7.59869910E+00  7.59869910E+00 -1.51973982E+01  7.59869910E+00  7.59869910E+00
 -1.51973982E+01  7.59869910E+00  7.59869910E+00 -1.51973982E+01  7.59869910E+00
  7.59869910E+00 -1.51973982E+01  7.59869910E+00  7.59869910E+00 -1.51973982E+01
  7.59869910E+00  7.59869910E+00 -1.51973982E+01  7.59869910E+00  7.59869910E+00
 -1.51973982E+01  7.59869910E+00  7.59869910E+00 -1.51973982E+01  7.59869910E+00
  7.59869910E+00 -1.51973982E+01  7.59869910E+00  7.59869910E+00 -1.51973982E+01
  7.59869910E+00  7.59869910E+00 -1.51973982E+01  7.59869910E+00  7.59869910E+00
 -1.51973982E+01  7.59869910E+00  7.59869910E+00 -1.51973982E+01  7.59869910E+00
  7.59869910E+00 -1.51973982E+01  7.59869910E+00  7.59869910E+00 -1.51973982E+01
  7.59869910E+00  7.59869910E+00 -1.51973982E+01  7.59869910E+00  7.59869910E+00
 -1.51973982E+01  7.59869910E+00  7.59869910E+00 -1.51973982E+01  7.59869910E+00
  7.59869910E+00 -1.51973982E+01  7.59869910E+00  7.59869910E+00 -1.51973982E+01
  7.59869910E+00  7.59869910E+00 -1.51973982E+01  7.59869910E+00  7.59869910E+00
 -1.51973982E+01  7.59869910E+00  7.59869910E+00 -1.51973982E+01  7.59869910E+00
  7.59869910E+00 -1.51973982E+01  7.59869910E+00  7.59869910E+00 -1.51973982E+01
  7.59869910E+00  7.59869910E+00 -1.51973982E+01  7.59869910E+00  7.59869910E+00
 -1.51973982E+01  7.59869910E+00  7.59869910E+00 -1.51973982E+01  7.59869910E+00
  7.59869910E+00 -1.51973982E+01  7.59869910E+00  7.59869910E+00 -1.51973982E+01
  7.59869910E+00  7.59869910E+00 -1.51973982E+01  7.59869910E+00  7.59869910E+00
 -1.51973982E+01  7.59869910E+00  7.59869910E+00 -1.51973982E+01  7.59869910E+00
  7.59869910E+00 -1.51973982E+01  7.59869910E+00  7.59869910E+00 -1.51973982E+01
  7.59869910E+00  7.59869910E+00 -1.51973982E+01  7.59869910E+00  7.59869910E+00
 -1.51973982E+01  7.59869910E+00  7.59869910E+00 -1.51973982E+01  7.59869910E+00
  7.59869910E+00 -1.51973982E+01  7.59869910E+00  7.59869910E+00 -1.51973982E+01
  7.59869910E+00  7.59869910E+00 -1.51973982E+01  7.59869910E+00  7.59869910E+00
 -1.51973982E+01  7.59869910E+00  7.59869910E+00 -1.51973982E+01  7.59869910E+00
  7.59869910E+00 -1.51973982E+01  7.59869910E+00  7.59869910E+00 -1.51973982E+01
  7.59869910E+00  7.59869910E+00 -1.51973982E+01  7.59869910E+00  7.59869910E+00
 -1.51973982E+01  7.59869910E+00  7.59869910E+00 -1.51973982E+01  7.59869910E+00
  7.59869910E+00 -1.51973982E+01  7.59869910E+00  7.59869910E+00 -1.51973982E+01
  7.59869910E+00  7.59869910E+00 -1.51973982E+01  7.59869910E+00  7.59869910E+00
 -1.51973982E+01  7.59869910E+00  7.59869910E+00 -1.51973982E+01  7.59869910E+00
  7.59869910E+00 -1.51973982E+01  7.59869910E+00  7.59869910E+00 -1.51973982E+01
  7.59869910E+00  7.59869910E+00 -1.51973982E+01  7.59869910E+00  7.59869910E+00
 -1.51973982E+01  7.59869910E+00  7.59869910E+00 -1.51973982E+01  7.59869910E+00
  7.59869910E+00 -1.51973982E+01  7.59869910E+00  7.59869910E+00 -1.51973982E+01
  7.59869910E+00  7.59869910E+00 -1.51973982E+01  7.59869910E+00  7.59869910E+00
 -1.51973982E+01  7.59869910E+00  7.59869910E+00 -1.51973982E+01  7.59869910E+00
  7.59869910E+00 -1.51973982E+01  7.59869910E+00  7.59869910E+00 -1.51973982E+01
  7.59869910E+00  7.59869910E+00 -1.51973982E+01  7.59869910E+00  7.59869910E+00
 -1.51973982E+01  7.59869910E+00  7.59869910E+00 -1.51973982E+01  7.59869910E+00
  7.59869910E+00 -1.51973982E+01  7.59869910E+00  7.59869910E+00 -1.51973982E+01
  7.59869910E+00  7.59869910E+00 -1.51973982E+01  7.59869910E+00  7.59869910E+00
 -1.51973982E+01  7.59869910E+00  7.59869910E+00 -1.51973982E+01  7.59869910E+00
  7.59869910E+00 -1.51973982E+01  7.59869910E+00  7.59869910E+00 -1.51973982E+01
  7.59869910E+00  7.59869910E+00 -1.51973982E+01  7.59869910E+00  7.59869910E+00
 -1.51973982E+01  7.59869910E+00  7.59869910E+00 -1.51973982E+01  7.59869910E+00
  7.59869910E+00 -1.51973982E+01  7.59869910E+00  7.59869910E+00 -1.51973982E+01
  7.59869910E+00  7.59869910E+00 -1.51973982E+01  7.59869910E+00  7.59869910E+00
 -1.51973982E+01  7.59869910E+00  7.59869910E+00 -1.51973982E+01  7.59869910E+00
  7.59869910E+00 -1.51973982E+01  7.59869910E+00  7.59869910E+00 -1.51973982E+01
  7.59869910E+00  7.59869910E+00 -1.51973982E+01  7.59869910E+00  7.59869910E+00
 -1.51973982E+01  7.59869910E+00  7.59869910E+00 -1.51973982E+01  7.59869910E+00
  7.59869910E+00 -1.51973982E+01  7.59869910E+00  7.59869910E+00 -1.51973982E+01
  7.59869910E+00  7.59869910E+00 -1.51973982E+01  7.59869910E+00  7.59869910E+00
 -1.51973982E+01  7.59869910E+00  7.59869910E+00 -1.51973982E+01  7.59869910E+00
  7.59869910E+00 -1.51973982E+01  7.59869910E+00  7.59869910E+00 -1.51973982E+01
  7.59869910E+00  7.59869910E+00 -1.51973982E+01  7.59869910E+00  7.59869910E+00
 -1.51973982E+01  7.59869910E+00  7.59869910E+00 -1.51973982E+01  7.59869910E+00
  7.59869910E+00 -1.51973982E+01  7.59869910E+00  7.59869910E+00 -1.51973982E+01
  7.59869910E+00  7.59869910E+00 -1.51973982E+01  7.59869910E+00  7.59869910E+00
 -1.51973982E+01  7.59869910E+00  7.59869910E+00 -1.51973982E+01  7.59869910E+00
  7.59869910E+00 -1.51973982E+01  7.59869910E+00  7.59869910E+00 -1.51973982E+01
  7.59869910E+00  7.59869910E+00 -1.51973982E+01  7.59869910E+00  7.59869910E+00
 -1.51973982E+01  7.59869910E+00  7.59869910E+00 -1.51973982E+01  7.59869910E+00
  7.59869910E+00 -1.51973982E+01  7.59869910E+00  7.59869910E+00 -1.51973982E+01
  7.59869910E+00  7.59869910E+00 -1.51973982E+01  7.59869910E+00  7.59869910E+00
 -1.51973982E+01  7.59869910E+00  7.59869910E+00 -1.51973982E+01  7.59869910E+00
  7.59869910E+00 -1.51973982E+01  7.59869910E+00  7.59869910E+00 -1.51973982E+01
  7.59869910E+00  7.59869910E+00 -1.51973982E+01  7.59869910E+00  7.59869910E+00
 -1.51973982E+01  7.59869910E+00  7.59869910E+00 -1.51973982E+01  7.59869910E+00
  7.59869910E+00 -1.51973982E+01  7.59869910E+00  7.59869910E+00 -1.51973982E+01
  7.59869910E+00  7.59869910E+00 -1.51973982E+01  7.59869910E+00  7.59869910E+00
 -1.51973982E+01  7.59869910E+00  7.59869910E+00 -1.51973982E+01  7.59869910E+00
  7.59869910E+00 -1.51973982E+01  7.59869910E+00  7.59869910E+00 -1.51973982E+01
  7.59869910E+00  7.59869910E+00 -1.51973982E+01  7.59869910E+00  7.59869910E+00
 -1.51973982E+01  7.59869910E+00  7.59869910E+00 -1.51973982E+01  7.59869910E+00
  7.59869910E+00 -1.51973982E+01  7.59869910E+00  7.59869910E+00 -1.51973982E+01
  7.59869910E+00  7.59869910E+00 -1.51973982E+01  7.59869910E+00  7.59869910E+00
 -1.51973982E+01  7.59869910E+00  7.59869910E+00 -1.51973982E+01  7.59869910E+00
  7.59869910E+00 -1.51973982E+01  7.59869910E+00  7.59869910E+00 -1.51973982E+01
  7.59869910E+00  7.59869910E+00 -1.51973982E+01  7.59869910E+00  7.59869910E+00
 -1.51973982E+01  7.59869910E+00  7.59869910E+00 -1.51973982E+01  7.59869910E+00
  7.59869910E+00 -1.51973982E+01  7.59869910E+00  7.59869910E+00 -1.51973982E+01
  7.59869910E+00  7.59869910E+00 -1.51973982E+01  7.59869910E+00  7.59869910E+00
 -1.51973982E+01  7.59869910E+00  7.59869910E+00 -1.51973982E+01  7.59869910E+00
  7.59869910E+00 -1.51973982E+01  7.59869910E+00  7.59869910E+00 -1.51973982E+01
  7.59869910E+00  7.59869910E+00 -1.51973982E+01  7.59869910E+00  7.59869910E+00
 -1.51973982E+01  7.59869910E+00  7.59869910E+00 -1.51973982E+01  7.59869910E+00
  7.59869910E+00 -1.51973982E+01  7.59869910E+00  7.59869910E+00 -1.51973982E+01
  7.59869910E+00  7.59869910E+00 -1.51973982E+01  7.59869910E+00  7.59869910E+00
 -1.51973982E+01  7.59869910E+00  7.59869910E+00 -1.51973982E+01  7.59869910E+00
  7.59869910E+00 -1.51973982E+01  7.59869910E+00  7.59869910E+00 -1.51973982E+01
  7.59869910E+00  7.59869910E+00 -1.51973982E+01  7.59869910E+00  7.59869910E+00
 -1.51973982E+01  7.59869910E+00  7.59869910E+00 -1.51973982E+01  7.59869910E+00
  7.59869910E+00 -1.51973982E+01  7.59869910E+00  7.59869910E+00 -1.51973982E+01
  7.59869910E+00  7.59869910E+00 -1.51973982E+01  7.59869910E+00  7.59869910E+00
 -1.51973982E+01  7.59869910E+00  7.59869910E+00 -1.51973982E+01  7.59869910E+00
  7.59869910E+00 -1.51973982E+01  7.59869910E+00  7.59869910E+00 -1.51973982E+01
  7.59869910E+00  7.59869910E+00 -1.51973982E+01  7.59869910E+00  7.59869910E+00
 -1.51973982E+01  7.59869910E+00  7.59869910E+00 -1.51973982E+01  7.59869910E+00
  7.59869910E+00 -1.51973982E+01  7.59869910E+00  7.59869910E+00 -1.51973982E+01
  7.59869910E+00  7.59869910E+00 -1.51973982E+01  7.59869910E+00  7.59869910E+00
 -1.51973982E+01  7.59869910E+00  7.59869910E+00 -1.51973982E+01  7.59869910E+00
  7.59869910E+00 -1.51973982E+01  7.59869910E+00  7.59869910E+00 -1.51973982E+01
  7.59869910E+00  7.59869910E+00 -1.51973982E+01  7.59869910E+00  7.59869910E+00
 -1.51973982E+01  7.59869910E+00  7.59869910E+00 -1.51973982E+01  7.59869910E+00
  7.59869910E+00 -1.51973982E+01  7.59869910E+00  7.59869910E+00 -1.51973982E+01
  7.59869910E+00  7.59869910E+00 -1.51973982E+01  7.59869910E+00  7.59869910E+00
 -1.51973982E+01  7.59869910E+00  7.59869910E+00 -1.51973982E+01  7.59869910E+00
  7.59869910E+00 -1.51973982E+01  7.59869910E+00  7.59869910E+00 -1.51973982E+01
  7.59869910E+00  7.59869910E+00 -1.51973982E+01  7.59869910E+00  7.59869910E+00
 -1.51973982E+01  7.59869910E+00  7.59869910E+00 -1.51973982E+01  7.59869910E+00
  7.59869910E+00 -1.51973982E+01  7.59869910E+00  7.59869910E+00 -1.51973982E+01
  7.59869910E+00  7.59869910E+00 -1.51973982E+01  7.59869910E+00  7.59869910E+00
 -1.51973982E+01  7.59869910E+00  7.59869910E+00 -1.51973982E+01  7.59869910E+00
  7.59869910E+00 -1.51973982E+01  7.59869910E+00  7.59869910E+00 -1.51973982E+01
  7.59869910E+00  7.59869910E+00 -1.51973982E+01  7.59869910E+00  7.59869910E+00
 -1.51973982E+01  7.59869910E+00  7.59869910E+00 -1.51973982E+01  7.59869910E+00
  7.59869910E+00 -1.51973982E+01  7.59869910E+00  7.59869910E+00 -1.51973982E+01
  7.59869910E+00  7.59869910E+00 -1.51973982E+01  7.59869910E+00  7.59869910E+00
 -1.51973982E+01  7.59869910E+00  7.59869910E+00 -1.51973982E+01  7.59869910E+00
  7.59869910E+00 -1.51973982E+01  7.59869910E+00  7.59869910E+00 -1.51973982E+01
  7.59869910E+00  7.59869910E+00 -1.51973982E+01  7.59869910E+00  7.59869910E+00
 -1.51973982E+01  7.59869910E+00  7.59869910E+00 -1.51973982E+01  7.59869910E+00
  7.59869910E+00 -1.51973982E+01  7.59869910E+00  7.59869910E+00 -1.51973982E+01
  7.59869910E+00  7.59869910E+00 -1.51973982E+01  7.59869910E+00  7.59869910E+00
 -1.51973982E+01  7.59869910E+00  7.59869910E+00 -1.51973982E+01  7.59869910E+00
  7.59869910E+00 -1.51973982E+01  7.59869910E+00  7.59869910E+00 -1.51973982E+01
  7.59869910E+00  7.59869910E+00 -1.51973982E+01  7.59869910E+00  7.59869910E+00
 -1.51973982E+01  7.59869910E+00  7.59869910E+00 -1.51973982E+01  7.59869910E+00
  7.59869910E+00 -1.51973982E+01  7.59869910E+00  7.59869910E+00 -1.51973982E+01
  7.59869910E+00  7.59869910E+00 -1.51973982E+01  7.59869910E+00  7.59869910E+00
 -1.51973982E+01  7.59869910E+00  7.59869910E+00 -1.51973982E+01  7.59869910E+00
  7.59869910E+00 -1.51973982E+01  7.59869910E+00  7.59869910E+00 -1.51973982E+01
  7.59869910E+00  7.59869910E+00 -1.51973982E+01  7.59869910E+00  7.59869910E+00
 -1.51973982E+01  7.59869910E+00  7.59869910E+00 -1.51973982E+01  7.59869910E+00
  7.59869910E+00 -1.51973982E+01  7.59869910E+00  7.59869910E+00 -1.51973982E+01
  7.59869910E+00  7.59869910E+00 -1.51973982E+01  7.59869910E+00  7.59869910E+00
 -1.51973982E+01  7.59869910E+00  7.59869910E+00 -1.51973982E+01  7.59869910E+00
  7.59869910E+00 -1.51973982E+01  7.59869910E+00  7.59869910E+00 -1.51973982E+01
  7.59869910E+00  7.59869910E+00 -1.51973982E+01  7.59869910E+00  7.59869910E+00
 -1.51973982E+01  7.59869910E+00  7.59869910E+00 -1.51973982E+01  7.59869910E+00
  7.59869910E+00 -1.51973982E+01  7.59869910E+00  7.59869910E+00 -1.51973982E+01
  7.59869910E+00  7.59869910E+00 -1.51973982E+01  7.59869910E+00  7.59869910E+00
 -1.51973982E+01  7.59869910E+00  7.59869910E+00 -1.51973982E+01  7.59869910E+00
  7.59869910E+00 -1.51973982E+01  7.59869910E+00  7.59869910E+00 -1.51973982E+01
  7.59869910E+00  7.59869910E+00 -1.51973982E+01  7.59869910E+00  7.59869910E+00
 -1.51973982E+01  7.59869910E+00  7.59869910E+00 -1.51973982E+01  7.59869910E+00
  7.59869910E+00 -1.51973982E+01  7.59869910E+00  7.59869910E+00 -1.51973982E+01
  7.59869910E+00  7.59869910E+00 -1.51973982E+01  7.59869910E+00  7.59869910E+00
 -1.51973982E+01  7.59869910E+00  7.59869910E+00 -1.51973982E+01  7.59869910E+00
  7.59869910E+00 -1.51973982E+01  7.59869910E+00  7.59869910E+00 -1.51973982E+01
  7.59869910E+00  7.59869910E+00 -1.51973982E+01  7.59869910E+00  7.59869910E+00
 -1.51973982E+01  7.59869910E+00  7.59869910E+00 -1.51973982E+01  7.59869910E+00
  7.59869910E+00 -1.51973982E+01  7.59869910E+00  7.59869910E+00 -1.51973982E+01
  7.59869910E+00  7.59869910E+00 -1.51973982E+01  7.59869910E+00  7.59869910E+00
 -1.51973982E+01  7.59869910E+00  7.59869910E+00 -1.51973982E+01  7.59869910E+00
  7.59869910E+00 -1.51973982E+01  7.59869910E+00  7.59869910E+00 -1.51973982E+01
  7.59869910E+00  7.59869910E+00 -1.51973982E+01  7.59869910E+00  7.59869910E+00
 -1.51973982E+01  7.59869910E+00  7.59869910E+00 -1.51973982E+01  7.59869910E+00
  7.59869910E+00 -1.51973982E+01  7.59869910E+00  7.59869910E+00 -1.51973982E+01
  7.59869910E+00  7.59869910E+00 -1.51973982E+01  7.59869910E+00  7.59869910E+00
 -1.51973982E+01  7.59869910E+00  7.59869910E+00 -1.51973982E+01  7.59869910E+00
  7.59869910E+00 -1.51973982E+01  7.59869910E+00  7.59869910E+00 -1.51973982E+01
  7.59869910E+00  7.59869910E+00 -1.51973982E+01  7.59869910E+00  7.59869910E+00
 -1.51973982E+01  7.59869910E+00  7.59869910E+00 -1.51973982E+01  7.59869910E+00
  7.59869910E+00 -1.51973982E+01  7.59869910E+00  7.59869910E+00 -1.51973982E+01
  7.59869910E+00  7.59869910E+00 -1.51973982E+01  7.59869910E+00  7.59869910E+00
 -1.51973982E+01  7.59869910E+00  7.59869910E+00 -1.51973982E+01  7.59869910E+00
  7.59869910E+00 -1.51973982E+01  7.59869910E+00  7.59869910E+00 -1.51973982E+01
  7.59869910E+00  7.59869910E+00 -1.51973982E+01  7.59869910E+00  7.59869910E+00
 -1.51973982E+01  7.59869910E+00  7.59869910E+00 -1.51973982E+01  7.59869910E+00
  7.59869910E+00 -1.51973982E+01  7.59869910E+00  7.59869910E+00 -1.51973982E+01
  7.59869910E+00  7.59869910E+00 -1.51973982E+01  7.59869910E+00  7.59869910E+00
 -1.51973982E+01  7.59869910E+00  7.59869910E+00 -1.51973982E+01  7.59869910E+00
  7.59869910E+00 -1.51973982E+01  7.59869910E+00  7.59869910E+00 -1.51973982E+01
  7.59869910E+00  7.59869910E+00 -1.51973982E+01  7.59869910E+00  7.59869910E+00
 -1.51973982E+01  7.59869910E+00  7.59869910E+00 -1.51973982E+01  7.59869910E+00
  7.59869910E+00 -1.51973982E+01  7.59869910E+00  7.59869910E+00 -1.51973982E+01
  7.59869910E+00  7.59869910E+00 -1.51973982E+01  7.59869910E+00  7.59869910E+00
 -1.51973982E+01  7.59869910E+00  7.59869910E+00 -1.51973982E+01  7.59869910E+00
  7.59869910E+00 -1.51973982E+01  7.59869910E+00  7.59869910E+00 -1.51973982E+01
  7.59869910E+00  7.59869910E+00 -1.51973982E+01  7.59869910E+00  7.59869910E+00
 -1.51973982E+01  7.59869910E+00  7.59869910E+00 -1.51973982E+01  7.59869910E+00
  7.59869910E+00 -1.51973982E+01  7.59869910E+00  7.59869910E+00 -1.51973982E+01
  7.59869910E+00  7.59869910E+00 -1.51973982E+01  7.59869910E+00  7.59869910E+00
 -1.51973982E+01  7.59869910E+00  7.59869910E+00 -1.51973982E+01  7.59869910E+00
  7.59869910E+00 -1.51973982E+01  7.59869910E+00  7.59869910E+00 -1.51973982E+01
  7.59869910E+00  7.59869910E+00 -1.51973982E+01  7.59869910E+00  7.59869910E+00
 -1.51973982E+01  7.59869910E+00  7.59869910E+00 -1.51973982E+01  7.59869910E+00
  7.59869910E+00 -1.51973982E+01  7.59869910E+00  7.59869910E+00 -1.51973982E+01
  7.59869910E+00  7.59869910E+00 -1.51973982E+01  7.59869910E+00  7.59869910E+00
 -1.51973982E+01  7.59869910E+00  7.59869910E+00 -1.51973982E+01  7.59869910E+00
  7.59869910E+00 -1.51973982E+01  7.59869910E+00  7.59869910E+00 -1.51973982E+01
  7.59869910E+00  7.59869910E+00 -1.51973982E+01  7.59869910E+00  7.59869910E+00
 -1.51973982E+01  7.59869910E+00  7.59869910E+00 -1.51973982E+01  7.59869910E+00
  7.59869910E+00 -1.51973982E+01  7.59869910E+00  7.59869910E+00 -1.51973982E+01
  7.59869910E+00  7.59869910E+00 -1.51973982E+01  7.59869910E+00  7.59869910E+00
 -1.51973982E+01  7.59869910E+00  7.59869910E+00 -1.51973982E+01  7.59869910E+00
  7.59869910E+00 -1.51973982E+01  7.59869910E+00  7.59869910E+00 -1.51973982E+01
  7.59869910E+00  7.59869910E+00 -1.51973982E+01  7.59869910E+00  7.59869910E+00
 -1.51973982E+01  7.59869910E+00  7.59869910E+00 -1.51973982E+01  7.59869910E+00
  7.59869910E+00 -1.51973982E+01  7.59869910E+00  7.59869910E+00 -1.51973982E+01
  7.59869910E+00  7.59869910E+00 -1.51973982E+01  7.59869910E+00  7.59869910E+00
 -1.51973982E+01  7.59869910E+00  7.59869910E+00 -1.51973982E+01  7.59869910E+00
  7.59869910E+00 -1.51973982E+01  7.59869910E+00  7.59869910E+00 -1.51973982E+01
  7.59869910E+00  7.59869910E+00 -1.51973982E+01  7.59869910E+00  7.59869910E+00
 -1.51973982E+01  7.59869910E+00  7.59869910E+00 -1.51973982E+01  7.59869910E+00
  7.59869910E+00 -1.51973982E+01  7.59869910E+00  7.59869910E+00 -1.51973982E+01
  7.59869910E+00  7.59869910E+00 -1.51973982E+01  7.59869910E+00  7.59869910E+00
 -1.51973982E+01  7.59869910E+00  7.59869910E+00 -1.51973982E+01  7.59869910E+00
  7.59869910E+00 -1.51973982E+01  7.59869910E+00  7.59869910E+00 -1.51973982E+01
  7.59869910E+00  7.59869910E+00 -1.51973982E+01  7.59869910E+00  7.59869910E+00
 -1.51973982E+01  7.59869910E+00  7.59869910E+00 -1.51973982E+01  7.59869910E+00
  7.59869910E+00 -1.51973982E+01  7.59869910E+00  7.59869910E+00 -1.51973982E+01
  7.59869910E+00  7.59869910E+00 -1.51973982E+01  7.59869910E+00  7.59869910E+00
 -1.51973982E+01  7.59869910E+00  7.59869910E+00 -1.51973982E+01  7.59869910E+00
  7.59869910E+00 -1.51973982E+01  7.59869910E+00  7.59869910E+00 -1.51973982E+01
  7.59869910E+00  7.59869910E+00 -1.51973982E+01  7.59869910E+00  7.59869910E+00
 -1.51973982E+01  7.59869910E+00  7.59869910E+00 -1.51973982E+01  7.59869910E+00
  7.59869910E+00 -1.51973982E+01  7.59869910E+00  7.59869910E+00 -1.51973982E+01
  7.59869910E+00  7.59869910E+00 -1.51973982E+01  7.59869910E+00  7.59869910E+00
 -1.51973982E+01  7.59869910E+00  7.59869910E+00 -1.51973982E+01  7.59869910E+00
  7.59869910E+00 -1.51973982E+01  7.59869910E+00  7.59869910E+00 -1.51973982E+01
  7.59869910E+00  7.59869910E+00 -1.51973982E+01  7.59869910E+00  7.59869910E+00
 -1.51973982E+01  7.59869910E+00  7.59869910E+00 -1.51973982E+01  7.59869910E+00
  7.59869910E+00 -1.51973982E+01  7.59869910E+00  7.59869910E+00 -1.51973982E+01
  7.59869910E+00  7.59869910E+00 -1.51973982E+01  7.59869910E+00  7.59869910E+00
 -1.51973982E+01  7.59869910E+00  7.59869910E+00 -1.51973982E+01  7.59869910E+00
  7.59869910E+00 -1.51973982E+01  7.59869910E+00  7.59869910E+00 -1.51973982E+01
  7.59869910E+00  7.59869910E+00 -1.51973982E+01  7.59869910E+00  7.59869910E+00
 -1.51973982E+01  7.59869910E+00  7.59869910E+00 -1.51973982E+01  7.59869910E+00
  7.59869910E+00 -1.51973982E+01  7.59869910E+00  7.59869910E+00 -1.51973982E+01
  7.59869910E+00  7.59869910E+00 -1.51973982E+01  7.59869910E+00  7.59869910E+00
 -1.51973982E+01  7.59869910E+00  7.59869910E+00 -1.51973982E+01  7.59869910E+00
  7.59869910E+00 -1.51973982E+01  7.59869910E+00  7.59869910E+00 -1.51973982E+01
  7.59869910E+00  7.59869910E+00 -1.51973982E+01  7.59869910E+00  7.59869910E+00
 -1.51973982E+01  7.59869910E+00  7.59869910E+00 -1.51973982E+01  7.59869910E+00
  7.59869910E+00 -1.51973982E+01  7.59869910E+00  7.59869910E+00 -1.51973982E+01
  7.59869910E+00  7.59869910E+00 -1.51973982E+01  7.59869910E+00  7.59869910E+00
 -1.51973982E+01  7.59869910E+00  7.59869910E+00 -1.51973982E+01  7.59869910E+00
  7.59869910E+00 -1.51973982E+01  7.59869910E+00  7.59869910E+00 -1.51973982E+01
  7.59869910E+00  7.59869910E+00 -1.51973982E+01  7.59869910E+00  7.59869910E+00
 -1.51973982E+01  7.59869910E+00  7.59869910E+00 -1.51973982E+01  7.59869910E+00
  7.59869910E+00 -1.51973982E+01  7.59869910E+00  7.59869910E+00 -1.51973982E+01
  7.59869910E+00  7.59869910E+00 -1.51973982E+01  7.59869910E+00  7.59869910E+00
 -1.51973982E+01  7.59869910E+00  7.59869910E+00 -1.51973982E+01  7.59869910E+00
  7.59869910E+00 -1.51973982E+01  7.59869910E+00  7.59869910E+00 -1.51973982E+01
  7.59869910E+00  7.59869910E+00 -1.51973982E+01  7.59869910E+00  7.59869910E+00
 -1.51973982E+01  7.59869910E+00  7.59869910E+00 -1.51973982E+01  7.59869910E+00
  7.59869910E+00 -1.51973982E+01  7.59869910E+00  7.59869910E+00 -1.51973982E+01
  7.59869910E+00  7.59869910E+00 -1.51973982E+01  7.59869910E+00  7.59869910E+00
 -1.51973982E+01  7.59869910E+00  7.59869910E+00 -1.51973982E+01  7.59869910E+00
  7.59869910E+00 -1.51973982E+01  7.59869910E+00  7.59869910E+00 -1.51973982E+01
  7.59869910E+00  7.59869910E+00 -1.51973982E+01  7.59869910E+00  7.59869910E+00
 -1.51973982E+01  7.59869910E+00  7.59869910E+00 -1.51973982E+01  7.59869910E+00
  7.59869910E+00 -1.51973982E+01  7.59869910E+00  7.59869910E+00 -1.51973982E+01
  7.59869910E+00  7.59869910E+00 -1.51973982E+01  7.59869910E+00  7.59869910E+00
 -1.51973982E+01  7.59869910E+00  7.59869910E+00 -1.51973982E+01  7.59869910E+00
  7.59869910E+00 -1.51973982E+01  7.59869910E+00  7.59869910E+00 -1.51973982E+01
  7.59869910E+00  7.59869910E+00 -1.51973982E+01  7.59869910E+00  7.59869910E+00
 -1.51973982E+01  7.59869910E+00  7.59869910E+00 -1.51973982E+01  7.59869910E+00
  7.59869910E+00 -1.51973982E+01  7.59869910E+00  7.59869910E+00 -1.51973982E+01
  7.59869910E+00  7.59869910E+00 -1.51973982E+01  7.59869910E+00  7.59869910E+00
 -1.51973982E+01  7.59869910E+00  7.59869910E+00 -1.51973982E+01  7.59869910E+00
  7.59869910E+00 -1.51973982E+01  7.59869910E+00  7.59869910E+00 -1.51973982E+01
  7.59869910E+00  7.59869910E+00 -1.51973982E+01  7.59869910E+00  7.59869910E+00
 -1.51973982E+01  7.59869910E+00  7.59869910E+00 -1.51973982E+01  7.59869910E+00
  7.59869910E+00 -1.51973982E+01  7.59869910E+00  7.59869910E+00 -1.51973982E+01
  7.59869910E+00  7.59869910E+00 -1.51973982E+01  7.59869910E+00  7.59869910E+00
 -1.51973982E+01  7.59869910E+00  7.59869910E+00 -1.51973982E+01  7.59869910E+00
  7.59869910E+00 -1.51973982E+01  7.59869910E+00  7.59869910E+00 -1.51973982E+01
  7.59869910E+00  7.59869910E+00 -1.51973982E+01  7.59869910E+00  7.59869910E+00
 -1.51973982E+01  7.59869910E+00  7.59869910E+00 -1.51973982E+01  7.59869910E+00
  7.59869910E+00 -1.51973982E+01  7.59869910E+00  7.59869910E+00 -1.51973982E+01
  7.59869910E+00  7.59869910E+00 -1.51973982E+01  7.59869910E+00  7.59869910E+00
 -1.51973982E+01  7.59869910E+00  7.59869910E+00 -1.51973982E+01  7.59869910E+00
  7.59869910E+00 -1.51973982E+01  7.59869910E+00  7.59869910E+00 -1.51973982E+01
  7.59869910E+00  7.59869910E+00 -1.51973982E+01  7.59869910E+00  7.59869910E+00
 -1.51973982E+01  7.59869910E+00  7.59869910E+00 -1.51973982E+01  7.59869910E+00
  7.59869910E+00 -1.51973982E+01  7.59869910E+00  7.59869910E+00 -1.51973982E+01
  7.59869910E+00  7.59869910E+00 -1.51973982E+01  7.59869910E+00  7.59869910E+00
 -1.51973982E+01  7.59869910E+00  7.59869910E+00 -1.51973982E+01  7.59869910E+00
  7.59869910E+00 -1.51973982E+01  7.59869910E+00  7.59869910E+00 -1.51973982E+01
  7.59869910E+00  7.59869910E+00 -1.51973982E+01  7.59869910E+00  7.59869910E+00
 -1.51973982E+01  7.59869910E+00  7.59869910E+00 -1.51973982E+01  7.59869910E+00
  7.59869910E+00 -1.51973982E+01  7.59869910E+00  7.59869910E+00 -1.51973982E+01
  7.59869910E+00  7.59869910E+00 -1.51973982E+01  7.59869910E+00  7.59869910E+00
 -1.51973982E+01  7.59869910E+00  7.59869910E+00 -1.51973982E+01  7.59869910E+00
  7.59869910E+00 -1.51973982E+01  7.59869910E+00  7.59869910E+00 -1.51973982E+01
  7.59869910E+00  7.59869910E+00 -1.51973982E+01  7.59869910E+00  7.59869910E+00
 -1.51973982E+01  7.59869910E+00  7.59869910E+00 -1.51973982E+01  7.59869910E+00
  7.59869910E+00 -1.51973982E+01  7.59869910E+00  7.59869910E+00 -1.51973982E+01
  7.59869910E+00  7.59869910E+00 -1.51973982E+01  7.59869910E+00  7.59869910E+00
 -1.51973982E+01  7.59869910E+00  7.59869910E+00 -1.51973982E+01  7.59869910E+00
  7.59869910E+00 -1.51973982E+01  7.59869910E+00  7.59869910E+00 -1.51973982E+01
  7.59869910E+00  7.59869910E+00 -1.51973982E+01  7.59869910E+00  7.59869910E+00
 -1.51973982E+01  7.59869910E+00  7.59869910E+00 -1.51973982E+01  7.59869910E+00
  7.59869910E+00 -1.51973982E+01  7.59869910E+00  7.59869910E+00 -1.51973982E+01
  7.59869910E+00  7.59869910E+00 -1.51973982E+01  7.59869910E+00  7.59869910E+00
 -1.51973982E+01  7.59869910E+00  7.59869910E+00 -1.51973982E+01  7.59869910E+00
  7.59869910E+00 -1.51973982E+01  7.59869910E+00  7.59869910E+00 -1.51973982E+01
  7.59869910E+00  7.59869910E+00 -1.51973982E+01  7.59869910E+00  7.59869910E+00
 -1.51973982E+01  7.59869910E+00  7.59869910E+00 -1.51973982E+01  7.59869910E+00
  7.59869910E+00 -1.51973982E+01  7.59869910E+00  7.59869910E+00 -1.51973982E+01
  7.59869910E+00  7.59869910E+00 -1.51973982E+01  7.59869910E+00  7.59869910E+00
 -1.51973982E+01  7.59869910E+00  7.59869910E+00 -1.51973982E+01  7.59869910E+00
  7.59869910E+00 -1.51973982E+01  7.59869910E+00  7.59869910E+00 -1.51973982E+01
  7.59869910E+00  7.59869910E+00 -1.51973982E+01  7.59869910E+00  7.59869910E+00
 -1.51973982E+01  7.59869910E+00  7.59869910E+00 -1.51973982E+01  7.59869910E+00
  7.59869910E+00 -1.51973982E+01  7.59869910E+00  7.59869910E+00 -1.51973982E+01
  7.59869910E+00  7.59869910E+00 -1.51973982E+01  7.59869910E+00  7.59869910E+00
 -1.51973982E+01  7.59869910E+00  7.59869910E+00 -1.51973982E+01  7.59869910E+00
  7.59869910E+00 -1.51973982E+01  7.59869910E+00  7.59869910E+00 -1.51973982E+01
  7.59869910E+00  7.59869910E+00 -1.51973982E+01  7.59869910E+00  7.59869910E+00
 -1.51973982E+01  7.59869910E+00  7.59869910E+00 -1.51973982E+01  7.59869910E+00
  7.59869910E+00 -1.51973982E+01  7.59869910E+00  7.59869910E+00 -1.51973982E+01
  7.59869910E+00  7.59869910E+00 -1.51973982E+01  7.59869910E+00  7.59869910E+00
 -1.51973982E+01  7.59869910E+00  7.59869910E+00 -1.51973982E+01  7.59869910E+00
  7.59869910E+00 -1.51973982E+01  7.59869910E+00  7.59869910E+00 -1.51973982E+01
  7.59869910E+00  7.59869910E+00 -1.51973982E+01  7.59869910E+00  7.59869910E+00
 -1.51973982E+01  7.59869910E+00  7.59869910E+00 -1.51973982E+01  7.59869910E+00
  7.59869910E+00 -1.51973982E+01  7.59869910E+00  7.59869910E+00 -1.51973982E+01
  7.59869910E+00  7.59869910E+00 -1.51973982E+01  7.59869910E+00  7.59869910E+00
 -1.51973982E+01  7.59869910E+00  7.59869910E+00 -1.51973982E+01  7.59869910E+00
  7.59869910E+00 -1.51973982E+01  7.59869910E+00  7.59869910E+00 -1.51973982E+01
  7.59869910E+00  7.59869910E+00 -1.51973982E+01  7.59869910E+00  7.59869910E+00
 -1.51973982E+01  7.59869910E+00  7.59869910E+00 -1.51973982E+01  7.59869910E+00
  7.59869910E+00 -1.51973982E+01  7.59869910E+00  7.59869910E+00 -1.51973982E+01
  7.59869910E+00  7.59869910E+00 -1.51973982E+01  7.59869910E+00  7.59869910E+00
 -1.51973982E+01  7.59869910E+00  7.59869910E+00 -1.51973982E+01  7.59869910E+00
  7.59869910E+00 -1.51973982E+01  7.59869910E+00  7.59869910E+00 -1.51973982E+01
  7.59869910E+00  7.59869910E+00 -1.51973982E+01  7.59869910E+00  7.59869910E+00
 -1.51973982E+01  7.59869910E+00  7.59869910E+00 -1.51973982E+01  7.59869910E+00
  7.59869910E+00 -1.51973982E+01  7.59869910E+00  7.59869910E+00 -1.51973982E+01
  7.59869910E+00  7.59869910E+00 -1.51973982E+01  7.59869910E+00  7.59869910E+00
 -1.51973982E+01  7.59869910E+00  7.59869910E+00 -1.51973982E+01  7.59869910E+00
  7.59869910E+00 -1.51973982E+01  7.59869910E+00  7.59869910E+00 -1.51973982E+01
  7.59869910E+00  7.59869910E+00 -1.51973982E+01  7.59869910E+00  7.59869910E+00
 -1.51973982E+01  7.59869910E+00  7.59869910E+00 -1.51973982E+01  7.59869910E+00
  7.59869910E+00 -1.51973982E+01  7.59869910E+00  7.59869910E+00 -1.51973982E+01
  7.59869910E+00  7.59869910E+00 -1.51973982E+01  7.59869910E+00  7.59869910E+00
 -1.51973982E+01  7.59869910E+00  7.59869910E+00 -1.51973982E+01  7.59869910E+00
  7.59869910E+00 -1.51973982E+01  7.59869910E+00  7.59869910E+00 -1.51973982E+01
  7.59869910E+00  7.59869910E+00 -1.51973982E+01  7.59869910E+00  7.59869910E+00
 -1.51973982E+01  7.59869910E+00  7.59869910E+00 -1.51973982E+01  7.59869910E+00
  7.59869910E+00 -1.51973982E+01  7.59869910E+00  7.59869910E+00 -1.51973982E+01
  7.59869910E+00  7.59869910E+00 -1.51973982E+01  7.59869910E+00  7.59869910E+00
 -1.51973982E+01  7.59869910E+00  7.59869910E+00 -1.51973982E+01  7.59869910E+00
  7.59869910E+00 -1.51973982E+01  7.59869910E+00  7.59869910E+00 -1.51973982E+01
  7.59869910E+00  7.59869910E+00 -1.51973982E+01  7.59869910E+00  7.59869910E+00
 -1.51973982E+01  7.59869910E+00  7.59869910E+00 -1.51973982E+01  7.59869910E+00
  7.59869910E+00 -1.51973982E+01  7.59869910E+00  7.59869910E+00 -1.51973982E+01
  7.59869910E+00  7.59869910E+00 -1.51973982E+01  7.59869910E+00  7.59869910E+00
 -1.51973982E+01  7.59869910E+00  7.59869910E+00 -1.51973982E+01  7.59869910E+00
  7.59869910E+00 -1.51973982E+01  7.59869910E+00  7.59869910E+00 -1.51973982E+01
  7.59869910E+00  7.59869910E+00 -1.51973982E+01  7.59869910E+00  7.59869910E+00
 -1.51973982E+01  7.59869910E+00  7.59869910E+00 -1.51973982E+01  7.59869910E+00
  7.59869910E+00 -1.51973982E+01  7.59869910E+00  7.59869910E+00 -1.51973982E+01
  7.59869910E+00  7.59869910E+00 -1.51973982E+01  7.59869910E+00  7.59869910E+00
 -1.51973982E+01  7.59869910E+00  7.59869910E+00 -1.51973982E+01  7.59869910E+00
  7.59869910E+00 -1.51973982E+01  7.59869910E+00  7.59869910E+00 -1.51973982E+01
  7.59869910E+00  7.59869910E+00 -1.51973982E+01  7.59869910E+00  7.59869910E+00
 -1.51973982E+01  7.59869910E+00  7.59869910E+00 -1.51973982E+01  7.59869910E+00
  7.59869910E+00 -1.51973982E+01  7.59869910E+00  7.59869910E+00 -1.51973982E+01
  7.59869910E+00  7.59869910E+00 -1.51973982E+01  7.59869910E+00  7.59869910E+00
 -1.51973982E+01  7.59869910E+00  7.59869910E+00 -1.51973982E+01  7.59869910E+00
  7.59869910E+00 -1.51973982E+01  7.59869910E+00  7.59869910E+00 -1.51973982E+01
  7.59869910E+00  7.59869910E+00 -1.51973982E+01  7.59869910E+00  7.59869910E+00
 -1.51973982E+01  7.59869910E+00  7.59869910E+00 -1.51973982E+01  7.59869910E+00
  7.59869910E+00 -1.51973982E+01  7.59869910E+00  7.59869910E+00 -1.51973982E+01
  7.59869910E+00  7.59869910E+00 -1.51973982E+01  7.59869910E+00  7.59869910E+00
 -1.51973982E+01  7.59869910E+00  7.59869910E+00 -1.51973982E+01  7.59869910E+00
  7.59869910E+00 -1.51973982E+01  7.59869910E+00  7.59869910E+00 -1.51973982E+01
  7.59869910E+00  7.59869910E+00 -1.51973982E+01  7.59869910E+00  7.59869910E+00
 -1.51973982E+01  7.59869910E+00  7.59869910E+00 -1.51973982E+01  7.59869910E+00
  7.59869910E+00 -1.51973982E+01  7.59869910E+00  7.59869910E+00 -1.51973982E+01
  7.59869910E+00  7.59869910E+00 -1.51973982E+01  7.59869910E+00  7.59869910E+00
 -1.51973982E+01  7.59869910E+00  7.59869910E+00 -1.51973982E+01  7.59869910E+00
  7.59869910E+00 -1.51973982E+01  7.59869910E+00  7.59869910E+00 -1.51973982E+01
  7.59869910E+00  7.59869910E+00 -1.51973982E+01  7.59869910E+00  7.59869910E+00
 -1.51973982E+01  7.59869910E+00  7.59869910E+00 -1.51973982E+01  7.59869910E+00
  7.59869910E+00 -1.51973982E+01  7.59869910E+00  7.59869910E+00 -1.51973982E+01
  7.59869910E+00  7.59869910E+00 -1.51973982E+01  7.59869910E+00  7.59869910E+00
 -1.51973982E+01  7.59869910E+00  7.59869910E+00 -1.51973982E+01  7.59869910E+00
  7.59869910E+00 -1.51973982E+01  7.59869910E+00  7.59869910E+00 -1.51973982E+01
  7.59869910E+00  7.59869910E+00 -1.51973982E+01  7.59869910E+00  7.59869910E+00
 -1.51973982E+01  7.59869910E+00  7.59869910E+00 -1.51973982E+01  7.59869910E+00
  7.59869910E+00 -1.51973982E+01  7.59869910E+00  7.59869910E+00 -1.51973982E+01
  7.59869910E+00  7.59869910E+00 -1.51973982E+01  7.59869910E+00  7.59869910E+00
 -1.51973982E+01  7.59869910E+00  7.59869910E+00 -1.51973982E+01  7.59869910E+00
  7.59869910E+00 -1.51973982E+01  7.59869910E+00  7.59869910E+00 -1.51973982E+01
  7.59869910E+00  7.59869910E+00 -1.51973982E+01  7.59869910E+00  7.59869910E+00
 -1.51973982E+01  7.59869910E+00  7.59869910E+00 -1.51973982E+01  7.59869910E+00
  7.59869910E+00 -1.51973982E+01  7.59869910E+00  7.59869910E+00 -1.51973982E+01
  7.59869910E+00  7.59869910E+00 -1.51973982E+01  7.59869910E+00  7.59869910E+00
 -1.51973982E+01  7.59869910E+00  7.59869910E+00 -1.51973982E+01  7.59869910E+00
  7.59869910E+00 -1.51973982E+01  7.59869910E+00  7.59869910E+00 -1.51973982E+01
  7.59869910E+00  7.59869910E+00 -1.51973982E+01  7.59869910E+00  7.59869910E+00
 -1.51973982E+01  7.59869910E+00  7.59869910E+00 -1.51973982E+01  7.59869910E+00
  7.59869910E+00 -1.51973982E+01  7.59869910E+00  7.59869910E+00 -1.51973982E+01
  7.59869910E+00  7.59869910E+00 -1.51973982E+01  7.59869910E+00  7.59869910E+00
 -1.51973982E+01  7.59869910E+00  7.59869910E+00 -1.51973982E+01  7.59869910E+00
  7.59869910E+00 -1.51973982E+01  7.59869910E+00  7.59869910E+00 -1.51973982E+01
  7.59869910E+00  7.59869910E+00 -1.51973982E+01  7.59869910E+00  7.59869910E+00
 -1.51973982E+01  7.59869910E+00  7.59869910E+00 -1.51973982E+01  7.59869910E+00
  7.59869910E+00 -1.51973982E+01  7.59869910E+00  7.59869910E+00 -1.51973982E+01
  7.59869910E+00  7.59869910E+00 -1.51973982E+01  7.59869910E+00  7.59869910E+00
 -1.51973982E+01  7.59869910E+00  7.59869910E+00 -1.51973982E+01  7.59869910E+00
  7.59869910E+00 -1.51973982E+01  7.59869910E+00  7.59869910E+00 -1.51973982E+01
  7.59869910E+00  7.59869910E+00 -1.51973982E+01  7.59869910E+00  7.59869910E+00
 -1.51973982E+01  7.59869910E+00  7.59869910E+00 -1.51973982E+01  7.59869910E+00
  7.59869910E+00 -1.51973982E+01  7.59869910E+00  7.59869910E+00 -1.51973982E+01
  7.59869910E+00  7.59869910E+00 -1.51973982E+01  7.59869910E+00  7.59869910E+00
 -1.51973982E+01  7.59869910E+00  7.59869910E+00 -1.51973982E+01  7.59869910E+00
  7.59869910E+00 -1.51973982E+01  7.59869910E+00  7.59869910E+00 -1.51973982E+01
  7.59869910E+00  7.59869910E+00 -1.51973982E+01  7.59869910E+00  7.59869910E+00
 -1.51973982E+01  7.59869910E+00  7.59869910E+00 -1.51973982E+01  7.59869910E+00
  7.59869910E+00 -1.51973982E+01  7.59869910E+00  7.59869910E+00 -1.51973982E+01
  7.59869910E+00  7.59869910E+00 -1.51973982E+01  7.59869910E+00  7.59869910E+00
 -1.51973982E+01  7.59869910E+00  7.59869910E+00 -1.51973982E+01  7.59869910E+00
  7.59869910E+00 -1.51973982E+01  7.59869910E+00  7.59869910E+00 -1.51973982E+01
  7.59869910E+00  7.59869910E+00 -1.51973982E+01  7.59869910E+00  7.59869910E+00
 -1.51973982E+01  7.59869910E+00  7.59869910E+00 -1.51973982E+01  7.59869910E+00
  7.59869910E+00 -1.51973982E+01  7.59869910E+00  7.59869910E+00 -1.51973982E+01
  7.59869910E+00  7.59869910E+00 -1.51973982E+01  7.59869910E+00  7.59869910E+00
 -1.51973982E+01  7.59869910E+00  7.59869910E+00 -1.51973982E+01  7.59869910E+00
  7.59869910E+00 -1.51973982E+01  7.59869910E+00  7.59869910E+00 -1.51973982E+01
  7.59869910E+00  7.59869910E+00 -1.51973982E+01  7.59869910E+00  7.59869910E+00
 -1.51973982E+01  7.59869910E+00  7.59869910E+00 -1.51973982E+01  7.59869910E+00
  7.59869910E+00 -1.51973982E+01  7.59869910E+00  7.59869910E+00 -1.51973982E+01
  7.59869910E+00  7.59869910E+00 -1.51973982E+01  7.59869910E+00  7.59869910E+00
 -1.51973982E+01  7.59869910E+00  7.59869910E+00 -1.51973982E+01  7.59869910E+00
  7.59869910E+00 -1.51973982E+01  7.59869910E+00  7.59869910E+00 -1.51973982E+01
  7.59869910E+00  7.59869910E+00 -1.51973982E+01  7.59869910E+00  7.59869910E+00
 -1.51973982E+01  7.59869910E+00  7.59869910E+00 -1.51973982E+01  7.59869910E+00
  7.59869910E+00 -1.51973982E+01  7.59869910E+00  7.59869910E+00 -1.51973982E+01
  7.59869910E+00  7.59869910E+00 -1.51973982E+01  7.59869910E+00  7.59869910E+00
 -1.51973982E+01  7.59869910E+00  7.59869910E+00 -1.51973982E+01  7.59869910E+00
  7.59869910E+00 -1.51973982E+01  7.59869910E+00  7.59869910E+00 -1.51973982E+01
  7.59869910E+00  7.59869910E+00 -1.51973982E+01  7.59869910E+00  7.59869910E+00
 -1.51973982E+01  7.59869910E+00  7.59869910E+00 -1.51973982E+01  7.59869910E+00
  7.59869910E+00 -1.51973982E+01  7.59869910E+00  7.59869910E+00 -1.51973982E+01
  7.59869910E+00  7.59869910E+00 -1.51973982E+01  7.59869910E+00  7.59869910E+00
 -1.51973982E+01  7.59869910E+00  7.59869910E+00 -1.51973982E+01  7.59869910E+00
  7.59869910E+00 -1.51973982E+01  7.59869910E+00  7.59869910E+00 -1.51973982E+01
  7.59869910E+00  7.59869910E+00 -1.51973982E+01  7.59869910E+00  7.59869910E+00
 -1.51973982E+01  7.59869910E+00  7.59869910E+00 -1.51973982E+01  7.59869910E+00
  7.59869910E+00 -1.51973982E+01  7.59869910E+00  7.59869910E+00 -1.51973982E+01
  7.59869910E+00  7.59869910E+00 -1.51973982E+01  7.59869910E+00  7.59869910E+00
 -1.51973982E+01  7.59869910E+00  7.59869910E+00 -1.51973982E+01  7.59869910E+00
  7.59869910E+00 -1.51973982E+01  7.59869910E+00  7.59869910E+00 -1.51973982E+01
  7.59869910E+00  7.59869910E+00 -1.51973982E+01  7.59869910E+00  7.59869910E+00
 -1.51973982E+01  7.59869910E+00  7.59869910E+00 -1.51973982E+01  7.59869910E+00
  7.59869910E+00 -1.51973982E+01  7.59869910E+00  7.59869910E+00 -1.51973982E+01
  7.59869910E+00  7.59869910E+00 -1.51973982E+01  7.59869910E+00  7.59869910E+00
 -1.51973982E+01  7.59869910E+00  7.59869910E+00 -1.51973982E+01  7.59869910E+00
  7.59869910E+00 -1.51973982E+01  7.59869910E+00  7.59869910E+00 -1.51973982E+01
  7.59869910E+00  7.59869910E+00 -1.51973982E+01  7.59869910E+00  7.59869910E+00
 -1.51973982E+01  7.59869910E+00  7.59869910E+00 -1.51973982E+01  7.59869910E+00
  7.59869910E+00 -1.51973982E+01  7.59869910E+00  7.59869910E+00 -1.51973982E+01
  7.59869910E+00  7.59869910E+00 -1.51973982E+01  7.59869910E+00  7.59869910E+00
 -1.51973982E+01  7.59869910E+00  7.59869910E+00 -1.51973982E+01  7.59869910E+00
  7.59869910E+00 -1.51973982E+01  7.59869910E+00  7.59869910E+00 -1.51973982E+01
  7.59869910E+00  7.59869910E+00 -1.51973982E+01  7.59869910E+00  7.59869910E+00
 -1.51973982E+01  7.59869910E+00  7.59869910E+00 -1.51973982E+01  7.59869910E+00
  7.59869910E+00 -1.51973982E+01  7.59869910E+00  7.59869910E+00 -1.51973982E+01
  7.59869910E+00  7.59869910E+00 -1.51973982E+01  7.59869910E+00  7.59869910E+00
 -1.51973982E+01  7.59869910E+00  7.59869910E+00 -1.51973982E+01  7.59869910E+00
  7.59869910E+00 -1.51973982E+01  7.59869910E+00  7.59869910E+00 -1.51973982E+01
  7.59869910E+00  7.59869910E+00 -1.51973982E+01  7.59869910E+00  7.59869910E+00
 -1.51973982E+01  7.59869910E+00  7.59869910E+00 -1.51973982E+01  7.59869910E+00
  7.59869910E+00 -1.51973982E+01  7.59869910E+00  7.59869910E+00 -1.51973982E+01
  7.59869910E+00  7.59869910E+00 -1.51973982E+01  7.59869910E+00  7.59869910E+00
 -1.51973982E+01  7.59869910E+00  7.59869910E+00 -1.51973982E+01  7.59869910E+00
  7.59869910E+00 -1.51973982E+01  7.59869910E+00  7.59869910E+00 -1.51973982E+01
  7.59869910E+00  7.59869910E+00 -1.51973982E+01  7.59869910E+00  7.59869910E+00
 -1.51973982E+01  7.59869910E+00  7.59869910E+00 -1.51973982E+01  7.59869910E+00
  7.59869910E+00 -1.51973982E+01  7.59869910E+00  7.59869910E+00 -1.51973982E+01
  7.59869910E+00  7.59869910E+00 -1.51973982E+01  7.59869910E+00  7.59869910E+00
 -1.51973982E+01  7.59869910E+00  7.59869910E+00 -1.51973982E+01  7.59869910E+00
  7.59869910E+00 -1.51973982E+01  7.59869910E+00  7.59869910E+00 -1.51973982E+01
  7.59869910E+00  7.59869910E+00 -1.51973982E+01  7.59869910E+00  7.59869910E+00
 -1.51973982E+01  7.59869910E+00  7.59869910E+00 -1.51973982E+01  7.59869910E+00
  7.59869910E+00 -1.51973982E+01  7.59869910E+00  7.59869910E+00 -1.51973982E+01
  7.59869910E+00  7.59869910E+00 -1.51973982E+01  7.59869910E+00  7.59869910E+00
 -1.51973982E+01  7.59869910E+00  7.59869910E+00 -1.51973982E+01  7.59869910E+00
  7.59869910E+00 -1.51973982E+01  7.59869910E+00  7.59869910E+00 -1.51973982E+01
  7.59869910E+00  7.59869910E+00 -1.51973982E+01  7.59869910E+00  7.59869910E+00
 -1.51973982E+01  7.59869910E+00  7.59869910E+00 -1.51973982E+01  7.59869910E+00
  7.59869910E+00 -1.51973982E+01  7.59869910E+00  7.59869910E+00 -1.51973982E+01
  7.59869910E+00  7.59869910E+00 -1.51973982E+01  7.59869910E+00  7.59869910E+00
 -1.51973982E+01  7.59869910E+00  7.59869910E+00 -1.51973982E+01  7.59869910E+00
  7.59869910E+00 -1.51973982E+01  7.59869910E+00  7.59869910E+00 -1.51973982E+01
  7.59869910E+00  7.59869910E+00 -1.51973982E+01  7.59869910E+00  7.59869910E+00
 -1.51973982E+01  7.59869910E+00  7.59869910E+00 -1.51973982E+01  7.59869910E+00
  7.59869910E+00 -1.51973982E+01  7.59869910E+00  7.59869910E+00 -1.51973982E+01
  7.59869910E+00  7.59869910E+00 -1.51973982E+01  7.59869910E+00  7.59869910E+00
 -1.51973982E+01  7.59869910E+00  7.59869910E+00 -1.51973982E+01  7.59869910E+00
  7.59869910E+00 -1.51973982E+01  7.59869910E+00  7.59869910E+00 -1.51973982E+01
  7.59869910E+00  7.59869910E+00 -1.51973982E+01  7.59869910E+00  7.59869910E+00
 -1.51973982E+01  7.59869910E+00  7.59869910E+00 -1.51973982E+01  7.59869910E+00
  7.59869910E+00 -1.51973982E+01  7.59869910E+00  7.59869910E+00 -1.51973982E+01
  7.59869910E+00  7.59869910E+00 -1.51973982E+01  7.59869910E+00  7.59869910E+00
 -1.51973982E+01  7.59869910E+00  7.59869910E+00 -1.51973982E+01  7.59869910E+00
  7.59869910E+00 -1.51973982E+01  7.59869910E+00  7.59869910E+00 -1.51973982E+01
  7.59869910E+00  7.59869910E+00 -1.51973982E+01  7.59869910E+00  7.59869910E+00
 -1.51973982E+01  7.59869910E+00  7.59869910E+00 -1.51973982E+01  7.59869910E+00
  7.59869910E+00 -1.51973982E+01  7.59869910E+00  7.59869910E+00 -1.51973982E+01
  7.59869910E+00  7.59869910E+00 -1.51973982E+01  7.59869910E+00  7.59869910E+00
 -1.51973982E+01  7.59869910E+00  7.59869910E+00 -1.51973982E+01  7.59869910E+00
  7.59869910E+00 -1.51973982E+01  7.59869910E+00  7.59869910E+00 -1.51973982E+01
  7.59869910E+00  7.59869910E+00 -1.51973982E+01  7.59869910E+00  7.59869910E+00
 -1.51973982E+01  7.59869910E+00  7.59869910E+00 -1.51973982E+01  7.59869910E+00
  7.59869910E+00 -1.51973982E+01  7.59869910E+00  7.59869910E+00 -1.51973982E+01
  7.59869910E+00  7.59869910E+00 -1.51973982E+01  7.59869910E+00  7.59869910E+00
 -1.51973982E+01  7.59869910E+00  7.59869910E+00 -1.51973982E+01  7.59869910E+00
  7.59869910E+00 -1.51973982E+01  7.59869910E+00  7.59869910E+00 -1.51973982E+01
  7.59869910E+00  7.59869910E+00 -1.51973982E+01  7.59869910E+00  7.59869910E+00
 -1.51973982E+01  7.59869910E+00  7.59869910E+00 -1.51973982E+01  7.59869910E+00
  7.59869910E+00 -1.51973982E+01  7.59869910E+00  7.59869910E+00 -1.51973982E+01
  7.59869910E+00  7.59869910E+00 -1.51973982E+01  7.59869910E+00  7.59869910E+00
 -1.51973982E+01  7.59869910E+00  7.59869910E+00 -1.51973982E+01  7.59869910E+00
  7.59869910E+00 -1.51973982E+01  7.59869910E+00  7.59869910E+00 -1.51973982E+01
  7.59869910E+00  7.59869910E+00 -1.51973982E+01  7.59869910E+00  7.59869910E+00
 -1.51973982E+01  7.59869910E+00  7.59869910E+00 -1.51973982E+01  7.59869910E+00
  7.59869910E+00 -1.51973982E+01  7.59869910E+00  7.59869910E+00 -1.51973982E+01
  7.59869910E+00  7.59869910E+00 -1.51973982E+01  7.59869910E+00  7.59869910E+00
 -1.51973982E+01  7.59869910E+00  7.59869910E+00 -1.51973982E+01  7.59869910E+00
  7.59869910E+00 -1.51973982E+01  7.59869910E+00  7.59869910E+00 -1.51973982E+01
  7.59869910E+00  7.59869910E+00 -1.51973982E+01  7.59869910E+00  7.59869910E+00
 -1.51973982E+01  7.59869910E+00  7.59869910E+00 -1.51973982E+01  7.59869910E+00
  7.59869910E+00 -1.51973982E+01  7.59869910E+00  7.59869910E+00 -1.51973982E+01
  7.59869910E+00  7.59869910E+00 -1.51973982E+01  7.59869910E+00  7.59869910E+00
 -1.51973982E+01  7.59869910E+00  7.59869910E+00 -1.51973982E+01  7.59869910E+00
  7.59869910E+00 -1.51973982E+01  7.59869910E+00  7.59869910E+00 -1.51973982E+01
  7.59869910E+00  7.59869910E+00 -1.51973982E+01  7.59869910E+00  7.59869910E+00
 -1.51973982E+01  7.59869910E+00  7.59869910E+00 -1.51973982E+01  7.59869910E+00
  7.59869910E+00 -1.51973982E+01  7.59869910E+00  7.59869910E+00 -1.51973982E+01
  7.59869910E+00  7.59869910E+00 -1.51973982E+01  7.59869910E+00  7.59869910E+00
 -1.51973982E+01  7.59869910E+00  7.59869910E+00 -1.51973982E+01  7.59869910E+00
  7.59869910E+00 -1.51973982E+01  7.59869910E+00  7.59869910E+00 -1.51973982E+01
  7.59869910E+00  7.59869910E+00 -1.51973982E+01  7.59869910E+00  7.59869910E+00
 -1.51973982E+01  7.59869910E+00  7.59869910E+00 -1.51973982E+01  7.59869910E+00
  7.59869910E+00 -1.51973982E+01  7.59869910E+00  7.59869910E+00 -1.51973982E+01
  7.59869910E+00  7.59869910E+00 -1.51973982E+01  7.59869910E+00  7.59869910E+00
 -1.51973982E+01  7.59869910E+00  7.59869910E+00 -1.51973982E+01  7.59869910E+00
  7.59869910E+00 -1.51973982E+01  7.59869910E+00  7.59869910E+00 -1.51973982E+01
  7.59869910E+00  7.59869910E+00 -1.51973982E+01  7.59869910E+00  7.59869910E+00
 -1.51973982E+01  7.59869910E+00  7.59869910E+00 -1.51973982E+01  7.59869910E+00
  7.59869910E+00 -1.51973982E+01  7.59869910E+00  7.59869910E+00 -1.51973982E+01
  7.59869910E+00  7.59869910E+00 -1.51973982E+01  7.59869910E+00  7.59869910E+00
 -1.51973982E+01  7.59869910E+00  7.59869910E+00 -1.51973982E+01  7.59869910E+00
  7.59869910E+00 -1.51973982E+01  7.59869910E+00  7.59869910E+00 -1.51973982E+01
  7.59869910E+00  7.59869910E+00 -1.51973982E+01  7.59869910E+00  7.59869910E+00
 -1.51973982E+01  7.59869910E+00  7.59869910E+00 -1.51973982E+01  7.59869910E+00
  7.59869910E+00 -1.51973982E+01  7.59869910E+00  7.59869910E+00 -1.51973982E+01
  7.59869910E+00  7.59869910E+00 -1.51973982E+01  7.59869910E+00  7.59869910E+00
 -1.51973982E+01  7.59869910E+00  7.59869910E+00 -1.51973982E+01  7.59869910E+00
  7.59869910E+00 -1.51973982E+01  7.59869910E+00  7.59869910E+00 -1.51973982E+01
  7.59869910E+00  7.59869910E+00 -1.51973982E+01  7.59869910E+00  7.59869910E+00
 -1.51973982E+01  7.59869910E+00  7.59869910E+00 -1.51973982E+01  7.59869910E+00
  7.59869910E+00 -1.51973982E+01  7.59869910E+00  7.59869910E+00 -1.51973982E+01
  7.59869910E+00  7.59869910E+00 -1.51973982E+01  7.59869910E+00  7.59869910E+00
 -1.51973982E+01  7.59869910E+00  7.59869910E+00 -1.51973982E+01  7.59869910E+00
  7.59869910E+00 -1.51973982E+01  7.59869910E+00  7.59869910E+00 -1.51973982E+01
  7.59869910E+00  7.59869910E+00 -1.51973982E+01  7.59869910E+00  7.59869910E+00
 -1.51973982E+01  7.59869910E+00  7.59869910E+00 -1.51973982E+01  7.59869910E+00
  7.59869910E+00 -1.51973982E+01  7.59869910E+00  7.59869910E+00 -1.51973982E+01
  7.59869910E+00  7.59869910E+00 -1.51973982E+01  7.59869910E+00  7.59869910E+00
 -1.51973982E+01  7.59869910E+00  7.59869910E+00 -1.51973982E+01  7.59869910E+00
  7.59869910E+00 -1.51973982E+01  7.59869910E+00  7.59869910E+00 -1.51973982E+01
  7.59869910E+00  7.59869910E+00 -1.51973982E+01  7.59869910E+00  7.59869910E+00
 -1.51973982E+01  7.59869910E+00  7.59869910E+00 -1.51973982E+01  7.59869910E+00
  7.59869910E+00 -1.51973982E+01  7.59869910E+00  7.59869910E+00 -1.51973982E+01
  7.59869910E+00  7.59869910E+00 -1.51973982E+01  7.59869910E+00  7.59869910E+00
 -1.51973982E+01  7.59869910E+00  7.59869910E+00 -1.51973982E+01  7.59869910E+00
  7.59869910E+00 -1.51973982E+01  7.59869910E+00  7.59869910E+00 -1.51973982E+01
  7.59869910E+00  7.59869910E+00 -1.51973982E+01  7.59869910E+00  7.59869910E+00
 -1.51973982E+01  7.59869910E+00  7.59869910E+00 -1.51973982E+01  7.59869910E+00
  7.59869910E+00 -1.51973982E+01  7.59869910E+00  7.59869910E+00 -1.51973982E+01
  7.59869910E+00  7.59869910E+00 -1.51973982E+01  7.59869910E+00  7.59869910E+00
 -1.51973982E+01  7.59869910E+00  7.59869910E+00 -1.51973982E+01  7.59869910E+00
  7.59869910E+00 -1.51973982E+01  7.59869910E+00  7.59869910E+00 -1.51973982E+01
  7.59869910E+00  7.59869910E+00 -1.51973982E+01  7.59869910E+00  7.59869910E+00
 -1.51973982E+01  7.59869910E+00  7.59869910E+00 -1.51973982E+01  7.59869910E+00
  7.59869910E+00 -1.51973982E+01  7.59869910E+00  7.59869910E+00 -1.51973982E+01
  7.59869910E+00  7.59869910E+00 -1.51973982E+01  7.59869910E+00  7.59869910E+00
 -1.51973982E+01  7.59869910E+00  7.59869910E+00 -1.51973982E+01  7.59869910E+00
  7.59869910E+00 -1.51973982E+01  7.59869910E+00  7.59869910E+00 -1.51973982E+01
  7.59869910E+00  7.59869910E+00 -1.51973982E+01  7.59869910E+00  7.59869910E+00
 -1.51973982E+01  7.59869910E+00  7.59869910E+00 -1.51973982E+01  7.59869910E+00
  7.59869910E+00 -1.51973982E+01  7.59869910E+00  7.59869910E+00 -1.51973982E+01
  7.59869910E+00  7.59869910E+00 -1.51973982E+01  7.59869910E+00  7.59869910E+00
 -1.51973982E+01  7.59869910E+00  7.59869910E+00 -1.51973982E+01  7.59869910E+00
  7.59869910E+00 -1.51973982E+01  7.59869910E+00  7.59869910E+00 -1.51973982E+01
  7.59869910E+00  7.59869910E+00 -1.51973982E+01  7.59869910E+00  7.59869910E+00
 -1.51973982E+01  7.59869910E+00  7.59869910E+00 -1.51973982E+01  7.59869910E+00
  7.59869910E+00 -1.51973982E+01  7.59869910E+00  7.59869910E+00 -1.51973982E+01
  7.59869910E+00  7.59869910E+00 -1.51973982E+01  7.59869910E+00  7.59869910E+00
 -1.51973982E+01  7.59869910E+00  7.59869910E+00 -1.51973982E+01  7.59869910E+00
  7.59869910E+00 -1.51973982E+01  7.59869910E+00  7.59869910E+00 -1.51973982E+01
  7.59869910E+00  7.59869910E+00 -1.51973982E+01  7.59869910E+00  7.59869910E+00
 -1.51973982E+01  7.59869910E+00  7.59869910E+00 -1.51973982E+01  7.59869910E+00
  7.59869910E+00 -1.51973982E+01  7.59869910E+00  7.59869910E+00 -1.51973982E+01
  7.59869910E+00  7.59869910E+00 -1.51973982E+01  7.59869910E+00  7.59869910E+00
 -1.51973982E+01  7.59869910E+00  7.59869910E+00 -1.51973982E+01  7.59869910E+00
  7.59869910E+00 -1.51973982E+01  7.59869910E+00  7.59869910E+00 -1.51973982E+01
  7.59869910E+00  7.59869910E+00 -1.51973982E+01  7.59869910E+00  7.59869910E+00
 -1.51973982E+01  7.59869910E+00  7.59869910E+00 -1.51973982E+01  7.59869910E+00
  7.59869910E+00 -1.51973982E+01  7.59869910E+00  7.59869910E+00 -1.51973982E+01
  7.59869910E+00  7.59869910E+00 -1.51973982E+01  7.59869910E+00  7.59869910E+00
 -1.51973982E+01  7.59869910E+00  7.59869910E+00 -1.51973982E+01  7.59869910E+00
  7.59869910E+00 -1.51973982E+01  7.59869910E+00  7.59869910E+00 -1.51973982E+01
  7.59869910E+00  7.59869910E+00 -1.51973982E+01  7.59869910E+00  7.59869910E+00
 -1.51973982E+01  7.59869910E+00  7.59869910E+00 -1.51973982E+01  7.59869910E+00
  7.59869910E+00 -1.51973982E+01  7.59869910E+00  7.59869910E+00 -1.51973982E+01
  7.59869910E+00  7.59869910E+00 -1.51973982E+01  7.59869910E+00  7.59869910E+00
 -1.51973982E+01  7.59869910E+00  7.59869910E+00 -1.51973982E+01  7.59869910E+00
  7.59869910E+00 -1.51973982E+01  7.59869910E+00  7.59869910E+00 -1.51973982E+01
  7.59869910E+00  7.59869910E+00 -1.51973982E+01  7.59869910E+00  7.59869910E+00
 -1.51973982E+01  7.59869910E+00  7.59869910E+00 -1.51973982E+01  7.59869910E+00
  7.59869910E+00 -1.51973982E+01  7.59869910E+00  7.59869910E+00 -1.51973982E+01
  7.59869910E+00  7.59869910E+00 -1.51973982E+01  7.59869910E+00  7.59869910E+00
 -1.51973982E+01  7.59869910E+00  7.59869910E+00 -1.51973982E+01  7.59869910E+00
  7.59869910E+00 -1.51973982E+01  7.59869910E+00  7.59869910E+00 -1.51973982E+01
  7.59869910E+00  7.59869910E+00 -1.51973982E+01  7.59869910E+00  7.59869910E+00
 -1.51973982E+01  7.59869910E+00  7.59869910E+00 -1.51973982E+01  7.59869910E+00
  7.59869910E+00 -1.51973982E+01  7.59869910E+00  7.59869910E+00 -1.51973982E+01
  7.59869910E+00  7.59869910E+00 -1.51973982E+01  7.59869910E+00  7.59869910E+00
 -1.51973982E+01  7.59869910E+00  7.59869910E+00 -1.51973982E+01  7.59869910E+00
  7.59869910E+00 -1.51973982E+01  7.59869910E+00  7.59869910E+00 -1.51973982E+01
  7.59869910E+00  7.59869910E+00 -1.51973982E+01  7.59869910E+00  7.59869910E+00
 -1.51973982E+01  7.59869910E+00  7.59869910E+00 -1.51973982E+01  7.59869910E+00
  7.59869910E+00 -1.51973982E+01  7.59869910E+00  7.59869910E+00 -1.51973982E+01
  7.59869910E+00  7.59869910E+00 -1.51973982E+01  7.59869910E+00  7.59869910E+00
 -1.51973982E+01  7.59869910E+00  7.59869910E+00 -1.51973982E+01  7.59869910E+00
  7.59869910E+00 -1.51973982E+01  7.59869910E+00  7.59869910E+00 -1.51973982E+01
  7.59869910E+00  7.59869910E+00 -1.51973982E+01  7.59869910E+00  7.59869910E+00
 -1.51973982E+01  7.59869910E+00  7.59869910E+00 -1.51973982E+01  7.59869910E+00
  7.59869910E+00 -1.51973982E+01  7.59869910E+00  7.59869910E+00 -1.51973982E+01
  7.59869910E+00  7.59869910E+00 -1.51973982E+01  7.59869910E+00  7.59869910E+00
 -1.51973982E+01  7.59869910E+00  7.59869910E+00 -1.51973982E+01  7.59869910E+00
  7.59869910E+00 -1.51973982E+01  7.59869910E+00  7.59869910E+00 -1.51973982E+01
  7.59869910E+00  7.59869910E+00 -1.51973982E+01  7.59869910E+00  7.59869910E+00
 -1.51973982E+01  7.59869910E+00  7.59869910E+00 -1.51973982E+01  7.59869910E+00
  7.59869910E+00 -1.51973982E+01  7.59869910E+00  7.59869910E+00 -1.51973982E+01
  7.59869910E+00  7.59869910E+00 -1.51973982E+01  7.59869910E+00  7.59869910E+00
 -1.51973982E+01  7.59869910E+00  7.59869910E+00 -1.51973982E+01  7.59869910E+00
  7.59869910E+00 -1.51973982E+01  7.59869910E+00  7.59869910E+00 -1.51973982E+01
  7.59869910E+00  7.59869910E+00 -1.51973982E+01  7.59869910E+00  7.59869910E+00
 -1.51973982E+01  7.59869910E+00  7.59869910E+00 -1.51973982E+01  7.59869910E+00
  7.59869910E+00 -1.51973982E+01  7.59869910E+00  7.59869910E+00 -1.51973982E+01
  7.59869910E+00  7.59869910E+00 -1.51973982E+01  7.59869910E+00  7.59869910E+00
 -1.51973982E+01  7.59869910E+00  7.59869910E+00 -1.51973982E+01  7.59869910E+00
  7.59869910E+00 -1.51973982E+01  7.59869910E+00  7.59869910E+00 -1.51973982E+01
  7.59869910E+00  7.59869910E+00 -1.51973982E+01  7.59869910E+00  7.59869910E+00
 -1.51973982E+01  7.59869910E+00  7.59869910E+00 -1.51973982E+01  7.59869910E+00
  7.59869910E+00 -1.51973982E+01  7.59869910E+00  7.59869910E+00 -1.51973982E+01
  7.59869910E+00  7.59869910E+00 -1.51973982E+01  7.59869910E+00  7.59869910E+00
 -1.51973982E+01  7.59869910E+00  7.59869910E+00 -1.51973982E+01  7.59869910E+00
  7.59869910E+00 -1.51973982E+01  7.59869910E+00  7.59869910E+00 -1.51973982E+01
  7.59869910E+00  7.59869910E+00 -1.51973982E+01  7.59869910E+00  7.59869910E+00
 -1.51973982E+01  7.59869910E+00  7.59869910E+00 -1.51973982E+01  7.59869910E+00
  7.59869910E+00 -1.51973982E+01  7.59869910E+00  7.59869910E+00 -1.51973982E+01
  7.59869910E+00  7.59869910E+00 -1.51973982E+01  7.59869910E+00  7.59869910E+00
 -1.51973982E+01  7.59869910E+00  7.59869910E+00 -1.51973982E+01  7.59869910E+00
  7.59869910E+00 -1.51973982E+01  7.59869910E+00  7.59869910E+00 -1.51973982E+01
  7.59869910E+00  7.59869910E+00 -1.51973982E+01  7.59869910E+00  7.59869910E+00
 -1.51973982E+01  7.59869910E+00  7.59869910E+00 -1.51973982E+01  7.59869910E+00
  7.59869910E+00 -1.51973982E+01  7.59869910E+00  7.59869910E+00 -1.51973982E+01
  7.59869910E+00  7.59869910E+00 -1.51973982E+01  7.59869910E+00  7.59869910E+00
 -1.51973982E+01  7.59869910E+00  7.59869910E+00 -1.51973982E+01  7.59869910E+00
  7.59869910E+00 -1.51973982E+01  7.59869910E+00  7.59869910E+00 -1.51973982E+01
  7.59869910E+00  7.59869910E+00 -1.51973982E+01  7.59869910E+00  7.59869910E+00
 -1.51973982E+01  7.59869910E+00  7.59869910E+00 -1.51973982E+01  7.59869910E+00
  7.59869910E+00 -1.51973982E+01  7.59869910E+00  7.59869910E+00 -1.51973982E+01
  7.59869910E+00  7.59869910E+00 -1.51973982E+01  7.59869910E+00  7.59869910E+00
 -1.51973982E+01  7.59869910E+00  7.59869910E+00 -1.51973982E+01  7.59869910E+00
  7.59869910E+00 -1.51973982E+01  7.59869910E+00  7.59869910E+00 -1.51973982E+01
  7.59869910E+00  7.59869910E+00 -1.51973982E+01  7.59869910E+00  7.59869910E+00
 -1.51973982E+01  7.59869910E+00  7.59869910E+00 -1.51973982E+01  7.59869910E+00
  7.59869910E+00 -1.51973982E+01  7.59869910E+00  7.59869910E+00 -1.51973982E+01
  7.59869910E+00  7.59869910E+00 -1.51973982E+01  7.59869910E+00  7.59869910E+00
 -1.51973982E+01  7.59869910E+00  7.59869910E+00 -1.51973982E+01  7.59869910E+00
  7.59869910E+00 -1.51973982E+01  7.59869910E+00  7.59869910E+00 -1.51973982E+01
  7.59869910E+00  7.59869910E+00 -1.51973982E+01  7.59869910E+00  7.59869910E+00
 -1.51973982E+01  7.59869910E+00  7.59869910E+00 -1.51973982E+01  7.59869910E+00
  7.59869910E+00 -1.51973982E+01  7.59869910E+00  7.59869910E+00 -1.51973982E+01
  7.59869910E+00  7.59869910E+00 -1.51973982E+01  7.59869910E+00  7.59869910E+00
 -1.51973982E+01  7.59869910E+00  7.59869910E+00 -1.51973982E+01  7.59869910E+00
  7.59869910E+00 -1.51973982E+01  7.59869910E+00  7.59869910E+00 -1.51973982E+01
  7.59869910E+00  7.59869910E+00 -1.51973982E+01  7.59869910E+00  7.59869910E+00
 -1.51973982E+01  7.59869910E+00  7.59869910E+00 -1.51973982E+01  7.59869910E+00
  7.59869910E+00 -1.51973982E+01  7.59869910E+00  7.59869910E+00 -1.51973982E+01
  7.59869910E+00  7.59869910E+00 -1.51973982E+01  7.59869910E+00  7.59869910E+00
 -1.51973982E+01  7.59869910E+00  7.59869910E+00 -1.51973982E+01  7.59869910E+00
  7.59869910E+00 -1.51973982E+01  7.59869910E+00  7.59869910E+00 -1.51973982E+01
  7.59869910E+00  7.59869910E+00 -1.51973982E+01  7.59869910E+00  7.59869910E+00
 -1.51973982E+01  7.59869910E+00  7.59869910E+00 -1.51973982E+01  7.59869910E+00
  7.59869910E+00 -1.51973982E+01  7.59869910E+00  7.59869910E+00 -1.51973982E+01
  7.59869910E+00  7.59869910E+00 -1.51973982E+01  7.59869910E+00  7.59869910E+00
 -1.51973982E+01  7.59869910E+00  7.59869910E+00 -1.51973982E+01  7.59869910E+00
  7.59869910E+00 -1.51973982E+01  7.59869910E+00  7.59869910E+00 -1.51973982E+01
  7.59869910E+00  7.59869910E+00 -1.51973982E+01  7.59869910E+00  7.59869910E+00
 -1.51973982E+01  7.59869910E+00  7.59869910E+00 -1.51973982E+01  7.59869910E+00
  7.59869910E+00 -1.51973982E+01  7.59869910E+00  7.59869910E+00 -1.51973982E+01
  7.59869910E+00  7.59869910E+00 -1.51973982E+01  7.59869910E+00  7.59869910E+00
 -1.51973982E+01  7.59869910E+00  7.59869910E+00 -1.51973982E+01  7.59869910E+00
  7.59869910E+00 -1.51973982E+01  7.59869910E+00  7.59869910E+00 -1.51973982E+01
  7.59869910E+00  7.59869910E+00 -1.51973982E+01  7.59869910E+00  7.59869910E+00
 -1.51973982E+01  7.59869910E+00  7.59869910E+00 -1.51973982E+01  7.59869910E+00
  7.59869910E+00 -1.51973982E+01  7.59869910E+00  7.59869910E+00 -1.51973982E+01
  7.59869910E+00  7.59869910E+00 -1.51973982E+01  7.59869910E+00  7.59869910E+00
 -1.51973982E+01  7.59869910E+00  7.59869910E+00 -1.51973982E+01  7.59869910E+00
  7.59869910E+00 -1.51973982E+01  7.59869910E+00  7.59869910E+00 -1.51973982E+01
  7.59869910E+00  7.59869910E+00 -1.51973982E+01  7.59869910E+00  7.59869910E+00
 -1.51973982E+01  7.59869910E+00  7.59869910E+00 -1.51973982E+01  7.59869910E+00
  7.59869910E+00 -1.51973982E+01  7.59869910E+00  7.59869910E+00 -1.51973982E+01
  7.59869910E+00  7.59869910E+00 -1.51973982E+01  7.59869910E+00  7.59869910E+00
 -1.51973982E+01  7.59869910E+00  7.59869910E+00 -1.51973982E+01  7.59869910E+00
  7.59869910E+00 -1.51973982E+01  7.59869910E+00  7.59869910E+00 -1.51973982E+01
  7.59869910E+00  7.59869910E+00 -1.51973982E+01  7.59869910E+00  7.59869910E+00
 -1.51973982E+01  7.59869910E+00  7.59869910E+00 -1.51973982E+01  7.59869910E+00
  7.59869910E+00 -1.51973982E+01  7.59869910E+00  7.59869910E+00 -1.51973982E+01
  7.59869910E+00  7.59869910E+00 -1.51973982E+01  7.59869910E+00  7.59869910E+00
 -1.51973982E+01  7.59869910E+00  7.59869910E+00 -1.51973982E+01  7.59869910E+00
  7.59869910E+00 -1.51973982E+01  7.59869910E+00  7.59869910E+00 -1.51973982E+01
  7.59869910E+00  7.59869910E+00 -1.51973982E+01  7.59869910E+00  7.59869910E+00
 -1.51973982E+01  7.59869910E+00  7.59869910E+00 -1.51973982E+01  7.59869910E+00
  7.59869910E+00 -1.51973982E+01  7.59869910E+00  7.59869910E+00 -1.51973982E+01
  7.59869910E+00  7.59869910E+00 -1.51973982E+01  7.59869910E+00  7.59869910E+00
 -1.51973982E+01  7.59869910E+00  7.59869910E+00 -1.51973982E+01  7.59869910E+00
  7.59869910E+00 -1.51973982E+01  7.59869910E+00  7.59869910E+00 -1.51973982E+01
  7.59869910E+00  7.59869910E+00 -1.51973982E+01  7.59869910E+00  7.59869910E+00
 -1.51973982E+01  7.59869910E+00  7.59869910E+00 -1.51973982E+01  7.59869910E+00
  7.59869910E+00 -1.51973982E+01  7.59869910E+00  7.59869910E+00 -1.51973982E+01
  7.59869910E+00  7.59869910E+00 -1.51973982E+01  7.59869910E+00  7.59869910E+00
 -1.51973982E+01  7.59869910E+00  7.59869910E+00 -1.51973982E+01  7.59869910E+00
  7.59869910E+00 -1.51973982E+01  7.59869910E+00  7.59869910E+00 -1.51973982E+01
  7.59869910E+00  7.59869910E+00 -1.51973982E+01  7.59869910E+00  7.59869910E+00
 -1.51973982E+01  7.59869910E+00  7.59869910E+00 -1.51973982E+01  7.59869910E+00
  7.59869910E+00 -1.51973982E+01  7.59869910E+00  7.59869910E+00 -1.51973982E+01
  7.59869910E+00  7.59869910E+00 -1.51973982E+01  7.59869910E+00  7.59869910E+00
 -1.51973982E+01  7.59869910E+00  7.59869910E+00 -1.51973982E+01  7.59869910E+00
  7.59869910E+00 -1.51973982E+01  7.59869910E+00  7.59869910E+00 -1.51973982E+01
  7.59869910E+00  7.59869910E+00 -1.51973982E+01  7.59869910E+00  7.59869910E+00
 -1.51973982E+01  7.59869910E+00  7.59869910E+00 -1.51973982E+01  7.59869910E+00
  7.59869910E+00 -1.51973982E+01  7.59869910E+00  7.59869910E+00 -1.51973982E+01
  7.59869910E+00  7.59869910E+00 -1.51973982E+01  7.59869910E+00  7.59869910E+00
 -1.51973982E+01  7.59869910E+00  7.59869910E+00 -1.51973982E+01  7.59869910E+00
  7.59869910E+00 -1.51973982E+01  7.59869910E+00  7.59869910E+00 -1.51973982E+01
  7.59869910E+00  7.59869910E+00 -1.51973982E+01  7.59869910E+00  7.59869910E+00
 -1.51973982E+01  7.59869910E+00  7.59869910E+00 -1.51973982E+01  7.59869910E+00
  7.59869910E+00 -1.51973982E+01  7.59869910E+00  7.59869910E+00 -1.51973982E+01
  7.59869910E+00  7.59869910E+00 -1.51973982E+01  7.59869910E+00  7.59869910E+00
 -1.51973982E+01  7.59869910E+00  7.59869910E+00 -1.51973982E+01  7.59869910E+00
  7.59869910E+00 -1.51973982E+01  7.59869910E+00  7.59869910E+00 -1.51973982E+01
  7.59869910E+00  7.59869910E+00 -1.51973982E+01  7.59869910E+00  7.59869910E+00
 -1.51973982E+01  7.59869910E+00  7.59869910E+00 -1.51973982E+01  7.59869910E+00
  7.59869910E+00 -1.51973982E+01  7.59869910E+00  7.59869910E+00 -1.51973982E+01
  7.59869910E+00  7.59869910E+00 -1.51973982E+01  7.59869910E+00  7.59869910E+00
 -1.51973982E+01  7.59869910E+00  7.59869910E+00 -1.51973982E+01  7.59869910E+00
  7.59869910E+00 -1.51973982E+01  7.59869910E+00  7.59869910E+00 -1.51973982E+01
  7.59869910E+00  7.59869910E+00 -1.51973982E+01  7.59869910E+00  7.59869910E+00
 -1.51973982E+01  7.59869910E+00  7.59869910E+00 -1.51973982E+01  7.59869910E+00
  7.59869910E+00 -1.51973982E+01  7.59869910E+00  7.59869910E+00 -1.51973982E+01
  7.59869910E+00  7.59869910E+00 -1.51973982E+01  7.59869910E+00  7.59869910E+00
 -1.51973982E+01  7.59869910E+00  7.59869910E+00 -1.51973982E+01  7.59869910E+00
  7.59869910E+00 -1.51973982E+01  7.59869910E+00  7.59869910E+00 -1.51973982E+01
  7.59869910E+00  7.59869910E+00 -1.51973982E+01  7.59869910E+00  7.59869910E+00
 -1.51973982E+01  7.59869910E+00  7.59869910E+00 -1.51973982E+01  7.59869910E+00
  7.59869910E+00 -1.51973982E+01  7.59869910E+00  7.59869910E+00 -1.51973982E+01
  7.59869910E+00  7.59869910E+00 -1.51973982E+01  7.59869910E+00  7.59869910E+00
 -1.51973982E+01  7.59869910E+00  7.59869910E+00 -1.51973982E+01  7.59869910E+00
  7.59869910E+00 -1.51973982E+01  7.59869910E+00  7.59869910E+00 -1.51973982E+01
  7.59869910E+00  7.59869910E+00 -1.51973982E+01  7.59869910E+00  7.59869910E+00
 -1.51973982E+01  7.59869910E+00  7.59869910E+00 -1.51973982E+01  7.59869910E+00
  7.59869910E+00 -1.51973982E+01  7.59869910E+00  7.59869910E+00 -1.51973982E+01
  7.59869910E+00  7.59869910E+00 -1.51973982E+01  7.59869910E+00  7.59869910E+00
 -1.51973982E+01  7.59869910E+00  7.59869910E+00 -1.51973982E+01  7.59869910E+00
  7.59869910E+00 -1.51973982E+01  7.59869910E+00  7.59869910E+00 -1.51973982E+01
  7.59869910E+00  7.59869910E+00 -1.51973982E+01  7.59869910E+00  7.59869910E+00
 -1.51973982E+01  7.59869910E+00  7.59869910E+00 -1.51973982E+01  7.59869910E+00
  7.59869910E+00 -1.51973982E+01  7.59869910E+00  7.59869910E+00 -1.51973982E+01
  7.59869910E+00  7.59869910E+00 -1.51973982E+01  7.59869910E+00  7.59869910E+00
 -1.51973982E+01  7.59869910E+00  7.59869910E+00 -1.51973982E+01  7.59869910E+00
  7.59869910E+00 -1.51973982E+01  7.59869910E+00  7.59869910E+00 -1.51973982E+01
  7.59869910E+00  7.59869910E+00 -1.51973982E+01  7.59869910E+00  7.59869910E+00
 -1.51973982E+01  7.59869910E+00  7.59869910E+00 -1.51973982E+01  7.59869910E+00
  7.59869910E+00 -1.51973982E+01  7.59869910E+00  7.59869910E+00 -1.51973982E+01
  7.59869910E+00  7.59869910E+00 -1.51973982E+01  7.59869910E+00  7.59869910E+00
 -1.51973982E+01  7.59869910E+00  7.59869910E+00 -1.51973982E+01  7.59869910E+00
  7.59869910E+00 -1.51973982E+01  7.59869910E+00  7.59869910E+00 -1.51973982E+01
  7.59869910E+00  7.59869910E+00 -1.51973982E+01  7.59869910E+00  7.59869910E+00
 -1.51973982E+01  7.59869910E+00  7.59869910E+00 -1.51973982E+01  7.59869910E+00
  7.59869910E+00 -1.51973982E+01  7.59869910E+00  7.59869910E+00 -1.51973982E+01
  7.59869910E+00  7.59869910E+00 -1.51973982E+01  7.59869910E+00  7.59869910E+00
 -1.51973982E+01  7.59869910E+00  7.59869910E+00 -1.51973982E+01  7.59869910E+00
  7.59869910E+00 -1.51973982E+01  7.59869910E+00  7.59869910E+00 -1.51973982E+01
  7.59869910E+00  7.59869910E+00 -1.51973982E+01  7.59869910E+00  7.59869910E+00
 -1.51973982E+01  7.59869910E+00  7.59869910E+00 -1.51973982E+01  7.59869910E+00
  7.59869910E+00 -1.51973982E+01  7.59869910E+00  7.59869910E+00 -1.51973982E+01
  7.59869910E+00  7.59869910E+00 -1.51973982E+01  7.59869910E+00  7.59869910E+00
 -1.51973982E+01  7.59869910E+00  7.59869910E+00 -1.51973982E+01  7.59869910E+00
  7.59869910E+00 -1.51973982E+01  7.59869910E+00  7.59869910E+00 -1.51973982E+01
  7.59869910E+00  7.59869910E+00 -1.51973982E+01  7.59869910E+00  7.59869910E+00
 -1.51973982E+01  7.59869910E+00  7.59869910E+00 -1.51973982E+01  7.59869910E+00
  7.59869910E+00 -1.51973982E+01  7.59869910E+00  7.59869910E+00 -1.51973982E+01
  7.59869910E+00  7.59869910E+00 -1.51973982E+01  7.59869910E+00  7.59869910E+00
 -1.51973982E+01  7.59869910E+00  7.59869910E+00 -1.51973982E+01  7.59869910E+00
  7.59869910E+00 -1.51973982E+01  7.59869910E+00  7.59869910E+00 -1.51973982E+01
  7.59869910E+00  7.59869910E+00 -1.51973982E+01  7.59869910E+00  7.59869910E+00
 -1.51973982E+01  7.59869910E+00  7.59869910E+00 -1.51973982E+01  7.59869910E+00
  7.59869910E+00 -1.51973982E+01  7.59869910E+00  7.59869910E+00 -1.51973982E+01
  7.59869910E+00  7.59869910E+00 -1.51973982E+01  7.59869910E+00  7.59869910E+00
 -1.51973982E+01  7.59869910E+00  7.59869910E+00 -1.51973982E+01  7.59869910E+00
  7.59869910E+00 -1.51973982E+01  7.59869910E+00  7.59869910E+00 -1.51973982E+01
  7.59869910E+00  7.59869910E+00 -1.51973982E+01  7.59869910E+00  7.59869910E+00
 -1.51973982E+01  7.59869910E+00  7.59869910E+00 -1.51973982E+01  7.59869910E+00
  7.59869910E+00 -1.51973982E+01  7.59869910E+00  7.59869910E+00 -1.51973982E+01
  7.59869910E+00  7.59869910E+00 -1.51973982E+01  7.59869910E+00  7.59869910E+00
 -1.51973982E+01  7.59869910E+00  7.59869910E+00 -1.51973982E+01  7.59869910E+00
  7.59869910E+00 -1.51973982E+01  7.59869910E+00  7.59869910E+00 -1.51973982E+01
  7.59869910E+00  7.59869910E+00 -1.51973982E+01  7.59869910E+00  7.59869910E+00
 -1.51973982E+01  7.59869910E+00  7.59869910E+00 -1.51973982E+01  7.59869910E+00
  7.59869910E+00 -1.51973982E+01  7.59869910E+00  7.59869910E+00 -1.51973982E+01
  7.59869910E+00  7.59869910E+00 -1.51973982E+01  7.59869910E+00  7.59869910E+00
 -1.51973982E+01  7.59869910E+00  7.59869910E+00 -1.51973982E+01  7.59869910E+00
  7.59869910E+00 -1.51973982E+01  7.59869910E+00  7.59869910E+00 -1.51973982E+01
  7.59869910E+00  7.59869910E+00 -1.51973982E+01  7.59869910E+00  7.59869910E+00
 -1.51973982E+01  7.59869910E+00  7.59869910E+00 -1.51973982E+01  7.59869910E+00
  7.59869910E+00 -1.51973982E+01  7.59869910E+00  7.59869910E+00 -1.51973982E+01
  7.59869910E+00  7.59869910E+00 -1.51973982E+01  7.59869910E+00  7.59869910E+00
 -1.51973982E+01  7.59869910E+00  7.59869910E+00 -1.51973982E+01  7.59869910E+00
  7.59869910E+00 -1.51973982E+01  7.59869910E+00  7.59869910E+00 -1.51973982E+01
  7.59869910E+00  7.59869910E+00 -1.51973982E+01  7.59869910E+00  7.59869910E+00
 -1.51973982E+01  7.59869910E+00  7.59869910E+00 -1.51973982E+01  7.59869910E+00
  7.59869910E+00 -1.51973982E+01  7.59869910E+00  7.59869910E+00 -1.51973982E+01
  7.59869910E+00  7.59869910E+00 -1.51973982E+01  7.59869910E+00  7.59869910E+00
 -1.51973982E+01  7.59869910E+00  7.59869910E+00 -1.51973982E+01  7.59869910E+00
  7.59869910E+00 -1.51973982E+01  7.59869910E+00  7.59869910E+00 -1.51973982E+01
  7.59869910E+00  7.59869910E+00 -1.51973982E+01  7.59869910E+00  7.59869910E+00
 -1.51973982E+01  7.59869910E+00  7.59869910E+00 -1.51973982E+01  7.59869910E+00
  7.59869910E+00 -1.51973982E+01  7.59869910E+00  7.59869910E+00 -1.51973982E+01
  7.59869910E+00  7.59869910E+00 -1.51973982E+01  7.59869910E+00  7.59869910E+00
 -1.51973982E+01  7.59869910E+00  7.59869910E+00 -1.51973982E+01  7.59869910E+00
  7.59869910E+00 -1.51973982E+01  7.59869910E+00  7.59869910E+00 -1.51973982E+01
  7.59869910E+00  7.59869910E+00 -1.51973982E+01  7.59869910E+00  7.59869910E+00
 -1.51973982E+01  7.59869910E+00  7.59869910E+00 -1.51973982E+01  7.59869910E+00
  7.59869910E+00 -1.51973982E+01  7.59869910E+00  7.59869910E+00 -1.51973982E+01
  7.59869910E+00  7.59869910E+00 -1.51973982E+01  7.59869910E+00  7.59869910E+00
 -1.51973982E+01  7.59869910E+00  7.59869910E+00 -1.51973982E+01  7.59869910E+00
  7.59869910E+00 -1.51973982E+01  7.59869910E+00  7.59869910E+00 -1.51973982E+01
  7.59869910E+00  7.59869910E+00 -1.51973982E+01  7.59869910E+00  7.59869910E+00
 -1.51973982E+01  7.59869910E+00  7.59869910E+00 -1.51973982E+01  7.59869910E+00
  7.59869910E+00 -1.51973982E+01  7.59869910E+00  7.59869910E+00 -1.51973982E+01
  7.59869910E+00  7.59869910E+00 -1.51973982E+01  7.59869910E+00  7.59869910E+00
 -1.51973982E+01  7.59869910E+00  7.59869910E+00 -1.51973982E+01  7.59869910E+00
  7.59869910E+00 -1.51973982E+01  7.59869910E+00  7.59869910E+00 -1.51973982E+01
  7.59869910E+00  7.59869910E+00 -1.51973982E+01  7.59869910E+00  7.59869910E+00
 -1.51973982E+01  7.59869910E+00  7.59869910E+00 -1.51973982E+01  7.59869910E+00
  7.59869910E+00 -1.51973982E+01  7.59869910E+00  7.59869910E+00 -1.51973982E+01
  7.59869910E+00  7.59869910E+00 -1.51973982E+01  7.59869910E+00  7.59869910E+00
 -1.51973982E+01  7.59869910E+00  7.59869910E+00 -1.51973982E+01  7.59869910E+00
  7.59869910E+00 -1.51973982E+01  7.59869910E+00  7.59869910E+00 -1.51973982E+01
  7.59869910E+00  7.59869910E+00 -1.51973982E+01  7.59869910E+00  7.59869910E+00
 -1.51973982E+01  7.59869910E+00  7.59869910E+00 -1.51973982E+01  7.59869910E+00
  7.59869910E+00 -1.51973982E+01  7.59869910E+00  7.59869910E+00 -1.51973982E+01
  7.59869910E+00  7.59869910E+00 -1.51973982E+01  7.59869910E+00  7.59869910E+00
 -1.51973982E+01  7.59869910E+00  7.59869910E+00 -1.51973982E+01  7.59869910E+00
  7.59869910E+00 -1.51973982E+01  7.59869910E+00  7.59869910E+00 -1.51973982E+01
  7.59869910E+00  7.59869910E+00 -1.51973982E+01  7.59869910E+00  7.59869910E+00
 -1.51973982E+01  7.59869910E+00  7.59869910E+00 -1.51973982E+01  7.59869910E+00
  7.59869910E+00 -1.51973982E+01  7.59869910E+00  7.59869910E+00 -1.51973982E+01
  7.59869910E+00  7.59869910E+00 -1.51973982E+01  7.59869910E+00  7.59869910E+00
 -1.51973982E+01  7.59869910E+00  7.59869910E+00 -1.51973982E+01  7.59869910E+00
  7.59869910E+00 -1.51973982E+01  7.59869910E+00  7.59869910E+00 -1.51973982E+01
  7.59869910E+00  7.59869910E+00 -1.51973982E+01  7.59869910E+00  7.59869910E+00
 -1.51973982E+01  7.59869910E+00  7.59869910E+00 -1.51973982E+01  7.59869910E+00
  7.59869910E+00 -1.51973982E+01  7.59869910E+00  7.59869910E+00 -1.51973982E+01
  7.59869910E+00  7.59869910E+00 -1.51973982E+01  7.59869910E+00  7.59869910E+00
 -1.51973982E+01  7.59869910E+00  7.59869910E+00 -1.51973982E+01  7.59869910E+00
  7.59869910E+00 -1.51973982E+01  7.59869910E+00  7.59869910E+00 -1.51973982E+01
  7.59869910E+00  7.59869910E+00 -1.51973982E+01  7.59869910E+00  7.59869910E+00
 -1.51973982E+01  7.59869910E+00  7.59869910E+00 -1.51973982E+01  7.59869910E+00
  7.59869910E+00 -1.51973982E+01  7.59869910E+00  7.59869910E+00 -1.51973982E+01
  7.59869910E+00  7.59869910E+00 -1.51973982E+01  7.59869910E+00  7.59869910E+00
 -1.51973982E+01  7.59869910E+00  7.59869910E+00 -1.51973982E+01  7.59869910E+00
  7.59869910E+00 -1.51973982E+01  7.59869910E+00  7.59869910E+00 -1.51973982E+01
  7.59869910E+00  7.59869910E+00 -1.51973982E+01  7.59869910E+00  7.59869910E+00
 -1.51973982E+01  7.59869910E+00  7.59869910E+00 -1.51973982E+01  7.59869910E+00
  7.59869910E+00 -1.51973982E+01  7.59869910E+00  7.59869910E+00 -1.51973982E+01
  7.59869910E+00  7.59869910E+00 -1.51973982E+01  7.59869910E+00  7.59869910E+00
 -1.51973982E+01  7.59869910E+00  7.59869910E+00 -1.51973982E+01  7.59869910E+00
  7.59869910E+00 -1.51973982E+01  7.59869910E+00  7.59869910E+00 -1.51973982E+01
  7.59869910E+00  7.59869910E+00 -1.51973982E+01  7.59869910E+00  7.59869910E+00
 -1.51973982E+01  7.59869910E+00  7.59869910E+00 -1.51973982E+01  7.59869910E+00
  7.59869910E+00 -1.51973982E+01  7.59869910E+00  7.59869910E+00 -1.51973982E+01
  7.59869910E+00  7.59869910E+00 -1.51973982E+01  7.59869910E+00  7.59869910E+00
 -1.51973982E+01  7.59869910E+00  7.59869910E+00 -1.51973982E+01  7.59869910E+00
  7.59869910E+00 -1.51973982E+01  7.59869910E+00  7.59869910E+00 -1.51973982E+01
  7.59869910E+00  7.59869910E+00 -1.51973982E+01  7.59869910E+00  7.59869910E+00
 -1.51973982E+01  7.59869910E+00  7.59869910E+00 -1.51973982E+01  7.59869910E+00
  7.59869910E+00 -1.51973982E+01  7.59869910E+00  7.59869910E+00 -1.51973982E+01
  7.59869910E+00  7.59869910E+00 -1.51973982E+01  7.59869910E+00  7.59869910E+00
 -1.51973982E+01  7.59869910E+00  7.59869910E+00 -1.51973982E+01  7.59869910E+00
  7.59869910E+00 -1.51973982E+01  7.59869910E+00  7.59869910E+00 -1.51973982E+01
  7.59869910E+00  7.59869910E+00 -1.51973982E+01  7.59869910E+00  7.59869910E+00
 -1.51973982E+01  7.59869910E+00  7.59869910E+00 -1.51973982E+01  7.59869910E+00
  7.59869910E+00 -1.51973982E+01  7.59869910E+00  7.59869910E+00 -1.51973982E+01
  7.59869910E+00  7.59869910E+00 -1.51973982E+01  7.59869910E+00  7.59869910E+00
 -1.51973982E+01  7.59869910E+00  7.59869910E+00 -1.51973982E+01  7.59869910E+00
  7.59869910E+00 -1.51973982E+01  7.59869910E+00  7.59869910E+00 -1.51973982E+01
  7.59869910E+00  7.59869910E+00 -1.51973982E+01  7.59869910E+00  7.59869910E+00
 -1.51973982E+01  7.59869910E+00  7.59869910E+00 -1.51973982E+01  7.59869910E+00
  7.59869910E+00 -1.51973982E+01  7.59869910E+00  7.59869910E+00 -1.51973982E+01
  7.59869910E+00  7.59869910E+00 -1.51973982E+01  7.59869910E+00  7.59869910E+00
 -1.51973982E+01  7.59869910E+00  7.59869910E+00 -1.51973982E+01  7.59869910E+00
  7.59869910E+00 -1.51973982E+01  7.59869910E+00  7.59869910E+00 -1.51973982E+01
  7.59869910E+00  7.59869910E+00 -1.51973982E+01  7.59869910E+00  7.59869910E+00
 -1.51973982E+01  7.59869910E+00  7.59869910E+00 -1.51973982E+01  7.59869910E+00
  7.59869910E+00 -1.51973982E+01  7.59869910E+00  7.59869910E+00 -1.51973982E+01
  7.59869910E+00  7.59869910E+00 -1.51973982E+01  7.59869910E+00  7.59869910E+00
 -1.51973982E+01  7.59869910E+00  7.59869910E+00 -1.51973982E+01  7.59869910E+00
  7.59869910E+00 -1.51973982E+01  7.59869910E+00  7.59869910E+00 -1.51973982E+01
  7.59869910E+00  7.59869910E+00 -1.51973982E+01  7.59869910E+00  7.59869910E+00
 -1.51973982E+01  7.59869910E+00  7.59869910E+00 -1.51973982E+01  7.59869910E+00
  7.59869910E+00 -1.51973982E+01  7.59869910E+00  7.59869910E+00 -1.51973982E+01
  7.59869910E+00  7.59869910E+00 -1.51973982E+01  7.59869910E+00  7.59869910E+00
 -1.51973982E+01  7.59869910E+00  7.59869910E+00 -1.51973982E+01  7.59869910E+00
  7.59869910E+00 -1.51973982E+01  7.59869910E+00  7.59869910E+00 -1.51973982E+01
  7.59869910E+00  7.59869910E+00 -1.51973982E+01  7.59869910E+00  7.59869910E+00
 -1.51973982E+01  7.59869910E+00  7.59869910E+00 -1.51973982E+01  7.59869910E+00
  7.59869910E+00 -1.51973982E+01  7.59869910E+00  7.59869910E+00 -1.51973982E+01
  7.59869910E+00  7.59869910E+00 -1.51973982E+01  7.59869910E+00  7.59869910E+00
 -1.51973982E+01  7.59869910E+00  7.59869910E+00 -1.51973982E+01  7.59869910E+00
  7.59869910E+00 -1.51973982E+01  7.59869910E+00  7.59869910E+00 -1.51973982E+01
  7.59869910E+00  7.59869910E+00 -1.51973982E+01  7.59869910E+00  7.59869910E+00
 -1.51973982E+01  7.59869910E+00  7.59869910E+00 -1.51973982E+01  7.59869910E+00
  7.59869910E+00 -1.51973982E+01  7.59869910E+00  7.59869910E+00 -1.51973982E+01
  7.59869910E+00  7.59869910E+00 -1.51973982E+01  7.59869910E+00  7.59869910E+00
 -1.51973982E+01  7.59869910E+00  7.59869910E+00 -1.51973982E+01  7.59869910E+00
  7.59869910E+00 -1.51973982E+01  7.59869910E+00  7.59869910E+00 -1.51973982E+01
  7.59869910E+00  7.59869910E+00 -1.51973982E+01  7.59869910E+00  7.59869910E+00
 -1.51973982E+01  7.59869910E+00  7.59869910E+00 -1.51973982E+01  7.59869910E+00
  7.59869910E+00 -1.51973982E+01  7.59869910E+00  7.59869910E+00 -1.51973982E+01
  7.59869910E+00  7.59869910E+00 -1.51973982E+01  7.59869910E+00  7.59869910E+00
 -1.51973982E+01  7.59869910E+00  7.59869910E+00 -1.51973982E+01  7.59869910E+00
  7.59869910E+00 -1.51973982E+01  7.59869910E+00  7.59869910E+00 -1.51973982E+01
  7.59869910E+00  7.59869910E+00 -1.51973982E+01  7.59869910E+00  7.59869910E+00
 -1.51973982E+01  7.59869910E+00  7.59869910E+00 -1.51973982E+01  7.59869910E+00
  7.59869910E+00 -1.51973982E+01  7.59869910E+00  7.59869910E+00 -1.51973982E+01
  7.59869910E+00  7.59869910E+00 -1.51973982E+01  7.59869910E+00  7.59869910E+00
 -1.51973982E+01  7.59869910E+00  7.59869910E+00 -1.51973982E+01  7.59869910E+00
  7.59869910E+00 -1.51973982E+01  7.59869910E+00  7.59869910E+00 -1.51973982E+01
  7.59869910E+00  7.59869910E+00 -1.51973982E+01  7.59869910E+00  7.59869910E+00
 -1.51973982E+01  7.59869910E+00  7.59869910E+00 -1.51973982E+01  7.59869910E+00
  7.59869910E+00 -1.51973982E+01  7.59869910E+00  7.59869910E+00 -1.51973982E+01
  7.59869910E+00  7.59869910E+00 -1.51973982E+01  7.59869910E+00  7.59869910E+00
 -1.51973982E+01  7.59869910E+00  7.59869910E+00 -1.51973982E+01  7.59869910E+00
  7.59869910E+00 -1.51973982E+01  7.59869910E+00  7.59869910E+00 -1.51973982E+01
  7.59869910E+00  7.59869910E+00 -1.51973982E+01  7.59869910E+00  7.59869910E+00
 -1.51973982E+01  7.59869910E+00  7.59869910E+00 -1.51973982E+01  7.59869910E+00
  7.59869910E+00 -1.51973982E+01  7.59869910E+00  7.59869910E+00 -1.51973982E+01
  7.59869910E+00  7.59869910E+00 -1.51973982E+01  7.59869910E+00  7.59869910E+00
 -1.51973982E+01  7.59869910E+00  7.59869910E+00 -1.51973982E+01  7.59869910E+00
  7.59869910E+00 -1.51973982E+01  7.59869910E+00  7.59869910E+00 -1.51973982E+01
  7.59869910E+00  7.59869910E+00 -1.51973982E+01  7.59869910E+00  7.59869910E+00
 -1.51973982E+01  7.59869910E+00  7.59869910E+00 -1.51973982E+01  7.59869910E+00
  7.59869910E+00 -1.51973982E+01  7.59869910E+00  7.59869910E+00 -1.51973982E+01
  7.59869910E+00  7.59869910E+00 -1.51973982E+01  7.59869910E+00  7.59869910E+00
 -1.51973982E+01  7.59869910E+00  7.59869910E+00 -1.51973982E+01  7.59869910E+00
  7.59869910E+00 -1.51973982E+01  7.59869910E+00  7.59869910E+00 -1.51973982E+01
  7.59869910E+00  7.59869910E+00 -1.51973982E+01  7.59869910E+00  7.59869910E+00
 -1.51973982E+01  7.59869910E+00  7.59869910E+00 -1.51973982E+01  7.59869910E+00
  7.59869910E+00 -1.51973982E+01  7.59869910E+00  7.59869910E+00 -1.51973982E+01
  7.59869910E+00  7.59869910E+00 -1.51973982E+01  7.59869910E+00  7.59869910E+00
 -1.51973982E+01  7.59869910E+00  7.59869910E+00 -1.51973982E+01  7.59869910E+00
  7.59869910E+00 -1.51973982E+01  7.59869910E+00  7.59869910E+00 -1.51973982E+01
  7.59869910E+00  7.59869910E+00 -1.51973982E+01  7.59869910E+00  7.59869910E+00
 -1.51973982E+01  7.59869910E+00  7.59869910E+00 -1.51973982E+01  7.59869910E+00
  7.59869910E+00 -1.51973982E+01  7.59869910E+00  7.59869910E+00 -1.51973982E+01
  7.59869910E+00  7.59869910E+00 -1.51973982E+01  7.59869910E+00  7.59869910E+00
 -1.51973982E+01  7.59869910E+00  7.59869910E+00 -1.51973982E+01  7.59869910E+00
  7.59869910E+00 -1.51973982E+01  7.59869910E+00  7.59869910E+00 -1.51973982E+01
  7.59869910E+00  7.59869910E+00 -1.51973982E+01  7.59869910E+00  7.59869910E+00
 -1.51973982E+01  7.59869910E+00  7.59869910E+00 -1.51973982E+01  7.59869910E+00
  7.59869910E+00 -1.51973982E+01  7.59869910E+00  7.59869910E+00 -1.51973982E+01
  7.59869910E+00  7.59869910E+00 -1.51973982E+01  7.59869910E+00  7.59869910E+00
 -1.51973982E+01  7.59869910E+00  7.59869910E+00 -1.51973982E+01  7.59869910E+00
  7.59869910E+00 -1.51973982E+01  7.59869910E+00  7.59869910E+00 -1.51973982E+01
  7.59869910E+00  7.59869910E+00 -1.51973982E+01  7.59869910E+00  7.59869910E+00
 -1.51973982E+01  7.59869910E+00  7.59869910E+00 -1.51973982E+01  7.59869910E+00
  7.59869910E+00 -1.51973982E+01  7.59869910E+00  7.59869910E+00 -1.51973982E+01
  7.59869910E+00  7.59869910E+00 -1.51973982E+01  7.59869910E+00  7.59869910E+00
 -1.51973982E+01  7.59869910E+00  7.59869910E+00 -1.51973982E+01  7.59869910E+00
  7.59869910E+00 -1.51973982E+01  7.59869910E+00  7.59869910E+00 -1.51973982E+01
  7.59869910E+00  7.59869910E+00 -1.51973982E+01  7.59869910E+00  7.59869910E+00
 -1.51973982E+01  7.59869910E+00  7.59869910E+00 -1.51973982E+01  7.59869910E+00
  7.59869910E+00 -1.51973982E+01  7.59869910E+00  7.59869910E+00 -1.51973982E+01
  7.59869910E+00  7.59869910E+00 -1.51973982E+01  7.59869910E+00  7.59869910E+00
 -1.51973982E+01  7.59869910E+00  7.59869910E+00 -1.51973982E+01  7.59869910E+00
  7.59869910E+00 -1.51973982E+01  7.59869910E+00  7.59869910E+00 -1.51973982E+01
  7.59869910E+00  7.59869910E+00 -1.51973982E+01  7.59869910E+00  7.59869910E+00
 -1.51973982E+01  7.59869910E+00  7.59869910E+00 -1.51973982E+01  7.59869910E+00
  7.59869910E+00 -1.51973982E+01  7.59869910E+00  7.59869910E+00 -1.51973982E+01
  7.59869910E+00  7.59869910E+00 -1.51973982E+01  7.59869910E+00  7.59869910E+00
 -1.51973982E+01  7.59869910E+00  7.59869910E+00 -1.51973982E+01  7.59869910E+00
  7.59869910E+00 -1.51973982E+01  7.59869910E+00  7.59869910E+00 -1.51973982E+01
  7.59869910E+00  7.59869910E+00 -1.51973982E+01  7.59869910E+00  7.59869910E+00
 -1.51973982E+01  7.59869910E+00  7.59869910E+00 -1.51973982E+01  7.59869910E+00
  7.59869910E+00 -1.51973982E+01  7.59869910E+00  7.59869910E+00 -1.51973982E+01
  7.59869910E+00  7.59869910E+00 -1.51973982E+01  7.59869910E+00  7.59869910E+00
 -1.51973982E+01  7.59869910E+00  7.59869910E+00 -1.51973982E+01  7.59869910E+00
  7.59869910E+00 -1.51973982E+01  7.59869910E+00  7.59869910E+00 -1.51973982E+01
  7.59869910E+00  7.59869910E+00 -1.51973982E+01  7.59869910E+00  7.59869910E+00
 -1.51973982E+01  7.59869910E+00  7.59869910E+00 -1.51973982E+01  7.59869910E+00
  7.59869910E+00 -1.51973982E+01  7.59869910E+00  7.59869910E+00 -1.51973982E+01
  7.59869910E+00  7.59869910E+00 -1.51973982E+01  7.59869910E+00  7.59869910E+00
 -1.51973982E+01  7.59869910E+00  7.59869910E+00 -1.51973982E+01  7.59869910E+00
  7.59869910E+00 -1.51973982E+01  7.59869910E+00  7.59869910E+00 -1.51973982E+01
  7.59869910E+00  7.59869910E+00 -1.51973982E+01  7.59869910E+00  7.59869910E+00
 -1.51973982E+01  7.59869910E+00  7.59869910E+00 -1.51973982E+01  7.59869910E+00
  7.59869910E+00 -1.51973982E+01  7.59869910E+00  7.59869910E+00 -1.51973982E+01
  7.59869910E+00  7.59869910E+00 -1.51973982E+01  7.59869910E+00  7.59869910E+00
 -1.51973982E+01  7.59869910E+00  7.59869910E+00 -1.51973982E+01  7.59869910E+00
  7.59869910E+00 -1.51973982E+01  7.59869910E+00  7.59869910E+00 -1.51973982E+01
  7.59869910E+00  7.59869910E+00 -1.51973982E+01  7.59869910E+00  7.59869910E+00
 -1.51973982E+01  7.59869910E+00  7.59869910E+00 -1.51973982E+01  7.59869910E+00
  7.59869910E+00 -1.51973982E+01  7.59869910E+00  7.59869910E+00 -1.51973982E+01
  7.59869910E+00  7.59869910E+00 -1.51973982E+01  7.59869910E+00  7.59869910E+00
 -1.51973982E+01  7.59869910E+00  7.59869910E+00 -1.51973982E+01  7.59869910E+00
  7.59869910E+00 -1.51973982E+01  7.59869910E+00  7.59869910E+00 -1.51973982E+01
  7.59869910E+00  7.59869910E+00 -1.51973982E+01  7.59869910E+00  7.59869910E+00
 -1.51973982E+01  7.59869910E+00  7.59869910E+00 -1.51973982E+01  7.59869910E+00
  7.59869910E+00 -1.51973982E+01  7.59869910E+00  7.59869910E+00 -1.51973982E+01
  7.59869910E+00  7.59869910E+00 -1.51973982E+01  7.59869910E+00  7.59869910E+00
 -1.51973982E+01  7.59869910E+00  7.59869910E+00 -1.51973982E+01  7.59869910E+00
  7.59869910E+00 -1.51973982E+01  7.59869910E+00  7.59869910E+00 -1.51973982E+01
  7.59869910E+00  7.59869910E+00 -1.51973982E+01  7.59869910E+00  7.59869910E+00
 -1.51973982E+01  7.59869910E+00  7.59869910E+00 -1.51973982E+01  7.59869910E+00
  7.59869910E+00 -1.51973982E+01  7.59869910E+00  7.59869910E+00 -1.51973982E+01
  7.59869910E+00  7.59869910E+00 -1.51973982E+01  7.59869910E+00  7.59869910E+00
 -1.51973982E+01  7.59869910E+00  7.59869910E+00 -1.51973982E+01  7.59869910E+00
  7.59869910E+00 -1.51973982E+01  7.59869910E+00  7.59869910E+00 -1.51973982E+01
  7.59869910E+00  7.59869910E+00 -1.51973982E+01  7.59869910E+00  7.59869910E+00
 -1.51973982E+01  7.59869910E+00  7.59869910E+00 -1.51973982E+01  7.59869910E+00
  7.59869910E+00 -1.51973982E+01  7.59869910E+00  7.59869910E+00 -1.51973982E+01
  7.59869910E+00  7.59869910E+00 -1.51973982E+01  7.59869910E+00  7.59869910E+00
 -1.51973982E+01  7.59869910E+00  7.59869910E+00 -1.51973982E+01  7.59869910E+00
  7.59869910E+00 -1.51973982E+01  7.59869910E+00  7.59869910E+00 -1.51973982E+01
  7.59869910E+00  7.59869910E+00 -1.51973982E+01  7.59869910E+00  7.59869910E+00
 -1.51973982E+01  7.59869910E+00  7.59869910E+00 -1.51973982E+01  7.59869910E+00
  7.59869910E+00 -1.51973982E+01  7.59869910E+00  7.59869910E+00 -1.51973982E+01
  7.59869910E+00  7.59869910E+00 -1.51973982E+01  7.59869910E+00  7.59869910E+00
 -1.51973982E+01  7.59869910E+00  7.59869910E+00 -1.51973982E+01  7.59869910E+00
  7.59869910E+00 -1.51973982E+01  7.59869910E+00  7.59869910E+00 -1.51973982E+01
  7.59869910E+00  7.59869910E+00 -1.51973982E+01  7.59869910E+00  7.59869910E+00
 -1.51973982E+01  7.59869910E+00  7.59869910E+00 -1.51973982E+01  7.59869910E+00
  7.59869910E+00 -1.51973982E+01  7.59869910E+00  7.59869910E+00 -1.51973982E+01
  7.59869910E+00  7.59869910E+00 -1.51973982E+01  7.59869910E+00  7.59869910E+00
 -1.51973982E+01  7.59869910E+00  7.59869910E+00 -1.51973982E+01  7.59869910E+00
  7.59869910E+00 -1.51973982E+01  7.59869910E+00  7.59869910E+00 -1.51973982E+01
  7.59869910E+00  7.59869910E+00 -1.51973982E+01  7.59869910E+00  7.59869910E+00
 -1.51973982E+01  7.59869910E+00  7.59869910E+00 -1.51973982E+01  7.59869910E+00
  7.59869910E+00 -1.51973982E+01  7.59869910E+00  7.59869910E+00 -1.51973982E+01
  7.59869910E+00  7.59869910E+00 -1.51973982E+01  7.59869910E+00  7.59869910E+00
 -1.51973982E+01  7.59869910E+00  7.59869910E+00 -1.51973982E+01  7.59869910E+00
  7.59869910E+00 -1.51973982E+01  7.59869910E+00  7.59869910E+00 -1.51973982E+01
  7.59869910E+00  7.59869910E+00 -1.51973982E+01  7.59869910E+00  7.59869910E+00
 -1.51973982E+01  7.59869910E+00  7.59869910E+00 -1.51973982E+01  7.59869910E+00
  7.59869910E+00 -1.51973982E+01  7.59869910E+00  7.59869910E+00 -1.51973982E+01
  7.59869910E+00  7.59869910E+00 -1.51973982E+01  7.59869910E+00  7.59869910E+00
 -1.51973982E+01  7.59869910E+00  7.59869910E+00 -1.51973982E+01  7.59869910E+00
  7.59869910E+00 -1.51973982E+01  7.59869910E+00  7.59869910E+00 -1.51973982E+01
  7.59869910E+00  7.59869910E+00 -1.51973982E+01  7.59869910E+00  7.59869910E+00
 -1.51973982E+01  7.59869910E+00  7.59869910E+00 -1.51973982E+01  7.59869910E+00
  7.59869910E+00 -1.51973982E+01  7.59869910E+00  7.59869910E+00 -1.51973982E+01
  7.59869910E+00  7.59869910E+00 -1.51973982E+01  7.59869910E+00  7.59869910E+00
 -1.51973982E+01  7.59869910E+00  7.59869910E+00 -1.51973982E+01  7.59869910E+00
  7.59869910E+00 -1.51973982E+01  7.59869910E+00  7.59869910E+00 -1.51973982E+01
  7.59869910E+00  7.59869910E+00 -1.51973982E+01  7.59869910E+00  7.59869910E+00
 -1.51973982E+01  7.59869910E+00  7.59869910E+00 -1.51973982E+01  7.59869910E+00
  7.59869910E+00 -1.51973982E+01  7.59869910E+00  7.59869910E+00 -1.51973982E+01
  7.59869910E+00  7.59869910E+00 -1.51973982E+01  7.59869910E+00  7.59869910E+00
 -1.51973982E+01  7.59869910E+00  7.59869910E+00 -1.51973982E+01  7.59869910E+00
  7.59869910E+00 -1.51973982E+01  7.59869910E+00  7.59869910E+00 -1.51973982E+01
  7.59869910E+00  7.59869910E+00 -1.51973982E+01  7.59869910E+00  7.59869910E+00
 -1.51973982E+01  7.59869910E+00  7.59869910E+00 -1.51973982E+01  7.59869910E+00
  7.59869910E+00 -1.51973982E+01  7.59869910E+00  7.59869910E+00 -1.51973982E+01
  7.59869910E+00  7.59869910E+00 -1.51973982E+01  7.59869910E+00  7.59869910E+00
 -1.51973982E+01  7.59869910E+00  7.59869910E+00 -1.51973982E+01  7.59869910E+00
  7.59869910E+00 -1.51973982E+01  7.59869910E+00  7.59869910E+00 -1.51973982E+01
  7.59869910E+00  7.59869910E+00 -1.51973982E+01  7.59869910E+00  7.59869910E+00
 -1.51973982E+01  7.59869910E+00  7.59869910E+00 -1.51973982E+01  7.59869910E+00
  7.59869910E+00 -1.51973982E+01  7.59869910E+00  7.59869910E+00 -1.51973982E+01
  7.59869910E+00  7.59869910E+00 -1.51973982E+01  7.59869910E+00  7.59869910E+00
 -1.51973982E+01  7.59869910E+00  7.59869910E+00 -1.51973982E+01  7.59869910E+00
  7.59869910E+00 -1.51973982E+01  7.59869910E+00  7.59869910E+00 -1.51973982E+01
  7.59869910E+00  7.59869910E+00 -1.51973982E+01  7.59869910E+00  7.59869910E+00
 -1.51973982E+01  7.59869910E+00  7.59869910E+00 -1.51973982E+01  7.59869910E+00
  7.59869910E+00 -1.51973982E+01  7.59869910E+00  7.59869910E+00 -1.51973982E+01
  7.59869910E+00  7.59869910E+00 -1.51973982E+01  7.59869910E+00  7.59869910E+00
 -1.51973982E+01  7.59869910E+00  7.59869910E+00 -1.51973982E+01  7.59869910E+00
  7.59869910E+00 -1.51973982E+01  7.59869910E+00  7.59869910E+00 -1.51973982E+01
  7.59869910E+00  7.59869910E+00 -1.51973982E+01  7.59869910E+00  7.59869910E+00
 -1.51973982E+01  7.59869910E+00  7.59869910E+00 -1.51973982E+01  7.59869910E+00
  7.59869910E+00 -1.51973982E+01  7.59869910E+00  7.59869910E+00 -1.51973982E+01
  7.59869910E+00  7.59869910E+00 -1.51973982E+01  7.59869910E+00  7.59869910E+00
 -1.51973982E+01  7.59869910E+00  7.59869910E+00 -1.51973982E+01  7.59869910E+00
  7.59869910E+00 -1.51973982E+01  7.59869910E+00  7.59869910E+00 -1.51973982E+01
  7.59869910E+00  7.59869910E+00 -1.51973982E+01  7.59869910E+00  7.59869910E+00
 -1.51973982E+01  7.59869910E+00  7.59869910E+00 -1.51973982E+01  7.59869910E+00
  7.59869910E+00 -1.51973982E+01  7.59869910E+00  7.59869910E+00 -1.51973982E+01
  7.59869910E+00  7.59869910E+00 -1.51973982E+01  7.59869910E+00  7.59869910E+00
 -1.51973982E+01  7.59869910E+00  7.59869910E+00 -1.51973982E+01  7.59869910E+00
  7.59869910E+00 -1.51973982E+01  7.59869910E+00  7.59869910E+00 -1.51973982E+01
  7.59869910E+00  7.59869910E+00 -1.51973982E+01  7.59869910E+00  7.59869910E+00
 -1.51973982E+01  7.59869910E+00  7.59869910E+00 -1.51973982E+01  7.59869910E+00
  7.59869910E+00 -1.51973982E+01  7.59869910E+00  7.59869910E+00 -1.51973982E+01
  7.59869910E+00  7.59869910E+00 -1.51973982E+01  7.59869910E+00  7.59869910E+00
 -1.51973982E+01  7.59869910E+00  7.59869910E+00 -1.51973982E+01  7.59869910E+00
  7.59869910E+00 -1.51973982E+01  7.59869910E+00  7.59869910E+00 -1.51973982E+01
  7.59869910E+00  7.59869910E+00 -1.51973982E+01  7.59869910E+00  7.59869910E+00
 -1.51973982E+01  7.59869910E+00  7.59869910E+00 -1.51973982E+01  7.59869910E+00
  7.59869910E+00 -1.51973982E+01  7.59869910E+00  7.59869910E+00 -1.51973982E+01
  7.59869910E+00  7.59869910E+00 -1.51973982E+01  7.59869910E+00  7.59869910E+00
 -1.51973982E+01  7.59869910E+00  7.59869910E+00 -1.51973982E+01  7.59869910E+00
  7.59869910E+00 -1.51973982E+01  7.59869910E+00  7.59869910E+00 -1.51973982E+01
  7.59869910E+00  7.59869910E+00 -1.51973982E+01  7.59869910E+00  7.59869910E+00
 -1.51973982E+01  7.59869910E+00  7.59869910E+00 -1.51973982E+01  7.59869910E+00
  7.59869910E+00 -1.51973982E+01  7.59869910E+00  7.59869910E+00 -1.51973982E+01
  7.59869910E+00  7.59869910E+00 -1.51973982E+01  7.59869910E+00  7.59869910E+00
 -1.51973982E+01  7.59869910E+00  7.59869910E+00 -1.51973982E+01  7.59869910E+00
  7.59869910E+00 -1.51973982E+01  7.59869910E+00  7.59869910E+00 -1.51973982E+01
  7.59869910E+00  7.59869910E+00 -1.51973982E+01  7.59869910E+00  7.59869910E+00
 -1.51973982E+01  7.59869910E+00  7.59869910E+00 -1.51973982E+01  7.59869910E+00
  7.59869910E+00 -1.51973982E+01  7.59869910E+00  7.59869910E+00 -1.51973982E+01
  7.59869910E+00  7.59869910E+00 -1.51973982E+01  7.59869910E+00  7.59869910E+00
 -1.51973982E+01  7.59869910E+00  7.59869910E+00 -1.51973982E+01  7.59869910E+00
  7.59869910E+00 -1.51973982E+01  7.59869910E+00  7.59869910E+00 -1.51973982E+01
  7.59869910E+00  7.59869910E+00 -1.51973982E+01  7.59869910E+00  7.59869910E+00
 -1.51973982E+01  7.59869910E+00  7.59869910E+00 -1.51973982E+01  7.59869910E+00
  7.59869910E+00 -1.51973982E+01  7.59869910E+00  7.59869910E+00 -1.51973982E+01
  7.59869910E+00  7.59869910E+00 -1.51973982E+01  7.59869910E+00  7.59869910E+00
 -1.51973982E+01  7.59869910E+00  7.59869910E+00 -1.51973982E+01  7.59869910E+00
  7.59869910E+00 -1.51973982E+01  7.59869910E+00  7.59869910E+00 -1.51973982E+01
  7.59869910E+00  7.59869910E+00 -1.51973982E+01  7.59869910E+00  7.59869910E+00
 -1.51973982E+01  7.59869910E+00  7.59869910E+00 -1.51973982E+01  7.59869910E+00
  7.59869910E+00 -1.51973982E+01  7.59869910E+00  7.59869910E+00 -1.51973982E+01
  7.59869910E+00  7.59869910E+00 -1.51973982E+01  7.59869910E+00  7.59869910E+00
 -1.51973982E+01  7.59869910E+00  7.59869910E+00 -1.51973982E+01  7.59869910E+00
  7.59869910E+00 -1.51973982E+01  7.59869910E+00  7.59869910E+00 -1.51973982E+01
  7.59869910E+00  7.59869910E+00 -1.51973982E+01  7.59869910E+00  7.59869910E+00
 -1.51973982E+01  7.59869910E+00  7.59869910E+00 -1.51973982E+01  7.59869910E+00
  7.59869910E+00 -1.51973982E+01  7.59869910E+00  7.59869910E+00 -1.51973982E+01
  7.59869910E+00  7.59869910E+00 -1.51973982E+01  7.59869910E+00  7.59869910E+00
 -1.51973982E+01  7.59869910E+00  7.59869910E+00 -1.51973982E+01  7.59869910E+00
  7.59869910E+00 -1.51973982E+01  7.59869910E+00  7.59869910E+00 -1.51973982E+01
  7.59869910E+00  7.59869910E+00 -1.51973982E+01  7.59869910E+00  7.59869910E+00
 -1.51973982E+01  7.59869910E+00  7.59869910E+00 -1.51973982E+01  7.59869910E+00
  7.59869910E+00 -1.51973982E+01  7.59869910E+00  7.59869910E+00 -1.51973982E+01
  7.59869910E+00  7.59869910E+00 -1.51973982E+01  7.59869910E+00  7.59869910E+00
 -1.51973982E+01  7.59869910E+00  7.59869910E+00 -1.51973982E+01  7.59869910E+00
  7.59869910E+00 -1.51973982E+01  7.59869910E+00  7.59869910E+00 -1.51973982E+01
  7.59869910E+00  7.59869910E+00 -1.51973982E+01  7.59869910E+00  7.59869910E+00
 -1.51973982E+01  7.59869910E+00  7.59869910E+00 -1.51973982E+01  7.59869910E+00
  7.59869910E+00 -1.51973982E+01  7.59869910E+00  7.59869910E+00 -1.51973982E+01
  7.59869910E+00  7.59869910E+00 -1.51973982E+01  7.59869910E+00  7.59869910E+00
 -1.51973982E+01  7.59869910E+00  7.59869910E+00 -1.51973982E+01  7.59869910E+00
  7.59869910E+00 -1.51973982E+01  7.59869910E+00  7.59869910E+00 -1.51973982E+01
  7.59869910E+00  7.59869910E+00 -1.51973982E+01  7.59869910E+00  7.59869910E+00
 -1.51973982E+01  7.59869910E+00  7.59869910E+00 -1.51973982E+01  7.59869910E+00
  7.59869910E+00 -1.51973982E+01  7.59869910E+00  7.59869910E+00 -1.51973982E+01
  7.59869910E+00  7.59869910E+00 -1.51973982E+01  7.59869910E+00  7.59869910E+00
 -1.51973982E+01  7.59869910E+00  7.59869910E+00 -1.51973982E+01  7.59869910E+00
  7.59869910E+00 -1.51973982E+01  7.59869910E+00  7.59869910E+00 -1.51973982E+01
  7.59869910E+00  7.59869910E+00 -1.51973982E+01  7.59869910E+00  7.59869910E+00
 -1.51973982E+01  7.59869910E+00  7.59869910E+00 -1.51973982E+01  7.59869910E+00
  7.59869910E+00 -1.51973982E+01  7.59869910E+00  7.59869910E+00 -1.51973982E+01
  7.59869910E+00  7.59869910E+00 -1.51973982E+01  7.59869910E+00  7.59869910E+00
 -1.51973982E+01  7.59869910E+00  7.59869910E+00 -1.51973982E+01  7.59869910E+00
  7.59869910E+00 -1.51973982E+01  7.59869910E+00  7.59869910E+00 -1.51973982E+01
  7.59869910E+00  7.59869910E+00 -1.51973982E+01  7.59869910E+00  7.59869910E+00
 -1.51973982E+01  7.59869910E+00  7.59869910E+00 -1.51973982E+01  7.59869910E+00
  7.59869910E+00 -1.51973982E+01  7.59869910E+00  7.59869910E+00 -1.51973982E+01
  7.59869910E+00  7.59869910E+00 -1.51973982E+01  7.59869910E+00  7.59869910E+00
 -1.51973982E+01  7.59869910E+00  7.59869910E+00 -1.51973982E+01  7.59869910E+00
  7.59869910E+00 -1.51973982E+01  7.59869910E+00  7.59869910E+00 -1.51973982E+01
  7.59869910E+00  7.59869910E+00 -1.51973982E+01  7.59869910E+00  7.59869910E+00
 -1.51973982E+01  7.59869910E+00  7.59869910E+00 -1.51973982E+01  7.59869910E+00
  7.59869910E+00 -1.51973982E+01  7.59869910E+00  7.59869910E+00 -1.51973982E+01
  7.59869910E+00  7.59869910E+00 -1.51973982E+01  7.59869910E+00  7.59869910E+00
 -1.51973982E+01  7.59869910E+00  7.59869910E+00 -1.51973982E+01  7.59869910E+00
  7.59869910E+00 -1.51973982E+01  7.59869910E+00  7.59869910E+00 -1.51973982E+01
  7.59869910E+00  7.59869910E+00 -1.51973982E+01  7.59869910E+00  7.59869910E+00
 -1.51973982E+01  7.59869910E+00  7.59869910E+00 -1.51973982E+01  7.59869910E+00
  7.59869910E+00 -1.51973982E+01  7.59869910E+00  7.59869910E+00 -1.51973982E+01
  7.59869910E+00  7.59869910E+00 -1.51973982E+01  7.59869910E+00  7.59869910E+00
 -1.51973982E+01  7.59869910E+00  7.59869910E+00 -1.51973982E+01  7.59869910E+00
  7.59869910E+00 -1.51973982E+01  7.59869910E+00  7.59869910E+00 -1.51973982E+01
  7.59869910E+00  7.59869910E+00 -1.51973982E+01  7.59869910E+00  7.59869910E+00
 -1.51973982E+01  7.59869910E+00  7.59869910E+00 -1.51973982E+01  7.59869910E+00
  7.59869910E+00 -1.51973982E+01  7.59869910E+00  7.59869910E+00 -1.51973982E+01
  7.59869910E+00  7.59869910E+00 -1.51973982E+01  7.59869910E+00  7.59869910E+00
 -1.51973982E+01  7.59869910E+00  7.59869910E+00 -1.51973982E+01  7.59869910E+00
  7.59869910E+00 -1.51973982E+01  7.59869910E+00  7.59869910E+00 -1.51973982E+01
  7.59869910E+00  7.59869910E+00 -1.51973982E+01  7.59869910E+00  7.59869910E+00
 -1.51973982E+01  7.59869910E+00  7.59869910E+00 -1.51973982E+01  7.59869910E+00
  7.59869910E+00 -1.51973982E+01  7.59869910E+00  7.59869910E+00 -1.51973982E+01
  7.59869910E+00  7.59869910E+00 -1.51973982E+01  7.59869910E+00  7.59869910E+00
 -1.51973982E+01  7.59869910E+00  7.59869910E+00 -1.51973982E+01  7.59869910E+00
  7.59869910E+00 -1.51973982E+01  7.59869910E+00  7.59869910E+00 -1.51973982E+01
  7.59869910E+00  7.59869910E+00 -1.51973982E+01  7.59869910E+00  7.59869910E+00
 -1.51973982E+01  7.59869910E+00  7.59869910E+00 -1.51973982E+01  7.59869910E+00
  7.59869910E+00 -1.51973982E+01  7.59869910E+00  7.59869910E+00 -1.51973982E+01
  7.59869910E+00  7.59869910E+00 -1.51973982E+01  7.59869910E+00  7.59869910E+00
 -1.51973982E+01  7.59869910E+00  7.59869910E+00 -1.51973982E+01  7.59869910E+00
  7.59869910E+00 -1.51973982E+01  7.59869910E+00  7.59869910E+00 -1.51973982E+01
  7.59869910E+00  7.59869910E+00 -1.51973982E+01  7.59869910E+00  7.59869910E+00
 -1.51973982E+01  7.59869910E+00  7.59869910E+00 -1.51973982E+01  7.59869910E+00
  7.59869910E+00 -1.51973982E+01  7.59869910E+00  7.59869910E+00 -1.51973982E+01
  7.59869910E+00  7.59869910E+00 -1.51973982E+01  7.59869910E+00  7.59869910E+00
 -1.51973982E+01  7.59869910E+00  7.59869910E+00 -1.51973982E+01  7.59869910E+00
  7.59869910E+00 -1.51973982E+01  7.59869910E+00  7.59869910E+00 -1.51973982E+01
  7.59869910E+00  7.59869910E+00 -1.51973982E+01  7.59869910E+00  7.59869910E+00
 -1.51973982E+01  7.59869910E+00  7.59869910E+00 -1.51973982E+01  7.59869910E+00
  7.59869910E+00 -1.51973982E+01  7.59869910E+00  7.59869910E+00 -1.51973982E+01
  7.59869910E+00  7.59869910E+00 -1.51973982E+01  7.59869910E+00  7.59869910E+00
 -1.51973982E+01  7.59869910E+00  7.59869910E+00 -1.51973982E+01  7.59869910E+00
  7.59869910E+00 -1.51973982E+01  7.59869910E+00  7.59869910E+00 -1.51973982E+01
  7.59869910E+00  7.59869910E+00 -1.51973982E+01  7.59869910E+00  7.59869910E+00
 -1.51973982E+01  7.59869910E+00  7.59869910E+00 -1.51973982E+01  7.59869910E+00
  7.59869910E+00 -1.51973982E+01  7.59869910E+00  7.59869910E+00 -1.51973982E+01
  7.59869910E+00  7.59869910E+00 -1.51973982E+01  7.59869910E+00  7.59869910E+00
 -1.51973982E+01  7.59869910E+00  7.59869910E+00 -1.51973982E+01  7.59869910E+00
  7.59869910E+00 -1.51973982E+01  7.59869910E+00  7.59869910E+00 -1.51973982E+01
  7.59869910E+00  7.59869910E+00 -1.51973982E+01  7.59869910E+00  7.59869910E+00
 -1.51973982E+01  7.59869910E+00  7.59869910E+00 -1.51973982E+01  7.59869910E+00
  7.59869910E+00 -1.51973982E+01  7.59869910E+00  7.59869910E+00 -1.51973982E+01
  7.59869910E+00  7.59869910E+00 -1.51973982E+01  7.59869910E+00  7.59869910E+00
 -1.51973982E+01  7.59869910E+00  7.59869910E+00 -1.51973982E+01  7.59869910E+00
  7.59869910E+00 -1.51973982E+01  7.59869910E+00  7.59869910E+00 -1.51973982E+01
  7.59869910E+00  7.59869910E+00 -1.51973982E+01  7.59869910E+00  7.59869910E+00
 -1.51973982E+01  7.59869910E+00  7.59869910E+00 -1.51973982E+01  7.59869910E+00
  7.59869910E+00 -1.51973982E+01  7.59869910E+00  7.59869910E+00 -1.51973982E+01
  7.59869910E+00  7.59869910E+00 -1.51973982E+01  7.59869910E+00  7.59869910E+00
 -1.51973982E+01  7.59869910E+00  7.59869910E+00 -1.51973982E+01  7.59869910E+00
  7.59869910E+00 -1.51973982E+01  7.59869910E+00  7.59869910E+00 -1.51973982E+01
  7.59869910E+00  7.59869910E+00 -1.51973982E+01  7.59869910E+00  7.59869910E+00
 -1.51973982E+01  7.59869910E+00  7.59869910E+00 -1.51973982E+01  7.59869910E+00
  7.59869910E+00 -1.51973982E+01  7.59869910E+00  7.59869910E+00 -1.51973982E+01
  7.59869910E+00  7.59869910E+00 -1.51973982E+01  7.59869910E+00  7.59869910E+00
 -1.51973982E+01  7.59869910E+00  7.59869910E+00 -1.51973982E+01  7.59869910E+00
  7.59869910E+00 -1.51973982E+01  7.59869910E+00  7.59869910E+00 -1.51973982E+01
  7.59869910E+00  7.59869910E+00 -1.51973982E+01  7.59869910E+00  7.59869910E+00
 -1.51973982E+01  7.59869910E+00  7.59869910E+00 -1.51973982E+01  7.59869910E+00
  7.59869910E+00 -1.51973982E+01  7.59869910E+00  7.59869910E+00 -1.51973982E+01
  7.59869910E+00  7.59869910E+00 -1.51973982E+01  7.59869910E+00  7.59869910E+00
 -1.51973982E+01  7.59869910E+00  7.59869910E+00 -1.51973982E+01  7.59869910E+00
  7.59869910E+00 -1.51973982E+01  7.59869910E+00  7.59869910E+00 -1.51973982E+01
  7.59869910E+00  7.59869910E+00 -1.51973982E+01  7.59869910E+00  7.59869910E+00
 -1.51973982E+01  7.59869910E+00  7.59869910E+00 -1.51973982E+01  7.59869910E+00
  7.59869910E+00 -1.51973982E+01  7.59869910E+00  7.59869910E+00 -1.51973982E+01
  7.59869910E+00  7.59869910E+00 -1.51973982E+01  7.59869910E+00  7.59869910E+00
 -1.51973982E+01  7.59869910E+00  7.59869910E+00 -1.51973982E+01  7.59869910E+00
  7.59869910E+00 -1.51973982E+01  7.59869910E+00  7.59869910E+00 -1.51973982E+01
  7.59869910E+00  7.59869910E+00 -1.51973982E+01  7.59869910E+00  7.59869910E+00
 -1.51973982E+01  7.59869910E+00  7.59869910E+00 -1.51973982E+01  7.59869910E+00
  7.59869910E+00 -1.51973982E+01  7.59869910E+00  7.59869910E+00 -1.51973982E+01
  7.59869910E+00  7.59869910E+00 -1.51973982E+01  7.59869910E+00  7.59869910E+00
 -1.51973982E+01  7.59869910E+00  7.59869910E+00 -1.51973982E+01  7.59869910E+00
  7.59869910E+00 -1.51973982E+01  7.59869910E+00  7.59869910E+00 -1.51973982E+01
  7.59869910E+00  7.59869910E+00 -1.51973982E+01  7.59869910E+00  7.59869910E+00
 -1.51973982E+01  7.59869910E+00  7.59869910E+00 -1.51973982E+01  7.59869910E+00
  7.59869910E+00 -1.51973982E+01  7.59869910E+00  7.59869910E+00 -1.51973982E+01
  7.59869910E+00  7.59869910E+00 -1.51973982E+01  7.59869910E+00  7.59869910E+00
 -1.51973982E+01  7.59869910E+00  7.59869910E+00 -1.51973982E+01  7.59869910E+00
  7.59869910E+00 -1.51973982E+01  7.59869910E+00  7.59869910E+00 -1.51973982E+01
  7.59869910E+00  7.59869910E+00 -1.51973982E+01  7.59869910E+00  7.59869910E+00
 -1.51973982E+01  7.59869910E+00  7.59869910E+00 -1.51973982E+01  7.59869910E+00
  7.59869910E+00 -1.51973982E+01  7.59869910E+00  7.59869910E+00 -1.51973982E+01
  7.59869910E+00  7.59869910E+00 -1.51973982E+01  7.59869910E+00  7.59869910E+00
 -1.51973982E+01  7.59869910E+00  7.59869910E+00 -1.51973982E+01  7.59869910E+00
  7.59869910E+00 -1.51973982E+01  7.59869910E+00  7.59869910E+00 -1.51973982E+01
  7.59869910E+00  7.59869910E+00 -1.51973982E+01  7.59869910E+00  7.59869910E+00
 -1.51973982E+01  7.59869910E+00  7.59869910E+00 -1.51973982E+01  7.59869910E+00
  7.59869910E+00 -1.51973982E+01  7.59869910E+00  7.59869910E+00 -1.51973982E+01
  7.59869910E+00  7.59869910E+00 -1.51973982E+01  7.59869910E+00  7.59869910E+00
 -1.51973982E+01  7.59869910E+00  7.59869910E+00 -1.51973982E+01  7.59869910E+00
  7.59869910E+00 -1.51973982E+01  7.59869910E+00  7.59869910E+00 -1.51973982E+01
  7.59869910E+00  7.59869910E+00 -1.51973982E+01  7.59869910E+00  7.59869910E+00
 -1.51973982E+01  7.59869910E+00  7.59869910E+00 -1.51973982E+01  7.59869910E+00
  7.59869910E+00 -1.51973982E+01  7.59869910E+00  7.59869910E+00 -1.51973982E+01
  7.59869910E+00  7.59869910E+00 -1.51973982E+01  7.59869910E+00  7.59869910E+00
 -1.51973982E+01  7.59869910E+00  7.59869910E+00 -1.51973982E+01  7.59869910E+00
  7.59869910E+00 -1.51973982E+01  7.59869910E+00  7.59869910E+00 -1.51973982E+01
  7.59869910E+00  7.59869910E+00 -1.51973982E+01  7.59869910E+00  7.59869910E+00
 -1.51973982E+01  7.59869910E+00  7.59869910E+00 -1.51973982E+01  7.59869910E+00
  7.59869910E+00 -1.51973982E+01  7.59869910E+00  7.59869910E+00 -1.51973982E+01
  7.59869910E+00  7.59869910E+00 -1.51973982E+01  7.59869910E+00  7.59869910E+00
 -1.51973982E+01  7.59869910E+00  7.59869910E+00 -1.51973982E+01  7.59869910E+00
  7.59869910E+00 -1.51973982E+01  7.59869910E+00  7.59869910E+00 -1.51973982E+01
  7.59869910E+00  7.59869910E+00 -1.51973982E+01  7.59869910E+00  7.59869910E+00
 -1.51973982E+01  7.59869910E+00  7.59869910E+00 -1.51973982E+01  7.59869910E+00
  7.59869910E+00 -1.51973982E+01  7.59869910E+00  7.59869910E+00 -1.51973982E+01
  7.59869910E+00  7.59869910E+00 -1.51973982E+01  7.59869910E+00  7.59869910E+00
 -1.51973982E+01  7.59869910E+00  7.59869910E+00 -1.51973982E+01  7.59869910E+00
  7.59869910E+00 -1.51973982E+01  7.59869910E+00  7.59869910E+00 -1.51973982E+01
  7.59869910E+00  7.59869910E+00 -1.51973982E+01  7.59869910E+00  7.59869910E+00
 -1.51973982E+01  7.59869910E+00  7.59869910E+00 -1.51973982E+01  7.59869910E+00
  7.59869910E+00 -1.51973982E+01  7.59869910E+00  7.59869910E+00 -1.51973982E+01
  7.59869910E+00  7.59869910E+00 -1.51973982E+01  7.59869910E+00  7.59869910E+00
 -1.51973982E+01  7.59869910E+00  7.59869910E+00 -1.51973982E+01  7.59869910E+00
  7.59869910E+00 -1.51973982E+01  7.59869910E+00  7.59869910E+00 -1.51973982E+01
  7.59869910E+00  7.59869910E+00 -1.51973982E+01  7.59869910E+00  7.59869910E+00
 -1.51973982E+01  7.59869910E+00  7.59869910E+00 -1.51973982E+01  7.59869910E+00
  7.59869910E+00 -1.51973982E+01  7.59869910E+00  7.59869910E+00 -1.51973982E+01
  7.59869910E+00  7.59869910E+00 -1.51973982E+01  7.59869910E+00  7.59869910E+00
 -1.51973982E+01  7.59869910E+00  7.59869910E+00 -1.51973982E+01  7.59869910E+00
  7.59869910E+00 -1.51973982E+01  7.59869910E+00  7.59869910E+00 -1.51973982E+01
  7.59869910E+00  7.59869910E+00 -1.51973982E+01  7.59869910E+00  7.59869910E+00
 -1.51973982E+01  7.59869910E+00  7.59869910E+00 -1.51973982E+01  7.59869910E+00
  7.59869910E+00 -1.51973982E+01  7.59869910E+00  7.59869910E+00 -1.51973982E+01
  7.59869910E+00  7.59869910E+00 -1.51973982E+01  7.59869910E+00  7.59869910E+00
 -1.51973982E+01  7.59869910E+00  7.59869910E+00 -1.51973982E+01  7.59869910E+00
  7.59869910E+00 -1.51973982E+01  7.59869910E+00  7.59869910E+00 -1.51973982E+01
  7.59869910E+00  7.59869910E+00 -1.51973982E+01  7.59869910E+00  7.59869910E+00
 -1.51973982E+01  7.59869910E+00  7.59869910E+00 -1.51973982E+01  7.59869910E+00
  7.59869910E+00 -1.51973982E+01  7.59869910E+00  7.59869910E+00 -1.51973982E+01
  7.59869910E+00  7.59869910E+00 -1.51973982E+01  7.59869910E+00  7.59869910E+00
 -1.51973982E+01  7.59869910E+00  7.59869910E+00 -1.51973982E+01  7.59869910E+00
  7.59869910E+00 -1.51973982E+01  7.59869910E+00  7.59869910E+00 -1.51973982E+01
  7.59869910E+00  7.59869910E+00 -1.51973982E+01  7.59869910E+00  7.59869910E+00
 -1.51973982E+01  7.59869910E+00  7.59869910E+00 -1.51973982E+01  7.59869910E+00
  7.59869910E+00 -1.51973982E+01  7.59869910E+00  7.59869910E+00 -1.51973982E+01
  7.59869910E+00  7.59869910E+00 -1.51973982E+01  7.59869910E+00  7.59869910E+00
 -1.51973982E+01  7.59869910E+00  7.59869910E+00 -1.51973982E+01  7.59869910E+00
  7.59869910E+00 -1.51973982E+01  7.59869910E+00  7.59869910E+00 -1.51973982E+01
  7.59869910E+00  7.59869910E+00 -1.51973982E+01  7.59869910E+00  7.59869910E+00
 -1.51973982E+01  7.59869910E+00  7.59869910E+00 -1.51973982E+01  7.59869910E+00
  7.59869910E+00 -1.51973982E+01  7.59869910E+00  7.59869910E+00 -1.51973982E+01
  7.59869910E+00  7.59869910E+00 -1.51973982E+01  7.59869910E+00  7.59869910E+00
 -1.51973982E+01  7.59869910E+00  7.59869910E+00 -1.51973982E+01  7.59869910E+00
  7.59869910E+00 -1.51973982E+01  7.59869910E+00  7.59869910E+00 -1.51973982E+01
  7.59869910E+00  7.59869910E+00 -1.51973982E+01  7.59869910E+00  7.59869910E+00
 -1.51973982E+01  7.59869910E+00  7.59869910E+00 -1.51973982E+01  7.59869910E+00
  7.59869910E+00 -1.51973982E+01  7.59869910E+00  7.59869910E+00 -1.51973982E+01
  7.59869910E+00  7.59869910E+00 -1.51973982E+01  7.59869910E+00  7.59869910E+00
 -1.51973982E+01  7.59869910E+00  7.59869910E+00 -1.51973982E+01  7.59869910E+00
  7.59869910E+00 -1.51973982E+01  7.59869910E+00  7.59869910E+00 -1.51973982E+01
  7.59869910E+00  7.59869910E+00 -1.51973982E+01  7.59869910E+00  7.59869910E+00
 -1.51973982E+01  7.59869910E+00  7.59869910E+00 -1.51973982E+01  7.59869910E+00
  7.59869910E+00 -1.51973982E+01  7.59869910E+00  7.59869910E+00 -1.51973982E+01
  7.59869910E+00  7.59869910E+00 -1.51973982E+01  7.59869910E+00  7.59869910E+00
 -1.51973982E+01  7.59869910E+00  7.59869910E+00 -1.51973982E+01  7.59869910E+00
  7.59869910E+00 -1.51973982E+01  7.59869910E+00  7.59869910E+00 -1.51973982E+01
  7.59869910E+00  7.59869910E+00 -1.51973982E+01  7.59869910E+00  7.59869910E+00
 -1.51973982E+01  7.59869910E+00  7.59869910E+00 -1.51973982E+01  7.59869910E+00
  7.59869910E+00 -1.51973982E+01  7.59869910E+00  7.59869910E+00 -1.51973982E+01
  7.59869910E+00  7.59869910E+00 -1.51973982E+01  7.59869910E+00  7.59869910E+00
 -1.51973982E+01  7.59869910E+00  7.59869910E+00 -1.51973982E+01  7.59869910E+00
  7.59869910E+00 -1.51973982E+01  7.59869910E+00  7.59869910E+00 -1.51973982E+01
  7.59869910E+00  7.59869910E+00 -1.51973982E+01  7.59869910E+00  7.59869910E+00
 -1.51973982E+01  7.59869910E+00  7.59869910E+00 -1.51973982E+01  7.59869910E+00
  7.59869910E+00 -1.51973982E+01  7.59869910E+00  7.59869910E+00 -1.51973982E+01
  7.59869910E+00  7.59869910E+00 -1.51973982E+01  7.59869910E+00  7.59869910E+00
 -1.51973982E+01  7.59869910E+00  7.59869910E+00 -1.51973982E+01  7.59869910E+00
  7.59869910E+00 -1.51973982E+01  7.59869910E+00  7.59869910E+00 -1.51973982E+01
  7.59869910E+00  7.59869910E+00 -1.51973982E+01  7.59869910E+00  7.59869910E+00
 -1.51973982E+01  7.59869910E+00  7.59869910E+00 -1.51973982E+01  7.59869910E+00
  7.59869910E+00 -1.51973982E+01  7.59869910E+00  7.59869910E+00 -1.51973982E+01
  7.59869910E+00  7.59869910E+00 -1.51973982E+01  7.59869910E+00  7.59869910E+00
 -1.51973982E+01  7.59869910E+00  7.59869910E+00 -1.51973982E+01  7.59869910E+00
  7.59869910E+00 -1.51973982E+01  7.59869910E+00  7.59869910E+00 -1.51973982E+01
  7.59869910E+00  7.59869910E+00 -1.51973982E+01  7.59869910E+00  7.59869910E+00
 -1.51973982E+01  7.59869910E+00  7.59869910E+00 -1.51973982E+01  7.59869910E+00
  7.59869910E+00 -1.51973982E+01  7.59869910E+00  7.59869910E+00 -1.51973982E+01
  7.59869910E+00  7.59869910E+00 -1.51973982E+01  7.59869910E+00  7.59869910E+00
 -1.51973982E+01  7.59869910E+00  7.59869910E+00 -1.51973982E+01  7.59869910E+00
  7.59869910E+00 -1.51973982E+01  7.59869910E+00  7.59869910E+00 -1.51973982E+01
  7.59869910E+00  7.59869910E+00 -1.51973982E+01  7.59869910E+00  7.59869910E+00
 -1.51973982E+01  7.59869910E+00  7.59869910E+00 -1.51973982E+01  7.59869910E+00
  7.59869910E+00 -1.51973982E+01  7.59869910E+00  7.59869910E+00 -1.51973982E+01
  7.59869910E+00  7.59869910E+00 -1.51973982E+01  7.59869910E+00  7.59869910E+00
 -1.51973982E+01  7.59869910E+00  7.59869910E+00 -1.51973982E+01  7.59869910E+00
  7.59869910E+00 -1.51973982E+01  7.59869910E+00  7.59869910E+00 -1.51973982E+01
  7.59869910E+00  7.59869910E+00 -1.51973982E+01  7.59869910E+00  7.59869910E+00
 -1.51973982E+01  7.59869910E+00  7.59869910E+00 -1.51973982E+01  7.59869910E+00
  7.59869910E+00 -1.51973982E+01  7.59869910E+00  7.59869910E+00 -1.51973982E+01
  7.59869910E+00  7.59869910E+00 -1.51973982E+01  7.59869910E+00  7.59869910E+00
 -1.51973982E+01  7.59869910E+00  7.59869910E+00 -1.51973982E+01  7.59869910E+00
  7.59869910E+00 -1.51973982E+01  7.59869910E+00  7.59869910E+00 -1.51973982E+01
  7.59869910E+00  7.59869910E+00 -1.51973982E+01  7.59869910E+00  7.59869910E+00
 -1.51973982E+01  7.59869910E+00  7.59869910E+00 -1.51973982E+01  7.59869910E+00
  7.59869910E+00 -1.51973982E+01  7.59869910E+00  7.59869910E+00 -1.51973982E+01
  7.59869910E+00  7.59869910E+00 -1.51973982E+01  7.59869910E+00  7.59869910E+00
 -1.51973982E+01  7.59869910E+00  7.59869910E+00 -1.51973982E+01  7.59869910E+00
  7.59869910E+00 -1.51973982E+01  7.59869910E+00  7.59869910E+00 -1.51973982E+01
  7.59869910E+00  7.59869910E+00 -1.51973982E+01  7.59869910E+00  7.59869910E+00
 -1.51973982E+01  7.59869910E+00  7.59869910E+00 -1.51973982E+01  7.59869910E+00
  7.59869910E+00 -1.51973982E+01  7.59869910E+00  7.59869910E+00 -1.51973982E+01
  7.59869910E+00  7.59869910E+00 -1.51973982E+01  7.59869910E+00  7.59869910E+00
 -1.51973982E+01  7.59869910E+00  7.59869910E+00 -1.51973982E+01  7.59869910E+00
  7.59869910E+00 -1.51973982E+01  7.59869910E+00  7.59869910E+00 -1.51973982E+01
  7.59869910E+00  7.59869910E+00 -1.51973982E+01  7.59869910E+00  7.59869910E+00
 -1.51973982E+01  7.59869910E+00  7.59869910E+00 -1.51973982E+01  7.59869910E+00
  7.59869910E+00 -1.51973982E+01  7.59869910E+00  7.59869910E+00 -1.51973982E+01
  7.59869910E+00  7.59869910E+00 -1.51973982E+01  7.59869910E+00  7.59869910E+00
 -1.51973982E+01  7.59869910E+00  7.59869910E+00 -1.51973982E+01  7.59869910E+00
  7.59869910E+00 -1.51973982E+01  7.59869910E+00  7.59869910E+00 -1.51973982E+01
  7.59869910E+00  7.59869910E+00 -1.51973982E+01  7.59869910E+00  7.59869910E+00
 -1.51973982E+01  7.59869910E+00  7.59869910E+00 -1.51973982E+01  7.59869910E+00
  7.59869910E+00 -1.51973982E+01  7.59869910E+00  7.59869910E+00 -1.51973982E+01
  7.59869910E+00  7.59869910E+00 -1.51973982E+01  7.59869910E+00  7.59869910E+00
 -1.51973982E+01  7.59869910E+00  7.59869910E+00 -1.51973982E+01  7.59869910E+00
  7.59869910E+00 -1.51973982E+01  7.59869910E+00  7.59869910E+00 -1.51973982E+01
  7.59869910E+00  7.59869910E+00 -1.51973982E+01  7.59869910E+00  7.59869910E+00
 -1.51973982E+01  7.59869910E+00  7.59869910E+00 -1.51973982E+01  7.59869910E+00
  7.59869910E+00 -1.51973982E+01  7.59869910E+00  7.59869910E+00 -1.51973982E+01
  7.59869910E+00  7.59869910E+00 -1.51973982E+01  7.59869910E+00  7.59869910E+00
 -1.51973982E+01  7.59869910E+00  7.59869910E+00 -1.51973982E+01  7.59869910E+00
  7.59869910E+00 -1.51973982E+01  7.59869910E+00  7.59869910E+00 -1.51973982E+01
  7.59869910E+00  7.59869910E+00 -1.51973982E+01  7.59869910E+00  7.59869910E+00
 -1.51973982E+01  7.59869910E+00  7.59869910E+00 -1.51973982E+01  7.59869910E+00
  7.59869910E+00 -1.51973982E+01  7.59869910E+00  7.59869910E+00 -1.51973982E+01
  7.59869910E+00  7.59869910E+00 -1.51973982E+01  7.59869910E+00  7.59869910E+00
 -1.51973982E+01  7.59869910E+00  7.59869910E+00 -1.51973982E+01  7.59869910E+00
  7.59869910E+00 -1.51973982E+01  7.59869910E+00  7.59869910E+00 -1.51973982E+01
  7.59869910E+00  7.59869910E+00 -1.51973982E+01  7.59869910E+00  7.59869910E+00
 -1.51973982E+01  7.59869910E+00  7.59869910E+00 -1.51973982E+01  7.59869910E+00
  7.59869910E+00 -1.51973982E+01  7.59869910E+00  7.59869910E+00 -1.51973982E+01
  7.59869910E+00  7.59869910E+00 -1.51973982E+01  7.59869910E+00  7.59869910E+00
 -1.51973982E+01  7.59869910E+00  7.59869910E+00 -1.51973982E+01  7.59869910E+00
  7.59869910E+00 -1.51973982E+01  7.59869910E+00  7.59869910E+00 -1.51973982E+01
  7.59869910E+00  7.59869910E+00 -1.51973982E+01  7.59869910E+00  7.59869910E+00
 -1.51973982E+01  7.59869910E+00  7.59869910E+00 -1.51973982E+01  7.59869910E+00
  7.59869910E+00 -1.51973982E+01  7.59869910E+00  7.59869910E+00 -1.51973982E+01
  7.59869910E+00  7.59869910E+00 -1.51973982E+01  7.59869910E+00  7.59869910E+00
 -1.51973982E+01  7.59869910E+00  7.59869910E+00 -1.51973982E+01  7.59869910E+00
  7.59869910E+00 -1.51973982E+01  7.59869910E+00  7.59869910E+00 -1.51973982E+01
  7.59869910E+00  7.59869910E+00 -1.51973982E+01  7.59869910E+00  7.59869910E+00
 -1.51973982E+01  7.59869910E+00  7.59869910E+00 -1.51973982E+01  7.59869910E+00
  7.59869910E+00 -1.51973982E+01  7.59869910E+00  7.59869910E+00 -1.51973982E+01
  7.59869910E+00  7.59869910E+00 -1.51973982E+01  7.59869910E+00  7.59869910E+00
 -1.51973982E+01  7.59869910E+00  7.59869910E+00 -1.51973982E+01  7.59869910E+00
  7.59869910E+00 -1.51973982E+01  7.59869910E+00  7.59869910E+00 -1.51973982E+01
  7.59869910E+00  7.59869910E+00 -1.51973982E+01  7.59869910E+00  7.59869910E+00
 -1.51973982E+01  7.59869910E+00  7.59869910E+00 -1.51973982E+01  7.59869910E+00
  7.59869910E+00 -1.51973982E+01  7.59869910E+00  7.59869910E+00 -1.51973982E+01
  7.59869910E+00  7.59869910E+00 -1.51973982E+01  7.59869910E+00  7.59869910E+00
 -1.51973982E+01  7.59869910E+00  7.59869910E+00 -1.51973982E+01  7.59869910E+00
  7.59869910E+00 -1.51973982E+01  7.59869910E+00  7.59869910E+00 -1.51973982E+01
  7.59869910E+00  7.59869910E+00 -1.51973982E+01  7.59869910E+00  7.59869910E+00
 -1.51973982E+01  7.59869910E+00  7.59869910E+00 -1.51973982E+01  7.59869910E+00
  7.59869910E+00 -1.51973982E+01  7.59869910E+00  7.59869910E+00 -1.51973982E+01
  7.59869910E+00  7.59869910E+00 -1.51973982E+01  7.59869910E+00  7.59869910E+00
 -1.51973982E+01  7.59869910E+00  7.59869910E+00 -1.51973982E+01  7.59869910E+00
  7.59869910E+00 -1.51973982E+01  7.59869910E+00  7.59869910E+00 -1.51973982E+01
  7.59869910E+00  7.59869910E+00 -1.51973982E+01  7.59869910E+00  7.59869910E+00
 -1.51973982E+01  7.59869910E+00  7.59869910E+00 -1.51973982E+01  7.59869910E+00
  7.59869910E+00 -1.51973982E+01  7.59869910E+00  7.59869910E+00 -1.51973982E+01
  7.59869910E+00  7.59869910E+00 -1.51973982E+01  7.59869910E+00  7.59869910E+00
 -1.51973982E+01  7.59869910E+00  7.59869910E+00 -1.51973982E+01  7.59869910E+00
  7.59869910E+00 -1.51973982E+01  7.59869910E+00  7.59869910E+00 -1.51973982E+01
  7.59869910E+00  7.59869910E+00 -1.51973982E+01  7.59869910E+00  7.59869910E+00
 -1.51973982E+01  7.59869910E+00  7.59869910E+00 -1.51973982E+01  7.59869910E+00
  7.59869910E+00 -1.51973982E+01  7.59869910E+00  7.59869910E+00 -1.51973982E+01
  7.59869910E+00  7.59869910E+00 -1.51973982E+01  7.59869910E+00  7.59869910E+00
 -1.51973982E+01  7.59869910E+00  7.59869910E+00 -1.51973982E+01  7.59869910E+00
  7.59869910E+00 -1.51973982E+01  7.59869910E+00  7.59869910E+00 -1.51973982E+01
  7.59869910E+00  7.59869910E+00 -1.51973982E+01  7.59869910E+00  7.59869910E+00
 -1.51973982E+01  7.59869910E+00  7.59869910E+00 -1.51973982E+01  7.59869910E+00
  7.59869910E+00 -1.51973982E+01  7.59869910E+00  7.59869910E+00 -1.51973982E+01
  7.59869910E+00  7.59869910E+00 -1.51973982E+01  7.59869910E+00  7.59869910E+00
 -1.51973982E+01  7.59869910E+00  7.59869910E+00 -1.51973982E+01  7.59869910E+00
  7.59869910E+00 -1.51973982E+01  7.59869910E+00  7.59869910E+00 -1.51973982E+01
  7.59869910E+00  7.59869910E+00 -1.51973982E+01  7.59869910E+00  7.59869910E+00
 -1.51973982E+01  7.59869910E+00  7.59869910E+00 -1.51973982E+01  7.59869910E+00
  7.59869910E+00 -1.51973982E+01  7.59869910E+00  7.59869910E+00 -1.51973982E+01
  7.59869910E+00  7.59869910E+00 -1.51973982E+01  7.59869910E+00  7.59869910E+00
 -1.51973982E+01  7.59869910E+00  7.59869910E+00 -1.51973982E+01  7.59869910E+00
  7.59869910E+00 -1.51973982E+01  7.59869910E+00  7.59869910E+00 -1.51973982E+01
  7.59869910E+00  7.59869910E+00 -1.51973982E+01  7.59869910E+00  7.59869910E+00
 -1.51973982E+01  7.59869910E+00  7.59869910E+00 -1.51973982E+01  7.59869910E+00
  7.59869910E+00 -1.51973982E+01  7.59869910E+00  7.59869910E+00 -1.51973982E+01
  7.59869910E+00  7.59869910E+00 -1.51973982E+01  7.59869910E+00  7.59869910E+00
 -1.51973982E+01  7.59869910E+00  7.59869910E+00 -1.51973982E+01  7.59869910E+00
  7.59869910E+00 -1.51973982E+01  7.59869910E+00  7.59869910E+00 -1.51973982E+01
  7.59869910E+00  7.59869910E+00 -1.51973982E+01  7.59869910E+00  7.59869910E+00
 -1.51973982E+01  7.59869910E+00  7.59869910E+00 -1.51973982E+01  7.59869910E+00
  7.59869910E+00 -1.51973982E+01  7.59869910E+00  7.59869910E+00 -1.51973982E+01
  7.59869910E+00  7.59869910E+00 -1.51973982E+01  7.59869910E+00  7.59869910E+00
 -1.51973982E+01  7.59869910E+00  7.59869910E+00 -1.51973982E+01  7.59869910E+00
  7.59869910E+00 -1.51973982E+01  7.59869910E+00  7.59869910E+00 -1.51973982E+01
  7.59869910E+00  7.59869910E+00 -1.51973982E+01  7.59869910E+00  7.59869910E+00
 -1.51973982E+01  7.59869910E+00  7.59869910E+00 -1.51973982E+01  7.59869910E+00
  7.59869910E+00 -1.51973982E+01  7.59869910E+00  7.59869910E+00 -1.51973982E+01
  7.59869910E+00  7.59869910E+00 -1.51973982E+01  7.59869910E+00  7.59869910E+00
 -1.51973982E+01  7.59869910E+00  7.59869910E+00 -1.51973982E+01  7.59869910E+00
  7.59869910E+00 -1.51973982E+01  7.59869910E+00  7.59869910E+00 -1.51973982E+01
  7.59869910E+00  7.59869910E+00 -1.51973982E+01  7.59869910E+00  7.59869910E+00
 -1.51973982E+01  7.59869910E+00  7.59869910E+00 -1.51973982E+01  7.59869910E+00
  7.59869910E+00 -1.51973982E+01  7.59869910E+00  7.59869910E+00 -1.51973982E+01
  7.59869910E+00  7.59869910E+00 -1.51973982E+01  7.59869910E+00  7.59869910E+00
 -1.51973982E+01  7.59869910E+00  7.59869910E+00 -1.51973982E+01  7.59869910E+00
  7.59869910E+00 -1.51973982E+01  7.59869910E+00  7.59869910E+00 -1.51973982E+01
  7.59869910E+00  7.59869910E+00 -1.51973982E+01  7.59869910E+00  7.59869910E+00
 -1.51973982E+01  7.59869910E+00  7.59869910E+00 -1.51973982E+01  7.59869910E+00
  7.59869910E+00 -1.51973982E+01  7.59869910E+00  7.59869910E+00 -1.51973982E+01
  7.59869910E+00  7.59869910E+00 -1.51973982E+01  7.59869910E+00  7.59869910E+00
 -1.51973982E+01  7.59869910E+00  7.59869910E+00 -1.51973982E+01  7.59869910E+00
  7.59869910E+00 -1.51973982E+01  7.59869910E+00  7.59869910E+00 -1.51973982E+01
  7.59869910E+00  7.59869910E+00 -1.51973982E+01  7.59869910E+00  7.59869910E+00
 -1.51973982E+01  7.59869910E+00  7.59869910E+00 -1.51973982E+01  7.59869910E+00
  7.59869910E+00 -1.51973982E+01  7.59869910E+00  7.59869910E+00 -1.51973982E+01
  7.59869910E+00  7.59869910E+00 -1.51973982E+01  7.59869910E+00  7.59869910E+00
 -1.51973982E+01  7.59869910E+00  7.59869910E+00 -1.51973982E+01  7.59869910E+00
  7.59869910E+00 -1.51973982E+01  7.59869910E+00  7.59869910E+00 -1.51973982E+01
  7.59869910E+00  7.59869910E+00 -1.51973982E+01  7.59869910E+00  7.59869910E+00
 -1.51973982E+01  7.59869910E+00  7.59869910E+00 -1.51973982E+01  7.59869910E+00
  7.59869910E+00 -1.51973982E+01  7.59869910E+00  7.59869910E+00 -1.51973982E+01
  7.59869910E+00  7.59869910E+00 -1.51973982E+01  7.59869910E+00  7.59869910E+00
 -1.51973982E+01  7.59869910E+00  7.59869910E+00 -1.51973982E+01  7.59869910E+00
  7.59869910E+00 -1.51973982E+01  7.59869910E+00  7.59869910E+00 -1.51973982E+01
  7.59869910E+00  7.59869910E+00 -1.51973982E+01  7.59869910E+00  7.59869910E+00
 -1.51973982E+01  7.59869910E+00  7.59869910E+00 -1.51973982E+01  7.59869910E+00
  7.59869910E+00 -1.51973982E+01  7.59869910E+00  7.59869910E+00 -1.51973982E+01
  7.59869910E+00  7.59869910E+00 -1.51973982E+01  7.59869910E+00  7.59869910E+00
 -1.51973982E+01  7.59869910E+00  7.59869910E+00 -1.51973982E+01  7.59869910E+00
  7.59869910E+00 -1.51973982E+01  7.59869910E+00  7.59869910E+00 -1.51973982E+01
  7.59869910E+00  7.59869910E+00 -1.51973982E+01  7.59869910E+00  7.59869910E+00
 -1.51973982E+01  7.59869910E+00  7.59869910E+00 -1.51973982E+01  7.59869910E+00
  7.59869910E+00 -1.51973982E+01  7.59869910E+00  7.59869910E+00 -1.51973982E+01
  7.59869910E+00  7.59869910E+00 -1.51973982E+01  7.59869910E+00  7.59869910E+00
 -1.51973982E+01  7.59869910E+00  7.59869910E+00 -1.51973982E+01  7.59869910E+00
  7.59869910E+00 -1.51973982E+01  7.59869910E+00  7.59869910E+00 -1.51973982E+01
  7.59869910E+00  7.59869910E+00 -1.51973982E+01  7.59869910E+00  7.59869910E+00
 -1.51973982E+01  7.59869910E+00  7.59869910E+00 -1.51973982E+01  7.59869910E+00
  7.59869910E+00 -1.51973982E+01  7.59869910E+00  7.59869910E+00 -1.51973982E+01
  7.59869910E+00  7.59869910E+00 -1.51973982E+01  7.59869910E+00  7.59869910E+00
 -1.51973982E+01  7.59869910E+00  7.59869910E+00 -1.51973982E+01  7.59869910E+00
  7.59869910E+00 -1.51973982E+01  7.59869910E+00  7.59869910E+00 -1.51973982E+01
  7.59869910E+00  7.59869910E+00 -1.51973982E+01  7.59869910E+00  7.59869910E+00
 -1.51973982E+01  7.59869910E+00  7.59869910E+00 -1.51973982E+01  7.59869910E+00
  7.59869910E+00 -1.51973982E+01  7.59869910E+00  7.59869910E+00 -1.51973982E+01
  7.59869910E+00  7.59869910E+00 -1.51973982E+01  7.59869910E+00  7.59869910E+00
 -1.51973982E+01  7.59869910E+00  7.59869910E+00 -1.51973982E+01  7.59869910E+00
  7.59869910E+00 -1.51973982E+01  7.59869910E+00  7.59869910E+00 -1.51973982E+01
  7.59869910E+00  7.59869910E+00 -1.51973982E+01  7.59869910E+00  7.59869910E+00
 -1.51973982E+01  7.59869910E+00  7.59869910E+00 -1.51973982E+01  7.59869910E+00
  7.59869910E+00 -1.51973982E+01  7.59869910E+00  7.59869910E+00 -1.51973982E+01
  7.59869910E+00  7.59869910E+00 -1.51973982E+01  7.59869910E+00  7.59869910E+00
 -1.51973982E+01  7.59869910E+00  7.59869910E+00 -1.51973982E+01  7.59869910E+00
  7.59869910E+00 -1.51973982E+01  7.59869910E+00  7.59869910E+00 -1.51973982E+01
  7.59869910E+00  7.59869910E+00 -1.51973982E+01  7.59869910E+00  7.59869910E+00
 -1.51973982E+01  7.59869910E+00  7.59869910E+00 -1.51973982E+01  7.59869910E+00
  7.59869910E+00 -1.51973982E+01  7.59869910E+00  7.59869910E+00 -1.51973982E+01
  7.59869910E+00  7.59869910E+00 -1.51973982E+01  7.59869910E+00  7.59869910E+00
 -1.51973982E+01  7.59869910E+00  7.59869910E+00 -1.51973982E+01  7.59869910E+00
  7.59869910E+00 -1.51973982E+01  7.59869910E+00  7.59869910E+00 -1.51973982E+01
  7.59869910E+00  7.59869910E+00 -1.51973982E+01  7.59869910E+00  7.59869910E+00
 -1.51973982E+01  7.59869910E+00  7.59869910E+00 -1.51973982E+01  7.59869910E+00
  7.59869910E+00 -1.51973982E+01  7.59869910E+00  7.59869910E+00 -1.51973982E+01
  7.59869910E+00  7.59869910E+00 -1.51973982E+01  7.59869910E+00  7.59869910E+00
 -1.51973982E+01  7.59869910E+00  7.59869910E+00 -1.51973982E+01  7.59869910E+00
  7.59869910E+00 -1.51973982E+01  7.59869910E+00  7.59869910E+00 -1.51973982E+01
  7.59869910E+00  7.59869910E+00 -1.51973982E+01  7.59869910E+00  7.59869910E+00
 -1.51973982E+01  7.59869910E+00  7.59869910E+00 -1.51973982E+01  7.59869910E+00
  7.59869910E+00 -1.51973982E+01  7.59869910E+00  7.59869910E+00 -1.51973982E+01
  7.59869910E+00  7.59869910E+00 -1.51973982E+01  7.59869910E+00  7.59869910E+00
 -1.51973982E+01  7.59869910E+00  7.59869910E+00 -1.51973982E+01  7.59869910E+00
  7.59869910E+00 -1.51973982E+01  7.59869910E+00  7.59869910E+00 -1.51973982E+01
  7.59869910E+00  7.59869910E+00 -1.51973982E+01  7.59869910E+00  7.59869910E+00
 -1.51973982E+01  7.59869910E+00  7.59869910E+00 -1.51973982E+01  7.59869910E+00
  7.59869910E+00 -1.51973982E+01  7.59869910E+00  7.59869910E+00 -1.51973982E+01
  7.59869910E+00  7.59869910E+00 -1.51973982E+01  7.59869910E+00  7.59869910E+00
 -1.51973982E+01  7.59869910E+00  7.59869910E+00 -1.51973982E+01  7.59869910E+00
  7.59869910E+00 -1.51973982E+01  7.59869910E+00  7.59869910E+00 -1.51973982E+01
  7.59869910E+00  7.59869910E+00 -1.51973982E+01  7.59869910E+00  7.59869910E+00
 -1.51973982E+01  7.59869910E+00  7.59869910E+00 -1.51973982E+01  7.59869910E+00
  7.59869910E+00 -1.51973982E+01  7.59869910E+00  7.59869910E+00 -1.51973982E+01
  7.59869910E+00  7.59869910E+00 -1.51973982E+01  7.59869910E+00  7.59869910E+00
 -1.51973982E+01  7.59869910E+00  7.59869910E+00 -1.51973982E+01  7.59869910E+00
  7.59869910E+00 -1.51973982E+01  7.59869910E+00  7.59869910E+00 -1.51973982E+01
  7.59869910E+00  7.59869910E+00 -1.51973982E+01  7.59869910E+00  7.59869910E+00
 -1.51973982E+01  7.59869910E+00  7.59869910E+00 -1.51973982E+01  7.59869910E+00
  7.59869910E+00 -1.51973982E+01  7.59869910E+00  7.59869910E+00 -1.51973982E+01
  7.59869910E+00  7.59869910E+00 -1.51973982E+01  7.59869910E+00  7.59869910E+00
 -1.51973982E+01  7.59869910E+00  7.59869910E+00 -1.51973982E+01  7.59869910E+00
  7.59869910E+00 -1.51973982E+01  7.59869910E+00  7.59869910E+00 -1.51973982E+01
  7.59869910E+00  7.59869910E+00 -1.51973982E+01  7.59869910E+00  7.59869910E+00
 -1.51973982E+01  7.59869910E+00  7.59869910E+00 -1.51973982E+01  7.59869910E+00
  7.59869910E+00 -1.51973982E+01  7.59869910E+00  7.59869910E+00 -1.51973982E+01
  7.59869910E+00  7.59869910E+00 -1.51973982E+01  7.59869910E+00  7.59869910E+00
 -1.51973982E+01  7.59869910E+00  7.59869910E+00 -1.51973982E+01  7.59869910E+00
  7.59869910E+00 -1.51973982E+01  7.59869910E+00  7.59869910E+00 -1.51973982E+01
  7.59869910E+00  7.59869910E+00 -1.51973982E+01  7.59869910E+00  7.59869910E+00
 -1.51973982E+01  7.59869910E+00  7.59869910E+00 -1.51973982E+01  7.59869910E+00
  7.59869910E+00 -1.51973982E+01  7.59869910E+00  7.59869910E+00 -1.51973982E+01
  7.59869910E+00  7.59869910E+00 -1.51973982E+01  7.59869910E+00  7.59869910E+00
 -1.51973982E+01  7.59869910E+00  7.59869910E+00 -1.51973982E+01  7.59869910E+00
  7.59869910E+00 -1.51973982E+01  7.59869910E+00  7.59869910E+00 -1.51973982E+01
  7.59869910E+00  7.59869910E+00 -1.51973982E+01  7.59869910E+00  7.59869910E+00
 -1.51973982E+01  7.59869910E+00  7.59869910E+00 -1.51973982E+01  7.59869910E+00
  7.59869910E+00 -1.51973982E+01  7.59869910E+00  7.59869910E+00 -1.51973982E+01
  7.59869910E+00  7.59869910E+00 -1.51973982E+01  7.59869910E+00  7.59869910E+00
 -1.51973982E+01  7.59869910E+00  7.59869910E+00 -1.51973982E+01  7.59869910E+00
  7.59869910E+00 -1.51973982E+01  7.59869910E+00  7.59869910E+00 -1.51973982E+01
  7.59869910E+00  7.59869910E+00 -1.51973982E+01  7.59869910E+00  7.59869910E+00
 -1.51973982E+01  7.59869910E+00  7.59869910E+00 -1.51973982E+01  7.59869910E+00
  7.59869910E+00 -1.51973982E+01  7.59869910E+00  7.59869910E+00 -1.51973982E+01
  7.59869910E+00  7.59869910E+00 -1.51973982E+01  7.59869910E+00  7.59869910E+00
 -1.51973982E+01  7.59869910E+00  7.59869910E+00 -1.51973982E+01  7.59869910E+00
  7.59869910E+00 -1.51973982E+01  7.59869910E+00  7.59869910E+00 -1.51973982E+01
  7.59869910E+00  7.59869910E+00 -1.51973982E+01  7.59869910E+00  7.59869910E+00
 -1.51973982E+01  7.59869910E+00  7.59869910E+00 -1.51973982E+01  7.59869910E+00
  7.59869910E+00 -1.51973982E+01  7.59869910E+00  7.59869910E+00 -1.51973982E+01
  7.59869910E+00  7.59869910E+00 -1.51973982E+01  7.59869910E+00  7.59869910E+00
 -1.51973982E+01  7.59869910E+00  7.59869910E+00 -1.51973982E+01  7.59869910E+00
  7.59869910E+00 -1.51973982E+01  7.59869910E+00  7.59869910E+00 -1.51973982E+01
  7.59869910E+00  7.59869910E+00 -1.51973982E+01  7.59869910E+00  7.59869910E+00
 -1.51973982E+01  7.59869910E+00  7.59869910E+00 -1.51973982E+01  7.59869910E+00
  7.59869910E+00 -1.51973982E+01  7.59869910E+00  7.59869910E+00 -1.51973982E+01
  7.59869910E+00  7.59869910E+00 -1.51973982E+01  7.59869910E+00  7.59869910E+00
 -1.51973982E+01  7.59869910E+00  7.59869910E+00 -1.51973982E+01  7.59869910E+00
  7.59869910E+00 -1.51973982E+01  7.59869910E+00  7.59869910E+00 -1.51973982E+01
  7.59869910E+00  7.59869910E+00 -1.51973982E+01  7.59869910E+00  7.59869910E+00
 -1.51973982E+01  7.59869910E+00  7.59869910E+00 -1.51973982E+01  7.59869910E+00
  7.59869910E+00 -1.51973982E+01  7.59869910E+00  7.59869910E+00 -1.51973982E+01
  7.59869910E+00  7.59869910E+00 -1.51973982E+01  7.59869910E+00  7.59869910E+00
 -1.51973982E+01  7.59869910E+00  7.59869910E+00 -1.51973982E+01  7.59869910E+00
  7.59869910E+00 -1.51973982E+01  7.59869910E+00  7.59869910E+00 -1.51973982E+01
  7.59869910E+00  7.59869910E+00 -1.51973982E+01  7.59869910E+00  7.59869910E+00
 -1.51973982E+01  7.59869910E+00  7.59869910E+00 -1.51973982E+01  7.59869910E+00
  7.59869910E+00 -1.51973982E+01  7.59869910E+00  7.59869910E+00 -1.51973982E+01
  7.59869910E+00  7.59869910E+00 -1.51973982E+01  7.59869910E+00  7.59869910E+00
 -1.51973982E+01  7.59869910E+00  7.59869910E+00 -1.51973982E+01  7.59869910E+00
  7.59869910E+00 -1.51973982E+01  7.59869910E+00  7.59869910E+00 -1.51973982E+01
  7.59869910E+00  7.59869910E+00 -1.51973982E+01  7.59869910E+00  7.59869910E+00
 -1.51973982E+01  7.59869910E+00  7.59869910E+00 -1.51973982E+01  7.59869910E+00
  7.59869910E+00 -1.51973982E+01  7.59869910E+00  7.59869910E+00 -1.51973982E+01
  7.59869910E+00  7.59869910E+00 -1.51973982E+01  7.59869910E+00  7.59869910E+00
 -1.51973982E+01  7.59869910E+00  7.59869910E+00 -1.51973982E+01  7.59869910E+00
  7.59869910E+00 -1.51973982E+01  7.59869910E+00  7.59869910E+00 -1.51973982E+01
  7.59869910E+00  7.59869910E+00 -1.51973982E+01  7.59869910E+00  7.59869910E+00
 -1.51973982E+01  7.59869910E+00  7.59869910E+00 -1.51973982E+01  7.59869910E+00
  7.59869910E+00 -1.51973982E+01  7.59869910E+00  7.59869910E+00 -1.51973982E+01
  7.59869910E+00  7.59869910E+00 -1.51973982E+01  7.59869910E+00  7.59869910E+00
 -1.51973982E+01  7.59869910E+00  7.59869910E+00 -1.51973982E+01  7.59869910E+00
  7.59869910E+00 -1.51973982E+01  7.59869910E+00  7.59869910E+00 -1.51973982E+01
  7.59869910E+00  7.59869910E+00 -1.51973982E+01  7.59869910E+00  7.59869910E+00
 -1.51973982E+01  7.59869910E+00  7.59869910E+00 -1.51973982E+01  7.59869910E+00
  7.59869910E+00 -1.51973982E+01  7.59869910E+00  7.59869910E+00 -1.51973982E+01
  7.59869910E+00  7.59869910E+00 -1.51973982E+01  7.59869910E+00  7.59869910E+00
 -1.51973982E+01  7.59869910E+00  7.59869910E+00 -1.51973982E+01  7.59869910E+00
  7.59869910E+00 -1.51973982E+01  7.59869910E+00  7.59869910E+00 -1.51973982E+01
  7.59869910E+00  7.59869910E+00 -1.51973982E+01  7.59869910E+00  7.59869910E+00
 -1.51973982E+01  7.59869910E+00  7.59869910E+00 -1.51973982E+01  7.59869910E+00
  7.59869910E+00 -1.51973982E+01  7.59869910E+00  7.59869910E+00 -1.51973982E+01
  7.59869910E+00  7.59869910E+00 -1.51973982E+01  7.59869910E+00  7.59869910E+00
 -1.51973982E+01  7.59869910E+00  7.59869910E+00 -1.51973982E+01  7.59869910E+00
  7.59869910E+00 -1.51973982E+01  7.59869910E+00  7.59869910E+00 -1.51973982E+01
  7.59869910E+00  7.59869910E+00 -1.51973982E+01  7.59869910E+00  7.59869910E+00
 -1.51973982E+01  7.59869910E+00  7.59869910E+00 -1.51973982E+01  7.59869910E+00
  7.59869910E+00 -1.51973982E+01  7.59869910E+00  7.59869910E+00 -1.51973982E+01
  7.59869910E+00  7.59869910E+00 -1.51973982E+01  7.59869910E+00  7.59869910E+00
 -1.51973982E+01  7.59869910E+00  7.59869910E+00 -1.51973982E+01  7.59869910E+00
  7.59869910E+00 -1.51973982E+01  7.59869910E+00  7.59869910E+00 -1.51973982E+01
  7.59869910E+00  7.59869910E+00 -1.51973982E+01  7.59869910E+00  7.59869910E+00
 -1.51973982E+01  7.59869910E+00  7.59869910E+00 -1.51973982E+01  7.59869910E+00
  7.59869910E+00 -1.51973982E+01  7.59869910E+00  7.59869910E+00 -1.51973982E+01
  7.59869910E+00  7.59869910E+00 -1.51973982E+01  7.59869910E+00  7.59869910E+00
 -1.51973982E+01  7.59869910E+00  7.59869910E+00 -1.51973982E+01  7.59869910E+00
  7.59869910E+00 -1.51973982E+01  7.59869910E+00  7.59869910E+00 -1.51973982E+01
  7.59869910E+00  7.59869910E+00 -1.51973982E+01  7.59869910E+00  7.59869910E+00
 -1.51973982E+01  7.59869910E+00  7.59869910E+00 -1.51973982E+01  7.59869910E+00
  7.59869910E+00 -1.51973982E+01  7.59869910E+00  7.59869910E+00 -1.51973982E+01
  7.59869910E+00  7.59869910E+00 -1.51973982E+01  7.59869910E+00  7.59869910E+00
 -1.51973982E+01  7.59869910E+00  7.59869910E+00 -1.51973982E+01  7.59869910E+00
  7.59869910E+00 -1.51973982E+01  7.59869910E+00  7.59869910E+00 -1.51973982E+01
  7.59869910E+00  7.59869910E+00 -1.51973982E+01  7.59869910E+00  7.59869910E+00
 -1.51973982E+01  7.59869910E+00  7.59869910E+00 -1.51973982E+01  7.59869910E+00
  7.59869910E+00 -1.51973982E+01  7.59869910E+00  7.59869910E+00 -1.51973982E+01
  7.59869910E+00  7.59869910E+00 -1.51973982E+01  7.59869910E+00  7.59869910E+00
 -1.51973982E+01  7.59869910E+00  7.59869910E+00 -1.51973982E+01  7.59869910E+00
  7.59869910E+00 -1.51973982E+01  7.59869910E+00  7.59869910E+00 -1.51973982E+01
  7.59869910E+00  7.59869910E+00 -1.51973982E+01  7.59869910E+00  7.59869910E+00
 -1.51973982E+01  7.59869910E+00  7.59869910E+00 -1.51973982E+01  7.59869910E+00
  7.59869910E+00 -1.51973982E+01  7.59869910E+00  7.59869910E+00 -1.51973982E+01
  7.59869910E+00  7.59869910E+00 -1.51973982E+01  7.59869910E+00  7.59869910E+00
 -1.51973982E+01  7.59869910E+00  7.59869910E+00 -1.51973982E+01  7.59869910E+00
  7.59869910E+00 -1.51973982E+01  7.59869910E+00  7.59869910E+00 -1.51973982E+01
  7.59869910E+00  7.59869910E+00 -1.51973982E+01  7.59869910E+00  7.59869910E+00
 -1.51973982E+01  7.59869910E+00  7.59869910E+00 -1.51973982E+01  7.59869910E+00
  7.59869910E+00 -1.51973982E+01  7.59869910E+00  7.59869910E+00 -1.51973982E+01
  7.59869910E+00  7.59869910E+00 -1.51973982E+01  7.59869910E+00  7.59869910E+00
 -1.51973982E+01  7.59869910E+00  7.59869910E+00 -1.51973982E+01  7.59869910E+00
  7.59869910E+00 -1.51973982E+01  7.59869910E+00  7.59869910E+00 -1.51973982E+01
  7.59869910E+00  7.59869910E+00 -1.51973982E+01  7.59869910E+00  7.59869910E+00
 -1.51973982E+01  7.59869910E+00  7.59869910E+00 -1.51973982E+01  7.59869910E+00
  7.59869910E+00 -1.51973982E+01  7.59869910E+00  7.59869910E+00 -1.51973982E+01
  7.59869910E+00  7.59869910E+00 -1.51973982E+01  7.59869910E+00  7.59869910E+00
 -1.51973982E+01  7.59869910E+00  7.59869910E+00 -1.51973982E+01  7.59869910E+00
  7.59869910E+00 -1.51973982E+01  7.59869910E+00  7.59869910E+00 -1.51973982E+01
  7.59869910E+00  7.59869910E+00 -1.51973982E+01  7.59869910E+00  7.59869910E+00
 -1.51973982E+01  7.59869910E+00  7.59869910E+00 -1.51973982E+01  7.59869910E+00
  7.59869910E+00 -1.51973982E+01  7.59869910E+00  7.59869910E+00 -1.51973982E+01
  7.59869910E+00  7.59869910E+00 -1.51973982E+01  7.59869910E+00  7.59869910E+00
 -1.51973982E+01  7.59869910E+00  7.59869910E+00 -1.51973982E+01  7.59869910E+00
  7.59869910E+00 -1.51973982E+01  7.59869910E+00  7.59869910E+00 -1.51973982E+01
  7.59869910E+00  7.59869910E+00 -1.51973982E+01  7.59869910E+00  7.59869910E+00
 -1.51973982E+01  7.59869910E+00  7.59869910E+00 -1.51973982E+01  7.59869910E+00
  7.59869910E+00 -1.51973982E+01  7.59869910E+00  7.59869910E+00 -1.51973982E+01
  7.59869910E+00  7.59869910E+00 -1.51973982E+01  7.59869910E+00  7.59869910E+00
 -1.51973982E+01  7.59869910E+00  7.59869910E+00 -1.51973982E+01  7.59869910E+00
  7.59869910E+00 -1.51973982E+01  7.59869910E+00  7.59869910E+00 -1.51973982E+01
  7.59869910E+00  7.59869910E+00 -1.51973982E+01  7.59869910E+00  7.59869910E+00
 -1.51973982E+01  7.59869910E+00  7.59869910E+00 -1.51973982E+01  7.59869910E+00
  7.59869910E+00 -1.51973982E+01  7.59869910E+00  7.59869910E+00 -1.51973982E+01
  7.59869910E+00  7.59869910E+00 -1.51973982E+01  7.59869910E+00  7.59869910E+00
 -1.51973982E+01  7.59869910E+00  7.59869910E+00 -1.51973982E+01  7.59869910E+00
  7.59869910E+00 -1.51973982E+01  7.59869910E+00  7.59869910E+00 -1.51973982E+01
  7.59869910E+00  7.59869910E+00 -1.51973982E+01  7.59869910E+00  7.59869910E+00
 -1.51973982E+01  7.59869910E+00  7.59869910E+00 -1.51973982E+01  7.59869910E+00
  7.59869910E+00 -1.51973982E+01  7.59869910E+00  7.59869910E+00 -1.51973982E+01
  7.59869910E+00  7.59869910E+00 -1.51973982E+01  7.59869910E+00  7.59869910E+00
 -1.51973982E+01  7.59869910E+00  7.59869910E+00 -1.51973982E+01  7.59869910E+00
  7.59869910E+00 -1.51973982E+01  7.59869910E+00  7.59869910E+00 -1.51973982E+01
  7.59869910E+00  7.59869910E+00 -1.51973982E+01  7.59869910E+00  7.59869910E+00
 -1.51973982E+01  7.59869910E+00  7.59869910E+00 -1.51973982E+01  7.59869910E+00
  7.59869910E+00 -1.51973982E+01  7.59869910E+00  7.59869910E+00 -1.51973982E+01
  7.59869910E+00  7.59869910E+00 -1.51973982E+01  7.59869910E+00  7.59869910E+00
 -1.51973982E+01  7.59869910E+00  7.59869910E+00 -1.51973982E+01  7.59869910E+00
  7.59869910E+00 -1.51973982E+01  7.59869910E+00  7.59869910E+00 -1.51973982E+01
  7.59869910E+00  7.59869910E+00 -1.51973982E+01  7.59869910E+00  7.59869910E+00
 -1.51973982E+01  7.59869910E+00  7.59869910E+00 -1.51973982E+01  7.59869910E+00
  7.59869910E+00 -1.51973982E+01  7.59869910E+00  7.59869910E+00 -1.51973982E+01
  7.59869910E+00  7.59869910E+00 -1.51973982E+01  7.59869910E+00  7.59869910E+00
 -1.51973982E+01  7.59869910E+00  7.59869910E+00 -1.51973982E+01  7.59869910E+00
  7.59869910E+00 -1.51973982E+01  7.59869910E+00  7.59869910E+00 -1.51973982E+01
  7.59869910E+00  7.59869910E+00 -1.51973982E+01  7.59869910E+00  7.59869910E+00
 -1.51973982E+01  7.59869910E+00  7.59869910E+00 -1.51973982E+01  7.59869910E+00
  7.59869910E+00 -1.51973982E+01  7.59869910E+00  7.59869910E+00 -1.51973982E+01
  7.59869910E+00  7.59869910E+00 -1.51973982E+01  7.59869910E+00  7.59869910E+00
 -1.51973982E+01  7.59869910E+00  7.59869910E+00 -1.51973982E+01  7.59869910E+00
  7.59869910E+00 -1.51973982E+01  7.59869910E+00  7.59869910E+00 -1.51973982E+01
  7.59869910E+00  7.59869910E+00 -1.51973982E+01  7.59869910E+00  7.59869910E+00
 -1.51973982E+01  7.59869910E+00  7.59869910E+00 -1.51973982E+01  7.59869910E+00
  7.59869910E+00 -1.51973982E+01  7.59869910E+00  7.59869910E+00 -1.51973982E+01
  7.59869910E+00  7.59869910E+00 -1.51973982E+01  7.59869910E+00  7.59869910E+00
 -1.51973982E+01  7.59869910E+00  7.59869910E+00 -1.51973982E+01  7.59869910E+00
  7.59869910E+00 -1.51973982E+01  7.59869910E+00  7.59869910E+00 -1.51973982E+01
  7.59869910E+00  7.59869910E+00 -1.51973982E+01  7.59869910E+00  7.59869910E+00
 -1.51973982E+01  7.59869910E+00  7.59869910E+00 -1.51973982E+01  7.59869910E+00
  7.59869910E+00 -1.51973982E+01  7.59869910E+00  7.59869910E+00 -1.51973982E+01
  7.59869910E+00  7.59869910E+00 -1.51973982E+01  7.59869910E+00  7.59869910E+00
 -1.51973982E+01  7.59869910E+00  7.59869910E+00 -1.51973982E+01  7.59869910E+00
  7.59869910E+00 -1.51973982E+01  7.59869910E+00  7.59869910E+00 -1.51973982E+01
  7.59869910E+00  7.59869910E+00 -1.51973982E+01  7.59869910E+00  7.59869910E+00
 -1.51973982E+01  7.59869910E+00  7.59869910E+00 -1.51973982E+01  7.59869910E+00
  7.59869910E+00 -1.51973982E+01  7.59869910E+00  7.59869910E+00 -1.51973982E+01
  7.59869910E+00  7.59869910E+00 -1.51973982E+01  7.59869910E+00  7.59869910E+00
 -1.51973982E+01  7.59869910E+00  7.59869910E+00 -1.51973982E+01  7.59869910E+00
  7.59869910E+00 -1.51973982E+01  7.59869910E+00  7.59869910E+00 -1.51973982E+01
  7.59869910E+00  7.59869910E+00 -1.51973982E+01  7.59869910E+00  7.59869910E+00
 -1.51973982E+01  7.59869910E+00  7.59869910E+00 -1.51973982E+01  7.59869910E+00
  7.59869910E+00 -1.51973982E+01  7.59869910E+00  7.59869910E+00 -1.51973982E+01
  7.59869910E+00  7.59869910E+00 -1.51973982E+01  7.59869910E+00  7.59869910E+00
 -1.51973982E+01  7.59869910E+00  7.59869910E+00 -1.51973982E+01  7.59869910E+00
  7.59869910E+00 -1.51973982E+01  7.59869910E+00  7.59869910E+00 -1.51973982E+01
  7.59869910E+00  7.59869910E+00 -1.51973982E+01  7.59869910E+00  7.59869910E+00
 -1.51973982E+01  7.59869910E+00  7.59869910E+00 -1.51973982E+01  7.59869910E+00
  7.59869910E+00 -1.51973982E+01  7.59869910E+00  7.59869910E+00 -1.51973982E+01
  7.59869910E+00  7.59869910E+00 -1.51973982E+01  7.59869910E+00  7.59869910E+00
 -1.51973982E+01  7.59869910E+00  7.59869910E+00 -1.51973982E+01  7.59869910E+00
  7.59869910E+00 -1.51973982E+01  7.59869910E+00  7.59869910E+00 -1.51973982E+01
  7.59869910E+00  7.59869910E+00 -1.51973982E+01  7.59869910E+00  7.59869910E+00
 -1.51973982E+01  7.59869910E+00  7.59869910E+00 -1.51973982E+01  7.59869910E+00
  7.59869910E+00 -1.51973982E+01  7.59869910E+00  7.59869910E+00 -1.51973982E+01
  7.59869910E+00  7.59869910E+00 -1.51973982E+01  7.59869910E+00  7.59869910E+00
 -1.51973982E+01  7.59869910E+00  7.59869910E+00 -1.51973982E+01  7.59869910E+00
  7.59869910E+00 -1.51973982E+01  7.59869910E+00  7.59869910E+00 -1.51973982E+01
  7.59869910E+00  7.59869910E+00 -1.51973982E+01  7.59869910E+00  7.59869910E+00
 -1.51973982E+01  7.59869910E+00  7.59869910E+00 -1.51973982E+01  7.59869910E+00
  7.59869910E+00 -1.51973982E+01  7.59869910E+00  7.59869910E+00 -1.51973982E+01
  7.59869910E+00  7.59869910E+00 -1.51973982E+01  7.59869910E+00  7.59869910E+00
 -1.51973982E+01  7.59869910E+00  7.59869910E+00 -1.51973982E+01  7.59869910E+00
  7.59869910E+00 -1.51973982E+01  7.59869910E+00  7.59869910E+00 -1.51973982E+01
  7.59869910E+00  7.59869910E+00 -1.51973982E+01  7.59869910E+00  7.59869910E+00
 -1.51973982E+01  7.59869910E+00  7.59869910E+00 -1.51973982E+01  7.59869910E+00
  7.59869910E+00 -1.51973982E+01  7.59869910E+00  7.59869910E+00 -1.51973982E+01
  7.59869910E+00  7.59869910E+00 -1.51973982E+01  7.59869910E+00  7.59869910E+00
 -1.51973982E+01  7.59869910E+00  7.59869910E+00 -1.51973982E+01  7.59869910E+00
  7.59869910E+00 -1.51973982E+01  7.59869910E+00  7.59869910E+00 -1.51973982E+01
  7.59869910E+00  7.59869910E+00 -1.51973982E+01  7.59869910E+00  7.59869910E+00
 -1.51973982E+01  7.59869910E+00  7.59869910E+00 -1.51973982E+01  7.59869910E+00
  7.59869910E+00 -1.51973982E+01  7.59869910E+00  7.59869910E+00 -1.51973982E+01
  7.59869910E+00  7.59869910E+00 -1.51973982E+01  7.59869910E+00  7.59869910E+00
 -1.51973982E+01  7.59869910E+00  7.59869910E+00 -1.51973982E+01  7.59869910E+00
  7.59869910E+00 -1.51973982E+01  7.59869910E+00  7.59869910E+00 -1.51973982E+01
  7.59869910E+00  7.59869910E+00 -1.51973982E+01  7.59869910E+00  7.59869910E+00
 -1.51973982E+01  7.59869910E+00  7.59869910E+00 -1.51973982E+01  7.59869910E+00
  7.59869910E+00 -1.51973982E+01  7.59869910E+00  7.59869910E+00 -1.51973982E+01
  7.59869910E+00  7.59869910E+00 -1.51973982E+01  7.59869910E+00  7.59869910E+00
 -1.51973982E+01  7.59869910E+00  7.59869910E+00 -1.51973982E+01  7.59869910E+00
  7.59869910E+00 -1.51973982E+01  7.59869910E+00  7.59869910E+00 -1.51973982E+01
  7.59869910E+00  7.59869910E+00 -1.51973982E+01  7.59869910E+00  7.59869910E+00
 -1.51973982E+01  7.59869910E+00  7.59869910E+00 -1.51973982E+01  7.59869910E+00
  7.59869910E+00 -1.51973982E+01  7.59869910E+00  7.59869910E+00 -1.51973982E+01
  7.59869910E+00  7.59869910E+00 -1.51973982E+01  7.59869910E+00  7.59869910E+00
 -1.51973982E+01  7.59869910E+00  7.59869910E+00 -1.51973982E+01  7.59869910E+00
  7.59869910E+00 -1.51973982E+01  7.59869910E+00  7.59869910E+00 -1.51973982E+01
  7.59869910E+00  7.59869910E+00 -1.51973982E+01  7.59869910E+00  7.59869910E+00
 -1.51973982E+01  7.59869910E+00  7.59869910E+00 -1.51973982E+01  7.59869910E+00
  7.59869910E+00 -1.51973982E+01  7.59869910E+00  7.59869910E+00 -1.51973982E+01
  7.59869910E+00  7.59869910E+00 -1.51973982E+01  7.59869910E+00  7.59869910E+00
 -1.51973982E+01  7.59869910E+00  7.59869910E+00 -1.51973982E+01  7.59869910E+00
  7.59869910E+00 -1.51973982E+01  7.59869910E+00  7.59869910E+00 -1.51973982E+01
  7.59869910E+00  7.59869910E+00 -1.51973982E+01  7.59869910E+00  7.59869910E+00
 -1.51973982E+01  7.59869910E+00  7.59869910E+00 -1.51973982E+01  7.59869910E+00
  7.59869910E+00 -1.51973982E+01  7.59869910E+00  7.59869910E+00 -1.51973982E+01
  7.59869910E+00  7.59869910E+00 -1.51973982E+01  7.59869910E+00  7.59869910E+00
 -1.51973982E+01  7.59869910E+00  7.59869910E+00 -1.51973982E+01  7.59869910E+00
  7.59869910E+00 -1.51973982E+01  7.59869910E+00  7.59869910E+00 -1.51973982E+01
  7.59869910E+00  7.59869910E+00 -1.51973982E+01  7.59869910E+00  7.59869910E+00
 -1.51973982E+01  7.59869910E+00  7.59869910E+00 -1.51973982E+01  7.59869910E+00
  7.59869910E+00 -1.51973982E+01  7.59869910E+00  7.59869910E+00 -1.51973982E+01
  7.59869910E+00  7.59869910E+00 -1.51973982E+01  7.59869910E+00  7.59869910E+00
 -1.51973982E+01  7.59869910E+00  7.59869910E+00 -1.51973982E+01  7.59869910E+00
  7.59869910E+00 -1.51973982E+01  7.59869910E+00  7.59869910E+00 -1.51973982E+01
  7.59869910E+00  7.59869910E+00 -1.51973982E+01  7.59869910E+00  7.59869910E+00
 -1.51973982E+01  7.59869910E+00  7.59869910E+00 -1.51973982E+01  7.59869910E+00
  7.59869910E+00 -1.51973982E+01  7.59869910E+00  7.59869910E+00 -1.51973982E+01
  7.59869910E+00  7.59869910E+00 -1.51973982E+01  7.59869910E+00  7.59869910E+00
 -1.51973982E+01  7.59869910E+00  7.59869910E+00 -1.51973982E+01  7.59869910E+00
  7.59869910E+00 -1.51973982E+01  7.59869910E+00  7.59869910E+00 -1.51973982E+01
  7.59869910E+00  7.59869910E+00 -1.51973982E+01  7.59869910E+00  7.59869910E+00
 -1.51973982E+01  7.59869910E+00  7.59869910E+00 -1.51973982E+01  7.59869910E+00
  7.59869910E+00 -1.51973982E+01  7.59869910E+00  7.59869910E+00 -1.51973982E+01
  7.59869910E+00  7.59869910E+00 -1.51973982E+01  7.59869910E+00  7.59869910E+00
 -1.51973982E+01  7.59869910E+00  7.59869910E+00 -1.51973982E+01  7.59869910E+00
  7.59869910E+00 -1.51973982E+01  7.59869910E+00  7.59869910E+00 -1.51973982E+01
  7.59869910E+00  7.59869910E+00 -1.51973982E+01  7.59869910E+00  7.59869910E+00
 -1.51973982E+01  7.59869910E+00  7.59869910E+00 -1.51973982E+01  7.59869910E+00
  7.59869910E+00 -1.51973982E+01  7.59869910E+00  7.59869910E+00 -1.51973982E+01
  7.59869910E+00  7.59869910E+00 -1.51973982E+01  7.59869910E+00  7.59869910E+00
 -1.51973982E+01  7.59869910E+00  7.59869910E+00 -1.51973982E+01  7.59869910E+00
  7.59869910E+00 -1.51973982E+01  7.59869910E+00  7.59869910E+00 -1.51973982E+01
  7.59869910E+00  7.59869910E+00 -1.51973982E+01  7.59869910E+00  7.59869910E+00
 -1.51973982E+01  7.59869910E+00  7.59869910E+00 -1.51973982E+01  7.59869910E+00
  7.59869910E+00 -1.51973982E+01  7.59869910E+00  7.59869910E+00 -1.51973982E+01
  7.59869910E+00  7.59869910E+00 -1.51973982E+01  7.59869910E+00  7.59869910E+00
 -1.51973982E+01  7.59869910E+00  7.59869910E+00 -1.51973982E+01  7.59869910E+00
  7.59869910E+00 -1.51973982E+01  7.59869910E+00  7.59869910E+00 -1.51973982E+01
  7.59869910E+00  7.59869910E+00 -1.51973982E+01  7.59869910E+00  7.59869910E+00
 -1.51973982E+01  7.59869910E+00  7.59869910E+00 -1.51973982E+01  7.59869910E+00
  7.59869910E+00 -1.51973982E+01  7.59869910E+00  7.59869910E+00 -1.51973982E+01
  7.59869910E+00  7.59869910E+00 -1.51973982E+01  7.59869910E+00  7.59869910E+00
 -1.51973982E+01  7.59869910E+00  7.59869910E+00 -1.51973982E+01  7.59869910E+00
  7.59869910E+00 -1.51973982E+01  7.59869910E+00  7.59869910E+00 -1.51973982E+01
  7.59869910E+00  7.59869910E+00 -1.51973982E+01  7.59869910E+00  7.59869910E+00
 -1.51973982E+01  7.59869910E+00  7.59869910E+00 -1.51973982E+01  7.59869910E+00
  7.59869910E+00 -1.51973982E+01  7.59869910E+00  7.59869910E+00 -1.51973982E+01
  7.59869910E+00  7.59869910E+00 -1.51973982E+01  7.59869910E+00  7.59869910E+00
 -1.51973982E+01  7.59869910E+00  7.59869910E+00 -1.51973982E+01  7.59869910E+00
  7.59869910E+00 -1.51973982E+01  7.59869910E+00  7.59869910E+00 -1.51973982E+01
  7.59869910E+00  7.59869910E+00 -1.51973982E+01  7.59869910E+00  7.59869910E+00
 -1.51973982E+01  7.59869910E+00  7.59869910E+00 -1.51973982E+01  7.59869910E+00
  7.59869910E+00 -1.51973982E+01  7.59869910E+00  7.59869910E+00 -1.51973982E+01
  7.59869910E+00  7.59869910E+00 -1.51973982E+01  7.59869910E+00  7.59869910E+00
 -1.51973982E+01  7.59869910E+00  7.59869910E+00 -1.51973982E+01  7.59869910E+00
  7.59869910E+00 -1.51973982E+01  7.59869910E+00  7.59869910E+00 -1.51973982E+01
  7.59869910E+00  7.59869910E+00 -1.51973982E+01  7.59869910E+00  7.59869910E+00
 -1.51973982E+01  7.59869910E+00  7.59869910E+00 -1.51973982E+01  7.59869910E+00
  7.59869910E+00 -1.51973982E+01  7.59869910E+00  7.59869910E+00 -1.51973982E+01
  7.59869910E+00  7.59869910E+00 -1.51973982E+01  7.59869910E+00  7.59869910E+00
 -1.51973982E+01  7.59869910E+00  7.59869910E+00 -1.51973982E+01  7.59869910E+00
  7.59869910E+00 -1.51973982E+01  7.59869910E+00  7.59869910E+00 -1.51973982E+01
  7.59869910E+00  7.59869910E+00 -1.51973982E+01  7.59869910E+00  7.59869910E+00
 -1.51973982E+01  7.59869910E+00  7.59869910E+00 -1.51973982E+01  7.59869910E+00
  7.59869910E+00 -1.51973982E+01  7.59869910E+00  7.59869910E+00 -1.51973982E+01
  7.59869910E+00  7.59869910E+00 -1.51973982E+01  7.59869910E+00  7.59869910E+00
 -1.51973982E+01  7.59869910E+00  7.59869910E+00 -1.51973982E+01  7.59869910E+00
  7.59869910E+00 -1.51973982E+01  7.59869910E+00  7.59869910E+00 -1.51973982E+01
  7.59869910E+00  7.59869910E+00 -1.51973982E+01  7.59869910E+00  7.59869910E+00
 -1.51973982E+01  7.59869910E+00  7.59869910E+00 -1.51973982E+01  7.59869910E+00
  7.59869910E+00 -1.51973982E+01  7.59869910E+00  7.59869910E+00 -1.51973982E+01
  7.59869910E+00  7.59869910E+00 -1.51973982E+01  7.59869910E+00  7.59869910E+00
 -1.51973982E+01  7.59869910E+00  7.59869910E+00 -1.51973982E+01  7.59869910E+00
  7.59869910E+00 -1.51973982E+01  7.59869910E+00  7.59869910E+00 -1.51973982E+01
  7.59869910E+00  7.59869910E+00 -1.51973982E+01  7.59869910E+00  7.59869910E+00
 -1.51973982E+01  7.59869910E+00  7.59869910E+00 -1.51973982E+01  7.59869910E+00
  7.59869910E+00 -1.51973982E+01  7.59869910E+00  7.59869910E+00 -1.51973982E+01
  7.59869910E+00  7.59869910E+00 -1.51973982E+01  7.59869910E+00  7.59869910E+00
 -1.51973982E+01  7.59869910E+00  7.59869910E+00 -1.51973982E+01  7.59869910E+00
  7.59869910E+00 -1.51973982E+01  7.59869910E+00  7.59869910E+00 -1.51973982E+01
  7.59869910E+00  7.59869910E+00 -1.51973982E+01  7.59869910E+00  7.59869910E+00
 -1.51973982E+01  7.59869910E+00  7.59869910E+00 -1.51973982E+01  7.59869910E+00
  7.59869910E+00 -1.51973982E+01  7.59869910E+00  7.59869910E+00 -1.51973982E+01
  7.59869910E+00  7.59869910E+00 -1.51973982E+01  7.59869910E+00  7.59869910E+00
 -1.51973982E+01  7.59869910E+00  7.59869910E+00 -1.51973982E+01  7.59869910E+00
  7.59869910E+00 -1.51973982E+01  7.59869910E+00  7.59869910E+00 -1.51973982E+01
  7.59869910E+00  7.59869910E+00 -1.51973982E+01  7.59869910E+00  7.59869910E+00
 -1.51973982E+01  7.59869910E+00  7.59869910E+00 -1.51973982E+01  7.59869910E+00
  7.59869910E+00 -1.51973982E+01  7.59869910E+00  7.59869910E+00 -1.51973982E+01
  7.59869910E+00  7.59869910E+00 -1.51973982E+01  7.59869910E+00  7.59869910E+00
 -1.51973982E+01  7.59869910E+00  7.59869910E+00 -1.51973982E+01  7.59869910E+00
  7.59869910E+00 -1.51973982E+01  7.59869910E+00  7.59869910E+00 -1.51973982E+01
  7.59869910E+00  7.59869910E+00 -1.51973982E+01  7.59869910E+00  7.59869910E+00
 -1.51973982E+01  7.59869910E+00  7.59869910E+00 -1.51973982E+01  7.59869910E+00
  7.59869910E+00 -1.51973982E+01  7.59869910E+00  7.59869910E+00 -1.51973982E+01
  7.59869910E+00  7.59869910E+00 -1.51973982E+01  7.59869910E+00  7.59869910E+00
 -1.51973982E+01  7.59869910E+00  7.59869910E+00 -1.51973982E+01  7.59869910E+00
  7.59869910E+00 -1.51973982E+01  7.59869910E+00  7.59869910E+00 -1.51973982E+01
  7.59869910E+00  7.59869910E+00 -1.51973982E+01  7.59869910E+00  7.59869910E+00
 -1.51973982E+01  7.59869910E+00  7.59869910E+00 -1.51973982E+01  7.59869910E+00
  7.59869910E+00 -1.51973982E+01  7.59869910E+00  7.59869910E+00 -1.51973982E+01
  7.59869910E+00  7.59869910E+00 -1.51973982E+01  7.59869910E+00  7.59869910E+00
 -1.51973982E+01  7.59869910E+00  7.59869910E+00 -1.51973982E+01  7.59869910E+00
  7.59869910E+00 -1.51973982E+01  7.59869910E+00  7.59869910E+00 -1.51973982E+01
  7.59869910E+00  7.59869910E+00 -1.51973982E+01  7.59869910E+00  7.59869910E+00
 -1.51973982E+01  7.59869910E+00  7.59869910E+00 -1.51973982E+01  7.59869910E+00
  7.59869910E+00 -1.51973982E+01  7.59869910E+00  7.59869910E+00 -1.51973982E+01
  7.59869910E+00  7.59869910E+00 -1.51973982E+01  7.59869910E+00  7.59869910E+00
 -1.51973982E+01  7.59869910E+00  7.59869910E+00 -1.51973982E+01  7.59869910E+00
  7.59869910E+00 -1.51973982E+01  7.59869910E+00  7.59869910E+00 -1.51973982E+01
  7.59869910E+00  7.59869910E+00 -1.51973982E+01  7.59869910E+00  7.59869910E+00
 -1.51973982E+01  7.59869910E+00  7.59869910E+00 -1.51973982E+01  7.59869910E+00
  7.59869910E+00 -1.51973982E+01  7.59869910E+00  7.59869910E+00 -1.51973982E+01
  7.59869910E+00  7.59869910E+00 -1.51973982E+01  7.59869910E+00  7.59869910E+00
 -1.51973982E+01  7.59869910E+00  7.59869910E+00 -1.51973982E+01  7.59869910E+00
  7.59869910E+00 -1.51973982E+01  7.59869910E+00  7.59869910E+00 -1.51973982E+01
  7.59869910E+00  7.59869910E+00 -1.51973982E+01  7.59869910E+00  7.59869910E+00
 -1.51973982E+01  7.59869910E+00  7.59869910E+00 -1.51973982E+01  7.59869910E+00
  7.59869910E+00 -1.51973982E+01  7.59869910E+00  7.59869910E+00 -1.51973982E+01
  7.59869910E+00  7.59869910E+00 -1.51973982E+01  7.59869910E+00  7.59869910E+00
 -1.51973982E+01  7.59869910E+00  7.59869910E+00 -1.51973982E+01  7.59869910E+00
  7.59869910E+00 -1.51973982E+01  7.59869910E+00  7.59869910E+00 -1.51973982E+01
  7.59869910E+00  7.59869910E+00 -1.51973982E+01  7.59869910E+00  7.59869910E+00
 -1.51973982E+01  7.59869910E+00  7.59869910E+00 -1.51973982E+01  7.59869910E+00
  7.59869910E+00 -1.51973982E+01  7.59869910E+00  7.59869910E+00 -1.51973982E+01
  7.59869910E+00  7.59869910E+00 -1.51973982E+01  7.59869910E+00  7.59869910E+00
 -1.51973982E+01  7.59869910E+00  7.59869910E+00 -1.51973982E+01  7.59869910E+00
  7.59869910E+00 -1.51973982E+01  7.59869910E+00  7.59869910E+00 -1.51973982E+01
  7.59869910E+00  7.59869910E+00 -1.51973982E+01  7.59869910E+00  7.59869910E+00
 -1.51973982E+01  7.59869910E+00  7.59869910E+00 -1.51973982E+01  7.59869910E+00
  7.59869910E+00 -1.51973982E+01  7.59869910E+00  7.59869910E+00 -1.51973982E+01
  7.59869910E+00  7.59869910E+00 -1.51973982E+01  7.59869910E+00  7.59869910E+00
 -1.51973982E+01  7.59869910E+00  7.59869910E+00 -1.51973982E+01  7.59869910E+00
  7.59869910E+00 -1.51973982E+01  7.59869910E+00  7.59869910E+00 -1.51973982E+01
  7.59869910E+00  7.59869910E+00 -1.51973982E+01  7.59869910E+00  7.59869910E+00
 -1.51973982E+01  7.59869910E+00  7.59869910E+00 -1.51973982E+01  7.59869910E+00
  7.59869910E+00 -1.51973982E+01  7.59869910E+00  7.59869910E+00 -1.51973982E+01
  7.59869910E+00  7.59869910E+00 -1.51973982E+01  7.59869910E+00  7.59869910E+00
 -1.51973982E+01  7.59869910E+00  7.59869910E+00 -1.51973982E+01  7.59869910E+00
  7.59869910E+00 -1.51973982E+01  7.59869910E+00  7.59869910E+00 -1.51973982E+01
  7.59869910E+00  7.59869910E+00 -1.51973982E+01  7.59869910E+00  7.59869910E+00
 -1.51973982E+01  7.59869910E+00  7.59869910E+00 -1.51973982E+01  7.59869910E+00
  7.59869910E+00 -1.51973982E+01  7.59869910E+00  7.59869910E+00 -1.51973982E+01
  7.59869910E+00  7.59869910E+00 -1.51973982E+01  7.59869910E+00  7.59869910E+00
 -1.51973982E+01  7.59869910E+00  7.59869910E+00 -1.51973982E+01  7.59869910E+00
  7.59869910E+00 -1.51973982E+01  7.59869910E+00  7.59869910E+00 -1.51973982E+01
  7.59869910E+00  7.59869910E+00 -1.51973982E+01  7.59869910E+00  7.59869910E+00
 -1.51973982E+01  7.59869910E+00  7.59869910E+00 -1.51973982E+01  7.59869910E+00
  7.59869910E+00 -1.51973982E+01  7.59869910E+00  7.59869910E+00 -1.51973982E+01
  7.59869910E+00  7.59869910E+00 -1.51973982E+01  7.59869910E+00  7.59869910E+00
 -1.51973982E+01  7.59869910E+00  7.59869910E+00 -1.51973982E+01  7.59869910E+00
  7.59869910E+00 -1.51973982E+01  7.59869910E+00  7.59869910E+00 -1.51973982E+01
  7.59869910E+00  7.59869910E+00 -1.51973982E+01  7.59869910E+00  7.59869910E+00
 -1.51973982E+01  7.59869910E+00  7.59869910E+00 -1.51973982E+01  7.59869910E+00
  7.59869910E+00 -1.51973982E+01  7.59869910E+00  7.59869910E+00 -1.51973982E+01
  7.59869910E+00  7.59869910E+00 -1.51973982E+01  7.59869910E+00  7.59869910E+00
 -1.51973982E+01  7.59869910E+00  7.59869910E+00 -1.51973982E+01  7.59869910E+00
  7.59869910E+00 -1.51973982E+01  7.59869910E+00  7.59869910E+00 -1.51973982E+01
  7.59869910E+00  7.59869910E+00 -1.51973982E+01  7.59869910E+00  7.59869910E+00
 -1.51973982E+01  7.59869910E+00  7.59869910E+00 -1.51973982E+01  7.59869910E+00
  7.59869910E+00 -1.51973982E+01  7.59869910E+00  7.59869910E+00 -1.51973982E+01
  7.59869910E+00  7.59869910E+00 -1.51973982E+01  7.59869910E+00  7.59869910E+00
 -1.51973982E+01  7.59869910E+00  7.59869910E+00 -1.51973982E+01  7.59869910E+00
  7.59869910E+00 -1.51973982E+01  7.59869910E+00  7.59869910E+00 -1.51973982E+01
  7.59869910E+00  7.59869910E+00 -1.51973982E+01  7.59869910E+00  7.59869910E+00
 -1.51973982E+01  7.59869910E+00  7.59869910E+00 -1.51973982E+01  7.59869910E+00
  7.59869910E+00 -1.51973982E+01  7.59869910E+00  7.59869910E+00 -1.51973982E+01
  7.59869910E+00  7.59869910E+00 -1.51973982E+01  7.59869910E+00  7.59869910E+00
 -1.51973982E+01  7.59869910E+00  7.59869910E+00 -1.51973982E+01  7.59869910E+00
  7.59869910E+00 -1.51973982E+01  7.59869910E+00  7.59869910E+00 -1.51973982E+01
  7.59869910E+00  7.59869910E+00 -1.51973982E+01  7.59869910E+00  7.59869910E+00
 -1.51973982E+01  7.59869910E+00  7.59869910E+00 -1.51973982E+01  7.59869910E+00
  7.59869910E+00 -1.51973982E+01  7.59869910E+00  7.59869910E+00 -1.51973982E+01
  7.59869910E+00  7.59869910E+00 -1.51973982E+01  7.59869910E+00  7.59869910E+00
 -1.51973982E+01  7.59869910E+00  7.59869910E+00 -1.51973982E+01  7.59869910E+00
  7.59869910E+00 -1.51973982E+01  7.59869910E+00  7.59869910E+00 -1.51973982E+01
  7.59869910E+00  7.59869910E+00 -1.51973982E+01  7.59869910E+00  7.59869910E+00
 -1.51973982E+01  7.59869910E+00  7.59869910E+00 -1.51973982E+01  7.59869910E+00
  7.59869910E+00 -1.51973982E+01  7.59869910E+00  7.59869910E+00 -1.51973982E+01
  7.59869910E+00  7.59869910E+00 -1.51973982E+01  7.59869910E+00  7.59869910E+00
 -1.51973982E+01  7.59869910E+00  7.59869910E+00 -1.51973982E+01  7.59869910E+00
  7.59869910E+00 -1.51973982E+01  7.59869910E+00  7.59869910E+00 -1.51973982E+01
  7.59869910E+00  7.59869910E+00 -1.51973982E+01  7.59869910E+00  7.59869910E+00
 -1.51973982E+01  7.59869910E+00  7.59869910E+00 -1.51973982E+01  7.59869910E+00
  7.59869910E+00 -1.51973982E+01  7.59869910E+00  7.59869910E+00 -1.51973982E+01
  7.59869910E+00  7.59869910E+00 -1.51973982E+01  7.59869910E+00  7.59869910E+00
 -1.51973982E+01  7.59869910E+00  7.59869910E+00 -1.51973982E+01  7.59869910E+00
  7.59869910E+00 -1.51973982E+01  7.59869910E+00  7.59869910E+00 -1.51973982E+01
  7.59869910E+00  7.59869910E+00 -1.51973982E+01  7.59869910E+00  7.59869910E+00
 -1.51973982E+01  7.59869910E+00  7.59869910E+00 -1.51973982E+01  7.59869910E+00
  7.59869910E+00 -1.51973982E+01  7.59869910E+00  7.59869910E+00 -1.51973982E+01
  7.59869910E+00  7.59869910E+00 -1.51973982E+01  7.59869910E+00  7.59869910E+00
 -1.51973982E+01  7.59869910E+00  7.59869910E+00 -1.51973982E+01  7.59869910E+00
  7.59869910E+00 -1.51973982E+01  7.59869910E+00  7.59869910E+00 -1.51973982E+01
  7.59869910E+00  7.59869910E+00 -1.51973982E+01  7.59869910E+00  7.59869910E+00
 -1.51973982E+01  7.59869910E+00  7.59869910E+00 -1.51973982E+01  7.59869910E+00
  7.59869910E+00 -1.51973982E+01  7.59869910E+00  7.59869910E+00 -1.51973982E+01
  7.59869910E+00  7.59869910E+00 -1.51973982E+01  7.59869910E+00  7.59869910E+00
 -1.51973982E+01  7.59869910E+00  7.59869910E+00 -1.51973982E+01  7.59869910E+00
  7.59869910E+00 -1.51973982E+01  7.59869910E+00  7.59869910E+00 -1.51973982E+01
  7.59869910E+00  7.59869910E+00 -1.51973982E+01  7.59869910E+00  7.59869910E+00
 -1.51973982E+01  7.59869910E+00  7.59869910E+00 -1.51973982E+01  7.59869910E+00
  7.59869910E+00 -1.51973982E+01  7.59869910E+00  7.59869910E+00 -1.51973982E+01
  7.59869910E+00  7.59869910E+00 -1.51973982E+01  7.59869910E+00  7.59869910E+00
 -1.51973982E+01  7.59869910E+00  7.59869910E+00 -1.51973982E+01  7.59869910E+00
  7.59869910E+00 -1.51973982E+01  7.59869910E+00  7.59869910E+00 -1.51973982E+01
  7.59869910E+00  7.59869910E+00 -1.51973982E+01  7.59869910E+00  7.59869910E+00
 -1.51973982E+01  7.59869910E+00  7.59869910E+00 -1.51973982E+01  7.59869910E+00
  7.59869910E+00 -1.51973982E+01  7.59869910E+00  7.59869910E+00 -1.51973982E+01
  7.59869910E+00  7.59869910E+00 -1.51973982E+01  7.59869910E+00  7.59869910E+00
 -1.51973982E+01  7.59869910E+00  7.59869910E+00 -1.51973982E+01  7.59869910E+00
  7.59869910E+00 -1.51973982E+01  7.59869910E+00  7.59869910E+00 -1.51973982E+01
  7.59869910E+00  7.59869910E+00 -1.51973982E+01  7.59869910E+00  7.59869910E+00
 -1.51973982E+01  7.59869910E+00  7.59869910E+00 -1.51973982E+01  7.59869910E+00
  7.59869910E+00 -1.51973982E+01  7.59869910E+00  7.59869910E+00 -1.51973982E+01
  7.59869910E+00  7.59869910E+00 -1.51973982E+01  7.59869910E+00  7.59869910E+00
 -1.51973982E+01  7.59869910E+00  7.59869910E+00 -1.51973982E+01  7.59869910E+00
  7.59869910E+00 -1.51973982E+01  7.59869910E+00  7.59869910E+00 -1.51973982E+01
  7.59869910E+00  7.59869910E+00 -1.51973982E+01  7.59869910E+00  7.59869910E+00
 -1.51973982E+01  7.59869910E+00  7.59869910E+00 -1.51973982E+01  7.59869910E+00
  7.59869910E+00 -1.51973982E+01  7.59869910E+00  7.59869910E+00 -1.51973982E+01
  7.59869910E+00  7.59869910E+00 -1.51973982E+01  7.59869910E+00  7.59869910E+00
 -1.51973982E+01  7.59869910E+00  7.59869910E+00 -1.51973982E+01  7.59869910E+00
  7.59869910E+00 -1.51973982E+01  7.59869910E+00  7.59869910E+00 -1.51973982E+01
  7.59869910E+00  7.59869910E+00 -1.51973982E+01  7.59869910E+00  7.59869910E+00
 -1.51973982E+01  7.59869910E+00  7.59869910E+00 -1.51973982E+01  7.59869910E+00
  7.59869910E+00 -1.51973982E+01  7.59869910E+00  7.59869910E+00 -1.51973982E+01
  7.59869910E+00  7.59869910E+00 -1.51973982E+01  7.59869910E+00  7.59869910E+00
 -1.51973982E+01  7.59869910E+00  7.59869910E+00 -1.51973982E+01  7.59869910E+00
  7.59869910E+00 -1.51973982E+01  7.59869910E+00  7.59869910E+00 -1.51973982E+01
  7.59869910E+00  7.59869910E+00 -1.51973982E+01  7.59869910E+00  7.59869910E+00
 -1.51973982E+01  7.59869910E+00  7.59869910E+00 -1.51973982E+01  7.59869910E+00
  7.59869910E+00 -1.51973982E+01  7.59869910E+00  7.59869910E+00 -1.51973982E+01
  7.59869910E+00  7.59869910E+00 -1.51973982E+01  7.59869910E+00  7.59869910E+00
 -1.51973982E+01  7.59869910E+00  7.59869910E+00 -1.51973982E+01  7.59869910E+00
  7.59869910E+00 -1.51973982E+01  7.59869910E+00  7.59869910E+00 -1.51973982E+01
  7.59869910E+00  7.59869910E+00 -1.51973982E+01  7.59869910E+00  7.59869910E+00
 -1.51973982E+01  7.59869910E+00  7.59869910E+00 -1.51973982E+01  7.59869910E+00
  7.59869910E+00 -1.51973982E+01  7.59869910E+00  7.59869910E+00 -1.51973982E+01
  7.59869910E+00  7.59869910E+00 -1.51973982E+01  7.59869910E+00  7.59869910E+00
 -1.51973982E+01  7.59869910E+00  7.59869910E+00 -1.51973982E+01  7.59869910E+00
  7.59869910E+00 -1.51973982E+01  7.59869910E+00  7.59869910E+00 -1.51973982E+01
  7.59869910E+00  7.59869910E+00 -1.51973982E+01  7.59869910E+00  7.59869910E+00
 -1.51973982E+01  7.59869910E+00  7.59869910E+00 -1.51973982E+01  7.59869910E+00
  7.59869910E+00 -1.51973982E+01  7.59869910E+00  7.59869910E+00 -1.51973982E+01
  7.59869910E+00  7.59869910E+00 -1.51973982E+01  7.59869910E+00  7.59869910E+00
 -1.51973982E+01  7.59869910E+00  7.59869910E+00 -1.51973982E+01  7.59869910E+00
  7.59869910E+00 -1.51973982E+01  7.59869910E+00  7.59869910E+00 -1.51973982E+01
  7.59869910E+00  7.59869910E+00 -1.51973982E+01  7.59869910E+00  7.59869910E+00
 -1.51973982E+01  7.59869910E+00  7.59869910E+00 -1.51973982E+01  7.59869910E+00
  7.59869910E+00 -1.51973982E+01  7.59869910E+00  7.59869910E+00 -1.51973982E+01
  7.59869910E+00  7.59869910E+00 -1.51973982E+01  7.59869910E+00  7.59869910E+00
 -1.51973982E+01  7.59869910E+00  7.59869910E+00 -1.51973982E+01  7.59869910E+00
  7.59869910E+00 -1.51973982E+01  7.59869910E+00  7.59869910E+00 -1.51973982E+01
  7.59869910E+00  7.59869910E+00 -1.51973982E+01  7.59869910E+00  7.59869910E+00
 -1.51973982E+01  7.59869910E+00  7.59869910E+00 -1.51973982E+01  7.59869910E+00
  7.59869910E+00 -1.51973982E+01  7.59869910E+00  7.59869910E+00 -1.51973982E+01
  7.59869910E+00  7.59869910E+00 -1.51973982E+01  7.59869910E+00  7.59869910E+00
 -1.51973982E+01  7.59869910E+00  7.59869910E+00 -1.51973982E+01  7.59869910E+00
  7.59869910E+00 -1.51973982E+01  7.59869910E+00  7.59869910E+00 -1.51973982E+01
  7.59869910E+00  7.59869910E+00 -1.51973982E+01  7.59869910E+00  7.59869910E+00
 -1.51973982E+01  7.59869910E+00  7.59869910E+00 -1.51973982E+01  7.59869910E+00
  7.59869910E+00 -1.51973982E+01  7.59869910E+00  7.59869910E+00 -1.51973982E+01
  7.59869910E+00  7.59869910E+00 -1.51973982E+01  7.59869910E+00  7.59869910E+00
 -1.51973982E+01  7.59869910E+00  7.59869910E+00 -1.51973982E+01  7.59869910E+00
  7.59869910E+00 -1.51973982E+01  7.59869910E+00  7.59869910E+00 -1.51973982E+01
  7.59869910E+00  7.59869910E+00 -1.51973982E+01  7.59869910E+00  7.59869910E+00
 -1.51973982E+01  7.59869910E+00  7.59869910E+00 -1.51973982E+01  7.59869910E+00
  7.59869910E+00 -1.51973982E+01  7.59869910E+00  7.59869910E+00 -1.51973982E+01
  7.59869910E+00  7.59869910E+00 -1.51973982E+01  7.59869910E+00  7.59869910E+00
 -1.51973982E+01  7.59869910E+00  7.59869910E+00 -1.51973982E+01  7.59869910E+00
  7.59869910E+00 -1.51973982E+01  7.59869910E+00  7.59869910E+00 -1.51973982E+01
  7.59869910E+00  7.59869910E+00 -1.51973982E+01  7.59869910E+00  7.59869910E+00
 -1.51973982E+01  7.59869910E+00  7.59869910E+00 -1.51973982E+01  7.59869910E+00
  7.59869910E+00 -1.51973982E+01  7.59869910E+00  7.59869910E+00 -1.51973982E+01
  7.59869910E+00  7.59869910E+00 -1.51973982E+01  7.59869910E+00  7.59869910E+00
 -1.51973982E+01  7.59869910E+00  7.59869910E+00 -1.51973982E+01  7.59869910E+00
  7.59869910E+00 -1.51973982E+01  7.59869910E+00  7.59869910E+00 -1.51973982E+01
  7.59869910E+00  7.59869910E+00 -1.51973982E+01  7.59869910E+00  7.59869910E+00
 -1.51973982E+01  7.59869910E+00  7.59869910E+00 -1.51973982E+01  7.59869910E+00
  7.59869910E+00 -1.51973982E+01  7.59869910E+00  7.59869910E+00 -1.51973982E+01
  7.59869910E+00  7.59869910E+00 -1.51973982E+01  7.59869910E+00  7.59869910E+00
 -1.51973982E+01  7.59869910E+00  7.59869910E+00 -1.51973982E+01  7.59869910E+00
  7.59869910E+00 -1.51973982E+01  7.59869910E+00  7.59869910E+00 -1.51973982E+01
  7.59869910E+00  7.59869910E+00 -1.51973982E+01  7.59869910E+00  7.59869910E+00
 -1.51973982E+01  7.59869910E+00  7.59869910E+00 -1.51973982E+01  7.59869910E+00
  7.59869910E+00 -1.51973982E+01  7.59869910E+00  7.59869910E+00 -1.51973982E+01
  7.59869910E+00  7.59869910E+00 -1.51973982E+01  7.59869910E+00  7.59869910E+00
 -1.51973982E+01  7.59869910E+00  7.59869910E+00 -1.51973982E+01  7.59869910E+00
  7.59869910E+00 -1.51973982E+01  7.59869910E+00  7.59869910E+00 -1.51973982E+01
  7.59869910E+00  7.59869910E+00 -1.51973982E+01  7.59869910E+00  7.59869910E+00
 -1.51973982E+01  7.59869910E+00  7.59869910E+00 -1.51973982E+01  7.59869910E+00
  7.59869910E+00 -1.51973982E+01  7.59869910E+00  7.59869910E+00 -1.51973982E+01
  7.59869910E+00  7.59869910E+00 -1.51973982E+01  7.59869910E+00  7.59869910E+00
 -1.51973982E+01  7.59869910E+00  7.59869910E+00 -1.51973982E+01  7.59869910E+00
  7.59869910E+00 -1.51973982E+01  7.59869910E+00  7.59869910E+00 -1.51973982E+01
  7.59869910E+00  7.59869910E+00 -1.51973982E+01  7.59869910E+00  7.59869910E+00
 -1.51973982E+01  7.59869910E+00  7.59869910E+00 -1.51973982E+01  7.59869910E+00
  7.59869910E+00 -1.51973982E+01  7.59869910E+00  7.59869910E+00 -1.51973982E+01
  7.59869910E+00  7.59869910E+00 -1.51973982E+01  7.59869910E+00  7.59869910E+00
 -1.51973982E+01  7.59869910E+00  7.59869910E+00 -1.51973982E+01  7.59869910E+00
  7.59869910E+00 -1.51973982E+01  7.59869910E+00  7.59869910E+00 -1.51973982E+01
  7.59869910E+00  7.59869910E+00 -1.51973982E+01  7.59869910E+00  7.59869910E+00
 -1.51973982E+01  7.59869910E+00  7.59869910E+00 -1.51973982E+01  7.59869910E+00
  7.59869910E+00 -1.51973982E+01  7.59869910E+00  7.59869910E+00 -1.51973982E+01
  7.59869910E+00  7.59869910E+00 -1.51973982E+01  7.59869910E+00  7.59869910E+00
 -1.51973982E+01  7.59869910E+00  7.59869910E+00 -1.51973982E+01  7.59869910E+00
  7.59869910E+00 -1.51973982E+01  7.59869910E+00  7.59869910E+00 -1.51973982E+01
  7.59869910E+00  7.59869910E+00 -1.51973982E+01  7.59869910E+00  7.59869910E+00
 -1.51973982E+01  7.59869910E+00  7.59869910E+00 -1.51973982E+01  7.59869910E+00
  7.59869910E+00 -1.51973982E+01  7.59869910E+00  7.59869910E+00 -1.51973982E+01
  7.59869910E+00  7.59869910E+00 -1.51973982E+01  7.59869910E+00  7.59869910E+00
 -1.51973982E+01  7.59869910E+00  7.59869910E+00 -1.51973982E+01  7.59869910E+00
  7.59869910E+00 -1.51973982E+01  7.59869910E+00  7.59869910E+00 -1.51973982E+01
  7.59869910E+00  7.59869910E+00 -1.51973982E+01  7.59869910E+00  7.59869910E+00
 -1.51973982E+01  7.59869910E+00  7.59869910E+00 -1.51973982E+01  7.59869910E+00
  7.59869910E+00 -1.51973982E+01  7.59869910E+00  7.59869910E+00 -1.51973982E+01
  7.59869910E+00  7.59869910E+00 -1.51973982E+01  7.59869910E+00  7.59869910E+00
 -1.51973982E+01  7.59869910E+00  7.59869910E+00 -1.51973982E+01  7.59869910E+00
  7.59869910E+00 -1.51973982E+01  7.59869910E+00  7.59869910E+00 -1.51973982E+01
  7.59869910E+00  7.59869910E+00 -1.51973982E+01  7.59869910E+00  7.59869910E+00
 -1.51973982E+01  7.59869910E+00  7.59869910E+00 -1.51973982E+01  7.59869910E+00
  7.59869910E+00 -1.51973982E+01  7.59869910E+00  7.59869910E+00 -1.51973982E+01
  7.59869910E+00  7.59869910E+00 -1.51973982E+01  7.59869910E+00  7.59869910E+00
 -1.51973982E+01  7.59869910E+00  7.59869910E+00 -1.51973982E+01  7.59869910E+00
  7.59869910E+00 -1.51973982E+01  7.59869910E+00  7.59869910E+00 -1.51973982E+01
  7.59869910E+00  7.59869910E+00 -1.51973982E+01  7.59869910E+00  7.59869910E+00
 -1.51973982E+01  7.59869910E+00  7.59869910E+00 -1.51973982E+01  7.59869910E+00
  7.59869910E+00 -1.51973982E+01  7.59869910E+00  7.59869910E+00 -1.51973982E+01
  7.59869910E+00  7.59869910E+00 -1.51973982E+01  7.59869910E+00  7.59869910E+00
 -1.51973982E+01  7.59869910E+00  7.59869910E+00 -1.51973982E+01  7.59869910E+00
  7.59869910E+00 -1.51973982E+01  7.59869910E+00  7.59869910E+00 -1.51973982E+01
  7.59869910E+00  7.59869910E+00 -1.51973982E+01  7.59869910E+00  7.59869910E+00
 -1.51973982E+01  7.59869910E+00  7.59869910E+00 -1.51973982E+01  7.59869910E+00
  7.59869910E+00 -1.51973982E+01  7.59869910E+00  7.59869910E+00 -1.51973982E+01
  7.59869910E+00  7.59869910E+00 -1.51973982E+01  7.59869910E+00  7.59869910E+00
 -1.51973982E+01  7.59869910E+00  7.59869910E+00 -1.51973982E+01  7.59869910E+00
  7.59869910E+00 -1.51973982E+01  7.59869910E+00  7.59869910E+00 -1.51973982E+01
  7.59869910E+00  7.59869910E+00 -1.51973982E+01  7.59869910E+00  7.59869910E+00
 -1.51973982E+01  7.59869910E+00  7.59869910E+00 -1.51973982E+01  7.59869910E+00
  7.59869910E+00 -1.51973982E+01  7.59869910E+00  7.59869910E+00 -1.51973982E+01
  7.59869910E+00  7.59869910E+00 -1.51973982E+01  7.59869910E+00  7.59869910E+00
 -1.51973982E+01  7.59869910E+00  7.59869910E+00 -1.51973982E+01  7.59869910E+00
  7.59869910E+00 -1.51973982E+01  7.59869910E+00  7.59869910E+00 -1.51973982E+01
  7.59869910E+00  7.59869910E+00 -1.51973982E+01  7.59869910E+00  7.59869910E+00
 -1.51973982E+01  7.59869910E+00  7.59869910E+00 -1.51973982E+01  7.59869910E+00
  7.59869910E+00 -1.51973982E+01  7.59869910E+00  7.59869910E+00 -1.51973982E+01
  7.59869910E+00  7.59869910E+00 -1.51973982E+01  7.59869910E+00  7.59869910E+00
 -1.51973982E+01  7.59869910E+00  7.59869910E+00 -1.51973982E+01  7.59869910E+00
  7.59869910E+00 -1.51973982E+01  7.59869910E+00  7.59869910E+00 -1.51973982E+01
  7.59869910E+00  7.59869910E+00 -1.51973982E+01  7.59869910E+00  7.59869910E+00
 -1.51973982E+01  7.59869910E+00  7.59869910E+00 -1.51973982E+01  7.59869910E+00
  7.59869910E+00 -1.51973982E+01  7.59869910E+00  7.59869910E+00 -1.51973982E+01
  7.59869910E+00  7.59869910E+00 -1.51973982E+01  7.59869910E+00  7.59869910E+00
 -1.51973982E+01  7.59869910E+00  7.59869910E+00 -1.51973982E+01  7.59869910E+00
  7.59869910E+00 -1.51973982E+01  7.59869910E+00  7.59869910E+00 -1.51973982E+01
  7.59869910E+00  7.59869910E+00 -1.51973982E+01  7.59869910E+00  7.59869910E+00
 -1.51973982E+01  7.59869910E+00  7.59869910E+00 -1.51973982E+01  7.59869910E+00
  7.59869910E+00 -1.51973982E+01  7.59869910E+00  7.59869910E+00 -1.51973982E+01
  7.59869910E+00  7.59869910E+00 -1.51973982E+01  7.59869910E+00  7.59869910E+00
 -1.51973982E+01  7.59869910E+00  7.59869910E+00 -1.51973982E+01  7.59869910E+00
  7.59869910E+00 -1.51973982E+01  7.59869910E+00  7.59869910E+00 -1.51973982E+01
  7.59869910E+00  7.59869910E+00 -1.51973982E+01  7.59869910E+00  7.59869910E+00
 -1.51973982E+01  7.59869910E+00  7.59869910E+00 -1.51973982E+01  7.59869910E+00
  7.59869910E+00 -1.51973982E+01  7.59869910E+00  7.59869910E+00 -1.51973982E+01
  7.59869910E+00  7.59869910E+00 -1.51973982E+01  7.59869910E+00  7.59869910E+00
 -1.51973982E+01  7.59869910E+00  7.59869910E+00 -1.51973982E+01  7.59869910E+00
  7.59869910E+00 -1.51973982E+01  7.59869910E+00  7.59869910E+00 -1.51973982E+01
  7.59869910E+00  7.59869910E+00 -1.51973982E+01  7.59869910E+00  7.59869910E+00
 -1.51973982E+01  7.59869910E+00  7.59869910E+00 -1.51973982E+01  7.59869910E+00
  7.59869910E+00 -1.51973982E+01  7.59869910E+00  7.59869910E+00 -1.51973982E+01
  7.59869910E+00  7.59869910E+00 -1.51973982E+01  7.59869910E+00  7.59869910E+00
 -1.51973982E+01  7.59869910E+00  7.59869910E+00 -1.51973982E+01  7.59869910E+00
  7.59869910E+00 -1.51973982E+01  7.59869910E+00  7.59869910E+00 -1.51973982E+01
  7.59869910E+00  7.59869910E+00 -1.51973982E+01  7.59869910E+00  7.59869910E+00
 -1.51973982E+01  7.59869910E+00  7.59869910E+00 -1.51973982E+01  7.59869910E+00
  7.59869910E+00 -1.51973982E+01  7.59869910E+00  7.59869910E+00 -1.51973982E+01
  7.59869910E+00  7.59869910E+00 -1.51973982E+01  7.59869910E+00  7.59869910E+00
 -1.51973982E+01  7.59869910E+00  7.59869910E+00 -1.51973982E+01  7.59869910E+00
  7.59869910E+00 -1.51973982E+01  7.59869910E+00  7.59869910E+00 -1.51973982E+01
  7.59869910E+00  7.59869910E+00 -1.51973982E+01  7.59869910E+00  7.59869910E+00
 -1.51973982E+01  7.59869910E+00  7.59869910E+00 -1.51973982E+01  7.59869910E+00
  7.59869910E+00 -1.51973982E+01  7.59869910E+00  7.59869910E+00 -1.51973982E+01
  7.59869910E+00  7.59869910E+00 -1.51973982E+01  7.59869910E+00  7.59869910E+00
 -1.51973982E+01  7.59869910E+00  7.59869910E+00 -1.51973982E+01  7.59869910E+00
  7.59869910E+00 -1.51973982E+01  7.59869910E+00  7.59869910E+00 -1.51973982E+01
  7.59869910E+00  7.59869910E+00 -1.51973982E+01  7.59869910E+00  7.59869910E+00
 -1.51973982E+01  7.59869910E+00  7.59869910E+00 -1.51973982E+01  7.59869910E+00
  7.59869910E+00 -1.51973982E+01  7.59869910E+00  7.59869910E+00 -1.51973982E+01
  7.59869910E+00  7.59869910E+00 -1.51973982E+01  7.59869910E+00  7.59869910E+00
 -1.51973982E+01  7.59869910E+00  7.59869910E+00 -1.51973982E+01  7.59869910E+00
  7.59869910E+00 -1.51973982E+01  7.59869910E+00  7.59869910E+00 -1.51973982E+01
  7.59869910E+00  7.59869910E+00 -1.51973982E+01  7.59869910E+00  7.59869910E+00
 -1.51973982E+01  7.59869910E+00  7.59869910E+00 -1.51973982E+01  7.59869910E+00
  7.59869910E+00 -1.51973982E+01  7.59869910E+00  7.59869910E+00 -1.51973982E+01
  7.59869910E+00  7.59869910E+00 -1.51973982E+01  7.59869910E+00  7.59869910E+00
 -1.51973982E+01  7.59869910E+00  7.59869910E+00 -1.51973982E+01  7.59869910E+00
  7.59869910E+00 -1.51973982E+01  7.59869910E+00  7.59869910E+00 -1.51973982E+01
  7.59869910E+00  7.59869910E+00 -1.51973982E+01  7.59869910E+00  7.59869910E+00
 -1.51973982E+01  7.59869910E+00  7.59869910E+00 -1.51973982E+01  7.59869910E+00
  7.59869910E+00 -1.51973982E+01  7.59869910E+00  7.59869910E+00 -1.51973982E+01
  7.59869910E+00  7.59869910E+00 -1.51973982E+01  7.59869910E+00  7.59869910E+00
 -1.51973982E+01  7.59869910E+00  7.59869910E+00 -1.51973982E+01  7.59869910E+00
  7.59869910E+00 -1.51973982E+01  7.59869910E+00  7.59869910E+00 -1.51973982E+01
  7.59869910E+00  7.59869910E+00 -1.51973982E+01  7.59869910E+00  7.59869910E+00
 -1.51973982E+01  7.59869910E+00  7.59869910E+00 -1.51973982E+01  7.59869910E+00
  7.59869910E+00 -1.51973982E+01  7.59869910E+00  7.59869910E+00 -1.51973982E+01
  7.59869910E+00  7.59869910E+00 -1.51973982E+01  7.59869910E+00  7.59869910E+00
 -1.51973982E+01  7.59869910E+00  7.59869910E+00 -1.51973982E+01  7.59869910E+00
  7.59869910E+00 -1.51973982E+01  7.59869910E+00  7.59869910E+00 -1.51973982E+01
  7.59869910E+00  7.59869910E+00 -1.51973982E+01  7.59869910E+00  7.59869910E+00
 -1.51973982E+01  7.59869910E+00  7.59869910E+00 -1.51973982E+01  7.59869910E+00
  7.59869910E+00 -1.51973982E+01  7.59869910E+00  7.59869910E+00 -1.51973982E+01
  7.59869910E+00  7.59869910E+00 -1.51973982E+01  7.59869910E+00  7.59869910E+00
 -1.51973982E+01  7.59869910E+00  7.59869910E+00 -1.51973982E+01  7.59869910E+00
  7.59869910E+00 -1.51973982E+01  7.59869910E+00  7.59869910E+00 -1.51973982E+01
  7.59869910E+00  7.59869910E+00 -1.51973982E+01  7.59869910E+00  7.59869910E+00
 -1.51973982E+01  7.59869910E+00  7.59869910E+00 -1.51973982E+01  7.59869910E+00
  7.59869910E+00 -1.51973982E+01  7.59869910E+00  7.59869910E+00 -1.51973982E+01
  7.59869910E+00  7.59869910E+00 -1.51973982E+01  7.59869910E+00  7.59869910E+00
 -1.51973982E+01  7.59869910E+00  7.59869910E+00 -1.51973982E+01  7.59869910E+00
  7.59869910E+00 -1.51973982E+01  7.59869910E+00  7.59869910E+00 -1.51973982E+01
  7.59869910E+00  7.59869910E+00 -1.51973982E+01  7.59869910E+00  7.59869910E+00
 -1.51973982E+01  7.59869910E+00  7.59869910E+00 -1.51973982E+01  7.59869910E+00
  7.59869910E+00 -1.51973982E+01  7.59869910E+00  7.59869910E+00 -1.51973982E+01
  7.59869910E+00  7.59869910E+00 -1.51973982E+01  7.59869910E+00  7.59869910E+00
 -1.51973982E+01  7.59869910E+00  7.59869910E+00 -1.51973982E+01  7.59869910E+00
  7.59869910E+00 -1.51973982E+01  7.59869910E+00  7.59869910E+00 -1.51973982E+01
  7.59869910E+00  7.59869910E+00 -1.51973982E+01  7.59869910E+00  7.59869910E+00
 -1.51973982E+01  7.59869910E+00  7.59869910E+00 -1.51973982E+01  7.59869910E+00
  7.59869910E+00 -1.51973982E+01  7.59869910E+00  7.59869910E+00 -1.51973982E+01
  7.59869910E+00  7.59869910E+00 -1.51973982E+01  7.59869910E+00  7.59869910E+00
 -1.51973982E+01  7.59869910E+00  7.59869910E+00 -1.51973982E+01  7.59869910E+00
  7.59869910E+00 -1.51973982E+01  7.59869910E+00  7.59869910E+00 -1.51973982E+01
  7.59869910E+00  7.59869910E+00 -1.51973982E+01  7.59869910E+00  7.59869910E+00
 -1.51973982E+01  7.59869910E+00  7.59869910E+00 -1.51973982E+01  7.59869910E+00
  7.59869910E+00 -1.51973982E+01  7.59869910E+00  7.59869910E+00 -1.51973982E+01
  7.59869910E+00  7.59869910E+00 -1.51973982E+01  7.59869910E+00  7.59869910E+00
 -1.51973982E+01  7.59869910E+00  7.59869910E+00 -1.51973982E+01  7.59869910E+00
  7.59869910E+00 -1.51973982E+01  7.59869910E+00  7.59869910E+00 -1.51973982E+01
  7.59869910E+00  7.59869910E+00 -1.51973982E+01  7.59869910E+00  7.59869910E+00
 -1.51973982E+01  7.59869910E+00  7.59869910E+00 -1.51973982E+01  7.59869910E+00
  7.59869910E+00 -1.51973982E+01  7.59869910E+00  7.59869910E+00 -1.51973982E+01
  7.59869910E+00  7.59869910E+00 -1.51973982E+01  7.59869910E+00  7.59869910E+00
 -1.51973982E+01  7.59869910E+00  7.59869910E+00 -1.51973982E+01  7.59869910E+00
  7.59869910E+00 -1.51973982E+01  7.59869910E+00  7.59869910E+00 -1.51973982E+01
  7.59869910E+00  7.59869910E+00 -1.51973982E+01  7.59869910E+00  7.59869910E+00
 -1.51973982E+01  7.59869910E+00  7.59869910E+00 -1.51973982E+01  7.59869910E+00
  7.59869910E+00 -1.51973982E+01  7.59869910E+00  7.59869910E+00 -1.51973982E+01
  7.59869910E+00  7.59869910E+00 -1.51973982E+01  7.59869910E+00  7.59869910E+00
 -1.51973982E+01  7.59869910E+00  7.59869910E+00 -1.51973982E+01  7.59869910E+00
  7.59869910E+00 -1.51973982E+01  7.59869910E+00  7.59869910E+00 -1.51973982E+01
  7.59869910E+00  7.59869910E+00 -1.51973982E+01  7.59869910E+00  7.59869910E+00
 -1.51973982E+01  7.59869910E+00  7.59869910E+00 -1.51973982E+01  7.59869910E+00
  7.59869910E+00 -1.51973982E+01  7.59869910E+00  7.59869910E+00 -1.51973982E+01
  7.59869910E+00  7.59869910E+00 -1.51973982E+01  7.59869910E+00  7.59869910E+00
 -1.51973982E+01  7.59869910E+00  7.59869910E+00 -1.51973982E+01  7.59869910E+00
  7.59869910E+00 -1.51973982E+01  7.59869910E+00  7.59869910E+00 -1.51973982E+01
  7.59869910E+00  7.59869910E+00 -1.51973982E+01  7.59869910E+00  7.59869910E+00
 -1.51973982E+01  7.59869910E+00  7.59869910E+00 -1.51973982E+01  7.59869910E+00
  7.59869910E+00 -1.51973982E+01  7.59869910E+00  7.59869910E+00 -1.51973982E+01
  7.59869910E+00  7.59869910E+00 -1.51973982E+01  7.59869910E+00  7.59869910E+00
 -1.51973982E+01  7.59869910E+00  7.59869910E+00 -1.51973982E+01  7.59869910E+00
  7.59869910E+00 -1.51973982E+01  7.59869910E+00  7.59869910E+00 -1.51973982E+01
  7.59869910E+00  7.59869910E+00 -1.51973982E+01  7.59869910E+00  7.59869910E+00
 -1.51973982E+01  7.59869910E+00  7.59869910E+00 -1.51973982E+01  7.59869910E+00
  7.59869910E+00 -1.51973982E+01  7.59869910E+00  7.59869910E+00 -1.51973982E+01
  7.59869910E+00  7.59869910E+00 -1.51973982E+01  7.59869910E+00  7.59869910E+00
 -1.51973982E+01  7.59869910E+00  7.59869910E+00 -1.51973982E+01  7.59869910E+00
  7.59869910E+00 -1.51973982E+01  7.59869910E+00  7.59869910E+00 -1.51973982E+01
  7.59869910E+00  7.59869910E+00 -1.51973982E+01  7.59869910E+00  7.59869910E+00
 -1.51973982E+01  7.59869910E+00  7.59869910E+00 -1.51973982E+01  7.59869910E+00
  7.59869910E+00 -1.51973982E+01  7.59869910E+00  7.59869910E+00 -1.51973982E+01
  7.59869910E+00  7.59869910E+00 -1.51973982E+01  7.59869910E+00  7.59869910E+00
 -1.51973982E+01  7.59869910E+00  7.59869910E+00 -1.51973982E+01  7.59869910E+00
  7.59869910E+00 -1.51973982E+01  7.59869910E+00  7.59869910E+00 -1.51973982E+01
  7.59869910E+00  7.59869910E+00 -1.51973982E+01  7.59869910E+00  7.59869910E+00
 -1.51973982E+01  7.59869910E+00  7.59869910E+00 -1.51973982E+01  7.59869910E+00
  7.59869910E+00 -1.51973982E+01  7.59869910E+00  7.59869910E+00 -1.51973982E+01
  7.59869910E+00  7.59869910E+00 -1.51973982E+01  7.59869910E+00  7.59869910E+00
 -1.51973982E+01  7.59869910E+00  7.59869910E+00 -1.51973982E+01  7.59869910E+00
  7.59869910E+00 -1.51973982E+01  7.59869910E+00  7.59869910E+00 -1.51973982E+01
  7.59869910E+00  7.59869910E+00 -1.51973982E+01  7.59869910E+00  7.59869910E+00
 -1.51973982E+01  7.59869910E+00  7.59869910E+00 -1.51973982E+01  7.59869910E+00
  7.59869910E+00 -1.51973982E+01  7.59869910E+00  7.59869910E+00 -1.51973982E+01
  7.59869910E+00  7.59869910E+00 -1.51973982E+01  7.59869910E+00  7.59869910E+00
 -1.51973982E+01  7.59869910E+00  7.59869910E+00 -1.51973982E+01  7.59869910E+00
  7.59869910E+00 -1.51973982E+01  7.59869910E+00  7.59869910E+00 -1.51973982E+01
  7.59869910E+00  7.59869910E+00 -1.51973982E+01  7.59869910E+00  7.59869910E+00
 -1.51973982E+01  7.59869910E+00  7.59869910E+00 -1.51973982E+01  7.59869910E+00
  7.59869910E+00 -1.51973982E+01  7.59869910E+00  7.59869910E+00 -1.51973982E+01
  7.59869910E+00  7.59869910E+00 -1.51973982E+01  7.59869910E+00  7.59869910E+00
 -1.51973982E+01  7.59869910E+00  7.59869910E+00 -1.51973982E+01  7.59869910E+00
  7.59869910E+00 -1.51973982E+01  7.59869910E+00  7.59869910E+00 -1.51973982E+01
  7.59869910E+00  7.59869910E+00 -1.51973982E+01  7.59869910E+00  7.59869910E+00
 -1.51973982E+01  7.59869910E+00  7.59869910E+00 -1.51973982E+01  7.59869910E+00
  7.59869910E+00 -1.51973982E+01  7.59869910E+00  7.59869910E+00 -1.51973982E+01
  7.59869910E+00  7.59869910E+00 -1.51973982E+01  7.59869910E+00  7.59869910E+00
 -1.51973982E+01  7.59869910E+00  7.59869910E+00 -1.51973982E+01  7.59869910E+00
  7.59869910E+00 -1.51973982E+01  7.59869910E+00  7.59869910E+00 -1.51973982E+01
  7.59869910E+00  7.59869910E+00 -1.51973982E+01  7.59869910E+00  7.59869910E+00
 -1.51973982E+01  7.59869910E+00  7.59869910E+00 -1.51973982E+01  7.59869910E+00
  7.59869910E+00 -1.51973982E+01  7.59869910E+00  7.59869910E+00 -1.51973982E+01
  7.59869910E+00  7.59869910E+00 -1.51973982E+01  7.59869910E+00  7.59869910E+00
 -1.51973982E+01  7.59869910E+00  7.59869910E+00 -1.51973982E+01  7.59869910E+00
  7.59869910E+00 -1.51973982E+01  7.59869910E+00  7.59869910E+00 -1.51973982E+01
  7.59869910E+00  7.59869910E+00 -1.51973982E+01  7.59869910E+00  7.59869910E+00
 -1.51973982E+01  7.59869910E+00  7.59869910E+00 -1.51973982E+01  7.59869910E+00
  7.59869910E+00 -1.51973982E+01  7.59869910E+00  7.59869910E+00 -1.51973982E+01
  7.59869910E+00  7.59869910E+00 -1.51973982E+01  7.59869910E+00  7.59869910E+00
 -1.51973982E+01  7.59869910E+00  7.59869910E+00 -1.51973982E+01  7.59869910E+00
  7.59869910E+00 -1.51973982E+01  7.59869910E+00  7.59869910E+00 -1.51973982E+01
  7.59869910E+00  7.59869910E+00 -1.51973982E+01  7.59869910E+00  7.59869910E+00
 -1.51973982E+01  7.59869910E+00  7.59869910E+00 -1.51973982E+01  7.59869910E+00
  7.59869910E+00 -1.51973982E+01  7.59869910E+00  7.59869910E+00 -1.51973982E+01
  7.59869910E+00  7.59869910E+00 -1.51973982E+01  7.59869910E+00  7.59869910E+00
 -1.51973982E+01  7.59869910E+00  7.59869910E+00 -1.51973982E+01  7.59869910E+00
  7.59869910E+00 -1.51973982E+01  7.59869910E+00  7.59869910E+00 -1.51973982E+01
  7.59869910E+00  7.59869910E+00 -1.51973982E+01  7.59869910E+00  7.59869910E+00
 -1.51973982E+01  7.59869910E+00  7.59869910E+00 -1.51973982E+01  7.59869910E+00
  7.59869910E+00 -1.51973982E+01  7.59869910E+00  7.59869910E+00 -1.51973982E+01
  7.59869910E+00  7.59869910E+00 -1.51973982E+01  7.59869910E+00  7.59869910E+00
 -1.51973982E+01  7.59869910E+00  7.59869910E+00 -1.51973982E+01  7.59869910E+00
  7.59869910E+00 -1.51973982E+01  7.59869910E+00  7.59869910E+00 -1.51973982E+01
  7.59869910E+00  7.59869910E+00 -1.51973982E+01  7.59869910E+00  7.59869910E+00
 -1.51973982E+01  7.59869910E+00  7.59869910E+00 -1.51973982E+01  7.59869910E+00
  7.59869910E+00 -1.51973982E+01  7.59869910E+00  7.59869910E+00 -1.51973982E+01
  7.59869910E+00  7.59869910E+00 -1.51973982E+01  7.59869910E+00  7.59869910E+00
 -1.51973982E+01  7.59869910E+00  7.59869910E+00 -1.51973982E+01  7.59869910E+00
  7.59869910E+00 -1.51973982E+01  7.59869910E+00  7.59869910E+00 -1.51973982E+01
  7.59869910E+00  7.59869910E+00 -1.51973982E+01  7.59869910E+00  7.59869910E+00
 -1.51973982E+01  7.59869910E+00  7.59869910E+00 -1.51973982E+01  7.59869910E+00
  7.59869910E+00 -1.51973982E+01  7.59869910E+00  7.59869910E+00 -1.51973982E+01
  7.59869910E+00  7.59869910E+00 -1.51973982E+01  7.59869910E+00  7.59869910E+00
 -1.51973982E+01  7.59869910E+00  7.59869910E+00 -1.51973982E+01  7.59869910E+00
  7.59869910E+00 -1.51973982E+01  7.59869910E+00  7.59869910E+00 -1.51973982E+01
  7.59869910E+00  7.59869910E+00 -1.51973982E+01  7.59869910E+00  7.59869910E+00
 -1.51973982E+01  7.59869910E+00  7.59869910E+00 -1.51973982E+01  7.59869910E+00
  7.59869910E+00 -1.51973982E+01  7.59869910E+00  7.59869910E+00 -1.51973982E+01
  7.59869910E+00  7.59869910E+00 -1.51973982E+01  7.59869910E+00  7.59869910E+00
 -1.51973982E+01  7.59869910E+00  7.59869910E+00 -1.51973982E+01  7.59869910E+00
  7.59869910E+00 -1.51973982E+01  7.59869910E+00  7.59869910E+00 -1.51973982E+01
  7.59869910E+00  7.59869910E+00 -1.51973982E+01  7.59869910E+00  7.59869910E+00
 -1.51973982E+01  7.59869910E+00  7.59869910E+00 -1.51973982E+01  7.59869910E+00
  7.59869910E+00 -1.51973982E+01  7.59869910E+00  7.59869910E+00 -1.51973982E+01
  7.59869910E+00  7.59869910E+00 -1.51973982E+01  7.59869910E+00  7.59869910E+00
 -1.51973982E+01  7.59869910E+00  7.59869910E+00 -1.51973982E+01  7.59869910E+00
  7.59869910E+00 -1.51973982E+01  7.59869910E+00  7.59869910E+00 -1.51973982E+01
  7.59869910E+00  7.59869910E+00 -1.51973982E+01  7.59869910E+00  7.59869910E+00
 -1.51973982E+01  7.59869910E+00  7.59869910E+00 -1.51973982E+01  7.59869910E+00
  7.59869910E+00 -1.51973982E+01  7.59869910E+00  7.59869910E+00 -1.51973982E+01
  7.59869910E+00  7.59869910E+00 -1.51973982E+01  7.59869910E+00  7.59869910E+00
 -1.51973982E+01  7.59869910E+00  7.59869910E+00 -1.51973982E+01  7.59869910E+00
  7.59869910E+00 -1.51973982E+01  7.59869910E+00  7.59869910E+00 -1.51973982E+01
  7.59869910E+00  7.59869910E+00 -1.51973982E+01  7.59869910E+00  7.59869910E+00
 -1.51973982E+01  7.59869910E+00  7.59869910E+00 -1.51973982E+01  7.59869910E+00
  7.59869910E+00 -1.51973982E+01  7.59869910E+00  7.59869910E+00 -1.51973982E+01
  7.59869910E+00  7.59869910E+00 -1.51973982E+01  7.59869910E+00  7.59869910E+00
 -1.51973982E+01  7.59869910E+00  7.59869910E+00 -1.51973982E+01  7.59869910E+00
  7.59869910E+00 -1.51973982E+01  7.59869910E+00  7.59869910E+00 -1.51973982E+01
  7.59869910E+00  7.59869910E+00 -1.51973982E+01  7.59869910E+00  7.59869910E+00
 -1.51973982E+01  7.59869910E+00  7.59869910E+00 -1.51973982E+01  7.59869910E+00
  7.59869910E+00 -1.51973982E+01  7.59869910E+00  7.59869910E+00 -1.51973982E+01
  7.59869910E+00  7.59869910E+00 -1.51973982E+01  7.59869910E+00  7.59869910E+00
 -1.51973982E+01  7.59869910E+00  7.59869910E+00 -1.51973982E+01  7.59869910E+00
  7.59869910E+00 -1.51973982E+01  7.59869910E+00  7.59869910E+00 -1.51973982E+01
  7.59869910E+00  7.59869910E+00 -1.51973982E+01  7.59869910E+00  7.59869910E+00
 -1.51973982E+01  7.59869910E+00  7.59869910E+00 -1.51973982E+01  7.59869910E+00
  7.59869910E+00 -1.51973982E+01  7.59869910E+00  7.59869910E+00 -1.51973982E+01
  7.59869910E+00  7.59869910E+00 -1.51973982E+01  7.59869910E+00  7.59869910E+00
 -1.51973982E+01  7.59869910E+00  7.59869910E+00 -1.51973982E+01  7.59869910E+00
  7.59869910E+00 -1.51973982E+01  7.59869910E+00  7.59869910E+00 -1.51973982E+01
  7.59869910E+00  7.59869910E+00 -1.51973982E+01  7.59869910E+00  7.59869910E+00
 -1.51973982E+01  7.59869910E+00  7.59869910E+00 -1.51973982E+01  7.59869910E+00
  7.59869910E+00 -1.51973982E+01  7.59869910E+00  7.59869910E+00 -1.51973982E+01
  7.59869910E+00  7.59869910E+00 -1.51973982E+01  7.59869910E+00  7.59869910E+00
 -1.51973982E+01  7.59869910E+00  7.59869910E+00 -1.51973982E+01  7.59869910E+00
  7.59869910E+00 -1.51973982E+01  7.59869910E+00  7.59869910E+00 -1.51973982E+01
  7.59869910E+00  7.59869910E+00 -1.51973982E+01  7.59869910E+00  7.59869910E+00
 -1.51973982E+01  7.59869910E+00  7.59869910E+00 -1.51973982E+01  7.59869910E+00
  7.59869910E+00 -1.51973982E+01  7.59869910E+00  7.59869910E+00 -1.51973982E+01
  7.59869910E+00  7.59869910E+00 -1.51973982E+01  7.59869910E+00  7.59869910E+00
 -1.51973982E+01  7.59869910E+00  7.59869910E+00 -1.51973982E+01  7.59869910E+00
  7.59869910E+00 -1.51973982E+01  7.59869910E+00  7.59869910E+00 -1.51973982E+01
  7.59869910E+00  7.59869910E+00 -1.51973982E+01  7.59869910E+00  7.59869910E+00
 -1.51973982E+01  7.59869910E+00  7.59869910E+00 -1.51973982E+01  7.59869910E+00
  7.59869910E+00 -1.51973982E+01  7.59869910E+00  7.59869910E+00 -1.51973982E+01
  7.59869910E+00  7.59869910E+00 -1.51973982E+01  7.59869910E+00  7.59869910E+00
 -1.51973982E+01  7.59869910E+00  7.59869910E+00 -1.51973982E+01  7.59869910E+00
  7.59869910E+00 -1.51973982E+01  7.59869910E+00  7.59869910E+00 -1.51973982E+01
  7.59869910E+00  7.59869910E+00 -1.51973982E+01  7.59869910E+00  7.59869910E+00
 -1.51973982E+01  7.59869910E+00  7.59869910E+00 -1.51973982E+01  7.59869910E+00
  7.59869910E+00 -1.51973982E+01  7.59869910E+00  7.59869910E+00 -1.51973982E+01
  7.59869910E+00  7.59869910E+00 -1.51973982E+01  7.59869910E+00  7.59869910E+00
 -1.51973982E+01  7.59869910E+00  7.59869910E+00 -1.51973982E+01  7.59869910E+00
  7.59869910E+00 -1.51973982E+01  7.59869910E+00  7.59869910E+00 -1.51973982E+01
  7.59869910E+00  7.59869910E+00 -1.51973982E+01  7.59869910E+00  7.59869910E+00
 -1.51973982E+01  7.59869910E+00  7.59869910E+00 -1.51973982E+01  7.59869910E+00
  7.59869910E+00 -1.51973982E+01  7.59869910E+00  7.59869910E+00 -1.51973982E+01
  7.59869910E+00  7.59869910E+00 -1.51973982E+01  7.59869910E+00  7.59869910E+00
 -1.51973982E+01  7.59869910E+00  7.59869910E+00 -1.51973982E+01  7.59869910E+00
  7.59869910E+00 -1.51973982E+01  7.59869910E+00  7.59869910E+00 -1.51973982E+01
  7.59869910E+00  7.59869910E+00 -1.51973982E+01  7.59869910E+00  7.59869910E+00
 -1.51973982E+01  7.59869910E+00  7.59869910E+00 -1.51973982E+01  7.59869910E+00
  7.59869910E+00 -1.51973982E+01  7.59869910E+00  7.59869910E+00 -1.51973982E+01
  7.59869910E+00  7.59869910E+00 -1.51973982E+01  7.59869910E+00  7.59869910E+00
 -1.51973982E+01  7.59869910E+00  7.59869910E+00 -1.51973982E+01  7.59869910E+00
  7.59869910E+00 -1.51973982E+01  7.59869910E+00  7.59869910E+00 -1.51973982E+01
  7.59869910E+00  7.59869910E+00 -1.51973982E+01  7.59869910E+00  7.59869910E+00
 -1.51973982E+01  7.59869910E+00  7.59869910E+00 -1.51973982E+01  7.59869910E+00
  7.59869910E+00 -1.51973982E+01  7.59869910E+00  7.59869910E+00 -1.51973982E+01
  7.59869910E+00  7.59869910E+00 -1.51973982E+01  7.59869910E+00  7.59869910E+00
 -1.51973982E+01  7.59869910E+00  7.59869910E+00 -1.51973982E+01  7.59869910E+00
  7.59869910E+00 -1.51973982E+01  7.59869910E+00  7.59869910E+00 -1.51973982E+01
  7.59869910E+00  7.59869910E+00 -1.51973982E+01  7.59869910E+00  7.59869910E+00
 -1.51973982E+01  7.59869910E+00  7.59869910E+00 -1.51973982E+01  7.59869910E+00
  7.59869910E+00 -1.51973982E+01  7.59869910E+00  7.59869910E+00 -1.51973982E+01
  7.59869910E+00  7.59869910E+00 -1.51973982E+01  7.59869910E+00  7.59869910E+00
 -1.51973982E+01  7.59869910E+00  7.59869910E+00 -1.51973982E+01  7.59869910E+00
  7.59869910E+00 -1.51973982E+01  7.59869910E+00  7.59869910E+00 -1.51973982E+01
  7.59869910E+00  7.59869910E+00 -1.51973982E+01  7.59869910E+00  7.59869910E+00
 -1.51973982E+01  7.59869910E+00  7.59869910E+00 -1.51973982E+01  7.59869910E+00
  7.59869910E+00 -1.51973982E+01  7.59869910E+00  7.59869910E+00 -1.51973982E+01
  7.59869910E+00  7.59869910E+00 -1.51973982E+01  7.59869910E+00  7.59869910E+00
 -1.51973982E+01  7.59869910E+00  7.59869910E+00 -1.51973982E+01  7.59869910E+00
  7.59869910E+00 -1.51973982E+01  7.59869910E+00  7.59869910E+00 -1.51973982E+01
  7.59869910E+00  7.59869910E+00 -1.51973982E+01  7.59869910E+00  7.59869910E+00
 -1.51973982E+01  7.59869910E+00  7.59869910E+00 -1.51973982E+01  7.59869910E+00
  7.59869910E+00 -1.51973982E+01  7.59869910E+00  7.59869910E+00 -1.51973982E+01
  7.59869910E+00  7.59869910E+00 -1.51973982E+01  7.59869910E+00  7.59869910E+00
 -1.51973982E+01  7.59869910E+00  7.59869910E+00 -1.51973982E+01  7.59869910E+00
  7.59869910E+00 -1.51973982E+01  7.59869910E+00  7.59869910E+00 -1.51973982E+01
  7.59869910E+00  7.59869910E+00 -1.51973982E+01  7.59869910E+00  7.59869910E+00
 -1.51973982E+01  7.59869910E+00  7.59869910E+00 -1.51973982E+01  7.59869910E+00
  7.59869910E+00 -1.51973982E+01  7.59869910E+00  7.59869910E+00 -1.51973982E+01
  7.59869910E+00  7.59869910E+00 -1.51973982E+01  7.59869910E+00  7.59869910E+00
 -1.51973982E+01  7.59869910E+00  7.59869910E+00 -1.51973982E+01  7.59869910E+00
  7.59869910E+00 -1.51973982E+01  7.59869910E+00  7.59869910E+00 -1.51973982E+01
  7.59869910E+00  7.59869910E+00 -1.51973982E+01  7.59869910E+00  7.59869910E+00
 -1.51973982E+01  7.59869910E+00  7.59869910E+00 -1.51973982E+01  7.59869910E+00
  7.59869910E+00 -1.51973982E+01  7.59869910E+00  7.59869910E+00 -1.51973982E+01
  7.59869910E+00  7.59869910E+00 -1.51973982E+01  7.59869910E+00  7.59869910E+00
 -1.51973982E+01  7.59869910E+00  7.59869910E+00 -1.51973982E+01  7.59869910E+00
  7.59869910E+00 -1.51973982E+01  7.59869910E+00  7.59869910E+00 -1.51973982E+01
  7.59869910E+00  7.59869910E+00 -1.51973982E+01  7.59869910E+00  7.59869910E+00
 -1.51973982E+01  7.59869910E+00  7.59869910E+00 -1.51973982E+01  7.59869910E+00
  7.59869910E+00 -1.51973982E+01  7.59869910E+00  7.59869910E+00 -1.51973982E+01
  7.59869910E+00  7.59869910E+00 -1.51973982E+01  7.59869910E+00  7.59869910E+00
 -1.51973982E+01  7.59869910E+00  7.59869910E+00 -1.51973982E+01  7.59869910E+00
  7.59869910E+00 -1.51973982E+01  7.59869910E+00  7.59869910E+00 -1.51973982E+01
  7.59869910E+00  7.59869910E+00 -1.51973982E+01  7.59869910E+00  7.59869910E+00
 -1.51973982E+01  7.59869910E+00  7.59869910E+00 -1.51973982E+01  7.59869910E+00
  7.59869910E+00 -1.51973982E+01  7.59869910E+00  7.59869910E+00 -1.51973982E+01
  7.59869910E+00  7.59869910E+00 -1.51973982E+01  7.59869910E+00  7.59869910E+00
 -1.51973982E+01  7.59869910E+00  7.59869910E+00 -1.51973982E+01  7.59869910E+00
  7.59869910E+00 -1.51973982E+01  7.59869910E+00  7.59869910E+00 -1.51973982E+01
  7.59869910E+00  7.59869910E+00 -1.51973982E+01  7.59869910E+00  7.59869910E+00
 -1.51973982E+01  7.59869910E+00  7.59869910E+00 -1.51973982E+01  7.59869910E+00
  7.59869910E+00 -1.51973982E+01  7.59869910E+00  7.59869910E+00 -1.51973982E+01
  7.59869910E+00  7.59869910E+00 -1.51973982E+01  7.59869910E+00  7.59869910E+00
 -1.51973982E+01  7.59869910E+00  7.59869910E+00 -1.51973982E+01  7.59869910E+00
  7.59869910E+00 -1.51973982E+01  7.59869910E+00  7.59869910E+00 -1.51973982E+01
  7.59869910E+00  7.59869910E+00 -1.51973982E+01  7.59869910E+00  7.59869910E+00
 -1.51973982E+01  7.59869910E+00  7.59869910E+00 -1.51973982E+01  7.59869910E+00
  7.59869910E+00 -1.51973982E+01  7.59869910E+00  7.59869910E+00 -1.51973982E+01
  7.59869910E+00  7.59869910E+00 -1.51973982E+01  7.59869910E+00  7.59869910E+00
 -1.51973982E+01  7.59869910E+00  7.59869910E+00 -1.51973982E+01  7.59869910E+00
  7.59869910E+00 -1.51973982E+01  7.59869910E+00  7.59869910E+00 -1.51973982E+01
  7.59869910E+00  7.59869910E+00 -1.51973982E+01  7.59869910E+00  7.59869910E+00
 -1.51973982E+01  7.59869910E+00  7.59869910E+00 -1.51973982E+01  7.59869910E+00
  7.59869910E+00 -1.51973982E+01  7.59869910E+00  7.59869910E+00 -1.51973982E+01
  7.59869910E+00  7.59869910E+00 -1.51973982E+01  7.59869910E+00  7.59869910E+00
 -1.51973982E+01  7.59869910E+00  7.59869910E+00 -1.51973982E+01  7.59869910E+00
  7.59869910E+00 -1.51973982E+01  7.59869910E+00  7.59869910E+00 -1.51973982E+01
  7.59869910E+00  7.59869910E+00 -1.51973982E+01  7.59869910E+00  7.59869910E+00
 -1.51973982E+01  7.59869910E+00  7.59869910E+00 -1.51973982E+01  7.59869910E+00
  7.59869910E+00 -1.51973982E+01  7.59869910E+00  7.59869910E+00 -1.51973982E+01
  7.59869910E+00  7.59869910E+00 -1.51973982E+01  7.59869910E+00  7.59869910E+00
 -1.51973982E+01  7.59869910E+00  7.59869910E+00 -1.51973982E+01  7.59869910E+00
  7.59869910E+00 -1.51973982E+01  7.59869910E+00  7.59869910E+00 -1.51973982E+01
  7.59869910E+00  7.59869910E+00 -1.51973982E+01  7.59869910E+00  7.59869910E+00
 -1.51973982E+01  7.59869910E+00  7.59869910E+00 -1.51973982E+01  7.59869910E+00
  7.59869910E+00 -1.51973982E+01  7.59869910E+00  7.59869910E+00 -1.51973982E+01
  7.59869910E+00  7.59869910E+00 -1.51973982E+01  7.59869910E+00  7.59869910E+00
 -1.51973982E+01  7.59869910E+00  7.59869910E+00 -1.51973982E+01  7.59869910E+00
  7.59869910E+00 -1.51973982E+01  7.59869910E+00  7.59869910E+00 -1.51973982E+01
  7.59869910E+00  7.59869910E+00 -1.51973982E+01  7.59869910E+00  7.59869910E+00
 -1.51973982E+01  7.59869910E+00  7.59869910E+00 -1.51973982E+01  7.59869910E+00
  7.59869910E+00 -1.51973982E+01  7.59869910E+00  7.59869910E+00 -1.51973982E+01
  7.59869910E+00  7.59869910E+00 -1.51973982E+01  7.59869910E+00  7.59869910E+00
 -1.51973982E+01  7.59869910E+00  7.59869910E+00 -1.51973982E+01  7.59869910E+00
  7.59869910E+00 -1.51973982E+01  7.59869910E+00  7.59869910E+00 -1.51973982E+01
  7.59869910E+00  7.59869910E+00 -1.51973982E+01  7.59869910E+00  7.59869910E+00
 -1.51973982E+01  7.59869910E+00  7.59869910E+00 -1.51973982E+01  7.59869910E+00
  7.59869910E+00 -1.51973982E+01  7.59869910E+00  7.59869910E+00 -1.51973982E+01
  7.59869910E+00  7.59869910E+00 -1.51973982E+01  7.59869910E+00  7.59869910E+00
 -1.51973982E+01  7.59869910E+00  7.59869910E+00 -1.51973982E+01  7.59869910E+00
  7.59869910E+00 -1.51973982E+01  7.59869910E+00  7.59869910E+00 -1.51973982E+01
  7.59869910E+00  7.59869910E+00 -1.51973982E+01  7.59869910E+00  7.59869910E+00
 -1.51973982E+01  7.59869910E+00  7.59869910E+00 -1.51973982E+01  7.59869910E+00
  7.59869910E+00 -1.51973982E+01  7.59869910E+00  7.59869910E+00 -1.51973982E+01
  7.59869910E+00  7.59869910E+00 -1.51973982E+01  7.59869910E+00  7.59869910E+00
 -1.51973982E+01  7.59869910E+00  7.59869910E+00 -1.51973982E+01  7.59869910E+00
  7.59869910E+00 -1.51973982E+01  7.59869910E+00  7.59869910E+00 -1.51973982E+01
  7.59869910E+00  7.59869910E+00 -1.51973982E+01  7.59869910E+00  7.59869910E+00
 -1.51973982E+01  7.59869910E+00  7.59869910E+00 -1.51973982E+01  7.59869910E+00
  7.59869910E+00 -1.51973982E+01  7.59869910E+00  7.59869910E+00 -1.51973982E+01
  7.59869910E+00  7.59869910E+00 -1.51973982E+01  7.59869910E+00  7.59869910E+00
 -1.51973982E+01  7.59869910E+00  7.59869910E+00 -1.51973982E+01  7.59869910E+00
  7.59869910E+00 -1.51973982E+01  7.59869910E+00  7.59869910E+00 -1.51973982E+01
  7.59869910E+00  7.59869910E+00 -1.51973982E+01  7.59869910E+00  7.59869910E+00
 -1.51973982E+01  7.59869910E+00  7.59869910E+00 -1.51973982E+01  7.59869910E+00
  7.59869910E+00 -1.51973982E+01  7.59869910E+00  7.59869910E+00 -1.51973982E+01
  7.59869910E+00  7.59869910E+00 -1.51973982E+01  7.59869910E+00  7.59869910E+00
 -1.51973982E+01  7.59869910E+00  7.59869910E+00 -1.51973982E+01  7.59869910E+00
  7.59869910E+00 -1.51973982E+01  7.59869910E+00  7.59869910E+00 -1.51973982E+01
  7.59869910E+00  7.59869910E+00 -1.51973982E+01  7.59869910E+00  7.59869910E+00
 -1.51973982E+01  7.59869910E+00  7.59869910E+00 -1.51973982E+01  7.59869910E+00
  7.59869910E+00 -1.51973982E+01  7.59869910E+00  7.59869910E+00 -1.51973982E+01
  7.59869910E+00  7.59869910E+00 -1.51973982E+01  7.59869910E+00  7.59869910E+00
 -1.51973982E+01  7.59869910E+00  7.59869910E+00 -1.51973982E+01  7.59869910E+00
  7.59869910E+00 -1.51973982E+01  7.59869910E+00  7.59869910E+00 -1.51973982E+01
  7.59869910E+00  7.59869910E+00 -1.51973982E+01  7.59869910E+00  7.59869910E+00
 -1.51973982E+01  7.59869910E+00  7.59869910E+00 -1.51973982E+01  7.59869910E+00
  7.59869910E+00 -1.51973982E+01  7.59869910E+00  7.59869910E+00 -1.51973982E+01
  7.59869910E+00  7.59869910E+00 -1.51973982E+01  7.59869910E+00  7.59869910E+00
 -1.51973982E+01  7.59869910E+00  7.59869910E+00 -1.51973982E+01  7.59869910E+00
  7.59869910E+00 -1.51973982E+01  7.59869910E+00  7.59869910E+00 -1.51973982E+01
  7.59869910E+00  7.59869910E+00 -1.51973982E+01  7.59869910E+00  7.59869910E+00
 -1.51973982E+01  7.59869910E+00  7.59869910E+00 -1.51973982E+01  7.59869910E+00
  7.59869910E+00 -1.51973982E+01  7.59869910E+00  7.59869910E+00 -1.51973982E+01
  7.59869910E+00  7.59869910E+00 -1.51973982E+01  7.59869910E+00  7.59869910E+00
 -1.51973982E+01  7.59869910E+00  7.59869910E+00 -1.51973982E+01  7.59869910E+00
  7.59869910E+00 -1.51973982E+01  7.59869910E+00  7.59869910E+00 -1.51973982E+01
  7.59869910E+00  7.59869910E+00 -1.51973982E+01  7.59869910E+00  7.59869910E+00
 -1.51973982E+01  7.59869910E+00  7.59869910E+00 -1.51973982E+01  7.59869910E+00
  7.59869910E+00 -1.51973982E+01  7.59869910E+00  7.59869910E+00 -1.51973982E+01
  7.59869910E+00  7.59869910E+00 -1.51973982E+01  7.59869910E+00  7.59869910E+00
 -1.51973982E+01  7.59869910E+00  7.59869910E+00 -1.51973982E+01  7.59869910E+00
  7.59869910E+00 -1.51973982E+01  7.59869910E+00  7.59869910E+00 -1.51973982E+01
  7.59869910E+00  7.59869910E+00 -1.51973982E+01  7.59869910E+00  7.59869910E+00
 -1.51973982E+01  7.59869910E+00  7.59869910E+00 -1.51973982E+01  7.59869910E+00
  7.59869910E+00 -1.51973982E+01  7.59869910E+00  7.59869910E+00 -1.51973982E+01
  7.59869910E+00  7.59869910E+00 -1.51973982E+01  7.59869910E+00  7.59869910E+00
 -1.51973982E+01  7.59869910E+00  7.59869910E+00 -1.51973982E+01  7.59869910E+00
  7.59869910E+00 -1.51973982E+01  7.59869910E+00  7.59869910E+00 -1.51973982E+01
  7.59869910E+00  7.59869910E+00 -1.51973982E+01  7.59869910E+00  7.59869910E+00
 -1.51973982E+01  7.59869910E+00  7.59869910E+00 -1.51973982E+01  7.59869910E+00
  7.59869910E+00 -1.51973982E+01  7.59869910E+00  7.59869910E+00 -1.51973982E+01
  7.59869910E+00  7.59869910E+00 -1.51973982E+01  7.59869910E+00  7.59869910E+00
 -1.51973982E+01  7.59869910E+00  7.59869910E+00 -1.51973982E+01  7.59869910E+00
  7.59869910E+00 -1.51973982E+01  7.59869910E+00  7.59869910E+00 -1.51973982E+01
  7.59869910E+00  7.59869910E+00 -1.51973982E+01  7.59869910E+00  7.59869910E+00
 -1.51973982E+01  7.59869910E+00  7.59869910E+00 -1.51973982E+01  7.59869910E+00
  7.59869910E+00 -1.51973982E+01  7.59869910E+00  7.59869910E+00 -1.51973982E+01
  7.59869910E+00  7.59869910E+00 -1.51973982E+01  7.59869910E+00  7.59869910E+00
 -1.51973982E+01  7.59869910E+00  7.59869910E+00 -1.51973982E+01  7.59869910E+00
  7.59869910E+00 -1.51973982E+01  7.59869910E+00  7.59869910E+00 -1.51973982E+01
  7.59869910E+00  7.59869910E+00 -1.51973982E+01  7.59869910E+00  7.59869910E+00
 -1.51973982E+01  7.59869910E+00  7.59869910E+00 -1.51973982E+01  7.59869910E+00
  7.59869910E+00 -1.51973982E+01  7.59869910E+00  7.59869910E+00 -1.51973982E+01
  7.59869910E+00  7.59869910E+00 -1.51973982E+01  7.59869910E+00  7.59869910E+00
 -1.51973982E+01  7.59869910E+00  7.59869910E+00 -1.51973982E+01  7.59869910E+00
  7.59869910E+00 -1.51973982E+01  7.59869910E+00  7.59869910E+00 -1.51973982E+01
  7.59869910E+00  7.59869910E+00 -1.51973982E+01  7.59869910E+00  7.59869910E+00
 -1.51973982E+01  7.59869910E+00  7.59869910E+00 -1.51973982E+01  7.59869910E+00
  7.59869910E+00 -1.51973982E+01  7.59869910E+00  7.59869910E+00 -1.51973982E+01
  7.59869910E+00  7.59869910E+00 -1.51973982E+01  7.59869910E+00  7.59869910E+00
 -1.51973982E+01  7.59869910E+00  7.59869910E+00 -1.51973982E+01  7.59869910E+00
  7.59869910E+00 -1.51973982E+01  7.59869910E+00  7.59869910E+00 -1.51973982E+01
  7.59869910E+00  7.59869910E+00 -1.51973982E+01  7.59869910E+00  7.59869910E+00
 -1.51973982E+01  7.59869910E+00  7.59869910E+00 -1.51973982E+01  7.59869910E+00
  7.59869910E+00 -1.51973982E+01  7.59869910E+00  7.59869910E+00 -1.51973982E+01
  7.59869910E+00  7.59869910E+00 -1.51973982E+01  7.59869910E+00  7.59869910E+00
 -1.51973982E+01  7.59869910E+00  7.59869910E+00 -1.51973982E+01  7.59869910E+00
  7.59869910E+00 -1.51973982E+01  7.59869910E+00  7.59869910E+00 -1.51973982E+01
  7.59869910E+00  7.59869910E+00 -1.51973982E+01  7.59869910E+00  7.59869910E+00
 -1.51973982E+01  7.59869910E+00  7.59869910E+00 -1.51973982E+01  7.59869910E+00
  7.59869910E+00 -1.51973982E+01  7.59869910E+00  7.59869910E+00 -1.51973982E+01
  7.59869910E+00  7.59869910E+00 -1.51973982E+01  7.59869910E+00  7.59869910E+00
 -1.51973982E+01  7.59869910E+00  7.59869910E+00 -1.51973982E+01  7.59869910E+00
  7.59869910E+00 -1.51973982E+01  7.59869910E+00  7.59869910E+00 -1.51973982E+01
  7.59869910E+00  7.59869910E+00 -1.51973982E+01  7.59869910E+00  7.59869910E+00
 -1.51973982E+01  7.59869910E+00  7.59869910E+00 -1.51973982E+01  7.59869910E+00
  7.59869910E+00 -1.51973982E+01  7.59869910E+00  7.59869910E+00 -1.51973982E+01
  7.59869910E+00  7.59869910E+00 -1.51973982E+01  7.59869910E+00  7.59869910E+00
 -1.51973982E+01  7.59869910E+00  7.59869910E+00 -1.51973982E+01  7.59869910E+00
  7.59869910E+00 -1.51973982E+01  7.59869910E+00  7.59869910E+00 -1.51973982E+01
  7.59869910E+00  7.59869910E+00 -1.51973982E+01  7.59869910E+00  7.59869910E+00
 -1.51973982E+01  7.59869910E+00  7.59869910E+00 -1.51973982E+01  7.59869910E+00
  7.59869910E+00 -1.51973982E+01  7.59869910E+00  7.59869910E+00 -1.51973982E+01
  7.59869910E+00  7.59869910E+00 -1.51973982E+01  7.59869910E+00  7.59869910E+00
 -1.51973982E+01  7.59869910E+00  7.59869910E+00 -1.51973982E+01  7.59869910E+00
  7.59869910E+00 -1.51973982E+01  7.59869910E+00  7.59869910E+00 -1.51973982E+01
  7.59869910E+00  7.59869910E+00 -1.51973982E+01  7.59869910E+00  7.59869910E+00
 -1.51973982E+01  7.59869910E+00  7.59869910E+00 -1.51973982E+01  7.59869910E+00
  7.59869910E+00 -1.51973982E+01  7.59869910E+00  7.59869910E+00 -1.51973982E+01
  7.59869910E+00  7.59869910E+00 -1.51973982E+01  7.59869910E+00  7.59869910E+00
 -1.51973982E+01  7.59869910E+00  7.59869910E+00 -1.51973982E+01  7.59869910E+00
  7.59869910E+00 -1.51973982E+01  7.59869910E+00  7.59869910E+00 -1.51973982E+01
  7.59869910E+00  7.59869910E+00 -1.51973982E+01  7.59869910E+00  7.59869910E+00
 -1.51973982E+01  7.59869910E+00  7.59869910E+00 -1.51973982E+01  7.59869910E+00
  7.59869910E+00 -1.51973982E+01  7.59869910E+00  7.59869910E+00 -1.51973982E+01
  7.59869910E+00  7.59869910E+00 -1.51973982E+01  7.59869910E+00  7.59869910E+00
 -1.51973982E+01  7.59869910E+00  7.59869910E+00 -1.51973982E+01  7.59869910E+00
  7.59869910E+00 -1.51973982E+01  7.59869910E+00  7.59869910E+00 -1.51973982E+01
  7.59869910E+00  7.59869910E+00 -1.51973982E+01  7.59869910E+00  7.59869910E+00
 -1.51973982E+01  7.59869910E+00  7.59869910E+00 -1.51973982E+01  7.59869910E+00
  7.59869910E+00 -1.51973982E+01  7.59869910E+00  7.59869910E+00 -1.51973982E+01
  7.59869910E+00  7.59869910E+00 -1.51973982E+01  7.59869910E+00  7.59869910E+00
 -1.51973982E+01  7.59869910E+00  7.59869910E+00 -1.51973982E+01  7.59869910E+00
  7.59869910E+00 -1.51973982E+01  7.59869910E+00  7.59869910E+00 -1.51973982E+01
  7.59869910E+00  7.59869910E+00 -1.51973982E+01  7.59869910E+00  7.59869910E+00
 -1.51973982E+01  7.59869910E+00  7.59869910E+00 -1.51973982E+01  7.59869910E+00
  7.59869910E+00 -1.51973982E+01  7.59869910E+00  7.59869910E+00 -1.51973982E+01
  7.59869910E+00  7.59869910E+00 -1.51973982E+01  7.59869910E+00  7.59869910E+00
 -1.51973982E+01  7.59869910E+00  7.59869910E+00 -1.51973982E+01  7.59869910E+00
  7.59869910E+00 -1.51973982E+01  7.59869910E+00  7.59869910E+00 -1.51973982E+01
  7.59869910E+00  7.59869910E+00 -1.51973982E+01  7.59869910E+00  7.59869910E+00
 -1.51973982E+01  7.59869910E+00  7.59869910E+00 -1.51973982E+01  7.59869910E+00
  7.59869910E+00 -1.51973982E+01  7.59869910E+00  7.59869910E+00 -1.51973982E+01
  7.59869910E+00  7.59869910E+00 -1.51973982E+01  7.59869910E+00  7.59869910E+00
 -1.51973982E+01  7.59869910E+00  7.59869910E+00 -1.51973982E+01  7.59869910E+00
  7.59869910E+00 -1.51973982E+01  7.59869910E+00  7.59869910E+00 -1.51973982E+01
  7.59869910E+00  7.59869910E+00 -1.51973982E+01  7.59869910E+00  7.59869910E+00
 -1.51973982E+01  7.59869910E+00  7.59869910E+00 -1.51973982E+01  7.59869910E+00
  7.59869910E+00 -1.51973982E+01  7.59869910E+00  7.59869910E+00 -1.51973982E+01
  7.59869910E+00  7.59869910E+00 -1.51973982E+01  7.59869910E+00  7.59869910E+00
 -1.51973982E+01  7.59869910E+00  7.59869910E+00 -1.51973982E+01  7.59869910E+00
  7.59869910E+00 -1.51973982E+01  7.59869910E+00  7.59869910E+00 -1.51973982E+01
  7.59869910E+00  7.59869910E+00 -1.51973982E+01  7.59869910E+00  7.59869910E+00
 -1.51973982E+01  7.59869910E+00  7.59869910E+00 -1.51973982E+01  7.59869910E+00
  7.59869910E+00 -1.51973982E+01  7.59869910E+00  7.59869910E+00 -1.51973982E+01
  7.59869910E+00  7.59869910E+00 -1.51973982E+01  7.59869910E+00  7.59869910E+00
 -1.51973982E+01  7.59869910E+00  7.59869910E+00 -1.51973982E+01  7.59869910E+00
  7.59869910E+00 -1.51973982E+01  7.59869910E+00  7.59869910E+00 -1.51973982E+01
  7.59869910E+00  7.59869910E+00 -1.51973982E+01  7.59869910E+00  7.59869910E+00
 -1.51973982E+01  7.59869910E+00  7.59869910E+00 -1.51973982E+01  7.59869910E+00
  7.59869910E+00 -1.51973982E+01  7.59869910E+00  7.59869910E+00 -1.51973982E+01
  7.59869910E+00  7.59869910E+00 -1.51973982E+01  7.59869910E+00  7.59869910E+00
 -1.51973982E+01  7.59869910E+00  7.59869910E+00 -1.51973982E+01  7.59869910E+00
  7.59869910E+00 -1.51973982E+01  7.59869910E+00  7.59869910E+00 -1.51973982E+01
  7.59869910E+00  7.59869910E+00 -1.51973982E+01  7.59869910E+00  7.59869910E+00
 -1.51973982E+01  7.59869910E+00  7.59869910E+00 -1.51973982E+01  7.59869910E+00
  7.59869910E+00 -1.51973982E+01  7.59869910E+00  7.59869910E+00 -1.51973982E+01
  7.59869910E+00  7.59869910E+00 -1.51973982E+01  7.59869910E+00  7.59869910E+00
 -1.51973982E+01  7.59869910E+00  7.59869910E+00 -1.51973982E+01  7.59869910E+00
  7.59869910E+00 -1.51973982E+01  7.59869910E+00  7.59869910E+00 -1.51973982E+01
  7.59869910E+00  7.59869910E+00 -1.51973982E+01  7.59869910E+00  7.59869910E+00
 -1.51973982E+01  7.59869910E+00  7.59869910E+00 -1.51973982E+01  7.59869910E+00
  7.59869910E+00 -1.51973982E+01  7.59869910E+00  7.59869910E+00 -1.51973982E+01
  7.59869910E+00  7.59869910E+00 -1.51973982E+01  7.59869910E+00  7.59869910E+00
 -1.51973982E+01  7.59869910E+00  7.59869910E+00 -1.51973982E+01  7.59869910E+00
  7.59869910E+00 -1.51973982E+01  7.59869910E+00  7.59869910E+00 -1.51973982E+01
  7.59869910E+00  7.59869910E+00 -1.51973982E+01  7.59869910E+00  7.59869910E+00
 -1.51973982E+01  7.59869910E+00  7.59869910E+00 -1.51973982E+01  7.59869910E+00
  7.59869910E+00 -1.51973982E+01  7.59869910E+00  7.59869910E+00 -1.51973982E+01
  7.59869910E+00  7.59869910E+00 -1.51973982E+01  7.59869910E+00  7.59869910E+00
%FLAG ATOMIC_NUMBER                                                             
%FORMAT(10I8)                                                                   
       6       6       6       6       6       6       6       6       6       6
       6       6       6       6       6       6       1       1       1       1
       1       1       1       1       1       1       6       1       1       8
       6       6       1       6       6       6       6       6       6       1
       7       6       6       6       6       8       6       6       8       6
       6       8       8       6       8       6       8       6       8       1
       1       1       1       1       1       1       1       1       1       1
       1       1       1       1       1       1       1       1       1       1
       1       1       1       1       8       6       6       1       6       6
       6       6       6       6       1       7       6       6       6       6
       8       6       6       8       6       6       8       8       6       8
       6       8       6       8       1       1       1       1       1       1
       1       1       1       1       1       1       1       1       1       1
       1       1       1       1       1       1       1       1       1       8
       6       6       1       6       6       6       6       6       6       1
       7       6       6       6       6       8       6       6       8       6
       6       8       8       6       8       6       8       6       8       1
       1       1       1       1       1       1       1       1       1       1
       1       1       1       1       1       1       1       1       1       1
       1       1       1       1       8       6       6       1       6       6
       6       6       6       6       1       7       6       6       6       6
       8       6       6       8       6       6       8       8       6       8
       6       8       6       8       1       1       1       1       1       1
       1       1       1       1       1       1       1       1       1       1
       1       1       1       1       1       1       1       1       1       8
       6       6       1       6       6       6       6       6       6       1
       7       6       6       6       6       8       6       6       8       6
       6       8       8       6       8       6       8       6       8       1
       1       1       1       1       1       1       1       1       1       1
       1       1       1       1       1       1       1       1       1       1
       1       1       1       1       8       6       6       1       6       6
       6       6       6       6       1       7       6       6       6       6
       8       6       6       8       6       6       8       8       6       8
       6       8       6       8       1       1       1       1       1       1
       1       1       1       1       1       1       1       1       1       1
       1       1       1       1       1       1       1       1       1       8
       6       6       1       6       6       6       6       6       6       1
       7       6       6       6       6       8       6       6       8       6
       6       8       8       6       8       6       8       6       8       1
       1       1       1       1       1       1       1       1       1       1
       1       1       1       1       1       1       1       1       1       1
       1       1       1       1       8       6       6       1       6       6
       6       6       6       6       1       7       6       6       6       6
       8       6       6       8       6       6       8       8       6       8
       6       8       6       8       1       1       1       1       1       1
       1       1       1       1       1       1       1       1       1       1
       1       1       1       1       1       1       1       1       1       8
       6       6       1       6       6       6       6       6       6       1
       7       6       6       6       6       8       6       6       8       6
       6       8       8       6       8       6       8       6       8       1
       1       1       1       1       1       1       1       1       1       1
       1       1       1       1       1       1       1       1       1       1
       1       1       1       1       8       6       6       1       6       6
       6       6       6       6       1       7       6       6       6       6
       8       6       6       8       6       6       8       8       6       8
       6       8       6       8       1       1       1       1       1       1
       1       1       1       1       1       1       1       1       1       1
       1       1       1       1       1       1       1       1       1       6
       1       1       6       1       1       8       6       6       1       6
       6       6       6       6       6       1       7       6       6       6
       6       8       6       6       8       6       6       8       8       6
       8       6       8       6       8       1       1       1       1       1
       1       1       1       1       1       1       1       1       1       1
       1       1       1       1       1       1       1       1       1       1
       8       6       6       1       6       6       6       6       6       6
       1       7       6       6       6       6       8       6       6       8
       6       6       8       8       6       8       6       8       6       8
       1       1       1       1       1       1       1       1       1       1
       1       1       1       1       1       1       1       1       1       1
       1       1       1       1       1       8       6       6       1       6
       6       6       6       6       6       1       7       6       6       6
       6       8       6       6       8       6       6       8       8       6
       8       6       8       6       8       1       1       1       1       1
       1       1       1       1       1       1       1       1       1       1
       1       1       1       1       1       1       1       1       1       1
       8       6       6       1       6       6       6       6       6       6
       1       7       6       6       6       6       8       6       6       8
       6       6       8       8       6       8       6       8       6       8
       1       1       1       1       1       1       1       1       1       1
       1       1       1       1       1       1       1       1       1       1
       1       1       1       1       1       8       6       6       1       6
       6       6       6       6       6       1       7       6       6       6
       6       8       6       6       8       6       6       8       8       6
       8       6       8       6       8       1       1       1       1       1
       1       1       1       1       1       1       1       1       1       1
       1       1       1       1       1       1       1       1       1       1
       8       6       6       1       6       6       6       6       6       6
       1       7       6       6       6       6       8       6       6       8
       6       6       8       8       6       8       6       8       6       8
       1       1       1       1       1       1       1       1       1       1
       1       1       1       1       1       1       1       1       1       1
       1       1       1       1       1       8       6       6       1       6
       6       6       6       6       6       1       7       6       6       6
       6       8       6       6       8       6       6       8       8       6
       8       6       8       6       8       1       1       1       1       1
       1       1       1       1       1       1       1       1       1       1
       1       1       1       1       1       1       1       1       1       1
       8       6       6       1       6       6       6       6       6       6
       1       7       6       6       6       6       8       6       6       8
       6       6       8       8       6       8       6       8       6       8
       1       1       1       1       1       1       1       1       1       1
       1       1       1       1       1       1       1       1       1       1
       1       1       1       1       1       8       6       6       1       6
       6       6       6       6       6       1       7       6       6       6
       6       8       6       6       8       6       6       8       8       6
       8       6       8       6       8       1       1       1       1       1
       1       1       1       1       1       1       1       1       1       1
       1       1       1       1       1       1       1       1       1       1
       8       6       6       1       6       6       6       6       6       6
       1       7       6       6       6       6       8       6       6       8
       6       6       8       8       6       8       6       8       6       8
       1       1       1       1       1       1       1       1       1       1
       1       1       1       1       1       1       1       1       1       1
       1       1       1       1       1       6       1       1       6       1
       1       8       6       6       1       6       6       6       6       6
       6       1       7       6       6       6       6       8       6       6
       8       6       6       8       8       6       8       6       8       6
       8       1       1       1       1       1       1       1       1       1
       1       1       1       1       1       1       1       1       1       1
       1       1       1       1       1       1       8       6       6       1
       6       6       6       6       6       6       1       7       6       6
       6       6       8       6       6       8       6       6       8       8
       6       8       6       8       6       8       1       1       1       1
       1       1       1       1       1       1       1       1       1       1
       1       1       1       1       1       1       1       1       1       1
       1       8       6       6       1       6       6       6       6       6
       6       1       7       6       6       6       6       8       6       6
       8       6       6       8       8       6       8       6       8       6
       8       1       1       1       1       1       1       1       1       1
       1       1       1       1       1       1       1       1       1       1
       1       1       1       1       1       1       8       6       6       1
       6       6       6       6       6       6       1       7       6       6
       6       6       8       6       6       8       6       6       8       8
       6       8       6       8       6       8       1       1       1       1
       1       1       1       1       1       1       1       1       1       1
       1       1       1       1       1       1       1       1       1       1
       1       8       6       6       1       6       6       6       6       6
       6       1       7       6       6       6       6       8       6       6
       8       6       6       8       8       6       8       6       8       6
       8       1       1       1       1       1       1       1       1       1
       1       1       1       1       1       1       1       1       1       1
       1       1       1       1       1       1       8       6       6       1
       6       6       6       6       6       6       1       7       6       6
       6       6       8       6       6       8       6       6       8       8
       6       8       6       8       6       8       1       1       1       1
       1       1       1       1       1       1       1       1       1       1
       1       1       1       1       1       1       1       1       1       1
       1       8       6       6       1       6       6       6       6       6
       6       1       7       6       6       6       6       8       6       6
       8       6       6       8       8       6       8       6       8       6
       8       1       1       1       1       1       1       1       1       1
       1       1       1       1       1       1       1       1       1       1
       1       1       1       1       1       1       8       6       6       1
       6       6       6       6       6       6       1       7       6       6
       6       6       8       6       6       8       6       6       8       8
       6       8       6       8       6       8       1       1       1       1
       1       1       1       1       1       1       1       1       1       1
       1       1       1       1       1       1       1       1       1       1
       1       8       6       6       1       6       6       6       6       6
       6       1       7       6       6       6       6       8       6       6
       8       6       6       8       8       6       8       6       8       6
       8       1       1       1       1       1       1       1       1       1
       1       1       1       1       1       1       1       1       1       1
       1       1       1       1       1       1       8       6       6       1
       6       6       6       6       6       6       1       7       6       6
       6       6       8       6       6       8       6       6       8       8
       6       8       6       8       6       8       1       1       1       1
       1       1       1       1       1       1       1       1       1       1
       1       1       1       1       1       1       1       1       1       1
       1       6       1       1       6       1       1       8       6       6
       1       6       6       6       6       6       6       1       7       6
       6       6       6       8       6       6       8       6       6       8
       8       6       8       6       8       6       8       1       1       1
       1       1       1       1       1       1       1       1       1       1
       1       1       1       1       1       1       1       1       1       1
       1       1       8       6       6       1       6       6       6       6
       6       6       1       7       6       6       6       6       8       6
       6       8       6       6       8       8       6       8       6       8
       6       8       1       1       1       1       1       1       1       1
       1       1       1       1       1       1       1       1       1       1
       1       1       1       1       1       1       1       8       6       6
       1       6       6       6       6       6       6       1       7       6
       6       6       6       8       6       6       8       6       6       8
       8       6       8       6       8       6       8       1       1       1
       1       1       1       1       1       1       1       1       1       1
       1       1       1       1       1       1       1       1       1       1
       1       1       8       6       6       1       6       6       6       6
       6       6       1       7       6       6       6       6       8       6
       6       8       6       6       8       8       6       8       6       8
       6       8       1       1       1       1       1       1       1       1
       1       1       1       1       1       1       1       1       1       1
       1       1       1       1       1       1       1       8       6       6
       1       6       6       6       6       6       6       1       7       6
       6       6       6       8       6       6       8       6       6       8
       8       6       8       6       8       6       8       1       1       1
       1       1       1       1       1       1       1       1       1       1
       1       1       1       1       1       1       1       1       1       1
       1       1       8       6       6       1       6       6       6       6
       6       6       1       7       6       6       6       6       8       6
       6       8       6       6       8       8       6       8       6       8
       6       8       1       1       1       1       1       1       1       1
       1       1       1       1       1       1       1       1       1       1
       1       1       1       1       1       1       1       8       6       6
       1       6       6       6       6       6       6       1       7       6
       6       6       6       8       6       6       8       6       6       8
       8       6       8       6       8       6       8       1       1       1
       1       1       1       1       1       1       1       1       1       1
       1       1       1       1       1       1       1       1       1       1
       1       1       8       6       6       1       6       6       6       6
       6       6       1       7       6       6       6       6       8       6
       6       8       6       6       8       8       6       8       6       8
       6       8       1       1       1       1       1       1       1       1
       1       1       1       1       1       1       1       1       1       1
       1       1       1       1       1       1       1       8       6       6
       1       6       6       6       6       6       6       1       7       6
       6       6       6       8       6       6       8       6       6       8
       8       6       8       6       8       6       8       1       1       1
       1       1       1       1       1       1       1       1       1       1
       1       1       1       1       1       1       1       1       1       1
       1       1       8       6       6       1       6       6       6       6
       6       6       1       7       6       6       6       6       8       6
       6       8       6       6       8       8       6       8       6       8
       6       8       1       1       1       1       1       1       1       1
       1       1       1       1       1       1       1       1       1       1
       1       1       1       1       1       1       1       6       1       1
       8       1       1       8       1       1       8       1       1       8
       1       1       8       1       1       8       1       1       8       1
       1       8       1       1       8       1       1       8       1       1
       8       1       1       8       1       1       8       1       1       8
       1       1       8       1       1       8       1       1       8       1
       1       8       1       1       8       1       1       8       1       1
       8       1       1       8       1       1       8       1       1       8
       1       1       8       1       1       8       1       1       8       1
       1       8       1       1       8       1       1       8       1       1
       8       1       1       8       1       1       8       1       1       8
       1       1       8       1       1       8       1       1       8       1
       1       8       1       1       8       1       1       8       1       1
       8       1       1       8       1       1       8       1       1       8
       1       1       8       1       1       8       1       1       8       1
       1       8       1       1       8       1       1       8       1       1
       8       1       1       8       1       1       8       1       1       8
       1       1       8       1       1       8       1       1       8       1
       1       8       1       1       8       1       1       8       1       1
       8       1       1       8       1       1       8       1       1       8
       1       1       8       1       1       8       1       1       8       1
       1       8       1       1       8       1       1       8       1       1
       8       1       1       8       1       1       8       1       1       8
       1       1       8       1       1       8       1       1       8       1
       1       8       1       1       8       1       1       8       1       1
       8       1       1       8       1       1       8       1       1       8
       1       1       8       1       1       8       1       1       8       1
       1       8       1       1       8       1       1       8       1       1
       8       1       1       8       1       1       8       1       1       8
       1       1       8       1       1       8       1       1       8       1
       1       8       1       1       8       1       1       8       1       1
       8       1       1       8       1       1       8       1       1       8
       1       1       8       1       1       8       1       1       8       1
       1       8       1       1       8       1       1       8       1       1
       8       1       1       8       1       1       8       1       1       8
       1       1       8       1       1       8       1       1       8       1
       1       8       1       1       8       1       1       8       1       1
       8       1       1       8       1       1       8       1       1       8
       1       1       8       1       1       8       1       1       8       1
       1       8       1       1       8       1       1       8       1       1
       8       1       1       8       1       1       8       1       1       8
       1       1       8       1       1       8       1       1       8       1
       1       8       1       1       8       1       1       8       1       1
       8       1       1       8       1       1       8       1       1       8
       1       1       8       1       1       8       1       1       8       1
       1       8       1       1       8       1       1       8       1       1
       8       1       1       8       1       1       8       1       1       8
       1       1       8       1       1       8       1       1       8       1
       1       8       1       1       8       1       1       8       1       1
       8       1       1       8       1       1       8       1       1       8
       1       1       8       1       1       8       1       1       8       1
       1       8       1       1       8       1       1       8       1       1
       8       1       1       8       1       1       8       1       1       8
       1       1       8       1       1       8       1       1       8       1
       1       8       1       1       8       1       1       8       1       1
       8       1       1       8       1       1       8       1       1       8
       1       1       8       1       1       8       1       1       8       1
       1       8       1       1       8       1       1       8       1       1
       8       1       1       8       1       1       8       1       1       8
       1       1       8       1       1       8       1       1       8       1
       1       8       1       1       8       1       1       8       1       1
       8       1       1       8       1       1       8       1       1       8
       1       1       8       1       1       8       1       1       8       1
       1       8       1       1       8       1       1       8       1       1
       8       1       1       8       1       1       8       1       1       8
       1       1       8       1       1       8       1       1       8       1
       1       8       1       1       8       1       1       8       1       1
       8       1       1       8       1       1       8       1       1       8
       1       1       8       1       1       8       1       1       8       1
       1       8       1       1       8       1       1       8       1       1
       8       1       1       8       1       1       8       1       1       8
       1       1       8       1       1       8       1       1       8       1
       1       8       1       1       8       1       1       8       1       1
       8       1       1       8       1       1       8       1       1       8
       1       1       8       1       1       8       1       1       8       1
       1       8       1       1       8       1       1       8       1       1
       8       1       1       8       1       1       8       1       1       8
       1       1       8       1       1       8       1       1       8       1
       1       8       1       1       8       1       1       8       1       1
       8       1       1       8       1       1       8       1       1       8
       1       1       8       1       1       8       1       1       8       1
       1       8       1       1       8       1       1       8       1       1
       8       1       1       8       1       1       8       1       1       8
       1       1       8       1       1       8       1       1       8       1
       1       8       1       1       8       1       1       8       1       1
       8       1       1       8       1       1       8       1       1       8
       1       1       8       1       1       8       1       1       8       1
       1       8       1       1       8       1       1       8       1       1
       8       1       1       8       1       1       8       1       1       8
       1       1       8       1       1       8       1       1       8       1
       1       8       1       1       8       1       1       8       1       1
       8       1       1       8       1       1       8       1       1       8
       1       1       8       1       1       8       1       1       8       1
       1       8       1       1       8       1       1       8       1       1
       8       1       1       8       1       1       8       1       1       8
       1       1       8       1       1       8       1       1       8       1
       1       8       1       1       8       1       1       8       1       1
       8       1       1       8       1       1       8       1       1       8
       1       1       8       1       1       8       1       1       8       1
       1       8       1       1       8       1       1       8       1       1
       8       1       1       8       1       1       8       1       1       8
       1       1       8       1       1       8       1       1       8       1
       1       8       1       1       8       1       1       8       1       1
       8       1       1       8       1       1       8       1       1       8
       1       1       8       1       1       8       1       1       8       1
       1       8       1       1       8       1       1       8       1       1
       8       1       1       8       1       1       8       1       1       8
       1       1       8       1       1       8       1       1       8       1
       1       8       1       1       8       1       1       8       1       1
       8       1       1       8       1       1       8       1       1       8
       1       1       8       1       1       8       1       1       8       1
       1       8       1       1       8       1       1       8       1       1
       8       1       1       8       1       1       8       1       1       8
       1       1       8       1       1       8       1       1       8       1
       1       8       1       1       8       1       1       8       1       1
       8       1       1       8       1       1       8       1       1       8
       1       1       8       1       1       8       1       1       8       1
       1       8       1       1       8       1       1       8       1       1
       8       1       1       8       1       1       8       1       1       8
       1       1       8       1       1       8       1       1       8       1
       1       8       1       1       8       1       1       8       1       1
       8       1       1       8       1       1       8       1       1       8
       1       1       8       1       1       8       1       1       8       1
       1       8       1       1       8       1       1       8       1       1
       8       1       1       8       1       1       8       1       1       8
       1       1       8       1       1       8       1       1       8       1
       1       8       1       1       8       1       1       8       1       1
       8       1       1       8       1       1       8       1       1       8
       1       1       8       1       1       8       1       1       8       1
       1       8       1       1       8       1       1       8       1       1
       8       1       1       8       1       1       8       1       1       8
       1       1       8       1       1       8       1       1       8       1
       1       8       1       1       8       1       1       8       1       1
       8       1       1       8       1       1       8       1       1       8
       1       1       8       1       1       8       1       1       8       1
       1       8       1       1       8       1       1       8       1       1
       8       1       1       8       1       1       8       1       1       8
       1       1       8       1       1       8       1       1       8       1
       1       8       1       1       8       1       1       8       1       1
       8       1       1       8       1       1       8       1       1       8
       1       1       8       1       1       8       1       1       8       1
       1       8       1       1       8       1       1       8       1       1
       8       1       1       8       1       1       8       1       1       8
       1       1       8       1       1       8       1       1       8       1
       1       8       1       1       8       1       1       8       1       1
       8       1       1       8       1       1       8       1       1       8
       1       1       8       1       1       8       1       1       8       1
       1       8       1       1       8       1       1       8       1       1
       8       1       1       8       1       1       8       1       1       8
       1       1       8       1       1       8       1       1       8       1
       1       8       1       1       8       1       1       8       1       1
       8       1       1       8       1       1       8       1       1       8
       1       1       8       1       1       8       1       1       8       1
       1       8       1       1       8       1       1       8       1       1
       8       1       1       8       1       1       8       1       1       8
       1       1       8       1       1       8       1       1       8       1
       1       8       1       1       8       1       1       8       1       1
       8       1       1       8       1       1       8       1       1       8
       1       1       8       1       1       8       1       1       8       1
       1       8       1       1       8       1       1       8       1       1
       8       1       1       8       1       1       8       1       1       8
       1       1       8       1       1       8       1       1       8       1
       1       8       1       1       8       1       1       8       1       1
       8       1       1       8       1       1       8       1       1       8
       1       1       8       1       1       8       1       1       8       1
       1       8       1       1       8       1       1       8       1       1
       8       1       1       8       1       1       8       1       1       8
       1       1       8       1       1       8       1       1       8       1
       1       8       1       1       8       1       1       8       1       1
       8       1       1       8       1       1       8       1       1       8
       1       1       8       1       1       8       1       1       8       1
       1       8       1       1       8       1       1       8       1       1
       8       1       1       8       1       1       8       1       1       8
       1       1       8       1       1       8       1       1       8       1
       1       8       1       1       8       1       1       8       1       1
       8       1       1       8       1       1       8       1       1       8
       1       1       8       1       1       8       1       1       8       1
       1       8       1       1       8       1       1       8       1       1
       8       1       1       8       1       1       8       1       1       8
       1       1       8       1       1       8       1       1       8       1
       1       8       1       1       8       1       1       8       1       1
       8       1       1       8       1       1       8       1       1       8
       1       1       8       1       1       8       1       1       8       1
       1       8       1       1       8       1       1       8       1       1
       8       1       1       8       1       1       8       1       1       8
       1       1       8       1       1       8       1       1       8       1
       1       8       1       1       8       1       1       8       1       1
       8       1       1       8       1       1       8       1       1       8
       1       1       8       1       1       8       1       1       8       1
       1       8       1       1       8       1       1       8       1       1
       8       1       1       8       1       1       8       1       1       8
       1       1       8       1       1       8       1       1       8       1
       1       8       1       1       8       1       1       8       1       1
       8       1       1       8       1       1       8       1       1       8
       1       1       8       1       1       8       1       1       8       1
       1       8       1       1       8       1       1       8       1       1
       8       1       1       8       1       1       8       1       1       8
       1       1       8       1       1       8       1       1       8       1
       1       8       1       1       8       1       1       8       1       1
       8       1       1       8       1       1       8       1       1       8
       1       1       8       1       1       8       1       1       8       1
       1       8       1       1       8       1       1       8       1       1
       8       1       1       8       1       1       8       1       1       8
       1       1       8       1       1       8       1       1       8       1
       1       8       1       1       8       1       1       8       1       1
       8       1       1       8       1       1       8       1       1       8
       1       1       8       1       1       8       1       1       8       1
       1       8       1       1       8       1       1       8       1       1
       8       1       1       8       1       1       8       1       1       8
       1       1       8       1       1       8       1       1       8       1
       1       8       1       1       8       1       1       8       1       1
       8       1       1       8       1       1       8       1       1       8
       1       1       8       1       1       8       1       1       8       1
       1       8       1       1       8       1       1       8       1       1
       8       1       1       8       1       1       8       1       1       8
       1       1       8       1       1       8       1       1       8       1
       1       8       1       1       8       1       1       8       1       1
       8       1       1       8       1       1       8       1       1       8
       1       1       8       1       1       8       1       1       8       1
       1       8       1       1       8       1       1       8       1       1
       8       1       1       8       1       1       8       1       1       8
       1       1       8       1       1       8       1       1       8       1
       1       8       1       1       8       1       1       8       1       1
       8       1       1       8       1       1       8       1       1       8
       1       1       8       1       1       8       1       1       8       1
       1       8       1       1       8       1       1       8       1       1
       8       1       1       8       1       1       8       1       1       8
       1       1       8       1       1       8       1       1       8       1
       1       8       1       1       8       1       1       8       1       1
       8       1       1       8       1       1       8       1       1       8
       1       1       8       1       1       8       1       1       8       1
       1       8       1       1       8       1       1       8       1       1
       8       1       1       8       1       1       8       1       1       8
       1       1       8       1       1       8       1       1       8       1
       1       8       1       1       8       1       1       8       1       1
       8       1       1       8       1       1       8       1       1       8
       1       1       8       1       1       8       1       1       8       1
       1       8       1       1       8       1       1       8       1       1
       8       1       1       8       1       1       8       1       1       8
       1       1       8       1       1       8       1       1       8       1
       1       8       1       1       8       1       1       8       1       1
       8       1       1       8       1       1       8       1       1       8
       1       1       8       1       1       8       1       1       8       1
       1       8       1       1       8       1       1       8       1       1
       8       1       1       8       1       1       8       1       1       8
       1       1       8       1       1       8       1       1       8       1
       1       8       1       1       8       1       1       8       1       1
       8       1       1       8       1       1       8       1       1       8
       1       1       8       1       1       8       1       1       8       1
       1       8       1       1       8       1       1       8       1       1
       8       1       1       8       1       1       8       1       1       8
       1       1       8       1       1       8       1       1       8       1
       1       8       1       1       8       1       1       8       1       1
       8       1       1       8       1       1       8       1       1       8
       1       1       8       1       1       8       1       1       8       1
       1       8       1       1       8       1       1       8       1       1
       8       1       1       8       1       1       8       1       1       8
       1       1       8       1       1       8       1       1       8       1
       1       8       1       1       8       1       1       8       1       1
       8       1       1       8       1       1       8       1       1       8
       1       1       8       1       1       8       1       1       8       1
       1       8       1       1       8       1       1       8       1       1
       8       1       1       8       1       1       8       1       1       8
       1       1       8       1       1       8       1       1       8       1
       1       8       1       1       8       1       1       8       1       1
       8       1       1       8       1       1       8       1       1       8
       1       1       8       1       1       8       1       1       8       1
       1       8       1       1       8       1       1       8       1       1
       8       1       1       8       1       1       8       1       1       8
       1       1       8       1       1       8       1       1       8       1
       1       8       1       1       8       1       1       8       1       1
       8       1       1       8       1       1       8       1       1       8
       1       1       8       1       1       8       1       1       8       1
       1       8       1       1       8       1       1       8       1       1
       8       1       1       8       1       1       8       1       1       8
       1       1       8       1       1       8       1       1       8       1
       1       8       1       1       8       1       1       8       1       1
       8       1       1       8       1       1       8       1       1       8
       1       1       8       1       1       8       1       1       8       1
       1       8       1       1       8       1       1       8       1       1
       8       1       1       8       1       1       8       1       1       8
       1       1       8       1       1       8       1       1       8       1
       1       8       1       1       8       1       1       8       1       1
       8       1       1       8       1       1       8       1       1       8
       1       1       8       1       1       8       1       1       8       1
       1       8       1       1       8       1       1       8       1       1
       8       1       1       8       1       1       8       1       1       8
       1       1       8       1       1       8       1       1       8       1
       1       8       1       1       8       1       1       8       1       1
       8       1       1       8       1       1       8       1       1       8
       1       1       8       1       1       8       1       1       8       1
       1       8       1       1       8       1       1       8       1       1
       8       1       1       8       1       1       8       1       1       8
       1       1       8       1       1       8       1       1       8       1
       1       8       1       1       8       1       1       8       1       1
       8       1       1       8       1       1       8       1       1       8
       1       1       8       1       1       8       1       1       8       1
       1       8       1       1       8       1       1       8       1       1
       8       1       1       8       1       1       8       1       1       8
       1       1       8       1       1       8       1       1       8       1
       1       8       1       1       8       1       1       8       1       1
       8       1       1       8       1       1       8       1       1       8
       1       1       8       1       1       8       1       1       8       1
       1       8       1       1       8       1       1       8       1       1
       8       1       1       8       1       1       8       1       1       8
       1       1       8       1       1       8       1       1       8       1
       1       8       1       1       8       1       1       8       1       1
       8       1       1       8       1       1       8       1       1       8
       1       1       8       1       1       8       1       1       8       1
       1       8       1       1       8       1       1       8       1       1
       8       1       1       8       1       1       8       1       1       8
       1       1       8       1       1       8       1       1       8       1
       1       8       1       1       8       1       1       8       1       1
       8       1       1       8       1       1       8       1       1       8
       1       1       8       1       1       8       1       1       8       1
       1       8       1       1       8       1       1       8       1       1
       8       1       1       8       1       1       8       1       1       8
       1       1       8       1       1       8       1       1       8       1
       1       8       1       1       8       1       1       8       1       1
       8       1       1       8       1       1       8       1       1       8
       1       1       8       1       1       8       1       1       8       1
       1       8       1       1       8       1       1       8       1       1
       8       1       1       8       1       1       8       1       1       8
       1       1       8       1       1       8       1       1       8       1
       1       8       1       1       8       1       1       8       1       1
       8       1       1       8       1       1       8       1       1       8
       1       1       8       1       1       8       1       1       8       1
       1       8       1       1       8       1       1       8       1       1
       8       1       1       8       1       1       8       1       1       8
       1       1       8       1       1       8       1       1       8       1
       1       8       1       1       8       1       1       8       1       1
       8       1       1       8       1       1       8       1       1       8
       1       1       8       1       1       8       1       1       8       1
       1       8       1       1       8       1       1       8       1       1
       8       1       1       8       1       1       8       1       1       8
       1       1       8       1       1       8       1       1       8       1
       1       8       1       1       8       1       1       8       1       1
       8       1       1       8       1       1       8       1       1       8
       1       1       8       1       1       8       1       1       8       1
       1       8       1       1       8       1       1       8       1       1
       8       1       1       8       1       1       8       1       1       8
       1       1       8       1       1       8       1       1       8       1
       1       8       1       1       8       1       1       8       1       1
       8       1       1       8       1       1       8       1       1       8
       1       1       8       1       1       8       1       1       8       1
       1       8       1       1       8       1       1       8       1       1
       8       1       1       8       1       1       8       1       1       8
       1       1       8       1       1       8       1       1       8       1
       1       8       1       1       8       1       1       8       1       1
       8       1       1       8       1       1       8       1       1       8
       1       1       8       1       1       8       1       1       8       1
       1       8       1       1       8       1       1       8       1       1
       8       1       1       8       1       1       8       1       1       8
       1       1       8       1       1       8       1       1       8       1
       1       8       1       1       8       1       1       8       1       1
       8       1       1       8       1       1       8       1       1       8
       1       1       8       1       1       8       1       1       8       1
       1       8       1       1       8       1       1       8       1       1
       8       1       1       8       1       1       8       1       1       8
       1       1       8       1       1       8       1       1       8       1
       1       8       1       1       8       1       1       8       1       1
       8       1       1       8       1       1       8       1       1       8
       1       1       8       1       1       8       1       1       8       1
       1       8       1       1       8       1       1       8       1       1
       8       1       1       8       1       1       8       1       1       8
       1       1       8       1       1       8       1       1       8       1
       1       8       1       1       8       1       1       8       1       1
       8       1       1       8       1       1       8       1       1       8
       1       1       8       1       1       8       1       1       8       1
       1       8       1       1       8       1       1       8       1       1
       8       1       1       8       1       1       8       1       1       8
       1       1       8       1       1       8       1       1       8       1
       1       8       1       1       8       1       1       8       1       1
       8       1       1       8       1       1       8       1       1       8
       1       1       8       1       1       8       1       1       8       1
       1       8       1       1       8       1       1       8       1       1
       8       1       1       8       1       1       8       1       1       8
       1       1       8       1       1       8       1       1       8       1
       1       8       1       1       8       1       1       8       1       1
       8       1       1       8       1       1       8       1       1       8
       1       1       8       1       1       8       1       1       8       1
       1       8       1       1       8       1       1       8       1       1
       8       1       1       8       1       1       8       1       1       8
       1       1       8       1       1       8       1       1       8       1
       1       8       1       1       8       1       1       8       1       1
       8       1       1       8       1       1       8       1       1       8
       1       1       8       1       1       8       1       1       8       1
       1       8       1       1       8       1       1       8       1       1
       8       1       1       8       1       1       8       1       1       8
       1       1       8       1       1       8       1       1       8       1
       1       8       1       1       8       1       1       8       1       1
       8       1       1       8       1       1       8       1       1       8
       1       1       8       1       1       8       1       1       8       1
       1       8       1       1       8       1       1       8       1       1
       8       1       1       8       1       1       8       1       1       8
       1       1       8       1       1       8       1       1       8       1
       1       8       1       1       8       1       1       8       1       1
       8       1       1       8       1       1       8       1       1       8
       1       1       8       1       1       8       1       1       8       1
       1       8       1       1       8       1       1       8       1       1
       8       1       1       8       1       1       8       1       1       8
       1       1       8       1       1       8       1       1       8       1
       1       8       1       1       8       1       1       8       1       1
       8       1       1       8       1       1       8       1       1       8
       1       1       8       1       1       8       1       1       8       1
       1       8       1       1       8       1       1       8       1       1
       8       1       1       8       1       1       8       1       1       8
       1       1       8       1       1       8       1       1       8       1
       1       8       1       1       8       1       1       8       1       1
       8       1       1       8       1       1       8       1       1       8
       1       1       8       1       1       8       1       1       8       1
       1       8       1       1       8       1       1       8       1       1
       8       1       1       8       1       1       8       1       1       8
       1       1       8       1       1       8       1       1       8       1
       1       8       1       1       8       1       1       8       1       1
       8       1       1       8       1       1       8       1       1       8
       1       1       8       1       1       8       1       1       8       1
       1       8       1       1       8       1       1       8       1       1
       8       1       1       8       1       1       8       1       1       8
       1       1       8       1       1       8       1       1       8       1
       1       8       1       1       8       1       1       8       1       1
       8       1       1       8       1       1       8       1       1       8
       1       1       8       1       1       8       1       1       8       1
       1       8       1       1       8       1       1       8       1       1
       8       1       1       8       1       1       8       1       1       8
       1       1       8       1       1       8       1       1       8       1
       1       8       1       1       8       1       1       8       1       1
       8       1       1       8       1       1       8       1       1       8
       1       1       8       1       1       8       1       1       8       1
       1       8       1       1       8       1       1       8       1       1
       8       1       1       8       1       1       8       1       1       8
       1       1       8       1       1       8       1       1       8       1
       1       8       1       1       8       1       1       8       1       1
       8       1       1       8       1       1       8       1       1       8
       1       1       8       1       1       8       1       1       8       1
       1       8       1       1       8       1       1       8       1       1
       8       1       1       8       1       1       8       1       1       8
       1       1       8       1       1       8       1       1       8       1
       1       8       1       1       8       1       1       8       1       1
       8       1       1       8       1       1       8       1       1       8
       1       1       8       1       1       8       1       1       8       1
       1       8       1       1       8       1       1       8       1       1
       8       1       1       8       1       1       8       1       1       8
       1       1       8       1       1       8       1       1       8       1
       1       8       1       1       8       1       1       8       1       1
       8       1       1       8       1       1       8       1       1       8
       1       1       8       1       1       8       1       1       8       1
       1       8       1       1       8       1       1       8       1       1
       8       1       1       8       1       1       8       1       1       8
       1       1       8       1       1       8       1       1       8       1
       1       8       1       1       8       1       1       8       1       1
       8       1       1       8       1       1       8       1       1       8
       1       1       8       1       1       8       1       1       8       1
       1       8       1       1       8       1       1       8       1       1
       8       1       1       8       1       1       8       1       1       8
       1       1       8       1       1       8       1       1       8       1
       1       8       1       1       8       1       1       8       1       1
       8       1       1       8       1       1       8       1       1       8
       1       1       8       1       1       8       1       1       8       1
       1       8       1       1       8       1       1       8       1       1
       8       1       1       8       1       1       8       1       1       8
       1       1       8       1       1       8       1       1       8       1
       1       8       1       1       8       1       1       8       1       1
       8       1       1       8       1       1       8       1       1       8
       1       1       8       1       1       8       1       1       8       1
       1       8       1       1       8       1       1       8       1       1
       8       1       1       8       1       1       8       1       1       8
       1       1       8       1       1       8       1       1       8       1
       1       8       1       1       8       1       1       8       1       1
       8       1       1       8       1       1       8       1       1       8
       1       1       8       1       1       8       1       1       8       1
       1       8       1       1       8       1       1       8       1       1
       8       1       1       8       1       1       8       1       1       8
       1       1       8       1       1       8       1       1       8       1
       1       8       1       1       8       1       1       8       1       1
       8       1       1       8       1       1       8       1       1       8
       1       1       8       1       1       8       1       1       8       1
       1       8       1       1       8       1       1       8       1       1
       8       1       1       8       1       1       8       1       1       8
       1       1       8       1       1       8       1       1       8       1
       1       8       1       1       8       1       1       8       1       1
       8       1       1       8       1       1       8       1       1       8
       1       1       8       1       1       8       1       1       8       1
       1       8       1       1       8       1       1       8       1       1
       8       1       1       8       1       1       8       1       1       8
       1       1       8       1       1       8       1       1       8       1
       1       8       1       1       8       1       1       8       1       1
       8       1       1       8       1       1       8       1       1       8
       1       1       8       1       1       8       1       1       8       1
       1       8       1       1       8       1       1       8       1       1
       8       1       1       8       1       1       8       1       1       8
       1       1       8       1       1       8       1       1       8       1
       1       8       1       1       8       1       1       8       1       1
       8       1       1       8       1       1       8       1       1       8
       1       1       8       1       1       8       1       1       8       1
       1       8       1       1       8       1       1       8       1       1
       8       1       1       8       1       1       8       1       1       8
       1       1       8       1       1       8       1       1       8       1
       1       8       1       1       8       1       1       8       1       1
       8       1       1       8       1       1       8       1       1       8
       1       1       8       1       1       8       1       1       8       1
       1       8       1       1       8       1       1       8       1       1
       8       1       1       8       1       1       8       1       1       8
       1       1       8       1       1       8       1       1       8       1
       1       8       1       1       8       1       1       8       1       1
       8       1       1       8       1       1       8       1       1       8
       1       1       8       1       1       8       1       1       8       1
       1       8       1       1       8       1       1       8       1       1
       8       1       1       8       1       1       8       1       1       8
       1       1       8       1       1       8       1       1       8       1
       1       8       1       1       8       1       1       8       1       1
       8       1       1       8       1       1       8       1       1       8
       1       1       8       1       1       8       1       1       8       1
       1       8       1       1       8       1       1       8       1       1
       8       1       1       8       1       1       8       1       1       8
       1       1       8       1       1       8       1       1       8       1
       1       8       1       1       8       1       1       8       1       1
       8       1       1       8       1       1       8       1       1       8
       1       1       8       1       1       8       1       1       8       1
       1       8       1       1       8       1       1       8       1       1
       8       1       1       8       1       1       8       1       1       8
       1       1       8       1       1       8       1       1       8       1
       1       8       1       1       8       1       1       8       1       1
       8       1       1       8       1       1       8       1       1       8
       1       1       8       1       1       8       1       1       8       1
       1       8       1       1       8       1       1       8       1       1
       8       1       1       8       1       1       8       1       1       8
       1       1       8       1       1       8       1       1       8       1
       1       8       1       1       8       1       1       8       1       1
       8       1       1       8       1       1       8       1       1       8
       1       1       8       1       1       8       1       1       8       1
       1       8       1       1       8       1       1       8       1       1
       8       1       1       8       1       1       8       1       1       8
       1       1       8       1       1       8       1       1       8       1
       1       8       1       1       8       1       1       8       1       1
       8       1       1       8       1       1       8       1       1       8
       1       1       8       1       1       8       1       1       8       1
       1       8       1       1       8       1       1       8       1       1
       8       1       1       8       1       1       8       1       1       8
       1       1       8       1       1       8       1       1       8       1
       1       8       1       1       8       1       1       8       1       1
       8       1       1       8       1       1       8       1       1       8
       1       1       8       1       1       8       1       1       8       1
       1       8       1       1       8       1       1       8       1       1
       8       1       1       8       1       1       8       1       1       8
       1       1       8       1       1       8       1       1       8       1
       1       8       1       1       8       1       1       8       1       1
       8       1       1       8       1       1       8       1       1       8
       1       1       8       1       1       8       1       1       8       1
       1       8       1       1       8       1       1       8       1       1
       8       1       1       8       1       1       8       1       1       8
       1       1       8       1       1       8       1       1       8       1
       1       8       1       1       8       1       1       8       1       1
       8       1       1       8       1       1       8       1       1       8
       1       1       8       1       1       8       1       1       8       1
       1       8       1       1       8       1       1       8       1       1
       8       1       1       8       1       1       8       1       1       8
       1       1       8       1       1       8       1       1       8       1
       1       8       1       1       8       1       1       8       1       1
       8       1       1       8       1       1       8       1       1       8
       1       1       8       1       1       8       1       1       8       1
       1       8       1       1       8       1       1       8       1       1
       8       1       1       8       1       1       8       1       1       8
       1       1       8       1       1       8       1       1       8       1
       1       8       1       1       8       1       1       8       1       1
       8       1       1       8       1       1       8       1       1       8
       1       1       8       1       1       8       1       1       8       1
       1       8       1       1       8       1       1       8       1       1
       8       1       1       8       1       1       8       1       1       8
       1       1       8       1       1       8       1       1       8       1
       1       8       1       1       8       1       1       8       1       1
       8       1       1       8       1       1       8       1       1       8
       1       1       8       1       1       8       1       1       8       1
       1       8       1       1       8       1       1       8       1       1
       8       1       1       8       1       1       8       1       1       8
       1       1       8       1       1       8       1       1       8       1
       1       8       1       1       8       1       1       8       1       1
       8       1       1       8       1       1       8       1       1       8
       1       1       8       1       1       8       1       1       8       1
       1       8       1       1       8       1       1       8       1       1
       8       1       1       8       1       1       8       1       1       8
       1       1       8       1       1       8       1       1       8       1
       1       8       1       1       8       1       1       8       1       1
       8       1       1       8       1       1       8       1       1       8
       1       1       8       1       1       8       1       1       8       1
       1       8       1       1       8       1       1       8       1       1
       8       1       1       8       1       1       8       1       1       8
       1       1       8       1       1       8       1       1       8       1
       1       8       1       1       8       1       1       8       1       1
       8       1       1       8       1       1       8       1       1       8
       1       1       8       1       1       8       1       1       8       1
       1       8       1       1       8       1       1       8       1       1
       8       1       1       8       1       1       8       1       1       8
       1       1       8       1       1       8       1       1       8       1
       1       8       1       1       8       1       1       8       1       1
       8       1       1       8       1       1       8       1       1       8
       1       1       8       1       1       8       1       1       8       1
       1       8       1       1       8       1       1       8       1       1
       8       1       1       8       1       1       8       1       1       8
       1       1       8       1       1       8       1       1       8       1
       1       8       1       1       8       1       1       8       1       1
       8       1       1       8       1       1       8       1       1       8
       1       1       8       1       1       8       1       1       8       1
       1       8       1       1       8       1       1       8       1       1
       8       1       1       8       1       1       8       1       1       8
       1       1       8       1       1       8       1       1       8       1
       1       8       1       1       8       1       1       8       1       1
       8       1       1       8       1       1       8       1       1       8
       1       1       8       1       1       8       1       1       8       1
       1       8       1       1       8       1       1       8       1       1
       8       1       1       8       1       1       8       1       1       8
       1       1       8       1       1       8       1       1       8       1
       1       8       1       1       8       1       1       8       1       1
       8       1       1       8       1       1       8       1       1       8
       1       1       8       1       1       8       1       1       8       1
       1       8       1       1       8       1       1       8       1       1
       8       1       1       8       1       1       8       1       1       8
       1       1       8       1       1       8       1       1       8       1
       1       8       1       1       8       1       1       8       1       1
       8       1       1       8       1       1       8       1       1       8
       1       1       8       1       1       8       1       1       8       1
       1       8       1       1       8       1       1       8       1       1
       8       1       1       8       1       1       8       1       1       8
       1       1       8       1       1       8       1       1       8       1
       1       8       1       1       8       1       1       8       1       1
       8       1       1       8       1       1       8       1       1       8
       1       1       8       1       1       8       1       1       8       1
       1       8       1       1       8       1       1       8       1       1
       8       1       1       8       1       1       8       1       1       8
       1       1       8       1       1       8       1       1       8       1
       1       8       1       1       8       1       1       8       1       1
       8       1       1       8       1       1       8       1       1       8
       1       1       8       1       1       8       1       1       8       1
       1       8       1       1       8       1       1       8       1       1
       8       1       1       8       1       1       8       1       1       8
       1       1       8       1       1       8       1       1       8       1
       1       8       1       1       8       1       1       8       1       1
       8       1       1       8       1       1       8       1       1       8
       1       1       8       1       1       8       1       1       8       1
       1       8       1       1       8       1       1       8       1       1
       8       1       1       8       1       1       8       1       1       8
       1       1       8       1       1       8       1       1       8       1
       1       8       1       1       8       1       1       8       1       1
       8       1       1       8       1       1       8       1       1       8
       1       1       8       1       1       8       1       1       8       1
       1       8       1       1       8       1       1       8       1       1
       8       1       1       8       1       1       8       1       1       8
       1       1       8       1       1       8       1       1       8       1
       1       8       1       1       8       1       1       8       1       1
       8       1       1       8       1       1       8       1       1       8
       1       1       8       1       1       8       1       1       8       1
       1       8       1       1       8       1       1       8       1       1
       8       1       1       8       1       1       8       1       1       8
       1       1       8       1       1       8       1       1       8       1
       1       8       1       1       8       1       1       8       1       1
       8       1       1       8       1       1       8       1       1       8
       1       1       8       1       1       8       1       1       8       1
       1       8       1       1       8       1       1       8       1       1
       8       1       1       8       1       1       8       1       1       8
       1       1       8       1       1       8       1       1       8       1
       1       8       1       1       8       1       1       8       1       1
       8       1       1       8       1       1       8       1       1       8
       1       1       8       1       1       8       1       1       8       1
       1       8       1       1       8       1       1       8       1       1
       8       1       1       8       1       1       8       1       1       8
       1       1       8       1       1       8       1       1       8       1
       1       8       1       1       8       1       1       8       1       1
       8       1       1       8       1       1       8       1       1       8
       1       1       8       1       1       8       1       1       8       1
       1       8       1       1       8       1       1       8       1       1
       8       1       1       8       1       1       8       1       1       8
       1       1       8       1       1       8       1       1       8       1
       1       8       1       1       8       1       1       8       1       1
       8       1       1       8       1       1       8       1       1       8
       1       1       8       1       1       8       1       1       8       1
       1       8       1       1       8       1       1       8       1       1
       8       1       1       8       1       1       8       1       1       8
       1       1       8       1       1       8       1       1       8       1
       1       8       1       1       8       1       1       8       1       1
       8       1       1       8       1       1       8       1       1       8
       1       1       8       1       1       8       1       1       8       1
       1       8       1       1       8       1       1       8       1       1
       8       1       1       8       1       1       8       1       1       8
       1       1       8       1       1       8       1       1       8       1
       1       8       1       1       8       1       1       8       1       1
       8       1       1       8       1       1       8       1       1       8
       1       1       8       1       1       8       1       1       8       1
       1       8       1       1       8       1       1       8       1       1
       8       1       1       8       1       1       8       1       1       8
       1       1       8       1       1       8       1       1       8       1
       1       8       1       1       8       1       1       8       1       1
       8       1       1       8       1       1       8       1       1       8
       1       1       8       1       1       8       1       1       8       1
       1       8       1       1       8       1       1       8       1       1
       8       1       1       8       1       1       8       1       1       8
       1       1       8       1       1       8       1       1       8       1
       1       8       1       1       8       1       1       8       1       1
       8       1       1       8       1       1       8       1       1       8
       1       1       8       1       1       8       1       1       8       1
       1       8       1       1       8       1       1       8       1       1
       8       1       1       8       1       1       8       1       1       8
       1       1       8       1       1       8       1       1       8       1
       1       8       1       1       8       1       1       8       1       1
       8       1       1       8       1       1       8       1       1       8
       1       1       8       1       1       8       1       1       8       1
       1       8       1       1       8       1       1       8       1       1
       8       1       1       8       1       1       8       1       1       8
       1       1       8       1       1       8       1       1       8       1
       1       8       1       1       8       1       1       8       1       1
       8       1       1       8       1       1       8       1       1       8
       1       1       8       1       1       8       1       1       8       1
       1       8       1       1       8       1       1       8       1       1
       8       1       1       8       1       1       8       1       1       8
       1       1       8       1       1       8       1       1       8       1
       1       8       1       1       8       1       1       8       1       1
       8       1       1       8       1       1       8       1       1       8
       1       1       8       1       1       8       1       1       8       1
       1       8       1       1       8       1       1       8       1       1
       8       1       1       8       1       1       8       1       1       8
       1       1       8       1       1       8       1       1       8       1
       1       8       1       1       8       1       1       8       1       1
       8       1       1       8       1       1       8       1       1       8
       1       1       8       1       1       8       1       1       8       1
       1       8       1       1       8       1       1       8       1       1
       8       1       1       8       1       1       8       1       1       8
       1       1       8       1       1       8       1       1       8       1
       1       8       1       1       8       1       1       8       1       1
       8       1       1       8       1       1       8       1       1       8
       1       1       8       1       1       8       1       1       8       1
       1       8       1       1       8       1       1       8       1       1
       8       1       1       8       1       1       8       1       1       8
       1       1       8       1       1       8       1       1       8       1
       1       8       1       1       8       1       1       8       1       1
       8       1       1       8       1       1       8       1       1       8
       1       1       8       1       1       8       1       1       8       1
       1       8       1       1       8       1       1       8       1       1
       8       1       1       8       1       1       8       1       1       8
       1       1       8       1       1       8       1       1       8       1
       1       8       1       1       8       1       1       8       1       1
       8       1       1       8       1       1       8       1       1       8
       1       1       8       1       1       8       1       1       8       1
       1       8       1       1       8       1       1       8       1       1
       8       1       1       8       1       1       8       1       1       8
       1       1       8       1       1       8       1       1       8       1
       1       8       1       1       8       1       1       8       1       1
       8       1       1       8       1       1       8       1       1       8
       1       1       8       1       1       8       1       1       8       1
       1       8       1       1       8       1       1       8       1       1
       8       1       1       8       1       1       8       1       1       8
       1       1       8       1       1       8       1       1       8       1
       1       8       1       1       8       1       1       8       1       1
       8       1       1       8       1       1       8       1       1       8
       1       1       8       1       1       8       1       1       8       1
       1       8       1       1       8       1       1       8       1       1
       8       1       1       8       1       1       8       1       1       8
       1       1       8       1       1       8       1       1       8       1
       1       8       1       1       8       1       1       8       1       1
       8       1       1       8       1       1       8       1       1       8
       1       1       8       1       1       8       1       1       8       1
       1       8       1       1       8       1       1       8       1       1
       8       1       1       8       1       1       8       1       1       8
       1       1       8       1       1       8       1       1       8       1
       1       8       1       1       8       1       1       8       1       1
       8       1       1       8       1       1       8       1       1       8
       1       1       8       1       1       8       1       1       8       1
       1       8       1       1       8       1       1       8       1       1
       8       1       1       8       1       1       8       1       1       8
       1       1       8       1       1       8       1       1       8       1
       1       8       1       1       8       1       1       8       1       1
       8       1       1       8       1       1       8       1       1       8
       1       1       8       1       1       8       1       1       8       1
       1       8       1       1       8       1       1       8       1       1
       8       1       1       8       1       1       8       1       1       8
       1       1       8       1       1       8       1       1       8       1
       1       8       1       1       8       1       1       8       1       1
       8       1       1       8       1       1       8       1       1       8
       1       1       8       1       1       8       1       1       8       1
       1       8       1       1       8       1       1       8       1       1
       8       1       1       8       1       1       8       1       1       8
       1       1       8       1       1       8       1       1       8       1
       1       8       1       1       8       1       1       8       1       1
       8       1       1       8       1       1       8       1       1       8
       1       1       8       1       1       8       1       1       8       1
       1       8       1       1       8       1       1       8       1       1
       8       1       1       8       1       1       8       1       1       8
       1       1       8       1       1       8       1       1       8       1
       1       8       1       1       8       1       1       8       1       1
       8       1       1       8       1       1       8       1       1       8
       1       1       8       1       1       8       1       1       8       1
       1       8       1       1       8       1       1       8       1       1
       8       1       1       8       1       1       8       1       1       8
       1       1       8       1       1       8       1       1       8       1
       1       8       1       1       8       1       1       8       1       1
       8       1       1       8       1       1       8       1       1       8
       1       1       8       1       1       8       1       1       8       1
       1       8       1       1       8       1       1       8       1       1
       8       1       1       8       1       1       8       1       1       8
       1       1       8       1       1       8       1       1       8       1
       1       8       1       1       8       1       1       8       1       1
       8       1       1       8       1       1       8       1       1       8
       1       1       8       1       1       8       1       1       8       1
       1       8       1       1       8       1       1       8       1       1
       8       1       1       8       1       1       8       1       1       8
       1       1       8       1       1       8       1       1       8       1
       1       8       1       1       8       1       1       8       1       1
       8       1       1       8       1       1       8       1       1       8
       1       1       8       1       1       8       1       1       8       1
       1       8       1       1       8       1       1       8       1       1
       8       1       1       8       1       1       8       1       1       8
       1       1       8       1       1       8       1       1       8       1
       1       8       1       1       8       1       1       8       1       1
       8       1       1       8       1       1       8       1       1       8
       1       1       8       1       1       8       1       1       8       1
       1       8       1       1       8       1       1       8       1       1
       8       1       1       8       1       1       8       1       1       8
       1       1       8       1       1       8       1       1       8       1
       1       8       1       1       8       1       1       8       1       1
       8       1       1       8       1       1       8       1       1       8
       1       1       8       1       1       8       1       1       8       1
       1       8       1       1       8       1       1       8       1       1
       8       1       1       8       1       1       8       1       1       8
       1       1       8       1       1       8       1       1       8       1
       1       8       1       1       8       1       1       8       1       1
       8       1       1       8       1       1       8       1       1       8
       1       1       8       1       1       8       1       1       8       1
       1       8       1       1       8       1       1       8       1       1
       8       1       1       8       1       1       8       1       1       8
       1       1       8       1       1       8       1       1       8       1
       1       8       1       1       8       1       1       8       1       1
       8       1       1       8       1       1       8       1       1       8
       1       1       8       1       1       8       1       1       8       1
       1       8       1       1       8       1       1       8       1       1
       8       1       1       8       1       1       8       1       1       8
       1       1       8       1       1       8       1       1       8       1
       1       8       1       1       8       1       1       8       1       1
       8       1       1       8       1       1       8       1       1       8
       1       1       8       1       1       8       1       1       8       1
       1       8       1       1       8       1       1       8       1       1
       8       1       1       8       1       1       8       1       1       8
       1       1       8       1       1       8       1       1       8       1
       1       8       1       1       8       1       1       8       1       1
       8       1       1       8       1       1       8       1       1       8
       1       1       8       1       1       8       1       1       8       1
       1       8       1       1       8       1       1       8       1       1
       8       1       1       8       1       1       8       1       1       8
       1       1       8       1       1       8       1       1       8       1
       1       8       1       1       8       1       1       8       1       1
       8       1       1       8       1       1       8       1       1       8
       1       1       8       1       1       8       1       1       8       1
       1       8       1       1       8       1       1       8       1       1
       8       1       1       8       1       1       8       1       1       8
       1       1       8       1       1       8       1       1       8       1
       1       8       1       1       8       1       1       8       1       1
       8       1       1       8       1       1       8       1       1       8
       1       1       8       1       1       8       1       1       8       1
       1       8       1       1       8       1       1       8       1       1
       8       1       1       8       1       1       8       1       1       8
       1       1       8       1       1       8       1       1       8       1
       1       8       1       1       8       1       1       8       1       1
       8       1       1       8       1       1       8       1       1       8
       1       1       8       1       1       8       1       1       8       1
       1       8       1       1       8       1       1       8       1       1
       8       1       1       8       1       1       8       1       1       8
       1       1       8       1       1       8       1       1       8       1
       1       8       1       1       8       1       1       8       1       1
       8       1       1       8       1       1       8       1       1       8
       1       1       8       1       1       8       1       1       8       1
       1       8       1       1       8       1       1       8       1       1
       8       1       1       8       1       1       8       1       1       8
       1       1       8       1       1       8       1       1       8       1
       1       8       1       1       8       1       1       8       1       1
       8       1       1       8       1       1       8       1       1       8
       1       1       8       1       1       8       1       1       8       1
       1       8       1       1       8       1       1       8       1       1
       8       1       1       8       1       1       8       1       1       8
       1       1       8       1       1       8       1       1       8       1
       1       8       1       1       8       1       1       8       1       1
       8       1       1       8       1       1       8       1       1       8
       1       1       8       1       1       8       1       1       8       1
       1       8       1       1       8       1       1       8       1       1
       8       1       1       8       1       1       8       1       1       8
       1       1       8       1       1       8       1       1       8       1
       1       8       1       1       8       1       1       8       1       1
       8       1       1       8       1       1       8       1       1       8
       1       1       8       1       1       8       1       1       8       1
       1       8       1       1       8       1       1       8       1       1
       8       1       1       8       1       1       8       1       1       8
       1       1       8       1       1       8       1       1       8       1
       1       8       1       1       8       1       1       8       1       1
       8       1       1       8       1       1       8       1       1       8
       1       1       8       1       1       8       1       1       8       1
       1       8       1       1       8       1       1       8       1       1
       8       1       1       8       1       1       8       1       1       8
       1       1       8       1       1       8       1       1       8       1
       1       8       1       1       8       1       1       8       1       1
       8       1       1       8       1       1       8       1       1       8
       1       1       8       1       1       8       1       1       8       1
       1       8       1       1       8       1       1       8       1       1
       8       1       1       8       1       1       8       1       1       8
       1       1       8       1       1       8       1       1       8       1
       1       8       1       1       8       1       1       8       1       1
       8       1       1       8       1       1       8       1       1       8
       1       1       8       1       1       8       1       1       8       1
       1       8       1       1       8       1       1       8       1       1
       8       1       1       8       1       1       8       1       1       8
       1       1       8       1       1       8       1       1       8       1
       1       8       1       1       8       1       1       8       1       1
       8       1       1       8       1       1       8       1       1       8
       1       1       8       1       1       8       1       1       8       1
       1       8       1       1       8       1       1       8       1       1
       8       1       1       8       1       1       8       1       1       8
       1       1       8       1       1       8       1       1       8       1
       1       8       1       1       8       1       1       8       1       1
       8       1       1       8       1       1       8       1       1       8
       1       1       8       1       1       8       1       1       8       1
       1       8       1       1       8       1       1       8       1       1
       8       1       1       8       1       1       8       1       1       8
       1       1       8       1       1       8       1       1       8       1
       1       8       1       1       8       1       1       8       1       1
       8       1       1       8       1       1       8       1       1       8
       1       1       8       1       1       8       1       1       8       1
       1       8       1       1       8       1       1       8       1       1
       8       1       1       8       1       1       8       1       1       8
       1       1       8       1       1       8       1       1       8       1
       1       8       1       1       8       1       1       8       1       1
       8       1       1       8       1       1       8       1       1       8
       1       1       8       1       1       8       1       1       8       1
       1       8       1       1       8       1       1       8       1       1
       8       1       1       8       1       1       8       1       1       8
       1       1       8       1       1       8       1       1       8       1
       1       8       1       1       8       1       1       8       1       1
       8       1       1       8       1       1       8       1       1       8
       1       1       8       1       1       8       1       1       8       1
       1       8       1       1       8       1       1       8       1       1
       8       1       1       8       1       1       8       1       1       8
       1       1       8       1       1       8       1       1       8       1
       1       8       1       1       8       1       1       8       1       1
       8       1       1       8       1       1       8       1       1       8
       1       1       8       1       1       8       1       1       8       1
       1       8       1       1       8       1       1       8       1       1
       8       1       1       8       1       1       8       1       1       8
       1       1       8       1       1       8       1       1       8       1
       1       8       1       1       8       1       1       8       1       1
       8       1       1       8       1       1       8       1       1       8
       1       1       8       1       1       8       1       1       8       1
       1       8       1       1       8       1       1       8       1       1
       8       1       1       8       1       1       8       1       1       8
       1       1       8       1       1       8       1       1       8       1
       1       8       1       1       8       1       1       8       1       1
       8       1       1       8       1       1       8       1       1       8
       1       1       8       1       1       8       1       1       8       1
       1       8       1       1       8       1       1       8       1       1
       8       1       1       8       1       1       8       1       1       8
       1       1       8       1       1       8       1       1       8       1
       1       8       1       1       8       1       1       8       1       1
       8       1       1       8       1       1       8       1       1       8
       1       1       8       1       1       8       1       1       8       1
       1       8       1       1       8       1       1       8       1       1
       8       1       1       8       1       1       8       1       1       8
       1       1       8       1       1       8       1       1       8       1
       1       8       1       1       8       1       1       8       1       1
       8       1       1       8       1       1       8       1       1       8
       1       1       8       1       1       8       1       1       8       1
       1       8       1       1       8       1       1       8       1       1
       8       1       1       8       1       1       8       1       1       8
       1       1       8       1       1       8       1       1       8       1
       1       8       1       1       8       1       1       8       1       1
       8       1       1       8       1       1       8       1       1       8
       1       1       8       1       1       8       1       1       8       1
       1       8       1       1       8       1       1       8       1       1
       8       1       1       8       1       1       8       1       1       8
       1       1       8       1       1       8       1       1       8       1
       1       8       1       1       8       1       1       8       1       1
       8       1       1       8       1       1       8       1       1       8
       1       1       8       1       1       8       1       1       8       1
       1       8       1       1       8       1       1       8       1       1
       8       1       1       8       1       1       8       1       1       8
       1       1       8       1       1       8       1       1       8       1
       1       8       1       1       8       1       1       8       1       1
       8       1       1       8       1       1       8       1       1       8
       1       1       8       1       1       8       1       1       8       1
       1       8       1       1       8       1       1       8       1       1
       8       1       1       8       1       1       8       1       1       8
       1       1       8       1       1       8       1       1       8       1
       1       8       1       1       8       1       1       8       1       1
       8       1       1       8       1       1       8       1       1       8
       1       1       8       1       1       8       1       1       8       1
       1       8       1       1       8       1       1       8       1       1
       8       1       1       8       1       1       8       1       1       8
       1       1       8       1       1       8       1       1       8       1
       1       8       1       1       8       1       1       8       1       1
       8       1       1       8       1       1       8       1       1       8
       1       1       8       1       1       8       1       1       8       1
       1       8       1       1       8       1       1       8       1       1
       8       1       1       8       1       1       8       1       1       8
       1       1       8       1       1       8       1       1       8       1
       1       8       1       1       8       1       1       8       1       1
       8       1       1       8       1       1       8       1       1       8
       1       1       8       1       1       8       1       1       8       1
       1       8       1       1       8       1       1       8       1       1
       8       1       1       8       1       1       8       1       1       8
       1       1       8       1       1       8       1       1       8       1
       1       8       1       1       8       1       1       8       1       1
       8       1       1       8       1       1       8       1       1       8
       1       1       8       1       1       8       1       1       8       1
       1       8       1       1       8       1       1       8       1       1
       8       1       1       8       1       1       8       1       1       8
       1       1       8       1       1       8       1       1       8       1
       1       8       1       1       8       1       1       8       1       1
       8       1       1       8       1       1       8       1       1       8
       1       1       8       1       1       8       1       1       8       1
       1       8       1       1       8       1       1       8       1       1
       8       1       1       8       1       1       8       1       1       8
       1       1       8       1       1       8       1       1       8       1
       1       8       1       1       8       1       1       8       1       1
       8       1       1       8       1       1       8       1       1       8
       1       1       8       1       1       8       1       1       8       1
       1       8       1       1       8       1       1       8       1       1
       8       1       1       8       1       1       8       1       1       8
       1       1       8       1       1       8       1       1       8       1
       1       8       1       1       8       1       1       8       1       1
       8       1       1       8       1       1       8       1       1       8
       1       1       8       1       1       8       1       1       8       1
       1       8       1       1       8       1       1       8       1       1
       8       1       1       8       1       1       8       1       1       8
       1       1       8       1       1       8       1       1       8       1
       1       8       1       1       8       1       1       8       1       1
       8       1       1       8       1       1       8       1       1       8
       1       1       8       1       1       8       1       1       8       1
       1       8       1       1       8       1       1       8       1       1
       8       1       1       8       1       1       8       1       1       8
       1       1       8       1       1       8       1       1       8       1
       1       8       1       1       8       1       1       8       1       1
       8       1       1       8       1       1       8       1       1       8
       1       1       8       1       1       8       1       1       8       1
       1       8       1       1       8       1       1       8       1       1
       8       1       1       8       1       1       8       1       1       8
       1       1       8       1       1       8       1       1       8       1
       1       8       1       1       8       1       1       8       1       1
       8       1       1       8       1       1       8       1       1       8
       1       1       8       1       1       8       1       1       8       1
       1       8       1       1       8       1       1       8       1       1
       8       1       1       8       1       1       8       1       1       8
       1       1       8       1       1       8       1       1       8       1
       1       8       1       1       8       1       1       8       1       1
       8       1       1       8       1       1       8       1       1       8
       1       1       8       1       1       8       1       1       8       1
       1       8       1       1       8       1       1       8       1       1
       8       1       1       8       1       1       8       1       1       8
       1       1       8       1       1       8       1       1       8       1
       1       8       1       1       8       1       1       8       1       1
       8       1       1       8       1       1       8       1       1       8
       1       1       8       1       1       8       1       1       8       1
       1       8       1       1       8       1       1       8       1       1
       8       1       1       8       1       1       8       1       1       8
       1       1       8       1       1       8       1       1       8       1
       1       8       1       1       8       1       1       8       1       1
       8       1       1       8       1       1       8       1       1       8
       1       1       8       1       1       8       1       1       8       1
       1       8       1       1       8       1       1       8       1       1
       8       1       1       8       1       1       8       1       1       8
       1       1       8       1       1       8       1       1       8       1
       1       8       1       1       8       1       1       8       1       1
       8       1       1       8       1       1       8       1       1       8
       1       1       8       1       1       8       1       1       8       1
       1       8       1       1       8       1       1       8       1       1
       8       1       1       8       1       1       8       1       1       8
       1       1       8       1       1       8       1       1       8       1
       1       8       1       1       8       1       1       8       1       1
       8       1       1       8       1       1       8       1       1       8
       1       1       8       1       1       8       1       1       8       1
       1       8       1       1       8       1       1       8       1       1
       8       1       1       8       1       1       8       1       1       8
       1       1       8       1       1       8       1       1       8       1
       1       8       1       1       8       1       1       8       1       1
       8       1       1       8       1       1       8       1       1       8
       1       1       8       1       1       8       1       1       8       1
       1       8       1       1       8       1       1       8       1       1
       8       1       1       8       1       1       8       1       1       8
       1       1       8       1       1       8       1       1       8       1
       1       8       1       1       8       1       1       8       1       1
       8       1       1       8       1       1       8       1       1       8
       1       1       8       1       1       8       1       1       8       1
       1       8       1       1       8       1       1       8       1       1
       8       1       1       8       1       1       8       1       1       8
       1       1       8       1       1       8       1       1       8       1
       1       8       1       1       8       1       1       8       1       1
       8       1       1       8       1       1       8       1       1       8
       1       1       8       1       1       8       1       1       8       1
       1       8       1       1       8       1       1       8       1       1
       8       1       1       8       1       1       8       1       1       8
       1       1       8       1       1       8       1       1       8       1
       1       8       1       1       8       1       1       8       1       1
       8       1       1       8       1       1       8       1       1       8
       1       1       8       1       1       8       1       1       8       1
       1       8       1       1       8       1       1       8       1       1
       8       1       1       8       1       1       8       1       1       8
       1       1       8       1       1       8       1       1       8       1
       1       8       1       1       8       1       1       8       1       1
       8       1       1       8       1       1       8       1       1       8
       1       1       8       1       1       8       1       1       8       1
       1       8       1       1       8       1       1       8       1       1
       8       1       1       8       1       1       8       1       1       8
       1       1       8       1       1       8       1       1       8       1
       1       8       1       1       8       1       1       8       1       1
       8       1       1       8       1       1       8       1       1       8
       1       1       8       1       1       8       1       1       8       1
       1       8       1       1       8       1       1       8       1       1
       8       1       1       8       1       1       8       1       1       8
       1       1       8       1       1       8       1       1       8       1
       1       8       1       1       8       1       1       8       1       1
       8       1       1       8       1       1       8       1       1       8
       1       1       8       1       1       8       1       1       8       1
       1       8       1       1       8       1       1       8       1       1
       8       1       1       8       1       1       8       1       1       8
       1       1       8       1       1       8       1       1       8       1
       1       8       1       1       8       1       1       8       1       1
       8       1       1       8       1       1       8       1       1       8
       1       1       8       1       1       8       1       1       8       1
       1       8       1       1       8       1       1       8       1       1
       8       1       1       8       1       1       8       1       1       8
       1       1       8       1       1       8       1       1       8       1
       1       8       1       1       8       1       1       8       1       1
       8       1       1       8       1       1       8       1       1       8
       1       1       8       1       1       8       1       1       8       1
       1       8       1       1       8       1       1       8       1       1
       8       1       1       8       1       1       8       1       1       8
       1       1       8       1       1       8       1       1       8       1
       1       8       1       1       8       1       1       8       1       1
       8       1       1       8       1       1       8       1       1       8
       1       1       8       1       1       8       1       1       8       1
       1       8       1       1       8       1       1       8       1       1
       8       1       1       8       1       1       8       1       1       8
       1       1       8       1       1       8       1       1       8       1
       1       8       1       1       8       1       1       8       1       1
       8       1       1       8       1       1       8       1       1       8
       1       1       8       1       1       8       1       1       8       1
       1       8       1       1       8       1       1       8       1       1
       8       1       1       8       1       1       8       1       1       8
       1       1       8       1       1       8       1       1       8       1
       1       8       1       1       8       1       1       8       1       1
       8       1       1       8       1       1       8       1       1       8
       1       1       8       1       1       8       1       1       8       1
       1       8       1       1       8       1       1       8       1       1
       8       1       1       8       1       1       8       1       1       8
       1       1       8       1       1       8       1       1       8       1
       1       8       1       1       8       1       1       8       1       1
       8       1       1       8       1       1       8       1       1       8
       1       1       8       1       1       8       1       1       8       1
       1       8       1       1       8       1       1       8       1       1
       8       1       1       8       1       1       8       1       1       8
       1       1       8       1       1       8       1       1       8       1
       1       8       1       1       8       1       1       8       1       1
       8       1       1       8       1       1       8       1       1       8
       1       1       8       1       1       8       1       1       8       1
       1       8       1       1       8       1       1       8       1       1
       8       1       1       8       1       1       8       1       1       8
       1       1       8       1       1       8       1       1       8       1
       1       8       1       1       8       1       1       8       1       1
       8       1       1       8       1       1       8       1       1       8
       1       1       8       1       1       8       1       1       8       1
       1       8       1       1       8       1       1       8       1       1
       8       1       1       8       1       1       8       1       1       8
       1       1       8       1       1       8       1       1       8       1
       1       8       1       1       8       1       1       8       1       1
       8       1       1       8       1       1       8       1       1       8
       1       1       8       1       1       8       1       1       8       1
       1       8       1       1       8       1       1       8       1       1
       8       1       1       8       1       1       8       1       1       8
       1       1       8       1       1       8       1       1       8       1
       1       8       1       1       8       1       1       8       1       1
       8       1       1       8       1       1       8       1       1       8
       1       1       8       1       1       8       1       1       8       1
       1       8       1       1       8       1       1       8       1       1
       8       1       1       8       1       1       8       1       1       8
       1       1       8       1       1       8       1       1       8       1
       1       8       1       1       8       1       1       8       1       1
       8       1       1       8       1       1       8       1       1       8
       1       1       8       1       1       8       1       1       8       1
       1       8       1       1       8       1       1       8       1       1
       8       1       1       8       1       1       8       1       1       8
       1       1       8       1       1       8       1       1       8       1
       1       8       1       1       8       1       1       8       1       1
       8       1       1       8       1       1       8       1       1       8
       1       1       8       1       1       8       1       1       8       1
       1       8       1       1       8       1       1       8       1       1
       8       1       1       8       1       1       8       1       1       8
       1       1       8       1       1       8       1       1       8       1
       1       8       1       1       8       1       1       8       1       1
       8       1       1       8       1       1       8       1       1       8
       1       1       8       1       1       8       1       1       8       1
       1       8       1       1       8       1       1       8       1       1
       8       1       1       8       1       1       8       1       1       8
       1       1       8       1       1       8       1       1       8       1
       1       8       1       1       8       1       1       8       1       1
       8       1       1       8       1       1       8       1       1       8
       1       1       8       1       1       8       1       1       8       1
       1       8       1       1       8       1       1       8       1       1
       8       1       1       8       1       1       8       1       1       8
       1       1       8       1       1       8       1       1       8       1
       1       8       1       1       8       1       1       8       1       1
       8       1       1       8       1       1       8       1       1       8
       1       1       8       1       1       8       1       1       8       1
       1       8       1       1       8       1       1       8       1       1
       8       1       1       8       1       1       8       1       1       8
       1       1       8       1       1       8       1       1       8       1
       1       8       1       1       8       1       1       8       1       1
       8       1       1       8       1       1       8       1       1       8
       1       1       8       1       1       8       1       1       8       1
       1       8       1       1       8       1       1       8       1       1
       8       1       1       8       1       1       8       1       1       8
       1       1       8       1       1       8       1       1       8       1
       1       8       1       1       8       1       1       8       1       1
       8       1       1       8       1       1       8       1       1       8
       1       1       8       1       1       8       1       1       8       1
       1       8       1       1       8       1       1       8       1       1
       8       1       1       8       1       1       8       1       1       8
       1       1       8       1       1       8       1       1       8       1
       1       8       1       1       8       1       1       8       1       1
       8       1       1       8       1       1       8       1       1       8
       1       1       8       1       1       8       1       1       8       1
       1       8       1       1       8       1       1       8       1       1
       8       1       1       8       1       1       8       1       1       8
       1       1       8       1       1       8       1       1       8       1
       1       8       1       1       8       1       1       8       1       1
       8       1       1       8       1       1       8       1       1       8
       1       1       8       1       1       8       1       1       8       1
       1       8       1       1       8       1       1       8       1       1
       8       1       1       8       1       1       8       1       1       8
       1       1       8       1       1       8       1       1       8       1
       1       8       1       1       8       1       1       8       1       1
       8       1       1       8       1       1       8       1       1       8
       1       1       8       1       1       8       1       1       8       1
       1       8       1       1       8       1       1       8       1       1
       8       1       1       8       1       1       8       1       1       8
       1       1       8       1       1       8       1       1       8       1
       1       8       1       1       8       1       1       8       1       1
       8       1       1       8       1       1       8       1       1       8
       1       1       8       1       1       8       1       1       8       1
       1       8       1       1       8       1       1       8       1       1
       8       1       1       8       1       1       8       1       1       8
       1       1       8       1       1       8       1       1       8       1
       1       8       1       1       8       1       1       8       1       1
       8       1       1       8       1       1       8       1       1       8
       1       1       8       1       1       8       1       1       8       1
       1       8       1       1       8       1       1       8       1       1
       8       1       1       8       1       1       8       1       1       8
       1       1       8       1       1       8       1       1       8       1
       1       8       1       1       8       1       1       8       1       1
       8       1       1       8       1       1       8       1       1       8
       1       1       8       1       1       8       1       1       8       1
       1       8       1       1       8       1       1       8       1       1
       8       1       1       8       1       1       8       1       1       8
       1       1       8       1       1       8       1       1       8       1
       1       8       1       1       8       1       1       8       1       1
       8       1       1       8       1       1       8       1       1       8
       1       1       8       1       1       8       1       1       8       1
       1       8       1       1       8       1       1       8       1       1
       8       1       1       8       1       1       8       1       1       8
       1       1       8       1       1       8       1       1       8       1
       1       8       1       1       8       1       1       8       1       1
       8       1       1       8       1       1       8       1       1       8
       1       1       8       1       1       8       1       1       8       1
       1       8       1       1       8       1       1       8       1       1
       8       1       1       8       1       1       8       1       1       8
       1       1       8       1       1       8       1       1       8       1
       1       8       1       1       8       1       1       8       1       1
       8       1       1       8       1       1       8       1       1       8
       1       1       8       1       1       8       1       1       8       1
       1       8       1       1       8       1       1       8       1       1
       8       1       1       8       1       1       8       1       1       8
       1       1       8       1       1       8       1       1       8       1
       1       8       1       1       8       1       1       8       1       1
       8       1       1       8       1       1       8       1       1       8
       1       1       8       1       1       8       1       1       8       1
       1       8       1       1       8       1       1       8       1       1
       8       1       1       8       1       1       8       1       1       8
       1       1       8       1       1       8       1       1       8       1
       1       8       1       1       8       1       1       8       1       1
       8       1       1       8       1       1       8       1       1       8
       1       1       8       1       1       8       1       1       8       1
       1       8       1       1       8       1       1       8       1       1
       8       1       1       8       1       1       8       1       1       8
       1       1       8       1       1       8       1       1       8       1
       1       8       1       1       8       1       1       8       1       1
       8       1       1       8       1       1       8       1       1       8
       1       1       8       1       1       8       1       1       8       1
       1       8       1       1       8       1       1       8       1       1
       8       1       1       8       1       1       8       1       1       8
       1       1       8       1       1       8       1       1       8       1
       1       8       1       1       8       1       1       8       1       1
       8       1       1       8       1       1       8       1       1       8
       1       1       8       1       1       8       1       1       8       1
       1       8       1       1       8       1       1       8       1       1
       8       1       1       8       1       1       8       1       1       8
       1       1       8       1       1       8       1       1       8       1
       1       8       1       1       8       1       1       8       1       1
       8       1       1       8       1       1       8       1       1       8
       1       1       8       1       1       8       1       1       8       1
       1       8       1       1       8       1       1       8       1       1
       8       1       1       8       1       1       8       1       1       8
       1       1       8       1       1       8       1       1       8       1
       1       8       1       1       8       1       1       8       1       1
       8       1       1       8       1       1       8       1       1       8
       1       1       8       1       1       8       1       1       8       1
       1       8       1       1       8       1       1       8       1       1
       8       1       1       8       1       1       8       1       1       8
       1       1       8       1       1       8       1       1       8       1
       1       8       1       1       8       1       1       8       1       1
       8       1       1       8       1       1       8       1       1       8
       1       1       8       1       1       8       1       1       8       1
       1       8       1       1       8       1       1       8       1       1
       8       1       1       8       1       1       8       1       1       8
       1       1       8       1       1       8       1       1       8       1
       1       8       1       1       8       1       1       8       1       1
       8       1       1       8       1       1       8       1       1       8
       1       1       8       1       1       8       1       1       8       1
       1       8       1       1       8       1       1       8       1       1
       8       1       1       8       1       1       8       1       1       8
       1       1       8       1       1       8       1       1       8       1
       1       8       1       1       8       1       1       8       1       1
       8       1       1       8       1       1       8       1       1       8
       1       1       8       1       1       8       1       1       8       1
       1       8       1       1       8       1       1       8       1       1
       8       1       1       8       1       1       8       1       1       8
       1       1       8       1       1       8       1       1       8       1
       1       8       1       1       8       1       1       8       1       1
       8       1       1       8       1       1       8       1       1       8
       1       1       8       1       1       8       1       1       8       1
       1       8       1       1       8       1       1       8       1       1
       8       1       1       8       1       1       8       1       1       8
       1       1       8       1       1       8       1       1       8       1
       1       8       1       1       8       1       1       8       1       1
       8       1       1       8       1       1       8       1       1       8
       1       1       8       1       1       8       1       1       8       1
       1       8       1       1       8       1       1       8       1       1
       8       1       1       8       1       1       8       1       1       8
       1       1       8       1       1       8       1       1       8       1
       1       8       1       1       8       1       1       8       1       1
       8       1       1       8       1       1       8       1       1       8
       1       1       8       1       1       8       1       1       8       1
       1       8       1       1       8       1       1       8       1       1
       8       1       1       8       1       1       8       1       1       8
       1       1       8       1       1       8       1       1       8       1
       1       8       1       1       8       1       1       8       1       1
       8       1       1       8       1       1       8       1       1       8
       1       1       8       1       1       8       1       1       8       1
       1       8       1       1       8       1       1       8       1       1
       8       1       1       8       1       1       8       1       1       8
       1       1       8       1       1       8       1       1       8       1
       1       8       1       1       8       1       1       8       1       1
       8       1       1       8       1       1       8       1       1       8
       1       1       8       1       1       8       1       1       8       1
       1       8       1       1       8       1       1       8       1       1
       8       1       1       8       1       1       8       1       1       8
       1       1       8       1       1       8       1       1       8       1
       1       8       1       1       8       1       1       8       1       1
       8       1       1       8       1       1       8       1       1       8
       1       1       8       1       1       8       1       1       8       1
       1       8       1       1       8       1       1       8       1       1
       8       1       1       8       1       1       8       1       1       8
       1       1       8       1       1       8       1       1       8       1
       1       8       1       1       8       1       1       8       1       1
       8       1       1       8       1       1       8       1       1       8
       1       1       8       1       1       8       1       1       8       1
       1       8       1       1       8       1       1       8       1       1
       8       1       1       8       1       1       8       1       1       8
       1       1       8       1       1       8       1       1       8       1
       1       8       1       1       8       1       1       8       1       1
       8       1       1       8       1       1       8       1       1       8
       1       1       8       1       1       8       1       1       8       1
       1       8       1       1       8       1       1       8       1       1
       8       1       1       8       1       1       8       1       1       8
       1       1       8       1       1       8       1       1       8       1
       1       8       1       1       8       1       1       8       1       1
       8       1       1       8       1       1       8       1       1       8
       1       1       8       1       1       8       1       1       8       1
       1       8       1       1       8       1       1       8       1       1
       8       1       1       8       1       1       8       1       1       8
       1       1       8       1       1       8       1       1       8       1
       1       8       1       1       8       1       1       8       1       1
       8       1       1       8       1       1       8       1       1       8
       1       1       8       1       1       8       1       1       8       1
       1       8       1       1       8       1       1       8       1       1
       8       1       1       8       1       1       8       1       1       8
       1       1       8       1       1       8       1       1       8       1
       1       8       1       1       8       1       1       8       1       1
       8       1       1       8       1       1       8       1       1       8
       1       1       8       1       1       8       1       1       8       1
       1       8       1       1       8       1       1       8       1       1
       8       1       1       8       1       1       8       1       1       8
       1       1       8       1       1       8       1       1       8       1
       1       8       1       1       8       1       1       8       1       1
       8       1       1       8       1       1       8       1       1       8
       1       1       8       1       1       8       1       1       8       1
       1       8       1       1       8       1       1       8       1       1
       8       1       1       8       1       1       8       1       1       8
       1       1       8       1       1       8       1       1       8       1
       1       8       1       1       8       1       1       8       1       1
       8       1       1       8       1       1       8       1       1       8
       1       1       8       1       1       8       1       1       8       1
       1       8       1       1       8       1       1       8       1       1
       8       1       1       8       1       1       8       1       1       8
       1       1       8       1       1       8       1       1       8       1
       1       8       1       1       8       1       1       8       1       1
       8       1       1       8       1       1       8       1       1       8
       1       1       8       1       1       8       1       1       8       1
       1       8       1       1       8       1       1       8       1       1
       8       1       1       8       1       1       8       1       1       8
       1       1       8       1       1       8       1       1       8       1
       1       8       1       1       8       1       1       8       1       1
       8       1       1       8       1       1       8       1       1       8
       1       1       8       1       1       8       1       1       8       1
       1       8       1       1       8       1       1       8       1       1
       8       1       1       8       1       1       8       1       1       8
       1       1       8       1       1       8       1       1       8       1
       1       8       1       1       8       1       1       8       1       1
       8       1       1       8       1       1       8       1       1       8
       1       1       8       1       1       8       1       1       8       1
       1       8       1       1       8       1       1       8       1       1
       8       1       1       8       1       1       8       1       1       8
       1       1       8       1       1       8       1       1       8       1
       1       8       1       1       8       1       1       8       1       1
       8       1       1       8       1       1       8       1       1       8
       1       1       8       1       1       8       1       1       8       1
       1       8       1       1       8       1       1       8       1       1
       8       1       1       8       1       1       8       1       1       8
       1       1       8       1       1       8       1       1       8       1
       1       8       1       1       8       1       1       8       1       1
       8       1       1       8       1       1       8       1       1       8
       1       1       8       1       1       8       1       1       8       1
       1       8       1       1       8       1       1       8       1       1
       8       1       1       8       1       1       8       1       1       8
       1       1       8       1       1       8       1       1       8       1
       1       8       1       1       8       1       1       8       1       1
       8       1       1       8       1       1       8       1       1       8
       1       1       8       1       1       8       1       1       8       1
       1       8       1       1       8       1       1       8       1       1
       8       1       1       8       1       1       8       1       1       8
       1       1       8       1       1       8       1       1       8       1
       1       8       1       1       8       1       1       8       1       1
       8       1       1       8       1       1       8       1       1       8
       1       1       8       1       1       8       1       1       8       1
       1       8       1       1       8       1       1       8       1       1
       8       1       1       8       1       1       8       1       1       8
       1       1       8       1       1       8       1       1       8       1
       1       8       1       1       8       1       1       8       1       1
       8       1       1       8       1       1       8       1       1       8
       1       1       8       1       1       8       1       1       8       1
       1       8       1       1       8       1       1       8       1       1
       8       1       1       8       1       1       8       1       1       8
       1       1       8       1       1       8       1       1       8       1
       1       8       1       1       8       1       1       8       1       1
       8       1       1       8       1       1       8       1       1       8
       1       1       8       1       1       8       1       1       8       1
       1       8       1       1       8       1       1       8       1       1
       8       1       1       8       1       1       8       1       1       8
       1       1       8       1       1       8       1       1       8       1
       1       8       1       1       8       1       1       8       1       1
       8       1       1       8       1       1       8       1       1       8
       1       1       8       1       1       8       1       1       8       1
       1       8       1       1       8       1       1       8       1       1
       8       1       1       8       1       1       8       1       1       8
       1       1       8       1       1       8       1       1       8       1
       1       8       1       1       8       1       1       8       1       1
       8       1       1       8       1       1       8       1       1       8
       1       1       8       1       1       8       1       1       8       1
       1       8       1       1       8       1       1       8       1       1
       8       1       1       8       1       1       8       1       1       8
       1       1       8       1       1       8       1       1       8       1
       1       8       1       1       8       1       1       8       1       1
       8       1       1       8       1       1       8       1       1       8
       1       1       8       1       1       8       1       1       8       1
       1       8       1       1       8       1       1       8       1       1
       8       1       1       8       1       1       8       1       1       8
       1       1       8       1       1       8       1       1       8       1
       1       8       1       1       8       1       1       8       1       1
       8       1       1       8       1       1       8       1       1       8
       1       1       8       1       1       8       1       1       8       1
       1       8       1       1       8       1       1       8       1       1
       8       1       1       8       1       1       8       1       1       8
       1       1       8       1       1       8       1       1       8       1
       1       8       1       1       8       1       1       8       1       1
       8       1       1       8       1       1       8       1       1       8
       1       1       8       1       1       8       1       1       8       1
       1       8       1       1       8       1       1       8       1       1
       8       1       1       8       1       1       8       1       1       8
       1       1       8       1       1       8       1       1       8       1
       1       8       1       1       8       1       1       8       1       1
       8       1       1       8       1       1       8       1       1       8
       1       1       8       1       1       8       1       1       8       1
       1       8       1       1       8       1       1       8       1       1
       8       1       1       8       1       1       8       1       1       8
       1       1       8       1       1       8       1       1       8       1
       1       8       1       1       8       1       1       8       1       1
       8       1       1       8       1       1       8       1       1       8
       1       1       8       1       1       8       1       1       8       1
       1       8       1       1       8       1       1       8       1       1
       8       1       1       8       1       1       8       1       1       8
       1       1       8       1       1       8       1       1       8       1
       1       8       1       1       8       1       1       8       1       1
       8       1       1       8       1       1       8       1       1       8
       1       1       8       1       1       8       1       1       8       1
       1       8       1       1       8       1       1       8       1       1
       8       1       1       8       1       1       8       1       1       8
       1       1       8       1       1       8       1       1       8       1
       1       8       1       1       8       1       1       8       1       1
       8       1       1       8       1       1       8       1       1       8
       1       1       8       1       1       8       1       1       8       1
       1       8       1       1       8       1       1       8       1       1
       8       1       1       8       1       1       8       1       1       8
       1       1       8       1       1       8       1       1       8       1
       1       8       1       1       8       1       1       8       1       1
       8       1       1       8       1       1       8       1       1       8
       1       1       8       1       1       8       1       1       8       1
       1       8       1       1       8       1       1       8       1       1
       8       1       1       8       1       1       8       1       1       8
       1       1       8       1       1       8       1       1       8       1
       1       8       1       1       8       1       1       8       1       1
       8       1       1       8       1       1       8       1       1       8
       1       1       8       1       1       8       1       1       8       1
       1       8       1       1       8       1       1       8       1       1
       8       1       1       8       1       1       8       1       1       8
       1       1       8       1       1       8       1       1       8       1
       1       8       1       1       8       1       1       8       1       1
       8       1       1       8       1       1       8       1       1       8
       1       1       8       1       1       8       1       1       8       1
       1       8       1       1       8       1       1       8       1       1
       8       1       1       8       1       1       8       1       1       8
       1       1       8       1       1       8       1       1       8       1
       1       8       1       1       8       1       1       8       1       1
       8       1       1       8       1       1       8       1       1       8
       1       1       8       1       1       8       1       1       8       1
       1       8       1       1       8       1       1       8       1       1
       8       1       1       8       1       1       8       1       1       8
       1       1       8       1       1       8       1       1       8       1
       1       8       1       1       8       1       1       8       1       1
       8       1       1       8       1       1       8       1       1       8
       1       1       8       1       1       8       1       1       8       1
       1       8       1       1       8       1       1       8       1       1
       8       1       1       8       1       1       8       1       1       8
       1       1       8       1       1       8       1       1       8       1
       1       8       1       1       8       1       1       8       1       1
       8       1       1       8       1       1       8       1       1       8
       1       1       8       1       1       8       1       1       8       1
       1       8       1       1       8       1       1       8       1       1
       8       1       1       8       1       1       8       1       1       8
       1       1       8       1       1       8       1       1       8       1
       1       8       1       1       8       1       1       8       1       1
       8       1       1       8       1       1       8       1       1       8
       1       1       8       1       1       8       1       1       8       1
       1       8       1       1       8       1       1       8       1       1
       8       1       1       8       1       1       8       1       1       8
       1       1       8       1       1       8       1       1       8       1
       1       8       1       1       8       1       1       8       1       1
       8       1       1       8       1       1       8       1       1       8
       1       1       8       1       1       8       1       1       8       1
       1       8       1       1       8       1       1       8       1       1
       8       1       1       8       1       1       8       1       1       8
       1       1       8       1       1       8       1       1       8       1
       1       8       1       1       8       1       1       8       1       1
       8       1       1       8       1       1       8       1       1       8
       1       1       8       1       1       8       1       1       8       1
       1       8       1       1       8       1       1       8       1       1
       8       1       1       8       1       1       8       1       1       8
       1       1       8       1       1       8       1       1       8       1
       1       8       1       1       8       1       1       8       1       1
       8       1       1       8       1       1       8       1       1       8
       1       1       8       1       1       8       1       1       8       1
       1       8       1       1       8       1       1       8       1       1
       8       1       1       8       1       1       8       1       1       8
       1       1       8       1       1       8       1       1       8       1
       1       8       1       1       8       1       1       8       1       1
       8       1       1       8       1       1       8       1       1       8
       1       1       8       1       1       8       1       1       8       1
       1       8       1       1       8       1       1       8       1       1
       8       1       1       8       1       1       8       1       1       8
       1       1       8       1       1       8       1       1       8       1
       1       8       1       1       8       1       1       8       1       1
       8       1       1       8       1       1       8       1       1       8
       1       1       8       1       1       8       1       1       8       1
       1       8       1       1       8       1       1       8       1       1
       8       1       1       8       1       1       8       1       1       8
       1       1       8       1       1       8       1       1       8       1
       1       8       1       1       8       1       1       8       1       1
       8       1       1       8       1       1       8       1       1       8
       1       1       8       1       1       8       1       1       8       1
       1       8       1       1       8       1       1       8       1       1
       8       1       1       8       1       1       8       1       1       8
       1       1       8       1       1       8       1       1       8       1
       1       8       1       1       8       1       1       8       1       1
       8       1       1       8       1       1       8       1       1       8
       1       1       8       1       1       8       1       1       8       1
       1       8       1       1       8       1       1       8       1       1
       8       1       1       8       1       1       8       1       1       8
       1       1       8       1       1       8       1       1       8       1
       1       8       1       1       8       1       1       8       1       1
       8       1       1       8       1       1       8       1       1       8
       1       1       8       1       1       8       1       1       8       1
       1       8       1       1       8       1       1       8       1       1
       8       1       1       8       1       1       8       1       1       8
       1       1       8       1       1       8       1       1       8       1
       1       8       1       1       8       1       1       8       1       1
       8       1       1       8       1       1       8       1       1       8
       1       1       8       1       1       8       1       1       8       1
       1       8       1       1       8       1       1       8       1       1
       8       1       1       8       1       1       8       1       1       8
       1       1       8       1       1       8       1       1       8       1
       1       8       1       1       8       1       1       8       1       1
       8       1       1       8       1       1       8       1       1       8
       1       1       8       1       1       8       1       1       8       1
       1       8       1       1       8       1       1       8       1       1
       8       1       1       8       1       1       8       1       1       8
       1       1       8       1       1       8       1       1       8       1
       1       8       1       1       8       1       1       8       1       1
       8       1       1       8       1       1       8       1       1       8
       1       1       8       1       1       8       1       1       8       1
       1       8       1       1       8       1       1       8       1       1
       8       1       1       8       1       1       8       1       1       8
       1       1       8       1       1       8       1       1       8       1
       1       8       1       1       8       1       1       8       1       1
       8       1       1       8       1       1       8       1       1       8
       1       1       8       1       1       8       1       1       8       1
       1       8       1       1       8       1       1       8       1       1
       8       1       1       8       1       1       8       1       1       8
       1       1       8       1       1       8       1       1       8       1
       1       8       1       1       8       1       1       8       1       1
       8       1       1       8       1       1       8       1       1       8
       1       1       8       1       1       8       1       1       8       1
       1       8       1       1       8       1       1       8       1       1
       8       1       1       8       1       1       8       1       1       8
       1       1       8       1       1       8       1       1       8       1
       1       8       1       1       8       1       1       8       1       1
       8       1       1       8       1       1       8       1       1       8
       1       1       8       1       1       8       1       1       8       1
       1       8       1       1       8       1       1       8       1       1
       8       1       1       8       1       1       8       1       1       8
       1       1       8       1       1       8       1       1       8       1
       1       8       1       1       8       1       1       8       1       1
       8       1       1       8       1       1       8       1       1       8
       1       1       8       1       1       8       1       1       8       1
       1       8       1       1       8       1       1       8       1       1
       8       1       1       8       1       1       8       1       1       8
       1       1       8       1       1       8       1       1       8       1
       1       8       1       1       8       1       1       8       1       1
       8       1       1       8       1       1       8       1       1       8
       1       1       8       1       1       8       1       1       8       1
       1       8       1       1       8       1       1       8       1       1
       8       1       1       8       1       1       8       1       1       8
       1       1       8       1       1       8       1       1       8       1
       1       8       1       1       8       1       1       8       1       1
       8       1       1       8       1       1       8       1       1       8
       1       1       8       1       1       8       1       1       8       1
       1       8       1       1       8       1       1       8       1       1
       8       1       1       8       1       1       8       1       1       8
       1       1       8       1       1       8       1       1       8       1
       1       8       1       1       8       1       1       8       1       1
       8       1       1       8       1       1       8       1       1       8
       1       1       8       1       1       8       1       1       8       1
       1       8       1       1       8       1       1       8       1       1
       8       1       1       8       1       1       8       1       1       8
       1       1       8       1       1       8       1       1       8       1
       1       8       1       1       8       1       1       8       1       1
       8       1       1       8       1       1       8       1       1       8
       1       1       8       1       1       8       1       1       8       1
       1       8       1       1       8       1       1       8       1       1
       8       1       1       8       1       1       8       1       1       8
       1       1       8       1       1       8       1       1       8       1
       1       8       1       1       8       1       1       8       1       1
       8       1       1       8       1       1       8       1       1       8
       1       1       8       1       1       8       1       1       8       1
       1       8       1       1       8       1       1       8       1       1
       8       1       1       8       1       1       8       1       1       8
       1       1       8       1       1       8       1       1       8       1
       1       8       1       1       8       1       1       8       1       1
       8       1       1       8       1       1       8       1       1       8
       1       1       8       1       1       8       1       1       8       1
       1       8       1       1       8       1       1       8       1       1
       8       1       1       8       1       1       8       1       1       8
       1       1       8       1       1       8       1       1       8       1
       1       8       1       1       8       1       1       8       1       1
       8       1       1       8       1       1       8       1       1       8
       1       1       8       1       1       8       1       1       8       1
       1       8       1       1       8       1       1       8       1       1
       8       1       1       8       1       1       8       1       1       8
       1       1       8       1       1       8       1       1       8       1
       1       8       1       1       8       1       1       8       1       1
       8       1       1       8       1       1       8       1       1       8
       1       1       8       1       1       8       1       1       8       1
       1       8       1       1       8       1       1       8       1       1
       8       1       1       8       1       1       8       1       1       8
       1       1       8       1       1       8       1       1       8       1
       1       8       1       1       8       1       1       8       1       1
       8       1       1       8       1       1       8       1       1       8
       1       1       8       1       1       8       1       1       8       1
       1       8       1       1       8       1       1       8       1       1
       8       1       1       8       1       1       8       1       1       8
       1       1       8       1       1       8       1       1       8       1
       1       8       1       1       8       1       1       8       1       1
       8       1       1       8       1       1       8       1       1       8
       1       1       8       1       1       8       1       1       8       1
       1       8       1       1       8       1       1       8       1       1
       8       1       1       8       1       1       8       1       1       8
       1       1       8       1       1       8       1       1       8       1
       1       8       1       1       8       1       1       8       1       1
       8       1       1       8       1       1       8       1       1       8
       1       1       8       1       1       8       1       1       8       1
       1       8       1       1       8       1       1       8       1       1
       8       1       1       8       1       1       8       1       1       8
       1       1       8       1       1       8       1       1       8       1
       1       8       1       1       8       1       1       8       1       1
       8       1       1       8       1       1       8       1       1       8
       1       1       8       1       1       8       1       1       8       1
       1       8       1       1       8       1       1       8       1       1
       8       1       1       8       1       1       8       1       1       8
       1       1       8       1       1       8       1       1       8       1
       1       8       1       1       8       1       1       8       1       1
       8       1       1       8       1       1       8       1       1       8
       1       1       8       1       1       8       1       1       8       1
       1       8       1       1       8       1       1       8       1       1
       8       1       1       8       1       1       8       1       1       8
       1       1       8       1       1       8       1       1       8       1
       1       8       1       1       8       1       1       8       1       1
       8       1       1       8       1       1       8       1       1       8
       1       1       8       1       1       8       1       1       8       1
       1       8       1       1       8       1       1       8       1       1
       8       1       1       8       1       1       8       1       1       8
       1       1       8       1       1       8       1       1       8       1
       1       8       1       1       8       1       1       8       1       1
       8       1       1       8       1       1       8       1       1       8
       1       1       8       1       1       8       1       1       8       1
       1       8       1       1       8       1       1       8       1       1
       8       1       1       8       1       1       8       1       1       8
       1       1       8       1       1       8       1       1       8       1
       1       8       1       1       8       1       1       8       1       1
       8       1       1       8       1       1       8       1       1       8
       1       1       8       1       1       8       1       1       8       1
       1       8       1       1       8       1       1       8       1       1
       8       1       1       8       1       1       8       1       1       8
       1       1       8       1       1       8       1       1       8       1
       1       8       1       1       8       1       1       8       1       1
       8       1       1       8       1       1       8       1       1       8
       1       1       8       1       1       8       1       1       8       1
       1       8       1       1       8       1       1       8       1       1
       8       1       1       8       1       1       8       1       1       8
       1       1       8       1       1       8       1       1       8       1
       1       8       1       1       8       1       1       8       1       1
       8       1       1       8       1       1       8       1       1       8
       1       1       8       1       1       8       1       1       8       1
       1       8       1       1       8       1       1       8       1       1
       8       1       1       8       1       1       8       1       1       8
       1       1       8       1       1       8       1       1       8       1
       1       8       1       1       8       1       1       8       1       1
       8       1       1       8       1       1       8       1       1       8
       1       1       8       1       1       8       1       1       8       1
       1       8       1       1       8       1       1       8       1       1
       8       1       1       8       1       1       8       1       1       8
       1       1       8       1       1       8       1       1       8       1
       1       8       1       1       8       1       1       8       1       1
       8       1       1       8       1       1       8       1       1       8
       1       1       8       1       1       8       1       1       8       1
       1       8       1       1       8       1       1       8       1       1
       8       1       1       8       1       1       8       1       1       8
       1       1       8       1       1       8       1       1       8       1
       1       8       1       1       8       1       1       8       1       1
       8       1       1       8       1       1       8       1       1       8
       1       1       8       1       1       8       1       1       8       1
       1       8       1       1       8       1       1       8       1       1
       8       1       1       8       1       1       8       1       1       8
       1       1       8       1       1       8       1       1       8       1
       1       8       1       1       8       1       1       8       1       1
       8       1       1       8       1       1       8       1       1       8
       1       1       8       1       1       8       1       1       8       1
       1       8       1       1       8       1       1       8       1       1
       8       1       1       8       1       1       8       1       1       8
       1       1       8       1       1       8       1       1       8       1
       1       8       1       1       8       1       1       8       1       1
       8       1       1       8       1       1       8       1       1       8
       1       1       8       1       1       8       1       1       8       1
       1       8       1       1       8       1       1       8       1       1
       8       1       1       8       1       1       8       1       1       8
       1       1       8       1       1       8       1       1       8       1
       1       8       1       1       8       1       1       8       1       1
       8       1       1       8       1       1       8       1       1       8
       1       1       8       1       1       8       1       1       8       1
       1       8       1       1       8       1       1       8       1       1
       8       1       1       8       1       1       8       1       1       8
       1       1       8       1       1       8       1       1       8       1
       1       8       1       1       8       1       1       8       1       1
       8       1       1       8       1       1       8       1       1       8
       1       1       8       1       1       8       1       1       8       1
       1       8       1       1       8       1       1       8       1       1
       8       1       1       8       1       1       8       1       1       8
       1       1       8       1       1       8       1       1       8       1
       1       8       1       1       8       1       1       8       1       1
       8       1       1       8       1       1       8       1       1       8
       1       1       8       1       1       8       1       1       8       1
       1       8       1       1       8       1       1       8       1       1
       8       1       1       8       1       1       8       1       1       8
       1       1       8       1       1       8       1       1       8       1
       1       8       1       1       8       1       1       8       1       1
       8       1       1       8       1       1       8       1       1       8
       1       1       8       1       1       8       1       1       8       1
       1       8       1       1       8       1       1       8       1       1
       8       1       1       8       1       1       8       1       1       8
       1       1       8       1       1       8       1       1       8       1
       1       8       1       1       8       1       1       8       1       1
       8       1       1       8       1       1       8       1       1       8
       1       1       8       1       1       8       1       1       8       1
       1       8       1       1       8       1       1       8       1       1
       8       1       1       8       1       1       8       1       1       8
       1       1       8       1       1       8       1       1       8       1
       1       8       1       1       8       1       1       8       1       1
       8       1       1       8       1       1       8       1       1       8
       1       1       8       1       1       8       1       1       8       1
       1       8       1       1       8       1       1       8       1       1
       8       1       1       8       1       1       8       1       1       8
       1       1       8       1       1       8       1       1       8       1
       1       8       1       1       8       1       1       8       1       1
       8       1       1       8       1       1       8       1       1       8
       1       1       8       1       1       8       1       1       8       1
       1       8       1       1       8       1       1       8       1       1
       8       1       1       8       1       1       8       1       1       8
       1       1       8       1       1       8       1       1       8       1
       1       8       1       1       8       1       1       8       1       1
       8       1       1       8       1       1       8       1       1       8
       1       1       8       1       1       8       1       1       8       1
       1       8       1       1       8       1       1       8       1       1
       8       1       1       8       1       1       8       1       1       8
       1       1       8       1       1       8       1       1       8       1
       1       8       1       1       8       1       1       8       1       1
       8       1       1       8       1       1       8       1       1       8
       1       1       8       1       1       8       1       1       8       1
       1       8       1       1       8       1       1       8       1       1
       8       1       1       8       1       1       8       1       1       8
       1       1       8       1       1       8       1       1       8       1
       1       8       1       1       8       1       1       8       1       1
       8       1       1       8       1       1       8       1       1       8
       1       1       8       1       1       8       1       1       8       1
       1       8       1       1       8       1       1       8       1       1
       8       1       1       8       1       1       8       1       1       8
       1       1       8       1       1       8       1       1       8       1
       1       8       1       1       8       1       1       8       1       1
       8       1       1       8       1       1       8       1       1       8
       1       1       8       1       1       8       1       1       8       1
       1       8       1       1       8       1       1       8       1       1
       8       1       1       8       1       1       8       1       1       8
       1       1       8       1       1       8       1       1       8       1
       1       8       1       1       8       1       1       8       1       1
       8       1       1       8       1       1       8       1       1       8
       1       1       8       1       1       8       1       1       8       1
       1       8       1       1       8       1       1       8       1       1
       8       1       1       8       1       1       8       1       1       8
       1       1       8       1       1       8       1       1       8       1
       1       8       1       1       8       1       1       8       1       1
       8       1       1       8       1       1       8       1       1       8
       1       1       8       1       1       8       1       1       8       1
       1       8       1       1       8       1       1       8       1       1
       8       1       1       8       1       1       8       1       1       8
       1       1       8       1       1       8       1       1       8       1
       1       8       1       1       8       1       1       8       1       1
       8       1       1       8       1       1       8       1       1       8
       1       1       8       1       1       8       1       1       8       1
       1       8       1       1       8       1       1       8       1       1
       8       1       1       8       1       1       8       1       1       8
       1       1       8       1       1       8       1       1       8       1
       1       8       1       1       8       1       1       8       1       1
       8       1       1       8       1       1       8       1       1       8
       1       1       8       1       1       8       1       1       8       1
       1       8       1       1       8       1       1       8       1       1
       8       1       1       8       1       1       8       1       1       8
       1       1       8       1       1       8       1       1       8       1
       1       8       1       1       8       1       1       8       1       1
       8       1       1       8       1       1       8       1       1       8
       1       1       8       1       1       8       1       1       8       1
       1       8       1       1       8       1       1       8       1       1
       8       1       1       8       1       1       8       1       1       8
       1       1       8       1       1       8       1       1       8       1
       1       8       1       1       8       1       1       8       1       1
       8       1       1       8       1       1       8       1       1       8
       1       1       8       1       1       8       1       1       8       1
       1       8       1       1       8       1       1       8       1       1
       8       1       1       8       1       1       8       1       1       8
       1       1       8       1       1       8       1       1       8       1
       1       8       1       1       8       1       1       8       1       1
       8       1       1       8       1       1       8       1       1       8
       1       1       8       1       1       8       1       1       8       1
       1       8       1       1       8       1       1       8       1       1
       8       1       1       8       1       1       8       1       1       8
       1       1       8       1       1       8       1       1       8       1
       1       8       1       1       8       1       1       8       1       1
       8       1       1       8       1       1       8       1       1       8
       1       1       8       1       1       8       1       1       8       1
       1       8       1       1       8       1       1       8       1       1
       8       1       1       8       1       1       8       1       1       8
       1       1       8       1       1       8       1       1       8       1
       1       8       1       1       8       1       1       8       1       1
       8       1       1       8       1       1       8       1       1       8
       1       1       8       1       1       8       1       1       8       1
       1       8       1       1       8       1       1       8       1       1
       8       1       1       8       1       1       8       1       1       8
       1       1       8       1       1       8       1       1       8       1
       1       8       1       1       8       1       1       8       1       1
       8       1       1       8       1       1       8       1       1       8
       1       1       8       1       1       8       1       1       8       1
       1       8       1       1       8       1       1       8       1       1
       8       1       1       8       1       1       8       1       1       8
       1       1       8       1       1       8       1       1       8       1
       1       8       1       1       8       1       1       8       1       1
       8       1       1       8       1       1       8       1       1       8
       1       1       8       1       1       8       1       1       8       1
       1       8       1       1       8       1       1       8       1       1
       8       1       1       8       1       1       8       1       1       8
       1       1       8       1       1       8       1       1       8       1
       1       8       1       1       8       1       1       8       1       1
       8       1       1       8       1       1       8       1       1       8
       1       1       8       1       1       8       1       1       8       1
       1       8       1       1       8       1       1       8       1       1
       8       1       1       8       1       1       8       1       1       8
       1       1       8       1       1       8       1       1       8       1
       1       8       1       1       8       1       1       8       1       1
       8       1       1       8       1       1       8       1       1       8
       1       1       8       1       1       8       1       1       8       1
       1       8       1       1       8       1       1       8       1       1
       8       1       1       8       1       1       8       1       1       8
       1       1       8       1       1       8       1       1       8       1
       1       8       1       1       8       1       1       8       1       1
       8       1       1       8       1       1       8       1       1       8
       1       1       8       1       1       8       1       1       8       1
       1       8       1       1       8       1       1       8       1       1
       8       1       1       8       1       1       8       1       1       8
       1       1       8       1       1       8       1       1       8       1
       1       8       1       1       8       1       1       8       1       1
       8       1       1       8       1       1       8       1       1       8
       1       1       8       1       1       8       1       1       8       1
       1       8       1       1       8       1       1       8       1       1
       8       1       1       8       1       1       8       1       1       8
       1       1       8       1       1       8       1       1       8       1
       1       8       1       1       8       1       1       8       1       1
       8       1       1       8       1       1       8       1       1       8
       1       1       8       1       1       8       1       1       8       1
       1       8       1       1       8       1       1       8       1       1
       8       1       1       8       1       1       8       1       1       8
       1       1       8       1       1       8       1       1       8       1
       1       8       1       1       8       1       1       8       1       1
       8       1       1       8       1       1       8       1       1       8
       1       1       8       1       1       8       1       1       8       1
       1       8       1       1       8       1       1       8       1       1
       8       1       1       8       1       1       8       1       1       8
       1       1       8       1       1       8       1       1       8       1
       1       8       1       1       8       1       1       8       1       1
       8       1       1       8       1       1       8       1       1       8
       1       1       8       1       1       8       1       1       8       1
       1       8       1       1       8       1       1       8       1       1
       8       1       1       8       1       1       8       1       1       8
       1       1       8       1       1       8       1       1       8       1
       1       8       1       1       8       1       1       8       1       1
       8       1       1       8       1       1       8       1       1       8
       1       1       8       1       1       8       1       1       8       1
       1       8       1       1       8       1       1       8       1       1
       8       1       1       8       1       1       8       1       1       8
       1       1       8       1       1       8       1       1       8       1
       1       8       1       1       8       1       1       8       1       1
       8       1       1       8       1       1       8       1       1       8
       1       1       8       1       1       8       1       1       8       1
       1       8       1       1       8       1       1       8       1       1
       8       1       1       8       1       1       8       1       1       8
       1       1       8       1       1       8       1       1       8       1
       1       8       1       1       8       1       1       8       1       1
       8       1       1       8       1       1       8       1       1       8
       1       1       8       1       1       8       1       1       8       1
       1       8       1       1       8       1       1       8       1       1
       8       1       1       8       1       1       8       1       1       8
       1       1       8       1       1       8       1       1       8       1
       1       8       1       1       8       1       1       8       1       1
       8       1       1       8       1       1       8       1       1       8
       1       1       8       1       1       8       1       1       8       1
       1       8       1       1       8       1       1       8       1       1
       8       1       1       8       1       1       8       1       1       8
       1       1       8       1       1       8       1       1       8       1
       1       8       1       1       8       1       1       8       1       1
       8       1       1       8       1       1       8       1       1       8
       1       1       8       1       1       8       1       1       8       1
       1       8       1       1       8       1       1       8       1       1
       8       1       1       8       1       1       8       1       1       8
       1       1       8       1       1       8       1       1       8       1
       1       8       1       1       8       1       1       8       1       1
       8       1       1       8       1       1       8       1       1       8
       1       1       8       1       1       8       1       1       8       1
       1       8       1       1       8       1       1       8       1       1
       8       1       1       8       1       1       8       1       1       8
       1       1       8       1       1       8       1       1       8       1
       1       8       1       1       8       1       1       8       1       1
       8       1       1       8       1       1       8       1       1       8
       1       1       8       1       1       8       1       1       8       1
       1       8       1       1       8       1       1       8       1       1
       8       1       1       8       1       1       8       1       1       8
       1       1       8       1       1       8       1       1       8       1
       1       8       1       1       8       1       1       8       1       1
       8       1       1       8       1       1       8       1       1       8
       1       1       8       1       1       8       1       1       8       1
       1       8       1       1       8       1       1       8       1       1
       8       1       1       8       1       1       8       1       1       8
       1       1       8       1       1       8       1       1       8       1
       1       8       1       1       8       1       1       8       1       1
       8       1       1       8       1       1       8       1       1       8
       1       1       8       1       1       8       1       1       8       1
       1       8       1       1       8       1       1       8       1       1
       8       1       1       8       1       1       8       1       1       8
       1       1       8       1       1       8       1       1       8       1
       1       8       1       1       8       1       1       8       1       1
       8       1       1       8       1       1       8       1       1       8
       1       1       8       1       1       8       1       1       8       1
       1       8       1       1       8       1       1       8       1       1
       8       1       1       8       1       1       8       1       1       8
       1       1       8       1       1       8       1       1       8       1
       1       8       1       1       8       1       1       8       1       1
       8       1       1       8       1       1       8       1       1       8
       1       1       8       1       1       8       1       1       8       1
       1       8       1       1       8       1       1       8       1       1
       8       1       1       8       1       1       8       1       1       8
       1       1       8       1       1       8       1       1       8       1
       1       8       1       1       8       1       1       8       1       1
       8       1       1       8       1       1       8       1       1       8
       1       1       8       1       1       8       1       1       8       1
       1       8       1       1       8       1       1       8       1       1
       8       1       1       8       1       1       8       1       1       8
       1       1       8       1       1       8       1       1       8       1
       1       8       1       1       8       1       1       8       1       1
       8       1       1       8       1       1       8       1       1       8
       1       1       8       1       1       8       1       1       8       1
       1       8       1       1       8       1       1       8       1       1
       8       1       1       8       1       1       8       1       1       8
       1       1       8       1       1       8       1       1       8       1
       1       8       1       1       8       1       1       8       1       1
       8       1       1       8       1       1       8       1       1       8
       1       1       8       1       1       8       1       1       8       1
       1       8       1       1       8       1       1       8       1       1
       8       1       1       8       1       1       8       1       1       8
       1       1       8       1       1       8       1       1       8       1
       1       8       1       1       8       1       1       8       1       1
       8       1       1       8       1       1       8       1       1       8
       1       1       8       1       1       8       1       1       8       1
       1       8       1       1       8       1       1       8       1       1
       8       1       1       8       1       1       8       1       1       8
       1       1       8       1       1       8       1       1       8       1
       1       8       1       1       8       1       1       8       1       1
       8       1       1       8       1       1       8       1       1       8
       1       1       8       1       1       8       1       1       8       1
       1       8       1       1       8       1       1       8       1       1
       8       1       1       8       1       1       8       1       1       8
       1       1       8       1       1       8       1       1       8       1
       1       8       1       1       8       1       1       8       1       1
       8       1       1       8       1       1       8       1       1       8
       1       1       8       1       1       8       1       1       8       1
       1       8       1       1       8       1       1       8       1       1
       8       1       1       8       1       1       8       1       1       8
       1       1       8       1       1       8       1       1       8       1
       1       8       1       1       8       1       1       8       1       1
       8       1       1       8       1       1       8       1       1       8
       1       1       8       1       1       8       1       1       8       1
       1       8       1       1       8       1       1       8       1       1
       8       1       1       8       1       1       8       1       1       8
       1       1       8       1       1       8       1       1       8       1
       1       8       1       1       8       1       1       8       1       1
       8       1       1       8       1       1       8       1       1       8
       1       1       8       1       1       8       1       1       8       1
       1       8       1       1       8       1       1       8       1       1
       8       1       1       8       1       1       8       1       1       8
       1       1       8       1       1       8       1       1       8       1
       1       8       1       1       8       1       1       8       1       1
       8       1       1       8       1       1       8       1       1       8
       1       1       8       1       1       8       1       1       8       1
       1       8       1       1       8       1       1       8       1       1
       8       1       1       8       1       1       8       1       1       8
       1       1       8       1       1       8       1       1       8       1
       1       8       1       1       8       1       1       8       1       1
       8       1       1       8       1       1       8       1       1       8
       1       1       8       1       1       8       1       1       8       1
       1       8       1       1       8       1       1       8       1       1
       8       1       1       8       1       1       8       1       1       8
       1       1       8       1       1       8       1       1       8       1
       1       8       1       1       8       1       1       8       1       1
       8       1       1       8       1       1       8       1       1       8
       1       1       8       1       1       8       1       1       8       1
       1       8       1       1       8       1       1       8       1       1
       8       1       1       8       1       1       8       1       1       8
       1       1       8       1       1       8       1       1       8       1
       1       8       1       1       8       1       1       8       1       1
       8       1       1       8       1       1       8       1       1       8
       1       1       8       1       1       8       1       1       8       1
       1       8       1       1       8       1       1       8       1       1
       8       1       1       8       1       1       8       1       1       8
       1       1       8       1       1       8       1       1       8       1
       1       8       1       1       8       1       1       8       1       1
       8       1       1       8       1       1       8       1       1       8
       1       1       8       1       1       8       1       1       8       1
       1       8       1       1       8       1       1       8       1       1
       8       1       1       8       1       1       8       1       1       8
       1       1       8       1       1       8       1       1       8       1
       1       8       1       1       8       1       1       8       1       1
       8       1       1       8       1       1       8       1       1       8
       1       1       8       1       1       8       1       1       8       1
       1       8       1       1       8       1       1       8       1       1
       8       1       1       8       1       1       8       1       1       8
       1       1       8       1       1       8       1       1       8       1
       1       8       1       1       8       1       1       8       1       1
       8       1       1       8       1       1       8       1       1       8
       1       1       8       1       1       8       1       1       8       1
       1       8       1       1       8       1       1       8       1       1
       8       1       1       8       1       1       8       1       1       8
       1       1       8       1       1       8       1       1       8       1
       1       8       1       1       8       1       1       8       1       1
       8       1       1       8       1       1       8       1       1       8
       1       1       8       1       1       8       1       1       8       1
       1       8       1       1       8       1       1       8       1       1
       8       1       1       8       1       1       8       1       1       8
       1       1       8       1       1       8       1       1       8       1
       1       8       1       1       8       1       1       8       1       1
       8       1       1       8       1       1       8       1       1       8
       1       1       8       1       1       8       1       1       8       1
       1       8       1       1       8       1       1       8       1       1
       8       1       1       8       1       1       8       1       1       8
       1       1       8       1       1       8       1       1       8       1
       1       8       1       1       8       1       1       8       1       1
       8       1       1       8       1       1       8       1       1       8
       1       1       8       1       1       8       1       1       8       1
       1       8       1       1       8       1       1       8       1       1
       8       1       1       8       1       1       8       1       1       8
       1       1       8       1       1       8       1       1       8       1
       1       8       1       1       8       1       1       8       1       1
       8       1       1       8       1       1       8       1       1       8
       1       1       8       1       1       8       1       1       8       1
       1       8       1       1       8       1       1       8       1       1
       8       1       1       8       1       1       8       1       1       8
       1       1       8       1       1       8       1       1       8       1
       1       8       1       1       8       1       1       8       1       1
       8       1       1       8       1       1       8       1       1       8
       1       1       8       1       1       8       1       1       8       1
       1       8       1       1       8       1       1       8       1       1
       8       1       1       8       1       1       8       1       1       8
       1       1       8       1       1       8       1       1       8       1
       1       8       1       1       8       1       1       8       1       1
       8       1       1       8       1       1       8       1       1       8
       1       1       8       1       1       8       1       1       8       1
       1       8       1       1       8       1       1       8       1       1
       8       1       1       8       1       1       8       1       1       8
       1       1       8       1       1       8       1       1       8       1
       1       8       1       1       8       1       1       8       1       1
       8       1       1       8       1       1       8       1       1       8
       1       1       8       1       1       8       1       1       8       1
       1       8       1       1       8       1       1       8       1       1
       8       1       1       8       1       1       8       1       1       8
       1       1       8       1       1       8       1       1       8       1
       1       8       1       1       8       1       1       8       1       1
       8       1       1       8       1       1       8       1       1       8
       1       1       8       1       1       8       1       1       8       1
       1       8       1       1       8       1       1       8       1       1
       8       1       1       8       1       1       8       1       1       8
       1       1       8       1       1       8       1       1       8       1
       1       8       1       1       8       1       1       8       1       1
       8       1       1       8       1       1       8       1       1       8
       1       1       8       1       1       8       1       1       8       1
       1       8       1       1       8       1       1       8       1       1
       8       1       1       8       1       1       8       1       1       8
       1       1       8       1       1       8       1       1       8       1
       1       8       1       1       8       1       1       8       1       1
       8       1       1       8       1       1       8       1       1       8
       1       1       8       1       1       8       1       1       8       1
       1       8       1       1       8       1       1       8       1       1
       8       1       1       8       1       1       8       1       1       8
       1       1       8       1       1       8       1       1       8       1
       1       8       1       1       8       1       1       8       1       1
       8       1       1       8       1       1       8       1       1       8
       1       1       8       1       1       8       1       1       8       1
       1       8       1       1       8       1       1       8       1       1
       8       1       1       8       1       1       8       1       1       8
       1       1       8       1       1       8       1       1       8       1
       1       8       1       1       8       1       1       8       1       1
       8       1       1       8       1       1       8       1       1       8
       1       1       8       1       1       8       1       1       8       1
       1       8       1       1       8       1       1       8       1       1
       8       1       1       8       1       1       8       1       1       8
       1       1       8       1       1       8       1       1       8       1
       1       8       1       1       8       1       1       8       1       1
       8       1       1       8       1       1       8       1       1       8
       1       1       8       1       1       8       1       1       8       1
       1       8       1       1       8       1       1       8       1       1
       8       1       1       8       1       1       8       1       1       8
       1       1       8       1       1       8       1       1       8       1
       1       8       1       1       8       1       1       8       1       1
       8       1       1       8       1       1       8       1       1       8
       1       1       8       1       1       8       1       1       8       1
       1       8       1       1       8       1       1       8       1       1
       8       1       1       8       1       1       8       1       1       8
       1       1       8       1       1       8       1       1       8       1
       1       8       1       1       8       1       1       8       1       1
       8       1       1       8       1       1       8       1       1       8
       1       1       8       1       1       8       1       1       8       1
       1       8       1       1       8       1       1       8       1       1
       8       1       1       8       1       1       8       1       1       8
       1       1       8       1       1       8       1       1       8       1
       1       8       1       1       8       1       1       8       1       1
       8       1       1       8       1       1       8       1       1       8
       1       1       8       1       1       8       1       1       8       1
       1       8       1       1       8       1       1       8       1       1
       8       1       1       8       1       1       8       1       1       8
       1       1       8       1       1       8       1       1       8       1
       1       8       1       1       8       1       1       8       1       1
       8       1       1       8       1       1       8       1       1       8
       1       1       8       1       1       8       1       1       8       1
       1       8       1       1       8       1       1       8       1       1
       8       1       1       8       1       1       8       1       1       8
       1       1       8       1       1       8       1       1       8       1
       1       8       1       1       8       1       1       8       1       1
       8       1       1       8       1       1       8       1       1       8
       1       1       8       1       1       8       1       1       8       1
       1       8       1       1       8       1       1       8       1       1
       8       1       1       8       1       1       8       1       1       8
       1       1       8       1       1       8       1       1       8       1
       1       8       1       1       8       1       1       8       1       1
       8       1       1       8       1       1       8       1       1       8
       1       1       8       1       1       8       1       1       8       1
       1       8       1       1       8       1       1       8       1       1
       8       1       1       8       1       1       8       1       1       8
       1       1       8       1       1       8       1       1       8       1
       1       8       1       1       8       1       1       8       1       1
       8       1       1       8       1       1       8       1       1       8
       1       1       8       1       1       8       1       1       8       1
       1       8       1       1       8       1       1       8       1       1
       8       1       1       8       1       1       8       1       1       8
       1       1       8       1       1       8       1       1       8       1
       1       8       1       1       8       1       1       8       1       1
       8       1       1       8       1       1       8       1       1       8
       1       1       8       1       1       8       1       1       8       1
       1       8       1       1       8       1       1       8       1       1
       8       1       1       8       1       1       8       1       1       8
       1       1       8       1       1       8       1       1       8       1
       1       8       1       1       8       1       1       8       1       1
       8       1       1       8       1       1       8       1       1       8
       1       1       8       1       1       8       1       1       8       1
       1       8       1       1       8       1       1       8       1       1
       8       1       1       8       1       1       8       1       1       8
       1       1       8       1       1       8       1       1       8       1
       1       8       1       1       8       1       1       8       1       1
       8       1       1       8       1       1       8       1       1       8
       1       1       8       1       1       8       1       1       8       1
       1       8       1       1       8       1       1       8       1       1
       8       1       1       8       1       1       8       1       1       8
       1       1       8       1       1       8       1       1       8       1
       1       8       1       1       8       1       1       8       1       1
       8       1       1       8       1       1       8       1       1       8
       1       1       8       1       1       8       1       1       8       1
       1       8       1       1       8       1       1       8       1       1
       8       1       1       8       1       1       8       1       1       8
       1       1       8       1       1       8       1       1       8       1
       1       8       1       1       8       1       1       8       1       1
       8       1       1       8       1       1       8       1       1       8
       1       1       8       1       1       8       1       1       8       1
       1       8       1       1       8       1       1       8       1       1
       8       1       1       8       1       1       8       1       1       8
       1       1       8       1       1       8       1       1       8       1
       1       8       1       1       8       1       1       8       1       1
       8       1       1       8       1       1       8       1       1       8
       1       1       8       1       1       8       1       1       8       1
       1       8       1       1       8       1       1       8       1       1
       8       1       1       8       1       1       8       1       1       8
       1       1       8       1       1       8       1       1       8       1
       1       8       1       1       8       1       1       8       1       1
       8       1       1       8       1       1       8       1       1       8
       1       1       8       1       1       8       1       1       8       1
       1       8       1       1       8       1       1       8       1       1
       8       1       1       8       1       1       8       1       1       8
       1       1       8       1       1       8       1       1       8       1
       1       8       1       1       8       1       1       8       1       1
       8       1       1       8       1       1       8       1       1       8
       1       1       8       1       1       8       1       1       8       1
       1       8       1       1       8       1       1       8       1       1
       8       1       1       8       1       1       8       1       1       8
       1       1       8       1       1       8       1       1       8       1
       1       8       1       1       8       1       1       8       1       1
       8       1       1       8       1       1       8       1       1       8
       1       1       8       1       1       8       1       1       8       1
       1       8       1       1       8       1       1       8       1       1
       8       1       1       8       1       1       8       1       1       8
       1       1       8       1       1       8       1       1       8       1
       1       8       1       1       8       1       1       8       1       1
       8       1       1       8       1       1       8       1       1       8
       1       1       8       1       1       8       1       1       8       1
       1       8       1       1       8       1       1       8       1       1
       8       1       1       8       1       1       8       1       1       8
       1       1       8       1       1       8       1       1       8       1
       1       8       1       1       8       1       1       8       1       1
       8       1       1       8       1       1       8       1       1       8
       1       1       8       1       1       8       1       1       8       1
       1       8       1       1       8       1       1       8       1       1
       8       1       1       8       1       1       8       1       1       8
       1       1       8       1       1       8       1       1       8       1
       1       8       1       1       8       1       1       8       1       1
       8       1       1       8       1       1       8       1       1       8
       1       1       8       1       1       8       1       1       8       1
       1       8       1       1       8       1       1       8       1       1
       8       1       1       8       1       1       8       1       1       8
       1       1       8       1       1       8       1       1       8       1
       1       8       1       1       8       1       1       8       1       1
       8       1       1       8       1       1       8       1       1       8
       1       1       8       1       1       8       1       1       8       1
       1       8       1       1       8       1       1       8       1       1
       8       1       1       8       1       1       8       1       1       8
       1       1       8       1       1       8       1       1       8       1
       1       8       1       1       8       1       1       8       1       1
       8       1       1       8       1       1       8       1       1       8
       1       1       8       1       1       8       1       1       8       1
       1       8       1       1       8       1       1       8       1       1
       8       1       1       8       1       1       8       1       1       8
       1       1       8       1       1       8       1       1       8       1
       1       8       1       1       8       1       1       8       1       1
       8       1       1       8       1       1       8       1       1       8
       1       1       8       1       1       8       1       1       8       1
       1       8       1       1       8       1       1       8       1       1
       8       1       1       8       1       1       8       1       1       8
       1       1       8       1       1       8       1       1       8       1
       1       8       1       1       8       1       1       8       1       1
       8       1       1       8       1       1       8       1       1       8
       1       1       8       1       1       8       1       1       8       1
       1       8       1       1       8       1       1       8       1       1
       8       1       1       8       1       1       8       1       1       8
       1       1       8       1       1       8       1       1       8       1
       1       8       1       1       8       1       1       8       1       1
       8       1       1       8       1       1       8       1       1       8
       1       1       8       1       1       8       1       1       8       1
       1       8       1       1       8       1       1       8       1       1
       8       1       1       8       1       1       8       1       1       8
       1       1       8       1       1       8       1       1       8       1
       1       8       1       1       8       1       1       8       1       1
       8       1       1       8       1       1       8       1       1       8
       1       1       8       1       1       8       1       1       8       1
       1       8       1       1       8       1       1       8       1       1
       8       1       1       8       1       1       8       1       1       8
       1       1       8       1       1       8       1       1       8       1
       1       8       1       1       8       1       1       8       1       1
       8       1       1       8       1       1       8       1       1       8
       1       1       8       1       1       8       1       1       8       1
       1       8       1       1       8       1       1       8       1       1
       8       1       1       8       1       1       8       1       1       8
       1       1       8       1       1       8       1       1       8       1
       1       8       1       1       8       1       1       8       1       1
       8       1       1       8       1       1       8       1       1       8
       1       1       8       1       1       8       1       1       8       1
       1       8       1       1       8       1       1       8       1       1
       8       1       1       8       1       1       8       1       1       8
       1       1       8       1       1       8       1       1       8       1
       1       8       1       1       8       1       1       8       1       1
       8       1       1       8       1       1       8       1       1       8
       1       1       8       1       1       8       1       1       8       1
       1       8       1       1       8       1       1       8       1       1
       8       1       1       8       1       1       8       1       1       8
       1       1       8       1       1       8       1       1       8       1
       1       8       1       1       8       1       1       8       1       1
       8       1       1       8       1       1       8       1       1       8
       1       1       8       1       1       8       1       1       8       1
       1       8       1       1       8       1       1       8       1       1
       8       1       1       8       1       1       8       1       1       8
       1       1       8       1       1       8       1       1       8       1
       1       8       1       1       8       1       1       8       1       1
       8       1       1       8       1       1       8       1       1       8
       1       1       8       1       1       8       1       1       8       1
       1       8       1       1       8       1       1       8       1       1
       8       1       1       8       1       1       8       1       1       8
       1       1       8       1       1       8       1       1       8       1
       1       8       1       1       8       1       1       8       1       1
       8       1       1       8       1       1       8       1       1       8
       1       1       8       1       1       8       1       1       8       1
       1       8       1       1       8       1       1       8       1       1
       8       1       1       8       1       1       8       1       1       8
       1       1       8       1       1       8       1       1       8       1
       1       8       1       1       8       1       1       8       1       1
       8       1       1       8       1       1       8       1       1       8
       1       1       8       1       1       8       1       1       8       1
       1       8       1       1       8       1       1       8       1       1
       8       1       1       8       1       1       8       1       1       8
       1       1       8       1       1       8       1       1       8       1
       1       8       1       1       8       1       1       8       1       1
       8       1       1       8       1       1       8       1       1       8
       1       1       8       1       1       8       1       1       8       1
       1       8       1       1       8       1       1       8       1       1
       8       1       1       8       1       1       8       1       1       8
       1       1       8       1       1       8       1       1       8       1
       1       8       1       1       8       1       1       8       1       1
       8       1       1       8       1       1       8       1       1       8
       1       1       8       1       1       8       1       1       8       1
       1       8       1       1       8       1       1       8       1       1
       8       1       1       8       1       1       8       1       1       8
       1       1       8       1       1       8       1       1       8       1
       1       8       1       1       8       1       1       8       1       1
       8       1       1       8       1       1       8       1       1       8
       1       1       8       1       1       8       1       1       8       1
       1       8       1       1       8       1       1       8       1       1
       8       1       1       8       1       1       8       1       1       8
       1       1       8       1       1       8       1       1       8       1
       1       8       1       1       8       1       1       8       1       1
       8       1       1       8       1       1       8       1       1       8
       1       1       8       1       1       8       1       1       8       1
       1       8       1       1       8       1       1       8       1       1
       8       1       1       8       1       1       8       1       1       8
       1       1       8       1       1       8       1       1       8       1
       1       8       1       1       8       1       1       8       1       1
       8       1       1       8       1       1       8       1       1       8
       1       1       8       1       1       8       1       1       8       1
       1       8       1       1       8       1       1       8       1       1
       8       1       1       8       1       1       8       1       1       8
       1       1       8       1       1       8       1       1       8       1
       1       8       1       1       8       1       1       8       1       1
       8       1       1       8       1       1       8       1       1       8
       1       1       8       1       1       8       1       1       8       1
       1       8       1       1       8       1       1       8       1       1
       8       1       1       8       1       1       8       1       1       8
       1       1       8       1       1       8       1       1       8       1
       1       8       1       1       8       1       1       8       1       1
       8       1       1       8       1       1       8       1       1       8
       1       1       8       1       1       8       1       1       8       1
       1       8       1       1       8       1       1       8       1       1
       8       1       1       8       1       1       8       1       1       8
       1       1       8       1       1       8       1       1       8       1
       1       8       1       1       8       1       1       8       1       1
       8       1       1       8       1       1       8       1       1       8
       1       1       8       1       1       8       1       1       8       1
       1       8       1       1       8       1       1       8       1       1
       8       1       1       8       1       1       8       1       1       8
       1       1       8       1       1       8       1       1       8       1
       1       8       1       1       8       1       1       8       1       1
       8       1       1       8       1       1       8       1       1       8
       1       1       8       1       1       8       1       1       8       1
       1       8       1       1       8       1       1       8       1       1
       8       1       1       8       1       1       8       1       1       8
       1       1       8       1       1       8       1       1       8       1
       1       8       1       1       8       1       1       8       1       1
       8       1       1       8       1       1       8       1       1       8
       1       1       8       1       1       8       1       1       8       1
       1       8       1       1       8       1       1       8       1       1
       8       1       1       8       1       1       8       1       1       8
       1       1       8       1       1       8       1       1       8       1
       1       8       1       1       8       1       1       8       1       1
       8       1       1       8       1       1       8       1       1       8
       1       1       8       1       1       8       1       1       8       1
       1       8       1       1       8       1       1       8       1       1
       8       1       1       8       1       1       8       1       1       8
       1       1       8       1       1       8       1       1       8       1
       1       8       1       1       8       1       1       8       1       1
       8       1       1       8       1       1       8       1       1       8
       1       1       8       1       1       8       1       1       8       1
       1       8       1       1       8       1       1       8       1       1
       8       1       1       8       1       1       8       1       1       8
       1       1       8       1       1       8       1       1       8       1
       1       8       1       1       8       1       1       8       1       1
       8       1       1       8       1       1       8       1       1       8
       1       1       8       1       1       8       1       1       8       1
       1       8       1       1       8       1       1       8       1       1
       8       1       1       8       1       1       8       1       1       8
       1       1       8       1       1       8       1       1       8       1
       1       8       1       1       8       1       1       8       1       1
       8       1       1       8       1       1       8       1       1       8
       1       1       8       1       1       8       1       1       8       1
       1       8       1       1       8       1       1       8       1       1
       8       1       1       8       1       1       8       1       1       8
       1       1       8       1       1       8       1       1       8       1
       1       8       1       1       8       1       1       8       1       1
       8       1       1       8       1       1       8       1       1       8
       1       1       8       1       1       8       1       1       8       1
       1       8       1       1       8       1       1       8       1       1
       8       1       1       8       1       1       8       1       1       8
       1       1       8       1       1       8       1       1       8       1
       1       8       1       1       8       1       1       8       1       1
       8       1       1       8       1       1       8       1       1       8
       1       1       8       1       1       8       1       1       8       1
       1       8       1       1       8       1       1       8       1       1
       8       1       1       8       1       1       8       1       1       8
       1       1       8       1       1       8       1       1       8       1
       1       8       1       1       8       1       1       8       1       1
       8       1       1       8       1       1       8       1       1       8
       1       1       8       1       1       8       1       1       8       1
       1       8       1       1       8       1       1       8       1       1
       8       1       1       8       1       1       8       1       1       8
       1       1       8       1       1       8       1       1       8       1
       1       8       1       1       8       1       1       8       1       1
       8       1       1       8       1       1       8       1       1       8
       1       1       8       1       1       8       1       1       8       1
       1       8       1       1       8       1       1       8       1       1
       8       1       1       8       1       1       8       1       1       8
       1       1       8       1       1       8       1       1       8       1
       1       8       1       1       8       1       1       8       1       1
       8       1       1       8       1       1       8       1       1       8
       1       1       8       1       1       8       1       1       8       1
       1       8       1       1       8       1       1       8       1       1
       8       1       1       8       1       1       8       1       1       8
       1       1       8       1       1       8       1       1       8       1
       1       8       1       1       8       1       1       8       1       1
       8       1       1       8       1       1       8       1       1       8
       1       1       8       1       1       8       1       1       8       1
       1       8       1       1       8       1       1       8       1       1
       8       1       1       8       1       1       8       1       1       8
       1       1       8       1       1       8       1       1       8       1
       1       8       1       1       8       1       1       8       1       1
       8       1       1       8       1       1       8       1       1       8
       1       1       8       1       1       8       1       1       8       1
       1       8       1       1       8       1       1       8       1       1
       8       1       1       8       1       1       8       1       1       8
       1       1       8       1       1       8       1       1       8       1
       1       8       1       1       8       1       1       8       1       1
       8       1       1       8       1       1       8       1       1       8
       1       1       8       1       1       8       1       1       8       1
       1       8       1       1       8       1       1       8       1       1
       8       1       1       8       1       1       8       1       1       8
       1       1       8       1       1       8       1       1       8       1
       1       8       1       1       8       1       1       8       1       1
       8       1       1       8       1       1       8       1       1       8
       1       1       8       1       1       8       1       1       8       1
       1       8       1       1       8       1       1       8       1       1
       8       1       1       8       1       1       8       1       1       8
       1       1       8       1       1       8       1       1       8       1
       1       8       1       1       8       1       1       8       1       1
       8       1       1       8       1       1       8       1       1       8
       1       1       8       1       1       8       1       1       8       1
       1       8       1       1       8       1       1       8       1       1
       8       1       1       8       1       1       8       1       1       8
       1       1       8       1       1       8       1       1       8       1
       1       8       1       1       8       1       1       8       1       1
       8       1       1       8       1       1       8       1       1       8
       1       1       8       1       1       8       1       1       8       1
       1       8       1       1       8       1       1       8       1       1
       8       1       1       8       1       1       8       1       1       8
       1       1       8       1       1       8       1       1       8       1
       1       8       1       1       8       1       1       8       1       1
       8       1       1       8       1       1       8       1       1       8
       1       1       8       1       1       8       1       1       8       1
       1       8       1       1       8       1       1       8       1       1
       8       1       1       8       1       1       8       1       1       8
       1       1       8       1       1       8       1       1       8       1
       1       8       1       1       8       1       1       8       1       1
       8       1       1       8       1       1       8       1       1       8
       1       1       8       1       1       8       1       1       8       1
       1       8       1       1       8       1       1       8       1       1
       8       1       1       8       1       1       8       1       1       8
       1       1       8       1       1       8       1       1       8       1
       1       8       1       1       8       1       1       8       1       1
       8       1       1       8       1       1       8       1       1       8
       1       1       8       1       1       8       1       1       8       1
       1       8       1       1       8       1       1       8       1       1
       8       1       1       8       1       1       8       1       1       8
       1       1       8       1       1       8       1       1       8       1
       1       8       1       1       8       1       1       8       1       1
       8       1       1       8       1       1       8       1       1       8
       1       1       8       1       1       8       1       1       8       1
       1       8       1       1       8       1       1       8       1       1
       8       1       1       8       1       1       8       1       1       8
       1       1       8       1       1       8       1       1       8       1
       1       8       1       1       8       1       1       8       1       1
       8       1       1       8       1       1       8       1       1       8
       1       1       8       1       1       8       1       1       8       1
       1       8       1       1       8       1       1       8       1       1
       8       1       1       8       1       1       8       1       1       8
       1       1       8       1       1       8       1       1       8       1
       1       8       1       1       8       1       1       8       1       1
       8       1       1       8       1       1       8       1       1       8
       1       1       8       1       1       8       1       1       8       1
       1       8       1       1       8       1       1       8       1       1
       8       1       1       8       1       1       8       1       1       8
       1       1       8       1       1       8       1       1       8       1
       1       8       1       1       8       1       1       8       1       1
       8       1       1       8       1       1       8       1       1       8
       1       1       8       1       1       8       1       1       8       1
       1       8       1       1       8       1       1       8       1       1
       8       1       1       8       1       1       8       1       1       8
       1       1       8       1       1       8       1       1       8       1
       1       8       1       1       8       1       1       8       1       1
       8       1       1       8       1       1       8       1       1       8
       1       1       8       1       1       8       1       1       8       1
       1       8       1       1       8       1       1       8       1       1
       8       1       1       8       1       1       8       1       1       8
       1       1       8       1       1       8       1       1       8       1
       1       8       1       1       8       1       1       8       1       1
       8       1       1       8       1       1       8       1       1       8
       1       1       8       1       1       8       1       1       8       1
       1       8       1       1       8       1       1       8       1       1
       8       1       1       8       1       1       8       1       1       8
       1       1       8       1       1       8       1       1       8       1
       1       8       1       1       8       1       1       8       1       1
       8       1       1       8       1       1       8       1       1       8
       1       1       8       1       1       8       1       1       8       1
       1       8       1       1       8       1       1       8       1       1
       8       1       1       8       1       1       8       1       1       8
       1       1       8       1       1       8       1       1       8       1
       1       8       1       1       8       1       1       8       1       1
       8       1       1       8       1       1       8       1       1       8
       1       1       8       1       1       8       1       1       8       1
       1       8       1       1       8       1       1       8       1       1
       8       1       1       8       1       1       8       1       1       8
       1       1       8       1       1       8       1       1       8       1
       1       8       1       1       8       1       1       8       1       1
       8       1       1       8       1       1       8       1       1       8
       1       1       8       1       1       8       1       1       8       1
       1       8       1       1       8       1       1       8       1       1
       8       1       1       8       1       1       8       1       1       8
       1       1       8       1       1       8       1       1       8       1
       1       8       1       1       8       1       1       8       1       1
       8       1       1       8       1       1       8       1       1       8
       1       1       8       1       1       8       1       1       8       1
       1       8       1       1       8       1       1       8       1       1
       8       1       1       8       1       1       8       1       1       8
       1       1       8       1       1       8       1       1       8       1
       1       8       1       1       8       1       1       8       1       1
       8       1       1       8       1       1       8       1       1       8
       1       1       8       1       1       8       1       1       8       1
       1       8       1       1       8       1       1       8       1       1
       8       1       1       8       1       1       8       1       1       8
       1       1       8       1       1       8       1       1       8       1
       1       8       1       1       8       1       1       8       1       1
       8       1       1       8       1       1       8       1       1       8
       1       1       8       1       1       8       1       1       8       1
       1       8       1       1       8       1       1       8       1       1
       8       1       1       8       1       1       8       1       1       8
       1       1       8       1       1       8       1       1       8       1
       1       8       1       1       8       1       1       8       1       1
       8       1       1       8       1       1       8       1       1       8
       1       1       8       1       1       8       1       1       8       1
       1       8       1       1       8       1       1       8       1       1
       8       1       1       8       1       1       8       1       1       8
       1       1       8       1       1       8       1       1       8       1
       1       8       1       1       8       1       1       8       1       1
       8       1       1       8       1       1       8       1       1       8
       1       1       8       1       1       8       1       1       8       1
       1       8       1       1       8       1       1       8       1       1
       8       1       1       8       1       1       8       1       1       8
       1       1       8       1       1       8       1       1       8       1
       1       8       1       1       8       1       1       8       1       1
       8       1       1       8       1       1       8       1       1       8
       1       1       8       1       1       8       1       1       8       1
       1       8       1       1       8       1       1       8       1       1
       8       1       1       8       1       1       8       1       1       8
       1       1       8       1       1       8       1       1       8       1
       1       8       1       1       8       1       1       8       1       1
       8       1       1       8       1       1       8       1       1       8
       1       1       8       1       1       8       1       1       8       1
       1       8       1       1       8       1       1       8       1       1
       8       1       1       8       1       1       8       1       1       8
       1       1       8       1       1       8       1       1       8       1
       1       8       1       1       8       1       1       8       1       1
       8       1       1       8       1       1       8       1       1       8
       1       1       8       1       1       8       1       1       8       1
       1       8       1       1       8       1       1       8       1       1
       8       1       1       8       1       1       8       1       1       8
       1       1       8       1       1       8       1       1       8       1
       1       8       1       1       8       1       1       8       1       1
       8       1       1       8       1       1       8       1       1       8
       1       1       8       1       1       8       1       1       8       1
       1       8       1       1       8       1       1       8       1       1
       8       1       1       8       1       1       8       1       1       8
       1       1       8       1       1       8       1       1       8       1
       1       8       1       1       8       1       1       8       1       1
       8       1       1       8       1       1       8       1       1       8
       1       1       8       1       1       8       1       1       8       1
       1       8       1       1       8       1       1       8       1       1
       8       1       1       8       1       1       8       1       1       8
       1       1       8       1       1       8       1       1       8       1
       1       8       1       1       8       1       1       8       1       1
       8       1       1       8       1       1       8       1       1       8
       1       1       8       1       1       8       1       1       8       1
       1       8       1       1       8       1       1       8       1       1
       8       1       1       8       1       1       8       1       1       8
       1       1       8       1       1       8       1       1       8       1
       1       8       1       1       8       1       1       8       1       1
       8       1       1       8       1       1       8       1       1       8
       1       1       8       1       1       8       1       1       8       1
       1       8       1       1       8       1       1       8       1       1
       8       1       1       8       1       1       8       1       1       8
       1       1       8       1       1       8       1       1       8       1
       1       8       1       1       8       1       1       8       1       1
       8       1       1       8       1       1       8       1       1       8
       1       1       8       1       1       8       1       1       8       1
       1       8       1       1       8       1       1       8       1       1
       8       1       1       8       1       1       8       1       1       8
       1       1       8       1       1       8       1       1       8       1
       1       8       1       1       8       1       1       8       1       1
       8       1       1       8       1       1       8       1       1       8
       1       1       8       1       1       8       1       1       8       1
       1       8       1       1       8       1       1       8       1       1
       8       1       1       8       1       1       8       1       1       8
       1       1       8       1       1       8       1       1       8       1
       1       8       1       1       8       1       1       8       1       1
       8       1       1       8       1       1       8       1       1       8
       1       1       8       1       1       8       1       1       8       1
       1       8       1       1       8       1       1       8       1       1
       8       1       1       8       1       1       8       1       1       8
       1       1       8       1       1       8       1       1       8       1
       1       8       1       1       8       1       1       8       1       1
       8       1       1       8       1       1       8       1       1       8
       1       1       8       1       1       8       1       1       8       1
       1       8       1       1       8       1       1       8       1       1
       8       1       1       8       1       1       8       1       1       8
       1       1       8       1       1       8       1       1       8       1
       1       8       1       1       8       1       1       8       1       1
       8       1       1       8       1       1       8       1       1       8
       1       1       8       1       1       8       1       1       8       1
       1       8       1       1       8       1       1       8       1       1
       8       1       1       8       1       1       8       1       1       8
       1       1       8       1       1       8       1       1       8       1
       1       8       1       1       8       1       1       8       1       1
       8       1       1       8       1       1       8       1       1       8
       1       1       8       1       1       8       1       1       8       1
       1       8       1       1       8       1       1       8       1       1
       8       1       1       8       1       1       8       1       1       8
       1       1       8       1       1       8       1       1       8       1
       1       8       1       1       8       1       1       8       1       1
       8       1       1       8       1       1       8       1       1       8
       1       1       8       1       1       8       1       1       8       1
       1       8       1       1       8       1       1       8       1       1
       8       1       1       8       1       1       8       1       1       8
       1       1       8       1       1       8       1       1       8       1
       1       8       1       1       8       1       1       8       1       1
       8       1       1       8       1       1       8       1       1       8
       1       1       8       1       1       8       1       1       8       1
       1       8       1       1       8       1       1       8       1       1
       8       1       1       8       1       1       8       1       1       8
       1       1       8       1       1       8       1       1       8       1
       1       8       1       1       8       1       1       8       1       1
       8       1       1       8       1       1       8       1       1       8
       1       1       8       1       1       8       1       1       8       1
       1       8       1       1       8       1       1       8       1       1
       8       1       1       8       1       1       8       1       1       8
       1       1       8       1       1       8       1       1       8       1
       1       8       1       1       8       1       1       8       1       1
       8       1       1       8       1       1       8       1       1       8
       1       1       8       1       1       8       1       1       8       1
       1       8       1       1       8       1       1       8       1       1
       8       1       1       8       1       1       8       1       1       8
       1       1       8       1       1       8       1       1       8       1
       1       8       1       1       8       1       1       8       1       1
       8       1       1       8       1       1       8       1       1       8
       1       1       8       1       1       8       1       1       8       1
       1       8       1       1       8       1       1       8       1       1
       8       1       1       8       1       1       8       1       1       8
       1       1       8       1       1       8       1       1       8       1
       1       8       1       1       8       1       1       8       1       1
       8       1       1       8       1       1       8       1       1       8
       1       1       8       1       1       8       1       1       8       1
       1       8       1       1       8       1       1       8       1       1
       8       1       1       8       1       1       8       1       1       8
       1       1       8       1       1       8       1       1       8       1
       1       8       1       1       8       1       1       8       1       1
       8       1       1       8       1       1       8       1       1       8
       1       1       8       1       1       8       1       1       8       1
       1       8       1       1       8       1       1       8       1       1
       8       1       1       8       1       1       8       1       1       8
       1       1       8       1       1       8       1       1       8       1
       1       8       1       1       8       1       1       8       1       1
       8       1       1       8       1       1       8       1       1       8
       1       1       8       1       1       8       1       1       8       1
       1       8       1       1       8       1       1       8       1       1
       8       1       1       8       1       1       8       1       1       8
       1       1       8       1       1       8       1       1       8       1
       1       8       1       1       8       1       1       8       1       1
       8       1       1       8       1       1       8       1       1       8
       1       1       8       1       1       8       1       1       8       1
       1       8       1       1       8       1       1       8       1       1
       8       1       1       8       1       1       8       1       1       8
       1       1       8       1       1       8       1       1       8       1
       1       8       1       1       8       1       1       8       1       1
       8       1       1       8       1       1       8       1       1       8
       1       1       8       1       1       8       1       1       8       1
       1       8       1       1       8       1       1       8       1       1
       8       1       1       8       1       1       8       1       1       8
       1       1       8       1       1       8       1       1       8       1
       1       8       1       1       8       1       1       8       1       1
       8       1       1       8       1       1       8       1       1       8
       1       1       8       1       1       8       1       1       8       1
       1       8       1       1       8       1       1       8       1       1
       8       1       1       8       1       1       8       1       1       8
       1       1       8       1       1       8       1       1       8       1
       1       8       1       1       8       1       1       8       1       1
       8       1       1       8       1       1       8       1       1       8
       1       1       8       1       1       8       1       1       8       1
       1       8       1       1       8       1       1       8       1       1
       8       1       1       8       1       1       8       1       1       8
       1       1       8       1       1       8       1       1       8       1
       1       8       1       1       8       1       1       8       1       1
       8       1       1       8       1       1       8       1       1       8
       1       1       8       1       1       8       1       1       8       1
       1       8       1       1       8       1       1       8       1       1
       8       1       1       8       1       1       8       1       1       8
       1       1       8       1       1       8       1       1       8       1
       1       8       1       1       8       1       1       8       1       1
       8       1       1       8       1       1       8       1       1       8
       1       1       8       1       1       8       1       1       8       1
       1       8       1       1       8       1       1       8       1       1
       8       1       1       8       1       1       8       1       1       8
       1       1       8       1       1       8       1       1       8       1
       1       8       1       1       8       1       1       8       1       1
       8       1       1       8       1       1       8       1       1       8
       1       1       8       1       1       8       1       1       8       1
       1       8       1       1       8       1       1       8       1       1
       8       1       1       8       1       1       8       1       1       8
       1       1       8       1       1       8       1       1       8       1
       1       8       1       1       8       1       1       8       1       1
       8       1       1       8       1       1       8       1       1       8
       1       1       8       1       1       8       1       1       8       1
       1       8       1       1       8       1       1       8       1       1
       8       1       1       8       1       1       8       1       1       8
       1       1       8       1       1       8       1       1       8       1
       1       8       1       1       8       1       1       8       1       1
       8       1       1       8       1       1       8       1       1       8
       1       1       8       1       1       8       1       1       8       1
       1       8       1       1       8       1       1       8       1       1
       8       1       1       8       1       1       8       1       1       8
       1       1       8       1       1       8       1       1       8       1
       1       8       1       1       8       1       1       8       1       1
       8       1       1       8       1       1       8       1       1       8
       1       1       8       1       1       8       1       1       8       1
       1       8       1       1       8       1       1       8       1       1
       8       1       1       8       1       1       8       1       1       8
       1       1       8       1       1       8       1       1       8       1
       1       8       1       1       8       1       1       8       1       1
       8       1       1       8       1       1       8       1       1       8
       1       1       8       1       1       8       1       1       8       1
       1       8       1       1       8       1       1       8       1       1
       8       1       1       8       1       1       8       1       1       8
       1       1       8       1       1       8       1       1       8       1
       1       8       1       1       8       1       1       8       1       1
       8       1       1       8       1       1       8       1       1       8
       1       1       8       1       1       8       1       1       8       1
       1       8       1       1       8       1       1       8       1       1
       8       1       1       8       1       1       8       1       1       8
       1       1       8       1       1       8       1       1       8       1
       1       8       1       1       8       1       1       8       1       1
       8       1       1       8       1       1       8       1       1       8
       1       1       8       1       1       8       1       1       8       1
       1       8       1       1       8       1       1       8       1       1
       8       1       1       8       1       1       8       1       1       8
       1       1       8       1       1       8       1       1       8       1
       1       8       1       1       8       1       1       8       1       1
       8       1       1       8       1       1       8       1       1       8
       1       1       8       1       1       8       1       1       8       1
       1       8       1       1       8       1       1       8       1       1
       8       1       1       8       1       1       8       1       1       8
       1       1       8       1       1       8       1       1       8       1
       1       8       1       1       8       1       1       8       1       1
       8       1       1       8       1       1       8       1       1       8
       1       1       8       1       1       8       1       1       8       1
       1       8       1       1       8       1       1       8       1       1
       8       1       1       8       1       1       8       1       1       8
       1       1       8       1       1       8       1       1       8       1
       1       8       1       1       8       1       1       8       1       1
       8       1       1       8       1       1       8       1       1       8
       1       1       8       1       1       8       1       1       8       1
       1       8       1       1       8       1       1       8       1       1
       8       1       1       8       1       1       8       1       1       8
       1       1       8       1       1       8       1       1       8       1
       1       8       1       1       8       1       1       8       1       1
       8       1       1       8       1       1       8       1       1       8
       1       1       8       1       1       8       1       1       8       1
       1       8       1       1       8       1       1       8       1       1
       8       1       1       8       1       1       8       1       1       8
       1       1       8       1       1       8       1       1       8       1
       1       8       1       1       8       1       1       8       1       1
       8       1       1       8       1       1       8       1       1       8
       1       1       8       1       1       8       1       1       8       1
       1       8       1       1       8       1       1       8       1       1
       8       1       1       8       1       1       8       1       1       8
       1       1       8       1       1       8       1       1       8       1
       1       8       1       1       8       1       1       8       1       1
       8       1       1       8       1       1       8       1       1       8
       1       1       8       1       1       8       1       1       8       1
       1       8       1       1       8       1       1       8       1       1
       8       1       1       8       1       1       8       1       1       8
       1       1       8       1       1       8       1       1       8       1
       1       8       1       1       8       1       1       8       1       1
       8       1       1       8       1       1       8       1       1       8
       1       1       8       1       1       8       1       1       8       1
       1       8       1       1       8       1       1       8       1       1
       8       1       1       8       1       1       8       1       1       8
       1       1       8       1       1       8       1       1       8       1
       1       8       1       1       8       1       1       8       1       1
       8       1       1       8       1       1       8       1       1       8
       1       1       8       1       1       8       1       1       8       1
       1       8       1       1       8       1       1       8       1       1
       8       1       1       8       1       1       8       1       1       8
       1       1       8       1       1       8       1       1       8       1
       1       8       1       1       8       1       1       8       1       1
       8       1       1       8       1       1       8       1       1       8
       1       1       8       1       1       8       1       1       8       1
       1       8       1       1       8       1       1       8       1       1
       8       1       1       8       1       1       8       1       1       8
       1       1       8       1       1       8       1       1       8       1
       1       8       1       1       8       1       1       8       1       1
       8       1       1       8       1       1       8       1       1       8
       1       1       8       1       1       8       1       1       8       1
       1       8       1       1       8       1       1       8       1       1
       8       1       1       8       1       1       8       1       1       8
       1       1       8       1       1       8       1       1       8       1
       1       8       1       1       8       1       1       8       1       1
       8       1       1       8       1       1       8       1       1       8
       1       1       8       1       1       8       1       1       8       1
       1       8       1       1       8       1       1       8       1       1
       8       1       1       8       1       1       8       1       1       8
       1       1       8       1       1       8       1       1       8       1
       1       8       1       1       8       1       1       8       1       1
       8       1       1       8       1       1       8       1       1       8
       1       1       8       1       1       8       1       1       8       1
       1       8       1       1       8       1       1       8       1       1
       8       1       1       8       1       1       8       1       1       8
       1       1       8       1       1       8       1       1       8       1
       1       8       1       1       8       1       1       8       1       1
       8       1       1       8       1       1       8       1       1       8
       1       1       8       1       1       8       1       1       8       1
       1       8       1       1       8       1       1       8       1       1
       8       1       1       8       1       1       8       1       1       8
       1       1       8       1       1       8       1       1       8       1
       1       8       1       1       8       1       1       8       1       1
       8       1       1       8       1       1       8       1       1       8
       1       1       8       1       1       8       1       1       8       1
       1       8       1       1       8       1       1       8       1       1
       8       1       1       8       1       1       8       1       1       8
       1       1       8       1       1       8       1       1       8       1
       1       8       1       1       8       1       1       8       1       1
       8       1       1       8       1       1       8       1       1       8
       1       1       8       1       1       8       1       1       8       1
       1       8       1       1       8       1       1       8       1       1
       8       1       1       8       1       1       8       1       1       8
       1       1       8       1       1       8       1       1       8       1
       1       8       1       1       8       1       1       8       1       1
       8       1       1       8       1       1       8       1       1       8
       1       1       8       1       1       8       1       1       8       1
       1       8       1       1       8       1       1       8       1       1
       8       1       1       8       1       1       8       1       1       8
       1       1       8       1       1       8       1       1       8       1
       1       8       1       1       8       1       1       8       1       1
       8       1       1       8       1       1       8       1       1       8
       1       1       8       1       1       8       1       1       8       1
       1       8       1       1       8       1       1       8       1       1
       8       1       1       8       1       1       8       1       1       8
       1       1       8       1       1       8       1       1       8       1
       1       8       1       1       8       1       1       8       1       1
       8       1       1       8       1       1       8       1       1       8
       1       1       8       1       1       8       1       1       8       1
       1       8       1       1       8       1       1       8       1       1
       8       1       1       8       1       1       8       1       1       8
       1       1       8       1       1       8       1       1       8       1
       1       8       1       1       8       1       1       8       1       1
       8       1       1       8       1       1       8       1       1       8
       1       1       8       1       1       8       1       1       8       1
       1       8       1       1       8       1       1       8       1       1
       8       1       1       8       1       1       8       1       1       8
       1       1       8       1       1       8       1       1       8       1
       1       8       1       1       8       1       1       8       1       1
       8       1       1       8       1       1       8       1       1       8
       1       1       8       1       1       8       1       1       8       1
       1       8       1       1       8       1       1       8       1       1
       8       1       1       8       1       1       8       1       1       8
       1       1       8       1       1       8       1       1       8       1
       1       8       1       1       8       1       1       8       1       1
       8       1       1       8       1       1       8       1       1       8
       1       1       8       1       1       8       1       1       8       1
       1       8       1       1       8       1       1       8       1       1
       8       1       1       8       1       1       8       1       1       8
       1       1       8       1       1       8       1       1       8       1
       1       8       1       1       8       1       1       8       1       1
       8       1       1       8       1       1       8       1       1       8
       1       1       8       1       1       8       1       1       8       1
       1       8       1       1       8       1       1       8       1       1
       8       1       1       8       1       1       8       1       1       8
       1       1       8       1       1       8       1       1       8       1
       1       8       1       1       8       1       1       8       1       1
       8       1       1       8       1       1       8       1       1       8
       1       1       8       1       1       8       1       1       8       1
       1       8       1       1       8       1       1       8       1       1
       8       1       1       8       1       1       8       1       1       8
       1       1       8       1       1       8       1       1       8       1
       1       8       1       1       8       1       1       8       1       1
       8       1       1       8       1       1       8       1       1       8
       1       1       8       1       1       8       1       1       8       1
       1       8       1       1       8       1       1       8       1       1
       8       1       1       8       1       1       8       1       1       8
       1       1       8       1       1       8       1       1       8       1
       1       8       1       1       8       1       1       8       1       1
       8       1       1       8       1       1       8       1       1       8
       1       1       8       1       1       8       1       1       8       1
       1       8       1       1       8       1       1       8       1       1
       8       1       1       8       1       1       8       1       1       8
       1       1       8       1       1       8       1       1       8       1
       1       8       1       1       8       1       1       8       1       1
       8       1       1       8       1       1       8       1       1       8
       1       1       8       1       1       8       1       1       8       1
       1       8       1       1       8       1       1       8       1       1
       8       1       1       8       1       1       8       1       1       8
       1       1       8       1       1       8       1       1       8       1
       1       8       1       1       8       1       1       8       1       1
       8       1       1       8       1       1       8       1       1       8
       1       1       8       1       1       8       1       1       8       1
       1       8       1       1       8       1       1       8       1       1
       8       1       1       8       1       1       8       1       1       8
       1       1       8       1       1       8       1       1       8       1
       1       8       1       1       8       1       1       8       1       1
       8       1       1       8       1       1       8       1       1       8
       1       1       8       1       1       8       1       1       8       1
       1       8       1       1       8       1       1       8       1       1
       8       1       1       8       1       1       8       1       1       8
       1       1       8       1       1       8       1       1       8       1
       1       8       1       1       8       1       1       8       1       1
       8       1       1       8       1       1       8       1       1       8
       1       1       8       1       1       8       1       1       8       1
       1       8       1       1       8       1       1       8       1       1
       8       1       1       8       1       1       8       1       1       8
       1       1       8       1       1       8       1       1       8       1
       1       8       1       1       8       1       1       8       1       1
       8       1       1       8       1       1       8       1       1       8
       1       1       8       1       1       8       1       1       8       1
       1       8       1       1       8       1       1       8       1       1
       8       1       1       8       1       1       8       1       1       8
       1       1       8       1       1       8       1       1       8       1
       1       8       1       1       8       1       1       8       1       1
       8       1       1       8       1       1       8       1       1       8
       1       1       8       1       1       8       1       1       8       1
       1       8       1       1       8       1       1       8       1       1
       8       1       1       8       1       1       8       1       1       8
       1       1       8       1       1       8       1       1       8       1
       1       8       1       1       8       1       1       8       1       1
       8       1       1       8       1       1       8       1       1       8
       1       1       8       1       1       8       1       1       8       1
       1       8       1       1       8       1       1       8       1       1
       8       1       1       8       1       1       8       1       1       8
       1       1       8       1       1       8       1       1       8       1
       1       8       1       1       8       1       1       8       1       1
       8       1       1       8       1       1       8       1       1       8
       1       1       8       1       1       8       1       1       8       1
       1       8       1       1       8       1       1       8       1       1
       8       1       1       8       1       1       8       1       1       8
       1       1       8       1       1       8       1       1       8       1
       1       8       1       1       8       1       1       8       1       1
       8       1       1       8       1       1       8       1       1       8
       1       1       8       1       1       8       1       1       8       1
       1       8       1       1       8       1       1       8       1       1
       8       1       1       8       1       1       8       1       1       8
       1       1       8       1       1       8       1       1       8       1
       1       8       1       1       8       1       1       8       1       1
       8       1       1       8       1       1       8       1       1       8
       1       1       8       1       1       8       1       1       8       1
       1       8       1       1       8       1       1       8       1       1
       8       1       1       8       1       1       8       1       1       8
       1       1       8       1       1       8       1       1       8       1
       1       8       1       1       8       1       1       8       1       1
       8       1       1       8       1       1       8       1       1       8
       1       1       8       1       1       8       1       1       8       1
       1       8       1       1       8       1       1       8       1       1
       8       1       1       8       1       1       8       1       1       8
       1       1       8       1       1       8       1       1       8       1
       1       8       1       1       8       1       1       8       1       1
       8       1       1       8       1       1       8       1       1       8
       1       1       8       1       1       8       1       1       8       1
       1       8       1       1       8       1       1       8       1       1
       8       1       1       8       1       1       8       1       1       8
       1       1       8       1       1       8       1       1       8       1
       1       8       1       1       8       1       1       8       1       1
       8       1       1       8       1       1       8       1       1       8
       1       1       8       1       1       8       1       1       8       1
       1       8       1       1       8       1       1       8       1       1
       8       1       1       8       1       1       8       1       1       8
       1       1       8       1       1       8       1       1       8       1
       1       8       1       1       8       1       1       8       1       1
       8       1       1       8       1       1       8       1       1       8
       1       1       8       1       1       8       1       1       8       1
       1       8       1       1       8       1       1       8       1       1
       8       1       1       8       1       1       8       1       1       8
       1       1       8       1       1       8       1       1       8       1
       1       8       1       1       8       1       1       8       1       1
       8       1       1       8       1       1       8       1       1       8
       1       1       8       1       1       8       1       1       8       1
       1       8       1       1       8       1       1       8       1       1
       8       1       1       8       1       1       8       1       1       8
       1       1       8       1       1       8       1       1       8       1
       1       8       1       1       8       1       1       8       1       1
       8       1       1       8       1       1       8       1       1       8
       1       1       8       1       1       8       1       1       8       1
       1       8       1       1       8       1       1       8       1       1
       8       1       1       8       1       1       8       1       1       8
       1       1       8       1       1       8       1       1       8       1
       1       8       1       1       8       1       1       8       1       1
       8       1       1       8       1       1       8       1       1       8
       1       1       8       1       1       8       1       1       8       1
       1       8       1       1       8       1       1       8       1       1
       8       1       1       8       1       1       8       1       1       8
       1       1       8       1       1       8       1       1       8       1
       1       8       1       1       8       1       1       8       1       1
       8       1       1       8       1       1       8       1       1       8
       1       1       8       1       1       8       1       1       8       1
       1       8       1       1       8       1       1       8       1       1
       8       1       1       8       1       1       8       1       1       8
       1       1       8       1       1       8       1       1       8       1
       1       8       1       1       8       1       1       8       1       1
       8       1       1       8       1       1       8       1       1       8
       1       1       8       1       1       8       1       1       8       1
       1       8       1       1       8       1       1       8       1       1
       8       1       1       8       1       1       8       1       1       8
       1       1       8       1       1       8       1       1       8       1
       1       8       1       1       8       1       1       8       1       1
       8       1       1       8       1       1       8       1       1       8
       1       1       8       1       1       8       1       1       8       1
       1       8       1       1       8       1       1       8       1       1
       8       1       1       8       1       1       8       1       1       8
       1       1       8       1       1       8       1       1       8       1
       1       8       1       1       8       1       1       8       1       1
       8       1       1       8       1       1       8       1       1       8
       1       1       8       1       1       8       1       1       8       1
       1       8       1       1       8       1       1       8       1       1
       8       1       1       8       1       1       8       1       1       8
       1       1       8       1       1       8       1       1       8       1
       1       8       1       1       8       1       1       8       1       1
       8       1       1       8       1       1       8       1       1       8
       1       1       8       1       1       8       1       1       8       1
       1       8       1       1       8       1       1       8       1       1
       8       1       1       8       1       1       8       1       1       8
       1       1       8       1       1       8       1       1       8       1
       1       8       1       1       8       1       1       8       1       1
       8       1       1       8       1       1       8       1       1       8
       1       1       8       1       1       8       1       1       8       1
       1       8       1       1       8       1       1       8       1       1
       8       1       1       8       1       1       8       1       1       8
       1       1       8       1       1       8       1       1       8       1
       1       8       1       1       8       1       1       8       1       1
       8       1       1       8       1       1       8       1       1       8
       1       1       8       1       1       8       1       1       8       1
       1       8       1       1       8       1       1       8       1       1
       8       1       1       8       1       1       8       1       1       8
       1       1       8       1       1       8       1       1       8       1
       1       8       1       1       8       1       1       8       1       1
       8       1       1       8       1       1       8       1       1       8
       1       1       8       1       1       8       1       1       8       1
       1       8       1       1       8       1       1       8       1       1
       8       1       1       8       1       1       8       1       1       8
       1       1       8       1       1       8       1       1       8       1
       1       8       1       1       8       1       1       8       1       1
       8       1       1       8       1       1       8       1       1       8
       1       1       8       1       1       8       1       1       8       1
       1       8       1       1       8       1       1       8       1       1
       8       1       1       8       1       1       8       1       1       8
       1       1       8       1       1       8       1       1       8       1
       1       8       1       1       8       1       1       8       1       1
       8       1       1       8       1       1       8       1       1       8
       1       1       8       1       1       8       1       1       8       1
       1       8       1       1       8       1       1       8       1       1
       8       1       1       8       1       1       8       1       1       8
       1       1       8       1       1       8       1       1       8       1
       1       8       1       1       8       1       1       8       1       1
       8       1       1       8       1       1       8       1       1       8
       1       1       8       1       1       8       1       1       8       1
       1       8       1       1       8       1       1       8       1       1
       8       1       1       8       1       1       8       1       1       8
       1       1       8       1       1       8       1       1       8       1
       1       8       1       1       8       1       1       8       1       1
       8       1       1       8       1       1       8       1       1       8
       1       1       8       1       1       8       1       1       8       1
       1       8       1       1       8       1       1       8       1       1
       8       1       1       8       1       1       8       1       1       8
       1       1       8       1       1       8       1       1       8       1
       1       8       1       1       8       1       1       8       1       1
       8       1       1       8       1       1       8       1       1       8
       1       1       8       1       1       8       1       1       8       1
       1       8       1       1       8       1       1       8       1       1
       8       1       1       8       1       1       8       1       1       8
       1       1       8       1       1       8       1       1       8       1
       1       8       1       1       8       1       1       8       1       1
       8       1       1       8       1       1       8       1       1       8
       1       1       8       1       1       8       1       1       8       1
       1       8       1       1       8       1       1       8       1       1
       8       1       1       8       1       1       8       1       1       8
       1       1       8       1       1       8       1       1       8       1
       1       8       1       1       8       1       1       8       1       1
       8       1       1       8       1       1       8       1       1       8
       1       1       8       1       1       8       1       1       8       1
       1       8       1       1       8       1       1       8       1       1
       8       1       1       8       1       1       8       1       1       8
       1       1       8       1       1       8       1       1       8       1
       1       8       1       1       8       1       1       8       1       1
       8       1       1       8       1       1       8       1       1       8
       1       1       8       1       1       8       1       1       8       1
       1       8       1       1       8       1       1       8       1       1
       8       1       1       8       1       1       8       1       1       8
       1       1       8       1       1       8       1       1       8       1
       1       8       1       1       8       1       1       8       1       1
       8       1       1       8       1       1       8       1       1       8
       1       1       8       1       1       8       1       1       8       1
       1       8       1       1       8       1       1       8       1       1
       8       1       1       8       1       1       8       1       1       8
       1       1       8       1       1       8       1       1       8       1
       1       8       1       1       8       1       1       8       1       1
       8       1       1       8       1       1       8       1       1       8
       1       1       8       1       1       8       1       1       8       1
       1       8       1       1       8       1       1       8       1       1
       8       1       1       8       1       1       8       1       1       8
       1       1       8       1       1       8       1       1       8       1
       1       8       1       1       8       1       1       8       1       1
       8       1       1       8       1       1       8       1       1       8
       1       1       8       1       1       8       1       1       8       1
       1       8       1       1       8       1       1       8       1       1
       8       1       1       8       1       1       8       1       1       8
       1       1       8       1       1       8       1       1       8       1
       1       8       1       1       8       1       1       8       1       1
       8       1       1       8       1       1       8       1       1       8
       1       1       8       1       1       8       1       1       8       1
       1       8       1       1       8       1       1       8       1       1
       8       1       1       8       1       1       8       1       1       8
       1       1       8       1       1       8       1       1       8       1
       1       8       1       1       8       1       1       8       1       1
       8       1       1       8       1       1       8       1       1       8
       1       1       8       1       1       8       1       1       8       1
       1       8       1       1       8       1       1       8       1       1
       8       1       1       8       1       1       8       1       1       8
       1       1       8       1       1       8       1       1       8       1
       1       8       1       1       8       1       1       8       1       1
       8       1       1       8       1       1       8       1       1       8
       1       1       8       1       1       8       1       1       8       1
       1       8       1       1       8       1       1       8       1       1
       8       1       1       8       1       1       8       1       1       8
       1       1       8       1       1       8       1       1       8       1
       1       8       1       1       8       1       1       8       1       1
       8       1       1       8       1       1       8       1       1       8
       1       1       8       1       1       8       1       1       8       1
       1       8       1       1       8       1       1       8       1       1
       8       1       1       8       1       1       8       1       1       8
       1       1       8       1       1       8       1       1       8       1
       1       8       1       1       8       1       1       8       1       1
       8       1       1       8       1       1       8       1       1       8
       1       1       8       1       1       8       1       1       8       1
       1       8       1       1       8       1       1       8       1       1
       8       1       1       8       1       1       8       1       1       8
       1       1       8       1       1       8       1       1       8       1
       1       8       1       1       8       1       1       8       1       1
       8       1       1       8       1       1       8       1       1       8
       1       1       8       1       1       8       1       1       8       1
       1       8       1       1       8       1       1       8       1       1
       8       1       1       8       1       1       8       1       1       8
       1       1       8       1       1       8       1       1       8       1
       1       8       1       1       8       1       1       8       1       1
       8       1       1       8       1       1       8       1       1       8
       1       1       8       1       1       8       1       1       8       1
       1       8       1       1       8       1       1       8       1       1
       8       1       1       8       1       1       8       1       1       8
       1       1       8       1       1       8       1       1       8       1
       1       8       1       1       8       1       1       8       1       1
       8       1       1       8       1       1       8       1       1       8
       1       1       8       1       1       8       1       1       8       1
       1       8       1       1       8       1       1       8       1       1
       8       1       1       8       1       1       8       1       1       8
       1       1       8       1       1       8       1       1       8       1
       1       8       1       1       8       1       1       8       1       1
       8       1       1       8       1       1       8       1       1       8
       1       1       8       1       1       8       1       1       8       1
       1       8       1       1       8       1       1       8       1       1
       8       1       1       8       1       1       8       1       1       8
       1       1       8       1       1       8       1       1       8       1
       1       8       1       1       8       1       1       8       1       1
       8       1       1       8       1       1       8       1       1       8
       1       1       8       1       1       8       1       1       8       1
       1       8       1       1       8       1       1       8       1       1
       8       1       1       8       1       1       8       1       1       8
       1       1       8       1       1       8       1       1       8       1
       1       8       1       1       8       1       1       8       1       1
       8       1       1       8       1       1       8       1       1       8
       1       1       8       1       1       8       1       1       8       1
       1       8       1       1       8       1       1       8       1       1
       8       1       1       8       1       1       8       1       1       8
       1       1       8       1       1       8       1       1       8       1
       1       8       1       1       8       1       1       8       1       1
       8       1       1       8       1       1       8       1       1       8
       1       1       8       1       1       8       1       1       8       1
       1       8       1       1       8       1       1       8       1       1
       8       1       1       8       1       1       8       1       1       8
       1       1       8       1       1       8       1       1       8       1
       1       8       1       1       8       1       1       8       1       1
       8       1       1       8       1       1       8       1       1       8
       1       1       8       1       1       8       1       1       8       1
       1       8       1       1       8       1       1       8       1       1
       8       1       1       8       1       1       8       1       1       8
       1       1       8       1       1       8       1       1       8       1
       1       8       1       1       8       1       1       8       1       1
       8       1       1       8       1       1       8       1       1       8
       1       1       8       1       1       8       1       1       8       1
       1       8       1       1       8       1       1       8       1       1
       8       1       1       8       1       1       8       1       1       8
       1       1       8       1       1       8       1       1       8       1
       1       8       1       1       8       1       1       8       1       1
       8       1       1       8       1       1       8       1       1       8
       1       1       8       1       1       8       1       1       8       1
       1       8       1       1       8       1       1       8       1       1
       8       1       1       8       1       1       8       1       1       8
       1       1       8       1       1       8       1       1       8       1
       1       8       1       1       8       1       1       8       1       1
       8       1       1       8       1       1       8       1       1       8
       1       1       8       1       1       8       1       1       8       1
       1       8       1       1       8       1       1       8       1       1
       8       1       1       8       1       1       8       1       1       8
       1       1       8       1       1       8       1       1       8       1
       1       8       1       1       8       1       1       8       1       1
       8       1       1       8       1       1       8       1       1       8
       1       1       8       1       1       8       1       1       8       1
       1       8       1       1       8       1       1       8       1       1
       8       1       1       8       1       1       8       1       1       8
       1       1       8       1       1       8       1       1       8       1
       1       8       1       1       8       1       1       8       1       1
       8       1       1       8       1       1       8       1       1       8
       1       1       8       1       1       8       1       1       8       1
       1       8       1       1       8       1       1       8       1       1
       8       1       1       8       1       1       8       1       1       8
       1       1       8       1       1       8       1       1       8       1
       1       8       1       1       8       1       1       8       1       1
       8       1       1       8       1       1       8       1       1       8
       1       1       8       1       1       8       1       1       8       1
       1       8       1       1       8       1       1       8       1       1
       8       1       1       8       1       1       8       1       1       8
       1       1       8       1       1       8       1       1       8       1
       1       8       1       1       8       1       1       8       1       1
       8       1       1       8       1       1       8       1       1       8
       1       1       8       1       1       8       1       1       8       1
       1       8       1       1       8       1       1       8       1       1
       8       1       1       8       1       1       8       1       1       8
       1       1       8       1       1       8       1       1       8       1
       1       8       1       1       8       1       1       8       1       1
       8       1       1       8       1       1       8       1       1       8
       1       1       8       1       1       8       1       1       8       1
       1       8       1       1       8       1       1       8       1       1
       8       1       1       8       1       1       8       1       1       8
       1       1       8       1       1       8       1       1       8       1
       1       8       1       1       8       1       1       8       1       1
       8       1       1       8       1       1       8       1       1       8
       1       1       8       1       1       8       1       1       8       1
       1       8       1       1       8       1       1       8       1       1
       8       1       1       8       1       1       8       1       1       8
       1       1       8       1       1       8       1       1       8       1
       1       8       1       1       8       1       1       8       1       1
       8       1       1       8       1       1       8       1       1       8
       1       1       8       1       1       8       1       1       8       1
       1       8       1       1       8       1       1       8       1       1
       8       1       1       8       1       1       8       1       1       8
       1       1       8       1       1       8       1       1       8       1
       1       8       1       1       8       1       1       8       1       1
       8       1       1       8       1       1       8       1       1       8
       1       1       8       1       1       8       1       1       8       1
       1       8       1       1       8       1       1       8       1       1
       8       1       1       8       1       1       8       1       1       8
       1       1       8       1       1       8       1       1       8       1
       1       8       1       1       8       1       1       8       1       1
       8       1       1       8       1       1       8       1       1       8
       1       1       8       1       1       8       1       1       8       1
       1       8       1       1       8       1       1       8       1       1
       8       1       1       8       1       1       8       1       1       8
       1       1       8       1       1       8       1       1       8       1
       1       8       1       1       8       1       1       8       1       1
       8       1       1       8       1       1       8       1       1       8
       1       1       8       1       1       8       1       1       8       1
       1       8       1       1       8       1       1       8       1       1
       8       1       1       8       1       1       8       1       1       8
       1       1       8       1       1       8       1       1       8       1
       1       8       1       1       8       1       1       8       1       1
       8       1       1       8       1       1       8       1       1       8
       1       1       8       1       1       8       1       1       8       1
       1       8       1       1       8       1       1       8       1       1
       8       1       1       8       1       1       8       1       1       8
       1       1       8       1       1       8       1       1       8       1
       1       8       1       1       8       1       1       8       1       1
       8       1       1       8       1       1       8       1       1       8
       1       1       8       1       1       8       1       1       8       1
       1       8       1       1       8       1       1       8       1       1
       8       1       1       8       1       1       8       1       1       8
       1       1       8       1       1       8       1       1       8       1
       1       8       1       1       8       1       1       8       1       1
       8       1       1       8       1       1       8       1       1       8
       1       1       8       1       1       8       1       1       8       1
       1       8       1       1       8       1       1       8       1       1
       8       1       1       8       1       1       8       1       1       8
       1       1       8       1       1       8       1       1       8       1
       1       8       1       1       8       1       1       8       1       1
       8       1       1       8       1       1       8       1       1       8
       1       1       8       1       1       8       1       1       8       1
       1       8       1       1       8       1       1       8       1       1
       8       1       1       8       1       1       8       1       1       8
       1       1       8       1       1       8       1       1       8       1
       1       8       1       1       8       1       1       8       1       1
       8       1       1       8       1       1       8       1       1       8
       1       1       8       1       1       8       1       1       8       1
       1       8       1       1       8       1       1       8       1       1
       8       1       1       8       1       1       8       1       1       8
       1       1       8       1       1       8       1       1       8       1
       1       8       1       1       8       1       1       8       1       1
       8       1       1       8       1       1       8       1       1       8
       1       1       8       1       1       8       1       1       8       1
       1       8       1       1       8       1       1       8       1       1
       8       1       1       8       1       1       8       1       1       8
       1       1       8       1       1       8       1       1       8       1
       1       8       1       1       8       1       1       8       1       1
       8       1       1       8       1       1       8       1       1       8
       1       1       8       1       1       8       1       1       8       1
       1       8       1       1       8       1       1       8       1       1
       8       1       1       8       1       1       8       1       1       8
       1       1       8       1       1       8       1       1       8       1
       1       8       1       1       8       1       1       8       1       1
       8       1       1       8       1       1       8       1       1       8
       1       1       8       1       1       8       1       1       8       1
       1       8       1       1       8       1       1       8       1       1
       8       1       1       8       1       1       8       1       1       8
       1       1       8       1       1       8       1       1       8       1
       1       8       1       1       8       1       1       8       1       1
       8       1       1       8       1       1       8       1       1       8
       1       1       8       1       1       8       1       1       8       1
       1       8       1       1       8       1       1       8       1       1
       8       1       1       8       1       1       8       1       1       8
       1       1       8       1       1       8       1       1       8       1
       1       8       1       1       8       1       1       8       1       1
       8       1       1       8       1       1       8       1       1       8
       1       1       8       1       1       8       1       1       8       1
       1       8       1       1       8       1       1       8       1       1
       8       1       1       8       1       1       8       1       1       8
       1       1       8       1       1       8       1       1       8       1
       1       8       1       1       8       1       1       8       1       1
       8       1       1       8       1       1       8       1       1       8
       1       1       8       1       1       8       1       1       8       1
       1       8       1       1       8       1       1       8       1       1
       8       1       1       8       1       1       8       1       1       8
       1       1       8       1       1       8       1       1       8       1
       1       8       1       1       8       1       1       8       1       1
       8       1       1       8       1       1       8       1       1       8
       1       1       8       1       1       8       1       1       8       1
       1       8       1       1       8       1       1       8       1       1
       8       1       1       8       1       1       8       1       1       8
       1       1       8       1       1       8       1       1       8       1
       1       8       1       1       8       1       1       8       1       1
       8       1       1       8       1       1       8       1       1       8
       1       1       8       1       1       8       1       1       8       1
       1       8       1       1       8       1       1       8       1       1
       8       1       1       8       1       1       8       1       1       8
       1       1       8       1       1       8       1       1       8       1
       1       8       1       1       8       1       1       8       1       1
       8       1       1       8       1       1       8       1       1       8
       1       1       8       1       1       8       1       1       8       1
       1       8       1       1       8       1       1       8       1       1
       8       1       1       8       1       1       8       1       1       8
       1       1       8       1       1       8       1       1       8       1
       1       8       1       1       8       1       1       8       1       1
       8       1       1       8       1       1       8       1       1       8
       1       1       8       1       1       8       1       1       8       1
       1       8       1       1       8       1       1       8       1       1
       8       1       1       8       1       1       8       1       1       8
       1       1       8       1       1       8       1       1       8       1
       1       8       1       1       8       1       1       8       1       1
       8       1       1       8       1       1       8       1       1       8
       1       1       8       1       1       8       1       1       8       1
       1       8       1       1       8       1       1       8       1       1
       8       1       1       8       1       1       8       1       1       8
       1       1       8       1       1       8       1       1       8       1
       1       8       1       1       8       1       1       8       1       1
       8       1       1       8       1       1       8       1       1       8
       1       1       8       1       1       8       1       1       8       1
       1       8       1       1       8       1       1       8       1       1
       8       1       1       8       1       1       8       1       1       8
       1       1       8       1       1       8       1       1       8       1
       1       8       1       1       8       1       1       8       1       1
       8       1       1       8       1       1       8       1       1       8
       1       1       8       1       1       8       1       1       8       1
       1       8       1       1       8       1       1       8       1       1
       8       1       1       8       1       1       8       1       1       8
       1       1       8       1       1       8       1       1       8       1
       1       8       1       1       8       1       1       8       1       1
       8       1       1       8       1       1       8       1       1       8
       1       1       8       1       1       8       1       1       8       1
       1       8       1       1       8       1       1       8       1       1
       8       1       1       8       1       1       8       1       1       8
       1       1       8       1       1       8       1       1       8       1
       1       8       1       1       8       1       1       8       1       1
       8       1       1       8       1       1       8       1       1       8
       1       1       8       1       1       8       1       1       8       1
       1       8       1       1       8       1       1       8       1       1
       8       1       1       8       1       1       8       1       1       8
       1       1       8       1       1       8       1       1       8       1
       1       8       1       1       8       1       1       8       1       1
       8       1       1       8       1       1       8       1       1       8
       1       1       8       1       1       8       1       1       8       1
       1       8       1       1       8       1       1       8       1       1
       8       1       1       8       1       1       8       1       1       8
       1       1       8       1       1       8       1       1       8       1
       1       8       1       1       8       1       1       8       1       1
       8       1       1       8       1       1       8       1       1       8
       1       1       8       1       1       8       1       1       8       1
       1       8       1       1       8       1       1       8       1       1
       8       1       1       8       1       1       8       1       1       8
       1       1       8       1       1       8       1       1       8       1
       1       8       1       1       8       1       1       8       1       1
       8       1       1       8       1       1       8       1       1       8
       1       1       8       1       1       8       1       1       8       1
       1       8       1       1       8       1       1       8       1       1
       8       1       1       8       1       1       8       1       1       8
       1       1       8       1       1       8       1       1       8       1
       1       8       1       1       8       1       1       8       1       1
       8       1       1       8       1       1       8       1       1       8
       1       1       8       1       1       8       1       1       8       1
       1       8       1       1       8       1       1       8       1       1
       8       1       1       8       1       1       8       1       1       8
       1       1       8       1       1       8       1       1       8       1
       1       8       1       1       8       1       1       8       1       1
       8       1       1       8       1       1       8       1       1       8
       1       1       8       1       1       8       1       1       8       1
       1       8       1       1       8       1       1       8       1       1
       8       1       1       8       1       1       8       1       1       8
       1       1       8       1       1       8       1       1       8       1
       1       8       1       1       8       1       1       8       1       1
       8       1       1       8       1       1       8       1       1       8
       1       1       8       1       1       8       1       1       8       1
       1       8       1       1       8       1       1       8       1       1
       8       1       1       8       1       1       8       1       1       8
       1       1       8       1       1       8       1       1       8       1
       1       8       1       1       8       1       1       8       1       1
       8       1       1       8       1       1       8       1       1       8
       1       1       8       1       1       8       1       1       8       1
       1       8       1       1       8       1       1       8       1       1
       8       1       1       8       1       1       8       1       1       8
       1       1       8       1       1       8       1       1       8       1
       1       8       1       1       8       1       1       8       1       1
       8       1       1       8       1       1       8       1       1       8
       1       1       8       1       1       8       1       1       8       1
       1       8       1       1       8       1       1       8       1       1
       8       1       1       8       1       1       8       1       1       8
       1       1       8       1       1       8       1       1       8       1
       1       8       1       1       8       1       1       8       1       1
       8       1       1       8       1       1       8       1       1       8
       1       1       8       1       1       8       1       1       8       1
       1       8       1       1       8       1       1       8       1       1
       8       1       1       8       1       1       8       1       1       8
       1       1       8       1       1       8       1       1       8       1
       1       8       1       1       8       1       1       8       1       1
       8       1       1       8       1       1       8       1       1       8
       1       1       8       1       1       8       1       1       8       1
       1       8       1       1       8       1       1       8       1       1
       8       1       1       8       1       1       8       1       1       8
       1       1       8       1       1       8       1       1       8       1
       1       8       1       1       8       1       1       8       1       1
       8       1       1       8       1       1       8       1       1       8
       1       1       8       1       1       8       1       1       8       1
       1       8       1       1       8       1       1       8       1       1
       8       1       1       8       1       1       8       1       1       8
       1       1       8       1       1       8       1       1       8       1
       1       8       1       1       8       1       1       8       1       1
       8       1       1       8       1       1       8       1       1       8
       1       1       8       1       1       8       1       1       8       1
       1       8       1       1       8       1       1       8       1       1
       8       1       1       8       1       1       8       1       1       8
       1       1       8       1       1       8       1       1       8       1
       1       8       1       1       8       1       1       8       1       1
       8       1       1       8       1       1       8       1       1       8
       1       1       8       1       1       8       1       1       8       1
       1       8       1       1       8       1       1       8       1       1
       8       1       1       8       1       1       8       1       1       8
       1       1       8       1       1       8       1       1       8       1
       1       8       1       1       8       1       1       8       1       1
       8       1       1       8       1       1       8       1       1       8
       1       1       8       1       1       8       1       1       8       1
       1       8       1       1       8       1       1       8       1       1
       8       1       1       8       1       1       8       1       1       8
       1       1       8       1       1       8       1       1       8       1
       1       8       1       1       8       1       1       8       1       1
       8       1       1       8       1       1       8       1       1       8
       1       1       8       1       1       8       1       1       8       1
       1       8       1       1       8       1       1       8       1       1
       8       1       1       8       1       1       8       1       1       8
       1       1       8       1       1       8       1       1       8       1
       1       8       1       1       8       1       1       8       1       1
       8       1       1       8       1       1       8       1       1       8
       1       1       8       1       1       8       1       1       8       1
       1       8       1       1       8       1       1       8       1       1
       8       1       1       8       1       1       8       1       1       8
       1       1       8       1       1       8       1       1       8       1
       1       8       1       1       8       1       1       8       1       1
       8       1       1       8       1       1       8       1       1       8
       1       1       8       1       1       8       1       1       8       1
       1       8       1       1       8       1       1       8       1       1
       8       1       1       8       1       1       8       1       1       8
       1       1       8       1       1       8       1       1       8       1
       1       8       1       1       8       1       1       8       1       1
       8       1       1       8       1       1       8       1       1       8
       1       1       8       1       1       8       1       1       8       1
       1       8       1       1       8       1       1       8       1       1
       8       1       1       8       1       1       8       1       1       8
       1       1       8       1       1       8       1       1       8       1
       1       8       1       1       8       1       1       8       1       1
       8       1       1       8       1       1       8       1       1       8
       1       1       8       1       1       8       1       1       8       1
       1       8       1       1       8       1       1       8       1       1
       8       1       1       8       1       1       8       1       1       8
       1       1       8       1       1       8       1       1       8       1
       1       8       1       1       8       1       1       8       1       1
       8       1       1       8       1       1       8       1       1       8
       1       1       8       1       1       8       1       1       8       1
       1       8       1       1       8       1       1       8       1       1
       8       1       1       8       1       1       8       1       1       8
       1       1       8       1       1       8       1       1       8       1
       1       8       1       1       8       1       1       8       1       1
       8       1       1       8       1       1       8       1       1       8
       1       1       8       1       1       8       1       1       8       1
       1       8       1       1       8       1       1       8       1       1
       8       1       1       8       1       1       8       1       1       8
       1       1       8       1       1       8       1       1       8       1
       1       8       1       1       8       1       1       8       1       1
       8       1       1       8       1       1       8       1       1       8
       1       1       8       1       1       8       1       1       8       1
       1       8       1       1       8       1       1       8       1       1
       8       1       1       8       1       1       8       1       1       8
       1       1       8       1       1       8       1       1       8       1
       1       8       1       1       8       1       1       8       1       1
       8       1       1       8       1       1       8       1       1       8
       1       1       8       1       1       8       1       1       8       1
       1       8       1       1       8       1       1       8       1       1
       8       1       1       8       1       1       8       1       1       8
       1       1       8       1       1       8       1       1       8       1
       1       8       1       1       8       1       1       8       1       1
       8       1       1       8       1       1       8       1       1       8
       1       1       8       1       1       8       1       1       8       1
       1       8       1       1       8       1       1       8       1       1
       8       1       1       8       1       1       8       1       1       8
       1       1       8       1       1       8       1       1       8       1
       1       8       1       1       8       1       1       8       1       1
       8       1       1       8       1       1       8       1       1       8
       1       1       8       1       1       8       1       1       8       1
       1       8       1       1       8       1       1       8       1       1
       8       1       1       8       1       1       8       1       1       8
       1       1       8       1       1       8       1       1       8       1
       1       8       1       1       8       1       1       8       1       1
       8       1       1       8       1       1       8       1       1       8
       1       1       8       1       1       8       1       1       8       1
       1       8       1       1       8       1       1       8       1       1
       8       1       1       8       1       1       8       1       1       8
       1       1       8       1       1       8       1       1       8       1
       1       8       1       1       8       1       1       8       1       1
       8       1       1       8       1       1       8       1       1       8
       1       1       8       1       1       8       1       1       8       1
       1       8       1       1       8       1       1       8       1       1
       8       1       1       8       1       1       8       1       1       8
       1       1       8       1       1       8       1       1       8       1
       1       8       1       1       8       1       1       8       1       1
       8       1       1       8       1       1       8       1       1       8
       1       1       8       1       1       8       1       1       8       1
       1       8       1       1       8       1       1       8       1       1
       8       1       1       8       1       1       8       1       1       8
       1       1       8       1       1       8       1       1       8       1
       1       8       1       1       8       1       1       8       1       1
       8       1       1       8       1       1       8       1       1       8
       1       1       8       1       1       8       1       1       8       1
       1       8       1       1       8       1       1       8       1       1
       8       1       1       8       1       1       8       1       1       8
       1       1       8       1       1       8       1       1       8       1
       1       8       1       1       8       1       1       8       1       1
       8       1       1       8       1       1       8       1       1       8
       1       1       8       1       1       8       1       1       8       1
       1       8       1       1       8       1       1       8       1       1
       8       1       1       8       1       1       8       1       1       8
       1       1       8       1       1       8       1       1       8       1
       1       8       1       1       8       1       1       8       1       1
       8       1       1       8       1       1       8       1       1       8
       1       1       8       1       1       8       1       1       8       1
       1       8       1       1       8       1       1       8       1       1
       8       1       1       8       1       1       8       1       1       8
       1       1       8       1       1       8       1       1       8       1
       1       8       1       1       8       1       1       8       1       1
       8       1       1       8       1       1       8       1       1       8
       1       1       8       1       1       8       1       1       8       1
       1       8       1       1       8       1       1       8       1       1
       8       1       1       8       1       1       8       1       1       8
       1       1       8       1       1       8       1       1       8       1
       1       8       1       1       8       1       1       8       1       1
       8       1       1       8       1       1       8       1       1       8
       1       1       8       1       1       8       1       1       8       1
       1       8       1       1       8       1       1       8       1       1
       8       1       1       8       1       1       8       1       1       8
       1       1       8       1       1       8       1       1       8       1
       1       8       1       1       8       1       1       8       1       1
       8       1       1       8       1       1       8       1       1       8
       1       1       8       1       1       8       1       1       8       1
       1       8       1       1       8       1       1       8       1       1
       8       1       1       8       1       1       8       1       1       8
       1       1       8       1       1       8       1       1       8       1
       1       8       1       1       8       1       1       8       1       1
       8       1       1       8       1       1       8       1       1       8
       1       1       8       1       1       8       1       1       8       1
       1       8       1       1       8       1       1       8       1       1
       8       1       1       8       1       1       8       1       1       8
       1       1       8       1       1       8       1       1       8       1
       1       8       1       1       8       1       1       8       1       1
       8       1       1       8       1       1       8       1       1       8
       1       1       8       1       1       8       1       1       8       1
       1       8       1       1       8       1       1       8       1       1
       8       1       1       8       1       1       8       1       1       8
       1       1       8       1       1       8       1       1       8       1
       1       8       1       1       8       1       1       8       1       1
       8       1       1       8       1       1       8       1       1       8
       1       1       8       1       1       8       1       1       8       1
       1       8       1       1       8       1       1       8       1       1
       8       1       1       8       1       1       8       1       1       8
       1       1       8       1       1       8       1       1       8       1
       1       8       1       1       8       1       1       8       1       1
       8       1       1       8       1       1       8       1       1       8
       1       1       8       1       1       8       1       1       8       1
       1       8       1       1       8       1       1       8       1       1
       8       1       1       8       1       1       8       1       1       8
       1       1       8       1       1       8       1       1       8       1
       1       8       1       1       8       1       1       8       1       1
       8       1       1       8       1       1       8       1       1       8
       1       1       8       1       1       8       1       1       8       1
       1       8       1       1       8       1       1       8       1       1
       8       1       1       8       1       1       8       1       1       8
       1       1       8       1       1       8       1       1       8       1
       1       8       1       1       8       1       1       8       1       1
       8       1       1       8       1       1       8       1       1       8
       1       1       8       1       1       8       1       1       8       1
       1       8       1       1       8       1       1       8       1       1
       8       1       1       8       1       1       8       1       1       8
       1       1       8       1       1       8       1       1       8       1
       1       8       1       1       8       1       1       8       1       1
       8       1       1       8       1       1       8       1       1       8
       1       1       8       1       1       8       1       1       8       1
       1       8       1       1       8       1       1       8       1       1
       8       1       1       8       1       1       8       1       1       8
       1       1       8       1       1       8       1       1       8       1
       1       8       1       1       8       1       1       8       1       1
       8       1       1       8       1       1       8       1       1       8
       1       1       8       1       1       8       1       1       8       1
       1       8       1       1       8       1       1       8       1       1
       8       1       1       8       1       1       8       1       1       8
       1       1       8       1       1       8       1       1       8       1
       1       8       1       1       8       1       1       8       1       1
       8       1       1       8       1       1       8       1       1       8
       1       1       8       1       1       8       1       1       8       1
       1       8       1       1       8       1       1       8       1       1
       8       1       1       8       1       1       8       1       1       8
       1       1       8       1       1       8       1       1       8       1
       1       8       1       1       8       1       1       8       1       1
       8       1       1       8       1       1       8       1       1       8
       1       1       8       1       1       8       1       1       8       1
       1       8       1       1       8       1       1       8       1       1
       8       1       1       8       1       1       8       1       1       8
       1       1       8       1       1       8       1       1       8       1
       1       8       1       1       8       1       1       8       1       1
       8       1       1       8       1       1       8       1       1       8
       1       1       8       1       1       8       1       1       8       1
       1       8       1       1       8       1       1       8       1       1
       8       1       1       8       1       1       8       1       1       8
       1       1       8       1       1       8       1       1       8       1
       1       8       1       1       8       1       1       8       1       1
       8       1       1       8       1       1       8       1       1       8
       1       1       8       1       1       8       1       1       8       1
       1       8       1       1       8       1       1       8       1       1
       8       1       1       8       1       1       8       1       1       8
       1       1       8       1       1       8       1       1       8       1
       1       8       1       1       8       1       1       8       1       1
       8       1       1       8       1       1       8       1       1       8
       1       1       8       1       1       8       1       1       8       1
       1       8       1       1       8       1       1       8       1       1
       8       1       1       8       1       1       8       1       1       8
       1       1       8       1       1       8       1       1       8       1
       1       8       1       1       8       1       1       8       1       1
       8       1       1       8       1       1       8       1       1       8
       1       1       8       1       1       8       1       1       8       1
       1       8       1       1       8       1       1       8       1       1
       8       1       1       8       1       1       8       1       1       8
       1       1       8       1       1       8       1       1       8       1
       1       8       1       1       8       1       1       8       1       1
       8       1       1       8       1       1       8       1       1       8
       1       1       8       1       1       8       1       1       8       1
       1       8       1       1       8       1       1       8       1       1
       8       1       1       8       1       1       8       1       1       8
       1       1       8       1       1       8       1       1       8       1
       1       8       1       1       8       1       1       8       1       1
       8       1       1       8       1       1       8       1       1       8
       1       1       8       1       1       8       1       1       8       1
       1       8       1       1       8       1       1       8       1       1
       8       1       1       8       1       1       8       1       1       8
       1       1       8       1       1       8       1       1       8       1
       1       8       1       1       8       1       1       8       1       1
       8       1       1       8       1       1       8       1       1       8
       1       1       8       1       1       8       1       1       8       1
       1       8       1       1       8       1       1       8       1       1
       8       1       1       8       1       1       8       1       1       8
       1       1       8       1       1       8       1       1       8       1
       1       8       1       1       8       1       1       8       1       1
       8       1       1       8       1       1       8       1       1       8
       1       1       8       1       1       8       1       1       8       1
       1       8       1       1       8       1       1       8       1       1
       8       1       1       8       1       1       8       1       1       8
       1       1       8       1       1       8       1       1       8       1
       1       8       1       1       8       1       1       8       1       1
       8       1       1       8       1       1       8       1       1       8
       1       1       8       1       1       8       1       1       8       1
       1       8       1       1       8       1       1       8       1       1
       8       1       1       8       1       1       8       1       1       8
       1       1       8       1       1       8       1       1       8       1
       1       8       1       1       8       1       1       8       1       1
       8       1       1       8       1       1       8       1       1       8
       1       1       8       1       1       8       1       1       8       1
       1       8       1       1       8       1       1       8       1       1
       8       1       1       8       1       1       8       1       1       8
       1       1       8       1       1       8       1       1       8       1
       1       8       1       1       8       1       1       8       1       1
       8       1       1       8       1       1       8       1       1       8
       1       1       8       1       1       8       1       1       8       1
       1       8       1       1       8       1       1       8       1       1
       8       1       1       8       1       1       8       1       1       8
       1       1       8       1       1       8       1       1       8       1
       1       8       1       1       8       1       1       8       1       1
       8       1       1       8       1       1       8       1       1       8
       1       1       8       1       1       8       1       1       8       1
       1       8       1       1       8       1       1       8       1       1
       8       1       1       8       1       1       8       1       1       8
       1       1       8       1       1       8       1       1       8       1
       1       8       1       1       8       1       1       8       1       1
       8       1       1       8       1       1       8       1       1       8
       1       1       8       1       1       8       1       1       8       1
       1       8       1       1       8       1       1       8       1       1
       8       1       1       8       1       1       8       1       1       8
       1       1       8       1       1       8       1       1       8       1
       1       8       1       1       8       1       1       8       1       1
       8       1       1       8       1       1       8       1       1       8
       1       1       8       1       1       8       1       1       8       1
       1       8       1       1       8       1       1       8       1       1
       8       1       1       8       1       1       8       1       1       8
       1       1       8       1       1       8       1       1       8       1
       1       8       1       1       8       1       1       8       1       1
       8       1       1       8       1       1       8       1       1       8
       1       1       8       1       1       8       1       1       8       1
       1       8       1       1       8       1       1       8       1       1
       8       1       1       8       1       1       8       1       1       8
       1       1       8       1       1       8       1       1       8       1
       1       8       1       1       8       1       1       8       1       1
       8       1       1       8       1       1       8       1       1       8
       1       1       8       1       1       8       1       1       8       1
       1       8       1       1       8       1       1       8       1       1
       8       1       1       8       1       1       8       1       1       8
       1       1       8       1       1       8       1       1       8       1
       1       8       1       1       8       1       1       8       1       1
       8       1       1       8       1       1       8       1       1       8
       1       1       8       1       1       8       1       1       8       1
       1       8       1       1       8       1       1       8       1       1
       8       1       1       8       1       1       8       1       1       8
       1       1       8       1       1       8       1       1       8       1
       1       8       1       1       8       1       1       8       1       1
       8       1       1       8       1       1       8       1       1       8
       1       1       8       1       1       8       1       1       8       1
       1       8       1       1       8       1       1       8       1       1
       8       1       1       8       1       1       8       1       1       8
       1       1       8       1       1       8       1       1       8       1
       1       8       1       1       8       1       1       8       1       1
       8       1       1       8       1       1       8       1       1       8
       1       1       8       1       1       8       1       1       8       1
       1       8       1       1       8       1       1       8       1       1
       8       1       1       8       1       1       8       1       1       8
       1       1       8       1       1       8       1       1       8       1
       1       8       1       1       8       1       1       8       1       1
       8       1       1       8       1       1       8       1       1       8
       1       1       8       1       1       8       1       1       8       1
       1       8       1       1       8       1       1       8       1       1
       8       1       1       8       1       1       8       1       1       8
       1       1       8       1       1       8       1       1       8       1
       1       8       1       1       8       1       1       8       1       1
       8       1       1       8       1       1       8       1       1       8
       1       1       8       1       1       8       1       1       8       1
       1       8       1       1       8       1       1       8       1       1
       8       1       1       8       1       1       8       1       1       8
       1       1       8       1       1       8       1       1       8       1
       1       8       1       1       8       1       1       8       1       1
       8       1       1       8       1       1       8       1       1       8
       1       1       8       1       1       8       1       1       8       1
       1       8       1       1       8       1       1       8       1       1
       8       1       1       8       1       1       8       1       1       8
       1       1       8       1       1       8       1       1       8       1
       1       8       1       1       8       1       1       8       1       1
       8       1       1       8       1       1       8       1       1       8
       1       1       8       1       1       8       1       1       8       1
       1       8       1       1       8       1       1       8       1       1
       8       1       1       8       1       1       8       1       1       8
       1       1       8       1       1       8       1       1       8       1
       1       8       1       1       8       1       1       8       1       1
       8       1       1       8       1       1       8       1       1       8
       1       1       8       1       1       8       1       1       8       1
       1       8       1       1       8       1       1       8       1       1
       8       1       1       8       1       1       8       1       1       8
       1       1       8       1       1       8       1       1       8       1
       1       8       1       1       8       1       1       8       1       1
       8       1       1       8       1       1       8       1       1       8
       1       1       8       1       1       8       1       1       8       1
       1       8       1       1       8       1       1       8       1       1
       8       1       1       8       1       1       8       1       1       8
       1       1       8       1       1       8       1       1       8       1
       1       8       1       1       8       1       1       8       1       1
       8       1       1       8       1       1       8       1       1       8
       1       1       8       1       1       8       1       1       8       1
       1       8       1       1       8       1       1       8       1       1
       8       1       1       8       1       1       8       1       1       8
       1       1       8       1       1       8       1       1       8       1
       1       8       1       1       8       1       1       8       1       1
       8       1       1       8       1       1       8       1       1       8
       1       1       8       1       1       8       1       1       8       1
       1       8       1       1       8       1       1       8       1       1
       8       1       1       8       1       1       8       1       1       8
       1       1       8       1       1       8       1       1       8       1
       1       8       1       1       8       1       1       8       1       1
       8       1       1       8       1       1       8       1       1       8
       1       1       8       1       1       8       1       1       8       1
       1       8       1       1       8       1       1       8       1       1
       8       1       1       8       1       1       8       1       1       8
       1       1       8       1       1       8       1       1       8       1
       1       8       1       1       8       1       1       8       1       1
       8       1       1       8       1       1       8       1       1       8
       1       1       8       1       1       8       1       1       8       1
       1       8       1       1       8       1       1       8       1       1
       8       1       1       8       1       1       8       1       1       8
       1       1       8       1       1       8       1       1       8       1
       1       8       1       1       8       1       1       8       1       1
       8       1       1       8       1       1       8       1       1       8
       1       1       8       1       1       8       1       1       8       1
       1       8       1       1       8       1       1       8       1       1
       8       1       1       8       1       1       8       1       1       8
       1       1       8       1       1       8       1       1       8       1
       1       8       1       1       8       1       1       8       1       1
       8       1       1       8       1       1       8       1       1       8
       1       1       8       1       1       8       1       1       8       1
       1       8       1       1       8       1       1       8       1       1
       8       1       1       8       1       1       8       1       1       8
       1       1       8       1       1       8       1       1       8       1
       1       8       1       1       8       1       1       8       1       1
       8       1       1       8       1       1       8       1       1       8
       1       1       8       1       1       8       1       1       8       1
       1       8       1       1       8       1       1       8       1       1
       8       1       1       8       1       1       8       1       1       8
       1       1       8       1       1       8       1       1       8       1
       1       8       1       1       8       1       1       8       1       1
       8       1       1       8       1       1       8       1       1       8
       1       1       8       1       1       8       1       1       8       1
       1       8       1       1       8       1       1       8       1       1
       8       1       1       8       1       1       8       1       1       8
       1       1       8       1       1       8       1       1       8       1
       1       8       1       1       8       1       1       8       1       1
       8       1       1       8       1       1       8       1       1       8
       1       1       8       1       1       8       1       1       8       1
       1       8       1       1       8       1       1       8       1       1
       8       1       1       8       1       1       8       1       1       8
       1       1       8       1       1       8       1       1       8       1
       1       8       1       1       8       1       1       8       1       1
       8       1       1       8       1       1       8       1       1       8
       1       1       8       1       1       8       1       1       8       1
       1       8       1       1       8       1       1       8       1       1
       8       1       1       8       1       1       8       1       1       8
       1       1       8       1       1       8       1       1       8       1
       1       8       1       1       8       1       1       8       1       1
       8       1       1       8       1       1       8       1       1       8
       1       1       8       1       1       8       1       1       8       1
       1       8       1       1       8       1       1       8       1       1
       8       1       1       8       1       1       8       1       1       8
       1       1       8       1       1       8       1       1       8       1
       1       8       1       1       8       1       1       8       1       1
       8       1       1       8       1       1       8       1       1       8
       1       1       8       1       1       8       1       1       8       1
       1       8       1       1       8       1       1       8       1       1
       8       1       1       8       1       1       8       1       1       8
       1       1       8       1       1       8       1       1       8       1
       1       8       1       1       8       1       1       8       1       1
       8       1       1       8       1       1       8       1       1       8
       1       1       8       1       1       8       1       1       8       1
       1       8       1       1       8       1       1       8       1       1
       8       1       1       8       1       1       8       1       1       8
       1       1       8       1       1       8       1       1       8       1
       1       8       1       1       8       1       1       8       1       1
       8       1       1       8       1       1       8       1       1       8
       1       1       8       1       1       8       1       1       8       1
       1       8       1       1       8       1       1       8       1       1
       8       1       1       8       1       1       8       1       1       8
       1       1       8       1       1       8       1       1       8       1
       1       8       1       1       8       1       1       8       1       1
       8       1       1       8       1       1       8       1       1       8
       1       1       8       1       1       8       1       1       8       1
       1       8       1       1       8       1       1       8       1       1
       8       1       1       8       1       1       8       1       1       8
       1       1       8       1       1       8       1       1       8       1
       1       8       1       1       8       1       1       8       1       1
       8       1       1       8       1       1       8       1       1       8
       1       1       8       1       1       8       1       1       8       1
       1       8       1       1       8       1       1       8       1       1
       8       1       1       8       1       1       8       1       1       8
       1       1       8       1       1       8       1       1       8       1
       1       8       1       1       8       1       1       8       1       1
       8       1       1       8       1       1       8       1       1       8
       1       1       8       1       1       8       1       1       8       1
       1       8       1       1       8       1       1       8       1       1
       8       1       1       8       1       1       8       1       1       8
       1       1       8       1       1       8       1       1       8       1
       1       8       1       1       8       1       1       8       1       1
       8       1       1       8       1       1       8       1       1       8
       1       1       8       1       1       8       1       1       8       1
       1       8       1       1       8       1       1       8       1       1
       8       1       1       8       1       1       8       1       1       8
       1       1       8       1       1       8       1       1       8       1
       1       8       1       1       8       1       1       8       1       1
       8       1       1       8       1       1       8       1       1       8
       1       1       8       1       1       8       1       1       8       1
       1       8       1       1       8       1       1       8       1       1
       8       1       1       8       1       1       8       1       1       8
       1       1       8       1       1       8       1       1       8       1
       1       8       1       1       8       1       1       8       1       1
       8       1       1       8       1       1       8       1       1       8
       1       1       8       1       1       8       1       1       8       1
       1       8       1       1       8       1       1       8       1       1
       8       1       1       8       1       1       8       1       1       8
       1       1       8       1       1       8       1       1       8       1
       1       8       1       1       8       1       1       8       1       1
       8       1       1       8       1       1       8       1       1       8
       1       1       8       1       1       8       1       1       8       1
       1       8       1       1       8       1       1       8       1       1
       8       1       1       8       1       1       8       1       1       8
       1       1       8       1       1       8       1       1       8       1
       1       8       1       1       8       1       1       8       1       1
       8       1       1       8       1       1       8       1       1       8
       1       1       8       1       1       8       1       1       8       1
       1       8       1       1       8       1       1       8       1       1
       8       1       1       8       1       1       8       1       1       8
       1       1       8       1       1       8       1       1       8       1
       1       8       1       1       8       1       1       8       1       1
       8       1       1       8       1       1       8       1       1       8
       1       1       8       1       1       8       1       1       8       1
       1       8       1       1       8       1       1       8       1       1
       8       1       1       8       1       1       8       1       1       8
       1       1       8       1       1       8       1       1       8       1
       1       8       1       1       8       1       1       8       1       1
       8       1       1       8       1       1       8       1       1       8
       1       1       8       1       1       8       1       1       8       1
       1       8       1       1       8       1       1       8       1       1
       8       1       1       8       1       1       8       1       1       8
       1       1       8       1       1       8       1       1       8       1
       1       8       1       1       8       1       1       8       1       1
       8       1       1       8       1       1       8       1       1       8
       1       1       8       1       1       8       1       1       8       1
       1       8       1       1       8       1       1       8       1       1
       8       1       1       8       1       1       8       1       1       8
       1       1       8       1       1       8       1       1       8       1
       1       8       1       1       8       1       1       8       1       1
       8       1       1       8       1       1       8       1       1       8
       1       1       8       1       1       8       1       1       8       1
       1       8       1       1       8       1       1       8       1       1
       8       1       1       8       1       1       8       1       1       8
       1       1       8       1       1       8       1       1       8       1
       1       8       1       1       8       1       1       8       1       1
       8       1       1       8       1       1       8       1       1       8
       1       1       8       1       1       8       1       1       8       1
       1       8       1       1       8       1       1       8       1       1
       8       1       1       8       1       1       8       1       1       8
       1       1       8       1       1       8       1       1       8       1
       1       8       1       1       8       1       1       8       1       1
       8       1       1       8       1       1       8       1       1       8
       1       1       8       1       1       8       1       1       8       1
       1       8       1       1       8       1       1       8       1       1
       8       1       1       8       1       1       8       1       1       8
       1       1       8       1       1       8       1       1       8       1
       1       8       1       1       8       1       1       8       1       1
       8       1       1       8       1       1       8       1       1       8
       1       1       8       1       1       8       1       1       8       1
       1       8       1       1       8       1       1       8       1       1
       8       1       1       8       1       1       8       1       1       8
       1       1       8       1       1       8       1       1       8       1
       1       8       1       1       8       1       1       8       1       1
       8       1       1       8       1       1       8       1       1       8
       1       1       8       1       1       8       1       1       8       1
       1       8       1       1       8       1       1       8       1       1
       8       1       1       8       1       1       8       1       1       8
       1       1       8       1       1       8       1       1       8       1
       1       8       1       1       8       1       1       8       1       1
       8       1       1       8       1       1       8       1       1       8
       1       1       8       1       1       8       1       1       8       1
       1       8       1       1       8       1       1       8       1       1
       8       1       1       8       1       1       8       1       1       8
       1       1       8       1       1       8       1       1       8       1
       1       8       1       1       8       1       1       8       1       1
       8       1       1       8       1       1       8       1       1       8
       1       1       8       1       1       8       1       1       8       1
       1       8       1       1       8       1       1       8       1       1
       8       1       1       8       1       1       8       1       1       8
       1       1       8       1       1       8       1       1       8       1
       1       8       1       1       8       1       1       8       1       1
       8       1       1       8       1       1       8       1       1       8
       1       1       8       1       1       8       1       1       8       1
       1       8       1       1       8       1       1       8       1       1
       8       1       1       8       1       1       8       1       1       8
       1       1       8       1       1       8       1       1       8       1
       1       8       1       1       8       1       1       8       1       1
       8       1       1       8       1       1       8       1       1       8
       1       1       8       1       1       8       1       1       8       1
       1       8       1       1       8       1       1       8       1       1
       8       1       1       8       1       1       8       1       1       8
       1       1       8       1       1       8       1       1       8       1
       1       8       1       1       8       1       1       8       1       1
       8       1       1       8       1       1       8       1       1       8
       1       1       8       1       1       8       1       1       8       1
       1       8       1       1       8       1       1       8       1       1
       8       1       1       8       1       1       8       1       1       8
       1       1       8       1       1       8       1       1       8       1
       1       8       1       1       8       1       1       8       1       1
       8       1       1       8       1       1       8       1       1       8
       1       1       8       1       1       8       1       1       8       1
       1       8       1       1       8       1       1       8       1       1
       8       1       1       8       1       1       8       1       1       8
       1       1       8       1       1       8       1       1       8       1
       1       8       1       1       8       1       1       8       1       1
       8       1       1       8       1       1       8       1       1       8
       1       1       8       1       1       8       1       1       8       1
       1       8       1       1       8       1       1       8       1       1
       8       1       1       8       1       1       8       1       1       8
       1       1       8       1       1       8       1       1       8       1
       1       8       1       1       8       1       1       8       1       1
       8       1       1       8       1       1       8       1       1       8
       1       1       8       1       1       8       1       1       8       1
       1       8       1       1       8       1       1       8       1       1
       8       1       1       8       1       1       8       1       1       8
       1       1       8       1       1       8       1       1       8       1
       1       8       1       1       8       1       1       8       1       1
       8       1       1       8       1       1       8       1       1       8
       1       1       8       1       1       8       1       1       8       1
       1       8       1       1       8       1       1       8       1       1
       8       1       1       8       1       1       8       1       1       8
       1       1       8       1       1       8       1       1       8       1
       1       8       1       1       8       1       1       8       1       1
       8       1       1       8       1       1       8       1       1       8
       1       1       8       1       1       8       1       1       8       1
       1       8       1       1       8       1       1       8       1       1
       8       1       1       8       1       1       8       1       1       8
       1       1       8       1       1       8       1       1       8       1
       1       8       1       1       8       1       1       8       1       1
       8       1       1       8       1       1       8       1       1       8
       1       1       8       1       1       8       1       1       8       1
       1       8       1       1       8       1       1       8       1       1
       8       1       1       8       1       1       8       1       1       8
       1       1       8       1       1       8       1       1       8       1
       1       8       1       1       8       1       1       8       1       1
       8       1       1       8       1       1       8       1       1       8
       1       1       8       1       1       8       1       1       8       1
       1       8       1       1       8       1       1       8       1       1
       8       1       1       8       1       1       8       1       1       8
       1       1       8       1       1       8       1       1       8       1
       1       8       1       1       8       1       1       8       1       1
       8       1       1       8       1       1       8       1       1       8
       1       1       8       1       1       8       1       1       8       1
       1       8       1       1       8       1       1       8       1       1
       8       1       1       8       1       1       8       1       1       8
       1       1       8       1       1       8       1       1       8       1
       1       8       1       1       8       1       1       8       1       1
       8       1       1       8       1       1       8       1       1       8
       1       1       8       1       1       8       1       1       8       1
       1       8       1       1       8       1       1       8       1       1
       8       1       1       8       1       1       8       1       1       8
       1       1       8       1       1       8       1       1       8       1
       1       8       1       1       8       1       1       8       1       1
       8       1       1       8       1       1       8       1       1       8
       1       1       8       1       1       8       1       1       8       1
       1       8       1       1       8       1       1       8       1       1
       8       1       1       8       1       1       8       1       1       8
       1       1       8       1       1       8       1       1       8       1
       1       8       1       1       8       1       1       8       1       1
       8       1       1       8       1       1       8       1       1       8
       1       1       8       1       1       8       1       1       8       1
       1       8       1       1       8       1       1       8       1       1
       8       1       1       8       1       1       8       1       1       8
       1       1       8       1       1       8       1       1       8       1
       1       8       1       1       8       1       1       8       1       1
       8       1       1       8       1       1       8       1       1       8
       1       1       8       1       1       8       1       1       8       1
       1       8       1       1       8       1       1       8       1       1
       8       1       1       8       1       1       8       1       1       8
       1       1       8       1       1       8       1       1       8       1
       1       8       1       1       8       1       1       8       1       1
       8       1       1       8       1       1       8       1       1       8
       1       1       8       1       1       8       1       1       8       1
       1       8       1       1       8       1       1       8       1       1
       8       1       1       8       1       1       8       1       1       8
       1       1       8       1       1       8       1       1       8       1
       1       8       1       1       8       1       1       8       1       1
       8       1       1       8       1       1       8       1       1       8
       1       1       8       1       1       8       1       1       8       1
       1       8       1       1       8       1       1       8       1       1
       8       1       1       8       1       1       8       1       1       8
       1       1       8       1       1       8       1       1       8       1
       1       8       1       1       8       1       1       8       1       1
       8       1       1       8       1       1       8       1       1       8
       1       1       8       1       1       8       1       1       8       1
       1       8       1       1       8       1       1       8       1       1
       8       1       1       8       1       1       8       1       1       8
       1       1       8       1       1       8       1       1       8       1
       1       8       1       1       8       1       1       8       1       1
       8       1       1       8       1       1       8       1       1       8
       1       1       8       1       1       8       1       1       8       1
       1       8       1       1       8       1       1       8       1       1
       8       1       1       8       1       1       8       1       1       8
       1       1       8       1       1       8       1       1       8       1
       1       8       1       1       8       1       1       8       1       1
       8       1       1       8       1       1       8       1       1       8
       1       1       8       1       1       8       1       1       8       1
       1       8       1       1       8       1       1       8       1       1
       8       1       1       8       1       1       8       1       1       8
       1       1       8       1       1       8       1       1       8       1
       1       8       1       1       8       1       1       8       1       1
       8       1       1       8       1       1       8       1       1       8
       1       1       8       1       1       8       1       1       8       1
       1       8       1       1       8       1       1       8       1       1
       8       1       1       8       1       1       8       1       1       8
       1       1       8       1       1       8       1       1       8       1
       1       8       1       1       8       1       1       8       1       1
       8       1       1       8       1       1       8       1       1       8
       1       1       8       1       1       8       1       1       8       1
       1       8       1       1       8       1       1       8       1       1
       8       1       1       8       1       1       8       1       1       8
       1       1       8       1       1       8       1       1       8       1
       1       8       1       1       8       1       1       8       1       1
       8       1       1       8       1       1       8       1       1       8
       1       1       8       1       1       8       1       1       8       1
       1       8       1       1       8       1       1       8       1       1
       8       1       1       8       1       1       8       1       1       8
       1       1       8       1       1       8       1       1       8       1
       1       8       1       1       8       1       1       8       1       1
       8       1       1       8       1       1       8       1       1       8
       1       1       8       1       1       8       1       1       8       1
       1       8       1       1       8       1       1       8       1       1
       8       1       1       8       1       1       8       1       1       8
       1       1       8       1       1       8       1       1       8       1
       1       8       1       1       8       1       1       8       1       1
       8       1       1       8       1       1       8       1       1       8
       1       1       8       1       1       8       1       1       8       1
       1       8       1       1       8       1       1       8       1       1
       8       1       1       8       1       1       8       1       1       8
       1       1       8       1       1       8       1       1       8       1
       1       8       1       1       8       1       1       8       1       1
       8       1       1       8       1       1       8       1       1       8
       1       1       8       1       1       8       1       1       8       1
       1       8       1       1       8       1       1       8       1       1
       8       1       1       8       1       1       8       1       1       8
       1       1       8       1       1       8       1       1       8       1
       1       8       1       1       8       1       1       8       1       1
       8       1       1       8       1       1       8       1       1       8
       1       1       8       1       1       8       1       1       8       1
       1       8       1       1       8       1       1       8       1       1
       8       1       1       8       1       1       8       1       1       8
       1       1       8       1       1       8       1       1       8       1
       1       8       1       1       8       1       1       8       1       1
       8       1       1       8       1       1       8       1       1       8
       1       1       8       1       1       8       1       1       8       1
       1       8       1       1       8       1       1       8       1       1
       8       1       1       8       1       1       8       1       1       8
       1       1       8       1       1       8       1       1       8       1
       1       8       1       1       8       1       1       8       1       1
       8       1       1       8       1       1       8       1       1       8
       1       1       8       1       1       8       1       1       8       1
       1       8       1       1       8       1       1       8       1       1
       8       1       1       8       1       1       8       1       1       8
       1       1       8       1       1       8       1       1       8       1
       1       8       1       1       8       1       1       8       1       1
       8       1       1       8       1       1       8       1       1       8
       1       1       8       1       1       8       1       1       8       1
       1       8       1       1       8       1       1       8       1       1
       8       1       1       8       1       1       8       1       1       8
       1       1       8       1       1       8       1       1       8       1
       1       8       1       1       8       1       1       8       1       1
       8       1       1       8       1       1       8       1       1       8
       1       1       8       1       1       8       1       1       8       1
       1       8       1       1       8       1       1       8       1       1
       8       1       1       8       1       1       8       1       1       8
       1       1       8       1       1       8       1       1       8       1
       1       8       1       1       8       1       1       8       1       1
       8       1       1       8       1       1       8       1       1       8
       1       1       8       1       1       8       1       1       8       1
       1       8       1       1       8       1       1       8       1       1
       8       1       1       8       1       1       8       1       1       8
       1       1       8       1       1       8       1       1       8       1
       1       8       1       1       8       1       1       8       1       1
       8       1       1       8       1       1       8       1       1       8
       1       1       8       1       1       8       1       1       8       1
       1       8       1       1       8       1       1       8       1       1
       8       1       1       8       1       1       8       1       1       8
       1       1       8       1       1       8       1       1       8       1
       1       8       1       1       8       1       1       8       1       1
       8       1       1       8       1       1       8       1       1       8
       1       1       8       1       1       8       1       1       8       1
       1       8       1       1       8       1       1       8       1       1
       8       1       1       8       1       1       8       1       1       8
       1       1       8       1       1       8       1       1       8       1
       1       8       1       1       8       1       1       8       1       1
       8       1       1       8       1       1       8       1       1       8
       1       1       8       1       1       8       1       1       8       1
       1       8       1       1       8       1       1       8       1       1
       8       1       1       8       1       1       8       1       1       8
       1       1       8       1       1       8       1       1       8       1
       1       8       1       1       8       1       1       8       1       1
       8       1       1       8       1       1       8       1       1       8
       1       1       8       1       1       8       1       1       8       1
       1       8       1       1       8       1       1       8       1       1
       8       1       1       8       1       1       8       1       1       8
       1       1       8       1       1       8       1       1       8       1
       1       8       1       1       8       1       1       8       1       1
       8       1       1       8       1       1       8       1       1       8
       1       1       8       1       1       8       1       1       8       1
       1       8       1       1       8       1       1       8       1       1
       8       1       1       8       1       1       8       1       1       8
       1       1       8       1       1       8       1       1       8       1
       1       8       1       1       8       1       1       8       1       1
       8       1       1       8       1       1       8       1       1       8
       1       1       8       1       1       8       1       1       8       1
       1       8       1       1       8       1       1       8       1       1
       8       1       1       8       1       1       8       1       1       8
       1       1       8       1       1       8       1       1       8       1
       1       8       1       1       8       1       1       8       1       1
       8       1       1       8       1       1       8       1       1       8
       1       1       8       1       1       8       1       1       8       1
       1       8       1       1       8       1       1       8       1       1
       8       1       1       8       1       1       8       1       1       8
       1       1       8       1       1       8       1       1       8       1
       1       8       1       1       8       1       1       8       1       1
       8       1       1       8       1       1       8       1       1       8
       1       1       8       1       1       8       1       1       8       1
       1       8       1       1       8       1       1       8       1       1
       8       1       1       8       1       1       8       1       1       8
       1       1       8       1       1       8       1       1       8       1
       1       8       1       1       8       1       1       8       1       1
       8       1       1       8       1       1       8       1       1       8
       1       1       8       1       1       8       1       1       8       1
       1       8       1       1       8       1       1       8       1       1
       8       1       1       8       1       1       8       1       1       8
       1       1       8       1       1       8       1       1       8       1
       1       8       1       1       8       1       1       8       1       1
       8       1       1       8       1       1       8       1       1       8
       1       1       8       1       1       8       1       1       8       1
       1       8       1       1       8       1       1       8       1       1
       8       1       1       8       1       1       8       1       1       8
       1       1       8       1       1       8       1       1       8       1
       1       8       1       1       8       1       1       8       1       1
       8       1       1       8       1       1       8       1       1       8
       1       1       8       1       1       8       1       1       8       1
       1       8       1       1       8       1       1       8       1       1
       8       1       1       8       1       1       8       1       1       8
       1       1       8       1       1       8       1       1       8       1
       1       8       1       1       8       1       1       8       1       1
       8       1       1       8       1       1       8       1       1       8
       1       1       8       1       1       8       1       1       8       1
       1       8       1       1       8       1       1       8       1       1
       8       1       1       8       1       1       8       1       1       8
       1       1       8       1       1       8       1       1       8       1
       1       8       1       1       8       1       1       8       1       1
       8       1       1       8       1       1       8       1       1       8
       1       1       8       1       1       8       1       1       8       1
       1       8       1       1       8       1       1       8       1       1
       8       1       1       8       1       1       8       1       1       8
       1       1       8       1       1       8       1       1       8       1
       1       8       1       1       8       1       1       8       1       1
       8       1       1       8       1       1       8       1       1       8
       1       1       8       1       1       8       1       1       8       1
       1       8       1       1       8       1       1       8       1       1
       8       1       1       8       1       1       8       1       1       8
       1       1       8       1       1       8       1       1       8       1
       1       8       1       1       8       1       1       8       1       1
       8       1       1       8       1       1       8       1       1       8
       1       1       8       1       1       8       1       1       8       1
       1       8       1       1       8       1       1       8       1       1
       8       1       1       8       1       1       8       1       1       8
       1       1       8       1       1       8       1       1       8       1
       1       8       1       1       8       1       1       8       1       1
       8       1       1       8       1       1       8       1       1       8
       1       1       8       1       1       8       1       1       8       1
       1       8       1       1       8       1       1       8       1       1
       8       1       1       8       1       1       8       1       1       8
       1       1       8       1       1       8       1       1       8       1
       1       8       1       1       8       1       1       8       1       1
       8       1       1       8       1       1       8       1       1       8
       1       1       8       1       1       8       1       1       8       1
       1       8       1       1       8       1       1       8       1       1
       8       1       1       8       1       1       8       1       1       8
       1       1       8       1       1       8       1       1       8       1
       1       8       1       1       8       1       1       8       1       1
       8       1       1       8       1       1       8       1       1       8
       1       1       8       1       1       8       1       1       8       1
       1       8       1       1       8       1       1       8       1       1
       8       1       1       8       1       1       8       1       1       8
       1       1       8       1       1       8       1       1       8       1
       1       8       1       1       8       1       1       8       1       1
       8       1       1       8       1       1       8       1       1       8
       1       1       8       1       1       8       1       1       8       1
       1       8       1       1       8       1       1       8       1       1
       8       1       1       8       1       1       8       1       1       8
       1       1       8       1       1       8       1       1       8       1
       1       8       1       1       8       1       1       8       1       1
       8       1       1       8       1       1       8       1       1       8
       1       1       8       1       1       8       1       1       8       1
       1       8       1       1       8       1       1       8       1       1
       8       1       1       8       1       1       8       1       1       8
       1       1       8       1       1       8       1       1       8       1
       1       8       1       1       8       1       1       8       1       1
       8       1       1       8       1       1       8       1       1       8
       1       1       8       1       1       8       1       1       8       1
       1       8       1       1       8       1       1       8       1       1
       8       1       1       8       1       1       8       1       1       8
       1       1       8       1       1       8       1       1       8       1
       1       8       1       1       8       1       1       8       1       1
       8       1       1       8       1       1       8       1       1       8
       1       1       8       1       1       8       1       1       8       1
       1       8       1       1       8       1       1       8       1       1
       8       1       1       8       1       1       8       1       1       8
       1       1       8       1       1       8       1       1       8       1
       1       8       1       1       8       1       1       8       1       1
       8       1       1       8       1       1       8       1       1       8
       1       1       8       1       1       8       1       1       8       1
       1       8       1       1       8       1       1       8       1       1
       8       1       1       8       1       1       8       1       1       8
       1       1       8       1       1       8       1       1       8       1
       1       8       1       1       8       1       1       8       1       1
       8       1       1       8       1       1       8       1       1       8
       1       1       8       1       1       8       1       1       8       1
       1       8       1       1       8       1       1       8       1       1
       8       1       1       8       1       1       8       1       1       8
       1       1       8       1       1       8       1       1       8       1
       1       8       1       1       8       1       1       8       1       1
       8       1       1       8       1       1       8       1       1       8
       1       1       8       1       1       8       1       1       8       1
       1       8       1       1       8       1       1       8       1       1
       8       1       1       8       1       1       8       1       1       8
       1       1       8       1       1       8       1       1       8       1
       1       8       1       1       8       1       1       8       1       1
       8       1       1       8       1       1       8       1       1       8
       1       1       8       1       1       8       1       1       8       1
       1       8       1       1       8       1       1       8       1       1
       8       1       1       8       1       1       8       1       1       8
       1       1       8       1       1       8       1       1       8       1
       1       8       1       1       8       1       1       8       1       1
       8       1       1       8       1       1       8       1       1       8
       1       1       8       1       1       8       1       1       8       1
       1       8       1       1       8       1       1       8       1       1
       8       1       1       8       1       1       8       1       1       8
       1       1       8       1       1       8       1       1       8       1
       1       8       1       1       8       1       1       8       1       1
       8       1       1       8       1       1       8       1       1       8
       1       1       8       1       1       8       1       1       8       1
       1       8       1       1       8       1       1       8       1       1
       8       1       1       8       1       1       8       1       1       8
       1       1       8       1       1       8       1       1       8       1
       1       8       1       1       8       1       1       8       1       1
       8       1       1       8       1       1       8       1       1       8
       1       1       8       1       1       8       1       1       8       1
       1       8       1       1       8       1       1       8       1       1
       8       1       1       8       1       1       8       1       1       8
       1       1       8       1       1       8       1       1       8       1
       1       8       1       1       8       1       1       8       1       1
       8       1       1       8       1       1       8       1       1       8
       1       1       8       1       1       8       1       1       8       1
       1       8       1       1       8       1       1       8       1       1
       8       1       1       8       1       1       8       1       1       8
       1       1       8       1       1       8       1       1       8       1
       1       8       1       1       8       1       1       8       1       1
       8       1       1       8       1       1       8       1       1       8
       1       1       8       1       1       8       1       1       8       1
       1       8       1       1       8       1       1       8       1       1
       8       1       1       8       1       1       8       1       1       8
       1       1       8       1       1       8       1       1       8       1
       1       8       1       1       8       1       1       8       1       1
       8       1       1       8       1       1       8       1       1       8
       1       1       8       1       1       8       1       1       8       1
       1       8       1       1       8       1       1       8       1       1
       8       1       1       8       1       1       8       1       1       8
       1       1       8       1       1       8       1       1       8       1
       1       8       1       1       8       1       1       8       1       1
       8       1       1       8       1       1       8       1       1       8
       1       1       8       1       1       8       1       1       8       1
       1       8       1       1       8       1       1       8       1       1
       8       1       1       8       1       1       8       1       1       8
       1       1       8       1       1       8       1       1       8       1
       1       8       1       1       8       1       1       8       1       1
       8       1       1       8       1       1       8       1       1       8
       1       1       8       1       1       8       1       1       8       1
       1       8       1       1       8       1       1       8       1       1
       8       1       1       8       1       1       8       1       1       8
       1       1       8       1       1       8       1       1       8       1
       1       8       1       1       8       1       1       8       1       1
       8       1       1       8       1       1       8       1       1       8
       1       1       8       1       1       8       1       1       8       1
       1       8       1       1       8       1       1       8       1       1
       8       1       1       8       1       1       8       1       1       8
       1       1       8       1       1       8       1       1       8       1
       1       8       1       1       8       1       1       8       1       1
       8       1       1       8       1       1       8       1       1       8
       1       1       8       1       1       8       1       1       8       1
       1       8       1       1       8       1       1       8       1       1
       8       1       1       8       1       1       8       1       1       8
       1       1       8       1       1       8       1       1       8       1
       1       8       1       1       8       1       1       8       1       1
       8       1       1       8       1       1       8       1       1       8
       1       1       8       1       1       8       1       1       8       1
       1       8       1       1       8       1       1       8       1       1
       8       1       1       8       1       1       8       1       1       8
       1       1       8       1       1       8       1       1       8       1
       1       8       1       1       8       1       1       8       1       1
       8       1       1       8       1       1       8       1       1       8
       1       1       8       1       1       8       1       1       8       1
       1       8       1       1       8       1       1       8       1       1
       8       1       1       8       1       1       8       1       1       8
       1       1       8       1       1       8       1       1       8       1
       1       8       1       1       8       1       1       8       1       1
       8       1       1       8       1       1       8       1       1       8
       1       1       8       1       1       8       1       1       8       1
       1       8       1       1       8       1       1       8       1       1
       8       1       1       8       1       1       8       1       1       8
       1       1       8       1       1       8       1       1       8       1
       1       8       1       1       8       1       1       8       1       1
       8       1       1       8       1       1       8       1       1       8
       1       1       8       1       1       8       1       1       8       1
       1       8       1       1       8       1       1       8       1       1
       8       1       1       8       1       1       8       1       1       8
       1       1       8       1       1       8       1       1       8       1
       1       8       1       1       8       1       1       8       1       1
       8       1       1       8       1       1       8       1       1       8
       1       1       8       1       1       8       1       1       8       1
       1       8       1       1       8       1       1       8       1       1
       8       1       1       8       1       1       8       1       1       8
       1       1       8       1       1       8       1       1       8       1
       1       8       1       1       8       1       1       8       1       1
       8       1       1       8       1       1       8       1       1       8
       1       1       8       1       1       8       1       1       8       1
       1       8       1       1       8       1       1       8       1       1
       8       1       1       8       1       1       8       1       1       8
       1       1       8       1       1       8       1       1       8       1
       1       8       1       1       8       1       1       8       1       1
       8       1       1       8       1       1       8       1       1       8
       1       1       8       1       1       8       1       1       8       1
       1       8       1       1       8       1       1       8       1       1
       8       1       1       8       1       1       8       1       1       8
       1       1       8       1       1       8       1       1       8       1
       1       8       1       1       8       1       1       8       1       1
       8       1       1       8       1       1       8       1       1       8
       1       1       8       1       1       8       1       1       8       1
       1       8       1       1       8       1       1       8       1       1
       8       1       1       8       1       1       8       1       1       8
       1       1       8       1       1       8       1       1       8       1
       1       8       1       1       8       1       1       8       1       1
       8       1       1       8       1       1       8       1       1       8
       1       1       8       1       1       8       1       1       8       1
       1       8       1       1       8       1       1       8       1       1
       8       1       1       8       1       1       8       1       1       8
       1       1       8       1       1       8       1       1       8       1
       1       8       1       1       8       1       1       8       1       1
       8       1       1       8       1       1       8       1       1       8
       1       1       8       1       1       8       1       1       8       1
       1       8       1       1       8       1       1       8       1       1
       8       1       1       8       1       1       8       1       1       8
       1       1       8       1       1       8       1       1       8       1
       1       8       1       1       8       1       1       8       1       1
       8       1       1       8       1       1       8       1       1       8
       1       1       8       1       1       8       1       1       8       1
       1       8       1       1       8       1       1       8       1       1
       8       1       1       8       1       1       8       1       1       8
       1       1       8       1       1       8       1       1       8       1
       1       8       1       1       8       1       1       8       1       1
       8       1       1       8       1       1       8       1       1       8
       1       1       8       1       1       8       1       1       8       1
       1       8       1       1       8       1       1       8       1       1
       8       1       1       8       1       1       8       1       1       8
       1       1       8       1       1       8       1       1       8       1
       1       8       1       1       8       1       1       8       1       1
       8       1       1       8       1       1       8       1       1       8
       1       1       8       1       1       8       1       1       8       1
       1       8       1       1       8       1       1       8       1       1
       8       1       1       8       1       1       8       1       1       8
       1       1       8       1       1       8       1       1       8       1
       1       8       1       1       8       1       1       8       1       1
       8       1       1       8       1       1       8       1       1       8
       1       1       8       1       1       8       1       1       8       1
       1       8       1       1       8       1       1       8       1       1
       8       1       1       8       1       1       8       1       1       8
       1       1       8       1       1       8       1       1       8       1
       1       8       1       1       8       1       1       8       1       1
       8       1       1       8       1       1       8       1       1       8
       1       1       8       1       1       8       1       1       8       1
       1       8       1       1       8       1       1       8       1       1
       8       1       1       8       1       1       8       1       1       8
       1       1       8       1       1       8       1       1       8       1
       1       8       1       1       8       1       1       8       1       1
       8       1       1       8       1       1       8       1       1       8
       1       1       8       1       1       8       1       1       8       1
       1       8       1       1       8       1       1       8       1       1
       8       1       1       8       1       1       8       1       1       8
       1       1       8       1       1       8       1       1       8       1
       1       8       1       1       8       1       1       8       1       1
       8       1       1       8       1       1       8       1       1       8
       1       1       8       1       1       8       1       1       8       1
       1       8       1       1       8       1       1       8       1       1
       8       1       1       8       1       1       8       1       1       8
       1       1       8       1       1       8       1       1       8       1
       1       8       1       1       8       1       1       8       1       1
       8       1       1       8       1       1       8       1       1       8
       1       1       8       1       1       8       1       1       8       1
       1       8       1       1       8       1       1       8       1       1
       8       1       1       8       1       1       8       1       1       8
       1       1       8       1       1       8       1       1       8       1
       1       8       1       1       8       1       1       8       1       1
       8       1       1       8       1       1       8       1       1       8
       1       1       8       1       1       8       1       1       8       1
       1       8       1       1       8       1       1       8       1       1
       8       1       1       8       1       1       8       1       1       8
       1       1       8       1       1       8       1       1       8       1
       1       8       1       1       8       1       1       8       1       1
       8       1       1       8       1       1       8       1       1       8
       1       1       8       1       1       8       1       1       8       1
       1       8       1       1       8       1       1       8       1       1
       8       1       1       8       1       1       8       1       1       8
       1       1       8       1       1       8       1       1       8       1
       1       8       1       1       8       1       1       8       1       1
       8       1       1       8       1       1       8       1       1       8
       1       1       8       1       1       8       1       1       8       1
       1       8       1       1       8       1       1       8       1       1
       8       1       1       8       1       1       8       1       1       8
       1       1       8       1       1       8       1       1       8       1
       1       8       1       1       8       1       1       8       1       1
       8       1       1       8       1       1       8       1       1       8
       1       1       8       1       1       8       1       1       8       1
       1       8       1       1       8       1       1       8       1       1
       8       1       1       8       1       1       8       1       1       8
       1       1       8       1       1       8       1       1       8       1
       1       8       1       1       8       1       1       8       1       1
       8       1       1       8       1       1       8       1       1       8
       1       1       8       1       1       8       1       1       8       1
       1       8       1       1       8       1       1       8       1       1
       8       1       1       8       1       1       8       1       1       8
       1       1       8       1       1       8       1       1       8       1
       1       8       1       1       8       1       1       8       1       1
       8       1       1       8       1       1       8       1       1       8
       1       1       8       1       1       8       1       1       8       1
       1       8       1       1       8       1       1       8       1       1
       8       1       1       8       1       1       8       1       1       8
       1       1       8       1       1       8       1       1       8       1
       1       8       1       1       8       1       1       8       1       1
       8       1       1       8       1       1       8       1       1       8
       1       1       8       1       1       8       1       1       8       1
       1       8       1       1       8       1       1       8       1       1
       8       1       1       8       1       1       8       1       1       8
       1       1       8       1       1       8       1       1       8       1
       1       8       1       1       8       1       1       8       1       1
       8       1       1       8       1       1       8       1       1       8
       1       1       8       1       1       8       1       1       8       1
       1       8       1       1       8       1       1       8       1       1
       8       1       1       8       1       1       8       1       1       8
       1       1       8       1       1       8       1       1       8       1
       1       8       1       1       8       1       1       8       1       1
       8       1       1       8       1       1       8       1       1       8
       1       1       8       1       1       8       1       1       8       1
       1       8       1       1       8       1       1       8       1       1
       8       1       1       8       1       1       8       1       1       8
       1       1       8       1       1       8       1       1       8       1
       1       8       1       1       8       1       1       8       1       1
       8       1       1       8       1       1       8       1       1       8
       1       1       8       1       1       8       1       1       8       1
       1       8       1       1       8       1       1       8       1       1
       8       1       1       8       1       1       8       1       1       8
       1       1       8       1       1       8       1       1       8       1
       1       8       1       1       8       1       1       8       1       1
       8       1       1       8       1       1       8       1       1       8
       1       1       8       1       1       8       1       1       8       1
       1       8       1       1       8       1       1       8       1       1
       8       1       1       8       1       1       8       1       1       8
       1       1       8       1       1       8       1       1       8       1
       1       8       1       1       8       1       1       8       1       1
       8       1       1       8       1       1       8       1       1       8
       1       1       8       1       1       8       1       1       8       1
       1       8       1       1       8       1       1       8       1       1
       8       1       1       8       1       1       8       1       1       8
       1       1       8       1       1       8       1       1       8       1
       1       8       1       1       8       1       1       8       1       1
       8       1       1       8       1       1       8       1       1       8
       1       1       8       1       1       8       1       1       8       1
       1       8       1       1       8       1       1       8       1       1
       8       1       1       8       1       1       8       1       1       8
       1       1       8       1       1       8       1       1       8       1
       1       8       1       1       8       1       1       8       1       1
       8       1       1       8       1       1       8       1       1       8
       1       1       8       1       1       8       1       1       8       1
       1       8       1       1       8       1       1       8       1       1
       8       1       1       8       1       1       8       1       1       8
       1       1       8       1       1       8       1       1       8       1
       1       8       1       1       8       1       1       8       1       1
       8       1       1       8       1       1       8       1       1       8
       1       1       8       1       1       8       1       1       8       1
       1       8       1       1       8       1       1       8       1       1
       8       1       1       8       1       1       8       1       1       8
       1       1       8       1       1       8       1       1       8       1
       1       8       1       1       8       1       1       8       1       1
       8       1       1       8       1       1       8       1       1       8
       1       1       8       1       1       8       1       1       8       1
       1       8       1       1       8       1       1       8       1       1
       8       1       1       8       1       1       8       1       1       8
       1       1       8       1       1       8       1       1       8       1
       1       8       1       1       8       1       1       8       1       1
       8       1       1       8       1       1       8       1       1       8
       1       1       8       1       1       8       1       1       8       1
       1       8       1       1       8       1       1       8       1       1
       8       1       1       8       1       1       8       1       1       8
       1       1       8       1       1       8       1       1       8       1
       1       8       1       1       8       1       1       8       1       1
       8       1       1       8       1       1       8       1       1       8
       1       1       8       1       1       8       1       1       8       1
       1       8       1       1       8       1       1       8       1       1
       8       1       1       8       1       1       8       1       1       8
       1       1       8       1       1       8       1       1       8       1
       1       8       1       1       8       1       1       8       1       1
       8       1       1       8       1       1       8       1       1       8
       1       1       8       1       1       8       1       1       8       1
       1       8       1       1       8       1       1       8       1       1
       8       1       1       8       1       1       8       1       1       8
       1       1       8       1       1       8       1       1       8       1
       1       8       1       1       8       1       1       8       1       1
       8       1       1       8       1       1       8       1       1       8
       1       1       8       1       1       8       1       1       8       1
       1       8       1       1       8       1       1       8       1       1
       8       1       1       8       1       1       8       1       1       8
       1       1       8       1       1       8       1       1       8       1
       1       8       1       1       8       1       1       8       1       1
       8       1       1       8       1       1       8       1       1       8
       1       1       8       1       1       8       1       1       8       1
       1       8       1       1       8       1       1       8       1       1
       8       1       1       8       1       1       8       1       1       8
       1       1       8       1       1       8       1       1       8       1
       1       8       1       1       8       1       1       8       1       1
       8       1       1       8       1       1       8       1       1       8
       1       1       8       1       1       8       1       1       8       1
       1       8       1       1       8       1       1       8       1       1
       8       1       1       8       1       1       8       1       1       8
       1       1       8       1       1       8       1       1       8       1
       1       8       1       1       8       1       1       8       1       1
       8       1       1       8       1       1       8       1       1       8
       1       1       8       1       1       8       1       1       8       1
       1       8       1       1       8       1       1       8       1       1
       8       1       1       8       1       1       8       1       1       8
       1       1       8       1       1       8       1       1       8       1
       1       8       1       1       8       1       1       8       1       1
       8       1       1       8       1       1       8       1       1       8
       1       1       8       1       1       8       1       1       8       1
       1       8       1       1       8       1       1       8       1       1
       8       1       1       8       1       1       8       1       1       8
       1       1       8       1       1       8       1       1       8       1
       1       8       1       1       8       1       1       8       1       1
       8       1       1       8       1       1       8       1       1       8
       1       1       8       1       1       8       1       1       8       1
       1       8       1       1       8       1       1       8       1       1
       8       1       1       8       1       1       8       1       1       8
       1       1       8       1       1       8       1       1       8       1
       1       8       1       1       8       1       1       8       1       1
       8       1       1       8       1       1       8       1       1       8
       1       1       8       1       1       8       1       1       8       1
       1       8       1       1       8       1       1       8       1       1
       8       1       1       8       1       1       8       1       1       8
       1       1       8       1       1       8       1       1       8       1
       1       8       1       1       8       1       1       8       1       1
       8       1       1       8       1       1       8       1       1       8
       1       1       8       1       1       8       1       1       8       1
       1       8       1       1       8       1       1       8       1       1
       8       1       1       8       1       1       8       1       1       8
       1       1       8       1       1       8       1       1       8       1
       1       8       1       1       8       1       1       8       1       1
       8       1       1       8       1       1       8       1       1       8
       1       1       8       1       1       8       1       1       8       1
       1       8       1       1       8       1       1       8       1       1
       8       1       1       8       1       1       8       1       1       8
       1       1       8       1       1       8       1       1       8       1
       1       8       1       1       8       1       1       8       1       1
       8       1       1       8       1       1       8       1       1       8
       1       1       8       1       1       8       1       1       8       1
       1       8       1       1       8       1       1       8       1       1
       8       1       1       8       1       1       8       1       1       8
       1       1       8       1       1       8       1       1       8       1
       1       8       1       1       8       1       1       8       1       1
       8       1       1       8       1       1       8       1       1       8
       1       1       8       1       1       8       1       1       8       1
       1       8       1       1       8       1       1       8       1       1
       8       1       1       8       1       1       8       1       1       8
       1       1       8       1       1       8       1       1       8       1
       1       8       1       1       8       1       1       8       1       1
       8       1       1       8       1       1       8       1       1       8
       1       1       8       1       1       8       1       1       8       1
       1       8       1       1       8       1       1       8       1       1
       8       1       1       8       1       1       8       1       1       8
       1       1       8       1       1       8       1       1       8       1
       1       8       1       1       8       1       1       8       1       1
       8       1       1       8       1       1       8       1       1       8
       1       1       8       1       1       8       1       1       8       1
       1       8       1       1       8       1       1       8       1       1
       8       1       1       8       1       1       8       1       1       8
       1       1       8       1       1       8       1       1       8       1
       1       8       1       1       8       1       1       8       1       1
       8       1       1       8       1       1       8       1       1       8
       1       1       8       1       1       8       1       1       8       1
       1       8       1       1       8       1       1       8       1       1
       8       1       1       8       1       1       8       1       1       8
       1       1       8       1       1       8       1       1       8       1
       1       8       1       1       8       1       1       8       1       1
       8       1       1       8       1       1       8       1       1       8
       1       1       8       1       1       8       1       1       8       1
       1       8       1       1       8       1       1       8       1       1
       8       1       1       8       1       1       8       1       1       8
       1       1       8       1       1       8       1       1       8       1
       1       8       1       1       8       1       1       8       1       1
       8       1       1       8       1       1       8       1       1       8
       1       1       8       1       1       8       1       1       8       1
       1       8       1       1       8       1       1       8       1       1
       8       1       1       8       1       1       8       1       1       8
       1       1       8       1       1       8       1       1       8       1
       1       8       1       1       8       1       1       8       1       1
       8       1       1       8       1       1       8       1       1       8
       1       1       8       1       1       8       1       1       8       1
       1       8       1       1       8       1       1       8       1       1
       8       1       1       8       1       1       8       1       1       8
       1       1       8       1       1       8       1       1       8       1
       1       8       1       1       8       1       1       8       1       1
       8       1       1       8       1       1       8       1       1       8
       1       1       8       1       1       8       1       1       8       1
       1       8       1       1       8       1       1       8       1       1
       8       1       1       8       1       1       8       1       1       8
       1       1       8       1       1       8       1       1       8       1
       1       8       1       1       8       1       1       8       1       1
       8       1       1       8       1       1       8       1       1       8
       1       1       8       1       1       8       1       1       8       1
       1       8       1       1       8       1       1       8       1       1
       8       1       1       8       1       1       8       1       1       8
       1       1       8       1       1       8       1       1       8       1
       1       8       1       1       8       1       1       8       1       1
       8       1       1       8       1       1       8       1       1       8
       1       1       8       1       1       8       1       1       8       1
       1       8       1       1       8       1       1       8       1       1
       8       1       1       8       1       1       8       1       1       8
       1       1       8       1       1       8       1       1       8       1
       1       8       1       1       8       1       1       8       1       1
       8       1       1       8       1       1       8       1       1       8
       1       1       8       1       1       8       1       1       8       1
       1       8       1       1       8       1       1       8       1       1
       8       1       1       8       1       1       8       1       1       8
       1       1       8       1       1       8       1       1       8       1
       1       8       1       1       8       1       1       8       1       1
       8       1       1       8       1       1       8       1       1       8
       1       1       8       1       1       8       1       1       8       1
       1       8       1       1       8       1       1       8       1       1
       8       1       1       8       1       1       8       1       1       8
       1       1       8       1       1       8       1       1       8       1
       1       8       1       1       8       1       1       8       1       1
       8       1       1       8       1       1       8       1       1       8
       1       1       8       1       1       8       1       1       8       1
       1       8       1       1       8       1       1       8       1       1
       8       1       1       8       1       1       8       1       1       8
       1       1       8       1       1       8       1       1       8       1
       1       8       1       1       8       1       1       8       1       1
       8       1       1       8       1       1       8       1       1       8
       1       1       8       1       1       8       1       1       8       1
       1       8       1       1       8       1       1       8       1       1
       8       1       1       8       1       1       8       1       1       8
       1       1       8       1       1       8       1       1       8       1
       1       8       1       1       8       1       1       8       1       1
       8       1       1       8       1       1       8       1       1       8
       1       1       8       1       1       8       1       1       8       1
       1       8       1       1       8       1       1       8       1       1
       8       1       1       8       1       1       8       1       1       8
       1       1       8       1       1       8       1       1       8       1
       1       8       1       1       8       1       1       8       1       1
       8       1       1       8       1       1       8       1       1       8
       1       1       8       1       1       8       1       1       8       1
       1       8       1       1       8       1       1       8       1       1
       8       1       1       8       1       1       8       1       1       8
       1       1       8       1       1       8       1       1       8       1
       1       8       1       1       8       1       1       8       1       1
       8       1       1       8       1       1       8       1       1       8
       1       1       8       1       1       8       1       1       8       1
       1       8       1       1       8       1       1       8       1       1
       8       1       1       8       1       1       8       1       1       8
       1       1       8       1       1       8       1       1       8       1
       1       8       1       1       8       1       1       8       1       1
       8       1       1       8       1       1       8       1       1       8
       1       1       8       1       1       8       1       1       8       1
       1       8       1       1       8       1       1       8       1       1
       8       1       1       8       1       1       8       1       1       8
       1       1       8       1       1       8       1       1       8       1
       1       8       1       1       8       1       1       8       1       1
       8       1       1       8       1       1       8       1       1       8
       1       1       8       1       1       8       1       1       8       1
       1       8       1       1       8       1       1       8       1       1
       8       1       1       8       1       1       8       1       1       8
       1       1       8       1       1       8       1       1       8       1
       1       8       1       1       8       1       1       8       1       1
       8       1       1       8       1       1       8       1       1       8
       1       1       8       1       1       8       1       1       8       1
       1       8       1       1       8       1       1       8       1       1
       8       1       1       8       1       1       8       1       1       8
       1       1       8       1       1       8       1       1       8       1
       1       8       1       1       8       1       1       8       1       1
       8       1       1       8       1       1       8       1       1       8
       1       1       8       1       1       8       1       1       8       1
       1       8       1       1       8       1       1       8       1       1
       8       1       1       8       1       1       8       1       1       8
       1       1       8       1       1       8       1       1       8       1
       1       8       1       1       8       1       1       8       1       1
       8       1       1       8       1       1       8       1       1       8
       1       1       8       1       1       8       1       1       8       1
       1       8       1       1       8       1       1       8       1       1
       8       1       1       8       1       1       8       1       1       8
       1       1       8       1       1       8       1       1       8       1
       1       8       1       1       8       1       1       8       1       1
       8       1       1       8       1       1       8       1       1       8
       1       1       8       1       1       8       1       1       8       1
       1       8       1       1       8       1       1       8       1       1
       8       1       1       8       1       1       8       1       1       8
       1       1       8       1       1       8       1       1       8       1
       1       8       1       1       8       1       1       8       1       1
       8       1       1       8       1       1       8       1       1       8
       1       1       8       1       1       8       1       1       8       1
       1       8       1       1       8       1       1       8       1       1
       8       1       1       8       1       1       8       1       1       8
       1       1       8       1       1       8       1       1       8       1
       1       8       1       1       8       1       1       8       1       1
       8       1       1       8       1       1       8       1       1       8
       1       1       8       1       1       8       1       1       8       1
       1       8       1       1       8       1       1       8       1       1
       8       1       1       8       1       1       8       1       1       8
       1       1       8       1       1       8       1       1       8       1
       1       8       1       1       8       1       1       8       1       1
       8       1       1       8       1       1       8       1       1       8
       1       1       8       1       1       8       1       1       8       1
       1       8       1       1       8       1       1       8       1       1
       8       1       1       8       1       1       8       1       1       8
       1       1       8       1       1       8       1       1       8       1
       1       8       1       1       8       1       1       8       1       1
       8       1       1       8       1       1       8       1       1       8
       1       1       8       1       1       8       1       1       8       1
       1       8       1       1       8       1       1       8       1       1
       8       1       1       8       1       1       8       1       1       8
       1       1       8       1       1       8       1       1       8       1
       1       8       1       1       8       1       1       8       1       1
       8       1       1       8       1       1       8       1       1       8
       1       1       8       1       1       8       1       1       8       1
       1       8       1       1       8       1       1       8       1       1
       8       1       1       8       1       1       8       1       1       8
       1       1       8       1       1       8       1       1       8       1
       1       8       1       1       8       1       1       8       1       1
       8       1       1       8       1       1       8       1       1       8
       1       1       8       1       1       8       1       1       8       1
       1       8       1       1       8       1       1       8       1       1
       8       1       1       8       1       1       8       1       1       8
       1       1       8       1       1       8       1       1       8       1
       1       8       1       1       8       1       1       8       1       1
       8       1       1       8       1       1       8       1       1       8
       1       1       8       1       1       8       1       1       8       1
       1       8       1       1       8       1       1       8       1       1
       8       1       1       8       1       1       8       1       1       8
       1       1       8       1       1       8       1       1       8       1
       1       8       1       1       8       1       1       8       1       1
       8       1       1       8       1       1       8       1       1       8
       1       1       8       1       1       8       1       1       8       1
       1       8       1       1       8       1       1       8       1       1
       8       1       1       8       1       1       8       1       1       8
       1       1       8       1       1       8       1       1       8       1
       1       8       1       1       8       1       1       8       1       1
       8       1       1       8       1       1       8       1       1       8
       1       1       8       1       1       8       1       1       8       1
       1       8       1       1       8       1       1       8       1       1
       8       1       1       8       1       1       8       1       1       8
       1       1       8       1       1       8       1       1       8       1
       1       8       1       1       8       1       1       8       1       1
       8       1       1       8       1       1       8       1       1       8
       1       1       8       1       1       8       1       1       8       1
       1       8       1       1       8       1       1       8       1       1
       8       1       1       8       1       1       8       1       1       8
       1       1       8       1       1       8       1       1       8       1
       1       8       1       1       8       1       1       8       1       1
       8       1       1       8       1       1       8       1       1       8
       1       1       8       1       1       8       1       1       8       1
       1       8       1       1       8       1       1       8       1       1
       8       1       1       8       1       1       8       1       1       8
       1       1       8       1       1       8       1       1       8       1
       1       8       1       1       8       1       1       8       1       1
       8       1       1       8       1       1       8       1       1       8
       1       1       8       1       1       8       1       1       8       1
       1       8       1       1       8       1       1       8       1       1
       8       1       1       8       1       1       8       1       1       8
       1       1       8       1       1       8       1       1       8       1
       1       8       1       1       8       1       1       8       1       1
       8       1       1       8       1       1       8       1       1       8
       1       1       8       1       1       8       1       1       8       1
       1       8       1       1       8       1       1       8       1       1
       8       1       1       8       1       1       8       1       1       8
       1       1       8       1       1       8       1       1       8       1
       1       8       1       1       8       1       1       8       1       1
       8       1       1       8       1       1       8       1       1       8
       1       1       8       1       1       8       1       1       8       1
       1       8       1       1       8       1       1       8       1       1
       8       1       1       8       1       1       8       1       1       8
       1       1       8       1       1       8       1       1       8       1
       1       8       1       1       8       1       1       8       1       1
       8       1       1       8       1       1       8       1       1       8
       1       1       8       1       1       8       1       1       8       1
       1       8       1       1       8       1       1       8       1       1
       8       1       1       8       1       1       8       1       1       8
       1       1       8       1       1       8       1       1       8       1
       1       8       1       1       8       1       1       8       1       1
       8       1       1       8       1       1       8       1       1       8
       1       1       8       1       1       8       1       1       8       1
       1       8       1       1       8       1       1       8       1       1
       8       1       1       8       1       1       8       1       1       8
       1       1       8       1       1       8       1       1       8       1
       1       8       1       1       8       1       1       8       1       1
       8       1       1       8       1       1       8       1       1       8
       1       1       8       1       1       8       1       1       8       1
       1       8       1       1       8       1       1       8       1       1
       8       1       1       8       1       1       8       1       1       8
       1       1       8       1       1       8       1       1       8       1
       1       8       1       1       8       1       1       8       1       1
       8       1       1       8       1       1       8       1       1       8
       1       1       8       1       1       8       1       1       8       1
       1       8       1       1       8       1       1       8       1       1
       8       1       1       8       1       1       8       1       1       8
       1       1       8       1       1       8       1       1       8       1
       1       8       1       1       8       1       1       8       1       1
       8       1       1       8       1       1       8       1       1       8
       1       1       8       1       1       8       1       1       8       1
       1       8       1       1       8       1       1       8       1       1
       8       1       1       8       1       1       8       1       1       8
       1       1       8       1       1       8       1       1       8       1
       1       8       1       1       8       1       1       8       1       1
       8       1       1       8       1       1       8       1       1       8
       1       1       8       1       1       8       1       1       8       1
       1       8       1       1       8       1       1       8       1       1
       8       1       1       8       1       1       8       1       1       8
       1       1       8       1       1       8       1       1       8       1
       1       8       1       1       8       1       1       8       1       1
       8       1       1       8       1       1       8       1       1       8
       1       1       8       1       1       8       1       1       8       1
       1       8       1       1       8       1       1       8       1       1
       8       1       1       8       1       1       8       1       1       8
       1       1       8       1       1       8       1       1       8       1
       1       8       1       1       8       1       1       8       1       1
       8       1       1       8       1       1       8       1       1       8
       1       1       8       1       1       8       1       1       8       1
       1       8       1       1       8       1       1       8       1       1
       8       1       1       8       1       1       8       1       1       8
       1       1       8       1       1       8       1       1       8       1
       1       8       1       1       8       1       1       8       1       1
       8       1       1       8       1       1       8       1       1       8
       1       1       8       1       1       8       1       1       8       1
       1       8       1       1       8       1       1       8       1       1
       8       1       1       8       1       1       8       1       1       8
       1       1       8       1       1       8       1       1       8       1
       1       8       1       1       8       1       1       8       1       1
       8       1       1       8       1       1       8       1       1       8
       1       1       8       1       1       8       1       1       8       1
       1       8       1       1       8       1       1       8       1       1
       8       1       1       8       1       1       8       1       1       8
       1       1       8       1       1       8       1       1       8       1
       1       8       1       1       8       1       1       8       1       1
       8       1       1       8       1       1       8       1       1       8
       1       1       8       1       1       8       1       1       8       1
       1       8       1       1       8       1       1       8       1       1
       8       1       1       8       1       1       8       1       1       8
       1       1       8       1       1       8       1       1       8       1
       1       8       1       1       8       1       1       8       1       1
       8       1       1       8       1       1       8       1       1       8
       1       1       8       1       1       8       1       1       8       1
       1       8       1       1       8       1       1       8       1       1
       8       1       1       8       1       1       8       1       1       8
       1       1       8       1       1       8       1       1       8       1
       1       8       1       1       8       1       1       8       1       1
       8       1       1       8       1       1       8       1       1       8
       1       1       8       1       1       8       1       1       8       1
       1       8       1       1       8       1       1       8       1       1
       8       1       1       8       1       1       8       1       1       8
       1       1       8       1       1       8       1       1       8       1
       1       8       1       1       8       1       1       8       1       1
       8       1       1       8       1       1       8       1       1       8
       1       1       8       1       1       8       1       1       8       1
       1       8       1       1       8       1       1       8       1       1
       8       1       1       8       1       1       8       1       1       8
       1       1       8       1       1       8       1       1       8       1
       1       8       1       1       8       1       1       8       1       1
       8       1       1       8       1       1       8       1       1       8
       1       1       8       1       1       8       1       1       8       1
       1       8       1       1       8       1       1       8       1       1
       8       1       1       8       1       1       8       1       1       8
       1       1       8       1       1       8       1       1       8       1
       1       8       1       1       8       1       1       8       1       1
       8       1       1       8       1       1       8       1       1       8
       1       1       8       1       1       8       1       1       8       1
       1       8       1       1       8       1       1       8       1       1
       8       1       1       8       1       1       8       1       1       8
       1       1       8       1       1       8       1       1       8       1
       1       8       1       1       8       1       1       8       1       1
       8       1       1       8       1       1       8       1       1       8
       1       1       8       1       1       8       1       1       8       1
       1       8       1       1       8       1       1       8       1       1
       8       1       1       8       1       1       8       1       1       8
       1       1       8       1       1       8       1       1       8       1
       1       8       1       1       8       1       1       8       1       1
       8       1       1       8       1       1       8       1       1       8
       1       1       8       1       1       8       1       1       8       1
       1       8       1       1       8       1       1       8       1       1
       8       1       1       8       1       1       8       1       1       8
       1       1       8       1       1       8       1       1       8       1
       1       8       1       1       8       1       1       8       1       1
       8       1       1       8       1       1       8       1       1       8
       1       1       8       1       1       8       1       1       8       1
       1       8       1       1       8       1       1       8       1       1
       8       1       1       8       1       1       8       1       1       8
       1       1       8       1       1       8       1       1       8       1
       1       8       1       1       8       1       1       8       1       1
       8       1       1       8       1       1       8       1       1       8
       1       1       8       1       1       8       1       1       8       1
       1       8       1       1       8       1       1       8       1       1
       8       1       1       8       1       1       8       1       1       8
       1       1       8       1       1       8       1       1       8       1
       1       8       1       1       8       1       1       8       1       1
       8       1       1       8       1       1       8       1       1       8
       1       1       8       1       1       8       1       1       8       1
       1       8       1       1       8       1       1       8       1       1
       8       1       1       8       1       1       8       1       1       8
       1       1       8       1       1       8       1       1       8       1
       1       8       1       1       8       1       1       8       1       1
       8       1       1       8       1       1       8       1       1       8
       1       1       8       1       1       8       1       1       8       1
       1       8       1       1       8       1       1       8       1       1
       8       1       1       8       1       1       8       1       1       8
       1       1       8       1       1       8       1       1       8       1
       1       8       1       1       8       1       1       8       1       1
       8       1       1       8       1       1       8       1       1       8
       1       1       8       1       1       8       1       1       8       1
       1       8       1       1       8       1       1       8       1       1
       8       1       1       8       1       1       8       1       1       8
       1       1       8       1       1       8       1       1       8       1
       1       8       1       1       8       1       1       8       1       1
       8       1       1       8       1       1       8       1       1       8
       1       1       8       1       1       8       1       1       8       1
       1       8       1       1       8       1       1       8       1       1
       8       1       1       8       1       1       8       1       1       8
       1       1       8       1       1       8       1       1       8       1
       1       8       1       1       8       1       1       8       1       1
       8       1       1       8       1       1       8       1       1       8
       1       1       8       1       1       8       1       1       8       1
       1       8       1       1       8       1       1       8       1       1
       8       1       1       8       1       1       8       1       1       8
       1       1       8       1       1       8       1       1       8       1
       1       8       1       1       8       1       1       8       1       1
       8       1       1       8       1       1       8       1       1       8
       1       1       8       1       1       8       1       1       8       1
       1       8       1       1       8       1       1       8       1       1
       8       1       1       8       1       1       8       1       1       8
       1       1       8       1       1       8       1       1       8       1
       1       8       1       1       8       1       1       8       1       1
       8       1       1       8       1       1       8       1       1       8
       1       1       8       1       1       8       1       1       8       1
       1       8       1       1       8       1       1       8       1       1
       8       1       1       8       1       1       8       1       1       8
       1       1       8       1       1       8       1       1       8       1
       1       8       1       1       8       1       1       8       1       1
       8       1       1       8       1       1       8       1       1       8
       1       1       8       1       1       8       1       1       8       1
       1       8       1       1       8       1       1       8       1       1
       8       1       1       8       1       1       8       1       1       8
       1       1       8       1       1       8       1       1       8       1
       1       8       1       1       8       1       1       8       1       1
       8       1       1       8       1       1       8       1       1       8
       1       1       8       1       1       8       1       1       8       1
       1       8       1       1       8       1       1       8       1       1
       8       1       1       8       1       1       8       1       1       8
       1       1       8       1       1       8       1       1       8       1
       1       8       1       1       8       1       1       8       1       1
       8       1       1       8       1       1       8       1       1       8
       1       1       8       1       1       8       1       1       8       1
       1       8       1       1       8       1       1       8       1       1
       8       1       1       8       1       1       8       1       1       8
       1       1       8       1       1       8       1       1       8       1
       1       8       1       1       8       1       1       8       1       1
       8       1       1       8       1       1       8       1       1       8
       1       1       8       1       1       8       1       1       8       1
       1       8       1       1       8       1       1       8       1       1
       8       1       1       8       1       1       8       1       1       8
       1       1       8       1       1       8       1       1       8       1
       1       8       1       1       8       1       1       8       1       1
       8       1       1       8       1       1       8       1       1       8
       1       1       8       1       1       8       1       1       8       1
       1       8       1       1       8       1       1       8       1       1
       8       1       1       8       1       1       8       1       1       8
       1       1       8       1       1       8       1       1       8       1
       1       8       1       1       8       1       1       8       1       1
       8       1       1       8       1       1       8       1       1       8
       1       1       8       1       1       8       1       1       8       1
       1       8       1       1       8       1       1       8       1       1
       8       1       1       8       1       1       8       1       1       8
       1       1       8       1       1       8       1       1       8       1
       1       8       1       1       8       1       1       8       1       1
       8       1       1       8       1       1       8       1       1       8
       1       1       8       1       1       8       1       1       8       1
       1       8       1       1       8       1       1       8       1       1
       8       1       1       8       1       1       8       1       1       8
       1       1       8       1       1       8       1       1       8       1
       1       8       1       1       8       1       1       8       1       1
       8       1       1       8       1       1       8       1       1       8
       1       1       8       1       1       8       1       1       8       1
       1       8       1       1       8       1       1       8       1       1
       8       1       1       8       1       1       8       1       1       8
       1       1       8       1       1       8       1       1       8       1
       1       8       1       1       8       1       1       8       1       1
       8       1       1       8       1       1       8       1       1       8
       1       1       8       1       1       8       1       1       8       1
       1       8       1       1       8       1       1       8       1       1
       8       1       1       8       1       1       8       1       1       8
       1       1       8       1       1       8       1       1       8       1
       1       8       1       1       8       1       1       8       1       1
       8       1       1       8       1       1       8       1       1       8
       1       1       8       1       1       8       1       1       8       1
       1       8       1       1       8       1       1       8       1       1
       8       1       1       8       1       1       8       1       1       8
       1       1       8       1       1       8       1       1       8       1
       1       8       1       1       8       1       1       8       1       1
       8       1       1       8       1       1       8       1       1       8
       1       1       8       1       1       8       1       1       8       1
       1       8       1       1       8       1       1       8       1       1
       8       1       1       8       1       1       8       1       1       8
       1       1       8       1       1       8       1       1       8       1
       1       8       1       1       8       1       1       8       1       1
       8       1       1       8       1       1       8       1       1       8
       1       1       8       1       1       8       1       1       8       1
       1       8       1       1       8       1       1       8       1       1
       8       1       1       8       1       1       8       1       1       8
       1       1       8       1       1       8       1       1       8       1
       1       8       1       1       8       1       1       8       1       1
       8       1       1       8       1       1       8       1       1       8
       1       1       8       1       1       8       1       1       8       1
       1       8       1       1       8       1       1       8       1       1
       8       1       1       8       1       1       8       1       1       8
       1       1       8       1       1       8       1       1       8       1
       1       8       1       1       8       1       1       8       1       1
       8       1       1       8       1       1       8       1       1       8
       1       1       8       1       1       8       1       1       8       1
       1       8       1       1       8       1       1       8       1       1
       8       1       1       8       1       1       8       1       1       8
       1       1       8       1       1       8       1       1       8       1
       1       8       1       1       8       1       1       8       1       1
       8       1       1       8       1       1       8       1       1       8
       1       1       8       1       1       8       1       1       8       1
       1       8       1       1       8       1       1       8       1       1
       8       1       1       8       1       1       8       1       1       8
       1       1       8       1       1       8       1       1       8       1
       1       8       1       1       8       1       1       8       1       1
       8       1       1       8       1       1       8       1       1       8
       1       1       8       1       1       8       1       1       8       1
       1       8       1       1       8       1       1       8       1       1
       8       1       1       8       1       1       8       1       1       8
       1       1       8       1       1       8       1       1       8       1
       1       8       1       1       8       1       1       8       1       1
       8       1       1       8       1       1       8       1       1       8
       1       1       8       1       1       8       1       1       8       1
       1       8       1       1       8       1       1       8       1       1
       8       1       1       8       1       1       8       1       1       8
       1       1       8       1       1       8       1       1       8       1
       1       8       1       1       8       1       1       8       1       1
       8       1       1       8       1       1       8       1       1       8
       1       1       8       1       1       8       1       1       8       1
       1       8       1       1       8       1       1       8       1       1
       8       1       1       8       1       1       8       1       1       8
       1       1       8       1       1       8       1       1       8       1
       1       8       1       1       8       1       1       8       1       1
       8       1       1       8       1       1       8       1       1       8
       1       1       8       1       1       8       1       1       8       1
       1       8       1       1       8       1       1       8       1       1
       8       1       1       8       1       1       8       1       1       8
       1       1       8       1       1       8       1       1       8       1
       1       8       1       1       8       1       1       8       1       1
       8       1       1       8       1       1       8       1       1       8
       1       1       8       1       1       8       1       1       8       1
       1       8       1       1       8       1       1       8       1       1
       8       1       1       8       1       1       8       1       1       8
       1       1       8       1       1       8       1       1       8       1
       1       8       1       1       8       1       1       8       1       1
       8       1       1       8       1       1       8       1       1       8
       1       1       8       1       1       8       1       1       8       1
       1       8       1       1       8       1       1       8       1       1
       8       1       1       8       1       1       8       1       1       8
       1       1       8       1       1       8       1       1       8       1
       1       8       1       1       8       1       1       8       1       1
       8       1       1       8       1       1       8       1       1       8
       1       1       8       1       1       8       1       1       8       1
       1       8       1       1       8       1       1       8       1       1
       8       1       1       8       1       1       8       1       1       8
       1       1       8       1       1       8       1       1       8       1
       1       8       1       1       8       1       1       8       1       1
       8       1       1       8       1       1       8       1       1       8
       1       1       8       1       1       8       1       1       8       1
       1       8       1       1       8       1       1       8       1       1
       8       1       1       8       1       1       8       1       1       8
       1       1       8       1       1       8       1       1       8       1
       1       8       1       1       8       1       1       8       1       1
       8       1       1       8       1       1       8       1       1       8
       1       1       8       1       1       8       1       1       8       1
       1       8       1       1       8       1       1       8       1       1
       8       1       1       8       1       1       8       1       1       8
       1       1       8       1       1       8       1       1       8       1
       1       8       1       1       8       1       1       8       1       1
       8       1       1       8       1       1       8       1       1       8
       1       1       8       1       1       8       1       1       8       1
       1       8       1       1       8       1       1       8       1       1
       8       1       1       8       1       1       8       1       1       8
       1       1       8       1       1       8       1       1       8       1
       1       8       1       1       8       1       1       8       1       1
       8       1       1       8       1       1       8       1       1       8
       1       1       8       1       1       8       1       1       8       1
       1       8       1       1       8       1       1       8       1       1
       8       1       1       8       1       1       8       1       1       8
       1       1       8       1       1       8       1       1       8       1
       1       8       1       1       8       1       1       8       1       1
       8       1       1       8       1       1       8       1       1       8
       1       1       8       1       1       8       1       1       8       1
       1       8       1       1       8       1       1       8       1       1
       8       1       1       8       1       1       8       1       1       8
       1       1       8       1       1       8       1       1       8       1
       1       8       1       1       8       1       1       8       1       1
       8       1       1       8       1       1       8       1       1       8
       1       1       8       1       1       8       1       1       8       1
       1       8       1       1       8       1       1       8       1       1
       8       1       1       8       1       1       8       1       1       8
       1       1       8       1       1       8       1       1       8       1
       1       8       1       1       8       1       1       8       1       1
       8       1       1       8       1       1       8       1       1       8
       1       1       8       1       1       8       1       1       8       1
       1       8       1       1       8       1       1       8       1       1
       8       1       1       8       1       1       8       1       1       8
       1       1       8       1       1       8       1       1       8       1
       1       8       1       1       8       1       1       8       1       1
       8       1       1       8       1       1       8       1       1       8
       1       1       8       1       1       8       1       1       8       1
       1       8       1       1       8       1       1       8       1       1
       8       1       1       8       1       1       8       1       1       8
       1       1       8       1       1       8       1       1       8       1
       1       8       1       1       8       1       1       8       1       1
       8       1       1       8       1       1       8       1       1       8
       1       1       8       1       1       8       1       1       8       1
       1       8       1       1       8       1       1       8       1       1
       8       1       1       8       1       1       8       1       1       8
       1       1       8       1       1       8       1       1       8       1
       1       8       1       1       8       1       1       8       1       1
       8       1       1       8       1       1       8       1       1       8
       1       1       8       1       1       8       1       1       8       1
       1       8       1       1       8       1       1       8       1       1
       8       1       1       8       1       1       8       1       1       8
       1       1       8       1       1       8       1       1       8       1
       1       8       1       1       8       1       1       8       1       1
       8       1       1       8       1       1       8       1       1       8
       1       1       8       1       1       8       1       1       8       1
       1       8       1       1       8       1       1       8       1       1
       8       1       1       8       1       1       8       1       1       8
       1       1       8       1       1       8       1       1       8       1
       1       8       1       1       8       1       1       8       1       1
       8       1       1       8       1       1       8       1       1       8
       1       1       8       1       1       8       1       1       8       1
       1       8       1       1       8       1       1       8       1       1
       8       1       1       8       1       1       8       1       1       8
       1       1       8       1       1       8       1       1       8       1
       1       8       1       1       8       1       1       8       1       1
       8       1       1       8       1       1       8       1       1       8
       1       1       8       1       1       8       1       1       8       1
       1       8       1       1       8       1       1       8       1       1
       8       1       1       8       1       1       8       1       1       8
       1       1       8       1       1       8       1       1       8       1
       1       8       1       1       8       1       1       8       1       1
       8       1       1       8       1       1       8       1       1       8
       1       1       8       1       1       8       1       1       8       1
       1       8       1       1       8       1       1       8       1       1
       8       1       1       8       1       1       8       1       1       8
       1       1       8       1       1       8       1       1       8       1
       1       8       1       1       8       1       1       8       1       1
       8       1       1       8       1       1       8       1       1       8
       1       1       8       1       1       8       1       1       8       1
       1       8       1       1       8       1       1       8       1       1
       8       1       1       8       1       1       8       1       1       8
       1       1       8       1       1       8       1       1       8       1
       1       8       1       1       8       1       1       8       1       1
       8       1       1       8       1       1       8       1       1       8
       1       1       8       1       1       8       1       1       8       1
       1       8       1       1       8       1       1       8       1       1
       8       1       1       8       1       1       8       1       1       8
       1       1       8       1       1       8       1       1       8       1
       1       8       1       1       8       1       1       8       1       1
       8       1       1       8       1       1       8       1       1       8
       1       1       8       1       1       8       1       1       8       1
       1       8       1       1       8       1       1       8       1       1
       8       1       1       8       1       1       8       1       1       8
       1       1       8       1       1       8       1       1       8       1
       1       8       1       1       8       1       1       8       1       1
       8       1       1       8       1       1       8       1       1       8
       1       1       8       1       1       8       1       1       8       1
       1       8       1       1       8       1       1       8       1       1
       8       1       1       8       1       1       8       1       1       8
       1       1       8       1       1       8       1       1       8       1
       1       8       1       1       8       1       1       8       1       1
       8       1       1       8       1       1       8       1       1       8
       1       1       8       1       1       8       1       1       8       1
       1       8       1       1       8       1       1       8       1       1
       8       1       1       8       1       1       8       1       1       8
       1       1       8       1       1       8       1       1       8       1
       1       8       1       1       8       1       1       8       1       1
       8       1       1       8       1       1       8       1       1       8
       1       1       8       1       1       8       1       1       8       1
       1       8       1       1       8       1       1       8       1       1
       8       1       1       8       1       1       8       1       1       8
       1       1       8       1       1       8       1       1       8       1
       1       8       1       1       8       1       1       8       1       1
       8       1       1       8       1       1       8       1       1       8
       1       1       8       1       1       8       1       1       8       1
       1       8       1       1       8       1       1       8       1       1
       8       1       1       8       1       1       8       1       1       8
       1       1       8       1       1       8       1       1       8       1
       1       8       1       1       8       1       1       8       1       1
       8       1       1       8       1       1       8       1       1       8
       1       1       8       1       1       8       1       1       8       1
       1       8       1       1       8       1       1       8       1       1
       8       1       1       8       1       1       8       1       1       8
       1       1       8       1       1       8       1       1       8       1
       1       8       1       1       8       1       1       8       1       1
       8       1       1       8       1       1       8       1       1       8
       1       1       8       1       1       8       1       1       8       1
       1       8       1       1       8       1       1       8       1       1
       8       1       1       8       1       1       8       1       1       8
       1       1       8       1       1       8       1       1       8       1
       1       8       1       1       8       1       1       8       1       1
       8       1       1       8       1       1       8       1       1       8
       1       1       8       1       1       8       1       1       8       1
       1       8       1       1       8       1       1       8       1       1
       8       1       1       8       1       1       8       1       1       8
       1       1       8       1       1       8       1       1       8       1
       1       8       1       1       8       1       1       8       1       1
       8       1       1       8       1       1       8       1       1       8
       1       1       8       1       1       8       1       1       8       1
       1       8       1       1       8       1       1       8       1       1
       8       1       1       8       1       1       8       1       1       8
       1       1       8       1       1       8       1       1       8       1
       1       8       1       1       8       1       1       8       1       1
       8       1       1       8       1       1       8       1       1       8
       1       1       8       1       1       8       1       1       8       1
       1       8       1       1       8       1       1       8       1       1
       8       1       1       8       1       1       8       1       1       8
       1       1       8       1       1       8       1       1       8       1
       1       8       1       1       8       1       1       8       1       1
       8       1       1       8       1       1       8       1       1       8
       1       1       8       1       1       8       1       1       8       1
       1       8       1       1       8       1       1       8       1       1
       8       1       1       8       1       1       8       1       1       8
       1       1       8       1       1       8       1       1       8       1
       1       8       1       1       8       1       1       8       1       1
       8       1       1       8       1       1       8       1       1       8
       1       1       8       1       1       8       1       1       8       1
       1       8       1       1       8       1       1       8       1       1
       8       1       1       8       1       1       8       1       1       8
       1       1       8       1       1       8       1       1       8       1
       1       8       1       1       8       1       1       8       1       1
       8       1       1       8       1       1       8       1       1       8
       1       1       8       1       1       8       1       1       8       1
       1       8       1       1       8       1       1       8       1       1
       8       1       1       8       1       1       8       1       1       8
       1       1       8       1       1       8       1       1       8       1
       1       8       1       1       8       1       1       8       1       1
       8       1       1       8       1       1       8       1       1       8
       1       1       8       1       1       8       1       1       8       1
       1       8       1       1       8       1       1       8       1       1
       8       1       1       8       1       1       8       1       1       8
       1       1       8       1       1       8       1       1       8       1
       1       8       1       1       8       1       1       8       1       1
       8       1       1       8       1       1       8       1       1       8
       1       1       8       1       1       8       1       1       8       1
       1       8       1       1       8       1       1       8       1       1
       8       1       1       8       1       1       8       1       1       8
       1       1       8       1       1       8       1       1       8       1
       1       8       1       1       8       1       1       8       1       1
       8       1       1       8       1       1       8       1       1       8
       1       1       8       1       1       8       1       1       8       1
       1       8       1       1       8       1       1       8       1       1
       8       1       1       8       1       1       8       1       1       8
       1       1       8       1       1       8       1       1       8       1
       1       8       1       1       8       1       1       8       1       1
       8       1       1       8       1       1       8       1       1       8
       1       1       8       1       1       8       1       1       8       1
       1       8       1       1       8       1       1       8       1       1
       8       1       1       8       1       1       8       1       1       8
       1       1       8       1       1       8       1       1       8       1
       1       8       1       1       8       1       1       8       1       1
       8       1       1       8       1       1       8       1       1       8
       1       1       8       1       1       8       1       1       8       1
       1       8       1       1       8       1       1       8       1       1
       8       1       1       8       1       1       8       1       1       8
       1       1       8       1       1       8       1       1       8       1
       1       8       1       1       8       1       1       8       1       1
       8       1       1       8       1       1       8       1       1       8
       1       1       8       1       1       8       1       1       8       1
       1       8       1       1       8       1       1       8       1       1
       8       1       1       8       1       1       8       1       1       8
       1       1       8       1       1       8       1       1       8       1
       1       8       1       1       8       1       1       8       1       1
       8       1       1       8       1       1       8       1       1       8
       1       1       8       1       1       8       1       1       8       1
       1       8       1       1       8       1       1       8       1       1
       8       1       1       8       1       1       8       1       1       8
       1       1       8       1       1       8       1       1       8       1
       1       8       1       1       8       1       1       8       1       1
       8       1       1       8       1       1       8       1       1       8
       1       1       8       1       1       8       1       1       8       1
       1       8       1       1       8       1       1       8       1       1
       8       1       1       8       1       1       8       1       1       8
       1       1       8       1       1       8       1       1       8       1
       1       8       1       1       8       1       1       8       1       1
       8       1       1       8       1       1       8       1       1       8
       1       1       8       1       1       8       1       1       8       1
       1       8       1       1       8       1       1       8       1       1
       8       1       1       8       1       1       8       1       1       8
       1       1       8       1       1       8       1       1       8       1
       1       8       1       1       8       1       1       8       1       1
       8       1       1       8       1       1       8       1       1       8
       1       1       8       1       1       8       1       1       8       1
       1       8       1       1       8       1       1       8       1       1
       8       1       1       8       1       1       8       1       1       8
       1       1       8       1       1       8       1       1       8       1
       1       8       1       1       8       1       1       8       1       1
       8       1       1       8       1       1       8       1       1       8
       1       1       8       1       1       8       1       1       8       1
       1       8       1       1       8       1       1       8       1       1
       8       1       1       8       1       1       8       1       1       8
       1       1       8       1       1       8       1       1       8       1
       1       8       1       1       8       1       1       8       1       1
       8       1       1       8       1       1       8       1       1       8
       1       1       8       1       1       8       1       1       8       1
       1       8       1       1       8       1       1       8       1       1
       8       1       1       8       1       1       8       1       1       8
       1       1       8       1       1       8       1       1       8       1
       1       8       1       1       8       1       1       8       1       1
       8       1       1       8       1       1       8       1       1       8
       1       1       8       1       1       8       1       1       8       1
       1       8       1       1       8       1       1       8       1       1
       8       1       1       8       1       1       8       1       1       8
       1       1       8       1       1       8       1       1       8       1
       1       8       1       1       8       1       1       8       1       1
       8       1       1       8       1       1       8       1       1       8
       1       1       8       1       1       8       1       1       8       1
       1       8       1       1       8       1       1       8       1       1
       8       1       1       8       1       1       8       1       1       8
       1       1       8       1       1       8       1       1       8       1
       1       8       1       1       8       1       1       8       1       1
       8       1       1       8       1       1       8       1       1       8
       1       1       8       1       1       8       1       1       8       1
       1       8       1       1       8       1       1       8       1       1
       8       1       1       8       1       1       8       1       1       8
       1       1       8       1       1       8       1       1       8       1
       1       8       1       1       8       1       1       8       1       1
       8       1       1       8       1       1       8       1       1       8
       1       1       8       1       1       8       1       1       8       1
       1       8       1       1       8       1       1       8       1       1
       8       1       1       8       1       1       8       1       1       8
       1       1       8       1       1       8       1       1       8       1
       1       8       1       1       8       1       1       8       1       1
       8       1       1       8       1       1       8       1       1       8
       1       1       8       1       1       8       1       1       8       1
       1       8       1       1       8       1       1       8       1       1
       8       1       1       8       1       1       8       1       1       8
       1       1       8       1       1       8       1       1       8       1
       1       8       1       1       8       1       1       8       1       1
       8       1       1       8       1       1       8       1       1       8
       1       1       8       1       1       8       1       1       8       1
       1       8       1       1       8       1       1       8       1       1
       8       1       1       8       1       1       8       1       1       8
       1       1       8       1       1       8       1       1       8       1
       1       8       1       1       8       1       1       8       1       1
       8       1       1       8       1       1       8       1       1       8
       1       1       8       1       1       8       1       1       8       1
       1       8       1       1       8       1       1       8       1       1
       8       1       1       8       1       1       8       1       1       8
       1       1       8       1       1       8       1       1       8       1
       1       8       1       1       8       1       1       8       1       1
       8       1       1       8       1       1       8       1       1       8
       1       1       8       1       1       8       1       1       8       1
       1       8       1       1       8       1       1       8       1       1
       8       1       1       8       1       1       8       1       1       8
       1       1       8       1       1       8       1       1       8       1
       1       8       1       1       8       1       1       8       1       1
       8       1       1       8       1       1       8       1       1       8
       1       1       8       1       1       8       1       1       8       1
       1       8       1       1       8       1       1       8       1       1
       8       1       1       8       1       1       8       1       1       8
       1       1       8       1       1       8       1       1       8       1
       1       8       1       1       8       1       1       8       1       1
       8       1       1       8       1       1       8       1       1       8
       1       1       8       1       1       8       1       1       8       1
       1       8       1       1       8       1       1       8       1       1
       8       1       1       8       1       1       8       1       1       8
       1       1       8       1       1       8       1       1       8       1
       1       8       1       1       8       1       1       8       1       1
       8       1       1       8       1       1       8       1       1       8
       1       1       8       1       1       8       1       1       8       1
       1       8       1       1       8       1       1       8       1       1
       8       1       1       8       1       1       8       1       1       8
       1       1       8       1       1       8       1       1       8       1
       1       8       1       1       8       1       1       8       1       1
       8       1       1       8       1       1       8       1       1       8
       1       1       8       1       1       8       1       1       8       1
       1       8       1       1       8       1       1       8       1       1
       8       1       1       8       1       1       8       1       1       8
       1       1       8       1       1       8       1       1       8       1
       1       8       1       1       8       1       1       8       1       1
       8       1       1       8       1       1       8       1       1       8
       1       1       8       1       1       8       1       1       8       1
       1       8       1       1       8       1       1       8       1       1
       8       1       1       8       1       1       8       1       1       8
       1       1       8       1       1       8       1       1       8       1
       1       8       1       1       8       1       1       8       1       1
       8       1       1       8       1       1       8       1       1       8
       1       1       8       1       1       8       1       1       8       1
       1       8       1       1       8       1       1       8       1       1
       8       1       1       8       1       1       8       1       1       8
       1       1       8       1       1       8       1       1       8       1
       1       8       1       1       8       1       1       8       1       1
       8       1       1       8       1       1       8       1       1       8
       1       1       8       1       1       8       1       1       8       1
       1       8       1       1       8       1       1       8       1       1
       8       1       1       8       1       1       8       1       1       8
       1       1       8       1       1       8       1       1       8       1
       1       8       1       1       8       1       1       8       1       1
       8       1       1       8       1       1       8       1       1       8
       1       1       8       1       1       8       1       1       8       1
       1       8       1       1       8       1       1       8       1       1
       8       1       1       8       1       1       8       1       1       8
       1       1       8       1       1       8       1       1       8       1
       1       8       1       1       8       1       1       8       1       1
       8       1       1       8       1       1       8       1       1       8
       1       1       8       1       1       8       1       1       8       1
       1       8       1       1       8       1       1       8       1       1
       8       1       1       8       1       1       8       1       1       8
       1       1       8       1       1       8       1       1       8       1
       1       8       1       1       8       1       1       8       1       1
       8       1       1       8       1       1       8       1       1       8
       1       1       8       1       1       8       1       1       8       1
       1       8       1       1       8       1       1       8       1       1
       8       1       1       8       1       1       8       1       1       8
       1       1       8       1       1       8       1       1       8       1
       1       8       1       1       8       1       1       8       1       1
       8       1       1       8       1       1       8       1       1       8
       1       1       8       1       1       8       1       1       8       1
       1       8       1       1       8       1       1       8       1       1
       8       1       1       8       1       1       8       1       1       8
       1       1       8       1       1       8       1       1       8       1
       1       8       1       1       8       1       1       8       1       1
       8       1       1       8       1       1       8       1       1       8
       1       1       8       1       1       8       1       1       8       1
       1       8       1       1       8       1       1       8       1       1
       8       1       1       8       1       1       8       1       1       8
       1       1       8       1       1       8       1       1       8       1
       1       8       1       1       8       1       1       8       1       1
       8       1       1       8       1       1       8       1       1       8
       1       1       8       1       1       8       1       1       8       1
       1       8       1       1       8       1       1       8       1       1
       8       1       1       8       1       1       8       1       1       8
       1       1       8       1       1       8       1       1       8       1
       1       8       1       1       8       1       1       8       1       1
       8       1       1       8       1       1       8       1       1       8
       1       1       8       1       1       8       1       1       8       1
       1       8       1       1       8       1       1       8       1       1
       8       1       1       8       1       1       8       1       1       8
       1       1       8       1       1       8       1       1       8       1
       1       8       1       1       8       1       1       8       1       1
       8       1       1       8       1       1       8       1       1       8
       1       1       8       1       1       8       1       1       8       1
       1       8       1       1       8       1       1       8       1       1
       8       1       1       8       1       1       8       1       1       8
       1       1       8       1       1       8       1       1       8       1
       1       8       1       1       8       1       1       8       1       1
       8       1       1       8       1       1       8       1       1       8
       1       1       8       1       1       8       1       1       8       1
       1       8       1       1       8       1       1       8       1       1
       8       1       1       8       1       1       8       1       1       8
       1       1       8       1       1       8       1       1       8       1
       1       8       1       1       8       1       1       8       1       1
       8       1       1       8       1       1       8       1       1       8
       1       1       8       1       1       8       1       1       8       1
       1       8       1       1       8       1       1       8       1       1
       8       1       1       8       1       1       8       1       1       8
       1       1       8       1       1       8       1       1       8       1
       1       8       1       1       8       1       1       8       1       1
       8       1       1       8       1       1       8       1       1       8
       1       1       8       1       1       8       1       1       8       1
       1       8       1       1       8       1       1       8       1       1
       8       1       1       8       1       1       8       1       1       8
       1       1       8       1       1       8       1       1       8       1
       1       8       1       1       8       1       1       8       1       1
       8       1       1       8       1       1       8       1       1       8
       1       1       8       1       1       8       1       1       8       1
       1       8       1       1       8       1       1       8       1       1
       8       1       1       8       1       1       8       1       1       8
       1       1       8       1       1       8       1       1       8       1
       1       8       1       1       8       1       1       8       1       1
       8       1       1       8       1       1       8       1       1       8
       1       1       8       1       1       8       1       1       8       1
       1       8       1       1       8       1       1       8       1       1
       8       1       1       8       1       1       8       1       1       8
       1       1       8       1       1       8       1       1       8       1
       1       8       1       1       8       1       1       8       1       1
       8       1       1       8       1       1       8       1       1       8
       1       1       8       1       1       8       1       1       8       1
       1       8       1       1       8       1       1       8       1       1
       8       1       1       8       1       1       8       1       1       8
       1       1       8       1       1       8       1       1       8       1
       1       8       1       1       8       1       1       8       1       1
       8       1       1       8       1       1       8       1       1       8
       1       1       8       1       1       8       1       1       8       1
       1       8       1       1       8       1       1       8       1       1
       8       1       1       8       1       1       8       1       1       8
       1       1       8       1       1       8       1       1       8       1
       1       8       1       1       8       1       1       8       1       1
       8       1       1       8       1       1       8       1       1       8
       1       1       8       1       1       8       1       1       8       1
       1       8       1       1       8       1       1       8       1       1
       8       1       1       8       1       1       8       1       1       8
       1       1       8       1       1       8       1       1       8       1
       1       8       1       1       8       1       1       8       1       1
       8       1       1       8       1       1       8       1       1       8
       1       1       8       1       1       8       1       1       8       1
       1       8       1       1       8       1       1       8       1       1
       8       1       1       8       1       1       8       1       1       8
       1       1       8       1       1       8       1       1       8       1
       1       8       1       1       8       1       1       8       1       1
       8       1       1       8       1       1       8       1       1       8
       1       1       8       1       1       8       1       1       8       1
       1       8       1       1       8       1       1       8       1       1
       8       1       1       8       1       1       8       1       1       8
       1       1       8       1       1       8       1       1       8       1
       1       8       1       1       8       1       1       8       1       1
       8       1       1       8       1       1       8       1       1       8
       1       1       8       1       1       8       1       1       8       1
       1       8       1       1       8       1       1       8       1       1
       8       1       1       8       1       1       8       1       1       8
       1       1       8       1       1       8       1       1       8       1
       1       8       1       1       8       1       1       8       1       1
       8       1       1       8       1       1       8       1       1       8
       1       1       8       1       1       8       1       1       8       1
       1       8       1       1       8       1       1       8       1       1
       8       1       1       8       1       1       8       1       1       8
       1       1       8       1       1       8       1       1       8       1
       1       8       1       1       8       1       1       8       1       1
       8       1       1       8       1       1       8       1       1       8
       1       1       8       1       1       8       1       1       8       1
       1       8       1       1       8       1       1       8       1       1
       8       1       1       8       1       1       8       1       1       8
       1       1       8       1       1       8       1       1       8       1
       1       8       1       1       8       1       1       8       1       1
       8       1       1       8       1       1       8       1       1       8
       1       1       8       1       1       8       1       1       8       1
       1       8       1       1       8       1       1       8       1       1
       8       1       1       8       1       1       8       1       1       8
       1       1       8       1       1       8       1       1       8       1
       1       8       1       1       8       1       1       8       1       1
       8       1       1       8       1       1       8       1       1       8
       1       1       8       1       1       8       1       1       8       1
       1       8       1       1       8       1       1       8       1       1
       8       1       1       8       1       1       8       1       1       8
       1       1       8       1       1       8       1       1       8       1
       1       8       1       1       8       1       1       8       1       1
       8       1       1       8       1       1       8       1       1       8
       1       1       8       1       1       8       1       1       8       1
       1       8       1       1       8       1       1       8       1       1
       8       1       1       8       1       1       8       1       1       8
       1       1       8       1       1       8       1       1       8       1
       1       8       1       1       8       1       1       8       1       1
       8       1       1       8       1       1       8       1       1       8
       1       1       8       1       1       8       1       1       8       1
       1       8       1       1       8       1       1       8       1       1
       8       1       1       8       1       1       8       1       1       8
       1       1       8       1       1       8       1       1       8       1
       1       8       1       1       8       1       1       8       1       1
       8       1       1       8       1       1       8       1       1       8
       1       1       8       1       1       8       1       1       8       1
       1       8       1       1       8       1       1       8       1       1
       8       1       1       8       1       1       8       1       1       8
       1       1       8       1       1       8       1       1       8       1
       1       8       1       1       8       1       1       8       1       1
       8       1       1       8       1       1       8       1       1       8
       1       1       8       1       1       8       1       1       8       1
       1       8       1       1       8       1       1       8       1       1
       8       1       1       8       1       1       8       1       1       8
       1       1       8       1       1       8       1       1       8       1
       1       8       1       1       8       1       1       8       1       1
       8       1       1       8       1       1       8       1       1       8
       1       1       8       1       1       8       1       1       8       1
       1       8       1       1       8       1       1       8       1       1
       8       1       1       8       1       1       8       1       1       8
       1       1       8       1       1       8       1       1       8       1
       1       8       1       1       8       1       1       8       1       1
       8       1       1       8       1       1       8       1       1       8
       1       1       8       1       1       8       1       1       8       1
       1       8       1       1       8       1       1       8       1       1
       8       1       1       8       1       1       8       1       1       8
       1       1       8       1       1       8       1       1       8       1
       1       8       1       1       8       1       1       8       1       1
       8       1       1       8       1       1       8       1       1       8
       1       1       8       1       1       8       1       1       8       1
       1       8       1       1       8       1       1       8       1       1
       8       1       1       8       1       1       8       1       1       8
       1       1       8       1       1       8       1       1       8       1
       1       8       1       1       8       1       1       8       1       1
       8       1       1       8       1       1       8       1       1       8
       1       1       8       1       1       8       1       1       8       1
       1       8       1       1       8       1       1       8       1       1
       8       1       1       8       1       1       8       1       1       8
       1       1       8       1       1       8       1       1       8       1
       1       8       1       1       8       1       1       8       1       1
       8       1       1       8       1       1       8       1       1       8
       1       1       8       1       1       8       1       1       8       1
       1       8       1       1       8       1       1       8       1       1
       8       1       1       8       1       1       8       1       1       8
       1       1       8       1       1       8       1       1       8       1
       1       8       1       1       8       1       1       8       1       1
       8       1       1       8       1       1       8       1       1       8
       1       1       8       1       1       8       1       1       8       1
       1       8       1       1       8       1       1       8       1       1
       8       1       1       8       1       1       8       1       1       8
       1       1       8       1       1       8       1       1       8       1
       1       8       1       1       8       1       1       8       1       1
       8       1       1       8       1       1       8       1       1       8
       1       1       8       1       1       8       1       1       8       1
       1       8       1       1       8       1       1       8       1       1
       8       1       1       8       1       1       8       1       1       8
       1       1       8       1       1       8       1       1       8       1
       1       8       1       1       8       1       1       8       1       1
       8       1       1       8       1       1       8       1       1       8
       1       1       8       1       1       8       1       1       8       1
       1       8       1       1       8       1       1       8       1       1
       8       1       1       8       1       1       8       1       1       8
       1       1       8       1       1       8       1       1       8       1
       1       8       1       1       8       1       1       8       1       1
       8       1       1       8       1       1       8       1       1       8
       1       1       8       1       1       8       1       1       8       1
       1       8       1       1       8       1       1       8       1       1
       8       1       1       8       1       1       8       1       1       8
       1       1       8       1       1       8       1       1       8       1
       1       8       1       1       8       1       1       8       1       1
       8       1       1       8       1       1       8       1       1       8
       1       1       8       1       1       8       1       1       8       1
       1       8       1       1       8       1       1       8       1       1
       8       1       1       8       1       1       8       1       1       8
       1       1       8       1       1       8       1       1       8       1
       1       8       1       1       8       1       1       8       1       1
       8       1       1       8       1       1       8       1       1       8
       1       1       8       1       1       8       1       1       8       1
       1       8       1       1       8       1       1       8       1       1
       8       1       1       8       1       1       8       1       1       8
       1       1       8       1       1       8       1       1       8       1
       1       8       1       1       8       1       1       8       1       1
       8       1       1       8       1       1       8       1       1       8
       1       1       8       1       1       8       1       1       8       1
       1       8       1       1       8       1       1       8       1       1
       8       1       1       8       1       1       8       1       1       8
       1       1       8       1       1       8       1       1       8       1
       1       8       1       1       8       1       1       8       1       1
       8       1       1       8       1       1       8       1       1       8
       1       1       8       1       1       8       1       1       8       1
       1       8       1       1       8       1       1       8       1       1
       8       1       1       8       1       1       8       1       1       8
       1       1       8       1       1       8       1       1       8       1
       1       8       1       1       8       1       1       8       1       1
       8       1       1       8       1       1       8       1       1       8
       1       1       8       1       1       8       1       1       8       1
       1       8       1       1       8       1       1       8       1       1
       8       1       1       8       1       1       8       1       1       8
       1       1       8       1       1       8       1       1       8       1
       1       8       1       1       8       1       1       8       1       1
       8       1       1       8       1       1       8       1       1       8
       1       1       8       1       1       8       1       1       8       1
       1       8       1       1       8       1       1       8       1       1
       8       1       1       8       1       1       8       1       1       8
       1       1       8       1       1       8       1       1       8       1
       1       8       1       1       8       1       1       8       1       1
       8       1       1       8       1       1       8       1       1       8
       1       1       8       1       1       8       1       1       8       1
       1       8       1       1       8       1       1       8       1       1
       8       1       1       8       1       1       8       1       1       8
       1       1       8       1       1       8       1       1       8       1
       1       8       1       1       8       1       1       8       1       1
       8       1       1       8       1       1       8       1       1       8
       1       1       8       1       1       8       1       1       8       1
       1       8       1       1       8       1       1       8       1       1
       8       1       1       8       1       1       8       1       1       8
       1       1       8       1       1       8       1       1       8       1
       1       8       1       1       8       1       1       8       1       1
       8       1       1       8       1       1       8       1       1       8
       1       1       8       1       1       8       1       1       8       1
       1       8       1       1       8       1       1       8       1       1
       8       1       1       8       1       1       8       1       1       8
       1       1       8       1       1       8       1       1       8       1
       1       8       1       1       8       1       1       8       1       1
       8       1       1       8       1       1       8       1       1       8
       1       1       8       1       1       8       1       1       8       1
       1       8       1       1       8       1       1       8       1       1
       8       1       1       8       1       1       8       1       1       8
       1       1       8       1       1       8       1       1       8       1
       1       8       1       1       8       1       1       8       1       1
       8       1       1       8       1       1       8       1       1       8
       1       1       8       1       1       8       1       1       8       1
       1       8       1       1       8       1       1       8       1       1
       8       1       1       8       1       1       8       1       1       8
       1       1       8       1       1       8       1       1       8       1
       1       8       1       1       8       1       1       8       1       1
       8       1       1       8       1       1       8       1       1       8
       1       1       8       1       1       8       1       1       8       1
       1       8       1       1       8       1       1       8       1       1
       8       1       1       8       1       1       8       1       1       8
       1       1       8       1       1       8       1       1       8       1
       1       8       1       1       8       1       1       8       1       1
       8       1       1       8       1       1       8       1       1       8
       1       1       8       1       1       8       1       1       8       1
       1       8       1       1       8       1       1       8       1       1
       8       1       1       8       1       1       8       1       1       8
       1       1       8       1       1       8       1       1       8       1
       1       8       1       1       8       1       1       8       1       1
       8       1       1       8       1       1       8       1       1       8
       1       1       8       1       1       8       1       1       8       1
       1       8       1       1       8       1       1       8       1       1
       8       1       1       8       1       1       8       1       1       8
       1       1       8       1       1       8       1       1       8       1
       1       8       1       1       8       1       1       8       1       1
       8       1       1       8       1       1       8       1       1       8
       1       1       8       1       1       8       1       1       8       1
       1       8       1       1       8       1       1       8       1       1
       8       1       1       8       1       1       8       1       1       8
       1       1       8       1       1       8       1       1       8       1
       1       8       1       1       8       1       1       8       1       1
       8       1       1       8       1       1       8       1       1       8
       1       1       8       1       1       8       1       1       8       1
       1       8       1       1       8       1       1       8       1       1
       8       1       1       8       1       1       8       1       1       8
       1       1       8       1       1       8       1       1       8       1
       1       8       1       1       8       1       1       8       1       1
       8       1       1       8       1       1       8       1       1       8
       1       1       8       1       1       8       1       1       8       1
       1       8       1       1       8       1       1       8       1       1
       8       1       1       8       1       1       8       1       1       8
       1       1       8       1       1       8       1       1       8       1
       1       8       1       1       8       1       1       8       1       1
       8       1       1       8       1       1       8       1       1       8
       1       1       8       1       1       8       1       1       8       1
       1       8       1       1       8       1       1       8       1       1
       8       1       1       8       1       1       8       1       1       8
       1       1       8       1       1       8       1       1       8       1
       1       8       1       1       8       1       1       8       1       1
       8       1       1       8       1       1       8       1       1       8
       1       1       8       1       1       8       1       1       8       1
       1       8       1       1       8       1       1       8       1       1
       8       1       1       8       1       1       8       1       1       8
       1       1       8       1       1       8       1       1       8       1
       1       8       1       1       8       1       1       8       1       1
       8       1       1       8       1       1       8       1       1       8
       1       1       8       1       1       8       1       1       8       1
       1       8       1       1       8       1       1       8       1       1
       8       1       1       8       1       1       8       1       1       8
       1       1       8       1       1       8       1       1       8       1
       1       8       1       1       8       1       1       8       1       1
       8       1       1       8       1       1       8       1       1       8
       1       1       8       1       1       8       1       1       8       1
       1       8       1       1       8       1       1       8       1       1
       8       1       1       8       1       1       8       1       1       8
       1       1       8       1       1       8       1       1       8       1
       1       8       1       1       8       1       1       8       1       1
       8       1       1       8       1       1       8       1       1       8
       1       1       8       1       1       8       1       1       8       1
       1       8       1       1       8       1       1       8       1       1
       8       1       1       8       1       1       8       1       1       8
       1       1       8       1       1       8       1       1       8       1
       1       8       1       1       8       1       1       8       1       1
       8       1       1       8       1       1       8       1       1       8
       1       1       8       1       1       8       1       1       8       1
       1       8       1       1       8       1       1       8       1       1
       8       1       1       8       1       1       8       1       1       8
       1       1       8       1       1       8       1       1       8       1
       1       8       1       1       8       1       1       8       1       1
       8       1       1       8       1       1       8       1       1       8
       1       1       8       1       1       8       1       1       8       1
       1       8       1       1       8       1       1       8       1       1
       8       1       1       8       1       1       8       1       1       8
       1       1       8       1       1       8       1       1       8       1
       1       8       1       1       8       1       1       8       1       1
       8       1       1       8       1       1       8       1       1       8
       1       1       8       1       1       8       1       1       8       1
       1       8       1       1       8       1       1       8       1       1
       8       1       1       8       1       1       8       1       1       8
       1       1       8       1       1       8       1       1       8       1
       1       8       1       1       8       1       1       8       1       1
       8       1       1       8       1       1       8       1       1       8
       1       1       8       1       1       8       1       1       8       1
       1       8       1       1       8       1       1       8       1       1
       8       1       1       8       1       1       8       1       1       8
       1       1       8       1       1       8       1       1       8       1
       1       8       1       1       8       1       1       8       1       1
       8       1       1       8       1       1       8       1       1       8
       1       1       8       1       1       8       1       1       8       1
       1       8       1       1       8       1       1       8       1       1
       8       1       1       8       1       1       8       1       1       8
       1       1       8       1       1       8       1       1       8       1
       1       8       1       1       8       1       1       8       1       1
       8       1       1       8       1       1       8       1       1       8
       1       1       8       1       1       8       1       1       8       1
       1       8       1       1       8       1       1       8       1       1
       8       1       1       8       1       1       8       1       1       8
       1       1       8       1       1       8       1       1       8       1
       1       8       1       1       8       1       1       8       1       1
       8       1       1       8       1       1       8       1       1       8
       1       1       8       1       1       8       1       1       8       1
       1       8       1       1       8       1       1       8       1       1
       8       1       1       8       1       1       8       1       1       8
       1       1       8       1       1       8       1       1       8       1
       1       8       1       1       8       1       1       8       1       1
       8       1       1       8       1       1       8       1       1       8
       1       1       8       1       1       8       1       1       8       1
       1       8       1       1       8       1       1       8       1       1
       8       1       1       8       1       1       8       1       1       8
       1       1       8       1       1       8       1       1       8       1
       1       8       1       1       8       1       1       8       1       1
       8       1       1       8       1       1       8       1       1       8
       1       1       8       1       1       8       1       1       8       1
       1       8       1       1       8       1       1       8       1       1
       8       1       1       8       1       1       8       1       1       8
       1       1       8       1       1       8       1       1       8       1
       1       8       1       1       8       1       1       8       1       1
       8       1       1       8       1       1       8       1       1       8
       1       1       8       1       1       8       1       1       8       1
       1       8       1       1       8       1       1       8       1       1
       8       1       1       8       1       1       8       1       1       8
       1       1       8       1       1       8       1       1       8       1
       1       8       1       1       8       1       1       8       1       1
       8       1       1       8       1       1       8       1       1       8
       1       1       8       1       1       8       1       1       8       1
       1       8       1       1       8       1       1       8       1       1
       8       1       1       8       1       1       8       1       1       8
       1       1       8       1       1       8       1       1       8       1
       1       8       1       1       8       1       1       8       1       1
       8       1       1       8       1       1       8       1       1       8
       1       1       8       1       1       8       1       1       8       1
       1       8       1       1       8       1       1       8       1       1
       8       1       1       8       1       1       8       1       1       8
       1       1       8       1       1       8       1       1       8       1
       1       8       1       1       8       1       1       8       1       1
       8       1       1       8       1       1       8       1       1       8
       1       1       8       1       1       8       1       1       8       1
       1       8       1       1       8       1       1       8       1       1
       8       1       1       8       1       1       8       1       1       8
       1       1       8       1       1       8       1       1       8       1
       1       8       1       1       8       1       1       8       1       1
       8       1       1       8       1       1       8       1       1       8
       1       1       8       1       1       8       1       1       8       1
       1       8       1       1       8       1       1       8       1       1
       8       1       1       8       1       1       8       1       1       8
       1       1       8       1       1       8       1       1       8       1
       1       8       1       1       8       1       1       8       1       1
       8       1       1       8       1       1       8       1       1       8
       1       1       8       1       1       8       1       1       8       1
       1       8       1       1       8       1       1       8       1       1
       8       1       1       8       1       1       8       1       1       8
       1       1       8       1       1       8       1       1       8       1
       1       8       1       1       8       1       1       8       1       1
       8       1       1       8       1       1       8       1       1       8
       1       1       8       1       1       8       1       1       8       1
       1       8       1       1       8       1       1       8       1       1
       8       1       1       8       1       1       8       1       1       8
       1       1       8       1       1       8       1       1       8       1
       1       8       1       1       8       1       1       8       1       1
       8       1       1       8       1       1       8       1       1       8
       1       1       8       1       1       8       1       1       8       1
       1       8       1       1       8       1       1       8       1       1
       8       1       1       8       1       1       8       1       1       8
       1       1       8       1       1       8       1       1       8       1
       1       8       1       1       8       1       1       8       1       1
       8       1       1       8       1       1       8       1       1       8
       1       1       8       1       1       8       1       1       8       1
       1       8       1       1       8       1       1       8       1       1
       8       1       1       8       1       1       8       1       1       8
       1       1       8       1       1       8       1       1       8       1
       1       8       1       1       8       1       1       8       1       1
       8       1       1       8       1       1       8       1       1       8
       1       1       8       1       1       8       1       1       8       1
       1       8       1       1       8       1       1       8       1       1
       8       1       1       8       1       1       8       1       1       8
       1       1       8       1       1       8       1       1       8       1
       1       8       1       1       8       1       1       8       1       1
       8       1       1       8       1       1       8       1       1       8
       1       1       8       1       1       8       1       1       8       1
       1       8       1       1       8       1       1       8       1       1
       8       1       1       8       1       1       8       1       1       8
       1       1       8       1       1       8       1       1       8       1
       1       8       1       1       8       1       1       8       1       1
       8       1       1       8       1       1       8       1       1       8
       1       1       8       1       1       8       1       1       8       1
       1       8       1       1       8       1       1       8       1       1
       8       1       1       8       1       1       8       1       1       8
       1       1       8       1       1       8       1       1       8       1
       1       8       1       1       8       1       1       8       1       1
       8       1       1       8       1       1       8       1       1       8
       1       1       8       1       1       8       1       1       8       1
       1       8       1       1       8       1       1       8       1       1
       8       1       1       8       1       1       8       1       1       8
       1       1       8       1       1       8       1       1       8       1
       1       8       1       1       8       1       1       8       1       1
       8       1       1       8       1       1       8       1       1       8
       1       1       8       1       1       8       1       1       8       1
       1       8       1       1       8       1       1       8       1       1
       8       1       1       8       1       1       8       1       1       8
       1       1       8       1       1       8       1       1       8       1
       1       8       1       1       8       1       1       8       1       1
       8       1       1       8       1       1       8       1       1       8
       1       1       8       1       1       8       1       1       8       1
       1       8       1       1       8       1       1       8       1       1
       8       1       1       8       1       1       8       1       1       8
       1       1       8       1       1       8       1       1       8       1
       1       8       1       1       8       1       1       8       1       1
       8       1       1       8       1       1       8       1       1       8
       1       1       8       1       1       8       1       1       8       1
       1       8       1       1       8       1       1       8       1       1
       8       1       1       8       1       1       8       1       1       8
       1       1       8       1       1       8       1       1       8       1
       1       8       1       1       8       1       1       8       1       1
       8       1       1       8       1       1       8       1       1       8
       1       1       8       1       1       8       1       1       8       1
       1       8       1       1       8       1       1       8       1       1
       8       1       1       8       1       1       8       1       1       8
       1       1       8       1       1       8       1       1       8       1
       1       8       1       1       8       1       1       8       1       1
       8       1       1       8       1       1       8       1       1       8
       1       1       8       1       1       8       1       1       8       1
       1       8       1       1       8       1       1       8       1       1
       8       1       1       8       1       1       8       1       1       8
       1       1       8       1       1       8       1       1       8       1
       1       8       1       1       8       1       1       8       1       1
       8       1       1       8       1       1       8       1       1       8
       1       1       8       1       1       8       1       1       8       1
       1       8       1       1       8       1       1       8       1       1
       8       1       1       8       1       1       8       1       1       8
       1       1       8       1       1       8       1       1       8       1
       1       8       1       1       8       1       1       8       1       1
       8       1       1       8       1       1       8       1       1       8
       1       1       8       1       1       8       1       1       8       1
       1       8       1       1       8       1       1       8       1       1
       8       1       1       8       1       1       8       1       1       8
       1       1       8       1       1       8       1       1       8       1
       1       8       1       1       8       1       1       8       1       1
       8       1       1       8       1       1       8       1       1       8
       1       1       8       1       1       8       1       1       8       1
       1       8       1       1       8       1       1       8       1       1
       8       1       1       8       1       1       8       1       1       8
       1       1       8       1       1       8       1       1       8       1
       1       8       1       1       8       1       1       8       1       1
       8       1       1       8       1       1       8       1       1       8
       1       1       8       1       1       8       1       1       8       1
       1       8       1       1       8       1       1       8       1       1
       8       1       1       8       1       1       8       1       1       8
       1       1       8       1       1       8       1       1       8       1
       1       8       1       1       8       1       1       8       1       1
       8       1       1       8       1       1       8       1       1       8
       1       1       8       1       1       8       1       1       8       1
       1       8       1       1       8       1       1       8       1       1
       8       1       1       8       1       1       8       1       1       8
       1       1       8       1       1       8       1       1       8       1
       1       8       1       1       8       1       1       8       1       1
       8       1       1       8       1       1       8       1       1       8
       1       1       8       1       1       8       1       1       8       1
       1       8       1       1       8       1       1       8       1       1
       8       1       1       8       1       1       8       1       1       8
       1       1       8       1       1       8       1       1       8       1
       1       8       1       1       8       1       1       8       1       1
       8       1       1       8       1       1       8       1       1       8
       1       1       8       1       1       8       1       1       8       1
       1       8       1       1       8       1       1       8       1       1
       8       1       1       8       1       1       8       1       1       8
       1       1       8       1       1       8       1       1       8       1
       1       8       1       1       8       1       1       8       1       1
       8       1       1       8       1       1       8       1       1       8
       1       1       8       1       1       8       1       1       8       1
       1       8       1       1       8       1       1       8       1       1
       8       1       1       8       1       1       8       1       1       8
       1       1       8       1       1       8       1       1       8       1
       1       8       1       1       8       1       1       8       1       1
       8       1       1       8       1       1       8       1       1       8
       1       1       8       1       1       8       1       1       8       1
       1       8       1       1       8       1       1       8       1       1
       8       1       1       8       1       1       8       1       1       8
       1       1       8       1       1       8       1       1       8       1
       1       8       1       1       8       1       1       8       1       1
       8       1       1       8       1       1       8       1       1       8
       1       1       8       1       1       8       1       1       8       1
       1       8       1       1       8       1       1       8       1       1
       8       1       1       8       1       1       8       1       1       8
       1       1       8       1       1       8       1       1       8       1
       1       8       1       1       8       1       1       8       1       1
       8       1       1       8       1       1       8       1       1       8
       1       1       8       1       1       8       1       1       8       1
       1       8       1       1       8       1       1       8       1       1
       8       1       1       8       1       1       8       1       1       8
       1       1       8       1       1       8       1       1       8       1
       1       8       1       1       8       1       1       8       1       1
       8       1       1       8       1       1       8       1       1       8
       1       1       8       1       1       8       1       1       8       1
       1       8       1       1       8       1       1       8       1       1
       8       1       1       8       1       1       8       1       1       8
       1       1       8       1       1       8       1       1       8       1
       1       8       1       1       8       1       1       8       1       1
       8       1       1       8       1       1       8       1       1       8
       1       1       8       1       1       8       1       1       8       1
       1       8       1       1       8       1       1       8       1       1
       8       1       1       8       1       1       8       1       1       8
       1       1       8       1       1       8       1       1       8       1
       1       8       1       1       8       1       1       8       1       1
       8       1       1       8       1       1       8       1       1       8
       1       1       8       1       1       8       1       1       8       1
       1       8       1       1       8       1       1       8       1       1
       8       1       1       8       1       1       8       1       1       8
       1       1       8       1       1       8       1       1       8       1
       1       8       1       1       8       1       1       8       1       1
       8       1       1       8       1       1       8       1       1       8
       1       1       8       1       1       8       1       1       8       1
       1       8       1       1       8       1       1       8       1       1
       8       1       1       8       1       1       8       1       1       8
       1       1       8       1       1       8       1       1       8       1
       1       8       1       1       8       1       1       8       1       1
       8       1       1       8       1       1       8       1       1       8
       1       1       8       1       1       8       1       1       8       1
       1       8       1       1       8       1       1       8       1       1
       8       1       1       8       1       1       8       1       1       8
       1       1       8       1       1       8       1       1       8       1
       1       8       1       1       8       1       1       8       1       1
       8       1       1       8       1       1       8       1       1       8
       1       1       8       1       1       8       1       1       8       1
       1       8       1       1       8       1       1       8       1       1
       8       1       1       8       1       1       8       1       1       8
       1       1       8       1       1       8       1       1       8       1
       1       8       1       1       8       1       1       8       1       1
       8       1       1       8       1       1       8       1       1       8
       1       1       8       1       1       8       1       1       8       1
       1       8       1       1       8       1       1       8       1       1
       8       1       1       8       1       1       8       1       1       8
       1       1       8       1       1       8       1       1       8       1
       1       8       1       1       8       1       1       8       1       1
       8       1       1       8       1       1       8       1       1       8
       1       1       8       1       1       8       1       1       8       1
       1       8       1       1       8       1       1       8       1       1
       8       1       1       8       1       1       8       1       1       8
       1       1       8       1       1       8       1       1       8       1
       1       8       1       1       8       1       1       8       1       1
       8       1       1       8       1       1       8       1       1       8
       1       1       8       1       1       8       1       1       8       1
       1       8       1       1       8       1       1       8       1       1
       8       1       1       8       1       1       8       1       1       8
       1       1       8       1       1       8       1       1       8       1
       1       8       1       1       8       1       1       8       1       1
       8       1       1       8       1       1       8       1       1       8
       1       1       8       1       1       8       1       1       8       1
       1       8       1       1       8       1       1       8       1       1
       8       1       1       8       1       1       8       1       1       8
       1       1       8       1       1       8       1       1       8       1
       1       8       1       1       8       1       1       8       1       1
       8       1       1       8       1       1       8       1       1       8
       1       1       8       1       1       8       1       1       8       1
       1       8       1       1       8       1       1       8       1       1
       8       1       1       8       1       1       8       1       1       8
       1       1       8       1       1       8       1       1       8       1
       1       8       1       1       8       1       1       8       1       1
       8       1       1       8       1       1       8       1       1       8
       1       1       8       1       1       8       1       1       8       1
       1       8       1       1       8       1       1       8       1       1
       8       1       1       8       1       1       8       1       1       8
       1       1       8       1       1       8       1       1       8       1
       1       8       1       1       8       1       1       8       1       1
       8       1       1       8       1       1       8       1       1       8
       1       1       8       1       1       8       1       1       8       1
       1       8       1       1       8       1       1       8       1       1
       8       1       1       8       1       1       8       1       1       8
       1       1       8       1       1       8       1       1       8       1
       1       8       1       1       8       1       1       8       1       1
       8       1       1       8       1       1       8       1       1       8
       1       1       8       1       1       8       1       1       8       1
       1       8       1       1       8       1       1       8       1       1
       8       1       1       8       1       1       8       1       1       8
       1       1       8       1       1       8       1       1       8       1
       1       8       1       1       8       1       1       8       1       1
       8       1       1       8       1       1       8       1       1       8
       1       1       8       1       1       8       1       1       8       1
       1       8       1       1       8       1       1       8       1       1
       8       1       1       8       1       1       8       1       1       8
       1       1       8       1       1       8       1       1       8       1
       1       8       1       1       8       1       1       8       1       1
       8       1       1       8       1       1       8       1       1       8
       1       1       8       1       1       8       1       1       8       1
       1       8       1       1       8       1       1       8       1       1
       8       1       1       8       1       1       8       1       1       8
       1       1       8       1       1       8       1       1       8       1
       1       8       1       1       8       1       1       8       1       1
       8       1       1       8       1       1       8       1       1       8
       1       1       8       1       1       8       1       1       8       1
       1       8       1       1       8       1       1       8       1       1
       8       1       1       8       1       1       8       1       1       8
       1       1       8       1       1       8       1       1       8       1
       1       8       1       1       8       1       1       8       1       1
       8       1       1       8       1       1       8       1       1       8
       1       1       8       1       1       8       1       1       8       1
       1       8       1       1       8       1       1       8       1       1
       8       1       1       8       1       1       8       1       1       8
       1       1       8       1       1       8       1       1       8       1
       1       8       1       1       8       1       1       8       1       1
       8       1       1       8       1       1       8       1       1       8
       1       1       8       1       1       8       1       1       8       1
       1       8       1       1       8       1       1       8       1       1
       8       1       1       8       1       1       8       1       1       8
       1       1       8       1       1       8       1       1       8       1
       1       8       1       1       8       1       1       8       1       1
       8       1       1       8       1       1       8       1       1       8
       1       1       8       1       1       8       1       1       8       1
       1       8       1       1       8       1       1       8       1       1
       8       1       1       8       1       1       8       1       1       8
       1       1       8       1       1       8       1       1       8       1
       1       8       1       1       8       1       1       8       1       1
       8       1       1       8       1       1       8       1       1       8
       1       1       8       1       1       8       1       1       8       1
       1       8       1       1       8       1       1       8       1       1
       8       1       1       8       1       1       8       1       1       8
       1       1       8       1       1       8       1       1       8       1
       1       8       1       1       8       1       1       8       1       1
       8       1       1       8       1       1       8       1       1       8
       1       1       8       1       1       8       1       1       8       1
       1       8       1       1       8       1       1       8       1       1
       8       1       1       8       1       1       8       1       1       8
       1       1       8       1       1       8       1       1       8       1
       1       8       1       1       8       1       1       8       1       1
       8       1       1       8       1       1       8       1       1       8
       1       1       8       1       1       8       1       1       8       1
       1       8       1       1       8       1       1       8       1       1
       8       1       1       8       1       1       8       1       1       8
       1       1       8       1       1       8       1       1       8       1
       1       8       1       1       8       1       1       8       1       1
       8       1       1       8       1       1       8       1       1       8
       1       1       8       1       1       8       1       1       8       1
       1       8       1       1       8       1       1       8       1       1
       8       1       1       8       1       1       8       1       1       8
       1       1       8       1       1       8       1       1       8       1
       1       8       1       1       8       1       1       8       1       1
       8       1       1       8       1       1       8       1       1       8
       1       1       8       1       1       8       1       1       8       1
       1       8       1       1       8       1       1       8       1       1
       8       1       1       8       1       1       8       1       1       8
       1       1       8       1       1       8       1       1       8       1
       1       8       1       1       8       1       1       8       1       1
       8       1       1       8       1       1       8       1       1       8
       1       1       8       1       1       8       1       1       8       1
       1       8       1       1       8       1       1       8       1       1
       8       1       1       8       1       1       8       1       1       8
       1       1       8       1       1       8       1       1       8       1
       1       8       1       1       8       1       1       8       1       1
       8       1       1       8       1       1       8       1       1       8
       1       1       8       1       1       8       1       1       8       1
       1       8       1       1       8       1       1       8       1       1
       8       1       1       8       1       1       8       1       1       8
       1       1       8       1       1       8       1       1       8       1
       1       8       1       1       8       1       1       8       1       1
       8       1       1       8       1       1       8       1       1       8
       1       1       8       1       1       8       1       1       8       1
       1       8       1       1       8       1       1       8       1       1
       8       1       1       8       1       1       8       1       1       8
       1       1       8       1       1       8       1       1       8       1
       1       8       1       1       8       1       1       8       1       1
       8       1       1       8       1       1       8       1       1       8
       1       1       8       1       1       8       1       1       8       1
       1       8       1       1       8       1       1       8       1       1
       8       1       1       8       1       1       8       1       1       8
       1       1       8       1       1       8       1       1       8       1
       1       8       1       1       8       1       1       8       1       1
       8       1       1       8       1       1       8       1       1       8
       1       1       8       1       1       8       1       1       8       1
       1       8       1       1       8       1       1       8       1       1
       8       1       1       8       1       1       8       1       1       8
       1       1       8       1       1       8       1       1       8       1
       1       8       1       1       8       1       1       8       1       1
       8       1       1       8       1       1       8       1       1       8
       1       1       8       1       1       8       1       1       8       1
       1       8       1       1       8       1       1       8       1       1
       8       1       1       8       1       1       8       1       1       8
       1       1       8       1       1       8       1       1       8       1
       1       8       1       1       8       1       1       8       1       1
       8       1       1       8       1       1       8       1       1       8
       1       1       8       1       1       8       1       1       8       1
       1       8       1       1       8       1       1       8       1       1
       8       1       1       8       1       1       8       1       1       8
       1       1       8       1       1       8       1       1       8       1
       1       8       1       1       8       1       1       8       1       1
       8       1       1       8       1       1       8       1       1       8
       1       1       8       1       1       8       1       1       8       1
       1       8       1       1       8       1       1       8       1       1
       8       1       1       8       1       1       8       1       1       8
       1       1       8       1       1       8       1       1       8       1
       1       8       1       1       8       1       1       8       1       1
       8       1       1       8       1       1       8       1       1       8
       1       1       8       1       1       8       1       1       8       1
       1       8       1       1       8       1       1       8       1       1
       8       1       1       8       1       1       8       1       1       8
       1       1       8       1       1       8       1       1       8       1
       1       8       1       1       8       1       1       8       1       1
       8       1       1       8       1       1       8       1       1       8
       1       1       8       1       1       8       1       1       8       1
       1       8       1       1       8       1       1       8       1       1
       8       1       1       8       1       1       8       1       1       8
       1       1       8       1       1       8       1       1       8       1
       1       8       1       1       8       1       1       8       1       1
       8       1       1       8       1       1       8       1       1       8
       1       1       8       1       1       8       1       1       8       1
       1       8       1       1       8       1       1       8       1       1
       8       1       1       8       1       1       8       1       1       8
       1       1       8       1       1       8       1       1       8       1
       1       8       1       1       8       1       1       8       1       1
       8       1       1       8       1       1       8       1       1       8
       1       1       8       1       1       8       1       1       8       1
       1       8       1       1       8       1       1       8       1       1
       8       1       1       8       1       1       8       1       1       8
       1       1       8       1       1       8       1       1       8       1
       1       8       1       1       8       1       1       8       1       1
       8       1       1       8       1       1       8       1       1       8
       1       1       8       1       1       8       1       1       8       1
       1       8       1       1       8       1       1       8       1       1
       8       1       1       8       1       1       8       1       1       8
       1       1       8       1       1       8       1       1       8       1
       1       8       1       1       8       1       1       8       1       1
       8       1       1       8       1       1       8       1       1       8
       1       1       8       1       1       8       1       1       8       1
       1       8       1       1       8       1       1       8       1       1
       8       1       1       8       1       1       8       1       1       8
       1       1       8       1       1       8       1       1       8       1
       1       8       1       1       8       1       1       8       1       1
       8       1       1       8       1       1       8       1       1       8
       1       1       8       1       1       8       1       1       8       1
       1       8       1       1       8       1       1       8       1       1
       8       1       1       8       1       1       8       1       1       8
       1       1       8       1       1       8       1       1       8       1
       1       8       1       1       8       1       1       8       1       1
       8       1       1       8       1       1       8       1       1       8
       1       1       8       1       1       8       1       1       8       1
       1       8       1       1       8       1       1       8       1       1
       8       1       1       8       1       1       8       1       1       8
       1       1       8       1       1       8       1       1       8       1
       1       8       1       1       8       1       1       8       1       1
       8       1       1       8       1       1       8       1       1       8
       1       1       8       1       1       8       1       1       8       1
       1       8       1       1       8       1       1       8       1       1
       8       1       1       8       1       1       8       1       1       8
       1       1       8       1       1       8       1       1       8       1
       1       8       1       1       8       1       1       8       1       1
       8       1       1       8       1       1       8       1       1       8
       1       1       8       1       1       8       1       1       8       1
       1       8       1       1       8       1       1       8       1       1
       8       1       1       8       1       1       8       1       1       8
       1       1       8       1       1       8       1       1       8       1
       1       8       1       1       8       1       1       8       1       1
       8       1       1       8       1       1       8       1       1       8
       1       1       8       1       1       8       1       1       8       1
       1       8       1       1       8       1       1       8       1       1
       8       1       1       8       1       1       8       1       1       8
       1       1       8       1       1       8       1       1       8       1
       1       8       1       1       8       1       1       8       1       1
       8       1       1       8       1       1       8       1       1       8
       1       1       8       1       1       8       1       1       8       1
       1       8       1       1       8       1       1       8       1       1
       8       1       1       8       1       1       8       1       1       8
       1       1       8       1       1       8       1       1       8       1
       1       8       1       1       8       1       1       8       1       1
       8       1       1       8       1       1       8       1       1       8
       1       1       8       1       1       8       1       1       8       1
       1       8       1       1       8       1       1       8       1       1
       8       1       1       8       1       1       8       1       1       8
       1       1       8       1       1       8       1       1       8       1
       1       8       1       1       8       1       1       8       1       1
       8       1       1       8       1       1       8       1       1       8
       1       1       8       1       1       8       1       1       8       1
       1       8       1       1       8       1       1       8       1       1
       8       1       1       8       1       1       8       1       1       8
       1       1       8       1       1       8       1       1       8       1
       1       8       1       1       8       1       1       8       1       1
       8       1       1       8       1       1       8       1       1       8
       1       1       8       1       1       8       1       1       8       1
       1       8       1       1       8       1       1       8       1       1
       8       1       1       8       1       1       8       1       1       8
       1       1       8       1       1       8       1       1       8       1
       1       8       1       1       8       1       1       8       1       1
       8       1       1       8       1       1       8       1       1       8
       1       1       8       1       1       8       1       1       8       1
       1       8       1       1       8       1       1       8       1       1
       8       1       1       8       1       1       8       1       1       8
       1       1       8       1       1       8       1       1       8       1
       1       8       1       1       8       1       1       8       1       1
       8       1       1       8       1       1       8       1       1       8
       1       1       8       1       1       8       1       1       8       1
       1       8       1       1       8       1       1       8       1       1
       8       1       1       8       1       1       8       1       1       8
       1       1       8       1       1       8       1       1       8       1
       1       8       1       1       8       1       1       8       1       1
       8       1       1       8       1       1       8       1       1       8
       1       1       8       1       1       8       1       1       8       1
       1       8       1       1       8       1       1       8       1       1
       8       1       1       8       1       1       8       1       1       8
       1       1       8       1       1       8       1       1       8       1
       1       8       1       1       8       1       1       8       1       1
       8       1       1       8       1       1       8       1       1       8
       1       1       8       1       1       8       1       1       8       1
       1       8       1       1       8       1       1       8       1       1
       8       1       1       8       1       1       8       1       1       8
       1       1       8       1       1       8       1       1       8       1
       1       8       1       1       8       1       1       8       1       1
       8       1       1       8       1       1       8       1       1       8
       1       1       8       1       1       8       1       1       8       1
       1       8       1       1       8       1       1       8       1       1
       8       1       1       8       1       1       8       1       1       8
       1       1       8       1       1       8       1       1       8       1
       1       8       1       1       8       1       1       8       1       1
       8       1       1       8       1       1       8       1       1       8
       1       1       8       1       1       8       1       1       8       1
       1       8       1       1       8       1       1       8       1       1
       8       1       1       8       1       1       8       1       1       8
       1       1       8       1       1       8       1       1       8       1
       1       8       1       1       8       1       1       8       1       1
       8       1       1       8       1       1       8       1       1       8
       1       1       8       1       1       8       1       1       8       1
       1       8       1       1       8       1       1       8       1       1
       8       1       1       8       1       1       8       1       1       8
       1       1       8       1       1       8       1       1       8       1
       1       8       1       1       8       1       1       8       1       1
       8       1       1       8       1       1       8       1       1       8
       1       1       8       1       1       8       1       1       8       1
       1       8       1       1       8       1       1       8       1       1
       8       1       1       8       1       1       8       1       1       8
       1       1       8       1       1       8       1       1       8       1
       1       8       1       1       8       1       1       8       1       1
       8       1       1       8       1       1       8       1       1       8
       1       1       8       1       1       8       1       1       8       1
       1       8       1       1       8       1       1       8       1       1
       8       1       1       8       1       1       8       1       1       8
       1       1       8       1       1       8       1       1       8       1
       1       8       1       1       8       1       1       8       1       1
       8       1       1       8       1       1       8       1       1       8
       1       1       8       1       1       8       1       1       8       1
       1       8       1       1       8       1       1       8       1       1
       8       1       1       8       1       1       8       1       1       8
       1       1       8       1       1       8       1       1       8       1
       1       8       1       1       8       1       1       8       1       1
       8       1       1       8       1       1       8       1       1       8
       1       1       8       1       1       8       1       1       8       1
       1       8       1       1       8       1       1       8       1       1
       8       1       1       8       1       1       8       1       1       8
       1       1       8       1       1       8       1       1       8       1
       1       8       1       1       8       1       1       8       1       1
       8       1       1       8       1       1       8       1       1       8
       1       1       8       1       1       8       1       1       8       1
       1       8       1       1       8       1       1       8       1       1
       8       1       1       8       1       1       8       1       1       8
       1       1       8       1       1       8       1       1       8       1
       1       8       1       1       8       1       1       8       1       1
       8       1       1       8       1       1       8       1       1       8
       1       1       8       1       1       8       1       1       8       1
       1       8       1       1       8       1       1       8       1       1
       8       1       1       8       1       1       8       1       1       8
       1       1       8       1       1       8       1       1       8       1
       1       8       1       1       8       1       1       8       1       1
       8       1       1       8       1       1       8       1       1       8
       1       1       8       1       1       8       1       1       8       1
       1       8       1       1       8       1       1       8       1       1
       8       1       1       8       1       1       8       1       1       8
       1       1       8       1       1       8       1       1       8       1
       1       8       1       1       8       1       1       8       1       1
       8       1       1       8       1       1       8       1       1       8
       1       1       8       1       1       8       1       1       8       1
       1       8       1       1       8       1       1       8       1       1
       8       1       1       8       1       1       8       1       1       8
       1       1       8       1       1       8       1       1       8       1
       1       8       1       1       8       1       1       8       1       1
       8       1       1       8       1       1       8       1       1       8
       1       1       8       1       1       8       1       1       8       1
       1       8       1       1       8       1       1       8       1       1
       8       1       1       8       1       1       8       1       1       8
       1       1       8       1       1       8       1       1       8       1
       1       8       1       1       8       1       1       8       1       1
       8       1       1       8       1       1       8       1       1       8
       1       1       8       1       1       8       1       1       8       1
       1       8       1       1       8       1       1       8       1       1
       8       1       1       8       1       1       8       1       1       8
       1       1       8       1       1       8       1       1       8       1
       1       8       1       1       8       1       1       8       1       1
       8       1       1       8       1       1       8       1       1       8
       1       1       8       1       1       8       1       1       8       1
       1       8       1       1       8       1       1       8       1       1
       8       1       1       8       1       1       8       1       1       8
       1       1       8       1       1       8       1       1       8       1
       1       8       1       1       8       1       1       8       1       1
       8       1       1       8       1       1       8       1       1       8
       1       1       8       1       1       8       1       1       8       1
       1       8       1       1       8       1       1       8       1       1
       8       1       1       8       1       1       8       1       1       8
       1       1       8       1       1       8       1       1       8       1
       1       8       1       1       8       1       1       8       1       1
       8       1       1       8       1       1       8       1       1       8
       1       1       8       1       1       8       1       1       8       1
       1       8       1       1       8       1       1       8       1       1
       8       1       1       8       1       1       8       1       1       8
       1       1       8       1       1       8       1       1       8       1
       1       8       1       1       8       1       1       8       1       1
       8       1       1       8       1       1       8       1       1       8
       1       1       8       1       1       8       1       1       8       1
       1       8       1       1       8       1       1       8       1       1
       8       1       1       8       1       1       8       1       1       8
       1       1       8       1       1       8       1       1       8       1
       1       8       1       1       8       1       1       8       1       1
       8       1       1       8       1       1       8       1       1       8
       1       1       8       1       1       8       1       1       8       1
       1       8       1       1       8       1       1       8       1       1
       8       1       1       8       1       1       8       1       1       8
       1       1       8       1       1       8       1       1       8       1
       1       8       1       1       8       1       1       8       1       1
       8       1       1       8       1       1       8       1       1       8
       1       1       8       1       1       8       1       1       8       1
       1       8       1       1       8       1       1       8       1       1
       8       1       1       8       1       1       8       1       1       8
       1       1       8       1       1       8       1       1       8       1
       1       8       1       1       8       1       1       8       1       1
       8       1       1       8       1       1       8       1       1       8
       1       1       8       1       1       8       1       1       8       1
       1       8       1       1       8       1       1       8       1       1
       8       1       1       8       1       1       8       1       1       8
       1       1       8       1       1       8       1       1       8       1
       1       8       1       1       8       1       1       8       1       1
       8       1       1       8       1       1       8       1       1       8
       1       1       8       1       1       8       1       1       8       1
       1       8       1       1       8       1       1       8       1       1
       8       1       1       8       1       1       8       1       1       8
       1       1       8       1       1       8       1       1       8       1
       1       8       1       1       8       1       1       8       1       1
       8       1       1       8       1       1       8       1       1       8
       1       1       8       1       1       8       1       1       8       1
       1       8       1       1       8       1       1       8       1       1
       8       1       1       8       1       1       8       1       1       8
       1       1       8       1       1       8       1       1       8       1
       1       8       1       1       8       1       1       8       1       1
       8       1       1       8       1       1       8       1       1       8
       1       1       8       1       1       8       1       1       8       1
       1       8       1       1       8       1       1       8       1       1
       8       1       1       8       1       1       8       1       1       8
       1       1       8       1       1       8       1       1       8       1
       1       8       1       1       8       1       1       8       1       1
       8       1       1       8       1       1       8       1       1       8
       1       1       8       1       1       8       1       1       8       1
       1       8       1       1       8       1       1       8       1       1
       8       1       1       8       1       1       8       1       1       8
       1       1       8       1       1       8       1       1       8       1
       1       8       1       1       8       1       1       8       1       1
       8       1       1       8       1       1       8       1       1       8
       1       1       8       1       1       8       1       1       8       1
       1       8       1       1       8       1       1       8       1       1
       8       1       1       8       1       1       8       1       1       8
       1       1       8       1       1       8       1       1       8       1
       1       8       1       1       8       1       1       8       1       1
       8       1       1       8       1       1       8       1       1       8
       1       1       8       1       1       8       1       1       8       1
       1       8       1       1       8       1       1       8       1       1
       8       1       1       8       1       1       8       1       1       8
       1       1       8       1       1       8       1       1       8       1
       1       8       1       1       8       1       1       8       1       1
       8       1       1       8       1       1       8       1       1       8
       1       1       8       1       1       8       1       1       8       1
       1       8       1       1       8       1       1       8       1       1
       8       1       1       8       1       1       8       1       1       8
       1       1       8       1       1       8       1       1       8       1
       1       8       1       1       8       1       1       8       1       1
       8       1       1       8       1       1       8       1       1       8
       1       1       8       1       1       8       1       1       8       1
       1       8       1       1       8       1       1       8       1       1
       8       1       1       8       1       1       8       1       1       8
       1       1       8       1       1       8       1       1       8       1
       1       8       1       1       8       1       1       8       1       1
       8       1       1       8       1       1       8       1       1       8
       1       1       8       1       1       8       1       1       8       1
       1       8       1       1       8       1       1       8       1       1
       8       1       1       8       1       1       8       1       1       8
       1       1       8       1       1       8       1       1       8       1
       1       8       1       1       8       1       1       8       1       1
       8       1       1       8       1       1       8       1       1       8
       1       1       8       1       1       8       1       1       8       1
       1       8       1       1       8       1       1       8       1       1
       8       1       1       8       1       1       8       1       1       8
       1       1       8       1       1       8       1       1       8       1
       1       8       1       1       8       1       1       8       1       1
       8       1       1       8       1       1       8       1       1       8
       1       1       8       1       1       8       1       1       8       1
       1       8       1       1       8       1       1       8       1       1
       8       1       1       8       1       1       8       1       1       8
       1       1       8       1       1       8       1       1       8       1
       1       8       1       1       8       1       1       8       1       1
       8       1       1       8       1       1       8       1       1       8
       1       1       8       1       1       8       1       1       8       1
       1       8       1       1       8       1       1       8       1       1
       8       1       1       8       1       1       8       1       1       8
       1       1       8       1       1       8       1       1       8       1
       1       8       1       1       8       1       1       8       1       1
       8       1       1       8       1       1       8       1       1       8
       1       1       8       1       1       8       1       1       8       1
       1       8       1       1       8       1       1       8       1       1
       8       1       1       8       1       1       8       1       1       8
       1       1       8       1       1       8       1       1       8       1
       1       8       1       1       8       1       1       8       1       1
       8       1       1       8       1       1       8       1       1       8
       1       1       8       1       1       8       1       1       8       1
       1       8       1       1       8       1       1       8       1       1
       8       1       1       8       1       1       8       1       1       8
       1       1       8       1       1       8       1       1       8       1
       1       8       1       1       8       1       1       8       1       1
       8       1       1       8       1       1       8       1       1       8
       1       1       8       1       1       8       1       1       8       1
       1       8       1       1       8       1       1       8       1       1
       8       1       1       8       1       1       8       1       1       8
       1       1       8       1       1       8       1       1       8       1
       1       8       1       1       8       1       1       8       1       1
       8       1       1       8       1       1       8       1       1       8
       1       1       8       1       1       8       1       1       8       1
       1       8       1       1       8       1       1       8       1       1
       8       1       1       8       1       1       8       1       1       8
       1       1       8       1       1       8       1       1       8       1
       1       8       1       1       8       1       1       8       1       1
       8       1       1       8       1       1       8       1       1       8
       1       1       8       1       1       8       1       1       8       1
       1       8       1       1       8       1       1       8       1       1
       8       1       1       8       1       1       8       1       1       8
       1       1       8       1       1       8       1       1       8       1
       1       8       1       1       8       1       1       8       1       1
       8       1       1       8       1       1       8       1       1       8
       1       1       8       1       1       8       1       1       8       1
       1       8       1       1       8       1       1       8       1       1
       8       1       1       8       1       1       8       1       1       8
       1       1       8       1       1       8       1       1       8       1
       1       8       1       1       8       1       1       8       1       1
       8       1       1       8       1       1       8       1       1       8
       1       1       8       1       1       8       1       1       8       1
       1       8       1       1       8       1       1       8       1       1
       8       1       1       8       1       1       8       1       1       8
       1       1       8       1       1       8       1       1       8       1
       1       8       1       1       8       1       1       8       1       1
       8       1       1       8       1       1       8       1       1       8
       1       1       8       1       1       8       1       1       8       1
       1       8       1       1       8       1       1       8       1       1
       8       1       1       8       1       1       8       1       1       8
       1       1       8       1       1       8       1       1       8       1
       1       8       1       1       8       1       1       8       1       1
       8       1       1       8       1       1       8       1       1       8
       1       1       8       1       1       8       1       1       8       1
       1       8       1       1       8       1       1       8       1       1
       8       1       1       8       1       1       8       1       1       8
       1       1       8       1       1       8       1       1       8       1
       1       8       1       1       8       1       1       8       1       1
       8       1       1       8       1       1       8       1       1       8
       1       1       8       1       1       8       1       1       8       1
       1       8       1       1       8       1       1       8       1       1
       8       1       1       8       1       1       8       1       1       8
       1       1       8       1       1       8       1       1       8       1
       1       8       1       1       8       1       1       8       1       1
       8       1       1       8       1       1       8       1       1       8
       1       1       8       1       1       8       1       1       8       1
       1       8       1       1       8       1       1       8       1       1
       8       1       1       8       1       1       8       1       1       8
       1       1       8       1       1       8       1       1       8       1
       1       8       1       1       8       1       1       8       1       1
       8       1       1       8       1       1       8       1       1       8
       1       1       8       1       1       8       1       1       8       1
       1       8       1       1       8       1       1       8       1       1
       8       1       1       8       1       1       8       1       1       8
       1       1       8       1       1       8       1       1       8       1
       1       8       1       1       8       1       1       8       1       1
       8       1       1       8       1       1       8       1       1       8
       1       1       8       1       1       8       1       1       8       1
       1       8       1       1       8       1       1       8       1       1
       8       1       1       8       1       1       8       1       1       8
       1       1       8       1       1       8       1       1       8       1
       1       8       1       1       8       1       1       8       1       1
       8       1       1       8       1       1       8       1       1       8
       1       1       8       1       1       8       1       1       8       1
       1       8       1       1       8       1       1       8       1       1
       8       1       1       8       1       1       8       1       1       8
       1       1       8       1       1       8       1       1       8       1
       1       8       1       1       8       1       1       8       1       1
       8       1       1       8       1       1       8       1       1       8
       1       1       8       1       1       8       1       1       8       1
       1       8       1       1       8       1       1       8       1       1
       8       1       1       8       1       1       8       1       1       8
       1       1       8       1       1       8       1       1       8       1
       1       8       1       1       8       1       1       8       1       1
       8       1       1       8       1       1       8       1       1       8
       1       1       8       1       1       8       1       1       8       1
       1       8       1       1       8       1       1       8       1       1
       8       1       1       8       1       1       8       1       1       8
       1       1       8       1       1       8       1       1       8       1
       1       8       1       1       8       1       1       8       1       1
       8       1       1       8       1       1       8       1       1       8
       1       1       8       1       1       8       1       1       8       1
       1       8       1       1       8       1       1       8       1       1
       8       1       1       8       1       1       8       1       1       8
       1       1       8       1       1       8       1       1       8       1
       1       8       1       1       8       1       1       8       1       1
       8       1       1       8       1       1       8       1       1       8
       1       1       8       1       1       8       1       1       8       1
       1       8       1       1       8       1       1       8       1       1
       8       1       1       8       1       1       8       1       1       8
       1       1       8       1       1       8       1       1       8       1
       1       8       1       1       8       1       1       8       1       1
       8       1       1       8       1       1       8       1       1       8
       1       1       8       1       1       8       1       1       8       1
       1       8       1       1       8       1       1       8       1       1
       8       1       1       8       1       1       8       1       1       8
       1       1       8       1       1       8       1       1       8       1
       1       8       1       1       8       1       1       8       1       1
       8       1       1       8       1       1       8       1       1       8
       1       1       8       1       1       8       1       1       8       1
       1       8       1       1       8       1       1       8       1       1
       8       1       1       8       1       1       8       1       1       8
       1       1       8       1       1       8       1       1       8       1
       1       8       1       1       8       1       1       8       1       1
       8       1       1       8       1       1       8       1       1       8
       1       1       8       1       1       8       1       1       8       1
       1       8       1       1       8       1       1       8       1       1
       8       1       1       8       1       1       8       1       1       8
       1       1       8       1       1       8       1       1       8       1
       1       8       1       1       8       1       1       8       1       1
       8       1       1       8       1       1       8       1       1       8
       1       1       8       1       1       8       1       1       8       1
       1       8       1       1       8       1       1       8       1       1
       8       1       1       8       1       1       8       1       1       8
       1       1       8       1       1       8       1       1       8       1
       1       8       1       1       8       1       1       8       1       1
       8       1       1       8       1       1       8       1       1       8
       1       1       8       1       1       8       1       1       8       1
       1       8       1       1       8       1       1       8       1       1
       8       1       1       8       1       1       8       1       1       8
       1       1       8       1       1       8       1       1       8       1
       1       8       1       1       8       1       1       8       1       1
       8       1       1       8       1       1       8       1       1       8
       1       1       8       1       1       8       1       1       8       1
       1       8       1       1       8       1       1       8       1       1
       8       1       1       8       1       1       8       1       1       8
       1       1       8       1       1       8       1       1       8       1
       1       8       1       1       8       1       1       8       1       1
       8       1       1       8       1       1       8       1       1       8
       1       1       8       1       1       8       1       1       8       1
       1       8       1       1       8       1       1       8       1       1
       8       1       1       8       1       1       8       1       1       8
       1       1       8       1       1       8       1       1       8       1
       1       8       1       1       8       1       1       8       1       1
       8       1       1       8       1       1       8       1       1       8
       1       1       8       1       1       8       1       1       8       1
       1       8       1       1       8       1       1       8       1       1
       8       1       1       8       1       1       8       1       1       8
       1       1       8       1       1       8       1       1       8       1
       1       8       1       1       8       1       1       8       1       1
       8       1       1       8       1       1       8       1       1       8
       1       1       8       1       1       8       1       1       8       1
       1       8       1       1       8       1       1       8       1       1
       8       1       1       8       1       1       8       1       1       8
       1       1       8       1       1       8       1       1       8       1
       1       8       1       1       8       1       1       8       1       1
       8       1       1       8       1       1       8       1       1       8
       1       1       8       1       1       8       1       1       8       1
       1       8       1       1       8       1       1       8       1       1
       8       1       1       8       1       1       8       1       1       8
       1       1       8       1       1       8       1       1       8       1
       1       8       1       1       8       1       1       8       1       1
       8       1       1       8       1       1       8       1       1       8
       1       1       8       1       1       8       1       1       8       1
       1       8       1       1       8       1       1       8       1       1
       8       1       1       8       1       1       8       1       1       8
       1       1       8       1       1       8       1       1       8       1
       1       8       1       1       8       1       1       8       1       1
       8       1       1       8       1       1       8       1       1       8
       1       1       8       1       1       8       1       1       8       1
       1       8       1       1       8       1       1       8       1       1
       8       1       1       8       1       1       8       1       1       8
       1       1       8       1       1       8       1       1       8       1
       1       8       1       1       8       1       1       8       1       1
       8       1       1       8       1       1       8       1       1       8
       1       1       8       1       1       8       1       1       8       1
       1       8       1       1       8       1       1       8       1       1
       8       1       1       8       1       1       8       1       1       8
       1       1       8       1       1       8       1       1       8       1
       1       8       1       1       8       1       1       8       1       1
       8       1       1       8       1       1       8       1       1       8
       1       1       8       1       1       8       1       1       8       1
       1       8       1       1       8       1       1       8       1       1
       8       1       1       8       1       1       8       1       1       8
       1       1       8       1       1       8       1       1       8       1
       1       8       1       1       8       1       1       8       1       1
       8       1       1       8       1       1       8       1       1       8
       1       1       8       1       1       8       1       1       8       1
       1       8       1       1       8       1       1       8       1       1
       8       1       1       8       1       1       8       1       1       8
       1       1       8       1       1       8       1       1       8       1
       1       8       1       1       8       1       1       8       1       1
       8       1       1       8       1       1       8       1       1       8
       1       1       8       1       1       8       1       1       8       1
       1       8       1       1       8       1       1       8       1       1
       8       1       1       8       1       1       8       1       1       8
       1       1       8       1       1       8       1       1       8       1
       1       8       1       1       8       1       1       8       1       1
       8       1       1       8       1       1       8       1       1       8
       1       1       8       1       1       8       1       1       8       1
       1       8       1       1       8       1       1       8       1       1
       8       1       1       8       1       1       8       1       1       8
       1       1       8       1       1       8       1       1       8       1
       1       8       1       1       8       1       1       8       1       1
       8       1       1       8       1       1       8       1       1       8
       1       1       8       1       1       8       1       1       8       1
       1       8       1       1       8       1       1       8       1       1
       8       1       1       8       1       1       8       1       1       8
       1       1       8       1       1       8       1       1       8       1
       1       8       1       1       8       1       1       8       1       1
       8       1       1       8       1       1       8       1       1       8
       1       1       8       1       1       8       1       1       8       1
       1       8       1       1       8       1       1       8       1       1
       8       1       1       8       1       1       8       1       1       8
       1       1       8       1       1       8       1       1       8       1
       1       8       1       1       8       1       1       8       1       1
       8       1       1       8       1       1       8       1       1       8
       1       1       8       1       1       8       1       1       8       1
       1       8       1       1       8       1       1       8       1       1
       8       1       1       8       1       1       8       1       1       8
       1       1       8       1       1       8       1       1       8       1
       1       8       1       1       8       1       1       8       1       1
       8       1       1       8       1       1       8       1       1       8
       1       1       8       1       1       8       1       1       8       1
       1       8       1       1       8       1       1       8       1       1
       8       1       1       8       1       1       8       1       1       8
       1       1       8       1       1       8       1       1       8       1
       1       8       1       1       8       1       1       8       1       1
       8       1       1       8       1       1       8       1       1       8
       1       1       8       1       1       8       1       1       8       1
       1       8       1       1       8       1       1       8       1       1
       8       1       1       8       1       1       8       1       1       8
       1       1       8       1       1       8       1       1       8       1
       1       8       1       1       8       1       1       8       1       1
       8       1       1       8       1       1       8       1       1       8
       1       1       8       1       1       8       1       1       8       1
       1       8       1       1       8       1       1       8       1       1
       8       1       1       8       1       1       8       1       1       8
       1       1       8       1       1       8       1       1       8       1
       1       8       1       1       8       1       1       8       1       1
       8       1       1       8       1       1       8       1       1       8
       1       1       8       1       1       8       1       1       8       1
       1       8       1       1       8       1       1       8       1       1
       8       1       1       8       1       1       8       1       1       8
       1       1       8       1       1       8       1       1       8       1
       1       8       1       1       8       1       1       8       1       1
       8       1       1       8       1       1       8       1       1       8
       1       1       8       1       1       8       1       1       8       1
       1       8       1       1       8       1       1       8       1       1
       8       1       1       8       1       1       8       1       1       8
       1       1       8       1       1       8       1       1       8       1
       1       8       1       1       8       1       1       8       1       1
       8       1       1       8       1       1       8       1       1       8
       1       1       8       1       1       8       1       1       8       1
       1       8       1       1       8       1       1       8       1       1
       8       1       1       8       1       1       8       1       1       8
       1       1       8       1       1       8       1       1       8       1
       1       8       1       1       8       1       1       8       1       1
       8       1       1       8       1       1       8       1       1       8
       1       1       8       1       1       8       1       1       8       1
       1       8       1       1       8       1       1       8       1       1
       8       1       1       8       1       1       8       1       1       8
       1       1       8       1       1       8       1       1       8       1
       1       8       1       1       8       1       1       8       1       1
       8       1       1       8       1       1       8       1       1       8
       1       1       8       1       1       8       1       1       8       1
       1       8       1       1       8       1       1       8       1       1
       8       1       1       8       1       1       8       1       1       8
       1       1       8       1       1       8       1       1       8       1
       1       8       1       1       8       1       1       8       1       1
       8       1       1       8       1       1       8       1       1       8
       1       1       8       1       1       8       1       1       8       1
       1       8       1       1       8       1       1       8       1       1
       8       1       1       8       1       1       8       1       1       8
       1       1       8       1       1       8       1       1       8       1
       1       8       1       1       8       1       1       8       1       1
       8       1       1       8       1       1       8       1       1       8
       1       1       8       1       1       8       1       1       8       1
       1       8       1       1       8       1       1       8       1       1
       8       1       1       8       1       1       8       1       1       8
       1       1       8       1       1       8       1       1       8       1
       1       8       1       1       8       1       1       8       1       1
       8       1       1       8       1       1       8       1       1       8
       1       1       8       1       1       8       1       1       8       1
       1       8       1       1       8       1       1       8       1       1
       8       1       1       8       1       1       8       1       1       8
       1       1       8       1       1       8       1       1       8       1
       1       8       1       1       8       1       1       8       1       1
       8       1       1       8       1       1       8       1       1       8
       1       1       8       1       1       8       1       1       8       1
       1       8       1       1       8       1       1       8       1       1
       8       1       1       8       1       1       8       1       1       8
       1       1       8       1       1       8       1       1       8       1
       1       8       1       1       8       1       1       8       1       1
       8       1       1       8       1       1       8       1       1       8
       1       1       8       1       1       8       1       1       8       1
       1       8       1       1       8       1       1       8       1       1
       8       1       1       8       1       1       8       1       1       8
       1       1       8       1       1       8       1       1       8       1
       1       8       1       1       8       1       1       8       1       1
       8       1       1       8       1       1       8       1       1       8
       1       1       8       1       1       8       1       1       8       1
       1       8       1       1       8       1       1       8       1       1
       8       1       1       8       1       1       8       1       1       8
       1       1       8       1       1       8       1       1       8       1
       1       8       1       1       8       1       1       8       1       1
       8       1       1       8       1       1       8       1       1       8
       1       1       8       1       1       8       1       1       8       1
       1       8       1       1       8       1       1       8       1       1
       8       1       1       8       1       1       8       1       1       8
       1       1       8       1       1       8       1       1       8       1
       1       8       1       1       8       1       1       8       1       1
       8       1       1       8       1       1       8       1       1       8
       1       1       8       1       1       8       1       1       8       1
       1       8       1       1       8       1       1       8       1       1
       8       1       1       8       1       1       8       1       1       8
       1       1       8       1       1       8       1       1       8       1
       1       8       1       1       8       1       1       8       1       1
       8       1       1       8       1       1       8       1       1       8
       1       1       8       1       1       8       1       1       8       1
       1       8       1       1       8       1       1       8       1       1
       8       1       1       8       1       1       8       1       1       8
       1       1       8       1       1       8       1       1       8       1
       1       8       1       1       8       1       1       8       1       1
       8       1       1       8       1       1       8       1       1       8
       1       1       8       1       1       8       1       1       8       1
       1       8       1       1       8       1       1       8       1       1
       8       1       1       8       1       1       8       1       1       8
       1       1       8       1       1       8       1       1       8       1
       1       8       1       1       8       1       1       8       1       1
       8       1       1       8       1       1       8       1       1       8
       1       1       8       1       1       8       1       1       8       1
       1       8       1       1       8       1       1       8       1       1
       8       1       1       8       1       1       8       1       1       8
       1       1       8       1       1       8       1       1       8       1
       1       8       1       1       8       1       1       8       1       1
       8       1       1       8       1       1       8       1       1       8
       1       1       8       1       1       8       1       1       8       1
       1       8       1       1       8       1       1       8       1       1
       8       1       1       8       1       1       8       1       1       8
       1       1       8       1       1       8       1       1       8       1
       1       8       1       1       8       1       1       8       1       1
       8       1       1       8       1       1       8       1       1       8
       1       1       8       1       1       8       1       1       8       1
       1       8       1       1       8       1       1       8       1       1
       8       1       1       8       1       1       8       1       1       8
       1       1       8       1       1       8       1       1       8       1
       1       8       1       1       8       1       1       8       1       1
       8       1       1       8       1       1       8       1       1       8
       1       1       8       1       1       8       1       1       8       1
       1       8       1       1       8       1       1       8       1       1
       8       1       1       8       1       1       8       1       1       8
       1       1       8       1       1       8       1       1       8       1
       1       8       1       1       8       1       1       8       1       1
       8       1       1       8       1       1       8       1       1       8
       1       1       8       1       1       8       1       1       8       1
       1       8       1       1       8       1       1       8       1       1
       8       1       1       8       1       1       8       1       1       8
       1       1       8       1       1       8       1       1       8       1
       1       8       1       1       8       1       1       8       1       1
       8       1       1       8       1       1       8       1       1       8
       1       1       8       1       1       8       1       1       8       1
       1       8       1       1       8       1       1       8       1       1
       8       1       1       8       1       1       8       1       1       8
       1       1       8       1       1       8       1       1       8       1
       1       8       1       1       8       1       1       8       1       1
       8       1       1       8       1       1       8       1       1       8
       1       1       8       1       1       8       1       1       8       1
       1       8       1       1       8       1       1       8       1       1
       8       1       1       8       1       1       8       1       1       8
       1       1       8       1       1       8       1       1       8       1
       1       8       1       1       8       1       1       8       1       1
       8       1       1       8       1       1       8       1       1       8
       1       1       8       1       1       8       1       1       8       1
       1       8       1       1       8       1       1       8       1       1
       8       1       1       8       1       1       8       1       1       8
       1       1       8       1       1       8       1       1       8       1
       1       8       1       1       8       1       1       8       1       1
       8       1       1       8       1       1       8       1       1       8
       1       1       8       1       1       8       1       1       8       1
       1       8       1       1       8       1       1       8       1       1
       8       1       1       8       1       1       8       1       1       8
       1       1       8       1       1       8       1       1       8       1
       1       8       1       1       8       1       1       8       1       1
       8       1       1       8       1       1       8       1       1       8
       1       1       8       1       1       8       1       1       8       1
       1       8       1       1       8       1       1       8       1       1
       8       1       1       8       1       1       8       1       1       8
       1       1       8       1       1       8       1       1       8       1
       1       8       1       1       8       1       1       8       1       1
       8       1       1       8       1       1       8       1       1       8
       1       1       8       1       1       8       1       1       8       1
       1       8       1       1       8       1       1       8       1       1
       8       1       1       8       1       1       8       1       1       8
       1       1       8       1       1       8       1       1       8       1
       1       8       1       1       8       1       1       8       1       1
       8       1       1       8       1       1       8       1       1       8
       1       1       8       1       1       8       1       1       8       1
       1       8       1       1       8       1       1       8       1       1
       8       1       1       8       1       1       8       1       1       8
       1       1       8       1       1       8       1       1       8       1
       1       8       1       1       8       1       1       8       1       1
       8       1       1       8       1       1       8       1       1       8
       1       1       8       1       1       8       1       1       8       1
       1       8       1       1       8       1       1       8       1       1
       8       1       1       8       1       1       8       1       1       8
       1       1       8       1       1       8       1       1       8       1
       1       8       1       1       8       1       1       8       1       1
       8       1       1       8       1       1       8       1       1       8
       1       1       8       1       1       8       1       1       8       1
       1       8       1       1       8       1       1       8       1       1
       8       1       1       8       1       1       8       1       1       8
       1       1       8       1       1       8       1       1       8       1
       1       8       1       1       8       1       1       8       1       1
       8       1       1       8       1       1       8       1       1       8
       1       1       8       1       1       8       1       1       8       1
       1       8       1       1       8       1       1       8       1       1
       8       1       1       8       1       1       8       1       1       8
       1       1       8       1       1       8       1       1       8       1
       1       8       1       1       8       1       1       8       1       1
       8       1       1       8       1       1       8       1       1       8
       1       1       8       1       1       8       1       1       8       1
       1       8       1       1       8       1       1       8       1       1
       8       1       1       8       1       1       8       1       1       8
       1       1       8       1       1       8       1       1       8       1
       1       8       1       1       8       1       1       8       1       1
       8       1       1       8       1       1       8       1       1       8
       1       1       8       1       1       8       1       1       8       1
       1       8       1       1       8       1       1       8       1       1
       8       1       1       8       1       1       8       1       1       8
       1       1       8       1       1       8       1       1       8       1
       1       8       1       1       8       1       1       8       1       1
       8       1       1       8       1       1       8       1       1       8
       1       1       8       1       1       8       1       1       8       1
       1       8       1       1       8       1       1       8       1       1
       8       1       1       8       1       1       8       1       1       8
       1       1       8       1       1       8       1       1       8       1
       1       8       1       1       8       1       1       8       1       1
       8       1       1       8       1       1       8       1       1       8
       1       1       8       1       1       8       1       1       8       1
       1       8       1       1       8       1       1       8       1       1
       8       1       1       8       1       1       8       1       1       8
       1       1       8       1       1       8       1       1       8       1
       1       8       1       1       8       1       1       8       1       1
       8       1       1       8       1       1       8       1       1       8
       1       1       8       1       1       8       1       1       8       1
       1       8       1       1       8       1       1       8       1       1
       8       1       1       8       1       1       8       1       1       8
       1       1       8       1       1       8       1       1       8       1
       1       8       1       1       8       1       1       8       1       1
       8       1       1       8       1       1       8       1       1       8
       1       1       8       1       1       8       1       1       8       1
       1       8       1       1       8       1       1       8       1       1
       8       1       1       8       1       1       8       1       1       8
       1       1       8       1       1       8       1       1       8       1
       1       8       1       1       8       1       1       8       1       1
       8       1       1       8       1       1       8       1       1       8
       1       1       8       1       1       8       1       1       8       1
       1       8       1       1       8       1       1       8       1       1
       8       1       1       8       1       1       8       1       1       8
       1       1       8       1       1       8       1       1       8       1
       1       8       1       1       8       1       1       8       1       1
       8       1       1       8       1       1       8       1       1       8
       1       1       8       1       1       8       1       1       8       1
       1       8       1       1       8       1       1       8       1       1
       8       1       1       8       1       1       8       1       1       8
       1       1       8       1       1       8       1       1       8       1
       1       8       1       1       8       1       1       8       1       1
       8       1       1       8       1       1       8       1       1       8
       1       1       8       1       1       8       1       1       8       1
       1       8       1       1       8       1       1       8       1       1
       8       1       1       8       1       1       8       1       1       8
       1       1       8       1       1       8       1       1       8       1
       1       8       1       1       8       1       1       8       1       1
       8       1       1       8       1       1       8       1       1       8
       1       1       8       1       1       8       1       1       8       1
       1       8       1       1       8       1       1       8       1       1
       8       1       1       8       1       1       8       1       1       8
       1       1       8       1       1       8       1       1       8       1
       1       8       1       1       8       1       1       8       1       1
       8       1       1       8       1       1       8       1       1       8
       1       1       8       1       1       8       1       1       8       1
       1       8       1       1       8       1       1       8       1       1
       8       1       1       8       1       1       8       1       1       8
       1       1       8       1       1       8       1       1       8       1
       1       8       1       1       8       1       1       8       1       1
       8       1       1       8       1       1       8       1       1       8
       1       1       8       1       1       8       1       1       8       1
       1       8       1       1       8       1       1       8       1       1
       8       1       1       8       1       1       8       1       1       8
       1       1       8       1       1       8       1       1       8       1
       1       8       1       1       8       1       1       8       1       1
       8       1       1       8       1       1       8       1       1       8
       1       1       8       1       1       8       1       1       8       1
       1       8       1       1       8       1       1       8       1       1
       8       1       1       8       1       1       8       1       1       8
       1       1       8       1       1       8       1       1       8       1
       1       8       1       1       8       1       1       8       1       1
       8       1       1       8       1       1       8       1       1       8
       1       1       8       1       1       8       1       1       8       1
       1       8       1       1       8       1       1       8       1       1
       8       1       1       8       1       1       8       1       1       8
       1       1       8       1       1       8       1       1       8       1
       1       8       1       1       8       1       1       8       1       1
       8       1       1       8       1       1       8       1       1       8
       1       1       8       1       1       8       1       1       8       1
       1       8       1       1       8       1       1       8       1       1
       8       1       1       8       1       1       8       1       1       8
       1       1       8       1       1       8       1       1       8       1
       1       8       1       1       8       1       1       8       1       1
       8       1       1       8       1       1       8       1       1       8
       1       1       8       1       1       8       1       1       8       1
       1       8       1       1       8       1       1       8       1       1
       8       1       1       8       1       1       8       1       1       8
       1       1       8       1       1       8       1       1       8       1
       1       8       1       1       8       1       1       8       1       1
       8       1       1       8       1       1       8       1       1       8
       1       1       8       1       1       8       1       1       8       1
       1       8       1       1       8       1       1       8       1       1
       8       1       1       8       1       1       8       1       1       8
       1       1       8       1       1       8       1       1       8       1
       1       8       1       1       8       1       1       8       1       1
       8       1       1       8       1       1       8       1       1       8
       1       1       8       1       1       8       1       1       8       1
       1       8       1       1       8       1       1       8       1       1
       8       1       1       8       1       1       8       1       1       8
       1       1       8       1       1       8       1       1       8       1
       1       8       1       1       8       1       1       8       1       1
       8       1       1       8       1       1       8       1       1       8
       1       1       8       1       1       8       1       1       8       1
       1       8       1       1       8       1       1       8       1       1
       8       1       1       8       1       1       8       1       1       8
       1       1       8       1       1       8       1       1       8       1
       1       8       1       1       8       1       1       8       1       1
       8       1       1       8       1       1       8       1       1       8
       1       1       8       1       1       8       1       1       8       1
       1       8       1       1       8       1       1       8       1       1
       8       1       1       8       1       1       8       1       1       8
       1       1       8       1       1       8       1       1       8       1
       1       8       1       1       8       1       1       8       1       1
       8       1       1       8       1       1       8       1       1       8
       1       1       8       1       1       8       1       1       8       1
       1       8       1       1       8       1       1       8       1       1
       8       1       1       8       1       1       8       1       1       8
       1       1       8       1       1       8       1       1       8       1
       1       8       1       1       8       1       1       8       1       1
       8       1       1       8       1       1       8       1       1       8
       1       1       8       1       1
%FLAG MASS                                                                      
%FORMAT(5E16.8)                                                                 
  1.20100000E+01  1.20100000E+01  1.20100000E+01  1.20100000E+01  1.20100000E+01
  1.20100000E+01  1.20100000E+01  1.20100000E+01  1.20100000E+01  1.20100000E+01
  1.20100000E+01  1.20100000E+01  1.20100000E+01  1.20100000E+01  1.20100000E+01
  1.20100000E+01  1.00800000E+00  1.00800000E+00  1.00800000E+00  1.00800000E+00
  1.00800000E+00  1.00800000E+00  1.00800000E+00  1.00800000E+00  1.00800000E+00
  1.00800000E+00  1.20100000E+01  1.00800000E+00  1.00800000E+00  1.60000000E+01
  1.20100000E+01  1.20100000E+01  1.00800000E+00  1.20100000E+01  1.20100000E+01
  1.20100000E+01  1.20100000E+01  1.20100000E+01  1.20100000E+01  1.00800000E+00
  1.40100000E+01  1.20100000E+01  1.20100000E+01  1.20100000E+01  1.20100000E+01
  1.60000000E+01  1.20100000E+01  1.20100000E+01  1.60000000E+01  1.20100000E+01
  1.20100000E+01  1.60000000E+01  1.60000000E+01  1.20100000E+01  1.60000000E+01
  1.20100000E+01  1.60000000E+01  1.20100000E+01  1.60000000E+01  1.00800000E+00
  1.00800000E+00  1.00800000E+00  1.00800000E+00  1.00800000E+00  1.00800000E+00
  1.00800000E+00  1.00800000E+00  1.00800000E+00  1.00800000E+00  1.00800000E+00
  1.00800000E+00  1.00800000E+00  1.00800000E+00  1.00800000E+00  1.00800000E+00
  1.00800000E+00  1.00800000E+00  1.00800000E+00  1.00800000E+00  1.00800000E+00
  1.00800000E+00  1.00800000E+00  1.00800000E+00  1.00800000E+00  1.60000000E+01
  1.20100000E+01  1.20100000E+01  1.00800000E+00  1.20100000E+01  1.20100000E+01
  1.20100000E+01  1.20100000E+01  1.20100000E+01  1.20100000E+01  1.00800000E+00
  1.40100000E+01  1.20100000E+01  1.20100000E+01  1.20100000E+01  1.20100000E+01
  1.60000000E+01  1.20100000E+01  1.20100000E+01  1.60000000E+01  1.20100000E+01
  1.20100000E+01  1.60000000E+01  1.60000000E+01  1.20100000E+01  1.60000000E+01
  1.20100000E+01  1.60000000E+01  1.20100000E+01  1.60000000E+01  1.00800000E+00
  1.00800000E+00  1.00800000E+00  1.00800000E+00  1.00800000E+00  1.00800000E+00
  1.00800000E+00  1.00800000E+00  1.00800000E+00  1.00800000E+00  1.00800000E+00
  1.00800000E+00  1.00800000E+00  1.00800000E+00  1.00800000E+00  1.00800000E+00
  1.00800000E+00  1.00800000E+00  1.00800000E+00  1.00800000E+00  1.00800000E+00
  1.00800000E+00  1.00800000E+00  1.00800000E+00  1.00800000E+00  1.60000000E+01
  1.20100000E+01  1.20100000E+01  1.00800000E+00  1.20100000E+01  1.20100000E+01
  1.20100000E+01  1.20100000E+01  1.20100000E+01  1.20100000E+01  1.00800000E+00
  1.40100000E+01  1.20100000E+01  1.20100000E+01  1.20100000E+01  1.20100000E+01
  1.60000000E+01  1.20100000E+01  1.20100000E+01  1.60000000E+01  1.20100000E+01
  1.20100000E+01  1.60000000E+01  1.60000000E+01  1.20100000E+01  1.60000000E+01
  1.20100000E+01  1.60000000E+01  1.20100000E+01  1.60000000E+01  1.00800000E+00
  1.00800000E+00  1.00800000E+00  1.00800000E+00  1.00800000E+00  1.00800000E+00
  1.00800000E+00  1.00800000E+00  1.00800000E+00  1.00800000E+00  1.00800000E+00
  1.00800000E+00  1.00800000E+00  1.00800000E+00  1.00800000E+00  1.00800000E+00
  1.00800000E+00  1.00800000E+00  1.00800000E+00  1.00800000E+00  1.00800000E+00
  1.00800000E+00  1.00800000E+00  1.00800000E+00  1.00800000E+00  1.60000000E+01
  1.20100000E+01  1.20100000E+01  1.00800000E+00  1.20100000E+01  1.20100000E+01
  1.20100000E+01  1.20100000E+01  1.20100000E+01  1.20100000E+01  1.00800000E+00
  1.40100000E+01  1.20100000E+01  1.20100000E+01  1.20100000E+01  1.20100000E+01
  1.60000000E+01  1.20100000E+01  1.20100000E+01  1.60000000E+01  1.20100000E+01
  1.20100000E+01  1.60000000E+01  1.60000000E+01  1.20100000E+01  1.60000000E+01
  1.20100000E+01  1.60000000E+01  1.20100000E+01  1.60000000E+01  1.00800000E+00
  1.00800000E+00  1.00800000E+00  1.00800000E+00  1.00800000E+00  1.00800000E+00
  1.00800000E+00  1.00800000E+00  1.00800000E+00  1.00800000E+00  1.00800000E+00
  1.00800000E+00  1.00800000E+00  1.00800000E+00  1.00800000E+00  1.00800000E+00
  1.00800000E+00  1.00800000E+00  1.00800000E+00  1.00800000E+00  1.00800000E+00
  1.00800000E+00  1.00800000E+00  1.00800000E+00  1.00800000E+00  1.60000000E+01
  1.20100000E+01  1.20100000E+01  1.00800000E+00  1.20100000E+01  1.20100000E+01
  1.20100000E+01  1.20100000E+01  1.20100000E+01  1.20100000E+01  1.00800000E+00
  1.40100000E+01  1.20100000E+01  1.20100000E+01  1.20100000E+01  1.20100000E+01
  1.60000000E+01  1.20100000E+01  1.20100000E+01  1.60000000E+01  1.20100000E+01
  1.20100000E+01  1.60000000E+01  1.60000000E+01  1.20100000E+01  1.60000000E+01
  1.20100000E+01  1.60000000E+01  1.20100000E+01  1.60000000E+01  1.00800000E+00
  1.00800000E+00  1.00800000E+00  1.00800000E+00  1.00800000E+00  1.00800000E+00
  1.00800000E+00  1.00800000E+00  1.00800000E+00  1.00800000E+00  1.00800000E+00
  1.00800000E+00  1.00800000E+00  1.00800000E+00  1.00800000E+00  1.00800000E+00
  1.00800000E+00  1.00800000E+00  1.00800000E+00  1.00800000E+00  1.00800000E+00
  1.00800000E+00  1.00800000E+00  1.00800000E+00  1.00800000E+00  1.60000000E+01
  1.20100000E+01  1.20100000E+01  1.00800000E+00  1.20100000E+01  1.20100000E+01
  1.20100000E+01  1.20100000E+01  1.20100000E+01  1.20100000E+01  1.00800000E+00
  1.40100000E+01  1.20100000E+01  1.20100000E+01  1.20100000E+01  1.20100000E+01
  1.60000000E+01  1.20100000E+01  1.20100000E+01  1.60000000E+01  1.20100000E+01
  1.20100000E+01  1.60000000E+01  1.60000000E+01  1.20100000E+01  1.60000000E+01
  1.20100000E+01  1.60000000E+01  1.20100000E+01  1.60000000E+01  1.00800000E+00
  1.00800000E+00  1.00800000E+00  1.00800000E+00  1.00800000E+00  1.00800000E+00
  1.00800000E+00  1.00800000E+00  1.00800000E+00  1.00800000E+00  1.00800000E+00
  1.00800000E+00  1.00800000E+00  1.00800000E+00  1.00800000E+00  1.00800000E+00
  1.00800000E+00  1.00800000E+00  1.00800000E+00  1.00800000E+00  1.00800000E+00
  1.00800000E+00  1.00800000E+00  1.00800000E+00  1.00800000E+00  1.60000000E+01
  1.20100000E+01  1.20100000E+01  1.00800000E+00  1.20100000E+01  1.20100000E+01
  1.20100000E+01  1.20100000E+01  1.20100000E+01  1.20100000E+01  1.00800000E+00
  1.40100000E+01  1.20100000E+01  1.20100000E+01  1.20100000E+01  1.20100000E+01
  1.60000000E+01  1.20100000E+01  1.20100000E+01  1.60000000E+01  1.20100000E+01
  1.20100000E+01  1.60000000E+01  1.60000000E+01  1.20100000E+01  1.60000000E+01
  1.20100000E+01  1.60000000E+01  1.20100000E+01  1.60000000E+01  1.00800000E+00
  1.00800000E+00  1.00800000E+00  1.00800000E+00  1.00800000E+00  1.00800000E+00
  1.00800000E+00  1.00800000E+00  1.00800000E+00  1.00800000E+00  1.00800000E+00
  1.00800000E+00  1.00800000E+00  1.00800000E+00  1.00800000E+00  1.00800000E+00
  1.00800000E+00  1.00800000E+00  1.00800000E+00  1.00800000E+00  1.00800000E+00
  1.00800000E+00  1.00800000E+00  1.00800000E+00  1.00800000E+00  1.60000000E+01
  1.20100000E+01  1.20100000E+01  1.00800000E+00  1.20100000E+01  1.20100000E+01
  1.20100000E+01  1.20100000E+01  1.20100000E+01  1.20100000E+01  1.00800000E+00
  1.40100000E+01  1.20100000E+01  1.20100000E+01  1.20100000E+01  1.20100000E+01
  1.60000000E+01  1.20100000E+01  1.20100000E+01  1.60000000E+01  1.20100000E+01
  1.20100000E+01  1.60000000E+01  1.60000000E+01  1.20100000E+01  1.60000000E+01
  1.20100000E+01  1.60000000E+01  1.20100000E+01  1.60000000E+01  1.00800000E+00
  1.00800000E+00  1.00800000E+00  1.00800000E+00  1.00800000E+00  1.00800000E+00
  1.00800000E+00  1.00800000E+00  1.00800000E+00  1.00800000E+00  1.00800000E+00
  1.00800000E+00  1.00800000E+00  1.00800000E+00  1.00800000E+00  1.00800000E+00
  1.00800000E+00  1.00800000E+00  1.00800000E+00  1.00800000E+00  1.00800000E+00
  1.00800000E+00  1.00800000E+00  1.00800000E+00  1.00800000E+00  1.60000000E+01
  1.20100000E+01  1.20100000E+01  1.00800000E+00  1.20100000E+01  1.20100000E+01
  1.20100000E+01  1.20100000E+01  1.20100000E+01  1.20100000E+01  1.00800000E+00
  1.40100000E+01  1.20100000E+01  1.20100000E+01  1.20100000E+01  1.20100000E+01
  1.60000000E+01  1.20100000E+01  1.20100000E+01  1.60000000E+01  1.20100000E+01
  1.20100000E+01  1.60000000E+01  1.60000000E+01  1.20100000E+01  1.60000000E+01
  1.20100000E+01  1.60000000E+01  1.20100000E+01  1.60000000E+01  1.00800000E+00
  1.00800000E+00  1.00800000E+00  1.00800000E+00  1.00800000E+00  1.00800000E+00
  1.00800000E+00  1.00800000E+00  1.00800000E+00  1.00800000E+00  1.00800000E+00
  1.00800000E+00  1.00800000E+00  1.00800000E+00  1.00800000E+00  1.00800000E+00
  1.00800000E+00  1.00800000E+00  1.00800000E+00  1.00800000E+00  1.00800000E+00
  1.00800000E+00  1.00800000E+00  1.00800000E+00  1.00800000E+00  1.60000000E+01
  1.20100000E+01  1.20100000E+01  1.00800000E+00  1.20100000E+01  1.20100000E+01
  1.20100000E+01  1.20100000E+01  1.20100000E+01  1.20100000E+01  1.00800000E+00
  1.40100000E+01  1.20100000E+01  1.20100000E+01  1.20100000E+01  1.20100000E+01
  1.60000000E+01  1.20100000E+01  1.20100000E+01  1.60000000E+01  1.20100000E+01
  1.20100000E+01  1.60000000E+01  1.60000000E+01  1.20100000E+01  1.60000000E+01
  1.20100000E+01  1.60000000E+01  1.20100000E+01  1.60000000E+01  1.00800000E+00
  1.00800000E+00  1.00800000E+00  1.00800000E+00  1.00800000E+00  1.00800000E+00
  1.00800000E+00  1.00800000E+00  1.00800000E+00  1.00800000E+00  1.00800000E+00
  1.00800000E+00  1.00800000E+00  1.00800000E+00  1.00800000E+00  1.00800000E+00
  1.00800000E+00  1.00800000E+00  1.00800000E+00  1.00800000E+00  1.00800000E+00
  1.00800000E+00  1.00800000E+00  1.00800000E+00  1.00800000E+00  1.20100000E+01
  1.00800000E+00  1.00800000E+00  1.20100000E+01  1.00800000E+00  1.00800000E+00
  1.60000000E+01  1.20100000E+01  1.20100000E+01  1.00800000E+00  1.20100000E+01
  1.20100000E+01  1.20100000E+01  1.20100000E+01  1.20100000E+01  1.20100000E+01
  1.00800000E+00  1.40100000E+01  1.20100000E+01  1.20100000E+01  1.20100000E+01
  1.20100000E+01  1.60000000E+01  1.20100000E+01  1.20100000E+01  1.60000000E+01
  1.20100000E+01  1.20100000E+01  1.60000000E+01  1.60000000E+01  1.20100000E+01
  1.60000000E+01  1.20100000E+01  1.60000000E+01  1.20100000E+01  1.60000000E+01
  1.00800000E+00  1.00800000E+00  1.00800000E+00  1.00800000E+00  1.00800000E+00
  1.00800000E+00  1.00800000E+00  1.00800000E+00  1.00800000E+00  1.00800000E+00
  1.00800000E+00  1.00800000E+00  1.00800000E+00  1.00800000E+00  1.00800000E+00
  1.00800000E+00  1.00800000E+00  1.00800000E+00  1.00800000E+00  1.00800000E+00
  1.00800000E+00  1.00800000E+00  1.00800000E+00  1.00800000E+00  1.00800000E+00
  1.60000000E+01  1.20100000E+01  1.20100000E+01  1.00800000E+00  1.20100000E+01
  1.20100000E+01  1.20100000E+01  1.20100000E+01  1.20100000E+01  1.20100000E+01
  1.00800000E+00  1.40100000E+01  1.20100000E+01  1.20100000E+01  1.20100000E+01
  1.20100000E+01  1.60000000E+01  1.20100000E+01  1.20100000E+01  1.60000000E+01
  1.20100000E+01  1.20100000E+01  1.60000000E+01  1.60000000E+01  1.20100000E+01
  1.60000000E+01  1.20100000E+01  1.60000000E+01  1.20100000E+01  1.60000000E+01
  1.00800000E+00  1.00800000E+00  1.00800000E+00  1.00800000E+00  1.00800000E+00
  1.00800000E+00  1.00800000E+00  1.00800000E+00  1.00800000E+00  1.00800000E+00
  1.00800000E+00  1.00800000E+00  1.00800000E+00  1.00800000E+00  1.00800000E+00
  1.00800000E+00  1.00800000E+00  1.00800000E+00  1.00800000E+00  1.00800000E+00
  1.00800000E+00  1.00800000E+00  1.00800000E+00  1.00800000E+00  1.00800000E+00
  1.60000000E+01  1.20100000E+01  1.20100000E+01  1.00800000E+00  1.20100000E+01
  1.20100000E+01  1.20100000E+01  1.20100000E+01  1.20100000E+01  1.20100000E+01
  1.00800000E+00  1.40100000E+01  1.20100000E+01  1.20100000E+01  1.20100000E+01
  1.20100000E+01  1.60000000E+01  1.20100000E+01  1.20100000E+01  1.60000000E+01
  1.20100000E+01  1.20100000E+01  1.60000000E+01  1.60000000E+01  1.20100000E+01
  1.60000000E+01  1.20100000E+01  1.60000000E+01  1.20100000E+01  1.60000000E+01
  1.00800000E+00  1.00800000E+00  1.00800000E+00  1.00800000E+00  1.00800000E+00
  1.00800000E+00  1.00800000E+00  1.00800000E+00  1.00800000E+00  1.00800000E+00
  1.00800000E+00  1.00800000E+00  1.00800000E+00  1.00800000E+00  1.00800000E+00
  1.00800000E+00  1.00800000E+00  1.00800000E+00  1.00800000E+00  1.00800000E+00
  1.00800000E+00  1.00800000E+00  1.00800000E+00  1.00800000E+00  1.00800000E+00
  1.60000000E+01  1.20100000E+01  1.20100000E+01  1.00800000E+00  1.20100000E+01
  1.20100000E+01  1.20100000E+01  1.20100000E+01  1.20100000E+01  1.20100000E+01
  1.00800000E+00  1.40100000E+01  1.20100000E+01  1.20100000E+01  1.20100000E+01
  1.20100000E+01  1.60000000E+01  1.20100000E+01  1.20100000E+01  1.60000000E+01
  1.20100000E+01  1.20100000E+01  1.60000000E+01  1.60000000E+01  1.20100000E+01
  1.60000000E+01  1.20100000E+01  1.60000000E+01  1.20100000E+01  1.60000000E+01
  1.00800000E+00  1.00800000E+00  1.00800000E+00  1.00800000E+00  1.00800000E+00
  1.00800000E+00  1.00800000E+00  1.00800000E+00  1.00800000E+00  1.00800000E+00
  1.00800000E+00  1.00800000E+00  1.00800000E+00  1.00800000E+00  1.00800000E+00
  1.00800000E+00  1.00800000E+00  1.00800000E+00  1.00800000E+00  1.00800000E+00
  1.00800000E+00  1.00800000E+00  1.00800000E+00  1.00800000E+00  1.00800000E+00
  1.60000000E+01  1.20100000E+01  1.20100000E+01  1.00800000E+00  1.20100000E+01
  1.20100000E+01  1.20100000E+01  1.20100000E+01  1.20100000E+01  1.20100000E+01
  1.00800000E+00  1.40100000E+01  1.20100000E+01  1.20100000E+01  1.20100000E+01
  1.20100000E+01  1.60000000E+01  1.20100000E+01  1.20100000E+01  1.60000000E+01
  1.20100000E+01  1.20100000E+01  1.60000000E+01  1.60000000E+01  1.20100000E+01
  1.60000000E+01  1.20100000E+01  1.60000000E+01  1.20100000E+01  1.60000000E+01
  1.00800000E+00  1.00800000E+00  1.00800000E+00  1.00800000E+00  1.00800000E+00
  1.00800000E+00  1.00800000E+00  1.00800000E+00  1.00800000E+00  1.00800000E+00
  1.00800000E+00  1.00800000E+00  1.00800000E+00  1.00800000E+00  1.00800000E+00
  1.00800000E+00  1.00800000E+00  1.00800000E+00  1.00800000E+00  1.00800000E+00
  1.00800000E+00  1.00800000E+00  1.00800000E+00  1.00800000E+00  1.00800000E+00
  1.60000000E+01  1.20100000E+01  1.20100000E+01  1.00800000E+00  1.20100000E+01
  1.20100000E+01  1.20100000E+01  1.20100000E+01  1.20100000E+01  1.20100000E+01
  1.00800000E+00  1.40100000E+01  1.20100000E+01  1.20100000E+01  1.20100000E+01
  1.20100000E+01  1.60000000E+01  1.20100000E+01  1.20100000E+01  1.60000000E+01
  1.20100000E+01  1.20100000E+01  1.60000000E+01  1.60000000E+01  1.20100000E+01
  1.60000000E+01  1.20100000E+01  1.60000000E+01  1.20100000E+01  1.60000000E+01
  1.00800000E+00  1.00800000E+00  1.00800000E+00  1.00800000E+00  1.00800000E+00
  1.00800000E+00  1.00800000E+00  1.00800000E+00  1.00800000E+00  1.00800000E+00
  1.00800000E+00  1.00800000E+00  1.00800000E+00  1.00800000E+00  1.00800000E+00
  1.00800000E+00  1.00800000E+00  1.00800000E+00  1.00800000E+00  1.00800000E+00
  1.00800000E+00  1.00800000E+00  1.00800000E+00  1.00800000E+00  1.00800000E+00
  1.60000000E+01  1.20100000E+01  1.20100000E+01  1.00800000E+00  1.20100000E+01
  1.20100000E+01  1.20100000E+01  1.20100000E+01  1.20100000E+01  1.20100000E+01
  1.00800000E+00  1.40100000E+01  1.20100000E+01  1.20100000E+01  1.20100000E+01
  1.20100000E+01  1.60000000E+01  1.20100000E+01  1.20100000E+01  1.60000000E+01
  1.20100000E+01  1.20100000E+01  1.60000000E+01  1.60000000E+01  1.20100000E+01
  1.60000000E+01  1.20100000E+01  1.60000000E+01  1.20100000E+01  1.60000000E+01
  1.00800000E+00  1.00800000E+00  1.00800000E+00  1.00800000E+00  1.00800000E+00
  1.00800000E+00  1.00800000E+00  1.00800000E+00  1.00800000E+00  1.00800000E+00
  1.00800000E+00  1.00800000E+00  1.00800000E+00  1.00800000E+00  1.00800000E+00
  1.00800000E+00  1.00800000E+00  1.00800000E+00  1.00800000E+00  1.00800000E+00
  1.00800000E+00  1.00800000E+00  1.00800000E+00  1.00800000E+00  1.00800000E+00
  1.60000000E+01  1.20100000E+01  1.20100000E+01  1.00800000E+00  1.20100000E+01
  1.20100000E+01  1.20100000E+01  1.20100000E+01  1.20100000E+01  1.20100000E+01
  1.00800000E+00  1.40100000E+01  1.20100000E+01  1.20100000E+01  1.20100000E+01
  1.20100000E+01  1.60000000E+01  1.20100000E+01  1.20100000E+01  1.60000000E+01
  1.20100000E+01  1.20100000E+01  1.60000000E+01  1.60000000E+01  1.20100000E+01
  1.60000000E+01  1.20100000E+01  1.60000000E+01  1.20100000E+01  1.60000000E+01
  1.00800000E+00  1.00800000E+00  1.00800000E+00  1.00800000E+00  1.00800000E+00
  1.00800000E+00  1.00800000E+00  1.00800000E+00  1.00800000E+00  1.00800000E+00
  1.00800000E+00  1.00800000E+00  1.00800000E+00  1.00800000E+00  1.00800000E+00
  1.00800000E+00  1.00800000E+00  1.00800000E+00  1.00800000E+00  1.00800000E+00
  1.00800000E+00  1.00800000E+00  1.00800000E+00  1.00800000E+00  1.00800000E+00
  1.60000000E+01  1.20100000E+01  1.20100000E+01  1.00800000E+00  1.20100000E+01
  1.20100000E+01  1.20100000E+01  1.20100000E+01  1.20100000E+01  1.20100000E+01
  1.00800000E+00  1.40100000E+01  1.20100000E+01  1.20100000E+01  1.20100000E+01
  1.20100000E+01  1.60000000E+01  1.20100000E+01  1.20100000E+01  1.60000000E+01
  1.20100000E+01  1.20100000E+01  1.60000000E+01  1.60000000E+01  1.20100000E+01
  1.60000000E+01  1.20100000E+01  1.60000000E+01  1.20100000E+01  1.60000000E+01
  1.00800000E+00  1.00800000E+00  1.00800000E+00  1.00800000E+00  1.00800000E+00
  1.00800000E+00  1.00800000E+00  1.00800000E+00  1.00800000E+00  1.00800000E+00
  1.00800000E+00  1.00800000E+00  1.00800000E+00  1.00800000E+00  1.00800000E+00
  1.00800000E+00  1.00800000E+00  1.00800000E+00  1.00800000E+00  1.00800000E+00
  1.00800000E+00  1.00800000E+00  1.00800000E+00  1.00800000E+00  1.00800000E+00
  1.60000000E+01  1.20100000E+01  1.20100000E+01  1.00800000E+00  1.20100000E+01
  1.20100000E+01  1.20100000E+01  1.20100000E+01  1.20100000E+01  1.20100000E+01
  1.00800000E+00  1.40100000E+01  1.20100000E+01  1.20100000E+01  1.20100000E+01
  1.20100000E+01  1.60000000E+01  1.20100000E+01  1.20100000E+01  1.60000000E+01
  1.20100000E+01  1.20100000E+01  1.60000000E+01  1.60000000E+01  1.20100000E+01
  1.60000000E+01  1.20100000E+01  1.60000000E+01  1.20100000E+01  1.60000000E+01
  1.00800000E+00  1.00800000E+00  1.00800000E+00  1.00800000E+00  1.00800000E+00
  1.00800000E+00  1.00800000E+00  1.00800000E+00  1.00800000E+00  1.00800000E+00
  1.00800000E+00  1.00800000E+00  1.00800000E+00  1.00800000E+00  1.00800000E+00
  1.00800000E+00  1.00800000E+00  1.00800000E+00  1.00800000E+00  1.00800000E+00
  1.00800000E+00  1.00800000E+00  1.00800000E+00  1.00800000E+00  1.00800000E+00
  1.20100000E+01  1.00800000E+00  1.00800000E+00  1.20100000E+01  1.00800000E+00
  1.00800000E+00  1.60000000E+01  1.20100000E+01  1.20100000E+01  1.00800000E+00
  1.20100000E+01  1.20100000E+01  1.20100000E+01  1.20100000E+01  1.20100000E+01
  1.20100000E+01  1.00800000E+00  1.40100000E+01  1.20100000E+01  1.20100000E+01
  1.20100000E+01  1.20100000E+01  1.60000000E+01  1.20100000E+01  1.20100000E+01
  1.60000000E+01  1.20100000E+01  1.20100000E+01  1.60000000E+01  1.60000000E+01
  1.20100000E+01  1.60000000E+01  1.20100000E+01  1.60000000E+01  1.20100000E+01
  1.60000000E+01  1.00800000E+00  1.00800000E+00  1.00800000E+00  1.00800000E+00
  1.00800000E+00  1.00800000E+00  1.00800000E+00  1.00800000E+00  1.00800000E+00
  1.00800000E+00  1.00800000E+00  1.00800000E+00  1.00800000E+00  1.00800000E+00
  1.00800000E+00  1.00800000E+00  1.00800000E+00  1.00800000E+00  1.00800000E+00
  1.00800000E+00  1.00800000E+00  1.00800000E+00  1.00800000E+00  1.00800000E+00
  1.00800000E+00  1.60000000E+01  1.20100000E+01  1.20100000E+01  1.00800000E+00
  1.20100000E+01  1.20100000E+01  1.20100000E+01  1.20100000E+01  1.20100000E+01
  1.20100000E+01  1.00800000E+00  1.40100000E+01  1.20100000E+01  1.20100000E+01
  1.20100000E+01  1.20100000E+01  1.60000000E+01  1.20100000E+01  1.20100000E+01
  1.60000000E+01  1.20100000E+01  1.20100000E+01  1.60000000E+01  1.60000000E+01
  1.20100000E+01  1.60000000E+01  1.20100000E+01  1.60000000E+01  1.20100000E+01
  1.60000000E+01  1.00800000E+00  1.00800000E+00  1.00800000E+00  1.00800000E+00
  1.00800000E+00  1.00800000E+00  1.00800000E+00  1.00800000E+00  1.00800000E+00
  1.00800000E+00  1.00800000E+00  1.00800000E+00  1.00800000E+00  1.00800000E+00
  1.00800000E+00  1.00800000E+00  1.00800000E+00  1.00800000E+00  1.00800000E+00
  1.00800000E+00  1.00800000E+00  1.00800000E+00  1.00800000E+00  1.00800000E+00
  1.00800000E+00  1.60000000E+01  1.20100000E+01  1.20100000E+01  1.00800000E+00
  1.20100000E+01  1.20100000E+01  1.20100000E+01  1.20100000E+01  1.20100000E+01
  1.20100000E+01  1.00800000E+00  1.40100000E+01  1.20100000E+01  1.20100000E+01
  1.20100000E+01  1.20100000E+01  1.60000000E+01  1.20100000E+01  1.20100000E+01
  1.60000000E+01  1.20100000E+01  1.20100000E+01  1.60000000E+01  1.60000000E+01
  1.20100000E+01  1.60000000E+01  1.20100000E+01  1.60000000E+01  1.20100000E+01
  1.60000000E+01  1.00800000E+00  1.00800000E+00  1.00800000E+00  1.00800000E+00
  1.00800000E+00  1.00800000E+00  1.00800000E+00  1.00800000E+00  1.00800000E+00
  1.00800000E+00  1.00800000E+00  1.00800000E+00  1.00800000E+00  1.00800000E+00
  1.00800000E+00  1.00800000E+00  1.00800000E+00  1.00800000E+00  1.00800000E+00
  1.00800000E+00  1.00800000E+00  1.00800000E+00  1.00800000E+00  1.00800000E+00
  1.00800000E+00  1.60000000E+01  1.20100000E+01  1.20100000E+01  1.00800000E+00
  1.20100000E+01  1.20100000E+01  1.20100000E+01  1.20100000E+01  1.20100000E+01
  1.20100000E+01  1.00800000E+00  1.40100000E+01  1.20100000E+01  1.20100000E+01
  1.20100000E+01  1.20100000E+01  1.60000000E+01  1.20100000E+01  1.20100000E+01
  1.60000000E+01  1.20100000E+01  1.20100000E+01  1.60000000E+01  1.60000000E+01
  1.20100000E+01  1.60000000E+01  1.20100000E+01  1.60000000E+01  1.20100000E+01
  1.60000000E+01  1.00800000E+00  1.00800000E+00  1.00800000E+00  1.00800000E+00
  1.00800000E+00  1.00800000E+00  1.00800000E+00  1.00800000E+00  1.00800000E+00
  1.00800000E+00  1.00800000E+00  1.00800000E+00  1.00800000E+00  1.00800000E+00
  1.00800000E+00  1.00800000E+00  1.00800000E+00  1.00800000E+00  1.00800000E+00
  1.00800000E+00  1.00800000E+00  1.00800000E+00  1.00800000E+00  1.00800000E+00
  1.00800000E+00  1.60000000E+01  1.20100000E+01  1.20100000E+01  1.00800000E+00
  1.20100000E+01  1.20100000E+01  1.20100000E+01  1.20100000E+01  1.20100000E+01
  1.20100000E+01  1.00800000E+00  1.40100000E+01  1.20100000E+01  1.20100000E+01
  1.20100000E+01  1.20100000E+01  1.60000000E+01  1.20100000E+01  1.20100000E+01
  1.60000000E+01  1.20100000E+01  1.20100000E+01  1.60000000E+01  1.60000000E+01
  1.20100000E+01  1.60000000E+01  1.20100000E+01  1.60000000E+01  1.20100000E+01
  1.60000000E+01  1.00800000E+00  1.00800000E+00  1.00800000E+00  1.00800000E+00
  1.00800000E+00  1.00800000E+00  1.00800000E+00  1.00800000E+00  1.00800000E+00
  1.00800000E+00  1.00800000E+00  1.00800000E+00  1.00800000E+00  1.00800000E+00
  1.00800000E+00  1.00800000E+00  1.00800000E+00  1.00800000E+00  1.00800000E+00
  1.00800000E+00  1.00800000E+00  1.00800000E+00  1.00800000E+00  1.00800000E+00
  1.00800000E+00  1.60000000E+01  1.20100000E+01  1.20100000E+01  1.00800000E+00
  1.20100000E+01  1.20100000E+01  1.20100000E+01  1.20100000E+01  1.20100000E+01
  1.20100000E+01  1.00800000E+00  1.40100000E+01  1.20100000E+01  1.20100000E+01
  1.20100000E+01  1.20100000E+01  1.60000000E+01  1.20100000E+01  1.20100000E+01
  1.60000000E+01  1.20100000E+01  1.20100000E+01  1.60000000E+01  1.60000000E+01
  1.20100000E+01  1.60000000E+01  1.20100000E+01  1.60000000E+01  1.20100000E+01
  1.60000000E+01  1.00800000E+00  1.00800000E+00  1.00800000E+00  1.00800000E+00
  1.00800000E+00  1.00800000E+00  1.00800000E+00  1.00800000E+00  1.00800000E+00
  1.00800000E+00  1.00800000E+00  1.00800000E+00  1.00800000E+00  1.00800000E+00
  1.00800000E+00  1.00800000E+00  1.00800000E+00  1.00800000E+00  1.00800000E+00
  1.00800000E+00  1.00800000E+00  1.00800000E+00  1.00800000E+00  1.00800000E+00
  1.00800000E+00  1.60000000E+01  1.20100000E+01  1.20100000E+01  1.00800000E+00
  1.20100000E+01  1.20100000E+01  1.20100000E+01  1.20100000E+01  1.20100000E+01
  1.20100000E+01  1.00800000E+00  1.40100000E+01  1.20100000E+01  1.20100000E+01
  1.20100000E+01  1.20100000E+01  1.60000000E+01  1.20100000E+01  1.20100000E+01
  1.60000000E+01  1.20100000E+01  1.20100000E+01  1.60000000E+01  1.60000000E+01
  1.20100000E+01  1.60000000E+01  1.20100000E+01  1.60000000E+01  1.20100000E+01
  1.60000000E+01  1.00800000E+00  1.00800000E+00  1.00800000E+00  1.00800000E+00
  1.00800000E+00  1.00800000E+00  1.00800000E+00  1.00800000E+00  1.00800000E+00
  1.00800000E+00  1.00800000E+00  1.00800000E+00  1.00800000E+00  1.00800000E+00
  1.00800000E+00  1.00800000E+00  1.00800000E+00  1.00800000E+00  1.00800000E+00
  1.00800000E+00  1.00800000E+00  1.00800000E+00  1.00800000E+00  1.00800000E+00
  1.00800000E+00  1.60000000E+01  1.20100000E+01  1.20100000E+01  1.00800000E+00
  1.20100000E+01  1.20100000E+01  1.20100000E+01  1.20100000E+01  1.20100000E+01
  1.20100000E+01  1.00800000E+00  1.40100000E+01  1.20100000E+01  1.20100000E+01
  1.20100000E+01  1.20100000E+01  1.60000000E+01  1.20100000E+01  1.20100000E+01
  1.60000000E+01  1.20100000E+01  1.20100000E+01  1.60000000E+01  1.60000000E+01
  1.20100000E+01  1.60000000E+01  1.20100000E+01  1.60000000E+01  1.20100000E+01
  1.60000000E+01  1.00800000E+00  1.00800000E+00  1.00800000E+00  1.00800000E+00
  1.00800000E+00  1.00800000E+00  1.00800000E+00  1.00800000E+00  1.00800000E+00
  1.00800000E+00  1.00800000E+00  1.00800000E+00  1.00800000E+00  1.00800000E+00
  1.00800000E+00  1.00800000E+00  1.00800000E+00  1.00800000E+00  1.00800000E+00
  1.00800000E+00  1.00800000E+00  1.00800000E+00  1.00800000E+00  1.00800000E+00
  1.00800000E+00  1.60000000E+01  1.20100000E+01  1.20100000E+01  1.00800000E+00
  1.20100000E+01  1.20100000E+01  1.20100000E+01  1.20100000E+01  1.20100000E+01
  1.20100000E+01  1.00800000E+00  1.40100000E+01  1.20100000E+01  1.20100000E+01
  1.20100000E+01  1.20100000E+01  1.60000000E+01  1.20100000E+01  1.20100000E+01
  1.60000000E+01  1.20100000E+01  1.20100000E+01  1.60000000E+01  1.60000000E+01
  1.20100000E+01  1.60000000E+01  1.20100000E+01  1.60000000E+01  1.20100000E+01
  1.60000000E+01  1.00800000E+00  1.00800000E+00  1.00800000E+00  1.00800000E+00
  1.00800000E+00  1.00800000E+00  1.00800000E+00  1.00800000E+00  1.00800000E+00
  1.00800000E+00  1.00800000E+00  1.00800000E+00  1.00800000E+00  1.00800000E+00
  1.00800000E+00  1.00800000E+00  1.00800000E+00  1.00800000E+00  1.00800000E+00
  1.00800000E+00  1.00800000E+00  1.00800000E+00  1.00800000E+00  1.00800000E+00
  1.00800000E+00  1.60000000E+01  1.20100000E+01  1.20100000E+01  1.00800000E+00
  1.20100000E+01  1.20100000E+01  1.20100000E+01  1.20100000E+01  1.20100000E+01
  1.20100000E+01  1.00800000E+00  1.40100000E+01  1.20100000E+01  1.20100000E+01
  1.20100000E+01  1.20100000E+01  1.60000000E+01  1.20100000E+01  1.20100000E+01
  1.60000000E+01  1.20100000E+01  1.20100000E+01  1.60000000E+01  1.60000000E+01
  1.20100000E+01  1.60000000E+01  1.20100000E+01  1.60000000E+01  1.20100000E+01
  1.60000000E+01  1.00800000E+00  1.00800000E+00  1.00800000E+00  1.00800000E+00
  1.00800000E+00  1.00800000E+00  1.00800000E+00  1.00800000E+00  1.00800000E+00
  1.00800000E+00  1.00800000E+00  1.00800000E+00  1.00800000E+00  1.00800000E+00
  1.00800000E+00  1.00800000E+00  1.00800000E+00  1.00800000E+00  1.00800000E+00
  1.00800000E+00  1.00800000E+00  1.00800000E+00  1.00800000E+00  1.00800000E+00
  1.00800000E+00  1.20100000E+01  1.00800000E+00  1.00800000E+00  1.20100000E+01
  1.00800000E+00  1.00800000E+00  1.60000000E+01  1.20100000E+01  1.20100000E+01
  1.00800000E+00  1.20100000E+01  1.20100000E+01  1.20100000E+01  1.20100000E+01
  1.20100000E+01  1.20100000E+01  1.00800000E+00  1.40100000E+01  1.20100000E+01
  1.20100000E+01  1.20100000E+01  1.20100000E+01  1.60000000E+01  1.20100000E+01
  1.20100000E+01  1.60000000E+01  1.20100000E+01  1.20100000E+01  1.60000000E+01
  1.60000000E+01  1.20100000E+01  1.60000000E+01  1.20100000E+01  1.60000000E+01
  1.20100000E+01  1.60000000E+01  1.00800000E+00  1.00800000E+00  1.00800000E+00
  1.00800000E+00  1.00800000E+00  1.00800000E+00  1.00800000E+00  1.00800000E+00
  1.00800000E+00  1.00800000E+00  1.00800000E+00  1.00800000E+00  1.00800000E+00
  1.00800000E+00  1.00800000E+00  1.00800000E+00  1.00800000E+00  1.00800000E+00
  1.00800000E+00  1.00800000E+00  1.00800000E+00  1.00800000E+00  1.00800000E+00
  1.00800000E+00  1.00800000E+00  1.60000000E+01  1.20100000E+01  1.20100000E+01
  1.00800000E+00  1.20100000E+01  1.20100000E+01  1.20100000E+01  1.20100000E+01
  1.20100000E+01  1.20100000E+01  1.00800000E+00  1.40100000E+01  1.20100000E+01
  1.20100000E+01  1.20100000E+01  1.20100000E+01  1.60000000E+01  1.20100000E+01
  1.20100000E+01  1.60000000E+01  1.20100000E+01  1.20100000E+01  1.60000000E+01
  1.60000000E+01  1.20100000E+01  1.60000000E+01  1.20100000E+01  1.60000000E+01
  1.20100000E+01  1.60000000E+01  1.00800000E+00  1.00800000E+00  1.00800000E+00
  1.00800000E+00  1.00800000E+00  1.00800000E+00  1.00800000E+00  1.00800000E+00
  1.00800000E+00  1.00800000E+00  1.00800000E+00  1.00800000E+00  1.00800000E+00
  1.00800000E+00  1.00800000E+00  1.00800000E+00  1.00800000E+00  1.00800000E+00
  1.00800000E+00  1.00800000E+00  1.00800000E+00  1.00800000E+00  1.00800000E+00
  1.00800000E+00  1.00800000E+00  1.60000000E+01  1.20100000E+01  1.20100000E+01
  1.00800000E+00  1.20100000E+01  1.20100000E+01  1.20100000E+01  1.20100000E+01
  1.20100000E+01  1.20100000E+01  1.00800000E+00  1.40100000E+01  1.20100000E+01
  1.20100000E+01  1.20100000E+01  1.20100000E+01  1.60000000E+01  1.20100000E+01
  1.20100000E+01  1.60000000E+01  1.20100000E+01  1.20100000E+01  1.60000000E+01
  1.60000000E+01  1.20100000E+01  1.60000000E+01  1.20100000E+01  1.60000000E+01
  1.20100000E+01  1.60000000E+01  1.00800000E+00  1.00800000E+00  1.00800000E+00
  1.00800000E+00  1.00800000E+00  1.00800000E+00  1.00800000E+00  1.00800000E+00
  1.00800000E+00  1.00800000E+00  1.00800000E+00  1.00800000E+00  1.00800000E+00
  1.00800000E+00  1.00800000E+00  1.00800000E+00  1.00800000E+00  1.00800000E+00
  1.00800000E+00  1.00800000E+00  1.00800000E+00  1.00800000E+00  1.00800000E+00
  1.00800000E+00  1.00800000E+00  1.60000000E+01  1.20100000E+01  1.20100000E+01
  1.00800000E+00  1.20100000E+01  1.20100000E+01  1.20100000E+01  1.20100000E+01
  1.20100000E+01  1.20100000E+01  1.00800000E+00  1.40100000E+01  1.20100000E+01
  1.20100000E+01  1.20100000E+01  1.20100000E+01  1.60000000E+01  1.20100000E+01
  1.20100000E+01  1.60000000E+01  1.20100000E+01  1.20100000E+01  1.60000000E+01
  1.60000000E+01  1.20100000E+01  1.60000000E+01  1.20100000E+01  1.60000000E+01
  1.20100000E+01  1.60000000E+01  1.00800000E+00  1.00800000E+00  1.00800000E+00
  1.00800000E+00  1.00800000E+00  1.00800000E+00  1.00800000E+00  1.00800000E+00
  1.00800000E+00  1.00800000E+00  1.00800000E+00  1.00800000E+00  1.00800000E+00
  1.00800000E+00  1.00800000E+00  1.00800000E+00  1.00800000E+00  1.00800000E+00
  1.00800000E+00  1.00800000E+00  1.00800000E+00  1.00800000E+00  1.00800000E+00
  1.00800000E+00  1.00800000E+00  1.60000000E+01  1.20100000E+01  1.20100000E+01
  1.00800000E+00  1.20100000E+01  1.20100000E+01  1.20100000E+01  1.20100000E+01
  1.20100000E+01  1.20100000E+01  1.00800000E+00  1.40100000E+01  1.20100000E+01
  1.20100000E+01  1.20100000E+01  1.20100000E+01  1.60000000E+01  1.20100000E+01
  1.20100000E+01  1.60000000E+01  1.20100000E+01  1.20100000E+01  1.60000000E+01
  1.60000000E+01  1.20100000E+01  1.60000000E+01  1.20100000E+01  1.60000000E+01
  1.20100000E+01  1.60000000E+01  1.00800000E+00  1.00800000E+00  1.00800000E+00
  1.00800000E+00  1.00800000E+00  1.00800000E+00  1.00800000E+00  1.00800000E+00
  1.00800000E+00  1.00800000E+00  1.00800000E+00  1.00800000E+00  1.00800000E+00
  1.00800000E+00  1.00800000E+00  1.00800000E+00  1.00800000E+00  1.00800000E+00
  1.00800000E+00  1.00800000E+00  1.00800000E+00  1.00800000E+00  1.00800000E+00
  1.00800000E+00  1.00800000E+00  1.60000000E+01  1.20100000E+01  1.20100000E+01
  1.00800000E+00  1.20100000E+01  1.20100000E+01  1.20100000E+01  1.20100000E+01
  1.20100000E+01  1.20100000E+01  1.00800000E+00  1.40100000E+01  1.20100000E+01
  1.20100000E+01  1.20100000E+01  1.20100000E+01  1.60000000E+01  1.20100000E+01
  1.20100000E+01  1.60000000E+01  1.20100000E+01  1.20100000E+01  1.60000000E+01
  1.60000000E+01  1.20100000E+01  1.60000000E+01  1.20100000E+01  1.60000000E+01
  1.20100000E+01  1.60000000E+01  1.00800000E+00  1.00800000E+00  1.00800000E+00
  1.00800000E+00  1.00800000E+00  1.00800000E+00  1.00800000E+00  1.00800000E+00
  1.00800000E+00  1.00800000E+00  1.00800000E+00  1.00800000E+00  1.00800000E+00
  1.00800000E+00  1.00800000E+00  1.00800000E+00  1.00800000E+00  1.00800000E+00
  1.00800000E+00  1.00800000E+00  1.00800000E+00  1.00800000E+00  1.00800000E+00
  1.00800000E+00  1.00800000E+00  1.60000000E+01  1.20100000E+01  1.20100000E+01
  1.00800000E+00  1.20100000E+01  1.20100000E+01  1.20100000E+01  1.20100000E+01
  1.20100000E+01  1.20100000E+01  1.00800000E+00  1.40100000E+01  1.20100000E+01
  1.20100000E+01  1.20100000E+01  1.20100000E+01  1.60000000E+01  1.20100000E+01
  1.20100000E+01  1.60000000E+01  1.20100000E+01  1.20100000E+01  1.60000000E+01
  1.60000000E+01  1.20100000E+01  1.60000000E+01  1.20100000E+01  1.60000000E+01
  1.20100000E+01  1.60000000E+01  1.00800000E+00  1.00800000E+00  1.00800000E+00
  1.00800000E+00  1.00800000E+00  1.00800000E+00  1.00800000E+00  1.00800000E+00
  1.00800000E+00  1.00800000E+00  1.00800000E+00  1.00800000E+00  1.00800000E+00
  1.00800000E+00  1.00800000E+00  1.00800000E+00  1.00800000E+00  1.00800000E+00
  1.00800000E+00  1.00800000E+00  1.00800000E+00  1.00800000E+00  1.00800000E+00
  1.00800000E+00  1.00800000E+00  1.60000000E+01  1.20100000E+01  1.20100000E+01
  1.00800000E+00  1.20100000E+01  1.20100000E+01  1.20100000E+01  1.20100000E+01
  1.20100000E+01  1.20100000E+01  1.00800000E+00  1.40100000E+01  1.20100000E+01
  1.20100000E+01  1.20100000E+01  1.20100000E+01  1.60000000E+01  1.20100000E+01
  1.20100000E+01  1.60000000E+01  1.20100000E+01  1.20100000E+01  1.60000000E+01
  1.60000000E+01  1.20100000E+01  1.60000000E+01  1.20100000E+01  1.60000000E+01
  1.20100000E+01  1.60000000E+01  1.00800000E+00  1.00800000E+00  1.00800000E+00
  1.00800000E+00  1.00800000E+00  1.00800000E+00  1.00800000E+00  1.00800000E+00
  1.00800000E+00  1.00800000E+00  1.00800000E+00  1.00800000E+00  1.00800000E+00
  1.00800000E+00  1.00800000E+00  1.00800000E+00  1.00800000E+00  1.00800000E+00
  1.00800000E+00  1.00800000E+00  1.00800000E+00  1.00800000E+00  1.00800000E+00
  1.00800000E+00  1.00800000E+00  1.60000000E+01  1.20100000E+01  1.20100000E+01
  1.00800000E+00  1.20100000E+01  1.20100000E+01  1.20100000E+01  1.20100000E+01
  1.20100000E+01  1.20100000E+01  1.00800000E+00  1.40100000E+01  1.20100000E+01
  1.20100000E+01  1.20100000E+01  1.20100000E+01  1.60000000E+01  1.20100000E+01
  1.20100000E+01  1.60000000E+01  1.20100000E+01  1.20100000E+01  1.60000000E+01
  1.60000000E+01  1.20100000E+01  1.60000000E+01  1.20100000E+01  1.60000000E+01
  1.20100000E+01  1.60000000E+01  1.00800000E+00  1.00800000E+00  1.00800000E+00
  1.00800000E+00  1.00800000E+00  1.00800000E+00  1.00800000E+00  1.00800000E+00
  1.00800000E+00  1.00800000E+00  1.00800000E+00  1.00800000E+00  1.00800000E+00
  1.00800000E+00  1.00800000E+00  1.00800000E+00  1.00800000E+00  1.00800000E+00
  1.00800000E+00  1.00800000E+00  1.00800000E+00  1.00800000E+00  1.00800000E+00
  1.00800000E+00  1.00800000E+00  1.60000000E+01  1.20100000E+01  1.20100000E+01
  1.00800000E+00  1.20100000E+01  1.20100000E+01  1.20100000E+01  1.20100000E+01
  1.20100000E+01  1.20100000E+01  1.00800000E+00  1.40100000E+01  1.20100000E+01
  1.20100000E+01  1.20100000E+01  1.20100000E+01  1.60000000E+01  1.20100000E+01
  1.20100000E+01  1.60000000E+01  1.20100000E+01  1.20100000E+01  1.60000000E+01
  1.60000000E+01  1.20100000E+01  1.60000000E+01  1.20100000E+01  1.60000000E+01
  1.20100000E+01  1.60000000E+01  1.00800000E+00  1.00800000E+00  1.00800000E+00
  1.00800000E+00  1.00800000E+00  1.00800000E+00  1.00800000E+00  1.00800000E+00
  1.00800000E+00  1.00800000E+00  1.00800000E+00  1.00800000E+00  1.00800000E+00
  1.00800000E+00  1.00800000E+00  1.00800000E+00  1.00800000E+00  1.00800000E+00
  1.00800000E+00  1.00800000E+00  1.00800000E+00  1.00800000E+00  1.00800000E+00
  1.00800000E+00  1.00800000E+00  1.20100000E+01  1.00800000E+00  1.00800000E+00
  1.60000000E+01  1.00800000E+00  1.00800000E+00  1.60000000E+01  1.00800000E+00
  1.00800000E+00  1.60000000E+01  1.00800000E+00  1.00800000E+00  1.60000000E+01
  1.00800000E+00  1.00800000E+00  1.60000000E+01  1.00800000E+00  1.00800000E+00
  1.60000000E+01  1.00800000E+00  1.00800000E+00  1.60000000E+01  1.00800000E+00
  1.00800000E+00  1.60000000E+01  1.00800000E+00  1.00800000E+00  1.60000000E+01
  1.00800000E+00  1.00800000E+00  1.60000000E+01  1.00800000E+00  1.00800000E+00
  1.60000000E+01  1.00800000E+00  1.00800000E+00  1.60000000E+01  1.00800000E+00
  1.00800000E+00  1.60000000E+01  1.00800000E+00  1.00800000E+00  1.60000000E+01
  1.00800000E+00  1.00800000E+00  1.60000000E+01  1.00800000E+00  1.00800000E+00
  1.60000000E+01  1.00800000E+00  1.00800000E+00  1.60000000E+01  1.00800000E+00
  1.00800000E+00  1.60000000E+01  1.00800000E+00  1.00800000E+00  1.60000000E+01
  1.00800000E+00  1.00800000E+00  1.60000000E+01  1.00800000E+00  1.00800000E+00
  1.60000000E+01  1.00800000E+00  1.00800000E+00  1.60000000E+01  1.00800000E+00
  1.00800000E+00  1.60000000E+01  1.00800000E+00  1.00800000E+00  1.60000000E+01
  1.00800000E+00  1.00800000E+00  1.60000000E+01  1.00800000E+00  1.00800000E+00
  1.60000000E+01  1.00800000E+00  1.00800000E+00  1.60000000E+01  1.00800000E+00
  1.00800000E+00  1.60000000E+01  1.00800000E+00  1.00800000E+00  1.60000000E+01
  1.00800000E+00  1.00800000E+00  1.60000000E+01  1.00800000E+00  1.00800000E+00
  1.60000000E+01  1.00800000E+00  1.00800000E+00  1.60000000E+01  1.00800000E+00
  1.00800000E+00  1.60000000E+01  1.00800000E+00  1.00800000E+00  1.60000000E+01
  1.00800000E+00  1.00800000E+00  1.60000000E+01  1.00800000E+00  1.00800000E+00
  1.60000000E+01  1.00800000E+00  1.00800000E+00  1.60000000E+01  1.00800000E+00
  1.00800000E+00  1.60000000E+01  1.00800000E+00  1.00800000E+00  1.60000000E+01
  1.00800000E+00  1.00800000E+00  1.60000000E+01  1.00800000E+00  1.00800000E+00
  1.60000000E+01  1.00800000E+00  1.00800000E+00  1.60000000E+01  1.00800000E+00
  1.00800000E+00  1.60000000E+01  1.00800000E+00  1.00800000E+00  1.60000000E+01
  1.00800000E+00  1.00800000E+00  1.60000000E+01  1.00800000E+00  1.00800000E+00
  1.60000000E+01  1.00800000E+00  1.00800000E+00  1.60000000E+01  1.00800000E+00
  1.00800000E+00  1.60000000E+01  1.00800000E+00  1.00800000E+00  1.60000000E+01
  1.00800000E+00  1.00800000E+00  1.60000000E+01  1.00800000E+00  1.00800000E+00
  1.60000000E+01  1.00800000E+00  1.00800000E+00  1.60000000E+01  1.00800000E+00
  1.00800000E+00  1.60000000E+01  1.00800000E+00  1.00800000E+00  1.60000000E+01
  1.00800000E+00  1.00800000E+00  1.60000000E+01  1.00800000E+00  1.00800000E+00
  1.60000000E+01  1.00800000E+00  1.00800000E+00  1.60000000E+01  1.00800000E+00
  1.00800000E+00  1.60000000E+01  1.00800000E+00  1.00800000E+00  1.60000000E+01
  1.00800000E+00  1.00800000E+00  1.60000000E+01  1.00800000E+00  1.00800000E+00
  1.60000000E+01  1.00800000E+00  1.00800000E+00  1.60000000E+01  1.00800000E+00
  1.00800000E+00  1.60000000E+01  1.00800000E+00  1.00800000E+00  1.60000000E+01
  1.00800000E+00  1.00800000E+00  1.60000000E+01  1.00800000E+00  1.00800000E+00
  1.60000000E+01  1.00800000E+00  1.00800000E+00  1.60000000E+01  1.00800000E+00
  1.00800000E+00  1.60000000E+01  1.00800000E+00  1.00800000E+00  1.60000000E+01
  1.00800000E+00  1.00800000E+00  1.60000000E+01  1.00800000E+00  1.00800000E+00
  1.60000000E+01  1.00800000E+00  1.00800000E+00  1.60000000E+01  1.00800000E+00
  1.00800000E+00  1.60000000E+01  1.00800000E+00  1.00800000E+00  1.60000000E+01
  1.00800000E+00  1.00800000E+00  1.60000000E+01  1.00800000E+00  1.00800000E+00
  1.60000000E+01  1.00800000E+00  1.00800000E+00  1.60000000E+01  1.00800000E+00
  1.00800000E+00  1.60000000E+01  1.00800000E+00  1.00800000E+00  1.60000000E+01
  1.00800000E+00  1.00800000E+00  1.60000000E+01  1.00800000E+00  1.00800000E+00
  1.60000000E+01  1.00800000E+00  1.00800000E+00  1.60000000E+01  1.00800000E+00
  1.00800000E+00  1.60000000E+01  1.00800000E+00  1.00800000E+00  1.60000000E+01
  1.00800000E+00  1.00800000E+00  1.60000000E+01  1.00800000E+00  1.00800000E+00
  1.60000000E+01  1.00800000E+00  1.00800000E+00  1.60000000E+01  1.00800000E+00
  1.00800000E+00  1.60000000E+01  1.00800000E+00  1.00800000E+00  1.60000000E+01
  1.00800000E+00  1.00800000E+00  1.60000000E+01  1.00800000E+00  1.00800000E+00
  1.60000000E+01  1.00800000E+00  1.00800000E+00  1.60000000E+01  1.00800000E+00
  1.00800000E+00  1.60000000E+01  1.00800000E+00  1.00800000E+00  1.60000000E+01
  1.00800000E+00  1.00800000E+00  1.60000000E+01  1.00800000E+00  1.00800000E+00
  1.60000000E+01  1.00800000E+00  1.00800000E+00  1.60000000E+01  1.00800000E+00
  1.00800000E+00  1.60000000E+01  1.00800000E+00  1.00800000E+00  1.60000000E+01
  1.00800000E+00  1.00800000E+00  1.60000000E+01  1.00800000E+00  1.00800000E+00
  1.60000000E+01  1.00800000E+00  1.00800000E+00  1.60000000E+01  1.00800000E+00
  1.00800000E+00  1.60000000E+01  1.00800000E+00  1.00800000E+00  1.60000000E+01
  1.00800000E+00  1.00800000E+00  1.60000000E+01  1.00800000E+00  1.00800000E+00
  1.60000000E+01  1.00800000E+00  1.00800000E+00  1.60000000E+01  1.00800000E+00
  1.00800000E+00  1.60000000E+01  1.00800000E+00  1.00800000E+00  1.60000000E+01
  1.00800000E+00  1.00800000E+00  1.60000000E+01  1.00800000E+00  1.00800000E+00
  1.60000000E+01  1.00800000E+00  1.00800000E+00  1.60000000E+01  1.00800000E+00
  1.00800000E+00  1.60000000E+01  1.00800000E+00  1.00800000E+00  1.60000000E+01
  1.00800000E+00  1.00800000E+00  1.60000000E+01  1.00800000E+00  1.00800000E+00
  1.60000000E+01  1.00800000E+00  1.00800000E+00  1.60000000E+01  1.00800000E+00
  1.00800000E+00  1.60000000E+01  1.00800000E+00  1.00800000E+00  1.60000000E+01
  1.00800000E+00  1.00800000E+00  1.60000000E+01  1.00800000E+00  1.00800000E+00
  1.60000000E+01  1.00800000E+00  1.00800000E+00  1.60000000E+01  1.00800000E+00
  1.00800000E+00  1.60000000E+01  1.00800000E+00  1.00800000E+00  1.60000000E+01
  1.00800000E+00  1.00800000E+00  1.60000000E+01  1.00800000E+00  1.00800000E+00
  1.60000000E+01  1.00800000E+00  1.00800000E+00  1.60000000E+01  1.00800000E+00
  1.00800000E+00  1.60000000E+01  1.00800000E+00  1.00800000E+00  1.60000000E+01
  1.00800000E+00  1.00800000E+00  1.60000000E+01  1.00800000E+00  1.00800000E+00
  1.60000000E+01  1.00800000E+00  1.00800000E+00  1.60000000E+01  1.00800000E+00
  1.00800000E+00  1.60000000E+01  1.00800000E+00  1.00800000E+00  1.60000000E+01
  1.00800000E+00  1.00800000E+00  1.60000000E+01  1.00800000E+00  1.00800000E+00
  1.60000000E+01  1.00800000E+00  1.00800000E+00  1.60000000E+01  1.00800000E+00
  1.00800000E+00  1.60000000E+01  1.00800000E+00  1.00800000E+00  1.60000000E+01
  1.00800000E+00  1.00800000E+00  1.60000000E+01  1.00800000E+00  1.00800000E+00
  1.60000000E+01  1.00800000E+00  1.00800000E+00  1.60000000E+01  1.00800000E+00
  1.00800000E+00  1.60000000E+01  1.00800000E+00  1.00800000E+00  1.60000000E+01
  1.00800000E+00  1.00800000E+00  1.60000000E+01  1.00800000E+00  1.00800000E+00
  1.60000000E+01  1.00800000E+00  1.00800000E+00  1.60000000E+01  1.00800000E+00
  1.00800000E+00  1.60000000E+01  1.00800000E+00  1.00800000E+00  1.60000000E+01
  1.00800000E+00  1.00800000E+00  1.60000000E+01  1.00800000E+00  1.00800000E+00
  1.60000000E+01  1.00800000E+00  1.00800000E+00  1.60000000E+01  1.00800000E+00
  1.00800000E+00  1.60000000E+01  1.00800000E+00  1.00800000E+00  1.60000000E+01
  1.00800000E+00  1.00800000E+00  1.60000000E+01  1.00800000E+00  1.00800000E+00
  1.60000000E+01  1.00800000E+00  1.00800000E+00  1.60000000E+01  1.00800000E+00
  1.00800000E+00  1.60000000E+01  1.00800000E+00  1.00800000E+00  1.60000000E+01
  1.00800000E+00  1.00800000E+00  1.60000000E+01  1.00800000E+00  1.00800000E+00
  1.60000000E+01  1.00800000E+00  1.00800000E+00  1.60000000E+01  1.00800000E+00
  1.00800000E+00  1.60000000E+01  1.00800000E+00  1.00800000E+00  1.60000000E+01
  1.00800000E+00  1.00800000E+00  1.60000000E+01  1.00800000E+00  1.00800000E+00
  1.60000000E+01  1.00800000E+00  1.00800000E+00  1.60000000E+01  1.00800000E+00
  1.00800000E+00  1.60000000E+01  1.00800000E+00  1.00800000E+00  1.60000000E+01
  1.00800000E+00  1.00800000E+00  1.60000000E+01  1.00800000E+00  1.00800000E+00
  1.60000000E+01  1.00800000E+00  1.00800000E+00  1.60000000E+01  1.00800000E+00
  1.00800000E+00  1.60000000E+01  1.00800000E+00  1.00800000E+00  1.60000000E+01
  1.00800000E+00  1.00800000E+00  1.60000000E+01  1.00800000E+00  1.00800000E+00
  1.60000000E+01  1.00800000E+00  1.00800000E+00  1.60000000E+01  1.00800000E+00
  1.00800000E+00  1.60000000E+01  1.00800000E+00  1.00800000E+00  1.60000000E+01
  1.00800000E+00  1.00800000E+00  1.60000000E+01  1.00800000E+00  1.00800000E+00
  1.60000000E+01  1.00800000E+00  1.00800000E+00  1.60000000E+01  1.00800000E+00
  1.00800000E+00  1.60000000E+01  1.00800000E+00  1.00800000E+00  1.60000000E+01
  1.00800000E+00  1.00800000E+00  1.60000000E+01  1.00800000E+00  1.00800000E+00
  1.60000000E+01  1.00800000E+00  1.00800000E+00  1.60000000E+01  1.00800000E+00
  1.00800000E+00  1.60000000E+01  1.00800000E+00  1.00800000E+00  1.60000000E+01
  1.00800000E+00  1.00800000E+00  1.60000000E+01  1.00800000E+00  1.00800000E+00
  1.60000000E+01  1.00800000E+00  1.00800000E+00  1.60000000E+01  1.00800000E+00
  1.00800000E+00  1.60000000E+01  1.00800000E+00  1.00800000E+00  1.60000000E+01
  1.00800000E+00  1.00800000E+00  1.60000000E+01  1.00800000E+00  1.00800000E+00
  1.60000000E+01  1.00800000E+00  1.00800000E+00  1.60000000E+01  1.00800000E+00
  1.00800000E+00  1.60000000E+01  1.00800000E+00  1.00800000E+00  1.60000000E+01
  1.00800000E+00  1.00800000E+00  1.60000000E+01  1.00800000E+00  1.00800000E+00
  1.60000000E+01  1.00800000E+00  1.00800000E+00  1.60000000E+01  1.00800000E+00
  1.00800000E+00  1.60000000E+01  1.00800000E+00  1.00800000E+00  1.60000000E+01
  1.00800000E+00  1.00800000E+00  1.60000000E+01  1.00800000E+00  1.00800000E+00
  1.60000000E+01  1.00800000E+00  1.00800000E+00  1.60000000E+01  1.00800000E+00
  1.00800000E+00  1.60000000E+01  1.00800000E+00  1.00800000E+00  1.60000000E+01
  1.00800000E+00  1.00800000E+00  1.60000000E+01  1.00800000E+00  1.00800000E+00
  1.60000000E+01  1.00800000E+00  1.00800000E+00  1.60000000E+01  1.00800000E+00
  1.00800000E+00  1.60000000E+01  1.00800000E+00  1.00800000E+00  1.60000000E+01
  1.00800000E+00  1.00800000E+00  1.60000000E+01  1.00800000E+00  1.00800000E+00
  1.60000000E+01  1.00800000E+00  1.00800000E+00  1.60000000E+01  1.00800000E+00
  1.00800000E+00  1.60000000E+01  1.00800000E+00  1.00800000E+00  1.60000000E+01
  1.00800000E+00  1.00800000E+00  1.60000000E+01  1.00800000E+00  1.00800000E+00
  1.60000000E+01  1.00800000E+00  1.00800000E+00  1.60000000E+01  1.00800000E+00
  1.00800000E+00  1.60000000E+01  1.00800000E+00  1.00800000E+00  1.60000000E+01
  1.00800000E+00  1.00800000E+00  1.60000000E+01  1.00800000E+00  1.00800000E+00
  1.60000000E+01  1.00800000E+00  1.00800000E+00  1.60000000E+01  1.00800000E+00
  1.00800000E+00  1.60000000E+01  1.00800000E+00  1.00800000E+00  1.60000000E+01
  1.00800000E+00  1.00800000E+00  1.60000000E+01  1.00800000E+00  1.00800000E+00
  1.60000000E+01  1.00800000E+00  1.00800000E+00  1.60000000E+01  1.00800000E+00
  1.00800000E+00  1.60000000E+01  1.00800000E+00  1.00800000E+00  1.60000000E+01
  1.00800000E+00  1.00800000E+00  1.60000000E+01  1.00800000E+00  1.00800000E+00
  1.60000000E+01  1.00800000E+00  1.00800000E+00  1.60000000E+01  1.00800000E+00
  1.00800000E+00  1.60000000E+01  1.00800000E+00  1.00800000E+00  1.60000000E+01
  1.00800000E+00  1.00800000E+00  1.60000000E+01  1.00800000E+00  1.00800000E+00
  1.60000000E+01  1.00800000E+00  1.00800000E+00  1.60000000E+01  1.00800000E+00
  1.00800000E+00  1.60000000E+01  1.00800000E+00  1.00800000E+00  1.60000000E+01
  1.00800000E+00  1.00800000E+00  1.60000000E+01  1.00800000E+00  1.00800000E+00
  1.60000000E+01  1.00800000E+00  1.00800000E+00  1.60000000E+01  1.00800000E+00
  1.00800000E+00  1.60000000E+01  1.00800000E+00  1.00800000E+00  1.60000000E+01
  1.00800000E+00  1.00800000E+00  1.60000000E+01  1.00800000E+00  1.00800000E+00
  1.60000000E+01  1.00800000E+00  1.00800000E+00  1.60000000E+01  1.00800000E+00
  1.00800000E+00  1.60000000E+01  1.00800000E+00  1.00800000E+00  1.60000000E+01
  1.00800000E+00  1.00800000E+00  1.60000000E+01  1.00800000E+00  1.00800000E+00
  1.60000000E+01  1.00800000E+00  1.00800000E+00  1.60000000E+01  1.00800000E+00
  1.00800000E+00  1.60000000E+01  1.00800000E+00  1.00800000E+00  1.60000000E+01
  1.00800000E+00  1.00800000E+00  1.60000000E+01  1.00800000E+00  1.00800000E+00
  1.60000000E+01  1.00800000E+00  1.00800000E+00  1.60000000E+01  1.00800000E+00
  1.00800000E+00  1.60000000E+01  1.00800000E+00  1.00800000E+00  1.60000000E+01
  1.00800000E+00  1.00800000E+00  1.60000000E+01  1.00800000E+00  1.00800000E+00
  1.60000000E+01  1.00800000E+00  1.00800000E+00  1.60000000E+01  1.00800000E+00
  1.00800000E+00  1.60000000E+01  1.00800000E+00  1.00800000E+00  1.60000000E+01
  1.00800000E+00  1.00800000E+00  1.60000000E+01  1.00800000E+00  1.00800000E+00
  1.60000000E+01  1.00800000E+00  1.00800000E+00  1.60000000E+01  1.00800000E+00
  1.00800000E+00  1.60000000E+01  1.00800000E+00  1.00800000E+00  1.60000000E+01
  1.00800000E+00  1.00800000E+00  1.60000000E+01  1.00800000E+00  1.00800000E+00
  1.60000000E+01  1.00800000E+00  1.00800000E+00  1.60000000E+01  1.00800000E+00
  1.00800000E+00  1.60000000E+01  1.00800000E+00  1.00800000E+00  1.60000000E+01
  1.00800000E+00  1.00800000E+00  1.60000000E+01  1.00800000E+00  1.00800000E+00
  1.60000000E+01  1.00800000E+00  1.00800000E+00  1.60000000E+01  1.00800000E+00
  1.00800000E+00  1.60000000E+01  1.00800000E+00  1.00800000E+00  1.60000000E+01
  1.00800000E+00  1.00800000E+00  1.60000000E+01  1.00800000E+00  1.00800000E+00
  1.60000000E+01  1.00800000E+00  1.00800000E+00  1.60000000E+01  1.00800000E+00
  1.00800000E+00  1.60000000E+01  1.00800000E+00  1.00800000E+00  1.60000000E+01
  1.00800000E+00  1.00800000E+00  1.60000000E+01  1.00800000E+00  1.00800000E+00
  1.60000000E+01  1.00800000E+00  1.00800000E+00  1.60000000E+01  1.00800000E+00
  1.00800000E+00  1.60000000E+01  1.00800000E+00  1.00800000E+00  1.60000000E+01
  1.00800000E+00  1.00800000E+00  1.60000000E+01  1.00800000E+00  1.00800000E+00
  1.60000000E+01  1.00800000E+00  1.00800000E+00  1.60000000E+01  1.00800000E+00
  1.00800000E+00  1.60000000E+01  1.00800000E+00  1.00800000E+00  1.60000000E+01
  1.00800000E+00  1.00800000E+00  1.60000000E+01  1.00800000E+00  1.00800000E+00
  1.60000000E+01  1.00800000E+00  1.00800000E+00  1.60000000E+01  1.00800000E+00
  1.00800000E+00  1.60000000E+01  1.00800000E+00  1.00800000E+00  1.60000000E+01
  1.00800000E+00  1.00800000E+00  1.60000000E+01  1.00800000E+00  1.00800000E+00
  1.60000000E+01  1.00800000E+00  1.00800000E+00  1.60000000E+01  1.00800000E+00
  1.00800000E+00  1.60000000E+01  1.00800000E+00  1.00800000E+00  1.60000000E+01
  1.00800000E+00  1.00800000E+00  1.60000000E+01  1.00800000E+00  1.00800000E+00
  1.60000000E+01  1.00800000E+00  1.00800000E+00  1.60000000E+01  1.00800000E+00
  1.00800000E+00  1.60000000E+01  1.00800000E+00  1.00800000E+00  1.60000000E+01
  1.00800000E+00  1.00800000E+00  1.60000000E+01  1.00800000E+00  1.00800000E+00
  1.60000000E+01  1.00800000E+00  1.00800000E+00  1.60000000E+01  1.00800000E+00
  1.00800000E+00  1.60000000E+01  1.00800000E+00  1.00800000E+00  1.60000000E+01
  1.00800000E+00  1.00800000E+00  1.60000000E+01  1.00800000E+00  1.00800000E+00
  1.60000000E+01  1.00800000E+00  1.00800000E+00  1.60000000E+01  1.00800000E+00
  1.00800000E+00  1.60000000E+01  1.00800000E+00  1.00800000E+00  1.60000000E+01
  1.00800000E+00  1.00800000E+00  1.60000000E+01  1.00800000E+00  1.00800000E+00
  1.60000000E+01  1.00800000E+00  1.00800000E+00  1.60000000E+01  1.00800000E+00
  1.00800000E+00  1.60000000E+01  1.00800000E+00  1.00800000E+00  1.60000000E+01
  1.00800000E+00  1.00800000E+00  1.60000000E+01  1.00800000E+00  1.00800000E+00
  1.60000000E+01  1.00800000E+00  1.00800000E+00  1.60000000E+01  1.00800000E+00
  1.00800000E+00  1.60000000E+01  1.00800000E+00  1.00800000E+00  1.60000000E+01
  1.00800000E+00  1.00800000E+00  1.60000000E+01  1.00800000E+00  1.00800000E+00
  1.60000000E+01  1.00800000E+00  1.00800000E+00  1.60000000E+01  1.00800000E+00
  1.00800000E+00  1.60000000E+01  1.00800000E+00  1.00800000E+00  1.60000000E+01
  1.00800000E+00  1.00800000E+00  1.60000000E+01  1.00800000E+00  1.00800000E+00
  1.60000000E+01  1.00800000E+00  1.00800000E+00  1.60000000E+01  1.00800000E+00
  1.00800000E+00  1.60000000E+01  1.00800000E+00  1.00800000E+00  1.60000000E+01
  1.00800000E+00  1.00800000E+00  1.60000000E+01  1.00800000E+00  1.00800000E+00
  1.60000000E+01  1.00800000E+00  1.00800000E+00  1.60000000E+01  1.00800000E+00
  1.00800000E+00  1.60000000E+01  1.00800000E+00  1.00800000E+00  1.60000000E+01
  1.00800000E+00  1.00800000E+00  1.60000000E+01  1.00800000E+00  1.00800000E+00
  1.60000000E+01  1.00800000E+00  1.00800000E+00  1.60000000E+01  1.00800000E+00
  1.00800000E+00  1.60000000E+01  1.00800000E+00  1.00800000E+00  1.60000000E+01
  1.00800000E+00  1.00800000E+00  1.60000000E+01  1.00800000E+00  1.00800000E+00
  1.60000000E+01  1.00800000E+00  1.00800000E+00  1.60000000E+01  1.00800000E+00
  1.00800000E+00  1.60000000E+01  1.00800000E+00  1.00800000E+00  1.60000000E+01
  1.00800000E+00  1.00800000E+00  1.60000000E+01  1.00800000E+00  1.00800000E+00
  1.60000000E+01  1.00800000E+00  1.00800000E+00  1.60000000E+01  1.00800000E+00
  1.00800000E+00  1.60000000E+01  1.00800000E+00  1.00800000E+00  1.60000000E+01
  1.00800000E+00  1.00800000E+00  1.60000000E+01  1.00800000E+00  1.00800000E+00
  1.60000000E+01  1.00800000E+00  1.00800000E+00  1.60000000E+01  1.00800000E+00
  1.00800000E+00  1.60000000E+01  1.00800000E+00  1.00800000E+00  1.60000000E+01
  1.00800000E+00  1.00800000E+00  1.60000000E+01  1.00800000E+00  1.00800000E+00
  1.60000000E+01  1.00800000E+00  1.00800000E+00  1.60000000E+01  1.00800000E+00
  1.00800000E+00  1.60000000E+01  1.00800000E+00  1.00800000E+00  1.60000000E+01
  1.00800000E+00  1.00800000E+00  1.60000000E+01  1.00800000E+00  1.00800000E+00
  1.60000000E+01  1.00800000E+00  1.00800000E+00  1.60000000E+01  1.00800000E+00
  1.00800000E+00  1.60000000E+01  1.00800000E+00  1.00800000E+00  1.60000000E+01
  1.00800000E+00  1.00800000E+00  1.60000000E+01  1.00800000E+00  1.00800000E+00
  1.60000000E+01  1.00800000E+00  1.00800000E+00  1.60000000E+01  1.00800000E+00
  1.00800000E+00  1.60000000E+01  1.00800000E+00  1.00800000E+00  1.60000000E+01
  1.00800000E+00  1.00800000E+00  1.60000000E+01  1.00800000E+00  1.00800000E+00
  1.60000000E+01  1.00800000E+00  1.00800000E+00  1.60000000E+01  1.00800000E+00
  1.00800000E+00  1.60000000E+01  1.00800000E+00  1.00800000E+00  1.60000000E+01
  1.00800000E+00  1.00800000E+00  1.60000000E+01  1.00800000E+00  1.00800000E+00
  1.60000000E+01  1.00800000E+00  1.00800000E+00  1.60000000E+01  1.00800000E+00
  1.00800000E+00  1.60000000E+01  1.00800000E+00  1.00800000E+00  1.60000000E+01
  1.00800000E+00  1.00800000E+00  1.60000000E+01  1.00800000E+00  1.00800000E+00
  1.60000000E+01  1.00800000E+00  1.00800000E+00  1.60000000E+01  1.00800000E+00
  1.00800000E+00  1.60000000E+01  1.00800000E+00  1.00800000E+00  1.60000000E+01
  1.00800000E+00  1.00800000E+00  1.60000000E+01  1.00800000E+00  1.00800000E+00
  1.60000000E+01  1.00800000E+00  1.00800000E+00  1.60000000E+01  1.00800000E+00
  1.00800000E+00  1.60000000E+01  1.00800000E+00  1.00800000E+00  1.60000000E+01
  1.00800000E+00  1.00800000E+00  1.60000000E+01  1.00800000E+00  1.00800000E+00
  1.60000000E+01  1.00800000E+00  1.00800000E+00  1.60000000E+01  1.00800000E+00
  1.00800000E+00  1.60000000E+01  1.00800000E+00  1.00800000E+00  1.60000000E+01
  1.00800000E+00  1.00800000E+00  1.60000000E+01  1.00800000E+00  1.00800000E+00
  1.60000000E+01  1.00800000E+00  1.00800000E+00  1.60000000E+01  1.00800000E+00
  1.00800000E+00  1.60000000E+01  1.00800000E+00  1.00800000E+00  1.60000000E+01
  1.00800000E+00  1.00800000E+00  1.60000000E+01  1.00800000E+00  1.00800000E+00
  1.60000000E+01  1.00800000E+00  1.00800000E+00  1.60000000E+01  1.00800000E+00
  1.00800000E+00  1.60000000E+01  1.00800000E+00  1.00800000E+00  1.60000000E+01
  1.00800000E+00  1.00800000E+00  1.60000000E+01  1.00800000E+00  1.00800000E+00
  1.60000000E+01  1.00800000E+00  1.00800000E+00  1.60000000E+01  1.00800000E+00
  1.00800000E+00  1.60000000E+01  1.00800000E+00  1.00800000E+00  1.60000000E+01
  1.00800000E+00  1.00800000E+00  1.60000000E+01  1.00800000E+00  1.00800000E+00
  1.60000000E+01  1.00800000E+00  1.00800000E+00  1.60000000E+01  1.00800000E+00
  1.00800000E+00  1.60000000E+01  1.00800000E+00  1.00800000E+00  1.60000000E+01
  1.00800000E+00  1.00800000E+00  1.60000000E+01  1.00800000E+00  1.00800000E+00
  1.60000000E+01  1.00800000E+00  1.00800000E+00  1.60000000E+01  1.00800000E+00
  1.00800000E+00  1.60000000E+01  1.00800000E+00  1.00800000E+00  1.60000000E+01
  1.00800000E+00  1.00800000E+00  1.60000000E+01  1.00800000E+00  1.00800000E+00
  1.60000000E+01  1.00800000E+00  1.00800000E+00  1.60000000E+01  1.00800000E+00
  1.00800000E+00  1.60000000E+01  1.00800000E+00  1.00800000E+00  1.60000000E+01
  1.00800000E+00  1.00800000E+00  1.60000000E+01  1.00800000E+00  1.00800000E+00
  1.60000000E+01  1.00800000E+00  1.00800000E+00  1.60000000E+01  1.00800000E+00
  1.00800000E+00  1.60000000E+01  1.00800000E+00  1.00800000E+00  1.60000000E+01
  1.00800000E+00  1.00800000E+00  1.60000000E+01  1.00800000E+00  1.00800000E+00
  1.60000000E+01  1.00800000E+00  1.00800000E+00  1.60000000E+01  1.00800000E+00
  1.00800000E+00  1.60000000E+01  1.00800000E+00  1.00800000E+00  1.60000000E+01
  1.00800000E+00  1.00800000E+00  1.60000000E+01  1.00800000E+00  1.00800000E+00
  1.60000000E+01  1.00800000E+00  1.00800000E+00  1.60000000E+01  1.00800000E+00
  1.00800000E+00  1.60000000E+01  1.00800000E+00  1.00800000E+00  1.60000000E+01
  1.00800000E+00  1.00800000E+00  1.60000000E+01  1.00800000E+00  1.00800000E+00
  1.60000000E+01  1.00800000E+00  1.00800000E+00  1.60000000E+01  1.00800000E+00
  1.00800000E+00  1.60000000E+01  1.00800000E+00  1.00800000E+00  1.60000000E+01
  1.00800000E+00  1.00800000E+00  1.60000000E+01  1.00800000E+00  1.00800000E+00
  1.60000000E+01  1.00800000E+00  1.00800000E+00  1.60000000E+01  1.00800000E+00
  1.00800000E+00  1.60000000E+01  1.00800000E+00  1.00800000E+00  1.60000000E+01
  1.00800000E+00  1.00800000E+00  1.60000000E+01  1.00800000E+00  1.00800000E+00
  1.60000000E+01  1.00800000E+00  1.00800000E+00  1.60000000E+01  1.00800000E+00
  1.00800000E+00  1.60000000E+01  1.00800000E+00  1.00800000E+00  1.60000000E+01
  1.00800000E+00  1.00800000E+00  1.60000000E+01  1.00800000E+00  1.00800000E+00
  1.60000000E+01  1.00800000E+00  1.00800000E+00  1.60000000E+01  1.00800000E+00
  1.00800000E+00  1.60000000E+01  1.00800000E+00  1.00800000E+00  1.60000000E+01
  1.00800000E+00  1.00800000E+00  1.60000000E+01  1.00800000E+00  1.00800000E+00
  1.60000000E+01  1.00800000E+00  1.00800000E+00  1.60000000E+01  1.00800000E+00
  1.00800000E+00  1.60000000E+01  1.00800000E+00  1.00800000E+00  1.60000000E+01
  1.00800000E+00  1.00800000E+00  1.60000000E+01  1.00800000E+00  1.00800000E+00
  1.60000000E+01  1.00800000E+00  1.00800000E+00  1.60000000E+01  1.00800000E+00
  1.00800000E+00  1.60000000E+01  1.00800000E+00  1.00800000E+00  1.60000000E+01
  1.00800000E+00  1.00800000E+00  1.60000000E+01  1.00800000E+00  1.00800000E+00
  1.60000000E+01  1.00800000E+00  1.00800000E+00  1.60000000E+01  1.00800000E+00
  1.00800000E+00  1.60000000E+01  1.00800000E+00  1.00800000E+00  1.60000000E+01
  1.00800000E+00  1.00800000E+00  1.60000000E+01  1.00800000E+00  1.00800000E+00
  1.60000000E+01  1.00800000E+00  1.00800000E+00  1.60000000E+01  1.00800000E+00
  1.00800000E+00  1.60000000E+01  1.00800000E+00  1.00800000E+00  1.60000000E+01
  1.00800000E+00  1.00800000E+00  1.60000000E+01  1.00800000E+00  1.00800000E+00
  1.60000000E+01  1.00800000E+00  1.00800000E+00  1.60000000E+01  1.00800000E+00
  1.00800000E+00  1.60000000E+01  1.00800000E+00  1.00800000E+00  1.60000000E+01
  1.00800000E+00  1.00800000E+00  1.60000000E+01  1.00800000E+00  1.00800000E+00
  1.60000000E+01  1.00800000E+00  1.00800000E+00  1.60000000E+01  1.00800000E+00
  1.00800000E+00  1.60000000E+01  1.00800000E+00  1.00800000E+00  1.60000000E+01
  1.00800000E+00  1.00800000E+00  1.60000000E+01  1.00800000E+00  1.00800000E+00
  1.60000000E+01  1.00800000E+00  1.00800000E+00  1.60000000E+01  1.00800000E+00
  1.00800000E+00  1.60000000E+01  1.00800000E+00  1.00800000E+00  1.60000000E+01
  1.00800000E+00  1.00800000E+00  1.60000000E+01  1.00800000E+00  1.00800000E+00
  1.60000000E+01  1.00800000E+00  1.00800000E+00  1.60000000E+01  1.00800000E+00
  1.00800000E+00  1.60000000E+01  1.00800000E+00  1.00800000E+00  1.60000000E+01
  1.00800000E+00  1.00800000E+00  1.60000000E+01  1.00800000E+00  1.00800000E+00
  1.60000000E+01  1.00800000E+00  1.00800000E+00  1.60000000E+01  1.00800000E+00
  1.00800000E+00  1.60000000E+01  1.00800000E+00  1.00800000E+00  1.60000000E+01
  1.00800000E+00  1.00800000E+00  1.60000000E+01  1.00800000E+00  1.00800000E+00
  1.60000000E+01  1.00800000E+00  1.00800000E+00  1.60000000E+01  1.00800000E+00
  1.00800000E+00  1.60000000E+01  1.00800000E+00  1.00800000E+00  1.60000000E+01
  1.00800000E+00  1.00800000E+00  1.60000000E+01  1.00800000E+00  1.00800000E+00
  1.60000000E+01  1.00800000E+00  1.00800000E+00  1.60000000E+01  1.00800000E+00
  1.00800000E+00  1.60000000E+01  1.00800000E+00  1.00800000E+00  1.60000000E+01
  1.00800000E+00  1.00800000E+00  1.60000000E+01  1.00800000E+00  1.00800000E+00
  1.60000000E+01  1.00800000E+00  1.00800000E+00  1.60000000E+01  1.00800000E+00
  1.00800000E+00  1.60000000E+01  1.00800000E+00  1.00800000E+00  1.60000000E+01
  1.00800000E+00  1.00800000E+00  1.60000000E+01  1.00800000E+00  1.00800000E+00
  1.60000000E+01  1.00800000E+00  1.00800000E+00  1.60000000E+01  1.00800000E+00
  1.00800000E+00  1.60000000E+01  1.00800000E+00  1.00800000E+00  1.60000000E+01
  1.00800000E+00  1.00800000E+00  1.60000000E+01  1.00800000E+00  1.00800000E+00
  1.60000000E+01  1.00800000E+00  1.00800000E+00  1.60000000E+01  1.00800000E+00
  1.00800000E+00  1.60000000E+01  1.00800000E+00  1.00800000E+00  1.60000000E+01
  1.00800000E+00  1.00800000E+00  1.60000000E+01  1.00800000E+00  1.00800000E+00
  1.60000000E+01  1.00800000E+00  1.00800000E+00  1.60000000E+01  1.00800000E+00
  1.00800000E+00  1.60000000E+01  1.00800000E+00  1.00800000E+00  1.60000000E+01
  1.00800000E+00  1.00800000E+00  1.60000000E+01  1.00800000E+00  1.00800000E+00
  1.60000000E+01  1.00800000E+00  1.00800000E+00  1.60000000E+01  1.00800000E+00
  1.00800000E+00  1.60000000E+01  1.00800000E+00  1.00800000E+00  1.60000000E+01
  1.00800000E+00  1.00800000E+00  1.60000000E+01  1.00800000E+00  1.00800000E+00
  1.60000000E+01  1.00800000E+00  1.00800000E+00  1.60000000E+01  1.00800000E+00
  1.00800000E+00  1.60000000E+01  1.00800000E+00  1.00800000E+00  1.60000000E+01
  1.00800000E+00  1.00800000E+00  1.60000000E+01  1.00800000E+00  1.00800000E+00
  1.60000000E+01  1.00800000E+00  1.00800000E+00  1.60000000E+01  1.00800000E+00
  1.00800000E+00  1.60000000E+01  1.00800000E+00  1.00800000E+00  1.60000000E+01
  1.00800000E+00  1.00800000E+00  1.60000000E+01  1.00800000E+00  1.00800000E+00
  1.60000000E+01  1.00800000E+00  1.00800000E+00  1.60000000E+01  1.00800000E+00
  1.00800000E+00  1.60000000E+01  1.00800000E+00  1.00800000E+00  1.60000000E+01
  1.00800000E+00  1.00800000E+00  1.60000000E+01  1.00800000E+00  1.00800000E+00
  1.60000000E+01  1.00800000E+00  1.00800000E+00  1.60000000E+01  1.00800000E+00
  1.00800000E+00  1.60000000E+01  1.00800000E+00  1.00800000E+00  1.60000000E+01
  1.00800000E+00  1.00800000E+00  1.60000000E+01  1.00800000E+00  1.00800000E+00
  1.60000000E+01  1.00800000E+00  1.00800000E+00  1.60000000E+01  1.00800000E+00
  1.00800000E+00  1.60000000E+01  1.00800000E+00  1.00800000E+00  1.60000000E+01
  1.00800000E+00  1.00800000E+00  1.60000000E+01  1.00800000E+00  1.00800000E+00
  1.60000000E+01  1.00800000E+00  1.00800000E+00  1.60000000E+01  1.00800000E+00
  1.00800000E+00  1.60000000E+01  1.00800000E+00  1.00800000E+00  1.60000000E+01
  1.00800000E+00  1.00800000E+00  1.60000000E+01  1.00800000E+00  1.00800000E+00
  1.60000000E+01  1.00800000E+00  1.00800000E+00  1.60000000E+01  1.00800000E+00
  1.00800000E+00  1.60000000E+01  1.00800000E+00  1.00800000E+00  1.60000000E+01
  1.00800000E+00  1.00800000E+00  1.60000000E+01  1.00800000E+00  1.00800000E+00
  1.60000000E+01  1.00800000E+00  1.00800000E+00  1.60000000E+01  1.00800000E+00
  1.00800000E+00  1.60000000E+01  1.00800000E+00  1.00800000E+00  1.60000000E+01
  1.00800000E+00  1.00800000E+00  1.60000000E+01  1.00800000E+00  1.00800000E+00
  1.60000000E+01  1.00800000E+00  1.00800000E+00  1.60000000E+01  1.00800000E+00
  1.00800000E+00  1.60000000E+01  1.00800000E+00  1.00800000E+00  1.60000000E+01
  1.00800000E+00  1.00800000E+00  1.60000000E+01  1.00800000E+00  1.00800000E+00
  1.60000000E+01  1.00800000E+00  1.00800000E+00  1.60000000E+01  1.00800000E+00
  1.00800000E+00  1.60000000E+01  1.00800000E+00  1.00800000E+00  1.60000000E+01
  1.00800000E+00  1.00800000E+00  1.60000000E+01  1.00800000E+00  1.00800000E+00
  1.60000000E+01  1.00800000E+00  1.00800000E+00  1.60000000E+01  1.00800000E+00
  1.00800000E+00  1.60000000E+01  1.00800000E+00  1.00800000E+00  1.60000000E+01
  1.00800000E+00  1.00800000E+00  1.60000000E+01  1.00800000E+00  1.00800000E+00
  1.60000000E+01  1.00800000E+00  1.00800000E+00  1.60000000E+01  1.00800000E+00
  1.00800000E+00  1.60000000E+01  1.00800000E+00  1.00800000E+00  1.60000000E+01
  1.00800000E+00  1.00800000E+00  1.60000000E+01  1.00800000E+00  1.00800000E+00
  1.60000000E+01  1.00800000E+00  1.00800000E+00  1.60000000E+01  1.00800000E+00
  1.00800000E+00  1.60000000E+01  1.00800000E+00  1.00800000E+00  1.60000000E+01
  1.00800000E+00  1.00800000E+00  1.60000000E+01  1.00800000E+00  1.00800000E+00
  1.60000000E+01  1.00800000E+00  1.00800000E+00  1.60000000E+01  1.00800000E+00
  1.00800000E+00  1.60000000E+01  1.00800000E+00  1.00800000E+00  1.60000000E+01
  1.00800000E+00  1.00800000E+00  1.60000000E+01  1.00800000E+00  1.00800000E+00
  1.60000000E+01  1.00800000E+00  1.00800000E+00  1.60000000E+01  1.00800000E+00
  1.00800000E+00  1.60000000E+01  1.00800000E+00  1.00800000E+00  1.60000000E+01
  1.00800000E+00  1.00800000E+00  1.60000000E+01  1.00800000E+00  1.00800000E+00
  1.60000000E+01  1.00800000E+00  1.00800000E+00  1.60000000E+01  1.00800000E+00
  1.00800000E+00  1.60000000E+01  1.00800000E+00  1.00800000E+00  1.60000000E+01
  1.00800000E+00  1.00800000E+00  1.60000000E+01  1.00800000E+00  1.00800000E+00
  1.60000000E+01  1.00800000E+00  1.00800000E+00  1.60000000E+01  1.00800000E+00
  1.00800000E+00  1.60000000E+01  1.00800000E+00  1.00800000E+00  1.60000000E+01
  1.00800000E+00  1.00800000E+00  1.60000000E+01  1.00800000E+00  1.00800000E+00
  1.60000000E+01  1.00800000E+00  1.00800000E+00  1.60000000E+01  1.00800000E+00
  1.00800000E+00  1.60000000E+01  1.00800000E+00  1.00800000E+00  1.60000000E+01
  1.00800000E+00  1.00800000E+00  1.60000000E+01  1.00800000E+00  1.00800000E+00
  1.60000000E+01  1.00800000E+00  1.00800000E+00  1.60000000E+01  1.00800000E+00
  1.00800000E+00  1.60000000E+01  1.00800000E+00  1.00800000E+00  1.60000000E+01
  1.00800000E+00  1.00800000E+00  1.60000000E+01  1.00800000E+00  1.00800000E+00
  1.60000000E+01  1.00800000E+00  1.00800000E+00  1.60000000E+01  1.00800000E+00
  1.00800000E+00  1.60000000E+01  1.00800000E+00  1.00800000E+00  1.60000000E+01
  1.00800000E+00  1.00800000E+00  1.60000000E+01  1.00800000E+00  1.00800000E+00
  1.60000000E+01  1.00800000E+00  1.00800000E+00  1.60000000E+01  1.00800000E+00
  1.00800000E+00  1.60000000E+01  1.00800000E+00  1.00800000E+00  1.60000000E+01
  1.00800000E+00  1.00800000E+00  1.60000000E+01  1.00800000E+00  1.00800000E+00
  1.60000000E+01  1.00800000E+00  1.00800000E+00  1.60000000E+01  1.00800000E+00
  1.00800000E+00  1.60000000E+01  1.00800000E+00  1.00800000E+00  1.60000000E+01
  1.00800000E+00  1.00800000E+00  1.60000000E+01  1.00800000E+00  1.00800000E+00
  1.60000000E+01  1.00800000E+00  1.00800000E+00  1.60000000E+01  1.00800000E+00
  1.00800000E+00  1.60000000E+01  1.00800000E+00  1.00800000E+00  1.60000000E+01
  1.00800000E+00  1.00800000E+00  1.60000000E+01  1.00800000E+00  1.00800000E+00
  1.60000000E+01  1.00800000E+00  1.00800000E+00  1.60000000E+01  1.00800000E+00
  1.00800000E+00  1.60000000E+01  1.00800000E+00  1.00800000E+00  1.60000000E+01
  1.00800000E+00  1.00800000E+00  1.60000000E+01  1.00800000E+00  1.00800000E+00
  1.60000000E+01  1.00800000E+00  1.00800000E+00  1.60000000E+01  1.00800000E+00
  1.00800000E+00  1.60000000E+01  1.00800000E+00  1.00800000E+00  1.60000000E+01
  1.00800000E+00  1.00800000E+00  1.60000000E+01  1.00800000E+00  1.00800000E+00
  1.60000000E+01  1.00800000E+00  1.00800000E+00  1.60000000E+01  1.00800000E+00
  1.00800000E+00  1.60000000E+01  1.00800000E+00  1.00800000E+00  1.60000000E+01
  1.00800000E+00  1.00800000E+00  1.60000000E+01  1.00800000E+00  1.00800000E+00
  1.60000000E+01  1.00800000E+00  1.00800000E+00  1.60000000E+01  1.00800000E+00
  1.00800000E+00  1.60000000E+01  1.00800000E+00  1.00800000E+00  1.60000000E+01
  1.00800000E+00  1.00800000E+00  1.60000000E+01  1.00800000E+00  1.00800000E+00
  1.60000000E+01  1.00800000E+00  1.00800000E+00  1.60000000E+01  1.00800000E+00
  1.00800000E+00  1.60000000E+01  1.00800000E+00  1.00800000E+00  1.60000000E+01
  1.00800000E+00  1.00800000E+00  1.60000000E+01  1.00800000E+00  1.00800000E+00
  1.60000000E+01  1.00800000E+00  1.00800000E+00  1.60000000E+01  1.00800000E+00
  1.00800000E+00  1.60000000E+01  1.00800000E+00  1.00800000E+00  1.60000000E+01
  1.00800000E+00  1.00800000E+00  1.60000000E+01  1.00800000E+00  1.00800000E+00
  1.60000000E+01  1.00800000E+00  1.00800000E+00  1.60000000E+01  1.00800000E+00
  1.00800000E+00  1.60000000E+01  1.00800000E+00  1.00800000E+00  1.60000000E+01
  1.00800000E+00  1.00800000E+00  1.60000000E+01  1.00800000E+00  1.00800000E+00
  1.60000000E+01  1.00800000E+00  1.00800000E+00  1.60000000E+01  1.00800000E+00
  1.00800000E+00  1.60000000E+01  1.00800000E+00  1.00800000E+00  1.60000000E+01
  1.00800000E+00  1.00800000E+00  1.60000000E+01  1.00800000E+00  1.00800000E+00
  1.60000000E+01  1.00800000E+00  1.00800000E+00  1.60000000E+01  1.00800000E+00
  1.00800000E+00  1.60000000E+01  1.00800000E+00  1.00800000E+00  1.60000000E+01
  1.00800000E+00  1.00800000E+00  1.60000000E+01  1.00800000E+00  1.00800000E+00
  1.60000000E+01  1.00800000E+00  1.00800000E+00  1.60000000E+01  1.00800000E+00
  1.00800000E+00  1.60000000E+01  1.00800000E+00  1.00800000E+00  1.60000000E+01
  1.00800000E+00  1.00800000E+00  1.60000000E+01  1.00800000E+00  1.00800000E+00
  1.60000000E+01  1.00800000E+00  1.00800000E+00  1.60000000E+01  1.00800000E+00
  1.00800000E+00  1.60000000E+01  1.00800000E+00  1.00800000E+00  1.60000000E+01
  1.00800000E+00  1.00800000E+00  1.60000000E+01  1.00800000E+00  1.00800000E+00
  1.60000000E+01  1.00800000E+00  1.00800000E+00  1.60000000E+01  1.00800000E+00
  1.00800000E+00  1.60000000E+01  1.00800000E+00  1.00800000E+00  1.60000000E+01
  1.00800000E+00  1.00800000E+00  1.60000000E+01  1.00800000E+00  1.00800000E+00
  1.60000000E+01  1.00800000E+00  1.00800000E+00  1.60000000E+01  1.00800000E+00
  1.00800000E+00  1.60000000E+01  1.00800000E+00  1.00800000E+00  1.60000000E+01
  1.00800000E+00  1.00800000E+00  1.60000000E+01  1.00800000E+00  1.00800000E+00
  1.60000000E+01  1.00800000E+00  1.00800000E+00  1.60000000E+01  1.00800000E+00
  1.00800000E+00  1.60000000E+01  1.00800000E+00  1.00800000E+00  1.60000000E+01
  1.00800000E+00  1.00800000E+00  1.60000000E+01  1.00800000E+00  1.00800000E+00
  1.60000000E+01  1.00800000E+00  1.00800000E+00  1.60000000E+01  1.00800000E+00
  1.00800000E+00  1.60000000E+01  1.00800000E+00  1.00800000E+00  1.60000000E+01
  1.00800000E+00  1.00800000E+00  1.60000000E+01  1.00800000E+00  1.00800000E+00
  1.60000000E+01  1.00800000E+00  1.00800000E+00  1.60000000E+01  1.00800000E+00
  1.00800000E+00  1.60000000E+01  1.00800000E+00  1.00800000E+00  1.60000000E+01
  1.00800000E+00  1.00800000E+00  1.60000000E+01  1.00800000E+00  1.00800000E+00
  1.60000000E+01  1.00800000E+00  1.00800000E+00  1.60000000E+01  1.00800000E+00
  1.00800000E+00  1.60000000E+01  1.00800000E+00  1.00800000E+00  1.60000000E+01
  1.00800000E+00  1.00800000E+00  1.60000000E+01  1.00800000E+00  1.00800000E+00
  1.60000000E+01  1.00800000E+00  1.00800000E+00  1.60000000E+01  1.00800000E+00
  1.00800000E+00  1.60000000E+01  1.00800000E+00  1.00800000E+00  1.60000000E+01
  1.00800000E+00  1.00800000E+00  1.60000000E+01  1.00800000E+00  1.00800000E+00
  1.60000000E+01  1.00800000E+00  1.00800000E+00  1.60000000E+01  1.00800000E+00
  1.00800000E+00  1.60000000E+01  1.00800000E+00  1.00800000E+00  1.60000000E+01
  1.00800000E+00  1.00800000E+00  1.60000000E+01  1.00800000E+00  1.00800000E+00
  1.60000000E+01  1.00800000E+00  1.00800000E+00  1.60000000E+01  1.00800000E+00
  1.00800000E+00  1.60000000E+01  1.00800000E+00  1.00800000E+00  1.60000000E+01
  1.00800000E+00  1.00800000E+00  1.60000000E+01  1.00800000E+00  1.00800000E+00
  1.60000000E+01  1.00800000E+00  1.00800000E+00  1.60000000E+01  1.00800000E+00
  1.00800000E+00  1.60000000E+01  1.00800000E+00  1.00800000E+00  1.60000000E+01
  1.00800000E+00  1.00800000E+00  1.60000000E+01  1.00800000E+00  1.00800000E+00
  1.60000000E+01  1.00800000E+00  1.00800000E+00  1.60000000E+01  1.00800000E+00
  1.00800000E+00  1.60000000E+01  1.00800000E+00  1.00800000E+00  1.60000000E+01
  1.00800000E+00  1.00800000E+00  1.60000000E+01  1.00800000E+00  1.00800000E+00
  1.60000000E+01  1.00800000E+00  1.00800000E+00  1.60000000E+01  1.00800000E+00
  1.00800000E+00  1.60000000E+01  1.00800000E+00  1.00800000E+00  1.60000000E+01
  1.00800000E+00  1.00800000E+00  1.60000000E+01  1.00800000E+00  1.00800000E+00
  1.60000000E+01  1.00800000E+00  1.00800000E+00  1.60000000E+01  1.00800000E+00
  1.00800000E+00  1.60000000E+01  1.00800000E+00  1.00800000E+00  1.60000000E+01
  1.00800000E+00  1.00800000E+00  1.60000000E+01  1.00800000E+00  1.00800000E+00
  1.60000000E+01  1.00800000E+00  1.00800000E+00  1.60000000E+01  1.00800000E+00
  1.00800000E+00  1.60000000E+01  1.00800000E+00  1.00800000E+00  1.60000000E+01
  1.00800000E+00  1.00800000E+00  1.60000000E+01  1.00800000E+00  1.00800000E+00
  1.60000000E+01  1.00800000E+00  1.00800000E+00  1.60000000E+01  1.00800000E+00
  1.00800000E+00  1.60000000E+01  1.00800000E+00  1.00800000E+00  1.60000000E+01
  1.00800000E+00  1.00800000E+00  1.60000000E+01  1.00800000E+00  1.00800000E+00
  1.60000000E+01  1.00800000E+00  1.00800000E+00  1.60000000E+01  1.00800000E+00
  1.00800000E+00  1.60000000E+01  1.00800000E+00  1.00800000E+00  1.60000000E+01
  1.00800000E+00  1.00800000E+00  1.60000000E+01  1.00800000E+00  1.00800000E+00
  1.60000000E+01  1.00800000E+00  1.00800000E+00  1.60000000E+01  1.00800000E+00
  1.00800000E+00  1.60000000E+01  1.00800000E+00  1.00800000E+00  1.60000000E+01
  1.00800000E+00  1.00800000E+00  1.60000000E+01  1.00800000E+00  1.00800000E+00
  1.60000000E+01  1.00800000E+00  1.00800000E+00  1.60000000E+01  1.00800000E+00
  1.00800000E+00  1.60000000E+01  1.00800000E+00  1.00800000E+00  1.60000000E+01
  1.00800000E+00  1.00800000E+00  1.60000000E+01  1.00800000E+00  1.00800000E+00
  1.60000000E+01  1.00800000E+00  1.00800000E+00  1.60000000E+01  1.00800000E+00
  1.00800000E+00  1.60000000E+01  1.00800000E+00  1.00800000E+00  1.60000000E+01
  1.00800000E+00  1.00800000E+00  1.60000000E+01  1.00800000E+00  1.00800000E+00
  1.60000000E+01  1.00800000E+00  1.00800000E+00  1.60000000E+01  1.00800000E+00
  1.00800000E+00  1.60000000E+01  1.00800000E+00  1.00800000E+00  1.60000000E+01
  1.00800000E+00  1.00800000E+00  1.60000000E+01  1.00800000E+00  1.00800000E+00
  1.60000000E+01  1.00800000E+00  1.00800000E+00  1.60000000E+01  1.00800000E+00
  1.00800000E+00  1.60000000E+01  1.00800000E+00  1.00800000E+00  1.60000000E+01
  1.00800000E+00  1.00800000E+00  1.60000000E+01  1.00800000E+00  1.00800000E+00
  1.60000000E+01  1.00800000E+00  1.00800000E+00  1.60000000E+01  1.00800000E+00
  1.00800000E+00  1.60000000E+01  1.00800000E+00  1.00800000E+00  1.60000000E+01
  1.00800000E+00  1.00800000E+00  1.60000000E+01  1.00800000E+00  1.00800000E+00
  1.60000000E+01  1.00800000E+00  1.00800000E+00  1.60000000E+01  1.00800000E+00
  1.00800000E+00  1.60000000E+01  1.00800000E+00  1.00800000E+00  1.60000000E+01
  1.00800000E+00  1.00800000E+00  1.60000000E+01  1.00800000E+00  1.00800000E+00
  1.60000000E+01  1.00800000E+00  1.00800000E+00  1.60000000E+01  1.00800000E+00
  1.00800000E+00  1.60000000E+01  1.00800000E+00  1.00800000E+00  1.60000000E+01
  1.00800000E+00  1.00800000E+00  1.60000000E+01  1.00800000E+00  1.00800000E+00
  1.60000000E+01  1.00800000E+00  1.00800000E+00  1.60000000E+01  1.00800000E+00
  1.00800000E+00  1.60000000E+01  1.00800000E+00  1.00800000E+00  1.60000000E+01
  1.00800000E+00  1.00800000E+00  1.60000000E+01  1.00800000E+00  1.00800000E+00
  1.60000000E+01  1.00800000E+00  1.00800000E+00  1.60000000E+01  1.00800000E+00
  1.00800000E+00  1.60000000E+01  1.00800000E+00  1.00800000E+00  1.60000000E+01
  1.00800000E+00  1.00800000E+00  1.60000000E+01  1.00800000E+00  1.00800000E+00
  1.60000000E+01  1.00800000E+00  1.00800000E+00  1.60000000E+01  1.00800000E+00
  1.00800000E+00  1.60000000E+01  1.00800000E+00  1.00800000E+00  1.60000000E+01
  1.00800000E+00  1.00800000E+00  1.60000000E+01  1.00800000E+00  1.00800000E+00
  1.60000000E+01  1.00800000E+00  1.00800000E+00  1.60000000E+01  1.00800000E+00
  1.00800000E+00  1.60000000E+01  1.00800000E+00  1.00800000E+00  1.60000000E+01
  1.00800000E+00  1.00800000E+00  1.60000000E+01  1.00800000E+00  1.00800000E+00
  1.60000000E+01  1.00800000E+00  1.00800000E+00  1.60000000E+01  1.00800000E+00
  1.00800000E+00  1.60000000E+01  1.00800000E+00  1.00800000E+00  1.60000000E+01
  1.00800000E+00  1.00800000E+00  1.60000000E+01  1.00800000E+00  1.00800000E+00
  1.60000000E+01  1.00800000E+00  1.00800000E+00  1.60000000E+01  1.00800000E+00
  1.00800000E+00  1.60000000E+01  1.00800000E+00  1.00800000E+00  1.60000000E+01
  1.00800000E+00  1.00800000E+00  1.60000000E+01  1.00800000E+00  1.00800000E+00
  1.60000000E+01  1.00800000E+00  1.00800000E+00  1.60000000E+01  1.00800000E+00
  1.00800000E+00  1.60000000E+01  1.00800000E+00  1.00800000E+00  1.60000000E+01
  1.00800000E+00  1.00800000E+00  1.60000000E+01  1.00800000E+00  1.00800000E+00
  1.60000000E+01  1.00800000E+00  1.00800000E+00  1.60000000E+01  1.00800000E+00
  1.00800000E+00  1.60000000E+01  1.00800000E+00  1.00800000E+00  1.60000000E+01
  1.00800000E+00  1.00800000E+00  1.60000000E+01  1.00800000E+00  1.00800000E+00
  1.60000000E+01  1.00800000E+00  1.00800000E+00  1.60000000E+01  1.00800000E+00
  1.00800000E+00  1.60000000E+01  1.00800000E+00  1.00800000E+00  1.60000000E+01
  1.00800000E+00  1.00800000E+00  1.60000000E+01  1.00800000E+00  1.00800000E+00
  1.60000000E+01  1.00800000E+00  1.00800000E+00  1.60000000E+01  1.00800000E+00
  1.00800000E+00  1.60000000E+01  1.00800000E+00  1.00800000E+00  1.60000000E+01
  1.00800000E+00  1.00800000E+00  1.60000000E+01  1.00800000E+00  1.00800000E+00
  1.60000000E+01  1.00800000E+00  1.00800000E+00  1.60000000E+01  1.00800000E+00
  1.00800000E+00  1.60000000E+01  1.00800000E+00  1.00800000E+00  1.60000000E+01
  1.00800000E+00  1.00800000E+00  1.60000000E+01  1.00800000E+00  1.00800000E+00
  1.60000000E+01  1.00800000E+00  1.00800000E+00  1.60000000E+01  1.00800000E+00
  1.00800000E+00  1.60000000E+01  1.00800000E+00  1.00800000E+00  1.60000000E+01
  1.00800000E+00  1.00800000E+00  1.60000000E+01  1.00800000E+00  1.00800000E+00
  1.60000000E+01  1.00800000E+00  1.00800000E+00  1.60000000E+01  1.00800000E+00
  1.00800000E+00  1.60000000E+01  1.00800000E+00  1.00800000E+00  1.60000000E+01
  1.00800000E+00  1.00800000E+00  1.60000000E+01  1.00800000E+00  1.00800000E+00
  1.60000000E+01  1.00800000E+00  1.00800000E+00  1.60000000E+01  1.00800000E+00
  1.00800000E+00  1.60000000E+01  1.00800000E+00  1.00800000E+00  1.60000000E+01
  1.00800000E+00  1.00800000E+00  1.60000000E+01  1.00800000E+00  1.00800000E+00
  1.60000000E+01  1.00800000E+00  1.00800000E+00  1.60000000E+01  1.00800000E+00
  1.00800000E+00  1.60000000E+01  1.00800000E+00  1.00800000E+00  1.60000000E+01
  1.00800000E+00  1.00800000E+00  1.60000000E+01  1.00800000E+00  1.00800000E+00
  1.60000000E+01  1.00800000E+00  1.00800000E+00  1.60000000E+01  1.00800000E+00
  1.00800000E+00  1.60000000E+01  1.00800000E+00  1.00800000E+00  1.60000000E+01
  1.00800000E+00  1.00800000E+00  1.60000000E+01  1.00800000E+00  1.00800000E+00
  1.60000000E+01  1.00800000E+00  1.00800000E+00  1.60000000E+01  1.00800000E+00
  1.00800000E+00  1.60000000E+01  1.00800000E+00  1.00800000E+00  1.60000000E+01
  1.00800000E+00  1.00800000E+00  1.60000000E+01  1.00800000E+00  1.00800000E+00
  1.60000000E+01  1.00800000E+00  1.00800000E+00  1.60000000E+01  1.00800000E+00
  1.00800000E+00  1.60000000E+01  1.00800000E+00  1.00800000E+00  1.60000000E+01
  1.00800000E+00  1.00800000E+00  1.60000000E+01  1.00800000E+00  1.00800000E+00
  1.60000000E+01  1.00800000E+00  1.00800000E+00  1.60000000E+01  1.00800000E+00
  1.00800000E+00  1.60000000E+01  1.00800000E+00  1.00800000E+00  1.60000000E+01
  1.00800000E+00  1.00800000E+00  1.60000000E+01  1.00800000E+00  1.00800000E+00
  1.60000000E+01  1.00800000E+00  1.00800000E+00  1.60000000E+01  1.00800000E+00
  1.00800000E+00  1.60000000E+01  1.00800000E+00  1.00800000E+00  1.60000000E+01
  1.00800000E+00  1.00800000E+00  1.60000000E+01  1.00800000E+00  1.00800000E+00
  1.60000000E+01  1.00800000E+00  1.00800000E+00  1.60000000E+01  1.00800000E+00
  1.00800000E+00  1.60000000E+01  1.00800000E+00  1.00800000E+00  1.60000000E+01
  1.00800000E+00  1.00800000E+00  1.60000000E+01  1.00800000E+00  1.00800000E+00
  1.60000000E+01  1.00800000E+00  1.00800000E+00  1.60000000E+01  1.00800000E+00
  1.00800000E+00  1.60000000E+01  1.00800000E+00  1.00800000E+00  1.60000000E+01
  1.00800000E+00  1.00800000E+00  1.60000000E+01  1.00800000E+00  1.00800000E+00
  1.60000000E+01  1.00800000E+00  1.00800000E+00  1.60000000E+01  1.00800000E+00
  1.00800000E+00  1.60000000E+01  1.00800000E+00  1.00800000E+00  1.60000000E+01
  1.00800000E+00  1.00800000E+00  1.60000000E+01  1.00800000E+00  1.00800000E+00
  1.60000000E+01  1.00800000E+00  1.00800000E+00  1.60000000E+01  1.00800000E+00
  1.00800000E+00  1.60000000E+01  1.00800000E+00  1.00800000E+00  1.60000000E+01
  1.00800000E+00  1.00800000E+00  1.60000000E+01  1.00800000E+00  1.00800000E+00
  1.60000000E+01  1.00800000E+00  1.00800000E+00  1.60000000E+01  1.00800000E+00
  1.00800000E+00  1.60000000E+01  1.00800000E+00  1.00800000E+00  1.60000000E+01
  1.00800000E+00  1.00800000E+00  1.60000000E+01  1.00800000E+00  1.00800000E+00
  1.60000000E+01  1.00800000E+00  1.00800000E+00  1.60000000E+01  1.00800000E+00
  1.00800000E+00  1.60000000E+01  1.00800000E+00  1.00800000E+00  1.60000000E+01
  1.00800000E+00  1.00800000E+00  1.60000000E+01  1.00800000E+00  1.00800000E+00
  1.60000000E+01  1.00800000E+00  1.00800000E+00  1.60000000E+01  1.00800000E+00
  1.00800000E+00  1.60000000E+01  1.00800000E+00  1.00800000E+00  1.60000000E+01
  1.00800000E+00  1.00800000E+00  1.60000000E+01  1.00800000E+00  1.00800000E+00
  1.60000000E+01  1.00800000E+00  1.00800000E+00  1.60000000E+01  1.00800000E+00
  1.00800000E+00  1.60000000E+01  1.00800000E+00  1.00800000E+00  1.60000000E+01
  1.00800000E+00  1.00800000E+00  1.60000000E+01  1.00800000E+00  1.00800000E+00
  1.60000000E+01  1.00800000E+00  1.00800000E+00  1.60000000E+01  1.00800000E+00
  1.00800000E+00  1.60000000E+01  1.00800000E+00  1.00800000E+00  1.60000000E+01
  1.00800000E+00  1.00800000E+00  1.60000000E+01  1.00800000E+00  1.00800000E+00
  1.60000000E+01  1.00800000E+00  1.00800000E+00  1.60000000E+01  1.00800000E+00
  1.00800000E+00  1.60000000E+01  1.00800000E+00  1.00800000E+00  1.60000000E+01
  1.00800000E+00  1.00800000E+00  1.60000000E+01  1.00800000E+00  1.00800000E+00
  1.60000000E+01  1.00800000E+00  1.00800000E+00  1.60000000E+01  1.00800000E+00
  1.00800000E+00  1.60000000E+01  1.00800000E+00  1.00800000E+00  1.60000000E+01
  1.00800000E+00  1.00800000E+00  1.60000000E+01  1.00800000E+00  1.00800000E+00
  1.60000000E+01  1.00800000E+00  1.00800000E+00  1.60000000E+01  1.00800000E+00
  1.00800000E+00  1.60000000E+01  1.00800000E+00  1.00800000E+00  1.60000000E+01
  1.00800000E+00  1.00800000E+00  1.60000000E+01  1.00800000E+00  1.00800000E+00
  1.60000000E+01  1.00800000E+00  1.00800000E+00  1.60000000E+01  1.00800000E+00
  1.00800000E+00  1.60000000E+01  1.00800000E+00  1.00800000E+00  1.60000000E+01
  1.00800000E+00  1.00800000E+00  1.60000000E+01  1.00800000E+00  1.00800000E+00
  1.60000000E+01  1.00800000E+00  1.00800000E+00  1.60000000E+01  1.00800000E+00
  1.00800000E+00  1.60000000E+01  1.00800000E+00  1.00800000E+00  1.60000000E+01
  1.00800000E+00  1.00800000E+00  1.60000000E+01  1.00800000E+00  1.00800000E+00
  1.60000000E+01  1.00800000E+00  1.00800000E+00  1.60000000E+01  1.00800000E+00
  1.00800000E+00  1.60000000E+01  1.00800000E+00  1.00800000E+00  1.60000000E+01
  1.00800000E+00  1.00800000E+00  1.60000000E+01  1.00800000E+00  1.00800000E+00
  1.60000000E+01  1.00800000E+00  1.00800000E+00  1.60000000E+01  1.00800000E+00
  1.00800000E+00  1.60000000E+01  1.00800000E+00  1.00800000E+00  1.60000000E+01
  1.00800000E+00  1.00800000E+00  1.60000000E+01  1.00800000E+00  1.00800000E+00
  1.60000000E+01  1.00800000E+00  1.00800000E+00  1.60000000E+01  1.00800000E+00
  1.00800000E+00  1.60000000E+01  1.00800000E+00  1.00800000E+00  1.60000000E+01
  1.00800000E+00  1.00800000E+00  1.60000000E+01  1.00800000E+00  1.00800000E+00
  1.60000000E+01  1.00800000E+00  1.00800000E+00  1.60000000E+01  1.00800000E+00
  1.00800000E+00  1.60000000E+01  1.00800000E+00  1.00800000E+00  1.60000000E+01
  1.00800000E+00  1.00800000E+00  1.60000000E+01  1.00800000E+00  1.00800000E+00
  1.60000000E+01  1.00800000E+00  1.00800000E+00  1.60000000E+01  1.00800000E+00
  1.00800000E+00  1.60000000E+01  1.00800000E+00  1.00800000E+00  1.60000000E+01
  1.00800000E+00  1.00800000E+00  1.60000000E+01  1.00800000E+00  1.00800000E+00
  1.60000000E+01  1.00800000E+00  1.00800000E+00  1.60000000E+01  1.00800000E+00
  1.00800000E+00  1.60000000E+01  1.00800000E+00  1.00800000E+00  1.60000000E+01
  1.00800000E+00  1.00800000E+00  1.60000000E+01  1.00800000E+00  1.00800000E+00
  1.60000000E+01  1.00800000E+00  1.00800000E+00  1.60000000E+01  1.00800000E+00
  1.00800000E+00  1.60000000E+01  1.00800000E+00  1.00800000E+00  1.60000000E+01
  1.00800000E+00  1.00800000E+00  1.60000000E+01  1.00800000E+00  1.00800000E+00
  1.60000000E+01  1.00800000E+00  1.00800000E+00  1.60000000E+01  1.00800000E+00
  1.00800000E+00  1.60000000E+01  1.00800000E+00  1.00800000E+00  1.60000000E+01
  1.00800000E+00  1.00800000E+00  1.60000000E+01  1.00800000E+00  1.00800000E+00
  1.60000000E+01  1.00800000E+00  1.00800000E+00  1.60000000E+01  1.00800000E+00
  1.00800000E+00  1.60000000E+01  1.00800000E+00  1.00800000E+00  1.60000000E+01
  1.00800000E+00  1.00800000E+00  1.60000000E+01  1.00800000E+00  1.00800000E+00
  1.60000000E+01  1.00800000E+00  1.00800000E+00  1.60000000E+01  1.00800000E+00
  1.00800000E+00  1.60000000E+01  1.00800000E+00  1.00800000E+00  1.60000000E+01
  1.00800000E+00  1.00800000E+00  1.60000000E+01  1.00800000E+00  1.00800000E+00
  1.60000000E+01  1.00800000E+00  1.00800000E+00  1.60000000E+01  1.00800000E+00
  1.00800000E+00  1.60000000E+01  1.00800000E+00  1.00800000E+00  1.60000000E+01
  1.00800000E+00  1.00800000E+00  1.60000000E+01  1.00800000E+00  1.00800000E+00
  1.60000000E+01  1.00800000E+00  1.00800000E+00  1.60000000E+01  1.00800000E+00
  1.00800000E+00  1.60000000E+01  1.00800000E+00  1.00800000E+00  1.60000000E+01
  1.00800000E+00  1.00800000E+00  1.60000000E+01  1.00800000E+00  1.00800000E+00
  1.60000000E+01  1.00800000E+00  1.00800000E+00  1.60000000E+01  1.00800000E+00
  1.00800000E+00  1.60000000E+01  1.00800000E+00  1.00800000E+00  1.60000000E+01
  1.00800000E+00  1.00800000E+00  1.60000000E+01  1.00800000E+00  1.00800000E+00
  1.60000000E+01  1.00800000E+00  1.00800000E+00  1.60000000E+01  1.00800000E+00
  1.00800000E+00  1.60000000E+01  1.00800000E+00  1.00800000E+00  1.60000000E+01
  1.00800000E+00  1.00800000E+00  1.60000000E+01  1.00800000E+00  1.00800000E+00
  1.60000000E+01  1.00800000E+00  1.00800000E+00  1.60000000E+01  1.00800000E+00
  1.00800000E+00  1.60000000E+01  1.00800000E+00  1.00800000E+00  1.60000000E+01
  1.00800000E+00  1.00800000E+00  1.60000000E+01  1.00800000E+00  1.00800000E+00
  1.60000000E+01  1.00800000E+00  1.00800000E+00  1.60000000E+01  1.00800000E+00
  1.00800000E+00  1.60000000E+01  1.00800000E+00  1.00800000E+00  1.60000000E+01
  1.00800000E+00  1.00800000E+00  1.60000000E+01  1.00800000E+00  1.00800000E+00
  1.60000000E+01  1.00800000E+00  1.00800000E+00  1.60000000E+01  1.00800000E+00
  1.00800000E+00  1.60000000E+01  1.00800000E+00  1.00800000E+00  1.60000000E+01
  1.00800000E+00  1.00800000E+00  1.60000000E+01  1.00800000E+00  1.00800000E+00
  1.60000000E+01  1.00800000E+00  1.00800000E+00  1.60000000E+01  1.00800000E+00
  1.00800000E+00  1.60000000E+01  1.00800000E+00  1.00800000E+00  1.60000000E+01
  1.00800000E+00  1.00800000E+00  1.60000000E+01  1.00800000E+00  1.00800000E+00
  1.60000000E+01  1.00800000E+00  1.00800000E+00  1.60000000E+01  1.00800000E+00
  1.00800000E+00  1.60000000E+01  1.00800000E+00  1.00800000E+00  1.60000000E+01
  1.00800000E+00  1.00800000E+00  1.60000000E+01  1.00800000E+00  1.00800000E+00
  1.60000000E+01  1.00800000E+00  1.00800000E+00  1.60000000E+01  1.00800000E+00
  1.00800000E+00  1.60000000E+01  1.00800000E+00  1.00800000E+00  1.60000000E+01
  1.00800000E+00  1.00800000E+00  1.60000000E+01  1.00800000E+00  1.00800000E+00
  1.60000000E+01  1.00800000E+00  1.00800000E+00  1.60000000E+01  1.00800000E+00
  1.00800000E+00  1.60000000E+01  1.00800000E+00  1.00800000E+00  1.60000000E+01
  1.00800000E+00  1.00800000E+00  1.60000000E+01  1.00800000E+00  1.00800000E+00
  1.60000000E+01  1.00800000E+00  1.00800000E+00  1.60000000E+01  1.00800000E+00
  1.00800000E+00  1.60000000E+01  1.00800000E+00  1.00800000E+00  1.60000000E+01
  1.00800000E+00  1.00800000E+00  1.60000000E+01  1.00800000E+00  1.00800000E+00
  1.60000000E+01  1.00800000E+00  1.00800000E+00  1.60000000E+01  1.00800000E+00
  1.00800000E+00  1.60000000E+01  1.00800000E+00  1.00800000E+00  1.60000000E+01
  1.00800000E+00  1.00800000E+00  1.60000000E+01  1.00800000E+00  1.00800000E+00
  1.60000000E+01  1.00800000E+00  1.00800000E+00  1.60000000E+01  1.00800000E+00
  1.00800000E+00  1.60000000E+01  1.00800000E+00  1.00800000E+00  1.60000000E+01
  1.00800000E+00  1.00800000E+00  1.60000000E+01  1.00800000E+00  1.00800000E+00
  1.60000000E+01  1.00800000E+00  1.00800000E+00  1.60000000E+01  1.00800000E+00
  1.00800000E+00  1.60000000E+01  1.00800000E+00  1.00800000E+00  1.60000000E+01
  1.00800000E+00  1.00800000E+00  1.60000000E+01  1.00800000E+00  1.00800000E+00
  1.60000000E+01  1.00800000E+00  1.00800000E+00  1.60000000E+01  1.00800000E+00
  1.00800000E+00  1.60000000E+01  1.00800000E+00  1.00800000E+00  1.60000000E+01
  1.00800000E+00  1.00800000E+00  1.60000000E+01  1.00800000E+00  1.00800000E+00
  1.60000000E+01  1.00800000E+00  1.00800000E+00  1.60000000E+01  1.00800000E+00
  1.00800000E+00  1.60000000E+01  1.00800000E+00  1.00800000E+00  1.60000000E+01
  1.00800000E+00  1.00800000E+00  1.60000000E+01  1.00800000E+00  1.00800000E+00
  1.60000000E+01  1.00800000E+00  1.00800000E+00  1.60000000E+01  1.00800000E+00
  1.00800000E+00  1.60000000E+01  1.00800000E+00  1.00800000E+00  1.60000000E+01
  1.00800000E+00  1.00800000E+00  1.60000000E+01  1.00800000E+00  1.00800000E+00
  1.60000000E+01  1.00800000E+00  1.00800000E+00  1.60000000E+01  1.00800000E+00
  1.00800000E+00  1.60000000E+01  1.00800000E+00  1.00800000E+00  1.60000000E+01
  1.00800000E+00  1.00800000E+00  1.60000000E+01  1.00800000E+00  1.00800000E+00
  1.60000000E+01  1.00800000E+00  1.00800000E+00  1.60000000E+01  1.00800000E+00
  1.00800000E+00  1.60000000E+01  1.00800000E+00  1.00800000E+00  1.60000000E+01
  1.00800000E+00  1.00800000E+00  1.60000000E+01  1.00800000E+00  1.00800000E+00
  1.60000000E+01  1.00800000E+00  1.00800000E+00  1.60000000E+01  1.00800000E+00
  1.00800000E+00  1.60000000E+01  1.00800000E+00  1.00800000E+00  1.60000000E+01
  1.00800000E+00  1.00800000E+00  1.60000000E+01  1.00800000E+00  1.00800000E+00
  1.60000000E+01  1.00800000E+00  1.00800000E+00  1.60000000E+01  1.00800000E+00
  1.00800000E+00  1.60000000E+01  1.00800000E+00  1.00800000E+00  1.60000000E+01
  1.00800000E+00  1.00800000E+00  1.60000000E+01  1.00800000E+00  1.00800000E+00
  1.60000000E+01  1.00800000E+00  1.00800000E+00  1.60000000E+01  1.00800000E+00
  1.00800000E+00  1.60000000E+01  1.00800000E+00  1.00800000E+00  1.60000000E+01
  1.00800000E+00  1.00800000E+00  1.60000000E+01  1.00800000E+00  1.00800000E+00
  1.60000000E+01  1.00800000E+00  1.00800000E+00  1.60000000E+01  1.00800000E+00
  1.00800000E+00  1.60000000E+01  1.00800000E+00  1.00800000E+00  1.60000000E+01
  1.00800000E+00  1.00800000E+00  1.60000000E+01  1.00800000E+00  1.00800000E+00
  1.60000000E+01  1.00800000E+00  1.00800000E+00  1.60000000E+01  1.00800000E+00
  1.00800000E+00  1.60000000E+01  1.00800000E+00  1.00800000E+00  1.60000000E+01
  1.00800000E+00  1.00800000E+00  1.60000000E+01  1.00800000E+00  1.00800000E+00
  1.60000000E+01  1.00800000E+00  1.00800000E+00  1.60000000E+01  1.00800000E+00
  1.00800000E+00  1.60000000E+01  1.00800000E+00  1.00800000E+00  1.60000000E+01
  1.00800000E+00  1.00800000E+00  1.60000000E+01  1.00800000E+00  1.00800000E+00
  1.60000000E+01  1.00800000E+00  1.00800000E+00  1.60000000E+01  1.00800000E+00
  1.00800000E+00  1.60000000E+01  1.00800000E+00  1.00800000E+00  1.60000000E+01
  1.00800000E+00  1.00800000E+00  1.60000000E+01  1.00800000E+00  1.00800000E+00
  1.60000000E+01  1.00800000E+00  1.00800000E+00  1.60000000E+01  1.00800000E+00
  1.00800000E+00  1.60000000E+01  1.00800000E+00  1.00800000E+00  1.60000000E+01
  1.00800000E+00  1.00800000E+00  1.60000000E+01  1.00800000E+00  1.00800000E+00
  1.60000000E+01  1.00800000E+00  1.00800000E+00  1.60000000E+01  1.00800000E+00
  1.00800000E+00  1.60000000E+01  1.00800000E+00  1.00800000E+00  1.60000000E+01
  1.00800000E+00  1.00800000E+00  1.60000000E+01  1.00800000E+00  1.00800000E+00
  1.60000000E+01  1.00800000E+00  1.00800000E+00  1.60000000E+01  1.00800000E+00
  1.00800000E+00  1.60000000E+01  1.00800000E+00  1.00800000E+00  1.60000000E+01
  1.00800000E+00  1.00800000E+00  1.60000000E+01  1.00800000E+00  1.00800000E+00
  1.60000000E+01  1.00800000E+00  1.00800000E+00  1.60000000E+01  1.00800000E+00
  1.00800000E+00  1.60000000E+01  1.00800000E+00  1.00800000E+00  1.60000000E+01
  1.00800000E+00  1.00800000E+00  1.60000000E+01  1.00800000E+00  1.00800000E+00
  1.60000000E+01  1.00800000E+00  1.00800000E+00  1.60000000E+01  1.00800000E+00
  1.00800000E+00  1.60000000E+01  1.00800000E+00  1.00800000E+00  1.60000000E+01
  1.00800000E+00  1.00800000E+00  1.60000000E+01  1.00800000E+00  1.00800000E+00
  1.60000000E+01  1.00800000E+00  1.00800000E+00  1.60000000E+01  1.00800000E+00
  1.00800000E+00  1.60000000E+01  1.00800000E+00  1.00800000E+00  1.60000000E+01
  1.00800000E+00  1.00800000E+00  1.60000000E+01  1.00800000E+00  1.00800000E+00
  1.60000000E+01  1.00800000E+00  1.00800000E+00  1.60000000E+01  1.00800000E+00
  1.00800000E+00  1.60000000E+01  1.00800000E+00  1.00800000E+00  1.60000000E+01
  1.00800000E+00  1.00800000E+00  1.60000000E+01  1.00800000E+00  1.00800000E+00
  1.60000000E+01  1.00800000E+00  1.00800000E+00  1.60000000E+01  1.00800000E+00
  1.00800000E+00  1.60000000E+01  1.00800000E+00  1.00800000E+00  1.60000000E+01
  1.00800000E+00  1.00800000E+00  1.60000000E+01  1.00800000E+00  1.00800000E+00
  1.60000000E+01  1.00800000E+00  1.00800000E+00  1.60000000E+01  1.00800000E+00
  1.00800000E+00  1.60000000E+01  1.00800000E+00  1.00800000E+00  1.60000000E+01
  1.00800000E+00  1.00800000E+00  1.60000000E+01  1.00800000E+00  1.00800000E+00
  1.60000000E+01  1.00800000E+00  1.00800000E+00  1.60000000E+01  1.00800000E+00
  1.00800000E+00  1.60000000E+01  1.00800000E+00  1.00800000E+00  1.60000000E+01
  1.00800000E+00  1.00800000E+00  1.60000000E+01  1.00800000E+00  1.00800000E+00
  1.60000000E+01  1.00800000E+00  1.00800000E+00  1.60000000E+01  1.00800000E+00
  1.00800000E+00  1.60000000E+01  1.00800000E+00  1.00800000E+00  1.60000000E+01
  1.00800000E+00  1.00800000E+00  1.60000000E+01  1.00800000E+00  1.00800000E+00
  1.60000000E+01  1.00800000E+00  1.00800000E+00  1.60000000E+01  1.00800000E+00
  1.00800000E+00  1.60000000E+01  1.00800000E+00  1.00800000E+00  1.60000000E+01
  1.00800000E+00  1.00800000E+00  1.60000000E+01  1.00800000E+00  1.00800000E+00
  1.60000000E+01  1.00800000E+00  1.00800000E+00  1.60000000E+01  1.00800000E+00
  1.00800000E+00  1.60000000E+01  1.00800000E+00  1.00800000E+00  1.60000000E+01
  1.00800000E+00  1.00800000E+00  1.60000000E+01  1.00800000E+00  1.00800000E+00
  1.60000000E+01  1.00800000E+00  1.00800000E+00  1.60000000E+01  1.00800000E+00
  1.00800000E+00  1.60000000E+01  1.00800000E+00  1.00800000E+00  1.60000000E+01
  1.00800000E+00  1.00800000E+00  1.60000000E+01  1.00800000E+00  1.00800000E+00
  1.60000000E+01  1.00800000E+00  1.00800000E+00  1.60000000E+01  1.00800000E+00
  1.00800000E+00  1.60000000E+01  1.00800000E+00  1.00800000E+00  1.60000000E+01
  1.00800000E+00  1.00800000E+00  1.60000000E+01  1.00800000E+00  1.00800000E+00
  1.60000000E+01  1.00800000E+00  1.00800000E+00  1.60000000E+01  1.00800000E+00
  1.00800000E+00  1.60000000E+01  1.00800000E+00  1.00800000E+00  1.60000000E+01
  1.00800000E+00  1.00800000E+00  1.60000000E+01  1.00800000E+00  1.00800000E+00
  1.60000000E+01  1.00800000E+00  1.00800000E+00  1.60000000E+01  1.00800000E+00
  1.00800000E+00  1.60000000E+01  1.00800000E+00  1.00800000E+00  1.60000000E+01
  1.00800000E+00  1.00800000E+00  1.60000000E+01  1.00800000E+00  1.00800000E+00
  1.60000000E+01  1.00800000E+00  1.00800000E+00  1.60000000E+01  1.00800000E+00
  1.00800000E+00  1.60000000E+01  1.00800000E+00  1.00800000E+00  1.60000000E+01
  1.00800000E+00  1.00800000E+00  1.60000000E+01  1.00800000E+00  1.00800000E+00
  1.60000000E+01  1.00800000E+00  1.00800000E+00  1.60000000E+01  1.00800000E+00
  1.00800000E+00  1.60000000E+01  1.00800000E+00  1.00800000E+00  1.60000000E+01
  1.00800000E+00  1.00800000E+00  1.60000000E+01  1.00800000E+00  1.00800000E+00
  1.60000000E+01  1.00800000E+00  1.00800000E+00  1.60000000E+01  1.00800000E+00
  1.00800000E+00  1.60000000E+01  1.00800000E+00  1.00800000E+00  1.60000000E+01
  1.00800000E+00  1.00800000E+00  1.60000000E+01  1.00800000E+00  1.00800000E+00
  1.60000000E+01  1.00800000E+00  1.00800000E+00  1.60000000E+01  1.00800000E+00
  1.00800000E+00  1.60000000E+01  1.00800000E+00  1.00800000E+00  1.60000000E+01
  1.00800000E+00  1.00800000E+00  1.60000000E+01  1.00800000E+00  1.00800000E+00
  1.60000000E+01  1.00800000E+00  1.00800000E+00  1.60000000E+01  1.00800000E+00
  1.00800000E+00  1.60000000E+01  1.00800000E+00  1.00800000E+00  1.60000000E+01
  1.00800000E+00  1.00800000E+00  1.60000000E+01  1.00800000E+00  1.00800000E+00
  1.60000000E+01  1.00800000E+00  1.00800000E+00  1.60000000E+01  1.00800000E+00
  1.00800000E+00  1.60000000E+01  1.00800000E+00  1.00800000E+00  1.60000000E+01
  1.00800000E+00  1.00800000E+00  1.60000000E+01  1.00800000E+00  1.00800000E+00
  1.60000000E+01  1.00800000E+00  1.00800000E+00  1.60000000E+01  1.00800000E+00
  1.00800000E+00  1.60000000E+01  1.00800000E+00  1.00800000E+00  1.60000000E+01
  1.00800000E+00  1.00800000E+00  1.60000000E+01  1.00800000E+00  1.00800000E+00
  1.60000000E+01  1.00800000E+00  1.00800000E+00  1.60000000E+01  1.00800000E+00
  1.00800000E+00  1.60000000E+01  1.00800000E+00  1.00800000E+00  1.60000000E+01
  1.00800000E+00  1.00800000E+00  1.60000000E+01  1.00800000E+00  1.00800000E+00
  1.60000000E+01  1.00800000E+00  1.00800000E+00  1.60000000E+01  1.00800000E+00
  1.00800000E+00  1.60000000E+01  1.00800000E+00  1.00800000E+00  1.60000000E+01
  1.00800000E+00  1.00800000E+00  1.60000000E+01  1.00800000E+00  1.00800000E+00
  1.60000000E+01  1.00800000E+00  1.00800000E+00  1.60000000E+01  1.00800000E+00
  1.00800000E+00  1.60000000E+01  1.00800000E+00  1.00800000E+00  1.60000000E+01
  1.00800000E+00  1.00800000E+00  1.60000000E+01  1.00800000E+00  1.00800000E+00
  1.60000000E+01  1.00800000E+00  1.00800000E+00  1.60000000E+01  1.00800000E+00
  1.00800000E+00  1.60000000E+01  1.00800000E+00  1.00800000E+00  1.60000000E+01
  1.00800000E+00  1.00800000E+00  1.60000000E+01  1.00800000E+00  1.00800000E+00
  1.60000000E+01  1.00800000E+00  1.00800000E+00  1.60000000E+01  1.00800000E+00
  1.00800000E+00  1.60000000E+01  1.00800000E+00  1.00800000E+00  1.60000000E+01
  1.00800000E+00  1.00800000E+00  1.60000000E+01  1.00800000E+00  1.00800000E+00
  1.60000000E+01  1.00800000E+00  1.00800000E+00  1.60000000E+01  1.00800000E+00
  1.00800000E+00  1.60000000E+01  1.00800000E+00  1.00800000E+00  1.60000000E+01
  1.00800000E+00  1.00800000E+00  1.60000000E+01  1.00800000E+00  1.00800000E+00
  1.60000000E+01  1.00800000E+00  1.00800000E+00  1.60000000E+01  1.00800000E+00
  1.00800000E+00  1.60000000E+01  1.00800000E+00  1.00800000E+00  1.60000000E+01
  1.00800000E+00  1.00800000E+00  1.60000000E+01  1.00800000E+00  1.00800000E+00
  1.60000000E+01  1.00800000E+00  1.00800000E+00  1.60000000E+01  1.00800000E+00
  1.00800000E+00  1.60000000E+01  1.00800000E+00  1.00800000E+00  1.60000000E+01
  1.00800000E+00  1.00800000E+00  1.60000000E+01  1.00800000E+00  1.00800000E+00
  1.60000000E+01  1.00800000E+00  1.00800000E+00  1.60000000E+01  1.00800000E+00
  1.00800000E+00  1.60000000E+01  1.00800000E+00  1.00800000E+00  1.60000000E+01
  1.00800000E+00  1.00800000E+00  1.60000000E+01  1.00800000E+00  1.00800000E+00
  1.60000000E+01  1.00800000E+00  1.00800000E+00  1.60000000E+01  1.00800000E+00
  1.00800000E+00  1.60000000E+01  1.00800000E+00  1.00800000E+00  1.60000000E+01
  1.00800000E+00  1.00800000E+00  1.60000000E+01  1.00800000E+00  1.00800000E+00
  1.60000000E+01  1.00800000E+00  1.00800000E+00  1.60000000E+01  1.00800000E+00
  1.00800000E+00  1.60000000E+01  1.00800000E+00  1.00800000E+00  1.60000000E+01
  1.00800000E+00  1.00800000E+00  1.60000000E+01  1.00800000E+00  1.00800000E+00
  1.60000000E+01  1.00800000E+00  1.00800000E+00  1.60000000E+01  1.00800000E+00
  1.00800000E+00  1.60000000E+01  1.00800000E+00  1.00800000E+00  1.60000000E+01
  1.00800000E+00  1.00800000E+00  1.60000000E+01  1.00800000E+00  1.00800000E+00
  1.60000000E+01  1.00800000E+00  1.00800000E+00  1.60000000E+01  1.00800000E+00
  1.00800000E+00  1.60000000E+01  1.00800000E+00  1.00800000E+00  1.60000000E+01
  1.00800000E+00  1.00800000E+00  1.60000000E+01  1.00800000E+00  1.00800000E+00
  1.60000000E+01  1.00800000E+00  1.00800000E+00  1.60000000E+01  1.00800000E+00
  1.00800000E+00  1.60000000E+01  1.00800000E+00  1.00800000E+00  1.60000000E+01
  1.00800000E+00  1.00800000E+00  1.60000000E+01  1.00800000E+00  1.00800000E+00
  1.60000000E+01  1.00800000E+00  1.00800000E+00  1.60000000E+01  1.00800000E+00
  1.00800000E+00  1.60000000E+01  1.00800000E+00  1.00800000E+00  1.60000000E+01
  1.00800000E+00  1.00800000E+00  1.60000000E+01  1.00800000E+00  1.00800000E+00
  1.60000000E+01  1.00800000E+00  1.00800000E+00  1.60000000E+01  1.00800000E+00
  1.00800000E+00  1.60000000E+01  1.00800000E+00  1.00800000E+00  1.60000000E+01
  1.00800000E+00  1.00800000E+00  1.60000000E+01  1.00800000E+00  1.00800000E+00
  1.60000000E+01  1.00800000E+00  1.00800000E+00  1.60000000E+01  1.00800000E+00
  1.00800000E+00  1.60000000E+01  1.00800000E+00  1.00800000E+00  1.60000000E+01
  1.00800000E+00  1.00800000E+00  1.60000000E+01  1.00800000E+00  1.00800000E+00
  1.60000000E+01  1.00800000E+00  1.00800000E+00  1.60000000E+01  1.00800000E+00
  1.00800000E+00  1.60000000E+01  1.00800000E+00  1.00800000E+00  1.60000000E+01
  1.00800000E+00  1.00800000E+00  1.60000000E+01  1.00800000E+00  1.00800000E+00
  1.60000000E+01  1.00800000E+00  1.00800000E+00  1.60000000E+01  1.00800000E+00
  1.00800000E+00  1.60000000E+01  1.00800000E+00  1.00800000E+00  1.60000000E+01
  1.00800000E+00  1.00800000E+00  1.60000000E+01  1.00800000E+00  1.00800000E+00
  1.60000000E+01  1.00800000E+00  1.00800000E+00  1.60000000E+01  1.00800000E+00
  1.00800000E+00  1.60000000E+01  1.00800000E+00  1.00800000E+00  1.60000000E+01
  1.00800000E+00  1.00800000E+00  1.60000000E+01  1.00800000E+00  1.00800000E+00
  1.60000000E+01  1.00800000E+00  1.00800000E+00  1.60000000E+01  1.00800000E+00
  1.00800000E+00  1.60000000E+01  1.00800000E+00  1.00800000E+00  1.60000000E+01
  1.00800000E+00  1.00800000E+00  1.60000000E+01  1.00800000E+00  1.00800000E+00
  1.60000000E+01  1.00800000E+00  1.00800000E+00  1.60000000E+01  1.00800000E+00
  1.00800000E+00  1.60000000E+01  1.00800000E+00  1.00800000E+00  1.60000000E+01
  1.00800000E+00  1.00800000E+00  1.60000000E+01  1.00800000E+00  1.00800000E+00
  1.60000000E+01  1.00800000E+00  1.00800000E+00  1.60000000E+01  1.00800000E+00
  1.00800000E+00  1.60000000E+01  1.00800000E+00  1.00800000E+00  1.60000000E+01
  1.00800000E+00  1.00800000E+00  1.60000000E+01  1.00800000E+00  1.00800000E+00
  1.60000000E+01  1.00800000E+00  1.00800000E+00  1.60000000E+01  1.00800000E+00
  1.00800000E+00  1.60000000E+01  1.00800000E+00  1.00800000E+00  1.60000000E+01
  1.00800000E+00  1.00800000E+00  1.60000000E+01  1.00800000E+00  1.00800000E+00
  1.60000000E+01  1.00800000E+00  1.00800000E+00  1.60000000E+01  1.00800000E+00
  1.00800000E+00  1.60000000E+01  1.00800000E+00  1.00800000E+00  1.60000000E+01
  1.00800000E+00  1.00800000E+00  1.60000000E+01  1.00800000E+00  1.00800000E+00
  1.60000000E+01  1.00800000E+00  1.00800000E+00  1.60000000E+01  1.00800000E+00
  1.00800000E+00  1.60000000E+01  1.00800000E+00  1.00800000E+00  1.60000000E+01
  1.00800000E+00  1.00800000E+00  1.60000000E+01  1.00800000E+00  1.00800000E+00
  1.60000000E+01  1.00800000E+00  1.00800000E+00  1.60000000E+01  1.00800000E+00
  1.00800000E+00  1.60000000E+01  1.00800000E+00  1.00800000E+00  1.60000000E+01
  1.00800000E+00  1.00800000E+00  1.60000000E+01  1.00800000E+00  1.00800000E+00
  1.60000000E+01  1.00800000E+00  1.00800000E+00  1.60000000E+01  1.00800000E+00
  1.00800000E+00  1.60000000E+01  1.00800000E+00  1.00800000E+00  1.60000000E+01
  1.00800000E+00  1.00800000E+00  1.60000000E+01  1.00800000E+00  1.00800000E+00
  1.60000000E+01  1.00800000E+00  1.00800000E+00  1.60000000E+01  1.00800000E+00
  1.00800000E+00  1.60000000E+01  1.00800000E+00  1.00800000E+00  1.60000000E+01
  1.00800000E+00  1.00800000E+00  1.60000000E+01  1.00800000E+00  1.00800000E+00
  1.60000000E+01  1.00800000E+00  1.00800000E+00  1.60000000E+01  1.00800000E+00
  1.00800000E+00  1.60000000E+01  1.00800000E+00  1.00800000E+00  1.60000000E+01
  1.00800000E+00  1.00800000E+00  1.60000000E+01  1.00800000E+00  1.00800000E+00
  1.60000000E+01  1.00800000E+00  1.00800000E+00  1.60000000E+01  1.00800000E+00
  1.00800000E+00  1.60000000E+01  1.00800000E+00  1.00800000E+00  1.60000000E+01
  1.00800000E+00  1.00800000E+00  1.60000000E+01  1.00800000E+00  1.00800000E+00
  1.60000000E+01  1.00800000E+00  1.00800000E+00  1.60000000E+01  1.00800000E+00
  1.00800000E+00  1.60000000E+01  1.00800000E+00  1.00800000E+00  1.60000000E+01
  1.00800000E+00  1.00800000E+00  1.60000000E+01  1.00800000E+00  1.00800000E+00
  1.60000000E+01  1.00800000E+00  1.00800000E+00  1.60000000E+01  1.00800000E+00
  1.00800000E+00  1.60000000E+01  1.00800000E+00  1.00800000E+00  1.60000000E+01
  1.00800000E+00  1.00800000E+00  1.60000000E+01  1.00800000E+00  1.00800000E+00
  1.60000000E+01  1.00800000E+00  1.00800000E+00  1.60000000E+01  1.00800000E+00
  1.00800000E+00  1.60000000E+01  1.00800000E+00  1.00800000E+00  1.60000000E+01
  1.00800000E+00  1.00800000E+00  1.60000000E+01  1.00800000E+00  1.00800000E+00
  1.60000000E+01  1.00800000E+00  1.00800000E+00  1.60000000E+01  1.00800000E+00
  1.00800000E+00  1.60000000E+01  1.00800000E+00  1.00800000E+00  1.60000000E+01
  1.00800000E+00  1.00800000E+00  1.60000000E+01  1.00800000E+00  1.00800000E+00
  1.60000000E+01  1.00800000E+00  1.00800000E+00  1.60000000E+01  1.00800000E+00
  1.00800000E+00  1.60000000E+01  1.00800000E+00  1.00800000E+00  1.60000000E+01
  1.00800000E+00  1.00800000E+00  1.60000000E+01  1.00800000E+00  1.00800000E+00
  1.60000000E+01  1.00800000E+00  1.00800000E+00  1.60000000E+01  1.00800000E+00
  1.00800000E+00  1.60000000E+01  1.00800000E+00  1.00800000E+00  1.60000000E+01
  1.00800000E+00  1.00800000E+00  1.60000000E+01  1.00800000E+00  1.00800000E+00
  1.60000000E+01  1.00800000E+00  1.00800000E+00  1.60000000E+01  1.00800000E+00
  1.00800000E+00  1.60000000E+01  1.00800000E+00  1.00800000E+00  1.60000000E+01
  1.00800000E+00  1.00800000E+00  1.60000000E+01  1.00800000E+00  1.00800000E+00
  1.60000000E+01  1.00800000E+00  1.00800000E+00  1.60000000E+01  1.00800000E+00
  1.00800000E+00  1.60000000E+01  1.00800000E+00  1.00800000E+00  1.60000000E+01
  1.00800000E+00  1.00800000E+00  1.60000000E+01  1.00800000E+00  1.00800000E+00
  1.60000000E+01  1.00800000E+00  1.00800000E+00  1.60000000E+01  1.00800000E+00
  1.00800000E+00  1.60000000E+01  1.00800000E+00  1.00800000E+00  1.60000000E+01
  1.00800000E+00  1.00800000E+00  1.60000000E+01  1.00800000E+00  1.00800000E+00
  1.60000000E+01  1.00800000E+00  1.00800000E+00  1.60000000E+01  1.00800000E+00
  1.00800000E+00  1.60000000E+01  1.00800000E+00  1.00800000E+00  1.60000000E+01
  1.00800000E+00  1.00800000E+00  1.60000000E+01  1.00800000E+00  1.00800000E+00
  1.60000000E+01  1.00800000E+00  1.00800000E+00  1.60000000E+01  1.00800000E+00
  1.00800000E+00  1.60000000E+01  1.00800000E+00  1.00800000E+00  1.60000000E+01
  1.00800000E+00  1.00800000E+00  1.60000000E+01  1.00800000E+00  1.00800000E+00
  1.60000000E+01  1.00800000E+00  1.00800000E+00  1.60000000E+01  1.00800000E+00
  1.00800000E+00  1.60000000E+01  1.00800000E+00  1.00800000E+00  1.60000000E+01
  1.00800000E+00  1.00800000E+00  1.60000000E+01  1.00800000E+00  1.00800000E+00
  1.60000000E+01  1.00800000E+00  1.00800000E+00  1.60000000E+01  1.00800000E+00
  1.00800000E+00  1.60000000E+01  1.00800000E+00  1.00800000E+00  1.60000000E+01
  1.00800000E+00  1.00800000E+00  1.60000000E+01  1.00800000E+00  1.00800000E+00
  1.60000000E+01  1.00800000E+00  1.00800000E+00  1.60000000E+01  1.00800000E+00
  1.00800000E+00  1.60000000E+01  1.00800000E+00  1.00800000E+00  1.60000000E+01
  1.00800000E+00  1.00800000E+00  1.60000000E+01  1.00800000E+00  1.00800000E+00
  1.60000000E+01  1.00800000E+00  1.00800000E+00  1.60000000E+01  1.00800000E+00
  1.00800000E+00  1.60000000E+01  1.00800000E+00  1.00800000E+00  1.60000000E+01
  1.00800000E+00  1.00800000E+00  1.60000000E+01  1.00800000E+00  1.00800000E+00
  1.60000000E+01  1.00800000E+00  1.00800000E+00  1.60000000E+01  1.00800000E+00
  1.00800000E+00  1.60000000E+01  1.00800000E+00  1.00800000E+00  1.60000000E+01
  1.00800000E+00  1.00800000E+00  1.60000000E+01  1.00800000E+00  1.00800000E+00
  1.60000000E+01  1.00800000E+00  1.00800000E+00  1.60000000E+01  1.00800000E+00
  1.00800000E+00  1.60000000E+01  1.00800000E+00  1.00800000E+00  1.60000000E+01
  1.00800000E+00  1.00800000E+00  1.60000000E+01  1.00800000E+00  1.00800000E+00
  1.60000000E+01  1.00800000E+00  1.00800000E+00  1.60000000E+01  1.00800000E+00
  1.00800000E+00  1.60000000E+01  1.00800000E+00  1.00800000E+00  1.60000000E+01
  1.00800000E+00  1.00800000E+00  1.60000000E+01  1.00800000E+00  1.00800000E+00
  1.60000000E+01  1.00800000E+00  1.00800000E+00  1.60000000E+01  1.00800000E+00
  1.00800000E+00  1.60000000E+01  1.00800000E+00  1.00800000E+00  1.60000000E+01
  1.00800000E+00  1.00800000E+00  1.60000000E+01  1.00800000E+00  1.00800000E+00
  1.60000000E+01  1.00800000E+00  1.00800000E+00  1.60000000E+01  1.00800000E+00
  1.00800000E+00  1.60000000E+01  1.00800000E+00  1.00800000E+00  1.60000000E+01
  1.00800000E+00  1.00800000E+00  1.60000000E+01  1.00800000E+00  1.00800000E+00
  1.60000000E+01  1.00800000E+00  1.00800000E+00  1.60000000E+01  1.00800000E+00
  1.00800000E+00  1.60000000E+01  1.00800000E+00  1.00800000E+00  1.60000000E+01
  1.00800000E+00  1.00800000E+00  1.60000000E+01  1.00800000E+00  1.00800000E+00
  1.60000000E+01  1.00800000E+00  1.00800000E+00  1.60000000E+01  1.00800000E+00
  1.00800000E+00  1.60000000E+01  1.00800000E+00  1.00800000E+00  1.60000000E+01
  1.00800000E+00  1.00800000E+00  1.60000000E+01  1.00800000E+00  1.00800000E+00
  1.60000000E+01  1.00800000E+00  1.00800000E+00  1.60000000E+01  1.00800000E+00
  1.00800000E+00  1.60000000E+01  1.00800000E+00  1.00800000E+00  1.60000000E+01
  1.00800000E+00  1.00800000E+00  1.60000000E+01  1.00800000E+00  1.00800000E+00
  1.60000000E+01  1.00800000E+00  1.00800000E+00  1.60000000E+01  1.00800000E+00
  1.00800000E+00  1.60000000E+01  1.00800000E+00  1.00800000E+00  1.60000000E+01
  1.00800000E+00  1.00800000E+00  1.60000000E+01  1.00800000E+00  1.00800000E+00
  1.60000000E+01  1.00800000E+00  1.00800000E+00  1.60000000E+01  1.00800000E+00
  1.00800000E+00  1.60000000E+01  1.00800000E+00  1.00800000E+00  1.60000000E+01
  1.00800000E+00  1.00800000E+00  1.60000000E+01  1.00800000E+00  1.00800000E+00
  1.60000000E+01  1.00800000E+00  1.00800000E+00  1.60000000E+01  1.00800000E+00
  1.00800000E+00  1.60000000E+01  1.00800000E+00  1.00800000E+00  1.60000000E+01
  1.00800000E+00  1.00800000E+00  1.60000000E+01  1.00800000E+00  1.00800000E+00
  1.60000000E+01  1.00800000E+00  1.00800000E+00  1.60000000E+01  1.00800000E+00
  1.00800000E+00  1.60000000E+01  1.00800000E+00  1.00800000E+00  1.60000000E+01
  1.00800000E+00  1.00800000E+00  1.60000000E+01  1.00800000E+00  1.00800000E+00
  1.60000000E+01  1.00800000E+00  1.00800000E+00  1.60000000E+01  1.00800000E+00
  1.00800000E+00  1.60000000E+01  1.00800000E+00  1.00800000E+00  1.60000000E+01
  1.00800000E+00  1.00800000E+00  1.60000000E+01  1.00800000E+00  1.00800000E+00
  1.60000000E+01  1.00800000E+00  1.00800000E+00  1.60000000E+01  1.00800000E+00
  1.00800000E+00  1.60000000E+01  1.00800000E+00  1.00800000E+00  1.60000000E+01
  1.00800000E+00  1.00800000E+00  1.60000000E+01  1.00800000E+00  1.00800000E+00
  1.60000000E+01  1.00800000E+00  1.00800000E+00  1.60000000E+01  1.00800000E+00
  1.00800000E+00  1.60000000E+01  1.00800000E+00  1.00800000E+00  1.60000000E+01
  1.00800000E+00  1.00800000E+00  1.60000000E+01  1.00800000E+00  1.00800000E+00
  1.60000000E+01  1.00800000E+00  1.00800000E+00  1.60000000E+01  1.00800000E+00
  1.00800000E+00  1.60000000E+01  1.00800000E+00  1.00800000E+00  1.60000000E+01
  1.00800000E+00  1.00800000E+00  1.60000000E+01  1.00800000E+00  1.00800000E+00
  1.60000000E+01  1.00800000E+00  1.00800000E+00  1.60000000E+01  1.00800000E+00
  1.00800000E+00  1.60000000E+01  1.00800000E+00  1.00800000E+00  1.60000000E+01
  1.00800000E+00  1.00800000E+00  1.60000000E+01  1.00800000E+00  1.00800000E+00
  1.60000000E+01  1.00800000E+00  1.00800000E+00  1.60000000E+01  1.00800000E+00
  1.00800000E+00  1.60000000E+01  1.00800000E+00  1.00800000E+00  1.60000000E+01
  1.00800000E+00  1.00800000E+00  1.60000000E+01  1.00800000E+00  1.00800000E+00
  1.60000000E+01  1.00800000E+00  1.00800000E+00  1.60000000E+01  1.00800000E+00
  1.00800000E+00  1.60000000E+01  1.00800000E+00  1.00800000E+00  1.60000000E+01
  1.00800000E+00  1.00800000E+00  1.60000000E+01  1.00800000E+00  1.00800000E+00
  1.60000000E+01  1.00800000E+00  1.00800000E+00  1.60000000E+01  1.00800000E+00
  1.00800000E+00  1.60000000E+01  1.00800000E+00  1.00800000E+00  1.60000000E+01
  1.00800000E+00  1.00800000E+00  1.60000000E+01  1.00800000E+00  1.00800000E+00
  1.60000000E+01  1.00800000E+00  1.00800000E+00  1.60000000E+01  1.00800000E+00
  1.00800000E+00  1.60000000E+01  1.00800000E+00  1.00800000E+00  1.60000000E+01
  1.00800000E+00  1.00800000E+00  1.60000000E+01  1.00800000E+00  1.00800000E+00
  1.60000000E+01  1.00800000E+00  1.00800000E+00  1.60000000E+01  1.00800000E+00
  1.00800000E+00  1.60000000E+01  1.00800000E+00  1.00800000E+00  1.60000000E+01
  1.00800000E+00  1.00800000E+00  1.60000000E+01  1.00800000E+00  1.00800000E+00
  1.60000000E+01  1.00800000E+00  1.00800000E+00  1.60000000E+01  1.00800000E+00
  1.00800000E+00  1.60000000E+01  1.00800000E+00  1.00800000E+00  1.60000000E+01
  1.00800000E+00  1.00800000E+00  1.60000000E+01  1.00800000E+00  1.00800000E+00
  1.60000000E+01  1.00800000E+00  1.00800000E+00  1.60000000E+01  1.00800000E+00
  1.00800000E+00  1.60000000E+01  1.00800000E+00  1.00800000E+00  1.60000000E+01
  1.00800000E+00  1.00800000E+00  1.60000000E+01  1.00800000E+00  1.00800000E+00
  1.60000000E+01  1.00800000E+00  1.00800000E+00  1.60000000E+01  1.00800000E+00
  1.00800000E+00  1.60000000E+01  1.00800000E+00  1.00800000E+00  1.60000000E+01
  1.00800000E+00  1.00800000E+00  1.60000000E+01  1.00800000E+00  1.00800000E+00
  1.60000000E+01  1.00800000E+00  1.00800000E+00  1.60000000E+01  1.00800000E+00
  1.00800000E+00  1.60000000E+01  1.00800000E+00  1.00800000E+00  1.60000000E+01
  1.00800000E+00  1.00800000E+00  1.60000000E+01  1.00800000E+00  1.00800000E+00
  1.60000000E+01  1.00800000E+00  1.00800000E+00  1.60000000E+01  1.00800000E+00
  1.00800000E+00  1.60000000E+01  1.00800000E+00  1.00800000E+00  1.60000000E+01
  1.00800000E+00  1.00800000E+00  1.60000000E+01  1.00800000E+00  1.00800000E+00
  1.60000000E+01  1.00800000E+00  1.00800000E+00  1.60000000E+01  1.00800000E+00
  1.00800000E+00  1.60000000E+01  1.00800000E+00  1.00800000E+00  1.60000000E+01
  1.00800000E+00  1.00800000E+00  1.60000000E+01  1.00800000E+00  1.00800000E+00
  1.60000000E+01  1.00800000E+00  1.00800000E+00  1.60000000E+01  1.00800000E+00
  1.00800000E+00  1.60000000E+01  1.00800000E+00  1.00800000E+00  1.60000000E+01
  1.00800000E+00  1.00800000E+00  1.60000000E+01  1.00800000E+00  1.00800000E+00
  1.60000000E+01  1.00800000E+00  1.00800000E+00  1.60000000E+01  1.00800000E+00
  1.00800000E+00  1.60000000E+01  1.00800000E+00  1.00800000E+00  1.60000000E+01
  1.00800000E+00  1.00800000E+00  1.60000000E+01  1.00800000E+00  1.00800000E+00
  1.60000000E+01  1.00800000E+00  1.00800000E+00  1.60000000E+01  1.00800000E+00
  1.00800000E+00  1.60000000E+01  1.00800000E+00  1.00800000E+00  1.60000000E+01
  1.00800000E+00  1.00800000E+00  1.60000000E+01  1.00800000E+00  1.00800000E+00
  1.60000000E+01  1.00800000E+00  1.00800000E+00  1.60000000E+01  1.00800000E+00
  1.00800000E+00  1.60000000E+01  1.00800000E+00  1.00800000E+00  1.60000000E+01
  1.00800000E+00  1.00800000E+00  1.60000000E+01  1.00800000E+00  1.00800000E+00
  1.60000000E+01  1.00800000E+00  1.00800000E+00  1.60000000E+01  1.00800000E+00
  1.00800000E+00  1.60000000E+01  1.00800000E+00  1.00800000E+00  1.60000000E+01
  1.00800000E+00  1.00800000E+00  1.60000000E+01  1.00800000E+00  1.00800000E+00
  1.60000000E+01  1.00800000E+00  1.00800000E+00  1.60000000E+01  1.00800000E+00
  1.00800000E+00  1.60000000E+01  1.00800000E+00  1.00800000E+00  1.60000000E+01
  1.00800000E+00  1.00800000E+00  1.60000000E+01  1.00800000E+00  1.00800000E+00
  1.60000000E+01  1.00800000E+00  1.00800000E+00  1.60000000E+01  1.00800000E+00
  1.00800000E+00  1.60000000E+01  1.00800000E+00  1.00800000E+00  1.60000000E+01
  1.00800000E+00  1.00800000E+00  1.60000000E+01  1.00800000E+00  1.00800000E+00
  1.60000000E+01  1.00800000E+00  1.00800000E+00  1.60000000E+01  1.00800000E+00
  1.00800000E+00  1.60000000E+01  1.00800000E+00  1.00800000E+00  1.60000000E+01
  1.00800000E+00  1.00800000E+00  1.60000000E+01  1.00800000E+00  1.00800000E+00
  1.60000000E+01  1.00800000E+00  1.00800000E+00  1.60000000E+01  1.00800000E+00
  1.00800000E+00  1.60000000E+01  1.00800000E+00  1.00800000E+00  1.60000000E+01
  1.00800000E+00  1.00800000E+00  1.60000000E+01  1.00800000E+00  1.00800000E+00
  1.60000000E+01  1.00800000E+00  1.00800000E+00  1.60000000E+01  1.00800000E+00
  1.00800000E+00  1.60000000E+01  1.00800000E+00  1.00800000E+00  1.60000000E+01
  1.00800000E+00  1.00800000E+00  1.60000000E+01  1.00800000E+00  1.00800000E+00
  1.60000000E+01  1.00800000E+00  1.00800000E+00  1.60000000E+01  1.00800000E+00
  1.00800000E+00  1.60000000E+01  1.00800000E+00  1.00800000E+00  1.60000000E+01
  1.00800000E+00  1.00800000E+00  1.60000000E+01  1.00800000E+00  1.00800000E+00
  1.60000000E+01  1.00800000E+00  1.00800000E+00  1.60000000E+01  1.00800000E+00
  1.00800000E+00  1.60000000E+01  1.00800000E+00  1.00800000E+00  1.60000000E+01
  1.00800000E+00  1.00800000E+00  1.60000000E+01  1.00800000E+00  1.00800000E+00
  1.60000000E+01  1.00800000E+00  1.00800000E+00  1.60000000E+01  1.00800000E+00
  1.00800000E+00  1.60000000E+01  1.00800000E+00  1.00800000E+00  1.60000000E+01
  1.00800000E+00  1.00800000E+00  1.60000000E+01  1.00800000E+00  1.00800000E+00
  1.60000000E+01  1.00800000E+00  1.00800000E+00  1.60000000E+01  1.00800000E+00
  1.00800000E+00  1.60000000E+01  1.00800000E+00  1.00800000E+00  1.60000000E+01
  1.00800000E+00  1.00800000E+00  1.60000000E+01  1.00800000E+00  1.00800000E+00
  1.60000000E+01  1.00800000E+00  1.00800000E+00  1.60000000E+01  1.00800000E+00
  1.00800000E+00  1.60000000E+01  1.00800000E+00  1.00800000E+00  1.60000000E+01
  1.00800000E+00  1.00800000E+00  1.60000000E+01  1.00800000E+00  1.00800000E+00
  1.60000000E+01  1.00800000E+00  1.00800000E+00  1.60000000E+01  1.00800000E+00
  1.00800000E+00  1.60000000E+01  1.00800000E+00  1.00800000E+00  1.60000000E+01
  1.00800000E+00  1.00800000E+00  1.60000000E+01  1.00800000E+00  1.00800000E+00
  1.60000000E+01  1.00800000E+00  1.00800000E+00  1.60000000E+01  1.00800000E+00
  1.00800000E+00  1.60000000E+01  1.00800000E+00  1.00800000E+00  1.60000000E+01
  1.00800000E+00  1.00800000E+00  1.60000000E+01  1.00800000E+00  1.00800000E+00
  1.60000000E+01  1.00800000E+00  1.00800000E+00  1.60000000E+01  1.00800000E+00
  1.00800000E+00  1.60000000E+01  1.00800000E+00  1.00800000E+00  1.60000000E+01
  1.00800000E+00  1.00800000E+00  1.60000000E+01  1.00800000E+00  1.00800000E+00
  1.60000000E+01  1.00800000E+00  1.00800000E+00  1.60000000E+01  1.00800000E+00
  1.00800000E+00  1.60000000E+01  1.00800000E+00  1.00800000E+00  1.60000000E+01
  1.00800000E+00  1.00800000E+00  1.60000000E+01  1.00800000E+00  1.00800000E+00
  1.60000000E+01  1.00800000E+00  1.00800000E+00  1.60000000E+01  1.00800000E+00
  1.00800000E+00  1.60000000E+01  1.00800000E+00  1.00800000E+00  1.60000000E+01
  1.00800000E+00  1.00800000E+00  1.60000000E+01  1.00800000E+00  1.00800000E+00
  1.60000000E+01  1.00800000E+00  1.00800000E+00  1.60000000E+01  1.00800000E+00
  1.00800000E+00  1.60000000E+01  1.00800000E+00  1.00800000E+00  1.60000000E+01
  1.00800000E+00  1.00800000E+00  1.60000000E+01  1.00800000E+00  1.00800000E+00
  1.60000000E+01  1.00800000E+00  1.00800000E+00  1.60000000E+01  1.00800000E+00
  1.00800000E+00  1.60000000E+01  1.00800000E+00  1.00800000E+00  1.60000000E+01
  1.00800000E+00  1.00800000E+00  1.60000000E+01  1.00800000E+00  1.00800000E+00
  1.60000000E+01  1.00800000E+00  1.00800000E+00  1.60000000E+01  1.00800000E+00
  1.00800000E+00  1.60000000E+01  1.00800000E+00  1.00800000E+00  1.60000000E+01
  1.00800000E+00  1.00800000E+00  1.60000000E+01  1.00800000E+00  1.00800000E+00
  1.60000000E+01  1.00800000E+00  1.00800000E+00  1.60000000E+01  1.00800000E+00
  1.00800000E+00  1.60000000E+01  1.00800000E+00  1.00800000E+00  1.60000000E+01
  1.00800000E+00  1.00800000E+00  1.60000000E+01  1.00800000E+00  1.00800000E+00
  1.60000000E+01  1.00800000E+00  1.00800000E+00  1.60000000E+01  1.00800000E+00
  1.00800000E+00  1.60000000E+01  1.00800000E+00  1.00800000E+00  1.60000000E+01
  1.00800000E+00  1.00800000E+00  1.60000000E+01  1.00800000E+00  1.00800000E+00
  1.60000000E+01  1.00800000E+00  1.00800000E+00  1.60000000E+01  1.00800000E+00
  1.00800000E+00  1.60000000E+01  1.00800000E+00  1.00800000E+00  1.60000000E+01
  1.00800000E+00  1.00800000E+00  1.60000000E+01  1.00800000E+00  1.00800000E+00
  1.60000000E+01  1.00800000E+00  1.00800000E+00  1.60000000E+01  1.00800000E+00
  1.00800000E+00  1.60000000E+01  1.00800000E+00  1.00800000E+00  1.60000000E+01
  1.00800000E+00  1.00800000E+00  1.60000000E+01  1.00800000E+00  1.00800000E+00
  1.60000000E+01  1.00800000E+00  1.00800000E+00  1.60000000E+01  1.00800000E+00
  1.00800000E+00  1.60000000E+01  1.00800000E+00  1.00800000E+00  1.60000000E+01
  1.00800000E+00  1.00800000E+00  1.60000000E+01  1.00800000E+00  1.00800000E+00
  1.60000000E+01  1.00800000E+00  1.00800000E+00  1.60000000E+01  1.00800000E+00
  1.00800000E+00  1.60000000E+01  1.00800000E+00  1.00800000E+00  1.60000000E+01
  1.00800000E+00  1.00800000E+00  1.60000000E+01  1.00800000E+00  1.00800000E+00
  1.60000000E+01  1.00800000E+00  1.00800000E+00  1.60000000E+01  1.00800000E+00
  1.00800000E+00  1.60000000E+01  1.00800000E+00  1.00800000E+00  1.60000000E+01
  1.00800000E+00  1.00800000E+00  1.60000000E+01  1.00800000E+00  1.00800000E+00
  1.60000000E+01  1.00800000E+00  1.00800000E+00  1.60000000E+01  1.00800000E+00
  1.00800000E+00  1.60000000E+01  1.00800000E+00  1.00800000E+00  1.60000000E+01
  1.00800000E+00  1.00800000E+00  1.60000000E+01  1.00800000E+00  1.00800000E+00
  1.60000000E+01  1.00800000E+00  1.00800000E+00  1.60000000E+01  1.00800000E+00
  1.00800000E+00  1.60000000E+01  1.00800000E+00  1.00800000E+00  1.60000000E+01
  1.00800000E+00  1.00800000E+00  1.60000000E+01  1.00800000E+00  1.00800000E+00
  1.60000000E+01  1.00800000E+00  1.00800000E+00  1.60000000E+01  1.00800000E+00
  1.00800000E+00  1.60000000E+01  1.00800000E+00  1.00800000E+00  1.60000000E+01
  1.00800000E+00  1.00800000E+00  1.60000000E+01  1.00800000E+00  1.00800000E+00
  1.60000000E+01  1.00800000E+00  1.00800000E+00  1.60000000E+01  1.00800000E+00
  1.00800000E+00  1.60000000E+01  1.00800000E+00  1.00800000E+00  1.60000000E+01
  1.00800000E+00  1.00800000E+00  1.60000000E+01  1.00800000E+00  1.00800000E+00
  1.60000000E+01  1.00800000E+00  1.00800000E+00  1.60000000E+01  1.00800000E+00
  1.00800000E+00  1.60000000E+01  1.00800000E+00  1.00800000E+00  1.60000000E+01
  1.00800000E+00  1.00800000E+00  1.60000000E+01  1.00800000E+00  1.00800000E+00
  1.60000000E+01  1.00800000E+00  1.00800000E+00  1.60000000E+01  1.00800000E+00
  1.00800000E+00  1.60000000E+01  1.00800000E+00  1.00800000E+00  1.60000000E+01
  1.00800000E+00  1.00800000E+00  1.60000000E+01  1.00800000E+00  1.00800000E+00
  1.60000000E+01  1.00800000E+00  1.00800000E+00  1.60000000E+01  1.00800000E+00
  1.00800000E+00  1.60000000E+01  1.00800000E+00  1.00800000E+00  1.60000000E+01
  1.00800000E+00  1.00800000E+00  1.60000000E+01  1.00800000E+00  1.00800000E+00
  1.60000000E+01  1.00800000E+00  1.00800000E+00  1.60000000E+01  1.00800000E+00
  1.00800000E+00  1.60000000E+01  1.00800000E+00  1.00800000E+00  1.60000000E+01
  1.00800000E+00  1.00800000E+00  1.60000000E+01  1.00800000E+00  1.00800000E+00
  1.60000000E+01  1.00800000E+00  1.00800000E+00  1.60000000E+01  1.00800000E+00
  1.00800000E+00  1.60000000E+01  1.00800000E+00  1.00800000E+00  1.60000000E+01
  1.00800000E+00  1.00800000E+00  1.60000000E+01  1.00800000E+00  1.00800000E+00
  1.60000000E+01  1.00800000E+00  1.00800000E+00  1.60000000E+01  1.00800000E+00
  1.00800000E+00  1.60000000E+01  1.00800000E+00  1.00800000E+00  1.60000000E+01
  1.00800000E+00  1.00800000E+00  1.60000000E+01  1.00800000E+00  1.00800000E+00
  1.60000000E+01  1.00800000E+00  1.00800000E+00  1.60000000E+01  1.00800000E+00
  1.00800000E+00  1.60000000E+01  1.00800000E+00  1.00800000E+00  1.60000000E+01
  1.00800000E+00  1.00800000E+00  1.60000000E+01  1.00800000E+00  1.00800000E+00
  1.60000000E+01  1.00800000E+00  1.00800000E+00  1.60000000E+01  1.00800000E+00
  1.00800000E+00  1.60000000E+01  1.00800000E+00  1.00800000E+00  1.60000000E+01
  1.00800000E+00  1.00800000E+00  1.60000000E+01  1.00800000E+00  1.00800000E+00
  1.60000000E+01  1.00800000E+00  1.00800000E+00  1.60000000E+01  1.00800000E+00
  1.00800000E+00  1.60000000E+01  1.00800000E+00  1.00800000E+00  1.60000000E+01
  1.00800000E+00  1.00800000E+00  1.60000000E+01  1.00800000E+00  1.00800000E+00
  1.60000000E+01  1.00800000E+00  1.00800000E+00  1.60000000E+01  1.00800000E+00
  1.00800000E+00  1.60000000E+01  1.00800000E+00  1.00800000E+00  1.60000000E+01
  1.00800000E+00  1.00800000E+00  1.60000000E+01  1.00800000E+00  1.00800000E+00
  1.60000000E+01  1.00800000E+00  1.00800000E+00  1.60000000E+01  1.00800000E+00
  1.00800000E+00  1.60000000E+01  1.00800000E+00  1.00800000E+00  1.60000000E+01
  1.00800000E+00  1.00800000E+00  1.60000000E+01  1.00800000E+00  1.00800000E+00
  1.60000000E+01  1.00800000E+00  1.00800000E+00  1.60000000E+01  1.00800000E+00
  1.00800000E+00  1.60000000E+01  1.00800000E+00  1.00800000E+00  1.60000000E+01
  1.00800000E+00  1.00800000E+00  1.60000000E+01  1.00800000E+00  1.00800000E+00
  1.60000000E+01  1.00800000E+00  1.00800000E+00  1.60000000E+01  1.00800000E+00
  1.00800000E+00  1.60000000E+01  1.00800000E+00  1.00800000E+00  1.60000000E+01
  1.00800000E+00  1.00800000E+00  1.60000000E+01  1.00800000E+00  1.00800000E+00
  1.60000000E+01  1.00800000E+00  1.00800000E+00  1.60000000E+01  1.00800000E+00
  1.00800000E+00  1.60000000E+01  1.00800000E+00  1.00800000E+00  1.60000000E+01
  1.00800000E+00  1.00800000E+00  1.60000000E+01  1.00800000E+00  1.00800000E+00
  1.60000000E+01  1.00800000E+00  1.00800000E+00  1.60000000E+01  1.00800000E+00
  1.00800000E+00  1.60000000E+01  1.00800000E+00  1.00800000E+00  1.60000000E+01
  1.00800000E+00  1.00800000E+00  1.60000000E+01  1.00800000E+00  1.00800000E+00
  1.60000000E+01  1.00800000E+00  1.00800000E+00  1.60000000E+01  1.00800000E+00
  1.00800000E+00  1.60000000E+01  1.00800000E+00  1.00800000E+00  1.60000000E+01
  1.00800000E+00  1.00800000E+00  1.60000000E+01  1.00800000E+00  1.00800000E+00
  1.60000000E+01  1.00800000E+00  1.00800000E+00  1.60000000E+01  1.00800000E+00
  1.00800000E+00  1.60000000E+01  1.00800000E+00  1.00800000E+00  1.60000000E+01
  1.00800000E+00  1.00800000E+00  1.60000000E+01  1.00800000E+00  1.00800000E+00
  1.60000000E+01  1.00800000E+00  1.00800000E+00  1.60000000E+01  1.00800000E+00
  1.00800000E+00  1.60000000E+01  1.00800000E+00  1.00800000E+00  1.60000000E+01
  1.00800000E+00  1.00800000E+00  1.60000000E+01  1.00800000E+00  1.00800000E+00
  1.60000000E+01  1.00800000E+00  1.00800000E+00  1.60000000E+01  1.00800000E+00
  1.00800000E+00  1.60000000E+01  1.00800000E+00  1.00800000E+00  1.60000000E+01
  1.00800000E+00  1.00800000E+00  1.60000000E+01  1.00800000E+00  1.00800000E+00
  1.60000000E+01  1.00800000E+00  1.00800000E+00  1.60000000E+01  1.00800000E+00
  1.00800000E+00  1.60000000E+01  1.00800000E+00  1.00800000E+00  1.60000000E+01
  1.00800000E+00  1.00800000E+00  1.60000000E+01  1.00800000E+00  1.00800000E+00
  1.60000000E+01  1.00800000E+00  1.00800000E+00  1.60000000E+01  1.00800000E+00
  1.00800000E+00  1.60000000E+01  1.00800000E+00  1.00800000E+00  1.60000000E+01
  1.00800000E+00  1.00800000E+00  1.60000000E+01  1.00800000E+00  1.00800000E+00
  1.60000000E+01  1.00800000E+00  1.00800000E+00  1.60000000E+01  1.00800000E+00
  1.00800000E+00  1.60000000E+01  1.00800000E+00  1.00800000E+00  1.60000000E+01
  1.00800000E+00  1.00800000E+00  1.60000000E+01  1.00800000E+00  1.00800000E+00
  1.60000000E+01  1.00800000E+00  1.00800000E+00  1.60000000E+01  1.00800000E+00
  1.00800000E+00  1.60000000E+01  1.00800000E+00  1.00800000E+00  1.60000000E+01
  1.00800000E+00  1.00800000E+00  1.60000000E+01  1.00800000E+00  1.00800000E+00
  1.60000000E+01  1.00800000E+00  1.00800000E+00  1.60000000E+01  1.00800000E+00
  1.00800000E+00  1.60000000E+01  1.00800000E+00  1.00800000E+00  1.60000000E+01
  1.00800000E+00  1.00800000E+00  1.60000000E+01  1.00800000E+00  1.00800000E+00
  1.60000000E+01  1.00800000E+00  1.00800000E+00  1.60000000E+01  1.00800000E+00
  1.00800000E+00  1.60000000E+01  1.00800000E+00  1.00800000E+00  1.60000000E+01
  1.00800000E+00  1.00800000E+00  1.60000000E+01  1.00800000E+00  1.00800000E+00
  1.60000000E+01  1.00800000E+00  1.00800000E+00  1.60000000E+01  1.00800000E+00
  1.00800000E+00  1.60000000E+01  1.00800000E+00  1.00800000E+00  1.60000000E+01
  1.00800000E+00  1.00800000E+00  1.60000000E+01  1.00800000E+00  1.00800000E+00
  1.60000000E+01  1.00800000E+00  1.00800000E+00  1.60000000E+01  1.00800000E+00
  1.00800000E+00  1.60000000E+01  1.00800000E+00  1.00800000E+00  1.60000000E+01
  1.00800000E+00  1.00800000E+00  1.60000000E+01  1.00800000E+00  1.00800000E+00
  1.60000000E+01  1.00800000E+00  1.00800000E+00  1.60000000E+01  1.00800000E+00
  1.00800000E+00  1.60000000E+01  1.00800000E+00  1.00800000E+00  1.60000000E+01
  1.00800000E+00  1.00800000E+00  1.60000000E+01  1.00800000E+00  1.00800000E+00
  1.60000000E+01  1.00800000E+00  1.00800000E+00  1.60000000E+01  1.00800000E+00
  1.00800000E+00  1.60000000E+01  1.00800000E+00  1.00800000E+00  1.60000000E+01
  1.00800000E+00  1.00800000E+00  1.60000000E+01  1.00800000E+00  1.00800000E+00
  1.60000000E+01  1.00800000E+00  1.00800000E+00  1.60000000E+01  1.00800000E+00
  1.00800000E+00  1.60000000E+01  1.00800000E+00  1.00800000E+00  1.60000000E+01
  1.00800000E+00  1.00800000E+00  1.60000000E+01  1.00800000E+00  1.00800000E+00
  1.60000000E+01  1.00800000E+00  1.00800000E+00  1.60000000E+01  1.00800000E+00
  1.00800000E+00  1.60000000E+01  1.00800000E+00  1.00800000E+00  1.60000000E+01
  1.00800000E+00  1.00800000E+00  1.60000000E+01  1.00800000E+00  1.00800000E+00
  1.60000000E+01  1.00800000E+00  1.00800000E+00  1.60000000E+01  1.00800000E+00
  1.00800000E+00  1.60000000E+01  1.00800000E+00  1.00800000E+00  1.60000000E+01
  1.00800000E+00  1.00800000E+00  1.60000000E+01  1.00800000E+00  1.00800000E+00
  1.60000000E+01  1.00800000E+00  1.00800000E+00  1.60000000E+01  1.00800000E+00
  1.00800000E+00  1.60000000E+01  1.00800000E+00  1.00800000E+00  1.60000000E+01
  1.00800000E+00  1.00800000E+00  1.60000000E+01  1.00800000E+00  1.00800000E+00
  1.60000000E+01  1.00800000E+00  1.00800000E+00  1.60000000E+01  1.00800000E+00
  1.00800000E+00  1.60000000E+01  1.00800000E+00  1.00800000E+00  1.60000000E+01
  1.00800000E+00  1.00800000E+00  1.60000000E+01  1.00800000E+00  1.00800000E+00
  1.60000000E+01  1.00800000E+00  1.00800000E+00  1.60000000E+01  1.00800000E+00
  1.00800000E+00  1.60000000E+01  1.00800000E+00  1.00800000E+00  1.60000000E+01
  1.00800000E+00  1.00800000E+00  1.60000000E+01  1.00800000E+00  1.00800000E+00
  1.60000000E+01  1.00800000E+00  1.00800000E+00  1.60000000E+01  1.00800000E+00
  1.00800000E+00  1.60000000E+01  1.00800000E+00  1.00800000E+00  1.60000000E+01
  1.00800000E+00  1.00800000E+00  1.60000000E+01  1.00800000E+00  1.00800000E+00
  1.60000000E+01  1.00800000E+00  1.00800000E+00  1.60000000E+01  1.00800000E+00
  1.00800000E+00  1.60000000E+01  1.00800000E+00  1.00800000E+00  1.60000000E+01
  1.00800000E+00  1.00800000E+00  1.60000000E+01  1.00800000E+00  1.00800000E+00
  1.60000000E+01  1.00800000E+00  1.00800000E+00  1.60000000E+01  1.00800000E+00
  1.00800000E+00  1.60000000E+01  1.00800000E+00  1.00800000E+00  1.60000000E+01
  1.00800000E+00  1.00800000E+00  1.60000000E+01  1.00800000E+00  1.00800000E+00
  1.60000000E+01  1.00800000E+00  1.00800000E+00  1.60000000E+01  1.00800000E+00
  1.00800000E+00  1.60000000E+01  1.00800000E+00  1.00800000E+00  1.60000000E+01
  1.00800000E+00  1.00800000E+00  1.60000000E+01  1.00800000E+00  1.00800000E+00
  1.60000000E+01  1.00800000E+00  1.00800000E+00  1.60000000E+01  1.00800000E+00
  1.00800000E+00  1.60000000E+01  1.00800000E+00  1.00800000E+00  1.60000000E+01
  1.00800000E+00  1.00800000E+00  1.60000000E+01  1.00800000E+00  1.00800000E+00
  1.60000000E+01  1.00800000E+00  1.00800000E+00  1.60000000E+01  1.00800000E+00
  1.00800000E+00  1.60000000E+01  1.00800000E+00  1.00800000E+00  1.60000000E+01
  1.00800000E+00  1.00800000E+00  1.60000000E+01  1.00800000E+00  1.00800000E+00
  1.60000000E+01  1.00800000E+00  1.00800000E+00  1.60000000E+01  1.00800000E+00
  1.00800000E+00  1.60000000E+01  1.00800000E+00  1.00800000E+00  1.60000000E+01
  1.00800000E+00  1.00800000E+00  1.60000000E+01  1.00800000E+00  1.00800000E+00
  1.60000000E+01  1.00800000E+00  1.00800000E+00  1.60000000E+01  1.00800000E+00
  1.00800000E+00  1.60000000E+01  1.00800000E+00  1.00800000E+00  1.60000000E+01
  1.00800000E+00  1.00800000E+00  1.60000000E+01  1.00800000E+00  1.00800000E+00
  1.60000000E+01  1.00800000E+00  1.00800000E+00  1.60000000E+01  1.00800000E+00
  1.00800000E+00  1.60000000E+01  1.00800000E+00  1.00800000E+00  1.60000000E+01
  1.00800000E+00  1.00800000E+00  1.60000000E+01  1.00800000E+00  1.00800000E+00
  1.60000000E+01  1.00800000E+00  1.00800000E+00  1.60000000E+01  1.00800000E+00
  1.00800000E+00  1.60000000E+01  1.00800000E+00  1.00800000E+00  1.60000000E+01
  1.00800000E+00  1.00800000E+00  1.60000000E+01  1.00800000E+00  1.00800000E+00
  1.60000000E+01  1.00800000E+00  1.00800000E+00  1.60000000E+01  1.00800000E+00
  1.00800000E+00  1.60000000E+01  1.00800000E+00  1.00800000E+00  1.60000000E+01
  1.00800000E+00  1.00800000E+00  1.60000000E+01  1.00800000E+00  1.00800000E+00
  1.60000000E+01  1.00800000E+00  1.00800000E+00  1.60000000E+01  1.00800000E+00
  1.00800000E+00  1.60000000E+01  1.00800000E+00  1.00800000E+00  1.60000000E+01
  1.00800000E+00  1.00800000E+00  1.60000000E+01  1.00800000E+00  1.00800000E+00
  1.60000000E+01  1.00800000E+00  1.00800000E+00  1.60000000E+01  1.00800000E+00
  1.00800000E+00  1.60000000E+01  1.00800000E+00  1.00800000E+00  1.60000000E+01
  1.00800000E+00  1.00800000E+00  1.60000000E+01  1.00800000E+00  1.00800000E+00
  1.60000000E+01  1.00800000E+00  1.00800000E+00  1.60000000E+01  1.00800000E+00
  1.00800000E+00  1.60000000E+01  1.00800000E+00  1.00800000E+00  1.60000000E+01
  1.00800000E+00  1.00800000E+00  1.60000000E+01  1.00800000E+00  1.00800000E+00
  1.60000000E+01  1.00800000E+00  1.00800000E+00  1.60000000E+01  1.00800000E+00
  1.00800000E+00  1.60000000E+01  1.00800000E+00  1.00800000E+00  1.60000000E+01
  1.00800000E+00  1.00800000E+00  1.60000000E+01  1.00800000E+00  1.00800000E+00
  1.60000000E+01  1.00800000E+00  1.00800000E+00  1.60000000E+01  1.00800000E+00
  1.00800000E+00  1.60000000E+01  1.00800000E+00  1.00800000E+00  1.60000000E+01
  1.00800000E+00  1.00800000E+00  1.60000000E+01  1.00800000E+00  1.00800000E+00
  1.60000000E+01  1.00800000E+00  1.00800000E+00  1.60000000E+01  1.00800000E+00
  1.00800000E+00  1.60000000E+01  1.00800000E+00  1.00800000E+00  1.60000000E+01
  1.00800000E+00  1.00800000E+00  1.60000000E+01  1.00800000E+00  1.00800000E+00
  1.60000000E+01  1.00800000E+00  1.00800000E+00  1.60000000E+01  1.00800000E+00
  1.00800000E+00  1.60000000E+01  1.00800000E+00  1.00800000E+00  1.60000000E+01
  1.00800000E+00  1.00800000E+00  1.60000000E+01  1.00800000E+00  1.00800000E+00
  1.60000000E+01  1.00800000E+00  1.00800000E+00  1.60000000E+01  1.00800000E+00
  1.00800000E+00  1.60000000E+01  1.00800000E+00  1.00800000E+00  1.60000000E+01
  1.00800000E+00  1.00800000E+00  1.60000000E+01  1.00800000E+00  1.00800000E+00
  1.60000000E+01  1.00800000E+00  1.00800000E+00  1.60000000E+01  1.00800000E+00
  1.00800000E+00  1.60000000E+01  1.00800000E+00  1.00800000E+00  1.60000000E+01
  1.00800000E+00  1.00800000E+00  1.60000000E+01  1.00800000E+00  1.00800000E+00
  1.60000000E+01  1.00800000E+00  1.00800000E+00  1.60000000E+01  1.00800000E+00
  1.00800000E+00  1.60000000E+01  1.00800000E+00  1.00800000E+00  1.60000000E+01
  1.00800000E+00  1.00800000E+00  1.60000000E+01  1.00800000E+00  1.00800000E+00
  1.60000000E+01  1.00800000E+00  1.00800000E+00  1.60000000E+01  1.00800000E+00
  1.00800000E+00  1.60000000E+01  1.00800000E+00  1.00800000E+00  1.60000000E+01
  1.00800000E+00  1.00800000E+00  1.60000000E+01  1.00800000E+00  1.00800000E+00
  1.60000000E+01  1.00800000E+00  1.00800000E+00  1.60000000E+01  1.00800000E+00
  1.00800000E+00  1.60000000E+01  1.00800000E+00  1.00800000E+00  1.60000000E+01
  1.00800000E+00  1.00800000E+00  1.60000000E+01  1.00800000E+00  1.00800000E+00
  1.60000000E+01  1.00800000E+00  1.00800000E+00  1.60000000E+01  1.00800000E+00
  1.00800000E+00  1.60000000E+01  1.00800000E+00  1.00800000E+00  1.60000000E+01
  1.00800000E+00  1.00800000E+00  1.60000000E+01  1.00800000E+00  1.00800000E+00
  1.60000000E+01  1.00800000E+00  1.00800000E+00  1.60000000E+01  1.00800000E+00
  1.00800000E+00  1.60000000E+01  1.00800000E+00  1.00800000E+00  1.60000000E+01
  1.00800000E+00  1.00800000E+00  1.60000000E+01  1.00800000E+00  1.00800000E+00
  1.60000000E+01  1.00800000E+00  1.00800000E+00  1.60000000E+01  1.00800000E+00
  1.00800000E+00  1.60000000E+01  1.00800000E+00  1.00800000E+00  1.60000000E+01
  1.00800000E+00  1.00800000E+00  1.60000000E+01  1.00800000E+00  1.00800000E+00
  1.60000000E+01  1.00800000E+00  1.00800000E+00  1.60000000E+01  1.00800000E+00
  1.00800000E+00  1.60000000E+01  1.00800000E+00  1.00800000E+00  1.60000000E+01
  1.00800000E+00  1.00800000E+00  1.60000000E+01  1.00800000E+00  1.00800000E+00
  1.60000000E+01  1.00800000E+00  1.00800000E+00  1.60000000E+01  1.00800000E+00
  1.00800000E+00  1.60000000E+01  1.00800000E+00  1.00800000E+00  1.60000000E+01
  1.00800000E+00  1.00800000E+00  1.60000000E+01  1.00800000E+00  1.00800000E+00
  1.60000000E+01  1.00800000E+00  1.00800000E+00  1.60000000E+01  1.00800000E+00
  1.00800000E+00  1.60000000E+01  1.00800000E+00  1.00800000E+00  1.60000000E+01
  1.00800000E+00  1.00800000E+00  1.60000000E+01  1.00800000E+00  1.00800000E+00
  1.60000000E+01  1.00800000E+00  1.00800000E+00  1.60000000E+01  1.00800000E+00
  1.00800000E+00  1.60000000E+01  1.00800000E+00  1.00800000E+00  1.60000000E+01
  1.00800000E+00  1.00800000E+00  1.60000000E+01  1.00800000E+00  1.00800000E+00
  1.60000000E+01  1.00800000E+00  1.00800000E+00  1.60000000E+01  1.00800000E+00
  1.00800000E+00  1.60000000E+01  1.00800000E+00  1.00800000E+00  1.60000000E+01
  1.00800000E+00  1.00800000E+00  1.60000000E+01  1.00800000E+00  1.00800000E+00
  1.60000000E+01  1.00800000E+00  1.00800000E+00  1.60000000E+01  1.00800000E+00
  1.00800000E+00  1.60000000E+01  1.00800000E+00  1.00800000E+00  1.60000000E+01
  1.00800000E+00  1.00800000E+00  1.60000000E+01  1.00800000E+00  1.00800000E+00
  1.60000000E+01  1.00800000E+00  1.00800000E+00  1.60000000E+01  1.00800000E+00
  1.00800000E+00  1.60000000E+01  1.00800000E+00  1.00800000E+00  1.60000000E+01
  1.00800000E+00  1.00800000E+00  1.60000000E+01  1.00800000E+00  1.00800000E+00
  1.60000000E+01  1.00800000E+00  1.00800000E+00  1.60000000E+01  1.00800000E+00
  1.00800000E+00  1.60000000E+01  1.00800000E+00  1.00800000E+00  1.60000000E+01
  1.00800000E+00  1.00800000E+00  1.60000000E+01  1.00800000E+00  1.00800000E+00
  1.60000000E+01  1.00800000E+00  1.00800000E+00  1.60000000E+01  1.00800000E+00
  1.00800000E+00  1.60000000E+01  1.00800000E+00  1.00800000E+00  1.60000000E+01
  1.00800000E+00  1.00800000E+00  1.60000000E+01  1.00800000E+00  1.00800000E+00
  1.60000000E+01  1.00800000E+00  1.00800000E+00  1.60000000E+01  1.00800000E+00
  1.00800000E+00  1.60000000E+01  1.00800000E+00  1.00800000E+00  1.60000000E+01
  1.00800000E+00  1.00800000E+00  1.60000000E+01  1.00800000E+00  1.00800000E+00
  1.60000000E+01  1.00800000E+00  1.00800000E+00  1.60000000E+01  1.00800000E+00
  1.00800000E+00  1.60000000E+01  1.00800000E+00  1.00800000E+00  1.60000000E+01
  1.00800000E+00  1.00800000E+00  1.60000000E+01  1.00800000E+00  1.00800000E+00
  1.60000000E+01  1.00800000E+00  1.00800000E+00  1.60000000E+01  1.00800000E+00
  1.00800000E+00  1.60000000E+01  1.00800000E+00  1.00800000E+00  1.60000000E+01
  1.00800000E+00  1.00800000E+00  1.60000000E+01  1.00800000E+00  1.00800000E+00
  1.60000000E+01  1.00800000E+00  1.00800000E+00  1.60000000E+01  1.00800000E+00
  1.00800000E+00  1.60000000E+01  1.00800000E+00  1.00800000E+00  1.60000000E+01
  1.00800000E+00  1.00800000E+00  1.60000000E+01  1.00800000E+00  1.00800000E+00
  1.60000000E+01  1.00800000E+00  1.00800000E+00  1.60000000E+01  1.00800000E+00
  1.00800000E+00  1.60000000E+01  1.00800000E+00  1.00800000E+00  1.60000000E+01
  1.00800000E+00  1.00800000E+00  1.60000000E+01  1.00800000E+00  1.00800000E+00
  1.60000000E+01  1.00800000E+00  1.00800000E+00  1.60000000E+01  1.00800000E+00
  1.00800000E+00  1.60000000E+01  1.00800000E+00  1.00800000E+00  1.60000000E+01
  1.00800000E+00  1.00800000E+00  1.60000000E+01  1.00800000E+00  1.00800000E+00
  1.60000000E+01  1.00800000E+00  1.00800000E+00  1.60000000E+01  1.00800000E+00
  1.00800000E+00  1.60000000E+01  1.00800000E+00  1.00800000E+00  1.60000000E+01
  1.00800000E+00  1.00800000E+00  1.60000000E+01  1.00800000E+00  1.00800000E+00
  1.60000000E+01  1.00800000E+00  1.00800000E+00  1.60000000E+01  1.00800000E+00
  1.00800000E+00  1.60000000E+01  1.00800000E+00  1.00800000E+00  1.60000000E+01
  1.00800000E+00  1.00800000E+00  1.60000000E+01  1.00800000E+00  1.00800000E+00
  1.60000000E+01  1.00800000E+00  1.00800000E+00  1.60000000E+01  1.00800000E+00
  1.00800000E+00  1.60000000E+01  1.00800000E+00  1.00800000E+00  1.60000000E+01
  1.00800000E+00  1.00800000E+00  1.60000000E+01  1.00800000E+00  1.00800000E+00
  1.60000000E+01  1.00800000E+00  1.00800000E+00  1.60000000E+01  1.00800000E+00
  1.00800000E+00  1.60000000E+01  1.00800000E+00  1.00800000E+00  1.60000000E+01
  1.00800000E+00  1.00800000E+00  1.60000000E+01  1.00800000E+00  1.00800000E+00
  1.60000000E+01  1.00800000E+00  1.00800000E+00  1.60000000E+01  1.00800000E+00
  1.00800000E+00  1.60000000E+01  1.00800000E+00  1.00800000E+00  1.60000000E+01
  1.00800000E+00  1.00800000E+00  1.60000000E+01  1.00800000E+00  1.00800000E+00
  1.60000000E+01  1.00800000E+00  1.00800000E+00  1.60000000E+01  1.00800000E+00
  1.00800000E+00  1.60000000E+01  1.00800000E+00  1.00800000E+00  1.60000000E+01
  1.00800000E+00  1.00800000E+00  1.60000000E+01  1.00800000E+00  1.00800000E+00
  1.60000000E+01  1.00800000E+00  1.00800000E+00  1.60000000E+01  1.00800000E+00
  1.00800000E+00  1.60000000E+01  1.00800000E+00  1.00800000E+00  1.60000000E+01
  1.00800000E+00  1.00800000E+00  1.60000000E+01  1.00800000E+00  1.00800000E+00
  1.60000000E+01  1.00800000E+00  1.00800000E+00  1.60000000E+01  1.00800000E+00
  1.00800000E+00  1.60000000E+01  1.00800000E+00  1.00800000E+00  1.60000000E+01
  1.00800000E+00  1.00800000E+00  1.60000000E+01  1.00800000E+00  1.00800000E+00
  1.60000000E+01  1.00800000E+00  1.00800000E+00  1.60000000E+01  1.00800000E+00
  1.00800000E+00  1.60000000E+01  1.00800000E+00  1.00800000E+00  1.60000000E+01
  1.00800000E+00  1.00800000E+00  1.60000000E+01  1.00800000E+00  1.00800000E+00
  1.60000000E+01  1.00800000E+00  1.00800000E+00  1.60000000E+01  1.00800000E+00
  1.00800000E+00  1.60000000E+01  1.00800000E+00  1.00800000E+00  1.60000000E+01
  1.00800000E+00  1.00800000E+00  1.60000000E+01  1.00800000E+00  1.00800000E+00
  1.60000000E+01  1.00800000E+00  1.00800000E+00  1.60000000E+01  1.00800000E+00
  1.00800000E+00  1.60000000E+01  1.00800000E+00  1.00800000E+00  1.60000000E+01
  1.00800000E+00  1.00800000E+00  1.60000000E+01  1.00800000E+00  1.00800000E+00
  1.60000000E+01  1.00800000E+00  1.00800000E+00  1.60000000E+01  1.00800000E+00
  1.00800000E+00  1.60000000E+01  1.00800000E+00  1.00800000E+00  1.60000000E+01
  1.00800000E+00  1.00800000E+00  1.60000000E+01  1.00800000E+00  1.00800000E+00
  1.60000000E+01  1.00800000E+00  1.00800000E+00  1.60000000E+01  1.00800000E+00
  1.00800000E+00  1.60000000E+01  1.00800000E+00  1.00800000E+00  1.60000000E+01
  1.00800000E+00  1.00800000E+00  1.60000000E+01  1.00800000E+00  1.00800000E+00
  1.60000000E+01  1.00800000E+00  1.00800000E+00  1.60000000E+01  1.00800000E+00
  1.00800000E+00  1.60000000E+01  1.00800000E+00  1.00800000E+00  1.60000000E+01
  1.00800000E+00  1.00800000E+00  1.60000000E+01  1.00800000E+00  1.00800000E+00
  1.60000000E+01  1.00800000E+00  1.00800000E+00  1.60000000E+01  1.00800000E+00
  1.00800000E+00  1.60000000E+01  1.00800000E+00  1.00800000E+00  1.60000000E+01
  1.00800000E+00  1.00800000E+00  1.60000000E+01  1.00800000E+00  1.00800000E+00
  1.60000000E+01  1.00800000E+00  1.00800000E+00  1.60000000E+01  1.00800000E+00
  1.00800000E+00  1.60000000E+01  1.00800000E+00  1.00800000E+00  1.60000000E+01
  1.00800000E+00  1.00800000E+00  1.60000000E+01  1.00800000E+00  1.00800000E+00
  1.60000000E+01  1.00800000E+00  1.00800000E+00  1.60000000E+01  1.00800000E+00
  1.00800000E+00  1.60000000E+01  1.00800000E+00  1.00800000E+00  1.60000000E+01
  1.00800000E+00  1.00800000E+00  1.60000000E+01  1.00800000E+00  1.00800000E+00
  1.60000000E+01  1.00800000E+00  1.00800000E+00  1.60000000E+01  1.00800000E+00
  1.00800000E+00  1.60000000E+01  1.00800000E+00  1.00800000E+00  1.60000000E+01
  1.00800000E+00  1.00800000E+00  1.60000000E+01  1.00800000E+00  1.00800000E+00
  1.60000000E+01  1.00800000E+00  1.00800000E+00  1.60000000E+01  1.00800000E+00
  1.00800000E+00  1.60000000E+01  1.00800000E+00  1.00800000E+00  1.60000000E+01
  1.00800000E+00  1.00800000E+00  1.60000000E+01  1.00800000E+00  1.00800000E+00
  1.60000000E+01  1.00800000E+00  1.00800000E+00  1.60000000E+01  1.00800000E+00
  1.00800000E+00  1.60000000E+01  1.00800000E+00  1.00800000E+00  1.60000000E+01
  1.00800000E+00  1.00800000E+00  1.60000000E+01  1.00800000E+00  1.00800000E+00
  1.60000000E+01  1.00800000E+00  1.00800000E+00  1.60000000E+01  1.00800000E+00
  1.00800000E+00  1.60000000E+01  1.00800000E+00  1.00800000E+00  1.60000000E+01
  1.00800000E+00  1.00800000E+00  1.60000000E+01  1.00800000E+00  1.00800000E+00
  1.60000000E+01  1.00800000E+00  1.00800000E+00  1.60000000E+01  1.00800000E+00
  1.00800000E+00  1.60000000E+01  1.00800000E+00  1.00800000E+00  1.60000000E+01
  1.00800000E+00  1.00800000E+00  1.60000000E+01  1.00800000E+00  1.00800000E+00
  1.60000000E+01  1.00800000E+00  1.00800000E+00  1.60000000E+01  1.00800000E+00
  1.00800000E+00  1.60000000E+01  1.00800000E+00  1.00800000E+00  1.60000000E+01
  1.00800000E+00  1.00800000E+00  1.60000000E+01  1.00800000E+00  1.00800000E+00
  1.60000000E+01  1.00800000E+00  1.00800000E+00  1.60000000E+01  1.00800000E+00
  1.00800000E+00  1.60000000E+01  1.00800000E+00  1.00800000E+00  1.60000000E+01
  1.00800000E+00  1.00800000E+00  1.60000000E+01  1.00800000E+00  1.00800000E+00
  1.60000000E+01  1.00800000E+00  1.00800000E+00  1.60000000E+01  1.00800000E+00
  1.00800000E+00  1.60000000E+01  1.00800000E+00  1.00800000E+00  1.60000000E+01
  1.00800000E+00  1.00800000E+00  1.60000000E+01  1.00800000E+00  1.00800000E+00
  1.60000000E+01  1.00800000E+00  1.00800000E+00  1.60000000E+01  1.00800000E+00
  1.00800000E+00  1.60000000E+01  1.00800000E+00  1.00800000E+00  1.60000000E+01
  1.00800000E+00  1.00800000E+00  1.60000000E+01  1.00800000E+00  1.00800000E+00
  1.60000000E+01  1.00800000E+00  1.00800000E+00  1.60000000E+01  1.00800000E+00
  1.00800000E+00  1.60000000E+01  1.00800000E+00  1.00800000E+00  1.60000000E+01
  1.00800000E+00  1.00800000E+00  1.60000000E+01  1.00800000E+00  1.00800000E+00
  1.60000000E+01  1.00800000E+00  1.00800000E+00  1.60000000E+01  1.00800000E+00
  1.00800000E+00  1.60000000E+01  1.00800000E+00  1.00800000E+00  1.60000000E+01
  1.00800000E+00  1.00800000E+00  1.60000000E+01  1.00800000E+00  1.00800000E+00
  1.60000000E+01  1.00800000E+00  1.00800000E+00  1.60000000E+01  1.00800000E+00
  1.00800000E+00  1.60000000E+01  1.00800000E+00  1.00800000E+00  1.60000000E+01
  1.00800000E+00  1.00800000E+00  1.60000000E+01  1.00800000E+00  1.00800000E+00
  1.60000000E+01  1.00800000E+00  1.00800000E+00  1.60000000E+01  1.00800000E+00
  1.00800000E+00  1.60000000E+01  1.00800000E+00  1.00800000E+00  1.60000000E+01
  1.00800000E+00  1.00800000E+00  1.60000000E+01  1.00800000E+00  1.00800000E+00
  1.60000000E+01  1.00800000E+00  1.00800000E+00  1.60000000E+01  1.00800000E+00
  1.00800000E+00  1.60000000E+01  1.00800000E+00  1.00800000E+00  1.60000000E+01
  1.00800000E+00  1.00800000E+00  1.60000000E+01  1.00800000E+00  1.00800000E+00
  1.60000000E+01  1.00800000E+00  1.00800000E+00  1.60000000E+01  1.00800000E+00
  1.00800000E+00  1.60000000E+01  1.00800000E+00  1.00800000E+00  1.60000000E+01
  1.00800000E+00  1.00800000E+00  1.60000000E+01  1.00800000E+00  1.00800000E+00
  1.60000000E+01  1.00800000E+00  1.00800000E+00  1.60000000E+01  1.00800000E+00
  1.00800000E+00  1.60000000E+01  1.00800000E+00  1.00800000E+00  1.60000000E+01
  1.00800000E+00  1.00800000E+00  1.60000000E+01  1.00800000E+00  1.00800000E+00
  1.60000000E+01  1.00800000E+00  1.00800000E+00  1.60000000E+01  1.00800000E+00
  1.00800000E+00  1.60000000E+01  1.00800000E+00  1.00800000E+00  1.60000000E+01
  1.00800000E+00  1.00800000E+00  1.60000000E+01  1.00800000E+00  1.00800000E+00
  1.60000000E+01  1.00800000E+00  1.00800000E+00  1.60000000E+01  1.00800000E+00
  1.00800000E+00  1.60000000E+01  1.00800000E+00  1.00800000E+00  1.60000000E+01
  1.00800000E+00  1.00800000E+00  1.60000000E+01  1.00800000E+00  1.00800000E+00
  1.60000000E+01  1.00800000E+00  1.00800000E+00  1.60000000E+01  1.00800000E+00
  1.00800000E+00  1.60000000E+01  1.00800000E+00  1.00800000E+00  1.60000000E+01
  1.00800000E+00  1.00800000E+00  1.60000000E+01  1.00800000E+00  1.00800000E+00
  1.60000000E+01  1.00800000E+00  1.00800000E+00  1.60000000E+01  1.00800000E+00
  1.00800000E+00  1.60000000E+01  1.00800000E+00  1.00800000E+00  1.60000000E+01
  1.00800000E+00  1.00800000E+00  1.60000000E+01  1.00800000E+00  1.00800000E+00
  1.60000000E+01  1.00800000E+00  1.00800000E+00  1.60000000E+01  1.00800000E+00
  1.00800000E+00  1.60000000E+01  1.00800000E+00  1.00800000E+00  1.60000000E+01
  1.00800000E+00  1.00800000E+00  1.60000000E+01  1.00800000E+00  1.00800000E+00
  1.60000000E+01  1.00800000E+00  1.00800000E+00  1.60000000E+01  1.00800000E+00
  1.00800000E+00  1.60000000E+01  1.00800000E+00  1.00800000E+00  1.60000000E+01
  1.00800000E+00  1.00800000E+00  1.60000000E+01  1.00800000E+00  1.00800000E+00
  1.60000000E+01  1.00800000E+00  1.00800000E+00  1.60000000E+01  1.00800000E+00
  1.00800000E+00  1.60000000E+01  1.00800000E+00  1.00800000E+00  1.60000000E+01
  1.00800000E+00  1.00800000E+00  1.60000000E+01  1.00800000E+00  1.00800000E+00
  1.60000000E+01  1.00800000E+00  1.00800000E+00  1.60000000E+01  1.00800000E+00
  1.00800000E+00  1.60000000E+01  1.00800000E+00  1.00800000E+00  1.60000000E+01
  1.00800000E+00  1.00800000E+00  1.60000000E+01  1.00800000E+00  1.00800000E+00
  1.60000000E+01  1.00800000E+00  1.00800000E+00  1.60000000E+01  1.00800000E+00
  1.00800000E+00  1.60000000E+01  1.00800000E+00  1.00800000E+00  1.60000000E+01
  1.00800000E+00  1.00800000E+00  1.60000000E+01  1.00800000E+00  1.00800000E+00
  1.60000000E+01  1.00800000E+00  1.00800000E+00  1.60000000E+01  1.00800000E+00
  1.00800000E+00  1.60000000E+01  1.00800000E+00  1.00800000E+00  1.60000000E+01
  1.00800000E+00  1.00800000E+00  1.60000000E+01  1.00800000E+00  1.00800000E+00
  1.60000000E+01  1.00800000E+00  1.00800000E+00  1.60000000E+01  1.00800000E+00
  1.00800000E+00  1.60000000E+01  1.00800000E+00  1.00800000E+00  1.60000000E+01
  1.00800000E+00  1.00800000E+00  1.60000000E+01  1.00800000E+00  1.00800000E+00
  1.60000000E+01  1.00800000E+00  1.00800000E+00  1.60000000E+01  1.00800000E+00
  1.00800000E+00  1.60000000E+01  1.00800000E+00  1.00800000E+00  1.60000000E+01
  1.00800000E+00  1.00800000E+00  1.60000000E+01  1.00800000E+00  1.00800000E+00
  1.60000000E+01  1.00800000E+00  1.00800000E+00  1.60000000E+01  1.00800000E+00
  1.00800000E+00  1.60000000E+01  1.00800000E+00  1.00800000E+00  1.60000000E+01
  1.00800000E+00  1.00800000E+00  1.60000000E+01  1.00800000E+00  1.00800000E+00
  1.60000000E+01  1.00800000E+00  1.00800000E+00  1.60000000E+01  1.00800000E+00
  1.00800000E+00  1.60000000E+01  1.00800000E+00  1.00800000E+00  1.60000000E+01
  1.00800000E+00  1.00800000E+00  1.60000000E+01  1.00800000E+00  1.00800000E+00
  1.60000000E+01  1.00800000E+00  1.00800000E+00  1.60000000E+01  1.00800000E+00
  1.00800000E+00  1.60000000E+01  1.00800000E+00  1.00800000E+00  1.60000000E+01
  1.00800000E+00  1.00800000E+00  1.60000000E+01  1.00800000E+00  1.00800000E+00
  1.60000000E+01  1.00800000E+00  1.00800000E+00  1.60000000E+01  1.00800000E+00
  1.00800000E+00  1.60000000E+01  1.00800000E+00  1.00800000E+00  1.60000000E+01
  1.00800000E+00  1.00800000E+00  1.60000000E+01  1.00800000E+00  1.00800000E+00
  1.60000000E+01  1.00800000E+00  1.00800000E+00  1.60000000E+01  1.00800000E+00
  1.00800000E+00  1.60000000E+01  1.00800000E+00  1.00800000E+00  1.60000000E+01
  1.00800000E+00  1.00800000E+00  1.60000000E+01  1.00800000E+00  1.00800000E+00
  1.60000000E+01  1.00800000E+00  1.00800000E+00  1.60000000E+01  1.00800000E+00
  1.00800000E+00  1.60000000E+01  1.00800000E+00  1.00800000E+00  1.60000000E+01
  1.00800000E+00  1.00800000E+00  1.60000000E+01  1.00800000E+00  1.00800000E+00
  1.60000000E+01  1.00800000E+00  1.00800000E+00  1.60000000E+01  1.00800000E+00
  1.00800000E+00  1.60000000E+01  1.00800000E+00  1.00800000E+00  1.60000000E+01
  1.00800000E+00  1.00800000E+00  1.60000000E+01  1.00800000E+00  1.00800000E+00
  1.60000000E+01  1.00800000E+00  1.00800000E+00  1.60000000E+01  1.00800000E+00
  1.00800000E+00  1.60000000E+01  1.00800000E+00  1.00800000E+00  1.60000000E+01
  1.00800000E+00  1.00800000E+00  1.60000000E+01  1.00800000E+00  1.00800000E+00
  1.60000000E+01  1.00800000E+00  1.00800000E+00  1.60000000E+01  1.00800000E+00
  1.00800000E+00  1.60000000E+01  1.00800000E+00  1.00800000E+00  1.60000000E+01
  1.00800000E+00  1.00800000E+00  1.60000000E+01  1.00800000E+00  1.00800000E+00
  1.60000000E+01  1.00800000E+00  1.00800000E+00  1.60000000E+01  1.00800000E+00
  1.00800000E+00  1.60000000E+01  1.00800000E+00  1.00800000E+00  1.60000000E+01
  1.00800000E+00  1.00800000E+00  1.60000000E+01  1.00800000E+00  1.00800000E+00
  1.60000000E+01  1.00800000E+00  1.00800000E+00  1.60000000E+01  1.00800000E+00
  1.00800000E+00  1.60000000E+01  1.00800000E+00  1.00800000E+00  1.60000000E+01
  1.00800000E+00  1.00800000E+00  1.60000000E+01  1.00800000E+00  1.00800000E+00
  1.60000000E+01  1.00800000E+00  1.00800000E+00  1.60000000E+01  1.00800000E+00
  1.00800000E+00  1.60000000E+01  1.00800000E+00  1.00800000E+00  1.60000000E+01
  1.00800000E+00  1.00800000E+00  1.60000000E+01  1.00800000E+00  1.00800000E+00
  1.60000000E+01  1.00800000E+00  1.00800000E+00  1.60000000E+01  1.00800000E+00
  1.00800000E+00  1.60000000E+01  1.00800000E+00  1.00800000E+00  1.60000000E+01
  1.00800000E+00  1.00800000E+00  1.60000000E+01  1.00800000E+00  1.00800000E+00
  1.60000000E+01  1.00800000E+00  1.00800000E+00  1.60000000E+01  1.00800000E+00
  1.00800000E+00  1.60000000E+01  1.00800000E+00  1.00800000E+00  1.60000000E+01
  1.00800000E+00  1.00800000E+00  1.60000000E+01  1.00800000E+00  1.00800000E+00
  1.60000000E+01  1.00800000E+00  1.00800000E+00  1.60000000E+01  1.00800000E+00
  1.00800000E+00  1.60000000E+01  1.00800000E+00  1.00800000E+00  1.60000000E+01
  1.00800000E+00  1.00800000E+00  1.60000000E+01  1.00800000E+00  1.00800000E+00
  1.60000000E+01  1.00800000E+00  1.00800000E+00  1.60000000E+01  1.00800000E+00
  1.00800000E+00  1.60000000E+01  1.00800000E+00  1.00800000E+00  1.60000000E+01
  1.00800000E+00  1.00800000E+00  1.60000000E+01  1.00800000E+00  1.00800000E+00
  1.60000000E+01  1.00800000E+00  1.00800000E+00  1.60000000E+01  1.00800000E+00
  1.00800000E+00  1.60000000E+01  1.00800000E+00  1.00800000E+00  1.60000000E+01
  1.00800000E+00  1.00800000E+00  1.60000000E+01  1.00800000E+00  1.00800000E+00
  1.60000000E+01  1.00800000E+00  1.00800000E+00  1.60000000E+01  1.00800000E+00
  1.00800000E+00  1.60000000E+01  1.00800000E+00  1.00800000E+00  1.60000000E+01
  1.00800000E+00  1.00800000E+00  1.60000000E+01  1.00800000E+00  1.00800000E+00
  1.60000000E+01  1.00800000E+00  1.00800000E+00  1.60000000E+01  1.00800000E+00
  1.00800000E+00  1.60000000E+01  1.00800000E+00  1.00800000E+00  1.60000000E+01
  1.00800000E+00  1.00800000E+00  1.60000000E+01  1.00800000E+00  1.00800000E+00
  1.60000000E+01  1.00800000E+00  1.00800000E+00  1.60000000E+01  1.00800000E+00
  1.00800000E+00  1.60000000E+01  1.00800000E+00  1.00800000E+00  1.60000000E+01
  1.00800000E+00  1.00800000E+00  1.60000000E+01  1.00800000E+00  1.00800000E+00
  1.60000000E+01  1.00800000E+00  1.00800000E+00  1.60000000E+01  1.00800000E+00
  1.00800000E+00  1.60000000E+01  1.00800000E+00  1.00800000E+00  1.60000000E+01
  1.00800000E+00  1.00800000E+00  1.60000000E+01  1.00800000E+00  1.00800000E+00
  1.60000000E+01  1.00800000E+00  1.00800000E+00  1.60000000E+01  1.00800000E+00
  1.00800000E+00  1.60000000E+01  1.00800000E+00  1.00800000E+00  1.60000000E+01
  1.00800000E+00  1.00800000E+00  1.60000000E+01  1.00800000E+00  1.00800000E+00
  1.60000000E+01  1.00800000E+00  1.00800000E+00  1.60000000E+01  1.00800000E+00
  1.00800000E+00  1.60000000E+01  1.00800000E+00  1.00800000E+00  1.60000000E+01
  1.00800000E+00  1.00800000E+00  1.60000000E+01  1.00800000E+00  1.00800000E+00
  1.60000000E+01  1.00800000E+00  1.00800000E+00  1.60000000E+01  1.00800000E+00
  1.00800000E+00  1.60000000E+01  1.00800000E+00  1.00800000E+00  1.60000000E+01
  1.00800000E+00  1.00800000E+00  1.60000000E+01  1.00800000E+00  1.00800000E+00
  1.60000000E+01  1.00800000E+00  1.00800000E+00  1.60000000E+01  1.00800000E+00
  1.00800000E+00  1.60000000E+01  1.00800000E+00  1.00800000E+00  1.60000000E+01
  1.00800000E+00  1.00800000E+00  1.60000000E+01  1.00800000E+00  1.00800000E+00
  1.60000000E+01  1.00800000E+00  1.00800000E+00  1.60000000E+01  1.00800000E+00
  1.00800000E+00  1.60000000E+01  1.00800000E+00  1.00800000E+00  1.60000000E+01
  1.00800000E+00  1.00800000E+00  1.60000000E+01  1.00800000E+00  1.00800000E+00
  1.60000000E+01  1.00800000E+00  1.00800000E+00  1.60000000E+01  1.00800000E+00
  1.00800000E+00  1.60000000E+01  1.00800000E+00  1.00800000E+00  1.60000000E+01
  1.00800000E+00  1.00800000E+00  1.60000000E+01  1.00800000E+00  1.00800000E+00
  1.60000000E+01  1.00800000E+00  1.00800000E+00  1.60000000E+01  1.00800000E+00
  1.00800000E+00  1.60000000E+01  1.00800000E+00  1.00800000E+00  1.60000000E+01
  1.00800000E+00  1.00800000E+00  1.60000000E+01  1.00800000E+00  1.00800000E+00
  1.60000000E+01  1.00800000E+00  1.00800000E+00  1.60000000E+01  1.00800000E+00
  1.00800000E+00  1.60000000E+01  1.00800000E+00  1.00800000E+00  1.60000000E+01
  1.00800000E+00  1.00800000E+00  1.60000000E+01  1.00800000E+00  1.00800000E+00
  1.60000000E+01  1.00800000E+00  1.00800000E+00  1.60000000E+01  1.00800000E+00
  1.00800000E+00  1.60000000E+01  1.00800000E+00  1.00800000E+00  1.60000000E+01
  1.00800000E+00  1.00800000E+00  1.60000000E+01  1.00800000E+00  1.00800000E+00
  1.60000000E+01  1.00800000E+00  1.00800000E+00  1.60000000E+01  1.00800000E+00
  1.00800000E+00  1.60000000E+01  1.00800000E+00  1.00800000E+00  1.60000000E+01
  1.00800000E+00  1.00800000E+00  1.60000000E+01  1.00800000E+00  1.00800000E+00
  1.60000000E+01  1.00800000E+00  1.00800000E+00  1.60000000E+01  1.00800000E+00
  1.00800000E+00  1.60000000E+01  1.00800000E+00  1.00800000E+00  1.60000000E+01
  1.00800000E+00  1.00800000E+00  1.60000000E+01  1.00800000E+00  1.00800000E+00
  1.60000000E+01  1.00800000E+00  1.00800000E+00  1.60000000E+01  1.00800000E+00
  1.00800000E+00  1.60000000E+01  1.00800000E+00  1.00800000E+00  1.60000000E+01
  1.00800000E+00  1.00800000E+00  1.60000000E+01  1.00800000E+00  1.00800000E+00
  1.60000000E+01  1.00800000E+00  1.00800000E+00  1.60000000E+01  1.00800000E+00
  1.00800000E+00  1.60000000E+01  1.00800000E+00  1.00800000E+00  1.60000000E+01
  1.00800000E+00  1.00800000E+00  1.60000000E+01  1.00800000E+00  1.00800000E+00
  1.60000000E+01  1.00800000E+00  1.00800000E+00  1.60000000E+01  1.00800000E+00
  1.00800000E+00  1.60000000E+01  1.00800000E+00  1.00800000E+00  1.60000000E+01
  1.00800000E+00  1.00800000E+00  1.60000000E+01  1.00800000E+00  1.00800000E+00
  1.60000000E+01  1.00800000E+00  1.00800000E+00  1.60000000E+01  1.00800000E+00
  1.00800000E+00  1.60000000E+01  1.00800000E+00  1.00800000E+00  1.60000000E+01
  1.00800000E+00  1.00800000E+00  1.60000000E+01  1.00800000E+00  1.00800000E+00
  1.60000000E+01  1.00800000E+00  1.00800000E+00  1.60000000E+01  1.00800000E+00
  1.00800000E+00  1.60000000E+01  1.00800000E+00  1.00800000E+00  1.60000000E+01
  1.00800000E+00  1.00800000E+00  1.60000000E+01  1.00800000E+00  1.00800000E+00
  1.60000000E+01  1.00800000E+00  1.00800000E+00  1.60000000E+01  1.00800000E+00
  1.00800000E+00  1.60000000E+01  1.00800000E+00  1.00800000E+00  1.60000000E+01
  1.00800000E+00  1.00800000E+00  1.60000000E+01  1.00800000E+00  1.00800000E+00
  1.60000000E+01  1.00800000E+00  1.00800000E+00  1.60000000E+01  1.00800000E+00
  1.00800000E+00  1.60000000E+01  1.00800000E+00  1.00800000E+00  1.60000000E+01
  1.00800000E+00  1.00800000E+00  1.60000000E+01  1.00800000E+00  1.00800000E+00
  1.60000000E+01  1.00800000E+00  1.00800000E+00  1.60000000E+01  1.00800000E+00
  1.00800000E+00  1.60000000E+01  1.00800000E+00  1.00800000E+00  1.60000000E+01
  1.00800000E+00  1.00800000E+00  1.60000000E+01  1.00800000E+00  1.00800000E+00
  1.60000000E+01  1.00800000E+00  1.00800000E+00  1.60000000E+01  1.00800000E+00
  1.00800000E+00  1.60000000E+01  1.00800000E+00  1.00800000E+00  1.60000000E+01
  1.00800000E+00  1.00800000E+00  1.60000000E+01  1.00800000E+00  1.00800000E+00
  1.60000000E+01  1.00800000E+00  1.00800000E+00  1.60000000E+01  1.00800000E+00
  1.00800000E+00  1.60000000E+01  1.00800000E+00  1.00800000E+00  1.60000000E+01
  1.00800000E+00  1.00800000E+00  1.60000000E+01  1.00800000E+00  1.00800000E+00
  1.60000000E+01  1.00800000E+00  1.00800000E+00  1.60000000E+01  1.00800000E+00
  1.00800000E+00  1.60000000E+01  1.00800000E+00  1.00800000E+00  1.60000000E+01
  1.00800000E+00  1.00800000E+00  1.60000000E+01  1.00800000E+00  1.00800000E+00
  1.60000000E+01  1.00800000E+00  1.00800000E+00  1.60000000E+01  1.00800000E+00
  1.00800000E+00  1.60000000E+01  1.00800000E+00  1.00800000E+00  1.60000000E+01
  1.00800000E+00  1.00800000E+00  1.60000000E+01  1.00800000E+00  1.00800000E+00
  1.60000000E+01  1.00800000E+00  1.00800000E+00  1.60000000E+01  1.00800000E+00
  1.00800000E+00  1.60000000E+01  1.00800000E+00  1.00800000E+00  1.60000000E+01
  1.00800000E+00  1.00800000E+00  1.60000000E+01  1.00800000E+00  1.00800000E+00
  1.60000000E+01  1.00800000E+00  1.00800000E+00  1.60000000E+01  1.00800000E+00
  1.00800000E+00  1.60000000E+01  1.00800000E+00  1.00800000E+00  1.60000000E+01
  1.00800000E+00  1.00800000E+00  1.60000000E+01  1.00800000E+00  1.00800000E+00
  1.60000000E+01  1.00800000E+00  1.00800000E+00  1.60000000E+01  1.00800000E+00
  1.00800000E+00  1.60000000E+01  1.00800000E+00  1.00800000E+00  1.60000000E+01
  1.00800000E+00  1.00800000E+00  1.60000000E+01  1.00800000E+00  1.00800000E+00
  1.60000000E+01  1.00800000E+00  1.00800000E+00  1.60000000E+01  1.00800000E+00
  1.00800000E+00  1.60000000E+01  1.00800000E+00  1.00800000E+00  1.60000000E+01
  1.00800000E+00  1.00800000E+00  1.60000000E+01  1.00800000E+00  1.00800000E+00
  1.60000000E+01  1.00800000E+00  1.00800000E+00  1.60000000E+01  1.00800000E+00
  1.00800000E+00  1.60000000E+01  1.00800000E+00  1.00800000E+00  1.60000000E+01
  1.00800000E+00  1.00800000E+00  1.60000000E+01  1.00800000E+00  1.00800000E+00
  1.60000000E+01  1.00800000E+00  1.00800000E+00  1.60000000E+01  1.00800000E+00
  1.00800000E+00  1.60000000E+01  1.00800000E+00  1.00800000E+00  1.60000000E+01
  1.00800000E+00  1.00800000E+00  1.60000000E+01  1.00800000E+00  1.00800000E+00
  1.60000000E+01  1.00800000E+00  1.00800000E+00  1.60000000E+01  1.00800000E+00
  1.00800000E+00  1.60000000E+01  1.00800000E+00  1.00800000E+00  1.60000000E+01
  1.00800000E+00  1.00800000E+00  1.60000000E+01  1.00800000E+00  1.00800000E+00
  1.60000000E+01  1.00800000E+00  1.00800000E+00  1.60000000E+01  1.00800000E+00
  1.00800000E+00  1.60000000E+01  1.00800000E+00  1.00800000E+00  1.60000000E+01
  1.00800000E+00  1.00800000E+00  1.60000000E+01  1.00800000E+00  1.00800000E+00
  1.60000000E+01  1.00800000E+00  1.00800000E+00  1.60000000E+01  1.00800000E+00
  1.00800000E+00  1.60000000E+01  1.00800000E+00  1.00800000E+00  1.60000000E+01
  1.00800000E+00  1.00800000E+00  1.60000000E+01  1.00800000E+00  1.00800000E+00
  1.60000000E+01  1.00800000E+00  1.00800000E+00  1.60000000E+01  1.00800000E+00
  1.00800000E+00  1.60000000E+01  1.00800000E+00  1.00800000E+00  1.60000000E+01
  1.00800000E+00  1.00800000E+00  1.60000000E+01  1.00800000E+00  1.00800000E+00
  1.60000000E+01  1.00800000E+00  1.00800000E+00  1.60000000E+01  1.00800000E+00
  1.00800000E+00  1.60000000E+01  1.00800000E+00  1.00800000E+00  1.60000000E+01
  1.00800000E+00  1.00800000E+00  1.60000000E+01  1.00800000E+00  1.00800000E+00
  1.60000000E+01  1.00800000E+00  1.00800000E+00  1.60000000E+01  1.00800000E+00
  1.00800000E+00  1.60000000E+01  1.00800000E+00  1.00800000E+00  1.60000000E+01
  1.00800000E+00  1.00800000E+00  1.60000000E+01  1.00800000E+00  1.00800000E+00
  1.60000000E+01  1.00800000E+00  1.00800000E+00  1.60000000E+01  1.00800000E+00
  1.00800000E+00  1.60000000E+01  1.00800000E+00  1.00800000E+00  1.60000000E+01
  1.00800000E+00  1.00800000E+00  1.60000000E+01  1.00800000E+00  1.00800000E+00
  1.60000000E+01  1.00800000E+00  1.00800000E+00  1.60000000E+01  1.00800000E+00
  1.00800000E+00  1.60000000E+01  1.00800000E+00  1.00800000E+00  1.60000000E+01
  1.00800000E+00  1.00800000E+00  1.60000000E+01  1.00800000E+00  1.00800000E+00
  1.60000000E+01  1.00800000E+00  1.00800000E+00  1.60000000E+01  1.00800000E+00
  1.00800000E+00  1.60000000E+01  1.00800000E+00  1.00800000E+00  1.60000000E+01
  1.00800000E+00  1.00800000E+00  1.60000000E+01  1.00800000E+00  1.00800000E+00
  1.60000000E+01  1.00800000E+00  1.00800000E+00  1.60000000E+01  1.00800000E+00
  1.00800000E+00  1.60000000E+01  1.00800000E+00  1.00800000E+00  1.60000000E+01
  1.00800000E+00  1.00800000E+00  1.60000000E+01  1.00800000E+00  1.00800000E+00
  1.60000000E+01  1.00800000E+00  1.00800000E+00  1.60000000E+01  1.00800000E+00
  1.00800000E+00  1.60000000E+01  1.00800000E+00  1.00800000E+00  1.60000000E+01
  1.00800000E+00  1.00800000E+00  1.60000000E+01  1.00800000E+00  1.00800000E+00
  1.60000000E+01  1.00800000E+00  1.00800000E+00  1.60000000E+01  1.00800000E+00
  1.00800000E+00  1.60000000E+01  1.00800000E+00  1.00800000E+00  1.60000000E+01
  1.00800000E+00  1.00800000E+00  1.60000000E+01  1.00800000E+00  1.00800000E+00
  1.60000000E+01  1.00800000E+00  1.00800000E+00  1.60000000E+01  1.00800000E+00
  1.00800000E+00  1.60000000E+01  1.00800000E+00  1.00800000E+00  1.60000000E+01
  1.00800000E+00  1.00800000E+00  1.60000000E+01  1.00800000E+00  1.00800000E+00
  1.60000000E+01  1.00800000E+00  1.00800000E+00  1.60000000E+01  1.00800000E+00
  1.00800000E+00  1.60000000E+01  1.00800000E+00  1.00800000E+00  1.60000000E+01
  1.00800000E+00  1.00800000E+00  1.60000000E+01  1.00800000E+00  1.00800000E+00
  1.60000000E+01  1.00800000E+00  1.00800000E+00  1.60000000E+01  1.00800000E+00
  1.00800000E+00  1.60000000E+01  1.00800000E+00  1.00800000E+00  1.60000000E+01
  1.00800000E+00  1.00800000E+00  1.60000000E+01  1.00800000E+00  1.00800000E+00
  1.60000000E+01  1.00800000E+00  1.00800000E+00  1.60000000E+01  1.00800000E+00
  1.00800000E+00  1.60000000E+01  1.00800000E+00  1.00800000E+00  1.60000000E+01
  1.00800000E+00  1.00800000E+00  1.60000000E+01  1.00800000E+00  1.00800000E+00
  1.60000000E+01  1.00800000E+00  1.00800000E+00  1.60000000E+01  1.00800000E+00
  1.00800000E+00  1.60000000E+01  1.00800000E+00  1.00800000E+00  1.60000000E+01
  1.00800000E+00  1.00800000E+00  1.60000000E+01  1.00800000E+00  1.00800000E+00
  1.60000000E+01  1.00800000E+00  1.00800000E+00  1.60000000E+01  1.00800000E+00
  1.00800000E+00  1.60000000E+01  1.00800000E+00  1.00800000E+00  1.60000000E+01
  1.00800000E+00  1.00800000E+00  1.60000000E+01  1.00800000E+00  1.00800000E+00
  1.60000000E+01  1.00800000E+00  1.00800000E+00  1.60000000E+01  1.00800000E+00
  1.00800000E+00  1.60000000E+01  1.00800000E+00  1.00800000E+00  1.60000000E+01
  1.00800000E+00  1.00800000E+00  1.60000000E+01  1.00800000E+00  1.00800000E+00
  1.60000000E+01  1.00800000E+00  1.00800000E+00  1.60000000E+01  1.00800000E+00
  1.00800000E+00  1.60000000E+01  1.00800000E+00  1.00800000E+00  1.60000000E+01
  1.00800000E+00  1.00800000E+00  1.60000000E+01  1.00800000E+00  1.00800000E+00
  1.60000000E+01  1.00800000E+00  1.00800000E+00  1.60000000E+01  1.00800000E+00
  1.00800000E+00  1.60000000E+01  1.00800000E+00  1.00800000E+00  1.60000000E+01
  1.00800000E+00  1.00800000E+00  1.60000000E+01  1.00800000E+00  1.00800000E+00
  1.60000000E+01  1.00800000E+00  1.00800000E+00  1.60000000E+01  1.00800000E+00
  1.00800000E+00  1.60000000E+01  1.00800000E+00  1.00800000E+00  1.60000000E+01
  1.00800000E+00  1.00800000E+00  1.60000000E+01  1.00800000E+00  1.00800000E+00
  1.60000000E+01  1.00800000E+00  1.00800000E+00  1.60000000E+01  1.00800000E+00
  1.00800000E+00  1.60000000E+01  1.00800000E+00  1.00800000E+00  1.60000000E+01
  1.00800000E+00  1.00800000E+00  1.60000000E+01  1.00800000E+00  1.00800000E+00
  1.60000000E+01  1.00800000E+00  1.00800000E+00  1.60000000E+01  1.00800000E+00
  1.00800000E+00  1.60000000E+01  1.00800000E+00  1.00800000E+00  1.60000000E+01
  1.00800000E+00  1.00800000E+00  1.60000000E+01  1.00800000E+00  1.00800000E+00
  1.60000000E+01  1.00800000E+00  1.00800000E+00  1.60000000E+01  1.00800000E+00
  1.00800000E+00  1.60000000E+01  1.00800000E+00  1.00800000E+00  1.60000000E+01
  1.00800000E+00  1.00800000E+00  1.60000000E+01  1.00800000E+00  1.00800000E+00
  1.60000000E+01  1.00800000E+00  1.00800000E+00  1.60000000E+01  1.00800000E+00
  1.00800000E+00  1.60000000E+01  1.00800000E+00  1.00800000E+00  1.60000000E+01
  1.00800000E+00  1.00800000E+00  1.60000000E+01  1.00800000E+00  1.00800000E+00
  1.60000000E+01  1.00800000E+00  1.00800000E+00  1.60000000E+01  1.00800000E+00
  1.00800000E+00  1.60000000E+01  1.00800000E+00  1.00800000E+00  1.60000000E+01
  1.00800000E+00  1.00800000E+00  1.60000000E+01  1.00800000E+00  1.00800000E+00
  1.60000000E+01  1.00800000E+00  1.00800000E+00  1.60000000E+01  1.00800000E+00
  1.00800000E+00  1.60000000E+01  1.00800000E+00  1.00800000E+00  1.60000000E+01
  1.00800000E+00  1.00800000E+00  1.60000000E+01  1.00800000E+00  1.00800000E+00
  1.60000000E+01  1.00800000E+00  1.00800000E+00  1.60000000E+01  1.00800000E+00
  1.00800000E+00  1.60000000E+01  1.00800000E+00  1.00800000E+00  1.60000000E+01
  1.00800000E+00  1.00800000E+00  1.60000000E+01  1.00800000E+00  1.00800000E+00
  1.60000000E+01  1.00800000E+00  1.00800000E+00  1.60000000E+01  1.00800000E+00
  1.00800000E+00  1.60000000E+01  1.00800000E+00  1.00800000E+00  1.60000000E+01
  1.00800000E+00  1.00800000E+00  1.60000000E+01  1.00800000E+00  1.00800000E+00
  1.60000000E+01  1.00800000E+00  1.00800000E+00  1.60000000E+01  1.00800000E+00
  1.00800000E+00  1.60000000E+01  1.00800000E+00  1.00800000E+00  1.60000000E+01
  1.00800000E+00  1.00800000E+00  1.60000000E+01  1.00800000E+00  1.00800000E+00
  1.60000000E+01  1.00800000E+00  1.00800000E+00  1.60000000E+01  1.00800000E+00
  1.00800000E+00  1.60000000E+01  1.00800000E+00  1.00800000E+00  1.60000000E+01
  1.00800000E+00  1.00800000E+00  1.60000000E+01  1.00800000E+00  1.00800000E+00
  1.60000000E+01  1.00800000E+00  1.00800000E+00  1.60000000E+01  1.00800000E+00
  1.00800000E+00  1.60000000E+01  1.00800000E+00  1.00800000E+00  1.60000000E+01
  1.00800000E+00  1.00800000E+00  1.60000000E+01  1.00800000E+00  1.00800000E+00
  1.60000000E+01  1.00800000E+00  1.00800000E+00  1.60000000E+01  1.00800000E+00
  1.00800000E+00  1.60000000E+01  1.00800000E+00  1.00800000E+00  1.60000000E+01
  1.00800000E+00  1.00800000E+00  1.60000000E+01  1.00800000E+00  1.00800000E+00
  1.60000000E+01  1.00800000E+00  1.00800000E+00  1.60000000E+01  1.00800000E+00
  1.00800000E+00  1.60000000E+01  1.00800000E+00  1.00800000E+00  1.60000000E+01
  1.00800000E+00  1.00800000E+00  1.60000000E+01  1.00800000E+00  1.00800000E+00
  1.60000000E+01  1.00800000E+00  1.00800000E+00  1.60000000E+01  1.00800000E+00
  1.00800000E+00  1.60000000E+01  1.00800000E+00  1.00800000E+00  1.60000000E+01
  1.00800000E+00  1.00800000E+00  1.60000000E+01  1.00800000E+00  1.00800000E+00
  1.60000000E+01  1.00800000E+00  1.00800000E+00  1.60000000E+01  1.00800000E+00
  1.00800000E+00  1.60000000E+01  1.00800000E+00  1.00800000E+00  1.60000000E+01
  1.00800000E+00  1.00800000E+00  1.60000000E+01  1.00800000E+00  1.00800000E+00
  1.60000000E+01  1.00800000E+00  1.00800000E+00  1.60000000E+01  1.00800000E+00
  1.00800000E+00  1.60000000E+01  1.00800000E+00  1.00800000E+00  1.60000000E+01
  1.00800000E+00  1.00800000E+00  1.60000000E+01  1.00800000E+00  1.00800000E+00
  1.60000000E+01  1.00800000E+00  1.00800000E+00  1.60000000E+01  1.00800000E+00
  1.00800000E+00  1.60000000E+01  1.00800000E+00  1.00800000E+00  1.60000000E+01
  1.00800000E+00  1.00800000E+00  1.60000000E+01  1.00800000E+00  1.00800000E+00
  1.60000000E+01  1.00800000E+00  1.00800000E+00  1.60000000E+01  1.00800000E+00
  1.00800000E+00  1.60000000E+01  1.00800000E+00  1.00800000E+00  1.60000000E+01
  1.00800000E+00  1.00800000E+00  1.60000000E+01  1.00800000E+00  1.00800000E+00
  1.60000000E+01  1.00800000E+00  1.00800000E+00  1.60000000E+01  1.00800000E+00
  1.00800000E+00  1.60000000E+01  1.00800000E+00  1.00800000E+00  1.60000000E+01
  1.00800000E+00  1.00800000E+00  1.60000000E+01  1.00800000E+00  1.00800000E+00
  1.60000000E+01  1.00800000E+00  1.00800000E+00  1.60000000E+01  1.00800000E+00
  1.00800000E+00  1.60000000E+01  1.00800000E+00  1.00800000E+00  1.60000000E+01
  1.00800000E+00  1.00800000E+00  1.60000000E+01  1.00800000E+00  1.00800000E+00
  1.60000000E+01  1.00800000E+00  1.00800000E+00  1.60000000E+01  1.00800000E+00
  1.00800000E+00  1.60000000E+01  1.00800000E+00  1.00800000E+00  1.60000000E+01
  1.00800000E+00  1.00800000E+00  1.60000000E+01  1.00800000E+00  1.00800000E+00
  1.60000000E+01  1.00800000E+00  1.00800000E+00  1.60000000E+01  1.00800000E+00
  1.00800000E+00  1.60000000E+01  1.00800000E+00  1.00800000E+00  1.60000000E+01
  1.00800000E+00  1.00800000E+00  1.60000000E+01  1.00800000E+00  1.00800000E+00
  1.60000000E+01  1.00800000E+00  1.00800000E+00  1.60000000E+01  1.00800000E+00
  1.00800000E+00  1.60000000E+01  1.00800000E+00  1.00800000E+00  1.60000000E+01
  1.00800000E+00  1.00800000E+00  1.60000000E+01  1.00800000E+00  1.00800000E+00
  1.60000000E+01  1.00800000E+00  1.00800000E+00  1.60000000E+01  1.00800000E+00
  1.00800000E+00  1.60000000E+01  1.00800000E+00  1.00800000E+00  1.60000000E+01
  1.00800000E+00  1.00800000E+00  1.60000000E+01  1.00800000E+00  1.00800000E+00
  1.60000000E+01  1.00800000E+00  1.00800000E+00  1.60000000E+01  1.00800000E+00
  1.00800000E+00  1.60000000E+01  1.00800000E+00  1.00800000E+00  1.60000000E+01
  1.00800000E+00  1.00800000E+00  1.60000000E+01  1.00800000E+00  1.00800000E+00
  1.60000000E+01  1.00800000E+00  1.00800000E+00  1.60000000E+01  1.00800000E+00
  1.00800000E+00  1.60000000E+01  1.00800000E+00  1.00800000E+00  1.60000000E+01
  1.00800000E+00  1.00800000E+00  1.60000000E+01  1.00800000E+00  1.00800000E+00
  1.60000000E+01  1.00800000E+00  1.00800000E+00  1.60000000E+01  1.00800000E+00
  1.00800000E+00  1.60000000E+01  1.00800000E+00  1.00800000E+00  1.60000000E+01
  1.00800000E+00  1.00800000E+00  1.60000000E+01  1.00800000E+00  1.00800000E+00
  1.60000000E+01  1.00800000E+00  1.00800000E+00  1.60000000E+01  1.00800000E+00
  1.00800000E+00  1.60000000E+01  1.00800000E+00  1.00800000E+00  1.60000000E+01
  1.00800000E+00  1.00800000E+00  1.60000000E+01  1.00800000E+00  1.00800000E+00
  1.60000000E+01  1.00800000E+00  1.00800000E+00  1.60000000E+01  1.00800000E+00
  1.00800000E+00  1.60000000E+01  1.00800000E+00  1.00800000E+00  1.60000000E+01
  1.00800000E+00  1.00800000E+00  1.60000000E+01  1.00800000E+00  1.00800000E+00
  1.60000000E+01  1.00800000E+00  1.00800000E+00  1.60000000E+01  1.00800000E+00
  1.00800000E+00  1.60000000E+01  1.00800000E+00  1.00800000E+00  1.60000000E+01
  1.00800000E+00  1.00800000E+00  1.60000000E+01  1.00800000E+00  1.00800000E+00
  1.60000000E+01  1.00800000E+00  1.00800000E+00  1.60000000E+01  1.00800000E+00
  1.00800000E+00  1.60000000E+01  1.00800000E+00  1.00800000E+00  1.60000000E+01
  1.00800000E+00  1.00800000E+00  1.60000000E+01  1.00800000E+00  1.00800000E+00
  1.60000000E+01  1.00800000E+00  1.00800000E+00  1.60000000E+01  1.00800000E+00
  1.00800000E+00  1.60000000E+01  1.00800000E+00  1.00800000E+00  1.60000000E+01
  1.00800000E+00  1.00800000E+00  1.60000000E+01  1.00800000E+00  1.00800000E+00
  1.60000000E+01  1.00800000E+00  1.00800000E+00  1.60000000E+01  1.00800000E+00
  1.00800000E+00  1.60000000E+01  1.00800000E+00  1.00800000E+00  1.60000000E+01
  1.00800000E+00  1.00800000E+00  1.60000000E+01  1.00800000E+00  1.00800000E+00
  1.60000000E+01  1.00800000E+00  1.00800000E+00  1.60000000E+01  1.00800000E+00
  1.00800000E+00  1.60000000E+01  1.00800000E+00  1.00800000E+00  1.60000000E+01
  1.00800000E+00  1.00800000E+00  1.60000000E+01  1.00800000E+00  1.00800000E+00
  1.60000000E+01  1.00800000E+00  1.00800000E+00  1.60000000E+01  1.00800000E+00
  1.00800000E+00  1.60000000E+01  1.00800000E+00  1.00800000E+00  1.60000000E+01
  1.00800000E+00  1.00800000E+00  1.60000000E+01  1.00800000E+00  1.00800000E+00
  1.60000000E+01  1.00800000E+00  1.00800000E+00  1.60000000E+01  1.00800000E+00
  1.00800000E+00  1.60000000E+01  1.00800000E+00  1.00800000E+00  1.60000000E+01
  1.00800000E+00  1.00800000E+00  1.60000000E+01  1.00800000E+00  1.00800000E+00
  1.60000000E+01  1.00800000E+00  1.00800000E+00  1.60000000E+01  1.00800000E+00
  1.00800000E+00  1.60000000E+01  1.00800000E+00  1.00800000E+00  1.60000000E+01
  1.00800000E+00  1.00800000E+00  1.60000000E+01  1.00800000E+00  1.00800000E+00
  1.60000000E+01  1.00800000E+00  1.00800000E+00  1.60000000E+01  1.00800000E+00
  1.00800000E+00  1.60000000E+01  1.00800000E+00  1.00800000E+00  1.60000000E+01
  1.00800000E+00  1.00800000E+00  1.60000000E+01  1.00800000E+00  1.00800000E+00
  1.60000000E+01  1.00800000E+00  1.00800000E+00  1.60000000E+01  1.00800000E+00
  1.00800000E+00  1.60000000E+01  1.00800000E+00  1.00800000E+00  1.60000000E+01
  1.00800000E+00  1.00800000E+00  1.60000000E+01  1.00800000E+00  1.00800000E+00
  1.60000000E+01  1.00800000E+00  1.00800000E+00  1.60000000E+01  1.00800000E+00
  1.00800000E+00  1.60000000E+01  1.00800000E+00  1.00800000E+00  1.60000000E+01
  1.00800000E+00  1.00800000E+00  1.60000000E+01  1.00800000E+00  1.00800000E+00
  1.60000000E+01  1.00800000E+00  1.00800000E+00  1.60000000E+01  1.00800000E+00
  1.00800000E+00  1.60000000E+01  1.00800000E+00  1.00800000E+00  1.60000000E+01
  1.00800000E+00  1.00800000E+00  1.60000000E+01  1.00800000E+00  1.00800000E+00
  1.60000000E+01  1.00800000E+00  1.00800000E+00  1.60000000E+01  1.00800000E+00
  1.00800000E+00  1.60000000E+01  1.00800000E+00  1.00800000E+00  1.60000000E+01
  1.00800000E+00  1.00800000E+00  1.60000000E+01  1.00800000E+00  1.00800000E+00
  1.60000000E+01  1.00800000E+00  1.00800000E+00  1.60000000E+01  1.00800000E+00
  1.00800000E+00  1.60000000E+01  1.00800000E+00  1.00800000E+00  1.60000000E+01
  1.00800000E+00  1.00800000E+00  1.60000000E+01  1.00800000E+00  1.00800000E+00
  1.60000000E+01  1.00800000E+00  1.00800000E+00  1.60000000E+01  1.00800000E+00
  1.00800000E+00  1.60000000E+01  1.00800000E+00  1.00800000E+00  1.60000000E+01
  1.00800000E+00  1.00800000E+00  1.60000000E+01  1.00800000E+00  1.00800000E+00
  1.60000000E+01  1.00800000E+00  1.00800000E+00  1.60000000E+01  1.00800000E+00
  1.00800000E+00  1.60000000E+01  1.00800000E+00  1.00800000E+00  1.60000000E+01
  1.00800000E+00  1.00800000E+00  1.60000000E+01  1.00800000E+00  1.00800000E+00
  1.60000000E+01  1.00800000E+00  1.00800000E+00  1.60000000E+01  1.00800000E+00
  1.00800000E+00  1.60000000E+01  1.00800000E+00  1.00800000E+00  1.60000000E+01
  1.00800000E+00  1.00800000E+00  1.60000000E+01  1.00800000E+00  1.00800000E+00
  1.60000000E+01  1.00800000E+00  1.00800000E+00  1.60000000E+01  1.00800000E+00
  1.00800000E+00  1.60000000E+01  1.00800000E+00  1.00800000E+00  1.60000000E+01
  1.00800000E+00  1.00800000E+00  1.60000000E+01  1.00800000E+00  1.00800000E+00
  1.60000000E+01  1.00800000E+00  1.00800000E+00  1.60000000E+01  1.00800000E+00
  1.00800000E+00  1.60000000E+01  1.00800000E+00  1.00800000E+00  1.60000000E+01
  1.00800000E+00  1.00800000E+00  1.60000000E+01  1.00800000E+00  1.00800000E+00
  1.60000000E+01  1.00800000E+00  1.00800000E+00  1.60000000E+01  1.00800000E+00
  1.00800000E+00  1.60000000E+01  1.00800000E+00  1.00800000E+00  1.60000000E+01
  1.00800000E+00  1.00800000E+00  1.60000000E+01  1.00800000E+00  1.00800000E+00
  1.60000000E+01  1.00800000E+00  1.00800000E+00  1.60000000E+01  1.00800000E+00
  1.00800000E+00  1.60000000E+01  1.00800000E+00  1.00800000E+00  1.60000000E+01
  1.00800000E+00  1.00800000E+00  1.60000000E+01  1.00800000E+00  1.00800000E+00
  1.60000000E+01  1.00800000E+00  1.00800000E+00  1.60000000E+01  1.00800000E+00
  1.00800000E+00  1.60000000E+01  1.00800000E+00  1.00800000E+00  1.60000000E+01
  1.00800000E+00  1.00800000E+00  1.60000000E+01  1.00800000E+00  1.00800000E+00
  1.60000000E+01  1.00800000E+00  1.00800000E+00  1.60000000E+01  1.00800000E+00
  1.00800000E+00  1.60000000E+01  1.00800000E+00  1.00800000E+00  1.60000000E+01
  1.00800000E+00  1.00800000E+00  1.60000000E+01  1.00800000E+00  1.00800000E+00
  1.60000000E+01  1.00800000E+00  1.00800000E+00  1.60000000E+01  1.00800000E+00
  1.00800000E+00  1.60000000E+01  1.00800000E+00  1.00800000E+00  1.60000000E+01
  1.00800000E+00  1.00800000E+00  1.60000000E+01  1.00800000E+00  1.00800000E+00
  1.60000000E+01  1.00800000E+00  1.00800000E+00  1.60000000E+01  1.00800000E+00
  1.00800000E+00  1.60000000E+01  1.00800000E+00  1.00800000E+00  1.60000000E+01
  1.00800000E+00  1.00800000E+00  1.60000000E+01  1.00800000E+00  1.00800000E+00
  1.60000000E+01  1.00800000E+00  1.00800000E+00  1.60000000E+01  1.00800000E+00
  1.00800000E+00  1.60000000E+01  1.00800000E+00  1.00800000E+00  1.60000000E+01
  1.00800000E+00  1.00800000E+00  1.60000000E+01  1.00800000E+00  1.00800000E+00
  1.60000000E+01  1.00800000E+00  1.00800000E+00  1.60000000E+01  1.00800000E+00
  1.00800000E+00  1.60000000E+01  1.00800000E+00  1.00800000E+00  1.60000000E+01
  1.00800000E+00  1.00800000E+00  1.60000000E+01  1.00800000E+00  1.00800000E+00
  1.60000000E+01  1.00800000E+00  1.00800000E+00  1.60000000E+01  1.00800000E+00
  1.00800000E+00  1.60000000E+01  1.00800000E+00  1.00800000E+00  1.60000000E+01
  1.00800000E+00  1.00800000E+00  1.60000000E+01  1.00800000E+00  1.00800000E+00
  1.60000000E+01  1.00800000E+00  1.00800000E+00  1.60000000E+01  1.00800000E+00
  1.00800000E+00  1.60000000E+01  1.00800000E+00  1.00800000E+00  1.60000000E+01
  1.00800000E+00  1.00800000E+00  1.60000000E+01  1.00800000E+00  1.00800000E+00
  1.60000000E+01  1.00800000E+00  1.00800000E+00  1.60000000E+01  1.00800000E+00
  1.00800000E+00  1.60000000E+01  1.00800000E+00  1.00800000E+00  1.60000000E+01
  1.00800000E+00  1.00800000E+00  1.60000000E+01  1.00800000E+00  1.00800000E+00
  1.60000000E+01  1.00800000E+00  1.00800000E+00  1.60000000E+01  1.00800000E+00
  1.00800000E+00  1.60000000E+01  1.00800000E+00  1.00800000E+00  1.60000000E+01
  1.00800000E+00  1.00800000E+00  1.60000000E+01  1.00800000E+00  1.00800000E+00
  1.60000000E+01  1.00800000E+00  1.00800000E+00  1.60000000E+01  1.00800000E+00
  1.00800000E+00  1.60000000E+01  1.00800000E+00  1.00800000E+00  1.60000000E+01
  1.00800000E+00  1.00800000E+00  1.60000000E+01  1.00800000E+00  1.00800000E+00
  1.60000000E+01  1.00800000E+00  1.00800000E+00  1.60000000E+01  1.00800000E+00
  1.00800000E+00  1.60000000E+01  1.00800000E+00  1.00800000E+00  1.60000000E+01
  1.00800000E+00  1.00800000E+00  1.60000000E+01  1.00800000E+00  1.00800000E+00
  1.60000000E+01  1.00800000E+00  1.00800000E+00  1.60000000E+01  1.00800000E+00
  1.00800000E+00  1.60000000E+01  1.00800000E+00  1.00800000E+00  1.60000000E+01
  1.00800000E+00  1.00800000E+00  1.60000000E+01  1.00800000E+00  1.00800000E+00
  1.60000000E+01  1.00800000E+00  1.00800000E+00  1.60000000E+01  1.00800000E+00
  1.00800000E+00  1.60000000E+01  1.00800000E+00  1.00800000E+00  1.60000000E+01
  1.00800000E+00  1.00800000E+00  1.60000000E+01  1.00800000E+00  1.00800000E+00
  1.60000000E+01  1.00800000E+00  1.00800000E+00  1.60000000E+01  1.00800000E+00
  1.00800000E+00  1.60000000E+01  1.00800000E+00  1.00800000E+00  1.60000000E+01
  1.00800000E+00  1.00800000E+00  1.60000000E+01  1.00800000E+00  1.00800000E+00
  1.60000000E+01  1.00800000E+00  1.00800000E+00  1.60000000E+01  1.00800000E+00
  1.00800000E+00  1.60000000E+01  1.00800000E+00  1.00800000E+00  1.60000000E+01
  1.00800000E+00  1.00800000E+00  1.60000000E+01  1.00800000E+00  1.00800000E+00
  1.60000000E+01  1.00800000E+00  1.00800000E+00  1.60000000E+01  1.00800000E+00
  1.00800000E+00  1.60000000E+01  1.00800000E+00  1.00800000E+00  1.60000000E+01
  1.00800000E+00  1.00800000E+00  1.60000000E+01  1.00800000E+00  1.00800000E+00
  1.60000000E+01  1.00800000E+00  1.00800000E+00  1.60000000E+01  1.00800000E+00
  1.00800000E+00  1.60000000E+01  1.00800000E+00  1.00800000E+00  1.60000000E+01
  1.00800000E+00  1.00800000E+00  1.60000000E+01  1.00800000E+00  1.00800000E+00
  1.60000000E+01  1.00800000E+00  1.00800000E+00  1.60000000E+01  1.00800000E+00
  1.00800000E+00  1.60000000E+01  1.00800000E+00  1.00800000E+00  1.60000000E+01
  1.00800000E+00  1.00800000E+00  1.60000000E+01  1.00800000E+00  1.00800000E+00
  1.60000000E+01  1.00800000E+00  1.00800000E+00  1.60000000E+01  1.00800000E+00
  1.00800000E+00  1.60000000E+01  1.00800000E+00  1.00800000E+00  1.60000000E+01
  1.00800000E+00  1.00800000E+00  1.60000000E+01  1.00800000E+00  1.00800000E+00
  1.60000000E+01  1.00800000E+00  1.00800000E+00  1.60000000E+01  1.00800000E+00
  1.00800000E+00  1.60000000E+01  1.00800000E+00  1.00800000E+00  1.60000000E+01
  1.00800000E+00  1.00800000E+00  1.60000000E+01  1.00800000E+00  1.00800000E+00
  1.60000000E+01  1.00800000E+00  1.00800000E+00  1.60000000E+01  1.00800000E+00
  1.00800000E+00  1.60000000E+01  1.00800000E+00  1.00800000E+00  1.60000000E+01
  1.00800000E+00  1.00800000E+00  1.60000000E+01  1.00800000E+00  1.00800000E+00
  1.60000000E+01  1.00800000E+00  1.00800000E+00  1.60000000E+01  1.00800000E+00
  1.00800000E+00  1.60000000E+01  1.00800000E+00  1.00800000E+00  1.60000000E+01
  1.00800000E+00  1.00800000E+00  1.60000000E+01  1.00800000E+00  1.00800000E+00
  1.60000000E+01  1.00800000E+00  1.00800000E+00  1.60000000E+01  1.00800000E+00
  1.00800000E+00  1.60000000E+01  1.00800000E+00  1.00800000E+00  1.60000000E+01
  1.00800000E+00  1.00800000E+00  1.60000000E+01  1.00800000E+00  1.00800000E+00
  1.60000000E+01  1.00800000E+00  1.00800000E+00  1.60000000E+01  1.00800000E+00
  1.00800000E+00  1.60000000E+01  1.00800000E+00  1.00800000E+00  1.60000000E+01
  1.00800000E+00  1.00800000E+00  1.60000000E+01  1.00800000E+00  1.00800000E+00
  1.60000000E+01  1.00800000E+00  1.00800000E+00  1.60000000E+01  1.00800000E+00
  1.00800000E+00  1.60000000E+01  1.00800000E+00  1.00800000E+00  1.60000000E+01
  1.00800000E+00  1.00800000E+00  1.60000000E+01  1.00800000E+00  1.00800000E+00
  1.60000000E+01  1.00800000E+00  1.00800000E+00  1.60000000E+01  1.00800000E+00
  1.00800000E+00  1.60000000E+01  1.00800000E+00  1.00800000E+00  1.60000000E+01
  1.00800000E+00  1.00800000E+00  1.60000000E+01  1.00800000E+00  1.00800000E+00
  1.60000000E+01  1.00800000E+00  1.00800000E+00  1.60000000E+01  1.00800000E+00
  1.00800000E+00  1.60000000E+01  1.00800000E+00  1.00800000E+00  1.60000000E+01
  1.00800000E+00  1.00800000E+00  1.60000000E+01  1.00800000E+00  1.00800000E+00
  1.60000000E+01  1.00800000E+00  1.00800000E+00  1.60000000E+01  1.00800000E+00
  1.00800000E+00  1.60000000E+01  1.00800000E+00  1.00800000E+00  1.60000000E+01
  1.00800000E+00  1.00800000E+00  1.60000000E+01  1.00800000E+00  1.00800000E+00
  1.60000000E+01  1.00800000E+00  1.00800000E+00  1.60000000E+01  1.00800000E+00
  1.00800000E+00  1.60000000E+01  1.00800000E+00  1.00800000E+00  1.60000000E+01
  1.00800000E+00  1.00800000E+00  1.60000000E+01  1.00800000E+00  1.00800000E+00
  1.60000000E+01  1.00800000E+00  1.00800000E+00  1.60000000E+01  1.00800000E+00
  1.00800000E+00  1.60000000E+01  1.00800000E+00  1.00800000E+00  1.60000000E+01
  1.00800000E+00  1.00800000E+00  1.60000000E+01  1.00800000E+00  1.00800000E+00
  1.60000000E+01  1.00800000E+00  1.00800000E+00  1.60000000E+01  1.00800000E+00
  1.00800000E+00  1.60000000E+01  1.00800000E+00  1.00800000E+00  1.60000000E+01
  1.00800000E+00  1.00800000E+00  1.60000000E+01  1.00800000E+00  1.00800000E+00
  1.60000000E+01  1.00800000E+00  1.00800000E+00  1.60000000E+01  1.00800000E+00
  1.00800000E+00  1.60000000E+01  1.00800000E+00  1.00800000E+00  1.60000000E+01
  1.00800000E+00  1.00800000E+00  1.60000000E+01  1.00800000E+00  1.00800000E+00
  1.60000000E+01  1.00800000E+00  1.00800000E+00  1.60000000E+01  1.00800000E+00
  1.00800000E+00  1.60000000E+01  1.00800000E+00  1.00800000E+00  1.60000000E+01
  1.00800000E+00  1.00800000E+00  1.60000000E+01  1.00800000E+00  1.00800000E+00
  1.60000000E+01  1.00800000E+00  1.00800000E+00  1.60000000E+01  1.00800000E+00
  1.00800000E+00  1.60000000E+01  1.00800000E+00  1.00800000E+00  1.60000000E+01
  1.00800000E+00  1.00800000E+00  1.60000000E+01  1.00800000E+00  1.00800000E+00
  1.60000000E+01  1.00800000E+00  1.00800000E+00  1.60000000E+01  1.00800000E+00
  1.00800000E+00  1.60000000E+01  1.00800000E+00  1.00800000E+00  1.60000000E+01
  1.00800000E+00  1.00800000E+00  1.60000000E+01  1.00800000E+00  1.00800000E+00
  1.60000000E+01  1.00800000E+00  1.00800000E+00  1.60000000E+01  1.00800000E+00
  1.00800000E+00  1.60000000E+01  1.00800000E+00  1.00800000E+00  1.60000000E+01
  1.00800000E+00  1.00800000E+00  1.60000000E+01  1.00800000E+00  1.00800000E+00
  1.60000000E+01  1.00800000E+00  1.00800000E+00  1.60000000E+01  1.00800000E+00
  1.00800000E+00  1.60000000E+01  1.00800000E+00  1.00800000E+00  1.60000000E+01
  1.00800000E+00  1.00800000E+00  1.60000000E+01  1.00800000E+00  1.00800000E+00
  1.60000000E+01  1.00800000E+00  1.00800000E+00  1.60000000E+01  1.00800000E+00
  1.00800000E+00  1.60000000E+01  1.00800000E+00  1.00800000E+00  1.60000000E+01
  1.00800000E+00  1.00800000E+00  1.60000000E+01  1.00800000E+00  1.00800000E+00
  1.60000000E+01  1.00800000E+00  1.00800000E+00  1.60000000E+01  1.00800000E+00
  1.00800000E+00  1.60000000E+01  1.00800000E+00  1.00800000E+00  1.60000000E+01
  1.00800000E+00  1.00800000E+00  1.60000000E+01  1.00800000E+00  1.00800000E+00
  1.60000000E+01  1.00800000E+00  1.00800000E+00  1.60000000E+01  1.00800000E+00
  1.00800000E+00  1.60000000E+01  1.00800000E+00  1.00800000E+00  1.60000000E+01
  1.00800000E+00  1.00800000E+00  1.60000000E+01  1.00800000E+00  1.00800000E+00
  1.60000000E+01  1.00800000E+00  1.00800000E+00  1.60000000E+01  1.00800000E+00
  1.00800000E+00  1.60000000E+01  1.00800000E+00  1.00800000E+00  1.60000000E+01
  1.00800000E+00  1.00800000E+00  1.60000000E+01  1.00800000E+00  1.00800000E+00
  1.60000000E+01  1.00800000E+00  1.00800000E+00  1.60000000E+01  1.00800000E+00
  1.00800000E+00  1.60000000E+01  1.00800000E+00  1.00800000E+00  1.60000000E+01
  1.00800000E+00  1.00800000E+00  1.60000000E+01  1.00800000E+00  1.00800000E+00
  1.60000000E+01  1.00800000E+00  1.00800000E+00  1.60000000E+01  1.00800000E+00
  1.00800000E+00  1.60000000E+01  1.00800000E+00  1.00800000E+00  1.60000000E+01
  1.00800000E+00  1.00800000E+00  1.60000000E+01  1.00800000E+00  1.00800000E+00
  1.60000000E+01  1.00800000E+00  1.00800000E+00  1.60000000E+01  1.00800000E+00
  1.00800000E+00  1.60000000E+01  1.00800000E+00  1.00800000E+00  1.60000000E+01
  1.00800000E+00  1.00800000E+00  1.60000000E+01  1.00800000E+00  1.00800000E+00
  1.60000000E+01  1.00800000E+00  1.00800000E+00  1.60000000E+01  1.00800000E+00
  1.00800000E+00  1.60000000E+01  1.00800000E+00  1.00800000E+00  1.60000000E+01
  1.00800000E+00  1.00800000E+00  1.60000000E+01  1.00800000E+00  1.00800000E+00
  1.60000000E+01  1.00800000E+00  1.00800000E+00  1.60000000E+01  1.00800000E+00
  1.00800000E+00  1.60000000E+01  1.00800000E+00  1.00800000E+00  1.60000000E+01
  1.00800000E+00  1.00800000E+00  1.60000000E+01  1.00800000E+00  1.00800000E+00
  1.60000000E+01  1.00800000E+00  1.00800000E+00  1.60000000E+01  1.00800000E+00
  1.00800000E+00  1.60000000E+01  1.00800000E+00  1.00800000E+00  1.60000000E+01
  1.00800000E+00  1.00800000E+00  1.60000000E+01  1.00800000E+00  1.00800000E+00
  1.60000000E+01  1.00800000E+00  1.00800000E+00  1.60000000E+01  1.00800000E+00
  1.00800000E+00  1.60000000E+01  1.00800000E+00  1.00800000E+00  1.60000000E+01
  1.00800000E+00  1.00800000E+00  1.60000000E+01  1.00800000E+00  1.00800000E+00
  1.60000000E+01  1.00800000E+00  1.00800000E+00  1.60000000E+01  1.00800000E+00
  1.00800000E+00  1.60000000E+01  1.00800000E+00  1.00800000E+00  1.60000000E+01
  1.00800000E+00  1.00800000E+00  1.60000000E+01  1.00800000E+00  1.00800000E+00
  1.60000000E+01  1.00800000E+00  1.00800000E+00  1.60000000E+01  1.00800000E+00
  1.00800000E+00  1.60000000E+01  1.00800000E+00  1.00800000E+00  1.60000000E+01
  1.00800000E+00  1.00800000E+00  1.60000000E+01  1.00800000E+00  1.00800000E+00
  1.60000000E+01  1.00800000E+00  1.00800000E+00  1.60000000E+01  1.00800000E+00
  1.00800000E+00  1.60000000E+01  1.00800000E+00  1.00800000E+00  1.60000000E+01
  1.00800000E+00  1.00800000E+00  1.60000000E+01  1.00800000E+00  1.00800000E+00
  1.60000000E+01  1.00800000E+00  1.00800000E+00  1.60000000E+01  1.00800000E+00
  1.00800000E+00  1.60000000E+01  1.00800000E+00  1.00800000E+00  1.60000000E+01
  1.00800000E+00  1.00800000E+00  1.60000000E+01  1.00800000E+00  1.00800000E+00
  1.60000000E+01  1.00800000E+00  1.00800000E+00  1.60000000E+01  1.00800000E+00
  1.00800000E+00  1.60000000E+01  1.00800000E+00  1.00800000E+00  1.60000000E+01
  1.00800000E+00  1.00800000E+00  1.60000000E+01  1.00800000E+00  1.00800000E+00
  1.60000000E+01  1.00800000E+00  1.00800000E+00  1.60000000E+01  1.00800000E+00
  1.00800000E+00  1.60000000E+01  1.00800000E+00  1.00800000E+00  1.60000000E+01
  1.00800000E+00  1.00800000E+00  1.60000000E+01  1.00800000E+00  1.00800000E+00
  1.60000000E+01  1.00800000E+00  1.00800000E+00  1.60000000E+01  1.00800000E+00
  1.00800000E+00  1.60000000E+01  1.00800000E+00  1.00800000E+00  1.60000000E+01
  1.00800000E+00  1.00800000E+00  1.60000000E+01  1.00800000E+00  1.00800000E+00
  1.60000000E+01  1.00800000E+00  1.00800000E+00  1.60000000E+01  1.00800000E+00
  1.00800000E+00  1.60000000E+01  1.00800000E+00  1.00800000E+00  1.60000000E+01
  1.00800000E+00  1.00800000E+00  1.60000000E+01  1.00800000E+00  1.00800000E+00
  1.60000000E+01  1.00800000E+00  1.00800000E+00  1.60000000E+01  1.00800000E+00
  1.00800000E+00  1.60000000E+01  1.00800000E+00  1.00800000E+00  1.60000000E+01
  1.00800000E+00  1.00800000E+00  1.60000000E+01  1.00800000E+00  1.00800000E+00
  1.60000000E+01  1.00800000E+00  1.00800000E+00  1.60000000E+01  1.00800000E+00
  1.00800000E+00  1.60000000E+01  1.00800000E+00  1.00800000E+00  1.60000000E+01
  1.00800000E+00  1.00800000E+00  1.60000000E+01  1.00800000E+00  1.00800000E+00
  1.60000000E+01  1.00800000E+00  1.00800000E+00  1.60000000E+01  1.00800000E+00
  1.00800000E+00  1.60000000E+01  1.00800000E+00  1.00800000E+00  1.60000000E+01
  1.00800000E+00  1.00800000E+00  1.60000000E+01  1.00800000E+00  1.00800000E+00
  1.60000000E+01  1.00800000E+00  1.00800000E+00  1.60000000E+01  1.00800000E+00
  1.00800000E+00  1.60000000E+01  1.00800000E+00  1.00800000E+00  1.60000000E+01
  1.00800000E+00  1.00800000E+00  1.60000000E+01  1.00800000E+00  1.00800000E+00
  1.60000000E+01  1.00800000E+00  1.00800000E+00  1.60000000E+01  1.00800000E+00
  1.00800000E+00  1.60000000E+01  1.00800000E+00  1.00800000E+00  1.60000000E+01
  1.00800000E+00  1.00800000E+00  1.60000000E+01  1.00800000E+00  1.00800000E+00
  1.60000000E+01  1.00800000E+00  1.00800000E+00  1.60000000E+01  1.00800000E+00
  1.00800000E+00  1.60000000E+01  1.00800000E+00  1.00800000E+00  1.60000000E+01
  1.00800000E+00  1.00800000E+00  1.60000000E+01  1.00800000E+00  1.00800000E+00
  1.60000000E+01  1.00800000E+00  1.00800000E+00  1.60000000E+01  1.00800000E+00
  1.00800000E+00  1.60000000E+01  1.00800000E+00  1.00800000E+00  1.60000000E+01
  1.00800000E+00  1.00800000E+00  1.60000000E+01  1.00800000E+00  1.00800000E+00
  1.60000000E+01  1.00800000E+00  1.00800000E+00  1.60000000E+01  1.00800000E+00
  1.00800000E+00  1.60000000E+01  1.00800000E+00  1.00800000E+00  1.60000000E+01
  1.00800000E+00  1.00800000E+00  1.60000000E+01  1.00800000E+00  1.00800000E+00
  1.60000000E+01  1.00800000E+00  1.00800000E+00  1.60000000E+01  1.00800000E+00
  1.00800000E+00  1.60000000E+01  1.00800000E+00  1.00800000E+00  1.60000000E+01
  1.00800000E+00  1.00800000E+00  1.60000000E+01  1.00800000E+00  1.00800000E+00
  1.60000000E+01  1.00800000E+00  1.00800000E+00  1.60000000E+01  1.00800000E+00
  1.00800000E+00  1.60000000E+01  1.00800000E+00  1.00800000E+00  1.60000000E+01
  1.00800000E+00  1.00800000E+00  1.60000000E+01  1.00800000E+00  1.00800000E+00
  1.60000000E+01  1.00800000E+00  1.00800000E+00  1.60000000E+01  1.00800000E+00
  1.00800000E+00  1.60000000E+01  1.00800000E+00  1.00800000E+00  1.60000000E+01
  1.00800000E+00  1.00800000E+00  1.60000000E+01  1.00800000E+00  1.00800000E+00
  1.60000000E+01  1.00800000E+00  1.00800000E+00  1.60000000E+01  1.00800000E+00
  1.00800000E+00  1.60000000E+01  1.00800000E+00  1.00800000E+00  1.60000000E+01
  1.00800000E+00  1.00800000E+00  1.60000000E+01  1.00800000E+00  1.00800000E+00
  1.60000000E+01  1.00800000E+00  1.00800000E+00  1.60000000E+01  1.00800000E+00
  1.00800000E+00  1.60000000E+01  1.00800000E+00  1.00800000E+00  1.60000000E+01
  1.00800000E+00  1.00800000E+00  1.60000000E+01  1.00800000E+00  1.00800000E+00
  1.60000000E+01  1.00800000E+00  1.00800000E+00  1.60000000E+01  1.00800000E+00
  1.00800000E+00  1.60000000E+01  1.00800000E+00  1.00800000E+00  1.60000000E+01
  1.00800000E+00  1.00800000E+00  1.60000000E+01  1.00800000E+00  1.00800000E+00
  1.60000000E+01  1.00800000E+00  1.00800000E+00  1.60000000E+01  1.00800000E+00
  1.00800000E+00  1.60000000E+01  1.00800000E+00  1.00800000E+00  1.60000000E+01
  1.00800000E+00  1.00800000E+00  1.60000000E+01  1.00800000E+00  1.00800000E+00
  1.60000000E+01  1.00800000E+00  1.00800000E+00  1.60000000E+01  1.00800000E+00
  1.00800000E+00  1.60000000E+01  1.00800000E+00  1.00800000E+00  1.60000000E+01
  1.00800000E+00  1.00800000E+00  1.60000000E+01  1.00800000E+00  1.00800000E+00
  1.60000000E+01  1.00800000E+00  1.00800000E+00  1.60000000E+01  1.00800000E+00
  1.00800000E+00  1.60000000E+01  1.00800000E+00  1.00800000E+00  1.60000000E+01
  1.00800000E+00  1.00800000E+00  1.60000000E+01  1.00800000E+00  1.00800000E+00
  1.60000000E+01  1.00800000E+00  1.00800000E+00  1.60000000E+01  1.00800000E+00
  1.00800000E+00  1.60000000E+01  1.00800000E+00  1.00800000E+00  1.60000000E+01
  1.00800000E+00  1.00800000E+00  1.60000000E+01  1.00800000E+00  1.00800000E+00
  1.60000000E+01  1.00800000E+00  1.00800000E+00  1.60000000E+01  1.00800000E+00
  1.00800000E+00  1.60000000E+01  1.00800000E+00  1.00800000E+00  1.60000000E+01
  1.00800000E+00  1.00800000E+00  1.60000000E+01  1.00800000E+00  1.00800000E+00
  1.60000000E+01  1.00800000E+00  1.00800000E+00  1.60000000E+01  1.00800000E+00
  1.00800000E+00  1.60000000E+01  1.00800000E+00  1.00800000E+00  1.60000000E+01
  1.00800000E+00  1.00800000E+00  1.60000000E+01  1.00800000E+00  1.00800000E+00
  1.60000000E+01  1.00800000E+00  1.00800000E+00  1.60000000E+01  1.00800000E+00
  1.00800000E+00  1.60000000E+01  1.00800000E+00  1.00800000E+00  1.60000000E+01
  1.00800000E+00  1.00800000E+00  1.60000000E+01  1.00800000E+00  1.00800000E+00
  1.60000000E+01  1.00800000E+00  1.00800000E+00  1.60000000E+01  1.00800000E+00
  1.00800000E+00  1.60000000E+01  1.00800000E+00  1.00800000E+00  1.60000000E+01
  1.00800000E+00  1.00800000E+00  1.60000000E+01  1.00800000E+00  1.00800000E+00
  1.60000000E+01  1.00800000E+00  1.00800000E+00  1.60000000E+01  1.00800000E+00
  1.00800000E+00  1.60000000E+01  1.00800000E+00  1.00800000E+00  1.60000000E+01
  1.00800000E+00  1.00800000E+00  1.60000000E+01  1.00800000E+00  1.00800000E+00
  1.60000000E+01  1.00800000E+00  1.00800000E+00  1.60000000E+01  1.00800000E+00
  1.00800000E+00  1.60000000E+01  1.00800000E+00  1.00800000E+00  1.60000000E+01
  1.00800000E+00  1.00800000E+00  1.60000000E+01  1.00800000E+00  1.00800000E+00
  1.60000000E+01  1.00800000E+00  1.00800000E+00  1.60000000E+01  1.00800000E+00
  1.00800000E+00  1.60000000E+01  1.00800000E+00  1.00800000E+00  1.60000000E+01
  1.00800000E+00  1.00800000E+00  1.60000000E+01  1.00800000E+00  1.00800000E+00
  1.60000000E+01  1.00800000E+00  1.00800000E+00  1.60000000E+01  1.00800000E+00
  1.00800000E+00  1.60000000E+01  1.00800000E+00  1.00800000E+00  1.60000000E+01
  1.00800000E+00  1.00800000E+00  1.60000000E+01  1.00800000E+00  1.00800000E+00
  1.60000000E+01  1.00800000E+00  1.00800000E+00  1.60000000E+01  1.00800000E+00
  1.00800000E+00  1.60000000E+01  1.00800000E+00  1.00800000E+00  1.60000000E+01
  1.00800000E+00  1.00800000E+00  1.60000000E+01  1.00800000E+00  1.00800000E+00
  1.60000000E+01  1.00800000E+00  1.00800000E+00  1.60000000E+01  1.00800000E+00
  1.00800000E+00  1.60000000E+01  1.00800000E+00  1.00800000E+00  1.60000000E+01
  1.00800000E+00  1.00800000E+00  1.60000000E+01  1.00800000E+00  1.00800000E+00
  1.60000000E+01  1.00800000E+00  1.00800000E+00  1.60000000E+01  1.00800000E+00
  1.00800000E+00  1.60000000E+01  1.00800000E+00  1.00800000E+00  1.60000000E+01
  1.00800000E+00  1.00800000E+00  1.60000000E+01  1.00800000E+00  1.00800000E+00
  1.60000000E+01  1.00800000E+00  1.00800000E+00  1.60000000E+01  1.00800000E+00
  1.00800000E+00  1.60000000E+01  1.00800000E+00  1.00800000E+00  1.60000000E+01
  1.00800000E+00  1.00800000E+00  1.60000000E+01  1.00800000E+00  1.00800000E+00
  1.60000000E+01  1.00800000E+00  1.00800000E+00  1.60000000E+01  1.00800000E+00
  1.00800000E+00  1.60000000E+01  1.00800000E+00  1.00800000E+00  1.60000000E+01
  1.00800000E+00  1.00800000E+00  1.60000000E+01  1.00800000E+00  1.00800000E+00
  1.60000000E+01  1.00800000E+00  1.00800000E+00  1.60000000E+01  1.00800000E+00
  1.00800000E+00  1.60000000E+01  1.00800000E+00  1.00800000E+00  1.60000000E+01
  1.00800000E+00  1.00800000E+00  1.60000000E+01  1.00800000E+00  1.00800000E+00
  1.60000000E+01  1.00800000E+00  1.00800000E+00  1.60000000E+01  1.00800000E+00
  1.00800000E+00  1.60000000E+01  1.00800000E+00  1.00800000E+00  1.60000000E+01
  1.00800000E+00  1.00800000E+00  1.60000000E+01  1.00800000E+00  1.00800000E+00
  1.60000000E+01  1.00800000E+00  1.00800000E+00  1.60000000E+01  1.00800000E+00
  1.00800000E+00  1.60000000E+01  1.00800000E+00  1.00800000E+00  1.60000000E+01
  1.00800000E+00  1.00800000E+00  1.60000000E+01  1.00800000E+00  1.00800000E+00
  1.60000000E+01  1.00800000E+00  1.00800000E+00  1.60000000E+01  1.00800000E+00
  1.00800000E+00  1.60000000E+01  1.00800000E+00  1.00800000E+00  1.60000000E+01
  1.00800000E+00  1.00800000E+00  1.60000000E+01  1.00800000E+00  1.00800000E+00
  1.60000000E+01  1.00800000E+00  1.00800000E+00  1.60000000E+01  1.00800000E+00
  1.00800000E+00  1.60000000E+01  1.00800000E+00  1.00800000E+00  1.60000000E+01
  1.00800000E+00  1.00800000E+00  1.60000000E+01  1.00800000E+00  1.00800000E+00
  1.60000000E+01  1.00800000E+00  1.00800000E+00  1.60000000E+01  1.00800000E+00
  1.00800000E+00  1.60000000E+01  1.00800000E+00  1.00800000E+00  1.60000000E+01
  1.00800000E+00  1.00800000E+00  1.60000000E+01  1.00800000E+00  1.00800000E+00
  1.60000000E+01  1.00800000E+00  1.00800000E+00  1.60000000E+01  1.00800000E+00
  1.00800000E+00  1.60000000E+01  1.00800000E+00  1.00800000E+00  1.60000000E+01
  1.00800000E+00  1.00800000E+00  1.60000000E+01  1.00800000E+00  1.00800000E+00
  1.60000000E+01  1.00800000E+00  1.00800000E+00  1.60000000E+01  1.00800000E+00
  1.00800000E+00  1.60000000E+01  1.00800000E+00  1.00800000E+00  1.60000000E+01
  1.00800000E+00  1.00800000E+00  1.60000000E+01  1.00800000E+00  1.00800000E+00
  1.60000000E+01  1.00800000E+00  1.00800000E+00  1.60000000E+01  1.00800000E+00
  1.00800000E+00  1.60000000E+01  1.00800000E+00  1.00800000E+00  1.60000000E+01
  1.00800000E+00  1.00800000E+00  1.60000000E+01  1.00800000E+00  1.00800000E+00
  1.60000000E+01  1.00800000E+00  1.00800000E+00  1.60000000E+01  1.00800000E+00
  1.00800000E+00  1.60000000E+01  1.00800000E+00  1.00800000E+00  1.60000000E+01
  1.00800000E+00  1.00800000E+00  1.60000000E+01  1.00800000E+00  1.00800000E+00
  1.60000000E+01  1.00800000E+00  1.00800000E+00  1.60000000E+01  1.00800000E+00
  1.00800000E+00  1.60000000E+01  1.00800000E+00  1.00800000E+00  1.60000000E+01
  1.00800000E+00  1.00800000E+00  1.60000000E+01  1.00800000E+00  1.00800000E+00
  1.60000000E+01  1.00800000E+00  1.00800000E+00  1.60000000E+01  1.00800000E+00
  1.00800000E+00  1.60000000E+01  1.00800000E+00  1.00800000E+00  1.60000000E+01
  1.00800000E+00  1.00800000E+00  1.60000000E+01  1.00800000E+00  1.00800000E+00
  1.60000000E+01  1.00800000E+00  1.00800000E+00  1.60000000E+01  1.00800000E+00
  1.00800000E+00  1.60000000E+01  1.00800000E+00  1.00800000E+00  1.60000000E+01
  1.00800000E+00  1.00800000E+00  1.60000000E+01  1.00800000E+00  1.00800000E+00
  1.60000000E+01  1.00800000E+00  1.00800000E+00  1.60000000E+01  1.00800000E+00
  1.00800000E+00  1.60000000E+01  1.00800000E+00  1.00800000E+00  1.60000000E+01
  1.00800000E+00  1.00800000E+00  1.60000000E+01  1.00800000E+00  1.00800000E+00
  1.60000000E+01  1.00800000E+00  1.00800000E+00  1.60000000E+01  1.00800000E+00
  1.00800000E+00  1.60000000E+01  1.00800000E+00  1.00800000E+00  1.60000000E+01
  1.00800000E+00  1.00800000E+00  1.60000000E+01  1.00800000E+00  1.00800000E+00
  1.60000000E+01  1.00800000E+00  1.00800000E+00  1.60000000E+01  1.00800000E+00
  1.00800000E+00  1.60000000E+01  1.00800000E+00  1.00800000E+00  1.60000000E+01
  1.00800000E+00  1.00800000E+00  1.60000000E+01  1.00800000E+00  1.00800000E+00
  1.60000000E+01  1.00800000E+00  1.00800000E+00  1.60000000E+01  1.00800000E+00
  1.00800000E+00  1.60000000E+01  1.00800000E+00  1.00800000E+00  1.60000000E+01
  1.00800000E+00  1.00800000E+00  1.60000000E+01  1.00800000E+00  1.00800000E+00
  1.60000000E+01  1.00800000E+00  1.00800000E+00  1.60000000E+01  1.00800000E+00
  1.00800000E+00  1.60000000E+01  1.00800000E+00  1.00800000E+00  1.60000000E+01
  1.00800000E+00  1.00800000E+00  1.60000000E+01  1.00800000E+00  1.00800000E+00
  1.60000000E+01  1.00800000E+00  1.00800000E+00  1.60000000E+01  1.00800000E+00
  1.00800000E+00  1.60000000E+01  1.00800000E+00  1.00800000E+00  1.60000000E+01
  1.00800000E+00  1.00800000E+00  1.60000000E+01  1.00800000E+00  1.00800000E+00
  1.60000000E+01  1.00800000E+00  1.00800000E+00  1.60000000E+01  1.00800000E+00
  1.00800000E+00  1.60000000E+01  1.00800000E+00  1.00800000E+00  1.60000000E+01
  1.00800000E+00  1.00800000E+00  1.60000000E+01  1.00800000E+00  1.00800000E+00
  1.60000000E+01  1.00800000E+00  1.00800000E+00  1.60000000E+01  1.00800000E+00
  1.00800000E+00  1.60000000E+01  1.00800000E+00  1.00800000E+00  1.60000000E+01
  1.00800000E+00  1.00800000E+00  1.60000000E+01  1.00800000E+00  1.00800000E+00
  1.60000000E+01  1.00800000E+00  1.00800000E+00  1.60000000E+01  1.00800000E+00
  1.00800000E+00  1.60000000E+01  1.00800000E+00  1.00800000E+00  1.60000000E+01
  1.00800000E+00  1.00800000E+00  1.60000000E+01  1.00800000E+00  1.00800000E+00
  1.60000000E+01  1.00800000E+00  1.00800000E+00  1.60000000E+01  1.00800000E+00
  1.00800000E+00  1.60000000E+01  1.00800000E+00  1.00800000E+00  1.60000000E+01
  1.00800000E+00  1.00800000E+00  1.60000000E+01  1.00800000E+00  1.00800000E+00
  1.60000000E+01  1.00800000E+00  1.00800000E+00  1.60000000E+01  1.00800000E+00
  1.00800000E+00  1.60000000E+01  1.00800000E+00  1.00800000E+00  1.60000000E+01
  1.00800000E+00  1.00800000E+00  1.60000000E+01  1.00800000E+00  1.00800000E+00
  1.60000000E+01  1.00800000E+00  1.00800000E+00  1.60000000E+01  1.00800000E+00
  1.00800000E+00  1.60000000E+01  1.00800000E+00  1.00800000E+00  1.60000000E+01
  1.00800000E+00  1.00800000E+00  1.60000000E+01  1.00800000E+00  1.00800000E+00
  1.60000000E+01  1.00800000E+00  1.00800000E+00  1.60000000E+01  1.00800000E+00
  1.00800000E+00  1.60000000E+01  1.00800000E+00  1.00800000E+00  1.60000000E+01
  1.00800000E+00  1.00800000E+00  1.60000000E+01  1.00800000E+00  1.00800000E+00
  1.60000000E+01  1.00800000E+00  1.00800000E+00  1.60000000E+01  1.00800000E+00
  1.00800000E+00  1.60000000E+01  1.00800000E+00  1.00800000E+00  1.60000000E+01
  1.00800000E+00  1.00800000E+00  1.60000000E+01  1.00800000E+00  1.00800000E+00
  1.60000000E+01  1.00800000E+00  1.00800000E+00  1.60000000E+01  1.00800000E+00
  1.00800000E+00  1.60000000E+01  1.00800000E+00  1.00800000E+00  1.60000000E+01
  1.00800000E+00  1.00800000E+00  1.60000000E+01  1.00800000E+00  1.00800000E+00
  1.60000000E+01  1.00800000E+00  1.00800000E+00  1.60000000E+01  1.00800000E+00
  1.00800000E+00  1.60000000E+01  1.00800000E+00  1.00800000E+00  1.60000000E+01
  1.00800000E+00  1.00800000E+00  1.60000000E+01  1.00800000E+00  1.00800000E+00
  1.60000000E+01  1.00800000E+00  1.00800000E+00  1.60000000E+01  1.00800000E+00
  1.00800000E+00  1.60000000E+01  1.00800000E+00  1.00800000E+00  1.60000000E+01
  1.00800000E+00  1.00800000E+00  1.60000000E+01  1.00800000E+00  1.00800000E+00
  1.60000000E+01  1.00800000E+00  1.00800000E+00  1.60000000E+01  1.00800000E+00
  1.00800000E+00  1.60000000E+01  1.00800000E+00  1.00800000E+00  1.60000000E+01
  1.00800000E+00  1.00800000E+00  1.60000000E+01  1.00800000E+00  1.00800000E+00
  1.60000000E+01  1.00800000E+00  1.00800000E+00  1.60000000E+01  1.00800000E+00
  1.00800000E+00  1.60000000E+01  1.00800000E+00  1.00800000E+00  1.60000000E+01
  1.00800000E+00  1.00800000E+00  1.60000000E+01  1.00800000E+00  1.00800000E+00
  1.60000000E+01  1.00800000E+00  1.00800000E+00  1.60000000E+01  1.00800000E+00
  1.00800000E+00  1.60000000E+01  1.00800000E+00  1.00800000E+00  1.60000000E+01
  1.00800000E+00  1.00800000E+00  1.60000000E+01  1.00800000E+00  1.00800000E+00
  1.60000000E+01  1.00800000E+00  1.00800000E+00  1.60000000E+01  1.00800000E+00
  1.00800000E+00  1.60000000E+01  1.00800000E+00  1.00800000E+00  1.60000000E+01
  1.00800000E+00  1.00800000E+00  1.60000000E+01  1.00800000E+00  1.00800000E+00
  1.60000000E+01  1.00800000E+00  1.00800000E+00  1.60000000E+01  1.00800000E+00
  1.00800000E+00  1.60000000E+01  1.00800000E+00  1.00800000E+00  1.60000000E+01
  1.00800000E+00  1.00800000E+00  1.60000000E+01  1.00800000E+00  1.00800000E+00
  1.60000000E+01  1.00800000E+00  1.00800000E+00  1.60000000E+01  1.00800000E+00
  1.00800000E+00  1.60000000E+01  1.00800000E+00  1.00800000E+00  1.60000000E+01
  1.00800000E+00  1.00800000E+00  1.60000000E+01  1.00800000E+00  1.00800000E+00
  1.60000000E+01  1.00800000E+00  1.00800000E+00  1.60000000E+01  1.00800000E+00
  1.00800000E+00  1.60000000E+01  1.00800000E+00  1.00800000E+00  1.60000000E+01
  1.00800000E+00  1.00800000E+00  1.60000000E+01  1.00800000E+00  1.00800000E+00
  1.60000000E+01  1.00800000E+00  1.00800000E+00  1.60000000E+01  1.00800000E+00
  1.00800000E+00  1.60000000E+01  1.00800000E+00  1.00800000E+00  1.60000000E+01
  1.00800000E+00  1.00800000E+00  1.60000000E+01  1.00800000E+00  1.00800000E+00
  1.60000000E+01  1.00800000E+00  1.00800000E+00  1.60000000E+01  1.00800000E+00
  1.00800000E+00  1.60000000E+01  1.00800000E+00  1.00800000E+00  1.60000000E+01
  1.00800000E+00  1.00800000E+00  1.60000000E+01  1.00800000E+00  1.00800000E+00
  1.60000000E+01  1.00800000E+00  1.00800000E+00  1.60000000E+01  1.00800000E+00
  1.00800000E+00  1.60000000E+01  1.00800000E+00  1.00800000E+00  1.60000000E+01
  1.00800000E+00  1.00800000E+00  1.60000000E+01  1.00800000E+00  1.00800000E+00
  1.60000000E+01  1.00800000E+00  1.00800000E+00  1.60000000E+01  1.00800000E+00
  1.00800000E+00  1.60000000E+01  1.00800000E+00  1.00800000E+00  1.60000000E+01
  1.00800000E+00  1.00800000E+00  1.60000000E+01  1.00800000E+00  1.00800000E+00
  1.60000000E+01  1.00800000E+00  1.00800000E+00  1.60000000E+01  1.00800000E+00
  1.00800000E+00  1.60000000E+01  1.00800000E+00  1.00800000E+00  1.60000000E+01
  1.00800000E+00  1.00800000E+00  1.60000000E+01  1.00800000E+00  1.00800000E+00
  1.60000000E+01  1.00800000E+00  1.00800000E+00  1.60000000E+01  1.00800000E+00
  1.00800000E+00  1.60000000E+01  1.00800000E+00  1.00800000E+00  1.60000000E+01
  1.00800000E+00  1.00800000E+00  1.60000000E+01  1.00800000E+00  1.00800000E+00
  1.60000000E+01  1.00800000E+00  1.00800000E+00  1.60000000E+01  1.00800000E+00
  1.00800000E+00  1.60000000E+01  1.00800000E+00  1.00800000E+00  1.60000000E+01
  1.00800000E+00  1.00800000E+00  1.60000000E+01  1.00800000E+00  1.00800000E+00
  1.60000000E+01  1.00800000E+00  1.00800000E+00  1.60000000E+01  1.00800000E+00
  1.00800000E+00  1.60000000E+01  1.00800000E+00  1.00800000E+00  1.60000000E+01
  1.00800000E+00  1.00800000E+00  1.60000000E+01  1.00800000E+00  1.00800000E+00
  1.60000000E+01  1.00800000E+00  1.00800000E+00  1.60000000E+01  1.00800000E+00
  1.00800000E+00  1.60000000E+01  1.00800000E+00  1.00800000E+00  1.60000000E+01
  1.00800000E+00  1.00800000E+00  1.60000000E+01  1.00800000E+00  1.00800000E+00
  1.60000000E+01  1.00800000E+00  1.00800000E+00  1.60000000E+01  1.00800000E+00
  1.00800000E+00  1.60000000E+01  1.00800000E+00  1.00800000E+00  1.60000000E+01
  1.00800000E+00  1.00800000E+00  1.60000000E+01  1.00800000E+00  1.00800000E+00
  1.60000000E+01  1.00800000E+00  1.00800000E+00  1.60000000E+01  1.00800000E+00
  1.00800000E+00  1.60000000E+01  1.00800000E+00  1.00800000E+00  1.60000000E+01
  1.00800000E+00  1.00800000E+00  1.60000000E+01  1.00800000E+00  1.00800000E+00
  1.60000000E+01  1.00800000E+00  1.00800000E+00  1.60000000E+01  1.00800000E+00
  1.00800000E+00  1.60000000E+01  1.00800000E+00  1.00800000E+00  1.60000000E+01
  1.00800000E+00  1.00800000E+00  1.60000000E+01  1.00800000E+00  1.00800000E+00
  1.60000000E+01  1.00800000E+00  1.00800000E+00  1.60000000E+01  1.00800000E+00
  1.00800000E+00  1.60000000E+01  1.00800000E+00  1.00800000E+00  1.60000000E+01
  1.00800000E+00  1.00800000E+00  1.60000000E+01  1.00800000E+00  1.00800000E+00
  1.60000000E+01  1.00800000E+00  1.00800000E+00  1.60000000E+01  1.00800000E+00
  1.00800000E+00  1.60000000E+01  1.00800000E+00  1.00800000E+00  1.60000000E+01
  1.00800000E+00  1.00800000E+00  1.60000000E+01  1.00800000E+00  1.00800000E+00
  1.60000000E+01  1.00800000E+00  1.00800000E+00  1.60000000E+01  1.00800000E+00
  1.00800000E+00  1.60000000E+01  1.00800000E+00  1.00800000E+00  1.60000000E+01
  1.00800000E+00  1.00800000E+00  1.60000000E+01  1.00800000E+00  1.00800000E+00
  1.60000000E+01  1.00800000E+00  1.00800000E+00  1.60000000E+01  1.00800000E+00
  1.00800000E+00  1.60000000E+01  1.00800000E+00  1.00800000E+00  1.60000000E+01
  1.00800000E+00  1.00800000E+00  1.60000000E+01  1.00800000E+00  1.00800000E+00
  1.60000000E+01  1.00800000E+00  1.00800000E+00  1.60000000E+01  1.00800000E+00
  1.00800000E+00  1.60000000E+01  1.00800000E+00  1.00800000E+00  1.60000000E+01
  1.00800000E+00  1.00800000E+00  1.60000000E+01  1.00800000E+00  1.00800000E+00
  1.60000000E+01  1.00800000E+00  1.00800000E+00  1.60000000E+01  1.00800000E+00
  1.00800000E+00  1.60000000E+01  1.00800000E+00  1.00800000E+00  1.60000000E+01
  1.00800000E+00  1.00800000E+00  1.60000000E+01  1.00800000E+00  1.00800000E+00
  1.60000000E+01  1.00800000E+00  1.00800000E+00  1.60000000E+01  1.00800000E+00
  1.00800000E+00  1.60000000E+01  1.00800000E+00  1.00800000E+00  1.60000000E+01
  1.00800000E+00  1.00800000E+00  1.60000000E+01  1.00800000E+00  1.00800000E+00
  1.60000000E+01  1.00800000E+00  1.00800000E+00  1.60000000E+01  1.00800000E+00
  1.00800000E+00  1.60000000E+01  1.00800000E+00  1.00800000E+00  1.60000000E+01
  1.00800000E+00  1.00800000E+00  1.60000000E+01  1.00800000E+00  1.00800000E+00
  1.60000000E+01  1.00800000E+00  1.00800000E+00  1.60000000E+01  1.00800000E+00
  1.00800000E+00  1.60000000E+01  1.00800000E+00  1.00800000E+00  1.60000000E+01
  1.00800000E+00  1.00800000E+00  1.60000000E+01  1.00800000E+00  1.00800000E+00
  1.60000000E+01  1.00800000E+00  1.00800000E+00  1.60000000E+01  1.00800000E+00
  1.00800000E+00  1.60000000E+01  1.00800000E+00  1.00800000E+00  1.60000000E+01
  1.00800000E+00  1.00800000E+00  1.60000000E+01  1.00800000E+00  1.00800000E+00
  1.60000000E+01  1.00800000E+00  1.00800000E+00  1.60000000E+01  1.00800000E+00
  1.00800000E+00  1.60000000E+01  1.00800000E+00  1.00800000E+00  1.60000000E+01
  1.00800000E+00  1.00800000E+00  1.60000000E+01  1.00800000E+00  1.00800000E+00
  1.60000000E+01  1.00800000E+00  1.00800000E+00  1.60000000E+01  1.00800000E+00
  1.00800000E+00  1.60000000E+01  1.00800000E+00  1.00800000E+00  1.60000000E+01
  1.00800000E+00  1.00800000E+00  1.60000000E+01  1.00800000E+00  1.00800000E+00
  1.60000000E+01  1.00800000E+00  1.00800000E+00  1.60000000E+01  1.00800000E+00
  1.00800000E+00  1.60000000E+01  1.00800000E+00  1.00800000E+00  1.60000000E+01
  1.00800000E+00  1.00800000E+00  1.60000000E+01  1.00800000E+00  1.00800000E+00
  1.60000000E+01  1.00800000E+00  1.00800000E+00  1.60000000E+01  1.00800000E+00
  1.00800000E+00  1.60000000E+01  1.00800000E+00  1.00800000E+00  1.60000000E+01
  1.00800000E+00  1.00800000E+00  1.60000000E+01  1.00800000E+00  1.00800000E+00
  1.60000000E+01  1.00800000E+00  1.00800000E+00  1.60000000E+01  1.00800000E+00
  1.00800000E+00  1.60000000E+01  1.00800000E+00  1.00800000E+00  1.60000000E+01
  1.00800000E+00  1.00800000E+00  1.60000000E+01  1.00800000E+00  1.00800000E+00
  1.60000000E+01  1.00800000E+00  1.00800000E+00  1.60000000E+01  1.00800000E+00
  1.00800000E+00  1.60000000E+01  1.00800000E+00  1.00800000E+00  1.60000000E+01
  1.00800000E+00  1.00800000E+00  1.60000000E+01  1.00800000E+00  1.00800000E+00
  1.60000000E+01  1.00800000E+00  1.00800000E+00  1.60000000E+01  1.00800000E+00
  1.00800000E+00  1.60000000E+01  1.00800000E+00  1.00800000E+00  1.60000000E+01
  1.00800000E+00  1.00800000E+00  1.60000000E+01  1.00800000E+00  1.00800000E+00
  1.60000000E+01  1.00800000E+00  1.00800000E+00  1.60000000E+01  1.00800000E+00
  1.00800000E+00  1.60000000E+01  1.00800000E+00  1.00800000E+00  1.60000000E+01
  1.00800000E+00  1.00800000E+00  1.60000000E+01  1.00800000E+00  1.00800000E+00
  1.60000000E+01  1.00800000E+00  1.00800000E+00  1.60000000E+01  1.00800000E+00
  1.00800000E+00  1.60000000E+01  1.00800000E+00  1.00800000E+00  1.60000000E+01
  1.00800000E+00  1.00800000E+00  1.60000000E+01  1.00800000E+00  1.00800000E+00
  1.60000000E+01  1.00800000E+00  1.00800000E+00  1.60000000E+01  1.00800000E+00
  1.00800000E+00  1.60000000E+01  1.00800000E+00  1.00800000E+00  1.60000000E+01
  1.00800000E+00  1.00800000E+00  1.60000000E+01  1.00800000E+00  1.00800000E+00
  1.60000000E+01  1.00800000E+00  1.00800000E+00  1.60000000E+01  1.00800000E+00
  1.00800000E+00  1.60000000E+01  1.00800000E+00  1.00800000E+00  1.60000000E+01
  1.00800000E+00  1.00800000E+00  1.60000000E+01  1.00800000E+00  1.00800000E+00
  1.60000000E+01  1.00800000E+00  1.00800000E+00  1.60000000E+01  1.00800000E+00
  1.00800000E+00  1.60000000E+01  1.00800000E+00  1.00800000E+00  1.60000000E+01
  1.00800000E+00  1.00800000E+00  1.60000000E+01  1.00800000E+00  1.00800000E+00
  1.60000000E+01  1.00800000E+00  1.00800000E+00  1.60000000E+01  1.00800000E+00
  1.00800000E+00  1.60000000E+01  1.00800000E+00  1.00800000E+00  1.60000000E+01
  1.00800000E+00  1.00800000E+00  1.60000000E+01  1.00800000E+00  1.00800000E+00
  1.60000000E+01  1.00800000E+00  1.00800000E+00  1.60000000E+01  1.00800000E+00
  1.00800000E+00  1.60000000E+01  1.00800000E+00  1.00800000E+00  1.60000000E+01
  1.00800000E+00  1.00800000E+00  1.60000000E+01  1.00800000E+00  1.00800000E+00
  1.60000000E+01  1.00800000E+00  1.00800000E+00  1.60000000E+01  1.00800000E+00
  1.00800000E+00  1.60000000E+01  1.00800000E+00  1.00800000E+00  1.60000000E+01
  1.00800000E+00  1.00800000E+00  1.60000000E+01  1.00800000E+00  1.00800000E+00
  1.60000000E+01  1.00800000E+00  1.00800000E+00  1.60000000E+01  1.00800000E+00
  1.00800000E+00  1.60000000E+01  1.00800000E+00  1.00800000E+00  1.60000000E+01
  1.00800000E+00  1.00800000E+00  1.60000000E+01  1.00800000E+00  1.00800000E+00
  1.60000000E+01  1.00800000E+00  1.00800000E+00  1.60000000E+01  1.00800000E+00
  1.00800000E+00  1.60000000E+01  1.00800000E+00  1.00800000E+00  1.60000000E+01
  1.00800000E+00  1.00800000E+00  1.60000000E+01  1.00800000E+00  1.00800000E+00
  1.60000000E+01  1.00800000E+00  1.00800000E+00  1.60000000E+01  1.00800000E+00
  1.00800000E+00  1.60000000E+01  1.00800000E+00  1.00800000E+00  1.60000000E+01
  1.00800000E+00  1.00800000E+00  1.60000000E+01  1.00800000E+00  1.00800000E+00
  1.60000000E+01  1.00800000E+00  1.00800000E+00  1.60000000E+01  1.00800000E+00
  1.00800000E+00  1.60000000E+01  1.00800000E+00  1.00800000E+00  1.60000000E+01
  1.00800000E+00  1.00800000E+00  1.60000000E+01  1.00800000E+00  1.00800000E+00
  1.60000000E+01  1.00800000E+00  1.00800000E+00  1.60000000E+01  1.00800000E+00
  1.00800000E+00  1.60000000E+01  1.00800000E+00  1.00800000E+00  1.60000000E+01
  1.00800000E+00  1.00800000E+00  1.60000000E+01  1.00800000E+00  1.00800000E+00
  1.60000000E+01  1.00800000E+00  1.00800000E+00  1.60000000E+01  1.00800000E+00
  1.00800000E+00  1.60000000E+01  1.00800000E+00  1.00800000E+00  1.60000000E+01
  1.00800000E+00  1.00800000E+00  1.60000000E+01  1.00800000E+00  1.00800000E+00
  1.60000000E+01  1.00800000E+00  1.00800000E+00  1.60000000E+01  1.00800000E+00
  1.00800000E+00  1.60000000E+01  1.00800000E+00  1.00800000E+00  1.60000000E+01
  1.00800000E+00  1.00800000E+00  1.60000000E+01  1.00800000E+00  1.00800000E+00
  1.60000000E+01  1.00800000E+00  1.00800000E+00  1.60000000E+01  1.00800000E+00
  1.00800000E+00  1.60000000E+01  1.00800000E+00  1.00800000E+00  1.60000000E+01
  1.00800000E+00  1.00800000E+00  1.60000000E+01  1.00800000E+00  1.00800000E+00
  1.60000000E+01  1.00800000E+00  1.00800000E+00  1.60000000E+01  1.00800000E+00
  1.00800000E+00  1.60000000E+01  1.00800000E+00  1.00800000E+00  1.60000000E+01
  1.00800000E+00  1.00800000E+00  1.60000000E+01  1.00800000E+00  1.00800000E+00
  1.60000000E+01  1.00800000E+00  1.00800000E+00  1.60000000E+01  1.00800000E+00
  1.00800000E+00  1.60000000E+01  1.00800000E+00  1.00800000E+00  1.60000000E+01
  1.00800000E+00  1.00800000E+00  1.60000000E+01  1.00800000E+00  1.00800000E+00
  1.60000000E+01  1.00800000E+00  1.00800000E+00  1.60000000E+01  1.00800000E+00
  1.00800000E+00  1.60000000E+01  1.00800000E+00  1.00800000E+00  1.60000000E+01
  1.00800000E+00  1.00800000E+00  1.60000000E+01  1.00800000E+00  1.00800000E+00
  1.60000000E+01  1.00800000E+00  1.00800000E+00  1.60000000E+01  1.00800000E+00
  1.00800000E+00  1.60000000E+01  1.00800000E+00  1.00800000E+00  1.60000000E+01
  1.00800000E+00  1.00800000E+00  1.60000000E+01  1.00800000E+00  1.00800000E+00
  1.60000000E+01  1.00800000E+00  1.00800000E+00  1.60000000E+01  1.00800000E+00
  1.00800000E+00  1.60000000E+01  1.00800000E+00  1.00800000E+00  1.60000000E+01
  1.00800000E+00  1.00800000E+00  1.60000000E+01  1.00800000E+00  1.00800000E+00
  1.60000000E+01  1.00800000E+00  1.00800000E+00  1.60000000E+01  1.00800000E+00
  1.00800000E+00  1.60000000E+01  1.00800000E+00  1.00800000E+00  1.60000000E+01
  1.00800000E+00  1.00800000E+00  1.60000000E+01  1.00800000E+00  1.00800000E+00
  1.60000000E+01  1.00800000E+00  1.00800000E+00  1.60000000E+01  1.00800000E+00
  1.00800000E+00  1.60000000E+01  1.00800000E+00  1.00800000E+00  1.60000000E+01
  1.00800000E+00  1.00800000E+00  1.60000000E+01  1.00800000E+00  1.00800000E+00
  1.60000000E+01  1.00800000E+00  1.00800000E+00  1.60000000E+01  1.00800000E+00
  1.00800000E+00  1.60000000E+01  1.00800000E+00  1.00800000E+00  1.60000000E+01
  1.00800000E+00  1.00800000E+00  1.60000000E+01  1.00800000E+00  1.00800000E+00
  1.60000000E+01  1.00800000E+00  1.00800000E+00  1.60000000E+01  1.00800000E+00
  1.00800000E+00  1.60000000E+01  1.00800000E+00  1.00800000E+00  1.60000000E+01
  1.00800000E+00  1.00800000E+00  1.60000000E+01  1.00800000E+00  1.00800000E+00
  1.60000000E+01  1.00800000E+00  1.00800000E+00  1.60000000E+01  1.00800000E+00
  1.00800000E+00  1.60000000E+01  1.00800000E+00  1.00800000E+00  1.60000000E+01
  1.00800000E+00  1.00800000E+00  1.60000000E+01  1.00800000E+00  1.00800000E+00
  1.60000000E+01  1.00800000E+00  1.00800000E+00  1.60000000E+01  1.00800000E+00
  1.00800000E+00  1.60000000E+01  1.00800000E+00  1.00800000E+00  1.60000000E+01
  1.00800000E+00  1.00800000E+00  1.60000000E+01  1.00800000E+00  1.00800000E+00
  1.60000000E+01  1.00800000E+00  1.00800000E+00  1.60000000E+01  1.00800000E+00
  1.00800000E+00  1.60000000E+01  1.00800000E+00  1.00800000E+00  1.60000000E+01
  1.00800000E+00  1.00800000E+00  1.60000000E+01  1.00800000E+00  1.00800000E+00
  1.60000000E+01  1.00800000E+00  1.00800000E+00  1.60000000E+01  1.00800000E+00
  1.00800000E+00  1.60000000E+01  1.00800000E+00  1.00800000E+00  1.60000000E+01
  1.00800000E+00  1.00800000E+00  1.60000000E+01  1.00800000E+00  1.00800000E+00
  1.60000000E+01  1.00800000E+00  1.00800000E+00  1.60000000E+01  1.00800000E+00
  1.00800000E+00  1.60000000E+01  1.00800000E+00  1.00800000E+00  1.60000000E+01
  1.00800000E+00  1.00800000E+00  1.60000000E+01  1.00800000E+00  1.00800000E+00
  1.60000000E+01  1.00800000E+00  1.00800000E+00  1.60000000E+01  1.00800000E+00
  1.00800000E+00  1.60000000E+01  1.00800000E+00  1.00800000E+00  1.60000000E+01
  1.00800000E+00  1.00800000E+00  1.60000000E+01  1.00800000E+00  1.00800000E+00
  1.60000000E+01  1.00800000E+00  1.00800000E+00  1.60000000E+01  1.00800000E+00
  1.00800000E+00  1.60000000E+01  1.00800000E+00  1.00800000E+00  1.60000000E+01
  1.00800000E+00  1.00800000E+00  1.60000000E+01  1.00800000E+00  1.00800000E+00
  1.60000000E+01  1.00800000E+00  1.00800000E+00  1.60000000E+01  1.00800000E+00
  1.00800000E+00  1.60000000E+01  1.00800000E+00  1.00800000E+00  1.60000000E+01
  1.00800000E+00  1.00800000E+00  1.60000000E+01  1.00800000E+00  1.00800000E+00
  1.60000000E+01  1.00800000E+00  1.00800000E+00  1.60000000E+01  1.00800000E+00
  1.00800000E+00  1.60000000E+01  1.00800000E+00  1.00800000E+00  1.60000000E+01
  1.00800000E+00  1.00800000E+00  1.60000000E+01  1.00800000E+00  1.00800000E+00
  1.60000000E+01  1.00800000E+00  1.00800000E+00  1.60000000E+01  1.00800000E+00
  1.00800000E+00  1.60000000E+01  1.00800000E+00  1.00800000E+00  1.60000000E+01
  1.00800000E+00  1.00800000E+00  1.60000000E+01  1.00800000E+00  1.00800000E+00
  1.60000000E+01  1.00800000E+00  1.00800000E+00  1.60000000E+01  1.00800000E+00
  1.00800000E+00  1.60000000E+01  1.00800000E+00  1.00800000E+00  1.60000000E+01
  1.00800000E+00  1.00800000E+00  1.60000000E+01  1.00800000E+00  1.00800000E+00
  1.60000000E+01  1.00800000E+00  1.00800000E+00  1.60000000E+01  1.00800000E+00
  1.00800000E+00  1.60000000E+01  1.00800000E+00  1.00800000E+00  1.60000000E+01
  1.00800000E+00  1.00800000E+00  1.60000000E+01  1.00800000E+00  1.00800000E+00
  1.60000000E+01  1.00800000E+00  1.00800000E+00  1.60000000E+01  1.00800000E+00
  1.00800000E+00  1.60000000E+01  1.00800000E+00  1.00800000E+00  1.60000000E+01
  1.00800000E+00  1.00800000E+00  1.60000000E+01  1.00800000E+00  1.00800000E+00
  1.60000000E+01  1.00800000E+00  1.00800000E+00  1.60000000E+01  1.00800000E+00
  1.00800000E+00  1.60000000E+01  1.00800000E+00  1.00800000E+00  1.60000000E+01
  1.00800000E+00  1.00800000E+00  1.60000000E+01  1.00800000E+00  1.00800000E+00
  1.60000000E+01  1.00800000E+00  1.00800000E+00  1.60000000E+01  1.00800000E+00
  1.00800000E+00  1.60000000E+01  1.00800000E+00  1.00800000E+00  1.60000000E+01
  1.00800000E+00  1.00800000E+00  1.60000000E+01  1.00800000E+00  1.00800000E+00
  1.60000000E+01  1.00800000E+00  1.00800000E+00  1.60000000E+01  1.00800000E+00
  1.00800000E+00  1.60000000E+01  1.00800000E+00  1.00800000E+00  1.60000000E+01
  1.00800000E+00  1.00800000E+00  1.60000000E+01  1.00800000E+00  1.00800000E+00
  1.60000000E+01  1.00800000E+00  1.00800000E+00  1.60000000E+01  1.00800000E+00
  1.00800000E+00  1.60000000E+01  1.00800000E+00  1.00800000E+00  1.60000000E+01
  1.00800000E+00  1.00800000E+00  1.60000000E+01  1.00800000E+00  1.00800000E+00
  1.60000000E+01  1.00800000E+00  1.00800000E+00  1.60000000E+01  1.00800000E+00
  1.00800000E+00  1.60000000E+01  1.00800000E+00  1.00800000E+00  1.60000000E+01
  1.00800000E+00  1.00800000E+00  1.60000000E+01  1.00800000E+00  1.00800000E+00
  1.60000000E+01  1.00800000E+00  1.00800000E+00  1.60000000E+01  1.00800000E+00
  1.00800000E+00  1.60000000E+01  1.00800000E+00  1.00800000E+00  1.60000000E+01
  1.00800000E+00  1.00800000E+00  1.60000000E+01  1.00800000E+00  1.00800000E+00
  1.60000000E+01  1.00800000E+00  1.00800000E+00  1.60000000E+01  1.00800000E+00
  1.00800000E+00  1.60000000E+01  1.00800000E+00  1.00800000E+00  1.60000000E+01
  1.00800000E+00  1.00800000E+00  1.60000000E+01  1.00800000E+00  1.00800000E+00
  1.60000000E+01  1.00800000E+00  1.00800000E+00  1.60000000E+01  1.00800000E+00
  1.00800000E+00  1.60000000E+01  1.00800000E+00  1.00800000E+00  1.60000000E+01
  1.00800000E+00  1.00800000E+00  1.60000000E+01  1.00800000E+00  1.00800000E+00
  1.60000000E+01  1.00800000E+00  1.00800000E+00  1.60000000E+01  1.00800000E+00
  1.00800000E+00  1.60000000E+01  1.00800000E+00  1.00800000E+00  1.60000000E+01
  1.00800000E+00  1.00800000E+00  1.60000000E+01  1.00800000E+00  1.00800000E+00
  1.60000000E+01  1.00800000E+00  1.00800000E+00  1.60000000E+01  1.00800000E+00
  1.00800000E+00  1.60000000E+01  1.00800000E+00  1.00800000E+00  1.60000000E+01
  1.00800000E+00  1.00800000E+00  1.60000000E+01  1.00800000E+00  1.00800000E+00
  1.60000000E+01  1.00800000E+00  1.00800000E+00  1.60000000E+01  1.00800000E+00
  1.00800000E+00  1.60000000E+01  1.00800000E+00  1.00800000E+00  1.60000000E+01
  1.00800000E+00  1.00800000E+00  1.60000000E+01  1.00800000E+00  1.00800000E+00
  1.60000000E+01  1.00800000E+00  1.00800000E+00  1.60000000E+01  1.00800000E+00
  1.00800000E+00  1.60000000E+01  1.00800000E+00  1.00800000E+00  1.60000000E+01
  1.00800000E+00  1.00800000E+00  1.60000000E+01  1.00800000E+00  1.00800000E+00
  1.60000000E+01  1.00800000E+00  1.00800000E+00  1.60000000E+01  1.00800000E+00
  1.00800000E+00  1.60000000E+01  1.00800000E+00  1.00800000E+00  1.60000000E+01
  1.00800000E+00  1.00800000E+00  1.60000000E+01  1.00800000E+00  1.00800000E+00
  1.60000000E+01  1.00800000E+00  1.00800000E+00  1.60000000E+01  1.00800000E+00
  1.00800000E+00  1.60000000E+01  1.00800000E+00  1.00800000E+00  1.60000000E+01
  1.00800000E+00  1.00800000E+00  1.60000000E+01  1.00800000E+00  1.00800000E+00
  1.60000000E+01  1.00800000E+00  1.00800000E+00  1.60000000E+01  1.00800000E+00
  1.00800000E+00  1.60000000E+01  1.00800000E+00  1.00800000E+00  1.60000000E+01
  1.00800000E+00  1.00800000E+00  1.60000000E+01  1.00800000E+00  1.00800000E+00
  1.60000000E+01  1.00800000E+00  1.00800000E+00  1.60000000E+01  1.00800000E+00
  1.00800000E+00  1.60000000E+01  1.00800000E+00  1.00800000E+00  1.60000000E+01
  1.00800000E+00  1.00800000E+00  1.60000000E+01  1.00800000E+00  1.00800000E+00
  1.60000000E+01  1.00800000E+00  1.00800000E+00  1.60000000E+01  1.00800000E+00
  1.00800000E+00  1.60000000E+01  1.00800000E+00  1.00800000E+00  1.60000000E+01
  1.00800000E+00  1.00800000E+00  1.60000000E+01  1.00800000E+00  1.00800000E+00
  1.60000000E+01  1.00800000E+00  1.00800000E+00  1.60000000E+01  1.00800000E+00
  1.00800000E+00  1.60000000E+01  1.00800000E+00  1.00800000E+00  1.60000000E+01
  1.00800000E+00  1.00800000E+00  1.60000000E+01  1.00800000E+00  1.00800000E+00
  1.60000000E+01  1.00800000E+00  1.00800000E+00  1.60000000E+01  1.00800000E+00
  1.00800000E+00  1.60000000E+01  1.00800000E+00  1.00800000E+00  1.60000000E+01
  1.00800000E+00  1.00800000E+00  1.60000000E+01  1.00800000E+00  1.00800000E+00
  1.60000000E+01  1.00800000E+00  1.00800000E+00  1.60000000E+01  1.00800000E+00
  1.00800000E+00  1.60000000E+01  1.00800000E+00  1.00800000E+00  1.60000000E+01
  1.00800000E+00  1.00800000E+00  1.60000000E+01  1.00800000E+00  1.00800000E+00
  1.60000000E+01  1.00800000E+00  1.00800000E+00  1.60000000E+01  1.00800000E+00
  1.00800000E+00  1.60000000E+01  1.00800000E+00  1.00800000E+00  1.60000000E+01
  1.00800000E+00  1.00800000E+00  1.60000000E+01  1.00800000E+00  1.00800000E+00
  1.60000000E+01  1.00800000E+00  1.00800000E+00  1.60000000E+01  1.00800000E+00
  1.00800000E+00  1.60000000E+01  1.00800000E+00  1.00800000E+00  1.60000000E+01
  1.00800000E+00  1.00800000E+00  1.60000000E+01  1.00800000E+00  1.00800000E+00
  1.60000000E+01  1.00800000E+00  1.00800000E+00  1.60000000E+01  1.00800000E+00
  1.00800000E+00  1.60000000E+01  1.00800000E+00  1.00800000E+00  1.60000000E+01
  1.00800000E+00  1.00800000E+00  1.60000000E+01  1.00800000E+00  1.00800000E+00
  1.60000000E+01  1.00800000E+00  1.00800000E+00  1.60000000E+01  1.00800000E+00
  1.00800000E+00  1.60000000E+01  1.00800000E+00  1.00800000E+00  1.60000000E+01
  1.00800000E+00  1.00800000E+00  1.60000000E+01  1.00800000E+00  1.00800000E+00
  1.60000000E+01  1.00800000E+00  1.00800000E+00  1.60000000E+01  1.00800000E+00
  1.00800000E+00  1.60000000E+01  1.00800000E+00  1.00800000E+00  1.60000000E+01
  1.00800000E+00  1.00800000E+00  1.60000000E+01  1.00800000E+00  1.00800000E+00
  1.60000000E+01  1.00800000E+00  1.00800000E+00  1.60000000E+01  1.00800000E+00
  1.00800000E+00  1.60000000E+01  1.00800000E+00  1.00800000E+00  1.60000000E+01
  1.00800000E+00  1.00800000E+00  1.60000000E+01  1.00800000E+00  1.00800000E+00
  1.60000000E+01  1.00800000E+00  1.00800000E+00  1.60000000E+01  1.00800000E+00
  1.00800000E+00  1.60000000E+01  1.00800000E+00  1.00800000E+00  1.60000000E+01
  1.00800000E+00  1.00800000E+00  1.60000000E+01  1.00800000E+00  1.00800000E+00
  1.60000000E+01  1.00800000E+00  1.00800000E+00  1.60000000E+01  1.00800000E+00
  1.00800000E+00  1.60000000E+01  1.00800000E+00  1.00800000E+00  1.60000000E+01
  1.00800000E+00  1.00800000E+00  1.60000000E+01  1.00800000E+00  1.00800000E+00
  1.60000000E+01  1.00800000E+00  1.00800000E+00  1.60000000E+01  1.00800000E+00
  1.00800000E+00  1.60000000E+01  1.00800000E+00  1.00800000E+00  1.60000000E+01
  1.00800000E+00  1.00800000E+00  1.60000000E+01  1.00800000E+00  1.00800000E+00
  1.60000000E+01  1.00800000E+00  1.00800000E+00  1.60000000E+01  1.00800000E+00
  1.00800000E+00  1.60000000E+01  1.00800000E+00  1.00800000E+00  1.60000000E+01
  1.00800000E+00  1.00800000E+00  1.60000000E+01  1.00800000E+00  1.00800000E+00
  1.60000000E+01  1.00800000E+00  1.00800000E+00  1.60000000E+01  1.00800000E+00
  1.00800000E+00  1.60000000E+01  1.00800000E+00  1.00800000E+00  1.60000000E+01
  1.00800000E+00  1.00800000E+00  1.60000000E+01  1.00800000E+00  1.00800000E+00
  1.60000000E+01  1.00800000E+00  1.00800000E+00  1.60000000E+01  1.00800000E+00
  1.00800000E+00  1.60000000E+01  1.00800000E+00  1.00800000E+00  1.60000000E+01
  1.00800000E+00  1.00800000E+00  1.60000000E+01  1.00800000E+00  1.00800000E+00
  1.60000000E+01  1.00800000E+00  1.00800000E+00  1.60000000E+01  1.00800000E+00
  1.00800000E+00  1.60000000E+01  1.00800000E+00  1.00800000E+00  1.60000000E+01
  1.00800000E+00  1.00800000E+00  1.60000000E+01  1.00800000E+00  1.00800000E+00
  1.60000000E+01  1.00800000E+00  1.00800000E+00  1.60000000E+01  1.00800000E+00
  1.00800000E+00  1.60000000E+01  1.00800000E+00  1.00800000E+00  1.60000000E+01
  1.00800000E+00  1.00800000E+00  1.60000000E+01  1.00800000E+00  1.00800000E+00
  1.60000000E+01  1.00800000E+00  1.00800000E+00  1.60000000E+01  1.00800000E+00
  1.00800000E+00  1.60000000E+01  1.00800000E+00  1.00800000E+00  1.60000000E+01
  1.00800000E+00  1.00800000E+00  1.60000000E+01  1.00800000E+00  1.00800000E+00
  1.60000000E+01  1.00800000E+00  1.00800000E+00  1.60000000E+01  1.00800000E+00
  1.00800000E+00  1.60000000E+01  1.00800000E+00  1.00800000E+00  1.60000000E+01
  1.00800000E+00  1.00800000E+00  1.60000000E+01  1.00800000E+00  1.00800000E+00
  1.60000000E+01  1.00800000E+00  1.00800000E+00  1.60000000E+01  1.00800000E+00
  1.00800000E+00  1.60000000E+01  1.00800000E+00  1.00800000E+00  1.60000000E+01
  1.00800000E+00  1.00800000E+00  1.60000000E+01  1.00800000E+00  1.00800000E+00
  1.60000000E+01  1.00800000E+00  1.00800000E+00  1.60000000E+01  1.00800000E+00
  1.00800000E+00  1.60000000E+01  1.00800000E+00  1.00800000E+00  1.60000000E+01
  1.00800000E+00  1.00800000E+00  1.60000000E+01  1.00800000E+00  1.00800000E+00
  1.60000000E+01  1.00800000E+00  1.00800000E+00  1.60000000E+01  1.00800000E+00
  1.00800000E+00  1.60000000E+01  1.00800000E+00  1.00800000E+00  1.60000000E+01
  1.00800000E+00  1.00800000E+00  1.60000000E+01  1.00800000E+00  1.00800000E+00
  1.60000000E+01  1.00800000E+00  1.00800000E+00  1.60000000E+01  1.00800000E+00
  1.00800000E+00  1.60000000E+01  1.00800000E+00  1.00800000E+00  1.60000000E+01
  1.00800000E+00  1.00800000E+00  1.60000000E+01  1.00800000E+00  1.00800000E+00
  1.60000000E+01  1.00800000E+00  1.00800000E+00  1.60000000E+01  1.00800000E+00
  1.00800000E+00  1.60000000E+01  1.00800000E+00  1.00800000E+00  1.60000000E+01
  1.00800000E+00  1.00800000E+00  1.60000000E+01  1.00800000E+00  1.00800000E+00
  1.60000000E+01  1.00800000E+00  1.00800000E+00  1.60000000E+01  1.00800000E+00
  1.00800000E+00  1.60000000E+01  1.00800000E+00  1.00800000E+00  1.60000000E+01
  1.00800000E+00  1.00800000E+00  1.60000000E+01  1.00800000E+00  1.00800000E+00
  1.60000000E+01  1.00800000E+00  1.00800000E+00  1.60000000E+01  1.00800000E+00
  1.00800000E+00  1.60000000E+01  1.00800000E+00  1.00800000E+00  1.60000000E+01
  1.00800000E+00  1.00800000E+00  1.60000000E+01  1.00800000E+00  1.00800000E+00
  1.60000000E+01  1.00800000E+00  1.00800000E+00  1.60000000E+01  1.00800000E+00
  1.00800000E+00  1.60000000E+01  1.00800000E+00  1.00800000E+00  1.60000000E+01
  1.00800000E+00  1.00800000E+00  1.60000000E+01  1.00800000E+00  1.00800000E+00
  1.60000000E+01  1.00800000E+00  1.00800000E+00  1.60000000E+01  1.00800000E+00
  1.00800000E+00  1.60000000E+01  1.00800000E+00  1.00800000E+00  1.60000000E+01
  1.00800000E+00  1.00800000E+00  1.60000000E+01  1.00800000E+00  1.00800000E+00
  1.60000000E+01  1.00800000E+00  1.00800000E+00  1.60000000E+01  1.00800000E+00
  1.00800000E+00  1.60000000E+01  1.00800000E+00  1.00800000E+00  1.60000000E+01
  1.00800000E+00  1.00800000E+00  1.60000000E+01  1.00800000E+00  1.00800000E+00
  1.60000000E+01  1.00800000E+00  1.00800000E+00  1.60000000E+01  1.00800000E+00
  1.00800000E+00  1.60000000E+01  1.00800000E+00  1.00800000E+00  1.60000000E+01
  1.00800000E+00  1.00800000E+00  1.60000000E+01  1.00800000E+00  1.00800000E+00
  1.60000000E+01  1.00800000E+00  1.00800000E+00  1.60000000E+01  1.00800000E+00
  1.00800000E+00  1.60000000E+01  1.00800000E+00  1.00800000E+00  1.60000000E+01
  1.00800000E+00  1.00800000E+00  1.60000000E+01  1.00800000E+00  1.00800000E+00
  1.60000000E+01  1.00800000E+00  1.00800000E+00  1.60000000E+01  1.00800000E+00
  1.00800000E+00  1.60000000E+01  1.00800000E+00  1.00800000E+00  1.60000000E+01
  1.00800000E+00  1.00800000E+00  1.60000000E+01  1.00800000E+00  1.00800000E+00
  1.60000000E+01  1.00800000E+00  1.00800000E+00  1.60000000E+01  1.00800000E+00
  1.00800000E+00  1.60000000E+01  1.00800000E+00  1.00800000E+00  1.60000000E+01
  1.00800000E+00  1.00800000E+00  1.60000000E+01  1.00800000E+00  1.00800000E+00
  1.60000000E+01  1.00800000E+00  1.00800000E+00  1.60000000E+01  1.00800000E+00
  1.00800000E+00  1.60000000E+01  1.00800000E+00  1.00800000E+00  1.60000000E+01
  1.00800000E+00  1.00800000E+00  1.60000000E+01  1.00800000E+00  1.00800000E+00
  1.60000000E+01  1.00800000E+00  1.00800000E+00  1.60000000E+01  1.00800000E+00
  1.00800000E+00  1.60000000E+01  1.00800000E+00  1.00800000E+00  1.60000000E+01
  1.00800000E+00  1.00800000E+00  1.60000000E+01  1.00800000E+00  1.00800000E+00
  1.60000000E+01  1.00800000E+00  1.00800000E+00  1.60000000E+01  1.00800000E+00
  1.00800000E+00  1.60000000E+01  1.00800000E+00  1.00800000E+00  1.60000000E+01
  1.00800000E+00  1.00800000E+00  1.60000000E+01  1.00800000E+00  1.00800000E+00
  1.60000000E+01  1.00800000E+00  1.00800000E+00  1.60000000E+01  1.00800000E+00
  1.00800000E+00  1.60000000E+01  1.00800000E+00  1.00800000E+00  1.60000000E+01
  1.00800000E+00  1.00800000E+00  1.60000000E+01  1.00800000E+00  1.00800000E+00
  1.60000000E+01  1.00800000E+00  1.00800000E+00  1.60000000E+01  1.00800000E+00
  1.00800000E+00  1.60000000E+01  1.00800000E+00  1.00800000E+00  1.60000000E+01
  1.00800000E+00  1.00800000E+00  1.60000000E+01  1.00800000E+00  1.00800000E+00
  1.60000000E+01  1.00800000E+00  1.00800000E+00  1.60000000E+01  1.00800000E+00
  1.00800000E+00  1.60000000E+01  1.00800000E+00  1.00800000E+00  1.60000000E+01
  1.00800000E+00  1.00800000E+00  1.60000000E+01  1.00800000E+00  1.00800000E+00
  1.60000000E+01  1.00800000E+00  1.00800000E+00  1.60000000E+01  1.00800000E+00
  1.00800000E+00  1.60000000E+01  1.00800000E+00  1.00800000E+00  1.60000000E+01
  1.00800000E+00  1.00800000E+00  1.60000000E+01  1.00800000E+00  1.00800000E+00
  1.60000000E+01  1.00800000E+00  1.00800000E+00  1.60000000E+01  1.00800000E+00
  1.00800000E+00  1.60000000E+01  1.00800000E+00  1.00800000E+00  1.60000000E+01
  1.00800000E+00  1.00800000E+00  1.60000000E+01  1.00800000E+00  1.00800000E+00
  1.60000000E+01  1.00800000E+00  1.00800000E+00  1.60000000E+01  1.00800000E+00
  1.00800000E+00  1.60000000E+01  1.00800000E+00  1.00800000E+00  1.60000000E+01
  1.00800000E+00  1.00800000E+00  1.60000000E+01  1.00800000E+00  1.00800000E+00
  1.60000000E+01  1.00800000E+00  1.00800000E+00  1.60000000E+01  1.00800000E+00
  1.00800000E+00  1.60000000E+01  1.00800000E+00  1.00800000E+00  1.60000000E+01
  1.00800000E+00  1.00800000E+00  1.60000000E+01  1.00800000E+00  1.00800000E+00
  1.60000000E+01  1.00800000E+00  1.00800000E+00  1.60000000E+01  1.00800000E+00
  1.00800000E+00  1.60000000E+01  1.00800000E+00  1.00800000E+00  1.60000000E+01
  1.00800000E+00  1.00800000E+00  1.60000000E+01  1.00800000E+00  1.00800000E+00
  1.60000000E+01  1.00800000E+00  1.00800000E+00  1.60000000E+01  1.00800000E+00
  1.00800000E+00  1.60000000E+01  1.00800000E+00  1.00800000E+00  1.60000000E+01
  1.00800000E+00  1.00800000E+00  1.60000000E+01  1.00800000E+00  1.00800000E+00
  1.60000000E+01  1.00800000E+00  1.00800000E+00  1.60000000E+01  1.00800000E+00
  1.00800000E+00  1.60000000E+01  1.00800000E+00  1.00800000E+00  1.60000000E+01
  1.00800000E+00  1.00800000E+00  1.60000000E+01  1.00800000E+00  1.00800000E+00
  1.60000000E+01  1.00800000E+00  1.00800000E+00  1.60000000E+01  1.00800000E+00
  1.00800000E+00  1.60000000E+01  1.00800000E+00  1.00800000E+00  1.60000000E+01
  1.00800000E+00  1.00800000E+00  1.60000000E+01  1.00800000E+00  1.00800000E+00
  1.60000000E+01  1.00800000E+00  1.00800000E+00  1.60000000E+01  1.00800000E+00
  1.00800000E+00  1.60000000E+01  1.00800000E+00  1.00800000E+00  1.60000000E+01
  1.00800000E+00  1.00800000E+00  1.60000000E+01  1.00800000E+00  1.00800000E+00
  1.60000000E+01  1.00800000E+00  1.00800000E+00  1.60000000E+01  1.00800000E+00
  1.00800000E+00  1.60000000E+01  1.00800000E+00  1.00800000E+00  1.60000000E+01
  1.00800000E+00  1.00800000E+00  1.60000000E+01  1.00800000E+00  1.00800000E+00
  1.60000000E+01  1.00800000E+00  1.00800000E+00  1.60000000E+01  1.00800000E+00
  1.00800000E+00  1.60000000E+01  1.00800000E+00  1.00800000E+00  1.60000000E+01
  1.00800000E+00  1.00800000E+00  1.60000000E+01  1.00800000E+00  1.00800000E+00
  1.60000000E+01  1.00800000E+00  1.00800000E+00  1.60000000E+01  1.00800000E+00
  1.00800000E+00  1.60000000E+01  1.00800000E+00  1.00800000E+00  1.60000000E+01
  1.00800000E+00  1.00800000E+00  1.60000000E+01  1.00800000E+00  1.00800000E+00
  1.60000000E+01  1.00800000E+00  1.00800000E+00  1.60000000E+01  1.00800000E+00
  1.00800000E+00  1.60000000E+01  1.00800000E+00  1.00800000E+00  1.60000000E+01
  1.00800000E+00  1.00800000E+00  1.60000000E+01  1.00800000E+00  1.00800000E+00
  1.60000000E+01  1.00800000E+00  1.00800000E+00  1.60000000E+01  1.00800000E+00
  1.00800000E+00  1.60000000E+01  1.00800000E+00  1.00800000E+00  1.60000000E+01
  1.00800000E+00  1.00800000E+00  1.60000000E+01  1.00800000E+00  1.00800000E+00
  1.60000000E+01  1.00800000E+00  1.00800000E+00  1.60000000E+01  1.00800000E+00
  1.00800000E+00  1.60000000E+01  1.00800000E+00  1.00800000E+00  1.60000000E+01
  1.00800000E+00  1.00800000E+00  1.60000000E+01  1.00800000E+00  1.00800000E+00
  1.60000000E+01  1.00800000E+00  1.00800000E+00  1.60000000E+01  1.00800000E+00
  1.00800000E+00  1.60000000E+01  1.00800000E+00  1.00800000E+00  1.60000000E+01
  1.00800000E+00  1.00800000E+00  1.60000000E+01  1.00800000E+00  1.00800000E+00
  1.60000000E+01  1.00800000E+00  1.00800000E+00  1.60000000E+01  1.00800000E+00
  1.00800000E+00  1.60000000E+01  1.00800000E+00  1.00800000E+00  1.60000000E+01
  1.00800000E+00  1.00800000E+00  1.60000000E+01  1.00800000E+00  1.00800000E+00
  1.60000000E+01  1.00800000E+00  1.00800000E+00  1.60000000E+01  1.00800000E+00
  1.00800000E+00  1.60000000E+01  1.00800000E+00  1.00800000E+00  1.60000000E+01
  1.00800000E+00  1.00800000E+00  1.60000000E+01  1.00800000E+00  1.00800000E+00
  1.60000000E+01  1.00800000E+00  1.00800000E+00  1.60000000E+01  1.00800000E+00
  1.00800000E+00  1.60000000E+01  1.00800000E+00  1.00800000E+00  1.60000000E+01
  1.00800000E+00  1.00800000E+00  1.60000000E+01  1.00800000E+00  1.00800000E+00
  1.60000000E+01  1.00800000E+00  1.00800000E+00  1.60000000E+01  1.00800000E+00
  1.00800000E+00  1.60000000E+01  1.00800000E+00  1.00800000E+00  1.60000000E+01
  1.00800000E+00  1.00800000E+00  1.60000000E+01  1.00800000E+00  1.00800000E+00
  1.60000000E+01  1.00800000E+00  1.00800000E+00  1.60000000E+01  1.00800000E+00
  1.00800000E+00  1.60000000E+01  1.00800000E+00  1.00800000E+00  1.60000000E+01
  1.00800000E+00  1.00800000E+00  1.60000000E+01  1.00800000E+00  1.00800000E+00
  1.60000000E+01  1.00800000E+00  1.00800000E+00  1.60000000E+01  1.00800000E+00
  1.00800000E+00  1.60000000E+01  1.00800000E+00  1.00800000E+00  1.60000000E+01
  1.00800000E+00  1.00800000E+00  1.60000000E+01  1.00800000E+00  1.00800000E+00
  1.60000000E+01  1.00800000E+00  1.00800000E+00  1.60000000E+01  1.00800000E+00
  1.00800000E+00  1.60000000E+01  1.00800000E+00  1.00800000E+00  1.60000000E+01
  1.00800000E+00  1.00800000E+00  1.60000000E+01  1.00800000E+00  1.00800000E+00
  1.60000000E+01  1.00800000E+00  1.00800000E+00  1.60000000E+01  1.00800000E+00
  1.00800000E+00  1.60000000E+01  1.00800000E+00  1.00800000E+00  1.60000000E+01
  1.00800000E+00  1.00800000E+00  1.60000000E+01  1.00800000E+00  1.00800000E+00
  1.60000000E+01  1.00800000E+00  1.00800000E+00  1.60000000E+01  1.00800000E+00
  1.00800000E+00  1.60000000E+01  1.00800000E+00  1.00800000E+00  1.60000000E+01
  1.00800000E+00  1.00800000E+00  1.60000000E+01  1.00800000E+00  1.00800000E+00
  1.60000000E+01  1.00800000E+00  1.00800000E+00  1.60000000E+01  1.00800000E+00
  1.00800000E+00  1.60000000E+01  1.00800000E+00  1.00800000E+00  1.60000000E+01
  1.00800000E+00  1.00800000E+00  1.60000000E+01  1.00800000E+00  1.00800000E+00
  1.60000000E+01  1.00800000E+00  1.00800000E+00  1.60000000E+01  1.00800000E+00
  1.00800000E+00  1.60000000E+01  1.00800000E+00  1.00800000E+00  1.60000000E+01
  1.00800000E+00  1.00800000E+00  1.60000000E+01  1.00800000E+00  1.00800000E+00
  1.60000000E+01  1.00800000E+00  1.00800000E+00  1.60000000E+01  1.00800000E+00
  1.00800000E+00  1.60000000E+01  1.00800000E+00  1.00800000E+00  1.60000000E+01
  1.00800000E+00  1.00800000E+00  1.60000000E+01  1.00800000E+00  1.00800000E+00
  1.60000000E+01  1.00800000E+00  1.00800000E+00  1.60000000E+01  1.00800000E+00
  1.00800000E+00  1.60000000E+01  1.00800000E+00  1.00800000E+00  1.60000000E+01
  1.00800000E+00  1.00800000E+00  1.60000000E+01  1.00800000E+00  1.00800000E+00
  1.60000000E+01  1.00800000E+00  1.00800000E+00  1.60000000E+01  1.00800000E+00
  1.00800000E+00  1.60000000E+01  1.00800000E+00  1.00800000E+00  1.60000000E+01
  1.00800000E+00  1.00800000E+00  1.60000000E+01  1.00800000E+00  1.00800000E+00
  1.60000000E+01  1.00800000E+00  1.00800000E+00  1.60000000E+01  1.00800000E+00
  1.00800000E+00  1.60000000E+01  1.00800000E+00  1.00800000E+00  1.60000000E+01
  1.00800000E+00  1.00800000E+00  1.60000000E+01  1.00800000E+00  1.00800000E+00
  1.60000000E+01  1.00800000E+00  1.00800000E+00  1.60000000E+01  1.00800000E+00
  1.00800000E+00  1.60000000E+01  1.00800000E+00  1.00800000E+00  1.60000000E+01
  1.00800000E+00  1.00800000E+00  1.60000000E+01  1.00800000E+00  1.00800000E+00
  1.60000000E+01  1.00800000E+00  1.00800000E+00  1.60000000E+01  1.00800000E+00
  1.00800000E+00  1.60000000E+01  1.00800000E+00  1.00800000E+00  1.60000000E+01
  1.00800000E+00  1.00800000E+00  1.60000000E+01  1.00800000E+00  1.00800000E+00
  1.60000000E+01  1.00800000E+00  1.00800000E+00  1.60000000E+01  1.00800000E+00
  1.00800000E+00  1.60000000E+01  1.00800000E+00  1.00800000E+00  1.60000000E+01
  1.00800000E+00  1.00800000E+00  1.60000000E+01  1.00800000E+00  1.00800000E+00
  1.60000000E+01  1.00800000E+00  1.00800000E+00  1.60000000E+01  1.00800000E+00
  1.00800000E+00  1.60000000E+01  1.00800000E+00  1.00800000E+00  1.60000000E+01
  1.00800000E+00  1.00800000E+00  1.60000000E+01  1.00800000E+00  1.00800000E+00
  1.60000000E+01  1.00800000E+00  1.00800000E+00  1.60000000E+01  1.00800000E+00
  1.00800000E+00  1.60000000E+01  1.00800000E+00  1.00800000E+00  1.60000000E+01
  1.00800000E+00  1.00800000E+00  1.60000000E+01  1.00800000E+00  1.00800000E+00
  1.60000000E+01  1.00800000E+00  1.00800000E+00  1.60000000E+01  1.00800000E+00
  1.00800000E+00  1.60000000E+01  1.00800000E+00  1.00800000E+00  1.60000000E+01
  1.00800000E+00  1.00800000E+00  1.60000000E+01  1.00800000E+00  1.00800000E+00
  1.60000000E+01  1.00800000E+00  1.00800000E+00  1.60000000E+01  1.00800000E+00
  1.00800000E+00  1.60000000E+01  1.00800000E+00  1.00800000E+00  1.60000000E+01
  1.00800000E+00  1.00800000E+00  1.60000000E+01  1.00800000E+00  1.00800000E+00
  1.60000000E+01  1.00800000E+00  1.00800000E+00  1.60000000E+01  1.00800000E+00
  1.00800000E+00  1.60000000E+01  1.00800000E+00  1.00800000E+00  1.60000000E+01
  1.00800000E+00  1.00800000E+00  1.60000000E+01  1.00800000E+00  1.00800000E+00
  1.60000000E+01  1.00800000E+00  1.00800000E+00  1.60000000E+01  1.00800000E+00
  1.00800000E+00  1.60000000E+01  1.00800000E+00  1.00800000E+00  1.60000000E+01
  1.00800000E+00  1.00800000E+00  1.60000000E+01  1.00800000E+00  1.00800000E+00
  1.60000000E+01  1.00800000E+00  1.00800000E+00  1.60000000E+01  1.00800000E+00
  1.00800000E+00  1.60000000E+01  1.00800000E+00  1.00800000E+00  1.60000000E+01
  1.00800000E+00  1.00800000E+00  1.60000000E+01  1.00800000E+00  1.00800000E+00
  1.60000000E+01  1.00800000E+00  1.00800000E+00  1.60000000E+01  1.00800000E+00
  1.00800000E+00  1.60000000E+01  1.00800000E+00  1.00800000E+00  1.60000000E+01
  1.00800000E+00  1.00800000E+00  1.60000000E+01  1.00800000E+00  1.00800000E+00
  1.60000000E+01  1.00800000E+00  1.00800000E+00  1.60000000E+01  1.00800000E+00
  1.00800000E+00  1.60000000E+01  1.00800000E+00  1.00800000E+00  1.60000000E+01
  1.00800000E+00  1.00800000E+00  1.60000000E+01  1.00800000E+00  1.00800000E+00
  1.60000000E+01  1.00800000E+00  1.00800000E+00  1.60000000E+01  1.00800000E+00
  1.00800000E+00  1.60000000E+01  1.00800000E+00  1.00800000E+00  1.60000000E+01
  1.00800000E+00  1.00800000E+00  1.60000000E+01  1.00800000E+00  1.00800000E+00
  1.60000000E+01  1.00800000E+00  1.00800000E+00  1.60000000E+01  1.00800000E+00
  1.00800000E+00  1.60000000E+01  1.00800000E+00  1.00800000E+00  1.60000000E+01
  1.00800000E+00  1.00800000E+00  1.60000000E+01  1.00800000E+00  1.00800000E+00
  1.60000000E+01  1.00800000E+00  1.00800000E+00  1.60000000E+01  1.00800000E+00
  1.00800000E+00  1.60000000E+01  1.00800000E+00  1.00800000E+00  1.60000000E+01
  1.00800000E+00  1.00800000E+00  1.60000000E+01  1.00800000E+00  1.00800000E+00
  1.60000000E+01  1.00800000E+00  1.00800000E+00  1.60000000E+01  1.00800000E+00
  1.00800000E+00  1.60000000E+01  1.00800000E+00  1.00800000E+00  1.60000000E+01
  1.00800000E+00  1.00800000E+00  1.60000000E+01  1.00800000E+00  1.00800000E+00
  1.60000000E+01  1.00800000E+00  1.00800000E+00  1.60000000E+01  1.00800000E+00
  1.00800000E+00  1.60000000E+01  1.00800000E+00  1.00800000E+00  1.60000000E+01
  1.00800000E+00  1.00800000E+00  1.60000000E+01  1.00800000E+00  1.00800000E+00
  1.60000000E+01  1.00800000E+00  1.00800000E+00  1.60000000E+01  1.00800000E+00
  1.00800000E+00  1.60000000E+01  1.00800000E+00  1.00800000E+00  1.60000000E+01
  1.00800000E+00  1.00800000E+00  1.60000000E+01  1.00800000E+00  1.00800000E+00
  1.60000000E+01  1.00800000E+00  1.00800000E+00  1.60000000E+01  1.00800000E+00
  1.00800000E+00  1.60000000E+01  1.00800000E+00  1.00800000E+00  1.60000000E+01
  1.00800000E+00  1.00800000E+00  1.60000000E+01  1.00800000E+00  1.00800000E+00
  1.60000000E+01  1.00800000E+00  1.00800000E+00  1.60000000E+01  1.00800000E+00
  1.00800000E+00  1.60000000E+01  1.00800000E+00  1.00800000E+00  1.60000000E+01
  1.00800000E+00  1.00800000E+00  1.60000000E+01  1.00800000E+00  1.00800000E+00
  1.60000000E+01  1.00800000E+00  1.00800000E+00  1.60000000E+01  1.00800000E+00
  1.00800000E+00  1.60000000E+01  1.00800000E+00  1.00800000E+00  1.60000000E+01
  1.00800000E+00  1.00800000E+00  1.60000000E+01  1.00800000E+00  1.00800000E+00
  1.60000000E+01  1.00800000E+00  1.00800000E+00  1.60000000E+01  1.00800000E+00
  1.00800000E+00  1.60000000E+01  1.00800000E+00  1.00800000E+00  1.60000000E+01
  1.00800000E+00  1.00800000E+00  1.60000000E+01  1.00800000E+00  1.00800000E+00
  1.60000000E+01  1.00800000E+00  1.00800000E+00  1.60000000E+01  1.00800000E+00
  1.00800000E+00  1.60000000E+01  1.00800000E+00  1.00800000E+00  1.60000000E+01
  1.00800000E+00  1.00800000E+00  1.60000000E+01  1.00800000E+00  1.00800000E+00
  1.60000000E+01  1.00800000E+00  1.00800000E+00  1.60000000E+01  1.00800000E+00
  1.00800000E+00  1.60000000E+01  1.00800000E+00  1.00800000E+00  1.60000000E+01
  1.00800000E+00  1.00800000E+00  1.60000000E+01  1.00800000E+00  1.00800000E+00
  1.60000000E+01  1.00800000E+00  1.00800000E+00  1.60000000E+01  1.00800000E+00
  1.00800000E+00  1.60000000E+01  1.00800000E+00  1.00800000E+00  1.60000000E+01
  1.00800000E+00  1.00800000E+00  1.60000000E+01  1.00800000E+00  1.00800000E+00
  1.60000000E+01  1.00800000E+00  1.00800000E+00  1.60000000E+01  1.00800000E+00
  1.00800000E+00  1.60000000E+01  1.00800000E+00  1.00800000E+00  1.60000000E+01
  1.00800000E+00  1.00800000E+00  1.60000000E+01  1.00800000E+00  1.00800000E+00
  1.60000000E+01  1.00800000E+00  1.00800000E+00  1.60000000E+01  1.00800000E+00
  1.00800000E+00  1.60000000E+01  1.00800000E+00  1.00800000E+00  1.60000000E+01
  1.00800000E+00  1.00800000E+00  1.60000000E+01  1.00800000E+00  1.00800000E+00
  1.60000000E+01  1.00800000E+00  1.00800000E+00  1.60000000E+01  1.00800000E+00
  1.00800000E+00  1.60000000E+01  1.00800000E+00  1.00800000E+00  1.60000000E+01
  1.00800000E+00  1.00800000E+00  1.60000000E+01  1.00800000E+00  1.00800000E+00
  1.60000000E+01  1.00800000E+00  1.00800000E+00  1.60000000E+01  1.00800000E+00
  1.00800000E+00  1.60000000E+01  1.00800000E+00  1.00800000E+00  1.60000000E+01
  1.00800000E+00  1.00800000E+00  1.60000000E+01  1.00800000E+00  1.00800000E+00
  1.60000000E+01  1.00800000E+00  1.00800000E+00  1.60000000E+01  1.00800000E+00
  1.00800000E+00  1.60000000E+01  1.00800000E+00  1.00800000E+00  1.60000000E+01
  1.00800000E+00  1.00800000E+00  1.60000000E+01  1.00800000E+00  1.00800000E+00
  1.60000000E+01  1.00800000E+00  1.00800000E+00  1.60000000E+01  1.00800000E+00
  1.00800000E+00  1.60000000E+01  1.00800000E+00  1.00800000E+00  1.60000000E+01
  1.00800000E+00  1.00800000E+00  1.60000000E+01  1.00800000E+00  1.00800000E+00
  1.60000000E+01  1.00800000E+00  1.00800000E+00  1.60000000E+01  1.00800000E+00
  1.00800000E+00  1.60000000E+01  1.00800000E+00  1.00800000E+00  1.60000000E+01
  1.00800000E+00  1.00800000E+00  1.60000000E+01  1.00800000E+00  1.00800000E+00
  1.60000000E+01  1.00800000E+00  1.00800000E+00  1.60000000E+01  1.00800000E+00
  1.00800000E+00  1.60000000E+01  1.00800000E+00  1.00800000E+00  1.60000000E+01
  1.00800000E+00  1.00800000E+00  1.60000000E+01  1.00800000E+00  1.00800000E+00
  1.60000000E+01  1.00800000E+00  1.00800000E+00  1.60000000E+01  1.00800000E+00
  1.00800000E+00  1.60000000E+01  1.00800000E+00  1.00800000E+00  1.60000000E+01
  1.00800000E+00  1.00800000E+00  1.60000000E+01  1.00800000E+00  1.00800000E+00
  1.60000000E+01  1.00800000E+00  1.00800000E+00  1.60000000E+01  1.00800000E+00
  1.00800000E+00  1.60000000E+01  1.00800000E+00  1.00800000E+00  1.60000000E+01
  1.00800000E+00  1.00800000E+00  1.60000000E+01  1.00800000E+00  1.00800000E+00
  1.60000000E+01  1.00800000E+00  1.00800000E+00  1.60000000E+01  1.00800000E+00
  1.00800000E+00  1.60000000E+01  1.00800000E+00  1.00800000E+00  1.60000000E+01
  1.00800000E+00  1.00800000E+00  1.60000000E+01  1.00800000E+00  1.00800000E+00
  1.60000000E+01  1.00800000E+00  1.00800000E+00  1.60000000E+01  1.00800000E+00
  1.00800000E+00  1.60000000E+01  1.00800000E+00  1.00800000E+00  1.60000000E+01
  1.00800000E+00  1.00800000E+00  1.60000000E+01  1.00800000E+00  1.00800000E+00
  1.60000000E+01  1.00800000E+00  1.00800000E+00  1.60000000E+01  1.00800000E+00
  1.00800000E+00  1.60000000E+01  1.00800000E+00  1.00800000E+00  1.60000000E+01
  1.00800000E+00  1.00800000E+00  1.60000000E+01  1.00800000E+00  1.00800000E+00
  1.60000000E+01  1.00800000E+00  1.00800000E+00  1.60000000E+01  1.00800000E+00
  1.00800000E+00  1.60000000E+01  1.00800000E+00  1.00800000E+00  1.60000000E+01
  1.00800000E+00  1.00800000E+00  1.60000000E+01  1.00800000E+00  1.00800000E+00
  1.60000000E+01  1.00800000E+00  1.00800000E+00  1.60000000E+01  1.00800000E+00
  1.00800000E+00  1.60000000E+01  1.00800000E+00  1.00800000E+00  1.60000000E+01
  1.00800000E+00  1.00800000E+00  1.60000000E+01  1.00800000E+00  1.00800000E+00
  1.60000000E+01  1.00800000E+00  1.00800000E+00  1.60000000E+01  1.00800000E+00
  1.00800000E+00  1.60000000E+01  1.00800000E+00  1.00800000E+00  1.60000000E+01
  1.00800000E+00  1.00800000E+00  1.60000000E+01  1.00800000E+00  1.00800000E+00
  1.60000000E+01  1.00800000E+00  1.00800000E+00  1.60000000E+01  1.00800000E+00
  1.00800000E+00  1.60000000E+01  1.00800000E+00  1.00800000E+00  1.60000000E+01
  1.00800000E+00  1.00800000E+00  1.60000000E+01  1.00800000E+00  1.00800000E+00
  1.60000000E+01  1.00800000E+00  1.00800000E+00  1.60000000E+01  1.00800000E+00
  1.00800000E+00  1.60000000E+01  1.00800000E+00  1.00800000E+00  1.60000000E+01
  1.00800000E+00  1.00800000E+00  1.60000000E+01  1.00800000E+00  1.00800000E+00
  1.60000000E+01  1.00800000E+00  1.00800000E+00  1.60000000E+01  1.00800000E+00
  1.00800000E+00  1.60000000E+01  1.00800000E+00  1.00800000E+00  1.60000000E+01
  1.00800000E+00  1.00800000E+00  1.60000000E+01  1.00800000E+00  1.00800000E+00
  1.60000000E+01  1.00800000E+00  1.00800000E+00  1.60000000E+01  1.00800000E+00
  1.00800000E+00  1.60000000E+01  1.00800000E+00  1.00800000E+00  1.60000000E+01
  1.00800000E+00  1.00800000E+00  1.60000000E+01  1.00800000E+00  1.00800000E+00
  1.60000000E+01  1.00800000E+00  1.00800000E+00  1.60000000E+01  1.00800000E+00
  1.00800000E+00  1.60000000E+01  1.00800000E+00  1.00800000E+00  1.60000000E+01
  1.00800000E+00  1.00800000E+00  1.60000000E+01  1.00800000E+00  1.00800000E+00
  1.60000000E+01  1.00800000E+00  1.00800000E+00  1.60000000E+01  1.00800000E+00
  1.00800000E+00  1.60000000E+01  1.00800000E+00  1.00800000E+00  1.60000000E+01
  1.00800000E+00  1.00800000E+00  1.60000000E+01  1.00800000E+00  1.00800000E+00
  1.60000000E+01  1.00800000E+00  1.00800000E+00  1.60000000E+01  1.00800000E+00
  1.00800000E+00  1.60000000E+01  1.00800000E+00  1.00800000E+00  1.60000000E+01
  1.00800000E+00  1.00800000E+00  1.60000000E+01  1.00800000E+00  1.00800000E+00
  1.60000000E+01  1.00800000E+00  1.00800000E+00  1.60000000E+01  1.00800000E+00
  1.00800000E+00  1.60000000E+01  1.00800000E+00  1.00800000E+00  1.60000000E+01
  1.00800000E+00  1.00800000E+00  1.60000000E+01  1.00800000E+00  1.00800000E+00
  1.60000000E+01  1.00800000E+00  1.00800000E+00  1.60000000E+01  1.00800000E+00
  1.00800000E+00  1.60000000E+01  1.00800000E+00  1.00800000E+00  1.60000000E+01
  1.00800000E+00  1.00800000E+00  1.60000000E+01  1.00800000E+00  1.00800000E+00
  1.60000000E+01  1.00800000E+00  1.00800000E+00  1.60000000E+01  1.00800000E+00
  1.00800000E+00  1.60000000E+01  1.00800000E+00  1.00800000E+00  1.60000000E+01
  1.00800000E+00  1.00800000E+00  1.60000000E+01  1.00800000E+00  1.00800000E+00
  1.60000000E+01  1.00800000E+00  1.00800000E+00  1.60000000E+01  1.00800000E+00
  1.00800000E+00  1.60000000E+01  1.00800000E+00  1.00800000E+00  1.60000000E+01
  1.00800000E+00  1.00800000E+00  1.60000000E+01  1.00800000E+00  1.00800000E+00
  1.60000000E+01  1.00800000E+00  1.00800000E+00  1.60000000E+01  1.00800000E+00
  1.00800000E+00  1.60000000E+01  1.00800000E+00  1.00800000E+00  1.60000000E+01
  1.00800000E+00  1.00800000E+00  1.60000000E+01  1.00800000E+00  1.00800000E+00
  1.60000000E+01  1.00800000E+00  1.00800000E+00  1.60000000E+01  1.00800000E+00
  1.00800000E+00  1.60000000E+01  1.00800000E+00  1.00800000E+00  1.60000000E+01
  1.00800000E+00  1.00800000E+00  1.60000000E+01  1.00800000E+00  1.00800000E+00
  1.60000000E+01  1.00800000E+00  1.00800000E+00  1.60000000E+01  1.00800000E+00
  1.00800000E+00  1.60000000E+01  1.00800000E+00  1.00800000E+00  1.60000000E+01
  1.00800000E+00  1.00800000E+00  1.60000000E+01  1.00800000E+00  1.00800000E+00
  1.60000000E+01  1.00800000E+00  1.00800000E+00  1.60000000E+01  1.00800000E+00
  1.00800000E+00  1.60000000E+01  1.00800000E+00  1.00800000E+00  1.60000000E+01
  1.00800000E+00  1.00800000E+00  1.60000000E+01  1.00800000E+00  1.00800000E+00
  1.60000000E+01  1.00800000E+00  1.00800000E+00  1.60000000E+01  1.00800000E+00
  1.00800000E+00  1.60000000E+01  1.00800000E+00  1.00800000E+00  1.60000000E+01
  1.00800000E+00  1.00800000E+00  1.60000000E+01  1.00800000E+00  1.00800000E+00
  1.60000000E+01  1.00800000E+00  1.00800000E+00  1.60000000E+01  1.00800000E+00
  1.00800000E+00  1.60000000E+01  1.00800000E+00  1.00800000E+00  1.60000000E+01
  1.00800000E+00  1.00800000E+00  1.60000000E+01  1.00800000E+00  1.00800000E+00
  1.60000000E+01  1.00800000E+00  1.00800000E+00  1.60000000E+01  1.00800000E+00
  1.00800000E+00  1.60000000E+01  1.00800000E+00  1.00800000E+00  1.60000000E+01
  1.00800000E+00  1.00800000E+00  1.60000000E+01  1.00800000E+00  1.00800000E+00
  1.60000000E+01  1.00800000E+00  1.00800000E+00  1.60000000E+01  1.00800000E+00
  1.00800000E+00  1.60000000E+01  1.00800000E+00  1.00800000E+00  1.60000000E+01
  1.00800000E+00  1.00800000E+00  1.60000000E+01  1.00800000E+00  1.00800000E+00
  1.60000000E+01  1.00800000E+00  1.00800000E+00  1.60000000E+01  1.00800000E+00
  1.00800000E+00  1.60000000E+01  1.00800000E+00  1.00800000E+00  1.60000000E+01
  1.00800000E+00  1.00800000E+00  1.60000000E+01  1.00800000E+00  1.00800000E+00
  1.60000000E+01  1.00800000E+00  1.00800000E+00  1.60000000E+01  1.00800000E+00
  1.00800000E+00  1.60000000E+01  1.00800000E+00  1.00800000E+00  1.60000000E+01
  1.00800000E+00  1.00800000E+00  1.60000000E+01  1.00800000E+00  1.00800000E+00
  1.60000000E+01  1.00800000E+00  1.00800000E+00  1.60000000E+01  1.00800000E+00
  1.00800000E+00  1.60000000E+01  1.00800000E+00  1.00800000E+00  1.60000000E+01
  1.00800000E+00  1.00800000E+00  1.60000000E+01  1.00800000E+00  1.00800000E+00
  1.60000000E+01  1.00800000E+00  1.00800000E+00  1.60000000E+01  1.00800000E+00
  1.00800000E+00  1.60000000E+01  1.00800000E+00  1.00800000E+00  1.60000000E+01
  1.00800000E+00  1.00800000E+00  1.60000000E+01  1.00800000E+00  1.00800000E+00
  1.60000000E+01  1.00800000E+00  1.00800000E+00  1.60000000E+01  1.00800000E+00
  1.00800000E+00  1.60000000E+01  1.00800000E+00  1.00800000E+00  1.60000000E+01
  1.00800000E+00  1.00800000E+00  1.60000000E+01  1.00800000E+00  1.00800000E+00
  1.60000000E+01  1.00800000E+00  1.00800000E+00  1.60000000E+01  1.00800000E+00
  1.00800000E+00  1.60000000E+01  1.00800000E+00  1.00800000E+00  1.60000000E+01
  1.00800000E+00  1.00800000E+00  1.60000000E+01  1.00800000E+00  1.00800000E+00
  1.60000000E+01  1.00800000E+00  1.00800000E+00  1.60000000E+01  1.00800000E+00
  1.00800000E+00  1.60000000E+01  1.00800000E+00  1.00800000E+00  1.60000000E+01
  1.00800000E+00  1.00800000E+00  1.60000000E+01  1.00800000E+00  1.00800000E+00
  1.60000000E+01  1.00800000E+00  1.00800000E+00  1.60000000E+01  1.00800000E+00
  1.00800000E+00  1.60000000E+01  1.00800000E+00  1.00800000E+00  1.60000000E+01
  1.00800000E+00  1.00800000E+00  1.60000000E+01  1.00800000E+00  1.00800000E+00
  1.60000000E+01  1.00800000E+00  1.00800000E+00  1.60000000E+01  1.00800000E+00
  1.00800000E+00  1.60000000E+01  1.00800000E+00  1.00800000E+00  1.60000000E+01
  1.00800000E+00  1.00800000E+00  1.60000000E+01  1.00800000E+00  1.00800000E+00
  1.60000000E+01  1.00800000E+00  1.00800000E+00  1.60000000E+01  1.00800000E+00
  1.00800000E+00  1.60000000E+01  1.00800000E+00  1.00800000E+00  1.60000000E+01
  1.00800000E+00  1.00800000E+00  1.60000000E+01  1.00800000E+00  1.00800000E+00
  1.60000000E+01  1.00800000E+00  1.00800000E+00  1.60000000E+01  1.00800000E+00
  1.00800000E+00  1.60000000E+01  1.00800000E+00  1.00800000E+00  1.60000000E+01
  1.00800000E+00  1.00800000E+00  1.60000000E+01  1.00800000E+00  1.00800000E+00
  1.60000000E+01  1.00800000E+00  1.00800000E+00  1.60000000E+01  1.00800000E+00
  1.00800000E+00  1.60000000E+01  1.00800000E+00  1.00800000E+00  1.60000000E+01
  1.00800000E+00  1.00800000E+00  1.60000000E+01  1.00800000E+00  1.00800000E+00
  1.60000000E+01  1.00800000E+00  1.00800000E+00  1.60000000E+01  1.00800000E+00
  1.00800000E+00  1.60000000E+01  1.00800000E+00  1.00800000E+00  1.60000000E+01
  1.00800000E+00  1.00800000E+00  1.60000000E+01  1.00800000E+00  1.00800000E+00
  1.60000000E+01  1.00800000E+00  1.00800000E+00  1.60000000E+01  1.00800000E+00
  1.00800000E+00  1.60000000E+01  1.00800000E+00  1.00800000E+00  1.60000000E+01
  1.00800000E+00  1.00800000E+00  1.60000000E+01  1.00800000E+00  1.00800000E+00
  1.60000000E+01  1.00800000E+00  1.00800000E+00  1.60000000E+01  1.00800000E+00
  1.00800000E+00  1.60000000E+01  1.00800000E+00  1.00800000E+00  1.60000000E+01
  1.00800000E+00  1.00800000E+00  1.60000000E+01  1.00800000E+00  1.00800000E+00
  1.60000000E+01  1.00800000E+00  1.00800000E+00  1.60000000E+01  1.00800000E+00
  1.00800000E+00  1.60000000E+01  1.00800000E+00  1.00800000E+00  1.60000000E+01
  1.00800000E+00  1.00800000E+00  1.60000000E+01  1.00800000E+00  1.00800000E+00
  1.60000000E+01  1.00800000E+00  1.00800000E+00  1.60000000E+01  1.00800000E+00
  1.00800000E+00  1.60000000E+01  1.00800000E+00  1.00800000E+00  1.60000000E+01
  1.00800000E+00  1.00800000E+00  1.60000000E+01  1.00800000E+00  1.00800000E+00
  1.60000000E+01  1.00800000E+00  1.00800000E+00  1.60000000E+01  1.00800000E+00
  1.00800000E+00  1.60000000E+01  1.00800000E+00  1.00800000E+00  1.60000000E+01
  1.00800000E+00  1.00800000E+00  1.60000000E+01  1.00800000E+00  1.00800000E+00
  1.60000000E+01  1.00800000E+00  1.00800000E+00  1.60000000E+01  1.00800000E+00
  1.00800000E+00  1.60000000E+01  1.00800000E+00  1.00800000E+00  1.60000000E+01
  1.00800000E+00  1.00800000E+00  1.60000000E+01  1.00800000E+00  1.00800000E+00
  1.60000000E+01  1.00800000E+00  1.00800000E+00  1.60000000E+01  1.00800000E+00
  1.00800000E+00  1.60000000E+01  1.00800000E+00  1.00800000E+00  1.60000000E+01
  1.00800000E+00  1.00800000E+00  1.60000000E+01  1.00800000E+00  1.00800000E+00
  1.60000000E+01  1.00800000E+00  1.00800000E+00  1.60000000E+01  1.00800000E+00
  1.00800000E+00  1.60000000E+01  1.00800000E+00  1.00800000E+00  1.60000000E+01
  1.00800000E+00  1.00800000E+00  1.60000000E+01  1.00800000E+00  1.00800000E+00
  1.60000000E+01  1.00800000E+00  1.00800000E+00  1.60000000E+01  1.00800000E+00
  1.00800000E+00  1.60000000E+01  1.00800000E+00  1.00800000E+00  1.60000000E+01
  1.00800000E+00  1.00800000E+00  1.60000000E+01  1.00800000E+00  1.00800000E+00
  1.60000000E+01  1.00800000E+00  1.00800000E+00  1.60000000E+01  1.00800000E+00
  1.00800000E+00  1.60000000E+01  1.00800000E+00  1.00800000E+00  1.60000000E+01
  1.00800000E+00  1.00800000E+00  1.60000000E+01  1.00800000E+00  1.00800000E+00
  1.60000000E+01  1.00800000E+00  1.00800000E+00  1.60000000E+01  1.00800000E+00
  1.00800000E+00  1.60000000E+01  1.00800000E+00  1.00800000E+00  1.60000000E+01
  1.00800000E+00  1.00800000E+00  1.60000000E+01  1.00800000E+00  1.00800000E+00
  1.60000000E+01  1.00800000E+00  1.00800000E+00  1.60000000E+01  1.00800000E+00
  1.00800000E+00  1.60000000E+01  1.00800000E+00  1.00800000E+00  1.60000000E+01
  1.00800000E+00  1.00800000E+00  1.60000000E+01  1.00800000E+00  1.00800000E+00
  1.60000000E+01  1.00800000E+00  1.00800000E+00  1.60000000E+01  1.00800000E+00
  1.00800000E+00  1.60000000E+01  1.00800000E+00  1.00800000E+00  1.60000000E+01
  1.00800000E+00  1.00800000E+00  1.60000000E+01  1.00800000E+00  1.00800000E+00
  1.60000000E+01  1.00800000E+00  1.00800000E+00  1.60000000E+01  1.00800000E+00
  1.00800000E+00  1.60000000E+01  1.00800000E+00  1.00800000E+00  1.60000000E+01
  1.00800000E+00  1.00800000E+00  1.60000000E+01  1.00800000E+00  1.00800000E+00
  1.60000000E+01  1.00800000E+00  1.00800000E+00  1.60000000E+01  1.00800000E+00
  1.00800000E+00  1.60000000E+01  1.00800000E+00  1.00800000E+00  1.60000000E+01
  1.00800000E+00  1.00800000E+00  1.60000000E+01  1.00800000E+00  1.00800000E+00
  1.60000000E+01  1.00800000E+00  1.00800000E+00  1.60000000E+01  1.00800000E+00
  1.00800000E+00  1.60000000E+01  1.00800000E+00  1.00800000E+00  1.60000000E+01
  1.00800000E+00  1.00800000E+00  1.60000000E+01  1.00800000E+00  1.00800000E+00
  1.60000000E+01  1.00800000E+00  1.00800000E+00  1.60000000E+01  1.00800000E+00
  1.00800000E+00  1.60000000E+01  1.00800000E+00  1.00800000E+00  1.60000000E+01
  1.00800000E+00  1.00800000E+00  1.60000000E+01  1.00800000E+00  1.00800000E+00
  1.60000000E+01  1.00800000E+00  1.00800000E+00  1.60000000E+01  1.00800000E+00
  1.00800000E+00  1.60000000E+01  1.00800000E+00  1.00800000E+00  1.60000000E+01
  1.00800000E+00  1.00800000E+00  1.60000000E+01  1.00800000E+00  1.00800000E+00
  1.60000000E+01  1.00800000E+00  1.00800000E+00  1.60000000E+01  1.00800000E+00
  1.00800000E+00  1.60000000E+01  1.00800000E+00  1.00800000E+00  1.60000000E+01
  1.00800000E+00  1.00800000E+00  1.60000000E+01  1.00800000E+00  1.00800000E+00
  1.60000000E+01  1.00800000E+00  1.00800000E+00  1.60000000E+01  1.00800000E+00
  1.00800000E+00  1.60000000E+01  1.00800000E+00  1.00800000E+00  1.60000000E+01
  1.00800000E+00  1.00800000E+00  1.60000000E+01  1.00800000E+00  1.00800000E+00
  1.60000000E+01  1.00800000E+00  1.00800000E+00  1.60000000E+01  1.00800000E+00
  1.00800000E+00  1.60000000E+01  1.00800000E+00  1.00800000E+00  1.60000000E+01
  1.00800000E+00  1.00800000E+00  1.60000000E+01  1.00800000E+00  1.00800000E+00
  1.60000000E+01  1.00800000E+00  1.00800000E+00  1.60000000E+01  1.00800000E+00
  1.00800000E+00  1.60000000E+01  1.00800000E+00  1.00800000E+00  1.60000000E+01
  1.00800000E+00  1.00800000E+00  1.60000000E+01  1.00800000E+00  1.00800000E+00
  1.60000000E+01  1.00800000E+00  1.00800000E+00  1.60000000E+01  1.00800000E+00
  1.00800000E+00  1.60000000E+01  1.00800000E+00  1.00800000E+00  1.60000000E+01
  1.00800000E+00  1.00800000E+00  1.60000000E+01  1.00800000E+00  1.00800000E+00
  1.60000000E+01  1.00800000E+00  1.00800000E+00  1.60000000E+01  1.00800000E+00
  1.00800000E+00  1.60000000E+01  1.00800000E+00  1.00800000E+00  1.60000000E+01
  1.00800000E+00  1.00800000E+00  1.60000000E+01  1.00800000E+00  1.00800000E+00
  1.60000000E+01  1.00800000E+00  1.00800000E+00  1.60000000E+01  1.00800000E+00
  1.00800000E+00  1.60000000E+01  1.00800000E+00  1.00800000E+00  1.60000000E+01
  1.00800000E+00  1.00800000E+00  1.60000000E+01  1.00800000E+00  1.00800000E+00
  1.60000000E+01  1.00800000E+00  1.00800000E+00  1.60000000E+01  1.00800000E+00
  1.00800000E+00  1.60000000E+01  1.00800000E+00  1.00800000E+00  1.60000000E+01
  1.00800000E+00  1.00800000E+00  1.60000000E+01  1.00800000E+00  1.00800000E+00
  1.60000000E+01  1.00800000E+00  1.00800000E+00  1.60000000E+01  1.00800000E+00
  1.00800000E+00  1.60000000E+01  1.00800000E+00  1.00800000E+00  1.60000000E+01
  1.00800000E+00  1.00800000E+00  1.60000000E+01  1.00800000E+00  1.00800000E+00
  1.60000000E+01  1.00800000E+00  1.00800000E+00  1.60000000E+01  1.00800000E+00
  1.00800000E+00  1.60000000E+01  1.00800000E+00  1.00800000E+00  1.60000000E+01
  1.00800000E+00  1.00800000E+00  1.60000000E+01  1.00800000E+00  1.00800000E+00
  1.60000000E+01  1.00800000E+00  1.00800000E+00  1.60000000E+01  1.00800000E+00
  1.00800000E+00  1.60000000E+01  1.00800000E+00  1.00800000E+00  1.60000000E+01
  1.00800000E+00  1.00800000E+00  1.60000000E+01  1.00800000E+00  1.00800000E+00
  1.60000000E+01  1.00800000E+00  1.00800000E+00  1.60000000E+01  1.00800000E+00
  1.00800000E+00  1.60000000E+01  1.00800000E+00  1.00800000E+00  1.60000000E+01
  1.00800000E+00  1.00800000E+00  1.60000000E+01  1.00800000E+00  1.00800000E+00
  1.60000000E+01  1.00800000E+00  1.00800000E+00  1.60000000E+01  1.00800000E+00
  1.00800000E+00  1.60000000E+01  1.00800000E+00  1.00800000E+00  1.60000000E+01
  1.00800000E+00  1.00800000E+00  1.60000000E+01  1.00800000E+00  1.00800000E+00
  1.60000000E+01  1.00800000E+00  1.00800000E+00  1.60000000E+01  1.00800000E+00
  1.00800000E+00  1.60000000E+01  1.00800000E+00  1.00800000E+00  1.60000000E+01
  1.00800000E+00  1.00800000E+00  1.60000000E+01  1.00800000E+00  1.00800000E+00
  1.60000000E+01  1.00800000E+00  1.00800000E+00  1.60000000E+01  1.00800000E+00
  1.00800000E+00  1.60000000E+01  1.00800000E+00  1.00800000E+00  1.60000000E+01
  1.00800000E+00  1.00800000E+00  1.60000000E+01  1.00800000E+00  1.00800000E+00
  1.60000000E+01  1.00800000E+00  1.00800000E+00  1.60000000E+01  1.00800000E+00
  1.00800000E+00  1.60000000E+01  1.00800000E+00  1.00800000E+00  1.60000000E+01
  1.00800000E+00  1.00800000E+00  1.60000000E+01  1.00800000E+00  1.00800000E+00
  1.60000000E+01  1.00800000E+00  1.00800000E+00  1.60000000E+01  1.00800000E+00
  1.00800000E+00  1.60000000E+01  1.00800000E+00  1.00800000E+00  1.60000000E+01
  1.00800000E+00  1.00800000E+00  1.60000000E+01  1.00800000E+00  1.00800000E+00
  1.60000000E+01  1.00800000E+00  1.00800000E+00  1.60000000E+01  1.00800000E+00
  1.00800000E+00  1.60000000E+01  1.00800000E+00  1.00800000E+00  1.60000000E+01
  1.00800000E+00  1.00800000E+00  1.60000000E+01  1.00800000E+00  1.00800000E+00
  1.60000000E+01  1.00800000E+00  1.00800000E+00  1.60000000E+01  1.00800000E+00
  1.00800000E+00  1.60000000E+01  1.00800000E+00  1.00800000E+00  1.60000000E+01
  1.00800000E+00  1.00800000E+00  1.60000000E+01  1.00800000E+00  1.00800000E+00
  1.60000000E+01  1.00800000E+00  1.00800000E+00  1.60000000E+01  1.00800000E+00
  1.00800000E+00  1.60000000E+01  1.00800000E+00  1.00800000E+00  1.60000000E+01
  1.00800000E+00  1.00800000E+00  1.60000000E+01  1.00800000E+00  1.00800000E+00
  1.60000000E+01  1.00800000E+00  1.00800000E+00  1.60000000E+01  1.00800000E+00
  1.00800000E+00  1.60000000E+01  1.00800000E+00  1.00800000E+00  1.60000000E+01
  1.00800000E+00  1.00800000E+00  1.60000000E+01  1.00800000E+00  1.00800000E+00
  1.60000000E+01  1.00800000E+00  1.00800000E+00  1.60000000E+01  1.00800000E+00
  1.00800000E+00  1.60000000E+01  1.00800000E+00  1.00800000E+00  1.60000000E+01
  1.00800000E+00  1.00800000E+00  1.60000000E+01  1.00800000E+00  1.00800000E+00
  1.60000000E+01  1.00800000E+00  1.00800000E+00  1.60000000E+01  1.00800000E+00
  1.00800000E+00  1.60000000E+01  1.00800000E+00  1.00800000E+00  1.60000000E+01
  1.00800000E+00  1.00800000E+00  1.60000000E+01  1.00800000E+00  1.00800000E+00
  1.60000000E+01  1.00800000E+00  1.00800000E+00  1.60000000E+01  1.00800000E+00
  1.00800000E+00  1.60000000E+01  1.00800000E+00  1.00800000E+00  1.60000000E+01
  1.00800000E+00  1.00800000E+00  1.60000000E+01  1.00800000E+00  1.00800000E+00
  1.60000000E+01  1.00800000E+00  1.00800000E+00  1.60000000E+01  1.00800000E+00
  1.00800000E+00  1.60000000E+01  1.00800000E+00  1.00800000E+00  1.60000000E+01
  1.00800000E+00  1.00800000E+00  1.60000000E+01  1.00800000E+00  1.00800000E+00
  1.60000000E+01  1.00800000E+00  1.00800000E+00  1.60000000E+01  1.00800000E+00
  1.00800000E+00  1.60000000E+01  1.00800000E+00  1.00800000E+00  1.60000000E+01
  1.00800000E+00  1.00800000E+00  1.60000000E+01  1.00800000E+00  1.00800000E+00
  1.60000000E+01  1.00800000E+00  1.00800000E+00  1.60000000E+01  1.00800000E+00
  1.00800000E+00  1.60000000E+01  1.00800000E+00  1.00800000E+00  1.60000000E+01
  1.00800000E+00  1.00800000E+00  1.60000000E+01  1.00800000E+00  1.00800000E+00
  1.60000000E+01  1.00800000E+00  1.00800000E+00  1.60000000E+01  1.00800000E+00
  1.00800000E+00  1.60000000E+01  1.00800000E+00  1.00800000E+00  1.60000000E+01
  1.00800000E+00  1.00800000E+00  1.60000000E+01  1.00800000E+00  1.00800000E+00
  1.60000000E+01  1.00800000E+00  1.00800000E+00  1.60000000E+01  1.00800000E+00
  1.00800000E+00  1.60000000E+01  1.00800000E+00  1.00800000E+00  1.60000000E+01
  1.00800000E+00  1.00800000E+00  1.60000000E+01  1.00800000E+00  1.00800000E+00
  1.60000000E+01  1.00800000E+00  1.00800000E+00  1.60000000E+01  1.00800000E+00
  1.00800000E+00  1.60000000E+01  1.00800000E+00  1.00800000E+00  1.60000000E+01
  1.00800000E+00  1.00800000E+00  1.60000000E+01  1.00800000E+00  1.00800000E+00
  1.60000000E+01  1.00800000E+00  1.00800000E+00  1.60000000E+01  1.00800000E+00
  1.00800000E+00  1.60000000E+01  1.00800000E+00  1.00800000E+00  1.60000000E+01
  1.00800000E+00  1.00800000E+00  1.60000000E+01  1.00800000E+00  1.00800000E+00
  1.60000000E+01  1.00800000E+00  1.00800000E+00  1.60000000E+01  1.00800000E+00
  1.00800000E+00  1.60000000E+01  1.00800000E+00  1.00800000E+00  1.60000000E+01
  1.00800000E+00  1.00800000E+00  1.60000000E+01  1.00800000E+00  1.00800000E+00
  1.60000000E+01  1.00800000E+00  1.00800000E+00  1.60000000E+01  1.00800000E+00
  1.00800000E+00  1.60000000E+01  1.00800000E+00  1.00800000E+00  1.60000000E+01
  1.00800000E+00  1.00800000E+00  1.60000000E+01  1.00800000E+00  1.00800000E+00
  1.60000000E+01  1.00800000E+00  1.00800000E+00  1.60000000E+01  1.00800000E+00
  1.00800000E+00  1.60000000E+01  1.00800000E+00  1.00800000E+00  1.60000000E+01
  1.00800000E+00  1.00800000E+00  1.60000000E+01  1.00800000E+00  1.00800000E+00
  1.60000000E+01  1.00800000E+00  1.00800000E+00  1.60000000E+01  1.00800000E+00
  1.00800000E+00  1.60000000E+01  1.00800000E+00  1.00800000E+00  1.60000000E+01
  1.00800000E+00  1.00800000E+00  1.60000000E+01  1.00800000E+00  1.00800000E+00
  1.60000000E+01  1.00800000E+00  1.00800000E+00  1.60000000E+01  1.00800000E+00
  1.00800000E+00  1.60000000E+01  1.00800000E+00  1.00800000E+00  1.60000000E+01
  1.00800000E+00  1.00800000E+00  1.60000000E+01  1.00800000E+00  1.00800000E+00
  1.60000000E+01  1.00800000E+00  1.00800000E+00  1.60000000E+01  1.00800000E+00
  1.00800000E+00  1.60000000E+01  1.00800000E+00  1.00800000E+00  1.60000000E+01
  1.00800000E+00  1.00800000E+00  1.60000000E+01  1.00800000E+00  1.00800000E+00
  1.60000000E+01  1.00800000E+00  1.00800000E+00  1.60000000E+01  1.00800000E+00
  1.00800000E+00  1.60000000E+01  1.00800000E+00  1.00800000E+00  1.60000000E+01
  1.00800000E+00  1.00800000E+00  1.60000000E+01  1.00800000E+00  1.00800000E+00
  1.60000000E+01  1.00800000E+00  1.00800000E+00  1.60000000E+01  1.00800000E+00
  1.00800000E+00  1.60000000E+01  1.00800000E+00  1.00800000E+00  1.60000000E+01
  1.00800000E+00  1.00800000E+00  1.60000000E+01  1.00800000E+00  1.00800000E+00
  1.60000000E+01  1.00800000E+00  1.00800000E+00  1.60000000E+01  1.00800000E+00
  1.00800000E+00  1.60000000E+01  1.00800000E+00  1.00800000E+00  1.60000000E+01
  1.00800000E+00  1.00800000E+00  1.60000000E+01  1.00800000E+00  1.00800000E+00
  1.60000000E+01  1.00800000E+00  1.00800000E+00  1.60000000E+01  1.00800000E+00
  1.00800000E+00  1.60000000E+01  1.00800000E+00  1.00800000E+00  1.60000000E+01
  1.00800000E+00  1.00800000E+00  1.60000000E+01  1.00800000E+00  1.00800000E+00
  1.60000000E+01  1.00800000E+00  1.00800000E+00  1.60000000E+01  1.00800000E+00
  1.00800000E+00  1.60000000E+01  1.00800000E+00  1.00800000E+00  1.60000000E+01
  1.00800000E+00  1.00800000E+00  1.60000000E+01  1.00800000E+00  1.00800000E+00
  1.60000000E+01  1.00800000E+00  1.00800000E+00  1.60000000E+01  1.00800000E+00
  1.00800000E+00  1.60000000E+01  1.00800000E+00  1.00800000E+00  1.60000000E+01
  1.00800000E+00  1.00800000E+00  1.60000000E+01  1.00800000E+00  1.00800000E+00
  1.60000000E+01  1.00800000E+00  1.00800000E+00  1.60000000E+01  1.00800000E+00
  1.00800000E+00  1.60000000E+01  1.00800000E+00  1.00800000E+00  1.60000000E+01
  1.00800000E+00  1.00800000E+00  1.60000000E+01  1.00800000E+00  1.00800000E+00
  1.60000000E+01  1.00800000E+00  1.00800000E+00  1.60000000E+01  1.00800000E+00
  1.00800000E+00  1.60000000E+01  1.00800000E+00  1.00800000E+00  1.60000000E+01
  1.00800000E+00  1.00800000E+00  1.60000000E+01  1.00800000E+00  1.00800000E+00
  1.60000000E+01  1.00800000E+00  1.00800000E+00  1.60000000E+01  1.00800000E+00
  1.00800000E+00  1.60000000E+01  1.00800000E+00  1.00800000E+00  1.60000000E+01
  1.00800000E+00  1.00800000E+00  1.60000000E+01  1.00800000E+00  1.00800000E+00
  1.60000000E+01  1.00800000E+00  1.00800000E+00  1.60000000E+01  1.00800000E+00
  1.00800000E+00  1.60000000E+01  1.00800000E+00  1.00800000E+00  1.60000000E+01
  1.00800000E+00  1.00800000E+00  1.60000000E+01  1.00800000E+00  1.00800000E+00
  1.60000000E+01  1.00800000E+00  1.00800000E+00  1.60000000E+01  1.00800000E+00
  1.00800000E+00  1.60000000E+01  1.00800000E+00  1.00800000E+00  1.60000000E+01
  1.00800000E+00  1.00800000E+00  1.60000000E+01  1.00800000E+00  1.00800000E+00
  1.60000000E+01  1.00800000E+00  1.00800000E+00  1.60000000E+01  1.00800000E+00
  1.00800000E+00  1.60000000E+01  1.00800000E+00  1.00800000E+00  1.60000000E+01
  1.00800000E+00  1.00800000E+00  1.60000000E+01  1.00800000E+00  1.00800000E+00
  1.60000000E+01  1.00800000E+00  1.00800000E+00  1.60000000E+01  1.00800000E+00
  1.00800000E+00  1.60000000E+01  1.00800000E+00  1.00800000E+00  1.60000000E+01
  1.00800000E+00  1.00800000E+00  1.60000000E+01  1.00800000E+00  1.00800000E+00
  1.60000000E+01  1.00800000E+00  1.00800000E+00  1.60000000E+01  1.00800000E+00
  1.00800000E+00  1.60000000E+01  1.00800000E+00  1.00800000E+00  1.60000000E+01
  1.00800000E+00  1.00800000E+00  1.60000000E+01  1.00800000E+00  1.00800000E+00
  1.60000000E+01  1.00800000E+00  1.00800000E+00  1.60000000E+01  1.00800000E+00
  1.00800000E+00  1.60000000E+01  1.00800000E+00  1.00800000E+00  1.60000000E+01
  1.00800000E+00  1.00800000E+00  1.60000000E+01  1.00800000E+00  1.00800000E+00
  1.60000000E+01  1.00800000E+00  1.00800000E+00  1.60000000E+01  1.00800000E+00
  1.00800000E+00  1.60000000E+01  1.00800000E+00  1.00800000E+00  1.60000000E+01
  1.00800000E+00  1.00800000E+00  1.60000000E+01  1.00800000E+00  1.00800000E+00
  1.60000000E+01  1.00800000E+00  1.00800000E+00  1.60000000E+01  1.00800000E+00
  1.00800000E+00  1.60000000E+01  1.00800000E+00  1.00800000E+00  1.60000000E+01
  1.00800000E+00  1.00800000E+00  1.60000000E+01  1.00800000E+00  1.00800000E+00
  1.60000000E+01  1.00800000E+00  1.00800000E+00  1.60000000E+01  1.00800000E+00
  1.00800000E+00  1.60000000E+01  1.00800000E+00  1.00800000E+00  1.60000000E+01
  1.00800000E+00  1.00800000E+00  1.60000000E+01  1.00800000E+00  1.00800000E+00
  1.60000000E+01  1.00800000E+00  1.00800000E+00  1.60000000E+01  1.00800000E+00
  1.00800000E+00  1.60000000E+01  1.00800000E+00  1.00800000E+00  1.60000000E+01
  1.00800000E+00  1.00800000E+00  1.60000000E+01  1.00800000E+00  1.00800000E+00
  1.60000000E+01  1.00800000E+00  1.00800000E+00  1.60000000E+01  1.00800000E+00
  1.00800000E+00  1.60000000E+01  1.00800000E+00  1.00800000E+00  1.60000000E+01
  1.00800000E+00  1.00800000E+00  1.60000000E+01  1.00800000E+00  1.00800000E+00
  1.60000000E+01  1.00800000E+00  1.00800000E+00  1.60000000E+01  1.00800000E+00
  1.00800000E+00  1.60000000E+01  1.00800000E+00  1.00800000E+00  1.60000000E+01
  1.00800000E+00  1.00800000E+00  1.60000000E+01  1.00800000E+00  1.00800000E+00
  1.60000000E+01  1.00800000E+00  1.00800000E+00  1.60000000E+01  1.00800000E+00
  1.00800000E+00  1.60000000E+01  1.00800000E+00  1.00800000E+00  1.60000000E+01
  1.00800000E+00  1.00800000E+00  1.60000000E+01  1.00800000E+00  1.00800000E+00
  1.60000000E+01  1.00800000E+00  1.00800000E+00  1.60000000E+01  1.00800000E+00
  1.00800000E+00  1.60000000E+01  1.00800000E+00  1.00800000E+00  1.60000000E+01
  1.00800000E+00  1.00800000E+00  1.60000000E+01  1.00800000E+00  1.00800000E+00
  1.60000000E+01  1.00800000E+00  1.00800000E+00  1.60000000E+01  1.00800000E+00
  1.00800000E+00  1.60000000E+01  1.00800000E+00  1.00800000E+00  1.60000000E+01
  1.00800000E+00  1.00800000E+00  1.60000000E+01  1.00800000E+00  1.00800000E+00
  1.60000000E+01  1.00800000E+00  1.00800000E+00  1.60000000E+01  1.00800000E+00
  1.00800000E+00  1.60000000E+01  1.00800000E+00  1.00800000E+00  1.60000000E+01
  1.00800000E+00  1.00800000E+00  1.60000000E+01  1.00800000E+00  1.00800000E+00
  1.60000000E+01  1.00800000E+00  1.00800000E+00  1.60000000E+01  1.00800000E+00
  1.00800000E+00  1.60000000E+01  1.00800000E+00  1.00800000E+00  1.60000000E+01
  1.00800000E+00  1.00800000E+00  1.60000000E+01  1.00800000E+00  1.00800000E+00
  1.60000000E+01  1.00800000E+00  1.00800000E+00  1.60000000E+01  1.00800000E+00
  1.00800000E+00  1.60000000E+01  1.00800000E+00  1.00800000E+00  1.60000000E+01
  1.00800000E+00  1.00800000E+00  1.60000000E+01  1.00800000E+00  1.00800000E+00
  1.60000000E+01  1.00800000E+00  1.00800000E+00  1.60000000E+01  1.00800000E+00
  1.00800000E+00  1.60000000E+01  1.00800000E+00  1.00800000E+00  1.60000000E+01
  1.00800000E+00  1.00800000E+00  1.60000000E+01  1.00800000E+00  1.00800000E+00
  1.60000000E+01  1.00800000E+00  1.00800000E+00  1.60000000E+01  1.00800000E+00
  1.00800000E+00  1.60000000E+01  1.00800000E+00  1.00800000E+00  1.60000000E+01
  1.00800000E+00  1.00800000E+00  1.60000000E+01  1.00800000E+00  1.00800000E+00
  1.60000000E+01  1.00800000E+00  1.00800000E+00  1.60000000E+01  1.00800000E+00
  1.00800000E+00  1.60000000E+01  1.00800000E+00  1.00800000E+00  1.60000000E+01
  1.00800000E+00  1.00800000E+00  1.60000000E+01  1.00800000E+00  1.00800000E+00
  1.60000000E+01  1.00800000E+00  1.00800000E+00  1.60000000E+01  1.00800000E+00
  1.00800000E+00  1.60000000E+01  1.00800000E+00  1.00800000E+00  1.60000000E+01
  1.00800000E+00  1.00800000E+00  1.60000000E+01  1.00800000E+00  1.00800000E+00
  1.60000000E+01  1.00800000E+00  1.00800000E+00  1.60000000E+01  1.00800000E+00
  1.00800000E+00  1.60000000E+01  1.00800000E+00  1.00800000E+00  1.60000000E+01
  1.00800000E+00  1.00800000E+00  1.60000000E+01  1.00800000E+00  1.00800000E+00
  1.60000000E+01  1.00800000E+00  1.00800000E+00  1.60000000E+01  1.00800000E+00
  1.00800000E+00  1.60000000E+01  1.00800000E+00  1.00800000E+00  1.60000000E+01
  1.00800000E+00  1.00800000E+00  1.60000000E+01  1.00800000E+00  1.00800000E+00
  1.60000000E+01  1.00800000E+00  1.00800000E+00  1.60000000E+01  1.00800000E+00
  1.00800000E+00  1.60000000E+01  1.00800000E+00  1.00800000E+00  1.60000000E+01
  1.00800000E+00  1.00800000E+00  1.60000000E+01  1.00800000E+00  1.00800000E+00
  1.60000000E+01  1.00800000E+00  1.00800000E+00  1.60000000E+01  1.00800000E+00
  1.00800000E+00  1.60000000E+01  1.00800000E+00  1.00800000E+00  1.60000000E+01
  1.00800000E+00  1.00800000E+00  1.60000000E+01  1.00800000E+00  1.00800000E+00
  1.60000000E+01  1.00800000E+00  1.00800000E+00  1.60000000E+01  1.00800000E+00
  1.00800000E+00  1.60000000E+01  1.00800000E+00  1.00800000E+00  1.60000000E+01
  1.00800000E+00  1.00800000E+00  1.60000000E+01  1.00800000E+00  1.00800000E+00
  1.60000000E+01  1.00800000E+00  1.00800000E+00  1.60000000E+01  1.00800000E+00
  1.00800000E+00  1.60000000E+01  1.00800000E+00  1.00800000E+00  1.60000000E+01
  1.00800000E+00  1.00800000E+00  1.60000000E+01  1.00800000E+00  1.00800000E+00
  1.60000000E+01  1.00800000E+00  1.00800000E+00  1.60000000E+01  1.00800000E+00
  1.00800000E+00  1.60000000E+01  1.00800000E+00  1.00800000E+00  1.60000000E+01
  1.00800000E+00  1.00800000E+00  1.60000000E+01  1.00800000E+00  1.00800000E+00
  1.60000000E+01  1.00800000E+00  1.00800000E+00  1.60000000E+01  1.00800000E+00
  1.00800000E+00  1.60000000E+01  1.00800000E+00  1.00800000E+00  1.60000000E+01
  1.00800000E+00  1.00800000E+00  1.60000000E+01  1.00800000E+00  1.00800000E+00
  1.60000000E+01  1.00800000E+00  1.00800000E+00  1.60000000E+01  1.00800000E+00
  1.00800000E+00  1.60000000E+01  1.00800000E+00  1.00800000E+00  1.60000000E+01
  1.00800000E+00  1.00800000E+00  1.60000000E+01  1.00800000E+00  1.00800000E+00
  1.60000000E+01  1.00800000E+00  1.00800000E+00  1.60000000E+01  1.00800000E+00
  1.00800000E+00  1.60000000E+01  1.00800000E+00  1.00800000E+00  1.60000000E+01
  1.00800000E+00  1.00800000E+00  1.60000000E+01  1.00800000E+00  1.00800000E+00
  1.60000000E+01  1.00800000E+00  1.00800000E+00  1.60000000E+01  1.00800000E+00
  1.00800000E+00  1.60000000E+01  1.00800000E+00  1.00800000E+00  1.60000000E+01
  1.00800000E+00  1.00800000E+00  1.60000000E+01  1.00800000E+00  1.00800000E+00
  1.60000000E+01  1.00800000E+00  1.00800000E+00  1.60000000E+01  1.00800000E+00
  1.00800000E+00  1.60000000E+01  1.00800000E+00  1.00800000E+00  1.60000000E+01
  1.00800000E+00  1.00800000E+00  1.60000000E+01  1.00800000E+00  1.00800000E+00
  1.60000000E+01  1.00800000E+00  1.00800000E+00  1.60000000E+01  1.00800000E+00
  1.00800000E+00  1.60000000E+01  1.00800000E+00  1.00800000E+00  1.60000000E+01
  1.00800000E+00  1.00800000E+00  1.60000000E+01  1.00800000E+00  1.00800000E+00
  1.60000000E+01  1.00800000E+00  1.00800000E+00  1.60000000E+01  1.00800000E+00
  1.00800000E+00  1.60000000E+01  1.00800000E+00  1.00800000E+00  1.60000000E+01
  1.00800000E+00  1.00800000E+00  1.60000000E+01  1.00800000E+00  1.00800000E+00
  1.60000000E+01  1.00800000E+00  1.00800000E+00  1.60000000E+01  1.00800000E+00
  1.00800000E+00  1.60000000E+01  1.00800000E+00  1.00800000E+00  1.60000000E+01
  1.00800000E+00  1.00800000E+00  1.60000000E+01  1.00800000E+00  1.00800000E+00
  1.60000000E+01  1.00800000E+00  1.00800000E+00  1.60000000E+01  1.00800000E+00
  1.00800000E+00  1.60000000E+01  1.00800000E+00  1.00800000E+00  1.60000000E+01
  1.00800000E+00  1.00800000E+00  1.60000000E+01  1.00800000E+00  1.00800000E+00
  1.60000000E+01  1.00800000E+00  1.00800000E+00  1.60000000E+01  1.00800000E+00
  1.00800000E+00  1.60000000E+01  1.00800000E+00  1.00800000E+00  1.60000000E+01
  1.00800000E+00  1.00800000E+00  1.60000000E+01  1.00800000E+00  1.00800000E+00
  1.60000000E+01  1.00800000E+00  1.00800000E+00  1.60000000E+01  1.00800000E+00
  1.00800000E+00  1.60000000E+01  1.00800000E+00  1.00800000E+00  1.60000000E+01
  1.00800000E+00  1.00800000E+00  1.60000000E+01  1.00800000E+00  1.00800000E+00
  1.60000000E+01  1.00800000E+00  1.00800000E+00  1.60000000E+01  1.00800000E+00
  1.00800000E+00  1.60000000E+01  1.00800000E+00  1.00800000E+00  1.60000000E+01
  1.00800000E+00  1.00800000E+00  1.60000000E+01  1.00800000E+00  1.00800000E+00
  1.60000000E+01  1.00800000E+00  1.00800000E+00  1.60000000E+01  1.00800000E+00
  1.00800000E+00  1.60000000E+01  1.00800000E+00  1.00800000E+00  1.60000000E+01
  1.00800000E+00  1.00800000E+00  1.60000000E+01  1.00800000E+00  1.00800000E+00
  1.60000000E+01  1.00800000E+00  1.00800000E+00  1.60000000E+01  1.00800000E+00
  1.00800000E+00  1.60000000E+01  1.00800000E+00  1.00800000E+00  1.60000000E+01
  1.00800000E+00  1.00800000E+00  1.60000000E+01  1.00800000E+00  1.00800000E+00
  1.60000000E+01  1.00800000E+00  1.00800000E+00  1.60000000E+01  1.00800000E+00
  1.00800000E+00  1.60000000E+01  1.00800000E+00  1.00800000E+00  1.60000000E+01
  1.00800000E+00  1.00800000E+00  1.60000000E+01  1.00800000E+00  1.00800000E+00
  1.60000000E+01  1.00800000E+00  1.00800000E+00  1.60000000E+01  1.00800000E+00
  1.00800000E+00  1.60000000E+01  1.00800000E+00  1.00800000E+00  1.60000000E+01
  1.00800000E+00  1.00800000E+00  1.60000000E+01  1.00800000E+00  1.00800000E+00
  1.60000000E+01  1.00800000E+00  1.00800000E+00  1.60000000E+01  1.00800000E+00
  1.00800000E+00  1.60000000E+01  1.00800000E+00  1.00800000E+00  1.60000000E+01
  1.00800000E+00  1.00800000E+00  1.60000000E+01  1.00800000E+00  1.00800000E+00
  1.60000000E+01  1.00800000E+00  1.00800000E+00  1.60000000E+01  1.00800000E+00
  1.00800000E+00  1.60000000E+01  1.00800000E+00  1.00800000E+00  1.60000000E+01
  1.00800000E+00  1.00800000E+00  1.60000000E+01  1.00800000E+00  1.00800000E+00
  1.60000000E+01  1.00800000E+00  1.00800000E+00  1.60000000E+01  1.00800000E+00
  1.00800000E+00  1.60000000E+01  1.00800000E+00  1.00800000E+00  1.60000000E+01
  1.00800000E+00  1.00800000E+00  1.60000000E+01  1.00800000E+00  1.00800000E+00
  1.60000000E+01  1.00800000E+00  1.00800000E+00  1.60000000E+01  1.00800000E+00
  1.00800000E+00  1.60000000E+01  1.00800000E+00  1.00800000E+00  1.60000000E+01
  1.00800000E+00  1.00800000E+00  1.60000000E+01  1.00800000E+00  1.00800000E+00
  1.60000000E+01  1.00800000E+00  1.00800000E+00  1.60000000E+01  1.00800000E+00
  1.00800000E+00  1.60000000E+01  1.00800000E+00  1.00800000E+00  1.60000000E+01
  1.00800000E+00  1.00800000E+00  1.60000000E+01  1.00800000E+00  1.00800000E+00
  1.60000000E+01  1.00800000E+00  1.00800000E+00  1.60000000E+01  1.00800000E+00
  1.00800000E+00  1.60000000E+01  1.00800000E+00  1.00800000E+00  1.60000000E+01
  1.00800000E+00  1.00800000E+00  1.60000000E+01  1.00800000E+00  1.00800000E+00
  1.60000000E+01  1.00800000E+00  1.00800000E+00  1.60000000E+01  1.00800000E+00
  1.00800000E+00  1.60000000E+01  1.00800000E+00  1.00800000E+00  1.60000000E+01
  1.00800000E+00  1.00800000E+00  1.60000000E+01  1.00800000E+00  1.00800000E+00
  1.60000000E+01  1.00800000E+00  1.00800000E+00  1.60000000E+01  1.00800000E+00
  1.00800000E+00  1.60000000E+01  1.00800000E+00  1.00800000E+00  1.60000000E+01
  1.00800000E+00  1.00800000E+00  1.60000000E+01  1.00800000E+00  1.00800000E+00
  1.60000000E+01  1.00800000E+00  1.00800000E+00  1.60000000E+01  1.00800000E+00
  1.00800000E+00  1.60000000E+01  1.00800000E+00  1.00800000E+00  1.60000000E+01
  1.00800000E+00  1.00800000E+00  1.60000000E+01  1.00800000E+00  1.00800000E+00
  1.60000000E+01  1.00800000E+00  1.00800000E+00  1.60000000E+01  1.00800000E+00
  1.00800000E+00  1.60000000E+01  1.00800000E+00  1.00800000E+00  1.60000000E+01
  1.00800000E+00  1.00800000E+00  1.60000000E+01  1.00800000E+00  1.00800000E+00
  1.60000000E+01  1.00800000E+00  1.00800000E+00  1.60000000E+01  1.00800000E+00
  1.00800000E+00  1.60000000E+01  1.00800000E+00  1.00800000E+00  1.60000000E+01
  1.00800000E+00  1.00800000E+00  1.60000000E+01  1.00800000E+00  1.00800000E+00
  1.60000000E+01  1.00800000E+00  1.00800000E+00  1.60000000E+01  1.00800000E+00
  1.00800000E+00  1.60000000E+01  1.00800000E+00  1.00800000E+00  1.60000000E+01
  1.00800000E+00  1.00800000E+00  1.60000000E+01  1.00800000E+00  1.00800000E+00
  1.60000000E+01  1.00800000E+00  1.00800000E+00  1.60000000E+01  1.00800000E+00
  1.00800000E+00  1.60000000E+01  1.00800000E+00  1.00800000E+00  1.60000000E+01
  1.00800000E+00  1.00800000E+00  1.60000000E+01  1.00800000E+00  1.00800000E+00
  1.60000000E+01  1.00800000E+00  1.00800000E+00  1.60000000E+01  1.00800000E+00
  1.00800000E+00  1.60000000E+01  1.00800000E+00  1.00800000E+00  1.60000000E+01
  1.00800000E+00  1.00800000E+00  1.60000000E+01  1.00800000E+00  1.00800000E+00
  1.60000000E+01  1.00800000E+00  1.00800000E+00  1.60000000E+01  1.00800000E+00
  1.00800000E+00  1.60000000E+01  1.00800000E+00  1.00800000E+00  1.60000000E+01
  1.00800000E+00  1.00800000E+00  1.60000000E+01  1.00800000E+00  1.00800000E+00
  1.60000000E+01  1.00800000E+00  1.00800000E+00  1.60000000E+01  1.00800000E+00
  1.00800000E+00  1.60000000E+01  1.00800000E+00  1.00800000E+00  1.60000000E+01
  1.00800000E+00  1.00800000E+00  1.60000000E+01  1.00800000E+00  1.00800000E+00
  1.60000000E+01  1.00800000E+00  1.00800000E+00  1.60000000E+01  1.00800000E+00
  1.00800000E+00  1.60000000E+01  1.00800000E+00  1.00800000E+00  1.60000000E+01
  1.00800000E+00  1.00800000E+00  1.60000000E+01  1.00800000E+00  1.00800000E+00
  1.60000000E+01  1.00800000E+00  1.00800000E+00  1.60000000E+01  1.00800000E+00
  1.00800000E+00  1.60000000E+01  1.00800000E+00  1.00800000E+00  1.60000000E+01
  1.00800000E+00  1.00800000E+00  1.60000000E+01  1.00800000E+00  1.00800000E+00
  1.60000000E+01  1.00800000E+00  1.00800000E+00  1.60000000E+01  1.00800000E+00
  1.00800000E+00  1.60000000E+01  1.00800000E+00  1.00800000E+00  1.60000000E+01
  1.00800000E+00  1.00800000E+00  1.60000000E+01  1.00800000E+00  1.00800000E+00
  1.60000000E+01  1.00800000E+00  1.00800000E+00  1.60000000E+01  1.00800000E+00
  1.00800000E+00  1.60000000E+01  1.00800000E+00  1.00800000E+00  1.60000000E+01
  1.00800000E+00  1.00800000E+00  1.60000000E+01  1.00800000E+00  1.00800000E+00
  1.60000000E+01  1.00800000E+00  1.00800000E+00  1.60000000E+01  1.00800000E+00
  1.00800000E+00  1.60000000E+01  1.00800000E+00  1.00800000E+00  1.60000000E+01
  1.00800000E+00  1.00800000E+00  1.60000000E+01  1.00800000E+00  1.00800000E+00
  1.60000000E+01  1.00800000E+00  1.00800000E+00  1.60000000E+01  1.00800000E+00
  1.00800000E+00  1.60000000E+01  1.00800000E+00  1.00800000E+00  1.60000000E+01
  1.00800000E+00  1.00800000E+00  1.60000000E+01  1.00800000E+00  1.00800000E+00
  1.60000000E+01  1.00800000E+00  1.00800000E+00  1.60000000E+01  1.00800000E+00
  1.00800000E+00  1.60000000E+01  1.00800000E+00  1.00800000E+00  1.60000000E+01
  1.00800000E+00  1.00800000E+00  1.60000000E+01  1.00800000E+00  1.00800000E+00
  1.60000000E+01  1.00800000E+00  1.00800000E+00  1.60000000E+01  1.00800000E+00
  1.00800000E+00  1.60000000E+01  1.00800000E+00  1.00800000E+00  1.60000000E+01
  1.00800000E+00  1.00800000E+00  1.60000000E+01  1.00800000E+00  1.00800000E+00
  1.60000000E+01  1.00800000E+00  1.00800000E+00  1.60000000E+01  1.00800000E+00
  1.00800000E+00  1.60000000E+01  1.00800000E+00  1.00800000E+00  1.60000000E+01
  1.00800000E+00  1.00800000E+00  1.60000000E+01  1.00800000E+00  1.00800000E+00
  1.60000000E+01  1.00800000E+00  1.00800000E+00  1.60000000E+01  1.00800000E+00
  1.00800000E+00  1.60000000E+01  1.00800000E+00  1.00800000E+00  1.60000000E+01
  1.00800000E+00  1.00800000E+00  1.60000000E+01  1.00800000E+00  1.00800000E+00
  1.60000000E+01  1.00800000E+00  1.00800000E+00  1.60000000E+01  1.00800000E+00
  1.00800000E+00  1.60000000E+01  1.00800000E+00  1.00800000E+00  1.60000000E+01
  1.00800000E+00  1.00800000E+00  1.60000000E+01  1.00800000E+00  1.00800000E+00
  1.60000000E+01  1.00800000E+00  1.00800000E+00  1.60000000E+01  1.00800000E+00
  1.00800000E+00  1.60000000E+01  1.00800000E+00  1.00800000E+00  1.60000000E+01
  1.00800000E+00  1.00800000E+00  1.60000000E+01  1.00800000E+00  1.00800000E+00
  1.60000000E+01  1.00800000E+00  1.00800000E+00  1.60000000E+01  1.00800000E+00
  1.00800000E+00  1.60000000E+01  1.00800000E+00  1.00800000E+00  1.60000000E+01
  1.00800000E+00  1.00800000E+00  1.60000000E+01  1.00800000E+00  1.00800000E+00
  1.60000000E+01  1.00800000E+00  1.00800000E+00  1.60000000E+01  1.00800000E+00
  1.00800000E+00  1.60000000E+01  1.00800000E+00  1.00800000E+00  1.60000000E+01
  1.00800000E+00  1.00800000E+00  1.60000000E+01  1.00800000E+00  1.00800000E+00
  1.60000000E+01  1.00800000E+00  1.00800000E+00  1.60000000E+01  1.00800000E+00
  1.00800000E+00  1.60000000E+01  1.00800000E+00  1.00800000E+00  1.60000000E+01
  1.00800000E+00  1.00800000E+00  1.60000000E+01  1.00800000E+00  1.00800000E+00
  1.60000000E+01  1.00800000E+00  1.00800000E+00  1.60000000E+01  1.00800000E+00
  1.00800000E+00  1.60000000E+01  1.00800000E+00  1.00800000E+00  1.60000000E+01
  1.00800000E+00  1.00800000E+00  1.60000000E+01  1.00800000E+00  1.00800000E+00
  1.60000000E+01  1.00800000E+00  1.00800000E+00  1.60000000E+01  1.00800000E+00
  1.00800000E+00  1.60000000E+01  1.00800000E+00  1.00800000E+00  1.60000000E+01
  1.00800000E+00  1.00800000E+00  1.60000000E+01  1.00800000E+00  1.00800000E+00
  1.60000000E+01  1.00800000E+00  1.00800000E+00  1.60000000E+01  1.00800000E+00
  1.00800000E+00  1.60000000E+01  1.00800000E+00  1.00800000E+00  1.60000000E+01
  1.00800000E+00  1.00800000E+00  1.60000000E+01  1.00800000E+00  1.00800000E+00
  1.60000000E+01  1.00800000E+00  1.00800000E+00  1.60000000E+01  1.00800000E+00
  1.00800000E+00  1.60000000E+01  1.00800000E+00  1.00800000E+00  1.60000000E+01
  1.00800000E+00  1.00800000E+00  1.60000000E+01  1.00800000E+00  1.00800000E+00
  1.60000000E+01  1.00800000E+00  1.00800000E+00  1.60000000E+01  1.00800000E+00
  1.00800000E+00  1.60000000E+01  1.00800000E+00  1.00800000E+00  1.60000000E+01
  1.00800000E+00  1.00800000E+00  1.60000000E+01  1.00800000E+00  1.00800000E+00
  1.60000000E+01  1.00800000E+00  1.00800000E+00  1.60000000E+01  1.00800000E+00
  1.00800000E+00  1.60000000E+01  1.00800000E+00  1.00800000E+00  1.60000000E+01
  1.00800000E+00  1.00800000E+00  1.60000000E+01  1.00800000E+00  1.00800000E+00
  1.60000000E+01  1.00800000E+00  1.00800000E+00  1.60000000E+01  1.00800000E+00
  1.00800000E+00  1.60000000E+01  1.00800000E+00  1.00800000E+00  1.60000000E+01
  1.00800000E+00  1.00800000E+00  1.60000000E+01  1.00800000E+00  1.00800000E+00
  1.60000000E+01  1.00800000E+00  1.00800000E+00  1.60000000E+01  1.00800000E+00
  1.00800000E+00  1.60000000E+01  1.00800000E+00  1.00800000E+00  1.60000000E+01
  1.00800000E+00  1.00800000E+00  1.60000000E+01  1.00800000E+00  1.00800000E+00
  1.60000000E+01  1.00800000E+00  1.00800000E+00  1.60000000E+01  1.00800000E+00
  1.00800000E+00  1.60000000E+01  1.00800000E+00  1.00800000E+00  1.60000000E+01
  1.00800000E+00  1.00800000E+00  1.60000000E+01  1.00800000E+00  1.00800000E+00
  1.60000000E+01  1.00800000E+00  1.00800000E+00  1.60000000E+01  1.00800000E+00
  1.00800000E+00  1.60000000E+01  1.00800000E+00  1.00800000E+00  1.60000000E+01
  1.00800000E+00  1.00800000E+00  1.60000000E+01  1.00800000E+00  1.00800000E+00
  1.60000000E+01  1.00800000E+00  1.00800000E+00  1.60000000E+01  1.00800000E+00
  1.00800000E+00  1.60000000E+01  1.00800000E+00  1.00800000E+00  1.60000000E+01
  1.00800000E+00  1.00800000E+00  1.60000000E+01  1.00800000E+00  1.00800000E+00
  1.60000000E+01  1.00800000E+00  1.00800000E+00  1.60000000E+01  1.00800000E+00
  1.00800000E+00  1.60000000E+01  1.00800000E+00  1.00800000E+00  1.60000000E+01
  1.00800000E+00  1.00800000E+00  1.60000000E+01  1.00800000E+00  1.00800000E+00
  1.60000000E+01  1.00800000E+00  1.00800000E+00  1.60000000E+01  1.00800000E+00
  1.00800000E+00  1.60000000E+01  1.00800000E+00  1.00800000E+00  1.60000000E+01
  1.00800000E+00  1.00800000E+00  1.60000000E+01  1.00800000E+00  1.00800000E+00
  1.60000000E+01  1.00800000E+00  1.00800000E+00  1.60000000E+01  1.00800000E+00
  1.00800000E+00  1.60000000E+01  1.00800000E+00  1.00800000E+00  1.60000000E+01
  1.00800000E+00  1.00800000E+00  1.60000000E+01  1.00800000E+00  1.00800000E+00
  1.60000000E+01  1.00800000E+00  1.00800000E+00  1.60000000E+01  1.00800000E+00
  1.00800000E+00  1.60000000E+01  1.00800000E+00  1.00800000E+00  1.60000000E+01
  1.00800000E+00  1.00800000E+00  1.60000000E+01  1.00800000E+00  1.00800000E+00
  1.60000000E+01  1.00800000E+00  1.00800000E+00  1.60000000E+01  1.00800000E+00
  1.00800000E+00  1.60000000E+01  1.00800000E+00  1.00800000E+00  1.60000000E+01
  1.00800000E+00  1.00800000E+00  1.60000000E+01  1.00800000E+00  1.00800000E+00
  1.60000000E+01  1.00800000E+00  1.00800000E+00  1.60000000E+01  1.00800000E+00
  1.00800000E+00  1.60000000E+01  1.00800000E+00  1.00800000E+00  1.60000000E+01
  1.00800000E+00  1.00800000E+00  1.60000000E+01  1.00800000E+00  1.00800000E+00
  1.60000000E+01  1.00800000E+00  1.00800000E+00  1.60000000E+01  1.00800000E+00
  1.00800000E+00  1.60000000E+01  1.00800000E+00  1.00800000E+00  1.60000000E+01
  1.00800000E+00  1.00800000E+00  1.60000000E+01  1.00800000E+00  1.00800000E+00
  1.60000000E+01  1.00800000E+00  1.00800000E+00  1.60000000E+01  1.00800000E+00
  1.00800000E+00  1.60000000E+01  1.00800000E+00  1.00800000E+00  1.60000000E+01
  1.00800000E+00  1.00800000E+00  1.60000000E+01  1.00800000E+00  1.00800000E+00
  1.60000000E+01  1.00800000E+00  1.00800000E+00  1.60000000E+01  1.00800000E+00
  1.00800000E+00  1.60000000E+01  1.00800000E+00  1.00800000E+00  1.60000000E+01
  1.00800000E+00  1.00800000E+00  1.60000000E+01  1.00800000E+00  1.00800000E+00
  1.60000000E+01  1.00800000E+00  1.00800000E+00  1.60000000E+01  1.00800000E+00
  1.00800000E+00  1.60000000E+01  1.00800000E+00  1.00800000E+00  1.60000000E+01
  1.00800000E+00  1.00800000E+00  1.60000000E+01  1.00800000E+00  1.00800000E+00
  1.60000000E+01  1.00800000E+00  1.00800000E+00  1.60000000E+01  1.00800000E+00
  1.00800000E+00  1.60000000E+01  1.00800000E+00  1.00800000E+00  1.60000000E+01
  1.00800000E+00  1.00800000E+00  1.60000000E+01  1.00800000E+00  1.00800000E+00
  1.60000000E+01  1.00800000E+00  1.00800000E+00  1.60000000E+01  1.00800000E+00
  1.00800000E+00  1.60000000E+01  1.00800000E+00  1.00800000E+00  1.60000000E+01
  1.00800000E+00  1.00800000E+00  1.60000000E+01  1.00800000E+00  1.00800000E+00
  1.60000000E+01  1.00800000E+00  1.00800000E+00  1.60000000E+01  1.00800000E+00
  1.00800000E+00  1.60000000E+01  1.00800000E+00  1.00800000E+00  1.60000000E+01
  1.00800000E+00  1.00800000E+00  1.60000000E+01  1.00800000E+00  1.00800000E+00
  1.60000000E+01  1.00800000E+00  1.00800000E+00  1.60000000E+01  1.00800000E+00
  1.00800000E+00  1.60000000E+01  1.00800000E+00  1.00800000E+00  1.60000000E+01
  1.00800000E+00  1.00800000E+00  1.60000000E+01  1.00800000E+00  1.00800000E+00
  1.60000000E+01  1.00800000E+00  1.00800000E+00  1.60000000E+01  1.00800000E+00
  1.00800000E+00  1.60000000E+01  1.00800000E+00  1.00800000E+00  1.60000000E+01
  1.00800000E+00  1.00800000E+00  1.60000000E+01  1.00800000E+00  1.00800000E+00
  1.60000000E+01  1.00800000E+00  1.00800000E+00  1.60000000E+01  1.00800000E+00
  1.00800000E+00  1.60000000E+01  1.00800000E+00  1.00800000E+00  1.60000000E+01
  1.00800000E+00  1.00800000E+00  1.60000000E+01  1.00800000E+00  1.00800000E+00
  1.60000000E+01  1.00800000E+00  1.00800000E+00  1.60000000E+01  1.00800000E+00
  1.00800000E+00  1.60000000E+01  1.00800000E+00  1.00800000E+00  1.60000000E+01
  1.00800000E+00  1.00800000E+00  1.60000000E+01  1.00800000E+00  1.00800000E+00
  1.60000000E+01  1.00800000E+00  1.00800000E+00  1.60000000E+01  1.00800000E+00
  1.00800000E+00  1.60000000E+01  1.00800000E+00  1.00800000E+00  1.60000000E+01
  1.00800000E+00  1.00800000E+00  1.60000000E+01  1.00800000E+00  1.00800000E+00
  1.60000000E+01  1.00800000E+00  1.00800000E+00  1.60000000E+01  1.00800000E+00
  1.00800000E+00  1.60000000E+01  1.00800000E+00  1.00800000E+00  1.60000000E+01
  1.00800000E+00  1.00800000E+00  1.60000000E+01  1.00800000E+00  1.00800000E+00
  1.60000000E+01  1.00800000E+00  1.00800000E+00  1.60000000E+01  1.00800000E+00
  1.00800000E+00  1.60000000E+01  1.00800000E+00  1.00800000E+00  1.60000000E+01
  1.00800000E+00  1.00800000E+00  1.60000000E+01  1.00800000E+00  1.00800000E+00
  1.60000000E+01  1.00800000E+00  1.00800000E+00  1.60000000E+01  1.00800000E+00
  1.00800000E+00  1.60000000E+01  1.00800000E+00  1.00800000E+00  1.60000000E+01
  1.00800000E+00  1.00800000E+00  1.60000000E+01  1.00800000E+00  1.00800000E+00
  1.60000000E+01  1.00800000E+00  1.00800000E+00  1.60000000E+01  1.00800000E+00
  1.00800000E+00  1.60000000E+01  1.00800000E+00  1.00800000E+00  1.60000000E+01
  1.00800000E+00  1.00800000E+00  1.60000000E+01  1.00800000E+00  1.00800000E+00
  1.60000000E+01  1.00800000E+00  1.00800000E+00  1.60000000E+01  1.00800000E+00
  1.00800000E+00  1.60000000E+01  1.00800000E+00  1.00800000E+00  1.60000000E+01
  1.00800000E+00  1.00800000E+00  1.60000000E+01  1.00800000E+00  1.00800000E+00
  1.60000000E+01  1.00800000E+00  1.00800000E+00  1.60000000E+01  1.00800000E+00
  1.00800000E+00  1.60000000E+01  1.00800000E+00  1.00800000E+00  1.60000000E+01
  1.00800000E+00  1.00800000E+00  1.60000000E+01  1.00800000E+00  1.00800000E+00
  1.60000000E+01  1.00800000E+00  1.00800000E+00  1.60000000E+01  1.00800000E+00
  1.00800000E+00  1.60000000E+01  1.00800000E+00  1.00800000E+00  1.60000000E+01
  1.00800000E+00  1.00800000E+00  1.60000000E+01  1.00800000E+00  1.00800000E+00
  1.60000000E+01  1.00800000E+00  1.00800000E+00  1.60000000E+01  1.00800000E+00
  1.00800000E+00  1.60000000E+01  1.00800000E+00  1.00800000E+00  1.60000000E+01
  1.00800000E+00  1.00800000E+00  1.60000000E+01  1.00800000E+00  1.00800000E+00
  1.60000000E+01  1.00800000E+00  1.00800000E+00  1.60000000E+01  1.00800000E+00
  1.00800000E+00  1.60000000E+01  1.00800000E+00  1.00800000E+00  1.60000000E+01
  1.00800000E+00  1.00800000E+00  1.60000000E+01  1.00800000E+00  1.00800000E+00
  1.60000000E+01  1.00800000E+00  1.00800000E+00  1.60000000E+01  1.00800000E+00
  1.00800000E+00  1.60000000E+01  1.00800000E+00  1.00800000E+00  1.60000000E+01
  1.00800000E+00  1.00800000E+00  1.60000000E+01  1.00800000E+00  1.00800000E+00
  1.60000000E+01  1.00800000E+00  1.00800000E+00  1.60000000E+01  1.00800000E+00
  1.00800000E+00  1.60000000E+01  1.00800000E+00  1.00800000E+00  1.60000000E+01
  1.00800000E+00  1.00800000E+00  1.60000000E+01  1.00800000E+00  1.00800000E+00
  1.60000000E+01  1.00800000E+00  1.00800000E+00  1.60000000E+01  1.00800000E+00
  1.00800000E+00  1.60000000E+01  1.00800000E+00  1.00800000E+00  1.60000000E+01
  1.00800000E+00  1.00800000E+00  1.60000000E+01  1.00800000E+00  1.00800000E+00
  1.60000000E+01  1.00800000E+00  1.00800000E+00  1.60000000E+01  1.00800000E+00
  1.00800000E+00  1.60000000E+01  1.00800000E+00  1.00800000E+00  1.60000000E+01
  1.00800000E+00  1.00800000E+00  1.60000000E+01  1.00800000E+00  1.00800000E+00
  1.60000000E+01  1.00800000E+00  1.00800000E+00  1.60000000E+01  1.00800000E+00
  1.00800000E+00  1.60000000E+01  1.00800000E+00  1.00800000E+00  1.60000000E+01
  1.00800000E+00  1.00800000E+00  1.60000000E+01  1.00800000E+00  1.00800000E+00
  1.60000000E+01  1.00800000E+00  1.00800000E+00  1.60000000E+01  1.00800000E+00
  1.00800000E+00  1.60000000E+01  1.00800000E+00  1.00800000E+00  1.60000000E+01
  1.00800000E+00  1.00800000E+00  1.60000000E+01  1.00800000E+00  1.00800000E+00
  1.60000000E+01  1.00800000E+00  1.00800000E+00  1.60000000E+01  1.00800000E+00
  1.00800000E+00  1.60000000E+01  1.00800000E+00  1.00800000E+00  1.60000000E+01
  1.00800000E+00  1.00800000E+00  1.60000000E+01  1.00800000E+00  1.00800000E+00
  1.60000000E+01  1.00800000E+00  1.00800000E+00  1.60000000E+01  1.00800000E+00
  1.00800000E+00  1.60000000E+01  1.00800000E+00  1.00800000E+00  1.60000000E+01
  1.00800000E+00  1.00800000E+00  1.60000000E+01  1.00800000E+00  1.00800000E+00
  1.60000000E+01  1.00800000E+00  1.00800000E+00  1.60000000E+01  1.00800000E+00
  1.00800000E+00  1.60000000E+01  1.00800000E+00  1.00800000E+00  1.60000000E+01
  1.00800000E+00  1.00800000E+00  1.60000000E+01  1.00800000E+00  1.00800000E+00
  1.60000000E+01  1.00800000E+00  1.00800000E+00  1.60000000E+01  1.00800000E+00
  1.00800000E+00  1.60000000E+01  1.00800000E+00  1.00800000E+00  1.60000000E+01
  1.00800000E+00  1.00800000E+00  1.60000000E+01  1.00800000E+00  1.00800000E+00
  1.60000000E+01  1.00800000E+00  1.00800000E+00  1.60000000E+01  1.00800000E+00
  1.00800000E+00  1.60000000E+01  1.00800000E+00  1.00800000E+00  1.60000000E+01
  1.00800000E+00  1.00800000E+00  1.60000000E+01  1.00800000E+00  1.00800000E+00
  1.60000000E+01  1.00800000E+00  1.00800000E+00  1.60000000E+01  1.00800000E+00
  1.00800000E+00  1.60000000E+01  1.00800000E+00  1.00800000E+00  1.60000000E+01
  1.00800000E+00  1.00800000E+00  1.60000000E+01  1.00800000E+00  1.00800000E+00
  1.60000000E+01  1.00800000E+00  1.00800000E+00  1.60000000E+01  1.00800000E+00
  1.00800000E+00  1.60000000E+01  1.00800000E+00  1.00800000E+00  1.60000000E+01
  1.00800000E+00  1.00800000E+00  1.60000000E+01  1.00800000E+00  1.00800000E+00
  1.60000000E+01  1.00800000E+00  1.00800000E+00  1.60000000E+01  1.00800000E+00
  1.00800000E+00  1.60000000E+01  1.00800000E+00  1.00800000E+00  1.60000000E+01
  1.00800000E+00  1.00800000E+00  1.60000000E+01  1.00800000E+00  1.00800000E+00
  1.60000000E+01  1.00800000E+00  1.00800000E+00  1.60000000E+01  1.00800000E+00
  1.00800000E+00  1.60000000E+01  1.00800000E+00  1.00800000E+00  1.60000000E+01
  1.00800000E+00  1.00800000E+00  1.60000000E+01  1.00800000E+00  1.00800000E+00
  1.60000000E+01  1.00800000E+00  1.00800000E+00  1.60000000E+01  1.00800000E+00
  1.00800000E+00  1.60000000E+01  1.00800000E+00  1.00800000E+00  1.60000000E+01
  1.00800000E+00  1.00800000E+00  1.60000000E+01  1.00800000E+00  1.00800000E+00
  1.60000000E+01  1.00800000E+00  1.00800000E+00  1.60000000E+01  1.00800000E+00
  1.00800000E+00  1.60000000E+01  1.00800000E+00  1.00800000E+00  1.60000000E+01
  1.00800000E+00  1.00800000E+00  1.60000000E+01  1.00800000E+00  1.00800000E+00
  1.60000000E+01  1.00800000E+00  1.00800000E+00  1.60000000E+01  1.00800000E+00
  1.00800000E+00  1.60000000E+01  1.00800000E+00  1.00800000E+00  1.60000000E+01
  1.00800000E+00  1.00800000E+00  1.60000000E+01  1.00800000E+00  1.00800000E+00
  1.60000000E+01  1.00800000E+00  1.00800000E+00  1.60000000E+01  1.00800000E+00
  1.00800000E+00  1.60000000E+01  1.00800000E+00  1.00800000E+00  1.60000000E+01
  1.00800000E+00  1.00800000E+00  1.60000000E+01  1.00800000E+00  1.00800000E+00
  1.60000000E+01  1.00800000E+00  1.00800000E+00  1.60000000E+01  1.00800000E+00
  1.00800000E+00  1.60000000E+01  1.00800000E+00  1.00800000E+00  1.60000000E+01
  1.00800000E+00  1.00800000E+00  1.60000000E+01  1.00800000E+00  1.00800000E+00
  1.60000000E+01  1.00800000E+00  1.00800000E+00  1.60000000E+01  1.00800000E+00
  1.00800000E+00  1.60000000E+01  1.00800000E+00  1.00800000E+00  1.60000000E+01
  1.00800000E+00  1.00800000E+00  1.60000000E+01  1.00800000E+00  1.00800000E+00
  1.60000000E+01  1.00800000E+00  1.00800000E+00  1.60000000E+01  1.00800000E+00
  1.00800000E+00  1.60000000E+01  1.00800000E+00  1.00800000E+00  1.60000000E+01
  1.00800000E+00  1.00800000E+00  1.60000000E+01  1.00800000E+00  1.00800000E+00
  1.60000000E+01  1.00800000E+00  1.00800000E+00  1.60000000E+01  1.00800000E+00
  1.00800000E+00  1.60000000E+01  1.00800000E+00  1.00800000E+00  1.60000000E+01
  1.00800000E+00  1.00800000E+00  1.60000000E+01  1.00800000E+00  1.00800000E+00
  1.60000000E+01  1.00800000E+00  1.00800000E+00  1.60000000E+01  1.00800000E+00
  1.00800000E+00  1.60000000E+01  1.00800000E+00  1.00800000E+00  1.60000000E+01
  1.00800000E+00  1.00800000E+00  1.60000000E+01  1.00800000E+00  1.00800000E+00
  1.60000000E+01  1.00800000E+00  1.00800000E+00  1.60000000E+01  1.00800000E+00
  1.00800000E+00  1.60000000E+01  1.00800000E+00  1.00800000E+00  1.60000000E+01
  1.00800000E+00  1.00800000E+00  1.60000000E+01  1.00800000E+00  1.00800000E+00
  1.60000000E+01  1.00800000E+00  1.00800000E+00  1.60000000E+01  1.00800000E+00
  1.00800000E+00  1.60000000E+01  1.00800000E+00  1.00800000E+00  1.60000000E+01
  1.00800000E+00  1.00800000E+00  1.60000000E+01  1.00800000E+00  1.00800000E+00
  1.60000000E+01  1.00800000E+00  1.00800000E+00  1.60000000E+01  1.00800000E+00
  1.00800000E+00  1.60000000E+01  1.00800000E+00  1.00800000E+00  1.60000000E+01
  1.00800000E+00  1.00800000E+00  1.60000000E+01  1.00800000E+00  1.00800000E+00
  1.60000000E+01  1.00800000E+00  1.00800000E+00  1.60000000E+01  1.00800000E+00
  1.00800000E+00  1.60000000E+01  1.00800000E+00  1.00800000E+00  1.60000000E+01
  1.00800000E+00  1.00800000E+00  1.60000000E+01  1.00800000E+00  1.00800000E+00
  1.60000000E+01  1.00800000E+00  1.00800000E+00  1.60000000E+01  1.00800000E+00
  1.00800000E+00  1.60000000E+01  1.00800000E+00  1.00800000E+00  1.60000000E+01
  1.00800000E+00  1.00800000E+00  1.60000000E+01  1.00800000E+00  1.00800000E+00
  1.60000000E+01  1.00800000E+00  1.00800000E+00  1.60000000E+01  1.00800000E+00
  1.00800000E+00  1.60000000E+01  1.00800000E+00  1.00800000E+00  1.60000000E+01
  1.00800000E+00  1.00800000E+00  1.60000000E+01  1.00800000E+00  1.00800000E+00
  1.60000000E+01  1.00800000E+00  1.00800000E+00  1.60000000E+01  1.00800000E+00
  1.00800000E+00  1.60000000E+01  1.00800000E+00  1.00800000E+00  1.60000000E+01
  1.00800000E+00  1.00800000E+00  1.60000000E+01  1.00800000E+00  1.00800000E+00
  1.60000000E+01  1.00800000E+00  1.00800000E+00  1.60000000E+01  1.00800000E+00
  1.00800000E+00  1.60000000E+01  1.00800000E+00  1.00800000E+00  1.60000000E+01
  1.00800000E+00  1.00800000E+00  1.60000000E+01  1.00800000E+00  1.00800000E+00
  1.60000000E+01  1.00800000E+00  1.00800000E+00  1.60000000E+01  1.00800000E+00
  1.00800000E+00  1.60000000E+01  1.00800000E+00  1.00800000E+00  1.60000000E+01
  1.00800000E+00  1.00800000E+00  1.60000000E+01  1.00800000E+00  1.00800000E+00
  1.60000000E+01  1.00800000E+00  1.00800000E+00  1.60000000E+01  1.00800000E+00
  1.00800000E+00  1.60000000E+01  1.00800000E+00  1.00800000E+00  1.60000000E+01
  1.00800000E+00  1.00800000E+00  1.60000000E+01  1.00800000E+00  1.00800000E+00
  1.60000000E+01  1.00800000E+00  1.00800000E+00  1.60000000E+01  1.00800000E+00
  1.00800000E+00  1.60000000E+01  1.00800000E+00  1.00800000E+00  1.60000000E+01
  1.00800000E+00  1.00800000E+00  1.60000000E+01  1.00800000E+00  1.00800000E+00
  1.60000000E+01  1.00800000E+00  1.00800000E+00  1.60000000E+01  1.00800000E+00
  1.00800000E+00  1.60000000E+01  1.00800000E+00  1.00800000E+00  1.60000000E+01
  1.00800000E+00  1.00800000E+00  1.60000000E+01  1.00800000E+00  1.00800000E+00
  1.60000000E+01  1.00800000E+00  1.00800000E+00  1.60000000E+01  1.00800000E+00
  1.00800000E+00  1.60000000E+01  1.00800000E+00  1.00800000E+00  1.60000000E+01
  1.00800000E+00  1.00800000E+00  1.60000000E+01  1.00800000E+00  1.00800000E+00
  1.60000000E+01  1.00800000E+00  1.00800000E+00  1.60000000E+01  1.00800000E+00
  1.00800000E+00  1.60000000E+01  1.00800000E+00  1.00800000E+00  1.60000000E+01
  1.00800000E+00  1.00800000E+00  1.60000000E+01  1.00800000E+00  1.00800000E+00
  1.60000000E+01  1.00800000E+00  1.00800000E+00  1.60000000E+01  1.00800000E+00
  1.00800000E+00  1.60000000E+01  1.00800000E+00  1.00800000E+00  1.60000000E+01
  1.00800000E+00  1.00800000E+00  1.60000000E+01  1.00800000E+00  1.00800000E+00
  1.60000000E+01  1.00800000E+00  1.00800000E+00  1.60000000E+01  1.00800000E+00
  1.00800000E+00  1.60000000E+01  1.00800000E+00  1.00800000E+00  1.60000000E+01
  1.00800000E+00  1.00800000E+00  1.60000000E+01  1.00800000E+00  1.00800000E+00
  1.60000000E+01  1.00800000E+00  1.00800000E+00  1.60000000E+01  1.00800000E+00
  1.00800000E+00  1.60000000E+01  1.00800000E+00  1.00800000E+00  1.60000000E+01
  1.00800000E+00  1.00800000E+00  1.60000000E+01  1.00800000E+00  1.00800000E+00
  1.60000000E+01  1.00800000E+00  1.00800000E+00  1.60000000E+01  1.00800000E+00
  1.00800000E+00  1.60000000E+01  1.00800000E+00  1.00800000E+00  1.60000000E+01
  1.00800000E+00  1.00800000E+00  1.60000000E+01  1.00800000E+00  1.00800000E+00
  1.60000000E+01  1.00800000E+00  1.00800000E+00  1.60000000E+01  1.00800000E+00
  1.00800000E+00  1.60000000E+01  1.00800000E+00  1.00800000E+00  1.60000000E+01
  1.00800000E+00  1.00800000E+00  1.60000000E+01  1.00800000E+00  1.00800000E+00
  1.60000000E+01  1.00800000E+00  1.00800000E+00  1.60000000E+01  1.00800000E+00
  1.00800000E+00  1.60000000E+01  1.00800000E+00  1.00800000E+00  1.60000000E+01
  1.00800000E+00  1.00800000E+00  1.60000000E+01  1.00800000E+00  1.00800000E+00
  1.60000000E+01  1.00800000E+00  1.00800000E+00  1.60000000E+01  1.00800000E+00
  1.00800000E+00  1.60000000E+01  1.00800000E+00  1.00800000E+00  1.60000000E+01
  1.00800000E+00  1.00800000E+00  1.60000000E+01  1.00800000E+00  1.00800000E+00
  1.60000000E+01  1.00800000E+00  1.00800000E+00  1.60000000E+01  1.00800000E+00
  1.00800000E+00  1.60000000E+01  1.00800000E+00  1.00800000E+00  1.60000000E+01
  1.00800000E+00  1.00800000E+00  1.60000000E+01  1.00800000E+00  1.00800000E+00
  1.60000000E+01  1.00800000E+00  1.00800000E+00  1.60000000E+01  1.00800000E+00
  1.00800000E+00  1.60000000E+01  1.00800000E+00  1.00800000E+00  1.60000000E+01
  1.00800000E+00  1.00800000E+00  1.60000000E+01  1.00800000E+00  1.00800000E+00
  1.60000000E+01  1.00800000E+00  1.00800000E+00  1.60000000E+01  1.00800000E+00
  1.00800000E+00  1.60000000E+01  1.00800000E+00  1.00800000E+00  1.60000000E+01
  1.00800000E+00  1.00800000E+00  1.60000000E+01  1.00800000E+00  1.00800000E+00
  1.60000000E+01  1.00800000E+00  1.00800000E+00  1.60000000E+01  1.00800000E+00
  1.00800000E+00  1.60000000E+01  1.00800000E+00  1.00800000E+00  1.60000000E+01
  1.00800000E+00  1.00800000E+00  1.60000000E+01  1.00800000E+00  1.00800000E+00
  1.60000000E+01  1.00800000E+00  1.00800000E+00  1.60000000E+01  1.00800000E+00
  1.00800000E+00  1.60000000E+01  1.00800000E+00  1.00800000E+00  1.60000000E+01
  1.00800000E+00  1.00800000E+00  1.60000000E+01  1.00800000E+00  1.00800000E+00
  1.60000000E+01  1.00800000E+00  1.00800000E+00  1.60000000E+01  1.00800000E+00
  1.00800000E+00  1.60000000E+01  1.00800000E+00  1.00800000E+00  1.60000000E+01
  1.00800000E+00  1.00800000E+00  1.60000000E+01  1.00800000E+00  1.00800000E+00
  1.60000000E+01  1.00800000E+00  1.00800000E+00  1.60000000E+01  1.00800000E+00
  1.00800000E+00  1.60000000E+01  1.00800000E+00  1.00800000E+00  1.60000000E+01
  1.00800000E+00  1.00800000E+00  1.60000000E+01  1.00800000E+00  1.00800000E+00
  1.60000000E+01  1.00800000E+00  1.00800000E+00  1.60000000E+01  1.00800000E+00
  1.00800000E+00  1.60000000E+01  1.00800000E+00  1.00800000E+00  1.60000000E+01
  1.00800000E+00  1.00800000E+00  1.60000000E+01  1.00800000E+00  1.00800000E+00
  1.60000000E+01  1.00800000E+00  1.00800000E+00  1.60000000E+01  1.00800000E+00
  1.00800000E+00  1.60000000E+01  1.00800000E+00  1.00800000E+00  1.60000000E+01
  1.00800000E+00  1.00800000E+00  1.60000000E+01  1.00800000E+00  1.00800000E+00
  1.60000000E+01  1.00800000E+00  1.00800000E+00  1.60000000E+01  1.00800000E+00
  1.00800000E+00  1.60000000E+01  1.00800000E+00  1.00800000E+00  1.60000000E+01
  1.00800000E+00  1.00800000E+00  1.60000000E+01  1.00800000E+00  1.00800000E+00
  1.60000000E+01  1.00800000E+00  1.00800000E+00  1.60000000E+01  1.00800000E+00
  1.00800000E+00  1.60000000E+01  1.00800000E+00  1.00800000E+00  1.60000000E+01
  1.00800000E+00  1.00800000E+00  1.60000000E+01  1.00800000E+00  1.00800000E+00
  1.60000000E+01  1.00800000E+00  1.00800000E+00  1.60000000E+01  1.00800000E+00
  1.00800000E+00  1.60000000E+01  1.00800000E+00  1.00800000E+00  1.60000000E+01
  1.00800000E+00  1.00800000E+00  1.60000000E+01  1.00800000E+00  1.00800000E+00
  1.60000000E+01  1.00800000E+00  1.00800000E+00  1.60000000E+01  1.00800000E+00
  1.00800000E+00  1.60000000E+01  1.00800000E+00  1.00800000E+00  1.60000000E+01
  1.00800000E+00  1.00800000E+00  1.60000000E+01  1.00800000E+00  1.00800000E+00
  1.60000000E+01  1.00800000E+00  1.00800000E+00  1.60000000E+01  1.00800000E+00
  1.00800000E+00  1.60000000E+01  1.00800000E+00  1.00800000E+00  1.60000000E+01
  1.00800000E+00  1.00800000E+00  1.60000000E+01  1.00800000E+00  1.00800000E+00
  1.60000000E+01  1.00800000E+00  1.00800000E+00  1.60000000E+01  1.00800000E+00
  1.00800000E+00  1.60000000E+01  1.00800000E+00  1.00800000E+00  1.60000000E+01
  1.00800000E+00  1.00800000E+00  1.60000000E+01  1.00800000E+00  1.00800000E+00
  1.60000000E+01  1.00800000E+00  1.00800000E+00  1.60000000E+01  1.00800000E+00
  1.00800000E+00  1.60000000E+01  1.00800000E+00  1.00800000E+00  1.60000000E+01
  1.00800000E+00  1.00800000E+00  1.60000000E+01  1.00800000E+00  1.00800000E+00
  1.60000000E+01  1.00800000E+00  1.00800000E+00  1.60000000E+01  1.00800000E+00
  1.00800000E+00  1.60000000E+01  1.00800000E+00  1.00800000E+00  1.60000000E+01
  1.00800000E+00  1.00800000E+00  1.60000000E+01  1.00800000E+00  1.00800000E+00
  1.60000000E+01  1.00800000E+00  1.00800000E+00  1.60000000E+01  1.00800000E+00
  1.00800000E+00  1.60000000E+01  1.00800000E+00  1.00800000E+00  1.60000000E+01
  1.00800000E+00  1.00800000E+00  1.60000000E+01  1.00800000E+00  1.00800000E+00
  1.60000000E+01  1.00800000E+00  1.00800000E+00  1.60000000E+01  1.00800000E+00
  1.00800000E+00  1.60000000E+01  1.00800000E+00  1.00800000E+00  1.60000000E+01
  1.00800000E+00  1.00800000E+00  1.60000000E+01  1.00800000E+00  1.00800000E+00
  1.60000000E+01  1.00800000E+00  1.00800000E+00  1.60000000E+01  1.00800000E+00
  1.00800000E+00  1.60000000E+01  1.00800000E+00  1.00800000E+00  1.60000000E+01
  1.00800000E+00  1.00800000E+00  1.60000000E+01  1.00800000E+00  1.00800000E+00
  1.60000000E+01  1.00800000E+00  1.00800000E+00  1.60000000E+01  1.00800000E+00
  1.00800000E+00  1.60000000E+01  1.00800000E+00  1.00800000E+00  1.60000000E+01
  1.00800000E+00  1.00800000E+00  1.60000000E+01  1.00800000E+00  1.00800000E+00
  1.60000000E+01  1.00800000E+00  1.00800000E+00  1.60000000E+01  1.00800000E+00
  1.00800000E+00  1.60000000E+01  1.00800000E+00  1.00800000E+00  1.60000000E+01
  1.00800000E+00  1.00800000E+00  1.60000000E+01  1.00800000E+00  1.00800000E+00
  1.60000000E+01  1.00800000E+00  1.00800000E+00  1.60000000E+01  1.00800000E+00
  1.00800000E+00  1.60000000E+01  1.00800000E+00  1.00800000E+00  1.60000000E+01
  1.00800000E+00  1.00800000E+00  1.60000000E+01  1.00800000E+00  1.00800000E+00
  1.60000000E+01  1.00800000E+00  1.00800000E+00  1.60000000E+01  1.00800000E+00
  1.00800000E+00  1.60000000E+01  1.00800000E+00  1.00800000E+00  1.60000000E+01
  1.00800000E+00  1.00800000E+00  1.60000000E+01  1.00800000E+00  1.00800000E+00
  1.60000000E+01  1.00800000E+00  1.00800000E+00  1.60000000E+01  1.00800000E+00
  1.00800000E+00  1.60000000E+01  1.00800000E+00  1.00800000E+00  1.60000000E+01
  1.00800000E+00  1.00800000E+00  1.60000000E+01  1.00800000E+00  1.00800000E+00
  1.60000000E+01  1.00800000E+00  1.00800000E+00  1.60000000E+01  1.00800000E+00
  1.00800000E+00  1.60000000E+01  1.00800000E+00  1.00800000E+00  1.60000000E+01
  1.00800000E+00  1.00800000E+00  1.60000000E+01  1.00800000E+00  1.00800000E+00
  1.60000000E+01  1.00800000E+00  1.00800000E+00  1.60000000E+01  1.00800000E+00
  1.00800000E+00  1.60000000E+01  1.00800000E+00  1.00800000E+00  1.60000000E+01
  1.00800000E+00  1.00800000E+00  1.60000000E+01  1.00800000E+00  1.00800000E+00
  1.60000000E+01  1.00800000E+00  1.00800000E+00  1.60000000E+01  1.00800000E+00
  1.00800000E+00  1.60000000E+01  1.00800000E+00  1.00800000E+00  1.60000000E+01
  1.00800000E+00  1.00800000E+00  1.60000000E+01  1.00800000E+00  1.00800000E+00
  1.60000000E+01  1.00800000E+00  1.00800000E+00  1.60000000E+01  1.00800000E+00
  1.00800000E+00  1.60000000E+01  1.00800000E+00  1.00800000E+00  1.60000000E+01
  1.00800000E+00  1.00800000E+00  1.60000000E+01  1.00800000E+00  1.00800000E+00
  1.60000000E+01  1.00800000E+00  1.00800000E+00  1.60000000E+01  1.00800000E+00
  1.00800000E+00  1.60000000E+01  1.00800000E+00  1.00800000E+00  1.60000000E+01
  1.00800000E+00  1.00800000E+00  1.60000000E+01  1.00800000E+00  1.00800000E+00
  1.60000000E+01  1.00800000E+00  1.00800000E+00  1.60000000E+01  1.00800000E+00
  1.00800000E+00  1.60000000E+01  1.00800000E+00  1.00800000E+00  1.60000000E+01
  1.00800000E+00  1.00800000E+00  1.60000000E+01  1.00800000E+00  1.00800000E+00
  1.60000000E+01  1.00800000E+00  1.00800000E+00  1.60000000E+01  1.00800000E+00
  1.00800000E+00  1.60000000E+01  1.00800000E+00  1.00800000E+00  1.60000000E+01
  1.00800000E+00  1.00800000E+00  1.60000000E+01  1.00800000E+00  1.00800000E+00
  1.60000000E+01  1.00800000E+00  1.00800000E+00  1.60000000E+01  1.00800000E+00
  1.00800000E+00  1.60000000E+01  1.00800000E+00  1.00800000E+00  1.60000000E+01
  1.00800000E+00  1.00800000E+00  1.60000000E+01  1.00800000E+00  1.00800000E+00
  1.60000000E+01  1.00800000E+00  1.00800000E+00  1.60000000E+01  1.00800000E+00
  1.00800000E+00  1.60000000E+01  1.00800000E+00  1.00800000E+00  1.60000000E+01
  1.00800000E+00  1.00800000E+00  1.60000000E+01  1.00800000E+00  1.00800000E+00
  1.60000000E+01  1.00800000E+00  1.00800000E+00  1.60000000E+01  1.00800000E+00
  1.00800000E+00  1.60000000E+01  1.00800000E+00  1.00800000E+00  1.60000000E+01
  1.00800000E+00  1.00800000E+00  1.60000000E+01  1.00800000E+00  1.00800000E+00
  1.60000000E+01  1.00800000E+00  1.00800000E+00  1.60000000E+01  1.00800000E+00
  1.00800000E+00  1.60000000E+01  1.00800000E+00  1.00800000E+00  1.60000000E+01
  1.00800000E+00  1.00800000E+00  1.60000000E+01  1.00800000E+00  1.00800000E+00
  1.60000000E+01  1.00800000E+00  1.00800000E+00  1.60000000E+01  1.00800000E+00
  1.00800000E+00  1.60000000E+01  1.00800000E+00  1.00800000E+00  1.60000000E+01
  1.00800000E+00  1.00800000E+00  1.60000000E+01  1.00800000E+00  1.00800000E+00
  1.60000000E+01  1.00800000E+00  1.00800000E+00  1.60000000E+01  1.00800000E+00
  1.00800000E+00  1.60000000E+01  1.00800000E+00  1.00800000E+00  1.60000000E+01
  1.00800000E+00  1.00800000E+00  1.60000000E+01  1.00800000E+00  1.00800000E+00
  1.60000000E+01  1.00800000E+00  1.00800000E+00  1.60000000E+01  1.00800000E+00
  1.00800000E+00  1.60000000E+01  1.00800000E+00  1.00800000E+00  1.60000000E+01
  1.00800000E+00  1.00800000E+00  1.60000000E+01  1.00800000E+00  1.00800000E+00
  1.60000000E+01  1.00800000E+00  1.00800000E+00  1.60000000E+01  1.00800000E+00
  1.00800000E+00  1.60000000E+01  1.00800000E+00  1.00800000E+00  1.60000000E+01
  1.00800000E+00  1.00800000E+00  1.60000000E+01  1.00800000E+00  1.00800000E+00
  1.60000000E+01  1.00800000E+00  1.00800000E+00  1.60000000E+01  1.00800000E+00
  1.00800000E+00  1.60000000E+01  1.00800000E+00  1.00800000E+00  1.60000000E+01
  1.00800000E+00  1.00800000E+00  1.60000000E+01  1.00800000E+00  1.00800000E+00
  1.60000000E+01  1.00800000E+00  1.00800000E+00  1.60000000E+01  1.00800000E+00
  1.00800000E+00  1.60000000E+01  1.00800000E+00  1.00800000E+00  1.60000000E+01
  1.00800000E+00  1.00800000E+00  1.60000000E+01  1.00800000E+00  1.00800000E+00
  1.60000000E+01  1.00800000E+00  1.00800000E+00  1.60000000E+01  1.00800000E+00
  1.00800000E+00  1.60000000E+01  1.00800000E+00  1.00800000E+00  1.60000000E+01
  1.00800000E+00  1.00800000E+00  1.60000000E+01  1.00800000E+00  1.00800000E+00
  1.60000000E+01  1.00800000E+00  1.00800000E+00  1.60000000E+01  1.00800000E+00
  1.00800000E+00  1.60000000E+01  1.00800000E+00  1.00800000E+00  1.60000000E+01
  1.00800000E+00  1.00800000E+00  1.60000000E+01  1.00800000E+00  1.00800000E+00
  1.60000000E+01  1.00800000E+00  1.00800000E+00  1.60000000E+01  1.00800000E+00
  1.00800000E+00  1.60000000E+01  1.00800000E+00  1.00800000E+00  1.60000000E+01
  1.00800000E+00  1.00800000E+00  1.60000000E+01  1.00800000E+00  1.00800000E+00
  1.60000000E+01  1.00800000E+00  1.00800000E+00  1.60000000E+01  1.00800000E+00
  1.00800000E+00  1.60000000E+01  1.00800000E+00  1.00800000E+00  1.60000000E+01
  1.00800000E+00  1.00800000E+00  1.60000000E+01  1.00800000E+00  1.00800000E+00
  1.60000000E+01  1.00800000E+00  1.00800000E+00  1.60000000E+01  1.00800000E+00
  1.00800000E+00  1.60000000E+01  1.00800000E+00  1.00800000E+00  1.60000000E+01
  1.00800000E+00  1.00800000E+00  1.60000000E+01  1.00800000E+00  1.00800000E+00
  1.60000000E+01  1.00800000E+00  1.00800000E+00  1.60000000E+01  1.00800000E+00
  1.00800000E+00  1.60000000E+01  1.00800000E+00  1.00800000E+00  1.60000000E+01
  1.00800000E+00  1.00800000E+00  1.60000000E+01  1.00800000E+00  1.00800000E+00
  1.60000000E+01  1.00800000E+00  1.00800000E+00  1.60000000E+01  1.00800000E+00
  1.00800000E+00  1.60000000E+01  1.00800000E+00  1.00800000E+00  1.60000000E+01
  1.00800000E+00  1.00800000E+00  1.60000000E+01  1.00800000E+00  1.00800000E+00
  1.60000000E+01  1.00800000E+00  1.00800000E+00  1.60000000E+01  1.00800000E+00
  1.00800000E+00  1.60000000E+01  1.00800000E+00  1.00800000E+00  1.60000000E+01
  1.00800000E+00  1.00800000E+00  1.60000000E+01  1.00800000E+00  1.00800000E+00
  1.60000000E+01  1.00800000E+00  1.00800000E+00  1.60000000E+01  1.00800000E+00
  1.00800000E+00  1.60000000E+01  1.00800000E+00  1.00800000E+00  1.60000000E+01
  1.00800000E+00  1.00800000E+00  1.60000000E+01  1.00800000E+00  1.00800000E+00
  1.60000000E+01  1.00800000E+00  1.00800000E+00  1.60000000E+01  1.00800000E+00
  1.00800000E+00  1.60000000E+01  1.00800000E+00  1.00800000E+00  1.60000000E+01
  1.00800000E+00  1.00800000E+00  1.60000000E+01  1.00800000E+00  1.00800000E+00
  1.60000000E+01  1.00800000E+00  1.00800000E+00  1.60000000E+01  1.00800000E+00
  1.00800000E+00  1.60000000E+01  1.00800000E+00  1.00800000E+00  1.60000000E+01
  1.00800000E+00  1.00800000E+00  1.60000000E+01  1.00800000E+00  1.00800000E+00
  1.60000000E+01  1.00800000E+00  1.00800000E+00  1.60000000E+01  1.00800000E+00
  1.00800000E+00  1.60000000E+01  1.00800000E+00  1.00800000E+00  1.60000000E+01
  1.00800000E+00  1.00800000E+00  1.60000000E+01  1.00800000E+00  1.00800000E+00
  1.60000000E+01  1.00800000E+00  1.00800000E+00  1.60000000E+01  1.00800000E+00
  1.00800000E+00  1.60000000E+01  1.00800000E+00  1.00800000E+00  1.60000000E+01
  1.00800000E+00  1.00800000E+00  1.60000000E+01  1.00800000E+00  1.00800000E+00
  1.60000000E+01  1.00800000E+00  1.00800000E+00  1.60000000E+01  1.00800000E+00
  1.00800000E+00  1.60000000E+01  1.00800000E+00  1.00800000E+00  1.60000000E+01
  1.00800000E+00  1.00800000E+00  1.60000000E+01  1.00800000E+00  1.00800000E+00
  1.60000000E+01  1.00800000E+00  1.00800000E+00  1.60000000E+01  1.00800000E+00
  1.00800000E+00  1.60000000E+01  1.00800000E+00  1.00800000E+00  1.60000000E+01
  1.00800000E+00  1.00800000E+00  1.60000000E+01  1.00800000E+00  1.00800000E+00
  1.60000000E+01  1.00800000E+00  1.00800000E+00  1.60000000E+01  1.00800000E+00
  1.00800000E+00  1.60000000E+01  1.00800000E+00  1.00800000E+00  1.60000000E+01
  1.00800000E+00  1.00800000E+00  1.60000000E+01  1.00800000E+00  1.00800000E+00
  1.60000000E+01  1.00800000E+00  1.00800000E+00  1.60000000E+01  1.00800000E+00
  1.00800000E+00  1.60000000E+01  1.00800000E+00  1.00800000E+00  1.60000000E+01
  1.00800000E+00  1.00800000E+00  1.60000000E+01  1.00800000E+00  1.00800000E+00
  1.60000000E+01  1.00800000E+00  1.00800000E+00  1.60000000E+01  1.00800000E+00
  1.00800000E+00  1.60000000E+01  1.00800000E+00  1.00800000E+00  1.60000000E+01
  1.00800000E+00  1.00800000E+00  1.60000000E+01  1.00800000E+00  1.00800000E+00
  1.60000000E+01  1.00800000E+00  1.00800000E+00  1.60000000E+01  1.00800000E+00
  1.00800000E+00  1.60000000E+01  1.00800000E+00  1.00800000E+00  1.60000000E+01
  1.00800000E+00  1.00800000E+00  1.60000000E+01  1.00800000E+00  1.00800000E+00
  1.60000000E+01  1.00800000E+00  1.00800000E+00  1.60000000E+01  1.00800000E+00
  1.00800000E+00  1.60000000E+01  1.00800000E+00  1.00800000E+00  1.60000000E+01
  1.00800000E+00  1.00800000E+00  1.60000000E+01  1.00800000E+00  1.00800000E+00
  1.60000000E+01  1.00800000E+00  1.00800000E+00  1.60000000E+01  1.00800000E+00
  1.00800000E+00  1.60000000E+01  1.00800000E+00  1.00800000E+00  1.60000000E+01
  1.00800000E+00  1.00800000E+00  1.60000000E+01  1.00800000E+00  1.00800000E+00
  1.60000000E+01  1.00800000E+00  1.00800000E+00  1.60000000E+01  1.00800000E+00
  1.00800000E+00  1.60000000E+01  1.00800000E+00  1.00800000E+00  1.60000000E+01
  1.00800000E+00  1.00800000E+00  1.60000000E+01  1.00800000E+00  1.00800000E+00
  1.60000000E+01  1.00800000E+00  1.00800000E+00  1.60000000E+01  1.00800000E+00
  1.00800000E+00  1.60000000E+01  1.00800000E+00  1.00800000E+00  1.60000000E+01
  1.00800000E+00  1.00800000E+00  1.60000000E+01  1.00800000E+00  1.00800000E+00
  1.60000000E+01  1.00800000E+00  1.00800000E+00  1.60000000E+01  1.00800000E+00
  1.00800000E+00  1.60000000E+01  1.00800000E+00  1.00800000E+00  1.60000000E+01
  1.00800000E+00  1.00800000E+00  1.60000000E+01  1.00800000E+00  1.00800000E+00
  1.60000000E+01  1.00800000E+00  1.00800000E+00  1.60000000E+01  1.00800000E+00
  1.00800000E+00  1.60000000E+01  1.00800000E+00  1.00800000E+00  1.60000000E+01
  1.00800000E+00  1.00800000E+00  1.60000000E+01  1.00800000E+00  1.00800000E+00
  1.60000000E+01  1.00800000E+00  1.00800000E+00  1.60000000E+01  1.00800000E+00
  1.00800000E+00  1.60000000E+01  1.00800000E+00  1.00800000E+00  1.60000000E+01
  1.00800000E+00  1.00800000E+00  1.60000000E+01  1.00800000E+00  1.00800000E+00
  1.60000000E+01  1.00800000E+00  1.00800000E+00  1.60000000E+01  1.00800000E+00
  1.00800000E+00  1.60000000E+01  1.00800000E+00  1.00800000E+00  1.60000000E+01
  1.00800000E+00  1.00800000E+00  1.60000000E+01  1.00800000E+00  1.00800000E+00
  1.60000000E+01  1.00800000E+00  1.00800000E+00  1.60000000E+01  1.00800000E+00
  1.00800000E+00  1.60000000E+01  1.00800000E+00  1.00800000E+00  1.60000000E+01
  1.00800000E+00  1.00800000E+00  1.60000000E+01  1.00800000E+00  1.00800000E+00
  1.60000000E+01  1.00800000E+00  1.00800000E+00  1.60000000E+01  1.00800000E+00
  1.00800000E+00  1.60000000E+01  1.00800000E+00  1.00800000E+00  1.60000000E+01
  1.00800000E+00  1.00800000E+00  1.60000000E+01  1.00800000E+00  1.00800000E+00
  1.60000000E+01  1.00800000E+00  1.00800000E+00  1.60000000E+01  1.00800000E+00
  1.00800000E+00  1.60000000E+01  1.00800000E+00  1.00800000E+00  1.60000000E+01
  1.00800000E+00  1.00800000E+00  1.60000000E+01  1.00800000E+00  1.00800000E+00
  1.60000000E+01  1.00800000E+00  1.00800000E+00  1.60000000E+01  1.00800000E+00
  1.00800000E+00  1.60000000E+01  1.00800000E+00  1.00800000E+00  1.60000000E+01
  1.00800000E+00  1.00800000E+00  1.60000000E+01  1.00800000E+00  1.00800000E+00
  1.60000000E+01  1.00800000E+00  1.00800000E+00  1.60000000E+01  1.00800000E+00
  1.00800000E+00  1.60000000E+01  1.00800000E+00  1.00800000E+00  1.60000000E+01
  1.00800000E+00  1.00800000E+00  1.60000000E+01  1.00800000E+00  1.00800000E+00
  1.60000000E+01  1.00800000E+00  1.00800000E+00  1.60000000E+01  1.00800000E+00
  1.00800000E+00  1.60000000E+01  1.00800000E+00  1.00800000E+00  1.60000000E+01
  1.00800000E+00  1.00800000E+00  1.60000000E+01  1.00800000E+00  1.00800000E+00
  1.60000000E+01  1.00800000E+00  1.00800000E+00  1.60000000E+01  1.00800000E+00
  1.00800000E+00  1.60000000E+01  1.00800000E+00  1.00800000E+00  1.60000000E+01
  1.00800000E+00  1.00800000E+00  1.60000000E+01  1.00800000E+00  1.00800000E+00
  1.60000000E+01  1.00800000E+00  1.00800000E+00  1.60000000E+01  1.00800000E+00
  1.00800000E+00  1.60000000E+01  1.00800000E+00  1.00800000E+00  1.60000000E+01
  1.00800000E+00  1.00800000E+00  1.60000000E+01  1.00800000E+00  1.00800000E+00
  1.60000000E+01  1.00800000E+00  1.00800000E+00  1.60000000E+01  1.00800000E+00
  1.00800000E+00  1.60000000E+01  1.00800000E+00  1.00800000E+00  1.60000000E+01
  1.00800000E+00  1.00800000E+00  1.60000000E+01  1.00800000E+00  1.00800000E+00
  1.60000000E+01  1.00800000E+00  1.00800000E+00  1.60000000E+01  1.00800000E+00
  1.00800000E+00  1.60000000E+01  1.00800000E+00  1.00800000E+00  1.60000000E+01
  1.00800000E+00  1.00800000E+00  1.60000000E+01  1.00800000E+00  1.00800000E+00
  1.60000000E+01  1.00800000E+00  1.00800000E+00  1.60000000E+01  1.00800000E+00
  1.00800000E+00  1.60000000E+01  1.00800000E+00  1.00800000E+00  1.60000000E+01
  1.00800000E+00  1.00800000E+00  1.60000000E+01  1.00800000E+00  1.00800000E+00
  1.60000000E+01  1.00800000E+00  1.00800000E+00  1.60000000E+01  1.00800000E+00
  1.00800000E+00  1.60000000E+01  1.00800000E+00  1.00800000E+00  1.60000000E+01
  1.00800000E+00  1.00800000E+00  1.60000000E+01  1.00800000E+00  1.00800000E+00
  1.60000000E+01  1.00800000E+00  1.00800000E+00  1.60000000E+01  1.00800000E+00
  1.00800000E+00  1.60000000E+01  1.00800000E+00  1.00800000E+00  1.60000000E+01
  1.00800000E+00  1.00800000E+00  1.60000000E+01  1.00800000E+00  1.00800000E+00
  1.60000000E+01  1.00800000E+00  1.00800000E+00  1.60000000E+01  1.00800000E+00
  1.00800000E+00  1.60000000E+01  1.00800000E+00  1.00800000E+00  1.60000000E+01
  1.00800000E+00  1.00800000E+00  1.60000000E+01  1.00800000E+00  1.00800000E+00
  1.60000000E+01  1.00800000E+00  1.00800000E+00  1.60000000E+01  1.00800000E+00
  1.00800000E+00  1.60000000E+01  1.00800000E+00  1.00800000E+00  1.60000000E+01
  1.00800000E+00  1.00800000E+00  1.60000000E+01  1.00800000E+00  1.00800000E+00
  1.60000000E+01  1.00800000E+00  1.00800000E+00  1.60000000E+01  1.00800000E+00
  1.00800000E+00  1.60000000E+01  1.00800000E+00  1.00800000E+00  1.60000000E+01
  1.00800000E+00  1.00800000E+00  1.60000000E+01  1.00800000E+00  1.00800000E+00
  1.60000000E+01  1.00800000E+00  1.00800000E+00  1.60000000E+01  1.00800000E+00
  1.00800000E+00  1.60000000E+01  1.00800000E+00  1.00800000E+00  1.60000000E+01
  1.00800000E+00  1.00800000E+00  1.60000000E+01  1.00800000E+00  1.00800000E+00
  1.60000000E+01  1.00800000E+00  1.00800000E+00  1.60000000E+01  1.00800000E+00
  1.00800000E+00  1.60000000E+01  1.00800000E+00  1.00800000E+00  1.60000000E+01
  1.00800000E+00  1.00800000E+00  1.60000000E+01  1.00800000E+00  1.00800000E+00
  1.60000000E+01  1.00800000E+00  1.00800000E+00  1.60000000E+01  1.00800000E+00
  1.00800000E+00  1.60000000E+01  1.00800000E+00  1.00800000E+00  1.60000000E+01
  1.00800000E+00  1.00800000E+00  1.60000000E+01  1.00800000E+00  1.00800000E+00
  1.60000000E+01  1.00800000E+00  1.00800000E+00  1.60000000E+01  1.00800000E+00
  1.00800000E+00  1.60000000E+01  1.00800000E+00  1.00800000E+00  1.60000000E+01
  1.00800000E+00  1.00800000E+00  1.60000000E+01  1.00800000E+00  1.00800000E+00
  1.60000000E+01  1.00800000E+00  1.00800000E+00  1.60000000E+01  1.00800000E+00
  1.00800000E+00  1.60000000E+01  1.00800000E+00  1.00800000E+00  1.60000000E+01
  1.00800000E+00  1.00800000E+00  1.60000000E+01  1.00800000E+00  1.00800000E+00
  1.60000000E+01  1.00800000E+00  1.00800000E+00  1.60000000E+01  1.00800000E+00
  1.00800000E+00  1.60000000E+01  1.00800000E+00  1.00800000E+00  1.60000000E+01
  1.00800000E+00  1.00800000E+00  1.60000000E+01  1.00800000E+00  1.00800000E+00
  1.60000000E+01  1.00800000E+00  1.00800000E+00  1.60000000E+01  1.00800000E+00
  1.00800000E+00  1.60000000E+01  1.00800000E+00  1.00800000E+00  1.60000000E+01
  1.00800000E+00  1.00800000E+00  1.60000000E+01  1.00800000E+00  1.00800000E+00
  1.60000000E+01  1.00800000E+00  1.00800000E+00  1.60000000E+01  1.00800000E+00
  1.00800000E+00  1.60000000E+01  1.00800000E+00  1.00800000E+00  1.60000000E+01
  1.00800000E+00  1.00800000E+00  1.60000000E+01  1.00800000E+00  1.00800000E+00
  1.60000000E+01  1.00800000E+00  1.00800000E+00  1.60000000E+01  1.00800000E+00
  1.00800000E+00  1.60000000E+01  1.00800000E+00  1.00800000E+00  1.60000000E+01
  1.00800000E+00  1.00800000E+00  1.60000000E+01  1.00800000E+00  1.00800000E+00
  1.60000000E+01  1.00800000E+00  1.00800000E+00  1.60000000E+01  1.00800000E+00
  1.00800000E+00  1.60000000E+01  1.00800000E+00  1.00800000E+00  1.60000000E+01
  1.00800000E+00  1.00800000E+00  1.60000000E+01  1.00800000E+00  1.00800000E+00
  1.60000000E+01  1.00800000E+00  1.00800000E+00  1.60000000E+01  1.00800000E+00
  1.00800000E+00  1.60000000E+01  1.00800000E+00  1.00800000E+00  1.60000000E+01
  1.00800000E+00  1.00800000E+00  1.60000000E+01  1.00800000E+00  1.00800000E+00
  1.60000000E+01  1.00800000E+00  1.00800000E+00  1.60000000E+01  1.00800000E+00
  1.00800000E+00  1.60000000E+01  1.00800000E+00  1.00800000E+00  1.60000000E+01
  1.00800000E+00  1.00800000E+00  1.60000000E+01  1.00800000E+00  1.00800000E+00
  1.60000000E+01  1.00800000E+00  1.00800000E+00  1.60000000E+01  1.00800000E+00
  1.00800000E+00  1.60000000E+01  1.00800000E+00  1.00800000E+00  1.60000000E+01
  1.00800000E+00  1.00800000E+00  1.60000000E+01  1.00800000E+00  1.00800000E+00
  1.60000000E+01  1.00800000E+00  1.00800000E+00  1.60000000E+01  1.00800000E+00
  1.00800000E+00  1.60000000E+01  1.00800000E+00  1.00800000E+00  1.60000000E+01
  1.00800000E+00  1.00800000E+00  1.60000000E+01  1.00800000E+00  1.00800000E+00
  1.60000000E+01  1.00800000E+00  1.00800000E+00  1.60000000E+01  1.00800000E+00
  1.00800000E+00  1.60000000E+01  1.00800000E+00  1.00800000E+00  1.60000000E+01
  1.00800000E+00  1.00800000E+00  1.60000000E+01  1.00800000E+00  1.00800000E+00
  1.60000000E+01  1.00800000E+00  1.00800000E+00  1.60000000E+01  1.00800000E+00
  1.00800000E+00  1.60000000E+01  1.00800000E+00  1.00800000E+00  1.60000000E+01
  1.00800000E+00  1.00800000E+00  1.60000000E+01  1.00800000E+00  1.00800000E+00
  1.60000000E+01  1.00800000E+00  1.00800000E+00  1.60000000E+01  1.00800000E+00
  1.00800000E+00  1.60000000E+01  1.00800000E+00  1.00800000E+00  1.60000000E+01
  1.00800000E+00  1.00800000E+00  1.60000000E+01  1.00800000E+00  1.00800000E+00
  1.60000000E+01  1.00800000E+00  1.00800000E+00  1.60000000E+01  1.00800000E+00
  1.00800000E+00  1.60000000E+01  1.00800000E+00  1.00800000E+00  1.60000000E+01
  1.00800000E+00  1.00800000E+00  1.60000000E+01  1.00800000E+00  1.00800000E+00
  1.60000000E+01  1.00800000E+00  1.00800000E+00  1.60000000E+01  1.00800000E+00
  1.00800000E+00  1.60000000E+01  1.00800000E+00  1.00800000E+00  1.60000000E+01
  1.00800000E+00  1.00800000E+00  1.60000000E+01  1.00800000E+00  1.00800000E+00
  1.60000000E+01  1.00800000E+00  1.00800000E+00  1.60000000E+01  1.00800000E+00
  1.00800000E+00  1.60000000E+01  1.00800000E+00  1.00800000E+00  1.60000000E+01
  1.00800000E+00  1.00800000E+00  1.60000000E+01  1.00800000E+00  1.00800000E+00
  1.60000000E+01  1.00800000E+00  1.00800000E+00  1.60000000E+01  1.00800000E+00
  1.00800000E+00  1.60000000E+01  1.00800000E+00  1.00800000E+00  1.60000000E+01
  1.00800000E+00  1.00800000E+00  1.60000000E+01  1.00800000E+00  1.00800000E+00
  1.60000000E+01  1.00800000E+00  1.00800000E+00  1.60000000E+01  1.00800000E+00
  1.00800000E+00  1.60000000E+01  1.00800000E+00  1.00800000E+00  1.60000000E+01
  1.00800000E+00  1.00800000E+00  1.60000000E+01  1.00800000E+00  1.00800000E+00
  1.60000000E+01  1.00800000E+00  1.00800000E+00  1.60000000E+01  1.00800000E+00
  1.00800000E+00  1.60000000E+01  1.00800000E+00  1.00800000E+00  1.60000000E+01
  1.00800000E+00  1.00800000E+00  1.60000000E+01  1.00800000E+00  1.00800000E+00
  1.60000000E+01  1.00800000E+00  1.00800000E+00  1.60000000E+01  1.00800000E+00
  1.00800000E+00  1.60000000E+01  1.00800000E+00  1.00800000E+00  1.60000000E+01
  1.00800000E+00  1.00800000E+00  1.60000000E+01  1.00800000E+00  1.00800000E+00
  1.60000000E+01  1.00800000E+00  1.00800000E+00  1.60000000E+01  1.00800000E+00
  1.00800000E+00  1.60000000E+01  1.00800000E+00  1.00800000E+00  1.60000000E+01
  1.00800000E+00  1.00800000E+00  1.60000000E+01  1.00800000E+00  1.00800000E+00
  1.60000000E+01  1.00800000E+00  1.00800000E+00  1.60000000E+01  1.00800000E+00
  1.00800000E+00  1.60000000E+01  1.00800000E+00  1.00800000E+00  1.60000000E+01
  1.00800000E+00  1.00800000E+00  1.60000000E+01  1.00800000E+00  1.00800000E+00
  1.60000000E+01  1.00800000E+00  1.00800000E+00  1.60000000E+01  1.00800000E+00
  1.00800000E+00  1.60000000E+01  1.00800000E+00  1.00800000E+00  1.60000000E+01
  1.00800000E+00  1.00800000E+00  1.60000000E+01  1.00800000E+00  1.00800000E+00
  1.60000000E+01  1.00800000E+00  1.00800000E+00  1.60000000E+01  1.00800000E+00
  1.00800000E+00  1.60000000E+01  1.00800000E+00  1.00800000E+00  1.60000000E+01
  1.00800000E+00  1.00800000E+00  1.60000000E+01  1.00800000E+00  1.00800000E+00
  1.60000000E+01  1.00800000E+00  1.00800000E+00  1.60000000E+01  1.00800000E+00
  1.00800000E+00  1.60000000E+01  1.00800000E+00  1.00800000E+00  1.60000000E+01
  1.00800000E+00  1.00800000E+00  1.60000000E+01  1.00800000E+00  1.00800000E+00
  1.60000000E+01  1.00800000E+00  1.00800000E+00  1.60000000E+01  1.00800000E+00
  1.00800000E+00  1.60000000E+01  1.00800000E+00  1.00800000E+00  1.60000000E+01
  1.00800000E+00  1.00800000E+00  1.60000000E+01  1.00800000E+00  1.00800000E+00
  1.60000000E+01  1.00800000E+00  1.00800000E+00  1.60000000E+01  1.00800000E+00
  1.00800000E+00  1.60000000E+01  1.00800000E+00  1.00800000E+00  1.60000000E+01
  1.00800000E+00  1.00800000E+00  1.60000000E+01  1.00800000E+00  1.00800000E+00
  1.60000000E+01  1.00800000E+00  1.00800000E+00  1.60000000E+01  1.00800000E+00
  1.00800000E+00  1.60000000E+01  1.00800000E+00  1.00800000E+00  1.60000000E+01
  1.00800000E+00  1.00800000E+00  1.60000000E+01  1.00800000E+00  1.00800000E+00
  1.60000000E+01  1.00800000E+00  1.00800000E+00  1.60000000E+01  1.00800000E+00
  1.00800000E+00  1.60000000E+01  1.00800000E+00  1.00800000E+00  1.60000000E+01
  1.00800000E+00  1.00800000E+00  1.60000000E+01  1.00800000E+00  1.00800000E+00
  1.60000000E+01  1.00800000E+00  1.00800000E+00  1.60000000E+01  1.00800000E+00
  1.00800000E+00  1.60000000E+01  1.00800000E+00  1.00800000E+00  1.60000000E+01
  1.00800000E+00  1.00800000E+00  1.60000000E+01  1.00800000E+00  1.00800000E+00
  1.60000000E+01  1.00800000E+00  1.00800000E+00  1.60000000E+01  1.00800000E+00
  1.00800000E+00  1.60000000E+01  1.00800000E+00  1.00800000E+00  1.60000000E+01
  1.00800000E+00  1.00800000E+00  1.60000000E+01  1.00800000E+00  1.00800000E+00
  1.60000000E+01  1.00800000E+00  1.00800000E+00  1.60000000E+01  1.00800000E+00
  1.00800000E+00  1.60000000E+01  1.00800000E+00  1.00800000E+00  1.60000000E+01
  1.00800000E+00  1.00800000E+00  1.60000000E+01  1.00800000E+00  1.00800000E+00
  1.60000000E+01  1.00800000E+00  1.00800000E+00  1.60000000E+01  1.00800000E+00
  1.00800000E+00  1.60000000E+01  1.00800000E+00  1.00800000E+00  1.60000000E+01
  1.00800000E+00  1.00800000E+00  1.60000000E+01  1.00800000E+00  1.00800000E+00
  1.60000000E+01  1.00800000E+00  1.00800000E+00  1.60000000E+01  1.00800000E+00
  1.00800000E+00  1.60000000E+01  1.00800000E+00  1.00800000E+00  1.60000000E+01
  1.00800000E+00  1.00800000E+00  1.60000000E+01  1.00800000E+00  1.00800000E+00
  1.60000000E+01  1.00800000E+00  1.00800000E+00  1.60000000E+01  1.00800000E+00
  1.00800000E+00  1.60000000E+01  1.00800000E+00  1.00800000E+00  1.60000000E+01
  1.00800000E+00  1.00800000E+00  1.60000000E+01  1.00800000E+00  1.00800000E+00
  1.60000000E+01  1.00800000E+00  1.00800000E+00  1.60000000E+01  1.00800000E+00
  1.00800000E+00  1.60000000E+01  1.00800000E+00  1.00800000E+00  1.60000000E+01
  1.00800000E+00  1.00800000E+00  1.60000000E+01  1.00800000E+00  1.00800000E+00
  1.60000000E+01  1.00800000E+00  1.00800000E+00  1.60000000E+01  1.00800000E+00
  1.00800000E+00  1.60000000E+01  1.00800000E+00  1.00800000E+00  1.60000000E+01
  1.00800000E+00  1.00800000E+00  1.60000000E+01  1.00800000E+00  1.00800000E+00
  1.60000000E+01  1.00800000E+00  1.00800000E+00  1.60000000E+01  1.00800000E+00
  1.00800000E+00  1.60000000E+01  1.00800000E+00  1.00800000E+00  1.60000000E+01
  1.00800000E+00  1.00800000E+00  1.60000000E+01  1.00800000E+00  1.00800000E+00
  1.60000000E+01  1.00800000E+00  1.00800000E+00  1.60000000E+01  1.00800000E+00
  1.00800000E+00  1.60000000E+01  1.00800000E+00  1.00800000E+00  1.60000000E+01
  1.00800000E+00  1.00800000E+00  1.60000000E+01  1.00800000E+00  1.00800000E+00
  1.60000000E+01  1.00800000E+00  1.00800000E+00  1.60000000E+01  1.00800000E+00
  1.00800000E+00  1.60000000E+01  1.00800000E+00  1.00800000E+00  1.60000000E+01
  1.00800000E+00  1.00800000E+00  1.60000000E+01  1.00800000E+00  1.00800000E+00
  1.60000000E+01  1.00800000E+00  1.00800000E+00  1.60000000E+01  1.00800000E+00
  1.00800000E+00  1.60000000E+01  1.00800000E+00  1.00800000E+00  1.60000000E+01
  1.00800000E+00  1.00800000E+00  1.60000000E+01  1.00800000E+00  1.00800000E+00
  1.60000000E+01  1.00800000E+00  1.00800000E+00  1.60000000E+01  1.00800000E+00
  1.00800000E+00  1.60000000E+01  1.00800000E+00  1.00800000E+00  1.60000000E+01
  1.00800000E+00  1.00800000E+00  1.60000000E+01  1.00800000E+00  1.00800000E+00
  1.60000000E+01  1.00800000E+00  1.00800000E+00  1.60000000E+01  1.00800000E+00
  1.00800000E+00  1.60000000E+01  1.00800000E+00  1.00800000E+00  1.60000000E+01
  1.00800000E+00  1.00800000E+00  1.60000000E+01  1.00800000E+00  1.00800000E+00
  1.60000000E+01  1.00800000E+00  1.00800000E+00  1.60000000E+01  1.00800000E+00
  1.00800000E+00  1.60000000E+01  1.00800000E+00  1.00800000E+00  1.60000000E+01
  1.00800000E+00  1.00800000E+00  1.60000000E+01  1.00800000E+00  1.00800000E+00
  1.60000000E+01  1.00800000E+00  1.00800000E+00  1.60000000E+01  1.00800000E+00
  1.00800000E+00  1.60000000E+01  1.00800000E+00  1.00800000E+00  1.60000000E+01
  1.00800000E+00  1.00800000E+00  1.60000000E+01  1.00800000E+00  1.00800000E+00
  1.60000000E+01  1.00800000E+00  1.00800000E+00  1.60000000E+01  1.00800000E+00
  1.00800000E+00  1.60000000E+01  1.00800000E+00  1.00800000E+00  1.60000000E+01
  1.00800000E+00  1.00800000E+00  1.60000000E+01  1.00800000E+00  1.00800000E+00
  1.60000000E+01  1.00800000E+00  1.00800000E+00  1.60000000E+01  1.00800000E+00
  1.00800000E+00  1.60000000E+01  1.00800000E+00  1.00800000E+00  1.60000000E+01
  1.00800000E+00  1.00800000E+00  1.60000000E+01  1.00800000E+00  1.00800000E+00
  1.60000000E+01  1.00800000E+00  1.00800000E+00  1.60000000E+01  1.00800000E+00
  1.00800000E+00  1.60000000E+01  1.00800000E+00  1.00800000E+00  1.60000000E+01
  1.00800000E+00  1.00800000E+00  1.60000000E+01  1.00800000E+00  1.00800000E+00
  1.60000000E+01  1.00800000E+00  1.00800000E+00  1.60000000E+01  1.00800000E+00
  1.00800000E+00  1.60000000E+01  1.00800000E+00  1.00800000E+00  1.60000000E+01
  1.00800000E+00  1.00800000E+00  1.60000000E+01  1.00800000E+00  1.00800000E+00
  1.60000000E+01  1.00800000E+00  1.00800000E+00  1.60000000E+01  1.00800000E+00
  1.00800000E+00  1.60000000E+01  1.00800000E+00  1.00800000E+00  1.60000000E+01
  1.00800000E+00  1.00800000E+00  1.60000000E+01  1.00800000E+00  1.00800000E+00
  1.60000000E+01  1.00800000E+00  1.00800000E+00  1.60000000E+01  1.00800000E+00
  1.00800000E+00  1.60000000E+01  1.00800000E+00  1.00800000E+00  1.60000000E+01
  1.00800000E+00  1.00800000E+00  1.60000000E+01  1.00800000E+00  1.00800000E+00
  1.60000000E+01  1.00800000E+00  1.00800000E+00  1.60000000E+01  1.00800000E+00
  1.00800000E+00  1.60000000E+01  1.00800000E+00  1.00800000E+00  1.60000000E+01
  1.00800000E+00  1.00800000E+00  1.60000000E+01  1.00800000E+00  1.00800000E+00
  1.60000000E+01  1.00800000E+00  1.00800000E+00  1.60000000E+01  1.00800000E+00
  1.00800000E+00  1.60000000E+01  1.00800000E+00  1.00800000E+00  1.60000000E+01
  1.00800000E+00  1.00800000E+00  1.60000000E+01  1.00800000E+00  1.00800000E+00
  1.60000000E+01  1.00800000E+00  1.00800000E+00  1.60000000E+01  1.00800000E+00
  1.00800000E+00  1.60000000E+01  1.00800000E+00  1.00800000E+00  1.60000000E+01
  1.00800000E+00  1.00800000E+00  1.60000000E+01  1.00800000E+00  1.00800000E+00
  1.60000000E+01  1.00800000E+00  1.00800000E+00  1.60000000E+01  1.00800000E+00
  1.00800000E+00  1.60000000E+01  1.00800000E+00  1.00800000E+00  1.60000000E+01
  1.00800000E+00  1.00800000E+00  1.60000000E+01  1.00800000E+00  1.00800000E+00
  1.60000000E+01  1.00800000E+00  1.00800000E+00  1.60000000E+01  1.00800000E+00
  1.00800000E+00  1.60000000E+01  1.00800000E+00  1.00800000E+00  1.60000000E+01
  1.00800000E+00  1.00800000E+00  1.60000000E+01  1.00800000E+00  1.00800000E+00
  1.60000000E+01  1.00800000E+00  1.00800000E+00  1.60000000E+01  1.00800000E+00
  1.00800000E+00  1.60000000E+01  1.00800000E+00  1.00800000E+00  1.60000000E+01
  1.00800000E+00  1.00800000E+00  1.60000000E+01  1.00800000E+00  1.00800000E+00
  1.60000000E+01  1.00800000E+00  1.00800000E+00  1.60000000E+01  1.00800000E+00
  1.00800000E+00  1.60000000E+01  1.00800000E+00  1.00800000E+00  1.60000000E+01
  1.00800000E+00  1.00800000E+00  1.60000000E+01  1.00800000E+00  1.00800000E+00
  1.60000000E+01  1.00800000E+00  1.00800000E+00  1.60000000E+01  1.00800000E+00
  1.00800000E+00  1.60000000E+01  1.00800000E+00  1.00800000E+00  1.60000000E+01
  1.00800000E+00  1.00800000E+00  1.60000000E+01  1.00800000E+00  1.00800000E+00
  1.60000000E+01  1.00800000E+00  1.00800000E+00  1.60000000E+01  1.00800000E+00
  1.00800000E+00  1.60000000E+01  1.00800000E+00  1.00800000E+00  1.60000000E+01
  1.00800000E+00  1.00800000E+00  1.60000000E+01  1.00800000E+00  1.00800000E+00
  1.60000000E+01  1.00800000E+00  1.00800000E+00  1.60000000E+01  1.00800000E+00
  1.00800000E+00  1.60000000E+01  1.00800000E+00  1.00800000E+00  1.60000000E+01
  1.00800000E+00  1.00800000E+00  1.60000000E+01  1.00800000E+00  1.00800000E+00
  1.60000000E+01  1.00800000E+00  1.00800000E+00  1.60000000E+01  1.00800000E+00
  1.00800000E+00  1.60000000E+01  1.00800000E+00  1.00800000E+00  1.60000000E+01
  1.00800000E+00  1.00800000E+00  1.60000000E+01  1.00800000E+00  1.00800000E+00
  1.60000000E+01  1.00800000E+00  1.00800000E+00  1.60000000E+01  1.00800000E+00
  1.00800000E+00  1.60000000E+01  1.00800000E+00  1.00800000E+00  1.60000000E+01
  1.00800000E+00  1.00800000E+00  1.60000000E+01  1.00800000E+00  1.00800000E+00
  1.60000000E+01  1.00800000E+00  1.00800000E+00  1.60000000E+01  1.00800000E+00
  1.00800000E+00  1.60000000E+01  1.00800000E+00  1.00800000E+00  1.60000000E+01
  1.00800000E+00  1.00800000E+00  1.60000000E+01  1.00800000E+00  1.00800000E+00
  1.60000000E+01  1.00800000E+00  1.00800000E+00  1.60000000E+01  1.00800000E+00
  1.00800000E+00  1.60000000E+01  1.00800000E+00  1.00800000E+00  1.60000000E+01
  1.00800000E+00  1.00800000E+00  1.60000000E+01  1.00800000E+00  1.00800000E+00
  1.60000000E+01  1.00800000E+00  1.00800000E+00  1.60000000E+01  1.00800000E+00
  1.00800000E+00  1.60000000E+01  1.00800000E+00  1.00800000E+00  1.60000000E+01
  1.00800000E+00  1.00800000E+00  1.60000000E+01  1.00800000E+00  1.00800000E+00
  1.60000000E+01  1.00800000E+00  1.00800000E+00  1.60000000E+01  1.00800000E+00
  1.00800000E+00  1.60000000E+01  1.00800000E+00  1.00800000E+00  1.60000000E+01
  1.00800000E+00  1.00800000E+00  1.60000000E+01  1.00800000E+00  1.00800000E+00
  1.60000000E+01  1.00800000E+00  1.00800000E+00  1.60000000E+01  1.00800000E+00
  1.00800000E+00  1.60000000E+01  1.00800000E+00  1.00800000E+00  1.60000000E+01
  1.00800000E+00  1.00800000E+00  1.60000000E+01  1.00800000E+00  1.00800000E+00
  1.60000000E+01  1.00800000E+00  1.00800000E+00  1.60000000E+01  1.00800000E+00
  1.00800000E+00  1.60000000E+01  1.00800000E+00  1.00800000E+00  1.60000000E+01
  1.00800000E+00  1.00800000E+00  1.60000000E+01  1.00800000E+00  1.00800000E+00
  1.60000000E+01  1.00800000E+00  1.00800000E+00  1.60000000E+01  1.00800000E+00
  1.00800000E+00  1.60000000E+01  1.00800000E+00  1.00800000E+00  1.60000000E+01
  1.00800000E+00  1.00800000E+00  1.60000000E+01  1.00800000E+00  1.00800000E+00
  1.60000000E+01  1.00800000E+00  1.00800000E+00  1.60000000E+01  1.00800000E+00
  1.00800000E+00  1.60000000E+01  1.00800000E+00  1.00800000E+00  1.60000000E+01
  1.00800000E+00  1.00800000E+00  1.60000000E+01  1.00800000E+00  1.00800000E+00
  1.60000000E+01  1.00800000E+00  1.00800000E+00  1.60000000E+01  1.00800000E+00
  1.00800000E+00  1.60000000E+01  1.00800000E+00  1.00800000E+00  1.60000000E+01
  1.00800000E+00  1.00800000E+00  1.60000000E+01  1.00800000E+00  1.00800000E+00
  1.60000000E+01  1.00800000E+00  1.00800000E+00  1.60000000E+01  1.00800000E+00
  1.00800000E+00  1.60000000E+01  1.00800000E+00  1.00800000E+00  1.60000000E+01
  1.00800000E+00  1.00800000E+00  1.60000000E+01  1.00800000E+00  1.00800000E+00
  1.60000000E+01  1.00800000E+00  1.00800000E+00  1.60000000E+01  1.00800000E+00
  1.00800000E+00  1.60000000E+01  1.00800000E+00  1.00800000E+00  1.60000000E+01
  1.00800000E+00  1.00800000E+00  1.60000000E+01  1.00800000E+00  1.00800000E+00
  1.60000000E+01  1.00800000E+00  1.00800000E+00  1.60000000E+01  1.00800000E+00
  1.00800000E+00  1.60000000E+01  1.00800000E+00  1.00800000E+00  1.60000000E+01
  1.00800000E+00  1.00800000E+00  1.60000000E+01  1.00800000E+00  1.00800000E+00
  1.60000000E+01  1.00800000E+00  1.00800000E+00  1.60000000E+01  1.00800000E+00
  1.00800000E+00  1.60000000E+01  1.00800000E+00  1.00800000E+00  1.60000000E+01
  1.00800000E+00  1.00800000E+00  1.60000000E+01  1.00800000E+00  1.00800000E+00
  1.60000000E+01  1.00800000E+00  1.00800000E+00  1.60000000E+01  1.00800000E+00
  1.00800000E+00  1.60000000E+01  1.00800000E+00  1.00800000E+00  1.60000000E+01
  1.00800000E+00  1.00800000E+00  1.60000000E+01  1.00800000E+00  1.00800000E+00
  1.60000000E+01  1.00800000E+00  1.00800000E+00  1.60000000E+01  1.00800000E+00
  1.00800000E+00  1.60000000E+01  1.00800000E+00  1.00800000E+00  1.60000000E+01
  1.00800000E+00  1.00800000E+00  1.60000000E+01  1.00800000E+00  1.00800000E+00
  1.60000000E+01  1.00800000E+00  1.00800000E+00  1.60000000E+01  1.00800000E+00
  1.00800000E+00  1.60000000E+01  1.00800000E+00  1.00800000E+00  1.60000000E+01
  1.00800000E+00  1.00800000E+00  1.60000000E+01  1.00800000E+00  1.00800000E+00
  1.60000000E+01  1.00800000E+00  1.00800000E+00  1.60000000E+01  1.00800000E+00
  1.00800000E+00  1.60000000E+01  1.00800000E+00  1.00800000E+00  1.60000000E+01
  1.00800000E+00  1.00800000E+00  1.60000000E+01  1.00800000E+00  1.00800000E+00
  1.60000000E+01  1.00800000E+00  1.00800000E+00  1.60000000E+01  1.00800000E+00
  1.00800000E+00  1.60000000E+01  1.00800000E+00  1.00800000E+00  1.60000000E+01
  1.00800000E+00  1.00800000E+00  1.60000000E+01  1.00800000E+00  1.00800000E+00
  1.60000000E+01  1.00800000E+00  1.00800000E+00  1.60000000E+01  1.00800000E+00
  1.00800000E+00  1.60000000E+01  1.00800000E+00  1.00800000E+00  1.60000000E+01
  1.00800000E+00  1.00800000E+00  1.60000000E+01  1.00800000E+00  1.00800000E+00
  1.60000000E+01  1.00800000E+00  1.00800000E+00  1.60000000E+01  1.00800000E+00
  1.00800000E+00  1.60000000E+01  1.00800000E+00  1.00800000E+00  1.60000000E+01
  1.00800000E+00  1.00800000E+00  1.60000000E+01  1.00800000E+00  1.00800000E+00
  1.60000000E+01  1.00800000E+00  1.00800000E+00  1.60000000E+01  1.00800000E+00
  1.00800000E+00  1.60000000E+01  1.00800000E+00  1.00800000E+00  1.60000000E+01
  1.00800000E+00  1.00800000E+00  1.60000000E+01  1.00800000E+00  1.00800000E+00
  1.60000000E+01  1.00800000E+00  1.00800000E+00  1.60000000E+01  1.00800000E+00
  1.00800000E+00  1.60000000E+01  1.00800000E+00  1.00800000E+00  1.60000000E+01
  1.00800000E+00  1.00800000E+00  1.60000000E+01  1.00800000E+00  1.00800000E+00
  1.60000000E+01  1.00800000E+00  1.00800000E+00  1.60000000E+01  1.00800000E+00
  1.00800000E+00  1.60000000E+01  1.00800000E+00  1.00800000E+00  1.60000000E+01
  1.00800000E+00  1.00800000E+00  1.60000000E+01  1.00800000E+00  1.00800000E+00
  1.60000000E+01  1.00800000E+00  1.00800000E+00  1.60000000E+01  1.00800000E+00
  1.00800000E+00  1.60000000E+01  1.00800000E+00  1.00800000E+00  1.60000000E+01
  1.00800000E+00  1.00800000E+00  1.60000000E+01  1.00800000E+00  1.00800000E+00
  1.60000000E+01  1.00800000E+00  1.00800000E+00  1.60000000E+01  1.00800000E+00
  1.00800000E+00  1.60000000E+01  1.00800000E+00  1.00800000E+00  1.60000000E+01
  1.00800000E+00  1.00800000E+00  1.60000000E+01  1.00800000E+00  1.00800000E+00
  1.60000000E+01  1.00800000E+00  1.00800000E+00  1.60000000E+01  1.00800000E+00
  1.00800000E+00  1.60000000E+01  1.00800000E+00  1.00800000E+00  1.60000000E+01
  1.00800000E+00  1.00800000E+00  1.60000000E+01  1.00800000E+00  1.00800000E+00
  1.60000000E+01  1.00800000E+00  1.00800000E+00  1.60000000E+01  1.00800000E+00
  1.00800000E+00  1.60000000E+01  1.00800000E+00  1.00800000E+00  1.60000000E+01
  1.00800000E+00  1.00800000E+00  1.60000000E+01  1.00800000E+00  1.00800000E+00
  1.60000000E+01  1.00800000E+00  1.00800000E+00  1.60000000E+01  1.00800000E+00
  1.00800000E+00  1.60000000E+01  1.00800000E+00  1.00800000E+00  1.60000000E+01
  1.00800000E+00  1.00800000E+00  1.60000000E+01  1.00800000E+00  1.00800000E+00
  1.60000000E+01  1.00800000E+00  1.00800000E+00  1.60000000E+01  1.00800000E+00
  1.00800000E+00  1.60000000E+01  1.00800000E+00  1.00800000E+00  1.60000000E+01
  1.00800000E+00  1.00800000E+00  1.60000000E+01  1.00800000E+00  1.00800000E+00
  1.60000000E+01  1.00800000E+00  1.00800000E+00  1.60000000E+01  1.00800000E+00
  1.00800000E+00  1.60000000E+01  1.00800000E+00  1.00800000E+00  1.60000000E+01
  1.00800000E+00  1.00800000E+00  1.60000000E+01  1.00800000E+00  1.00800000E+00
  1.60000000E+01  1.00800000E+00  1.00800000E+00  1.60000000E+01  1.00800000E+00
  1.00800000E+00  1.60000000E+01  1.00800000E+00  1.00800000E+00  1.60000000E+01
  1.00800000E+00  1.00800000E+00  1.60000000E+01  1.00800000E+00  1.00800000E+00
  1.60000000E+01  1.00800000E+00  1.00800000E+00  1.60000000E+01  1.00800000E+00
  1.00800000E+00  1.60000000E+01  1.00800000E+00  1.00800000E+00  1.60000000E+01
  1.00800000E+00  1.00800000E+00  1.60000000E+01  1.00800000E+00  1.00800000E+00
  1.60000000E+01  1.00800000E+00  1.00800000E+00  1.60000000E+01  1.00800000E+00
  1.00800000E+00  1.60000000E+01  1.00800000E+00  1.00800000E+00  1.60000000E+01
  1.00800000E+00  1.00800000E+00  1.60000000E+01  1.00800000E+00  1.00800000E+00
  1.60000000E+01  1.00800000E+00  1.00800000E+00  1.60000000E+01  1.00800000E+00
  1.00800000E+00  1.60000000E+01  1.00800000E+00  1.00800000E+00  1.60000000E+01
  1.00800000E+00  1.00800000E+00  1.60000000E+01  1.00800000E+00  1.00800000E+00
  1.60000000E+01  1.00800000E+00  1.00800000E+00  1.60000000E+01  1.00800000E+00
  1.00800000E+00  1.60000000E+01  1.00800000E+00  1.00800000E+00  1.60000000E+01
  1.00800000E+00  1.00800000E+00  1.60000000E+01  1.00800000E+00  1.00800000E+00
  1.60000000E+01  1.00800000E+00  1.00800000E+00  1.60000000E+01  1.00800000E+00
  1.00800000E+00  1.60000000E+01  1.00800000E+00  1.00800000E+00  1.60000000E+01
  1.00800000E+00  1.00800000E+00  1.60000000E+01  1.00800000E+00  1.00800000E+00
  1.60000000E+01  1.00800000E+00  1.00800000E+00  1.60000000E+01  1.00800000E+00
  1.00800000E+00  1.60000000E+01  1.00800000E+00  1.00800000E+00  1.60000000E+01
  1.00800000E+00  1.00800000E+00  1.60000000E+01  1.00800000E+00  1.00800000E+00
  1.60000000E+01  1.00800000E+00  1.00800000E+00  1.60000000E+01  1.00800000E+00
  1.00800000E+00  1.60000000E+01  1.00800000E+00  1.00800000E+00  1.60000000E+01
  1.00800000E+00  1.00800000E+00  1.60000000E+01  1.00800000E+00  1.00800000E+00
  1.60000000E+01  1.00800000E+00  1.00800000E+00  1.60000000E+01  1.00800000E+00
  1.00800000E+00  1.60000000E+01  1.00800000E+00  1.00800000E+00  1.60000000E+01
  1.00800000E+00  1.00800000E+00  1.60000000E+01  1.00800000E+00  1.00800000E+00
  1.60000000E+01  1.00800000E+00  1.00800000E+00  1.60000000E+01  1.00800000E+00
  1.00800000E+00  1.60000000E+01  1.00800000E+00  1.00800000E+00  1.60000000E+01
  1.00800000E+00  1.00800000E+00  1.60000000E+01  1.00800000E+00  1.00800000E+00
  1.60000000E+01  1.00800000E+00  1.00800000E+00  1.60000000E+01  1.00800000E+00
  1.00800000E+00  1.60000000E+01  1.00800000E+00  1.00800000E+00  1.60000000E+01
  1.00800000E+00  1.00800000E+00  1.60000000E+01  1.00800000E+00  1.00800000E+00
  1.60000000E+01  1.00800000E+00  1.00800000E+00  1.60000000E+01  1.00800000E+00
  1.00800000E+00  1.60000000E+01  1.00800000E+00  1.00800000E+00  1.60000000E+01
  1.00800000E+00  1.00800000E+00  1.60000000E+01  1.00800000E+00  1.00800000E+00
  1.60000000E+01  1.00800000E+00  1.00800000E+00  1.60000000E+01  1.00800000E+00
  1.00800000E+00  1.60000000E+01  1.00800000E+00  1.00800000E+00  1.60000000E+01
  1.00800000E+00  1.00800000E+00  1.60000000E+01  1.00800000E+00  1.00800000E+00
  1.60000000E+01  1.00800000E+00  1.00800000E+00  1.60000000E+01  1.00800000E+00
  1.00800000E+00  1.60000000E+01  1.00800000E+00  1.00800000E+00  1.60000000E+01
  1.00800000E+00  1.00800000E+00  1.60000000E+01  1.00800000E+00  1.00800000E+00
  1.60000000E+01  1.00800000E+00  1.00800000E+00  1.60000000E+01  1.00800000E+00
  1.00800000E+00  1.60000000E+01  1.00800000E+00  1.00800000E+00  1.60000000E+01
  1.00800000E+00  1.00800000E+00  1.60000000E+01  1.00800000E+00  1.00800000E+00
  1.60000000E+01  1.00800000E+00  1.00800000E+00  1.60000000E+01  1.00800000E+00
  1.00800000E+00  1.60000000E+01  1.00800000E+00  1.00800000E+00  1.60000000E+01
  1.00800000E+00  1.00800000E+00  1.60000000E+01  1.00800000E+00  1.00800000E+00
  1.60000000E+01  1.00800000E+00  1.00800000E+00  1.60000000E+01  1.00800000E+00
  1.00800000E+00  1.60000000E+01  1.00800000E+00  1.00800000E+00  1.60000000E+01
  1.00800000E+00  1.00800000E+00  1.60000000E+01  1.00800000E+00  1.00800000E+00
  1.60000000E+01  1.00800000E+00  1.00800000E+00  1.60000000E+01  1.00800000E+00
  1.00800000E+00  1.60000000E+01  1.00800000E+00  1.00800000E+00  1.60000000E+01
  1.00800000E+00  1.00800000E+00  1.60000000E+01  1.00800000E+00  1.00800000E+00
  1.60000000E+01  1.00800000E+00  1.00800000E+00  1.60000000E+01  1.00800000E+00
  1.00800000E+00  1.60000000E+01  1.00800000E+00  1.00800000E+00  1.60000000E+01
  1.00800000E+00  1.00800000E+00  1.60000000E+01  1.00800000E+00  1.00800000E+00
  1.60000000E+01  1.00800000E+00  1.00800000E+00  1.60000000E+01  1.00800000E+00
  1.00800000E+00  1.60000000E+01  1.00800000E+00  1.00800000E+00  1.60000000E+01
  1.00800000E+00  1.00800000E+00  1.60000000E+01  1.00800000E+00  1.00800000E+00
  1.60000000E+01  1.00800000E+00  1.00800000E+00  1.60000000E+01  1.00800000E+00
  1.00800000E+00  1.60000000E+01  1.00800000E+00  1.00800000E+00  1.60000000E+01
  1.00800000E+00  1.00800000E+00  1.60000000E+01  1.00800000E+00  1.00800000E+00
  1.60000000E+01  1.00800000E+00  1.00800000E+00  1.60000000E+01  1.00800000E+00
  1.00800000E+00  1.60000000E+01  1.00800000E+00  1.00800000E+00  1.60000000E+01
  1.00800000E+00  1.00800000E+00  1.60000000E+01  1.00800000E+00  1.00800000E+00
  1.60000000E+01  1.00800000E+00  1.00800000E+00  1.60000000E+01  1.00800000E+00
  1.00800000E+00  1.60000000E+01  1.00800000E+00  1.00800000E+00  1.60000000E+01
  1.00800000E+00  1.00800000E+00  1.60000000E+01  1.00800000E+00  1.00800000E+00
  1.60000000E+01  1.00800000E+00  1.00800000E+00  1.60000000E+01  1.00800000E+00
  1.00800000E+00  1.60000000E+01  1.00800000E+00  1.00800000E+00  1.60000000E+01
  1.00800000E+00  1.00800000E+00  1.60000000E+01  1.00800000E+00  1.00800000E+00
  1.60000000E+01  1.00800000E+00  1.00800000E+00  1.60000000E+01  1.00800000E+00
  1.00800000E+00  1.60000000E+01  1.00800000E+00  1.00800000E+00  1.60000000E+01
  1.00800000E+00  1.00800000E+00  1.60000000E+01  1.00800000E+00  1.00800000E+00
  1.60000000E+01  1.00800000E+00  1.00800000E+00  1.60000000E+01  1.00800000E+00
  1.00800000E+00  1.60000000E+01  1.00800000E+00  1.00800000E+00  1.60000000E+01
  1.00800000E+00  1.00800000E+00  1.60000000E+01  1.00800000E+00  1.00800000E+00
  1.60000000E+01  1.00800000E+00  1.00800000E+00  1.60000000E+01  1.00800000E+00
  1.00800000E+00  1.60000000E+01  1.00800000E+00  1.00800000E+00  1.60000000E+01
  1.00800000E+00  1.00800000E+00  1.60000000E+01  1.00800000E+00  1.00800000E+00
  1.60000000E+01  1.00800000E+00  1.00800000E+00  1.60000000E+01  1.00800000E+00
  1.00800000E+00  1.60000000E+01  1.00800000E+00  1.00800000E+00  1.60000000E+01
  1.00800000E+00  1.00800000E+00  1.60000000E+01  1.00800000E+00  1.00800000E+00
  1.60000000E+01  1.00800000E+00  1.00800000E+00  1.60000000E+01  1.00800000E+00
  1.00800000E+00  1.60000000E+01  1.00800000E+00  1.00800000E+00  1.60000000E+01
  1.00800000E+00  1.00800000E+00  1.60000000E+01  1.00800000E+00  1.00800000E+00
  1.60000000E+01  1.00800000E+00  1.00800000E+00  1.60000000E+01  1.00800000E+00
  1.00800000E+00  1.60000000E+01  1.00800000E+00  1.00800000E+00  1.60000000E+01
  1.00800000E+00  1.00800000E+00  1.60000000E+01  1.00800000E+00  1.00800000E+00
  1.60000000E+01  1.00800000E+00  1.00800000E+00  1.60000000E+01  1.00800000E+00
  1.00800000E+00  1.60000000E+01  1.00800000E+00  1.00800000E+00  1.60000000E+01
  1.00800000E+00  1.00800000E+00  1.60000000E+01  1.00800000E+00  1.00800000E+00
  1.60000000E+01  1.00800000E+00  1.00800000E+00  1.60000000E+01  1.00800000E+00
  1.00800000E+00  1.60000000E+01  1.00800000E+00  1.00800000E+00  1.60000000E+01
  1.00800000E+00  1.00800000E+00  1.60000000E+01  1.00800000E+00  1.00800000E+00
  1.60000000E+01  1.00800000E+00  1.00800000E+00  1.60000000E+01  1.00800000E+00
  1.00800000E+00  1.60000000E+01  1.00800000E+00  1.00800000E+00  1.60000000E+01
  1.00800000E+00  1.00800000E+00  1.60000000E+01  1.00800000E+00  1.00800000E+00
  1.60000000E+01  1.00800000E+00  1.00800000E+00  1.60000000E+01  1.00800000E+00
  1.00800000E+00  1.60000000E+01  1.00800000E+00  1.00800000E+00  1.60000000E+01
  1.00800000E+00  1.00800000E+00  1.60000000E+01  1.00800000E+00  1.00800000E+00
  1.60000000E+01  1.00800000E+00  1.00800000E+00  1.60000000E+01  1.00800000E+00
  1.00800000E+00  1.60000000E+01  1.00800000E+00  1.00800000E+00  1.60000000E+01
  1.00800000E+00  1.00800000E+00  1.60000000E+01  1.00800000E+00  1.00800000E+00
  1.60000000E+01  1.00800000E+00  1.00800000E+00  1.60000000E+01  1.00800000E+00
  1.00800000E+00  1.60000000E+01  1.00800000E+00  1.00800000E+00  1.60000000E+01
  1.00800000E+00  1.00800000E+00  1.60000000E+01  1.00800000E+00  1.00800000E+00
  1.60000000E+01  1.00800000E+00  1.00800000E+00  1.60000000E+01  1.00800000E+00
  1.00800000E+00  1.60000000E+01  1.00800000E+00  1.00800000E+00  1.60000000E+01
  1.00800000E+00  1.00800000E+00  1.60000000E+01  1.00800000E+00  1.00800000E+00
  1.60000000E+01  1.00800000E+00  1.00800000E+00  1.60000000E+01  1.00800000E+00
  1.00800000E+00  1.60000000E+01  1.00800000E+00  1.00800000E+00  1.60000000E+01
  1.00800000E+00  1.00800000E+00  1.60000000E+01  1.00800000E+00  1.00800000E+00
  1.60000000E+01  1.00800000E+00  1.00800000E+00  1.60000000E+01  1.00800000E+00
  1.00800000E+00  1.60000000E+01  1.00800000E+00  1.00800000E+00  1.60000000E+01
  1.00800000E+00  1.00800000E+00  1.60000000E+01  1.00800000E+00  1.00800000E+00
  1.60000000E+01  1.00800000E+00  1.00800000E+00  1.60000000E+01  1.00800000E+00
  1.00800000E+00  1.60000000E+01  1.00800000E+00  1.00800000E+00  1.60000000E+01
  1.00800000E+00  1.00800000E+00  1.60000000E+01  1.00800000E+00  1.00800000E+00
  1.60000000E+01  1.00800000E+00  1.00800000E+00  1.60000000E+01  1.00800000E+00
  1.00800000E+00  1.60000000E+01  1.00800000E+00  1.00800000E+00  1.60000000E+01
  1.00800000E+00  1.00800000E+00  1.60000000E+01  1.00800000E+00  1.00800000E+00
  1.60000000E+01  1.00800000E+00  1.00800000E+00  1.60000000E+01  1.00800000E+00
  1.00800000E+00  1.60000000E+01  1.00800000E+00  1.00800000E+00  1.60000000E+01
  1.00800000E+00  1.00800000E+00  1.60000000E+01  1.00800000E+00  1.00800000E+00
  1.60000000E+01  1.00800000E+00  1.00800000E+00  1.60000000E+01  1.00800000E+00
  1.00800000E+00  1.60000000E+01  1.00800000E+00  1.00800000E+00  1.60000000E+01
  1.00800000E+00  1.00800000E+00  1.60000000E+01  1.00800000E+00  1.00800000E+00
  1.60000000E+01  1.00800000E+00  1.00800000E+00  1.60000000E+01  1.00800000E+00
  1.00800000E+00  1.60000000E+01  1.00800000E+00  1.00800000E+00  1.60000000E+01
  1.00800000E+00  1.00800000E+00  1.60000000E+01  1.00800000E+00  1.00800000E+00
  1.60000000E+01  1.00800000E+00  1.00800000E+00  1.60000000E+01  1.00800000E+00
  1.00800000E+00  1.60000000E+01  1.00800000E+00  1.00800000E+00  1.60000000E+01
  1.00800000E+00  1.00800000E+00  1.60000000E+01  1.00800000E+00  1.00800000E+00
  1.60000000E+01  1.00800000E+00  1.00800000E+00  1.60000000E+01  1.00800000E+00
  1.00800000E+00  1.60000000E+01  1.00800000E+00  1.00800000E+00  1.60000000E+01
  1.00800000E+00  1.00800000E+00  1.60000000E+01  1.00800000E+00  1.00800000E+00
  1.60000000E+01  1.00800000E+00  1.00800000E+00  1.60000000E+01  1.00800000E+00
  1.00800000E+00  1.60000000E+01  1.00800000E+00  1.00800000E+00  1.60000000E+01
  1.00800000E+00  1.00800000E+00  1.60000000E+01  1.00800000E+00  1.00800000E+00
  1.60000000E+01  1.00800000E+00  1.00800000E+00  1.60000000E+01  1.00800000E+00
  1.00800000E+00  1.60000000E+01  1.00800000E+00  1.00800000E+00  1.60000000E+01
  1.00800000E+00  1.00800000E+00  1.60000000E+01  1.00800000E+00  1.00800000E+00
  1.60000000E+01  1.00800000E+00  1.00800000E+00  1.60000000E+01  1.00800000E+00
  1.00800000E+00  1.60000000E+01  1.00800000E+00  1.00800000E+00  1.60000000E+01
  1.00800000E+00  1.00800000E+00  1.60000000E+01  1.00800000E+00  1.00800000E+00
  1.60000000E+01  1.00800000E+00  1.00800000E+00  1.60000000E+01  1.00800000E+00
  1.00800000E+00  1.60000000E+01  1.00800000E+00  1.00800000E+00  1.60000000E+01
  1.00800000E+00  1.00800000E+00  1.60000000E+01  1.00800000E+00  1.00800000E+00
  1.60000000E+01  1.00800000E+00  1.00800000E+00  1.60000000E+01  1.00800000E+00
  1.00800000E+00  1.60000000E+01  1.00800000E+00  1.00800000E+00  1.60000000E+01
  1.00800000E+00  1.00800000E+00  1.60000000E+01  1.00800000E+00  1.00800000E+00
  1.60000000E+01  1.00800000E+00  1.00800000E+00  1.60000000E+01  1.00800000E+00
  1.00800000E+00  1.60000000E+01  1.00800000E+00  1.00800000E+00  1.60000000E+01
  1.00800000E+00  1.00800000E+00  1.60000000E+01  1.00800000E+00  1.00800000E+00
  1.60000000E+01  1.00800000E+00  1.00800000E+00  1.60000000E+01  1.00800000E+00
  1.00800000E+00  1.60000000E+01  1.00800000E+00  1.00800000E+00  1.60000000E+01
  1.00800000E+00  1.00800000E+00  1.60000000E+01  1.00800000E+00  1.00800000E+00
  1.60000000E+01  1.00800000E+00  1.00800000E+00  1.60000000E+01  1.00800000E+00
  1.00800000E+00  1.60000000E+01  1.00800000E+00  1.00800000E+00  1.60000000E+01
  1.00800000E+00  1.00800000E+00  1.60000000E+01  1.00800000E+00  1.00800000E+00
  1.60000000E+01  1.00800000E+00  1.00800000E+00  1.60000000E+01  1.00800000E+00
  1.00800000E+00  1.60000000E+01  1.00800000E+00  1.00800000E+00  1.60000000E+01
  1.00800000E+00  1.00800000E+00  1.60000000E+01  1.00800000E+00  1.00800000E+00
  1.60000000E+01  1.00800000E+00  1.00800000E+00  1.60000000E+01  1.00800000E+00
  1.00800000E+00  1.60000000E+01  1.00800000E+00  1.00800000E+00  1.60000000E+01
  1.00800000E+00  1.00800000E+00  1.60000000E+01  1.00800000E+00  1.00800000E+00
  1.60000000E+01  1.00800000E+00  1.00800000E+00  1.60000000E+01  1.00800000E+00
  1.00800000E+00  1.60000000E+01  1.00800000E+00  1.00800000E+00  1.60000000E+01
  1.00800000E+00  1.00800000E+00  1.60000000E+01  1.00800000E+00  1.00800000E+00
  1.60000000E+01  1.00800000E+00  1.00800000E+00  1.60000000E+01  1.00800000E+00
  1.00800000E+00  1.60000000E+01  1.00800000E+00  1.00800000E+00  1.60000000E+01
  1.00800000E+00  1.00800000E+00  1.60000000E+01  1.00800000E+00  1.00800000E+00
  1.60000000E+01  1.00800000E+00  1.00800000E+00  1.60000000E+01  1.00800000E+00
  1.00800000E+00  1.60000000E+01  1.00800000E+00  1.00800000E+00  1.60000000E+01
  1.00800000E+00  1.00800000E+00  1.60000000E+01  1.00800000E+00  1.00800000E+00
  1.60000000E+01  1.00800000E+00  1.00800000E+00  1.60000000E+01  1.00800000E+00
  1.00800000E+00  1.60000000E+01  1.00800000E+00  1.00800000E+00  1.60000000E+01
  1.00800000E+00  1.00800000E+00  1.60000000E+01  1.00800000E+00  1.00800000E+00
  1.60000000E+01  1.00800000E+00  1.00800000E+00  1.60000000E+01  1.00800000E+00
  1.00800000E+00  1.60000000E+01  1.00800000E+00  1.00800000E+00  1.60000000E+01
  1.00800000E+00  1.00800000E+00  1.60000000E+01  1.00800000E+00  1.00800000E+00
  1.60000000E+01  1.00800000E+00  1.00800000E+00  1.60000000E+01  1.00800000E+00
  1.00800000E+00  1.60000000E+01  1.00800000E+00  1.00800000E+00  1.60000000E+01
  1.00800000E+00  1.00800000E+00  1.60000000E+01  1.00800000E+00  1.00800000E+00
  1.60000000E+01  1.00800000E+00  1.00800000E+00  1.60000000E+01  1.00800000E+00
  1.00800000E+00  1.60000000E+01  1.00800000E+00  1.00800000E+00  1.60000000E+01
  1.00800000E+00  1.00800000E+00  1.60000000E+01  1.00800000E+00  1.00800000E+00
  1.60000000E+01  1.00800000E+00  1.00800000E+00  1.60000000E+01  1.00800000E+00
  1.00800000E+00  1.60000000E+01  1.00800000E+00  1.00800000E+00  1.60000000E+01
  1.00800000E+00  1.00800000E+00  1.60000000E+01  1.00800000E+00  1.00800000E+00
  1.60000000E+01  1.00800000E+00  1.00800000E+00  1.60000000E+01  1.00800000E+00
  1.00800000E+00  1.60000000E+01  1.00800000E+00  1.00800000E+00  1.60000000E+01
  1.00800000E+00  1.00800000E+00  1.60000000E+01  1.00800000E+00  1.00800000E+00
  1.60000000E+01  1.00800000E+00  1.00800000E+00  1.60000000E+01  1.00800000E+00
  1.00800000E+00  1.60000000E+01  1.00800000E+00  1.00800000E+00  1.60000000E+01
  1.00800000E+00  1.00800000E+00  1.60000000E+01  1.00800000E+00  1.00800000E+00
  1.60000000E+01  1.00800000E+00  1.00800000E+00  1.60000000E+01  1.00800000E+00
  1.00800000E+00  1.60000000E+01  1.00800000E+00  1.00800000E+00  1.60000000E+01
  1.00800000E+00  1.00800000E+00  1.60000000E+01  1.00800000E+00  1.00800000E+00
  1.60000000E+01  1.00800000E+00  1.00800000E+00  1.60000000E+01  1.00800000E+00
  1.00800000E+00  1.60000000E+01  1.00800000E+00  1.00800000E+00  1.60000000E+01
  1.00800000E+00  1.00800000E+00  1.60000000E+01  1.00800000E+00  1.00800000E+00
  1.60000000E+01  1.00800000E+00  1.00800000E+00  1.60000000E+01  1.00800000E+00
  1.00800000E+00  1.60000000E+01  1.00800000E+00  1.00800000E+00  1.60000000E+01
  1.00800000E+00  1.00800000E+00  1.60000000E+01  1.00800000E+00  1.00800000E+00
  1.60000000E+01  1.00800000E+00  1.00800000E+00  1.60000000E+01  1.00800000E+00
  1.00800000E+00  1.60000000E+01  1.00800000E+00  1.00800000E+00  1.60000000E+01
  1.00800000E+00  1.00800000E+00  1.60000000E+01  1.00800000E+00  1.00800000E+00
  1.60000000E+01  1.00800000E+00  1.00800000E+00  1.60000000E+01  1.00800000E+00
  1.00800000E+00  1.60000000E+01  1.00800000E+00  1.00800000E+00  1.60000000E+01
  1.00800000E+00  1.00800000E+00  1.60000000E+01  1.00800000E+00  1.00800000E+00
  1.60000000E+01  1.00800000E+00  1.00800000E+00  1.60000000E+01  1.00800000E+00
  1.00800000E+00  1.60000000E+01  1.00800000E+00  1.00800000E+00  1.60000000E+01
  1.00800000E+00  1.00800000E+00  1.60000000E+01  1.00800000E+00  1.00800000E+00
  1.60000000E+01  1.00800000E+00  1.00800000E+00  1.60000000E+01  1.00800000E+00
  1.00800000E+00  1.60000000E+01  1.00800000E+00  1.00800000E+00  1.60000000E+01
  1.00800000E+00  1.00800000E+00  1.60000000E+01  1.00800000E+00  1.00800000E+00
  1.60000000E+01  1.00800000E+00  1.00800000E+00  1.60000000E+01  1.00800000E+00
  1.00800000E+00  1.60000000E+01  1.00800000E+00  1.00800000E+00  1.60000000E+01
  1.00800000E+00  1.00800000E+00  1.60000000E+01  1.00800000E+00  1.00800000E+00
  1.60000000E+01  1.00800000E+00  1.00800000E+00  1.60000000E+01  1.00800000E+00
  1.00800000E+00  1.60000000E+01  1.00800000E+00  1.00800000E+00  1.60000000E+01
  1.00800000E+00  1.00800000E+00  1.60000000E+01  1.00800000E+00  1.00800000E+00
  1.60000000E+01  1.00800000E+00  1.00800000E+00  1.60000000E+01  1.00800000E+00
  1.00800000E+00  1.60000000E+01  1.00800000E+00  1.00800000E+00  1.60000000E+01
  1.00800000E+00  1.00800000E+00  1.60000000E+01  1.00800000E+00  1.00800000E+00
  1.60000000E+01  1.00800000E+00  1.00800000E+00  1.60000000E+01  1.00800000E+00
  1.00800000E+00  1.60000000E+01  1.00800000E+00  1.00800000E+00  1.60000000E+01
  1.00800000E+00  1.00800000E+00  1.60000000E+01  1.00800000E+00  1.00800000E+00
  1.60000000E+01  1.00800000E+00  1.00800000E+00  1.60000000E+01  1.00800000E+00
  1.00800000E+00  1.60000000E+01  1.00800000E+00  1.00800000E+00  1.60000000E+01
  1.00800000E+00  1.00800000E+00  1.60000000E+01  1.00800000E+00  1.00800000E+00
  1.60000000E+01  1.00800000E+00  1.00800000E+00  1.60000000E+01  1.00800000E+00
  1.00800000E+00  1.60000000E+01  1.00800000E+00  1.00800000E+00  1.60000000E+01
  1.00800000E+00  1.00800000E+00  1.60000000E+01  1.00800000E+00  1.00800000E+00
  1.60000000E+01  1.00800000E+00  1.00800000E+00  1.60000000E+01  1.00800000E+00
  1.00800000E+00  1.60000000E+01  1.00800000E+00  1.00800000E+00  1.60000000E+01
  1.00800000E+00  1.00800000E+00  1.60000000E+01  1.00800000E+00  1.00800000E+00
  1.60000000E+01  1.00800000E+00  1.00800000E+00  1.60000000E+01  1.00800000E+00
  1.00800000E+00  1.60000000E+01  1.00800000E+00  1.00800000E+00  1.60000000E+01
  1.00800000E+00  1.00800000E+00  1.60000000E+01  1.00800000E+00  1.00800000E+00
  1.60000000E+01  1.00800000E+00  1.00800000E+00  1.60000000E+01  1.00800000E+00
  1.00800000E+00  1.60000000E+01  1.00800000E+00  1.00800000E+00  1.60000000E+01
  1.00800000E+00  1.00800000E+00  1.60000000E+01  1.00800000E+00  1.00800000E+00
  1.60000000E+01  1.00800000E+00  1.00800000E+00  1.60000000E+01  1.00800000E+00
  1.00800000E+00  1.60000000E+01  1.00800000E+00  1.00800000E+00  1.60000000E+01
  1.00800000E+00  1.00800000E+00  1.60000000E+01  1.00800000E+00  1.00800000E+00
  1.60000000E+01  1.00800000E+00  1.00800000E+00  1.60000000E+01  1.00800000E+00
  1.00800000E+00  1.60000000E+01  1.00800000E+00  1.00800000E+00  1.60000000E+01
  1.00800000E+00  1.00800000E+00  1.60000000E+01  1.00800000E+00  1.00800000E+00
  1.60000000E+01  1.00800000E+00  1.00800000E+00  1.60000000E+01  1.00800000E+00
  1.00800000E+00  1.60000000E+01  1.00800000E+00  1.00800000E+00  1.60000000E+01
  1.00800000E+00  1.00800000E+00  1.60000000E+01  1.00800000E+00  1.00800000E+00
  1.60000000E+01  1.00800000E+00  1.00800000E+00  1.60000000E+01  1.00800000E+00
  1.00800000E+00  1.60000000E+01  1.00800000E+00  1.00800000E+00  1.60000000E+01
  1.00800000E+00  1.00800000E+00  1.60000000E+01  1.00800000E+00  1.00800000E+00
  1.60000000E+01  1.00800000E+00  1.00800000E+00  1.60000000E+01  1.00800000E+00
  1.00800000E+00  1.60000000E+01  1.00800000E+00  1.00800000E+00  1.60000000E+01
  1.00800000E+00  1.00800000E+00  1.60000000E+01  1.00800000E+00  1.00800000E+00
  1.60000000E+01  1.00800000E+00  1.00800000E+00  1.60000000E+01  1.00800000E+00
  1.00800000E+00  1.60000000E+01  1.00800000E+00  1.00800000E+00  1.60000000E+01
  1.00800000E+00  1.00800000E+00  1.60000000E+01  1.00800000E+00  1.00800000E+00
  1.60000000E+01  1.00800000E+00  1.00800000E+00  1.60000000E+01  1.00800000E+00
  1.00800000E+00  1.60000000E+01  1.00800000E+00  1.00800000E+00  1.60000000E+01
  1.00800000E+00  1.00800000E+00  1.60000000E+01  1.00800000E+00  1.00800000E+00
  1.60000000E+01  1.00800000E+00  1.00800000E+00  1.60000000E+01  1.00800000E+00
  1.00800000E+00  1.60000000E+01  1.00800000E+00  1.00800000E+00  1.60000000E+01
  1.00800000E+00  1.00800000E+00  1.60000000E+01  1.00800000E+00  1.00800000E+00
  1.60000000E+01  1.00800000E+00  1.00800000E+00  1.60000000E+01  1.00800000E+00
  1.00800000E+00  1.60000000E+01  1.00800000E+00  1.00800000E+00  1.60000000E+01
  1.00800000E+00  1.00800000E+00  1.60000000E+01  1.00800000E+00  1.00800000E+00
  1.60000000E+01  1.00800000E+00  1.00800000E+00  1.60000000E+01  1.00800000E+00
  1.00800000E+00  1.60000000E+01  1.00800000E+00  1.00800000E+00  1.60000000E+01
  1.00800000E+00  1.00800000E+00  1.60000000E+01  1.00800000E+00  1.00800000E+00
  1.60000000E+01  1.00800000E+00  1.00800000E+00  1.60000000E+01  1.00800000E+00
  1.00800000E+00  1.60000000E+01  1.00800000E+00  1.00800000E+00  1.60000000E+01
  1.00800000E+00  1.00800000E+00  1.60000000E+01  1.00800000E+00  1.00800000E+00
  1.60000000E+01  1.00800000E+00  1.00800000E+00  1.60000000E+01  1.00800000E+00
  1.00800000E+00  1.60000000E+01  1.00800000E+00  1.00800000E+00  1.60000000E+01
  1.00800000E+00  1.00800000E+00  1.60000000E+01  1.00800000E+00  1.00800000E+00
  1.60000000E+01  1.00800000E+00  1.00800000E+00  1.60000000E+01  1.00800000E+00
  1.00800000E+00  1.60000000E+01  1.00800000E+00  1.00800000E+00  1.60000000E+01
  1.00800000E+00  1.00800000E+00  1.60000000E+01  1.00800000E+00  1.00800000E+00
  1.60000000E+01  1.00800000E+00  1.00800000E+00  1.60000000E+01  1.00800000E+00
  1.00800000E+00  1.60000000E+01  1.00800000E+00  1.00800000E+00  1.60000000E+01
  1.00800000E+00  1.00800000E+00  1.60000000E+01  1.00800000E+00  1.00800000E+00
  1.60000000E+01  1.00800000E+00  1.00800000E+00  1.60000000E+01  1.00800000E+00
  1.00800000E+00  1.60000000E+01  1.00800000E+00  1.00800000E+00  1.60000000E+01
  1.00800000E+00  1.00800000E+00  1.60000000E+01  1.00800000E+00  1.00800000E+00
  1.60000000E+01  1.00800000E+00  1.00800000E+00  1.60000000E+01  1.00800000E+00
  1.00800000E+00  1.60000000E+01  1.00800000E+00  1.00800000E+00  1.60000000E+01
  1.00800000E+00  1.00800000E+00  1.60000000E+01  1.00800000E+00  1.00800000E+00
  1.60000000E+01  1.00800000E+00  1.00800000E+00  1.60000000E+01  1.00800000E+00
  1.00800000E+00  1.60000000E+01  1.00800000E+00  1.00800000E+00  1.60000000E+01
  1.00800000E+00  1.00800000E+00  1.60000000E+01  1.00800000E+00  1.00800000E+00
  1.60000000E+01  1.00800000E+00  1.00800000E+00  1.60000000E+01  1.00800000E+00
  1.00800000E+00  1.60000000E+01  1.00800000E+00  1.00800000E+00  1.60000000E+01
  1.00800000E+00  1.00800000E+00  1.60000000E+01  1.00800000E+00  1.00800000E+00
  1.60000000E+01  1.00800000E+00  1.00800000E+00  1.60000000E+01  1.00800000E+00
  1.00800000E+00  1.60000000E+01  1.00800000E+00  1.00800000E+00  1.60000000E+01
  1.00800000E+00  1.00800000E+00  1.60000000E+01  1.00800000E+00  1.00800000E+00
  1.60000000E+01  1.00800000E+00  1.00800000E+00  1.60000000E+01  1.00800000E+00
  1.00800000E+00  1.60000000E+01  1.00800000E+00  1.00800000E+00  1.60000000E+01
  1.00800000E+00  1.00800000E+00  1.60000000E+01  1.00800000E+00  1.00800000E+00
  1.60000000E+01  1.00800000E+00  1.00800000E+00  1.60000000E+01  1.00800000E+00
  1.00800000E+00  1.60000000E+01  1.00800000E+00  1.00800000E+00  1.60000000E+01
  1.00800000E+00  1.00800000E+00  1.60000000E+01  1.00800000E+00  1.00800000E+00
  1.60000000E+01  1.00800000E+00  1.00800000E+00  1.60000000E+01  1.00800000E+00
  1.00800000E+00  1.60000000E+01  1.00800000E+00  1.00800000E+00  1.60000000E+01
  1.00800000E+00  1.00800000E+00  1.60000000E+01  1.00800000E+00  1.00800000E+00
  1.60000000E+01  1.00800000E+00  1.00800000E+00  1.60000000E+01  1.00800000E+00
  1.00800000E+00  1.60000000E+01  1.00800000E+00  1.00800000E+00  1.60000000E+01
  1.00800000E+00  1.00800000E+00  1.60000000E+01  1.00800000E+00  1.00800000E+00
  1.60000000E+01  1.00800000E+00  1.00800000E+00  1.60000000E+01  1.00800000E+00
  1.00800000E+00  1.60000000E+01  1.00800000E+00  1.00800000E+00  1.60000000E+01
  1.00800000E+00  1.00800000E+00  1.60000000E+01  1.00800000E+00  1.00800000E+00
  1.60000000E+01  1.00800000E+00  1.00800000E+00  1.60000000E+01  1.00800000E+00
  1.00800000E+00  1.60000000E+01  1.00800000E+00  1.00800000E+00  1.60000000E+01
  1.00800000E+00  1.00800000E+00  1.60000000E+01  1.00800000E+00  1.00800000E+00
  1.60000000E+01  1.00800000E+00  1.00800000E+00  1.60000000E+01  1.00800000E+00
  1.00800000E+00  1.60000000E+01  1.00800000E+00  1.00800000E+00  1.60000000E+01
  1.00800000E+00  1.00800000E+00  1.60000000E+01  1.00800000E+00  1.00800000E+00
  1.60000000E+01  1.00800000E+00  1.00800000E+00  1.60000000E+01  1.00800000E+00
  1.00800000E+00  1.60000000E+01  1.00800000E+00  1.00800000E+00  1.60000000E+01
  1.00800000E+00  1.00800000E+00  1.60000000E+01  1.00800000E+00  1.00800000E+00
  1.60000000E+01  1.00800000E+00  1.00800000E+00  1.60000000E+01  1.00800000E+00
  1.00800000E+00  1.60000000E+01  1.00800000E+00  1.00800000E+00  1.60000000E+01
  1.00800000E+00  1.00800000E+00  1.60000000E+01  1.00800000E+00  1.00800000E+00
  1.60000000E+01  1.00800000E+00  1.00800000E+00  1.60000000E+01  1.00800000E+00
  1.00800000E+00  1.60000000E+01  1.00800000E+00  1.00800000E+00  1.60000000E+01
  1.00800000E+00  1.00800000E+00  1.60000000E+01  1.00800000E+00  1.00800000E+00
  1.60000000E+01  1.00800000E+00  1.00800000E+00  1.60000000E+01  1.00800000E+00
  1.00800000E+00  1.60000000E+01  1.00800000E+00  1.00800000E+00  1.60000000E+01
  1.00800000E+00  1.00800000E+00  1.60000000E+01  1.00800000E+00  1.00800000E+00
  1.60000000E+01  1.00800000E+00  1.00800000E+00  1.60000000E+01  1.00800000E+00
  1.00800000E+00  1.60000000E+01  1.00800000E+00  1.00800000E+00  1.60000000E+01
  1.00800000E+00  1.00800000E+00  1.60000000E+01  1.00800000E+00  1.00800000E+00
  1.60000000E+01  1.00800000E+00  1.00800000E+00  1.60000000E+01  1.00800000E+00
  1.00800000E+00  1.60000000E+01  1.00800000E+00  1.00800000E+00  1.60000000E+01
  1.00800000E+00  1.00800000E+00  1.60000000E+01  1.00800000E+00  1.00800000E+00
  1.60000000E+01  1.00800000E+00  1.00800000E+00  1.60000000E+01  1.00800000E+00
  1.00800000E+00  1.60000000E+01  1.00800000E+00  1.00800000E+00  1.60000000E+01
  1.00800000E+00  1.00800000E+00  1.60000000E+01  1.00800000E+00  1.00800000E+00
  1.60000000E+01  1.00800000E+00  1.00800000E+00  1.60000000E+01  1.00800000E+00
  1.00800000E+00  1.60000000E+01  1.00800000E+00  1.00800000E+00  1.60000000E+01
  1.00800000E+00  1.00800000E+00  1.60000000E+01  1.00800000E+00  1.00800000E+00
  1.60000000E+01  1.00800000E+00  1.00800000E+00  1.60000000E+01  1.00800000E+00
  1.00800000E+00  1.60000000E+01  1.00800000E+00  1.00800000E+00  1.60000000E+01
  1.00800000E+00  1.00800000E+00  1.60000000E+01  1.00800000E+00  1.00800000E+00
  1.60000000E+01  1.00800000E+00  1.00800000E+00  1.60000000E+01  1.00800000E+00
  1.00800000E+00  1.60000000E+01  1.00800000E+00  1.00800000E+00  1.60000000E+01
  1.00800000E+00  1.00800000E+00  1.60000000E+01  1.00800000E+00  1.00800000E+00
  1.60000000E+01  1.00800000E+00  1.00800000E+00  1.60000000E+01  1.00800000E+00
  1.00800000E+00  1.60000000E+01  1.00800000E+00  1.00800000E+00  1.60000000E+01
  1.00800000E+00  1.00800000E+00  1.60000000E+01  1.00800000E+00  1.00800000E+00
  1.60000000E+01  1.00800000E+00  1.00800000E+00  1.60000000E+01  1.00800000E+00
  1.00800000E+00  1.60000000E+01  1.00800000E+00  1.00800000E+00  1.60000000E+01
  1.00800000E+00  1.00800000E+00  1.60000000E+01  1.00800000E+00  1.00800000E+00
  1.60000000E+01  1.00800000E+00  1.00800000E+00  1.60000000E+01  1.00800000E+00
  1.00800000E+00  1.60000000E+01  1.00800000E+00  1.00800000E+00  1.60000000E+01
  1.00800000E+00  1.00800000E+00  1.60000000E+01  1.00800000E+00  1.00800000E+00
  1.60000000E+01  1.00800000E+00  1.00800000E+00  1.60000000E+01  1.00800000E+00
  1.00800000E+00  1.60000000E+01  1.00800000E+00  1.00800000E+00  1.60000000E+01
  1.00800000E+00  1.00800000E+00  1.60000000E+01  1.00800000E+00  1.00800000E+00
  1.60000000E+01  1.00800000E+00  1.00800000E+00  1.60000000E+01  1.00800000E+00
  1.00800000E+00  1.60000000E+01  1.00800000E+00  1.00800000E+00  1.60000000E+01
  1.00800000E+00  1.00800000E+00  1.60000000E+01  1.00800000E+00  1.00800000E+00
  1.60000000E+01  1.00800000E+00  1.00800000E+00  1.60000000E+01  1.00800000E+00
  1.00800000E+00  1.60000000E+01  1.00800000E+00  1.00800000E+00  1.60000000E+01
  1.00800000E+00  1.00800000E+00  1.60000000E+01  1.00800000E+00  1.00800000E+00
  1.60000000E+01  1.00800000E+00  1.00800000E+00  1.60000000E+01  1.00800000E+00
  1.00800000E+00  1.60000000E+01  1.00800000E+00  1.00800000E+00  1.60000000E+01
  1.00800000E+00  1.00800000E+00  1.60000000E+01  1.00800000E+00  1.00800000E+00
  1.60000000E+01  1.00800000E+00  1.00800000E+00  1.60000000E+01  1.00800000E+00
  1.00800000E+00  1.60000000E+01  1.00800000E+00  1.00800000E+00  1.60000000E+01
  1.00800000E+00  1.00800000E+00  1.60000000E+01  1.00800000E+00  1.00800000E+00
  1.60000000E+01  1.00800000E+00  1.00800000E+00  1.60000000E+01  1.00800000E+00
  1.00800000E+00  1.60000000E+01  1.00800000E+00  1.00800000E+00  1.60000000E+01
  1.00800000E+00  1.00800000E+00  1.60000000E+01  1.00800000E+00  1.00800000E+00
  1.60000000E+01  1.00800000E+00  1.00800000E+00  1.60000000E+01  1.00800000E+00
  1.00800000E+00  1.60000000E+01  1.00800000E+00  1.00800000E+00  1.60000000E+01
  1.00800000E+00  1.00800000E+00  1.60000000E+01  1.00800000E+00  1.00800000E+00
  1.60000000E+01  1.00800000E+00  1.00800000E+00  1.60000000E+01  1.00800000E+00
  1.00800000E+00  1.60000000E+01  1.00800000E+00  1.00800000E+00  1.60000000E+01
  1.00800000E+00  1.00800000E+00  1.60000000E+01  1.00800000E+00  1.00800000E+00
  1.60000000E+01  1.00800000E+00  1.00800000E+00  1.60000000E+01  1.00800000E+00
  1.00800000E+00  1.60000000E+01  1.00800000E+00  1.00800000E+00  1.60000000E+01
  1.00800000E+00  1.00800000E+00  1.60000000E+01  1.00800000E+00  1.00800000E+00
  1.60000000E+01  1.00800000E+00  1.00800000E+00  1.60000000E+01  1.00800000E+00
  1.00800000E+00  1.60000000E+01  1.00800000E+00  1.00800000E+00  1.60000000E+01
  1.00800000E+00  1.00800000E+00  1.60000000E+01  1.00800000E+00  1.00800000E+00
  1.60000000E+01  1.00800000E+00  1.00800000E+00  1.60000000E+01  1.00800000E+00
  1.00800000E+00  1.60000000E+01  1.00800000E+00  1.00800000E+00  1.60000000E+01
  1.00800000E+00  1.00800000E+00  1.60000000E+01  1.00800000E+00  1.00800000E+00
  1.60000000E+01  1.00800000E+00  1.00800000E+00  1.60000000E+01  1.00800000E+00
  1.00800000E+00  1.60000000E+01  1.00800000E+00  1.00800000E+00  1.60000000E+01
  1.00800000E+00  1.00800000E+00  1.60000000E+01  1.00800000E+00  1.00800000E+00
  1.60000000E+01  1.00800000E+00  1.00800000E+00  1.60000000E+01  1.00800000E+00
  1.00800000E+00  1.60000000E+01  1.00800000E+00  1.00800000E+00  1.60000000E+01
  1.00800000E+00  1.00800000E+00  1.60000000E+01  1.00800000E+00  1.00800000E+00
  1.60000000E+01  1.00800000E+00  1.00800000E+00  1.60000000E+01  1.00800000E+00
  1.00800000E+00  1.60000000E+01  1.00800000E+00  1.00800000E+00  1.60000000E+01
  1.00800000E+00  1.00800000E+00  1.60000000E+01  1.00800000E+00  1.00800000E+00
  1.60000000E+01  1.00800000E+00  1.00800000E+00  1.60000000E+01  1.00800000E+00
  1.00800000E+00  1.60000000E+01  1.00800000E+00  1.00800000E+00  1.60000000E+01
  1.00800000E+00  1.00800000E+00  1.60000000E+01  1.00800000E+00  1.00800000E+00
  1.60000000E+01  1.00800000E+00  1.00800000E+00  1.60000000E+01  1.00800000E+00
  1.00800000E+00  1.60000000E+01  1.00800000E+00  1.00800000E+00  1.60000000E+01
  1.00800000E+00  1.00800000E+00  1.60000000E+01  1.00800000E+00  1.00800000E+00
  1.60000000E+01  1.00800000E+00  1.00800000E+00  1.60000000E+01  1.00800000E+00
  1.00800000E+00  1.60000000E+01  1.00800000E+00  1.00800000E+00  1.60000000E+01
  1.00800000E+00  1.00800000E+00  1.60000000E+01  1.00800000E+00  1.00800000E+00
  1.60000000E+01  1.00800000E+00  1.00800000E+00  1.60000000E+01  1.00800000E+00
  1.00800000E+00  1.60000000E+01  1.00800000E+00  1.00800000E+00  1.60000000E+01
  1.00800000E+00  1.00800000E+00  1.60000000E+01  1.00800000E+00  1.00800000E+00
  1.60000000E+01  1.00800000E+00  1.00800000E+00  1.60000000E+01  1.00800000E+00
  1.00800000E+00  1.60000000E+01  1.00800000E+00  1.00800000E+00  1.60000000E+01
  1.00800000E+00  1.00800000E+00  1.60000000E+01  1.00800000E+00  1.00800000E+00
  1.60000000E+01  1.00800000E+00  1.00800000E+00  1.60000000E+01  1.00800000E+00
  1.00800000E+00  1.60000000E+01  1.00800000E+00  1.00800000E+00  1.60000000E+01
  1.00800000E+00  1.00800000E+00  1.60000000E+01  1.00800000E+00  1.00800000E+00
  1.60000000E+01  1.00800000E+00  1.00800000E+00  1.60000000E+01  1.00800000E+00
  1.00800000E+00  1.60000000E+01  1.00800000E+00  1.00800000E+00  1.60000000E+01
  1.00800000E+00  1.00800000E+00  1.60000000E+01  1.00800000E+00  1.00800000E+00
  1.60000000E+01  1.00800000E+00  1.00800000E+00  1.60000000E+01  1.00800000E+00
  1.00800000E+00  1.60000000E+01  1.00800000E+00  1.00800000E+00  1.60000000E+01
  1.00800000E+00  1.00800000E+00  1.60000000E+01  1.00800000E+00  1.00800000E+00
  1.60000000E+01  1.00800000E+00  1.00800000E+00  1.60000000E+01  1.00800000E+00
  1.00800000E+00  1.60000000E+01  1.00800000E+00  1.00800000E+00  1.60000000E+01
  1.00800000E+00  1.00800000E+00  1.60000000E+01  1.00800000E+00  1.00800000E+00
  1.60000000E+01  1.00800000E+00  1.00800000E+00  1.60000000E+01  1.00800000E+00
  1.00800000E+00  1.60000000E+01  1.00800000E+00  1.00800000E+00  1.60000000E+01
  1.00800000E+00  1.00800000E+00  1.60000000E+01  1.00800000E+00  1.00800000E+00
  1.60000000E+01  1.00800000E+00  1.00800000E+00  1.60000000E+01  1.00800000E+00
  1.00800000E+00  1.60000000E+01  1.00800000E+00  1.00800000E+00  1.60000000E+01
  1.00800000E+00  1.00800000E+00  1.60000000E+01  1.00800000E+00  1.00800000E+00
  1.60000000E+01  1.00800000E+00  1.00800000E+00  1.60000000E+01  1.00800000E+00
  1.00800000E+00  1.60000000E+01  1.00800000E+00  1.00800000E+00  1.60000000E+01
  1.00800000E+00  1.00800000E+00  1.60000000E+01  1.00800000E+00  1.00800000E+00
  1.60000000E+01  1.00800000E+00  1.00800000E+00  1.60000000E+01  1.00800000E+00
  1.00800000E+00  1.60000000E+01  1.00800000E+00  1.00800000E+00  1.60000000E+01
  1.00800000E+00  1.00800000E+00  1.60000000E+01  1.00800000E+00  1.00800000E+00
  1.60000000E+01  1.00800000E+00  1.00800000E+00  1.60000000E+01  1.00800000E+00
  1.00800000E+00  1.60000000E+01  1.00800000E+00  1.00800000E+00  1.60000000E+01
  1.00800000E+00  1.00800000E+00  1.60000000E+01  1.00800000E+00  1.00800000E+00
  1.60000000E+01  1.00800000E+00  1.00800000E+00  1.60000000E+01  1.00800000E+00
  1.00800000E+00  1.60000000E+01  1.00800000E+00  1.00800000E+00  1.60000000E+01
  1.00800000E+00  1.00800000E+00  1.60000000E+01  1.00800000E+00  1.00800000E+00
  1.60000000E+01  1.00800000E+00  1.00800000E+00  1.60000000E+01  1.00800000E+00
  1.00800000E+00  1.60000000E+01  1.00800000E+00  1.00800000E+00  1.60000000E+01
  1.00800000E+00  1.00800000E+00  1.60000000E+01  1.00800000E+00  1.00800000E+00
  1.60000000E+01  1.00800000E+00  1.00800000E+00  1.60000000E+01  1.00800000E+00
  1.00800000E+00  1.60000000E+01  1.00800000E+00  1.00800000E+00  1.60000000E+01
  1.00800000E+00  1.00800000E+00  1.60000000E+01  1.00800000E+00  1.00800000E+00
  1.60000000E+01  1.00800000E+00  1.00800000E+00  1.60000000E+01  1.00800000E+00
  1.00800000E+00  1.60000000E+01  1.00800000E+00  1.00800000E+00  1.60000000E+01
  1.00800000E+00  1.00800000E+00  1.60000000E+01  1.00800000E+00  1.00800000E+00
  1.60000000E+01  1.00800000E+00  1.00800000E+00  1.60000000E+01  1.00800000E+00
  1.00800000E+00  1.60000000E+01  1.00800000E+00  1.00800000E+00  1.60000000E+01
  1.00800000E+00  1.00800000E+00  1.60000000E+01  1.00800000E+00  1.00800000E+00
  1.60000000E+01  1.00800000E+00  1.00800000E+00  1.60000000E+01  1.00800000E+00
  1.00800000E+00  1.60000000E+01  1.00800000E+00  1.00800000E+00  1.60000000E+01
  1.00800000E+00  1.00800000E+00  1.60000000E+01  1.00800000E+00  1.00800000E+00
  1.60000000E+01  1.00800000E+00  1.00800000E+00  1.60000000E+01  1.00800000E+00
  1.00800000E+00  1.60000000E+01  1.00800000E+00  1.00800000E+00  1.60000000E+01
  1.00800000E+00  1.00800000E+00  1.60000000E+01  1.00800000E+00  1.00800000E+00
  1.60000000E+01  1.00800000E+00  1.00800000E+00  1.60000000E+01  1.00800000E+00
  1.00800000E+00  1.60000000E+01  1.00800000E+00  1.00800000E+00  1.60000000E+01
  1.00800000E+00  1.00800000E+00  1.60000000E+01  1.00800000E+00  1.00800000E+00
  1.60000000E+01  1.00800000E+00  1.00800000E+00  1.60000000E+01  1.00800000E+00
  1.00800000E+00  1.60000000E+01  1.00800000E+00  1.00800000E+00  1.60000000E+01
  1.00800000E+00  1.00800000E+00  1.60000000E+01  1.00800000E+00  1.00800000E+00
  1.60000000E+01  1.00800000E+00  1.00800000E+00  1.60000000E+01  1.00800000E+00
  1.00800000E+00  1.60000000E+01  1.00800000E+00  1.00800000E+00  1.60000000E+01
  1.00800000E+00  1.00800000E+00  1.60000000E+01  1.00800000E+00  1.00800000E+00
  1.60000000E+01  1.00800000E+00  1.00800000E+00  1.60000000E+01  1.00800000E+00
  1.00800000E+00  1.60000000E+01  1.00800000E+00  1.00800000E+00  1.60000000E+01
  1.00800000E+00  1.00800000E+00  1.60000000E+01  1.00800000E+00  1.00800000E+00
  1.60000000E+01  1.00800000E+00  1.00800000E+00  1.60000000E+01  1.00800000E+00
  1.00800000E+00  1.60000000E+01  1.00800000E+00  1.00800000E+00  1.60000000E+01
  1.00800000E+00  1.00800000E+00  1.60000000E+01  1.00800000E+00  1.00800000E+00
  1.60000000E+01  1.00800000E+00  1.00800000E+00  1.60000000E+01  1.00800000E+00
  1.00800000E+00  1.60000000E+01  1.00800000E+00  1.00800000E+00  1.60000000E+01
  1.00800000E+00  1.00800000E+00  1.60000000E+01  1.00800000E+00  1.00800000E+00
  1.60000000E+01  1.00800000E+00  1.00800000E+00  1.60000000E+01  1.00800000E+00
  1.00800000E+00  1.60000000E+01  1.00800000E+00  1.00800000E+00  1.60000000E+01
  1.00800000E+00  1.00800000E+00  1.60000000E+01  1.00800000E+00  1.00800000E+00
  1.60000000E+01  1.00800000E+00  1.00800000E+00  1.60000000E+01  1.00800000E+00
  1.00800000E+00  1.60000000E+01  1.00800000E+00  1.00800000E+00  1.60000000E+01
  1.00800000E+00  1.00800000E+00  1.60000000E+01  1.00800000E+00  1.00800000E+00
  1.60000000E+01  1.00800000E+00  1.00800000E+00  1.60000000E+01  1.00800000E+00
  1.00800000E+00  1.60000000E+01  1.00800000E+00  1.00800000E+00  1.60000000E+01
  1.00800000E+00  1.00800000E+00  1.60000000E+01  1.00800000E+00  1.00800000E+00
  1.60000000E+01  1.00800000E+00  1.00800000E+00  1.60000000E+01  1.00800000E+00
  1.00800000E+00  1.60000000E+01  1.00800000E+00  1.00800000E+00  1.60000000E+01
  1.00800000E+00  1.00800000E+00  1.60000000E+01  1.00800000E+00  1.00800000E+00
  1.60000000E+01  1.00800000E+00  1.00800000E+00  1.60000000E+01  1.00800000E+00
  1.00800000E+00  1.60000000E+01  1.00800000E+00  1.00800000E+00  1.60000000E+01
  1.00800000E+00  1.00800000E+00  1.60000000E+01  1.00800000E+00  1.00800000E+00
  1.60000000E+01  1.00800000E+00  1.00800000E+00  1.60000000E+01  1.00800000E+00
  1.00800000E+00  1.60000000E+01  1.00800000E+00  1.00800000E+00  1.60000000E+01
  1.00800000E+00  1.00800000E+00  1.60000000E+01  1.00800000E+00  1.00800000E+00
  1.60000000E+01  1.00800000E+00  1.00800000E+00  1.60000000E+01  1.00800000E+00
  1.00800000E+00  1.60000000E+01  1.00800000E+00  1.00800000E+00  1.60000000E+01
  1.00800000E+00  1.00800000E+00  1.60000000E+01  1.00800000E+00  1.00800000E+00
  1.60000000E+01  1.00800000E+00  1.00800000E+00  1.60000000E+01  1.00800000E+00
  1.00800000E+00  1.60000000E+01  1.00800000E+00  1.00800000E+00  1.60000000E+01
  1.00800000E+00  1.00800000E+00  1.60000000E+01  1.00800000E+00  1.00800000E+00
  1.60000000E+01  1.00800000E+00  1.00800000E+00  1.60000000E+01  1.00800000E+00
  1.00800000E+00  1.60000000E+01  1.00800000E+00  1.00800000E+00  1.60000000E+01
  1.00800000E+00  1.00800000E+00  1.60000000E+01  1.00800000E+00  1.00800000E+00
  1.60000000E+01  1.00800000E+00  1.00800000E+00  1.60000000E+01  1.00800000E+00
  1.00800000E+00  1.60000000E+01  1.00800000E+00  1.00800000E+00  1.60000000E+01
  1.00800000E+00  1.00800000E+00  1.60000000E+01  1.00800000E+00  1.00800000E+00
  1.60000000E+01  1.00800000E+00  1.00800000E+00  1.60000000E+01  1.00800000E+00
  1.00800000E+00  1.60000000E+01  1.00800000E+00  1.00800000E+00  1.60000000E+01
  1.00800000E+00  1.00800000E+00  1.60000000E+01  1.00800000E+00  1.00800000E+00
  1.60000000E+01  1.00800000E+00  1.00800000E+00  1.60000000E+01  1.00800000E+00
  1.00800000E+00  1.60000000E+01  1.00800000E+00  1.00800000E+00  1.60000000E+01
  1.00800000E+00  1.00800000E+00  1.60000000E+01  1.00800000E+00  1.00800000E+00
  1.60000000E+01  1.00800000E+00  1.00800000E+00  1.60000000E+01  1.00800000E+00
  1.00800000E+00  1.60000000E+01  1.00800000E+00  1.00800000E+00  1.60000000E+01
  1.00800000E+00  1.00800000E+00  1.60000000E+01  1.00800000E+00  1.00800000E+00
  1.60000000E+01  1.00800000E+00  1.00800000E+00  1.60000000E+01  1.00800000E+00
  1.00800000E+00  1.60000000E+01  1.00800000E+00  1.00800000E+00  1.60000000E+01
  1.00800000E+00  1.00800000E+00  1.60000000E+01  1.00800000E+00  1.00800000E+00
  1.60000000E+01  1.00800000E+00  1.00800000E+00  1.60000000E+01  1.00800000E+00
  1.00800000E+00  1.60000000E+01  1.00800000E+00  1.00800000E+00  1.60000000E+01
  1.00800000E+00  1.00800000E+00  1.60000000E+01  1.00800000E+00  1.00800000E+00
  1.60000000E+01  1.00800000E+00  1.00800000E+00  1.60000000E+01  1.00800000E+00
  1.00800000E+00  1.60000000E+01  1.00800000E+00  1.00800000E+00  1.60000000E+01
  1.00800000E+00  1.00800000E+00  1.60000000E+01  1.00800000E+00  1.00800000E+00
  1.60000000E+01  1.00800000E+00  1.00800000E+00  1.60000000E+01  1.00800000E+00
  1.00800000E+00  1.60000000E+01  1.00800000E+00  1.00800000E+00  1.60000000E+01
  1.00800000E+00  1.00800000E+00  1.60000000E+01  1.00800000E+00  1.00800000E+00
  1.60000000E+01  1.00800000E+00  1.00800000E+00  1.60000000E+01  1.00800000E+00
  1.00800000E+00  1.60000000E+01  1.00800000E+00  1.00800000E+00  1.60000000E+01
  1.00800000E+00  1.00800000E+00  1.60000000E+01  1.00800000E+00  1.00800000E+00
  1.60000000E+01  1.00800000E+00  1.00800000E+00  1.60000000E+01  1.00800000E+00
  1.00800000E+00  1.60000000E+01  1.00800000E+00  1.00800000E+00  1.60000000E+01
  1.00800000E+00  1.00800000E+00  1.60000000E+01  1.00800000E+00  1.00800000E+00
  1.60000000E+01  1.00800000E+00  1.00800000E+00  1.60000000E+01  1.00800000E+00
  1.00800000E+00  1.60000000E+01  1.00800000E+00  1.00800000E+00  1.60000000E+01
  1.00800000E+00  1.00800000E+00  1.60000000E+01  1.00800000E+00  1.00800000E+00
  1.60000000E+01  1.00800000E+00  1.00800000E+00  1.60000000E+01  1.00800000E+00
  1.00800000E+00  1.60000000E+01  1.00800000E+00  1.00800000E+00  1.60000000E+01
  1.00800000E+00  1.00800000E+00  1.60000000E+01  1.00800000E+00  1.00800000E+00
  1.60000000E+01  1.00800000E+00  1.00800000E+00  1.60000000E+01  1.00800000E+00
  1.00800000E+00  1.60000000E+01  1.00800000E+00  1.00800000E+00  1.60000000E+01
  1.00800000E+00  1.00800000E+00  1.60000000E+01  1.00800000E+00  1.00800000E+00
  1.60000000E+01  1.00800000E+00  1.00800000E+00  1.60000000E+01  1.00800000E+00
  1.00800000E+00  1.60000000E+01  1.00800000E+00  1.00800000E+00  1.60000000E+01
  1.00800000E+00  1.00800000E+00  1.60000000E+01  1.00800000E+00  1.00800000E+00
  1.60000000E+01  1.00800000E+00  1.00800000E+00  1.60000000E+01  1.00800000E+00
  1.00800000E+00  1.60000000E+01  1.00800000E+00  1.00800000E+00  1.60000000E+01
  1.00800000E+00  1.00800000E+00  1.60000000E+01  1.00800000E+00  1.00800000E+00
  1.60000000E+01  1.00800000E+00  1.00800000E+00  1.60000000E+01  1.00800000E+00
  1.00800000E+00  1.60000000E+01  1.00800000E+00  1.00800000E+00  1.60000000E+01
  1.00800000E+00  1.00800000E+00  1.60000000E+01  1.00800000E+00  1.00800000E+00
  1.60000000E+01  1.00800000E+00  1.00800000E+00  1.60000000E+01  1.00800000E+00
  1.00800000E+00  1.60000000E+01  1.00800000E+00  1.00800000E+00  1.60000000E+01
  1.00800000E+00  1.00800000E+00  1.60000000E+01  1.00800000E+00  1.00800000E+00
  1.60000000E+01  1.00800000E+00  1.00800000E+00  1.60000000E+01  1.00800000E+00
  1.00800000E+00  1.60000000E+01  1.00800000E+00  1.00800000E+00  1.60000000E+01
  1.00800000E+00  1.00800000E+00  1.60000000E+01  1.00800000E+00  1.00800000E+00
  1.60000000E+01  1.00800000E+00  1.00800000E+00  1.60000000E+01  1.00800000E+00
  1.00800000E+00  1.60000000E+01  1.00800000E+00  1.00800000E+00  1.60000000E+01
  1.00800000E+00  1.00800000E+00  1.60000000E+01  1.00800000E+00  1.00800000E+00
  1.60000000E+01  1.00800000E+00  1.00800000E+00  1.60000000E+01  1.00800000E+00
  1.00800000E+00  1.60000000E+01  1.00800000E+00  1.00800000E+00  1.60000000E+01
  1.00800000E+00  1.00800000E+00  1.60000000E+01  1.00800000E+00  1.00800000E+00
  1.60000000E+01  1.00800000E+00  1.00800000E+00  1.60000000E+01  1.00800000E+00
  1.00800000E+00  1.60000000E+01  1.00800000E+00  1.00800000E+00  1.60000000E+01
  1.00800000E+00  1.00800000E+00  1.60000000E+01  1.00800000E+00  1.00800000E+00
  1.60000000E+01  1.00800000E+00  1.00800000E+00  1.60000000E+01  1.00800000E+00
  1.00800000E+00  1.60000000E+01  1.00800000E+00  1.00800000E+00  1.60000000E+01
  1.00800000E+00  1.00800000E+00  1.60000000E+01  1.00800000E+00  1.00800000E+00
  1.60000000E+01  1.00800000E+00  1.00800000E+00  1.60000000E+01  1.00800000E+00
  1.00800000E+00  1.60000000E+01  1.00800000E+00  1.00800000E+00  1.60000000E+01
  1.00800000E+00  1.00800000E+00  1.60000000E+01  1.00800000E+00  1.00800000E+00
  1.60000000E+01  1.00800000E+00  1.00800000E+00  1.60000000E+01  1.00800000E+00
  1.00800000E+00  1.60000000E+01  1.00800000E+00  1.00800000E+00  1.60000000E+01
  1.00800000E+00  1.00800000E+00  1.60000000E+01  1.00800000E+00  1.00800000E+00
  1.60000000E+01  1.00800000E+00  1.00800000E+00  1.60000000E+01  1.00800000E+00
  1.00800000E+00  1.60000000E+01  1.00800000E+00  1.00800000E+00  1.60000000E+01
  1.00800000E+00  1.00800000E+00  1.60000000E+01  1.00800000E+00  1.00800000E+00
  1.60000000E+01  1.00800000E+00  1.00800000E+00  1.60000000E+01  1.00800000E+00
  1.00800000E+00  1.60000000E+01  1.00800000E+00  1.00800000E+00  1.60000000E+01
  1.00800000E+00  1.00800000E+00  1.60000000E+01  1.00800000E+00  1.00800000E+00
  1.60000000E+01  1.00800000E+00  1.00800000E+00  1.60000000E+01  1.00800000E+00
  1.00800000E+00  1.60000000E+01  1.00800000E+00  1.00800000E+00  1.60000000E+01
  1.00800000E+00  1.00800000E+00  1.60000000E+01  1.00800000E+00  1.00800000E+00
  1.60000000E+01  1.00800000E+00  1.00800000E+00  1.60000000E+01  1.00800000E+00
  1.00800000E+00  1.60000000E+01  1.00800000E+00  1.00800000E+00  1.60000000E+01
  1.00800000E+00  1.00800000E+00  1.60000000E+01  1.00800000E+00  1.00800000E+00
  1.60000000E+01  1.00800000E+00  1.00800000E+00  1.60000000E+01  1.00800000E+00
  1.00800000E+00  1.60000000E+01  1.00800000E+00  1.00800000E+00  1.60000000E+01
  1.00800000E+00  1.00800000E+00  1.60000000E+01  1.00800000E+00  1.00800000E+00
  1.60000000E+01  1.00800000E+00  1.00800000E+00  1.60000000E+01  1.00800000E+00
  1.00800000E+00  1.60000000E+01  1.00800000E+00  1.00800000E+00  1.60000000E+01
  1.00800000E+00  1.00800000E+00  1.60000000E+01  1.00800000E+00  1.00800000E+00
  1.60000000E+01  1.00800000E+00  1.00800000E+00  1.60000000E+01  1.00800000E+00
  1.00800000E+00  1.60000000E+01  1.00800000E+00  1.00800000E+00  1.60000000E+01
  1.00800000E+00  1.00800000E+00  1.60000000E+01  1.00800000E+00  1.00800000E+00
  1.60000000E+01  1.00800000E+00  1.00800000E+00  1.60000000E+01  1.00800000E+00
  1.00800000E+00  1.60000000E+01  1.00800000E+00  1.00800000E+00  1.60000000E+01
  1.00800000E+00  1.00800000E+00  1.60000000E+01  1.00800000E+00  1.00800000E+00
  1.60000000E+01  1.00800000E+00  1.00800000E+00  1.60000000E+01  1.00800000E+00
  1.00800000E+00  1.60000000E+01  1.00800000E+00  1.00800000E+00  1.60000000E+01
  1.00800000E+00  1.00800000E+00  1.60000000E+01  1.00800000E+00  1.00800000E+00
  1.60000000E+01  1.00800000E+00  1.00800000E+00  1.60000000E+01  1.00800000E+00
  1.00800000E+00  1.60000000E+01  1.00800000E+00  1.00800000E+00  1.60000000E+01
  1.00800000E+00  1.00800000E+00  1.60000000E+01  1.00800000E+00  1.00800000E+00
  1.60000000E+01  1.00800000E+00  1.00800000E+00  1.60000000E+01  1.00800000E+00
  1.00800000E+00  1.60000000E+01  1.00800000E+00  1.00800000E+00  1.60000000E+01
  1.00800000E+00  1.00800000E+00  1.60000000E+01  1.00800000E+00  1.00800000E+00
  1.60000000E+01  1.00800000E+00  1.00800000E+00  1.60000000E+01  1.00800000E+00
  1.00800000E+00  1.60000000E+01  1.00800000E+00  1.00800000E+00  1.60000000E+01
  1.00800000E+00  1.00800000E+00  1.60000000E+01  1.00800000E+00  1.00800000E+00
  1.60000000E+01  1.00800000E+00  1.00800000E+00  1.60000000E+01  1.00800000E+00
  1.00800000E+00  1.60000000E+01  1.00800000E+00  1.00800000E+00  1.60000000E+01
  1.00800000E+00  1.00800000E+00  1.60000000E+01  1.00800000E+00  1.00800000E+00
  1.60000000E+01  1.00800000E+00  1.00800000E+00  1.60000000E+01  1.00800000E+00
  1.00800000E+00  1.60000000E+01  1.00800000E+00  1.00800000E+00  1.60000000E+01
  1.00800000E+00  1.00800000E+00  1.60000000E+01  1.00800000E+00  1.00800000E+00
  1.60000000E+01  1.00800000E+00  1.00800000E+00  1.60000000E+01  1.00800000E+00
  1.00800000E+00  1.60000000E+01  1.00800000E+00  1.00800000E+00  1.60000000E+01
  1.00800000E+00  1.00800000E+00  1.60000000E+01  1.00800000E+00  1.00800000E+00
  1.60000000E+01  1.00800000E+00  1.00800000E+00  1.60000000E+01  1.00800000E+00
  1.00800000E+00  1.60000000E+01  1.00800000E+00  1.00800000E+00  1.60000000E+01
  1.00800000E+00  1.00800000E+00  1.60000000E+01  1.00800000E+00  1.00800000E+00
  1.60000000E+01  1.00800000E+00  1.00800000E+00  1.60000000E+01  1.00800000E+00
  1.00800000E+00  1.60000000E+01  1.00800000E+00  1.00800000E+00  1.60000000E+01
  1.00800000E+00  1.00800000E+00  1.60000000E+01  1.00800000E+00  1.00800000E+00
  1.60000000E+01  1.00800000E+00  1.00800000E+00  1.60000000E+01  1.00800000E+00
  1.00800000E+00  1.60000000E+01  1.00800000E+00  1.00800000E+00  1.60000000E+01
  1.00800000E+00  1.00800000E+00  1.60000000E+01  1.00800000E+00  1.00800000E+00
  1.60000000E+01  1.00800000E+00  1.00800000E+00  1.60000000E+01  1.00800000E+00
  1.00800000E+00  1.60000000E+01  1.00800000E+00  1.00800000E+00  1.60000000E+01
  1.00800000E+00  1.00800000E+00  1.60000000E+01  1.00800000E+00  1.00800000E+00
  1.60000000E+01  1.00800000E+00  1.00800000E+00  1.60000000E+01  1.00800000E+00
  1.00800000E+00  1.60000000E+01  1.00800000E+00  1.00800000E+00  1.60000000E+01
  1.00800000E+00  1.00800000E+00  1.60000000E+01  1.00800000E+00  1.00800000E+00
  1.60000000E+01  1.00800000E+00  1.00800000E+00  1.60000000E+01  1.00800000E+00
  1.00800000E+00  1.60000000E+01  1.00800000E+00  1.00800000E+00  1.60000000E+01
  1.00800000E+00  1.00800000E+00  1.60000000E+01  1.00800000E+00  1.00800000E+00
  1.60000000E+01  1.00800000E+00  1.00800000E+00  1.60000000E+01  1.00800000E+00
  1.00800000E+00  1.60000000E+01  1.00800000E+00  1.00800000E+00  1.60000000E+01
  1.00800000E+00  1.00800000E+00  1.60000000E+01  1.00800000E+00  1.00800000E+00
  1.60000000E+01  1.00800000E+00  1.00800000E+00  1.60000000E+01  1.00800000E+00
  1.00800000E+00  1.60000000E+01  1.00800000E+00  1.00800000E+00  1.60000000E+01
  1.00800000E+00  1.00800000E+00  1.60000000E+01  1.00800000E+00  1.00800000E+00
  1.60000000E+01  1.00800000E+00  1.00800000E+00  1.60000000E+01  1.00800000E+00
  1.00800000E+00  1.60000000E+01  1.00800000E+00  1.00800000E+00  1.60000000E+01
  1.00800000E+00  1.00800000E+00  1.60000000E+01  1.00800000E+00  1.00800000E+00
  1.60000000E+01  1.00800000E+00  1.00800000E+00  1.60000000E+01  1.00800000E+00
  1.00800000E+00  1.60000000E+01  1.00800000E+00  1.00800000E+00  1.60000000E+01
  1.00800000E+00  1.00800000E+00  1.60000000E+01  1.00800000E+00  1.00800000E+00
  1.60000000E+01  1.00800000E+00  1.00800000E+00  1.60000000E+01  1.00800000E+00
  1.00800000E+00  1.60000000E+01  1.00800000E+00  1.00800000E+00  1.60000000E+01
  1.00800000E+00  1.00800000E+00  1.60000000E+01  1.00800000E+00  1.00800000E+00
  1.60000000E+01  1.00800000E+00  1.00800000E+00  1.60000000E+01  1.00800000E+00
  1.00800000E+00  1.60000000E+01  1.00800000E+00  1.00800000E+00  1.60000000E+01
  1.00800000E+00  1.00800000E+00  1.60000000E+01  1.00800000E+00  1.00800000E+00
  1.60000000E+01  1.00800000E+00  1.00800000E+00  1.60000000E+01  1.00800000E+00
  1.00800000E+00  1.60000000E+01  1.00800000E+00  1.00800000E+00  1.60000000E+01
  1.00800000E+00  1.00800000E+00  1.60000000E+01  1.00800000E+00  1.00800000E+00
  1.60000000E+01  1.00800000E+00  1.00800000E+00  1.60000000E+01  1.00800000E+00
  1.00800000E+00  1.60000000E+01  1.00800000E+00  1.00800000E+00  1.60000000E+01
  1.00800000E+00  1.00800000E+00  1.60000000E+01  1.00800000E+00  1.00800000E+00
  1.60000000E+01  1.00800000E+00  1.00800000E+00  1.60000000E+01  1.00800000E+00
  1.00800000E+00  1.60000000E+01  1.00800000E+00  1.00800000E+00  1.60000000E+01
  1.00800000E+00  1.00800000E+00  1.60000000E+01  1.00800000E+00  1.00800000E+00
  1.60000000E+01  1.00800000E+00  1.00800000E+00  1.60000000E+01  1.00800000E+00
  1.00800000E+00  1.60000000E+01  1.00800000E+00  1.00800000E+00  1.60000000E+01
  1.00800000E+00  1.00800000E+00  1.60000000E+01  1.00800000E+00  1.00800000E+00
  1.60000000E+01  1.00800000E+00  1.00800000E+00  1.60000000E+01  1.00800000E+00
  1.00800000E+00  1.60000000E+01  1.00800000E+00  1.00800000E+00  1.60000000E+01
  1.00800000E+00  1.00800000E+00  1.60000000E+01  1.00800000E+00  1.00800000E+00
  1.60000000E+01  1.00800000E+00  1.00800000E+00  1.60000000E+01  1.00800000E+00
  1.00800000E+00  1.60000000E+01  1.00800000E+00  1.00800000E+00  1.60000000E+01
  1.00800000E+00  1.00800000E+00  1.60000000E+01  1.00800000E+00  1.00800000E+00
  1.60000000E+01  1.00800000E+00  1.00800000E+00  1.60000000E+01  1.00800000E+00
  1.00800000E+00  1.60000000E+01  1.00800000E+00  1.00800000E+00  1.60000000E+01
  1.00800000E+00  1.00800000E+00  1.60000000E+01  1.00800000E+00  1.00800000E+00
  1.60000000E+01  1.00800000E+00  1.00800000E+00  1.60000000E+01  1.00800000E+00
  1.00800000E+00  1.60000000E+01  1.00800000E+00  1.00800000E+00  1.60000000E+01
  1.00800000E+00  1.00800000E+00  1.60000000E+01  1.00800000E+00  1.00800000E+00
  1.60000000E+01  1.00800000E+00  1.00800000E+00  1.60000000E+01  1.00800000E+00
  1.00800000E+00  1.60000000E+01  1.00800000E+00  1.00800000E+00  1.60000000E+01
  1.00800000E+00  1.00800000E+00  1.60000000E+01  1.00800000E+00  1.00800000E+00
  1.60000000E+01  1.00800000E+00  1.00800000E+00  1.60000000E+01  1.00800000E+00
  1.00800000E+00  1.60000000E+01  1.00800000E+00  1.00800000E+00  1.60000000E+01
  1.00800000E+00  1.00800000E+00  1.60000000E+01  1.00800000E+00  1.00800000E+00
  1.60000000E+01  1.00800000E+00  1.00800000E+00  1.60000000E+01  1.00800000E+00
  1.00800000E+00  1.60000000E+01  1.00800000E+00  1.00800000E+00  1.60000000E+01
  1.00800000E+00  1.00800000E+00  1.60000000E+01  1.00800000E+00  1.00800000E+00
  1.60000000E+01  1.00800000E+00  1.00800000E+00  1.60000000E+01  1.00800000E+00
  1.00800000E+00  1.60000000E+01  1.00800000E+00  1.00800000E+00  1.60000000E+01
  1.00800000E+00  1.00800000E+00  1.60000000E+01  1.00800000E+00  1.00800000E+00
  1.60000000E+01  1.00800000E+00  1.00800000E+00  1.60000000E+01  1.00800000E+00
  1.00800000E+00  1.60000000E+01  1.00800000E+00  1.00800000E+00  1.60000000E+01
  1.00800000E+00  1.00800000E+00  1.60000000E+01  1.00800000E+00  1.00800000E+00
  1.60000000E+01  1.00800000E+00  1.00800000E+00  1.60000000E+01  1.00800000E+00
  1.00800000E+00  1.60000000E+01  1.00800000E+00  1.00800000E+00  1.60000000E+01
  1.00800000E+00  1.00800000E+00  1.60000000E+01  1.00800000E+00  1.00800000E+00
  1.60000000E+01  1.00800000E+00  1.00800000E+00  1.60000000E+01  1.00800000E+00
  1.00800000E+00  1.60000000E+01  1.00800000E+00  1.00800000E+00  1.60000000E+01
  1.00800000E+00  1.00800000E+00  1.60000000E+01  1.00800000E+00  1.00800000E+00
  1.60000000E+01  1.00800000E+00  1.00800000E+00  1.60000000E+01  1.00800000E+00
  1.00800000E+00  1.60000000E+01  1.00800000E+00  1.00800000E+00  1.60000000E+01
  1.00800000E+00  1.00800000E+00  1.60000000E+01  1.00800000E+00  1.00800000E+00
  1.60000000E+01  1.00800000E+00  1.00800000E+00  1.60000000E+01  1.00800000E+00
  1.00800000E+00  1.60000000E+01  1.00800000E+00  1.00800000E+00  1.60000000E+01
  1.00800000E+00  1.00800000E+00  1.60000000E+01  1.00800000E+00  1.00800000E+00
  1.60000000E+01  1.00800000E+00  1.00800000E+00  1.60000000E+01  1.00800000E+00
  1.00800000E+00  1.60000000E+01  1.00800000E+00  1.00800000E+00  1.60000000E+01
  1.00800000E+00  1.00800000E+00  1.60000000E+01  1.00800000E+00  1.00800000E+00
  1.60000000E+01  1.00800000E+00  1.00800000E+00  1.60000000E+01  1.00800000E+00
  1.00800000E+00  1.60000000E+01  1.00800000E+00  1.00800000E+00  1.60000000E+01
  1.00800000E+00  1.00800000E+00  1.60000000E+01  1.00800000E+00  1.00800000E+00
  1.60000000E+01  1.00800000E+00  1.00800000E+00  1.60000000E+01  1.00800000E+00
  1.00800000E+00  1.60000000E+01  1.00800000E+00  1.00800000E+00  1.60000000E+01
  1.00800000E+00  1.00800000E+00  1.60000000E+01  1.00800000E+00  1.00800000E+00
  1.60000000E+01  1.00800000E+00  1.00800000E+00  1.60000000E+01  1.00800000E+00
  1.00800000E+00  1.60000000E+01  1.00800000E+00  1.00800000E+00  1.60000000E+01
  1.00800000E+00  1.00800000E+00  1.60000000E+01  1.00800000E+00  1.00800000E+00
  1.60000000E+01  1.00800000E+00  1.00800000E+00  1.60000000E+01  1.00800000E+00
  1.00800000E+00  1.60000000E+01  1.00800000E+00  1.00800000E+00  1.60000000E+01
  1.00800000E+00  1.00800000E+00  1.60000000E+01  1.00800000E+00  1.00800000E+00
  1.60000000E+01  1.00800000E+00  1.00800000E+00  1.60000000E+01  1.00800000E+00
  1.00800000E+00  1.60000000E+01  1.00800000E+00  1.00800000E+00  1.60000000E+01
  1.00800000E+00  1.00800000E+00  1.60000000E+01  1.00800000E+00  1.00800000E+00
  1.60000000E+01  1.00800000E+00  1.00800000E+00  1.60000000E+01  1.00800000E+00
  1.00800000E+00  1.60000000E+01  1.00800000E+00  1.00800000E+00  1.60000000E+01
  1.00800000E+00  1.00800000E+00  1.60000000E+01  1.00800000E+00  1.00800000E+00
  1.60000000E+01  1.00800000E+00  1.00800000E+00  1.60000000E+01  1.00800000E+00
  1.00800000E+00  1.60000000E+01  1.00800000E+00  1.00800000E+00  1.60000000E+01
  1.00800000E+00  1.00800000E+00  1.60000000E+01  1.00800000E+00  1.00800000E+00
  1.60000000E+01  1.00800000E+00  1.00800000E+00  1.60000000E+01  1.00800000E+00
  1.00800000E+00  1.60000000E+01  1.00800000E+00  1.00800000E+00  1.60000000E+01
  1.00800000E+00  1.00800000E+00  1.60000000E+01  1.00800000E+00  1.00800000E+00
  1.60000000E+01  1.00800000E+00  1.00800000E+00  1.60000000E+01  1.00800000E+00
  1.00800000E+00  1.60000000E+01  1.00800000E+00  1.00800000E+00  1.60000000E+01
  1.00800000E+00  1.00800000E+00  1.60000000E+01  1.00800000E+00  1.00800000E+00
  1.60000000E+01  1.00800000E+00  1.00800000E+00  1.60000000E+01  1.00800000E+00
  1.00800000E+00  1.60000000E+01  1.00800000E+00  1.00800000E+00  1.60000000E+01
  1.00800000E+00  1.00800000E+00  1.60000000E+01  1.00800000E+00  1.00800000E+00
  1.60000000E+01  1.00800000E+00  1.00800000E+00  1.60000000E+01  1.00800000E+00
  1.00800000E+00  1.60000000E+01  1.00800000E+00  1.00800000E+00  1.60000000E+01
  1.00800000E+00  1.00800000E+00  1.60000000E+01  1.00800000E+00  1.00800000E+00
  1.60000000E+01  1.00800000E+00  1.00800000E+00  1.60000000E+01  1.00800000E+00
  1.00800000E+00  1.60000000E+01  1.00800000E+00  1.00800000E+00  1.60000000E+01
  1.00800000E+00  1.00800000E+00  1.60000000E+01  1.00800000E+00  1.00800000E+00
  1.60000000E+01  1.00800000E+00  1.00800000E+00  1.60000000E+01  1.00800000E+00
  1.00800000E+00  1.60000000E+01  1.00800000E+00  1.00800000E+00  1.60000000E+01
  1.00800000E+00  1.00800000E+00  1.60000000E+01  1.00800000E+00  1.00800000E+00
  1.60000000E+01  1.00800000E+00  1.00800000E+00  1.60000000E+01  1.00800000E+00
  1.00800000E+00  1.60000000E+01  1.00800000E+00  1.00800000E+00  1.60000000E+01
  1.00800000E+00  1.00800000E+00  1.60000000E+01  1.00800000E+00  1.00800000E+00
  1.60000000E+01  1.00800000E+00  1.00800000E+00  1.60000000E+01  1.00800000E+00
  1.00800000E+00  1.60000000E+01  1.00800000E+00  1.00800000E+00  1.60000000E+01
  1.00800000E+00  1.00800000E+00  1.60000000E+01  1.00800000E+00  1.00800000E+00
  1.60000000E+01  1.00800000E+00  1.00800000E+00  1.60000000E+01  1.00800000E+00
  1.00800000E+00  1.60000000E+01  1.00800000E+00  1.00800000E+00  1.60000000E+01
  1.00800000E+00  1.00800000E+00  1.60000000E+01  1.00800000E+00  1.00800000E+00
  1.60000000E+01  1.00800000E+00  1.00800000E+00  1.60000000E+01  1.00800000E+00
  1.00800000E+00  1.60000000E+01  1.00800000E+00  1.00800000E+00  1.60000000E+01
  1.00800000E+00  1.00800000E+00  1.60000000E+01  1.00800000E+00  1.00800000E+00
  1.60000000E+01  1.00800000E+00  1.00800000E+00  1.60000000E+01  1.00800000E+00
  1.00800000E+00  1.60000000E+01  1.00800000E+00  1.00800000E+00  1.60000000E+01
  1.00800000E+00  1.00800000E+00  1.60000000E+01  1.00800000E+00  1.00800000E+00
  1.60000000E+01  1.00800000E+00  1.00800000E+00  1.60000000E+01  1.00800000E+00
  1.00800000E+00  1.60000000E+01  1.00800000E+00  1.00800000E+00  1.60000000E+01
  1.00800000E+00  1.00800000E+00  1.60000000E+01  1.00800000E+00  1.00800000E+00
  1.60000000E+01  1.00800000E+00  1.00800000E+00  1.60000000E+01  1.00800000E+00
  1.00800000E+00  1.60000000E+01  1.00800000E+00  1.00800000E+00  1.60000000E+01
  1.00800000E+00  1.00800000E+00  1.60000000E+01  1.00800000E+00  1.00800000E+00
  1.60000000E+01  1.00800000E+00  1.00800000E+00  1.60000000E+01  1.00800000E+00
  1.00800000E+00  1.60000000E+01  1.00800000E+00  1.00800000E+00  1.60000000E+01
  1.00800000E+00  1.00800000E+00  1.60000000E+01  1.00800000E+00  1.00800000E+00
  1.60000000E+01  1.00800000E+00  1.00800000E+00  1.60000000E+01  1.00800000E+00
  1.00800000E+00  1.60000000E+01  1.00800000E+00  1.00800000E+00  1.60000000E+01
  1.00800000E+00  1.00800000E+00  1.60000000E+01  1.00800000E+00  1.00800000E+00
  1.60000000E+01  1.00800000E+00  1.00800000E+00  1.60000000E+01  1.00800000E+00
  1.00800000E+00  1.60000000E+01  1.00800000E+00  1.00800000E+00  1.60000000E+01
  1.00800000E+00  1.00800000E+00  1.60000000E+01  1.00800000E+00  1.00800000E+00
  1.60000000E+01  1.00800000E+00  1.00800000E+00  1.60000000E+01  1.00800000E+00
  1.00800000E+00  1.60000000E+01  1.00800000E+00  1.00800000E+00  1.60000000E+01
  1.00800000E+00  1.00800000E+00  1.60000000E+01  1.00800000E+00  1.00800000E+00
  1.60000000E+01  1.00800000E+00  1.00800000E+00  1.60000000E+01  1.00800000E+00
  1.00800000E+00  1.60000000E+01  1.00800000E+00  1.00800000E+00  1.60000000E+01
  1.00800000E+00  1.00800000E+00  1.60000000E+01  1.00800000E+00  1.00800000E+00
  1.60000000E+01  1.00800000E+00  1.00800000E+00  1.60000000E+01  1.00800000E+00
  1.00800000E+00  1.60000000E+01  1.00800000E+00  1.00800000E+00  1.60000000E+01
  1.00800000E+00  1.00800000E+00  1.60000000E+01  1.00800000E+00  1.00800000E+00
  1.60000000E+01  1.00800000E+00  1.00800000E+00  1.60000000E+01  1.00800000E+00
  1.00800000E+00  1.60000000E+01  1.00800000E+00  1.00800000E+00  1.60000000E+01
  1.00800000E+00  1.00800000E+00  1.60000000E+01  1.00800000E+00  1.00800000E+00
  1.60000000E+01  1.00800000E+00  1.00800000E+00  1.60000000E+01  1.00800000E+00
  1.00800000E+00  1.60000000E+01  1.00800000E+00  1.00800000E+00  1.60000000E+01
  1.00800000E+00  1.00800000E+00  1.60000000E+01  1.00800000E+00  1.00800000E+00
  1.60000000E+01  1.00800000E+00  1.00800000E+00  1.60000000E+01  1.00800000E+00
  1.00800000E+00  1.60000000E+01  1.00800000E+00  1.00800000E+00  1.60000000E+01
  1.00800000E+00  1.00800000E+00  1.60000000E+01  1.00800000E+00  1.00800000E+00
  1.60000000E+01  1.00800000E+00  1.00800000E+00  1.60000000E+01  1.00800000E+00
  1.00800000E+00  1.60000000E+01  1.00800000E+00  1.00800000E+00  1.60000000E+01
  1.00800000E+00  1.00800000E+00  1.60000000E+01  1.00800000E+00  1.00800000E+00
  1.60000000E+01  1.00800000E+00  1.00800000E+00  1.60000000E+01  1.00800000E+00
  1.00800000E+00  1.60000000E+01  1.00800000E+00  1.00800000E+00  1.60000000E+01
  1.00800000E+00  1.00800000E+00  1.60000000E+01  1.00800000E+00  1.00800000E+00
  1.60000000E+01  1.00800000E+00  1.00800000E+00  1.60000000E+01  1.00800000E+00
  1.00800000E+00  1.60000000E+01  1.00800000E+00  1.00800000E+00  1.60000000E+01
  1.00800000E+00  1.00800000E+00  1.60000000E+01  1.00800000E+00  1.00800000E+00
  1.60000000E+01  1.00800000E+00  1.00800000E+00  1.60000000E+01  1.00800000E+00
  1.00800000E+00  1.60000000E+01  1.00800000E+00  1.00800000E+00  1.60000000E+01
  1.00800000E+00  1.00800000E+00  1.60000000E+01  1.00800000E+00  1.00800000E+00
  1.60000000E+01  1.00800000E+00  1.00800000E+00  1.60000000E+01  1.00800000E+00
  1.00800000E+00  1.60000000E+01  1.00800000E+00  1.00800000E+00  1.60000000E+01
  1.00800000E+00  1.00800000E+00  1.60000000E+01  1.00800000E+00  1.00800000E+00
  1.60000000E+01  1.00800000E+00  1.00800000E+00  1.60000000E+01  1.00800000E+00
  1.00800000E+00  1.60000000E+01  1.00800000E+00  1.00800000E+00  1.60000000E+01
  1.00800000E+00  1.00800000E+00  1.60000000E+01  1.00800000E+00  1.00800000E+00
  1.60000000E+01  1.00800000E+00  1.00800000E+00  1.60000000E+01  1.00800000E+00
  1.00800000E+00  1.60000000E+01  1.00800000E+00  1.00800000E+00  1.60000000E+01
  1.00800000E+00  1.00800000E+00  1.60000000E+01  1.00800000E+00  1.00800000E+00
  1.60000000E+01  1.00800000E+00  1.00800000E+00  1.60000000E+01  1.00800000E+00
  1.00800000E+00  1.60000000E+01  1.00800000E+00  1.00800000E+00  1.60000000E+01
  1.00800000E+00  1.00800000E+00  1.60000000E+01  1.00800000E+00  1.00800000E+00
  1.60000000E+01  1.00800000E+00  1.00800000E+00  1.60000000E+01  1.00800000E+00
  1.00800000E+00  1.60000000E+01  1.00800000E+00  1.00800000E+00  1.60000000E+01
  1.00800000E+00  1.00800000E+00  1.60000000E+01  1.00800000E+00  1.00800000E+00
  1.60000000E+01  1.00800000E+00  1.00800000E+00  1.60000000E+01  1.00800000E+00
  1.00800000E+00  1.60000000E+01  1.00800000E+00  1.00800000E+00  1.60000000E+01
  1.00800000E+00  1.00800000E+00  1.60000000E+01  1.00800000E+00  1.00800000E+00
  1.60000000E+01  1.00800000E+00  1.00800000E+00  1.60000000E+01  1.00800000E+00
  1.00800000E+00  1.60000000E+01  1.00800000E+00  1.00800000E+00  1.60000000E+01
  1.00800000E+00  1.00800000E+00  1.60000000E+01  1.00800000E+00  1.00800000E+00
  1.60000000E+01  1.00800000E+00  1.00800000E+00  1.60000000E+01  1.00800000E+00
  1.00800000E+00  1.60000000E+01  1.00800000E+00  1.00800000E+00  1.60000000E+01
  1.00800000E+00  1.00800000E+00  1.60000000E+01  1.00800000E+00  1.00800000E+00
  1.60000000E+01  1.00800000E+00  1.00800000E+00  1.60000000E+01  1.00800000E+00
  1.00800000E+00  1.60000000E+01  1.00800000E+00  1.00800000E+00  1.60000000E+01
  1.00800000E+00  1.00800000E+00  1.60000000E+01  1.00800000E+00  1.00800000E+00
  1.60000000E+01  1.00800000E+00  1.00800000E+00  1.60000000E+01  1.00800000E+00
  1.00800000E+00  1.60000000E+01  1.00800000E+00  1.00800000E+00  1.60000000E+01
  1.00800000E+00  1.00800000E+00  1.60000000E+01  1.00800000E+00  1.00800000E+00
  1.60000000E+01  1.00800000E+00  1.00800000E+00  1.60000000E+01  1.00800000E+00
  1.00800000E+00  1.60000000E+01  1.00800000E+00  1.00800000E+00  1.60000000E+01
  1.00800000E+00  1.00800000E+00  1.60000000E+01  1.00800000E+00  1.00800000E+00
  1.60000000E+01  1.00800000E+00  1.00800000E+00  1.60000000E+01  1.00800000E+00
  1.00800000E+00  1.60000000E+01  1.00800000E+00  1.00800000E+00  1.60000000E+01
  1.00800000E+00  1.00800000E+00  1.60000000E+01  1.00800000E+00  1.00800000E+00
  1.60000000E+01  1.00800000E+00  1.00800000E+00  1.60000000E+01  1.00800000E+00
  1.00800000E+00  1.60000000E+01  1.00800000E+00  1.00800000E+00  1.60000000E+01
  1.00800000E+00  1.00800000E+00  1.60000000E+01  1.00800000E+00  1.00800000E+00
  1.60000000E+01  1.00800000E+00  1.00800000E+00  1.60000000E+01  1.00800000E+00
  1.00800000E+00  1.60000000E+01  1.00800000E+00  1.00800000E+00  1.60000000E+01
  1.00800000E+00  1.00800000E+00  1.60000000E+01  1.00800000E+00  1.00800000E+00
  1.60000000E+01  1.00800000E+00  1.00800000E+00  1.60000000E+01  1.00800000E+00
  1.00800000E+00  1.60000000E+01  1.00800000E+00  1.00800000E+00  1.60000000E+01
  1.00800000E+00  1.00800000E+00  1.60000000E+01  1.00800000E+00  1.00800000E+00
  1.60000000E+01  1.00800000E+00  1.00800000E+00  1.60000000E+01  1.00800000E+00
  1.00800000E+00  1.60000000E+01  1.00800000E+00  1.00800000E+00  1.60000000E+01
  1.00800000E+00  1.00800000E+00  1.60000000E+01  1.00800000E+00  1.00800000E+00
  1.60000000E+01  1.00800000E+00  1.00800000E+00  1.60000000E+01  1.00800000E+00
  1.00800000E+00  1.60000000E+01  1.00800000E+00  1.00800000E+00  1.60000000E+01
  1.00800000E+00  1.00800000E+00  1.60000000E+01  1.00800000E+00  1.00800000E+00
  1.60000000E+01  1.00800000E+00  1.00800000E+00  1.60000000E+01  1.00800000E+00
  1.00800000E+00  1.60000000E+01  1.00800000E+00  1.00800000E+00  1.60000000E+01
  1.00800000E+00  1.00800000E+00  1.60000000E+01  1.00800000E+00  1.00800000E+00
  1.60000000E+01  1.00800000E+00  1.00800000E+00  1.60000000E+01  1.00800000E+00
  1.00800000E+00  1.60000000E+01  1.00800000E+00  1.00800000E+00  1.60000000E+01
  1.00800000E+00  1.00800000E+00  1.60000000E+01  1.00800000E+00  1.00800000E+00
  1.60000000E+01  1.00800000E+00  1.00800000E+00  1.60000000E+01  1.00800000E+00
  1.00800000E+00  1.60000000E+01  1.00800000E+00  1.00800000E+00  1.60000000E+01
  1.00800000E+00  1.00800000E+00  1.60000000E+01  1.00800000E+00  1.00800000E+00
  1.60000000E+01  1.00800000E+00  1.00800000E+00  1.60000000E+01  1.00800000E+00
  1.00800000E+00  1.60000000E+01  1.00800000E+00  1.00800000E+00  1.60000000E+01
  1.00800000E+00  1.00800000E+00  1.60000000E+01  1.00800000E+00  1.00800000E+00
  1.60000000E+01  1.00800000E+00  1.00800000E+00  1.60000000E+01  1.00800000E+00
  1.00800000E+00  1.60000000E+01  1.00800000E+00  1.00800000E+00  1.60000000E+01
  1.00800000E+00  1.00800000E+00  1.60000000E+01  1.00800000E+00  1.00800000E+00
  1.60000000E+01  1.00800000E+00  1.00800000E+00  1.60000000E+01  1.00800000E+00
  1.00800000E+00  1.60000000E+01  1.00800000E+00  1.00800000E+00  1.60000000E+01
  1.00800000E+00  1.00800000E+00  1.60000000E+01  1.00800000E+00  1.00800000E+00
  1.60000000E+01  1.00800000E+00  1.00800000E+00  1.60000000E+01  1.00800000E+00
  1.00800000E+00  1.60000000E+01  1.00800000E+00  1.00800000E+00  1.60000000E+01
  1.00800000E+00  1.00800000E+00  1.60000000E+01  1.00800000E+00  1.00800000E+00
  1.60000000E+01  1.00800000E+00  1.00800000E+00  1.60000000E+01  1.00800000E+00
  1.00800000E+00  1.60000000E+01  1.00800000E+00  1.00800000E+00  1.60000000E+01
  1.00800000E+00  1.00800000E+00  1.60000000E+01  1.00800000E+00  1.00800000E+00
  1.60000000E+01  1.00800000E+00  1.00800000E+00  1.60000000E+01  1.00800000E+00
  1.00800000E+00  1.60000000E+01  1.00800000E+00  1.00800000E+00  1.60000000E+01
  1.00800000E+00  1.00800000E+00  1.60000000E+01  1.00800000E+00  1.00800000E+00
  1.60000000E+01  1.00800000E+00  1.00800000E+00  1.60000000E+01  1.00800000E+00
  1.00800000E+00  1.60000000E+01  1.00800000E+00  1.00800000E+00  1.60000000E+01
  1.00800000E+00  1.00800000E+00  1.60000000E+01  1.00800000E+00  1.00800000E+00
  1.60000000E+01  1.00800000E+00  1.00800000E+00  1.60000000E+01  1.00800000E+00
  1.00800000E+00  1.60000000E+01  1.00800000E+00  1.00800000E+00  1.60000000E+01
  1.00800000E+00  1.00800000E+00  1.60000000E+01  1.00800000E+00  1.00800000E+00
  1.60000000E+01  1.00800000E+00  1.00800000E+00  1.60000000E+01  1.00800000E+00
  1.00800000E+00  1.60000000E+01  1.00800000E+00  1.00800000E+00  1.60000000E+01
  1.00800000E+00  1.00800000E+00  1.60000000E+01  1.00800000E+00  1.00800000E+00
  1.60000000E+01  1.00800000E+00  1.00800000E+00  1.60000000E+01  1.00800000E+00
  1.00800000E+00  1.60000000E+01  1.00800000E+00  1.00800000E+00  1.60000000E+01
  1.00800000E+00  1.00800000E+00  1.60000000E+01  1.00800000E+00  1.00800000E+00
  1.60000000E+01  1.00800000E+00  1.00800000E+00  1.60000000E+01  1.00800000E+00
  1.00800000E+00  1.60000000E+01  1.00800000E+00  1.00800000E+00  1.60000000E+01
  1.00800000E+00  1.00800000E+00  1.60000000E+01  1.00800000E+00  1.00800000E+00
  1.60000000E+01  1.00800000E+00  1.00800000E+00  1.60000000E+01  1.00800000E+00
  1.00800000E+00  1.60000000E+01  1.00800000E+00  1.00800000E+00  1.60000000E+01
  1.00800000E+00  1.00800000E+00  1.60000000E+01  1.00800000E+00  1.00800000E+00
  1.60000000E+01  1.00800000E+00  1.00800000E+00  1.60000000E+01  1.00800000E+00
  1.00800000E+00  1.60000000E+01  1.00800000E+00  1.00800000E+00  1.60000000E+01
  1.00800000E+00  1.00800000E+00  1.60000000E+01  1.00800000E+00  1.00800000E+00
  1.60000000E+01  1.00800000E+00  1.00800000E+00  1.60000000E+01  1.00800000E+00
  1.00800000E+00  1.60000000E+01  1.00800000E+00  1.00800000E+00  1.60000000E+01
  1.00800000E+00  1.00800000E+00  1.60000000E+01  1.00800000E+00  1.00800000E+00
  1.60000000E+01  1.00800000E+00  1.00800000E+00  1.60000000E+01  1.00800000E+00
  1.00800000E+00  1.60000000E+01  1.00800000E+00  1.00800000E+00  1.60000000E+01
  1.00800000E+00  1.00800000E+00  1.60000000E+01  1.00800000E+00  1.00800000E+00
  1.60000000E+01  1.00800000E+00  1.00800000E+00  1.60000000E+01  1.00800000E+00
  1.00800000E+00  1.60000000E+01  1.00800000E+00  1.00800000E+00  1.60000000E+01
  1.00800000E+00  1.00800000E+00  1.60000000E+01  1.00800000E+00  1.00800000E+00
  1.60000000E+01  1.00800000E+00  1.00800000E+00  1.60000000E+01  1.00800000E+00
  1.00800000E+00  1.60000000E+01  1.00800000E+00  1.00800000E+00  1.60000000E+01
  1.00800000E+00  1.00800000E+00  1.60000000E+01  1.00800000E+00  1.00800000E+00
  1.60000000E+01  1.00800000E+00  1.00800000E+00  1.60000000E+01  1.00800000E+00
  1.00800000E+00  1.60000000E+01  1.00800000E+00  1.00800000E+00  1.60000000E+01
  1.00800000E+00  1.00800000E+00  1.60000000E+01  1.00800000E+00  1.00800000E+00
  1.60000000E+01  1.00800000E+00  1.00800000E+00  1.60000000E+01  1.00800000E+00
  1.00800000E+00  1.60000000E+01  1.00800000E+00  1.00800000E+00  1.60000000E+01
  1.00800000E+00  1.00800000E+00  1.60000000E+01  1.00800000E+00  1.00800000E+00
  1.60000000E+01  1.00800000E+00  1.00800000E+00  1.60000000E+01  1.00800000E+00
  1.00800000E+00  1.60000000E+01  1.00800000E+00  1.00800000E+00  1.60000000E+01
  1.00800000E+00  1.00800000E+00  1.60000000E+01  1.00800000E+00  1.00800000E+00
  1.60000000E+01  1.00800000E+00  1.00800000E+00  1.60000000E+01  1.00800000E+00
  1.00800000E+00  1.60000000E+01  1.00800000E+00  1.00800000E+00  1.60000000E+01
  1.00800000E+00  1.00800000E+00  1.60000000E+01  1.00800000E+00  1.00800000E+00
  1.60000000E+01  1.00800000E+00  1.00800000E+00  1.60000000E+01  1.00800000E+00
  1.00800000E+00  1.60000000E+01  1.00800000E+00  1.00800000E+00  1.60000000E+01
  1.00800000E+00  1.00800000E+00  1.60000000E+01  1.00800000E+00  1.00800000E+00
  1.60000000E+01  1.00800000E+00  1.00800000E+00  1.60000000E+01  1.00800000E+00
  1.00800000E+00  1.60000000E+01  1.00800000E+00  1.00800000E+00  1.60000000E+01
  1.00800000E+00  1.00800000E+00  1.60000000E+01  1.00800000E+00  1.00800000E+00
  1.60000000E+01  1.00800000E+00  1.00800000E+00  1.60000000E+01  1.00800000E+00
  1.00800000E+00  1.60000000E+01  1.00800000E+00  1.00800000E+00  1.60000000E+01
  1.00800000E+00  1.00800000E+00  1.60000000E+01  1.00800000E+00  1.00800000E+00
  1.60000000E+01  1.00800000E+00  1.00800000E+00  1.60000000E+01  1.00800000E+00
  1.00800000E+00  1.60000000E+01  1.00800000E+00  1.00800000E+00  1.60000000E+01
  1.00800000E+00  1.00800000E+00  1.60000000E+01  1.00800000E+00  1.00800000E+00
  1.60000000E+01  1.00800000E+00  1.00800000E+00  1.60000000E+01  1.00800000E+00
  1.00800000E+00  1.60000000E+01  1.00800000E+00  1.00800000E+00  1.60000000E+01
  1.00800000E+00  1.00800000E+00  1.60000000E+01  1.00800000E+00  1.00800000E+00
  1.60000000E+01  1.00800000E+00  1.00800000E+00  1.60000000E+01  1.00800000E+00
  1.00800000E+00  1.60000000E+01  1.00800000E+00  1.00800000E+00  1.60000000E+01
  1.00800000E+00  1.00800000E+00  1.60000000E+01  1.00800000E+00  1.00800000E+00
  1.60000000E+01  1.00800000E+00  1.00800000E+00  1.60000000E+01  1.00800000E+00
  1.00800000E+00  1.60000000E+01  1.00800000E+00  1.00800000E+00  1.60000000E+01
  1.00800000E+00  1.00800000E+00  1.60000000E+01  1.00800000E+00  1.00800000E+00
  1.60000000E+01  1.00800000E+00  1.00800000E+00  1.60000000E+01  1.00800000E+00
  1.00800000E+00  1.60000000E+01  1.00800000E+00  1.00800000E+00  1.60000000E+01
  1.00800000E+00  1.00800000E+00  1.60000000E+01  1.00800000E+00  1.00800000E+00
  1.60000000E+01  1.00800000E+00  1.00800000E+00  1.60000000E+01  1.00800000E+00
  1.00800000E+00  1.60000000E+01  1.00800000E+00  1.00800000E+00  1.60000000E+01
  1.00800000E+00  1.00800000E+00  1.60000000E+01  1.00800000E+00  1.00800000E+00
  1.60000000E+01  1.00800000E+00  1.00800000E+00  1.60000000E+01  1.00800000E+00
  1.00800000E+00  1.60000000E+01  1.00800000E+00  1.00800000E+00  1.60000000E+01
  1.00800000E+00  1.00800000E+00  1.60000000E+01  1.00800000E+00  1.00800000E+00
  1.60000000E+01  1.00800000E+00  1.00800000E+00  1.60000000E+01  1.00800000E+00
  1.00800000E+00  1.60000000E+01  1.00800000E+00  1.00800000E+00  1.60000000E+01
  1.00800000E+00  1.00800000E+00  1.60000000E+01  1.00800000E+00  1.00800000E+00
  1.60000000E+01  1.00800000E+00  1.00800000E+00  1.60000000E+01  1.00800000E+00
  1.00800000E+00  1.60000000E+01  1.00800000E+00  1.00800000E+00  1.60000000E+01
  1.00800000E+00  1.00800000E+00  1.60000000E+01  1.00800000E+00  1.00800000E+00
  1.60000000E+01  1.00800000E+00  1.00800000E+00  1.60000000E+01  1.00800000E+00
  1.00800000E+00  1.60000000E+01  1.00800000E+00  1.00800000E+00  1.60000000E+01
  1.00800000E+00  1.00800000E+00  1.60000000E+01  1.00800000E+00  1.00800000E+00
  1.60000000E+01  1.00800000E+00  1.00800000E+00  1.60000000E+01  1.00800000E+00
  1.00800000E+00  1.60000000E+01  1.00800000E+00  1.00800000E+00  1.60000000E+01
  1.00800000E+00  1.00800000E+00  1.60000000E+01  1.00800000E+00  1.00800000E+00
  1.60000000E+01  1.00800000E+00  1.00800000E+00  1.60000000E+01  1.00800000E+00
  1.00800000E+00  1.60000000E+01  1.00800000E+00  1.00800000E+00  1.60000000E+01
  1.00800000E+00  1.00800000E+00  1.60000000E+01  1.00800000E+00  1.00800000E+00
  1.60000000E+01  1.00800000E+00  1.00800000E+00  1.60000000E+01  1.00800000E+00
  1.00800000E+00  1.60000000E+01  1.00800000E+00  1.00800000E+00  1.60000000E+01
  1.00800000E+00  1.00800000E+00  1.60000000E+01  1.00800000E+00  1.00800000E+00
  1.60000000E+01  1.00800000E+00  1.00800000E+00  1.60000000E+01  1.00800000E+00
  1.00800000E+00  1.60000000E+01  1.00800000E+00  1.00800000E+00  1.60000000E+01
  1.00800000E+00  1.00800000E+00  1.60000000E+01  1.00800000E+00  1.00800000E+00
  1.60000000E+01  1.00800000E+00  1.00800000E+00  1.60000000E+01  1.00800000E+00
  1.00800000E+00  1.60000000E+01  1.00800000E+00  1.00800000E+00  1.60000000E+01
  1.00800000E+00  1.00800000E+00  1.60000000E+01  1.00800000E+00  1.00800000E+00
  1.60000000E+01  1.00800000E+00  1.00800000E+00  1.60000000E+01  1.00800000E+00
  1.00800000E+00  1.60000000E+01  1.00800000E+00  1.00800000E+00  1.60000000E+01
  1.00800000E+00  1.00800000E+00  1.60000000E+01  1.00800000E+00  1.00800000E+00
  1.60000000E+01  1.00800000E+00  1.00800000E+00  1.60000000E+01  1.00800000E+00
  1.00800000E+00  1.60000000E+01  1.00800000E+00  1.00800000E+00  1.60000000E+01
  1.00800000E+00  1.00800000E+00  1.60000000E+01  1.00800000E+00  1.00800000E+00
  1.60000000E+01  1.00800000E+00  1.00800000E+00  1.60000000E+01  1.00800000E+00
  1.00800000E+00  1.60000000E+01  1.00800000E+00  1.00800000E+00  1.60000000E+01
  1.00800000E+00  1.00800000E+00  1.60000000E+01  1.00800000E+00  1.00800000E+00
  1.60000000E+01  1.00800000E+00  1.00800000E+00  1.60000000E+01  1.00800000E+00
  1.00800000E+00  1.60000000E+01  1.00800000E+00  1.00800000E+00  1.60000000E+01
  1.00800000E+00  1.00800000E+00  1.60000000E+01  1.00800000E+00  1.00800000E+00
  1.60000000E+01  1.00800000E+00  1.00800000E+00  1.60000000E+01  1.00800000E+00
  1.00800000E+00  1.60000000E+01  1.00800000E+00  1.00800000E+00  1.60000000E+01
  1.00800000E+00  1.00800000E+00  1.60000000E+01  1.00800000E+00  1.00800000E+00
  1.60000000E+01  1.00800000E+00  1.00800000E+00  1.60000000E+01  1.00800000E+00
  1.00800000E+00  1.60000000E+01  1.00800000E+00  1.00800000E+00  1.60000000E+01
  1.00800000E+00  1.00800000E+00  1.60000000E+01  1.00800000E+00  1.00800000E+00
  1.60000000E+01  1.00800000E+00  1.00800000E+00  1.60000000E+01  1.00800000E+00
  1.00800000E+00  1.60000000E+01  1.00800000E+00  1.00800000E+00  1.60000000E+01
  1.00800000E+00  1.00800000E+00  1.60000000E+01  1.00800000E+00  1.00800000E+00
  1.60000000E+01  1.00800000E+00  1.00800000E+00  1.60000000E+01  1.00800000E+00
  1.00800000E+00  1.60000000E+01  1.00800000E+00  1.00800000E+00  1.60000000E+01
  1.00800000E+00  1.00800000E+00  1.60000000E+01  1.00800000E+00  1.00800000E+00
  1.60000000E+01  1.00800000E+00  1.00800000E+00  1.60000000E+01  1.00800000E+00
  1.00800000E+00  1.60000000E+01  1.00800000E+00  1.00800000E+00  1.60000000E+01
  1.00800000E+00  1.00800000E+00  1.60000000E+01  1.00800000E+00  1.00800000E+00
  1.60000000E+01  1.00800000E+00  1.00800000E+00  1.60000000E+01  1.00800000E+00
  1.00800000E+00  1.60000000E+01  1.00800000E+00  1.00800000E+00  1.60000000E+01
  1.00800000E+00  1.00800000E+00  1.60000000E+01  1.00800000E+00  1.00800000E+00
  1.60000000E+01  1.00800000E+00  1.00800000E+00  1.60000000E+01  1.00800000E+00
  1.00800000E+00  1.60000000E+01  1.00800000E+00  1.00800000E+00  1.60000000E+01
  1.00800000E+00  1.00800000E+00  1.60000000E+01  1.00800000E+00  1.00800000E+00
  1.60000000E+01  1.00800000E+00  1.00800000E+00  1.60000000E+01  1.00800000E+00
  1.00800000E+00  1.60000000E+01  1.00800000E+00  1.00800000E+00  1.60000000E+01
  1.00800000E+00  1.00800000E+00  1.60000000E+01  1.00800000E+00  1.00800000E+00
  1.60000000E+01  1.00800000E+00  1.00800000E+00  1.60000000E+01  1.00800000E+00
  1.00800000E+00  1.60000000E+01  1.00800000E+00  1.00800000E+00  1.60000000E+01
  1.00800000E+00  1.00800000E+00  1.60000000E+01  1.00800000E+00  1.00800000E+00
  1.60000000E+01  1.00800000E+00  1.00800000E+00  1.60000000E+01  1.00800000E+00
  1.00800000E+00  1.60000000E+01  1.00800000E+00  1.00800000E+00  1.60000000E+01
  1.00800000E+00  1.00800000E+00  1.60000000E+01  1.00800000E+00  1.00800000E+00
  1.60000000E+01  1.00800000E+00  1.00800000E+00  1.60000000E+01  1.00800000E+00
  1.00800000E+00  1.60000000E+01  1.00800000E+00  1.00800000E+00  1.60000000E+01
  1.00800000E+00  1.00800000E+00  1.60000000E+01  1.00800000E+00  1.00800000E+00
  1.60000000E+01  1.00800000E+00  1.00800000E+00  1.60000000E+01  1.00800000E+00
  1.00800000E+00  1.60000000E+01  1.00800000E+00  1.00800000E+00  1.60000000E+01
  1.00800000E+00  1.00800000E+00  1.60000000E+01  1.00800000E+00  1.00800000E+00
  1.60000000E+01  1.00800000E+00  1.00800000E+00  1.60000000E+01  1.00800000E+00
  1.00800000E+00  1.60000000E+01  1.00800000E+00  1.00800000E+00  1.60000000E+01
  1.00800000E+00  1.00800000E+00  1.60000000E+01  1.00800000E+00  1.00800000E+00
  1.60000000E+01  1.00800000E+00  1.00800000E+00  1.60000000E+01  1.00800000E+00
  1.00800000E+00  1.60000000E+01  1.00800000E+00  1.00800000E+00  1.60000000E+01
  1.00800000E+00  1.00800000E+00  1.60000000E+01  1.00800000E+00  1.00800000E+00
  1.60000000E+01  1.00800000E+00  1.00800000E+00  1.60000000E+01  1.00800000E+00
  1.00800000E+00  1.60000000E+01  1.00800000E+00  1.00800000E+00  1.60000000E+01
  1.00800000E+00  1.00800000E+00  1.60000000E+01  1.00800000E+00  1.00800000E+00
  1.60000000E+01  1.00800000E+00  1.00800000E+00  1.60000000E+01  1.00800000E+00
  1.00800000E+00  1.60000000E+01  1.00800000E+00  1.00800000E+00  1.60000000E+01
  1.00800000E+00  1.00800000E+00  1.60000000E+01  1.00800000E+00  1.00800000E+00
  1.60000000E+01  1.00800000E+00  1.00800000E+00  1.60000000E+01  1.00800000E+00
  1.00800000E+00  1.60000000E+01  1.00800000E+00  1.00800000E+00  1.60000000E+01
  1.00800000E+00  1.00800000E+00  1.60000000E+01  1.00800000E+00  1.00800000E+00
  1.60000000E+01  1.00800000E+00  1.00800000E+00  1.60000000E+01  1.00800000E+00
  1.00800000E+00  1.60000000E+01  1.00800000E+00  1.00800000E+00  1.60000000E+01
  1.00800000E+00  1.00800000E+00  1.60000000E+01  1.00800000E+00  1.00800000E+00
  1.60000000E+01  1.00800000E+00  1.00800000E+00  1.60000000E+01  1.00800000E+00
  1.00800000E+00  1.60000000E+01  1.00800000E+00  1.00800000E+00  1.60000000E+01
  1.00800000E+00  1.00800000E+00  1.60000000E+01  1.00800000E+00  1.00800000E+00
  1.60000000E+01  1.00800000E+00  1.00800000E+00  1.60000000E+01  1.00800000E+00
  1.00800000E+00  1.60000000E+01  1.00800000E+00  1.00800000E+00  1.60000000E+01
  1.00800000E+00  1.00800000E+00  1.60000000E+01  1.00800000E+00  1.00800000E+00
  1.60000000E+01  1.00800000E+00  1.00800000E+00  1.60000000E+01  1.00800000E+00
  1.00800000E+00  1.60000000E+01  1.00800000E+00  1.00800000E+00  1.60000000E+01
  1.00800000E+00  1.00800000E+00  1.60000000E+01  1.00800000E+00  1.00800000E+00
  1.60000000E+01  1.00800000E+00  1.00800000E+00  1.60000000E+01  1.00800000E+00
  1.00800000E+00  1.60000000E+01  1.00800000E+00  1.00800000E+00  1.60000000E+01
  1.00800000E+00  1.00800000E+00  1.60000000E+01  1.00800000E+00  1.00800000E+00
  1.60000000E+01  1.00800000E+00  1.00800000E+00  1.60000000E+01  1.00800000E+00
  1.00800000E+00  1.60000000E+01  1.00800000E+00  1.00800000E+00  1.60000000E+01
  1.00800000E+00  1.00800000E+00  1.60000000E+01  1.00800000E+00  1.00800000E+00
  1.60000000E+01  1.00800000E+00  1.00800000E+00  1.60000000E+01  1.00800000E+00
  1.00800000E+00  1.60000000E+01  1.00800000E+00  1.00800000E+00  1.60000000E+01
  1.00800000E+00  1.00800000E+00  1.60000000E+01  1.00800000E+00  1.00800000E+00
  1.60000000E+01  1.00800000E+00  1.00800000E+00  1.60000000E+01  1.00800000E+00
  1.00800000E+00  1.60000000E+01  1.00800000E+00  1.00800000E+00  1.60000000E+01
  1.00800000E+00  1.00800000E+00  1.60000000E+01  1.00800000E+00  1.00800000E+00
  1.60000000E+01  1.00800000E+00  1.00800000E+00  1.60000000E+01  1.00800000E+00
  1.00800000E+00  1.60000000E+01  1.00800000E+00  1.00800000E+00  1.60000000E+01
  1.00800000E+00  1.00800000E+00  1.60000000E+01  1.00800000E+00  1.00800000E+00
  1.60000000E+01  1.00800000E+00  1.00800000E+00  1.60000000E+01  1.00800000E+00
  1.00800000E+00  1.60000000E+01  1.00800000E+00  1.00800000E+00  1.60000000E+01
  1.00800000E+00  1.00800000E+00  1.60000000E+01  1.00800000E+00  1.00800000E+00
  1.60000000E+01  1.00800000E+00  1.00800000E+00  1.60000000E+01  1.00800000E+00
  1.00800000E+00  1.60000000E+01  1.00800000E+00  1.00800000E+00  1.60000000E+01
  1.00800000E+00  1.00800000E+00  1.60000000E+01  1.00800000E+00  1.00800000E+00
  1.60000000E+01  1.00800000E+00  1.00800000E+00  1.60000000E+01  1.00800000E+00
  1.00800000E+00  1.60000000E+01  1.00800000E+00  1.00800000E+00  1.60000000E+01
  1.00800000E+00  1.00800000E+00  1.60000000E+01  1.00800000E+00  1.00800000E+00
  1.60000000E+01  1.00800000E+00  1.00800000E+00  1.60000000E+01  1.00800000E+00
  1.00800000E+00  1.60000000E+01  1.00800000E+00  1.00800000E+00  1.60000000E+01
  1.00800000E+00  1.00800000E+00  1.60000000E+01  1.00800000E+00  1.00800000E+00
  1.60000000E+01  1.00800000E+00  1.00800000E+00  1.60000000E+01  1.00800000E+00
  1.00800000E+00  1.60000000E+01  1.00800000E+00  1.00800000E+00  1.60000000E+01
  1.00800000E+00  1.00800000E+00  1.60000000E+01  1.00800000E+00  1.00800000E+00
  1.60000000E+01  1.00800000E+00  1.00800000E+00  1.60000000E+01  1.00800000E+00
  1.00800000E+00  1.60000000E+01  1.00800000E+00  1.00800000E+00  1.60000000E+01
  1.00800000E+00  1.00800000E+00  1.60000000E+01  1.00800000E+00  1.00800000E+00
  1.60000000E+01  1.00800000E+00  1.00800000E+00  1.60000000E+01  1.00800000E+00
  1.00800000E+00  1.60000000E+01  1.00800000E+00  1.00800000E+00  1.60000000E+01
  1.00800000E+00  1.00800000E+00  1.60000000E+01  1.00800000E+00  1.00800000E+00
  1.60000000E+01  1.00800000E+00  1.00800000E+00  1.60000000E+01  1.00800000E+00
  1.00800000E+00  1.60000000E+01  1.00800000E+00  1.00800000E+00  1.60000000E+01
  1.00800000E+00  1.00800000E+00  1.60000000E+01  1.00800000E+00  1.00800000E+00
  1.60000000E+01  1.00800000E+00  1.00800000E+00  1.60000000E+01  1.00800000E+00
  1.00800000E+00  1.60000000E+01  1.00800000E+00  1.00800000E+00  1.60000000E+01
  1.00800000E+00  1.00800000E+00  1.60000000E+01  1.00800000E+00  1.00800000E+00
  1.60000000E+01  1.00800000E+00  1.00800000E+00  1.60000000E+01  1.00800000E+00
  1.00800000E+00  1.60000000E+01  1.00800000E+00  1.00800000E+00  1.60000000E+01
  1.00800000E+00  1.00800000E+00  1.60000000E+01  1.00800000E+00  1.00800000E+00
  1.60000000E+01  1.00800000E+00  1.00800000E+00  1.60000000E+01  1.00800000E+00
  1.00800000E+00  1.60000000E+01  1.00800000E+00  1.00800000E+00  1.60000000E+01
  1.00800000E+00  1.00800000E+00  1.60000000E+01  1.00800000E+00  1.00800000E+00
  1.60000000E+01  1.00800000E+00  1.00800000E+00  1.60000000E+01  1.00800000E+00
  1.00800000E+00  1.60000000E+01  1.00800000E+00  1.00800000E+00  1.60000000E+01
  1.00800000E+00  1.00800000E+00  1.60000000E+01  1.00800000E+00  1.00800000E+00
  1.60000000E+01  1.00800000E+00  1.00800000E+00  1.60000000E+01  1.00800000E+00
  1.00800000E+00  1.60000000E+01  1.00800000E+00  1.00800000E+00  1.60000000E+01
  1.00800000E+00  1.00800000E+00  1.60000000E+01  1.00800000E+00  1.00800000E+00
  1.60000000E+01  1.00800000E+00  1.00800000E+00  1.60000000E+01  1.00800000E+00
  1.00800000E+00  1.60000000E+01  1.00800000E+00  1.00800000E+00  1.60000000E+01
  1.00800000E+00  1.00800000E+00  1.60000000E+01  1.00800000E+00  1.00800000E+00
  1.60000000E+01  1.00800000E+00  1.00800000E+00  1.60000000E+01  1.00800000E+00
  1.00800000E+00  1.60000000E+01  1.00800000E+00  1.00800000E+00  1.60000000E+01
  1.00800000E+00  1.00800000E+00  1.60000000E+01  1.00800000E+00  1.00800000E+00
  1.60000000E+01  1.00800000E+00  1.00800000E+00  1.60000000E+01  1.00800000E+00
  1.00800000E+00  1.60000000E+01  1.00800000E+00  1.00800000E+00  1.60000000E+01
  1.00800000E+00  1.00800000E+00  1.60000000E+01  1.00800000E+00  1.00800000E+00
  1.60000000E+01  1.00800000E+00  1.00800000E+00  1.60000000E+01  1.00800000E+00
  1.00800000E+00  1.60000000E+01  1.00800000E+00  1.00800000E+00  1.60000000E+01
  1.00800000E+00  1.00800000E+00  1.60000000E+01  1.00800000E+00  1.00800000E+00
  1.60000000E+01  1.00800000E+00  1.00800000E+00  1.60000000E+01  1.00800000E+00
  1.00800000E+00  1.60000000E+01  1.00800000E+00  1.00800000E+00  1.60000000E+01
  1.00800000E+00  1.00800000E+00  1.60000000E+01  1.00800000E+00  1.00800000E+00
  1.60000000E+01  1.00800000E+00  1.00800000E+00  1.60000000E+01  1.00800000E+00
  1.00800000E+00  1.60000000E+01  1.00800000E+00  1.00800000E+00  1.60000000E+01
  1.00800000E+00  1.00800000E+00  1.60000000E+01  1.00800000E+00  1.00800000E+00
  1.60000000E+01  1.00800000E+00  1.00800000E+00  1.60000000E+01  1.00800000E+00
  1.00800000E+00  1.60000000E+01  1.00800000E+00  1.00800000E+00  1.60000000E+01
  1.00800000E+00  1.00800000E+00  1.60000000E+01  1.00800000E+00  1.00800000E+00
  1.60000000E+01  1.00800000E+00  1.00800000E+00  1.60000000E+01  1.00800000E+00
  1.00800000E+00  1.60000000E+01  1.00800000E+00  1.00800000E+00  1.60000000E+01
  1.00800000E+00  1.00800000E+00  1.60000000E+01  1.00800000E+00  1.00800000E+00
  1.60000000E+01  1.00800000E+00  1.00800000E+00  1.60000000E+01  1.00800000E+00
  1.00800000E+00  1.60000000E+01  1.00800000E+00  1.00800000E+00  1.60000000E+01
  1.00800000E+00  1.00800000E+00  1.60000000E+01  1.00800000E+00  1.00800000E+00
  1.60000000E+01  1.00800000E+00  1.00800000E+00  1.60000000E+01  1.00800000E+00
  1.00800000E+00  1.60000000E+01  1.00800000E+00  1.00800000E+00  1.60000000E+01
  1.00800000E+00  1.00800000E+00  1.60000000E+01  1.00800000E+00  1.00800000E+00
  1.60000000E+01  1.00800000E+00  1.00800000E+00  1.60000000E+01  1.00800000E+00
  1.00800000E+00  1.60000000E+01  1.00800000E+00  1.00800000E+00  1.60000000E+01
  1.00800000E+00  1.00800000E+00  1.60000000E+01  1.00800000E+00  1.00800000E+00
  1.60000000E+01  1.00800000E+00  1.00800000E+00  1.60000000E+01  1.00800000E+00
  1.00800000E+00  1.60000000E+01  1.00800000E+00  1.00800000E+00  1.60000000E+01
  1.00800000E+00  1.00800000E+00  1.60000000E+01  1.00800000E+00  1.00800000E+00
  1.60000000E+01  1.00800000E+00  1.00800000E+00  1.60000000E+01  1.00800000E+00
  1.00800000E+00  1.60000000E+01  1.00800000E+00  1.00800000E+00  1.60000000E+01
  1.00800000E+00  1.00800000E+00  1.60000000E+01  1.00800000E+00  1.00800000E+00
  1.60000000E+01  1.00800000E+00  1.00800000E+00  1.60000000E+01  1.00800000E+00
  1.00800000E+00  1.60000000E+01  1.00800000E+00  1.00800000E+00  1.60000000E+01
  1.00800000E+00  1.00800000E+00  1.60000000E+01  1.00800000E+00  1.00800000E+00
  1.60000000E+01  1.00800000E+00  1.00800000E+00  1.60000000E+01  1.00800000E+00
  1.00800000E+00  1.60000000E+01  1.00800000E+00  1.00800000E+00  1.60000000E+01
  1.00800000E+00  1.00800000E+00  1.60000000E+01  1.00800000E+00  1.00800000E+00
  1.60000000E+01  1.00800000E+00  1.00800000E+00  1.60000000E+01  1.00800000E+00
  1.00800000E+00  1.60000000E+01  1.00800000E+00  1.00800000E+00  1.60000000E+01
  1.00800000E+00  1.00800000E+00  1.60000000E+01  1.00800000E+00  1.00800000E+00
  1.60000000E+01  1.00800000E+00  1.00800000E+00  1.60000000E+01  1.00800000E+00
  1.00800000E+00  1.60000000E+01  1.00800000E+00  1.00800000E+00  1.60000000E+01
  1.00800000E+00  1.00800000E+00  1.60000000E+01  1.00800000E+00  1.00800000E+00
  1.60000000E+01  1.00800000E+00  1.00800000E+00  1.60000000E+01  1.00800000E+00
  1.00800000E+00  1.60000000E+01  1.00800000E+00  1.00800000E+00  1.60000000E+01
  1.00800000E+00  1.00800000E+00  1.60000000E+01  1.00800000E+00  1.00800000E+00
  1.60000000E+01  1.00800000E+00  1.00800000E+00  1.60000000E+01  1.00800000E+00
  1.00800000E+00  1.60000000E+01  1.00800000E+00  1.00800000E+00  1.60000000E+01
  1.00800000E+00  1.00800000E+00  1.60000000E+01  1.00800000E+00  1.00800000E+00
  1.60000000E+01  1.00800000E+00  1.00800000E+00  1.60000000E+01  1.00800000E+00
  1.00800000E+00  1.60000000E+01  1.00800000E+00  1.00800000E+00  1.60000000E+01
  1.00800000E+00  1.00800000E+00  1.60000000E+01  1.00800000E+00  1.00800000E+00
  1.60000000E+01  1.00800000E+00  1.00800000E+00  1.60000000E+01  1.00800000E+00
  1.00800000E+00  1.60000000E+01  1.00800000E+00  1.00800000E+00  1.60000000E+01
  1.00800000E+00  1.00800000E+00  1.60000000E+01  1.00800000E+00  1.00800000E+00
  1.60000000E+01  1.00800000E+00  1.00800000E+00  1.60000000E+01  1.00800000E+00
  1.00800000E+00  1.60000000E+01  1.00800000E+00  1.00800000E+00  1.60000000E+01
  1.00800000E+00  1.00800000E+00  1.60000000E+01  1.00800000E+00  1.00800000E+00
  1.60000000E+01  1.00800000E+00  1.00800000E+00  1.60000000E+01  1.00800000E+00
  1.00800000E+00  1.60000000E+01  1.00800000E+00  1.00800000E+00  1.60000000E+01
  1.00800000E+00  1.00800000E+00  1.60000000E+01  1.00800000E+00  1.00800000E+00
  1.60000000E+01  1.00800000E+00  1.00800000E+00  1.60000000E+01  1.00800000E+00
  1.00800000E+00  1.60000000E+01  1.00800000E+00  1.00800000E+00  1.60000000E+01
  1.00800000E+00  1.00800000E+00  1.60000000E+01  1.00800000E+00  1.00800000E+00
  1.60000000E+01  1.00800000E+00  1.00800000E+00  1.60000000E+01  1.00800000E+00
  1.00800000E+00  1.60000000E+01  1.00800000E+00  1.00800000E+00  1.60000000E+01
  1.00800000E+00  1.00800000E+00  1.60000000E+01  1.00800000E+00  1.00800000E+00
  1.60000000E+01  1.00800000E+00  1.00800000E+00  1.60000000E+01  1.00800000E+00
  1.00800000E+00  1.60000000E+01  1.00800000E+00  1.00800000E+00  1.60000000E+01
  1.00800000E+00  1.00800000E+00  1.60000000E+01  1.00800000E+00  1.00800000E+00
  1.60000000E+01  1.00800000E+00  1.00800000E+00  1.60000000E+01  1.00800000E+00
  1.00800000E+00  1.60000000E+01  1.00800000E+00  1.00800000E+00  1.60000000E+01
  1.00800000E+00  1.00800000E+00  1.60000000E+01  1.00800000E+00  1.00800000E+00
  1.60000000E+01  1.00800000E+00  1.00800000E+00  1.60000000E+01  1.00800000E+00
  1.00800000E+00  1.60000000E+01  1.00800000E+00  1.00800000E+00  1.60000000E+01
  1.00800000E+00  1.00800000E+00  1.60000000E+01  1.00800000E+00  1.00800000E+00
  1.60000000E+01  1.00800000E+00  1.00800000E+00  1.60000000E+01  1.00800000E+00
  1.00800000E+00  1.60000000E+01  1.00800000E+00  1.00800000E+00  1.60000000E+01
  1.00800000E+00  1.00800000E+00  1.60000000E+01  1.00800000E+00  1.00800000E+00
  1.60000000E+01  1.00800000E+00  1.00800000E+00  1.60000000E+01  1.00800000E+00
  1.00800000E+00  1.60000000E+01  1.00800000E+00  1.00800000E+00  1.60000000E+01
  1.00800000E+00  1.00800000E+00  1.60000000E+01  1.00800000E+00  1.00800000E+00
  1.60000000E+01  1.00800000E+00  1.00800000E+00  1.60000000E+01  1.00800000E+00
  1.00800000E+00  1.60000000E+01  1.00800000E+00  1.00800000E+00  1.60000000E+01
  1.00800000E+00  1.00800000E+00  1.60000000E+01  1.00800000E+00  1.00800000E+00
  1.60000000E+01  1.00800000E+00  1.00800000E+00  1.60000000E+01  1.00800000E+00
  1.00800000E+00  1.60000000E+01  1.00800000E+00  1.00800000E+00  1.60000000E+01
  1.00800000E+00  1.00800000E+00  1.60000000E+01  1.00800000E+00  1.00800000E+00
  1.60000000E+01  1.00800000E+00  1.00800000E+00  1.60000000E+01  1.00800000E+00
  1.00800000E+00  1.60000000E+01  1.00800000E+00  1.00800000E+00  1.60000000E+01
  1.00800000E+00  1.00800000E+00  1.60000000E+01  1.00800000E+00  1.00800000E+00
  1.60000000E+01  1.00800000E+00  1.00800000E+00  1.60000000E+01  1.00800000E+00
  1.00800000E+00  1.60000000E+01  1.00800000E+00  1.00800000E+00  1.60000000E+01
  1.00800000E+00  1.00800000E+00  1.60000000E+01  1.00800000E+00  1.00800000E+00
  1.60000000E+01  1.00800000E+00  1.00800000E+00  1.60000000E+01  1.00800000E+00
  1.00800000E+00  1.60000000E+01  1.00800000E+00  1.00800000E+00  1.60000000E+01
  1.00800000E+00  1.00800000E+00  1.60000000E+01  1.00800000E+00  1.00800000E+00
  1.60000000E+01  1.00800000E+00  1.00800000E+00  1.60000000E+01  1.00800000E+00
  1.00800000E+00  1.60000000E+01  1.00800000E+00  1.00800000E+00  1.60000000E+01
  1.00800000E+00  1.00800000E+00  1.60000000E+01  1.00800000E+00  1.00800000E+00
  1.60000000E+01  1.00800000E+00  1.00800000E+00  1.60000000E+01  1.00800000E+00
  1.00800000E+00  1.60000000E+01  1.00800000E+00  1.00800000E+00  1.60000000E+01
  1.00800000E+00  1.00800000E+00  1.60000000E+01  1.00800000E+00  1.00800000E+00
  1.60000000E+01  1.00800000E+00  1.00800000E+00  1.60000000E+01  1.00800000E+00
  1.00800000E+00  1.60000000E+01  1.00800000E+00  1.00800000E+00  1.60000000E+01
  1.00800000E+00  1.00800000E+00  1.60000000E+01  1.00800000E+00  1.00800000E+00
  1.60000000E+01  1.00800000E+00  1.00800000E+00  1.60000000E+01  1.00800000E+00
  1.00800000E+00  1.60000000E+01  1.00800000E+00  1.00800000E+00  1.60000000E+01
  1.00800000E+00  1.00800000E+00  1.60000000E+01  1.00800000E+00  1.00800000E+00
  1.60000000E+01  1.00800000E+00  1.00800000E+00  1.60000000E+01  1.00800000E+00
  1.00800000E+00  1.60000000E+01  1.00800000E+00  1.00800000E+00  1.60000000E+01
  1.00800000E+00  1.00800000E+00  1.60000000E+01  1.00800000E+00  1.00800000E+00
  1.60000000E+01  1.00800000E+00  1.00800000E+00  1.60000000E+01  1.00800000E+00
  1.00800000E+00  1.60000000E+01  1.00800000E+00  1.00800000E+00  1.60000000E+01
  1.00800000E+00  1.00800000E+00  1.60000000E+01  1.00800000E+00  1.00800000E+00
  1.60000000E+01  1.00800000E+00  1.00800000E+00  1.60000000E+01  1.00800000E+00
  1.00800000E+00  1.60000000E+01  1.00800000E+00  1.00800000E+00  1.60000000E+01
  1.00800000E+00  1.00800000E+00  1.60000000E+01  1.00800000E+00  1.00800000E+00
  1.60000000E+01  1.00800000E+00  1.00800000E+00  1.60000000E+01  1.00800000E+00
  1.00800000E+00  1.60000000E+01  1.00800000E+00  1.00800000E+00  1.60000000E+01
  1.00800000E+00  1.00800000E+00  1.60000000E+01  1.00800000E+00  1.00800000E+00
  1.60000000E+01  1.00800000E+00  1.00800000E+00  1.60000000E+01  1.00800000E+00
  1.00800000E+00  1.60000000E+01  1.00800000E+00  1.00800000E+00  1.60000000E+01
  1.00800000E+00  1.00800000E+00  1.60000000E+01  1.00800000E+00  1.00800000E+00
  1.60000000E+01  1.00800000E+00  1.00800000E+00  1.60000000E+01  1.00800000E+00
  1.00800000E+00  1.60000000E+01  1.00800000E+00  1.00800000E+00  1.60000000E+01
  1.00800000E+00  1.00800000E+00  1.60000000E+01  1.00800000E+00  1.00800000E+00
  1.60000000E+01  1.00800000E+00  1.00800000E+00  1.60000000E+01  1.00800000E+00
  1.00800000E+00  1.60000000E+01  1.00800000E+00  1.00800000E+00  1.60000000E+01
  1.00800000E+00  1.00800000E+00  1.60000000E+01  1.00800000E+00  1.00800000E+00
  1.60000000E+01  1.00800000E+00  1.00800000E+00  1.60000000E+01  1.00800000E+00
  1.00800000E+00  1.60000000E+01  1.00800000E+00  1.00800000E+00  1.60000000E+01
  1.00800000E+00  1.00800000E+00  1.60000000E+01  1.00800000E+00  1.00800000E+00
  1.60000000E+01  1.00800000E+00  1.00800000E+00  1.60000000E+01  1.00800000E+00
  1.00800000E+00  1.60000000E+01  1.00800000E+00  1.00800000E+00  1.60000000E+01
  1.00800000E+00  1.00800000E+00  1.60000000E+01  1.00800000E+00  1.00800000E+00
  1.60000000E+01  1.00800000E+00  1.00800000E+00  1.60000000E+01  1.00800000E+00
  1.00800000E+00  1.60000000E+01  1.00800000E+00  1.00800000E+00  1.60000000E+01
  1.00800000E+00  1.00800000E+00  1.60000000E+01  1.00800000E+00  1.00800000E+00
  1.60000000E+01  1.00800000E+00  1.00800000E+00  1.60000000E+01  1.00800000E+00
  1.00800000E+00  1.60000000E+01  1.00800000E+00  1.00800000E+00  1.60000000E+01
  1.00800000E+00  1.00800000E+00  1.60000000E+01  1.00800000E+00  1.00800000E+00
  1.60000000E+01  1.00800000E+00  1.00800000E+00  1.60000000E+01  1.00800000E+00
  1.00800000E+00  1.60000000E+01  1.00800000E+00  1.00800000E+00  1.60000000E+01
  1.00800000E+00  1.00800000E+00  1.60000000E+01  1.00800000E+00  1.00800000E+00
  1.60000000E+01  1.00800000E+00  1.00800000E+00  1.60000000E+01  1.00800000E+00
  1.00800000E+00  1.60000000E+01  1.00800000E+00  1.00800000E+00  1.60000000E+01
  1.00800000E+00  1.00800000E+00  1.60000000E+01  1.00800000E+00  1.00800000E+00
  1.60000000E+01  1.00800000E+00  1.00800000E+00  1.60000000E+01  1.00800000E+00
  1.00800000E+00  1.60000000E+01  1.00800000E+00  1.00800000E+00  1.60000000E+01
  1.00800000E+00  1.00800000E+00  1.60000000E+01  1.00800000E+00  1.00800000E+00
  1.60000000E+01  1.00800000E+00  1.00800000E+00  1.60000000E+01  1.00800000E+00
  1.00800000E+00  1.60000000E+01  1.00800000E+00  1.00800000E+00  1.60000000E+01
  1.00800000E+00  1.00800000E+00  1.60000000E+01  1.00800000E+00  1.00800000E+00
  1.60000000E+01  1.00800000E+00  1.00800000E+00  1.60000000E+01  1.00800000E+00
  1.00800000E+00  1.60000000E+01  1.00800000E+00  1.00800000E+00  1.60000000E+01
  1.00800000E+00  1.00800000E+00  1.60000000E+01  1.00800000E+00  1.00800000E+00
  1.60000000E+01  1.00800000E+00  1.00800000E+00  1.60000000E+01  1.00800000E+00
  1.00800000E+00  1.60000000E+01  1.00800000E+00  1.00800000E+00  1.60000000E+01
  1.00800000E+00  1.00800000E+00  1.60000000E+01  1.00800000E+00  1.00800000E+00
  1.60000000E+01  1.00800000E+00  1.00800000E+00  1.60000000E+01  1.00800000E+00
  1.00800000E+00  1.60000000E+01  1.00800000E+00  1.00800000E+00  1.60000000E+01
  1.00800000E+00  1.00800000E+00  1.60000000E+01  1.00800000E+00  1.00800000E+00
  1.60000000E+01  1.00800000E+00  1.00800000E+00  1.60000000E+01  1.00800000E+00
  1.00800000E+00  1.60000000E+01  1.00800000E+00  1.00800000E+00  1.60000000E+01
  1.00800000E+00  1.00800000E+00  1.60000000E+01  1.00800000E+00  1.00800000E+00
  1.60000000E+01  1.00800000E+00  1.00800000E+00  1.60000000E+01  1.00800000E+00
  1.00800000E+00  1.60000000E+01  1.00800000E+00  1.00800000E+00  1.60000000E+01
  1.00800000E+00  1.00800000E+00  1.60000000E+01  1.00800000E+00  1.00800000E+00
  1.60000000E+01  1.00800000E+00  1.00800000E+00  1.60000000E+01  1.00800000E+00
  1.00800000E+00  1.60000000E+01  1.00800000E+00  1.00800000E+00  1.60000000E+01
  1.00800000E+00  1.00800000E+00  1.60000000E+01  1.00800000E+00  1.00800000E+00
  1.60000000E+01  1.00800000E+00  1.00800000E+00  1.60000000E+01  1.00800000E+00
  1.00800000E+00  1.60000000E+01  1.00800000E+00  1.00800000E+00  1.60000000E+01
  1.00800000E+00  1.00800000E+00  1.60000000E+01  1.00800000E+00  1.00800000E+00
  1.60000000E+01  1.00800000E+00  1.00800000E+00  1.60000000E+01  1.00800000E+00
  1.00800000E+00  1.60000000E+01  1.00800000E+00  1.00800000E+00  1.60000000E+01
  1.00800000E+00  1.00800000E+00  1.60000000E+01  1.00800000E+00  1.00800000E+00
  1.60000000E+01  1.00800000E+00  1.00800000E+00  1.60000000E+01  1.00800000E+00
  1.00800000E+00  1.60000000E+01  1.00800000E+00  1.00800000E+00  1.60000000E+01
  1.00800000E+00  1.00800000E+00  1.60000000E+01  1.00800000E+00  1.00800000E+00
  1.60000000E+01  1.00800000E+00  1.00800000E+00  1.60000000E+01  1.00800000E+00
  1.00800000E+00  1.60000000E+01  1.00800000E+00  1.00800000E+00  1.60000000E+01
  1.00800000E+00  1.00800000E+00  1.60000000E+01  1.00800000E+00  1.00800000E+00
  1.60000000E+01  1.00800000E+00  1.00800000E+00  1.60000000E+01  1.00800000E+00
  1.00800000E+00  1.60000000E+01  1.00800000E+00  1.00800000E+00  1.60000000E+01
  1.00800000E+00  1.00800000E+00  1.60000000E+01  1.00800000E+00  1.00800000E+00
  1.60000000E+01  1.00800000E+00  1.00800000E+00  1.60000000E+01  1.00800000E+00
  1.00800000E+00  1.60000000E+01  1.00800000E+00  1.00800000E+00  1.60000000E+01
  1.00800000E+00  1.00800000E+00  1.60000000E+01  1.00800000E+00  1.00800000E+00
  1.60000000E+01  1.00800000E+00  1.00800000E+00  1.60000000E+01  1.00800000E+00
  1.00800000E+00  1.60000000E+01  1.00800000E+00  1.00800000E+00  1.60000000E+01
  1.00800000E+00  1.00800000E+00  1.60000000E+01  1.00800000E+00  1.00800000E+00
  1.60000000E+01  1.00800000E+00  1.00800000E+00  1.60000000E+01  1.00800000E+00
  1.00800000E+00  1.60000000E+01  1.00800000E+00  1.00800000E+00  1.60000000E+01
  1.00800000E+00  1.00800000E+00  1.60000000E+01  1.00800000E+00  1.00800000E+00
  1.60000000E+01  1.00800000E+00  1.00800000E+00  1.60000000E+01  1.00800000E+00
  1.00800000E+00  1.60000000E+01  1.00800000E+00  1.00800000E+00  1.60000000E+01
  1.00800000E+00  1.00800000E+00  1.60000000E+01  1.00800000E+00  1.00800000E+00
  1.60000000E+01  1.00800000E+00  1.00800000E+00  1.60000000E+01  1.00800000E+00
  1.00800000E+00  1.60000000E+01  1.00800000E+00  1.00800000E+00  1.60000000E+01
  1.00800000E+00  1.00800000E+00  1.60000000E+01  1.00800000E+00  1.00800000E+00
  1.60000000E+01  1.00800000E+00  1.00800000E+00  1.60000000E+01  1.00800000E+00
  1.00800000E+00  1.60000000E+01  1.00800000E+00  1.00800000E+00  1.60000000E+01
  1.00800000E+00  1.00800000E+00  1.60000000E+01  1.00800000E+00  1.00800000E+00
  1.60000000E+01  1.00800000E+00  1.00800000E+00  1.60000000E+01  1.00800000E+00
  1.00800000E+00  1.60000000E+01  1.00800000E+00  1.00800000E+00  1.60000000E+01
  1.00800000E+00  1.00800000E+00  1.60000000E+01  1.00800000E+00  1.00800000E+00
  1.60000000E+01  1.00800000E+00  1.00800000E+00  1.60000000E+01  1.00800000E+00
  1.00800000E+00  1.60000000E+01  1.00800000E+00  1.00800000E+00  1.60000000E+01
  1.00800000E+00  1.00800000E+00  1.60000000E+01  1.00800000E+00  1.00800000E+00
  1.60000000E+01  1.00800000E+00  1.00800000E+00  1.60000000E+01  1.00800000E+00
  1.00800000E+00  1.60000000E+01  1.00800000E+00  1.00800000E+00  1.60000000E+01
  1.00800000E+00  1.00800000E+00  1.60000000E+01  1.00800000E+00  1.00800000E+00
  1.60000000E+01  1.00800000E+00  1.00800000E+00  1.60000000E+01  1.00800000E+00
  1.00800000E+00  1.60000000E+01  1.00800000E+00  1.00800000E+00  1.60000000E+01
  1.00800000E+00  1.00800000E+00  1.60000000E+01  1.00800000E+00  1.00800000E+00
  1.60000000E+01  1.00800000E+00  1.00800000E+00  1.60000000E+01  1.00800000E+00
  1.00800000E+00  1.60000000E+01  1.00800000E+00  1.00800000E+00  1.60000000E+01
  1.00800000E+00  1.00800000E+00  1.60000000E+01  1.00800000E+00  1.00800000E+00
  1.60000000E+01  1.00800000E+00  1.00800000E+00  1.60000000E+01  1.00800000E+00
  1.00800000E+00  1.60000000E+01  1.00800000E+00  1.00800000E+00  1.60000000E+01
  1.00800000E+00  1.00800000E+00  1.60000000E+01  1.00800000E+00  1.00800000E+00
  1.60000000E+01  1.00800000E+00  1.00800000E+00  1.60000000E+01  1.00800000E+00
  1.00800000E+00  1.60000000E+01  1.00800000E+00  1.00800000E+00  1.60000000E+01
  1.00800000E+00  1.00800000E+00  1.60000000E+01  1.00800000E+00  1.00800000E+00
  1.60000000E+01  1.00800000E+00  1.00800000E+00  1.60000000E+01  1.00800000E+00
  1.00800000E+00  1.60000000E+01  1.00800000E+00  1.00800000E+00  1.60000000E+01
  1.00800000E+00  1.00800000E+00  1.60000000E+01  1.00800000E+00  1.00800000E+00
  1.60000000E+01  1.00800000E+00  1.00800000E+00  1.60000000E+01  1.00800000E+00
  1.00800000E+00  1.60000000E+01  1.00800000E+00  1.00800000E+00  1.60000000E+01
  1.00800000E+00  1.00800000E+00  1.60000000E+01  1.00800000E+00  1.00800000E+00
  1.60000000E+01  1.00800000E+00  1.00800000E+00  1.60000000E+01  1.00800000E+00
  1.00800000E+00  1.60000000E+01  1.00800000E+00  1.00800000E+00  1.60000000E+01
  1.00800000E+00  1.00800000E+00  1.60000000E+01  1.00800000E+00  1.00800000E+00
  1.60000000E+01  1.00800000E+00  1.00800000E+00  1.60000000E+01  1.00800000E+00
  1.00800000E+00  1.60000000E+01  1.00800000E+00  1.00800000E+00  1.60000000E+01
  1.00800000E+00  1.00800000E+00  1.60000000E+01  1.00800000E+00  1.00800000E+00
  1.60000000E+01  1.00800000E+00  1.00800000E+00  1.60000000E+01  1.00800000E+00
  1.00800000E+00  1.60000000E+01  1.00800000E+00  1.00800000E+00  1.60000000E+01
  1.00800000E+00  1.00800000E+00  1.60000000E+01  1.00800000E+00  1.00800000E+00
  1.60000000E+01  1.00800000E+00  1.00800000E+00  1.60000000E+01  1.00800000E+00
  1.00800000E+00  1.60000000E+01  1.00800000E+00  1.00800000E+00  1.60000000E+01
  1.00800000E+00  1.00800000E+00  1.60000000E+01  1.00800000E+00  1.00800000E+00
  1.60000000E+01  1.00800000E+00  1.00800000E+00  1.60000000E+01  1.00800000E+00
  1.00800000E+00  1.60000000E+01  1.00800000E+00  1.00800000E+00  1.60000000E+01
  1.00800000E+00  1.00800000E+00  1.60000000E+01  1.00800000E+00  1.00800000E+00
  1.60000000E+01  1.00800000E+00  1.00800000E+00  1.60000000E+01  1.00800000E+00
  1.00800000E+00  1.60000000E+01  1.00800000E+00  1.00800000E+00  1.60000000E+01
  1.00800000E+00  1.00800000E+00  1.60000000E+01  1.00800000E+00  1.00800000E+00
  1.60000000E+01  1.00800000E+00  1.00800000E+00  1.60000000E+01  1.00800000E+00
  1.00800000E+00  1.60000000E+01  1.00800000E+00  1.00800000E+00  1.60000000E+01
  1.00800000E+00  1.00800000E+00  1.60000000E+01  1.00800000E+00  1.00800000E+00
  1.60000000E+01  1.00800000E+00  1.00800000E+00  1.60000000E+01  1.00800000E+00
  1.00800000E+00  1.60000000E+01  1.00800000E+00  1.00800000E+00  1.60000000E+01
  1.00800000E+00  1.00800000E+00  1.60000000E+01  1.00800000E+00  1.00800000E+00
  1.60000000E+01  1.00800000E+00  1.00800000E+00  1.60000000E+01  1.00800000E+00
  1.00800000E+00  1.60000000E+01  1.00800000E+00  1.00800000E+00  1.60000000E+01
  1.00800000E+00  1.00800000E+00  1.60000000E+01  1.00800000E+00  1.00800000E+00
  1.60000000E+01  1.00800000E+00  1.00800000E+00  1.60000000E+01  1.00800000E+00
  1.00800000E+00  1.60000000E+01  1.00800000E+00  1.00800000E+00  1.60000000E+01
  1.00800000E+00  1.00800000E+00  1.60000000E+01  1.00800000E+00  1.00800000E+00
  1.60000000E+01  1.00800000E+00  1.00800000E+00  1.60000000E+01  1.00800000E+00
  1.00800000E+00  1.60000000E+01  1.00800000E+00  1.00800000E+00  1.60000000E+01
  1.00800000E+00  1.00800000E+00  1.60000000E+01  1.00800000E+00  1.00800000E+00
  1.60000000E+01  1.00800000E+00  1.00800000E+00  1.60000000E+01  1.00800000E+00
  1.00800000E+00  1.60000000E+01  1.00800000E+00  1.00800000E+00  1.60000000E+01
  1.00800000E+00  1.00800000E+00  1.60000000E+01  1.00800000E+00  1.00800000E+00
  1.60000000E+01  1.00800000E+00  1.00800000E+00  1.60000000E+01  1.00800000E+00
  1.00800000E+00  1.60000000E+01  1.00800000E+00  1.00800000E+00  1.60000000E+01
  1.00800000E+00  1.00800000E+00  1.60000000E+01  1.00800000E+00  1.00800000E+00
  1.60000000E+01  1.00800000E+00  1.00800000E+00  1.60000000E+01  1.00800000E+00
  1.00800000E+00  1.60000000E+01  1.00800000E+00  1.00800000E+00  1.60000000E+01
  1.00800000E+00  1.00800000E+00  1.60000000E+01  1.00800000E+00  1.00800000E+00
  1.60000000E+01  1.00800000E+00  1.00800000E+00  1.60000000E+01  1.00800000E+00
  1.00800000E+00  1.60000000E+01  1.00800000E+00  1.00800000E+00  1.60000000E+01
  1.00800000E+00  1.00800000E+00  1.60000000E+01  1.00800000E+00  1.00800000E+00
  1.60000000E+01  1.00800000E+00  1.00800000E+00  1.60000000E+01  1.00800000E+00
  1.00800000E+00  1.60000000E+01  1.00800000E+00  1.00800000E+00  1.60000000E+01
  1.00800000E+00  1.00800000E+00  1.60000000E+01  1.00800000E+00  1.00800000E+00
  1.60000000E+01  1.00800000E+00  1.00800000E+00  1.60000000E+01  1.00800000E+00
  1.00800000E+00  1.60000000E+01  1.00800000E+00  1.00800000E+00  1.60000000E+01
  1.00800000E+00  1.00800000E+00  1.60000000E+01  1.00800000E+00  1.00800000E+00
  1.60000000E+01  1.00800000E+00  1.00800000E+00  1.60000000E+01  1.00800000E+00
  1.00800000E+00  1.60000000E+01  1.00800000E+00  1.00800000E+00  1.60000000E+01
  1.00800000E+00  1.00800000E+00  1.60000000E+01  1.00800000E+00  1.00800000E+00
  1.60000000E+01  1.00800000E+00  1.00800000E+00  1.60000000E+01  1.00800000E+00
  1.00800000E+00  1.60000000E+01  1.00800000E+00  1.00800000E+00  1.60000000E+01
  1.00800000E+00  1.00800000E+00  1.60000000E+01  1.00800000E+00  1.00800000E+00
  1.60000000E+01  1.00800000E+00  1.00800000E+00  1.60000000E+01  1.00800000E+00
  1.00800000E+00  1.60000000E+01  1.00800000E+00  1.00800000E+00  1.60000000E+01
  1.00800000E+00  1.00800000E+00  1.60000000E+01  1.00800000E+00  1.00800000E+00
  1.60000000E+01  1.00800000E+00  1.00800000E+00  1.60000000E+01  1.00800000E+00
  1.00800000E+00  1.60000000E+01  1.00800000E+00  1.00800000E+00  1.60000000E+01
  1.00800000E+00  1.00800000E+00  1.60000000E+01  1.00800000E+00  1.00800000E+00
  1.60000000E+01  1.00800000E+00  1.00800000E+00  1.60000000E+01  1.00800000E+00
  1.00800000E+00  1.60000000E+01  1.00800000E+00  1.00800000E+00  1.60000000E+01
  1.00800000E+00  1.00800000E+00  1.60000000E+01  1.00800000E+00  1.00800000E+00
  1.60000000E+01  1.00800000E+00  1.00800000E+00  1.60000000E+01  1.00800000E+00
  1.00800000E+00  1.60000000E+01  1.00800000E+00  1.00800000E+00  1.60000000E+01
  1.00800000E+00  1.00800000E+00  1.60000000E+01  1.00800000E+00  1.00800000E+00
  1.60000000E+01  1.00800000E+00  1.00800000E+00  1.60000000E+01  1.00800000E+00
  1.00800000E+00  1.60000000E+01  1.00800000E+00  1.00800000E+00  1.60000000E+01
  1.00800000E+00  1.00800000E+00  1.60000000E+01  1.00800000E+00  1.00800000E+00
  1.60000000E+01  1.00800000E+00  1.00800000E+00  1.60000000E+01  1.00800000E+00
  1.00800000E+00  1.60000000E+01  1.00800000E+00  1.00800000E+00  1.60000000E+01
  1.00800000E+00  1.00800000E+00  1.60000000E+01  1.00800000E+00  1.00800000E+00
  1.60000000E+01  1.00800000E+00  1.00800000E+00  1.60000000E+01  1.00800000E+00
  1.00800000E+00  1.60000000E+01  1.00800000E+00  1.00800000E+00  1.60000000E+01
  1.00800000E+00  1.00800000E+00  1.60000000E+01  1.00800000E+00  1.00800000E+00
  1.60000000E+01  1.00800000E+00  1.00800000E+00  1.60000000E+01  1.00800000E+00
  1.00800000E+00  1.60000000E+01  1.00800000E+00  1.00800000E+00  1.60000000E+01
  1.00800000E+00  1.00800000E+00  1.60000000E+01  1.00800000E+00  1.00800000E+00
  1.60000000E+01  1.00800000E+00  1.00800000E+00  1.60000000E+01  1.00800000E+00
  1.00800000E+00  1.60000000E+01  1.00800000E+00  1.00800000E+00  1.60000000E+01
  1.00800000E+00  1.00800000E+00  1.60000000E+01  1.00800000E+00  1.00800000E+00
  1.60000000E+01  1.00800000E+00  1.00800000E+00  1.60000000E+01  1.00800000E+00
  1.00800000E+00  1.60000000E+01  1.00800000E+00  1.00800000E+00  1.60000000E+01
  1.00800000E+00  1.00800000E+00  1.60000000E+01  1.00800000E+00  1.00800000E+00
  1.60000000E+01  1.00800000E+00  1.00800000E+00  1.60000000E+01  1.00800000E+00
  1.00800000E+00  1.60000000E+01  1.00800000E+00  1.00800000E+00  1.60000000E+01
  1.00800000E+00  1.00800000E+00  1.60000000E+01  1.00800000E+00  1.00800000E+00
  1.60000000E+01  1.00800000E+00  1.00800000E+00  1.60000000E+01  1.00800000E+00
  1.00800000E+00  1.60000000E+01  1.00800000E+00  1.00800000E+00  1.60000000E+01
  1.00800000E+00  1.00800000E+00  1.60000000E+01  1.00800000E+00  1.00800000E+00
  1.60000000E+01  1.00800000E+00  1.00800000E+00  1.60000000E+01  1.00800000E+00
  1.00800000E+00  1.60000000E+01  1.00800000E+00  1.00800000E+00  1.60000000E+01
  1.00800000E+00  1.00800000E+00  1.60000000E+01  1.00800000E+00  1.00800000E+00
  1.60000000E+01  1.00800000E+00  1.00800000E+00  1.60000000E+01  1.00800000E+00
  1.00800000E+00  1.60000000E+01  1.00800000E+00  1.00800000E+00  1.60000000E+01
  1.00800000E+00  1.00800000E+00  1.60000000E+01  1.00800000E+00  1.00800000E+00
  1.60000000E+01  1.00800000E+00  1.00800000E+00  1.60000000E+01  1.00800000E+00
  1.00800000E+00  1.60000000E+01  1.00800000E+00  1.00800000E+00  1.60000000E+01
  1.00800000E+00  1.00800000E+00  1.60000000E+01  1.00800000E+00  1.00800000E+00
  1.60000000E+01  1.00800000E+00  1.00800000E+00  1.60000000E+01  1.00800000E+00
  1.00800000E+00  1.60000000E+01  1.00800000E+00  1.00800000E+00  1.60000000E+01
  1.00800000E+00  1.00800000E+00  1.60000000E+01  1.00800000E+00  1.00800000E+00
  1.60000000E+01  1.00800000E+00  1.00800000E+00  1.60000000E+01  1.00800000E+00
  1.00800000E+00  1.60000000E+01  1.00800000E+00  1.00800000E+00  1.60000000E+01
  1.00800000E+00  1.00800000E+00  1.60000000E+01  1.00800000E+00  1.00800000E+00
  1.60000000E+01  1.00800000E+00  1.00800000E+00  1.60000000E+01  1.00800000E+00
  1.00800000E+00  1.60000000E+01  1.00800000E+00  1.00800000E+00  1.60000000E+01
  1.00800000E+00  1.00800000E+00  1.60000000E+01  1.00800000E+00  1.00800000E+00
  1.60000000E+01  1.00800000E+00  1.00800000E+00  1.60000000E+01  1.00800000E+00
  1.00800000E+00  1.60000000E+01  1.00800000E+00  1.00800000E+00  1.60000000E+01
  1.00800000E+00  1.00800000E+00  1.60000000E+01  1.00800000E+00  1.00800000E+00
  1.60000000E+01  1.00800000E+00  1.00800000E+00  1.60000000E+01  1.00800000E+00
  1.00800000E+00  1.60000000E+01  1.00800000E+00  1.00800000E+00  1.60000000E+01
  1.00800000E+00  1.00800000E+00  1.60000000E+01  1.00800000E+00  1.00800000E+00
  1.60000000E+01  1.00800000E+00  1.00800000E+00  1.60000000E+01  1.00800000E+00
  1.00800000E+00  1.60000000E+01  1.00800000E+00  1.00800000E+00  1.60000000E+01
  1.00800000E+00  1.00800000E+00  1.60000000E+01  1.00800000E+00  1.00800000E+00
  1.60000000E+01  1.00800000E+00  1.00800000E+00  1.60000000E+01  1.00800000E+00
  1.00800000E+00  1.60000000E+01  1.00800000E+00  1.00800000E+00  1.60000000E+01
  1.00800000E+00  1.00800000E+00  1.60000000E+01  1.00800000E+00  1.00800000E+00
  1.60000000E+01  1.00800000E+00  1.00800000E+00  1.60000000E+01  1.00800000E+00
  1.00800000E+00  1.60000000E+01  1.00800000E+00  1.00800000E+00  1.60000000E+01
  1.00800000E+00  1.00800000E+00  1.60000000E+01  1.00800000E+00  1.00800000E+00
  1.60000000E+01  1.00800000E+00  1.00800000E+00  1.60000000E+01  1.00800000E+00
  1.00800000E+00  1.60000000E+01  1.00800000E+00  1.00800000E+00  1.60000000E+01
  1.00800000E+00  1.00800000E+00  1.60000000E+01  1.00800000E+00  1.00800000E+00
  1.60000000E+01  1.00800000E+00  1.00800000E+00  1.60000000E+01  1.00800000E+00
  1.00800000E+00  1.60000000E+01  1.00800000E+00  1.00800000E+00  1.60000000E+01
  1.00800000E+00  1.00800000E+00  1.60000000E+01  1.00800000E+00  1.00800000E+00
  1.60000000E+01  1.00800000E+00  1.00800000E+00  1.60000000E+01  1.00800000E+00
  1.00800000E+00  1.60000000E+01  1.00800000E+00  1.00800000E+00  1.60000000E+01
  1.00800000E+00  1.00800000E+00  1.60000000E+01  1.00800000E+00  1.00800000E+00
  1.60000000E+01  1.00800000E+00  1.00800000E+00  1.60000000E+01  1.00800000E+00
  1.00800000E+00  1.60000000E+01  1.00800000E+00  1.00800000E+00  1.60000000E+01
  1.00800000E+00  1.00800000E+00  1.60000000E+01  1.00800000E+00  1.00800000E+00
  1.60000000E+01  1.00800000E+00  1.00800000E+00  1.60000000E+01  1.00800000E+00
  1.00800000E+00  1.60000000E+01  1.00800000E+00  1.00800000E+00  1.60000000E+01
  1.00800000E+00  1.00800000E+00  1.60000000E+01  1.00800000E+00  1.00800000E+00
  1.60000000E+01  1.00800000E+00  1.00800000E+00  1.60000000E+01  1.00800000E+00
  1.00800000E+00  1.60000000E+01  1.00800000E+00  1.00800000E+00  1.60000000E+01
  1.00800000E+00  1.00800000E+00  1.60000000E+01  1.00800000E+00  1.00800000E+00
  1.60000000E+01  1.00800000E+00  1.00800000E+00  1.60000000E+01  1.00800000E+00
  1.00800000E+00  1.60000000E+01  1.00800000E+00  1.00800000E+00  1.60000000E+01
  1.00800000E+00  1.00800000E+00  1.60000000E+01  1.00800000E+00  1.00800000E+00
  1.60000000E+01  1.00800000E+00  1.00800000E+00  1.60000000E+01  1.00800000E+00
  1.00800000E+00  1.60000000E+01  1.00800000E+00  1.00800000E+00  1.60000000E+01
  1.00800000E+00  1.00800000E+00  1.60000000E+01  1.00800000E+00  1.00800000E+00
  1.60000000E+01  1.00800000E+00  1.00800000E+00  1.60000000E+01  1.00800000E+00
  1.00800000E+00  1.60000000E+01  1.00800000E+00  1.00800000E+00  1.60000000E+01
  1.00800000E+00  1.00800000E+00  1.60000000E+01  1.00800000E+00  1.00800000E+00
  1.60000000E+01  1.00800000E+00  1.00800000E+00  1.60000000E+01  1.00800000E+00
  1.00800000E+00  1.60000000E+01  1.00800000E+00  1.00800000E+00  1.60000000E+01
  1.00800000E+00  1.00800000E+00  1.60000000E+01  1.00800000E+00  1.00800000E+00
  1.60000000E+01  1.00800000E+00  1.00800000E+00  1.60000000E+01  1.00800000E+00
  1.00800000E+00  1.60000000E+01  1.00800000E+00  1.00800000E+00  1.60000000E+01
  1.00800000E+00  1.00800000E+00  1.60000000E+01  1.00800000E+00  1.00800000E+00
  1.60000000E+01  1.00800000E+00  1.00800000E+00  1.60000000E+01  1.00800000E+00
  1.00800000E+00  1.60000000E+01  1.00800000E+00  1.00800000E+00  1.60000000E+01
  1.00800000E+00  1.00800000E+00  1.60000000E+01  1.00800000E+00  1.00800000E+00
  1.60000000E+01  1.00800000E+00  1.00800000E+00  1.60000000E+01  1.00800000E+00
  1.00800000E+00  1.60000000E+01  1.00800000E+00  1.00800000E+00  1.60000000E+01
  1.00800000E+00  1.00800000E+00  1.60000000E+01  1.00800000E+00  1.00800000E+00
  1.60000000E+01  1.00800000E+00  1.00800000E+00  1.60000000E+01  1.00800000E+00
  1.00800000E+00  1.60000000E+01  1.00800000E+00  1.00800000E+00  1.60000000E+01
  1.00800000E+00  1.00800000E+00  1.60000000E+01  1.00800000E+00  1.00800000E+00
  1.60000000E+01  1.00800000E+00  1.00800000E+00  1.60000000E+01  1.00800000E+00
  1.00800000E+00  1.60000000E+01  1.00800000E+00  1.00800000E+00  1.60000000E+01
  1.00800000E+00  1.00800000E+00  1.60000000E+01  1.00800000E+00  1.00800000E+00
  1.60000000E+01  1.00800000E+00  1.00800000E+00  1.60000000E+01  1.00800000E+00
  1.00800000E+00  1.60000000E+01  1.00800000E+00  1.00800000E+00  1.60000000E+01
  1.00800000E+00  1.00800000E+00  1.60000000E+01  1.00800000E+00  1.00800000E+00
  1.60000000E+01  1.00800000E+00  1.00800000E+00  1.60000000E+01  1.00800000E+00
  1.00800000E+00  1.60000000E+01  1.00800000E+00  1.00800000E+00  1.60000000E+01
  1.00800000E+00  1.00800000E+00  1.60000000E+01  1.00800000E+00  1.00800000E+00
  1.60000000E+01  1.00800000E+00  1.00800000E+00  1.60000000E+01  1.00800000E+00
  1.00800000E+00  1.60000000E+01  1.00800000E+00  1.00800000E+00  1.60000000E+01
  1.00800000E+00  1.00800000E+00  1.60000000E+01  1.00800000E+00  1.00800000E+00
  1.60000000E+01  1.00800000E+00  1.00800000E+00  1.60000000E+01  1.00800000E+00
  1.00800000E+00  1.60000000E+01  1.00800000E+00  1.00800000E+00  1.60000000E+01
  1.00800000E+00  1.00800000E+00  1.60000000E+01  1.00800000E+00  1.00800000E+00
  1.60000000E+01  1.00800000E+00  1.00800000E+00  1.60000000E+01  1.00800000E+00
  1.00800000E+00  1.60000000E+01  1.00800000E+00  1.00800000E+00  1.60000000E+01
  1.00800000E+00  1.00800000E+00  1.60000000E+01  1.00800000E+00  1.00800000E+00
  1.60000000E+01  1.00800000E+00  1.00800000E+00  1.60000000E+01  1.00800000E+00
  1.00800000E+00  1.60000000E+01  1.00800000E+00  1.00800000E+00  1.60000000E+01
  1.00800000E+00  1.00800000E+00  1.60000000E+01  1.00800000E+00  1.00800000E+00
  1.60000000E+01  1.00800000E+00  1.00800000E+00  1.60000000E+01  1.00800000E+00
  1.00800000E+00  1.60000000E+01  1.00800000E+00  1.00800000E+00  1.60000000E+01
  1.00800000E+00  1.00800000E+00  1.60000000E+01  1.00800000E+00  1.00800000E+00
  1.60000000E+01  1.00800000E+00  1.00800000E+00  1.60000000E+01  1.00800000E+00
  1.00800000E+00  1.60000000E+01  1.00800000E+00  1.00800000E+00  1.60000000E+01
  1.00800000E+00  1.00800000E+00  1.60000000E+01  1.00800000E+00  1.00800000E+00
  1.60000000E+01  1.00800000E+00  1.00800000E+00  1.60000000E+01  1.00800000E+00
  1.00800000E+00  1.60000000E+01  1.00800000E+00  1.00800000E+00  1.60000000E+01
  1.00800000E+00  1.00800000E+00  1.60000000E+01  1.00800000E+00  1.00800000E+00
  1.60000000E+01  1.00800000E+00  1.00800000E+00  1.60000000E+01  1.00800000E+00
  1.00800000E+00  1.60000000E+01  1.00800000E+00  1.00800000E+00  1.60000000E+01
  1.00800000E+00  1.00800000E+00  1.60000000E+01  1.00800000E+00  1.00800000E+00
  1.60000000E+01  1.00800000E+00  1.00800000E+00  1.60000000E+01  1.00800000E+00
  1.00800000E+00  1.60000000E+01  1.00800000E+00  1.00800000E+00  1.60000000E+01
  1.00800000E+00  1.00800000E+00  1.60000000E+01  1.00800000E+00  1.00800000E+00
  1.60000000E+01  1.00800000E+00  1.00800000E+00  1.60000000E+01  1.00800000E+00
  1.00800000E+00  1.60000000E+01  1.00800000E+00  1.00800000E+00  1.60000000E+01
  1.00800000E+00  1.00800000E+00  1.60000000E+01  1.00800000E+00  1.00800000E+00
  1.60000000E+01  1.00800000E+00  1.00800000E+00  1.60000000E+01  1.00800000E+00
  1.00800000E+00  1.60000000E+01  1.00800000E+00  1.00800000E+00  1.60000000E+01
  1.00800000E+00  1.00800000E+00  1.60000000E+01  1.00800000E+00  1.00800000E+00
  1.60000000E+01  1.00800000E+00  1.00800000E+00  1.60000000E+01  1.00800000E+00
  1.00800000E+00  1.60000000E+01  1.00800000E+00  1.00800000E+00  1.60000000E+01
  1.00800000E+00  1.00800000E+00  1.60000000E+01  1.00800000E+00  1.00800000E+00
  1.60000000E+01  1.00800000E+00  1.00800000E+00  1.60000000E+01  1.00800000E+00
  1.00800000E+00  1.60000000E+01  1.00800000E+00  1.00800000E+00  1.60000000E+01
  1.00800000E+00  1.00800000E+00  1.60000000E+01  1.00800000E+00  1.00800000E+00
  1.60000000E+01  1.00800000E+00  1.00800000E+00  1.60000000E+01  1.00800000E+00
  1.00800000E+00  1.60000000E+01  1.00800000E+00  1.00800000E+00  1.60000000E+01
  1.00800000E+00  1.00800000E+00  1.60000000E+01  1.00800000E+00  1.00800000E+00
  1.60000000E+01  1.00800000E+00  1.00800000E+00  1.60000000E+01  1.00800000E+00
  1.00800000E+00  1.60000000E+01  1.00800000E+00  1.00800000E+00  1.60000000E+01
  1.00800000E+00  1.00800000E+00  1.60000000E+01  1.00800000E+00  1.00800000E+00
  1.60000000E+01  1.00800000E+00  1.00800000E+00  1.60000000E+01  1.00800000E+00
  1.00800000E+00  1.60000000E+01  1.00800000E+00  1.00800000E+00  1.60000000E+01
  1.00800000E+00  1.00800000E+00  1.60000000E+01  1.00800000E+00  1.00800000E+00
  1.60000000E+01  1.00800000E+00  1.00800000E+00  1.60000000E+01  1.00800000E+00
  1.00800000E+00  1.60000000E+01  1.00800000E+00  1.00800000E+00  1.60000000E+01
  1.00800000E+00  1.00800000E+00  1.60000000E+01  1.00800000E+00  1.00800000E+00
  1.60000000E+01  1.00800000E+00  1.00800000E+00  1.60000000E+01  1.00800000E+00
  1.00800000E+00  1.60000000E+01  1.00800000E+00  1.00800000E+00  1.60000000E+01
  1.00800000E+00  1.00800000E+00  1.60000000E+01  1.00800000E+00  1.00800000E+00
  1.60000000E+01  1.00800000E+00  1.00800000E+00  1.60000000E+01  1.00800000E+00
  1.00800000E+00  1.60000000E+01  1.00800000E+00  1.00800000E+00  1.60000000E+01
  1.00800000E+00  1.00800000E+00  1.60000000E+01  1.00800000E+00  1.00800000E+00
  1.60000000E+01  1.00800000E+00  1.00800000E+00  1.60000000E+01  1.00800000E+00
  1.00800000E+00  1.60000000E+01  1.00800000E+00  1.00800000E+00  1.60000000E+01
  1.00800000E+00  1.00800000E+00  1.60000000E+01  1.00800000E+00  1.00800000E+00
  1.60000000E+01  1.00800000E+00  1.00800000E+00  1.60000000E+01  1.00800000E+00
  1.00800000E+00  1.60000000E+01  1.00800000E+00  1.00800000E+00  1.60000000E+01
  1.00800000E+00  1.00800000E+00  1.60000000E+01  1.00800000E+00  1.00800000E+00
  1.60000000E+01  1.00800000E+00  1.00800000E+00  1.60000000E+01  1.00800000E+00
  1.00800000E+00  1.60000000E+01  1.00800000E+00  1.00800000E+00  1.60000000E+01
  1.00800000E+00  1.00800000E+00  1.60000000E+01  1.00800000E+00  1.00800000E+00
  1.60000000E+01  1.00800000E+00  1.00800000E+00  1.60000000E+01  1.00800000E+00
  1.00800000E+00  1.60000000E+01  1.00800000E+00  1.00800000E+00  1.60000000E+01
  1.00800000E+00  1.00800000E+00  1.60000000E+01  1.00800000E+00  1.00800000E+00
  1.60000000E+01  1.00800000E+00  1.00800000E+00  1.60000000E+01  1.00800000E+00
  1.00800000E+00  1.60000000E+01  1.00800000E+00  1.00800000E+00  1.60000000E+01
  1.00800000E+00  1.00800000E+00  1.60000000E+01  1.00800000E+00  1.00800000E+00
  1.60000000E+01  1.00800000E+00  1.00800000E+00  1.60000000E+01  1.00800000E+00
  1.00800000E+00  1.60000000E+01  1.00800000E+00  1.00800000E+00  1.60000000E+01
  1.00800000E+00  1.00800000E+00  1.60000000E+01  1.00800000E+00  1.00800000E+00
  1.60000000E+01  1.00800000E+00  1.00800000E+00  1.60000000E+01  1.00800000E+00
  1.00800000E+00  1.60000000E+01  1.00800000E+00  1.00800000E+00  1.60000000E+01
  1.00800000E+00  1.00800000E+00  1.60000000E+01  1.00800000E+00  1.00800000E+00
  1.60000000E+01  1.00800000E+00  1.00800000E+00  1.60000000E+01  1.00800000E+00
  1.00800000E+00  1.60000000E+01  1.00800000E+00  1.00800000E+00  1.60000000E+01
  1.00800000E+00  1.00800000E+00  1.60000000E+01  1.00800000E+00  1.00800000E+00
  1.60000000E+01  1.00800000E+00  1.00800000E+00  1.60000000E+01  1.00800000E+00
  1.00800000E+00  1.60000000E+01  1.00800000E+00  1.00800000E+00  1.60000000E+01
  1.00800000E+00  1.00800000E+00  1.60000000E+01  1.00800000E+00  1.00800000E+00
  1.60000000E+01  1.00800000E+00  1.00800000E+00  1.60000000E+01  1.00800000E+00
  1.00800000E+00  1.60000000E+01  1.00800000E+00  1.00800000E+00  1.60000000E+01
  1.00800000E+00  1.00800000E+00  1.60000000E+01  1.00800000E+00  1.00800000E+00
  1.60000000E+01  1.00800000E+00  1.00800000E+00  1.60000000E+01  1.00800000E+00
  1.00800000E+00  1.60000000E+01  1.00800000E+00  1.00800000E+00  1.60000000E+01
  1.00800000E+00  1.00800000E+00  1.60000000E+01  1.00800000E+00  1.00800000E+00
  1.60000000E+01  1.00800000E+00  1.00800000E+00  1.60000000E+01  1.00800000E+00
  1.00800000E+00  1.60000000E+01  1.00800000E+00  1.00800000E+00  1.60000000E+01
  1.00800000E+00  1.00800000E+00  1.60000000E+01  1.00800000E+00  1.00800000E+00
  1.60000000E+01  1.00800000E+00  1.00800000E+00  1.60000000E+01  1.00800000E+00
  1.00800000E+00  1.60000000E+01  1.00800000E+00  1.00800000E+00  1.60000000E+01
  1.00800000E+00  1.00800000E+00  1.60000000E+01  1.00800000E+00  1.00800000E+00
  1.60000000E+01  1.00800000E+00  1.00800000E+00  1.60000000E+01  1.00800000E+00
  1.00800000E+00  1.60000000E+01  1.00800000E+00  1.00800000E+00  1.60000000E+01
  1.00800000E+00  1.00800000E+00  1.60000000E+01  1.00800000E+00  1.00800000E+00
  1.60000000E+01  1.00800000E+00  1.00800000E+00  1.60000000E+01  1.00800000E+00
  1.00800000E+00  1.60000000E+01  1.00800000E+00  1.00800000E+00  1.60000000E+01
  1.00800000E+00  1.00800000E+00  1.60000000E+01  1.00800000E+00  1.00800000E+00
  1.60000000E+01  1.00800000E+00  1.00800000E+00  1.60000000E+01  1.00800000E+00
  1.00800000E+00  1.60000000E+01  1.00800000E+00  1.00800000E+00  1.60000000E+01
  1.00800000E+00  1.00800000E+00  1.60000000E+01  1.00800000E+00  1.00800000E+00
  1.60000000E+01  1.00800000E+00  1.00800000E+00  1.60000000E+01  1.00800000E+00
  1.00800000E+00  1.60000000E+01  1.00800000E+00  1.00800000E+00  1.60000000E+01
  1.00800000E+00  1.00800000E+00  1.60000000E+01  1.00800000E+00  1.00800000E+00
  1.60000000E+01  1.00800000E+00  1.00800000E+00  1.60000000E+01  1.00800000E+00
  1.00800000E+00  1.60000000E+01  1.00800000E+00  1.00800000E+00  1.60000000E+01
  1.00800000E+00  1.00800000E+00  1.60000000E+01  1.00800000E+00  1.00800000E+00
  1.60000000E+01  1.00800000E+00  1.00800000E+00  1.60000000E+01  1.00800000E+00
  1.00800000E+00  1.60000000E+01  1.00800000E+00  1.00800000E+00  1.60000000E+01
  1.00800000E+00  1.00800000E+00  1.60000000E+01  1.00800000E+00  1.00800000E+00
  1.60000000E+01  1.00800000E+00  1.00800000E+00  1.60000000E+01  1.00800000E+00
  1.00800000E+00  1.60000000E+01  1.00800000E+00  1.00800000E+00  1.60000000E+01
  1.00800000E+00  1.00800000E+00  1.60000000E+01  1.00800000E+00  1.00800000E+00
  1.60000000E+01  1.00800000E+00  1.00800000E+00  1.60000000E+01  1.00800000E+00
  1.00800000E+00  1.60000000E+01  1.00800000E+00  1.00800000E+00  1.60000000E+01
  1.00800000E+00  1.00800000E+00  1.60000000E+01  1.00800000E+00  1.00800000E+00
  1.60000000E+01  1.00800000E+00  1.00800000E+00  1.60000000E+01  1.00800000E+00
  1.00800000E+00  1.60000000E+01  1.00800000E+00  1.00800000E+00  1.60000000E+01
  1.00800000E+00  1.00800000E+00  1.60000000E+01  1.00800000E+00  1.00800000E+00
  1.60000000E+01  1.00800000E+00  1.00800000E+00  1.60000000E+01  1.00800000E+00
  1.00800000E+00  1.60000000E+01  1.00800000E+00  1.00800000E+00  1.60000000E+01
  1.00800000E+00  1.00800000E+00  1.60000000E+01  1.00800000E+00  1.00800000E+00
  1.60000000E+01  1.00800000E+00  1.00800000E+00  1.60000000E+01  1.00800000E+00
  1.00800000E+00  1.60000000E+01  1.00800000E+00  1.00800000E+00  1.60000000E+01
  1.00800000E+00  1.00800000E+00  1.60000000E+01  1.00800000E+00  1.00800000E+00
  1.60000000E+01  1.00800000E+00  1.00800000E+00  1.60000000E+01  1.00800000E+00
  1.00800000E+00  1.60000000E+01  1.00800000E+00  1.00800000E+00  1.60000000E+01
  1.00800000E+00  1.00800000E+00  1.60000000E+01  1.00800000E+00  1.00800000E+00
  1.60000000E+01  1.00800000E+00  1.00800000E+00  1.60000000E+01  1.00800000E+00
  1.00800000E+00  1.60000000E+01  1.00800000E+00  1.00800000E+00  1.60000000E+01
  1.00800000E+00  1.00800000E+00  1.60000000E+01  1.00800000E+00  1.00800000E+00
  1.60000000E+01  1.00800000E+00  1.00800000E+00  1.60000000E+01  1.00800000E+00
  1.00800000E+00  1.60000000E+01  1.00800000E+00  1.00800000E+00  1.60000000E+01
  1.00800000E+00  1.00800000E+00  1.60000000E+01  1.00800000E+00  1.00800000E+00
  1.60000000E+01  1.00800000E+00  1.00800000E+00  1.60000000E+01  1.00800000E+00
  1.00800000E+00  1.60000000E+01  1.00800000E+00  1.00800000E+00  1.60000000E+01
  1.00800000E+00  1.00800000E+00  1.60000000E+01  1.00800000E+00  1.00800000E+00
  1.60000000E+01  1.00800000E+00  1.00800000E+00  1.60000000E+01  1.00800000E+00
  1.00800000E+00  1.60000000E+01  1.00800000E+00  1.00800000E+00  1.60000000E+01
  1.00800000E+00  1.00800000E+00  1.60000000E+01  1.00800000E+00  1.00800000E+00
  1.60000000E+01  1.00800000E+00  1.00800000E+00  1.60000000E+01  1.00800000E+00
  1.00800000E+00  1.60000000E+01  1.00800000E+00  1.00800000E+00  1.60000000E+01
  1.00800000E+00  1.00800000E+00  1.60000000E+01  1.00800000E+00  1.00800000E+00
  1.60000000E+01  1.00800000E+00  1.00800000E+00  1.60000000E+01  1.00800000E+00
  1.00800000E+00  1.60000000E+01  1.00800000E+00  1.00800000E+00  1.60000000E+01
  1.00800000E+00  1.00800000E+00  1.60000000E+01  1.00800000E+00  1.00800000E+00
  1.60000000E+01  1.00800000E+00  1.00800000E+00  1.60000000E+01  1.00800000E+00
  1.00800000E+00  1.60000000E+01  1.00800000E+00  1.00800000E+00  1.60000000E+01
  1.00800000E+00  1.00800000E+00  1.60000000E+01  1.00800000E+00  1.00800000E+00
  1.60000000E+01  1.00800000E+00  1.00800000E+00  1.60000000E+01  1.00800000E+00
  1.00800000E+00  1.60000000E+01  1.00800000E+00  1.00800000E+00  1.60000000E+01
  1.00800000E+00  1.00800000E+00  1.60000000E+01  1.00800000E+00  1.00800000E+00
  1.60000000E+01  1.00800000E+00  1.00800000E+00  1.60000000E+01  1.00800000E+00
  1.00800000E+00  1.60000000E+01  1.00800000E+00  1.00800000E+00  1.60000000E+01
  1.00800000E+00  1.00800000E+00  1.60000000E+01  1.00800000E+00  1.00800000E+00
  1.60000000E+01  1.00800000E+00  1.00800000E+00  1.60000000E+01  1.00800000E+00
  1.00800000E+00  1.60000000E+01  1.00800000E+00  1.00800000E+00  1.60000000E+01
  1.00800000E+00  1.00800000E+00  1.60000000E+01  1.00800000E+00  1.00800000E+00
  1.60000000E+01  1.00800000E+00  1.00800000E+00  1.60000000E+01  1.00800000E+00
  1.00800000E+00  1.60000000E+01  1.00800000E+00  1.00800000E+00  1.60000000E+01
  1.00800000E+00  1.00800000E+00  1.60000000E+01  1.00800000E+00  1.00800000E+00
  1.60000000E+01  1.00800000E+00  1.00800000E+00  1.60000000E+01  1.00800000E+00
  1.00800000E+00  1.60000000E+01  1.00800000E+00  1.00800000E+00  1.60000000E+01
  1.00800000E+00  1.00800000E+00  1.60000000E+01  1.00800000E+00  1.00800000E+00
  1.60000000E+01  1.00800000E+00  1.00800000E+00  1.60000000E+01  1.00800000E+00
  1.00800000E+00  1.60000000E+01  1.00800000E+00  1.00800000E+00  1.60000000E+01
  1.00800000E+00  1.00800000E+00  1.60000000E+01  1.00800000E+00  1.00800000E+00
  1.60000000E+01  1.00800000E+00  1.00800000E+00  1.60000000E+01  1.00800000E+00
  1.00800000E+00  1.60000000E+01  1.00800000E+00  1.00800000E+00  1.60000000E+01
  1.00800000E+00  1.00800000E+00  1.60000000E+01  1.00800000E+00  1.00800000E+00
  1.60000000E+01  1.00800000E+00  1.00800000E+00  1.60000000E+01  1.00800000E+00
  1.00800000E+00  1.60000000E+01  1.00800000E+00  1.00800000E+00  1.60000000E+01
  1.00800000E+00  1.00800000E+00  1.60000000E+01  1.00800000E+00  1.00800000E+00
  1.60000000E+01  1.00800000E+00  1.00800000E+00  1.60000000E+01  1.00800000E+00
  1.00800000E+00  1.60000000E+01  1.00800000E+00  1.00800000E+00  1.60000000E+01
  1.00800000E+00  1.00800000E+00  1.60000000E+01  1.00800000E+00  1.00800000E+00
  1.60000000E+01  1.00800000E+00  1.00800000E+00  1.60000000E+01  1.00800000E+00
  1.00800000E+00  1.60000000E+01  1.00800000E+00  1.00800000E+00  1.60000000E+01
  1.00800000E+00  1.00800000E+00  1.60000000E+01  1.00800000E+00  1.00800000E+00
  1.60000000E+01  1.00800000E+00  1.00800000E+00  1.60000000E+01  1.00800000E+00
  1.00800000E+00  1.60000000E+01  1.00800000E+00  1.00800000E+00  1.60000000E+01
  1.00800000E+00  1.00800000E+00  1.60000000E+01  1.00800000E+00  1.00800000E+00
  1.60000000E+01  1.00800000E+00  1.00800000E+00  1.60000000E+01  1.00800000E+00
  1.00800000E+00  1.60000000E+01  1.00800000E+00  1.00800000E+00  1.60000000E+01
  1.00800000E+00  1.00800000E+00  1.60000000E+01  1.00800000E+00  1.00800000E+00
  1.60000000E+01  1.00800000E+00  1.00800000E+00  1.60000000E+01  1.00800000E+00
  1.00800000E+00  1.60000000E+01  1.00800000E+00  1.00800000E+00  1.60000000E+01
  1.00800000E+00  1.00800000E+00  1.60000000E+01  1.00800000E+00  1.00800000E+00
  1.60000000E+01  1.00800000E+00  1.00800000E+00  1.60000000E+01  1.00800000E+00
  1.00800000E+00  1.60000000E+01  1.00800000E+00  1.00800000E+00  1.60000000E+01
  1.00800000E+00  1.00800000E+00  1.60000000E+01  1.00800000E+00  1.00800000E+00
  1.60000000E+01  1.00800000E+00  1.00800000E+00  1.60000000E+01  1.00800000E+00
  1.00800000E+00  1.60000000E+01  1.00800000E+00  1.00800000E+00  1.60000000E+01
  1.00800000E+00  1.00800000E+00  1.60000000E+01  1.00800000E+00  1.00800000E+00
  1.60000000E+01  1.00800000E+00  1.00800000E+00  1.60000000E+01  1.00800000E+00
  1.00800000E+00  1.60000000E+01  1.00800000E+00  1.00800000E+00  1.60000000E+01
  1.00800000E+00  1.00800000E+00  1.60000000E+01  1.00800000E+00  1.00800000E+00
  1.60000000E+01  1.00800000E+00  1.00800000E+00  1.60000000E+01  1.00800000E+00
  1.00800000E+00  1.60000000E+01  1.00800000E+00  1.00800000E+00  1.60000000E+01
  1.00800000E+00  1.00800000E+00  1.60000000E+01  1.00800000E+00  1.00800000E+00
  1.60000000E+01  1.00800000E+00  1.00800000E+00  1.60000000E+01  1.00800000E+00
  1.00800000E+00  1.60000000E+01  1.00800000E+00  1.00800000E+00  1.60000000E+01
  1.00800000E+00  1.00800000E+00  1.60000000E+01  1.00800000E+00  1.00800000E+00
  1.60000000E+01  1.00800000E+00  1.00800000E+00  1.60000000E+01  1.00800000E+00
  1.00800000E+00  1.60000000E+01  1.00800000E+00  1.00800000E+00  1.60000000E+01
  1.00800000E+00  1.00800000E+00  1.60000000E+01  1.00800000E+00  1.00800000E+00
  1.60000000E+01  1.00800000E+00  1.00800000E+00  1.60000000E+01  1.00800000E+00
  1.00800000E+00  1.60000000E+01  1.00800000E+00  1.00800000E+00  1.60000000E+01
  1.00800000E+00  1.00800000E+00  1.60000000E+01  1.00800000E+00  1.00800000E+00
  1.60000000E+01  1.00800000E+00  1.00800000E+00  1.60000000E+01  1.00800000E+00
  1.00800000E+00  1.60000000E+01  1.00800000E+00  1.00800000E+00  1.60000000E+01
  1.00800000E+00  1.00800000E+00  1.60000000E+01  1.00800000E+00  1.00800000E+00
  1.60000000E+01  1.00800000E+00  1.00800000E+00  1.60000000E+01  1.00800000E+00
  1.00800000E+00  1.60000000E+01  1.00800000E+00  1.00800000E+00  1.60000000E+01
  1.00800000E+00  1.00800000E+00  1.60000000E+01  1.00800000E+00  1.00800000E+00
  1.60000000E+01  1.00800000E+00  1.00800000E+00  1.60000000E+01  1.00800000E+00
  1.00800000E+00  1.60000000E+01  1.00800000E+00  1.00800000E+00  1.60000000E+01
  1.00800000E+00  1.00800000E+00  1.60000000E+01  1.00800000E+00  1.00800000E+00
  1.60000000E+01  1.00800000E+00  1.00800000E+00  1.60000000E+01  1.00800000E+00
  1.00800000E+00  1.60000000E+01  1.00800000E+00  1.00800000E+00  1.60000000E+01
  1.00800000E+00  1.00800000E+00  1.60000000E+01  1.00800000E+00  1.00800000E+00
  1.60000000E+01  1.00800000E+00  1.00800000E+00  1.60000000E+01  1.00800000E+00
  1.00800000E+00  1.60000000E+01  1.00800000E+00  1.00800000E+00  1.60000000E+01
  1.00800000E+00  1.00800000E+00  1.60000000E+01  1.00800000E+00  1.00800000E+00
  1.60000000E+01  1.00800000E+00  1.00800000E+00  1.60000000E+01  1.00800000E+00
  1.00800000E+00  1.60000000E+01  1.00800000E+00  1.00800000E+00  1.60000000E+01
  1.00800000E+00  1.00800000E+00  1.60000000E+01  1.00800000E+00  1.00800000E+00
  1.60000000E+01  1.00800000E+00  1.00800000E+00  1.60000000E+01  1.00800000E+00
  1.00800000E+00  1.60000000E+01  1.00800000E+00  1.00800000E+00  1.60000000E+01
  1.00800000E+00  1.00800000E+00  1.60000000E+01  1.00800000E+00  1.00800000E+00
  1.60000000E+01  1.00800000E+00  1.00800000E+00  1.60000000E+01  1.00800000E+00
  1.00800000E+00  1.60000000E+01  1.00800000E+00  1.00800000E+00  1.60000000E+01
  1.00800000E+00  1.00800000E+00  1.60000000E+01  1.00800000E+00  1.00800000E+00
  1.60000000E+01  1.00800000E+00  1.00800000E+00  1.60000000E+01  1.00800000E+00
  1.00800000E+00  1.60000000E+01  1.00800000E+00  1.00800000E+00  1.60000000E+01
  1.00800000E+00  1.00800000E+00  1.60000000E+01  1.00800000E+00  1.00800000E+00
  1.60000000E+01  1.00800000E+00  1.00800000E+00  1.60000000E+01  1.00800000E+00
  1.00800000E+00  1.60000000E+01  1.00800000E+00  1.00800000E+00  1.60000000E+01
  1.00800000E+00  1.00800000E+00  1.60000000E+01  1.00800000E+00  1.00800000E+00
  1.60000000E+01  1.00800000E+00  1.00800000E+00  1.60000000E+01  1.00800000E+00
  1.00800000E+00  1.60000000E+01  1.00800000E+00  1.00800000E+00  1.60000000E+01
  1.00800000E+00  1.00800000E+00  1.60000000E+01  1.00800000E+00  1.00800000E+00
  1.60000000E+01  1.00800000E+00  1.00800000E+00  1.60000000E+01  1.00800000E+00
  1.00800000E+00  1.60000000E+01  1.00800000E+00  1.00800000E+00  1.60000000E+01
  1.00800000E+00  1.00800000E+00  1.60000000E+01  1.00800000E+00  1.00800000E+00
  1.60000000E+01  1.00800000E+00  1.00800000E+00  1.60000000E+01  1.00800000E+00
  1.00800000E+00  1.60000000E+01  1.00800000E+00  1.00800000E+00  1.60000000E+01
  1.00800000E+00  1.00800000E+00  1.60000000E+01  1.00800000E+00  1.00800000E+00
  1.60000000E+01  1.00800000E+00  1.00800000E+00  1.60000000E+01  1.00800000E+00
  1.00800000E+00  1.60000000E+01  1.00800000E+00  1.00800000E+00  1.60000000E+01
  1.00800000E+00  1.00800000E+00  1.60000000E+01  1.00800000E+00  1.00800000E+00
  1.60000000E+01  1.00800000E+00  1.00800000E+00  1.60000000E+01  1.00800000E+00
  1.00800000E+00  1.60000000E+01  1.00800000E+00  1.00800000E+00  1.60000000E+01
  1.00800000E+00  1.00800000E+00  1.60000000E+01  1.00800000E+00  1.00800000E+00
  1.60000000E+01  1.00800000E+00  1.00800000E+00  1.60000000E+01  1.00800000E+00
  1.00800000E+00  1.60000000E+01  1.00800000E+00  1.00800000E+00  1.60000000E+01
  1.00800000E+00  1.00800000E+00  1.60000000E+01  1.00800000E+00  1.00800000E+00
  1.60000000E+01  1.00800000E+00  1.00800000E+00  1.60000000E+01  1.00800000E+00
  1.00800000E+00  1.60000000E+01  1.00800000E+00  1.00800000E+00  1.60000000E+01
  1.00800000E+00  1.00800000E+00  1.60000000E+01  1.00800000E+00  1.00800000E+00
  1.60000000E+01  1.00800000E+00  1.00800000E+00  1.60000000E+01  1.00800000E+00
  1.00800000E+00  1.60000000E+01  1.00800000E+00  1.00800000E+00  1.60000000E+01
  1.00800000E+00  1.00800000E+00  1.60000000E+01  1.00800000E+00  1.00800000E+00
  1.60000000E+01  1.00800000E+00  1.00800000E+00  1.60000000E+01  1.00800000E+00
  1.00800000E+00  1.60000000E+01  1.00800000E+00  1.00800000E+00  1.60000000E+01
  1.00800000E+00  1.00800000E+00  1.60000000E+01  1.00800000E+00  1.00800000E+00
  1.60000000E+01  1.00800000E+00  1.00800000E+00  1.60000000E+01  1.00800000E+00
  1.00800000E+00  1.60000000E+01  1.00800000E+00  1.00800000E+00  1.60000000E+01
  1.00800000E+00  1.00800000E+00  1.60000000E+01  1.00800000E+00  1.00800000E+00
  1.60000000E+01  1.00800000E+00  1.00800000E+00  1.60000000E+01  1.00800000E+00
  1.00800000E+00  1.60000000E+01  1.00800000E+00  1.00800000E+00  1.60000000E+01
  1.00800000E+00  1.00800000E+00  1.60000000E+01  1.00800000E+00  1.00800000E+00
  1.60000000E+01  1.00800000E+00  1.00800000E+00  1.60000000E+01  1.00800000E+00
  1.00800000E+00  1.60000000E+01  1.00800000E+00  1.00800000E+00  1.60000000E+01
  1.00800000E+00  1.00800000E+00  1.60000000E+01  1.00800000E+00  1.00800000E+00
  1.60000000E+01  1.00800000E+00  1.00800000E+00  1.60000000E+01  1.00800000E+00
  1.00800000E+00  1.60000000E+01  1.00800000E+00  1.00800000E+00  1.60000000E+01
  1.00800000E+00  1.00800000E+00  1.60000000E+01  1.00800000E+00  1.00800000E+00
  1.60000000E+01  1.00800000E+00  1.00800000E+00  1.60000000E+01  1.00800000E+00
  1.00800000E+00  1.60000000E+01  1.00800000E+00  1.00800000E+00  1.60000000E+01
  1.00800000E+00  1.00800000E+00  1.60000000E+01  1.00800000E+00  1.00800000E+00
  1.60000000E+01  1.00800000E+00  1.00800000E+00  1.60000000E+01  1.00800000E+00
  1.00800000E+00  1.60000000E+01  1.00800000E+00  1.00800000E+00  1.60000000E+01
  1.00800000E+00  1.00800000E+00  1.60000000E+01  1.00800000E+00  1.00800000E+00
  1.60000000E+01  1.00800000E+00  1.00800000E+00  1.60000000E+01  1.00800000E+00
  1.00800000E+00  1.60000000E+01  1.00800000E+00  1.00800000E+00  1.60000000E+01
  1.00800000E+00  1.00800000E+00  1.60000000E+01  1.00800000E+00  1.00800000E+00
  1.60000000E+01  1.00800000E+00  1.00800000E+00  1.60000000E+01  1.00800000E+00
  1.00800000E+00  1.60000000E+01  1.00800000E+00  1.00800000E+00  1.60000000E+01
  1.00800000E+00  1.00800000E+00  1.60000000E+01  1.00800000E+00  1.00800000E+00
  1.60000000E+01  1.00800000E+00  1.00800000E+00  1.60000000E+01  1.00800000E+00
  1.00800000E+00  1.60000000E+01  1.00800000E+00  1.00800000E+00  1.60000000E+01
  1.00800000E+00  1.00800000E+00  1.60000000E+01  1.00800000E+00  1.00800000E+00
  1.60000000E+01  1.00800000E+00  1.00800000E+00  1.60000000E+01  1.00800000E+00
  1.00800000E+00  1.60000000E+01  1.00800000E+00  1.00800000E+00  1.60000000E+01
  1.00800000E+00  1.00800000E+00  1.60000000E+01  1.00800000E+00  1.00800000E+00
  1.60000000E+01  1.00800000E+00  1.00800000E+00  1.60000000E+01  1.00800000E+00
  1.00800000E+00  1.60000000E+01  1.00800000E+00  1.00800000E+00  1.60000000E+01
  1.00800000E+00  1.00800000E+00  1.60000000E+01  1.00800000E+00  1.00800000E+00
  1.60000000E+01  1.00800000E+00  1.00800000E+00  1.60000000E+01  1.00800000E+00
  1.00800000E+00  1.60000000E+01  1.00800000E+00  1.00800000E+00  1.60000000E+01
  1.00800000E+00  1.00800000E+00  1.60000000E+01  1.00800000E+00  1.00800000E+00
  1.60000000E+01  1.00800000E+00  1.00800000E+00  1.60000000E+01  1.00800000E+00
  1.00800000E+00  1.60000000E+01  1.00800000E+00  1.00800000E+00  1.60000000E+01
  1.00800000E+00  1.00800000E+00  1.60000000E+01  1.00800000E+00  1.00800000E+00
  1.60000000E+01  1.00800000E+00  1.00800000E+00  1.60000000E+01  1.00800000E+00
  1.00800000E+00  1.60000000E+01  1.00800000E+00  1.00800000E+00  1.60000000E+01
  1.00800000E+00  1.00800000E+00  1.60000000E+01  1.00800000E+00  1.00800000E+00
  1.60000000E+01  1.00800000E+00  1.00800000E+00  1.60000000E+01  1.00800000E+00
  1.00800000E+00  1.60000000E+01  1.00800000E+00  1.00800000E+00  1.60000000E+01
  1.00800000E+00  1.00800000E+00  1.60000000E+01  1.00800000E+00  1.00800000E+00
  1.60000000E+01  1.00800000E+00  1.00800000E+00  1.60000000E+01  1.00800000E+00
  1.00800000E+00  1.60000000E+01  1.00800000E+00  1.00800000E+00  1.60000000E+01
  1.00800000E+00  1.00800000E+00  1.60000000E+01  1.00800000E+00  1.00800000E+00
  1.60000000E+01  1.00800000E+00  1.00800000E+00  1.60000000E+01  1.00800000E+00
  1.00800000E+00  1.60000000E+01  1.00800000E+00  1.00800000E+00  1.60000000E+01
  1.00800000E+00  1.00800000E+00  1.60000000E+01  1.00800000E+00  1.00800000E+00
  1.60000000E+01  1.00800000E+00  1.00800000E+00  1.60000000E+01  1.00800000E+00
  1.00800000E+00  1.60000000E+01  1.00800000E+00  1.00800000E+00  1.60000000E+01
  1.00800000E+00  1.00800000E+00  1.60000000E+01  1.00800000E+00  1.00800000E+00
  1.60000000E+01  1.00800000E+00  1.00800000E+00  1.60000000E+01  1.00800000E+00
  1.00800000E+00  1.60000000E+01  1.00800000E+00  1.00800000E+00  1.60000000E+01
  1.00800000E+00  1.00800000E+00  1.60000000E+01  1.00800000E+00  1.00800000E+00
  1.60000000E+01  1.00800000E+00  1.00800000E+00  1.60000000E+01  1.00800000E+00
  1.00800000E+00  1.60000000E+01  1.00800000E+00  1.00800000E+00  1.60000000E+01
  1.00800000E+00  1.00800000E+00  1.60000000E+01  1.00800000E+00  1.00800000E+00
  1.60000000E+01  1.00800000E+00  1.00800000E+00  1.60000000E+01  1.00800000E+00
  1.00800000E+00  1.60000000E+01  1.00800000E+00  1.00800000E+00  1.60000000E+01
  1.00800000E+00  1.00800000E+00  1.60000000E+01  1.00800000E+00  1.00800000E+00
  1.60000000E+01  1.00800000E+00  1.00800000E+00  1.60000000E+01  1.00800000E+00
  1.00800000E+00  1.60000000E+01  1.00800000E+00  1.00800000E+00  1.60000000E+01
  1.00800000E+00  1.00800000E+00  1.60000000E+01  1.00800000E+00  1.00800000E+00
  1.60000000E+01  1.00800000E+00  1.00800000E+00  1.60000000E+01  1.00800000E+00
  1.00800000E+00  1.60000000E+01  1.00800000E+00  1.00800000E+00  1.60000000E+01
  1.00800000E+00  1.00800000E+00  1.60000000E+01  1.00800000E+00  1.00800000E+00
  1.60000000E+01  1.00800000E+00  1.00800000E+00  1.60000000E+01  1.00800000E+00
  1.00800000E+00  1.60000000E+01  1.00800000E+00  1.00800000E+00  1.60000000E+01
  1.00800000E+00  1.00800000E+00  1.60000000E+01  1.00800000E+00  1.00800000E+00
  1.60000000E+01  1.00800000E+00  1.00800000E+00  1.60000000E+01  1.00800000E+00
  1.00800000E+00  1.60000000E+01  1.00800000E+00  1.00800000E+00  1.60000000E+01
  1.00800000E+00  1.00800000E+00  1.60000000E+01  1.00800000E+00  1.00800000E+00
  1.60000000E+01  1.00800000E+00  1.00800000E+00  1.60000000E+01  1.00800000E+00
  1.00800000E+00  1.60000000E+01  1.00800000E+00  1.00800000E+00  1.60000000E+01
  1.00800000E+00  1.00800000E+00  1.60000000E+01  1.00800000E+00  1.00800000E+00
  1.60000000E+01  1.00800000E+00  1.00800000E+00  1.60000000E+01  1.00800000E+00
  1.00800000E+00  1.60000000E+01  1.00800000E+00  1.00800000E+00  1.60000000E+01
  1.00800000E+00  1.00800000E+00  1.60000000E+01  1.00800000E+00  1.00800000E+00
  1.60000000E+01  1.00800000E+00  1.00800000E+00  1.60000000E+01  1.00800000E+00
  1.00800000E+00  1.60000000E+01  1.00800000E+00  1.00800000E+00  1.60000000E+01
  1.00800000E+00  1.00800000E+00  1.60000000E+01  1.00800000E+00  1.00800000E+00
  1.60000000E+01  1.00800000E+00  1.00800000E+00  1.60000000E+01  1.00800000E+00
  1.00800000E+00  1.60000000E+01  1.00800000E+00  1.00800000E+00  1.60000000E+01
  1.00800000E+00  1.00800000E+00  1.60000000E+01  1.00800000E+00  1.00800000E+00
  1.60000000E+01  1.00800000E+00  1.00800000E+00  1.60000000E+01  1.00800000E+00
  1.00800000E+00  1.60000000E+01  1.00800000E+00  1.00800000E+00  1.60000000E+01
  1.00800000E+00  1.00800000E+00  1.60000000E+01  1.00800000E+00  1.00800000E+00
  1.60000000E+01  1.00800000E+00  1.00800000E+00  1.60000000E+01  1.00800000E+00
  1.00800000E+00  1.60000000E+01  1.00800000E+00  1.00800000E+00  1.60000000E+01
  1.00800000E+00  1.00800000E+00  1.60000000E+01  1.00800000E+00  1.00800000E+00
  1.60000000E+01  1.00800000E+00  1.00800000E+00  1.60000000E+01  1.00800000E+00
  1.00800000E+00  1.60000000E+01  1.00800000E+00  1.00800000E+00  1.60000000E+01
  1.00800000E+00  1.00800000E+00  1.60000000E+01  1.00800000E+00  1.00800000E+00
  1.60000000E+01  1.00800000E+00  1.00800000E+00  1.60000000E+01  1.00800000E+00
  1.00800000E+00  1.60000000E+01  1.00800000E+00  1.00800000E+00  1.60000000E+01
  1.00800000E+00  1.00800000E+00  1.60000000E+01  1.00800000E+00  1.00800000E+00
  1.60000000E+01  1.00800000E+00  1.00800000E+00  1.60000000E+01  1.00800000E+00
  1.00800000E+00  1.60000000E+01  1.00800000E+00  1.00800000E+00  1.60000000E+01
  1.00800000E+00  1.00800000E+00  1.60000000E+01  1.00800000E+00  1.00800000E+00
  1.60000000E+01  1.00800000E+00  1.00800000E+00  1.60000000E+01  1.00800000E+00
  1.00800000E+00  1.60000000E+01  1.00800000E+00  1.00800000E+00  1.60000000E+01
  1.00800000E+00  1.00800000E+00  1.60000000E+01  1.00800000E+00  1.00800000E+00
  1.60000000E+01  1.00800000E+00  1.00800000E+00  1.60000000E+01  1.00800000E+00
  1.00800000E+00  1.60000000E+01  1.00800000E+00  1.00800000E+00  1.60000000E+01
  1.00800000E+00  1.00800000E+00  1.60000000E+01  1.00800000E+00  1.00800000E+00
  1.60000000E+01  1.00800000E+00  1.00800000E+00  1.60000000E+01  1.00800000E+00
  1.00800000E+00  1.60000000E+01  1.00800000E+00  1.00800000E+00  1.60000000E+01
  1.00800000E+00  1.00800000E+00  1.60000000E+01  1.00800000E+00  1.00800000E+00
  1.60000000E+01  1.00800000E+00  1.00800000E+00  1.60000000E+01  1.00800000E+00
  1.00800000E+00  1.60000000E+01  1.00800000E+00  1.00800000E+00  1.60000000E+01
  1.00800000E+00  1.00800000E+00  1.60000000E+01  1.00800000E+00  1.00800000E+00
  1.60000000E+01  1.00800000E+00  1.00800000E+00  1.60000000E+01  1.00800000E+00
  1.00800000E+00  1.60000000E+01  1.00800000E+00  1.00800000E+00  1.60000000E+01
  1.00800000E+00  1.00800000E+00  1.60000000E+01  1.00800000E+00  1.00800000E+00
  1.60000000E+01  1.00800000E+00  1.00800000E+00  1.60000000E+01  1.00800000E+00
  1.00800000E+00  1.60000000E+01  1.00800000E+00  1.00800000E+00  1.60000000E+01
  1.00800000E+00  1.00800000E+00  1.60000000E+01  1.00800000E+00  1.00800000E+00
  1.60000000E+01  1.00800000E+00  1.00800000E+00  1.60000000E+01  1.00800000E+00
  1.00800000E+00  1.60000000E+01  1.00800000E+00  1.00800000E+00  1.60000000E+01
  1.00800000E+00  1.00800000E+00  1.60000000E+01  1.00800000E+00  1.00800000E+00
  1.60000000E+01  1.00800000E+00  1.00800000E+00  1.60000000E+01  1.00800000E+00
  1.00800000E+00  1.60000000E+01  1.00800000E+00  1.00800000E+00  1.60000000E+01
  1.00800000E+00  1.00800000E+00  1.60000000E+01  1.00800000E+00  1.00800000E+00
  1.60000000E+01  1.00800000E+00  1.00800000E+00  1.60000000E+01  1.00800000E+00
  1.00800000E+00  1.60000000E+01  1.00800000E+00  1.00800000E+00  1.60000000E+01
  1.00800000E+00  1.00800000E+00  1.60000000E+01  1.00800000E+00  1.00800000E+00
  1.60000000E+01  1.00800000E+00  1.00800000E+00  1.60000000E+01  1.00800000E+00
  1.00800000E+00  1.60000000E+01  1.00800000E+00  1.00800000E+00  1.60000000E+01
  1.00800000E+00  1.00800000E+00  1.60000000E+01  1.00800000E+00  1.00800000E+00
  1.60000000E+01  1.00800000E+00  1.00800000E+00  1.60000000E+01  1.00800000E+00
  1.00800000E+00  1.60000000E+01  1.00800000E+00  1.00800000E+00  1.60000000E+01
  1.00800000E+00  1.00800000E+00  1.60000000E+01  1.00800000E+00  1.00800000E+00
  1.60000000E+01  1.00800000E+00  1.00800000E+00  1.60000000E+01  1.00800000E+00
  1.00800000E+00  1.60000000E+01  1.00800000E+00  1.00800000E+00  1.60000000E+01
  1.00800000E+00  1.00800000E+00  1.60000000E+01  1.00800000E+00  1.00800000E+00
  1.60000000E+01  1.00800000E+00  1.00800000E+00  1.60000000E+01  1.00800000E+00
  1.00800000E+00  1.60000000E+01  1.00800000E+00  1.00800000E+00  1.60000000E+01
  1.00800000E+00  1.00800000E+00  1.60000000E+01  1.00800000E+00  1.00800000E+00
  1.60000000E+01  1.00800000E+00  1.00800000E+00  1.60000000E+01  1.00800000E+00
  1.00800000E+00  1.60000000E+01  1.00800000E+00  1.00800000E+00  1.60000000E+01
  1.00800000E+00  1.00800000E+00  1.60000000E+01  1.00800000E+00  1.00800000E+00
  1.60000000E+01  1.00800000E+00  1.00800000E+00  1.60000000E+01  1.00800000E+00
  1.00800000E+00  1.60000000E+01  1.00800000E+00  1.00800000E+00  1.60000000E+01
  1.00800000E+00  1.00800000E+00  1.60000000E+01  1.00800000E+00  1.00800000E+00
  1.60000000E+01  1.00800000E+00  1.00800000E+00  1.60000000E+01  1.00800000E+00
  1.00800000E+00  1.60000000E+01  1.00800000E+00  1.00800000E+00  1.60000000E+01
  1.00800000E+00  1.00800000E+00  1.60000000E+01  1.00800000E+00  1.00800000E+00
  1.60000000E+01  1.00800000E+00  1.00800000E+00  1.60000000E+01  1.00800000E+00
  1.00800000E+00  1.60000000E+01  1.00800000E+00  1.00800000E+00  1.60000000E+01
  1.00800000E+00  1.00800000E+00  1.60000000E+01  1.00800000E+00  1.00800000E+00
  1.60000000E+01  1.00800000E+00  1.00800000E+00  1.60000000E+01  1.00800000E+00
  1.00800000E+00  1.60000000E+01  1.00800000E+00  1.00800000E+00  1.60000000E+01
  1.00800000E+00  1.00800000E+00  1.60000000E+01  1.00800000E+00  1.00800000E+00
  1.60000000E+01  1.00800000E+00  1.00800000E+00  1.60000000E+01  1.00800000E+00
  1.00800000E+00  1.60000000E+01  1.00800000E+00  1.00800000E+00  1.60000000E+01
  1.00800000E+00  1.00800000E+00  1.60000000E+01  1.00800000E+00  1.00800000E+00
  1.60000000E+01  1.00800000E+00  1.00800000E+00  1.60000000E+01  1.00800000E+00
  1.00800000E+00  1.60000000E+01  1.00800000E+00  1.00800000E+00  1.60000000E+01
  1.00800000E+00  1.00800000E+00  1.60000000E+01  1.00800000E+00  1.00800000E+00
  1.60000000E+01  1.00800000E+00  1.00800000E+00  1.60000000E+01  1.00800000E+00
  1.00800000E+00  1.60000000E+01  1.00800000E+00  1.00800000E+00  1.60000000E+01
  1.00800000E+00  1.00800000E+00  1.60000000E+01  1.00800000E+00  1.00800000E+00
  1.60000000E+01  1.00800000E+00  1.00800000E+00  1.60000000E+01  1.00800000E+00
  1.00800000E+00  1.60000000E+01  1.00800000E+00  1.00800000E+00  1.60000000E+01
  1.00800000E+00  1.00800000E+00  1.60000000E+01  1.00800000E+00  1.00800000E+00
  1.60000000E+01  1.00800000E+00  1.00800000E+00  1.60000000E+01  1.00800000E+00
  1.00800000E+00  1.60000000E+01  1.00800000E+00  1.00800000E+00  1.60000000E+01
  1.00800000E+00  1.00800000E+00  1.60000000E+01  1.00800000E+00  1.00800000E+00
  1.60000000E+01  1.00800000E+00  1.00800000E+00  1.60000000E+01  1.00800000E+00
  1.00800000E+00  1.60000000E+01  1.00800000E+00  1.00800000E+00  1.60000000E+01
  1.00800000E+00  1.00800000E+00  1.60000000E+01  1.00800000E+00  1.00800000E+00
  1.60000000E+01  1.00800000E+00  1.00800000E+00  1.60000000E+01  1.00800000E+00
  1.00800000E+00  1.60000000E+01  1.00800000E+00  1.00800000E+00  1.60000000E+01
  1.00800000E+00  1.00800000E+00  1.60000000E+01  1.00800000E+00  1.00800000E+00
  1.60000000E+01  1.00800000E+00  1.00800000E+00  1.60000000E+01  1.00800000E+00
  1.00800000E+00  1.60000000E+01  1.00800000E+00  1.00800000E+00  1.60000000E+01
  1.00800000E+00  1.00800000E+00  1.60000000E+01  1.00800000E+00  1.00800000E+00
  1.60000000E+01  1.00800000E+00  1.00800000E+00  1.60000000E+01  1.00800000E+00
  1.00800000E+00  1.60000000E+01  1.00800000E+00  1.00800000E+00  1.60000000E+01
  1.00800000E+00  1.00800000E+00  1.60000000E+01  1.00800000E+00  1.00800000E+00
  1.60000000E+01  1.00800000E+00  1.00800000E+00  1.60000000E+01  1.00800000E+00
  1.00800000E+00  1.60000000E+01  1.00800000E+00  1.00800000E+00  1.60000000E+01
  1.00800000E+00  1.00800000E+00  1.60000000E+01  1.00800000E+00  1.00800000E+00
  1.60000000E+01  1.00800000E+00  1.00800000E+00  1.60000000E+01  1.00800000E+00
  1.00800000E+00  1.60000000E+01  1.00800000E+00  1.00800000E+00  1.60000000E+01
  1.00800000E+00  1.00800000E+00  1.60000000E+01  1.00800000E+00  1.00800000E+00
  1.60000000E+01  1.00800000E+00  1.00800000E+00  1.60000000E+01  1.00800000E+00
  1.00800000E+00  1.60000000E+01  1.00800000E+00  1.00800000E+00  1.60000000E+01
  1.00800000E+00  1.00800000E+00  1.60000000E+01  1.00800000E+00  1.00800000E+00
  1.60000000E+01  1.00800000E+00  1.00800000E+00  1.60000000E+01  1.00800000E+00
  1.00800000E+00  1.60000000E+01  1.00800000E+00  1.00800000E+00  1.60000000E+01
  1.00800000E+00  1.00800000E+00  1.60000000E+01  1.00800000E+00  1.00800000E+00
  1.60000000E+01  1.00800000E+00  1.00800000E+00  1.60000000E+01  1.00800000E+00
  1.00800000E+00  1.60000000E+01  1.00800000E+00  1.00800000E+00  1.60000000E+01
  1.00800000E+00  1.00800000E+00  1.60000000E+01  1.00800000E+00  1.00800000E+00
  1.60000000E+01  1.00800000E+00  1.00800000E+00  1.60000000E+01  1.00800000E+00
  1.00800000E+00  1.60000000E+01  1.00800000E+00  1.00800000E+00  1.60000000E+01
  1.00800000E+00  1.00800000E+00  1.60000000E+01  1.00800000E+00  1.00800000E+00
  1.60000000E+01  1.00800000E+00  1.00800000E+00  1.60000000E+01  1.00800000E+00
  1.00800000E+00  1.60000000E+01  1.00800000E+00  1.00800000E+00  1.60000000E+01
  1.00800000E+00  1.00800000E+00  1.60000000E+01  1.00800000E+00  1.00800000E+00
  1.60000000E+01  1.00800000E+00  1.00800000E+00  1.60000000E+01  1.00800000E+00
  1.00800000E+00  1.60000000E+01  1.00800000E+00  1.00800000E+00  1.60000000E+01
  1.00800000E+00  1.00800000E+00  1.60000000E+01  1.00800000E+00  1.00800000E+00
  1.60000000E+01  1.00800000E+00  1.00800000E+00  1.60000000E+01  1.00800000E+00
  1.00800000E+00  1.60000000E+01  1.00800000E+00  1.00800000E+00  1.60000000E+01
  1.00800000E+00  1.00800000E+00  1.60000000E+01  1.00800000E+00  1.00800000E+00
  1.60000000E+01  1.00800000E+00  1.00800000E+00  1.60000000E+01  1.00800000E+00
  1.00800000E+00  1.60000000E+01  1.00800000E+00  1.00800000E+00  1.60000000E+01
  1.00800000E+00  1.00800000E+00  1.60000000E+01  1.00800000E+00  1.00800000E+00
  1.60000000E+01  1.00800000E+00  1.00800000E+00  1.60000000E+01  1.00800000E+00
  1.00800000E+00  1.60000000E+01  1.00800000E+00  1.00800000E+00  1.60000000E+01
  1.00800000E+00  1.00800000E+00  1.60000000E+01  1.00800000E+00  1.00800000E+00
  1.60000000E+01  1.00800000E+00  1.00800000E+00  1.60000000E+01  1.00800000E+00
  1.00800000E+00  1.60000000E+01  1.00800000E+00  1.00800000E+00  1.60000000E+01
  1.00800000E+00  1.00800000E+00  1.60000000E+01  1.00800000E+00  1.00800000E+00
  1.60000000E+01  1.00800000E+00  1.00800000E+00  1.60000000E+01  1.00800000E+00
  1.00800000E+00  1.60000000E+01  1.00800000E+00  1.00800000E+00  1.60000000E+01
  1.00800000E+00  1.00800000E+00  1.60000000E+01  1.00800000E+00  1.00800000E+00
  1.60000000E+01  1.00800000E+00  1.00800000E+00  1.60000000E+01  1.00800000E+00
  1.00800000E+00  1.60000000E+01  1.00800000E+00  1.00800000E+00  1.60000000E+01
  1.00800000E+00  1.00800000E+00  1.60000000E+01  1.00800000E+00  1.00800000E+00
  1.60000000E+01  1.00800000E+00  1.00800000E+00  1.60000000E+01  1.00800000E+00
  1.00800000E+00  1.60000000E+01  1.00800000E+00  1.00800000E+00  1.60000000E+01
  1.00800000E+00  1.00800000E+00  1.60000000E+01  1.00800000E+00  1.00800000E+00
  1.60000000E+01  1.00800000E+00  1.00800000E+00  1.60000000E+01  1.00800000E+00
  1.00800000E+00  1.60000000E+01  1.00800000E+00  1.00800000E+00  1.60000000E+01
  1.00800000E+00  1.00800000E+00  1.60000000E+01  1.00800000E+00  1.00800000E+00
  1.60000000E+01  1.00800000E+00  1.00800000E+00  1.60000000E+01  1.00800000E+00
  1.00800000E+00  1.60000000E+01  1.00800000E+00  1.00800000E+00  1.60000000E+01
  1.00800000E+00  1.00800000E+00  1.60000000E+01  1.00800000E+00  1.00800000E+00
  1.60000000E+01  1.00800000E+00  1.00800000E+00  1.60000000E+01  1.00800000E+00
  1.00800000E+00  1.60000000E+01  1.00800000E+00  1.00800000E+00  1.60000000E+01
  1.00800000E+00  1.00800000E+00  1.60000000E+01  1.00800000E+00  1.00800000E+00
  1.60000000E+01  1.00800000E+00  1.00800000E+00  1.60000000E+01  1.00800000E+00
  1.00800000E+00  1.60000000E+01  1.00800000E+00  1.00800000E+00  1.60000000E+01
  1.00800000E+00  1.00800000E+00  1.60000000E+01  1.00800000E+00  1.00800000E+00
  1.60000000E+01  1.00800000E+00  1.00800000E+00  1.60000000E+01  1.00800000E+00
  1.00800000E+00  1.60000000E+01  1.00800000E+00  1.00800000E+00  1.60000000E+01
  1.00800000E+00  1.00800000E+00  1.60000000E+01  1.00800000E+00  1.00800000E+00
  1.60000000E+01  1.00800000E+00  1.00800000E+00  1.60000000E+01  1.00800000E+00
  1.00800000E+00  1.60000000E+01  1.00800000E+00  1.00800000E+00  1.60000000E+01
  1.00800000E+00  1.00800000E+00  1.60000000E+01  1.00800000E+00  1.00800000E+00
  1.60000000E+01  1.00800000E+00  1.00800000E+00  1.60000000E+01  1.00800000E+00
  1.00800000E+00  1.60000000E+01  1.00800000E+00  1.00800000E+00  1.60000000E+01
  1.00800000E+00  1.00800000E+00  1.60000000E+01  1.00800000E+00  1.00800000E+00
  1.60000000E+01  1.00800000E+00  1.00800000E+00  1.60000000E+01  1.00800000E+00
  1.00800000E+00  1.60000000E+01  1.00800000E+00  1.00800000E+00  1.60000000E+01
  1.00800000E+00  1.00800000E+00  1.60000000E+01  1.00800000E+00  1.00800000E+00
  1.60000000E+01  1.00800000E+00  1.00800000E+00  1.60000000E+01  1.00800000E+00
  1.00800000E+00  1.60000000E+01  1.00800000E+00  1.00800000E+00  1.60000000E+01
  1.00800000E+00  1.00800000E+00  1.60000000E+01  1.00800000E+00  1.00800000E+00
  1.60000000E+01  1.00800000E+00  1.00800000E+00  1.60000000E+01  1.00800000E+00
  1.00800000E+00  1.60000000E+01  1.00800000E+00  1.00800000E+00  1.60000000E+01
  1.00800000E+00  1.00800000E+00  1.60000000E+01  1.00800000E+00  1.00800000E+00
  1.60000000E+01  1.00800000E+00  1.00800000E+00  1.60000000E+01  1.00800000E+00
  1.00800000E+00  1.60000000E+01  1.00800000E+00  1.00800000E+00  1.60000000E+01
  1.00800000E+00  1.00800000E+00  1.60000000E+01  1.00800000E+00  1.00800000E+00
  1.60000000E+01  1.00800000E+00  1.00800000E+00  1.60000000E+01  1.00800000E+00
  1.00800000E+00  1.60000000E+01  1.00800000E+00  1.00800000E+00  1.60000000E+01
  1.00800000E+00  1.00800000E+00  1.60000000E+01  1.00800000E+00  1.00800000E+00
  1.60000000E+01  1.00800000E+00  1.00800000E+00  1.60000000E+01  1.00800000E+00
  1.00800000E+00  1.60000000E+01  1.00800000E+00  1.00800000E+00  1.60000000E+01
  1.00800000E+00  1.00800000E+00  1.60000000E+01  1.00800000E+00  1.00800000E+00
  1.60000000E+01  1.00800000E+00  1.00800000E+00  1.60000000E+01  1.00800000E+00
  1.00800000E+00  1.60000000E+01  1.00800000E+00  1.00800000E+00  1.60000000E+01
  1.00800000E+00  1.00800000E+00  1.60000000E+01  1.00800000E+00  1.00800000E+00
  1.60000000E+01  1.00800000E+00  1.00800000E+00  1.60000000E+01  1.00800000E+00
  1.00800000E+00  1.60000000E+01  1.00800000E+00  1.00800000E+00  1.60000000E+01
  1.00800000E+00  1.00800000E+00  1.60000000E+01  1.00800000E+00  1.00800000E+00
  1.60000000E+01  1.00800000E+00  1.00800000E+00  1.60000000E+01  1.00800000E+00
  1.00800000E+00  1.60000000E+01  1.00800000E+00  1.00800000E+00  1.60000000E+01
  1.00800000E+00  1.00800000E+00  1.60000000E+01  1.00800000E+00  1.00800000E+00
  1.60000000E+01  1.00800000E+00  1.00800000E+00  1.60000000E+01  1.00800000E+00
  1.00800000E+00  1.60000000E+01  1.00800000E+00  1.00800000E+00  1.60000000E+01
  1.00800000E+00  1.00800000E+00  1.60000000E+01  1.00800000E+00  1.00800000E+00
  1.60000000E+01  1.00800000E+00  1.00800000E+00  1.60000000E+01  1.00800000E+00
  1.00800000E+00  1.60000000E+01  1.00800000E+00  1.00800000E+00  1.60000000E+01
  1.00800000E+00  1.00800000E+00  1.60000000E+01  1.00800000E+00  1.00800000E+00
  1.60000000E+01  1.00800000E+00  1.00800000E+00  1.60000000E+01  1.00800000E+00
  1.00800000E+00  1.60000000E+01  1.00800000E+00  1.00800000E+00  1.60000000E+01
  1.00800000E+00  1.00800000E+00  1.60000000E+01  1.00800000E+00  1.00800000E+00
  1.60000000E+01  1.00800000E+00  1.00800000E+00  1.60000000E+01  1.00800000E+00
  1.00800000E+00  1.60000000E+01  1.00800000E+00  1.00800000E+00  1.60000000E+01
  1.00800000E+00  1.00800000E+00  1.60000000E+01  1.00800000E+00  1.00800000E+00
  1.60000000E+01  1.00800000E+00  1.00800000E+00  1.60000000E+01  1.00800000E+00
  1.00800000E+00  1.60000000E+01  1.00800000E+00  1.00800000E+00  1.60000000E+01
  1.00800000E+00  1.00800000E+00  1.60000000E+01  1.00800000E+00  1.00800000E+00
  1.60000000E+01  1.00800000E+00  1.00800000E+00  1.60000000E+01  1.00800000E+00
  1.00800000E+00  1.60000000E+01  1.00800000E+00  1.00800000E+00  1.60000000E+01
  1.00800000E+00  1.00800000E+00  1.60000000E+01  1.00800000E+00  1.00800000E+00
  1.60000000E+01  1.00800000E+00  1.00800000E+00  1.60000000E+01  1.00800000E+00
  1.00800000E+00  1.60000000E+01  1.00800000E+00  1.00800000E+00  1.60000000E+01
  1.00800000E+00  1.00800000E+00  1.60000000E+01  1.00800000E+00  1.00800000E+00
  1.60000000E+01  1.00800000E+00  1.00800000E+00  1.60000000E+01  1.00800000E+00
  1.00800000E+00  1.60000000E+01  1.00800000E+00  1.00800000E+00  1.60000000E+01
  1.00800000E+00  1.00800000E+00  1.60000000E+01  1.00800000E+00  1.00800000E+00
  1.60000000E+01  1.00800000E+00  1.00800000E+00  1.60000000E+01  1.00800000E+00
  1.00800000E+00  1.60000000E+01  1.00800000E+00  1.00800000E+00  1.60000000E+01
  1.00800000E+00  1.00800000E+00  1.60000000E+01  1.00800000E+00  1.00800000E+00
  1.60000000E+01  1.00800000E+00  1.00800000E+00  1.60000000E+01  1.00800000E+00
  1.00800000E+00  1.60000000E+01  1.00800000E+00  1.00800000E+00  1.60000000E+01
  1.00800000E+00  1.00800000E+00  1.60000000E+01  1.00800000E+00  1.00800000E+00
  1.60000000E+01  1.00800000E+00  1.00800000E+00  1.60000000E+01  1.00800000E+00
  1.00800000E+00  1.60000000E+01  1.00800000E+00  1.00800000E+00  1.60000000E+01
  1.00800000E+00  1.00800000E+00  1.60000000E+01  1.00800000E+00  1.00800000E+00
  1.60000000E+01  1.00800000E+00  1.00800000E+00  1.60000000E+01  1.00800000E+00
  1.00800000E+00  1.60000000E+01  1.00800000E+00  1.00800000E+00  1.60000000E+01
  1.00800000E+00  1.00800000E+00  1.60000000E+01  1.00800000E+00  1.00800000E+00
  1.60000000E+01  1.00800000E+00  1.00800000E+00  1.60000000E+01  1.00800000E+00
  1.00800000E+00  1.60000000E+01  1.00800000E+00  1.00800000E+00  1.60000000E+01
  1.00800000E+00  1.00800000E+00  1.60000000E+01  1.00800000E+00  1.00800000E+00
  1.60000000E+01  1.00800000E+00  1.00800000E+00  1.60000000E+01  1.00800000E+00
  1.00800000E+00  1.60000000E+01  1.00800000E+00  1.00800000E+00  1.60000000E+01
  1.00800000E+00  1.00800000E+00  1.60000000E+01  1.00800000E+00  1.00800000E+00
  1.60000000E+01  1.00800000E+00  1.00800000E+00  1.60000000E+01  1.00800000E+00
  1.00800000E+00  1.60000000E+01  1.00800000E+00  1.00800000E+00  1.60000000E+01
  1.00800000E+00  1.00800000E+00  1.60000000E+01  1.00800000E+00  1.00800000E+00
  1.60000000E+01  1.00800000E+00  1.00800000E+00  1.60000000E+01  1.00800000E+00
  1.00800000E+00  1.60000000E+01  1.00800000E+00  1.00800000E+00  1.60000000E+01
  1.00800000E+00  1.00800000E+00  1.60000000E+01  1.00800000E+00  1.00800000E+00
  1.60000000E+01  1.00800000E+00  1.00800000E+00  1.60000000E+01  1.00800000E+00
  1.00800000E+00  1.60000000E+01  1.00800000E+00  1.00800000E+00  1.60000000E+01
  1.00800000E+00  1.00800000E+00  1.60000000E+01  1.00800000E+00  1.00800000E+00
  1.60000000E+01  1.00800000E+00  1.00800000E+00  1.60000000E+01  1.00800000E+00
  1.00800000E+00  1.60000000E+01  1.00800000E+00  1.00800000E+00  1.60000000E+01
  1.00800000E+00  1.00800000E+00  1.60000000E+01  1.00800000E+00  1.00800000E+00
  1.60000000E+01  1.00800000E+00  1.00800000E+00  1.60000000E+01  1.00800000E+00
  1.00800000E+00  1.60000000E+01  1.00800000E+00  1.00800000E+00  1.60000000E+01
  1.00800000E+00  1.00800000E+00  1.60000000E+01  1.00800000E+00  1.00800000E+00
  1.60000000E+01  1.00800000E+00  1.00800000E+00  1.60000000E+01  1.00800000E+00
  1.00800000E+00  1.60000000E+01  1.00800000E+00  1.00800000E+00  1.60000000E+01
  1.00800000E+00  1.00800000E+00  1.60000000E+01  1.00800000E+00  1.00800000E+00
  1.60000000E+01  1.00800000E+00  1.00800000E+00  1.60000000E+01  1.00800000E+00
  1.00800000E+00  1.60000000E+01  1.00800000E+00  1.00800000E+00  1.60000000E+01
  1.00800000E+00  1.00800000E+00  1.60000000E+01  1.00800000E+00  1.00800000E+00
  1.60000000E+01  1.00800000E+00  1.00800000E+00  1.60000000E+01  1.00800000E+00
  1.00800000E+00  1.60000000E+01  1.00800000E+00  1.00800000E+00  1.60000000E+01
  1.00800000E+00  1.00800000E+00  1.60000000E+01  1.00800000E+00  1.00800000E+00
  1.60000000E+01  1.00800000E+00  1.00800000E+00  1.60000000E+01  1.00800000E+00
  1.00800000E+00  1.60000000E+01  1.00800000E+00  1.00800000E+00  1.60000000E+01
  1.00800000E+00  1.00800000E+00  1.60000000E+01  1.00800000E+00  1.00800000E+00
  1.60000000E+01  1.00800000E+00  1.00800000E+00  1.60000000E+01  1.00800000E+00
  1.00800000E+00  1.60000000E+01  1.00800000E+00  1.00800000E+00  1.60000000E+01
  1.00800000E+00  1.00800000E+00  1.60000000E+01  1.00800000E+00  1.00800000E+00
  1.60000000E+01  1.00800000E+00  1.00800000E+00  1.60000000E+01  1.00800000E+00
  1.00800000E+00  1.60000000E+01  1.00800000E+00  1.00800000E+00  1.60000000E+01
  1.00800000E+00  1.00800000E+00  1.60000000E+01  1.00800000E+00  1.00800000E+00
  1.60000000E+01  1.00800000E+00  1.00800000E+00  1.60000000E+01  1.00800000E+00
  1.00800000E+00  1.60000000E+01  1.00800000E+00  1.00800000E+00  1.60000000E+01
  1.00800000E+00  1.00800000E+00  1.60000000E+01  1.00800000E+00  1.00800000E+00
  1.60000000E+01  1.00800000E+00  1.00800000E+00  1.60000000E+01  1.00800000E+00
  1.00800000E+00  1.60000000E+01  1.00800000E+00  1.00800000E+00  1.60000000E+01
  1.00800000E+00  1.00800000E+00  1.60000000E+01  1.00800000E+00  1.00800000E+00
  1.60000000E+01  1.00800000E+00  1.00800000E+00  1.60000000E+01  1.00800000E+00
  1.00800000E+00  1.60000000E+01  1.00800000E+00  1.00800000E+00  1.60000000E+01
  1.00800000E+00  1.00800000E+00  1.60000000E+01  1.00800000E+00  1.00800000E+00
  1.60000000E+01  1.00800000E+00  1.00800000E+00  1.60000000E+01  1.00800000E+00
  1.00800000E+00  1.60000000E+01  1.00800000E+00  1.00800000E+00  1.60000000E+01
  1.00800000E+00  1.00800000E+00  1.60000000E+01  1.00800000E+00  1.00800000E+00
  1.60000000E+01  1.00800000E+00  1.00800000E+00  1.60000000E+01  1.00800000E+00
  1.00800000E+00  1.60000000E+01  1.00800000E+00  1.00800000E+00  1.60000000E+01
  1.00800000E+00  1.00800000E+00  1.60000000E+01  1.00800000E+00  1.00800000E+00
  1.60000000E+01  1.00800000E+00  1.00800000E+00  1.60000000E+01  1.00800000E+00
  1.00800000E+00  1.60000000E+01  1.00800000E+00  1.00800000E+00  1.60000000E+01
  1.00800000E+00  1.00800000E+00  1.60000000E+01  1.00800000E+00  1.00800000E+00
  1.60000000E+01  1.00800000E+00  1.00800000E+00  1.60000000E+01  1.00800000E+00
  1.00800000E+00  1.60000000E+01  1.00800000E+00  1.00800000E+00  1.60000000E+01
  1.00800000E+00  1.00800000E+00  1.60000000E+01  1.00800000E+00  1.00800000E+00
  1.60000000E+01  1.00800000E+00  1.00800000E+00  1.60000000E+01  1.00800000E+00
  1.00800000E+00  1.60000000E+01  1.00800000E+00  1.00800000E+00  1.60000000E+01
  1.00800000E+00  1.00800000E+00  1.60000000E+01  1.00800000E+00  1.00800000E+00
  1.60000000E+01  1.00800000E+00  1.00800000E+00  1.60000000E+01  1.00800000E+00
  1.00800000E+00  1.60000000E+01  1.00800000E+00  1.00800000E+00  1.60000000E+01
  1.00800000E+00  1.00800000E+00  1.60000000E+01  1.00800000E+00  1.00800000E+00
  1.60000000E+01  1.00800000E+00  1.00800000E+00  1.60000000E+01  1.00800000E+00
  1.00800000E+00  1.60000000E+01  1.00800000E+00  1.00800000E+00  1.60000000E+01
  1.00800000E+00  1.00800000E+00  1.60000000E+01  1.00800000E+00  1.00800000E+00
  1.60000000E+01  1.00800000E+00  1.00800000E+00  1.60000000E+01  1.00800000E+00
  1.00800000E+00  1.60000000E+01  1.00800000E+00  1.00800000E+00  1.60000000E+01
  1.00800000E+00  1.00800000E+00  1.60000000E+01  1.00800000E+00  1.00800000E+00
  1.60000000E+01  1.00800000E+00  1.00800000E+00  1.60000000E+01  1.00800000E+00
  1.00800000E+00  1.60000000E+01  1.00800000E+00  1.00800000E+00  1.60000000E+01
  1.00800000E+00  1.00800000E+00  1.60000000E+01  1.00800000E+00  1.00800000E+00
  1.60000000E+01  1.00800000E+00  1.00800000E+00  1.60000000E+01  1.00800000E+00
  1.00800000E+00  1.60000000E+01  1.00800000E+00  1.00800000E+00  1.60000000E+01
  1.00800000E+00  1.00800000E+00  1.60000000E+01  1.00800000E+00  1.00800000E+00
  1.60000000E+01  1.00800000E+00  1.00800000E+00  1.60000000E+01  1.00800000E+00
  1.00800000E+00  1.60000000E+01  1.00800000E+00  1.00800000E+00  1.60000000E+01
  1.00800000E+00  1.00800000E+00  1.60000000E+01  1.00800000E+00  1.00800000E+00
  1.60000000E+01  1.00800000E+00  1.00800000E+00  1.60000000E+01  1.00800000E+00
  1.00800000E+00  1.60000000E+01  1.00800000E+00  1.00800000E+00  1.60000000E+01
  1.00800000E+00  1.00800000E+00  1.60000000E+01  1.00800000E+00  1.00800000E+00
  1.60000000E+01  1.00800000E+00  1.00800000E+00  1.60000000E+01  1.00800000E+00
  1.00800000E+00  1.60000000E+01  1.00800000E+00  1.00800000E+00  1.60000000E+01
  1.00800000E+00  1.00800000E+00  1.60000000E+01  1.00800000E+00  1.00800000E+00
  1.60000000E+01  1.00800000E+00  1.00800000E+00  1.60000000E+01  1.00800000E+00
  1.00800000E+00  1.60000000E+01  1.00800000E+00  1.00800000E+00  1.60000000E+01
  1.00800000E+00  1.00800000E+00  1.60000000E+01  1.00800000E+00  1.00800000E+00
  1.60000000E+01  1.00800000E+00  1.00800000E+00  1.60000000E+01  1.00800000E+00
  1.00800000E+00  1.60000000E+01  1.00800000E+00  1.00800000E+00  1.60000000E+01
  1.00800000E+00  1.00800000E+00  1.60000000E+01  1.00800000E+00  1.00800000E+00
  1.60000000E+01  1.00800000E+00  1.00800000E+00  1.60000000E+01  1.00800000E+00
  1.00800000E+00  1.60000000E+01  1.00800000E+00  1.00800000E+00  1.60000000E+01
  1.00800000E+00  1.00800000E+00  1.60000000E+01  1.00800000E+00  1.00800000E+00
  1.60000000E+01  1.00800000E+00  1.00800000E+00  1.60000000E+01  1.00800000E+00
  1.00800000E+00  1.60000000E+01  1.00800000E+00  1.00800000E+00  1.60000000E+01
  1.00800000E+00  1.00800000E+00  1.60000000E+01  1.00800000E+00  1.00800000E+00
  1.60000000E+01  1.00800000E+00  1.00800000E+00  1.60000000E+01  1.00800000E+00
  1.00800000E+00  1.60000000E+01  1.00800000E+00  1.00800000E+00  1.60000000E+01
  1.00800000E+00  1.00800000E+00  1.60000000E+01  1.00800000E+00  1.00800000E+00
  1.60000000E+01  1.00800000E+00  1.00800000E+00  1.60000000E+01  1.00800000E+00
  1.00800000E+00  1.60000000E+01  1.00800000E+00  1.00800000E+00  1.60000000E+01
  1.00800000E+00  1.00800000E+00  1.60000000E+01  1.00800000E+00  1.00800000E+00
  1.60000000E+01  1.00800000E+00  1.00800000E+00  1.60000000E+01  1.00800000E+00
  1.00800000E+00  1.60000000E+01  1.00800000E+00  1.00800000E+00  1.60000000E+01
  1.00800000E+00  1.00800000E+00  1.60000000E+01  1.00800000E+00  1.00800000E+00
  1.60000000E+01  1.00800000E+00  1.00800000E+00  1.60000000E+01  1.00800000E+00
  1.00800000E+00  1.60000000E+01  1.00800000E+00  1.00800000E+00  1.60000000E+01
  1.00800000E+00  1.00800000E+00  1.60000000E+01  1.00800000E+00  1.00800000E+00
  1.60000000E+01  1.00800000E+00  1.00800000E+00  1.60000000E+01  1.00800000E+00
  1.00800000E+00  1.60000000E+01  1.00800000E+00  1.00800000E+00  1.60000000E+01
  1.00800000E+00  1.00800000E+00  1.60000000E+01  1.00800000E+00  1.00800000E+00
  1.60000000E+01  1.00800000E+00  1.00800000E+00  1.60000000E+01  1.00800000E+00
  1.00800000E+00  1.60000000E+01  1.00800000E+00  1.00800000E+00  1.60000000E+01
  1.00800000E+00  1.00800000E+00  1.60000000E+01  1.00800000E+00  1.00800000E+00
  1.60000000E+01  1.00800000E+00  1.00800000E+00  1.60000000E+01  1.00800000E+00
  1.00800000E+00  1.60000000E+01  1.00800000E+00  1.00800000E+00  1.60000000E+01
  1.00800000E+00  1.00800000E+00  1.60000000E+01  1.00800000E+00  1.00800000E+00
  1.60000000E+01  1.00800000E+00  1.00800000E+00  1.60000000E+01  1.00800000E+00
  1.00800000E+00  1.60000000E+01  1.00800000E+00  1.00800000E+00  1.60000000E+01
  1.00800000E+00  1.00800000E+00  1.60000000E+01  1.00800000E+00  1.00800000E+00
  1.60000000E+01  1.00800000E+00  1.00800000E+00  1.60000000E+01  1.00800000E+00
  1.00800000E+00  1.60000000E+01  1.00800000E+00  1.00800000E+00  1.60000000E+01
  1.00800000E+00  1.00800000E+00  1.60000000E+01  1.00800000E+00  1.00800000E+00
  1.60000000E+01  1.00800000E+00  1.00800000E+00  1.60000000E+01  1.00800000E+00
  1.00800000E+00  1.60000000E+01  1.00800000E+00  1.00800000E+00  1.60000000E+01
  1.00800000E+00  1.00800000E+00  1.60000000E+01  1.00800000E+00  1.00800000E+00
  1.60000000E+01  1.00800000E+00  1.00800000E+00  1.60000000E+01  1.00800000E+00
  1.00800000E+00  1.60000000E+01  1.00800000E+00  1.00800000E+00  1.60000000E+01
  1.00800000E+00  1.00800000E+00  1.60000000E+01  1.00800000E+00  1.00800000E+00
  1.60000000E+01  1.00800000E+00  1.00800000E+00  1.60000000E+01  1.00800000E+00
  1.00800000E+00  1.60000000E+01  1.00800000E+00  1.00800000E+00  1.60000000E+01
  1.00800000E+00  1.00800000E+00  1.60000000E+01  1.00800000E+00  1.00800000E+00
  1.60000000E+01  1.00800000E+00  1.00800000E+00  1.60000000E+01  1.00800000E+00
  1.00800000E+00  1.60000000E+01  1.00800000E+00  1.00800000E+00  1.60000000E+01
  1.00800000E+00  1.00800000E+00  1.60000000E+01  1.00800000E+00  1.00800000E+00
  1.60000000E+01  1.00800000E+00  1.00800000E+00  1.60000000E+01  1.00800000E+00
  1.00800000E+00  1.60000000E+01  1.00800000E+00  1.00800000E+00  1.60000000E+01
  1.00800000E+00  1.00800000E+00  1.60000000E+01  1.00800000E+00  1.00800000E+00
  1.60000000E+01  1.00800000E+00  1.00800000E+00  1.60000000E+01  1.00800000E+00
  1.00800000E+00  1.60000000E+01  1.00800000E+00  1.00800000E+00  1.60000000E+01
  1.00800000E+00  1.00800000E+00  1.60000000E+01  1.00800000E+00  1.00800000E+00
  1.60000000E+01  1.00800000E+00  1.00800000E+00  1.60000000E+01  1.00800000E+00
  1.00800000E+00  1.60000000E+01  1.00800000E+00  1.00800000E+00  1.60000000E+01
  1.00800000E+00  1.00800000E+00  1.60000000E+01  1.00800000E+00  1.00800000E+00
  1.60000000E+01  1.00800000E+00  1.00800000E+00  1.60000000E+01  1.00800000E+00
  1.00800000E+00  1.60000000E+01  1.00800000E+00  1.00800000E+00  1.60000000E+01
  1.00800000E+00  1.00800000E+00  1.60000000E+01  1.00800000E+00  1.00800000E+00
  1.60000000E+01  1.00800000E+00  1.00800000E+00  1.60000000E+01  1.00800000E+00
  1.00800000E+00  1.60000000E+01  1.00800000E+00  1.00800000E+00  1.60000000E+01
  1.00800000E+00  1.00800000E+00  1.60000000E+01  1.00800000E+00  1.00800000E+00
  1.60000000E+01  1.00800000E+00  1.00800000E+00  1.60000000E+01  1.00800000E+00
  1.00800000E+00  1.60000000E+01  1.00800000E+00  1.00800000E+00  1.60000000E+01
  1.00800000E+00  1.00800000E+00  1.60000000E+01  1.00800000E+00  1.00800000E+00
  1.60000000E+01  1.00800000E+00  1.00800000E+00  1.60000000E+01  1.00800000E+00
  1.00800000E+00  1.60000000E+01  1.00800000E+00  1.00800000E+00  1.60000000E+01
  1.00800000E+00  1.00800000E+00  1.60000000E+01  1.00800000E+00  1.00800000E+00
  1.60000000E+01  1.00800000E+00  1.00800000E+00  1.60000000E+01  1.00800000E+00
  1.00800000E+00  1.60000000E+01  1.00800000E+00  1.00800000E+00  1.60000000E+01
  1.00800000E+00  1.00800000E+00  1.60000000E+01  1.00800000E+00  1.00800000E+00
  1.60000000E+01  1.00800000E+00  1.00800000E+00  1.60000000E+01  1.00800000E+00
  1.00800000E+00  1.60000000E+01  1.00800000E+00  1.00800000E+00  1.60000000E+01
  1.00800000E+00  1.00800000E+00  1.60000000E+01  1.00800000E+00  1.00800000E+00
  1.60000000E+01  1.00800000E+00  1.00800000E+00  1.60000000E+01  1.00800000E+00
  1.00800000E+00  1.60000000E+01  1.00800000E+00  1.00800000E+00  1.60000000E+01
  1.00800000E+00  1.00800000E+00  1.60000000E+01  1.00800000E+00  1.00800000E+00
  1.60000000E+01  1.00800000E+00  1.00800000E+00  1.60000000E+01  1.00800000E+00
  1.00800000E+00  1.60000000E+01  1.00800000E+00  1.00800000E+00  1.60000000E+01
  1.00800000E+00  1.00800000E+00  1.60000000E+01  1.00800000E+00  1.00800000E+00
  1.60000000E+01  1.00800000E+00  1.00800000E+00  1.60000000E+01  1.00800000E+00
  1.00800000E+00  1.60000000E+01  1.00800000E+00  1.00800000E+00  1.60000000E+01
  1.00800000E+00  1.00800000E+00  1.60000000E+01  1.00800000E+00  1.00800000E+00
  1.60000000E+01  1.00800000E+00  1.00800000E+00  1.60000000E+01  1.00800000E+00
  1.00800000E+00  1.60000000E+01  1.00800000E+00  1.00800000E+00  1.60000000E+01
  1.00800000E+00  1.00800000E+00  1.60000000E+01  1.00800000E+00  1.00800000E+00
  1.60000000E+01  1.00800000E+00  1.00800000E+00  1.60000000E+01  1.00800000E+00
  1.00800000E+00  1.60000000E+01  1.00800000E+00  1.00800000E+00  1.60000000E+01
  1.00800000E+00  1.00800000E+00  1.60000000E+01  1.00800000E+00  1.00800000E+00
  1.60000000E+01  1.00800000E+00  1.00800000E+00  1.60000000E+01  1.00800000E+00
  1.00800000E+00  1.60000000E+01  1.00800000E+00  1.00800000E+00  1.60000000E+01
  1.00800000E+00  1.00800000E+00  1.60000000E+01  1.00800000E+00  1.00800000E+00
  1.60000000E+01  1.00800000E+00  1.00800000E+00  1.60000000E+01  1.00800000E+00
  1.00800000E+00  1.60000000E+01  1.00800000E+00  1.00800000E+00  1.60000000E+01
  1.00800000E+00  1.00800000E+00  1.60000000E+01  1.00800000E+00  1.00800000E+00
  1.60000000E+01  1.00800000E+00  1.00800000E+00  1.60000000E+01  1.00800000E+00
  1.00800000E+00  1.60000000E+01  1.00800000E+00  1.00800000E+00  1.60000000E+01
  1.00800000E+00  1.00800000E+00  1.60000000E+01  1.00800000E+00  1.00800000E+00
  1.60000000E+01  1.00800000E+00  1.00800000E+00  1.60000000E+01  1.00800000E+00
  1.00800000E+00  1.60000000E+01  1.00800000E+00  1.00800000E+00  1.60000000E+01
  1.00800000E+00  1.00800000E+00  1.60000000E+01  1.00800000E+00  1.00800000E+00
  1.60000000E+01  1.00800000E+00  1.00800000E+00  1.60000000E+01  1.00800000E+00
  1.00800000E+00  1.60000000E+01  1.00800000E+00  1.00800000E+00  1.60000000E+01
  1.00800000E+00  1.00800000E+00  1.60000000E+01  1.00800000E+00  1.00800000E+00
  1.60000000E+01  1.00800000E+00  1.00800000E+00  1.60000000E+01  1.00800000E+00
  1.00800000E+00  1.60000000E+01  1.00800000E+00  1.00800000E+00  1.60000000E+01
  1.00800000E+00  1.00800000E+00  1.60000000E+01  1.00800000E+00  1.00800000E+00
  1.60000000E+01  1.00800000E+00  1.00800000E+00  1.60000000E+01  1.00800000E+00
  1.00800000E+00  1.60000000E+01  1.00800000E+00  1.00800000E+00  1.60000000E+01
  1.00800000E+00  1.00800000E+00  1.60000000E+01  1.00800000E+00  1.00800000E+00
  1.60000000E+01  1.00800000E+00  1.00800000E+00  1.60000000E+01  1.00800000E+00
  1.00800000E+00  1.60000000E+01  1.00800000E+00  1.00800000E+00  1.60000000E+01
  1.00800000E+00  1.00800000E+00  1.60000000E+01  1.00800000E+00  1.00800000E+00
  1.60000000E+01  1.00800000E+00  1.00800000E+00  1.60000000E+01  1.00800000E+00
  1.00800000E+00  1.60000000E+01  1.00800000E+00  1.00800000E+00  1.60000000E+01
  1.00800000E+00  1.00800000E+00  1.60000000E+01  1.00800000E+00  1.00800000E+00
  1.60000000E+01  1.00800000E+00  1.00800000E+00  1.60000000E+01  1.00800000E+00
  1.00800000E+00  1.60000000E+01  1.00800000E+00  1.00800000E+00  1.60000000E+01
  1.00800000E+00  1.00800000E+00  1.60000000E+01  1.00800000E+00  1.00800000E+00
  1.60000000E+01  1.00800000E+00  1.00800000E+00  1.60000000E+01  1.00800000E+00
  1.00800000E+00  1.60000000E+01  1.00800000E+00  1.00800000E+00  1.60000000E+01
  1.00800000E+00  1.00800000E+00  1.60000000E+01  1.00800000E+00  1.00800000E+00
  1.60000000E+01  1.00800000E+00  1.00800000E+00  1.60000000E+01  1.00800000E+00
  1.00800000E+00  1.60000000E+01  1.00800000E+00  1.00800000E+00  1.60000000E+01
  1.00800000E+00  1.00800000E+00  1.60000000E+01  1.00800000E+00  1.00800000E+00
  1.60000000E+01  1.00800000E+00  1.00800000E+00  1.60000000E+01  1.00800000E+00
  1.00800000E+00  1.60000000E+01  1.00800000E+00  1.00800000E+00  1.60000000E+01
  1.00800000E+00  1.00800000E+00  1.60000000E+01  1.00800000E+00  1.00800000E+00
  1.60000000E+01  1.00800000E+00  1.00800000E+00  1.60000000E+01  1.00800000E+00
  1.00800000E+00  1.60000000E+01  1.00800000E+00  1.00800000E+00  1.60000000E+01
  1.00800000E+00  1.00800000E+00  1.60000000E+01  1.00800000E+00  1.00800000E+00
  1.60000000E+01  1.00800000E+00  1.00800000E+00  1.60000000E+01  1.00800000E+00
  1.00800000E+00  1.60000000E+01  1.00800000E+00  1.00800000E+00  1.60000000E+01
  1.00800000E+00  1.00800000E+00  1.60000000E+01  1.00800000E+00  1.00800000E+00
  1.60000000E+01  1.00800000E+00  1.00800000E+00  1.60000000E+01  1.00800000E+00
  1.00800000E+00  1.60000000E+01  1.00800000E+00  1.00800000E+00  1.60000000E+01
  1.00800000E+00  1.00800000E+00  1.60000000E+01  1.00800000E+00  1.00800000E+00
  1.60000000E+01  1.00800000E+00  1.00800000E+00  1.60000000E+01  1.00800000E+00
  1.00800000E+00  1.60000000E+01  1.00800000E+00  1.00800000E+00  1.60000000E+01
  1.00800000E+00  1.00800000E+00  1.60000000E+01  1.00800000E+00  1.00800000E+00
  1.60000000E+01  1.00800000E+00  1.00800000E+00  1.60000000E+01  1.00800000E+00
  1.00800000E+00  1.60000000E+01  1.00800000E+00  1.00800000E+00  1.60000000E+01
  1.00800000E+00  1.00800000E+00  1.60000000E+01  1.00800000E+00  1.00800000E+00
  1.60000000E+01  1.00800000E+00  1.00800000E+00  1.60000000E+01  1.00800000E+00
  1.00800000E+00  1.60000000E+01  1.00800000E+00  1.00800000E+00  1.60000000E+01
  1.00800000E+00  1.00800000E+00  1.60000000E+01  1.00800000E+00  1.00800000E+00
  1.60000000E+01  1.00800000E+00  1.00800000E+00  1.60000000E+01  1.00800000E+00
  1.00800000E+00  1.60000000E+01  1.00800000E+00  1.00800000E+00  1.60000000E+01
  1.00800000E+00  1.00800000E+00  1.60000000E+01  1.00800000E+00  1.00800000E+00
  1.60000000E+01  1.00800000E+00  1.00800000E+00  1.60000000E+01  1.00800000E+00
  1.00800000E+00  1.60000000E+01  1.00800000E+00  1.00800000E+00  1.60000000E+01
  1.00800000E+00  1.00800000E+00  1.60000000E+01  1.00800000E+00  1.00800000E+00
  1.60000000E+01  1.00800000E+00  1.00800000E+00  1.60000000E+01  1.00800000E+00
  1.00800000E+00  1.60000000E+01  1.00800000E+00  1.00800000E+00  1.60000000E+01
  1.00800000E+00  1.00800000E+00  1.60000000E+01  1.00800000E+00  1.00800000E+00
  1.60000000E+01  1.00800000E+00  1.00800000E+00  1.60000000E+01  1.00800000E+00
  1.00800000E+00  1.60000000E+01  1.00800000E+00  1.00800000E+00  1.60000000E+01
  1.00800000E+00  1.00800000E+00  1.60000000E+01  1.00800000E+00  1.00800000E+00
  1.60000000E+01  1.00800000E+00  1.00800000E+00  1.60000000E+01  1.00800000E+00
  1.00800000E+00  1.60000000E+01  1.00800000E+00  1.00800000E+00  1.60000000E+01
  1.00800000E+00  1.00800000E+00  1.60000000E+01  1.00800000E+00  1.00800000E+00
  1.60000000E+01  1.00800000E+00  1.00800000E+00  1.60000000E+01  1.00800000E+00
  1.00800000E+00  1.60000000E+01  1.00800000E+00  1.00800000E+00  1.60000000E+01
  1.00800000E+00  1.00800000E+00  1.60000000E+01  1.00800000E+00  1.00800000E+00
  1.60000000E+01  1.00800000E+00  1.00800000E+00  1.60000000E+01  1.00800000E+00
  1.00800000E+00  1.60000000E+01  1.00800000E+00  1.00800000E+00  1.60000000E+01
  1.00800000E+00  1.00800000E+00  1.60000000E+01  1.00800000E+00  1.00800000E+00
  1.60000000E+01  1.00800000E+00  1.00800000E+00  1.60000000E+01  1.00800000E+00
  1.00800000E+00  1.60000000E+01  1.00800000E+00  1.00800000E+00  1.60000000E+01
  1.00800000E+00  1.00800000E+00  1.60000000E+01  1.00800000E+00  1.00800000E+00
  1.60000000E+01  1.00800000E+00  1.00800000E+00  1.60000000E+01  1.00800000E+00
  1.00800000E+00  1.60000000E+01  1.00800000E+00  1.00800000E+00  1.60000000E+01
  1.00800000E+00  1.00800000E+00  1.60000000E+01  1.00800000E+00  1.00800000E+00
  1.60000000E+01  1.00800000E+00  1.00800000E+00  1.60000000E+01  1.00800000E+00
  1.00800000E+00  1.60000000E+01  1.00800000E+00  1.00800000E+00  1.60000000E+01
  1.00800000E+00  1.00800000E+00  1.60000000E+01  1.00800000E+00  1.00800000E+00
  1.60000000E+01  1.00800000E+00  1.00800000E+00  1.60000000E+01  1.00800000E+00
  1.00800000E+00  1.60000000E+01  1.00800000E+00  1.00800000E+00  1.60000000E+01
  1.00800000E+00  1.00800000E+00  1.60000000E+01  1.00800000E+00  1.00800000E+00
  1.60000000E+01  1.00800000E+00  1.00800000E+00  1.60000000E+01  1.00800000E+00
  1.00800000E+00  1.60000000E+01  1.00800000E+00  1.00800000E+00  1.60000000E+01
  1.00800000E+00  1.00800000E+00  1.60000000E+01  1.00800000E+00  1.00800000E+00
  1.60000000E+01  1.00800000E+00  1.00800000E+00  1.60000000E+01  1.00800000E+00
  1.00800000E+00  1.60000000E+01  1.00800000E+00  1.00800000E+00  1.60000000E+01
  1.00800000E+00  1.00800000E+00  1.60000000E+01  1.00800000E+00  1.00800000E+00
  1.60000000E+01  1.00800000E+00  1.00800000E+00  1.60000000E+01  1.00800000E+00
  1.00800000E+00  1.60000000E+01  1.00800000E+00  1.00800000E+00  1.60000000E+01
  1.00800000E+00  1.00800000E+00  1.60000000E+01  1.00800000E+00  1.00800000E+00
  1.60000000E+01  1.00800000E+00  1.00800000E+00  1.60000000E+01  1.00800000E+00
  1.00800000E+00  1.60000000E+01  1.00800000E+00  1.00800000E+00  1.60000000E+01
  1.00800000E+00  1.00800000E+00  1.60000000E+01  1.00800000E+00  1.00800000E+00
  1.60000000E+01  1.00800000E+00  1.00800000E+00  1.60000000E+01  1.00800000E+00
  1.00800000E+00  1.60000000E+01  1.00800000E+00  1.00800000E+00  1.60000000E+01
  1.00800000E+00  1.00800000E+00  1.60000000E+01  1.00800000E+00  1.00800000E+00
  1.60000000E+01  1.00800000E+00  1.00800000E+00  1.60000000E+01  1.00800000E+00
  1.00800000E+00  1.60000000E+01  1.00800000E+00  1.00800000E+00  1.60000000E+01
  1.00800000E+00  1.00800000E+00  1.60000000E+01  1.00800000E+00  1.00800000E+00
  1.60000000E+01  1.00800000E+00  1.00800000E+00  1.60000000E+01  1.00800000E+00
  1.00800000E+00  1.60000000E+01  1.00800000E+00  1.00800000E+00  1.60000000E+01
  1.00800000E+00  1.00800000E+00  1.60000000E+01  1.00800000E+00  1.00800000E+00
  1.60000000E+01  1.00800000E+00  1.00800000E+00  1.60000000E+01  1.00800000E+00
  1.00800000E+00  1.60000000E+01  1.00800000E+00  1.00800000E+00  1.60000000E+01
  1.00800000E+00  1.00800000E+00  1.60000000E+01  1.00800000E+00  1.00800000E+00
  1.60000000E+01  1.00800000E+00  1.00800000E+00  1.60000000E+01  1.00800000E+00
  1.00800000E+00  1.60000000E+01  1.00800000E+00  1.00800000E+00  1.60000000E+01
  1.00800000E+00  1.00800000E+00  1.60000000E+01  1.00800000E+00  1.00800000E+00
  1.60000000E+01  1.00800000E+00  1.00800000E+00  1.60000000E+01  1.00800000E+00
  1.00800000E+00  1.60000000E+01  1.00800000E+00  1.00800000E+00  1.60000000E+01
  1.00800000E+00  1.00800000E+00  1.60000000E+01  1.00800000E+00  1.00800000E+00
  1.60000000E+01  1.00800000E+00  1.00800000E+00  1.60000000E+01  1.00800000E+00
  1.00800000E+00  1.60000000E+01  1.00800000E+00  1.00800000E+00  1.60000000E+01
  1.00800000E+00  1.00800000E+00  1.60000000E+01  1.00800000E+00  1.00800000E+00
  1.60000000E+01  1.00800000E+00  1.00800000E+00  1.60000000E+01  1.00800000E+00
  1.00800000E+00  1.60000000E+01  1.00800000E+00  1.00800000E+00  1.60000000E+01
  1.00800000E+00  1.00800000E+00  1.60000000E+01  1.00800000E+00  1.00800000E+00
  1.60000000E+01  1.00800000E+00  1.00800000E+00  1.60000000E+01  1.00800000E+00
  1.00800000E+00  1.60000000E+01  1.00800000E+00  1.00800000E+00  1.60000000E+01
  1.00800000E+00  1.00800000E+00  1.60000000E+01  1.00800000E+00  1.00800000E+00
  1.60000000E+01  1.00800000E+00  1.00800000E+00  1.60000000E+01  1.00800000E+00
  1.00800000E+00  1.60000000E+01  1.00800000E+00  1.00800000E+00  1.60000000E+01
  1.00800000E+00  1.00800000E+00  1.60000000E+01  1.00800000E+00  1.00800000E+00
  1.60000000E+01  1.00800000E+00  1.00800000E+00  1.60000000E+01  1.00800000E+00
  1.00800000E+00  1.60000000E+01  1.00800000E+00  1.00800000E+00  1.60000000E+01
  1.00800000E+00  1.00800000E+00  1.60000000E+01  1.00800000E+00  1.00800000E+00
  1.60000000E+01  1.00800000E+00  1.00800000E+00  1.60000000E+01  1.00800000E+00
  1.00800000E+00  1.60000000E+01  1.00800000E+00  1.00800000E+00  1.60000000E+01
  1.00800000E+00  1.00800000E+00  1.60000000E+01  1.00800000E+00  1.00800000E+00
  1.60000000E+01  1.00800000E+00  1.00800000E+00  1.60000000E+01  1.00800000E+00
  1.00800000E+00  1.60000000E+01  1.00800000E+00  1.00800000E+00  1.60000000E+01
  1.00800000E+00  1.00800000E+00  1.60000000E+01  1.00800000E+00  1.00800000E+00
  1.60000000E+01  1.00800000E+00  1.00800000E+00  1.60000000E+01  1.00800000E+00
  1.00800000E+00  1.60000000E+01  1.00800000E+00  1.00800000E+00  1.60000000E+01
  1.00800000E+00  1.00800000E+00  1.60000000E+01  1.00800000E+00  1.00800000E+00
  1.60000000E+01  1.00800000E+00  1.00800000E+00  1.60000000E+01  1.00800000E+00
  1.00800000E+00  1.60000000E+01  1.00800000E+00  1.00800000E+00  1.60000000E+01
  1.00800000E+00  1.00800000E+00  1.60000000E+01  1.00800000E+00  1.00800000E+00
  1.60000000E+01  1.00800000E+00  1.00800000E+00  1.60000000E+01  1.00800000E+00
  1.00800000E+00  1.60000000E+01  1.00800000E+00  1.00800000E+00  1.60000000E+01
  1.00800000E+00  1.00800000E+00  1.60000000E+01  1.00800000E+00  1.00800000E+00
  1.60000000E+01  1.00800000E+00  1.00800000E+00  1.60000000E+01  1.00800000E+00
  1.00800000E+00  1.60000000E+01  1.00800000E+00  1.00800000E+00  1.60000000E+01
  1.00800000E+00  1.00800000E+00  1.60000000E+01  1.00800000E+00  1.00800000E+00
  1.60000000E+01  1.00800000E+00  1.00800000E+00  1.60000000E+01  1.00800000E+00
  1.00800000E+00  1.60000000E+01  1.00800000E+00  1.00800000E+00  1.60000000E+01
  1.00800000E+00  1.00800000E+00  1.60000000E+01  1.00800000E+00  1.00800000E+00
  1.60000000E+01  1.00800000E+00  1.00800000E+00  1.60000000E+01  1.00800000E+00
  1.00800000E+00  1.60000000E+01  1.00800000E+00  1.00800000E+00  1.60000000E+01
  1.00800000E+00  1.00800000E+00  1.60000000E+01  1.00800000E+00  1.00800000E+00
  1.60000000E+01  1.00800000E+00  1.00800000E+00  1.60000000E+01  1.00800000E+00
  1.00800000E+00  1.60000000E+01  1.00800000E+00  1.00800000E+00  1.60000000E+01
  1.00800000E+00  1.00800000E+00  1.60000000E+01  1.00800000E+00  1.00800000E+00
  1.60000000E+01  1.00800000E+00  1.00800000E+00  1.60000000E+01  1.00800000E+00
  1.00800000E+00  1.60000000E+01  1.00800000E+00  1.00800000E+00  1.60000000E+01
  1.00800000E+00  1.00800000E+00  1.60000000E+01  1.00800000E+00  1.00800000E+00
  1.60000000E+01  1.00800000E+00  1.00800000E+00  1.60000000E+01  1.00800000E+00
  1.00800000E+00  1.60000000E+01  1.00800000E+00  1.00800000E+00  1.60000000E+01
  1.00800000E+00  1.00800000E+00  1.60000000E+01  1.00800000E+00  1.00800000E+00
  1.60000000E+01  1.00800000E+00  1.00800000E+00  1.60000000E+01  1.00800000E+00
  1.00800000E+00  1.60000000E+01  1.00800000E+00  1.00800000E+00  1.60000000E+01
  1.00800000E+00  1.00800000E+00  1.60000000E+01  1.00800000E+00  1.00800000E+00
  1.60000000E+01  1.00800000E+00  1.00800000E+00  1.60000000E+01  1.00800000E+00
  1.00800000E+00  1.60000000E+01  1.00800000E+00  1.00800000E+00  1.60000000E+01
  1.00800000E+00  1.00800000E+00  1.60000000E+01  1.00800000E+00  1.00800000E+00
  1.60000000E+01  1.00800000E+00  1.00800000E+00  1.60000000E+01  1.00800000E+00
  1.00800000E+00  1.60000000E+01  1.00800000E+00  1.00800000E+00  1.60000000E+01
  1.00800000E+00  1.00800000E+00  1.60000000E+01  1.00800000E+00  1.00800000E+00
  1.60000000E+01  1.00800000E+00  1.00800000E+00  1.60000000E+01  1.00800000E+00
  1.00800000E+00  1.60000000E+01  1.00800000E+00  1.00800000E+00  1.60000000E+01
  1.00800000E+00  1.00800000E+00  1.60000000E+01  1.00800000E+00  1.00800000E+00
  1.60000000E+01  1.00800000E+00  1.00800000E+00  1.60000000E+01  1.00800000E+00
  1.00800000E+00  1.60000000E+01  1.00800000E+00  1.00800000E+00  1.60000000E+01
  1.00800000E+00  1.00800000E+00  1.60000000E+01  1.00800000E+00  1.00800000E+00
  1.60000000E+01  1.00800000E+00  1.00800000E+00  1.60000000E+01  1.00800000E+00
  1.00800000E+00  1.60000000E+01  1.00800000E+00  1.00800000E+00  1.60000000E+01
  1.00800000E+00  1.00800000E+00  1.60000000E+01  1.00800000E+00  1.00800000E+00
  1.60000000E+01  1.00800000E+00  1.00800000E+00  1.60000000E+01  1.00800000E+00
  1.00800000E+00  1.60000000E+01  1.00800000E+00  1.00800000E+00  1.60000000E+01
  1.00800000E+00  1.00800000E+00  1.60000000E+01  1.00800000E+00  1.00800000E+00
  1.60000000E+01  1.00800000E+00  1.00800000E+00  1.60000000E+01  1.00800000E+00
  1.00800000E+00  1.60000000E+01  1.00800000E+00  1.00800000E+00  1.60000000E+01
  1.00800000E+00  1.00800000E+00  1.60000000E+01  1.00800000E+00  1.00800000E+00
  1.60000000E+01  1.00800000E+00  1.00800000E+00  1.60000000E+01  1.00800000E+00
  1.00800000E+00  1.60000000E+01  1.00800000E+00  1.00800000E+00  1.60000000E+01
  1.00800000E+00  1.00800000E+00  1.60000000E+01  1.00800000E+00  1.00800000E+00
  1.60000000E+01  1.00800000E+00  1.00800000E+00  1.60000000E+01  1.00800000E+00
  1.00800000E+00  1.60000000E+01  1.00800000E+00  1.00800000E+00  1.60000000E+01
  1.00800000E+00  1.00800000E+00  1.60000000E+01  1.00800000E+00  1.00800000E+00
  1.60000000E+01  1.00800000E+00  1.00800000E+00  1.60000000E+01  1.00800000E+00
  1.00800000E+00  1.60000000E+01  1.00800000E+00  1.00800000E+00  1.60000000E+01
  1.00800000E+00  1.00800000E+00  1.60000000E+01  1.00800000E+00  1.00800000E+00
  1.60000000E+01  1.00800000E+00  1.00800000E+00  1.60000000E+01  1.00800000E+00
  1.00800000E+00  1.60000000E+01  1.00800000E+00  1.00800000E+00  1.60000000E+01
  1.00800000E+00  1.00800000E+00  1.60000000E+01  1.00800000E+00  1.00800000E+00
  1.60000000E+01  1.00800000E+00  1.00800000E+00  1.60000000E+01  1.00800000E+00
  1.00800000E+00  1.60000000E+01  1.00800000E+00  1.00800000E+00  1.60000000E+01
  1.00800000E+00  1.00800000E+00  1.60000000E+01  1.00800000E+00  1.00800000E+00
  1.60000000E+01  1.00800000E+00  1.00800000E+00  1.60000000E+01  1.00800000E+00
  1.00800000E+00  1.60000000E+01  1.00800000E+00  1.00800000E+00  1.60000000E+01
  1.00800000E+00  1.00800000E+00  1.60000000E+01  1.00800000E+00  1.00800000E+00
  1.60000000E+01  1.00800000E+00  1.00800000E+00  1.60000000E+01  1.00800000E+00
  1.00800000E+00  1.60000000E+01  1.00800000E+00  1.00800000E+00  1.60000000E+01
  1.00800000E+00  1.00800000E+00  1.60000000E+01  1.00800000E+00  1.00800000E+00
  1.60000000E+01  1.00800000E+00  1.00800000E+00  1.60000000E+01  1.00800000E+00
  1.00800000E+00  1.60000000E+01  1.00800000E+00  1.00800000E+00  1.60000000E+01
  1.00800000E+00  1.00800000E+00  1.60000000E+01  1.00800000E+00  1.00800000E+00
  1.60000000E+01  1.00800000E+00  1.00800000E+00  1.60000000E+01  1.00800000E+00
  1.00800000E+00  1.60000000E+01  1.00800000E+00  1.00800000E+00  1.60000000E+01
  1.00800000E+00  1.00800000E+00  1.60000000E+01  1.00800000E+00  1.00800000E+00
  1.60000000E+01  1.00800000E+00  1.00800000E+00  1.60000000E+01  1.00800000E+00
  1.00800000E+00  1.60000000E+01  1.00800000E+00  1.00800000E+00  1.60000000E+01
  1.00800000E+00  1.00800000E+00  1.60000000E+01  1.00800000E+00  1.00800000E+00
  1.60000000E+01  1.00800000E+00  1.00800000E+00  1.60000000E+01  1.00800000E+00
  1.00800000E+00  1.60000000E+01  1.00800000E+00  1.00800000E+00  1.60000000E+01
  1.00800000E+00  1.00800000E+00  1.60000000E+01  1.00800000E+00  1.00800000E+00
  1.60000000E+01  1.00800000E+00  1.00800000E+00  1.60000000E+01  1.00800000E+00
  1.00800000E+00  1.60000000E+01  1.00800000E+00  1.00800000E+00  1.60000000E+01
  1.00800000E+00  1.00800000E+00  1.60000000E+01  1.00800000E+00  1.00800000E+00
  1.60000000E+01  1.00800000E+00  1.00800000E+00  1.60000000E+01  1.00800000E+00
  1.00800000E+00  1.60000000E+01  1.00800000E+00  1.00800000E+00  1.60000000E+01
  1.00800000E+00  1.00800000E+00  1.60000000E+01  1.00800000E+00  1.00800000E+00
  1.60000000E+01  1.00800000E+00  1.00800000E+00  1.60000000E+01  1.00800000E+00
  1.00800000E+00  1.60000000E+01  1.00800000E+00  1.00800000E+00  1.60000000E+01
  1.00800000E+00  1.00800000E+00  1.60000000E+01  1.00800000E+00  1.00800000E+00
  1.60000000E+01  1.00800000E+00  1.00800000E+00  1.60000000E+01  1.00800000E+00
  1.00800000E+00  1.60000000E+01  1.00800000E+00  1.00800000E+00  1.60000000E+01
  1.00800000E+00  1.00800000E+00  1.60000000E+01  1.00800000E+00  1.00800000E+00
  1.60000000E+01  1.00800000E+00  1.00800000E+00  1.60000000E+01  1.00800000E+00
  1.00800000E+00  1.60000000E+01  1.00800000E+00  1.00800000E+00  1.60000000E+01
  1.00800000E+00  1.00800000E+00  1.60000000E+01  1.00800000E+00  1.00800000E+00
  1.60000000E+01  1.00800000E+00  1.00800000E+00  1.60000000E+01  1.00800000E+00
  1.00800000E+00  1.60000000E+01  1.00800000E+00  1.00800000E+00  1.60000000E+01
  1.00800000E+00  1.00800000E+00  1.60000000E+01  1.00800000E+00  1.00800000E+00
  1.60000000E+01  1.00800000E+00  1.00800000E+00  1.60000000E+01  1.00800000E+00
  1.00800000E+00  1.60000000E+01  1.00800000E+00  1.00800000E+00  1.60000000E+01
  1.00800000E+00  1.00800000E+00  1.60000000E+01  1.00800000E+00  1.00800000E+00
  1.60000000E+01  1.00800000E+00  1.00800000E+00  1.60000000E+01  1.00800000E+00
  1.00800000E+00  1.60000000E+01  1.00800000E+00  1.00800000E+00  1.60000000E+01
  1.00800000E+00  1.00800000E+00  1.60000000E+01  1.00800000E+00  1.00800000E+00
  1.60000000E+01  1.00800000E+00  1.00800000E+00  1.60000000E+01  1.00800000E+00
  1.00800000E+00  1.60000000E+01  1.00800000E+00  1.00800000E+00  1.60000000E+01
  1.00800000E+00  1.00800000E+00  1.60000000E+01  1.00800000E+00  1.00800000E+00
  1.60000000E+01  1.00800000E+00  1.00800000E+00  1.60000000E+01  1.00800000E+00
  1.00800000E+00  1.60000000E+01  1.00800000E+00  1.00800000E+00  1.60000000E+01
  1.00800000E+00  1.00800000E+00  1.60000000E+01  1.00800000E+00  1.00800000E+00
  1.60000000E+01  1.00800000E+00  1.00800000E+00  1.60000000E+01  1.00800000E+00
  1.00800000E+00  1.60000000E+01  1.00800000E+00  1.00800000E+00  1.60000000E+01
  1.00800000E+00  1.00800000E+00  1.60000000E+01  1.00800000E+00  1.00800000E+00
  1.60000000E+01  1.00800000E+00  1.00800000E+00  1.60000000E+01  1.00800000E+00
  1.00800000E+00  1.60000000E+01  1.00800000E+00  1.00800000E+00  1.60000000E+01
  1.00800000E+00  1.00800000E+00  1.60000000E+01  1.00800000E+00  1.00800000E+00
  1.60000000E+01  1.00800000E+00  1.00800000E+00  1.60000000E+01  1.00800000E+00
  1.00800000E+00  1.60000000E+01  1.00800000E+00  1.00800000E+00  1.60000000E+01
  1.00800000E+00  1.00800000E+00  1.60000000E+01  1.00800000E+00  1.00800000E+00
  1.60000000E+01  1.00800000E+00  1.00800000E+00  1.60000000E+01  1.00800000E+00
  1.00800000E+00  1.60000000E+01  1.00800000E+00  1.00800000E+00  1.60000000E+01
  1.00800000E+00  1.00800000E+00  1.60000000E+01  1.00800000E+00  1.00800000E+00
  1.60000000E+01  1.00800000E+00  1.00800000E+00  1.60000000E+01  1.00800000E+00
  1.00800000E+00  1.60000000E+01  1.00800000E+00  1.00800000E+00  1.60000000E+01
  1.00800000E+00  1.00800000E+00  1.60000000E+01  1.00800000E+00  1.00800000E+00
  1.60000000E+01  1.00800000E+00  1.00800000E+00  1.60000000E+01  1.00800000E+00
  1.00800000E+00  1.60000000E+01  1.00800000E+00  1.00800000E+00  1.60000000E+01
  1.00800000E+00  1.00800000E+00  1.60000000E+01  1.00800000E+00  1.00800000E+00
  1.60000000E+01  1.00800000E+00  1.00800000E+00  1.60000000E+01  1.00800000E+00
  1.00800000E+00  1.60000000E+01  1.00800000E+00  1.00800000E+00  1.60000000E+01
  1.00800000E+00  1.00800000E+00  1.60000000E+01  1.00800000E+00  1.00800000E+00
  1.60000000E+01  1.00800000E+00  1.00800000E+00  1.60000000E+01  1.00800000E+00
  1.00800000E+00  1.60000000E+01  1.00800000E+00  1.00800000E+00  1.60000000E+01
  1.00800000E+00  1.00800000E+00  1.60000000E+01  1.00800000E+00  1.00800000E+00
  1.60000000E+01  1.00800000E+00  1.00800000E+00  1.60000000E+01  1.00800000E+00
  1.00800000E+00  1.60000000E+01  1.00800000E+00  1.00800000E+00  1.60000000E+01
  1.00800000E+00  1.00800000E+00  1.60000000E+01  1.00800000E+00  1.00800000E+00
  1.60000000E+01  1.00800000E+00  1.00800000E+00  1.60000000E+01  1.00800000E+00
  1.00800000E+00  1.60000000E+01  1.00800000E+00  1.00800000E+00  1.60000000E+01
  1.00800000E+00  1.00800000E+00  1.60000000E+01  1.00800000E+00  1.00800000E+00
  1.60000000E+01  1.00800000E+00  1.00800000E+00  1.60000000E+01  1.00800000E+00
  1.00800000E+00  1.60000000E+01  1.00800000E+00  1.00800000E+00  1.60000000E+01
  1.00800000E+00  1.00800000E+00  1.60000000E+01  1.00800000E+00  1.00800000E+00
  1.60000000E+01  1.00800000E+00  1.00800000E+00  1.60000000E+01  1.00800000E+00
  1.00800000E+00  1.60000000E+01  1.00800000E+00  1.00800000E+00  1.60000000E+01
  1.00800000E+00  1.00800000E+00  1.60000000E+01  1.00800000E+00  1.00800000E+00
  1.60000000E+01  1.00800000E+00  1.00800000E+00  1.60000000E+01  1.00800000E+00
  1.00800000E+00  1.60000000E+01  1.00800000E+00  1.00800000E+00  1.60000000E+01
  1.00800000E+00  1.00800000E+00  1.60000000E+01  1.00800000E+00  1.00800000E+00
  1.60000000E+01  1.00800000E+00  1.00800000E+00  1.60000000E+01  1.00800000E+00
  1.00800000E+00  1.60000000E+01  1.00800000E+00  1.00800000E+00  1.60000000E+01
  1.00800000E+00  1.00800000E+00  1.60000000E+01  1.00800000E+00  1.00800000E+00
  1.60000000E+01  1.00800000E+00  1.00800000E+00  1.60000000E+01  1.00800000E+00
  1.00800000E+00  1.60000000E+01  1.00800000E+00  1.00800000E+00  1.60000000E+01
  1.00800000E+00  1.00800000E+00  1.60000000E+01  1.00800000E+00  1.00800000E+00
  1.60000000E+01  1.00800000E+00  1.00800000E+00  1.60000000E+01  1.00800000E+00
  1.00800000E+00  1.60000000E+01  1.00800000E+00  1.00800000E+00  1.60000000E+01
  1.00800000E+00  1.00800000E+00  1.60000000E+01  1.00800000E+00  1.00800000E+00
  1.60000000E+01  1.00800000E+00  1.00800000E+00  1.60000000E+01  1.00800000E+00
  1.00800000E+00  1.60000000E+01  1.00800000E+00  1.00800000E+00  1.60000000E+01
  1.00800000E+00  1.00800000E+00  1.60000000E+01  1.00800000E+00  1.00800000E+00
  1.60000000E+01  1.00800000E+00  1.00800000E+00  1.60000000E+01  1.00800000E+00
  1.00800000E+00  1.60000000E+01  1.00800000E+00  1.00800000E+00  1.60000000E+01
  1.00800000E+00  1.00800000E+00  1.60000000E+01  1.00800000E+00  1.00800000E+00
  1.60000000E+01  1.00800000E+00  1.00800000E+00  1.60000000E+01  1.00800000E+00
  1.00800000E+00  1.60000000E+01  1.00800000E+00  1.00800000E+00  1.60000000E+01
  1.00800000E+00  1.00800000E+00  1.60000000E+01  1.00800000E+00  1.00800000E+00
  1.60000000E+01  1.00800000E+00  1.00800000E+00  1.60000000E+01  1.00800000E+00
  1.00800000E+00  1.60000000E+01  1.00800000E+00  1.00800000E+00  1.60000000E+01
  1.00800000E+00  1.00800000E+00  1.60000000E+01  1.00800000E+00  1.00800000E+00
  1.60000000E+01  1.00800000E+00  1.00800000E+00  1.60000000E+01  1.00800000E+00
  1.00800000E+00  1.60000000E+01  1.00800000E+00  1.00800000E+00  1.60000000E+01
  1.00800000E+00  1.00800000E+00  1.60000000E+01  1.00800000E+00  1.00800000E+00
  1.60000000E+01  1.00800000E+00  1.00800000E+00  1.60000000E+01  1.00800000E+00
  1.00800000E+00  1.60000000E+01  1.00800000E+00  1.00800000E+00  1.60000000E+01
  1.00800000E+00  1.00800000E+00  1.60000000E+01  1.00800000E+00  1.00800000E+00
  1.60000000E+01  1.00800000E+00  1.00800000E+00  1.60000000E+01  1.00800000E+00
  1.00800000E+00  1.60000000E+01  1.00800000E+00  1.00800000E+00  1.60000000E+01
  1.00800000E+00  1.00800000E+00  1.60000000E+01  1.00800000E+00  1.00800000E+00
  1.60000000E+01  1.00800000E+00  1.00800000E+00  1.60000000E+01  1.00800000E+00
  1.00800000E+00  1.60000000E+01  1.00800000E+00  1.00800000E+00  1.60000000E+01
  1.00800000E+00  1.00800000E+00  1.60000000E+01  1.00800000E+00  1.00800000E+00
  1.60000000E+01  1.00800000E+00  1.00800000E+00  1.60000000E+01  1.00800000E+00
  1.00800000E+00  1.60000000E+01  1.00800000E+00  1.00800000E+00  1.60000000E+01
  1.00800000E+00  1.00800000E+00  1.60000000E+01  1.00800000E+00  1.00800000E+00
  1.60000000E+01  1.00800000E+00  1.00800000E+00  1.60000000E+01  1.00800000E+00
  1.00800000E+00  1.60000000E+01  1.00800000E+00  1.00800000E+00  1.60000000E+01
  1.00800000E+00  1.00800000E+00  1.60000000E+01  1.00800000E+00  1.00800000E+00
  1.60000000E+01  1.00800000E+00  1.00800000E+00  1.60000000E+01  1.00800000E+00
  1.00800000E+00  1.60000000E+01  1.00800000E+00  1.00800000E+00  1.60000000E+01
  1.00800000E+00  1.00800000E+00  1.60000000E+01  1.00800000E+00  1.00800000E+00
  1.60000000E+01  1.00800000E+00  1.00800000E+00  1.60000000E+01  1.00800000E+00
  1.00800000E+00  1.60000000E+01  1.00800000E+00  1.00800000E+00  1.60000000E+01
  1.00800000E+00  1.00800000E+00  1.60000000E+01  1.00800000E+00  1.00800000E+00
  1.60000000E+01  1.00800000E+00  1.00800000E+00  1.60000000E+01  1.00800000E+00
  1.00800000E+00  1.60000000E+01  1.00800000E+00  1.00800000E+00  1.60000000E+01
  1.00800000E+00  1.00800000E+00  1.60000000E+01  1.00800000E+00  1.00800000E+00
  1.60000000E+01  1.00800000E+00  1.00800000E+00  1.60000000E+01  1.00800000E+00
  1.00800000E+00  1.60000000E+01  1.00800000E+00  1.00800000E+00  1.60000000E+01
  1.00800000E+00  1.00800000E+00  1.60000000E+01  1.00800000E+00  1.00800000E+00
  1.60000000E+01  1.00800000E+00  1.00800000E+00  1.60000000E+01  1.00800000E+00
  1.00800000E+00  1.60000000E+01  1.00800000E+00  1.00800000E+00  1.60000000E+01
  1.00800000E+00  1.00800000E+00  1.60000000E+01  1.00800000E+00  1.00800000E+00
  1.60000000E+01  1.00800000E+00  1.00800000E+00  1.60000000E+01  1.00800000E+00
  1.00800000E+00  1.60000000E+01  1.00800000E+00  1.00800000E+00  1.60000000E+01
  1.00800000E+00  1.00800000E+00  1.60000000E+01  1.00800000E+00  1.00800000E+00
  1.60000000E+01  1.00800000E+00  1.00800000E+00  1.60000000E+01  1.00800000E+00
  1.00800000E+00  1.60000000E+01  1.00800000E+00  1.00800000E+00  1.60000000E+01
  1.00800000E+00  1.00800000E+00  1.60000000E+01  1.00800000E+00  1.00800000E+00
  1.60000000E+01  1.00800000E+00  1.00800000E+00  1.60000000E+01  1.00800000E+00
  1.00800000E+00  1.60000000E+01  1.00800000E+00  1.00800000E+00  1.60000000E+01
  1.00800000E+00  1.00800000E+00  1.60000000E+01  1.00800000E+00  1.00800000E+00
  1.60000000E+01  1.00800000E+00  1.00800000E+00  1.60000000E+01  1.00800000E+00
  1.00800000E+00  1.60000000E+01  1.00800000E+00  1.00800000E+00  1.60000000E+01
  1.00800000E+00  1.00800000E+00  1.60000000E+01  1.00800000E+00  1.00800000E+00
  1.60000000E+01  1.00800000E+00  1.00800000E+00  1.60000000E+01  1.00800000E+00
  1.00800000E+00  1.60000000E+01  1.00800000E+00  1.00800000E+00  1.60000000E+01
  1.00800000E+00  1.00800000E+00  1.60000000E+01  1.00800000E+00  1.00800000E+00
  1.60000000E+01  1.00800000E+00  1.00800000E+00  1.60000000E+01  1.00800000E+00
  1.00800000E+00  1.60000000E+01  1.00800000E+00  1.00800000E+00  1.60000000E+01
  1.00800000E+00  1.00800000E+00  1.60000000E+01  1.00800000E+00  1.00800000E+00
  1.60000000E+01  1.00800000E+00  1.00800000E+00  1.60000000E+01  1.00800000E+00
  1.00800000E+00  1.60000000E+01  1.00800000E+00  1.00800000E+00  1.60000000E+01
  1.00800000E+00  1.00800000E+00  1.60000000E+01  1.00800000E+00  1.00800000E+00
  1.60000000E+01  1.00800000E+00  1.00800000E+00  1.60000000E+01  1.00800000E+00
  1.00800000E+00  1.60000000E+01  1.00800000E+00  1.00800000E+00  1.60000000E+01
  1.00800000E+00  1.00800000E+00  1.60000000E+01  1.00800000E+00  1.00800000E+00
  1.60000000E+01  1.00800000E+00  1.00800000E+00  1.60000000E+01  1.00800000E+00
  1.00800000E+00  1.60000000E+01  1.00800000E+00  1.00800000E+00  1.60000000E+01
  1.00800000E+00  1.00800000E+00  1.60000000E+01  1.00800000E+00  1.00800000E+00
  1.60000000E+01  1.00800000E+00  1.00800000E+00  1.60000000E+01  1.00800000E+00
  1.00800000E+00  1.60000000E+01  1.00800000E+00  1.00800000E+00  1.60000000E+01
  1.00800000E+00  1.00800000E+00  1.60000000E+01  1.00800000E+00  1.00800000E+00
  1.60000000E+01  1.00800000E+00  1.00800000E+00  1.60000000E+01  1.00800000E+00
  1.00800000E+00  1.60000000E+01  1.00800000E+00  1.00800000E+00  1.60000000E+01
  1.00800000E+00  1.00800000E+00  1.60000000E+01  1.00800000E+00  1.00800000E+00
  1.60000000E+01  1.00800000E+00  1.00800000E+00  1.60000000E+01  1.00800000E+00
  1.00800000E+00  1.60000000E+01  1.00800000E+00  1.00800000E+00  1.60000000E+01
  1.00800000E+00  1.00800000E+00  1.60000000E+01  1.00800000E+00  1.00800000E+00
  1.60000000E+01  1.00800000E+00  1.00800000E+00  1.60000000E+01  1.00800000E+00
  1.00800000E+00  1.60000000E+01  1.00800000E+00  1.00800000E+00  1.60000000E+01
  1.00800000E+00  1.00800000E+00  1.60000000E+01  1.00800000E+00  1.00800000E+00
  1.60000000E+01  1.00800000E+00  1.00800000E+00  1.60000000E+01  1.00800000E+00
  1.00800000E+00  1.60000000E+01  1.00800000E+00  1.00800000E+00  1.60000000E+01
  1.00800000E+00  1.00800000E+00  1.60000000E+01  1.00800000E+00  1.00800000E+00
  1.60000000E+01  1.00800000E+00  1.00800000E+00  1.60000000E+01  1.00800000E+00
  1.00800000E+00  1.60000000E+01  1.00800000E+00  1.00800000E+00  1.60000000E+01
  1.00800000E+00  1.00800000E+00  1.60000000E+01  1.00800000E+00  1.00800000E+00
  1.60000000E+01  1.00800000E+00  1.00800000E+00  1.60000000E+01  1.00800000E+00
  1.00800000E+00  1.60000000E+01  1.00800000E+00  1.00800000E+00  1.60000000E+01
  1.00800000E+00  1.00800000E+00  1.60000000E+01  1.00800000E+00  1.00800000E+00
  1.60000000E+01  1.00800000E+00  1.00800000E+00  1.60000000E+01  1.00800000E+00
  1.00800000E+00  1.60000000E+01  1.00800000E+00  1.00800000E+00  1.60000000E+01
  1.00800000E+00  1.00800000E+00  1.60000000E+01  1.00800000E+00  1.00800000E+00
  1.60000000E+01  1.00800000E+00  1.00800000E+00  1.60000000E+01  1.00800000E+00
  1.00800000E+00  1.60000000E+01  1.00800000E+00  1.00800000E+00  1.60000000E+01
  1.00800000E+00  1.00800000E+00  1.60000000E+01  1.00800000E+00  1.00800000E+00
  1.60000000E+01  1.00800000E+00  1.00800000E+00  1.60000000E+01  1.00800000E+00
  1.00800000E+00  1.60000000E+01  1.00800000E+00  1.00800000E+00  1.60000000E+01
  1.00800000E+00  1.00800000E+00  1.60000000E+01  1.00800000E+00  1.00800000E+00
  1.60000000E+01  1.00800000E+00  1.00800000E+00  1.60000000E+01  1.00800000E+00
  1.00800000E+00  1.60000000E+01  1.00800000E+00  1.00800000E+00  1.60000000E+01
  1.00800000E+00  1.00800000E+00  1.60000000E+01  1.00800000E+00  1.00800000E+00
  1.60000000E+01  1.00800000E+00  1.00800000E+00  1.60000000E+01  1.00800000E+00
  1.00800000E+00  1.60000000E+01  1.00800000E+00  1.00800000E+00  1.60000000E+01
  1.00800000E+00  1.00800000E+00  1.60000000E+01  1.00800000E+00  1.00800000E+00
  1.60000000E+01  1.00800000E+00  1.00800000E+00  1.60000000E+01  1.00800000E+00
  1.00800000E+00  1.60000000E+01  1.00800000E+00  1.00800000E+00  1.60000000E+01
  1.00800000E+00  1.00800000E+00  1.60000000E+01  1.00800000E+00  1.00800000E+00
  1.60000000E+01  1.00800000E+00  1.00800000E+00  1.60000000E+01  1.00800000E+00
  1.00800000E+00  1.60000000E+01  1.00800000E+00  1.00800000E+00  1.60000000E+01
  1.00800000E+00  1.00800000E+00  1.60000000E+01  1.00800000E+00  1.00800000E+00
  1.60000000E+01  1.00800000E+00  1.00800000E+00  1.60000000E+01  1.00800000E+00
  1.00800000E+00  1.60000000E+01  1.00800000E+00  1.00800000E+00  1.60000000E+01
  1.00800000E+00  1.00800000E+00  1.60000000E+01  1.00800000E+00  1.00800000E+00
  1.60000000E+01  1.00800000E+00  1.00800000E+00  1.60000000E+01  1.00800000E+00
  1.00800000E+00  1.60000000E+01  1.00800000E+00  1.00800000E+00  1.60000000E+01
  1.00800000E+00  1.00800000E+00  1.60000000E+01  1.00800000E+00  1.00800000E+00
  1.60000000E+01  1.00800000E+00  1.00800000E+00  1.60000000E+01  1.00800000E+00
  1.00800000E+00  1.60000000E+01  1.00800000E+00  1.00800000E+00  1.60000000E+01
  1.00800000E+00  1.00800000E+00  1.60000000E+01  1.00800000E+00  1.00800000E+00
  1.60000000E+01  1.00800000E+00  1.00800000E+00  1.60000000E+01  1.00800000E+00
  1.00800000E+00  1.60000000E+01  1.00800000E+00  1.00800000E+00  1.60000000E+01
  1.00800000E+00  1.00800000E+00  1.60000000E+01  1.00800000E+00  1.00800000E+00
  1.60000000E+01  1.00800000E+00  1.00800000E+00  1.60000000E+01  1.00800000E+00
  1.00800000E+00  1.60000000E+01  1.00800000E+00  1.00800000E+00  1.60000000E+01
  1.00800000E+00  1.00800000E+00  1.60000000E+01  1.00800000E+00  1.00800000E+00
  1.60000000E+01  1.00800000E+00  1.00800000E+00  1.60000000E+01  1.00800000E+00
  1.00800000E+00  1.60000000E+01  1.00800000E+00  1.00800000E+00  1.60000000E+01
  1.00800000E+00  1.00800000E+00  1.60000000E+01  1.00800000E+00  1.00800000E+00
  1.60000000E+01  1.00800000E+00  1.00800000E+00  1.60000000E+01  1.00800000E+00
  1.00800000E+00  1.60000000E+01  1.00800000E+00  1.00800000E+00  1.60000000E+01
  1.00800000E+00  1.00800000E+00  1.60000000E+01  1.00800000E+00  1.00800000E+00
  1.60000000E+01  1.00800000E+00  1.00800000E+00  1.60000000E+01  1.00800000E+00
  1.00800000E+00  1.60000000E+01  1.00800000E+00  1.00800000E+00  1.60000000E+01
  1.00800000E+00  1.00800000E+00  1.60000000E+01  1.00800000E+00  1.00800000E+00
  1.60000000E+01  1.00800000E+00  1.00800000E+00  1.60000000E+01  1.00800000E+00
  1.00800000E+00  1.60000000E+01  1.00800000E+00  1.00800000E+00  1.60000000E+01
  1.00800000E+00  1.00800000E+00  1.60000000E+01  1.00800000E+00  1.00800000E+00
  1.60000000E+01  1.00800000E+00  1.00800000E+00  1.60000000E+01  1.00800000E+00
  1.00800000E+00  1.60000000E+01  1.00800000E+00  1.00800000E+00  1.60000000E+01
  1.00800000E+00  1.00800000E+00  1.60000000E+01  1.00800000E+00  1.00800000E+00
  1.60000000E+01  1.00800000E+00  1.00800000E+00  1.60000000E+01  1.00800000E+00
  1.00800000E+00  1.60000000E+01  1.00800000E+00  1.00800000E+00  1.60000000E+01
  1.00800000E+00  1.00800000E+00  1.60000000E+01  1.00800000E+00  1.00800000E+00
  1.60000000E+01  1.00800000E+00  1.00800000E+00  1.60000000E+01  1.00800000E+00
  1.00800000E+00  1.60000000E+01  1.00800000E+00  1.00800000E+00  1.60000000E+01
  1.00800000E+00  1.00800000E+00  1.60000000E+01  1.00800000E+00  1.00800000E+00
  1.60000000E+01  1.00800000E+00  1.00800000E+00  1.60000000E+01  1.00800000E+00
  1.00800000E+00  1.60000000E+01  1.00800000E+00  1.00800000E+00  1.60000000E+01
  1.00800000E+00  1.00800000E+00  1.60000000E+01  1.00800000E+00  1.00800000E+00
  1.60000000E+01  1.00800000E+00  1.00800000E+00  1.60000000E+01  1.00800000E+00
  1.00800000E+00  1.60000000E+01  1.00800000E+00  1.00800000E+00  1.60000000E+01
  1.00800000E+00  1.00800000E+00  1.60000000E+01  1.00800000E+00  1.00800000E+00
  1.60000000E+01  1.00800000E+00  1.00800000E+00  1.60000000E+01  1.00800000E+00
  1.00800000E+00  1.60000000E+01  1.00800000E+00  1.00800000E+00  1.60000000E+01
  1.00800000E+00  1.00800000E+00  1.60000000E+01  1.00800000E+00  1.00800000E+00
  1.60000000E+01  1.00800000E+00  1.00800000E+00  1.60000000E+01  1.00800000E+00
  1.00800000E+00  1.60000000E+01  1.00800000E+00  1.00800000E+00  1.60000000E+01
  1.00800000E+00  1.00800000E+00  1.60000000E+01  1.00800000E+00  1.00800000E+00
  1.60000000E+01  1.00800000E+00  1.00800000E+00  1.60000000E+01  1.00800000E+00
  1.00800000E+00  1.60000000E+01  1.00800000E+00  1.00800000E+00  1.60000000E+01
  1.00800000E+00  1.00800000E+00  1.60000000E+01  1.00800000E+00  1.00800000E+00
  1.60000000E+01  1.00800000E+00  1.00800000E+00  1.60000000E+01  1.00800000E+00
  1.00800000E+00  1.60000000E+01  1.00800000E+00  1.00800000E+00  1.60000000E+01
  1.00800000E+00  1.00800000E+00  1.60000000E+01  1.00800000E+00  1.00800000E+00
  1.60000000E+01  1.00800000E+00  1.00800000E+00  1.60000000E+01  1.00800000E+00
  1.00800000E+00  1.60000000E+01  1.00800000E+00  1.00800000E+00  1.60000000E+01
  1.00800000E+00  1.00800000E+00  1.60000000E+01  1.00800000E+00  1.00800000E+00
  1.60000000E+01  1.00800000E+00  1.00800000E+00  1.60000000E+01  1.00800000E+00
  1.00800000E+00  1.60000000E+01  1.00800000E+00  1.00800000E+00  1.60000000E+01
  1.00800000E+00  1.00800000E+00  1.60000000E+01  1.00800000E+00  1.00800000E+00
  1.60000000E+01  1.00800000E+00  1.00800000E+00  1.60000000E+01  1.00800000E+00
  1.00800000E+00  1.60000000E+01  1.00800000E+00  1.00800000E+00  1.60000000E+01
  1.00800000E+00  1.00800000E+00  1.60000000E+01  1.00800000E+00  1.00800000E+00
  1.60000000E+01  1.00800000E+00  1.00800000E+00  1.60000000E+01  1.00800000E+00
  1.00800000E+00  1.60000000E+01  1.00800000E+00  1.00800000E+00  1.60000000E+01
  1.00800000E+00  1.00800000E+00  1.60000000E+01  1.00800000E+00  1.00800000E+00
  1.60000000E+01  1.00800000E+00  1.00800000E+00  1.60000000E+01  1.00800000E+00
  1.00800000E+00  1.60000000E+01  1.00800000E+00  1.00800000E+00  1.60000000E+01
  1.00800000E+00  1.00800000E+00  1.60000000E+01  1.00800000E+00  1.00800000E+00
  1.60000000E+01  1.00800000E+00  1.00800000E+00  1.60000000E+01  1.00800000E+00
  1.00800000E+00  1.60000000E+01  1.00800000E+00  1.00800000E+00  1.60000000E+01
  1.00800000E+00  1.00800000E+00  1.60000000E+01  1.00800000E+00  1.00800000E+00
  1.60000000E+01  1.00800000E+00  1.00800000E+00  1.60000000E+01  1.00800000E+00
  1.00800000E+00  1.60000000E+01  1.00800000E+00  1.00800000E+00  1.60000000E+01
  1.00800000E+00  1.00800000E+00  1.60000000E+01  1.00800000E+00  1.00800000E+00
  1.60000000E+01  1.00800000E+00  1.00800000E+00  1.60000000E+01  1.00800000E+00
  1.00800000E+00  1.60000000E+01  1.00800000E+00  1.00800000E+00  1.60000000E+01
  1.00800000E+00  1.00800000E+00  1.60000000E+01  1.00800000E+00  1.00800000E+00
  1.60000000E+01  1.00800000E+00  1.00800000E+00  1.60000000E+01  1.00800000E+00
  1.00800000E+00  1.60000000E+01  1.00800000E+00  1.00800000E+00  1.60000000E+01
  1.00800000E+00  1.00800000E+00  1.60000000E+01  1.00800000E+00  1.00800000E+00
  1.60000000E+01  1.00800000E+00  1.00800000E+00  1.60000000E+01  1.00800000E+00
  1.00800000E+00  1.60000000E+01  1.00800000E+00  1.00800000E+00  1.60000000E+01
  1.00800000E+00  1.00800000E+00  1.60000000E+01  1.00800000E+00  1.00800000E+00
  1.60000000E+01  1.00800000E+00  1.00800000E+00  1.60000000E+01  1.00800000E+00
  1.00800000E+00  1.60000000E+01  1.00800000E+00  1.00800000E+00  1.60000000E+01
  1.00800000E+00  1.00800000E+00  1.60000000E+01  1.00800000E+00  1.00800000E+00
  1.60000000E+01  1.00800000E+00  1.00800000E+00  1.60000000E+01  1.00800000E+00
  1.00800000E+00  1.60000000E+01  1.00800000E+00  1.00800000E+00  1.60000000E+01
  1.00800000E+00  1.00800000E+00  1.60000000E+01  1.00800000E+00  1.00800000E+00
  1.60000000E+01  1.00800000E+00  1.00800000E+00  1.60000000E+01  1.00800000E+00
  1.00800000E+00  1.60000000E+01  1.00800000E+00  1.00800000E+00  1.60000000E+01
  1.00800000E+00  1.00800000E+00  1.60000000E+01  1.00800000E+00  1.00800000E+00
  1.60000000E+01  1.00800000E+00  1.00800000E+00  1.60000000E+01  1.00800000E+00
  1.00800000E+00  1.60000000E+01  1.00800000E+00  1.00800000E+00  1.60000000E+01
  1.00800000E+00  1.00800000E+00  1.60000000E+01  1.00800000E+00  1.00800000E+00
  1.60000000E+01  1.00800000E+00  1.00800000E+00  1.60000000E+01  1.00800000E+00
  1.00800000E+00  1.60000000E+01  1.00800000E+00  1.00800000E+00  1.60000000E+01
  1.00800000E+00  1.00800000E+00  1.60000000E+01  1.00800000E+00  1.00800000E+00
  1.60000000E+01  1.00800000E+00  1.00800000E+00  1.60000000E+01  1.00800000E+00
  1.00800000E+00  1.60000000E+01  1.00800000E+00  1.00800000E+00  1.60000000E+01
  1.00800000E+00  1.00800000E+00  1.60000000E+01  1.00800000E+00  1.00800000E+00
  1.60000000E+01  1.00800000E+00  1.00800000E+00  1.60000000E+01  1.00800000E+00
  1.00800000E+00  1.60000000E+01  1.00800000E+00  1.00800000E+00  1.60000000E+01
  1.00800000E+00  1.00800000E+00  1.60000000E+01  1.00800000E+00  1.00800000E+00
  1.60000000E+01  1.00800000E+00  1.00800000E+00  1.60000000E+01  1.00800000E+00
  1.00800000E+00  1.60000000E+01  1.00800000E+00  1.00800000E+00  1.60000000E+01
  1.00800000E+00  1.00800000E+00  1.60000000E+01  1.00800000E+00  1.00800000E+00
  1.60000000E+01  1.00800000E+00  1.00800000E+00  1.60000000E+01  1.00800000E+00
  1.00800000E+00  1.60000000E+01  1.00800000E+00  1.00800000E+00  1.60000000E+01
  1.00800000E+00  1.00800000E+00  1.60000000E+01  1.00800000E+00  1.00800000E+00
  1.60000000E+01  1.00800000E+00  1.00800000E+00  1.60000000E+01  1.00800000E+00
  1.00800000E+00  1.60000000E+01  1.00800000E+00  1.00800000E+00  1.60000000E+01
  1.00800000E+00  1.00800000E+00  1.60000000E+01  1.00800000E+00  1.00800000E+00
  1.60000000E+01  1.00800000E+00  1.00800000E+00  1.60000000E+01  1.00800000E+00
  1.00800000E+00  1.60000000E+01  1.00800000E+00  1.00800000E+00  1.60000000E+01
  1.00800000E+00  1.00800000E+00  1.60000000E+01  1.00800000E+00  1.00800000E+00
  1.60000000E+01  1.00800000E+00  1.00800000E+00  1.60000000E+01  1.00800000E+00
  1.00800000E+00  1.60000000E+01  1.00800000E+00  1.00800000E+00  1.60000000E+01
  1.00800000E+00  1.00800000E+00  1.60000000E+01  1.00800000E+00  1.00800000E+00
  1.60000000E+01  1.00800000E+00  1.00800000E+00  1.60000000E+01  1.00800000E+00
  1.00800000E+00  1.60000000E+01  1.00800000E+00  1.00800000E+00  1.60000000E+01
  1.00800000E+00  1.00800000E+00  1.60000000E+01  1.00800000E+00  1.00800000E+00
  1.60000000E+01  1.00800000E+00  1.00800000E+00  1.60000000E+01  1.00800000E+00
  1.00800000E+00  1.60000000E+01  1.00800000E+00  1.00800000E+00  1.60000000E+01
  1.00800000E+00  1.00800000E+00  1.60000000E+01  1.00800000E+00  1.00800000E+00
  1.60000000E+01  1.00800000E+00  1.00800000E+00  1.60000000E+01  1.00800000E+00
  1.00800000E+00  1.60000000E+01  1.00800000E+00  1.00800000E+00  1.60000000E+01
  1.00800000E+00  1.00800000E+00  1.60000000E+01  1.00800000E+00  1.00800000E+00
  1.60000000E+01  1.00800000E+00  1.00800000E+00  1.60000000E+01  1.00800000E+00
  1.00800000E+00  1.60000000E+01  1.00800000E+00  1.00800000E+00  1.60000000E+01
  1.00800000E+00  1.00800000E+00  1.60000000E+01  1.00800000E+00  1.00800000E+00
  1.60000000E+01  1.00800000E+00  1.00800000E+00  1.60000000E+01  1.00800000E+00
  1.00800000E+00  1.60000000E+01  1.00800000E+00  1.00800000E+00  1.60000000E+01
  1.00800000E+00  1.00800000E+00  1.60000000E+01  1.00800000E+00  1.00800000E+00
  1.60000000E+01  1.00800000E+00  1.00800000E+00  1.60000000E+01  1.00800000E+00
  1.00800000E+00  1.60000000E+01  1.00800000E+00  1.00800000E+00  1.60000000E+01
  1.00800000E+00  1.00800000E+00  1.60000000E+01  1.00800000E+00  1.00800000E+00
  1.60000000E+01  1.00800000E+00  1.00800000E+00  1.60000000E+01  1.00800000E+00
  1.00800000E+00  1.60000000E+01  1.00800000E+00  1.00800000E+00  1.60000000E+01
  1.00800000E+00  1.00800000E+00  1.60000000E+01  1.00800000E+00  1.00800000E+00
  1.60000000E+01  1.00800000E+00  1.00800000E+00  1.60000000E+01  1.00800000E+00
  1.00800000E+00  1.60000000E+01  1.00800000E+00  1.00800000E+00  1.60000000E+01
  1.00800000E+00  1.00800000E+00  1.60000000E+01  1.00800000E+00  1.00800000E+00
  1.60000000E+01  1.00800000E+00  1.00800000E+00  1.60000000E+01  1.00800000E+00
  1.00800000E+00  1.60000000E+01  1.00800000E+00  1.00800000E+00  1.60000000E+01
  1.00800000E+00  1.00800000E+00  1.60000000E+01  1.00800000E+00  1.00800000E+00
  1.60000000E+01  1.00800000E+00  1.00800000E+00  1.60000000E+01  1.00800000E+00
  1.00800000E+00  1.60000000E+01  1.00800000E+00  1.00800000E+00  1.60000000E+01
  1.00800000E+00  1.00800000E+00  1.60000000E+01  1.00800000E+00  1.00800000E+00
  1.60000000E+01  1.00800000E+00  1.00800000E+00  1.60000000E+01  1.00800000E+00
  1.00800000E+00  1.60000000E+01  1.00800000E+00  1.00800000E+00  1.60000000E+01
  1.00800000E+00  1.00800000E+00  1.60000000E+01  1.00800000E+00  1.00800000E+00
  1.60000000E+01  1.00800000E+00  1.00800000E+00  1.60000000E+01  1.00800000E+00
  1.00800000E+00  1.60000000E+01  1.00800000E+00  1.00800000E+00  1.60000000E+01
  1.00800000E+00  1.00800000E+00  1.60000000E+01  1.00800000E+00  1.00800000E+00
  1.60000000E+01  1.00800000E+00  1.00800000E+00  1.60000000E+01  1.00800000E+00
  1.00800000E+00  1.60000000E+01  1.00800000E+00  1.00800000E+00  1.60000000E+01
  1.00800000E+00  1.00800000E+00  1.60000000E+01  1.00800000E+00  1.00800000E+00
  1.60000000E+01  1.00800000E+00  1.00800000E+00  1.60000000E+01  1.00800000E+00
  1.00800000E+00  1.60000000E+01  1.00800000E+00  1.00800000E+00  1.60000000E+01
  1.00800000E+00  1.00800000E+00  1.60000000E+01  1.00800000E+00  1.00800000E+00
  1.60000000E+01  1.00800000E+00  1.00800000E+00  1.60000000E+01  1.00800000E+00
  1.00800000E+00  1.60000000E+01  1.00800000E+00  1.00800000E+00  1.60000000E+01
  1.00800000E+00  1.00800000E+00  1.60000000E+01  1.00800000E+00  1.00800000E+00
  1.60000000E+01  1.00800000E+00  1.00800000E+00  1.60000000E+01  1.00800000E+00
  1.00800000E+00  1.60000000E+01  1.00800000E+00  1.00800000E+00  1.60000000E+01
  1.00800000E+00  1.00800000E+00  1.60000000E+01  1.00800000E+00  1.00800000E+00
  1.60000000E+01  1.00800000E+00  1.00800000E+00  1.60000000E+01  1.00800000E+00
  1.00800000E+00  1.60000000E+01  1.00800000E+00  1.00800000E+00  1.60000000E+01
  1.00800000E+00  1.00800000E+00  1.60000000E+01  1.00800000E+00  1.00800000E+00
  1.60000000E+01  1.00800000E+00  1.00800000E+00  1.60000000E+01  1.00800000E+00
  1.00800000E+00  1.60000000E+01  1.00800000E+00  1.00800000E+00  1.60000000E+01
  1.00800000E+00  1.00800000E+00  1.60000000E+01  1.00800000E+00  1.00800000E+00
  1.60000000E+01  1.00800000E+00  1.00800000E+00  1.60000000E+01  1.00800000E+00
  1.00800000E+00  1.60000000E+01  1.00800000E+00  1.00800000E+00  1.60000000E+01
  1.00800000E+00  1.00800000E+00  1.60000000E+01  1.00800000E+00  1.00800000E+00
  1.60000000E+01  1.00800000E+00  1.00800000E+00  1.60000000E+01  1.00800000E+00
  1.00800000E+00  1.60000000E+01  1.00800000E+00  1.00800000E+00  1.60000000E+01
  1.00800000E+00  1.00800000E+00  1.60000000E+01  1.00800000E+00  1.00800000E+00
  1.60000000E+01  1.00800000E+00  1.00800000E+00  1.60000000E+01  1.00800000E+00
  1.00800000E+00  1.60000000E+01  1.00800000E+00  1.00800000E+00  1.60000000E+01
  1.00800000E+00  1.00800000E+00  1.60000000E+01  1.00800000E+00  1.00800000E+00
  1.60000000E+01  1.00800000E+00  1.00800000E+00  1.60000000E+01  1.00800000E+00
  1.00800000E+00  1.60000000E+01  1.00800000E+00  1.00800000E+00  1.60000000E+01
  1.00800000E+00  1.00800000E+00  1.60000000E+01  1.00800000E+00  1.00800000E+00
  1.60000000E+01  1.00800000E+00  1.00800000E+00  1.60000000E+01  1.00800000E+00
  1.00800000E+00  1.60000000E+01  1.00800000E+00  1.00800000E+00  1.60000000E+01
  1.00800000E+00  1.00800000E+00  1.60000000E+01  1.00800000E+00  1.00800000E+00
  1.60000000E+01  1.00800000E+00  1.00800000E+00  1.60000000E+01  1.00800000E+00
  1.00800000E+00  1.60000000E+01  1.00800000E+00  1.00800000E+00  1.60000000E+01
  1.00800000E+00  1.00800000E+00  1.60000000E+01  1.00800000E+00  1.00800000E+00
  1.60000000E+01  1.00800000E+00  1.00800000E+00  1.60000000E+01  1.00800000E+00
  1.00800000E+00  1.60000000E+01  1.00800000E+00  1.00800000E+00  1.60000000E+01
  1.00800000E+00  1.00800000E+00  1.60000000E+01  1.00800000E+00  1.00800000E+00
  1.60000000E+01  1.00800000E+00  1.00800000E+00  1.60000000E+01  1.00800000E+00
  1.00800000E+00  1.60000000E+01  1.00800000E+00  1.00800000E+00  1.60000000E+01
  1.00800000E+00  1.00800000E+00  1.60000000E+01  1.00800000E+00  1.00800000E+00
  1.60000000E+01  1.00800000E+00  1.00800000E+00  1.60000000E+01  1.00800000E+00
  1.00800000E+00  1.60000000E+01  1.00800000E+00  1.00800000E+00  1.60000000E+01
  1.00800000E+00  1.00800000E+00  1.60000000E+01  1.00800000E+00  1.00800000E+00
  1.60000000E+01  1.00800000E+00  1.00800000E+00  1.60000000E+01  1.00800000E+00
  1.00800000E+00  1.60000000E+01  1.00800000E+00  1.00800000E+00  1.60000000E+01
  1.00800000E+00  1.00800000E+00  1.60000000E+01  1.00800000E+00  1.00800000E+00
  1.60000000E+01  1.00800000E+00  1.00800000E+00  1.60000000E+01  1.00800000E+00
  1.00800000E+00  1.60000000E+01  1.00800000E+00  1.00800000E+00  1.60000000E+01
  1.00800000E+00  1.00800000E+00  1.60000000E+01  1.00800000E+00  1.00800000E+00
  1.60000000E+01  1.00800000E+00  1.00800000E+00  1.60000000E+01  1.00800000E+00
  1.00800000E+00  1.60000000E+01  1.00800000E+00  1.00800000E+00  1.60000000E+01
  1.00800000E+00  1.00800000E+00  1.60000000E+01  1.00800000E+00  1.00800000E+00
  1.60000000E+01  1.00800000E+00  1.00800000E+00  1.60000000E+01  1.00800000E+00
  1.00800000E+00  1.60000000E+01  1.00800000E+00  1.00800000E+00  1.60000000E+01
  1.00800000E+00  1.00800000E+00  1.60000000E+01  1.00800000E+00  1.00800000E+00
  1.60000000E+01  1.00800000E+00  1.00800000E+00  1.60000000E+01  1.00800000E+00
  1.00800000E+00  1.60000000E+01  1.00800000E+00  1.00800000E+00  1.60000000E+01
  1.00800000E+00  1.00800000E+00  1.60000000E+01  1.00800000E+00  1.00800000E+00
  1.60000000E+01  1.00800000E+00  1.00800000E+00  1.60000000E+01  1.00800000E+00
  1.00800000E+00  1.60000000E+01  1.00800000E+00  1.00800000E+00  1.60000000E+01
  1.00800000E+00  1.00800000E+00  1.60000000E+01  1.00800000E+00  1.00800000E+00
  1.60000000E+01  1.00800000E+00  1.00800000E+00  1.60000000E+01  1.00800000E+00
  1.00800000E+00  1.60000000E+01  1.00800000E+00  1.00800000E+00  1.60000000E+01
  1.00800000E+00  1.00800000E+00  1.60000000E+01  1.00800000E+00  1.00800000E+00
  1.60000000E+01  1.00800000E+00  1.00800000E+00  1.60000000E+01  1.00800000E+00
  1.00800000E+00  1.60000000E+01  1.00800000E+00  1.00800000E+00  1.60000000E+01
  1.00800000E+00  1.00800000E+00  1.60000000E+01  1.00800000E+00  1.00800000E+00
  1.60000000E+01  1.00800000E+00  1.00800000E+00  1.60000000E+01  1.00800000E+00
  1.00800000E+00  1.60000000E+01  1.00800000E+00  1.00800000E+00  1.60000000E+01
  1.00800000E+00  1.00800000E+00  1.60000000E+01  1.00800000E+00  1.00800000E+00
  1.60000000E+01  1.00800000E+00  1.00800000E+00  1.60000000E+01  1.00800000E+00
  1.00800000E+00  1.60000000E+01  1.00800000E+00  1.00800000E+00  1.60000000E+01
  1.00800000E+00  1.00800000E+00  1.60000000E+01  1.00800000E+00  1.00800000E+00
  1.60000000E+01  1.00800000E+00  1.00800000E+00  1.60000000E+01  1.00800000E+00
  1.00800000E+00  1.60000000E+01  1.00800000E+00  1.00800000E+00  1.60000000E+01
  1.00800000E+00  1.00800000E+00  1.60000000E+01  1.00800000E+00  1.00800000E+00
  1.60000000E+01  1.00800000E+00  1.00800000E+00  1.60000000E+01  1.00800000E+00
  1.00800000E+00  1.60000000E+01  1.00800000E+00  1.00800000E+00  1.60000000E+01
  1.00800000E+00  1.00800000E+00  1.60000000E+01  1.00800000E+00  1.00800000E+00
  1.60000000E+01  1.00800000E+00  1.00800000E+00  1.60000000E+01  1.00800000E+00
  1.00800000E+00  1.60000000E+01  1.00800000E+00  1.00800000E+00  1.60000000E+01
  1.00800000E+00  1.00800000E+00  1.60000000E+01  1.00800000E+00  1.00800000E+00
  1.60000000E+01  1.00800000E+00  1.00800000E+00  1.60000000E+01  1.00800000E+00
  1.00800000E+00  1.60000000E+01  1.00800000E+00  1.00800000E+00  1.60000000E+01
  1.00800000E+00  1.00800000E+00  1.60000000E+01  1.00800000E+00  1.00800000E+00
  1.60000000E+01  1.00800000E+00  1.00800000E+00  1.60000000E+01  1.00800000E+00
  1.00800000E+00  1.60000000E+01  1.00800000E+00  1.00800000E+00  1.60000000E+01
  1.00800000E+00  1.00800000E+00  1.60000000E+01  1.00800000E+00  1.00800000E+00
  1.60000000E+01  1.00800000E+00  1.00800000E+00  1.60000000E+01  1.00800000E+00
  1.00800000E+00  1.60000000E+01  1.00800000E+00  1.00800000E+00  1.60000000E+01
  1.00800000E+00  1.00800000E+00  1.60000000E+01  1.00800000E+00  1.00800000E+00
  1.60000000E+01  1.00800000E+00  1.00800000E+00  1.60000000E+01  1.00800000E+00
  1.00800000E+00  1.60000000E+01  1.00800000E+00  1.00800000E+00  1.60000000E+01
  1.00800000E+00  1.00800000E+00  1.60000000E+01  1.00800000E+00  1.00800000E+00
  1.60000000E+01  1.00800000E+00  1.00800000E+00  1.60000000E+01  1.00800000E+00
  1.00800000E+00  1.60000000E+01  1.00800000E+00  1.00800000E+00  1.60000000E+01
  1.00800000E+00  1.00800000E+00  1.60000000E+01  1.00800000E+00  1.00800000E+00
  1.60000000E+01  1.00800000E+00  1.00800000E+00  1.60000000E+01  1.00800000E+00
  1.00800000E+00  1.60000000E+01  1.00800000E+00  1.00800000E+00  1.60000000E+01
  1.00800000E+00  1.00800000E+00  1.60000000E+01  1.00800000E+00  1.00800000E+00
  1.60000000E+01  1.00800000E+00  1.00800000E+00  1.60000000E+01  1.00800000E+00
  1.00800000E+00  1.60000000E+01  1.00800000E+00  1.00800000E+00  1.60000000E+01
  1.00800000E+00  1.00800000E+00  1.60000000E+01  1.00800000E+00  1.00800000E+00
  1.60000000E+01  1.00800000E+00  1.00800000E+00  1.60000000E+01  1.00800000E+00
  1.00800000E+00  1.60000000E+01  1.00800000E+00  1.00800000E+00  1.60000000E+01
  1.00800000E+00  1.00800000E+00  1.60000000E+01  1.00800000E+00  1.00800000E+00
  1.60000000E+01  1.00800000E+00  1.00800000E+00  1.60000000E+01  1.00800000E+00
  1.00800000E+00  1.60000000E+01  1.00800000E+00  1.00800000E+00  1.60000000E+01
  1.00800000E+00  1.00800000E+00  1.60000000E+01  1.00800000E+00  1.00800000E+00
  1.60000000E+01  1.00800000E+00  1.00800000E+00  1.60000000E+01  1.00800000E+00
  1.00800000E+00  1.60000000E+01  1.00800000E+00  1.00800000E+00  1.60000000E+01
  1.00800000E+00  1.00800000E+00  1.60000000E+01  1.00800000E+00  1.00800000E+00
  1.60000000E+01  1.00800000E+00  1.00800000E+00  1.60000000E+01  1.00800000E+00
  1.00800000E+00  1.60000000E+01  1.00800000E+00  1.00800000E+00  1.60000000E+01
  1.00800000E+00  1.00800000E+00  1.60000000E+01  1.00800000E+00  1.00800000E+00
  1.60000000E+01  1.00800000E+00  1.00800000E+00  1.60000000E+01  1.00800000E+00
  1.00800000E+00  1.60000000E+01  1.00800000E+00  1.00800000E+00  1.60000000E+01
  1.00800000E+00  1.00800000E+00  1.60000000E+01  1.00800000E+00  1.00800000E+00
  1.60000000E+01  1.00800000E+00  1.00800000E+00  1.60000000E+01  1.00800000E+00
  1.00800000E+00  1.60000000E+01  1.00800000E+00  1.00800000E+00  1.60000000E+01
  1.00800000E+00  1.00800000E+00  1.60000000E+01  1.00800000E+00  1.00800000E+00
  1.60000000E+01  1.00800000E+00  1.00800000E+00  1.60000000E+01  1.00800000E+00
  1.00800000E+00  1.60000000E+01  1.00800000E+00  1.00800000E+00  1.60000000E+01
  1.00800000E+00  1.00800000E+00  1.60000000E+01  1.00800000E+00  1.00800000E+00
  1.60000000E+01  1.00800000E+00  1.00800000E+00  1.60000000E+01  1.00800000E+00
  1.00800000E+00  1.60000000E+01  1.00800000E+00  1.00800000E+00  1.60000000E+01
  1.00800000E+00  1.00800000E+00  1.60000000E+01  1.00800000E+00  1.00800000E+00
  1.60000000E+01  1.00800000E+00  1.00800000E+00  1.60000000E+01  1.00800000E+00
  1.00800000E+00  1.60000000E+01  1.00800000E+00  1.00800000E+00  1.60000000E+01
  1.00800000E+00  1.00800000E+00  1.60000000E+01  1.00800000E+00  1.00800000E+00
  1.60000000E+01  1.00800000E+00  1.00800000E+00  1.60000000E+01  1.00800000E+00
  1.00800000E+00  1.60000000E+01  1.00800000E+00  1.00800000E+00  1.60000000E+01
  1.00800000E+00  1.00800000E+00  1.60000000E+01  1.00800000E+00  1.00800000E+00
  1.60000000E+01  1.00800000E+00  1.00800000E+00  1.60000000E+01  1.00800000E+00
  1.00800000E+00  1.60000000E+01  1.00800000E+00  1.00800000E+00  1.60000000E+01
  1.00800000E+00  1.00800000E+00  1.60000000E+01  1.00800000E+00  1.00800000E+00
  1.60000000E+01  1.00800000E+00  1.00800000E+00  1.60000000E+01  1.00800000E+00
  1.00800000E+00  1.60000000E+01  1.00800000E+00  1.00800000E+00  1.60000000E+01
  1.00800000E+00  1.00800000E+00  1.60000000E+01  1.00800000E+00  1.00800000E+00
  1.60000000E+01  1.00800000E+00  1.00800000E+00  1.60000000E+01  1.00800000E+00
  1.00800000E+00  1.60000000E+01  1.00800000E+00  1.00800000E+00  1.60000000E+01
  1.00800000E+00  1.00800000E+00  1.60000000E+01  1.00800000E+00  1.00800000E+00
  1.60000000E+01  1.00800000E+00  1.00800000E+00  1.60000000E+01  1.00800000E+00
  1.00800000E+00  1.60000000E+01  1.00800000E+00  1.00800000E+00  1.60000000E+01
  1.00800000E+00  1.00800000E+00  1.60000000E+01  1.00800000E+00  1.00800000E+00
  1.60000000E+01  1.00800000E+00  1.00800000E+00  1.60000000E+01  1.00800000E+00
  1.00800000E+00  1.60000000E+01  1.00800000E+00  1.00800000E+00  1.60000000E+01
  1.00800000E+00  1.00800000E+00  1.60000000E+01  1.00800000E+00  1.00800000E+00
  1.60000000E+01  1.00800000E+00  1.00800000E+00  1.60000000E+01  1.00800000E+00
  1.00800000E+00  1.60000000E+01  1.00800000E+00  1.00800000E+00  1.60000000E+01
  1.00800000E+00  1.00800000E+00  1.60000000E+01  1.00800000E+00  1.00800000E+00
  1.60000000E+01  1.00800000E+00  1.00800000E+00  1.60000000E+01  1.00800000E+00
  1.00800000E+00  1.60000000E+01  1.00800000E+00  1.00800000E+00  1.60000000E+01
  1.00800000E+00  1.00800000E+00  1.60000000E+01  1.00800000E+00  1.00800000E+00
  1.60000000E+01  1.00800000E+00  1.00800000E+00  1.60000000E+01  1.00800000E+00
  1.00800000E+00  1.60000000E+01  1.00800000E+00  1.00800000E+00  1.60000000E+01
  1.00800000E+00  1.00800000E+00  1.60000000E+01  1.00800000E+00  1.00800000E+00
  1.60000000E+01  1.00800000E+00  1.00800000E+00  1.60000000E+01  1.00800000E+00
  1.00800000E+00  1.60000000E+01  1.00800000E+00  1.00800000E+00  1.60000000E+01
  1.00800000E+00  1.00800000E+00  1.60000000E+01  1.00800000E+00  1.00800000E+00
  1.60000000E+01  1.00800000E+00  1.00800000E+00  1.60000000E+01  1.00800000E+00
  1.00800000E+00  1.60000000E+01  1.00800000E+00  1.00800000E+00  1.60000000E+01
  1.00800000E+00  1.00800000E+00  1.60000000E+01  1.00800000E+00  1.00800000E+00
  1.60000000E+01  1.00800000E+00  1.00800000E+00  1.60000000E+01  1.00800000E+00
  1.00800000E+00  1.60000000E+01  1.00800000E+00  1.00800000E+00  1.60000000E+01
  1.00800000E+00  1.00800000E+00  1.60000000E+01  1.00800000E+00  1.00800000E+00
  1.60000000E+01  1.00800000E+00  1.00800000E+00  1.60000000E+01  1.00800000E+00
  1.00800000E+00  1.60000000E+01  1.00800000E+00  1.00800000E+00  1.60000000E+01
  1.00800000E+00  1.00800000E+00  1.60000000E+01  1.00800000E+00  1.00800000E+00
  1.60000000E+01  1.00800000E+00  1.00800000E+00  1.60000000E+01  1.00800000E+00
  1.00800000E+00  1.60000000E+01  1.00800000E+00  1.00800000E+00  1.60000000E+01
  1.00800000E+00  1.00800000E+00  1.60000000E+01  1.00800000E+00  1.00800000E+00
  1.60000000E+01  1.00800000E+00  1.00800000E+00  1.60000000E+01  1.00800000E+00
  1.00800000E+00  1.60000000E+01  1.00800000E+00  1.00800000E+00  1.60000000E+01
  1.00800000E+00  1.00800000E+00  1.60000000E+01  1.00800000E+00  1.00800000E+00
  1.60000000E+01  1.00800000E+00  1.00800000E+00  1.60000000E+01  1.00800000E+00
  1.00800000E+00  1.60000000E+01  1.00800000E+00  1.00800000E+00  1.60000000E+01
  1.00800000E+00  1.00800000E+00  1.60000000E+01  1.00800000E+00  1.00800000E+00
  1.60000000E+01  1.00800000E+00  1.00800000E+00  1.60000000E+01  1.00800000E+00
  1.00800000E+00  1.60000000E+01  1.00800000E+00  1.00800000E+00  1.60000000E+01
  1.00800000E+00  1.00800000E+00  1.60000000E+01  1.00800000E+00  1.00800000E+00
  1.60000000E+01  1.00800000E+00  1.00800000E+00  1.60000000E+01  1.00800000E+00
  1.00800000E+00  1.60000000E+01  1.00800000E+00  1.00800000E+00  1.60000000E+01
  1.00800000E+00  1.00800000E+00  1.60000000E+01  1.00800000E+00  1.00800000E+00
  1.60000000E+01  1.00800000E+00  1.00800000E+00  1.60000000E+01  1.00800000E+00
  1.00800000E+00  1.60000000E+01  1.00800000E+00  1.00800000E+00  1.60000000E+01
  1.00800000E+00  1.00800000E+00  1.60000000E+01  1.00800000E+00  1.00800000E+00
  1.60000000E+01  1.00800000E+00  1.00800000E+00  1.60000000E+01  1.00800000E+00
  1.00800000E+00  1.60000000E+01  1.00800000E+00  1.00800000E+00  1.60000000E+01
  1.00800000E+00  1.00800000E+00  1.60000000E+01  1.00800000E+00  1.00800000E+00
  1.60000000E+01  1.00800000E+00  1.00800000E+00  1.60000000E+01  1.00800000E+00
  1.00800000E+00  1.60000000E+01  1.00800000E+00  1.00800000E+00  1.60000000E+01
  1.00800000E+00  1.00800000E+00  1.60000000E+01  1.00800000E+00  1.00800000E+00
  1.60000000E+01  1.00800000E+00  1.00800000E+00  1.60000000E+01  1.00800000E+00
  1.00800000E+00  1.60000000E+01  1.00800000E+00  1.00800000E+00  1.60000000E+01
  1.00800000E+00  1.00800000E+00  1.60000000E+01  1.00800000E+00  1.00800000E+00
  1.60000000E+01  1.00800000E+00  1.00800000E+00  1.60000000E+01  1.00800000E+00
  1.00800000E+00  1.60000000E+01  1.00800000E+00  1.00800000E+00  1.60000000E+01
  1.00800000E+00  1.00800000E+00  1.60000000E+01  1.00800000E+00  1.00800000E+00
  1.60000000E+01  1.00800000E+00  1.00800000E+00  1.60000000E+01  1.00800000E+00
  1.00800000E+00  1.60000000E+01  1.00800000E+00  1.00800000E+00  1.60000000E+01
  1.00800000E+00  1.00800000E+00  1.60000000E+01  1.00800000E+00  1.00800000E+00
  1.60000000E+01  1.00800000E+00  1.00800000E+00  1.60000000E+01  1.00800000E+00
  1.00800000E+00  1.60000000E+01  1.00800000E+00  1.00800000E+00  1.60000000E+01
  1.00800000E+00  1.00800000E+00  1.60000000E+01  1.00800000E+00  1.00800000E+00
  1.60000000E+01  1.00800000E+00  1.00800000E+00  1.60000000E+01  1.00800000E+00
  1.00800000E+00  1.60000000E+01  1.00800000E+00  1.00800000E+00  1.60000000E+01
  1.00800000E+00  1.00800000E+00  1.60000000E+01  1.00800000E+00  1.00800000E+00
  1.60000000E+01  1.00800000E+00  1.00800000E+00  1.60000000E+01  1.00800000E+00
  1.00800000E+00  1.60000000E+01  1.00800000E+00  1.00800000E+00  1.60000000E+01
  1.00800000E+00  1.00800000E+00  1.60000000E+01  1.00800000E+00  1.00800000E+00
  1.60000000E+01  1.00800000E+00  1.00800000E+00  1.60000000E+01  1.00800000E+00
  1.00800000E+00  1.60000000E+01  1.00800000E+00  1.00800000E+00  1.60000000E+01
  1.00800000E+00  1.00800000E+00  1.60000000E+01  1.00800000E+00  1.00800000E+00
  1.60000000E+01  1.00800000E+00  1.00800000E+00  1.60000000E+01  1.00800000E+00
  1.00800000E+00  1.60000000E+01  1.00800000E+00  1.00800000E+00  1.60000000E+01
  1.00800000E+00  1.00800000E+00  1.60000000E+01  1.00800000E+00  1.00800000E+00
  1.60000000E+01  1.00800000E+00  1.00800000E+00  1.60000000E+01  1.00800000E+00
  1.00800000E+00  1.60000000E+01  1.00800000E+00  1.00800000E+00  1.60000000E+01
  1.00800000E+00  1.00800000E+00  1.60000000E+01  1.00800000E+00  1.00800000E+00
  1.60000000E+01  1.00800000E+00  1.00800000E+00  1.60000000E+01  1.00800000E+00
  1.00800000E+00  1.60000000E+01  1.00800000E+00  1.00800000E+00  1.60000000E+01
  1.00800000E+00  1.00800000E+00  1.60000000E+01  1.00800000E+00  1.00800000E+00
  1.60000000E+01  1.00800000E+00  1.00800000E+00  1.60000000E+01  1.00800000E+00
  1.00800000E+00  1.60000000E+01  1.00800000E+00  1.00800000E+00  1.60000000E+01
  1.00800000E+00  1.00800000E+00  1.60000000E+01  1.00800000E+00  1.00800000E+00
  1.60000000E+01  1.00800000E+00  1.00800000E+00  1.60000000E+01  1.00800000E+00
  1.00800000E+00  1.60000000E+01  1.00800000E+00  1.00800000E+00  1.60000000E+01
  1.00800000E+00  1.00800000E+00  1.60000000E+01  1.00800000E+00  1.00800000E+00
  1.60000000E+01  1.00800000E+00  1.00800000E+00  1.60000000E+01  1.00800000E+00
  1.00800000E+00  1.60000000E+01  1.00800000E+00  1.00800000E+00  1.60000000E+01
  1.00800000E+00  1.00800000E+00  1.60000000E+01  1.00800000E+00  1.00800000E+00
  1.60000000E+01  1.00800000E+00  1.00800000E+00  1.60000000E+01  1.00800000E+00
  1.00800000E+00  1.60000000E+01  1.00800000E+00  1.00800000E+00  1.60000000E+01
  1.00800000E+00  1.00800000E+00  1.60000000E+01  1.00800000E+00  1.00800000E+00
  1.60000000E+01  1.00800000E+00  1.00800000E+00  1.60000000E+01  1.00800000E+00
  1.00800000E+00  1.60000000E+01  1.00800000E+00  1.00800000E+00  1.60000000E+01
  1.00800000E+00  1.00800000E+00  1.60000000E+01  1.00800000E+00  1.00800000E+00
  1.60000000E+01  1.00800000E+00  1.00800000E+00  1.60000000E+01  1.00800000E+00
  1.00800000E+00  1.60000000E+01  1.00800000E+00  1.00800000E+00  1.60000000E+01
  1.00800000E+00  1.00800000E+00  1.60000000E+01  1.00800000E+00  1.00800000E+00
  1.60000000E+01  1.00800000E+00  1.00800000E+00  1.60000000E+01  1.00800000E+00
  1.00800000E+00  1.60000000E+01  1.00800000E+00  1.00800000E+00  1.60000000E+01
  1.00800000E+00  1.00800000E+00  1.60000000E+01  1.00800000E+00  1.00800000E+00
  1.60000000E+01  1.00800000E+00  1.00800000E+00  1.60000000E+01  1.00800000E+00
  1.00800000E+00  1.60000000E+01  1.00800000E+00  1.00800000E+00  1.60000000E+01
  1.00800000E+00  1.00800000E+00  1.60000000E+01  1.00800000E+00  1.00800000E+00
  1.60000000E+01  1.00800000E+00  1.00800000E+00  1.60000000E+01  1.00800000E+00
  1.00800000E+00  1.60000000E+01  1.00800000E+00  1.00800000E+00  1.60000000E+01
  1.00800000E+00  1.00800000E+00  1.60000000E+01  1.00800000E+00  1.00800000E+00
  1.60000000E+01  1.00800000E+00  1.00800000E+00  1.60000000E+01  1.00800000E+00
  1.00800000E+00  1.60000000E+01  1.00800000E+00  1.00800000E+00  1.60000000E+01
  1.00800000E+00  1.00800000E+00  1.60000000E+01  1.00800000E+00  1.00800000E+00
  1.60000000E+01  1.00800000E+00  1.00800000E+00  1.60000000E+01  1.00800000E+00
  1.00800000E+00  1.60000000E+01  1.00800000E+00  1.00800000E+00  1.60000000E+01
  1.00800000E+00  1.00800000E+00  1.60000000E+01  1.00800000E+00  1.00800000E+00
  1.60000000E+01  1.00800000E+00  1.00800000E+00  1.60000000E+01  1.00800000E+00
  1.00800000E+00  1.60000000E+01  1.00800000E+00  1.00800000E+00  1.60000000E+01
  1.00800000E+00  1.00800000E+00  1.60000000E+01  1.00800000E+00  1.00800000E+00
  1.60000000E+01  1.00800000E+00  1.00800000E+00  1.60000000E+01  1.00800000E+00
  1.00800000E+00  1.60000000E+01  1.00800000E+00  1.00800000E+00  1.60000000E+01
  1.00800000E+00  1.00800000E+00  1.60000000E+01  1.00800000E+00  1.00800000E+00
  1.60000000E+01  1.00800000E+00  1.00800000E+00  1.60000000E+01  1.00800000E+00
  1.00800000E+00  1.60000000E+01  1.00800000E+00  1.00800000E+00  1.60000000E+01
  1.00800000E+00  1.00800000E+00  1.60000000E+01  1.00800000E+00  1.00800000E+00
  1.60000000E+01  1.00800000E+00  1.00800000E+00  1.60000000E+01  1.00800000E+00
  1.00800000E+00  1.60000000E+01  1.00800000E+00  1.00800000E+00  1.60000000E+01
  1.00800000E+00  1.00800000E+00  1.60000000E+01  1.00800000E+00  1.00800000E+00
  1.60000000E+01  1.00800000E+00  1.00800000E+00  1.60000000E+01  1.00800000E+00
  1.00800000E+00  1.60000000E+01  1.00800000E+00  1.00800000E+00  1.60000000E+01
  1.00800000E+00  1.00800000E+00  1.60000000E+01  1.00800000E+00  1.00800000E+00
  1.60000000E+01  1.00800000E+00  1.00800000E+00  1.60000000E+01  1.00800000E+00
  1.00800000E+00  1.60000000E+01  1.00800000E+00  1.00800000E+00  1.60000000E+01
  1.00800000E+00  1.00800000E+00  1.60000000E+01  1.00800000E+00  1.00800000E+00
  1.60000000E+01  1.00800000E+00  1.00800000E+00  1.60000000E+01  1.00800000E+00
  1.00800000E+00  1.60000000E+01  1.00800000E+00  1.00800000E+00  1.60000000E+01
  1.00800000E+00  1.00800000E+00  1.60000000E+01  1.00800000E+00  1.00800000E+00
  1.60000000E+01  1.00800000E+00  1.00800000E+00  1.60000000E+01  1.00800000E+00
  1.00800000E+00  1.60000000E+01  1.00800000E+00  1.00800000E+00  1.60000000E+01
  1.00800000E+00  1.00800000E+00  1.60000000E+01  1.00800000E+00  1.00800000E+00
  1.60000000E+01  1.00800000E+00  1.00800000E+00  1.60000000E+01  1.00800000E+00
  1.00800000E+00  1.60000000E+01  1.00800000E+00  1.00800000E+00  1.60000000E+01
  1.00800000E+00  1.00800000E+00  1.60000000E+01  1.00800000E+00  1.00800000E+00
  1.60000000E+01  1.00800000E+00  1.00800000E+00  1.60000000E+01  1.00800000E+00
  1.00800000E+00  1.60000000E+01  1.00800000E+00  1.00800000E+00  1.60000000E+01
  1.00800000E+00  1.00800000E+00  1.60000000E+01  1.00800000E+00  1.00800000E+00
  1.60000000E+01  1.00800000E+00  1.00800000E+00  1.60000000E+01  1.00800000E+00
  1.00800000E+00  1.60000000E+01  1.00800000E+00  1.00800000E+00  1.60000000E+01
  1.00800000E+00  1.00800000E+00  1.60000000E+01  1.00800000E+00  1.00800000E+00
  1.60000000E+01  1.00800000E+00  1.00800000E+00  1.60000000E+01  1.00800000E+00
  1.00800000E+00  1.60000000E+01  1.00800000E+00  1.00800000E+00  1.60000000E+01
  1.00800000E+00  1.00800000E+00  1.60000000E+01  1.00800000E+00  1.00800000E+00
  1.60000000E+01  1.00800000E+00  1.00800000E+00  1.60000000E+01  1.00800000E+00
  1.00800000E+00  1.60000000E+01  1.00800000E+00  1.00800000E+00  1.60000000E+01
  1.00800000E+00  1.00800000E+00  1.60000000E+01  1.00800000E+00  1.00800000E+00
  1.60000000E+01  1.00800000E+00  1.00800000E+00  1.60000000E+01  1.00800000E+00
  1.00800000E+00  1.60000000E+01  1.00800000E+00  1.00800000E+00  1.60000000E+01
  1.00800000E+00  1.00800000E+00  1.60000000E+01  1.00800000E+00  1.00800000E+00
  1.60000000E+01  1.00800000E+00  1.00800000E+00  1.60000000E+01  1.00800000E+00
  1.00800000E+00  1.60000000E+01  1.00800000E+00  1.00800000E+00  1.60000000E+01
  1.00800000E+00  1.00800000E+00  1.60000000E+01  1.00800000E+00  1.00800000E+00
  1.60000000E+01  1.00800000E+00  1.00800000E+00  1.60000000E+01  1.00800000E+00
  1.00800000E+00  1.60000000E+01  1.00800000E+00  1.00800000E+00  1.60000000E+01
  1.00800000E+00  1.00800000E+00  1.60000000E+01  1.00800000E+00  1.00800000E+00
  1.60000000E+01  1.00800000E+00  1.00800000E+00  1.60000000E+01  1.00800000E+00
  1.00800000E+00  1.60000000E+01  1.00800000E+00  1.00800000E+00  1.60000000E+01
  1.00800000E+00  1.00800000E+00  1.60000000E+01  1.00800000E+00  1.00800000E+00
  1.60000000E+01  1.00800000E+00  1.00800000E+00  1.60000000E+01  1.00800000E+00
  1.00800000E+00  1.60000000E+01  1.00800000E+00  1.00800000E+00  1.60000000E+01
  1.00800000E+00  1.00800000E+00  1.60000000E+01  1.00800000E+00  1.00800000E+00
  1.60000000E+01  1.00800000E+00  1.00800000E+00  1.60000000E+01  1.00800000E+00
  1.00800000E+00  1.60000000E+01  1.00800000E+00  1.00800000E+00  1.60000000E+01
  1.00800000E+00  1.00800000E+00  1.60000000E+01  1.00800000E+00  1.00800000E+00
  1.60000000E+01  1.00800000E+00  1.00800000E+00  1.60000000E+01  1.00800000E+00
  1.00800000E+00  1.60000000E+01  1.00800000E+00  1.00800000E+00  1.60000000E+01
  1.00800000E+00  1.00800000E+00  1.60000000E+01  1.00800000E+00  1.00800000E+00
  1.60000000E+01  1.00800000E+00  1.00800000E+00  1.60000000E+01  1.00800000E+00
  1.00800000E+00  1.60000000E+01  1.00800000E+00  1.00800000E+00  1.60000000E+01
  1.00800000E+00  1.00800000E+00  1.60000000E+01  1.00800000E+00  1.00800000E+00
  1.60000000E+01  1.00800000E+00  1.00800000E+00  1.60000000E+01  1.00800000E+00
  1.00800000E+00  1.60000000E+01  1.00800000E+00  1.00800000E+00  1.60000000E+01
  1.00800000E+00  1.00800000E+00  1.60000000E+01  1.00800000E+00  1.00800000E+00
  1.60000000E+01  1.00800000E+00  1.00800000E+00  1.60000000E+01  1.00800000E+00
  1.00800000E+00  1.60000000E+01  1.00800000E+00  1.00800000E+00  1.60000000E+01
  1.00800000E+00  1.00800000E+00  1.60000000E+01  1.00800000E+00  1.00800000E+00
  1.60000000E+01  1.00800000E+00  1.00800000E+00  1.60000000E+01  1.00800000E+00
  1.00800000E+00  1.60000000E+01  1.00800000E+00  1.00800000E+00  1.60000000E+01
  1.00800000E+00  1.00800000E+00  1.60000000E+01  1.00800000E+00  1.00800000E+00
  1.60000000E+01  1.00800000E+00  1.00800000E+00  1.60000000E+01  1.00800000E+00
  1.00800000E+00  1.60000000E+01  1.00800000E+00  1.00800000E+00  1.60000000E+01
  1.00800000E+00  1.00800000E+00  1.60000000E+01  1.00800000E+00  1.00800000E+00
  1.60000000E+01  1.00800000E+00  1.00800000E+00  1.60000000E+01  1.00800000E+00
  1.00800000E+00  1.60000000E+01  1.00800000E+00  1.00800000E+00  1.60000000E+01
  1.00800000E+00  1.00800000E+00  1.60000000E+01  1.00800000E+00  1.00800000E+00
  1.60000000E+01  1.00800000E+00  1.00800000E+00  1.60000000E+01  1.00800000E+00
  1.00800000E+00  1.60000000E+01  1.00800000E+00  1.00800000E+00  1.60000000E+01
  1.00800000E+00  1.00800000E+00  1.60000000E+01  1.00800000E+00  1.00800000E+00
  1.60000000E+01  1.00800000E+00  1.00800000E+00  1.60000000E+01  1.00800000E+00
  1.00800000E+00  1.60000000E+01  1.00800000E+00  1.00800000E+00  1.60000000E+01
  1.00800000E+00  1.00800000E+00  1.60000000E+01  1.00800000E+00  1.00800000E+00
  1.60000000E+01  1.00800000E+00  1.00800000E+00  1.60000000E+01  1.00800000E+00
  1.00800000E+00  1.60000000E+01  1.00800000E+00  1.00800000E+00  1.60000000E+01
  1.00800000E+00  1.00800000E+00  1.60000000E+01  1.00800000E+00  1.00800000E+00
  1.60000000E+01  1.00800000E+00  1.00800000E+00  1.60000000E+01  1.00800000E+00
  1.00800000E+00  1.60000000E+01  1.00800000E+00  1.00800000E+00  1.60000000E+01
  1.00800000E+00  1.00800000E+00  1.60000000E+01  1.00800000E+00  1.00800000E+00
  1.60000000E+01  1.00800000E+00  1.00800000E+00  1.60000000E+01  1.00800000E+00
  1.00800000E+00  1.60000000E+01  1.00800000E+00  1.00800000E+00  1.60000000E+01
  1.00800000E+00  1.00800000E+00  1.60000000E+01  1.00800000E+00  1.00800000E+00
  1.60000000E+01  1.00800000E+00  1.00800000E+00  1.60000000E+01  1.00800000E+00
  1.00800000E+00  1.60000000E+01  1.00800000E+00  1.00800000E+00  1.60000000E+01
  1.00800000E+00  1.00800000E+00  1.60000000E+01  1.00800000E+00  1.00800000E+00
  1.60000000E+01  1.00800000E+00  1.00800000E+00  1.60000000E+01  1.00800000E+00
  1.00800000E+00  1.60000000E+01  1.00800000E+00  1.00800000E+00  1.60000000E+01
  1.00800000E+00  1.00800000E+00  1.60000000E+01  1.00800000E+00  1.00800000E+00
  1.60000000E+01  1.00800000E+00  1.00800000E+00  1.60000000E+01  1.00800000E+00
  1.00800000E+00  1.60000000E+01  1.00800000E+00  1.00800000E+00  1.60000000E+01
  1.00800000E+00  1.00800000E+00  1.60000000E+01  1.00800000E+00  1.00800000E+00
  1.60000000E+01  1.00800000E+00  1.00800000E+00  1.60000000E+01  1.00800000E+00
  1.00800000E+00  1.60000000E+01  1.00800000E+00  1.00800000E+00  1.60000000E+01
  1.00800000E+00  1.00800000E+00  1.60000000E+01  1.00800000E+00  1.00800000E+00
  1.60000000E+01  1.00800000E+00  1.00800000E+00  1.60000000E+01  1.00800000E+00
  1.00800000E+00  1.60000000E+01  1.00800000E+00  1.00800000E+00  1.60000000E+01
  1.00800000E+00  1.00800000E+00  1.60000000E+01  1.00800000E+00  1.00800000E+00
  1.60000000E+01  1.00800000E+00  1.00800000E+00  1.60000000E+01  1.00800000E+00
  1.00800000E+00  1.60000000E+01  1.00800000E+00  1.00800000E+00  1.60000000E+01
  1.00800000E+00  1.00800000E+00  1.60000000E+01  1.00800000E+00  1.00800000E+00
  1.60000000E+01  1.00800000E+00  1.00800000E+00  1.60000000E+01  1.00800000E+00
  1.00800000E+00  1.60000000E+01  1.00800000E+00  1.00800000E+00  1.60000000E+01
  1.00800000E+00  1.00800000E+00  1.60000000E+01  1.00800000E+00  1.00800000E+00
  1.60000000E+01  1.00800000E+00  1.00800000E+00  1.60000000E+01  1.00800000E+00
  1.00800000E+00  1.60000000E+01  1.00800000E+00  1.00800000E+00  1.60000000E+01
  1.00800000E+00  1.00800000E+00  1.60000000E+01  1.00800000E+00  1.00800000E+00
  1.60000000E+01  1.00800000E+00  1.00800000E+00  1.60000000E+01  1.00800000E+00
  1.00800000E+00  1.60000000E+01  1.00800000E+00  1.00800000E+00  1.60000000E+01
  1.00800000E+00  1.00800000E+00  1.60000000E+01  1.00800000E+00  1.00800000E+00
  1.60000000E+01  1.00800000E+00  1.00800000E+00  1.60000000E+01  1.00800000E+00
  1.00800000E+00  1.60000000E+01  1.00800000E+00  1.00800000E+00  1.60000000E+01
  1.00800000E+00  1.00800000E+00  1.60000000E+01  1.00800000E+00  1.00800000E+00
  1.60000000E+01  1.00800000E+00  1.00800000E+00  1.60000000E+01  1.00800000E+00
  1.00800000E+00  1.60000000E+01  1.00800000E+00  1.00800000E+00  1.60000000E+01
  1.00800000E+00  1.00800000E+00  1.60000000E+01  1.00800000E+00  1.00800000E+00
  1.60000000E+01  1.00800000E+00  1.00800000E+00  1.60000000E+01  1.00800000E+00
  1.00800000E+00  1.60000000E+01  1.00800000E+00  1.00800000E+00  1.60000000E+01
  1.00800000E+00  1.00800000E+00  1.60000000E+01  1.00800000E+00  1.00800000E+00
  1.60000000E+01  1.00800000E+00  1.00800000E+00  1.60000000E+01  1.00800000E+00
  1.00800000E+00  1.60000000E+01  1.00800000E+00  1.00800000E+00  1.60000000E+01
  1.00800000E+00  1.00800000E+00  1.60000000E+01  1.00800000E+00  1.00800000E+00
  1.60000000E+01  1.00800000E+00  1.00800000E+00  1.60000000E+01  1.00800000E+00
  1.00800000E+00  1.60000000E+01  1.00800000E+00  1.00800000E+00  1.60000000E+01
  1.00800000E+00  1.00800000E+00  1.60000000E+01  1.00800000E+00  1.00800000E+00
  1.60000000E+01  1.00800000E+00  1.00800000E+00  1.60000000E+01  1.00800000E+00
  1.00800000E+00  1.60000000E+01  1.00800000E+00  1.00800000E+00  1.60000000E+01
  1.00800000E+00  1.00800000E+00  1.60000000E+01  1.00800000E+00  1.00800000E+00
  1.60000000E+01  1.00800000E+00  1.00800000E+00  1.60000000E+01  1.00800000E+00
  1.00800000E+00  1.60000000E+01  1.00800000E+00  1.00800000E+00  1.60000000E+01
  1.00800000E+00  1.00800000E+00  1.60000000E+01  1.00800000E+00  1.00800000E+00
  1.60000000E+01  1.00800000E+00  1.00800000E+00  1.60000000E+01  1.00800000E+00
  1.00800000E+00  1.60000000E+01  1.00800000E+00  1.00800000E+00  1.60000000E+01
  1.00800000E+00  1.00800000E+00  1.60000000E+01  1.00800000E+00  1.00800000E+00
  1.60000000E+01  1.00800000E+00  1.00800000E+00  1.60000000E+01  1.00800000E+00
  1.00800000E+00  1.60000000E+01  1.00800000E+00  1.00800000E+00  1.60000000E+01
  1.00800000E+00  1.00800000E+00  1.60000000E+01  1.00800000E+00  1.00800000E+00
  1.60000000E+01  1.00800000E+00  1.00800000E+00  1.60000000E+01  1.00800000E+00
  1.00800000E+00  1.60000000E+01  1.00800000E+00  1.00800000E+00  1.60000000E+01
  1.00800000E+00  1.00800000E+00  1.60000000E+01  1.00800000E+00  1.00800000E+00
  1.60000000E+01  1.00800000E+00  1.00800000E+00  1.60000000E+01  1.00800000E+00
  1.00800000E+00  1.60000000E+01  1.00800000E+00  1.00800000E+00  1.60000000E+01
  1.00800000E+00  1.00800000E+00  1.60000000E+01  1.00800000E+00  1.00800000E+00
  1.60000000E+01  1.00800000E+00  1.00800000E+00  1.60000000E+01  1.00800000E+00
  1.00800000E+00  1.60000000E+01  1.00800000E+00  1.00800000E+00  1.60000000E+01
  1.00800000E+00  1.00800000E+00  1.60000000E+01  1.00800000E+00  1.00800000E+00
  1.60000000E+01  1.00800000E+00  1.00800000E+00  1.60000000E+01  1.00800000E+00
  1.00800000E+00  1.60000000E+01  1.00800000E+00  1.00800000E+00  1.60000000E+01
  1.00800000E+00  1.00800000E+00  1.60000000E+01  1.00800000E+00  1.00800000E+00
  1.60000000E+01  1.00800000E+00  1.00800000E+00  1.60000000E+01  1.00800000E+00
  1.00800000E+00  1.60000000E+01  1.00800000E+00  1.00800000E+00  1.60000000E+01
  1.00800000E+00  1.00800000E+00  1.60000000E+01  1.00800000E+00  1.00800000E+00
  1.60000000E+01  1.00800000E+00  1.00800000E+00  1.60000000E+01  1.00800000E+00
  1.00800000E+00  1.60000000E+01  1.00800000E+00  1.00800000E+00  1.60000000E+01
  1.00800000E+00  1.00800000E+00  1.60000000E+01  1.00800000E+00  1.00800000E+00
  1.60000000E+01  1.00800000E+00  1.00800000E+00  1.60000000E+01  1.00800000E+00
  1.00800000E+00  1.60000000E+01  1.00800000E+00  1.00800000E+00  1.60000000E+01
  1.00800000E+00  1.00800000E+00  1.60000000E+01  1.00800000E+00  1.00800000E+00
  1.60000000E+01  1.00800000E+00  1.00800000E+00  1.60000000E+01  1.00800000E+00
  1.00800000E+00  1.60000000E+01  1.00800000E+00  1.00800000E+00  1.60000000E+01
  1.00800000E+00  1.00800000E+00  1.60000000E+01  1.00800000E+00  1.00800000E+00
  1.60000000E+01  1.00800000E+00  1.00800000E+00  1.60000000E+01  1.00800000E+00
  1.00800000E+00  1.60000000E+01  1.00800000E+00  1.00800000E+00  1.60000000E+01
  1.00800000E+00  1.00800000E+00  1.60000000E+01  1.00800000E+00  1.00800000E+00
  1.60000000E+01  1.00800000E+00  1.00800000E+00  1.60000000E+01  1.00800000E+00
  1.00800000E+00  1.60000000E+01  1.00800000E+00  1.00800000E+00  1.60000000E+01
  1.00800000E+00  1.00800000E+00  1.60000000E+01  1.00800000E+00  1.00800000E+00
  1.60000000E+01  1.00800000E+00  1.00800000E+00  1.60000000E+01  1.00800000E+00
  1.00800000E+00  1.60000000E+01  1.00800000E+00  1.00800000E+00  1.60000000E+01
  1.00800000E+00  1.00800000E+00  1.60000000E+01  1.00800000E+00  1.00800000E+00
  1.60000000E+01  1.00800000E+00  1.00800000E+00  1.60000000E+01  1.00800000E+00
  1.00800000E+00  1.60000000E+01  1.00800000E+00  1.00800000E+00  1.60000000E+01
  1.00800000E+00  1.00800000E+00  1.60000000E+01  1.00800000E+00  1.00800000E+00
  1.60000000E+01  1.00800000E+00  1.00800000E+00  1.60000000E+01  1.00800000E+00
  1.00800000E+00  1.60000000E+01  1.00800000E+00  1.00800000E+00  1.60000000E+01
  1.00800000E+00  1.00800000E+00  1.60000000E+01  1.00800000E+00  1.00800000E+00
  1.60000000E+01  1.00800000E+00  1.00800000E+00  1.60000000E+01  1.00800000E+00
  1.00800000E+00  1.60000000E+01  1.00800000E+00  1.00800000E+00  1.60000000E+01
  1.00800000E+00  1.00800000E+00  1.60000000E+01  1.00800000E+00  1.00800000E+00
  1.60000000E+01  1.00800000E+00  1.00800000E+00  1.60000000E+01  1.00800000E+00
  1.00800000E+00  1.60000000E+01  1.00800000E+00  1.00800000E+00  1.60000000E+01
  1.00800000E+00  1.00800000E+00  1.60000000E+01  1.00800000E+00  1.00800000E+00
  1.60000000E+01  1.00800000E+00  1.00800000E+00  1.60000000E+01  1.00800000E+00
  1.00800000E+00  1.60000000E+01  1.00800000E+00  1.00800000E+00  1.60000000E+01
  1.00800000E+00  1.00800000E+00  1.60000000E+01  1.00800000E+00  1.00800000E+00
  1.60000000E+01  1.00800000E+00  1.00800000E+00  1.60000000E+01  1.00800000E+00
  1.00800000E+00  1.60000000E+01  1.00800000E+00  1.00800000E+00  1.60000000E+01
  1.00800000E+00  1.00800000E+00  1.60000000E+01  1.00800000E+00  1.00800000E+00
  1.60000000E+01  1.00800000E+00  1.00800000E+00  1.60000000E+01  1.00800000E+00
  1.00800000E+00  1.60000000E+01  1.00800000E+00  1.00800000E+00  1.60000000E+01
  1.00800000E+00  1.00800000E+00  1.60000000E+01  1.00800000E+00  1.00800000E+00
  1.60000000E+01  1.00800000E+00  1.00800000E+00  1.60000000E+01  1.00800000E+00
  1.00800000E+00  1.60000000E+01  1.00800000E+00  1.00800000E+00  1.60000000E+01
  1.00800000E+00  1.00800000E+00  1.60000000E+01  1.00800000E+00  1.00800000E+00
  1.60000000E+01  1.00800000E+00  1.00800000E+00  1.60000000E+01  1.00800000E+00
  1.00800000E+00  1.60000000E+01  1.00800000E+00  1.00800000E+00  1.60000000E+01
  1.00800000E+00  1.00800000E+00  1.60000000E+01  1.00800000E+00  1.00800000E+00
  1.60000000E+01  1.00800000E+00  1.00800000E+00  1.60000000E+01  1.00800000E+00
  1.00800000E+00  1.60000000E+01  1.00800000E+00  1.00800000E+00  1.60000000E+01
  1.00800000E+00  1.00800000E+00  1.60000000E+01  1.00800000E+00  1.00800000E+00
  1.60000000E+01  1.00800000E+00  1.00800000E+00  1.60000000E+01  1.00800000E+00
  1.00800000E+00  1.60000000E+01  1.00800000E+00  1.00800000E+00  1.60000000E+01
  1.00800000E+00  1.00800000E+00  1.60000000E+01  1.00800000E+00  1.00800000E+00
  1.60000000E+01  1.00800000E+00  1.00800000E+00  1.60000000E+01  1.00800000E+00
  1.00800000E+00  1.60000000E+01  1.00800000E+00  1.00800000E+00  1.60000000E+01
  1.00800000E+00  1.00800000E+00  1.60000000E+01  1.00800000E+00  1.00800000E+00
  1.60000000E+01  1.00800000E+00  1.00800000E+00  1.60000000E+01  1.00800000E+00
  1.00800000E+00  1.60000000E+01  1.00800000E+00  1.00800000E+00  1.60000000E+01
  1.00800000E+00  1.00800000E+00  1.60000000E+01  1.00800000E+00  1.00800000E+00
  1.60000000E+01  1.00800000E+00  1.00800000E+00  1.60000000E+01  1.00800000E+00
  1.00800000E+00  1.60000000E+01  1.00800000E+00  1.00800000E+00  1.60000000E+01
  1.00800000E+00  1.00800000E+00  1.60000000E+01  1.00800000E+00  1.00800000E+00
  1.60000000E+01  1.00800000E+00  1.00800000E+00  1.60000000E+01  1.00800000E+00
  1.00800000E+00  1.60000000E+01  1.00800000E+00  1.00800000E+00  1.60000000E+01
  1.00800000E+00  1.00800000E+00  1.60000000E+01  1.00800000E+00  1.00800000E+00
  1.60000000E+01  1.00800000E+00  1.00800000E+00  1.60000000E+01  1.00800000E+00
  1.00800000E+00  1.60000000E+01  1.00800000E+00  1.00800000E+00  1.60000000E+01
  1.00800000E+00  1.00800000E+00  1.60000000E+01  1.00800000E+00  1.00800000E+00
  1.60000000E+01  1.00800000E+00  1.00800000E+00  1.60000000E+01  1.00800000E+00
  1.00800000E+00  1.60000000E+01  1.00800000E+00  1.00800000E+00  1.60000000E+01
  1.00800000E+00  1.00800000E+00  1.60000000E+01  1.00800000E+00  1.00800000E+00
  1.60000000E+01  1.00800000E+00  1.00800000E+00  1.60000000E+01  1.00800000E+00
  1.00800000E+00  1.60000000E+01  1.00800000E+00  1.00800000E+00  1.60000000E+01
  1.00800000E+00  1.00800000E+00  1.60000000E+01  1.00800000E+00  1.00800000E+00
  1.60000000E+01  1.00800000E+00  1.00800000E+00  1.60000000E+01  1.00800000E+00
  1.00800000E+00  1.60000000E+01  1.00800000E+00  1.00800000E+00  1.60000000E+01
  1.00800000E+00  1.00800000E+00  1.60000000E+01  1.00800000E+00  1.00800000E+00
  1.60000000E+01  1.00800000E+00  1.00800000E+00  1.60000000E+01  1.00800000E+00
  1.00800000E+00  1.60000000E+01  1.00800000E+00  1.00800000E+00  1.60000000E+01
  1.00800000E+00  1.00800000E+00  1.60000000E+01  1.00800000E+00  1.00800000E+00
  1.60000000E+01  1.00800000E+00  1.00800000E+00  1.60000000E+01  1.00800000E+00
  1.00800000E+00  1.60000000E+01  1.00800000E+00  1.00800000E+00  1.60000000E+01
  1.00800000E+00  1.00800000E+00  1.60000000E+01  1.00800000E+00  1.00800000E+00
  1.60000000E+01  1.00800000E+00  1.00800000E+00  1.60000000E+01  1.00800000E+00
  1.00800000E+00  1.60000000E+01  1.00800000E+00  1.00800000E+00  1.60000000E+01
  1.00800000E+00  1.00800000E+00  1.60000000E+01  1.00800000E+00  1.00800000E+00
  1.60000000E+01  1.00800000E+00  1.00800000E+00  1.60000000E+01  1.00800000E+00
  1.00800000E+00  1.60000000E+01  1.00800000E+00  1.00800000E+00  1.60000000E+01
  1.00800000E+00  1.00800000E+00  1.60000000E+01  1.00800000E+00  1.00800000E+00
  1.60000000E+01  1.00800000E+00  1.00800000E+00  1.60000000E+01  1.00800000E+00
  1.00800000E+00  1.60000000E+01  1.00800000E+00  1.00800000E+00  1.60000000E+01
  1.00800000E+00  1.00800000E+00  1.60000000E+01  1.00800000E+00  1.00800000E+00
  1.60000000E+01  1.00800000E+00  1.00800000E+00  1.60000000E+01  1.00800000E+00
  1.00800000E+00  1.60000000E+01  1.00800000E+00  1.00800000E+00  1.60000000E+01
  1.00800000E+00  1.00800000E+00  1.60000000E+01  1.00800000E+00  1.00800000E+00
  1.60000000E+01  1.00800000E+00  1.00800000E+00  1.60000000E+01  1.00800000E+00
  1.00800000E+00  1.60000000E+01  1.00800000E+00  1.00800000E+00  1.60000000E+01
  1.00800000E+00  1.00800000E+00  1.60000000E+01  1.00800000E+00  1.00800000E+00
  1.60000000E+01  1.00800000E+00  1.00800000E+00  1.60000000E+01  1.00800000E+00
  1.00800000E+00  1.60000000E+01  1.00800000E+00  1.00800000E+00  1.60000000E+01
  1.00800000E+00  1.00800000E+00  1.60000000E+01  1.00800000E+00  1.00800000E+00
  1.60000000E+01  1.00800000E+00  1.00800000E+00  1.60000000E+01  1.00800000E+00
  1.00800000E+00  1.60000000E+01  1.00800000E+00  1.00800000E+00  1.60000000E+01
  1.00800000E+00  1.00800000E+00  1.60000000E+01  1.00800000E+00  1.00800000E+00
  1.60000000E+01  1.00800000E+00  1.00800000E+00  1.60000000E+01  1.00800000E+00
  1.00800000E+00  1.60000000E+01  1.00800000E+00  1.00800000E+00  1.60000000E+01
  1.00800000E+00  1.00800000E+00  1.60000000E+01  1.00800000E+00  1.00800000E+00
  1.60000000E+01  1.00800000E+00  1.00800000E+00  1.60000000E+01  1.00800000E+00
  1.00800000E+00  1.60000000E+01  1.00800000E+00  1.00800000E+00  1.60000000E+01
  1.00800000E+00  1.00800000E+00  1.60000000E+01  1.00800000E+00  1.00800000E+00
  1.60000000E+01  1.00800000E+00  1.00800000E+00  1.60000000E+01  1.00800000E+00
  1.00800000E+00  1.60000000E+01  1.00800000E+00  1.00800000E+00  1.60000000E+01
  1.00800000E+00  1.00800000E+00  1.60000000E+01  1.00800000E+00  1.00800000E+00
  1.60000000E+01  1.00800000E+00  1.00800000E+00  1.60000000E+01  1.00800000E+00
  1.00800000E+00  1.60000000E+01  1.00800000E+00  1.00800000E+00  1.60000000E+01
  1.00800000E+00  1.00800000E+00  1.60000000E+01  1.00800000E+00  1.00800000E+00
  1.60000000E+01  1.00800000E+00  1.00800000E+00  1.60000000E+01  1.00800000E+00
  1.00800000E+00  1.60000000E+01  1.00800000E+00  1.00800000E+00  1.60000000E+01
  1.00800000E+00  1.00800000E+00  1.60000000E+01  1.00800000E+00  1.00800000E+00
  1.60000000E+01  1.00800000E+00  1.00800000E+00  1.60000000E+01  1.00800000E+00
  1.00800000E+00  1.60000000E+01  1.00800000E+00  1.00800000E+00  1.60000000E+01
  1.00800000E+00  1.00800000E+00  1.60000000E+01  1.00800000E+00  1.00800000E+00
  1.60000000E+01  1.00800000E+00  1.00800000E+00  1.60000000E+01  1.00800000E+00
  1.00800000E+00  1.60000000E+01  1.00800000E+00  1.00800000E+00  1.60000000E+01
  1.00800000E+00  1.00800000E+00  1.60000000E+01  1.00800000E+00  1.00800000E+00
  1.60000000E+01  1.00800000E+00  1.00800000E+00  1.60000000E+01  1.00800000E+00
  1.00800000E+00  1.60000000E+01  1.00800000E+00  1.00800000E+00  1.60000000E+01
  1.00800000E+00  1.00800000E+00  1.60000000E+01  1.00800000E+00  1.00800000E+00
  1.60000000E+01  1.00800000E+00  1.00800000E+00  1.60000000E+01  1.00800000E+00
  1.00800000E+00  1.60000000E+01  1.00800000E+00  1.00800000E+00  1.60000000E+01
  1.00800000E+00  1.00800000E+00  1.60000000E+01  1.00800000E+00  1.00800000E+00
  1.60000000E+01  1.00800000E+00  1.00800000E+00  1.60000000E+01  1.00800000E+00
  1.00800000E+00  1.60000000E+01  1.00800000E+00  1.00800000E+00  1.60000000E+01
  1.00800000E+00  1.00800000E+00  1.60000000E+01  1.00800000E+00  1.00800000E+00
  1.60000000E+01  1.00800000E+00  1.00800000E+00  1.60000000E+01  1.00800000E+00
  1.00800000E+00  1.60000000E+01  1.00800000E+00  1.00800000E+00  1.60000000E+01
  1.00800000E+00  1.00800000E+00  1.60000000E+01  1.00800000E+00  1.00800000E+00
  1.60000000E+01  1.00800000E+00  1.00800000E+00  1.60000000E+01  1.00800000E+00
  1.00800000E+00  1.60000000E+01  1.00800000E+00  1.00800000E+00  1.60000000E+01
  1.00800000E+00  1.00800000E+00  1.60000000E+01  1.00800000E+00  1.00800000E+00
  1.60000000E+01  1.00800000E+00  1.00800000E+00  1.60000000E+01  1.00800000E+00
  1.00800000E+00  1.60000000E+01  1.00800000E+00  1.00800000E+00  1.60000000E+01
  1.00800000E+00  1.00800000E+00  1.60000000E+01  1.00800000E+00  1.00800000E+00
  1.60000000E+01  1.00800000E+00  1.00800000E+00  1.60000000E+01  1.00800000E+00
  1.00800000E+00  1.60000000E+01  1.00800000E+00  1.00800000E+00  1.60000000E+01
  1.00800000E+00  1.00800000E+00  1.60000000E+01  1.00800000E+00  1.00800000E+00
  1.60000000E+01  1.00800000E+00  1.00800000E+00  1.60000000E+01  1.00800000E+00
  1.00800000E+00  1.60000000E+01  1.00800000E+00  1.00800000E+00  1.60000000E+01
  1.00800000E+00  1.00800000E+00  1.60000000E+01  1.00800000E+00  1.00800000E+00
  1.60000000E+01  1.00800000E+00  1.00800000E+00  1.60000000E+01  1.00800000E+00
  1.00800000E+00  1.60000000E+01  1.00800000E+00  1.00800000E+00  1.60000000E+01
  1.00800000E+00  1.00800000E+00  1.60000000E+01  1.00800000E+00  1.00800000E+00
  1.60000000E+01  1.00800000E+00  1.00800000E+00  1.60000000E+01  1.00800000E+00
  1.00800000E+00  1.60000000E+01  1.00800000E+00  1.00800000E+00  1.60000000E+01
  1.00800000E+00  1.00800000E+00  1.60000000E+01  1.00800000E+00  1.00800000E+00
  1.60000000E+01  1.00800000E+00  1.00800000E+00  1.60000000E+01  1.00800000E+00
  1.00800000E+00  1.60000000E+01  1.00800000E+00  1.00800000E+00  1.60000000E+01
  1.00800000E+00  1.00800000E+00  1.60000000E+01  1.00800000E+00  1.00800000E+00
  1.60000000E+01  1.00800000E+00  1.00800000E+00  1.60000000E+01  1.00800000E+00
  1.00800000E+00  1.60000000E+01  1.00800000E+00  1.00800000E+00  1.60000000E+01
  1.00800000E+00  1.00800000E+00  1.60000000E+01  1.00800000E+00  1.00800000E+00
  1.60000000E+01  1.00800000E+00  1.00800000E+00  1.60000000E+01  1.00800000E+00
  1.00800000E+00  1.60000000E+01  1.00800000E+00  1.00800000E+00  1.60000000E+01
  1.00800000E+00  1.00800000E+00  1.60000000E+01  1.00800000E+00  1.00800000E+00
  1.60000000E+01  1.00800000E+00  1.00800000E+00  1.60000000E+01  1.00800000E+00
  1.00800000E+00  1.60000000E+01  1.00800000E+00  1.00800000E+00  1.60000000E+01
  1.00800000E+00  1.00800000E+00  1.60000000E+01  1.00800000E+00  1.00800000E+00
  1.60000000E+01  1.00800000E+00  1.00800000E+00  1.60000000E+01  1.00800000E+00
  1.00800000E+00  1.60000000E+01  1.00800000E+00  1.00800000E+00  1.60000000E+01
  1.00800000E+00  1.00800000E+00  1.60000000E+01  1.00800000E+00  1.00800000E+00
  1.60000000E+01  1.00800000E+00  1.00800000E+00  1.60000000E+01  1.00800000E+00
  1.00800000E+00  1.60000000E+01  1.00800000E+00  1.00800000E+00  1.60000000E+01
  1.00800000E+00  1.00800000E+00  1.60000000E+01  1.00800000E+00  1.00800000E+00
  1.60000000E+01  1.00800000E+00  1.00800000E+00  1.60000000E+01  1.00800000E+00
  1.00800000E+00  1.60000000E+01  1.00800000E+00  1.00800000E+00  1.60000000E+01
  1.00800000E+00  1.00800000E+00  1.60000000E+01  1.00800000E+00  1.00800000E+00
  1.60000000E+01  1.00800000E+00  1.00800000E+00  1.60000000E+01  1.00800000E+00
  1.00800000E+00  1.60000000E+01  1.00800000E+00  1.00800000E+00  1.60000000E+01
  1.00800000E+00  1.00800000E+00  1.60000000E+01  1.00800000E+00  1.00800000E+00
  1.60000000E+01  1.00800000E+00  1.00800000E+00  1.60000000E+01  1.00800000E+00
  1.00800000E+00  1.60000000E+01  1.00800000E+00  1.00800000E+00  1.60000000E+01
  1.00800000E+00  1.00800000E+00  1.60000000E+01  1.00800000E+00  1.00800000E+00
  1.60000000E+01  1.00800000E+00  1.00800000E+00  1.60000000E+01  1.00800000E+00
  1.00800000E+00  1.60000000E+01  1.00800000E+00  1.00800000E+00  1.60000000E+01
  1.00800000E+00  1.00800000E+00  1.60000000E+01  1.00800000E+00  1.00800000E+00
  1.60000000E+01  1.00800000E+00  1.00800000E+00  1.60000000E+01  1.00800000E+00
  1.00800000E+00  1.60000000E+01  1.00800000E+00  1.00800000E+00  1.60000000E+01
  1.00800000E+00  1.00800000E+00  1.60000000E+01  1.00800000E+00  1.00800000E+00
  1.60000000E+01  1.00800000E+00  1.00800000E+00  1.60000000E+01  1.00800000E+00
  1.00800000E+00  1.60000000E+01  1.00800000E+00  1.00800000E+00  1.60000000E+01
  1.00800000E+00  1.00800000E+00  1.60000000E+01  1.00800000E+00  1.00800000E+00
  1.60000000E+01  1.00800000E+00  1.00800000E+00  1.60000000E+01  1.00800000E+00
  1.00800000E+00  1.60000000E+01  1.00800000E+00  1.00800000E+00  1.60000000E+01
  1.00800000E+00  1.00800000E+00  1.60000000E+01  1.00800000E+00  1.00800000E+00
  1.60000000E+01  1.00800000E+00  1.00800000E+00  1.60000000E+01  1.00800000E+00
  1.00800000E+00  1.60000000E+01  1.00800000E+00  1.00800000E+00  1.60000000E+01
  1.00800000E+00  1.00800000E+00  1.60000000E+01  1.00800000E+00  1.00800000E+00
  1.60000000E+01  1.00800000E+00  1.00800000E+00  1.60000000E+01  1.00800000E+00
  1.00800000E+00  1.60000000E+01  1.00800000E+00  1.00800000E+00  1.60000000E+01
  1.00800000E+00  1.00800000E+00  1.60000000E+01  1.00800000E+00  1.00800000E+00
  1.60000000E+01  1.00800000E+00  1.00800000E+00  1.60000000E+01  1.00800000E+00
  1.00800000E+00  1.60000000E+01  1.00800000E+00  1.00800000E+00  1.60000000E+01
  1.00800000E+00  1.00800000E+00  1.60000000E+01  1.00800000E+00  1.00800000E+00
  1.60000000E+01  1.00800000E+00  1.00800000E+00  1.60000000E+01  1.00800000E+00
  1.00800000E+00  1.60000000E+01  1.00800000E+00  1.00800000E+00  1.60000000E+01
  1.00800000E+00  1.00800000E+00  1.60000000E+01  1.00800000E+00  1.00800000E+00
  1.60000000E+01  1.00800000E+00  1.00800000E+00  1.60000000E+01  1.00800000E+00
  1.00800000E+00  1.60000000E+01  1.00800000E+00  1.00800000E+00  1.60000000E+01
  1.00800000E+00  1.00800000E+00  1.60000000E+01  1.00800000E+00  1.00800000E+00
  1.60000000E+01  1.00800000E+00  1.00800000E+00  1.60000000E+01  1.00800000E+00
  1.00800000E+00  1.60000000E+01  1.00800000E+00  1.00800000E+00  1.60000000E+01
  1.00800000E+00  1.00800000E+00  1.60000000E+01  1.00800000E+00  1.00800000E+00
  1.60000000E+01  1.00800000E+00  1.00800000E+00  1.60000000E+01  1.00800000E+00
  1.00800000E+00  1.60000000E+01  1.00800000E+00  1.00800000E+00  1.60000000E+01
  1.00800000E+00  1.00800000E+00  1.60000000E+01  1.00800000E+00  1.00800000E+00
  1.60000000E+01  1.00800000E+00  1.00800000E+00  1.60000000E+01  1.00800000E+00
  1.00800000E+00  1.60000000E+01  1.00800000E+00  1.00800000E+00  1.60000000E+01
  1.00800000E+00  1.00800000E+00  1.60000000E+01  1.00800000E+00  1.00800000E+00
  1.60000000E+01  1.00800000E+00  1.00800000E+00  1.60000000E+01  1.00800000E+00
  1.00800000E+00  1.60000000E+01  1.00800000E+00  1.00800000E+00  1.60000000E+01
  1.00800000E+00  1.00800000E+00  1.60000000E+01  1.00800000E+00  1.00800000E+00
  1.60000000E+01  1.00800000E+00  1.00800000E+00  1.60000000E+01  1.00800000E+00
  1.00800000E+00  1.60000000E+01  1.00800000E+00  1.00800000E+00  1.60000000E+01
  1.00800000E+00  1.00800000E+00  1.60000000E+01  1.00800000E+00  1.00800000E+00
  1.60000000E+01  1.00800000E+00  1.00800000E+00  1.60000000E+01  1.00800000E+00
  1.00800000E+00  1.60000000E+01  1.00800000E+00  1.00800000E+00  1.60000000E+01
  1.00800000E+00  1.00800000E+00  1.60000000E+01  1.00800000E+00  1.00800000E+00
  1.60000000E+01  1.00800000E+00  1.00800000E+00  1.60000000E+01  1.00800000E+00
  1.00800000E+00  1.60000000E+01  1.00800000E+00  1.00800000E+00  1.60000000E+01
  1.00800000E+00  1.00800000E+00  1.60000000E+01  1.00800000E+00  1.00800000E+00
  1.60000000E+01  1.00800000E+00  1.00800000E+00  1.60000000E+01  1.00800000E+00
  1.00800000E+00  1.60000000E+01  1.00800000E+00  1.00800000E+00  1.60000000E+01
  1.00800000E+00  1.00800000E+00  1.60000000E+01  1.00800000E+00  1.00800000E+00
  1.60000000E+01  1.00800000E+00  1.00800000E+00  1.60000000E+01  1.00800000E+00
  1.00800000E+00  1.60000000E+01  1.00800000E+00  1.00800000E+00  1.60000000E+01
  1.00800000E+00  1.00800000E+00  1.60000000E+01  1.00800000E+00  1.00800000E+00
  1.60000000E+01  1.00800000E+00  1.00800000E+00  1.60000000E+01  1.00800000E+00
  1.00800000E+00  1.60000000E+01  1.00800000E+00  1.00800000E+00  1.60000000E+01
  1.00800000E+00  1.00800000E+00  1.60000000E+01  1.00800000E+00  1.00800000E+00
  1.60000000E+01  1.00800000E+00  1.00800000E+00  1.60000000E+01  1.00800000E+00
  1.00800000E+00  1.60000000E+01  1.00800000E+00  1.00800000E+00  1.60000000E+01
  1.00800000E+00  1.00800000E+00  1.60000000E+01  1.00800000E+00  1.00800000E+00
  1.60000000E+01  1.00800000E+00  1.00800000E+00  1.60000000E+01  1.00800000E+00
  1.00800000E+00  1.60000000E+01  1.00800000E+00  1.00800000E+00  1.60000000E+01
  1.00800000E+00  1.00800000E+00  1.60000000E+01  1.00800000E+00  1.00800000E+00
  1.60000000E+01  1.00800000E+00  1.00800000E+00  1.60000000E+01  1.00800000E+00
  1.00800000E+00  1.60000000E+01  1.00800000E+00  1.00800000E+00  1.60000000E+01
  1.00800000E+00  1.00800000E+00  1.60000000E+01  1.00800000E+00  1.00800000E+00
  1.60000000E+01  1.00800000E+00  1.00800000E+00  1.60000000E+01  1.00800000E+00
  1.00800000E+00  1.60000000E+01  1.00800000E+00  1.00800000E+00  1.60000000E+01
  1.00800000E+00  1.00800000E+00  1.60000000E+01  1.00800000E+00  1.00800000E+00
  1.60000000E+01  1.00800000E+00  1.00800000E+00  1.60000000E+01  1.00800000E+00
  1.00800000E+00  1.60000000E+01  1.00800000E+00  1.00800000E+00  1.60000000E+01
  1.00800000E+00  1.00800000E+00  1.60000000E+01  1.00800000E+00  1.00800000E+00
  1.60000000E+01  1.00800000E+00  1.00800000E+00  1.60000000E+01  1.00800000E+00
  1.00800000E+00  1.60000000E+01  1.00800000E+00  1.00800000E+00  1.60000000E+01
  1.00800000E+00  1.00800000E+00  1.60000000E+01  1.00800000E+00  1.00800000E+00
  1.60000000E+01  1.00800000E+00  1.00800000E+00  1.60000000E+01  1.00800000E+00
  1.00800000E+00  1.60000000E+01  1.00800000E+00  1.00800000E+00  1.60000000E+01
  1.00800000E+00  1.00800000E+00  1.60000000E+01  1.00800000E+00  1.00800000E+00
  1.60000000E+01  1.00800000E+00  1.00800000E+00  1.60000000E+01  1.00800000E+00
  1.00800000E+00  1.60000000E+01  1.00800000E+00  1.00800000E+00  1.60000000E+01
  1.00800000E+00  1.00800000E+00  1.60000000E+01  1.00800000E+00  1.00800000E+00
  1.60000000E+01  1.00800000E+00  1.00800000E+00  1.60000000E+01  1.00800000E+00
  1.00800000E+00  1.60000000E+01  1.00800000E+00  1.00800000E+00  1.60000000E+01
  1.00800000E+00  1.00800000E+00  1.60000000E+01  1.00800000E+00  1.00800000E+00
  1.60000000E+01  1.00800000E+00  1.00800000E+00  1.60000000E+01  1.00800000E+00
  1.00800000E+00  1.60000000E+01  1.00800000E+00  1.00800000E+00  1.60000000E+01
  1.00800000E+00  1.00800000E+00  1.60000000E+01  1.00800000E+00  1.00800000E+00
  1.60000000E+01  1.00800000E+00  1.00800000E+00  1.60000000E+01  1.00800000E+00
  1.00800000E+00  1.60000000E+01  1.00800000E+00  1.00800000E+00  1.60000000E+01
  1.00800000E+00  1.00800000E+00  1.60000000E+01  1.00800000E+00  1.00800000E+00
  1.60000000E+01  1.00800000E+00  1.00800000E+00  1.60000000E+01  1.00800000E+00
  1.00800000E+00  1.60000000E+01  1.00800000E+00  1.00800000E+00  1.60000000E+01
  1.00800000E+00  1.00800000E+00  1.60000000E+01  1.00800000E+00  1.00800000E+00
  1.60000000E+01  1.00800000E+00  1.00800000E+00  1.60000000E+01  1.00800000E+00
  1.00800000E+00  1.60000000E+01  1.00800000E+00  1.00800000E+00  1.60000000E+01
  1.00800000E+00  1.00800000E+00  1.60000000E+01  1.00800000E+00  1.00800000E+00
  1.60000000E+01  1.00800000E+00  1.00800000E+00  1.60000000E+01  1.00800000E+00
  1.00800000E+00  1.60000000E+01  1.00800000E+00  1.00800000E+00  1.60000000E+01
  1.00800000E+00  1.00800000E+00  1.60000000E+01  1.00800000E+00  1.00800000E+00
  1.60000000E+01  1.00800000E+00  1.00800000E+00  1.60000000E+01  1.00800000E+00
  1.00800000E+00  1.60000000E+01  1.00800000E+00  1.00800000E+00  1.60000000E+01
  1.00800000E+00  1.00800000E+00  1.60000000E+01  1.00800000E+00  1.00800000E+00
  1.60000000E+01  1.00800000E+00  1.00800000E+00  1.60000000E+01  1.00800000E+00
  1.00800000E+00  1.60000000E+01  1.00800000E+00  1.00800000E+00  1.60000000E+01
  1.00800000E+00  1.00800000E+00  1.60000000E+01  1.00800000E+00  1.00800000E+00
  1.60000000E+01  1.00800000E+00  1.00800000E+00  1.60000000E+01  1.00800000E+00
  1.00800000E+00  1.60000000E+01  1.00800000E+00  1.00800000E+00  1.60000000E+01
  1.00800000E+00  1.00800000E+00  1.60000000E+01  1.00800000E+00  1.00800000E+00
  1.60000000E+01  1.00800000E+00  1.00800000E+00  1.60000000E+01  1.00800000E+00
  1.00800000E+00  1.60000000E+01  1.00800000E+00  1.00800000E+00  1.60000000E+01
  1.00800000E+00  1.00800000E+00  1.60000000E+01  1.00800000E+00  1.00800000E+00
  1.60000000E+01  1.00800000E+00  1.00800000E+00  1.60000000E+01  1.00800000E+00
  1.00800000E+00  1.60000000E+01  1.00800000E+00  1.00800000E+00  1.60000000E+01
  1.00800000E+00  1.00800000E+00  1.60000000E+01  1.00800000E+00  1.00800000E+00
  1.60000000E+01  1.00800000E+00  1.00800000E+00  1.60000000E+01  1.00800000E+00
  1.00800000E+00  1.60000000E+01  1.00800000E+00  1.00800000E+00  1.60000000E+01
  1.00800000E+00  1.00800000E+00  1.60000000E+01  1.00800000E+00  1.00800000E+00
  1.60000000E+01  1.00800000E+00  1.00800000E+00  1.60000000E+01  1.00800000E+00
  1.00800000E+00  1.60000000E+01  1.00800000E+00  1.00800000E+00  1.60000000E+01
  1.00800000E+00  1.00800000E+00  1.60000000E+01  1.00800000E+00  1.00800000E+00
  1.60000000E+01  1.00800000E+00  1.00800000E+00  1.60000000E+01  1.00800000E+00
  1.00800000E+00  1.60000000E+01  1.00800000E+00  1.00800000E+00  1.60000000E+01
  1.00800000E+00  1.00800000E+00  1.60000000E+01  1.00800000E+00  1.00800000E+00
  1.60000000E+01  1.00800000E+00  1.00800000E+00  1.60000000E+01  1.00800000E+00
  1.00800000E+00  1.60000000E+01  1.00800000E+00  1.00800000E+00  1.60000000E+01
  1.00800000E+00  1.00800000E+00  1.60000000E+01  1.00800000E+00  1.00800000E+00
  1.60000000E+01  1.00800000E+00  1.00800000E+00  1.60000000E+01  1.00800000E+00
  1.00800000E+00  1.60000000E+01  1.00800000E+00  1.00800000E+00  1.60000000E+01
  1.00800000E+00  1.00800000E+00  1.60000000E+01  1.00800000E+00  1.00800000E+00
  1.60000000E+01  1.00800000E+00  1.00800000E+00  1.60000000E+01  1.00800000E+00
  1.00800000E+00  1.60000000E+01  1.00800000E+00  1.00800000E+00  1.60000000E+01
  1.00800000E+00  1.00800000E+00  1.60000000E+01  1.00800000E+00  1.00800000E+00
  1.60000000E+01  1.00800000E+00  1.00800000E+00  1.60000000E+01  1.00800000E+00
  1.00800000E+00  1.60000000E+01  1.00800000E+00  1.00800000E+00  1.60000000E+01
  1.00800000E+00  1.00800000E+00  1.60000000E+01  1.00800000E+00  1.00800000E+00
  1.60000000E+01  1.00800000E+00  1.00800000E+00  1.60000000E+01  1.00800000E+00
  1.00800000E+00  1.60000000E+01  1.00800000E+00  1.00800000E+00  1.60000000E+01
  1.00800000E+00  1.00800000E+00  1.60000000E+01  1.00800000E+00  1.00800000E+00
  1.60000000E+01  1.00800000E+00  1.00800000E+00  1.60000000E+01  1.00800000E+00
  1.00800000E+00  1.60000000E+01  1.00800000E+00  1.00800000E+00  1.60000000E+01
  1.00800000E+00  1.00800000E+00  1.60000000E+01  1.00800000E+00  1.00800000E+00
  1.60000000E+01  1.00800000E+00  1.00800000E+00  1.60000000E+01  1.00800000E+00
  1.00800000E+00  1.60000000E+01  1.00800000E+00  1.00800000E+00  1.60000000E+01
  1.00800000E+00  1.00800000E+00  1.60000000E+01  1.00800000E+00  1.00800000E+00
  1.60000000E+01  1.00800000E+00  1.00800000E+00  1.60000000E+01  1.00800000E+00
  1.00800000E+00  1.60000000E+01  1.00800000E+00  1.00800000E+00  1.60000000E+01
  1.00800000E+00  1.00800000E+00  1.60000000E+01  1.00800000E+00  1.00800000E+00
  1.60000000E+01  1.00800000E+00  1.00800000E+00  1.60000000E+01  1.00800000E+00
  1.00800000E+00  1.60000000E+01  1.00800000E+00  1.00800000E+00  1.60000000E+01
  1.00800000E+00  1.00800000E+00  1.60000000E+01  1.00800000E+00  1.00800000E+00
  1.60000000E+01  1.00800000E+00  1.00800000E+00  1.60000000E+01  1.00800000E+00
  1.00800000E+00  1.60000000E+01  1.00800000E+00  1.00800000E+00  1.60000000E+01
  1.00800000E+00  1.00800000E+00  1.60000000E+01  1.00800000E+00  1.00800000E+00
  1.60000000E+01  1.00800000E+00  1.00800000E+00  1.60000000E+01  1.00800000E+00
  1.00800000E+00  1.60000000E+01  1.00800000E+00  1.00800000E+00  1.60000000E+01
  1.00800000E+00  1.00800000E+00  1.60000000E+01  1.00800000E+00  1.00800000E+00
  1.60000000E+01  1.00800000E+00  1.00800000E+00  1.60000000E+01  1.00800000E+00
  1.00800000E+00  1.60000000E+01  1.00800000E+00  1.00800000E+00  1.60000000E+01
  1.00800000E+00  1.00800000E+00  1.60000000E+01  1.00800000E+00  1.00800000E+00
  1.60000000E+01  1.00800000E+00  1.00800000E+00  1.60000000E+01  1.00800000E+00
  1.00800000E+00  1.60000000E+01  1.00800000E+00  1.00800000E+00  1.60000000E+01
  1.00800000E+00  1.00800000E+00  1.60000000E+01  1.00800000E+00  1.00800000E+00
  1.60000000E+01  1.00800000E+00  1.00800000E+00  1.60000000E+01  1.00800000E+00
  1.00800000E+00  1.60000000E+01  1.00800000E+00  1.00800000E+00  1.60000000E+01
  1.00800000E+00  1.00800000E+00  1.60000000E+01  1.00800000E+00  1.00800000E+00
  1.60000000E+01  1.00800000E+00  1.00800000E+00  1.60000000E+01  1.00800000E+00
  1.00800000E+00  1.60000000E+01  1.00800000E+00  1.00800000E+00  1.60000000E+01
  1.00800000E+00  1.00800000E+00  1.60000000E+01  1.00800000E+00  1.00800000E+00
  1.60000000E+01  1.00800000E+00  1.00800000E+00  1.60000000E+01  1.00800000E+00
  1.00800000E+00  1.60000000E+01  1.00800000E+00  1.00800000E+00  1.60000000E+01
  1.00800000E+00  1.00800000E+00  1.60000000E+01  1.00800000E+00  1.00800000E+00
  1.60000000E+01  1.00800000E+00  1.00800000E+00  1.60000000E+01  1.00800000E+00
  1.00800000E+00  1.60000000E+01  1.00800000E+00  1.00800000E+00  1.60000000E+01
  1.00800000E+00  1.00800000E+00  1.60000000E+01  1.00800000E+00  1.00800000E+00
  1.60000000E+01  1.00800000E+00  1.00800000E+00  1.60000000E+01  1.00800000E+00
  1.00800000E+00  1.60000000E+01  1.00800000E+00  1.00800000E+00  1.60000000E+01
  1.00800000E+00  1.00800000E+00  1.60000000E+01  1.00800000E+00  1.00800000E+00
  1.60000000E+01  1.00800000E+00  1.00800000E+00  1.60000000E+01  1.00800000E+00
  1.00800000E+00  1.60000000E+01  1.00800000E+00  1.00800000E+00  1.60000000E+01
  1.00800000E+00  1.00800000E+00  1.60000000E+01  1.00800000E+00  1.00800000E+00
  1.60000000E+01  1.00800000E+00  1.00800000E+00  1.60000000E+01  1.00800000E+00
  1.00800000E+00  1.60000000E+01  1.00800000E+00  1.00800000E+00  1.60000000E+01
  1.00800000E+00  1.00800000E+00  1.60000000E+01  1.00800000E+00  1.00800000E+00
  1.60000000E+01  1.00800000E+00  1.00800000E+00  1.60000000E+01  1.00800000E+00
  1.00800000E+00  1.60000000E+01  1.00800000E+00  1.00800000E+00  1.60000000E+01
  1.00800000E+00  1.00800000E+00  1.60000000E+01  1.00800000E+00  1.00800000E+00
  1.60000000E+01  1.00800000E+00  1.00800000E+00  1.60000000E+01  1.00800000E+00
  1.00800000E+00  1.60000000E+01  1.00800000E+00  1.00800000E+00  1.60000000E+01
  1.00800000E+00  1.00800000E+00  1.60000000E+01  1.00800000E+00  1.00800000E+00
  1.60000000E+01  1.00800000E+00  1.00800000E+00  1.60000000E+01  1.00800000E+00
  1.00800000E+00  1.60000000E+01  1.00800000E+00  1.00800000E+00  1.60000000E+01
  1.00800000E+00  1.00800000E+00  1.60000000E+01  1.00800000E+00  1.00800000E+00
  1.60000000E+01  1.00800000E+00  1.00800000E+00  1.60000000E+01  1.00800000E+00
  1.00800000E+00  1.60000000E+01  1.00800000E+00  1.00800000E+00  1.60000000E+01
  1.00800000E+00  1.00800000E+00  1.60000000E+01  1.00800000E+00  1.00800000E+00
  1.60000000E+01  1.00800000E+00  1.00800000E+00  1.60000000E+01  1.00800000E+00
  1.00800000E+00  1.60000000E+01  1.00800000E+00  1.00800000E+00  1.60000000E+01
  1.00800000E+00  1.00800000E+00  1.60000000E+01  1.00800000E+00  1.00800000E+00
  1.60000000E+01  1.00800000E+00  1.00800000E+00  1.60000000E+01  1.00800000E+00
  1.00800000E+00  1.60000000E+01  1.00800000E+00  1.00800000E+00  1.60000000E+01
  1.00800000E+00  1.00800000E+00  1.60000000E+01  1.00800000E+00  1.00800000E+00
  1.60000000E+01  1.00800000E+00  1.00800000E+00  1.60000000E+01  1.00800000E+00
  1.00800000E+00  1.60000000E+01  1.00800000E+00  1.00800000E+00  1.60000000E+01
  1.00800000E+00  1.00800000E+00  1.60000000E+01  1.00800000E+00  1.00800000E+00
  1.60000000E+01  1.00800000E+00  1.00800000E+00  1.60000000E+01  1.00800000E+00
  1.00800000E+00  1.60000000E+01  1.00800000E+00  1.00800000E+00  1.60000000E+01
  1.00800000E+00  1.00800000E+00  1.60000000E+01  1.00800000E+00  1.00800000E+00
  1.60000000E+01  1.00800000E+00  1.00800000E+00  1.60000000E+01  1.00800000E+00
  1.00800000E+00  1.60000000E+01  1.00800000E+00  1.00800000E+00  1.60000000E+01
  1.00800000E+00  1.00800000E+00  1.60000000E+01  1.00800000E+00  1.00800000E+00
  1.60000000E+01  1.00800000E+00  1.00800000E+00  1.60000000E+01  1.00800000E+00
  1.00800000E+00  1.60000000E+01  1.00800000E+00  1.00800000E+00  1.60000000E+01
  1.00800000E+00  1.00800000E+00  1.60000000E+01  1.00800000E+00  1.00800000E+00
  1.60000000E+01  1.00800000E+00  1.00800000E+00  1.60000000E+01  1.00800000E+00
  1.00800000E+00  1.60000000E+01  1.00800000E+00  1.00800000E+00  1.60000000E+01
  1.00800000E+00  1.00800000E+00  1.60000000E+01  1.00800000E+00  1.00800000E+00
  1.60000000E+01  1.00800000E+00  1.00800000E+00  1.60000000E+01  1.00800000E+00
  1.00800000E+00  1.60000000E+01  1.00800000E+00  1.00800000E+00  1.60000000E+01
  1.00800000E+00  1.00800000E+00  1.60000000E+01  1.00800000E+00  1.00800000E+00
  1.60000000E+01  1.00800000E+00  1.00800000E+00  1.60000000E+01  1.00800000E+00
  1.00800000E+00  1.60000000E+01  1.00800000E+00  1.00800000E+00  1.60000000E+01
  1.00800000E+00  1.00800000E+00  1.60000000E+01  1.00800000E+00  1.00800000E+00
  1.60000000E+01  1.00800000E+00  1.00800000E+00  1.60000000E+01  1.00800000E+00
  1.00800000E+00  1.60000000E+01  1.00800000E+00  1.00800000E+00  1.60000000E+01
  1.00800000E+00  1.00800000E+00  1.60000000E+01  1.00800000E+00  1.00800000E+00
  1.60000000E+01  1.00800000E+00  1.00800000E+00  1.60000000E+01  1.00800000E+00
  1.00800000E+00  1.60000000E+01  1.00800000E+00  1.00800000E+00  1.60000000E+01
  1.00800000E+00  1.00800000E+00  1.60000000E+01  1.00800000E+00  1.00800000E+00
  1.60000000E+01  1.00800000E+00  1.00800000E+00  1.60000000E+01  1.00800000E+00
  1.00800000E+00  1.60000000E+01  1.00800000E+00  1.00800000E+00  1.60000000E+01
  1.00800000E+00  1.00800000E+00  1.60000000E+01  1.00800000E+00  1.00800000E+00
  1.60000000E+01  1.00800000E+00  1.00800000E+00  1.60000000E+01  1.00800000E+00
  1.00800000E+00  1.60000000E+01  1.00800000E+00  1.00800000E+00  1.60000000E+01
  1.00800000E+00  1.00800000E+00  1.60000000E+01  1.00800000E+00  1.00800000E+00
  1.60000000E+01  1.00800000E+00  1.00800000E+00  1.60000000E+01  1.00800000E+00
  1.00800000E+00  1.60000000E+01  1.00800000E+00  1.00800000E+00  1.60000000E+01
  1.00800000E+00  1.00800000E+00  1.60000000E+01  1.00800000E+00  1.00800000E+00
  1.60000000E+01  1.00800000E+00  1.00800000E+00  1.60000000E+01  1.00800000E+00
  1.00800000E+00  1.60000000E+01  1.00800000E+00  1.00800000E+00  1.60000000E+01
  1.00800000E+00  1.00800000E+00  1.60000000E+01  1.00800000E+00  1.00800000E+00
  1.60000000E+01  1.00800000E+00  1.00800000E+00  1.60000000E+01  1.00800000E+00
  1.00800000E+00  1.60000000E+01  1.00800000E+00  1.00800000E+00  1.60000000E+01
  1.00800000E+00  1.00800000E+00  1.60000000E+01  1.00800000E+00  1.00800000E+00
  1.60000000E+01  1.00800000E+00  1.00800000E+00  1.60000000E+01  1.00800000E+00
  1.00800000E+00  1.60000000E+01  1.00800000E+00  1.00800000E+00  1.60000000E+01
  1.00800000E+00  1.00800000E+00  1.60000000E+01  1.00800000E+00  1.00800000E+00
  1.60000000E+01  1.00800000E+00  1.00800000E+00  1.60000000E+01  1.00800000E+00
  1.00800000E+00  1.60000000E+01  1.00800000E+00  1.00800000E+00  1.60000000E+01
  1.00800000E+00  1.00800000E+00  1.60000000E+01  1.00800000E+00  1.00800000E+00
  1.60000000E+01  1.00800000E+00  1.00800000E+00  1.60000000E+01  1.00800000E+00
  1.00800000E+00  1.60000000E+01  1.00800000E+00  1.00800000E+00  1.60000000E+01
  1.00800000E+00  1.00800000E+00  1.60000000E+01  1.00800000E+00  1.00800000E+00
  1.60000000E+01  1.00800000E+00  1.00800000E+00  1.60000000E+01  1.00800000E+00
  1.00800000E+00  1.60000000E+01  1.00800000E+00  1.00800000E+00  1.60000000E+01
  1.00800000E+00  1.00800000E+00  1.60000000E+01  1.00800000E+00  1.00800000E+00
  1.60000000E+01  1.00800000E+00  1.00800000E+00  1.60000000E+01  1.00800000E+00
  1.00800000E+00  1.60000000E+01  1.00800000E+00  1.00800000E+00  1.60000000E+01
  1.00800000E+00  1.00800000E+00  1.60000000E+01  1.00800000E+00  1.00800000E+00
  1.60000000E+01  1.00800000E+00  1.00800000E+00  1.60000000E+01  1.00800000E+00
  1.00800000E+00  1.60000000E+01  1.00800000E+00  1.00800000E+00  1.60000000E+01
  1.00800000E+00  1.00800000E+00  1.60000000E+01  1.00800000E+00  1.00800000E+00
  1.60000000E+01  1.00800000E+00  1.00800000E+00  1.60000000E+01  1.00800000E+00
  1.00800000E+00  1.60000000E+01  1.00800000E+00  1.00800000E+00  1.60000000E+01
  1.00800000E+00  1.00800000E+00  1.60000000E+01  1.00800000E+00  1.00800000E+00
  1.60000000E+01  1.00800000E+00  1.00800000E+00  1.60000000E+01  1.00800000E+00
  1.00800000E+00  1.60000000E+01  1.00800000E+00  1.00800000E+00  1.60000000E+01
  1.00800000E+00  1.00800000E+00  1.60000000E+01  1.00800000E+00  1.00800000E+00
  1.60000000E+01  1.00800000E+00  1.00800000E+00  1.60000000E+01  1.00800000E+00
  1.00800000E+00  1.60000000E+01  1.00800000E+00  1.00800000E+00  1.60000000E+01
  1.00800000E+00  1.00800000E+00  1.60000000E+01  1.00800000E+00  1.00800000E+00
  1.60000000E+01  1.00800000E+00  1.00800000E+00  1.60000000E+01  1.00800000E+00
  1.00800000E+00  1.60000000E+01  1.00800000E+00  1.00800000E+00  1.60000000E+01
  1.00800000E+00  1.00800000E+00  1.60000000E+01  1.00800000E+00  1.00800000E+00
  1.60000000E+01  1.00800000E+00  1.00800000E+00  1.60000000E+01  1.00800000E+00
  1.00800000E+00  1.60000000E+01  1.00800000E+00  1.00800000E+00  1.60000000E+01
  1.00800000E+00  1.00800000E+00  1.60000000E+01  1.00800000E+00  1.00800000E+00
  1.60000000E+01  1.00800000E+00  1.00800000E+00  1.60000000E+01  1.00800000E+00
  1.00800000E+00  1.60000000E+01  1.00800000E+00  1.00800000E+00  1.60000000E+01
  1.00800000E+00  1.00800000E+00  1.60000000E+01  1.00800000E+00  1.00800000E+00
  1.60000000E+01  1.00800000E+00  1.00800000E+00  1.60000000E+01  1.00800000E+00
  1.00800000E+00  1.60000000E+01  1.00800000E+00  1.00800000E+00  1.60000000E+01
  1.00800000E+00  1.00800000E+00  1.60000000E+01  1.00800000E+00  1.00800000E+00
  1.60000000E+01  1.00800000E+00  1.00800000E+00  1.60000000E+01  1.00800000E+00
  1.00800000E+00  1.60000000E+01  1.00800000E+00  1.00800000E+00  1.60000000E+01
  1.00800000E+00  1.00800000E+00  1.60000000E+01  1.00800000E+00  1.00800000E+00
  1.60000000E+01  1.00800000E+00  1.00800000E+00  1.60000000E+01  1.00800000E+00
  1.00800000E+00  1.60000000E+01  1.00800000E+00  1.00800000E+00  1.60000000E+01
  1.00800000E+00  1.00800000E+00  1.60000000E+01  1.00800000E+00  1.00800000E+00
  1.60000000E+01  1.00800000E+00  1.00800000E+00  1.60000000E+01  1.00800000E+00
  1.00800000E+00  1.60000000E+01  1.00800000E+00  1.00800000E+00  1.60000000E+01
  1.00800000E+00  1.00800000E+00  1.60000000E+01  1.00800000E+00  1.00800000E+00
  1.60000000E+01  1.00800000E+00  1.00800000E+00  1.60000000E+01  1.00800000E+00
  1.00800000E+00  1.60000000E+01  1.00800000E+00  1.00800000E+00  1.60000000E+01
  1.00800000E+00  1.00800000E+00  1.60000000E+01  1.00800000E+00  1.00800000E+00
  1.60000000E+01  1.00800000E+00  1.00800000E+00  1.60000000E+01  1.00800000E+00
  1.00800000E+00  1.60000000E+01  1.00800000E+00  1.00800000E+00  1.60000000E+01
  1.00800000E+00  1.00800000E+00  1.60000000E+01  1.00800000E+00  1.00800000E+00
  1.60000000E+01  1.00800000E+00  1.00800000E+00  1.60000000E+01  1.00800000E+00
  1.00800000E+00  1.60000000E+01  1.00800000E+00  1.00800000E+00  1.60000000E+01
  1.00800000E+00  1.00800000E+00  1.60000000E+01  1.00800000E+00  1.00800000E+00
  1.60000000E+01  1.00800000E+00  1.00800000E+00  1.60000000E+01  1.00800000E+00
  1.00800000E+00  1.60000000E+01  1.00800000E+00  1.00800000E+00  1.60000000E+01
  1.00800000E+00  1.00800000E+00  1.60000000E+01  1.00800000E+00  1.00800000E+00
  1.60000000E+01  1.00800000E+00  1.00800000E+00  1.60000000E+01  1.00800000E+00
  1.00800000E+00  1.60000000E+01  1.00800000E+00  1.00800000E+00  1.60000000E+01
  1.00800000E+00  1.00800000E+00  1.60000000E+01  1.00800000E+00  1.00800000E+00
  1.60000000E+01  1.00800000E+00  1.00800000E+00  1.60000000E+01  1.00800000E+00
  1.00800000E+00  1.60000000E+01  1.00800000E+00  1.00800000E+00  1.60000000E+01
  1.00800000E+00  1.00800000E+00  1.60000000E+01  1.00800000E+00  1.00800000E+00
  1.60000000E+01  1.00800000E+00  1.00800000E+00  1.60000000E+01  1.00800000E+00
  1.00800000E+00  1.60000000E+01  1.00800000E+00  1.00800000E+00  1.60000000E+01
  1.00800000E+00  1.00800000E+00  1.60000000E+01  1.00800000E+00  1.00800000E+00
  1.60000000E+01  1.00800000E+00  1.00800000E+00  1.60000000E+01  1.00800000E+00
  1.00800000E+00  1.60000000E+01  1.00800000E+00  1.00800000E+00  1.60000000E+01
  1.00800000E+00  1.00800000E+00  1.60000000E+01  1.00800000E+00  1.00800000E+00
  1.60000000E+01  1.00800000E+00  1.00800000E+00  1.60000000E+01  1.00800000E+00
  1.00800000E+00  1.60000000E+01  1.00800000E+00  1.00800000E+00  1.60000000E+01
  1.00800000E+00  1.00800000E+00  1.60000000E+01  1.00800000E+00  1.00800000E+00
  1.60000000E+01  1.00800000E+00  1.00800000E+00  1.60000000E+01  1.00800000E+00
  1.00800000E+00  1.60000000E+01  1.00800000E+00  1.00800000E+00  1.60000000E+01
  1.00800000E+00  1.00800000E+00  1.60000000E+01  1.00800000E+00  1.00800000E+00
  1.60000000E+01  1.00800000E+00  1.00800000E+00  1.60000000E+01  1.00800000E+00
  1.00800000E+00  1.60000000E+01  1.00800000E+00  1.00800000E+00  1.60000000E+01
  1.00800000E+00  1.00800000E+00  1.60000000E+01  1.00800000E+00  1.00800000E+00
  1.60000000E+01  1.00800000E+00  1.00800000E+00  1.60000000E+01  1.00800000E+00
  1.00800000E+00  1.60000000E+01  1.00800000E+00  1.00800000E+00  1.60000000E+01
  1.00800000E+00  1.00800000E+00  1.60000000E+01  1.00800000E+00  1.00800000E+00
  1.60000000E+01  1.00800000E+00  1.00800000E+00  1.60000000E+01  1.00800000E+00
  1.00800000E+00  1.60000000E+01  1.00800000E+00  1.00800000E+00  1.60000000E+01
  1.00800000E+00  1.00800000E+00  1.60000000E+01  1.00800000E+00  1.00800000E+00
  1.60000000E+01  1.00800000E+00  1.00800000E+00  1.60000000E+01  1.00800000E+00
  1.00800000E+00  1.60000000E+01  1.00800000E+00  1.00800000E+00  1.60000000E+01
  1.00800000E+00  1.00800000E+00  1.60000000E+01  1.00800000E+00  1.00800000E+00
  1.60000000E+01  1.00800000E+00  1.00800000E+00  1.60000000E+01  1.00800000E+00
  1.00800000E+00  1.60000000E+01  1.00800000E+00  1.00800000E+00  1.60000000E+01
  1.00800000E+00  1.00800000E+00  1.60000000E+01  1.00800000E+00  1.00800000E+00
  1.60000000E+01  1.00800000E+00  1.00800000E+00  1.60000000E+01  1.00800000E+00
  1.00800000E+00  1.60000000E+01  1.00800000E+00  1.00800000E+00  1.60000000E+01
  1.00800000E+00  1.00800000E+00  1.60000000E+01  1.00800000E+00  1.00800000E+00
  1.60000000E+01  1.00800000E+00  1.00800000E+00  1.60000000E+01  1.00800000E+00
  1.00800000E+00  1.60000000E+01  1.00800000E+00  1.00800000E+00  1.60000000E+01
  1.00800000E+00  1.00800000E+00  1.60000000E+01  1.00800000E+00  1.00800000E+00
  1.60000000E+01  1.00800000E+00  1.00800000E+00  1.60000000E+01  1.00800000E+00
  1.00800000E+00  1.60000000E+01  1.00800000E+00  1.00800000E+00  1.60000000E+01
  1.00800000E+00  1.00800000E+00  1.60000000E+01  1.00800000E+00  1.00800000E+00
  1.60000000E+01  1.00800000E+00  1.00800000E+00  1.60000000E+01  1.00800000E+00
  1.00800000E+00  1.60000000E+01  1.00800000E+00  1.00800000E+00  1.60000000E+01
  1.00800000E+00  1.00800000E+00  1.60000000E+01  1.00800000E+00  1.00800000E+00
  1.60000000E+01  1.00800000E+00  1.00800000E+00  1.60000000E+01  1.00800000E+00
  1.00800000E+00  1.60000000E+01  1.00800000E+00  1.00800000E+00  1.60000000E+01
  1.00800000E+00  1.00800000E+00  1.60000000E+01  1.00800000E+00  1.00800000E+00
  1.60000000E+01  1.00800000E+00  1.00800000E+00  1.60000000E+01  1.00800000E+00
  1.00800000E+00  1.60000000E+01  1.00800000E+00  1.00800000E+00  1.60000000E+01
  1.00800000E+00  1.00800000E+00  1.60000000E+01  1.00800000E+00  1.00800000E+00
  1.60000000E+01  1.00800000E+00  1.00800000E+00  1.60000000E+01  1.00800000E+00
  1.00800000E+00  1.60000000E+01  1.00800000E+00  1.00800000E+00  1.60000000E+01
  1.00800000E+00  1.00800000E+00  1.60000000E+01  1.00800000E+00  1.00800000E+00
  1.60000000E+01  1.00800000E+00  1.00800000E+00  1.60000000E+01  1.00800000E+00
  1.00800000E+00  1.60000000E+01  1.00800000E+00  1.00800000E+00  1.60000000E+01
  1.00800000E+00  1.00800000E+00  1.60000000E+01  1.00800000E+00  1.00800000E+00
  1.60000000E+01  1.00800000E+00  1.00800000E+00  1.60000000E+01  1.00800000E+00
  1.00800000E+00  1.60000000E+01  1.00800000E+00  1.00800000E+00  1.60000000E+01
  1.00800000E+00  1.00800000E+00  1.60000000E+01  1.00800000E+00  1.00800000E+00
  1.60000000E+01  1.00800000E+00  1.00800000E+00  1.60000000E+01  1.00800000E+00
  1.00800000E+00  1.60000000E+01  1.00800000E+00  1.00800000E+00  1.60000000E+01
  1.00800000E+00  1.00800000E+00  1.60000000E+01  1.00800000E+00  1.00800000E+00
  1.60000000E+01  1.00800000E+00  1.00800000E+00  1.60000000E+01  1.00800000E+00
  1.00800000E+00  1.60000000E+01  1.00800000E+00  1.00800000E+00  1.60000000E+01
  1.00800000E+00  1.00800000E+00  1.60000000E+01  1.00800000E+00  1.00800000E+00
  1.60000000E+01  1.00800000E+00  1.00800000E+00  1.60000000E+01  1.00800000E+00
  1.00800000E+00  1.60000000E+01  1.00800000E+00  1.00800000E+00  1.60000000E+01
  1.00800000E+00  1.00800000E+00  1.60000000E+01  1.00800000E+00  1.00800000E+00
  1.60000000E+01  1.00800000E+00  1.00800000E+00  1.60000000E+01  1.00800000E+00
  1.00800000E+00  1.60000000E+01  1.00800000E+00  1.00800000E+00  1.60000000E+01
  1.00800000E+00  1.00800000E+00  1.60000000E+01  1.00800000E+00  1.00800000E+00
  1.60000000E+01  1.00800000E+00  1.00800000E+00  1.60000000E+01  1.00800000E+00
  1.00800000E+00  1.60000000E+01  1.00800000E+00  1.00800000E+00  1.60000000E+01
  1.00800000E+00  1.00800000E+00  1.60000000E+01  1.00800000E+00  1.00800000E+00
  1.60000000E+01  1.00800000E+00  1.00800000E+00  1.60000000E+01  1.00800000E+00
  1.00800000E+00  1.60000000E+01  1.00800000E+00  1.00800000E+00  1.60000000E+01
  1.00800000E+00  1.00800000E+00  1.60000000E+01  1.00800000E+00  1.00800000E+00
  1.60000000E+01  1.00800000E+00  1.00800000E+00  1.60000000E+01  1.00800000E+00
  1.00800000E+00  1.60000000E+01  1.00800000E+00  1.00800000E+00  1.60000000E+01
  1.00800000E+00  1.00800000E+00  1.60000000E+01  1.00800000E+00  1.00800000E+00
  1.60000000E+01  1.00800000E+00  1.00800000E+00  1.60000000E+01  1.00800000E+00
  1.00800000E+00  1.60000000E+01  1.00800000E+00  1.00800000E+00  1.60000000E+01
  1.00800000E+00  1.00800000E+00  1.60000000E+01  1.00800000E+00  1.00800000E+00
  1.60000000E+01  1.00800000E+00  1.00800000E+00  1.60000000E+01  1.00800000E+00
  1.00800000E+00  1.60000000E+01  1.00800000E+00  1.00800000E+00  1.60000000E+01
  1.00800000E+00  1.00800000E+00  1.60000000E+01  1.00800000E+00  1.00800000E+00
  1.60000000E+01  1.00800000E+00  1.00800000E+00  1.60000000E+01  1.00800000E+00
  1.00800000E+00  1.60000000E+01  1.00800000E+00  1.00800000E+00  1.60000000E+01
  1.00800000E+00  1.00800000E+00  1.60000000E+01  1.00800000E+00  1.00800000E+00
  1.60000000E+01  1.00800000E+00  1.00800000E+00  1.60000000E+01  1.00800000E+00
  1.00800000E+00  1.60000000E+01  1.00800000E+00  1.00800000E+00  1.60000000E+01
  1.00800000E+00  1.00800000E+00  1.60000000E+01  1.00800000E+00  1.00800000E+00
  1.60000000E+01  1.00800000E+00  1.00800000E+00  1.60000000E+01  1.00800000E+00
  1.00800000E+00  1.60000000E+01  1.00800000E+00  1.00800000E+00  1.60000000E+01
  1.00800000E+00  1.00800000E+00  1.60000000E+01  1.00800000E+00  1.00800000E+00
  1.60000000E+01  1.00800000E+00  1.00800000E+00  1.60000000E+01  1.00800000E+00
  1.00800000E+00  1.60000000E+01  1.00800000E+00  1.00800000E+00  1.60000000E+01
  1.00800000E+00  1.00800000E+00  1.60000000E+01  1.00800000E+00  1.00800000E+00
  1.60000000E+01  1.00800000E+00  1.00800000E+00  1.60000000E+01  1.00800000E+00
  1.00800000E+00  1.60000000E+01  1.00800000E+00  1.00800000E+00  1.60000000E+01
  1.00800000E+00  1.00800000E+00  1.60000000E+01  1.00800000E+00  1.00800000E+00
  1.60000000E+01  1.00800000E+00  1.00800000E+00  1.60000000E+01  1.00800000E+00
  1.00800000E+00  1.60000000E+01  1.00800000E+00  1.00800000E+00  1.60000000E+01
  1.00800000E+00  1.00800000E+00  1.60000000E+01  1.00800000E+00  1.00800000E+00
  1.60000000E+01  1.00800000E+00  1.00800000E+00  1.60000000E+01  1.00800000E+00
  1.00800000E+00  1.60000000E+01  1.00800000E+00  1.00800000E+00  1.60000000E+01
  1.00800000E+00  1.00800000E+00  1.60000000E+01  1.00800000E+00  1.00800000E+00
  1.60000000E+01  1.00800000E+00  1.00800000E+00  1.60000000E+01  1.00800000E+00
  1.00800000E+00  1.60000000E+01  1.00800000E+00  1.00800000E+00  1.60000000E+01
  1.00800000E+00  1.00800000E+00  1.60000000E+01  1.00800000E+00  1.00800000E+00
  1.60000000E+01  1.00800000E+00  1.00800000E+00  1.60000000E+01  1.00800000E+00
  1.00800000E+00  1.60000000E+01  1.00800000E+00  1.00800000E+00  1.60000000E+01
  1.00800000E+00  1.00800000E+00  1.60000000E+01  1.00800000E+00  1.00800000E+00
  1.60000000E+01  1.00800000E+00  1.00800000E+00  1.60000000E+01  1.00800000E+00
  1.00800000E+00  1.60000000E+01  1.00800000E+00  1.00800000E+00  1.60000000E+01
  1.00800000E+00  1.00800000E+00  1.60000000E+01  1.00800000E+00  1.00800000E+00
  1.60000000E+01  1.00800000E+00  1.00800000E+00  1.60000000E+01  1.00800000E+00
  1.00800000E+00  1.60000000E+01  1.00800000E+00  1.00800000E+00  1.60000000E+01
  1.00800000E+00  1.00800000E+00  1.60000000E+01  1.00800000E+00  1.00800000E+00
  1.60000000E+01  1.00800000E+00  1.00800000E+00  1.60000000E+01  1.00800000E+00
  1.00800000E+00  1.60000000E+01  1.00800000E+00  1.00800000E+00  1.60000000E+01
  1.00800000E+00  1.00800000E+00  1.60000000E+01  1.00800000E+00  1.00800000E+00
  1.60000000E+01  1.00800000E+00  1.00800000E+00  1.60000000E+01  1.00800000E+00
  1.00800000E+00  1.60000000E+01  1.00800000E+00  1.00800000E+00  1.60000000E+01
  1.00800000E+00  1.00800000E+00  1.60000000E+01  1.00800000E+00  1.00800000E+00
  1.60000000E+01  1.00800000E+00  1.00800000E+00  1.60000000E+01  1.00800000E+00
  1.00800000E+00  1.60000000E+01  1.00800000E+00  1.00800000E+00  1.60000000E+01
  1.00800000E+00  1.00800000E+00  1.60000000E+01  1.00800000E+00  1.00800000E+00
  1.60000000E+01  1.00800000E+00  1.00800000E+00  1.60000000E+01  1.00800000E+00
  1.00800000E+00  1.60000000E+01  1.00800000E+00  1.00800000E+00  1.60000000E+01
  1.00800000E+00  1.00800000E+00  1.60000000E+01  1.00800000E+00  1.00800000E+00
  1.60000000E+01  1.00800000E+00  1.00800000E+00  1.60000000E+01  1.00800000E+00
  1.00800000E+00  1.60000000E+01  1.00800000E+00  1.00800000E+00  1.60000000E+01
  1.00800000E+00  1.00800000E+00  1.60000000E+01  1.00800000E+00  1.00800000E+00
  1.60000000E+01  1.00800000E+00  1.00800000E+00  1.60000000E+01  1.00800000E+00
  1.00800000E+00  1.60000000E+01  1.00800000E+00  1.00800000E+00  1.60000000E+01
  1.00800000E+00  1.00800000E+00  1.60000000E+01  1.00800000E+00  1.00800000E+00
  1.60000000E+01  1.00800000E+00  1.00800000E+00  1.60000000E+01  1.00800000E+00
  1.00800000E+00  1.60000000E+01  1.00800000E+00  1.00800000E+00  1.60000000E+01
  1.00800000E+00  1.00800000E+00  1.60000000E+01  1.00800000E+00  1.00800000E+00
  1.60000000E+01  1.00800000E+00  1.00800000E+00  1.60000000E+01  1.00800000E+00
  1.00800000E+00  1.60000000E+01  1.00800000E+00  1.00800000E+00  1.60000000E+01
  1.00800000E+00  1.00800000E+00  1.60000000E+01  1.00800000E+00  1.00800000E+00
  1.60000000E+01  1.00800000E+00  1.00800000E+00  1.60000000E+01  1.00800000E+00
  1.00800000E+00  1.60000000E+01  1.00800000E+00  1.00800000E+00  1.60000000E+01
  1.00800000E+00  1.00800000E+00  1.60000000E+01  1.00800000E+00  1.00800000E+00
  1.60000000E+01  1.00800000E+00  1.00800000E+00  1.60000000E+01  1.00800000E+00
  1.00800000E+00  1.60000000E+01  1.00800000E+00  1.00800000E+00  1.60000000E+01
  1.00800000E+00  1.00800000E+00  1.60000000E+01  1.00800000E+00  1.00800000E+00
  1.60000000E+01  1.00800000E+00  1.00800000E+00  1.60000000E+01  1.00800000E+00
  1.00800000E+00  1.60000000E+01  1.00800000E+00  1.00800000E+00  1.60000000E+01
  1.00800000E+00  1.00800000E+00  1.60000000E+01  1.00800000E+00  1.00800000E+00
  1.60000000E+01  1.00800000E+00  1.00800000E+00  1.60000000E+01  1.00800000E+00
  1.00800000E+00  1.60000000E+01  1.00800000E+00  1.00800000E+00  1.60000000E+01
  1.00800000E+00  1.00800000E+00  1.60000000E+01  1.00800000E+00  1.00800000E+00
  1.60000000E+01  1.00800000E+00  1.00800000E+00  1.60000000E+01  1.00800000E+00
  1.00800000E+00  1.60000000E+01  1.00800000E+00  1.00800000E+00  1.60000000E+01
  1.00800000E+00  1.00800000E+00  1.60000000E+01  1.00800000E+00  1.00800000E+00
  1.60000000E+01  1.00800000E+00  1.00800000E+00  1.60000000E+01  1.00800000E+00
  1.00800000E+00  1.60000000E+01  1.00800000E+00  1.00800000E+00  1.60000000E+01
  1.00800000E+00  1.00800000E+00  1.60000000E+01  1.00800000E+00  1.00800000E+00
  1.60000000E+01  1.00800000E+00  1.00800000E+00  1.60000000E+01  1.00800000E+00
  1.00800000E+00  1.60000000E+01  1.00800000E+00  1.00800000E+00  1.60000000E+01
  1.00800000E+00  1.00800000E+00  1.60000000E+01  1.00800000E+00  1.00800000E+00
  1.60000000E+01  1.00800000E+00  1.00800000E+00  1.60000000E+01  1.00800000E+00
  1.00800000E+00  1.60000000E+01  1.00800000E+00  1.00800000E+00  1.60000000E+01
  1.00800000E+00  1.00800000E+00  1.60000000E+01  1.00800000E+00  1.00800000E+00
  1.60000000E+01  1.00800000E+00  1.00800000E+00  1.60000000E+01  1.00800000E+00
  1.00800000E+00  1.60000000E+01  1.00800000E+00  1.00800000E+00  1.60000000E+01
  1.00800000E+00  1.00800000E+00  1.60000000E+01  1.00800000E+00  1.00800000E+00
  1.60000000E+01  1.00800000E+00  1.00800000E+00  1.60000000E+01  1.00800000E+00
  1.00800000E+00  1.60000000E+01  1.00800000E+00  1.00800000E+00  1.60000000E+01
  1.00800000E+00  1.00800000E+00  1.60000000E+01  1.00800000E+00  1.00800000E+00
  1.60000000E+01  1.00800000E+00  1.00800000E+00  1.60000000E+01  1.00800000E+00
  1.00800000E+00  1.60000000E+01  1.00800000E+00  1.00800000E+00  1.60000000E+01
  1.00800000E+00  1.00800000E+00  1.60000000E+01  1.00800000E+00  1.00800000E+00
  1.60000000E+01  1.00800000E+00  1.00800000E+00  1.60000000E+01  1.00800000E+00
  1.00800000E+00  1.60000000E+01  1.00800000E+00  1.00800000E+00  1.60000000E+01
  1.00800000E+00  1.00800000E+00  1.60000000E+01  1.00800000E+00  1.00800000E+00
  1.60000000E+01  1.00800000E+00  1.00800000E+00  1.60000000E+01  1.00800000E+00
  1.00800000E+00  1.60000000E+01  1.00800000E+00  1.00800000E+00  1.60000000E+01
  1.00800000E+00  1.00800000E+00  1.60000000E+01  1.00800000E+00  1.00800000E+00
  1.60000000E+01  1.00800000E+00  1.00800000E+00  1.60000000E+01  1.00800000E+00
  1.00800000E+00  1.60000000E+01  1.00800000E+00  1.00800000E+00  1.60000000E+01
  1.00800000E+00  1.00800000E+00  1.60000000E+01  1.00800000E+00  1.00800000E+00
  1.60000000E+01  1.00800000E+00  1.00800000E+00  1.60000000E+01  1.00800000E+00
  1.00800000E+00  1.60000000E+01  1.00800000E+00  1.00800000E+00  1.60000000E+01
  1.00800000E+00  1.00800000E+00  1.60000000E+01  1.00800000E+00  1.00800000E+00
  1.60000000E+01  1.00800000E+00  1.00800000E+00  1.60000000E+01  1.00800000E+00
  1.00800000E+00  1.60000000E+01  1.00800000E+00  1.00800000E+00  1.60000000E+01
  1.00800000E+00  1.00800000E+00  1.60000000E+01  1.00800000E+00  1.00800000E+00
  1.60000000E+01  1.00800000E+00  1.00800000E+00  1.60000000E+01  1.00800000E+00
  1.00800000E+00  1.60000000E+01  1.00800000E+00  1.00800000E+00  1.60000000E+01
  1.00800000E+00  1.00800000E+00  1.60000000E+01  1.00800000E+00  1.00800000E+00
  1.60000000E+01  1.00800000E+00  1.00800000E+00  1.60000000E+01  1.00800000E+00
  1.00800000E+00  1.60000000E+01  1.00800000E+00  1.00800000E+00  1.60000000E+01
  1.00800000E+00  1.00800000E+00  1.60000000E+01  1.00800000E+00  1.00800000E+00
  1.60000000E+01  1.00800000E+00  1.00800000E+00  1.60000000E+01  1.00800000E+00
  1.00800000E+00  1.60000000E+01  1.00800000E+00  1.00800000E+00  1.60000000E+01
  1.00800000E+00  1.00800000E+00  1.60000000E+01  1.00800000E+00  1.00800000E+00
  1.60000000E+01  1.00800000E+00  1.00800000E+00  1.60000000E+01  1.00800000E+00
  1.00800000E+00  1.60000000E+01  1.00800000E+00  1.00800000E+00  1.60000000E+01
  1.00800000E+00  1.00800000E+00  1.60000000E+01  1.00800000E+00  1.00800000E+00
  1.60000000E+01  1.00800000E+00  1.00800000E+00  1.60000000E+01  1.00800000E+00
  1.00800000E+00  1.60000000E+01  1.00800000E+00  1.00800000E+00  1.60000000E+01
  1.00800000E+00  1.00800000E+00  1.60000000E+01  1.00800000E+00  1.00800000E+00
  1.60000000E+01  1.00800000E+00  1.00800000E+00  1.60000000E+01  1.00800000E+00
  1.00800000E+00  1.60000000E+01  1.00800000E+00  1.00800000E+00  1.60000000E+01
  1.00800000E+00  1.00800000E+00  1.60000000E+01  1.00800000E+00  1.00800000E+00
  1.60000000E+01  1.00800000E+00  1.00800000E+00  1.60000000E+01  1.00800000E+00
  1.00800000E+00  1.60000000E+01  1.00800000E+00  1.00800000E+00  1.60000000E+01
  1.00800000E+00  1.00800000E+00  1.60000000E+01  1.00800000E+00  1.00800000E+00
  1.60000000E+01  1.00800000E+00  1.00800000E+00  1.60000000E+01  1.00800000E+00
  1.00800000E+00  1.60000000E+01  1.00800000E+00  1.00800000E+00  1.60000000E+01
  1.00800000E+00  1.00800000E+00  1.60000000E+01  1.00800000E+00  1.00800000E+00
  1.60000000E+01  1.00800000E+00  1.00800000E+00  1.60000000E+01  1.00800000E+00
  1.00800000E+00  1.60000000E+01  1.00800000E+00  1.00800000E+00  1.60000000E+01
  1.00800000E+00  1.00800000E+00  1.60000000E+01  1.00800000E+00  1.00800000E+00
  1.60000000E+01  1.00800000E+00  1.00800000E+00  1.60000000E+01  1.00800000E+00
  1.00800000E+00  1.60000000E+01  1.00800000E+00  1.00800000E+00  1.60000000E+01
  1.00800000E+00  1.00800000E+00  1.60000000E+01  1.00800000E+00  1.00800000E+00
  1.60000000E+01  1.00800000E+00  1.00800000E+00  1.60000000E+01  1.00800000E+00
  1.00800000E+00  1.60000000E+01  1.00800000E+00  1.00800000E+00  1.60000000E+01
  1.00800000E+00  1.00800000E+00  1.60000000E+01  1.00800000E+00  1.00800000E+00
  1.60000000E+01  1.00800000E+00  1.00800000E+00  1.60000000E+01  1.00800000E+00
  1.00800000E+00  1.60000000E+01  1.00800000E+00  1.00800000E+00  1.60000000E+01
  1.00800000E+00  1.00800000E+00  1.60000000E+01  1.00800000E+00  1.00800000E+00
  1.60000000E+01  1.00800000E+00  1.00800000E+00  1.60000000E+01  1.00800000E+00
  1.00800000E+00  1.60000000E+01  1.00800000E+00  1.00800000E+00  1.60000000E+01
  1.00800000E+00  1.00800000E+00  1.60000000E+01  1.00800000E+00  1.00800000E+00
  1.60000000E+01  1.00800000E+00  1.00800000E+00  1.60000000E+01  1.00800000E+00
  1.00800000E+00  1.60000000E+01  1.00800000E+00  1.00800000E+00  1.60000000E+01
  1.00800000E+00  1.00800000E+00  1.60000000E+01  1.00800000E+00  1.00800000E+00
  1.60000000E+01  1.00800000E+00  1.00800000E+00  1.60000000E+01  1.00800000E+00
  1.00800000E+00  1.60000000E+01  1.00800000E+00  1.00800000E+00  1.60000000E+01
  1.00800000E+00  1.00800000E+00  1.60000000E+01  1.00800000E+00  1.00800000E+00
  1.60000000E+01  1.00800000E+00  1.00800000E+00  1.60000000E+01  1.00800000E+00
  1.00800000E+00  1.60000000E+01  1.00800000E+00  1.00800000E+00  1.60000000E+01
  1.00800000E+00  1.00800000E+00  1.60000000E+01  1.00800000E+00  1.00800000E+00
  1.60000000E+01  1.00800000E+00  1.00800000E+00  1.60000000E+01  1.00800000E+00
  1.00800000E+00  1.60000000E+01  1.00800000E+00  1.00800000E+00  1.60000000E+01
  1.00800000E+00  1.00800000E+00  1.60000000E+01  1.00800000E+00  1.00800000E+00
  1.60000000E+01  1.00800000E+00  1.00800000E+00  1.60000000E+01  1.00800000E+00
  1.00800000E+00  1.60000000E+01  1.00800000E+00  1.00800000E+00  1.60000000E+01
  1.00800000E+00  1.00800000E+00  1.60000000E+01  1.00800000E+00  1.00800000E+00
  1.60000000E+01  1.00800000E+00  1.00800000E+00  1.60000000E+01  1.00800000E+00
  1.00800000E+00  1.60000000E+01  1.00800000E+00  1.00800000E+00  1.60000000E+01
  1.00800000E+00  1.00800000E+00  1.60000000E+01  1.00800000E+00  1.00800000E+00
  1.60000000E+01  1.00800000E+00  1.00800000E+00  1.60000000E+01  1.00800000E+00
  1.00800000E+00  1.60000000E+01  1.00800000E+00  1.00800000E+00  1.60000000E+01
  1.00800000E+00  1.00800000E+00  1.60000000E+01  1.00800000E+00  1.00800000E+00
  1.60000000E+01  1.00800000E+00  1.00800000E+00  1.60000000E+01  1.00800000E+00
  1.00800000E+00  1.60000000E+01  1.00800000E+00  1.00800000E+00  1.60000000E+01
  1.00800000E+00  1.00800000E+00  1.60000000E+01  1.00800000E+00  1.00800000E+00
  1.60000000E+01  1.00800000E+00  1.00800000E+00  1.60000000E+01  1.00800000E+00
  1.00800000E+00  1.60000000E+01  1.00800000E+00  1.00800000E+00  1.60000000E+01
  1.00800000E+00  1.00800000E+00  1.60000000E+01  1.00800000E+00  1.00800000E+00
  1.60000000E+01  1.00800000E+00  1.00800000E+00  1.60000000E+01  1.00800000E+00
  1.00800000E+00  1.60000000E+01  1.00800000E+00  1.00800000E+00  1.60000000E+01
  1.00800000E+00  1.00800000E+00  1.60000000E+01  1.00800000E+00  1.00800000E+00
  1.60000000E+01  1.00800000E+00  1.00800000E+00  1.60000000E+01  1.00800000E+00
  1.00800000E+00  1.60000000E+01  1.00800000E+00  1.00800000E+00  1.60000000E+01
  1.00800000E+00  1.00800000E+00  1.60000000E+01  1.00800000E+00  1.00800000E+00
  1.60000000E+01  1.00800000E+00  1.00800000E+00  1.60000000E+01  1.00800000E+00
  1.00800000E+00  1.60000000E+01  1.00800000E+00  1.00800000E+00  1.60000000E+01
  1.00800000E+00  1.00800000E+00  1.60000000E+01  1.00800000E+00  1.00800000E+00
  1.60000000E+01  1.00800000E+00  1.00800000E+00  1.60000000E+01  1.00800000E+00
  1.00800000E+00  1.60000000E+01  1.00800000E+00  1.00800000E+00  1.60000000E+01
  1.00800000E+00  1.00800000E+00  1.60000000E+01  1.00800000E+00  1.00800000E+00
  1.60000000E+01  1.00800000E+00  1.00800000E+00  1.60000000E+01  1.00800000E+00
  1.00800000E+00  1.60000000E+01  1.00800000E+00  1.00800000E+00  1.60000000E+01
  1.00800000E+00  1.00800000E+00  1.60000000E+01  1.00800000E+00  1.00800000E+00
  1.60000000E+01  1.00800000E+00  1.00800000E+00  1.60000000E+01  1.00800000E+00
  1.00800000E+00  1.60000000E+01  1.00800000E+00  1.00800000E+00  1.60000000E+01
  1.00800000E+00  1.00800000E+00  1.60000000E+01  1.00800000E+00  1.00800000E+00
  1.60000000E+01  1.00800000E+00  1.00800000E+00  1.60000000E+01  1.00800000E+00
  1.00800000E+00  1.60000000E+01  1.00800000E+00  1.00800000E+00  1.60000000E+01
  1.00800000E+00  1.00800000E+00  1.60000000E+01  1.00800000E+00  1.00800000E+00
  1.60000000E+01  1.00800000E+00  1.00800000E+00  1.60000000E+01  1.00800000E+00
  1.00800000E+00  1.60000000E+01  1.00800000E+00  1.00800000E+00  1.60000000E+01
  1.00800000E+00  1.00800000E+00  1.60000000E+01  1.00800000E+00  1.00800000E+00
  1.60000000E+01  1.00800000E+00  1.00800000E+00  1.60000000E+01  1.00800000E+00
  1.00800000E+00  1.60000000E+01  1.00800000E+00  1.00800000E+00  1.60000000E+01
  1.00800000E+00  1.00800000E+00  1.60000000E+01  1.00800000E+00  1.00800000E+00
  1.60000000E+01  1.00800000E+00  1.00800000E+00  1.60000000E+01  1.00800000E+00
  1.00800000E+00  1.60000000E+01  1.00800000E+00  1.00800000E+00  1.60000000E+01
  1.00800000E+00  1.00800000E+00  1.60000000E+01  1.00800000E+00  1.00800000E+00
  1.60000000E+01  1.00800000E+00  1.00800000E+00  1.60000000E+01  1.00800000E+00
  1.00800000E+00  1.60000000E+01  1.00800000E+00  1.00800000E+00  1.60000000E+01
  1.00800000E+00  1.00800000E+00  1.60000000E+01  1.00800000E+00  1.00800000E+00
  1.60000000E+01  1.00800000E+00  1.00800000E+00  1.60000000E+01  1.00800000E+00
  1.00800000E+00  1.60000000E+01  1.00800000E+00  1.00800000E+00  1.60000000E+01
  1.00800000E+00  1.00800000E+00  1.60000000E+01  1.00800000E+00  1.00800000E+00
  1.60000000E+01  1.00800000E+00  1.00800000E+00  1.60000000E+01  1.00800000E+00
  1.00800000E+00  1.60000000E+01  1.00800000E+00  1.00800000E+00  1.60000000E+01
  1.00800000E+00  1.00800000E+00  1.60000000E+01  1.00800000E+00  1.00800000E+00
  1.60000000E+01  1.00800000E+00  1.00800000E+00  1.60000000E+01  1.00800000E+00
  1.00800000E+00  1.60000000E+01  1.00800000E+00  1.00800000E+00  1.60000000E+01
  1.00800000E+00  1.00800000E+00  1.60000000E+01  1.00800000E+00  1.00800000E+00
  1.60000000E+01  1.00800000E+00  1.00800000E+00  1.60000000E+01  1.00800000E+00
  1.00800000E+00  1.60000000E+01  1.00800000E+00  1.00800000E+00  1.60000000E+01
  1.00800000E+00  1.00800000E+00  1.60000000E+01  1.00800000E+00  1.00800000E+00
  1.60000000E+01  1.00800000E+00  1.00800000E+00  1.60000000E+01  1.00800000E+00
  1.00800000E+00  1.60000000E+01  1.00800000E+00  1.00800000E+00  1.60000000E+01
  1.00800000E+00  1.00800000E+00  1.60000000E+01  1.00800000E+00  1.00800000E+00
  1.60000000E+01  1.00800000E+00  1.00800000E+00  1.60000000E+01  1.00800000E+00
  1.00800000E+00  1.60000000E+01  1.00800000E+00  1.00800000E+00  1.60000000E+01
  1.00800000E+00  1.00800000E+00  1.60000000E+01  1.00800000E+00  1.00800000E+00
  1.60000000E+01  1.00800000E+00  1.00800000E+00  1.60000000E+01  1.00800000E+00
  1.00800000E+00  1.60000000E+01  1.00800000E+00  1.00800000E+00  1.60000000E+01
  1.00800000E+00  1.00800000E+00  1.60000000E+01  1.00800000E+00  1.00800000E+00
  1.60000000E+01  1.00800000E+00  1.00800000E+00  1.60000000E+01  1.00800000E+00
  1.00800000E+00  1.60000000E+01  1.00800000E+00  1.00800000E+00  1.60000000E+01
  1.00800000E+00  1.00800000E+00  1.60000000E+01  1.00800000E+00  1.00800000E+00
  1.60000000E+01  1.00800000E+00  1.00800000E+00  1.60000000E+01  1.00800000E+00
  1.00800000E+00  1.60000000E+01  1.00800000E+00  1.00800000E+00  1.60000000E+01
  1.00800000E+00  1.00800000E+00  1.60000000E+01  1.00800000E+00  1.00800000E+00
  1.60000000E+01  1.00800000E+00  1.00800000E+00  1.60000000E+01  1.00800000E+00
  1.00800000E+00  1.60000000E+01  1.00800000E+00  1.00800000E+00  1.60000000E+01
  1.00800000E+00  1.00800000E+00  1.60000000E+01  1.00800000E+00  1.00800000E+00
  1.60000000E+01  1.00800000E+00  1.00800000E+00  1.60000000E+01  1.00800000E+00
  1.00800000E+00  1.60000000E+01  1.00800000E+00  1.00800000E+00  1.60000000E+01
  1.00800000E+00  1.00800000E+00  1.60000000E+01  1.00800000E+00  1.00800000E+00
  1.60000000E+01  1.00800000E+00  1.00800000E+00  1.60000000E+01  1.00800000E+00
  1.00800000E+00  1.60000000E+01  1.00800000E+00  1.00800000E+00  1.60000000E+01
  1.00800000E+00  1.00800000E+00  1.60000000E+01  1.00800000E+00  1.00800000E+00
  1.60000000E+01  1.00800000E+00  1.00800000E+00  1.60000000E+01  1.00800000E+00
  1.00800000E+00  1.60000000E+01  1.00800000E+00  1.00800000E+00  1.60000000E+01
  1.00800000E+00  1.00800000E+00  1.60000000E+01  1.00800000E+00  1.00800000E+00
  1.60000000E+01  1.00800000E+00  1.00800000E+00  1.60000000E+01  1.00800000E+00
  1.00800000E+00  1.60000000E+01  1.00800000E+00  1.00800000E+00  1.60000000E+01
  1.00800000E+00  1.00800000E+00  1.60000000E+01  1.00800000E+00  1.00800000E+00
  1.60000000E+01  1.00800000E+00  1.00800000E+00  1.60000000E+01  1.00800000E+00
  1.00800000E+00  1.60000000E+01  1.00800000E+00  1.00800000E+00  1.60000000E+01
  1.00800000E+00  1.00800000E+00  1.60000000E+01  1.00800000E+00  1.00800000E+00
  1.60000000E+01  1.00800000E+00  1.00800000E+00  1.60000000E+01  1.00800000E+00
  1.00800000E+00  1.60000000E+01  1.00800000E+00  1.00800000E+00  1.60000000E+01
  1.00800000E+00  1.00800000E+00  1.60000000E+01  1.00800000E+00  1.00800000E+00
  1.60000000E+01  1.00800000E+00  1.00800000E+00  1.60000000E+01  1.00800000E+00
  1.00800000E+00  1.60000000E+01  1.00800000E+00  1.00800000E+00  1.60000000E+01
  1.00800000E+00  1.00800000E+00  1.60000000E+01  1.00800000E+00  1.00800000E+00
  1.60000000E+01  1.00800000E+00  1.00800000E+00  1.60000000E+01  1.00800000E+00
  1.00800000E+00  1.60000000E+01  1.00800000E+00  1.00800000E+00  1.60000000E+01
  1.00800000E+00  1.00800000E+00  1.60000000E+01  1.00800000E+00  1.00800000E+00
  1.60000000E+01  1.00800000E+00  1.00800000E+00  1.60000000E+01  1.00800000E+00
  1.00800000E+00  1.60000000E+01  1.00800000E+00  1.00800000E+00  1.60000000E+01
  1.00800000E+00  1.00800000E+00  1.60000000E+01  1.00800000E+00  1.00800000E+00
  1.60000000E+01  1.00800000E+00  1.00800000E+00  1.60000000E+01  1.00800000E+00
  1.00800000E+00  1.60000000E+01  1.00800000E+00  1.00800000E+00  1.60000000E+01
  1.00800000E+00  1.00800000E+00  1.60000000E+01  1.00800000E+00  1.00800000E+00
  1.60000000E+01  1.00800000E+00  1.00800000E+00  1.60000000E+01  1.00800000E+00
  1.00800000E+00  1.60000000E+01  1.00800000E+00  1.00800000E+00  1.60000000E+01
  1.00800000E+00  1.00800000E+00  1.60000000E+01  1.00800000E+00  1.00800000E+00
  1.60000000E+01  1.00800000E+00  1.00800000E+00  1.60000000E+01  1.00800000E+00
  1.00800000E+00  1.60000000E+01  1.00800000E+00  1.00800000E+00  1.60000000E+01
  1.00800000E+00  1.00800000E+00  1.60000000E+01  1.00800000E+00  1.00800000E+00
  1.60000000E+01  1.00800000E+00  1.00800000E+00  1.60000000E+01  1.00800000E+00
  1.00800000E+00  1.60000000E+01  1.00800000E+00  1.00800000E+00  1.60000000E+01
  1.00800000E+00  1.00800000E+00  1.60000000E+01  1.00800000E+00  1.00800000E+00
  1.60000000E+01  1.00800000E+00  1.00800000E+00  1.60000000E+01  1.00800000E+00
  1.00800000E+00  1.60000000E+01  1.00800000E+00  1.00800000E+00  1.60000000E+01
  1.00800000E+00  1.00800000E+00  1.60000000E+01  1.00800000E+00  1.00800000E+00
  1.60000000E+01  1.00800000E+00  1.00800000E+00  1.60000000E+01  1.00800000E+00
  1.00800000E+00  1.60000000E+01  1.00800000E+00  1.00800000E+00  1.60000000E+01
  1.00800000E+00  1.00800000E+00  1.60000000E+01  1.00800000E+00  1.00800000E+00
  1.60000000E+01  1.00800000E+00  1.00800000E+00  1.60000000E+01  1.00800000E+00
  1.00800000E+00  1.60000000E+01  1.00800000E+00  1.00800000E+00  1.60000000E+01
  1.00800000E+00  1.00800000E+00  1.60000000E+01  1.00800000E+00  1.00800000E+00
  1.60000000E+01  1.00800000E+00  1.00800000E+00  1.60000000E+01  1.00800000E+00
  1.00800000E+00  1.60000000E+01  1.00800000E+00  1.00800000E+00  1.60000000E+01
  1.00800000E+00  1.00800000E+00  1.60000000E+01  1.00800000E+00  1.00800000E+00
  1.60000000E+01  1.00800000E+00  1.00800000E+00  1.60000000E+01  1.00800000E+00
  1.00800000E+00  1.60000000E+01  1.00800000E+00  1.00800000E+00  1.60000000E+01
  1.00800000E+00  1.00800000E+00  1.60000000E+01  1.00800000E+00  1.00800000E+00
  1.60000000E+01  1.00800000E+00  1.00800000E+00  1.60000000E+01  1.00800000E+00
  1.00800000E+00  1.60000000E+01  1.00800000E+00  1.00800000E+00  1.60000000E+01
  1.00800000E+00  1.00800000E+00  1.60000000E+01  1.00800000E+00  1.00800000E+00
  1.60000000E+01  1.00800000E+00  1.00800000E+00  1.60000000E+01  1.00800000E+00
  1.00800000E+00  1.60000000E+01  1.00800000E+00  1.00800000E+00  1.60000000E+01
  1.00800000E+00  1.00800000E+00  1.60000000E+01  1.00800000E+00  1.00800000E+00
  1.60000000E+01  1.00800000E+00  1.00800000E+00  1.60000000E+01  1.00800000E+00
  1.00800000E+00  1.60000000E+01  1.00800000E+00  1.00800000E+00  1.60000000E+01
  1.00800000E+00  1.00800000E+00  1.60000000E+01  1.00800000E+00  1.00800000E+00
  1.60000000E+01  1.00800000E+00  1.00800000E+00  1.60000000E+01  1.00800000E+00
  1.00800000E+00  1.60000000E+01  1.00800000E+00  1.00800000E+00  1.60000000E+01
  1.00800000E+00  1.00800000E+00  1.60000000E+01  1.00800000E+00  1.00800000E+00
  1.60000000E+01  1.00800000E+00  1.00800000E+00  1.60000000E+01  1.00800000E+00
  1.00800000E+00  1.60000000E+01  1.00800000E+00  1.00800000E+00  1.60000000E+01
  1.00800000E+00  1.00800000E+00  1.60000000E+01  1.00800000E+00  1.00800000E+00
  1.60000000E+01  1.00800000E+00  1.00800000E+00  1.60000000E+01  1.00800000E+00
  1.00800000E+00  1.60000000E+01  1.00800000E+00  1.00800000E+00  1.60000000E+01
  1.00800000E+00  1.00800000E+00  1.60000000E+01  1.00800000E+00  1.00800000E+00
  1.60000000E+01  1.00800000E+00  1.00800000E+00  1.60000000E+01  1.00800000E+00
  1.00800000E+00  1.60000000E+01  1.00800000E+00  1.00800000E+00  1.60000000E+01
  1.00800000E+00  1.00800000E+00  1.60000000E+01  1.00800000E+00  1.00800000E+00
  1.60000000E+01  1.00800000E+00  1.00800000E+00  1.60000000E+01  1.00800000E+00
  1.00800000E+00  1.60000000E+01  1.00800000E+00  1.00800000E+00  1.60000000E+01
  1.00800000E+00  1.00800000E+00  1.60000000E+01  1.00800000E+00  1.00800000E+00
  1.60000000E+01  1.00800000E+00  1.00800000E+00  1.60000000E+01  1.00800000E+00
  1.00800000E+00  1.60000000E+01  1.00800000E+00  1.00800000E+00  1.60000000E+01
  1.00800000E+00  1.00800000E+00  1.60000000E+01  1.00800000E+00  1.00800000E+00
  1.60000000E+01  1.00800000E+00  1.00800000E+00  1.60000000E+01  1.00800000E+00
  1.00800000E+00  1.60000000E+01  1.00800000E+00  1.00800000E+00  1.60000000E+01
  1.00800000E+00  1.00800000E+00  1.60000000E+01  1.00800000E+00  1.00800000E+00
  1.60000000E+01  1.00800000E+00  1.00800000E+00  1.60000000E+01  1.00800000E+00
  1.00800000E+00  1.60000000E+01  1.00800000E+00  1.00800000E+00  1.60000000E+01
  1.00800000E+00  1.00800000E+00  1.60000000E+01  1.00800000E+00  1.00800000E+00
  1.60000000E+01  1.00800000E+00  1.00800000E+00  1.60000000E+01  1.00800000E+00
  1.00800000E+00  1.60000000E+01  1.00800000E+00  1.00800000E+00  1.60000000E+01
  1.00800000E+00  1.00800000E+00  1.60000000E+01  1.00800000E+00  1.00800000E+00
  1.60000000E+01  1.00800000E+00  1.00800000E+00  1.60000000E+01  1.00800000E+00
  1.00800000E+00  1.60000000E+01  1.00800000E+00  1.00800000E+00  1.60000000E+01
  1.00800000E+00  1.00800000E+00  1.60000000E+01  1.00800000E+00  1.00800000E+00
  1.60000000E+01  1.00800000E+00  1.00800000E+00  1.60000000E+01  1.00800000E+00
  1.00800000E+00  1.60000000E+01  1.00800000E+00  1.00800000E+00  1.60000000E+01
  1.00800000E+00  1.00800000E+00  1.60000000E+01  1.00800000E+00  1.00800000E+00
  1.60000000E+01  1.00800000E+00  1.00800000E+00  1.60000000E+01  1.00800000E+00
  1.00800000E+00  1.60000000E+01  1.00800000E+00  1.00800000E+00  1.60000000E+01
  1.00800000E+00  1.00800000E+00  1.60000000E+01  1.00800000E+00  1.00800000E+00
  1.60000000E+01  1.00800000E+00  1.00800000E+00  1.60000000E+01  1.00800000E+00
  1.00800000E+00  1.60000000E+01  1.00800000E+00  1.00800000E+00  1.60000000E+01
  1.00800000E+00  1.00800000E+00  1.60000000E+01  1.00800000E+00  1.00800000E+00
  1.60000000E+01  1.00800000E+00  1.00800000E+00  1.60000000E+01  1.00800000E+00
  1.00800000E+00  1.60000000E+01  1.00800000E+00  1.00800000E+00  1.60000000E+01
  1.00800000E+00  1.00800000E+00  1.60000000E+01  1.00800000E+00  1.00800000E+00
  1.60000000E+01  1.00800000E+00  1.00800000E+00  1.60000000E+01  1.00800000E+00
  1.00800000E+00  1.60000000E+01  1.00800000E+00  1.00800000E+00  1.60000000E+01
  1.00800000E+00  1.00800000E+00  1.60000000E+01  1.00800000E+00  1.00800000E+00
  1.60000000E+01  1.00800000E+00  1.00800000E+00  1.60000000E+01  1.00800000E+00
  1.00800000E+00  1.60000000E+01  1.00800000E+00  1.00800000E+00  1.60000000E+01
  1.00800000E+00  1.00800000E+00  1.60000000E+01  1.00800000E+00  1.00800000E+00
  1.60000000E+01  1.00800000E+00  1.00800000E+00  1.60000000E+01  1.00800000E+00
  1.00800000E+00  1.60000000E+01  1.00800000E+00  1.00800000E+00  1.60000000E+01
  1.00800000E+00  1.00800000E+00  1.60000000E+01  1.00800000E+00  1.00800000E+00
  1.60000000E+01  1.00800000E+00  1.00800000E+00  1.60000000E+01  1.00800000E+00
  1.00800000E+00  1.60000000E+01  1.00800000E+00  1.00800000E+00  1.60000000E+01
  1.00800000E+00  1.00800000E+00  1.60000000E+01  1.00800000E+00  1.00800000E+00
  1.60000000E+01  1.00800000E+00  1.00800000E+00  1.60000000E+01  1.00800000E+00
  1.00800000E+00  1.60000000E+01  1.00800000E+00  1.00800000E+00  1.60000000E+01
  1.00800000E+00  1.00800000E+00  1.60000000E+01  1.00800000E+00  1.00800000E+00
  1.60000000E+01  1.00800000E+00  1.00800000E+00  1.60000000E+01  1.00800000E+00
  1.00800000E+00  1.60000000E+01  1.00800000E+00  1.00800000E+00  1.60000000E+01
  1.00800000E+00  1.00800000E+00  1.60000000E+01  1.00800000E+00  1.00800000E+00
  1.60000000E+01  1.00800000E+00  1.00800000E+00  1.60000000E+01  1.00800000E+00
  1.00800000E+00  1.60000000E+01  1.00800000E+00  1.00800000E+00  1.60000000E+01
  1.00800000E+00  1.00800000E+00  1.60000000E+01  1.00800000E+00  1.00800000E+00
  1.60000000E+01  1.00800000E+00  1.00800000E+00  1.60000000E+01  1.00800000E+00
  1.00800000E+00  1.60000000E+01  1.00800000E+00  1.00800000E+00  1.60000000E+01
  1.00800000E+00  1.00800000E+00  1.60000000E+01  1.00800000E+00  1.00800000E+00
  1.60000000E+01  1.00800000E+00  1.00800000E+00  1.60000000E+01  1.00800000E+00
  1.00800000E+00  1.60000000E+01  1.00800000E+00  1.00800000E+00  1.60000000E+01
  1.00800000E+00  1.00800000E+00  1.60000000E+01  1.00800000E+00  1.00800000E+00
  1.60000000E+01  1.00800000E+00  1.00800000E+00  1.60000000E+01  1.00800000E+00
  1.00800000E+00  1.60000000E+01  1.00800000E+00  1.00800000E+00  1.60000000E+01
  1.00800000E+00  1.00800000E+00  1.60000000E+01  1.00800000E+00  1.00800000E+00
  1.60000000E+01  1.00800000E+00  1.00800000E+00  1.60000000E+01  1.00800000E+00
  1.00800000E+00  1.60000000E+01  1.00800000E+00  1.00800000E+00  1.60000000E+01
  1.00800000E+00  1.00800000E+00  1.60000000E+01  1.00800000E+00  1.00800000E+00
  1.60000000E+01  1.00800000E+00  1.00800000E+00  1.60000000E+01  1.00800000E+00
  1.00800000E+00  1.60000000E+01  1.00800000E+00  1.00800000E+00  1.60000000E+01
  1.00800000E+00  1.00800000E+00  1.60000000E+01  1.00800000E+00  1.00800000E+00
  1.60000000E+01  1.00800000E+00  1.00800000E+00  1.60000000E+01  1.00800000E+00
  1.00800000E+00  1.60000000E+01  1.00800000E+00  1.00800000E+00  1.60000000E+01
  1.00800000E+00  1.00800000E+00  1.60000000E+01  1.00800000E+00  1.00800000E+00
  1.60000000E+01  1.00800000E+00  1.00800000E+00  1.60000000E+01  1.00800000E+00
  1.00800000E+00  1.60000000E+01  1.00800000E+00  1.00800000E+00  1.60000000E+01
  1.00800000E+00  1.00800000E+00  1.60000000E+01  1.00800000E+00  1.00800000E+00
  1.60000000E+01  1.00800000E+00  1.00800000E+00  1.60000000E+01  1.00800000E+00
  1.00800000E+00  1.60000000E+01  1.00800000E+00  1.00800000E+00  1.60000000E+01
  1.00800000E+00  1.00800000E+00  1.60000000E+01  1.00800000E+00  1.00800000E+00
  1.60000000E+01  1.00800000E+00  1.00800000E+00  1.60000000E+01  1.00800000E+00
  1.00800000E+00  1.60000000E+01  1.00800000E+00  1.00800000E+00  1.60000000E+01
  1.00800000E+00  1.00800000E+00  1.60000000E+01  1.00800000E+00  1.00800000E+00
  1.60000000E+01  1.00800000E+00  1.00800000E+00  1.60000000E+01  1.00800000E+00
  1.00800000E+00  1.60000000E+01  1.00800000E+00  1.00800000E+00  1.60000000E+01
  1.00800000E+00  1.00800000E+00  1.60000000E+01  1.00800000E+00  1.00800000E+00
  1.60000000E+01  1.00800000E+00  1.00800000E+00  1.60000000E+01  1.00800000E+00
  1.00800000E+00  1.60000000E+01  1.00800000E+00  1.00800000E+00  1.60000000E+01
  1.00800000E+00  1.00800000E+00  1.60000000E+01  1.00800000E+00  1.00800000E+00
  1.60000000E+01  1.00800000E+00  1.00800000E+00  1.60000000E+01  1.00800000E+00
  1.00800000E+00  1.60000000E+01  1.00800000E+00  1.00800000E+00  1.60000000E+01
  1.00800000E+00  1.00800000E+00  1.60000000E+01  1.00800000E+00  1.00800000E+00
  1.60000000E+01  1.00800000E+00  1.00800000E+00  1.60000000E+01  1.00800000E+00
  1.00800000E+00  1.60000000E+01  1.00800000E+00  1.00800000E+00  1.60000000E+01
  1.00800000E+00  1.00800000E+00  1.60000000E+01  1.00800000E+00  1.00800000E+00
  1.60000000E+01  1.00800000E+00  1.00800000E+00  1.60000000E+01  1.00800000E+00
  1.00800000E+00  1.60000000E+01  1.00800000E+00  1.00800000E+00  1.60000000E+01
  1.00800000E+00  1.00800000E+00  1.60000000E+01  1.00800000E+00  1.00800000E+00
  1.60000000E+01  1.00800000E+00  1.00800000E+00  1.60000000E+01  1.00800000E+00
  1.00800000E+00  1.60000000E+01  1.00800000E+00  1.00800000E+00  1.60000000E+01
  1.00800000E+00  1.00800000E+00  1.60000000E+01  1.00800000E+00  1.00800000E+00
  1.60000000E+01  1.00800000E+00  1.00800000E+00  1.60000000E+01  1.00800000E+00
  1.00800000E+00  1.60000000E+01  1.00800000E+00  1.00800000E+00  1.60000000E+01
  1.00800000E+00  1.00800000E+00  1.60000000E+01  1.00800000E+00  1.00800000E+00
  1.60000000E+01  1.00800000E+00  1.00800000E+00  1.60000000E+01  1.00800000E+00
  1.00800000E+00  1.60000000E+01  1.00800000E+00  1.00800000E+00  1.60000000E+01
  1.00800000E+00  1.00800000E+00  1.60000000E+01  1.00800000E+00  1.00800000E+00
  1.60000000E+01  1.00800000E+00  1.00800000E+00  1.60000000E+01  1.00800000E+00
  1.00800000E+00  1.60000000E+01  1.00800000E+00  1.00800000E+00  1.60000000E+01
  1.00800000E+00  1.00800000E+00  1.60000000E+01  1.00800000E+00  1.00800000E+00
  1.60000000E+01  1.00800000E+00  1.00800000E+00  1.60000000E+01  1.00800000E+00
  1.00800000E+00  1.60000000E+01  1.00800000E+00  1.00800000E+00  1.60000000E+01
  1.00800000E+00  1.00800000E+00  1.60000000E+01  1.00800000E+00  1.00800000E+00
  1.60000000E+01  1.00800000E+00  1.00800000E+00  1.60000000E+01  1.00800000E+00
  1.00800000E+00  1.60000000E+01  1.00800000E+00  1.00800000E+00  1.60000000E+01
  1.00800000E+00  1.00800000E+00  1.60000000E+01  1.00800000E+00  1.00800000E+00
  1.60000000E+01  1.00800000E+00  1.00800000E+00  1.60000000E+01  1.00800000E+00
  1.00800000E+00  1.60000000E+01  1.00800000E+00  1.00800000E+00  1.60000000E+01
  1.00800000E+00  1.00800000E+00  1.60000000E+01  1.00800000E+00  1.00800000E+00
  1.60000000E+01  1.00800000E+00  1.00800000E+00  1.60000000E+01  1.00800000E+00
  1.00800000E+00  1.60000000E+01  1.00800000E+00  1.00800000E+00  1.60000000E+01
  1.00800000E+00  1.00800000E+00  1.60000000E+01  1.00800000E+00  1.00800000E+00
  1.60000000E+01  1.00800000E+00  1.00800000E+00  1.60000000E+01  1.00800000E+00
  1.00800000E+00  1.60000000E+01  1.00800000E+00  1.00800000E+00  1.60000000E+01
  1.00800000E+00  1.00800000E+00  1.60000000E+01  1.00800000E+00  1.00800000E+00
  1.60000000E+01  1.00800000E+00  1.00800000E+00  1.60000000E+01  1.00800000E+00
  1.00800000E+00  1.60000000E+01  1.00800000E+00  1.00800000E+00  1.60000000E+01
  1.00800000E+00  1.00800000E+00  1.60000000E+01  1.00800000E+00  1.00800000E+00
  1.60000000E+01  1.00800000E+00  1.00800000E+00  1.60000000E+01  1.00800000E+00
  1.00800000E+00  1.60000000E+01  1.00800000E+00  1.00800000E+00  1.60000000E+01
  1.00800000E+00  1.00800000E+00  1.60000000E+01  1.00800000E+00  1.00800000E+00
  1.60000000E+01  1.00800000E+00  1.00800000E+00  1.60000000E+01  1.00800000E+00
  1.00800000E+00  1.60000000E+01  1.00800000E+00  1.00800000E+00  1.60000000E+01
  1.00800000E+00  1.00800000E+00  1.60000000E+01  1.00800000E+00  1.00800000E+00
  1.60000000E+01  1.00800000E+00  1.00800000E+00  1.60000000E+01  1.00800000E+00
  1.00800000E+00  1.60000000E+01  1.00800000E+00  1.00800000E+00  1.60000000E+01
  1.00800000E+00  1.00800000E+00  1.60000000E+01  1.00800000E+00  1.00800000E+00
  1.60000000E+01  1.00800000E+00  1.00800000E+00  1.60000000E+01  1.00800000E+00
  1.00800000E+00  1.60000000E+01  1.00800000E+00  1.00800000E+00  1.60000000E+01
  1.00800000E+00  1.00800000E+00  1.60000000E+01  1.00800000E+00  1.00800000E+00
  1.60000000E+01  1.00800000E+00  1.00800000E+00  1.60000000E+01  1.00800000E+00
  1.00800000E+00  1.60000000E+01  1.00800000E+00  1.00800000E+00  1.60000000E+01
  1.00800000E+00  1.00800000E+00  1.60000000E+01  1.00800000E+00  1.00800000E+00
  1.60000000E+01  1.00800000E+00  1.00800000E+00  1.60000000E+01  1.00800000E+00
  1.00800000E+00  1.60000000E+01  1.00800000E+00  1.00800000E+00  1.60000000E+01
  1.00800000E+00  1.00800000E+00  1.60000000E+01  1.00800000E+00  1.00800000E+00
  1.60000000E+01  1.00800000E+00  1.00800000E+00  1.60000000E+01  1.00800000E+00
  1.00800000E+00  1.60000000E+01  1.00800000E+00  1.00800000E+00  1.60000000E+01
  1.00800000E+00  1.00800000E+00  1.60000000E+01  1.00800000E+00  1.00800000E+00
  1.60000000E+01  1.00800000E+00  1.00800000E+00  1.60000000E+01  1.00800000E+00
  1.00800000E+00  1.60000000E+01  1.00800000E+00  1.00800000E+00  1.60000000E+01
  1.00800000E+00  1.00800000E+00  1.60000000E+01  1.00800000E+00  1.00800000E+00
  1.60000000E+01  1.00800000E+00  1.00800000E+00  1.60000000E+01  1.00800000E+00
  1.00800000E+00  1.60000000E+01  1.00800000E+00  1.00800000E+00  1.60000000E+01
  1.00800000E+00  1.00800000E+00  1.60000000E+01  1.00800000E+00  1.00800000E+00
  1.60000000E+01  1.00800000E+00  1.00800000E+00  1.60000000E+01  1.00800000E+00
  1.00800000E+00  1.60000000E+01  1.00800000E+00  1.00800000E+00  1.60000000E+01
  1.00800000E+00  1.00800000E+00  1.60000000E+01  1.00800000E+00  1.00800000E+00
  1.60000000E+01  1.00800000E+00  1.00800000E+00  1.60000000E+01  1.00800000E+00
  1.00800000E+00  1.60000000E+01  1.00800000E+00  1.00800000E+00  1.60000000E+01
  1.00800000E+00  1.00800000E+00  1.60000000E+01  1.00800000E+00  1.00800000E+00
  1.60000000E+01  1.00800000E+00  1.00800000E+00  1.60000000E+01  1.00800000E+00
  1.00800000E+00  1.60000000E+01  1.00800000E+00  1.00800000E+00  1.60000000E+01
  1.00800000E+00  1.00800000E+00  1.60000000E+01  1.00800000E+00  1.00800000E+00
  1.60000000E+01  1.00800000E+00  1.00800000E+00  1.60000000E+01  1.00800000E+00
  1.00800000E+00  1.60000000E+01  1.00800000E+00  1.00800000E+00  1.60000000E+01
  1.00800000E+00  1.00800000E+00  1.60000000E+01  1.00800000E+00  1.00800000E+00
  1.60000000E+01  1.00800000E+00  1.00800000E+00  1.60000000E+01  1.00800000E+00
  1.00800000E+00  1.60000000E+01  1.00800000E+00  1.00800000E+00  1.60000000E+01
  1.00800000E+00  1.00800000E+00  1.60000000E+01  1.00800000E+00  1.00800000E+00
  1.60000000E+01  1.00800000E+00  1.00800000E+00  1.60000000E+01  1.00800000E+00
  1.00800000E+00  1.60000000E+01  1.00800000E+00  1.00800000E+00  1.60000000E+01
  1.00800000E+00  1.00800000E+00  1.60000000E+01  1.00800000E+00  1.00800000E+00
  1.60000000E+01  1.00800000E+00  1.00800000E+00  1.60000000E+01  1.00800000E+00
  1.00800000E+00  1.60000000E+01  1.00800000E+00  1.00800000E+00  1.60000000E+01
  1.00800000E+00  1.00800000E+00  1.60000000E+01  1.00800000E+00  1.00800000E+00
  1.60000000E+01  1.00800000E+00  1.00800000E+00  1.60000000E+01  1.00800000E+00
  1.00800000E+00  1.60000000E+01  1.00800000E+00  1.00800000E+00  1.60000000E+01
  1.00800000E+00  1.00800000E+00  1.60000000E+01  1.00800000E+00  1.00800000E+00
  1.60000000E+01  1.00800000E+00  1.00800000E+00  1.60000000E+01  1.00800000E+00
  1.00800000E+00  1.60000000E+01  1.00800000E+00  1.00800000E+00  1.60000000E+01
  1.00800000E+00  1.00800000E+00  1.60000000E+01  1.00800000E+00  1.00800000E+00
  1.60000000E+01  1.00800000E+00  1.00800000E+00  1.60000000E+01  1.00800000E+00
  1.00800000E+00  1.60000000E+01  1.00800000E+00  1.00800000E+00  1.60000000E+01
  1.00800000E+00  1.00800000E+00  1.60000000E+01  1.00800000E+00  1.00800000E+00
  1.60000000E+01  1.00800000E+00  1.00800000E+00  1.60000000E+01  1.00800000E+00
  1.00800000E+00  1.60000000E+01  1.00800000E+00  1.00800000E+00  1.60000000E+01
  1.00800000E+00  1.00800000E+00  1.60000000E+01  1.00800000E+00  1.00800000E+00
  1.60000000E+01  1.00800000E+00  1.00800000E+00  1.60000000E+01  1.00800000E+00
  1.00800000E+00  1.60000000E+01  1.00800000E+00  1.00800000E+00  1.60000000E+01
  1.00800000E+00  1.00800000E+00  1.60000000E+01  1.00800000E+00  1.00800000E+00
  1.60000000E+01  1.00800000E+00  1.00800000E+00  1.60000000E+01  1.00800000E+00
  1.00800000E+00  1.60000000E+01  1.00800000E+00  1.00800000E+00  1.60000000E+01
  1.00800000E+00  1.00800000E+00  1.60000000E+01  1.00800000E+00  1.00800000E+00
  1.60000000E+01  1.00800000E+00  1.00800000E+00  1.60000000E+01  1.00800000E+00
  1.00800000E+00  1.60000000E+01  1.00800000E+00  1.00800000E+00  1.60000000E+01
  1.00800000E+00  1.00800000E+00  1.60000000E+01  1.00800000E+00  1.00800000E+00
  1.60000000E+01  1.00800000E+00  1.00800000E+00  1.60000000E+01  1.00800000E+00
  1.00800000E+00  1.60000000E+01  1.00800000E+00  1.00800000E+00  1.60000000E+01
  1.00800000E+00  1.00800000E+00  1.60000000E+01  1.00800000E+00  1.00800000E+00
  1.60000000E+01  1.00800000E+00  1.00800000E+00  1.60000000E+01  1.00800000E+00
  1.00800000E+00  1.60000000E+01  1.00800000E+00  1.00800000E+00  1.60000000E+01
  1.00800000E+00  1.00800000E+00  1.60000000E+01  1.00800000E+00  1.00800000E+00
  1.60000000E+01  1.00800000E+00  1.00800000E+00  1.60000000E+01  1.00800000E+00
  1.00800000E+00  1.60000000E+01  1.00800000E+00  1.00800000E+00  1.60000000E+01
  1.00800000E+00  1.00800000E+00  1.60000000E+01  1.00800000E+00  1.00800000E+00
  1.60000000E+01  1.00800000E+00  1.00800000E+00  1.60000000E+01  1.00800000E+00
  1.00800000E+00  1.60000000E+01  1.00800000E+00  1.00800000E+00  1.60000000E+01
  1.00800000E+00  1.00800000E+00  1.60000000E+01  1.00800000E+00  1.00800000E+00
  1.60000000E+01  1.00800000E+00  1.00800000E+00  1.60000000E+01  1.00800000E+00
  1.00800000E+00  1.60000000E+01  1.00800000E+00  1.00800000E+00  1.60000000E+01
  1.00800000E+00  1.00800000E+00  1.60000000E+01  1.00800000E+00  1.00800000E+00
  1.60000000E+01  1.00800000E+00  1.00800000E+00  1.60000000E+01  1.00800000E+00
  1.00800000E+00  1.60000000E+01  1.00800000E+00  1.00800000E+00  1.60000000E+01
  1.00800000E+00  1.00800000E+00  1.60000000E+01  1.00800000E+00  1.00800000E+00
  1.60000000E+01  1.00800000E+00  1.00800000E+00  1.60000000E+01  1.00800000E+00
  1.00800000E+00  1.60000000E+01  1.00800000E+00  1.00800000E+00  1.60000000E+01
  1.00800000E+00  1.00800000E+00  1.60000000E+01  1.00800000E+00  1.00800000E+00
  1.60000000E+01  1.00800000E+00  1.00800000E+00  1.60000000E+01  1.00800000E+00
  1.00800000E+00  1.60000000E+01  1.00800000E+00  1.00800000E+00  1.60000000E+01
  1.00800000E+00  1.00800000E+00  1.60000000E+01  1.00800000E+00  1.00800000E+00
  1.60000000E+01  1.00800000E+00  1.00800000E+00  1.60000000E+01  1.00800000E+00
  1.00800000E+00  1.60000000E+01  1.00800000E+00  1.00800000E+00  1.60000000E+01
  1.00800000E+00  1.00800000E+00  1.60000000E+01  1.00800000E+00  1.00800000E+00
  1.60000000E+01  1.00800000E+00  1.00800000E+00  1.60000000E+01  1.00800000E+00
  1.00800000E+00  1.60000000E+01  1.00800000E+00  1.00800000E+00  1.60000000E+01
  1.00800000E+00  1.00800000E+00  1.60000000E+01  1.00800000E+00  1.00800000E+00
  1.60000000E+01  1.00800000E+00  1.00800000E+00  1.60000000E+01  1.00800000E+00
  1.00800000E+00  1.60000000E+01  1.00800000E+00  1.00800000E+00  1.60000000E+01
  1.00800000E+00  1.00800000E+00  1.60000000E+01  1.00800000E+00  1.00800000E+00
  1.60000000E+01  1.00800000E+00  1.00800000E+00  1.60000000E+01  1.00800000E+00
  1.00800000E+00  1.60000000E+01  1.00800000E+00  1.00800000E+00  1.60000000E+01
  1.00800000E+00  1.00800000E+00  1.60000000E+01  1.00800000E+00  1.00800000E+00
  1.60000000E+01  1.00800000E+00  1.00800000E+00  1.60000000E+01  1.00800000E+00
  1.00800000E+00  1.60000000E+01  1.00800000E+00  1.00800000E+00  1.60000000E+01
  1.00800000E+00  1.00800000E+00  1.60000000E+01  1.00800000E+00  1.00800000E+00
  1.60000000E+01  1.00800000E+00  1.00800000E+00  1.60000000E+01  1.00800000E+00
  1.00800000E+00  1.60000000E+01  1.00800000E+00  1.00800000E+00  1.60000000E+01
  1.00800000E+00  1.00800000E+00  1.60000000E+01  1.00800000E+00  1.00800000E+00
  1.60000000E+01  1.00800000E+00  1.00800000E+00  1.60000000E+01  1.00800000E+00
  1.00800000E+00  1.60000000E+01  1.00800000E+00  1.00800000E+00  1.60000000E+01
  1.00800000E+00  1.00800000E+00  1.60000000E+01  1.00800000E+00  1.00800000E+00
  1.60000000E+01  1.00800000E+00  1.00800000E+00  1.60000000E+01  1.00800000E+00
  1.00800000E+00  1.60000000E+01  1.00800000E+00  1.00800000E+00  1.60000000E+01
  1.00800000E+00  1.00800000E+00  1.60000000E+01  1.00800000E+00  1.00800000E+00
  1.60000000E+01  1.00800000E+00  1.00800000E+00  1.60000000E+01  1.00800000E+00
  1.00800000E+00  1.60000000E+01  1.00800000E+00  1.00800000E+00  1.60000000E+01
  1.00800000E+00  1.00800000E+00  1.60000000E+01  1.00800000E+00  1.00800000E+00
  1.60000000E+01  1.00800000E+00  1.00800000E+00  1.60000000E+01  1.00800000E+00
  1.00800000E+00  1.60000000E+01  1.00800000E+00  1.00800000E+00  1.60000000E+01
  1.00800000E+00  1.00800000E+00  1.60000000E+01  1.00800000E+00  1.00800000E+00
  1.60000000E+01  1.00800000E+00  1.00800000E+00  1.60000000E+01  1.00800000E+00
  1.00800000E+00  1.60000000E+01  1.00800000E+00  1.00800000E+00  1.60000000E+01
  1.00800000E+00  1.00800000E+00  1.60000000E+01  1.00800000E+00  1.00800000E+00
  1.60000000E+01  1.00800000E+00  1.00800000E+00  1.60000000E+01  1.00800000E+00
  1.00800000E+00  1.60000000E+01  1.00800000E+00  1.00800000E+00  1.60000000E+01
  1.00800000E+00  1.00800000E+00  1.60000000E+01  1.00800000E+00  1.00800000E+00
  1.60000000E+01  1.00800000E+00  1.00800000E+00  1.60000000E+01  1.00800000E+00
  1.00800000E+00  1.60000000E+01  1.00800000E+00  1.00800000E+00  1.60000000E+01
  1.00800000E+00  1.00800000E+00  1.60000000E+01  1.00800000E+00  1.00800000E+00
  1.60000000E+01  1.00800000E+00  1.00800000E+00  1.60000000E+01  1.00800000E+00
  1.00800000E+00  1.60000000E+01  1.00800000E+00  1.00800000E+00  1.60000000E+01
  1.00800000E+00  1.00800000E+00  1.60000000E+01  1.00800000E+00  1.00800000E+00
  1.60000000E+01  1.00800000E+00  1.00800000E+00  1.60000000E+01  1.00800000E+00
  1.00800000E+00  1.60000000E+01  1.00800000E+00  1.00800000E+00  1.60000000E+01
  1.00800000E+00  1.00800000E+00  1.60000000E+01  1.00800000E+00  1.00800000E+00
  1.60000000E+01  1.00800000E+00  1.00800000E+00  1.60000000E+01  1.00800000E+00
  1.00800000E+00  1.60000000E+01  1.00800000E+00  1.00800000E+00  1.60000000E+01
  1.00800000E+00  1.00800000E+00  1.60000000E+01  1.00800000E+00  1.00800000E+00
  1.60000000E+01  1.00800000E+00  1.00800000E+00  1.60000000E+01  1.00800000E+00
  1.00800000E+00  1.60000000E+01  1.00800000E+00  1.00800000E+00  1.60000000E+01
  1.00800000E+00  1.00800000E+00  1.60000000E+01  1.00800000E+00  1.00800000E+00
  1.60000000E+01  1.00800000E+00  1.00800000E+00  1.60000000E+01  1.00800000E+00
  1.00800000E+00  1.60000000E+01  1.00800000E+00  1.00800000E+00  1.60000000E+01
  1.00800000E+00  1.00800000E+00  1.60000000E+01  1.00800000E+00  1.00800000E+00
  1.60000000E+01  1.00800000E+00  1.00800000E+00  1.60000000E+01  1.00800000E+00
  1.00800000E+00  1.60000000E+01  1.00800000E+00  1.00800000E+00  1.60000000E+01
  1.00800000E+00  1.00800000E+00  1.60000000E+01  1.00800000E+00  1.00800000E+00
  1.60000000E+01  1.00800000E+00  1.00800000E+00  1.60000000E+01  1.00800000E+00
  1.00800000E+00  1.60000000E+01  1.00800000E+00  1.00800000E+00  1.60000000E+01
  1.00800000E+00  1.00800000E+00  1.60000000E+01  1.00800000E+00  1.00800000E+00
  1.60000000E+01  1.00800000E+00  1.00800000E+00  1.60000000E+01  1.00800000E+00
  1.00800000E+00  1.60000000E+01  1.00800000E+00  1.00800000E+00  1.60000000E+01
  1.00800000E+00  1.00800000E+00  1.60000000E+01  1.00800000E+00  1.00800000E+00
  1.60000000E+01  1.00800000E+00  1.00800000E+00  1.60000000E+01  1.00800000E+00
  1.00800000E+00  1.60000000E+01  1.00800000E+00  1.00800000E+00  1.60000000E+01
  1.00800000E+00  1.00800000E+00  1.60000000E+01  1.00800000E+00  1.00800000E+00
  1.60000000E+01  1.00800000E+00  1.00800000E+00  1.60000000E+01  1.00800000E+00
  1.00800000E+00  1.60000000E+01  1.00800000E+00  1.00800000E+00  1.60000000E+01
  1.00800000E+00  1.00800000E+00  1.60000000E+01  1.00800000E+00  1.00800000E+00
  1.60000000E+01  1.00800000E+00  1.00800000E+00  1.60000000E+01  1.00800000E+00
  1.00800000E+00  1.60000000E+01  1.00800000E+00  1.00800000E+00  1.60000000E+01
  1.00800000E+00  1.00800000E+00  1.60000000E+01  1.00800000E+00  1.00800000E+00
  1.60000000E+01  1.00800000E+00  1.00800000E+00  1.60000000E+01  1.00800000E+00
  1.00800000E+00  1.60000000E+01  1.00800000E+00  1.00800000E+00  1.60000000E+01
  1.00800000E+00  1.00800000E+00  1.60000000E+01  1.00800000E+00  1.00800000E+00
  1.60000000E+01  1.00800000E+00  1.00800000E+00  1.60000000E+01  1.00800000E+00
  1.00800000E+00  1.60000000E+01  1.00800000E+00  1.00800000E+00  1.60000000E+01
  1.00800000E+00  1.00800000E+00  1.60000000E+01  1.00800000E+00  1.00800000E+00
  1.60000000E+01  1.00800000E+00  1.00800000E+00  1.60000000E+01  1.00800000E+00
  1.00800000E+00  1.60000000E+01  1.00800000E+00  1.00800000E+00  1.60000000E+01
  1.00800000E+00  1.00800000E+00  1.60000000E+01  1.00800000E+00  1.00800000E+00
  1.60000000E+01  1.00800000E+00  1.00800000E+00  1.60000000E+01  1.00800000E+00
  1.00800000E+00  1.60000000E+01  1.00800000E+00  1.00800000E+00  1.60000000E+01
  1.00800000E+00  1.00800000E+00  1.60000000E+01  1.00800000E+00  1.00800000E+00
  1.60000000E+01  1.00800000E+00  1.00800000E+00  1.60000000E+01  1.00800000E+00
  1.00800000E+00  1.60000000E+01  1.00800000E+00  1.00800000E+00  1.60000000E+01
  1.00800000E+00  1.00800000E+00  1.60000000E+01  1.00800000E+00  1.00800000E+00
  1.60000000E+01  1.00800000E+00  1.00800000E+00  1.60000000E+01  1.00800000E+00
  1.00800000E+00  1.60000000E+01  1.00800000E+00  1.00800000E+00  1.60000000E+01
  1.00800000E+00  1.00800000E+00  1.60000000E+01  1.00800000E+00  1.00800000E+00
  1.60000000E+01  1.00800000E+00  1.00800000E+00  1.60000000E+01  1.00800000E+00
  1.00800000E+00  1.60000000E+01  1.00800000E+00  1.00800000E+00  1.60000000E+01
  1.00800000E+00  1.00800000E+00  1.60000000E+01  1.00800000E+00  1.00800000E+00
  1.60000000E+01  1.00800000E+00  1.00800000E+00  1.60000000E+01  1.00800000E+00
  1.00800000E+00  1.60000000E+01  1.00800000E+00  1.00800000E+00  1.60000000E+01
  1.00800000E+00  1.00800000E+00  1.60000000E+01  1.00800000E+00  1.00800000E+00
  1.60000000E+01  1.00800000E+00  1.00800000E+00  1.60000000E+01  1.00800000E+00
  1.00800000E+00  1.60000000E+01  1.00800000E+00  1.00800000E+00  1.60000000E+01
  1.00800000E+00  1.00800000E+00  1.60000000E+01  1.00800000E+00  1.00800000E+00
  1.60000000E+01  1.00800000E+00  1.00800000E+00  1.60000000E+01  1.00800000E+00
  1.00800000E+00  1.60000000E+01  1.00800000E+00  1.00800000E+00  1.60000000E+01
  1.00800000E+00  1.00800000E+00  1.60000000E+01  1.00800000E+00  1.00800000E+00
  1.60000000E+01  1.00800000E+00  1.00800000E+00  1.60000000E+01  1.00800000E+00
  1.00800000E+00  1.60000000E+01  1.00800000E+00  1.00800000E+00  1.60000000E+01
  1.00800000E+00  1.00800000E+00  1.60000000E+01  1.00800000E+00  1.00800000E+00
  1.60000000E+01  1.00800000E+00  1.00800000E+00  1.60000000E+01  1.00800000E+00
  1.00800000E+00  1.60000000E+01  1.00800000E+00  1.00800000E+00  1.60000000E+01
  1.00800000E+00  1.00800000E+00  1.60000000E+01  1.00800000E+00  1.00800000E+00
  1.60000000E+01  1.00800000E+00  1.00800000E+00  1.60000000E+01  1.00800000E+00
  1.00800000E+00  1.60000000E+01  1.00800000E+00  1.00800000E+00  1.60000000E+01
  1.00800000E+00  1.00800000E+00  1.60000000E+01  1.00800000E+00  1.00800000E+00
  1.60000000E+01  1.00800000E+00  1.00800000E+00  1.60000000E+01  1.00800000E+00
  1.00800000E+00  1.60000000E+01  1.00800000E+00  1.00800000E+00  1.60000000E+01
  1.00800000E+00  1.00800000E+00  1.60000000E+01  1.00800000E+00  1.00800000E+00
  1.60000000E+01  1.00800000E+00  1.00800000E+00  1.60000000E+01  1.00800000E+00
  1.00800000E+00  1.60000000E+01  1.00800000E+00  1.00800000E+00  1.60000000E+01
  1.00800000E+00  1.00800000E+00  1.60000000E+01  1.00800000E+00  1.00800000E+00
  1.60000000E+01  1.00800000E+00  1.00800000E+00  1.60000000E+01  1.00800000E+00
  1.00800000E+00  1.60000000E+01  1.00800000E+00  1.00800000E+00  1.60000000E+01
  1.00800000E+00  1.00800000E+00  1.60000000E+01  1.00800000E+00  1.00800000E+00
  1.60000000E+01  1.00800000E+00  1.00800000E+00  1.60000000E+01  1.00800000E+00
  1.00800000E+00  1.60000000E+01  1.00800000E+00  1.00800000E+00  1.60000000E+01
  1.00800000E+00  1.00800000E+00  1.60000000E+01  1.00800000E+00  1.00800000E+00
  1.60000000E+01  1.00800000E+00  1.00800000E+00  1.60000000E+01  1.00800000E+00
  1.00800000E+00  1.60000000E+01  1.00800000E+00  1.00800000E+00  1.60000000E+01
  1.00800000E+00  1.00800000E+00  1.60000000E+01  1.00800000E+00  1.00800000E+00
  1.60000000E+01  1.00800000E+00  1.00800000E+00  1.60000000E+01  1.00800000E+00
  1.00800000E+00  1.60000000E+01  1.00800000E+00  1.00800000E+00  1.60000000E+01
  1.00800000E+00  1.00800000E+00  1.60000000E+01  1.00800000E+00  1.00800000E+00
  1.60000000E+01  1.00800000E+00  1.00800000E+00  1.60000000E+01  1.00800000E+00
  1.00800000E+00  1.60000000E+01  1.00800000E+00  1.00800000E+00  1.60000000E+01
  1.00800000E+00  1.00800000E+00  1.60000000E+01  1.00800000E+00  1.00800000E+00
  1.60000000E+01  1.00800000E+00  1.00800000E+00  1.60000000E+01  1.00800000E+00
  1.00800000E+00  1.60000000E+01  1.00800000E+00  1.00800000E+00  1.60000000E+01
  1.00800000E+00  1.00800000E+00  1.60000000E+01  1.00800000E+00  1.00800000E+00
  1.60000000E+01  1.00800000E+00  1.00800000E+00  1.60000000E+01  1.00800000E+00
  1.00800000E+00  1.60000000E+01  1.00800000E+00  1.00800000E+00  1.60000000E+01
  1.00800000E+00  1.00800000E+00  1.60000000E+01  1.00800000E+00  1.00800000E+00
  1.60000000E+01  1.00800000E+00  1.00800000E+00  1.60000000E+01  1.00800000E+00
  1.00800000E+00  1.60000000E+01  1.00800000E+00  1.00800000E+00  1.60000000E+01
  1.00800000E+00  1.00800000E+00  1.60000000E+01  1.00800000E+00  1.00800000E+00
  1.60000000E+01  1.00800000E+00  1.00800000E+00  1.60000000E+01  1.00800000E+00
  1.00800000E+00  1.60000000E+01  1.00800000E+00  1.00800000E+00  1.60000000E+01
  1.00800000E+00  1.00800000E+00  1.60000000E+01  1.00800000E+00  1.00800000E+00
  1.60000000E+01  1.00800000E+00  1.00800000E+00  1.60000000E+01  1.00800000E+00
  1.00800000E+00  1.60000000E+01  1.00800000E+00  1.00800000E+00  1.60000000E+01
  1.00800000E+00  1.00800000E+00  1.60000000E+01  1.00800000E+00  1.00800000E+00
  1.60000000E+01  1.00800000E+00  1.00800000E+00  1.60000000E+01  1.00800000E+00
  1.00800000E+00  1.60000000E+01  1.00800000E+00  1.00800000E+00  1.60000000E+01
  1.00800000E+00  1.00800000E+00  1.60000000E+01  1.00800000E+00  1.00800000E+00
  1.60000000E+01  1.00800000E+00  1.00800000E+00  1.60000000E+01  1.00800000E+00
  1.00800000E+00  1.60000000E+01  1.00800000E+00  1.00800000E+00  1.60000000E+01
  1.00800000E+00  1.00800000E+00  1.60000000E+01  1.00800000E+00  1.00800000E+00
  1.60000000E+01  1.00800000E+00  1.00800000E+00  1.60000000E+01  1.00800000E+00
  1.00800000E+00  1.60000000E+01  1.00800000E+00  1.00800000E+00  1.60000000E+01
  1.00800000E+00  1.00800000E+00  1.60000000E+01  1.00800000E+00  1.00800000E+00
  1.60000000E+01  1.00800000E+00  1.00800000E+00  1.60000000E+01  1.00800000E+00
  1.00800000E+00  1.60000000E+01  1.00800000E+00  1.00800000E+00  1.60000000E+01
  1.00800000E+00  1.00800000E+00  1.60000000E+01  1.00800000E+00  1.00800000E+00
  1.60000000E+01  1.00800000E+00  1.00800000E+00  1.60000000E+01  1.00800000E+00
  1.00800000E+00  1.60000000E+01  1.00800000E+00  1.00800000E+00  1.60000000E+01
  1.00800000E+00  1.00800000E+00  1.60000000E+01  1.00800000E+00  1.00800000E+00
  1.60000000E+01  1.00800000E+00  1.00800000E+00  1.60000000E+01  1.00800000E+00
  1.00800000E+00  1.60000000E+01  1.00800000E+00  1.00800000E+00  1.60000000E+01
  1.00800000E+00  1.00800000E+00  1.60000000E+01  1.00800000E+00  1.00800000E+00
  1.60000000E+01  1.00800000E+00  1.00800000E+00  1.60000000E+01  1.00800000E+00
  1.00800000E+00  1.60000000E+01  1.00800000E+00  1.00800000E+00  1.60000000E+01
  1.00800000E+00  1.00800000E+00  1.60000000E+01  1.00800000E+00  1.00800000E+00
  1.60000000E+01  1.00800000E+00  1.00800000E+00  1.60000000E+01  1.00800000E+00
  1.00800000E+00  1.60000000E+01  1.00800000E+00  1.00800000E+00  1.60000000E+01
  1.00800000E+00  1.00800000E+00  1.60000000E+01  1.00800000E+00  1.00800000E+00
  1.60000000E+01  1.00800000E+00  1.00800000E+00  1.60000000E+01  1.00800000E+00
  1.00800000E+00  1.60000000E+01  1.00800000E+00  1.00800000E+00  1.60000000E+01
  1.00800000E+00  1.00800000E+00  1.60000000E+01  1.00800000E+00  1.00800000E+00
  1.60000000E+01  1.00800000E+00  1.00800000E+00  1.60000000E+01  1.00800000E+00
  1.00800000E+00  1.60000000E+01  1.00800000E+00  1.00800000E+00  1.60000000E+01
  1.00800000E+00  1.00800000E+00  1.60000000E+01  1.00800000E+00  1.00800000E+00
  1.60000000E+01  1.00800000E+00  1.00800000E+00  1.60000000E+01  1.00800000E+00
  1.00800000E+00  1.60000000E+01  1.00800000E+00  1.00800000E+00  1.60000000E+01
  1.00800000E+00  1.00800000E+00  1.60000000E+01  1.00800000E+00  1.00800000E+00
  1.60000000E+01  1.00800000E+00  1.00800000E+00  1.60000000E+01  1.00800000E+00
  1.00800000E+00  1.60000000E+01  1.00800000E+00  1.00800000E+00  1.60000000E+01
  1.00800000E+00  1.00800000E+00  1.60000000E+01  1.00800000E+00  1.00800000E+00
  1.60000000E+01  1.00800000E+00  1.00800000E+00  1.60000000E+01  1.00800000E+00
  1.00800000E+00  1.60000000E+01  1.00800000E+00  1.00800000E+00  1.60000000E+01
  1.00800000E+00  1.00800000E+00  1.60000000E+01  1.00800000E+00  1.00800000E+00
  1.60000000E+01  1.00800000E+00  1.00800000E+00  1.60000000E+01  1.00800000E+00
  1.00800000E+00  1.60000000E+01  1.00800000E+00  1.00800000E+00  1.60000000E+01
  1.00800000E+00  1.00800000E+00  1.60000000E+01  1.00800000E+00  1.00800000E+00
  1.60000000E+01  1.00800000E+00  1.00800000E+00  1.60000000E+01  1.00800000E+00
  1.00800000E+00  1.60000000E+01  1.00800000E+00  1.00800000E+00  1.60000000E+01
  1.00800000E+00  1.00800000E+00  1.60000000E+01  1.00800000E+00  1.00800000E+00
  1.60000000E+01  1.00800000E+00  1.00800000E+00  1.60000000E+01  1.00800000E+00
  1.00800000E+00  1.60000000E+01  1.00800000E+00  1.00800000E+00  1.60000000E+01
  1.00800000E+00  1.00800000E+00  1.60000000E+01  1.00800000E+00  1.00800000E+00
  1.60000000E+01  1.00800000E+00  1.00800000E+00  1.60000000E+01  1.00800000E+00
  1.00800000E+00  1.60000000E+01  1.00800000E+00  1.00800000E+00  1.60000000E+01
  1.00800000E+00  1.00800000E+00  1.60000000E+01  1.00800000E+00  1.00800000E+00
  1.60000000E+01  1.00800000E+00  1.00800000E+00  1.60000000E+01  1.00800000E+00
  1.00800000E+00  1.60000000E+01  1.00800000E+00  1.00800000E+00  1.60000000E+01
  1.00800000E+00  1.00800000E+00  1.60000000E+01  1.00800000E+00  1.00800000E+00
  1.60000000E+01  1.00800000E+00  1.00800000E+00  1.60000000E+01  1.00800000E+00
  1.00800000E+00  1.60000000E+01  1.00800000E+00  1.00800000E+00  1.60000000E+01
  1.00800000E+00  1.00800000E+00  1.60000000E+01  1.00800000E+00  1.00800000E+00
  1.60000000E+01  1.00800000E+00  1.00800000E+00  1.60000000E+01  1.00800000E+00
  1.00800000E+00  1.60000000E+01  1.00800000E+00  1.00800000E+00  1.60000000E+01
  1.00800000E+00  1.00800000E+00  1.60000000E+01  1.00800000E+00  1.00800000E+00
  1.60000000E+01  1.00800000E+00  1.00800000E+00  1.60000000E+01  1.00800000E+00
  1.00800000E+00  1.60000000E+01  1.00800000E+00  1.00800000E+00  1.60000000E+01
  1.00800000E+00  1.00800000E+00  1.60000000E+01  1.00800000E+00  1.00800000E+00
  1.60000000E+01  1.00800000E+00  1.00800000E+00  1.60000000E+01  1.00800000E+00
  1.00800000E+00  1.60000000E+01  1.00800000E+00  1.00800000E+00  1.60000000E+01
  1.00800000E+00  1.00800000E+00  1.60000000E+01  1.00800000E+00  1.00800000E+00
  1.60000000E+01  1.00800000E+00  1.00800000E+00  1.60000000E+01  1.00800000E+00
  1.00800000E+00  1.60000000E+01  1.00800000E+00  1.00800000E+00  1.60000000E+01
  1.00800000E+00  1.00800000E+00  1.60000000E+01  1.00800000E+00  1.00800000E+00
  1.60000000E+01  1.00800000E+00  1.00800000E+00  1.60000000E+01  1.00800000E+00
  1.00800000E+00  1.60000000E+01  1.00800000E+00  1.00800000E+00  1.60000000E+01
  1.00800000E+00  1.00800000E+00  1.60000000E+01  1.00800000E+00  1.00800000E+00
  1.60000000E+01  1.00800000E+00  1.00800000E+00  1.60000000E+01  1.00800000E+00
  1.00800000E+00  1.60000000E+01  1.00800000E+00  1.00800000E+00  1.60000000E+01
  1.00800000E+00  1.00800000E+00  1.60000000E+01  1.00800000E+00  1.00800000E+00
  1.60000000E+01  1.00800000E+00  1.00800000E+00  1.60000000E+01  1.00800000E+00
  1.00800000E+00  1.60000000E+01  1.00800000E+00  1.00800000E+00  1.60000000E+01
  1.00800000E+00  1.00800000E+00  1.60000000E+01  1.00800000E+00  1.00800000E+00
  1.60000000E+01  1.00800000E+00  1.00800000E+00  1.60000000E+01  1.00800000E+00
  1.00800000E+00  1.60000000E+01  1.00800000E+00  1.00800000E+00  1.60000000E+01
  1.00800000E+00  1.00800000E+00  1.60000000E+01  1.00800000E+00  1.00800000E+00
  1.60000000E+01  1.00800000E+00  1.00800000E+00  1.60000000E+01  1.00800000E+00
  1.00800000E+00  1.60000000E+01  1.00800000E+00  1.00800000E+00  1.60000000E+01
  1.00800000E+00  1.00800000E+00  1.60000000E+01  1.00800000E+00  1.00800000E+00
  1.60000000E+01  1.00800000E+00  1.00800000E+00  1.60000000E+01  1.00800000E+00
  1.00800000E+00  1.60000000E+01  1.00800000E+00  1.00800000E+00  1.60000000E+01
  1.00800000E+00  1.00800000E+00  1.60000000E+01  1.00800000E+00  1.00800000E+00
  1.60000000E+01  1.00800000E+00  1.00800000E+00  1.60000000E+01  1.00800000E+00
  1.00800000E+00  1.60000000E+01  1.00800000E+00  1.00800000E+00  1.60000000E+01
  1.00800000E+00  1.00800000E+00  1.60000000E+01  1.00800000E+00  1.00800000E+00
  1.60000000E+01  1.00800000E+00  1.00800000E+00  1.60000000E+01  1.00800000E+00
  1.00800000E+00  1.60000000E+01  1.00800000E+00  1.00800000E+00  1.60000000E+01
  1.00800000E+00  1.00800000E+00  1.60000000E+01  1.00800000E+00  1.00800000E+00
  1.60000000E+01  1.00800000E+00  1.00800000E+00  1.60000000E+01  1.00800000E+00
  1.00800000E+00  1.60000000E+01  1.00800000E+00  1.00800000E+00  1.60000000E+01
  1.00800000E+00  1.00800000E+00  1.60000000E+01  1.00800000E+00  1.00800000E+00
  1.60000000E+01  1.00800000E+00  1.00800000E+00  1.60000000E+01  1.00800000E+00
  1.00800000E+00  1.60000000E+01  1.00800000E+00  1.00800000E+00  1.60000000E+01
  1.00800000E+00  1.00800000E+00  1.60000000E+01  1.00800000E+00  1.00800000E+00
  1.60000000E+01  1.00800000E+00  1.00800000E+00  1.60000000E+01  1.00800000E+00
  1.00800000E+00  1.60000000E+01  1.00800000E+00  1.00800000E+00  1.60000000E+01
  1.00800000E+00  1.00800000E+00  1.60000000E+01  1.00800000E+00  1.00800000E+00
  1.60000000E+01  1.00800000E+00  1.00800000E+00  1.60000000E+01  1.00800000E+00
  1.00800000E+00  1.60000000E+01  1.00800000E+00  1.00800000E+00  1.60000000E+01
  1.00800000E+00  1.00800000E+00  1.60000000E+01  1.00800000E+00  1.00800000E+00
  1.60000000E+01  1.00800000E+00  1.00800000E+00  1.60000000E+01  1.00800000E+00
  1.00800000E+00  1.60000000E+01  1.00800000E+00  1.00800000E+00  1.60000000E+01
  1.00800000E+00  1.00800000E+00  1.60000000E+01  1.00800000E+00  1.00800000E+00
  1.60000000E+01  1.00800000E+00  1.00800000E+00  1.60000000E+01  1.00800000E+00
  1.00800000E+00  1.60000000E+01  1.00800000E+00  1.00800000E+00  1.60000000E+01
  1.00800000E+00  1.00800000E+00  1.60000000E+01  1.00800000E+00  1.00800000E+00
  1.60000000E+01  1.00800000E+00  1.00800000E+00  1.60000000E+01  1.00800000E+00
  1.00800000E+00  1.60000000E+01  1.00800000E+00  1.00800000E+00  1.60000000E+01
  1.00800000E+00  1.00800000E+00  1.60000000E+01  1.00800000E+00  1.00800000E+00
  1.60000000E+01  1.00800000E+00  1.00800000E+00  1.60000000E+01  1.00800000E+00
  1.00800000E+00  1.60000000E+01  1.00800000E+00  1.00800000E+00  1.60000000E+01
  1.00800000E+00  1.00800000E+00  1.60000000E+01  1.00800000E+00  1.00800000E+00
  1.60000000E+01  1.00800000E+00  1.00800000E+00  1.60000000E+01  1.00800000E+00
  1.00800000E+00  1.60000000E+01  1.00800000E+00  1.00800000E+00  1.60000000E+01
  1.00800000E+00  1.00800000E+00  1.60000000E+01  1.00800000E+00  1.00800000E+00
  1.60000000E+01  1.00800000E+00  1.00800000E+00  1.60000000E+01  1.00800000E+00
  1.00800000E+00  1.60000000E+01  1.00800000E+00  1.00800000E+00  1.60000000E+01
  1.00800000E+00  1.00800000E+00  1.60000000E+01  1.00800000E+00  1.00800000E+00
  1.60000000E+01  1.00800000E+00  1.00800000E+00  1.60000000E+01  1.00800000E+00
  1.00800000E+00  1.60000000E+01  1.00800000E+00  1.00800000E+00  1.60000000E+01
  1.00800000E+00  1.00800000E+00  1.60000000E+01  1.00800000E+00  1.00800000E+00
  1.60000000E+01  1.00800000E+00  1.00800000E+00  1.60000000E+01  1.00800000E+00
  1.00800000E+00  1.60000000E+01  1.00800000E+00  1.00800000E+00  1.60000000E+01
  1.00800000E+00  1.00800000E+00  1.60000000E+01  1.00800000E+00  1.00800000E+00
  1.60000000E+01  1.00800000E+00  1.00800000E+00  1.60000000E+01  1.00800000E+00
  1.00800000E+00  1.60000000E+01  1.00800000E+00  1.00800000E+00  1.60000000E+01
  1.00800000E+00  1.00800000E+00  1.60000000E+01  1.00800000E+00  1.00800000E+00
  1.60000000E+01  1.00800000E+00  1.00800000E+00  1.60000000E+01  1.00800000E+00
  1.00800000E+00  1.60000000E+01  1.00800000E+00  1.00800000E+00  1.60000000E+01
  1.00800000E+00  1.00800000E+00  1.60000000E+01  1.00800000E+00  1.00800000E+00
  1.60000000E+01  1.00800000E+00  1.00800000E+00  1.60000000E+01  1.00800000E+00
  1.00800000E+00  1.60000000E+01  1.00800000E+00  1.00800000E+00  1.60000000E+01
  1.00800000E+00  1.00800000E+00  1.60000000E+01  1.00800000E+00  1.00800000E+00
  1.60000000E+01  1.00800000E+00  1.00800000E+00  1.60000000E+01  1.00800000E+00
  1.00800000E+00  1.60000000E+01  1.00800000E+00  1.00800000E+00  1.60000000E+01
  1.00800000E+00  1.00800000E+00  1.60000000E+01  1.00800000E+00  1.00800000E+00
  1.60000000E+01  1.00800000E+00  1.00800000E+00  1.60000000E+01  1.00800000E+00
  1.00800000E+00  1.60000000E+01  1.00800000E+00  1.00800000E+00  1.60000000E+01
  1.00800000E+00  1.00800000E+00  1.60000000E+01  1.00800000E+00  1.00800000E+00
  1.60000000E+01  1.00800000E+00  1.00800000E+00  1.60000000E+01  1.00800000E+00
  1.00800000E+00  1.60000000E+01  1.00800000E+00  1.00800000E+00  1.60000000E+01
  1.00800000E+00  1.00800000E+00  1.60000000E+01  1.00800000E+00  1.00800000E+00
  1.60000000E+01  1.00800000E+00  1.00800000E+00  1.60000000E+01  1.00800000E+00
  1.00800000E+00  1.60000000E+01  1.00800000E+00  1.00800000E+00  1.60000000E+01
  1.00800000E+00  1.00800000E+00  1.60000000E+01  1.00800000E+00  1.00800000E+00
  1.60000000E+01  1.00800000E+00  1.00800000E+00  1.60000000E+01  1.00800000E+00
  1.00800000E+00  1.60000000E+01  1.00800000E+00  1.00800000E+00  1.60000000E+01
  1.00800000E+00  1.00800000E+00  1.60000000E+01  1.00800000E+00  1.00800000E+00
  1.60000000E+01  1.00800000E+00  1.00800000E+00  1.60000000E+01  1.00800000E+00
  1.00800000E+00  1.60000000E+01  1.00800000E+00  1.00800000E+00  1.60000000E+01
  1.00800000E+00  1.00800000E+00  1.60000000E+01  1.00800000E+00  1.00800000E+00
  1.60000000E+01  1.00800000E+00  1.00800000E+00  1.60000000E+01  1.00800000E+00
  1.00800000E+00  1.60000000E+01  1.00800000E+00  1.00800000E+00  1.60000000E+01
  1.00800000E+00  1.00800000E+00  1.60000000E+01  1.00800000E+00  1.00800000E+00
  1.60000000E+01  1.00800000E+00  1.00800000E+00  1.60000000E+01  1.00800000E+00
  1.00800000E+00  1.60000000E+01  1.00800000E+00  1.00800000E+00  1.60000000E+01
  1.00800000E+00  1.00800000E+00  1.60000000E+01  1.00800000E+00  1.00800000E+00
  1.60000000E+01  1.00800000E+00  1.00800000E+00  1.60000000E+01  1.00800000E+00
  1.00800000E+00  1.60000000E+01  1.00800000E+00  1.00800000E+00  1.60000000E+01
  1.00800000E+00  1.00800000E+00  1.60000000E+01  1.00800000E+00  1.00800000E+00
  1.60000000E+01  1.00800000E+00  1.00800000E+00  1.60000000E+01  1.00800000E+00
  1.00800000E+00  1.60000000E+01  1.00800000E+00  1.00800000E+00  1.60000000E+01
  1.00800000E+00  1.00800000E+00  1.60000000E+01  1.00800000E+00  1.00800000E+00
  1.60000000E+01  1.00800000E+00  1.00800000E+00  1.60000000E+01  1.00800000E+00
  1.00800000E+00  1.60000000E+01  1.00800000E+00  1.00800000E+00  1.60000000E+01
  1.00800000E+00  1.00800000E+00  1.60000000E+01  1.00800000E+00  1.00800000E+00
  1.60000000E+01  1.00800000E+00  1.00800000E+00  1.60000000E+01  1.00800000E+00
  1.00800000E+00  1.60000000E+01  1.00800000E+00  1.00800000E+00  1.60000000E+01
  1.00800000E+00  1.00800000E+00  1.60000000E+01  1.00800000E+00  1.00800000E+00
  1.60000000E+01  1.00800000E+00  1.00800000E+00  1.60000000E+01  1.00800000E+00
  1.00800000E+00  1.60000000E+01  1.00800000E+00  1.00800000E+00  1.60000000E+01
  1.00800000E+00  1.00800000E+00  1.60000000E+01  1.00800000E+00  1.00800000E+00
  1.60000000E+01  1.00800000E+00  1.00800000E+00  1.60000000E+01  1.00800000E+00
  1.00800000E+00  1.60000000E+01  1.00800000E+00  1.00800000E+00  1.60000000E+01
  1.00800000E+00  1.00800000E+00  1.60000000E+01  1.00800000E+00  1.00800000E+00
  1.60000000E+01  1.00800000E+00  1.00800000E+00  1.60000000E+01  1.00800000E+00
  1.00800000E+00  1.60000000E+01  1.00800000E+00  1.00800000E+00  1.60000000E+01
  1.00800000E+00  1.00800000E+00  1.60000000E+01  1.00800000E+00  1.00800000E+00
  1.60000000E+01  1.00800000E+00  1.00800000E+00  1.60000000E+01  1.00800000E+00
  1.00800000E+00  1.60000000E+01  1.00800000E+00  1.00800000E+00  1.60000000E+01
  1.00800000E+00  1.00800000E+00  1.60000000E+01  1.00800000E+00  1.00800000E+00
  1.60000000E+01  1.00800000E+00  1.00800000E+00  1.60000000E+01  1.00800000E+00
  1.00800000E+00  1.60000000E+01  1.00800000E+00  1.00800000E+00  1.60000000E+01
  1.00800000E+00  1.00800000E+00  1.60000000E+01  1.00800000E+00  1.00800000E+00
  1.60000000E+01  1.00800000E+00  1.00800000E+00  1.60000000E+01  1.00800000E+00
  1.00800000E+00  1.60000000E+01  1.00800000E+00  1.00800000E+00  1.60000000E+01
  1.00800000E+00  1.00800000E+00  1.60000000E+01  1.00800000E+00  1.00800000E+00
  1.60000000E+01  1.00800000E+00  1.00800000E+00  1.60000000E+01  1.00800000E+00
  1.00800000E+00  1.60000000E+01  1.00800000E+00  1.00800000E+00  1.60000000E+01
  1.00800000E+00  1.00800000E+00  1.60000000E+01  1.00800000E+00  1.00800000E+00
  1.60000000E+01  1.00800000E+00  1.00800000E+00  1.60000000E+01  1.00800000E+00
  1.00800000E+00  1.60000000E+01  1.00800000E+00  1.00800000E+00  1.60000000E+01
  1.00800000E+00  1.00800000E+00  1.60000000E+01  1.00800000E+00  1.00800000E+00
  1.60000000E+01  1.00800000E+00  1.00800000E+00  1.60000000E+01  1.00800000E+00
  1.00800000E+00  1.60000000E+01  1.00800000E+00  1.00800000E+00  1.60000000E+01
  1.00800000E+00  1.00800000E+00  1.60000000E+01  1.00800000E+00  1.00800000E+00
  1.60000000E+01  1.00800000E+00  1.00800000E+00  1.60000000E+01  1.00800000E+00
  1.00800000E+00  1.60000000E+01  1.00800000E+00  1.00800000E+00  1.60000000E+01
  1.00800000E+00  1.00800000E+00  1.60000000E+01  1.00800000E+00  1.00800000E+00
  1.60000000E+01  1.00800000E+00  1.00800000E+00  1.60000000E+01  1.00800000E+00
  1.00800000E+00  1.60000000E+01  1.00800000E+00  1.00800000E+00  1.60000000E+01
  1.00800000E+00  1.00800000E+00  1.60000000E+01  1.00800000E+00  1.00800000E+00
  1.60000000E+01  1.00800000E+00  1.00800000E+00  1.60000000E+01  1.00800000E+00
  1.00800000E+00  1.60000000E+01  1.00800000E+00  1.00800000E+00  1.60000000E+01
  1.00800000E+00  1.00800000E+00  1.60000000E+01  1.00800000E+00  1.00800000E+00
  1.60000000E+01  1.00800000E+00  1.00800000E+00  1.60000000E+01  1.00800000E+00
  1.00800000E+00  1.60000000E+01  1.00800000E+00  1.00800000E+00  1.60000000E+01
  1.00800000E+00  1.00800000E+00  1.60000000E+01  1.00800000E+00  1.00800000E+00
  1.60000000E+01  1.00800000E+00  1.00800000E+00  1.60000000E+01  1.00800000E+00
  1.00800000E+00  1.60000000E+01  1.00800000E+00  1.00800000E+00  1.60000000E+01
  1.00800000E+00  1.00800000E+00  1.60000000E+01  1.00800000E+00  1.00800000E+00
  1.60000000E+01  1.00800000E+00  1.00800000E+00  1.60000000E+01  1.00800000E+00
  1.00800000E+00  1.60000000E+01  1.00800000E+00  1.00800000E+00  1.60000000E+01
  1.00800000E+00  1.00800000E+00  1.60000000E+01  1.00800000E+00  1.00800000E+00
  1.60000000E+01  1.00800000E+00  1.00800000E+00  1.60000000E+01  1.00800000E+00
  1.00800000E+00  1.60000000E+01  1.00800000E+00  1.00800000E+00  1.60000000E+01
  1.00800000E+00  1.00800000E+00  1.60000000E+01  1.00800000E+00  1.00800000E+00
  1.60000000E+01  1.00800000E+00  1.00800000E+00  1.60000000E+01  1.00800000E+00
  1.00800000E+00  1.60000000E+01  1.00800000E+00  1.00800000E+00  1.60000000E+01
  1.00800000E+00  1.00800000E+00  1.60000000E+01  1.00800000E+00  1.00800000E+00
  1.60000000E+01  1.00800000E+00  1.00800000E+00  1.60000000E+01  1.00800000E+00
  1.00800000E+00  1.60000000E+01  1.00800000E+00  1.00800000E+00  1.60000000E+01
  1.00800000E+00  1.00800000E+00  1.60000000E+01  1.00800000E+00  1.00800000E+00
  1.60000000E+01  1.00800000E+00  1.00800000E+00  1.60000000E+01  1.00800000E+00
  1.00800000E+00  1.60000000E+01  1.00800000E+00  1.00800000E+00  1.60000000E+01
  1.00800000E+00  1.00800000E+00  1.60000000E+01  1.00800000E+00  1.00800000E+00
  1.60000000E+01  1.00800000E+00  1.00800000E+00  1.60000000E+01  1.00800000E+00
  1.00800000E+00  1.60000000E+01  1.00800000E+00  1.00800000E+00  1.60000000E+01
  1.00800000E+00  1.00800000E+00  1.60000000E+01  1.00800000E+00  1.00800000E+00
  1.60000000E+01  1.00800000E+00  1.00800000E+00  1.60000000E+01  1.00800000E+00
  1.00800000E+00  1.60000000E+01  1.00800000E+00  1.00800000E+00  1.60000000E+01
  1.00800000E+00  1.00800000E+00  1.60000000E+01  1.00800000E+00  1.00800000E+00
  1.60000000E+01  1.00800000E+00  1.00800000E+00  1.60000000E+01  1.00800000E+00
  1.00800000E+00  1.60000000E+01  1.00800000E+00  1.00800000E+00  1.60000000E+01
  1.00800000E+00  1.00800000E+00  1.60000000E+01  1.00800000E+00  1.00800000E+00
  1.60000000E+01  1.00800000E+00  1.00800000E+00  1.60000000E+01  1.00800000E+00
  1.00800000E+00  1.60000000E+01  1.00800000E+00  1.00800000E+00  1.60000000E+01
  1.00800000E+00  1.00800000E+00  1.60000000E+01  1.00800000E+00  1.00800000E+00
  1.60000000E+01  1.00800000E+00  1.00800000E+00  1.60000000E+01  1.00800000E+00
  1.00800000E+00  1.60000000E+01  1.00800000E+00  1.00800000E+00  1.60000000E+01
  1.00800000E+00  1.00800000E+00  1.60000000E+01  1.00800000E+00  1.00800000E+00
  1.60000000E+01  1.00800000E+00  1.00800000E+00  1.60000000E+01  1.00800000E+00
  1.00800000E+00  1.60000000E+01  1.00800000E+00  1.00800000E+00  1.60000000E+01
  1.00800000E+00  1.00800000E+00  1.60000000E+01  1.00800000E+00  1.00800000E+00
  1.60000000E+01  1.00800000E+00  1.00800000E+00  1.60000000E+01  1.00800000E+00
  1.00800000E+00  1.60000000E+01  1.00800000E+00  1.00800000E+00  1.60000000E+01
  1.00800000E+00  1.00800000E+00  1.60000000E+01  1.00800000E+00  1.00800000E+00
  1.60000000E+01  1.00800000E+00  1.00800000E+00  1.60000000E+01  1.00800000E+00
  1.00800000E+00  1.60000000E+01  1.00800000E+00  1.00800000E+00  1.60000000E+01
  1.00800000E+00  1.00800000E+00  1.60000000E+01  1.00800000E+00  1.00800000E+00
  1.60000000E+01  1.00800000E+00  1.00800000E+00  1.60000000E+01  1.00800000E+00
  1.00800000E+00  1.60000000E+01  1.00800000E+00  1.00800000E+00  1.60000000E+01
  1.00800000E+00  1.00800000E+00  1.60000000E+01  1.00800000E+00  1.00800000E+00
  1.60000000E+01  1.00800000E+00  1.00800000E+00  1.60000000E+01  1.00800000E+00
  1.00800000E+00  1.60000000E+01  1.00800000E+00  1.00800000E+00  1.60000000E+01
  1.00800000E+00  1.00800000E+00  1.60000000E+01  1.00800000E+00  1.00800000E+00
  1.60000000E+01  1.00800000E+00  1.00800000E+00  1.60000000E+01  1.00800000E+00
  1.00800000E+00  1.60000000E+01  1.00800000E+00  1.00800000E+00  1.60000000E+01
  1.00800000E+00  1.00800000E+00  1.60000000E+01  1.00800000E+00  1.00800000E+00
  1.60000000E+01  1.00800000E+00  1.00800000E+00  1.60000000E+01  1.00800000E+00
  1.00800000E+00  1.60000000E+01  1.00800000E+00  1.00800000E+00  1.60000000E+01
  1.00800000E+00  1.00800000E+00  1.60000000E+01  1.00800000E+00  1.00800000E+00
  1.60000000E+01  1.00800000E+00  1.00800000E+00  1.60000000E+01  1.00800000E+00
  1.00800000E+00  1.60000000E+01  1.00800000E+00  1.00800000E+00  1.60000000E+01
  1.00800000E+00  1.00800000E+00  1.60000000E+01  1.00800000E+00  1.00800000E+00
  1.60000000E+01  1.00800000E+00  1.00800000E+00  1.60000000E+01  1.00800000E+00
  1.00800000E+00  1.60000000E+01  1.00800000E+00  1.00800000E+00  1.60000000E+01
  1.00800000E+00  1.00800000E+00  1.60000000E+01  1.00800000E+00  1.00800000E+00
  1.60000000E+01  1.00800000E+00  1.00800000E+00  1.60000000E+01  1.00800000E+00
  1.00800000E+00  1.60000000E+01  1.00800000E+00  1.00800000E+00  1.60000000E+01
  1.00800000E+00  1.00800000E+00  1.60000000E+01  1.00800000E+00  1.00800000E+00
  1.60000000E+01  1.00800000E+00  1.00800000E+00  1.60000000E+01  1.00800000E+00
  1.00800000E+00  1.60000000E+01  1.00800000E+00  1.00800000E+00  1.60000000E+01
  1.00800000E+00  1.00800000E+00  1.60000000E+01  1.00800000E+00  1.00800000E+00
  1.60000000E+01  1.00800000E+00  1.00800000E+00  1.60000000E+01  1.00800000E+00
  1.00800000E+00  1.60000000E+01  1.00800000E+00  1.00800000E+00  1.60000000E+01
  1.00800000E+00  1.00800000E+00  1.60000000E+01  1.00800000E+00  1.00800000E+00
  1.60000000E+01  1.00800000E+00  1.00800000E+00  1.60000000E+01  1.00800000E+00
  1.00800000E+00  1.60000000E+01  1.00800000E+00  1.00800000E+00  1.60000000E+01
  1.00800000E+00  1.00800000E+00  1.60000000E+01  1.00800000E+00  1.00800000E+00
  1.60000000E+01  1.00800000E+00  1.00800000E+00  1.60000000E+01  1.00800000E+00
  1.00800000E+00  1.60000000E+01  1.00800000E+00  1.00800000E+00  1.60000000E+01
  1.00800000E+00  1.00800000E+00  1.60000000E+01  1.00800000E+00  1.00800000E+00
  1.60000000E+01  1.00800000E+00  1.00800000E+00  1.60000000E+01  1.00800000E+00
  1.00800000E+00  1.60000000E+01  1.00800000E+00  1.00800000E+00  1.60000000E+01
  1.00800000E+00  1.00800000E+00  1.60000000E+01  1.00800000E+00  1.00800000E+00
  1.60000000E+01  1.00800000E+00  1.00800000E+00  1.60000000E+01  1.00800000E+00
  1.00800000E+00  1.60000000E+01  1.00800000E+00  1.00800000E+00  1.60000000E+01
  1.00800000E+00  1.00800000E+00  1.60000000E+01  1.00800000E+00  1.00800000E+00
  1.60000000E+01  1.00800000E+00  1.00800000E+00  1.60000000E+01  1.00800000E+00
  1.00800000E+00  1.60000000E+01  1.00800000E+00  1.00800000E+00  1.60000000E+01
  1.00800000E+00  1.00800000E+00  1.60000000E+01  1.00800000E+00  1.00800000E+00
  1.60000000E+01  1.00800000E+00  1.00800000E+00  1.60000000E+01  1.00800000E+00
  1.00800000E+00  1.60000000E+01  1.00800000E+00  1.00800000E+00  1.60000000E+01
  1.00800000E+00  1.00800000E+00  1.60000000E+01  1.00800000E+00  1.00800000E+00
  1.60000000E+01  1.00800000E+00  1.00800000E+00  1.60000000E+01  1.00800000E+00
  1.00800000E+00  1.60000000E+01  1.00800000E+00  1.00800000E+00  1.60000000E+01
  1.00800000E+00  1.00800000E+00  1.60000000E+01  1.00800000E+00  1.00800000E+00
  1.60000000E+01  1.00800000E+00  1.00800000E+00  1.60000000E+01  1.00800000E+00
  1.00800000E+00  1.60000000E+01  1.00800000E+00  1.00800000E+00  1.60000000E+01
  1.00800000E+00  1.00800000E+00  1.60000000E+01  1.00800000E+00  1.00800000E+00
  1.60000000E+01  1.00800000E+00  1.00800000E+00  1.60000000E+01  1.00800000E+00
  1.00800000E+00  1.60000000E+01  1.00800000E+00  1.00800000E+00  1.60000000E+01
  1.00800000E+00  1.00800000E+00  1.60000000E+01  1.00800000E+00  1.00800000E+00
  1.60000000E+01  1.00800000E+00  1.00800000E+00  1.60000000E+01  1.00800000E+00
  1.00800000E+00  1.60000000E+01  1.00800000E+00  1.00800000E+00  1.60000000E+01
  1.00800000E+00  1.00800000E+00  1.60000000E+01  1.00800000E+00  1.00800000E+00
  1.60000000E+01  1.00800000E+00  1.00800000E+00  1.60000000E+01  1.00800000E+00
  1.00800000E+00  1.60000000E+01  1.00800000E+00  1.00800000E+00  1.60000000E+01
  1.00800000E+00  1.00800000E+00  1.60000000E+01  1.00800000E+00  1.00800000E+00
  1.60000000E+01  1.00800000E+00  1.00800000E+00  1.60000000E+01  1.00800000E+00
  1.00800000E+00  1.60000000E+01  1.00800000E+00  1.00800000E+00  1.60000000E+01
  1.00800000E+00  1.00800000E+00  1.60000000E+01  1.00800000E+00  1.00800000E+00
  1.60000000E+01  1.00800000E+00  1.00800000E+00  1.60000000E+01  1.00800000E+00
  1.00800000E+00  1.60000000E+01  1.00800000E+00  1.00800000E+00  1.60000000E+01
  1.00800000E+00  1.00800000E+00  1.60000000E+01  1.00800000E+00  1.00800000E+00
  1.60000000E+01  1.00800000E+00  1.00800000E+00  1.60000000E+01  1.00800000E+00
  1.00800000E+00  1.60000000E+01  1.00800000E+00  1.00800000E+00  1.60000000E+01
  1.00800000E+00  1.00800000E+00  1.60000000E+01  1.00800000E+00  1.00800000E+00
  1.60000000E+01  1.00800000E+00  1.00800000E+00  1.60000000E+01  1.00800000E+00
  1.00800000E+00  1.60000000E+01  1.00800000E+00  1.00800000E+00  1.60000000E+01
  1.00800000E+00  1.00800000E+00  1.60000000E+01  1.00800000E+00  1.00800000E+00
  1.60000000E+01  1.00800000E+00  1.00800000E+00  1.60000000E+01  1.00800000E+00
  1.00800000E+00  1.60000000E+01  1.00800000E+00  1.00800000E+00  1.60000000E+01
  1.00800000E+00  1.00800000E+00  1.60000000E+01  1.00800000E+00  1.00800000E+00
  1.60000000E+01  1.00800000E+00  1.00800000E+00  1.60000000E+01  1.00800000E+00
  1.00800000E+00  1.60000000E+01  1.00800000E+00  1.00800000E+00  1.60000000E+01
  1.00800000E+00  1.00800000E+00  1.60000000E+01  1.00800000E+00  1.00800000E+00
  1.60000000E+01  1.00800000E+00  1.00800000E+00  1.60000000E+01  1.00800000E+00
  1.00800000E+00  1.60000000E+01  1.00800000E+00  1.00800000E+00  1.60000000E+01
  1.00800000E+00  1.00800000E+00  1.60000000E+01  1.00800000E+00  1.00800000E+00
  1.60000000E+01  1.00800000E+00  1.00800000E+00  1.60000000E+01  1.00800000E+00
  1.00800000E+00  1.60000000E+01  1.00800000E+00  1.00800000E+00  1.60000000E+01
  1.00800000E+00  1.00800000E+00  1.60000000E+01  1.00800000E+00  1.00800000E+00
  1.60000000E+01  1.00800000E+00  1.00800000E+00  1.60000000E+01  1.00800000E+00
  1.00800000E+00  1.60000000E+01  1.00800000E+00  1.00800000E+00  1.60000000E+01
  1.00800000E+00  1.00800000E+00  1.60000000E+01  1.00800000E+00  1.00800000E+00
  1.60000000E+01  1.00800000E+00  1.00800000E+00  1.60000000E+01  1.00800000E+00
  1.00800000E+00  1.60000000E+01  1.00800000E+00  1.00800000E+00  1.60000000E+01
  1.00800000E+00  1.00800000E+00  1.60000000E+01  1.00800000E+00  1.00800000E+00
  1.60000000E+01  1.00800000E+00  1.00800000E+00  1.60000000E+01  1.00800000E+00
  1.00800000E+00  1.60000000E+01  1.00800000E+00  1.00800000E+00  1.60000000E+01
  1.00800000E+00  1.00800000E+00  1.60000000E+01  1.00800000E+00  1.00800000E+00
  1.60000000E+01  1.00800000E+00  1.00800000E+00  1.60000000E+01  1.00800000E+00
  1.00800000E+00  1.60000000E+01  1.00800000E+00  1.00800000E+00  1.60000000E+01
  1.00800000E+00  1.00800000E+00  1.60000000E+01  1.00800000E+00  1.00800000E+00
  1.60000000E+01  1.00800000E+00  1.00800000E+00  1.60000000E+01  1.00800000E+00
  1.00800000E+00  1.60000000E+01  1.00800000E+00  1.00800000E+00  1.60000000E+01
  1.00800000E+00  1.00800000E+00  1.60000000E+01  1.00800000E+00  1.00800000E+00
  1.60000000E+01  1.00800000E+00  1.00800000E+00  1.60000000E+01  1.00800000E+00
  1.00800000E+00  1.60000000E+01  1.00800000E+00  1.00800000E+00  1.60000000E+01
  1.00800000E+00  1.00800000E+00  1.60000000E+01  1.00800000E+00  1.00800000E+00
  1.60000000E+01  1.00800000E+00  1.00800000E+00  1.60000000E+01  1.00800000E+00
  1.00800000E+00  1.60000000E+01  1.00800000E+00  1.00800000E+00  1.60000000E+01
  1.00800000E+00  1.00800000E+00  1.60000000E+01  1.00800000E+00  1.00800000E+00
  1.60000000E+01  1.00800000E+00  1.00800000E+00  1.60000000E+01  1.00800000E+00
  1.00800000E+00  1.60000000E+01  1.00800000E+00  1.00800000E+00  1.60000000E+01
  1.00800000E+00  1.00800000E+00  1.60000000E+01  1.00800000E+00  1.00800000E+00
  1.60000000E+01  1.00800000E+00  1.00800000E+00  1.60000000E+01  1.00800000E+00
  1.00800000E+00  1.60000000E+01  1.00800000E+00  1.00800000E+00  1.60000000E+01
  1.00800000E+00  1.00800000E+00  1.60000000E+01  1.00800000E+00  1.00800000E+00
  1.60000000E+01  1.00800000E+00  1.00800000E+00  1.60000000E+01  1.00800000E+00
  1.00800000E+00  1.60000000E+01  1.00800000E+00  1.00800000E+00  1.60000000E+01
  1.00800000E+00  1.00800000E+00  1.60000000E+01  1.00800000E+00  1.00800000E+00
  1.60000000E+01  1.00800000E+00  1.00800000E+00  1.60000000E+01  1.00800000E+00
  1.00800000E+00  1.60000000E+01  1.00800000E+00  1.00800000E+00  1.60000000E+01
  1.00800000E+00  1.00800000E+00  1.60000000E+01  1.00800000E+00  1.00800000E+00
  1.60000000E+01  1.00800000E+00  1.00800000E+00  1.60000000E+01  1.00800000E+00
  1.00800000E+00  1.60000000E+01  1.00800000E+00  1.00800000E+00  1.60000000E+01
  1.00800000E+00  1.00800000E+00  1.60000000E+01  1.00800000E+00  1.00800000E+00
  1.60000000E+01  1.00800000E+00  1.00800000E+00  1.60000000E+01  1.00800000E+00
  1.00800000E+00  1.60000000E+01  1.00800000E+00  1.00800000E+00  1.60000000E+01
  1.00800000E+00  1.00800000E+00  1.60000000E+01  1.00800000E+00  1.00800000E+00
  1.60000000E+01  1.00800000E+00  1.00800000E+00  1.60000000E+01  1.00800000E+00
  1.00800000E+00  1.60000000E+01  1.00800000E+00  1.00800000E+00  1.60000000E+01
  1.00800000E+00  1.00800000E+00  1.60000000E+01  1.00800000E+00  1.00800000E+00
  1.60000000E+01  1.00800000E+00  1.00800000E+00  1.60000000E+01  1.00800000E+00
  1.00800000E+00  1.60000000E+01  1.00800000E+00  1.00800000E+00  1.60000000E+01
  1.00800000E+00  1.00800000E+00  1.60000000E+01  1.00800000E+00  1.00800000E+00
  1.60000000E+01  1.00800000E+00  1.00800000E+00  1.60000000E+01  1.00800000E+00
  1.00800000E+00  1.60000000E+01  1.00800000E+00  1.00800000E+00  1.60000000E+01
  1.00800000E+00  1.00800000E+00  1.60000000E+01  1.00800000E+00  1.00800000E+00
  1.60000000E+01  1.00800000E+00  1.00800000E+00  1.60000000E+01  1.00800000E+00
  1.00800000E+00  1.60000000E+01  1.00800000E+00  1.00800000E+00  1.60000000E+01
  1.00800000E+00  1.00800000E+00  1.60000000E+01  1.00800000E+00  1.00800000E+00
  1.60000000E+01  1.00800000E+00  1.00800000E+00  1.60000000E+01  1.00800000E+00
  1.00800000E+00  1.60000000E+01  1.00800000E+00  1.00800000E+00  1.60000000E+01
  1.00800000E+00  1.00800000E+00  1.60000000E+01  1.00800000E+00  1.00800000E+00
  1.60000000E+01  1.00800000E+00  1.00800000E+00  1.60000000E+01  1.00800000E+00
  1.00800000E+00  1.60000000E+01  1.00800000E+00  1.00800000E+00  1.60000000E+01
  1.00800000E+00  1.00800000E+00  1.60000000E+01  1.00800000E+00  1.00800000E+00
  1.60000000E+01  1.00800000E+00  1.00800000E+00  1.60000000E+01  1.00800000E+00
  1.00800000E+00  1.60000000E+01  1.00800000E+00  1.00800000E+00  1.60000000E+01
  1.00800000E+00  1.00800000E+00  1.60000000E+01  1.00800000E+00  1.00800000E+00
  1.60000000E+01  1.00800000E+00  1.00800000E+00  1.60000000E+01  1.00800000E+00
  1.00800000E+00  1.60000000E+01  1.00800000E+00  1.00800000E+00  1.60000000E+01
  1.00800000E+00  1.00800000E+00  1.60000000E+01  1.00800000E+00  1.00800000E+00
  1.60000000E+01  1.00800000E+00  1.00800000E+00  1.60000000E+01  1.00800000E+00
  1.00800000E+00  1.60000000E+01  1.00800000E+00  1.00800000E+00  1.60000000E+01
  1.00800000E+00  1.00800000E+00  1.60000000E+01  1.00800000E+00  1.00800000E+00
  1.60000000E+01  1.00800000E+00  1.00800000E+00  1.60000000E+01  1.00800000E+00
  1.00800000E+00  1.60000000E+01  1.00800000E+00  1.00800000E+00  1.60000000E+01
  1.00800000E+00  1.00800000E+00  1.60000000E+01  1.00800000E+00  1.00800000E+00
  1.60000000E+01  1.00800000E+00  1.00800000E+00  1.60000000E+01  1.00800000E+00
  1.00800000E+00  1.60000000E+01  1.00800000E+00  1.00800000E+00  1.60000000E+01
  1.00800000E+00  1.00800000E+00  1.60000000E+01  1.00800000E+00  1.00800000E+00
  1.60000000E+01  1.00800000E+00  1.00800000E+00  1.60000000E+01  1.00800000E+00
  1.00800000E+00  1.60000000E+01  1.00800000E+00  1.00800000E+00  1.60000000E+01
  1.00800000E+00  1.00800000E+00  1.60000000E+01  1.00800000E+00  1.00800000E+00
  1.60000000E+01  1.00800000E+00  1.00800000E+00  1.60000000E+01  1.00800000E+00
  1.00800000E+00  1.60000000E+01  1.00800000E+00  1.00800000E+00  1.60000000E+01
  1.00800000E+00  1.00800000E+00  1.60000000E+01  1.00800000E+00  1.00800000E+00
  1.60000000E+01  1.00800000E+00  1.00800000E+00  1.60000000E+01  1.00800000E+00
  1.00800000E+00  1.60000000E+01  1.00800000E+00  1.00800000E+00  1.60000000E+01
  1.00800000E+00  1.00800000E+00  1.60000000E+01  1.00800000E+00  1.00800000E+00
  1.60000000E+01  1.00800000E+00  1.00800000E+00  1.60000000E+01  1.00800000E+00
  1.00800000E+00  1.60000000E+01  1.00800000E+00  1.00800000E+00  1.60000000E+01
  1.00800000E+00  1.00800000E+00  1.60000000E+01  1.00800000E+00  1.00800000E+00
  1.60000000E+01  1.00800000E+00  1.00800000E+00  1.60000000E+01  1.00800000E+00
  1.00800000E+00  1.60000000E+01  1.00800000E+00  1.00800000E+00  1.60000000E+01
  1.00800000E+00  1.00800000E+00  1.60000000E+01  1.00800000E+00  1.00800000E+00
  1.60000000E+01  1.00800000E+00  1.00800000E+00  1.60000000E+01  1.00800000E+00
  1.00800000E+00  1.60000000E+01  1.00800000E+00  1.00800000E+00  1.60000000E+01
  1.00800000E+00  1.00800000E+00  1.60000000E+01  1.00800000E+00  1.00800000E+00
  1.60000000E+01  1.00800000E+00  1.00800000E+00  1.60000000E+01  1.00800000E+00
  1.00800000E+00  1.60000000E+01  1.00800000E+00  1.00800000E+00  1.60000000E+01
  1.00800000E+00  1.00800000E+00  1.60000000E+01  1.00800000E+00  1.00800000E+00
  1.60000000E+01  1.00800000E+00  1.00800000E+00  1.60000000E+01  1.00800000E+00
  1.00800000E+00  1.60000000E+01  1.00800000E+00  1.00800000E+00  1.60000000E+01
  1.00800000E+00  1.00800000E+00  1.60000000E+01  1.00800000E+00  1.00800000E+00
  1.60000000E+01  1.00800000E+00  1.00800000E+00  1.60000000E+01  1.00800000E+00
  1.00800000E+00  1.60000000E+01  1.00800000E+00  1.00800000E+00  1.60000000E+01
  1.00800000E+00  1.00800000E+00  1.60000000E+01  1.00800000E+00  1.00800000E+00
  1.60000000E+01  1.00800000E+00  1.00800000E+00  1.60000000E+01  1.00800000E+00
  1.00800000E+00  1.60000000E+01  1.00800000E+00  1.00800000E+00  1.60000000E+01
  1.00800000E+00  1.00800000E+00  1.60000000E+01  1.00800000E+00  1.00800000E+00
  1.60000000E+01  1.00800000E+00  1.00800000E+00  1.60000000E+01  1.00800000E+00
  1.00800000E+00  1.60000000E+01  1.00800000E+00  1.00800000E+00  1.60000000E+01
  1.00800000E+00  1.00800000E+00  1.60000000E+01  1.00800000E+00  1.00800000E+00
  1.60000000E+01  1.00800000E+00  1.00800000E+00  1.60000000E+01  1.00800000E+00
  1.00800000E+00  1.60000000E+01  1.00800000E+00  1.00800000E+00  1.60000000E+01
  1.00800000E+00  1.00800000E+00  1.60000000E+01  1.00800000E+00  1.00800000E+00
  1.60000000E+01  1.00800000E+00  1.00800000E+00  1.60000000E+01  1.00800000E+00
  1.00800000E+00  1.60000000E+01  1.00800000E+00  1.00800000E+00  1.60000000E+01
  1.00800000E+00  1.00800000E+00  1.60000000E+01  1.00800000E+00  1.00800000E+00
  1.60000000E+01  1.00800000E+00  1.00800000E+00  1.60000000E+01  1.00800000E+00
  1.00800000E+00  1.60000000E+01  1.00800000E+00  1.00800000E+00  1.60000000E+01
  1.00800000E+00  1.00800000E+00  1.60000000E+01  1.00800000E+00  1.00800000E+00
  1.60000000E+01  1.00800000E+00  1.00800000E+00  1.60000000E+01  1.00800000E+00
  1.00800000E+00  1.60000000E+01  1.00800000E+00  1.00800000E+00  1.60000000E+01
  1.00800000E+00  1.00800000E+00  1.60000000E+01  1.00800000E+00  1.00800000E+00
  1.60000000E+01  1.00800000E+00  1.00800000E+00  1.60000000E+01  1.00800000E+00
  1.00800000E+00  1.60000000E+01  1.00800000E+00  1.00800000E+00  1.60000000E+01
  1.00800000E+00  1.00800000E+00  1.60000000E+01  1.00800000E+00  1.00800000E+00
  1.60000000E+01  1.00800000E+00  1.00800000E+00  1.60000000E+01  1.00800000E+00
  1.00800000E+00  1.60000000E+01  1.00800000E+00  1.00800000E+00  1.60000000E+01
  1.00800000E+00  1.00800000E+00  1.60000000E+01  1.00800000E+00  1.00800000E+00
  1.60000000E+01  1.00800000E+00  1.00800000E+00  1.60000000E+01  1.00800000E+00
  1.00800000E+00  1.60000000E+01  1.00800000E+00  1.00800000E+00  1.60000000E+01
  1.00800000E+00  1.00800000E+00  1.60000000E+01  1.00800000E+00  1.00800000E+00
  1.60000000E+01  1.00800000E+00  1.00800000E+00  1.60000000E+01  1.00800000E+00
  1.00800000E+00  1.60000000E+01  1.00800000E+00  1.00800000E+00  1.60000000E+01
  1.00800000E+00  1.00800000E+00  1.60000000E+01  1.00800000E+00  1.00800000E+00
  1.60000000E+01  1.00800000E+00  1.00800000E+00  1.60000000E+01  1.00800000E+00
  1.00800000E+00  1.60000000E+01  1.00800000E+00  1.00800000E+00  1.60000000E+01
  1.00800000E+00  1.00800000E+00  1.60000000E+01  1.00800000E+00  1.00800000E+00
  1.60000000E+01  1.00800000E+00  1.00800000E+00  1.60000000E+01  1.00800000E+00
  1.00800000E+00  1.60000000E+01  1.00800000E+00  1.00800000E+00  1.60000000E+01
  1.00800000E+00  1.00800000E+00  1.60000000E+01  1.00800000E+00  1.00800000E+00
  1.60000000E+01  1.00800000E+00  1.00800000E+00  1.60000000E+01  1.00800000E+00
  1.00800000E+00  1.60000000E+01  1.00800000E+00  1.00800000E+00  1.60000000E+01
  1.00800000E+00  1.00800000E+00  1.60000000E+01  1.00800000E+00  1.00800000E+00
  1.60000000E+01  1.00800000E+00  1.00800000E+00  1.60000000E+01  1.00800000E+00
  1.00800000E+00  1.60000000E+01  1.00800000E+00  1.00800000E+00  1.60000000E+01
  1.00800000E+00  1.00800000E+00  1.60000000E+01  1.00800000E+00  1.00800000E+00
  1.60000000E+01  1.00800000E+00  1.00800000E+00  1.60000000E+01  1.00800000E+00
  1.00800000E+00  1.60000000E+01  1.00800000E+00  1.00800000E+00  1.60000000E+01
  1.00800000E+00  1.00800000E+00  1.60000000E+01  1.00800000E+00  1.00800000E+00
  1.60000000E+01  1.00800000E+00  1.00800000E+00  1.60000000E+01  1.00800000E+00
  1.00800000E+00  1.60000000E+01  1.00800000E+00  1.00800000E+00  1.60000000E+01
  1.00800000E+00  1.00800000E+00  1.60000000E+01  1.00800000E+00  1.00800000E+00
  1.60000000E+01  1.00800000E+00  1.00800000E+00  1.60000000E+01  1.00800000E+00
  1.00800000E+00  1.60000000E+01  1.00800000E+00  1.00800000E+00  1.60000000E+01
  1.00800000E+00  1.00800000E+00  1.60000000E+01  1.00800000E+00  1.00800000E+00
  1.60000000E+01  1.00800000E+00  1.00800000E+00  1.60000000E+01  1.00800000E+00
  1.00800000E+00  1.60000000E+01  1.00800000E+00  1.00800000E+00  1.60000000E+01
  1.00800000E+00  1.00800000E+00  1.60000000E+01  1.00800000E+00  1.00800000E+00
  1.60000000E+01  1.00800000E+00  1.00800000E+00  1.60000000E+01  1.00800000E+00
  1.00800000E+00  1.60000000E+01  1.00800000E+00  1.00800000E+00  1.60000000E+01
  1.00800000E+00  1.00800000E+00  1.60000000E+01  1.00800000E+00  1.00800000E+00
  1.60000000E+01  1.00800000E+00  1.00800000E+00  1.60000000E+01  1.00800000E+00
  1.00800000E+00  1.60000000E+01  1.00800000E+00  1.00800000E+00  1.60000000E+01
  1.00800000E+00  1.00800000E+00  1.60000000E+01  1.00800000E+00  1.00800000E+00
  1.60000000E+01  1.00800000E+00  1.00800000E+00  1.60000000E+01  1.00800000E+00
  1.00800000E+00  1.60000000E+01  1.00800000E+00  1.00800000E+00  1.60000000E+01
  1.00800000E+00  1.00800000E+00  1.60000000E+01  1.00800000E+00  1.00800000E+00
  1.60000000E+01  1.00800000E+00  1.00800000E+00  1.60000000E+01  1.00800000E+00
  1.00800000E+00  1.60000000E+01  1.00800000E+00  1.00800000E+00  1.60000000E+01
  1.00800000E+00  1.00800000E+00  1.60000000E+01  1.00800000E+00  1.00800000E+00
  1.60000000E+01  1.00800000E+00  1.00800000E+00  1.60000000E+01  1.00800000E+00
  1.00800000E+00  1.60000000E+01  1.00800000E+00  1.00800000E+00  1.60000000E+01
  1.00800000E+00  1.00800000E+00  1.60000000E+01  1.00800000E+00  1.00800000E+00
  1.60000000E+01  1.00800000E+00  1.00800000E+00  1.60000000E+01  1.00800000E+00
  1.00800000E+00  1.60000000E+01  1.00800000E+00  1.00800000E+00  1.60000000E+01
  1.00800000E+00  1.00800000E+00  1.60000000E+01  1.00800000E+00  1.00800000E+00
  1.60000000E+01  1.00800000E+00  1.00800000E+00  1.60000000E+01  1.00800000E+00
  1.00800000E+00  1.60000000E+01  1.00800000E+00  1.00800000E+00  1.60000000E+01
  1.00800000E+00  1.00800000E+00  1.60000000E+01  1.00800000E+00  1.00800000E+00
  1.60000000E+01  1.00800000E+00  1.00800000E+00  1.60000000E+01  1.00800000E+00
  1.00800000E+00  1.60000000E+01  1.00800000E+00  1.00800000E+00  1.60000000E+01
  1.00800000E+00  1.00800000E+00  1.60000000E+01  1.00800000E+00  1.00800000E+00
  1.60000000E+01  1.00800000E+00  1.00800000E+00  1.60000000E+01  1.00800000E+00
  1.00800000E+00  1.60000000E+01  1.00800000E+00  1.00800000E+00  1.60000000E+01
  1.00800000E+00  1.00800000E+00  1.60000000E+01  1.00800000E+00  1.00800000E+00
  1.60000000E+01  1.00800000E+00  1.00800000E+00  1.60000000E+01  1.00800000E+00
  1.00800000E+00  1.60000000E+01  1.00800000E+00  1.00800000E+00  1.60000000E+01
  1.00800000E+00  1.00800000E+00  1.60000000E+01  1.00800000E+00  1.00800000E+00
  1.60000000E+01  1.00800000E+00  1.00800000E+00  1.60000000E+01  1.00800000E+00
  1.00800000E+00  1.60000000E+01  1.00800000E+00  1.00800000E+00  1.60000000E+01
  1.00800000E+00  1.00800000E+00  1.60000000E+01  1.00800000E+00  1.00800000E+00
  1.60000000E+01  1.00800000E+00  1.00800000E+00  1.60000000E+01  1.00800000E+00
  1.00800000E+00  1.60000000E+01  1.00800000E+00  1.00800000E+00  1.60000000E+01
  1.00800000E+00  1.00800000E+00  1.60000000E+01  1.00800000E+00  1.00800000E+00
  1.60000000E+01  1.00800000E+00  1.00800000E+00  1.60000000E+01  1.00800000E+00
  1.00800000E+00  1.60000000E+01  1.00800000E+00  1.00800000E+00  1.60000000E+01
  1.00800000E+00  1.00800000E+00  1.60000000E+01  1.00800000E+00  1.00800000E+00
  1.60000000E+01  1.00800000E+00  1.00800000E+00  1.60000000E+01  1.00800000E+00
  1.00800000E+00  1.60000000E+01  1.00800000E+00  1.00800000E+00  1.60000000E+01
  1.00800000E+00  1.00800000E+00  1.60000000E+01  1.00800000E+00  1.00800000E+00
  1.60000000E+01  1.00800000E+00  1.00800000E+00  1.60000000E+01  1.00800000E+00
  1.00800000E+00  1.60000000E+01  1.00800000E+00  1.00800000E+00  1.60000000E+01
  1.00800000E+00  1.00800000E+00  1.60000000E+01  1.00800000E+00  1.00800000E+00
  1.60000000E+01  1.00800000E+00  1.00800000E+00  1.60000000E+01  1.00800000E+00
  1.00800000E+00  1.60000000E+01  1.00800000E+00  1.00800000E+00  1.60000000E+01
  1.00800000E+00  1.00800000E+00  1.60000000E+01  1.00800000E+00  1.00800000E+00
  1.60000000E+01  1.00800000E+00  1.00800000E+00  1.60000000E+01  1.00800000E+00
  1.00800000E+00  1.60000000E+01  1.00800000E+00  1.00800000E+00  1.60000000E+01
  1.00800000E+00  1.00800000E+00  1.60000000E+01  1.00800000E+00  1.00800000E+00
  1.60000000E+01  1.00800000E+00  1.00800000E+00  1.60000000E+01  1.00800000E+00
  1.00800000E+00  1.60000000E+01  1.00800000E+00  1.00800000E+00  1.60000000E+01
  1.00800000E+00  1.00800000E+00  1.60000000E+01  1.00800000E+00  1.00800000E+00
  1.60000000E+01  1.00800000E+00  1.00800000E+00  1.60000000E+01  1.00800000E+00
  1.00800000E+00  1.60000000E+01  1.00800000E+00  1.00800000E+00  1.60000000E+01
  1.00800000E+00  1.00800000E+00  1.60000000E+01  1.00800000E+00  1.00800000E+00
  1.60000000E+01  1.00800000E+00  1.00800000E+00  1.60000000E+01  1.00800000E+00
  1.00800000E+00  1.60000000E+01  1.00800000E+00  1.00800000E+00  1.60000000E+01
  1.00800000E+00  1.00800000E+00  1.60000000E+01  1.00800000E+00  1.00800000E+00
  1.60000000E+01  1.00800000E+00  1.00800000E+00  1.60000000E+01  1.00800000E+00
  1.00800000E+00  1.60000000E+01  1.00800000E+00  1.00800000E+00  1.60000000E+01
  1.00800000E+00  1.00800000E+00  1.60000000E+01  1.00800000E+00  1.00800000E+00
  1.60000000E+01  1.00800000E+00  1.00800000E+00  1.60000000E+01  1.00800000E+00
  1.00800000E+00  1.60000000E+01  1.00800000E+00  1.00800000E+00  1.60000000E+01
  1.00800000E+00  1.00800000E+00  1.60000000E+01  1.00800000E+00  1.00800000E+00
  1.60000000E+01  1.00800000E+00  1.00800000E+00  1.60000000E+01  1.00800000E+00
  1.00800000E+00  1.60000000E+01  1.00800000E+00  1.00800000E+00  1.60000000E+01
  1.00800000E+00  1.00800000E+00  1.60000000E+01  1.00800000E+00  1.00800000E+00
  1.60000000E+01  1.00800000E+00  1.00800000E+00  1.60000000E+01  1.00800000E+00
  1.00800000E+00  1.60000000E+01  1.00800000E+00  1.00800000E+00  1.60000000E+01
  1.00800000E+00  1.00800000E+00  1.60000000E+01  1.00800000E+00  1.00800000E+00
  1.60000000E+01  1.00800000E+00  1.00800000E+00  1.60000000E+01  1.00800000E+00
  1.00800000E+00  1.60000000E+01  1.00800000E+00  1.00800000E+00  1.60000000E+01
  1.00800000E+00  1.00800000E+00  1.60000000E+01  1.00800000E+00  1.00800000E+00
  1.60000000E+01  1.00800000E+00  1.00800000E+00  1.60000000E+01  1.00800000E+00
  1.00800000E+00  1.60000000E+01  1.00800000E+00  1.00800000E+00  1.60000000E+01
  1.00800000E+00  1.00800000E+00  1.60000000E+01  1.00800000E+00  1.00800000E+00
  1.60000000E+01  1.00800000E+00  1.00800000E+00  1.60000000E+01  1.00800000E+00
  1.00800000E+00  1.60000000E+01  1.00800000E+00  1.00800000E+00  1.60000000E+01
  1.00800000E+00  1.00800000E+00  1.60000000E+01  1.00800000E+00  1.00800000E+00
  1.60000000E+01  1.00800000E+00  1.00800000E+00  1.60000000E+01  1.00800000E+00
  1.00800000E+00  1.60000000E+01  1.00800000E+00  1.00800000E+00  1.60000000E+01
  1.00800000E+00  1.00800000E+00  1.60000000E+01  1.00800000E+00  1.00800000E+00
  1.60000000E+01  1.00800000E+00  1.00800000E+00  1.60000000E+01  1.00800000E+00
  1.00800000E+00  1.60000000E+01  1.00800000E+00  1.00800000E+00  1.60000000E+01
  1.00800000E+00  1.00800000E+00  1.60000000E+01  1.00800000E+00  1.00800000E+00
  1.60000000E+01  1.00800000E+00  1.00800000E+00  1.60000000E+01  1.00800000E+00
  1.00800000E+00  1.60000000E+01  1.00800000E+00  1.00800000E+00  1.60000000E+01
  1.00800000E+00  1.00800000E+00  1.60000000E+01  1.00800000E+00  1.00800000E+00
  1.60000000E+01  1.00800000E+00  1.00800000E+00  1.60000000E+01  1.00800000E+00
  1.00800000E+00  1.60000000E+01  1.00800000E+00  1.00800000E+00  1.60000000E+01
  1.00800000E+00  1.00800000E+00  1.60000000E+01  1.00800000E+00  1.00800000E+00
  1.60000000E+01  1.00800000E+00  1.00800000E+00  1.60000000E+01  1.00800000E+00
  1.00800000E+00  1.60000000E+01  1.00800000E+00  1.00800000E+00  1.60000000E+01
  1.00800000E+00  1.00800000E+00  1.60000000E+01  1.00800000E+00  1.00800000E+00
  1.60000000E+01  1.00800000E+00  1.00800000E+00  1.60000000E+01  1.00800000E+00
  1.00800000E+00  1.60000000E+01  1.00800000E+00  1.00800000E+00  1.60000000E+01
  1.00800000E+00  1.00800000E+00  1.60000000E+01  1.00800000E+00  1.00800000E+00
  1.60000000E+01  1.00800000E+00  1.00800000E+00  1.60000000E+01  1.00800000E+00
  1.00800000E+00  1.60000000E+01  1.00800000E+00  1.00800000E+00  1.60000000E+01
  1.00800000E+00  1.00800000E+00  1.60000000E+01  1.00800000E+00  1.00800000E+00
  1.60000000E+01  1.00800000E+00  1.00800000E+00  1.60000000E+01  1.00800000E+00
  1.00800000E+00  1.60000000E+01  1.00800000E+00  1.00800000E+00  1.60000000E+01
  1.00800000E+00  1.00800000E+00  1.60000000E+01  1.00800000E+00  1.00800000E+00
  1.60000000E+01  1.00800000E+00  1.00800000E+00  1.60000000E+01  1.00800000E+00
  1.00800000E+00  1.60000000E+01  1.00800000E+00  1.00800000E+00  1.60000000E+01
  1.00800000E+00  1.00800000E+00  1.60000000E+01  1.00800000E+00  1.00800000E+00
  1.60000000E+01  1.00800000E+00  1.00800000E+00  1.60000000E+01  1.00800000E+00
  1.00800000E+00  1.60000000E+01  1.00800000E+00  1.00800000E+00  1.60000000E+01
  1.00800000E+00  1.00800000E+00  1.60000000E+01  1.00800000E+00  1.00800000E+00
  1.60000000E+01  1.00800000E+00  1.00800000E+00  1.60000000E+01  1.00800000E+00
  1.00800000E+00  1.60000000E+01  1.00800000E+00  1.00800000E+00  1.60000000E+01
  1.00800000E+00  1.00800000E+00  1.60000000E+01  1.00800000E+00  1.00800000E+00
  1.60000000E+01  1.00800000E+00  1.00800000E+00  1.60000000E+01  1.00800000E+00
  1.00800000E+00  1.60000000E+01  1.00800000E+00  1.00800000E+00  1.60000000E+01
  1.00800000E+00  1.00800000E+00  1.60000000E+01  1.00800000E+00  1.00800000E+00
  1.60000000E+01  1.00800000E+00  1.00800000E+00  1.60000000E+01  1.00800000E+00
  1.00800000E+00  1.60000000E+01  1.00800000E+00  1.00800000E+00  1.60000000E+01
  1.00800000E+00  1.00800000E+00  1.60000000E+01  1.00800000E+00  1.00800000E+00
  1.60000000E+01  1.00800000E+00  1.00800000E+00  1.60000000E+01  1.00800000E+00
  1.00800000E+00  1.60000000E+01  1.00800000E+00  1.00800000E+00  1.60000000E+01
  1.00800000E+00  1.00800000E+00  1.60000000E+01  1.00800000E+00  1.00800000E+00
  1.60000000E+01  1.00800000E+00  1.00800000E+00  1.60000000E+01  1.00800000E+00
  1.00800000E+00  1.60000000E+01  1.00800000E+00  1.00800000E+00  1.60000000E+01
  1.00800000E+00  1.00800000E+00  1.60000000E+01  1.00800000E+00  1.00800000E+00
  1.60000000E+01  1.00800000E+00  1.00800000E+00  1.60000000E+01  1.00800000E+00
  1.00800000E+00  1.60000000E+01  1.00800000E+00  1.00800000E+00  1.60000000E+01
  1.00800000E+00  1.00800000E+00  1.60000000E+01  1.00800000E+00  1.00800000E+00
  1.60000000E+01  1.00800000E+00  1.00800000E+00  1.60000000E+01  1.00800000E+00
  1.00800000E+00  1.60000000E+01  1.00800000E+00  1.00800000E+00  1.60000000E+01
  1.00800000E+00  1.00800000E+00  1.60000000E+01  1.00800000E+00  1.00800000E+00
  1.60000000E+01  1.00800000E+00  1.00800000E+00  1.60000000E+01  1.00800000E+00
  1.00800000E+00  1.60000000E+01  1.00800000E+00  1.00800000E+00  1.60000000E+01
  1.00800000E+00  1.00800000E+00  1.60000000E+01  1.00800000E+00  1.00800000E+00
  1.60000000E+01  1.00800000E+00  1.00800000E+00  1.60000000E+01  1.00800000E+00
  1.00800000E+00  1.60000000E+01  1.00800000E+00  1.00800000E+00  1.60000000E+01
  1.00800000E+00  1.00800000E+00  1.60000000E+01  1.00800000E+00  1.00800000E+00
  1.60000000E+01  1.00800000E+00  1.00800000E+00  1.60000000E+01  1.00800000E+00
  1.00800000E+00  1.60000000E+01  1.00800000E+00  1.00800000E+00  1.60000000E+01
  1.00800000E+00  1.00800000E+00  1.60000000E+01  1.00800000E+00  1.00800000E+00
  1.60000000E+01  1.00800000E+00  1.00800000E+00  1.60000000E+01  1.00800000E+00
  1.00800000E+00  1.60000000E+01  1.00800000E+00  1.00800000E+00  1.60000000E+01
  1.00800000E+00  1.00800000E+00  1.60000000E+01  1.00800000E+00  1.00800000E+00
  1.60000000E+01  1.00800000E+00  1.00800000E+00  1.60000000E+01  1.00800000E+00
  1.00800000E+00  1.60000000E+01  1.00800000E+00  1.00800000E+00  1.60000000E+01
  1.00800000E+00  1.00800000E+00  1.60000000E+01  1.00800000E+00  1.00800000E+00
  1.60000000E+01  1.00800000E+00  1.00800000E+00  1.60000000E+01  1.00800000E+00
  1.00800000E+00  1.60000000E+01  1.00800000E+00  1.00800000E+00  1.60000000E+01
  1.00800000E+00  1.00800000E+00  1.60000000E+01  1.00800000E+00  1.00800000E+00
  1.60000000E+01  1.00800000E+00  1.00800000E+00  1.60000000E+01  1.00800000E+00
  1.00800000E+00  1.60000000E+01  1.00800000E+00  1.00800000E+00  1.60000000E+01
  1.00800000E+00  1.00800000E+00  1.60000000E+01  1.00800000E+00  1.00800000E+00
  1.60000000E+01  1.00800000E+00  1.00800000E+00  1.60000000E+01  1.00800000E+00
  1.00800000E+00  1.60000000E+01  1.00800000E+00  1.00800000E+00  1.60000000E+01
  1.00800000E+00  1.00800000E+00  1.60000000E+01  1.00800000E+00  1.00800000E+00
  1.60000000E+01  1.00800000E+00  1.00800000E+00  1.60000000E+01  1.00800000E+00
  1.00800000E+00  1.60000000E+01  1.00800000E+00  1.00800000E+00  1.60000000E+01
  1.00800000E+00  1.00800000E+00  1.60000000E+01  1.00800000E+00  1.00800000E+00
  1.60000000E+01  1.00800000E+00  1.00800000E+00  1.60000000E+01  1.00800000E+00
  1.00800000E+00  1.60000000E+01  1.00800000E+00  1.00800000E+00  1.60000000E+01
  1.00800000E+00  1.00800000E+00  1.60000000E+01  1.00800000E+00  1.00800000E+00
  1.60000000E+01  1.00800000E+00  1.00800000E+00  1.60000000E+01  1.00800000E+00
  1.00800000E+00  1.60000000E+01  1.00800000E+00  1.00800000E+00  1.60000000E+01
  1.00800000E+00  1.00800000E+00  1.60000000E+01  1.00800000E+00  1.00800000E+00
  1.60000000E+01  1.00800000E+00  1.00800000E+00  1.60000000E+01  1.00800000E+00
  1.00800000E+00  1.60000000E+01  1.00800000E+00  1.00800000E+00  1.60000000E+01
  1.00800000E+00  1.00800000E+00  1.60000000E+01  1.00800000E+00  1.00800000E+00
  1.60000000E+01  1.00800000E+00  1.00800000E+00  1.60000000E+01  1.00800000E+00
  1.00800000E+00  1.60000000E+01  1.00800000E+00  1.00800000E+00  1.60000000E+01
  1.00800000E+00  1.00800000E+00  1.60000000E+01  1.00800000E+00  1.00800000E+00
  1.60000000E+01  1.00800000E+00  1.00800000E+00  1.60000000E+01  1.00800000E+00
  1.00800000E+00  1.60000000E+01  1.00800000E+00  1.00800000E+00  1.60000000E+01
  1.00800000E+00  1.00800000E+00  1.60000000E+01  1.00800000E+00  1.00800000E+00
  1.60000000E+01  1.00800000E+00  1.00800000E+00  1.60000000E+01  1.00800000E+00
  1.00800000E+00  1.60000000E+01  1.00800000E+00  1.00800000E+00  1.60000000E+01
  1.00800000E+00  1.00800000E+00  1.60000000E+01  1.00800000E+00  1.00800000E+00
  1.60000000E+01  1.00800000E+00  1.00800000E+00  1.60000000E+01  1.00800000E+00
  1.00800000E+00  1.60000000E+01  1.00800000E+00  1.00800000E+00  1.60000000E+01
  1.00800000E+00  1.00800000E+00  1.60000000E+01  1.00800000E+00  1.00800000E+00
  1.60000000E+01  1.00800000E+00  1.00800000E+00  1.60000000E+01  1.00800000E+00
  1.00800000E+00  1.60000000E+01  1.00800000E+00  1.00800000E+00  1.60000000E+01
  1.00800000E+00  1.00800000E+00  1.60000000E+01  1.00800000E+00  1.00800000E+00
  1.60000000E+01  1.00800000E+00  1.00800000E+00  1.60000000E+01  1.00800000E+00
  1.00800000E+00  1.60000000E+01  1.00800000E+00  1.00800000E+00  1.60000000E+01
  1.00800000E+00  1.00800000E+00  1.60000000E+01  1.00800000E+00  1.00800000E+00
  1.60000000E+01  1.00800000E+00  1.00800000E+00  1.60000000E+01  1.00800000E+00
  1.00800000E+00  1.60000000E+01  1.00800000E+00  1.00800000E+00  1.60000000E+01
  1.00800000E+00  1.00800000E+00  1.60000000E+01  1.00800000E+00  1.00800000E+00
  1.60000000E+01  1.00800000E+00  1.00800000E+00  1.60000000E+01  1.00800000E+00
  1.00800000E+00  1.60000000E+01  1.00800000E+00  1.00800000E+00  1.60000000E+01
  1.00800000E+00  1.00800000E+00  1.60000000E+01  1.00800000E+00  1.00800000E+00
  1.60000000E+01  1.00800000E+00  1.00800000E+00  1.60000000E+01  1.00800000E+00
  1.00800000E+00  1.60000000E+01  1.00800000E+00  1.00800000E+00  1.60000000E+01
  1.00800000E+00  1.00800000E+00  1.60000000E+01  1.00800000E+00  1.00800000E+00
  1.60000000E+01  1.00800000E+00  1.00800000E+00  1.60000000E+01  1.00800000E+00
  1.00800000E+00  1.60000000E+01  1.00800000E+00  1.00800000E+00  1.60000000E+01
  1.00800000E+00  1.00800000E+00  1.60000000E+01  1.00800000E+00  1.00800000E+00
  1.60000000E+01  1.00800000E+00  1.00800000E+00  1.60000000E+01  1.00800000E+00
  1.00800000E+00  1.60000000E+01  1.00800000E+00  1.00800000E+00  1.60000000E+01
  1.00800000E+00  1.00800000E+00  1.60000000E+01  1.00800000E+00  1.00800000E+00
  1.60000000E+01  1.00800000E+00  1.00800000E+00  1.60000000E+01  1.00800000E+00
  1.00800000E+00  1.60000000E+01  1.00800000E+00  1.00800000E+00  1.60000000E+01
  1.00800000E+00  1.00800000E+00  1.60000000E+01  1.00800000E+00  1.00800000E+00
  1.60000000E+01  1.00800000E+00  1.00800000E+00  1.60000000E+01  1.00800000E+00
  1.00800000E+00  1.60000000E+01  1.00800000E+00  1.00800000E+00  1.60000000E+01
  1.00800000E+00  1.00800000E+00  1.60000000E+01  1.00800000E+00  1.00800000E+00
  1.60000000E+01  1.00800000E+00  1.00800000E+00  1.60000000E+01  1.00800000E+00
  1.00800000E+00  1.60000000E+01  1.00800000E+00  1.00800000E+00  1.60000000E+01
  1.00800000E+00  1.00800000E+00  1.60000000E+01  1.00800000E+00  1.00800000E+00
  1.60000000E+01  1.00800000E+00  1.00800000E+00  1.60000000E+01  1.00800000E+00
  1.00800000E+00  1.60000000E+01  1.00800000E+00  1.00800000E+00  1.60000000E+01
  1.00800000E+00  1.00800000E+00  1.60000000E+01  1.00800000E+00  1.00800000E+00
  1.60000000E+01  1.00800000E+00  1.00800000E+00  1.60000000E+01  1.00800000E+00
  1.00800000E+00  1.60000000E+01  1.00800000E+00  1.00800000E+00  1.60000000E+01
  1.00800000E+00  1.00800000E+00  1.60000000E+01  1.00800000E+00  1.00800000E+00
  1.60000000E+01  1.00800000E+00  1.00800000E+00  1.60000000E+01  1.00800000E+00
  1.00800000E+00  1.60000000E+01  1.00800000E+00  1.00800000E+00  1.60000000E+01
  1.00800000E+00  1.00800000E+00  1.60000000E+01  1.00800000E+00  1.00800000E+00
  1.60000000E+01  1.00800000E+00  1.00800000E+00  1.60000000E+01  1.00800000E+00
  1.00800000E+00  1.60000000E+01  1.00800000E+00  1.00800000E+00  1.60000000E+01
  1.00800000E+00  1.00800000E+00  1.60000000E+01  1.00800000E+00  1.00800000E+00
  1.60000000E+01  1.00800000E+00  1.00800000E+00  1.60000000E+01  1.00800000E+00
  1.00800000E+00  1.60000000E+01  1.00800000E+00  1.00800000E+00  1.60000000E+01
  1.00800000E+00  1.00800000E+00  1.60000000E+01  1.00800000E+00  1.00800000E+00
  1.60000000E+01  1.00800000E+00  1.00800000E+00  1.60000000E+01  1.00800000E+00
  1.00800000E+00  1.60000000E+01  1.00800000E+00  1.00800000E+00  1.60000000E+01
  1.00800000E+00  1.00800000E+00  1.60000000E+01  1.00800000E+00  1.00800000E+00
  1.60000000E+01  1.00800000E+00  1.00800000E+00  1.60000000E+01  1.00800000E+00
  1.00800000E+00  1.60000000E+01  1.00800000E+00  1.00800000E+00  1.60000000E+01
  1.00800000E+00  1.00800000E+00  1.60000000E+01  1.00800000E+00  1.00800000E+00
  1.60000000E+01  1.00800000E+00  1.00800000E+00  1.60000000E+01  1.00800000E+00
  1.00800000E+00  1.60000000E+01  1.00800000E+00  1.00800000E+00  1.60000000E+01
  1.00800000E+00  1.00800000E+00  1.60000000E+01  1.00800000E+00  1.00800000E+00
  1.60000000E+01  1.00800000E+00  1.00800000E+00  1.60000000E+01  1.00800000E+00
  1.00800000E+00  1.60000000E+01  1.00800000E+00  1.00800000E+00  1.60000000E+01
  1.00800000E+00  1.00800000E+00  1.60000000E+01  1.00800000E+00  1.00800000E+00
  1.60000000E+01  1.00800000E+00  1.00800000E+00  1.60000000E+01  1.00800000E+00
  1.00800000E+00  1.60000000E+01  1.00800000E+00  1.00800000E+00  1.60000000E+01
  1.00800000E+00  1.00800000E+00  1.60000000E+01  1.00800000E+00  1.00800000E+00
  1.60000000E+01  1.00800000E+00  1.00800000E+00  1.60000000E+01  1.00800000E+00
  1.00800000E+00  1.60000000E+01  1.00800000E+00  1.00800000E+00  1.60000000E+01
  1.00800000E+00  1.00800000E+00  1.60000000E+01  1.00800000E+00  1.00800000E+00
  1.60000000E+01  1.00800000E+00  1.00800000E+00  1.60000000E+01  1.00800000E+00
  1.00800000E+00  1.60000000E+01  1.00800000E+00  1.00800000E+00  1.60000000E+01
  1.00800000E+00  1.00800000E+00  1.60000000E+01  1.00800000E+00  1.00800000E+00
  1.60000000E+01  1.00800000E+00  1.00800000E+00  1.60000000E+01  1.00800000E+00
  1.00800000E+00  1.60000000E+01  1.00800000E+00  1.00800000E+00  1.60000000E+01
  1.00800000E+00  1.00800000E+00  1.60000000E+01  1.00800000E+00  1.00800000E+00
  1.60000000E+01  1.00800000E+00  1.00800000E+00  1.60000000E+01  1.00800000E+00
  1.00800000E+00  1.60000000E+01  1.00800000E+00  1.00800000E+00  1.60000000E+01
  1.00800000E+00  1.00800000E+00  1.60000000E+01  1.00800000E+00  1.00800000E+00
  1.60000000E+01  1.00800000E+00  1.00800000E+00  1.60000000E+01  1.00800000E+00
  1.00800000E+00  1.60000000E+01  1.00800000E+00  1.00800000E+00  1.60000000E+01
  1.00800000E+00  1.00800000E+00  1.60000000E+01  1.00800000E+00  1.00800000E+00
  1.60000000E+01  1.00800000E+00  1.00800000E+00  1.60000000E+01  1.00800000E+00
  1.00800000E+00  1.60000000E+01  1.00800000E+00  1.00800000E+00  1.60000000E+01
  1.00800000E+00  1.00800000E+00  1.60000000E+01  1.00800000E+00  1.00800000E+00
  1.60000000E+01  1.00800000E+00  1.00800000E+00  1.60000000E+01  1.00800000E+00
  1.00800000E+00  1.60000000E+01  1.00800000E+00  1.00800000E+00  1.60000000E+01
  1.00800000E+00  1.00800000E+00  1.60000000E+01  1.00800000E+00  1.00800000E+00
  1.60000000E+01  1.00800000E+00  1.00800000E+00  1.60000000E+01  1.00800000E+00
  1.00800000E+00  1.60000000E+01  1.00800000E+00  1.00800000E+00  1.60000000E+01
  1.00800000E+00  1.00800000E+00  1.60000000E+01  1.00800000E+00  1.00800000E+00
  1.60000000E+01  1.00800000E+00  1.00800000E+00  1.60000000E+01  1.00800000E+00
  1.00800000E+00  1.60000000E+01  1.00800000E+00  1.00800000E+00  1.60000000E+01
  1.00800000E+00  1.00800000E+00  1.60000000E+01  1.00800000E+00  1.00800000E+00
  1.60000000E+01  1.00800000E+00  1.00800000E+00  1.60000000E+01  1.00800000E+00
  1.00800000E+00  1.60000000E+01  1.00800000E+00  1.00800000E+00  1.60000000E+01
  1.00800000E+00  1.00800000E+00  1.60000000E+01  1.00800000E+00  1.00800000E+00
  1.60000000E+01  1.00800000E+00  1.00800000E+00  1.60000000E+01  1.00800000E+00
  1.00800000E+00  1.60000000E+01  1.00800000E+00  1.00800000E+00  1.60000000E+01
  1.00800000E+00  1.00800000E+00  1.60000000E+01  1.00800000E+00  1.00800000E+00
  1.60000000E+01  1.00800000E+00  1.00800000E+00  1.60000000E+01  1.00800000E+00
  1.00800000E+00  1.60000000E+01  1.00800000E+00  1.00800000E+00  1.60000000E+01
  1.00800000E+00  1.00800000E+00  1.60000000E+01  1.00800000E+00  1.00800000E+00
  1.60000000E+01  1.00800000E+00  1.00800000E+00  1.60000000E+01  1.00800000E+00
  1.00800000E+00  1.60000000E+01  1.00800000E+00  1.00800000E+00  1.60000000E+01
  1.00800000E+00  1.00800000E+00  1.60000000E+01  1.00800000E+00  1.00800000E+00
  1.60000000E+01  1.00800000E+00  1.00800000E+00  1.60000000E+01  1.00800000E+00
  1.00800000E+00  1.60000000E+01  1.00800000E+00  1.00800000E+00  1.60000000E+01
  1.00800000E+00  1.00800000E+00  1.60000000E+01  1.00800000E+00  1.00800000E+00
  1.60000000E+01  1.00800000E+00  1.00800000E+00  1.60000000E+01  1.00800000E+00
  1.00800000E+00  1.60000000E+01  1.00800000E+00  1.00800000E+00  1.60000000E+01
  1.00800000E+00  1.00800000E+00  1.60000000E+01  1.00800000E+00  1.00800000E+00
  1.60000000E+01  1.00800000E+00  1.00800000E+00  1.60000000E+01  1.00800000E+00
  1.00800000E+00  1.60000000E+01  1.00800000E+00  1.00800000E+00  1.60000000E+01
  1.00800000E+00  1.00800000E+00  1.60000000E+01  1.00800000E+00  1.00800000E+00
  1.60000000E+01  1.00800000E+00  1.00800000E+00  1.60000000E+01  1.00800000E+00
  1.00800000E+00  1.60000000E+01  1.00800000E+00  1.00800000E+00  1.60000000E+01
  1.00800000E+00  1.00800000E+00  1.60000000E+01  1.00800000E+00  1.00800000E+00
  1.60000000E+01  1.00800000E+00  1.00800000E+00  1.60000000E+01  1.00800000E+00
  1.00800000E+00  1.60000000E+01  1.00800000E+00  1.00800000E+00  1.60000000E+01
  1.00800000E+00  1.00800000E+00  1.60000000E+01  1.00800000E+00  1.00800000E+00
  1.60000000E+01  1.00800000E+00  1.00800000E+00  1.60000000E+01  1.00800000E+00
  1.00800000E+00  1.60000000E+01  1.00800000E+00  1.00800000E+00  1.60000000E+01
  1.00800000E+00  1.00800000E+00  1.60000000E+01  1.00800000E+00  1.00800000E+00
  1.60000000E+01  1.00800000E+00  1.00800000E+00  1.60000000E+01  1.00800000E+00
  1.00800000E+00  1.60000000E+01  1.00800000E+00  1.00800000E+00  1.60000000E+01
  1.00800000E+00  1.00800000E+00  1.60000000E+01  1.00800000E+00  1.00800000E+00
  1.60000000E+01  1.00800000E+00  1.00800000E+00  1.60000000E+01  1.00800000E+00
  1.00800000E+00  1.60000000E+01  1.00800000E+00  1.00800000E+00  1.60000000E+01
  1.00800000E+00  1.00800000E+00  1.60000000E+01  1.00800000E+00  1.00800000E+00
  1.60000000E+01  1.00800000E+00  1.00800000E+00  1.60000000E+01  1.00800000E+00
  1.00800000E+00  1.60000000E+01  1.00800000E+00  1.00800000E+00  1.60000000E+01
  1.00800000E+00  1.00800000E+00  1.60000000E+01  1.00800000E+00  1.00800000E+00
  1.60000000E+01  1.00800000E+00  1.00800000E+00  1.60000000E+01  1.00800000E+00
  1.00800000E+00  1.60000000E+01  1.00800000E+00  1.00800000E+00  1.60000000E+01
  1.00800000E+00  1.00800000E+00  1.60000000E+01  1.00800000E+00  1.00800000E+00
  1.60000000E+01  1.00800000E+00  1.00800000E+00  1.60000000E+01  1.00800000E+00
  1.00800000E+00  1.60000000E+01  1.00800000E+00  1.00800000E+00  1.60000000E+01
  1.00800000E+00  1.00800000E+00  1.60000000E+01  1.00800000E+00  1.00800000E+00
  1.60000000E+01  1.00800000E+00  1.00800000E+00  1.60000000E+01  1.00800000E+00
  1.00800000E+00  1.60000000E+01  1.00800000E+00  1.00800000E+00  1.60000000E+01
  1.00800000E+00  1.00800000E+00  1.60000000E+01  1.00800000E+00  1.00800000E+00
  1.60000000E+01  1.00800000E+00  1.00800000E+00  1.60000000E+01  1.00800000E+00
  1.00800000E+00  1.60000000E+01  1.00800000E+00  1.00800000E+00  1.60000000E+01
  1.00800000E+00  1.00800000E+00  1.60000000E+01  1.00800000E+00  1.00800000E+00
  1.60000000E+01  1.00800000E+00  1.00800000E+00  1.60000000E+01  1.00800000E+00
  1.00800000E+00  1.60000000E+01  1.00800000E+00  1.00800000E+00  1.60000000E+01
  1.00800000E+00  1.00800000E+00  1.60000000E+01  1.00800000E+00  1.00800000E+00
  1.60000000E+01  1.00800000E+00  1.00800000E+00  1.60000000E+01  1.00800000E+00
  1.00800000E+00  1.60000000E+01  1.00800000E+00  1.00800000E+00  1.60000000E+01
  1.00800000E+00  1.00800000E+00  1.60000000E+01  1.00800000E+00  1.00800000E+00
  1.60000000E+01  1.00800000E+00  1.00800000E+00  1.60000000E+01  1.00800000E+00
  1.00800000E+00  1.60000000E+01  1.00800000E+00  1.00800000E+00  1.60000000E+01
  1.00800000E+00  1.00800000E+00  1.60000000E+01  1.00800000E+00  1.00800000E+00
  1.60000000E+01  1.00800000E+00  1.00800000E+00  1.60000000E+01  1.00800000E+00
  1.00800000E+00  1.60000000E+01  1.00800000E+00  1.00800000E+00  1.60000000E+01
  1.00800000E+00  1.00800000E+00  1.60000000E+01  1.00800000E+00  1.00800000E+00
  1.60000000E+01  1.00800000E+00  1.00800000E+00  1.60000000E+01  1.00800000E+00
  1.00800000E+00  1.60000000E+01  1.00800000E+00  1.00800000E+00  1.60000000E+01
  1.00800000E+00  1.00800000E+00  1.60000000E+01  1.00800000E+00  1.00800000E+00
  1.60000000E+01  1.00800000E+00  1.00800000E+00  1.60000000E+01  1.00800000E+00
  1.00800000E+00  1.60000000E+01  1.00800000E+00  1.00800000E+00  1.60000000E+01
  1.00800000E+00  1.00800000E+00  1.60000000E+01  1.00800000E+00  1.00800000E+00
  1.60000000E+01  1.00800000E+00  1.00800000E+00  1.60000000E+01  1.00800000E+00
  1.00800000E+00  1.60000000E+01  1.00800000E+00  1.00800000E+00  1.60000000E+01
  1.00800000E+00  1.00800000E+00  1.60000000E+01  1.00800000E+00  1.00800000E+00
  1.60000000E+01  1.00800000E+00  1.00800000E+00  1.60000000E+01  1.00800000E+00
  1.00800000E+00  1.60000000E+01  1.00800000E+00  1.00800000E+00  1.60000000E+01
  1.00800000E+00  1.00800000E+00  1.60000000E+01  1.00800000E+00  1.00800000E+00
  1.60000000E+01  1.00800000E+00  1.00800000E+00  1.60000000E+01  1.00800000E+00
  1.00800000E+00  1.60000000E+01  1.00800000E+00  1.00800000E+00  1.60000000E+01
  1.00800000E+00  1.00800000E+00  1.60000000E+01  1.00800000E+00  1.00800000E+00
  1.60000000E+01  1.00800000E+00  1.00800000E+00  1.60000000E+01  1.00800000E+00
  1.00800000E+00  1.60000000E+01  1.00800000E+00  1.00800000E+00  1.60000000E+01
  1.00800000E+00  1.00800000E+00  1.60000000E+01  1.00800000E+00  1.00800000E+00
  1.60000000E+01  1.00800000E+00  1.00800000E+00  1.60000000E+01  1.00800000E+00
  1.00800000E+00  1.60000000E+01  1.00800000E+00  1.00800000E+00  1.60000000E+01
  1.00800000E+00  1.00800000E+00  1.60000000E+01  1.00800000E+00  1.00800000E+00
  1.60000000E+01  1.00800000E+00  1.00800000E+00  1.60000000E+01  1.00800000E+00
  1.00800000E+00  1.60000000E+01  1.00800000E+00  1.00800000E+00  1.60000000E+01
  1.00800000E+00  1.00800000E+00  1.60000000E+01  1.00800000E+00  1.00800000E+00
  1.60000000E+01  1.00800000E+00  1.00800000E+00  1.60000000E+01  1.00800000E+00
  1.00800000E+00  1.60000000E+01  1.00800000E+00  1.00800000E+00  1.60000000E+01
  1.00800000E+00  1.00800000E+00  1.60000000E+01  1.00800000E+00  1.00800000E+00
  1.60000000E+01  1.00800000E+00  1.00800000E+00  1.60000000E+01  1.00800000E+00
  1.00800000E+00  1.60000000E+01  1.00800000E+00  1.00800000E+00  1.60000000E+01
  1.00800000E+00  1.00800000E+00  1.60000000E+01  1.00800000E+00  1.00800000E+00
  1.60000000E+01  1.00800000E+00  1.00800000E+00  1.60000000E+01  1.00800000E+00
  1.00800000E+00  1.60000000E+01  1.00800000E+00  1.00800000E+00  1.60000000E+01
  1.00800000E+00  1.00800000E+00  1.60000000E+01  1.00800000E+00  1.00800000E+00
  1.60000000E+01  1.00800000E+00  1.00800000E+00  1.60000000E+01  1.00800000E+00
  1.00800000E+00  1.60000000E+01  1.00800000E+00  1.00800000E+00  1.60000000E+01
  1.00800000E+00  1.00800000E+00  1.60000000E+01  1.00800000E+00  1.00800000E+00
  1.60000000E+01  1.00800000E+00  1.00800000E+00  1.60000000E+01  1.00800000E+00
  1.00800000E+00  1.60000000E+01  1.00800000E+00  1.00800000E+00  1.60000000E+01
  1.00800000E+00  1.00800000E+00  1.60000000E+01  1.00800000E+00  1.00800000E+00
  1.60000000E+01  1.00800000E+00  1.00800000E+00  1.60000000E+01  1.00800000E+00
  1.00800000E+00  1.60000000E+01  1.00800000E+00  1.00800000E+00  1.60000000E+01
  1.00800000E+00  1.00800000E+00  1.60000000E+01  1.00800000E+00  1.00800000E+00
  1.60000000E+01  1.00800000E+00  1.00800000E+00  1.60000000E+01  1.00800000E+00
  1.00800000E+00  1.60000000E+01  1.00800000E+00  1.00800000E+00  1.60000000E+01
  1.00800000E+00  1.00800000E+00  1.60000000E+01  1.00800000E+00  1.00800000E+00
  1.60000000E+01  1.00800000E+00  1.00800000E+00  1.60000000E+01  1.00800000E+00
  1.00800000E+00  1.60000000E+01  1.00800000E+00  1.00800000E+00  1.60000000E+01
  1.00800000E+00  1.00800000E+00  1.60000000E+01  1.00800000E+00  1.00800000E+00
  1.60000000E+01  1.00800000E+00  1.00800000E+00  1.60000000E+01  1.00800000E+00
  1.00800000E+00  1.60000000E+01  1.00800000E+00  1.00800000E+00  1.60000000E+01
  1.00800000E+00  1.00800000E+00  1.60000000E+01  1.00800000E+00  1.00800000E+00
  1.60000000E+01  1.00800000E+00  1.00800000E+00  1.60000000E+01  1.00800000E+00
  1.00800000E+00  1.60000000E+01  1.00800000E+00  1.00800000E+00  1.60000000E+01
  1.00800000E+00  1.00800000E+00  1.60000000E+01  1.00800000E+00  1.00800000E+00
  1.60000000E+01  1.00800000E+00  1.00800000E+00  1.60000000E+01  1.00800000E+00
  1.00800000E+00  1.60000000E+01  1.00800000E+00  1.00800000E+00  1.60000000E+01
  1.00800000E+00  1.00800000E+00  1.60000000E+01  1.00800000E+00  1.00800000E+00
  1.60000000E+01  1.00800000E+00  1.00800000E+00  1.60000000E+01  1.00800000E+00
  1.00800000E+00  1.60000000E+01  1.00800000E+00  1.00800000E+00  1.60000000E+01
  1.00800000E+00  1.00800000E+00  1.60000000E+01  1.00800000E+00  1.00800000E+00
  1.60000000E+01  1.00800000E+00  1.00800000E+00  1.60000000E+01  1.00800000E+00
  1.00800000E+00  1.60000000E+01  1.00800000E+00  1.00800000E+00  1.60000000E+01
  1.00800000E+00  1.00800000E+00  1.60000000E+01  1.00800000E+00  1.00800000E+00
  1.60000000E+01  1.00800000E+00  1.00800000E+00  1.60000000E+01  1.00800000E+00
  1.00800000E+00  1.60000000E+01  1.00800000E+00  1.00800000E+00  1.60000000E+01
  1.00800000E+00  1.00800000E+00  1.60000000E+01  1.00800000E+00  1.00800000E+00
  1.60000000E+01  1.00800000E+00  1.00800000E+00  1.60000000E+01  1.00800000E+00
  1.00800000E+00  1.60000000E+01  1.00800000E+00  1.00800000E+00  1.60000000E+01
  1.00800000E+00  1.00800000E+00  1.60000000E+01  1.00800000E+00  1.00800000E+00
  1.60000000E+01  1.00800000E+00  1.00800000E+00  1.60000000E+01  1.00800000E+00
  1.00800000E+00  1.60000000E+01  1.00800000E+00  1.00800000E+00  1.60000000E+01
  1.00800000E+00  1.00800000E+00  1.60000000E+01  1.00800000E+00  1.00800000E+00
  1.60000000E+01  1.00800000E+00  1.00800000E+00  1.60000000E+01  1.00800000E+00
  1.00800000E+00  1.60000000E+01  1.00800000E+00  1.00800000E+00  1.60000000E+01
  1.00800000E+00  1.00800000E+00  1.60000000E+01  1.00800000E+00  1.00800000E+00
  1.60000000E+01  1.00800000E+00  1.00800000E+00  1.60000000E+01  1.00800000E+00
  1.00800000E+00  1.60000000E+01  1.00800000E+00  1.00800000E+00  1.60000000E+01
  1.00800000E+00  1.00800000E+00  1.60000000E+01  1.00800000E+00  1.00800000E+00
  1.60000000E+01  1.00800000E+00  1.00800000E+00  1.60000000E+01  1.00800000E+00
  1.00800000E+00  1.60000000E+01  1.00800000E+00  1.00800000E+00  1.60000000E+01
  1.00800000E+00  1.00800000E+00  1.60000000E+01  1.00800000E+00  1.00800000E+00
  1.60000000E+01  1.00800000E+00  1.00800000E+00  1.60000000E+01  1.00800000E+00
  1.00800000E+00  1.60000000E+01  1.00800000E+00  1.00800000E+00  1.60000000E+01
  1.00800000E+00  1.00800000E+00  1.60000000E+01  1.00800000E+00  1.00800000E+00
  1.60000000E+01  1.00800000E+00  1.00800000E+00  1.60000000E+01  1.00800000E+00
  1.00800000E+00  1.60000000E+01  1.00800000E+00  1.00800000E+00  1.60000000E+01
  1.00800000E+00  1.00800000E+00  1.60000000E+01  1.00800000E+00  1.00800000E+00
  1.60000000E+01  1.00800000E+00  1.00800000E+00  1.60000000E+01  1.00800000E+00
  1.00800000E+00  1.60000000E+01  1.00800000E+00  1.00800000E+00  1.60000000E+01
  1.00800000E+00  1.00800000E+00  1.60000000E+01  1.00800000E+00  1.00800000E+00
  1.60000000E+01  1.00800000E+00  1.00800000E+00  1.60000000E+01  1.00800000E+00
  1.00800000E+00  1.60000000E+01  1.00800000E+00  1.00800000E+00  1.60000000E+01
  1.00800000E+00  1.00800000E+00  1.60000000E+01  1.00800000E+00  1.00800000E+00
  1.60000000E+01  1.00800000E+00  1.00800000E+00  1.60000000E+01  1.00800000E+00
  1.00800000E+00  1.60000000E+01  1.00800000E+00  1.00800000E+00  1.60000000E+01
  1.00800000E+00  1.00800000E+00  1.60000000E+01  1.00800000E+00  1.00800000E+00
  1.60000000E+01  1.00800000E+00  1.00800000E+00  1.60000000E+01  1.00800000E+00
  1.00800000E+00  1.60000000E+01  1.00800000E+00  1.00800000E+00  1.60000000E+01
  1.00800000E+00  1.00800000E+00  1.60000000E+01  1.00800000E+00  1.00800000E+00
  1.60000000E+01  1.00800000E+00  1.00800000E+00  1.60000000E+01  1.00800000E+00
  1.00800000E+00  1.60000000E+01  1.00800000E+00  1.00800000E+00  1.60000000E+01
  1.00800000E+00  1.00800000E+00  1.60000000E+01  1.00800000E+00  1.00800000E+00
  1.60000000E+01  1.00800000E+00  1.00800000E+00  1.60000000E+01  1.00800000E+00
  1.00800000E+00  1.60000000E+01  1.00800000E+00  1.00800000E+00  1.60000000E+01
  1.00800000E+00  1.00800000E+00  1.60000000E+01  1.00800000E+00  1.00800000E+00
  1.60000000E+01  1.00800000E+00  1.00800000E+00  1.60000000E+01  1.00800000E+00
  1.00800000E+00  1.60000000E+01  1.00800000E+00  1.00800000E+00  1.60000000E+01
  1.00800000E+00  1.00800000E+00  1.60000000E+01  1.00800000E+00  1.00800000E+00
  1.60000000E+01  1.00800000E+00  1.00800000E+00  1.60000000E+01  1.00800000E+00
  1.00800000E+00  1.60000000E+01  1.00800000E+00  1.00800000E+00  1.60000000E+01
  1.00800000E+00  1.00800000E+00  1.60000000E+01  1.00800000E+00  1.00800000E+00
  1.60000000E+01  1.00800000E+00  1.00800000E+00  1.60000000E+01  1.00800000E+00
  1.00800000E+00  1.60000000E+01  1.00800000E+00  1.00800000E+00  1.60000000E+01
  1.00800000E+00  1.00800000E+00  1.60000000E+01  1.00800000E+00  1.00800000E+00
  1.60000000E+01  1.00800000E+00  1.00800000E+00  1.60000000E+01  1.00800000E+00
  1.00800000E+00  1.60000000E+01  1.00800000E+00  1.00800000E+00  1.60000000E+01
  1.00800000E+00  1.00800000E+00  1.60000000E+01  1.00800000E+00  1.00800000E+00
  1.60000000E+01  1.00800000E+00  1.00800000E+00  1.60000000E+01  1.00800000E+00
  1.00800000E+00  1.60000000E+01  1.00800000E+00  1.00800000E+00  1.60000000E+01
  1.00800000E+00  1.00800000E+00  1.60000000E+01  1.00800000E+00  1.00800000E+00
  1.60000000E+01  1.00800000E+00  1.00800000E+00  1.60000000E+01  1.00800000E+00
  1.00800000E+00  1.60000000E+01  1.00800000E+00  1.00800000E+00  1.60000000E+01
  1.00800000E+00  1.00800000E+00  1.60000000E+01  1.00800000E+00  1.00800000E+00
  1.60000000E+01  1.00800000E+00  1.00800000E+00  1.60000000E+01  1.00800000E+00
  1.00800000E+00  1.60000000E+01  1.00800000E+00  1.00800000E+00  1.60000000E+01
  1.00800000E+00  1.00800000E+00  1.60000000E+01  1.00800000E+00  1.00800000E+00
  1.60000000E+01  1.00800000E+00  1.00800000E+00  1.60000000E+01  1.00800000E+00
  1.00800000E+00  1.60000000E+01  1.00800000E+00  1.00800000E+00  1.60000000E+01
  1.00800000E+00  1.00800000E+00  1.60000000E+01  1.00800000E+00  1.00800000E+00
  1.60000000E+01  1.00800000E+00  1.00800000E+00  1.60000000E+01  1.00800000E+00
  1.00800000E+00  1.60000000E+01  1.00800000E+00  1.00800000E+00  1.60000000E+01
  1.00800000E+00  1.00800000E+00  1.60000000E+01  1.00800000E+00  1.00800000E+00
  1.60000000E+01  1.00800000E+00  1.00800000E+00  1.60000000E+01  1.00800000E+00
  1.00800000E+00  1.60000000E+01  1.00800000E+00  1.00800000E+00  1.60000000E+01
  1.00800000E+00  1.00800000E+00  1.60000000E+01  1.00800000E+00  1.00800000E+00
  1.60000000E+01  1.00800000E+00  1.00800000E+00  1.60000000E+01  1.00800000E+00
  1.00800000E+00  1.60000000E+01  1.00800000E+00  1.00800000E+00  1.60000000E+01
  1.00800000E+00  1.00800000E+00  1.60000000E+01  1.00800000E+00  1.00800000E+00
  1.60000000E+01  1.00800000E+00  1.00800000E+00  1.60000000E+01  1.00800000E+00
  1.00800000E+00  1.60000000E+01  1.00800000E+00  1.00800000E+00  1.60000000E+01
  1.00800000E+00  1.00800000E+00  1.60000000E+01  1.00800000E+00  1.00800000E+00
  1.60000000E+01  1.00800000E+00  1.00800000E+00  1.60000000E+01  1.00800000E+00
  1.00800000E+00  1.60000000E+01  1.00800000E+00  1.00800000E+00  1.60000000E+01
  1.00800000E+00  1.00800000E+00  1.60000000E+01  1.00800000E+00  1.00800000E+00
  1.60000000E+01  1.00800000E+00  1.00800000E+00  1.60000000E+01  1.00800000E+00
  1.00800000E+00  1.60000000E+01  1.00800000E+00  1.00800000E+00  1.60000000E+01
  1.00800000E+00  1.00800000E+00  1.60000000E+01  1.00800000E+00  1.00800000E+00
  1.60000000E+01  1.00800000E+00  1.00800000E+00  1.60000000E+01  1.00800000E+00
  1.00800000E+00  1.60000000E+01  1.00800000E+00  1.00800000E+00  1.60000000E+01
  1.00800000E+00  1.00800000E+00  1.60000000E+01  1.00800000E+00  1.00800000E+00
  1.60000000E+01  1.00800000E+00  1.00800000E+00  1.60000000E+01  1.00800000E+00
  1.00800000E+00  1.60000000E+01  1.00800000E+00  1.00800000E+00  1.60000000E+01
  1.00800000E+00  1.00800000E+00  1.60000000E+01  1.00800000E+00  1.00800000E+00
  1.60000000E+01  1.00800000E+00  1.00800000E+00  1.60000000E+01  1.00800000E+00
  1.00800000E+00  1.60000000E+01  1.00800000E+00  1.00800000E+00  1.60000000E+01
  1.00800000E+00  1.00800000E+00  1.60000000E+01  1.00800000E+00  1.00800000E+00
  1.60000000E+01  1.00800000E+00  1.00800000E+00  1.60000000E+01  1.00800000E+00
  1.00800000E+00  1.60000000E+01  1.00800000E+00  1.00800000E+00  1.60000000E+01
  1.00800000E+00  1.00800000E+00  1.60000000E+01  1.00800000E+00  1.00800000E+00
  1.60000000E+01  1.00800000E+00  1.00800000E+00  1.60000000E+01  1.00800000E+00
  1.00800000E+00  1.60000000E+01  1.00800000E+00  1.00800000E+00  1.60000000E+01
  1.00800000E+00  1.00800000E+00  1.60000000E+01  1.00800000E+00  1.00800000E+00
  1.60000000E+01  1.00800000E+00  1.00800000E+00  1.60000000E+01  1.00800000E+00
  1.00800000E+00  1.60000000E+01  1.00800000E+00  1.00800000E+00  1.60000000E+01
  1.00800000E+00  1.00800000E+00  1.60000000E+01  1.00800000E+00  1.00800000E+00
  1.60000000E+01  1.00800000E+00  1.00800000E+00  1.60000000E+01  1.00800000E+00
  1.00800000E+00  1.60000000E+01  1.00800000E+00  1.00800000E+00  1.60000000E+01
  1.00800000E+00  1.00800000E+00  1.60000000E+01  1.00800000E+00  1.00800000E+00
  1.60000000E+01  1.00800000E+00  1.00800000E+00  1.60000000E+01  1.00800000E+00
  1.00800000E+00  1.60000000E+01  1.00800000E+00  1.00800000E+00  1.60000000E+01
  1.00800000E+00  1.00800000E+00  1.60000000E+01  1.00800000E+00  1.00800000E+00
  1.60000000E+01  1.00800000E+00  1.00800000E+00  1.60000000E+01  1.00800000E+00
  1.00800000E+00  1.60000000E+01  1.00800000E+00  1.00800000E+00  1.60000000E+01
  1.00800000E+00  1.00800000E+00  1.60000000E+01  1.00800000E+00  1.00800000E+00
  1.60000000E+01  1.00800000E+00  1.00800000E+00  1.60000000E+01  1.00800000E+00
  1.00800000E+00  1.60000000E+01  1.00800000E+00  1.00800000E+00  1.60000000E+01
  1.00800000E+00  1.00800000E+00  1.60000000E+01  1.00800000E+00  1.00800000E+00
  1.60000000E+01  1.00800000E+00  1.00800000E+00  1.60000000E+01  1.00800000E+00
  1.00800000E+00  1.60000000E+01  1.00800000E+00  1.00800000E+00  1.60000000E+01
  1.00800000E+00  1.00800000E+00  1.60000000E+01  1.00800000E+00  1.00800000E+00
  1.60000000E+01  1.00800000E+00  1.00800000E+00  1.60000000E+01  1.00800000E+00
  1.00800000E+00  1.60000000E+01  1.00800000E+00  1.00800000E+00  1.60000000E+01
  1.00800000E+00  1.00800000E+00  1.60000000E+01  1.00800000E+00  1.00800000E+00
  1.60000000E+01  1.00800000E+00  1.00800000E+00  1.60000000E+01  1.00800000E+00
  1.00800000E+00  1.60000000E+01  1.00800000E+00  1.00800000E+00  1.60000000E+01
  1.00800000E+00  1.00800000E+00  1.60000000E+01  1.00800000E+00  1.00800000E+00
  1.60000000E+01  1.00800000E+00  1.00800000E+00  1.60000000E+01  1.00800000E+00
  1.00800000E+00  1.60000000E+01  1.00800000E+00  1.00800000E+00  1.60000000E+01
  1.00800000E+00  1.00800000E+00  1.60000000E+01  1.00800000E+00  1.00800000E+00
  1.60000000E+01  1.00800000E+00  1.00800000E+00  1.60000000E+01  1.00800000E+00
  1.00800000E+00  1.60000000E+01  1.00800000E+00  1.00800000E+00  1.60000000E+01
  1.00800000E+00  1.00800000E+00  1.60000000E+01  1.00800000E+00  1.00800000E+00
  1.60000000E+01  1.00800000E+00  1.00800000E+00  1.60000000E+01  1.00800000E+00
  1.00800000E+00  1.60000000E+01  1.00800000E+00  1.00800000E+00  1.60000000E+01
  1.00800000E+00  1.00800000E+00  1.60000000E+01  1.00800000E+00  1.00800000E+00
  1.60000000E+01  1.00800000E+00  1.00800000E+00  1.60000000E+01  1.00800000E+00
  1.00800000E+00  1.60000000E+01  1.00800000E+00  1.00800000E+00  1.60000000E+01
  1.00800000E+00  1.00800000E+00  1.60000000E+01  1.00800000E+00  1.00800000E+00
  1.60000000E+01  1.00800000E+00  1.00800000E+00  1.60000000E+01  1.00800000E+00
  1.00800000E+00  1.60000000E+01  1.00800000E+00  1.00800000E+00  1.60000000E+01
  1.00800000E+00  1.00800000E+00  1.60000000E+01  1.00800000E+00  1.00800000E+00
  1.60000000E+01  1.00800000E+00  1.00800000E+00  1.60000000E+01  1.00800000E+00
  1.00800000E+00  1.60000000E+01  1.00800000E+00  1.00800000E+00  1.60000000E+01
  1.00800000E+00  1.00800000E+00  1.60000000E+01  1.00800000E+00  1.00800000E+00
  1.60000000E+01  1.00800000E+00  1.00800000E+00  1.60000000E+01  1.00800000E+00
  1.00800000E+00  1.60000000E+01  1.00800000E+00  1.00800000E+00  1.60000000E+01
  1.00800000E+00  1.00800000E+00  1.60000000E+01  1.00800000E+00  1.00800000E+00
  1.60000000E+01  1.00800000E+00  1.00800000E+00  1.60000000E+01  1.00800000E+00
  1.00800000E+00  1.60000000E+01  1.00800000E+00  1.00800000E+00  1.60000000E+01
  1.00800000E+00  1.00800000E+00  1.60000000E+01  1.00800000E+00  1.00800000E+00
  1.60000000E+01  1.00800000E+00  1.00800000E+00  1.60000000E+01  1.00800000E+00
  1.00800000E+00  1.60000000E+01  1.00800000E+00  1.00800000E+00  1.60000000E+01
  1.00800000E+00  1.00800000E+00  1.60000000E+01  1.00800000E+00  1.00800000E+00
  1.60000000E+01  1.00800000E+00  1.00800000E+00  1.60000000E+01  1.00800000E+00
  1.00800000E+00  1.60000000E+01  1.00800000E+00  1.00800000E+00  1.60000000E+01
  1.00800000E+00  1.00800000E+00  1.60000000E+01  1.00800000E+00  1.00800000E+00
  1.60000000E+01  1.00800000E+00  1.00800000E+00  1.60000000E+01  1.00800000E+00
  1.00800000E+00  1.60000000E+01  1.00800000E+00  1.00800000E+00  1.60000000E+01
  1.00800000E+00  1.00800000E+00  1.60000000E+01  1.00800000E+00  1.00800000E+00
  1.60000000E+01  1.00800000E+00  1.00800000E+00  1.60000000E+01  1.00800000E+00
  1.00800000E+00  1.60000000E+01  1.00800000E+00  1.00800000E+00  1.60000000E+01
  1.00800000E+00  1.00800000E+00  1.60000000E+01  1.00800000E+00  1.00800000E+00
  1.60000000E+01  1.00800000E+00  1.00800000E+00  1.60000000E+01  1.00800000E+00
  1.00800000E+00  1.60000000E+01  1.00800000E+00  1.00800000E+00  1.60000000E+01
  1.00800000E+00  1.00800000E+00  1.60000000E+01  1.00800000E+00  1.00800000E+00
  1.60000000E+01  1.00800000E+00  1.00800000E+00  1.60000000E+01  1.00800000E+00
  1.00800000E+00  1.60000000E+01  1.00800000E+00  1.00800000E+00  1.60000000E+01
  1.00800000E+00  1.00800000E+00  1.60000000E+01  1.00800000E+00  1.00800000E+00
  1.60000000E+01  1.00800000E+00  1.00800000E+00  1.60000000E+01  1.00800000E+00
  1.00800000E+00  1.60000000E+01  1.00800000E+00  1.00800000E+00  1.60000000E+01
  1.00800000E+00  1.00800000E+00  1.60000000E+01  1.00800000E+00  1.00800000E+00
  1.60000000E+01  1.00800000E+00  1.00800000E+00  1.60000000E+01  1.00800000E+00
  1.00800000E+00  1.60000000E+01  1.00800000E+00  1.00800000E+00  1.60000000E+01
  1.00800000E+00  1.00800000E+00  1.60000000E+01  1.00800000E+00  1.00800000E+00
  1.60000000E+01  1.00800000E+00  1.00800000E+00  1.60000000E+01  1.00800000E+00
  1.00800000E+00  1.60000000E+01  1.00800000E+00  1.00800000E+00  1.60000000E+01
  1.00800000E+00  1.00800000E+00  1.60000000E+01  1.00800000E+00  1.00800000E+00
  1.60000000E+01  1.00800000E+00  1.00800000E+00  1.60000000E+01  1.00800000E+00
  1.00800000E+00  1.60000000E+01  1.00800000E+00  1.00800000E+00  1.60000000E+01
  1.00800000E+00  1.00800000E+00  1.60000000E+01  1.00800000E+00  1.00800000E+00
  1.60000000E+01  1.00800000E+00  1.00800000E+00  1.60000000E+01  1.00800000E+00
  1.00800000E+00  1.60000000E+01  1.00800000E+00  1.00800000E+00  1.60000000E+01
  1.00800000E+00  1.00800000E+00  1.60000000E+01  1.00800000E+00  1.00800000E+00
  1.60000000E+01  1.00800000E+00  1.00800000E+00  1.60000000E+01  1.00800000E+00
  1.00800000E+00  1.60000000E+01  1.00800000E+00  1.00800000E+00  1.60000000E+01
  1.00800000E+00  1.00800000E+00  1.60000000E+01  1.00800000E+00  1.00800000E+00
  1.60000000E+01  1.00800000E+00  1.00800000E+00  1.60000000E+01  1.00800000E+00
  1.00800000E+00  1.60000000E+01  1.00800000E+00  1.00800000E+00  1.60000000E+01
  1.00800000E+00  1.00800000E+00  1.60000000E+01  1.00800000E+00  1.00800000E+00
  1.60000000E+01  1.00800000E+00  1.00800000E+00  1.60000000E+01  1.00800000E+00
  1.00800000E+00  1.60000000E+01  1.00800000E+00  1.00800000E+00  1.60000000E+01
  1.00800000E+00  1.00800000E+00  1.60000000E+01  1.00800000E+00  1.00800000E+00
  1.60000000E+01  1.00800000E+00  1.00800000E+00  1.60000000E+01  1.00800000E+00
  1.00800000E+00  1.60000000E+01  1.00800000E+00  1.00800000E+00  1.60000000E+01
  1.00800000E+00  1.00800000E+00  1.60000000E+01  1.00800000E+00  1.00800000E+00
  1.60000000E+01  1.00800000E+00  1.00800000E+00  1.60000000E+01  1.00800000E+00
  1.00800000E+00  1.60000000E+01  1.00800000E+00  1.00800000E+00  1.60000000E+01
  1.00800000E+00  1.00800000E+00  1.60000000E+01  1.00800000E+00  1.00800000E+00
  1.60000000E+01  1.00800000E+00  1.00800000E+00  1.60000000E+01  1.00800000E+00
  1.00800000E+00  1.60000000E+01  1.00800000E+00  1.00800000E+00  1.60000000E+01
  1.00800000E+00  1.00800000E+00  1.60000000E+01  1.00800000E+00  1.00800000E+00
  1.60000000E+01  1.00800000E+00  1.00800000E+00  1.60000000E+01  1.00800000E+00
  1.00800000E+00  1.60000000E+01  1.00800000E+00  1.00800000E+00  1.60000000E+01
  1.00800000E+00  1.00800000E+00  1.60000000E+01  1.00800000E+00  1.00800000E+00
  1.60000000E+01  1.00800000E+00  1.00800000E+00  1.60000000E+01  1.00800000E+00
  1.00800000E+00  1.60000000E+01  1.00800000E+00  1.00800000E+00  1.60000000E+01
  1.00800000E+00  1.00800000E+00  1.60000000E+01  1.00800000E+00  1.00800000E+00
  1.60000000E+01  1.00800000E+00  1.00800000E+00  1.60000000E+01  1.00800000E+00
  1.00800000E+00  1.60000000E+01  1.00800000E+00  1.00800000E+00  1.60000000E+01
  1.00800000E+00  1.00800000E+00  1.60000000E+01  1.00800000E+00  1.00800000E+00
  1.60000000E+01  1.00800000E+00  1.00800000E+00  1.60000000E+01  1.00800000E+00
  1.00800000E+00  1.60000000E+01  1.00800000E+00  1.00800000E+00  1.60000000E+01
  1.00800000E+00  1.00800000E+00  1.60000000E+01  1.00800000E+00  1.00800000E+00
  1.60000000E+01  1.00800000E+00  1.00800000E+00  1.60000000E+01  1.00800000E+00
  1.00800000E+00  1.60000000E+01  1.00800000E+00  1.00800000E+00  1.60000000E+01
  1.00800000E+00  1.00800000E+00  1.60000000E+01  1.00800000E+00  1.00800000E+00
  1.60000000E+01  1.00800000E+00  1.00800000E+00  1.60000000E+01  1.00800000E+00
  1.00800000E+00  1.60000000E+01  1.00800000E+00  1.00800000E+00  1.60000000E+01
  1.00800000E+00  1.00800000E+00  1.60000000E+01  1.00800000E+00  1.00800000E+00
  1.60000000E+01  1.00800000E+00  1.00800000E+00  1.60000000E+01  1.00800000E+00
  1.00800000E+00  1.60000000E+01  1.00800000E+00  1.00800000E+00  1.60000000E+01
  1.00800000E+00  1.00800000E+00  1.60000000E+01  1.00800000E+00  1.00800000E+00
  1.60000000E+01  1.00800000E+00  1.00800000E+00  1.60000000E+01  1.00800000E+00
  1.00800000E+00  1.60000000E+01  1.00800000E+00  1.00800000E+00  1.60000000E+01
  1.00800000E+00  1.00800000E+00  1.60000000E+01  1.00800000E+00  1.00800000E+00
  1.60000000E+01  1.00800000E+00  1.00800000E+00  1.60000000E+01  1.00800000E+00
  1.00800000E+00  1.60000000E+01  1.00800000E+00  1.00800000E+00  1.60000000E+01
  1.00800000E+00  1.00800000E+00  1.60000000E+01  1.00800000E+00  1.00800000E+00
  1.60000000E+01  1.00800000E+00  1.00800000E+00  1.60000000E+01  1.00800000E+00
  1.00800000E+00  1.60000000E+01  1.00800000E+00  1.00800000E+00  1.60000000E+01
  1.00800000E+00  1.00800000E+00  1.60000000E+01  1.00800000E+00  1.00800000E+00
  1.60000000E+01  1.00800000E+00  1.00800000E+00  1.60000000E+01  1.00800000E+00
  1.00800000E+00  1.60000000E+01  1.00800000E+00  1.00800000E+00  1.60000000E+01
  1.00800000E+00  1.00800000E+00  1.60000000E+01  1.00800000E+00  1.00800000E+00
  1.60000000E+01  1.00800000E+00  1.00800000E+00  1.60000000E+01  1.00800000E+00
  1.00800000E+00  1.60000000E+01  1.00800000E+00  1.00800000E+00  1.60000000E+01
  1.00800000E+00  1.00800000E+00  1.60000000E+01  1.00800000E+00  1.00800000E+00
  1.60000000E+01  1.00800000E+00  1.00800000E+00  1.60000000E+01  1.00800000E+00
  1.00800000E+00  1.60000000E+01  1.00800000E+00  1.00800000E+00  1.60000000E+01
  1.00800000E+00  1.00800000E+00  1.60000000E+01  1.00800000E+00  1.00800000E+00
  1.60000000E+01  1.00800000E+00  1.00800000E+00  1.60000000E+01  1.00800000E+00
  1.00800000E+00  1.60000000E+01  1.00800000E+00  1.00800000E+00  1.60000000E+01
  1.00800000E+00  1.00800000E+00  1.60000000E+01  1.00800000E+00  1.00800000E+00
  1.60000000E+01  1.00800000E+00  1.00800000E+00  1.60000000E+01  1.00800000E+00
  1.00800000E+00  1.60000000E+01  1.00800000E+00  1.00800000E+00  1.60000000E+01
  1.00800000E+00  1.00800000E+00  1.60000000E+01  1.00800000E+00  1.00800000E+00
  1.60000000E+01  1.00800000E+00  1.00800000E+00  1.60000000E+01  1.00800000E+00
  1.00800000E+00  1.60000000E+01  1.00800000E+00  1.00800000E+00  1.60000000E+01
  1.00800000E+00  1.00800000E+00  1.60000000E+01  1.00800000E+00  1.00800000E+00
  1.60000000E+01  1.00800000E+00  1.00800000E+00  1.60000000E+01  1.00800000E+00
  1.00800000E+00  1.60000000E+01  1.00800000E+00  1.00800000E+00  1.60000000E+01
  1.00800000E+00  1.00800000E+00  1.60000000E+01  1.00800000E+00  1.00800000E+00
  1.60000000E+01  1.00800000E+00  1.00800000E+00  1.60000000E+01  1.00800000E+00
  1.00800000E+00  1.60000000E+01  1.00800000E+00  1.00800000E+00  1.60000000E+01
  1.00800000E+00  1.00800000E+00  1.60000000E+01  1.00800000E+00  1.00800000E+00
  1.60000000E+01  1.00800000E+00  1.00800000E+00  1.60000000E+01  1.00800000E+00
  1.00800000E+00  1.60000000E+01  1.00800000E+00  1.00800000E+00  1.60000000E+01
  1.00800000E+00  1.00800000E+00  1.60000000E+01  1.00800000E+00  1.00800000E+00
  1.60000000E+01  1.00800000E+00  1.00800000E+00  1.60000000E+01  1.00800000E+00
  1.00800000E+00  1.60000000E+01  1.00800000E+00  1.00800000E+00  1.60000000E+01
  1.00800000E+00  1.00800000E+00  1.60000000E+01  1.00800000E+00  1.00800000E+00
  1.60000000E+01  1.00800000E+00  1.00800000E+00  1.60000000E+01  1.00800000E+00
  1.00800000E+00  1.60000000E+01  1.00800000E+00  1.00800000E+00  1.60000000E+01
  1.00800000E+00  1.00800000E+00  1.60000000E+01  1.00800000E+00  1.00800000E+00
  1.60000000E+01  1.00800000E+00  1.00800000E+00  1.60000000E+01  1.00800000E+00
  1.00800000E+00  1.60000000E+01  1.00800000E+00  1.00800000E+00  1.60000000E+01
  1.00800000E+00  1.00800000E+00  1.60000000E+01  1.00800000E+00  1.00800000E+00
  1.60000000E+01  1.00800000E+00  1.00800000E+00  1.60000000E+01  1.00800000E+00
  1.00800000E+00  1.60000000E+01  1.00800000E+00  1.00800000E+00  1.60000000E+01
  1.00800000E+00  1.00800000E+00  1.60000000E+01  1.00800000E+00  1.00800000E+00
  1.60000000E+01  1.00800000E+00  1.00800000E+00  1.60000000E+01  1.00800000E+00
  1.00800000E+00  1.60000000E+01  1.00800000E+00  1.00800000E+00  1.60000000E+01
  1.00800000E+00  1.00800000E+00  1.60000000E+01  1.00800000E+00  1.00800000E+00
  1.60000000E+01  1.00800000E+00  1.00800000E+00  1.60000000E+01  1.00800000E+00
  1.00800000E+00  1.60000000E+01  1.00800000E+00  1.00800000E+00  1.60000000E+01
  1.00800000E+00  1.00800000E+00  1.60000000E+01  1.00800000E+00  1.00800000E+00
  1.60000000E+01  1.00800000E+00  1.00800000E+00  1.60000000E+01  1.00800000E+00
  1.00800000E+00  1.60000000E+01  1.00800000E+00  1.00800000E+00  1.60000000E+01
  1.00800000E+00  1.00800000E+00  1.60000000E+01  1.00800000E+00  1.00800000E+00
  1.60000000E+01  1.00800000E+00  1.00800000E+00  1.60000000E+01  1.00800000E+00
  1.00800000E+00  1.60000000E+01  1.00800000E+00  1.00800000E+00  1.60000000E+01
  1.00800000E+00  1.00800000E+00  1.60000000E+01  1.00800000E+00  1.00800000E+00
  1.60000000E+01  1.00800000E+00  1.00800000E+00  1.60000000E+01  1.00800000E+00
  1.00800000E+00  1.60000000E+01  1.00800000E+00  1.00800000E+00  1.60000000E+01
  1.00800000E+00  1.00800000E+00  1.60000000E+01  1.00800000E+00  1.00800000E+00
  1.60000000E+01  1.00800000E+00  1.00800000E+00  1.60000000E+01  1.00800000E+00
  1.00800000E+00  1.60000000E+01  1.00800000E+00  1.00800000E+00  1.60000000E+01
  1.00800000E+00  1.00800000E+00  1.60000000E+01  1.00800000E+00  1.00800000E+00
  1.60000000E+01  1.00800000E+00  1.00800000E+00  1.60000000E+01  1.00800000E+00
  1.00800000E+00  1.60000000E+01  1.00800000E+00  1.00800000E+00  1.60000000E+01
  1.00800000E+00  1.00800000E+00  1.60000000E+01  1.00800000E+00  1.00800000E+00
  1.60000000E+01  1.00800000E+00  1.00800000E+00  1.60000000E+01  1.00800000E+00
  1.00800000E+00  1.60000000E+01  1.00800000E+00  1.00800000E+00  1.60000000E+01
  1.00800000E+00  1.00800000E+00  1.60000000E+01  1.00800000E+00  1.00800000E+00
  1.60000000E+01  1.00800000E+00  1.00800000E+00  1.60000000E+01  1.00800000E+00
  1.00800000E+00  1.60000000E+01  1.00800000E+00  1.00800000E+00  1.60000000E+01
  1.00800000E+00  1.00800000E+00  1.60000000E+01  1.00800000E+00  1.00800000E+00
  1.60000000E+01  1.00800000E+00  1.00800000E+00  1.60000000E+01  1.00800000E+00
  1.00800000E+00  1.60000000E+01  1.00800000E+00  1.00800000E+00  1.60000000E+01
  1.00800000E+00  1.00800000E+00  1.60000000E+01  1.00800000E+00  1.00800000E+00
  1.60000000E+01  1.00800000E+00  1.00800000E+00  1.60000000E+01  1.00800000E+00
  1.00800000E+00  1.60000000E+01  1.00800000E+00  1.00800000E+00  1.60000000E+01
  1.00800000E+00  1.00800000E+00  1.60000000E+01  1.00800000E+00  1.00800000E+00
  1.60000000E+01  1.00800000E+00  1.00800000E+00  1.60000000E+01  1.00800000E+00
  1.00800000E+00  1.60000000E+01  1.00800000E+00  1.00800000E+00  1.60000000E+01
  1.00800000E+00  1.00800000E+00  1.60000000E+01  1.00800000E+00  1.00800000E+00
  1.60000000E+01  1.00800000E+00  1.00800000E+00  1.60000000E+01  1.00800000E+00
  1.00800000E+00  1.60000000E+01  1.00800000E+00  1.00800000E+00  1.60000000E+01
  1.00800000E+00  1.00800000E+00  1.60000000E+01  1.00800000E+00  1.00800000E+00
  1.60000000E+01  1.00800000E+00  1.00800000E+00  1.60000000E+01  1.00800000E+00
  1.00800000E+00  1.60000000E+01  1.00800000E+00  1.00800000E+00  1.60000000E+01
  1.00800000E+00  1.00800000E+00  1.60000000E+01  1.00800000E+00  1.00800000E+00
  1.60000000E+01  1.00800000E+00  1.00800000E+00  1.60000000E+01  1.00800000E+00
  1.00800000E+00  1.60000000E+01  1.00800000E+00  1.00800000E+00  1.60000000E+01
  1.00800000E+00  1.00800000E+00  1.60000000E+01  1.00800000E+00  1.00800000E+00
  1.60000000E+01  1.00800000E+00  1.00800000E+00  1.60000000E+01  1.00800000E+00
  1.00800000E+00  1.60000000E+01  1.00800000E+00  1.00800000E+00  1.60000000E+01
  1.00800000E+00  1.00800000E+00  1.60000000E+01  1.00800000E+00  1.00800000E+00
  1.60000000E+01  1.00800000E+00  1.00800000E+00  1.60000000E+01  1.00800000E+00
  1.00800000E+00  1.60000000E+01  1.00800000E+00  1.00800000E+00  1.60000000E+01
  1.00800000E+00  1.00800000E+00  1.60000000E+01  1.00800000E+00  1.00800000E+00
  1.60000000E+01  1.00800000E+00  1.00800000E+00  1.60000000E+01  1.00800000E+00
  1.00800000E+00  1.60000000E+01  1.00800000E+00  1.00800000E+00  1.60000000E+01
  1.00800000E+00  1.00800000E+00  1.60000000E+01  1.00800000E+00  1.00800000E+00
  1.60000000E+01  1.00800000E+00  1.00800000E+00  1.60000000E+01  1.00800000E+00
  1.00800000E+00  1.60000000E+01  1.00800000E+00  1.00800000E+00  1.60000000E+01
  1.00800000E+00  1.00800000E+00  1.60000000E+01  1.00800000E+00  1.00800000E+00
  1.60000000E+01  1.00800000E+00  1.00800000E+00  1.60000000E+01  1.00800000E+00
  1.00800000E+00  1.60000000E+01  1.00800000E+00  1.00800000E+00  1.60000000E+01
  1.00800000E+00  1.00800000E+00  1.60000000E+01  1.00800000E+00  1.00800000E+00
  1.60000000E+01  1.00800000E+00  1.00800000E+00  1.60000000E+01  1.00800000E+00
  1.00800000E+00  1.60000000E+01  1.00800000E+00  1.00800000E+00  1.60000000E+01
  1.00800000E+00  1.00800000E+00  1.60000000E+01  1.00800000E+00  1.00800000E+00
  1.60000000E+01  1.00800000E+00  1.00800000E+00  1.60000000E+01  1.00800000E+00
  1.00800000E+00  1.60000000E+01  1.00800000E+00  1.00800000E+00  1.60000000E+01
  1.00800000E+00  1.00800000E+00  1.60000000E+01  1.00800000E+00  1.00800000E+00
  1.60000000E+01  1.00800000E+00  1.00800000E+00  1.60000000E+01  1.00800000E+00
  1.00800000E+00  1.60000000E+01  1.00800000E+00  1.00800000E+00  1.60000000E+01
  1.00800000E+00  1.00800000E+00  1.60000000E+01  1.00800000E+00  1.00800000E+00
  1.60000000E+01  1.00800000E+00  1.00800000E+00  1.60000000E+01  1.00800000E+00
  1.00800000E+00  1.60000000E+01  1.00800000E+00  1.00800000E+00  1.60000000E+01
  1.00800000E+00  1.00800000E+00  1.60000000E+01  1.00800000E+00  1.00800000E+00
  1.60000000E+01  1.00800000E+00  1.00800000E+00  1.60000000E+01  1.00800000E+00
  1.00800000E+00  1.60000000E+01  1.00800000E+00  1.00800000E+00  1.60000000E+01
  1.00800000E+00  1.00800000E+00  1.60000000E+01  1.00800000E+00  1.00800000E+00
  1.60000000E+01  1.00800000E+00  1.00800000E+00  1.60000000E+01  1.00800000E+00
  1.00800000E+00  1.60000000E+01  1.00800000E+00  1.00800000E+00  1.60000000E+01
  1.00800000E+00  1.00800000E+00  1.60000000E+01  1.00800000E+00  1.00800000E+00
  1.60000000E+01  1.00800000E+00  1.00800000E+00  1.60000000E+01  1.00800000E+00
  1.00800000E+00  1.60000000E+01  1.00800000E+00  1.00800000E+00  1.60000000E+01
  1.00800000E+00  1.00800000E+00  1.60000000E+01  1.00800000E+00  1.00800000E+00
  1.60000000E+01  1.00800000E+00  1.00800000E+00  1.60000000E+01  1.00800000E+00
  1.00800000E+00  1.60000000E+01  1.00800000E+00  1.00800000E+00  1.60000000E+01
  1.00800000E+00  1.00800000E+00  1.60000000E+01  1.00800000E+00  1.00800000E+00
  1.60000000E+01  1.00800000E+00  1.00800000E+00  1.60000000E+01  1.00800000E+00
  1.00800000E+00  1.60000000E+01  1.00800000E+00  1.00800000E+00  1.60000000E+01
  1.00800000E+00  1.00800000E+00  1.60000000E+01  1.00800000E+00  1.00800000E+00
  1.60000000E+01  1.00800000E+00  1.00800000E+00  1.60000000E+01  1.00800000E+00
  1.00800000E+00  1.60000000E+01  1.00800000E+00  1.00800000E+00  1.60000000E+01
  1.00800000E+00  1.00800000E+00  1.60000000E+01  1.00800000E+00  1.00800000E+00
  1.60000000E+01  1.00800000E+00  1.00800000E+00  1.60000000E+01  1.00800000E+00
  1.00800000E+00  1.60000000E+01  1.00800000E+00  1.00800000E+00  1.60000000E+01
  1.00800000E+00  1.00800000E+00  1.60000000E+01  1.00800000E+00  1.00800000E+00
  1.60000000E+01  1.00800000E+00  1.00800000E+00  1.60000000E+01  1.00800000E+00
  1.00800000E+00  1.60000000E+01  1.00800000E+00  1.00800000E+00  1.60000000E+01
  1.00800000E+00  1.00800000E+00  1.60000000E+01  1.00800000E+00  1.00800000E+00
  1.60000000E+01  1.00800000E+00  1.00800000E+00  1.60000000E+01  1.00800000E+00
  1.00800000E+00  1.60000000E+01  1.00800000E+00  1.00800000E+00  1.60000000E+01
  1.00800000E+00  1.00800000E+00  1.60000000E+01  1.00800000E+00  1.00800000E+00
  1.60000000E+01  1.00800000E+00  1.00800000E+00  1.60000000E+01  1.00800000E+00
  1.00800000E+00  1.60000000E+01  1.00800000E+00  1.00800000E+00  1.60000000E+01
  1.00800000E+00  1.00800000E+00  1.60000000E+01  1.00800000E+00  1.00800000E+00
  1.60000000E+01  1.00800000E+00  1.00800000E+00  1.60000000E+01  1.00800000E+00
  1.00800000E+00  1.60000000E+01  1.00800000E+00  1.00800000E+00  1.60000000E+01
  1.00800000E+00  1.00800000E+00  1.60000000E+01  1.00800000E+00  1.00800000E+00
  1.60000000E+01  1.00800000E+00  1.00800000E+00  1.60000000E+01  1.00800000E+00
  1.00800000E+00  1.60000000E+01  1.00800000E+00  1.00800000E+00  1.60000000E+01
  1.00800000E+00  1.00800000E+00  1.60000000E+01  1.00800000E+00  1.00800000E+00
  1.60000000E+01  1.00800000E+00  1.00800000E+00  1.60000000E+01  1.00800000E+00
  1.00800000E+00  1.60000000E+01  1.00800000E+00  1.00800000E+00  1.60000000E+01
  1.00800000E+00  1.00800000E+00  1.60000000E+01  1.00800000E+00  1.00800000E+00
  1.60000000E+01  1.00800000E+00  1.00800000E+00  1.60000000E+01  1.00800000E+00
  1.00800000E+00  1.60000000E+01  1.00800000E+00  1.00800000E+00  1.60000000E+01
  1.00800000E+00  1.00800000E+00  1.60000000E+01  1.00800000E+00  1.00800000E+00
  1.60000000E+01  1.00800000E+00  1.00800000E+00  1.60000000E+01  1.00800000E+00
  1.00800000E+00  1.60000000E+01  1.00800000E+00  1.00800000E+00  1.60000000E+01
  1.00800000E+00  1.00800000E+00  1.60000000E+01  1.00800000E+00  1.00800000E+00
  1.60000000E+01  1.00800000E+00  1.00800000E+00  1.60000000E+01  1.00800000E+00
  1.00800000E+00  1.60000000E+01  1.00800000E+00  1.00800000E+00  1.60000000E+01
  1.00800000E+00  1.00800000E+00  1.60000000E+01  1.00800000E+00  1.00800000E+00
  1.60000000E+01  1.00800000E+00  1.00800000E+00  1.60000000E+01  1.00800000E+00
  1.00800000E+00  1.60000000E+01  1.00800000E+00  1.00800000E+00  1.60000000E+01
  1.00800000E+00  1.00800000E+00  1.60000000E+01  1.00800000E+00  1.00800000E+00
  1.60000000E+01  1.00800000E+00  1.00800000E+00  1.60000000E+01  1.00800000E+00
  1.00800000E+00  1.60000000E+01  1.00800000E+00  1.00800000E+00  1.60000000E+01
  1.00800000E+00  1.00800000E+00  1.60000000E+01  1.00800000E+00  1.00800000E+00
  1.60000000E+01  1.00800000E+00  1.00800000E+00  1.60000000E+01  1.00800000E+00
  1.00800000E+00  1.60000000E+01  1.00800000E+00  1.00800000E+00  1.60000000E+01
  1.00800000E+00  1.00800000E+00  1.60000000E+01  1.00800000E+00  1.00800000E+00
  1.60000000E+01  1.00800000E+00  1.00800000E+00  1.60000000E+01  1.00800000E+00
  1.00800000E+00  1.60000000E+01  1.00800000E+00  1.00800000E+00  1.60000000E+01
  1.00800000E+00  1.00800000E+00  1.60000000E+01  1.00800000E+00  1.00800000E+00
  1.60000000E+01  1.00800000E+00  1.00800000E+00  1.60000000E+01  1.00800000E+00
  1.00800000E+00  1.60000000E+01  1.00800000E+00  1.00800000E+00  1.60000000E+01
  1.00800000E+00  1.00800000E+00  1.60000000E+01  1.00800000E+00  1.00800000E+00
  1.60000000E+01  1.00800000E+00  1.00800000E+00  1.60000000E+01  1.00800000E+00
  1.00800000E+00  1.60000000E+01  1.00800000E+00  1.00800000E+00  1.60000000E+01
  1.00800000E+00  1.00800000E+00  1.60000000E+01  1.00800000E+00  1.00800000E+00
  1.60000000E+01  1.00800000E+00  1.00800000E+00  1.60000000E+01  1.00800000E+00
  1.00800000E+00  1.60000000E+01  1.00800000E+00  1.00800000E+00  1.60000000E+01
  1.00800000E+00  1.00800000E+00  1.60000000E+01  1.00800000E+00  1.00800000E+00
  1.60000000E+01  1.00800000E+00  1.00800000E+00  1.60000000E+01  1.00800000E+00
  1.00800000E+00  1.60000000E+01  1.00800000E+00  1.00800000E+00  1.60000000E+01
  1.00800000E+00  1.00800000E+00  1.60000000E+01  1.00800000E+00  1.00800000E+00
  1.60000000E+01  1.00800000E+00  1.00800000E+00  1.60000000E+01  1.00800000E+00
  1.00800000E+00  1.60000000E+01  1.00800000E+00  1.00800000E+00  1.60000000E+01
  1.00800000E+00  1.00800000E+00  1.60000000E+01  1.00800000E+00  1.00800000E+00
  1.60000000E+01  1.00800000E+00  1.00800000E+00  1.60000000E+01  1.00800000E+00
  1.00800000E+00  1.60000000E+01  1.00800000E+00  1.00800000E+00  1.60000000E+01
  1.00800000E+00  1.00800000E+00  1.60000000E+01  1.00800000E+00  1.00800000E+00
  1.60000000E+01  1.00800000E+00  1.00800000E+00  1.60000000E+01  1.00800000E+00
  1.00800000E+00  1.60000000E+01  1.00800000E+00  1.00800000E+00  1.60000000E+01
  1.00800000E+00  1.00800000E+00  1.60000000E+01  1.00800000E+00  1.00800000E+00
  1.60000000E+01  1.00800000E+00  1.00800000E+00  1.60000000E+01  1.00800000E+00
  1.00800000E+00  1.60000000E+01  1.00800000E+00  1.00800000E+00  1.60000000E+01
  1.00800000E+00  1.00800000E+00  1.60000000E+01  1.00800000E+00  1.00800000E+00
  1.60000000E+01  1.00800000E+00  1.00800000E+00  1.60000000E+01  1.00800000E+00
  1.00800000E+00  1.60000000E+01  1.00800000E+00  1.00800000E+00  1.60000000E+01
  1.00800000E+00  1.00800000E+00  1.60000000E+01  1.00800000E+00  1.00800000E+00
  1.60000000E+01  1.00800000E+00  1.00800000E+00  1.60000000E+01  1.00800000E+00
  1.00800000E+00  1.60000000E+01  1.00800000E+00  1.00800000E+00  1.60000000E+01
  1.00800000E+00  1.00800000E+00  1.60000000E+01  1.00800000E+00  1.00800000E+00
  1.60000000E+01  1.00800000E+00  1.00800000E+00  1.60000000E+01  1.00800000E+00
  1.00800000E+00  1.60000000E+01  1.00800000E+00  1.00800000E+00  1.60000000E+01
  1.00800000E+00  1.00800000E+00  1.60000000E+01  1.00800000E+00  1.00800000E+00
  1.60000000E+01  1.00800000E+00  1.00800000E+00  1.60000000E+01  1.00800000E+00
  1.00800000E+00  1.60000000E+01  1.00800000E+00  1.00800000E+00  1.60000000E+01
  1.00800000E+00  1.00800000E+00  1.60000000E+01  1.00800000E+00  1.00800000E+00
  1.60000000E+01  1.00800000E+00  1.00800000E+00  1.60000000E+01  1.00800000E+00
  1.00800000E+00  1.60000000E+01  1.00800000E+00  1.00800000E+00  1.60000000E+01
  1.00800000E+00  1.00800000E+00  1.60000000E+01  1.00800000E+00  1.00800000E+00
  1.60000000E+01  1.00800000E+00  1.00800000E+00  1.60000000E+01  1.00800000E+00
  1.00800000E+00  1.60000000E+01  1.00800000E+00  1.00800000E+00  1.60000000E+01
  1.00800000E+00  1.00800000E+00  1.60000000E+01  1.00800000E+00  1.00800000E+00
  1.60000000E+01  1.00800000E+00  1.00800000E+00  1.60000000E+01  1.00800000E+00
  1.00800000E+00  1.60000000E+01  1.00800000E+00  1.00800000E+00  1.60000000E+01
  1.00800000E+00  1.00800000E+00  1.60000000E+01  1.00800000E+00  1.00800000E+00
  1.60000000E+01  1.00800000E+00  1.00800000E+00  1.60000000E+01  1.00800000E+00
  1.00800000E+00  1.60000000E+01  1.00800000E+00  1.00800000E+00  1.60000000E+01
  1.00800000E+00  1.00800000E+00  1.60000000E+01  1.00800000E+00  1.00800000E+00
  1.60000000E+01  1.00800000E+00  1.00800000E+00  1.60000000E+01  1.00800000E+00
  1.00800000E+00  1.60000000E+01  1.00800000E+00  1.00800000E+00  1.60000000E+01
  1.00800000E+00  1.00800000E+00  1.60000000E+01  1.00800000E+00  1.00800000E+00
  1.60000000E+01  1.00800000E+00  1.00800000E+00  1.60000000E+01  1.00800000E+00
  1.00800000E+00  1.60000000E+01  1.00800000E+00  1.00800000E+00  1.60000000E+01
  1.00800000E+00  1.00800000E+00  1.60000000E+01  1.00800000E+00  1.00800000E+00
  1.60000000E+01  1.00800000E+00  1.00800000E+00  1.60000000E+01  1.00800000E+00
  1.00800000E+00  1.60000000E+01  1.00800000E+00  1.00800000E+00  1.60000000E+01
  1.00800000E+00  1.00800000E+00  1.60000000E+01  1.00800000E+00  1.00800000E+00
  1.60000000E+01  1.00800000E+00  1.00800000E+00  1.60000000E+01  1.00800000E+00
  1.00800000E+00  1.60000000E+01  1.00800000E+00  1.00800000E+00  1.60000000E+01
  1.00800000E+00  1.00800000E+00  1.60000000E+01  1.00800000E+00  1.00800000E+00
  1.60000000E+01  1.00800000E+00  1.00800000E+00  1.60000000E+01  1.00800000E+00
  1.00800000E+00  1.60000000E+01  1.00800000E+00  1.00800000E+00  1.60000000E+01
  1.00800000E+00  1.00800000E+00  1.60000000E+01  1.00800000E+00  1.00800000E+00
  1.60000000E+01  1.00800000E+00  1.00800000E+00  1.60000000E+01  1.00800000E+00
  1.00800000E+00  1.60000000E+01  1.00800000E+00  1.00800000E+00  1.60000000E+01
  1.00800000E+00  1.00800000E+00  1.60000000E+01  1.00800000E+00  1.00800000E+00
  1.60000000E+01  1.00800000E+00  1.00800000E+00  1.60000000E+01  1.00800000E+00
  1.00800000E+00  1.60000000E+01  1.00800000E+00  1.00800000E+00  1.60000000E+01
  1.00800000E+00  1.00800000E+00  1.60000000E+01  1.00800000E+00  1.00800000E+00
  1.60000000E+01  1.00800000E+00  1.00800000E+00  1.60000000E+01  1.00800000E+00
  1.00800000E+00  1.60000000E+01  1.00800000E+00  1.00800000E+00  1.60000000E+01
  1.00800000E+00  1.00800000E+00  1.60000000E+01  1.00800000E+00  1.00800000E+00
  1.60000000E+01  1.00800000E+00  1.00800000E+00  1.60000000E+01  1.00800000E+00
  1.00800000E+00  1.60000000E+01  1.00800000E+00  1.00800000E+00  1.60000000E+01
  1.00800000E+00  1.00800000E+00  1.60000000E+01  1.00800000E+00  1.00800000E+00
  1.60000000E+01  1.00800000E+00  1.00800000E+00  1.60000000E+01  1.00800000E+00
  1.00800000E+00  1.60000000E+01  1.00800000E+00  1.00800000E+00  1.60000000E+01
  1.00800000E+00  1.00800000E+00  1.60000000E+01  1.00800000E+00  1.00800000E+00
  1.60000000E+01  1.00800000E+00  1.00800000E+00  1.60000000E+01  1.00800000E+00
  1.00800000E+00  1.60000000E+01  1.00800000E+00  1.00800000E+00  1.60000000E+01
  1.00800000E+00  1.00800000E+00  1.60000000E+01  1.00800000E+00  1.00800000E+00
  1.60000000E+01  1.00800000E+00  1.00800000E+00  1.60000000E+01  1.00800000E+00
  1.00800000E+00  1.60000000E+01  1.00800000E+00  1.00800000E+00  1.60000000E+01
  1.00800000E+00  1.00800000E+00  1.60000000E+01  1.00800000E+00  1.00800000E+00
  1.60000000E+01  1.00800000E+00  1.00800000E+00  1.60000000E+01  1.00800000E+00
  1.00800000E+00  1.60000000E+01  1.00800000E+00  1.00800000E+00  1.60000000E+01
  1.00800000E+00  1.00800000E+00  1.60000000E+01  1.00800000E+00  1.00800000E+00
  1.60000000E+01  1.00800000E+00  1.00800000E+00  1.60000000E+01  1.00800000E+00
  1.00800000E+00  1.60000000E+01  1.00800000E+00  1.00800000E+00  1.60000000E+01
  1.00800000E+00  1.00800000E+00  1.60000000E+01  1.00800000E+00  1.00800000E+00
  1.60000000E+01  1.00800000E+00  1.00800000E+00  1.60000000E+01  1.00800000E+00
  1.00800000E+00  1.60000000E+01  1.00800000E+00  1.00800000E+00  1.60000000E+01
  1.00800000E+00  1.00800000E+00  1.60000000E+01  1.00800000E+00  1.00800000E+00
  1.60000000E+01  1.00800000E+00  1.00800000E+00  1.60000000E+01  1.00800000E+00
  1.00800000E+00  1.60000000E+01  1.00800000E+00  1.00800000E+00  1.60000000E+01
  1.00800000E+00  1.00800000E+00  1.60000000E+01  1.00800000E+00  1.00800000E+00
  1.60000000E+01  1.00800000E+00  1.00800000E+00  1.60000000E+01  1.00800000E+00
  1.00800000E+00  1.60000000E+01  1.00800000E+00  1.00800000E+00  1.60000000E+01
  1.00800000E+00  1.00800000E+00  1.60000000E+01  1.00800000E+00  1.00800000E+00
  1.60000000E+01  1.00800000E+00  1.00800000E+00  1.60000000E+01  1.00800000E+00
  1.00800000E+00  1.60000000E+01  1.00800000E+00  1.00800000E+00  1.60000000E+01
  1.00800000E+00  1.00800000E+00  1.60000000E+01  1.00800000E+00  1.00800000E+00
  1.60000000E+01  1.00800000E+00  1.00800000E+00  1.60000000E+01  1.00800000E+00
  1.00800000E+00  1.60000000E+01  1.00800000E+00  1.00800000E+00  1.60000000E+01
  1.00800000E+00  1.00800000E+00  1.60000000E+01  1.00800000E+00  1.00800000E+00
  1.60000000E+01  1.00800000E+00  1.00800000E+00  1.60000000E+01  1.00800000E+00
  1.00800000E+00  1.60000000E+01  1.00800000E+00  1.00800000E+00  1.60000000E+01
  1.00800000E+00  1.00800000E+00  1.60000000E+01  1.00800000E+00  1.00800000E+00
  1.60000000E+01  1.00800000E+00  1.00800000E+00  1.60000000E+01  1.00800000E+00
  1.00800000E+00  1.60000000E+01  1.00800000E+00  1.00800000E+00  1.60000000E+01
  1.00800000E+00  1.00800000E+00  1.60000000E+01  1.00800000E+00  1.00800000E+00
  1.60000000E+01  1.00800000E+00  1.00800000E+00  1.60000000E+01  1.00800000E+00
  1.00800000E+00  1.60000000E+01  1.00800000E+00  1.00800000E+00  1.60000000E+01
  1.00800000E+00  1.00800000E+00  1.60000000E+01  1.00800000E+00  1.00800000E+00
  1.60000000E+01  1.00800000E+00  1.00800000E+00  1.60000000E+01  1.00800000E+00
  1.00800000E+00  1.60000000E+01  1.00800000E+00  1.00800000E+00  1.60000000E+01
  1.00800000E+00  1.00800000E+00  1.60000000E+01  1.00800000E+00  1.00800000E+00
  1.60000000E+01  1.00800000E+00  1.00800000E+00  1.60000000E+01  1.00800000E+00
  1.00800000E+00  1.60000000E+01  1.00800000E+00  1.00800000E+00  1.60000000E+01
  1.00800000E+00  1.00800000E+00  1.60000000E+01  1.00800000E+00  1.00800000E+00
  1.60000000E+01  1.00800000E+00  1.00800000E+00  1.60000000E+01  1.00800000E+00
  1.00800000E+00  1.60000000E+01  1.00800000E+00  1.00800000E+00  1.60000000E+01
  1.00800000E+00  1.00800000E+00  1.60000000E+01  1.00800000E+00  1.00800000E+00
  1.60000000E+01  1.00800000E+00  1.00800000E+00  1.60000000E+01  1.00800000E+00
  1.00800000E+00  1.60000000E+01  1.00800000E+00  1.00800000E+00  1.60000000E+01
  1.00800000E+00  1.00800000E+00  1.60000000E+01  1.00800000E+00  1.00800000E+00
  1.60000000E+01  1.00800000E+00  1.00800000E+00  1.60000000E+01  1.00800000E+00
  1.00800000E+00  1.60000000E+01  1.00800000E+00  1.00800000E+00  1.60000000E+01
  1.00800000E+00  1.00800000E+00  1.60000000E+01  1.00800000E+00  1.00800000E+00
  1.60000000E+01  1.00800000E+00  1.00800000E+00  1.60000000E+01  1.00800000E+00
  1.00800000E+00  1.60000000E+01  1.00800000E+00  1.00800000E+00  1.60000000E+01
  1.00800000E+00  1.00800000E+00  1.60000000E+01  1.00800000E+00  1.00800000E+00
  1.60000000E+01  1.00800000E+00  1.00800000E+00  1.60000000E+01  1.00800000E+00
  1.00800000E+00  1.60000000E+01  1.00800000E+00  1.00800000E+00  1.60000000E+01
  1.00800000E+00  1.00800000E+00  1.60000000E+01  1.00800000E+00  1.00800000E+00
  1.60000000E+01  1.00800000E+00  1.00800000E+00  1.60000000E+01  1.00800000E+00
  1.00800000E+00  1.60000000E+01  1.00800000E+00  1.00800000E+00  1.60000000E+01
  1.00800000E+00  1.00800000E+00  1.60000000E+01  1.00800000E+00  1.00800000E+00
  1.60000000E+01  1.00800000E+00  1.00800000E+00  1.60000000E+01  1.00800000E+00
  1.00800000E+00  1.60000000E+01  1.00800000E+00  1.00800000E+00  1.60000000E+01
  1.00800000E+00  1.00800000E+00  1.60000000E+01  1.00800000E+00  1.00800000E+00
  1.60000000E+01  1.00800000E+00  1.00800000E+00  1.60000000E+01  1.00800000E+00
  1.00800000E+00  1.60000000E+01  1.00800000E+00  1.00800000E+00  1.60000000E+01
  1.00800000E+00  1.00800000E+00  1.60000000E+01  1.00800000E+00  1.00800000E+00
  1.60000000E+01  1.00800000E+00  1.00800000E+00  1.60000000E+01  1.00800000E+00
  1.00800000E+00  1.60000000E+01  1.00800000E+00  1.00800000E+00  1.60000000E+01
  1.00800000E+00  1.00800000E+00  1.60000000E+01  1.00800000E+00  1.00800000E+00
  1.60000000E+01  1.00800000E+00  1.00800000E+00  1.60000000E+01  1.00800000E+00
  1.00800000E+00  1.60000000E+01  1.00800000E+00  1.00800000E+00  1.60000000E+01
  1.00800000E+00  1.00800000E+00  1.60000000E+01  1.00800000E+00  1.00800000E+00
  1.60000000E+01  1.00800000E+00  1.00800000E+00  1.60000000E+01  1.00800000E+00
  1.00800000E+00  1.60000000E+01  1.00800000E+00  1.00800000E+00  1.60000000E+01
  1.00800000E+00  1.00800000E+00  1.60000000E+01  1.00800000E+00  1.00800000E+00
  1.60000000E+01  1.00800000E+00  1.00800000E+00  1.60000000E+01  1.00800000E+00
  1.00800000E+00  1.60000000E+01  1.00800000E+00  1.00800000E+00  1.60000000E+01
  1.00800000E+00  1.00800000E+00  1.60000000E+01  1.00800000E+00  1.00800000E+00
  1.60000000E+01  1.00800000E+00  1.00800000E+00  1.60000000E+01  1.00800000E+00
  1.00800000E+00  1.60000000E+01  1.00800000E+00  1.00800000E+00  1.60000000E+01
  1.00800000E+00  1.00800000E+00  1.60000000E+01  1.00800000E+00  1.00800000E+00
  1.60000000E+01  1.00800000E+00  1.00800000E+00  1.60000000E+01  1.00800000E+00
  1.00800000E+00  1.60000000E+01  1.00800000E+00  1.00800000E+00  1.60000000E+01
  1.00800000E+00  1.00800000E+00  1.60000000E+01  1.00800000E+00  1.00800000E+00
  1.60000000E+01  1.00800000E+00  1.00800000E+00  1.60000000E+01  1.00800000E+00
  1.00800000E+00  1.60000000E+01  1.00800000E+00  1.00800000E+00  1.60000000E+01
  1.00800000E+00  1.00800000E+00  1.60000000E+01  1.00800000E+00  1.00800000E+00
  1.60000000E+01  1.00800000E+00  1.00800000E+00  1.60000000E+01  1.00800000E+00
  1.00800000E+00  1.60000000E+01  1.00800000E+00  1.00800000E+00  1.60000000E+01
  1.00800000E+00  1.00800000E+00  1.60000000E+01  1.00800000E+00  1.00800000E+00
  1.60000000E+01  1.00800000E+00  1.00800000E+00  1.60000000E+01  1.00800000E+00
  1.00800000E+00  1.60000000E+01  1.00800000E+00  1.00800000E+00  1.60000000E+01
  1.00800000E+00  1.00800000E+00  1.60000000E+01  1.00800000E+00  1.00800000E+00
  1.60000000E+01  1.00800000E+00  1.00800000E+00  1.60000000E+01  1.00800000E+00
  1.00800000E+00  1.60000000E+01  1.00800000E+00  1.00800000E+00  1.60000000E+01
  1.00800000E+00  1.00800000E+00  1.60000000E+01  1.00800000E+00  1.00800000E+00
  1.60000000E+01  1.00800000E+00  1.00800000E+00  1.60000000E+01  1.00800000E+00
  1.00800000E+00  1.60000000E+01  1.00800000E+00  1.00800000E+00  1.60000000E+01
  1.00800000E+00  1.00800000E+00  1.60000000E+01  1.00800000E+00  1.00800000E+00
  1.60000000E+01  1.00800000E+00  1.00800000E+00  1.60000000E+01  1.00800000E+00
  1.00800000E+00  1.60000000E+01  1.00800000E+00  1.00800000E+00  1.60000000E+01
  1.00800000E+00  1.00800000E+00  1.60000000E+01  1.00800000E+00  1.00800000E+00
  1.60000000E+01  1.00800000E+00  1.00800000E+00  1.60000000E+01  1.00800000E+00
  1.00800000E+00  1.60000000E+01  1.00800000E+00  1.00800000E+00  1.60000000E+01
  1.00800000E+00  1.00800000E+00  1.60000000E+01  1.00800000E+00  1.00800000E+00
  1.60000000E+01  1.00800000E+00  1.00800000E+00  1.60000000E+01  1.00800000E+00
  1.00800000E+00  1.60000000E+01  1.00800000E+00  1.00800000E+00  1.60000000E+01
  1.00800000E+00  1.00800000E+00  1.60000000E+01  1.00800000E+00  1.00800000E+00
  1.60000000E+01  1.00800000E+00  1.00800000E+00  1.60000000E+01  1.00800000E+00
  1.00800000E+00  1.60000000E+01  1.00800000E+00  1.00800000E+00  1.60000000E+01
  1.00800000E+00  1.00800000E+00  1.60000000E+01  1.00800000E+00  1.00800000E+00
  1.60000000E+01  1.00800000E+00  1.00800000E+00  1.60000000E+01  1.00800000E+00
  1.00800000E+00  1.60000000E+01  1.00800000E+00  1.00800000E+00  1.60000000E+01
  1.00800000E+00  1.00800000E+00  1.60000000E+01  1.00800000E+00  1.00800000E+00
  1.60000000E+01  1.00800000E+00  1.00800000E+00  1.60000000E+01  1.00800000E+00
  1.00800000E+00  1.60000000E+01  1.00800000E+00  1.00800000E+00  1.60000000E+01
  1.00800000E+00  1.00800000E+00  1.60000000E+01  1.00800000E+00  1.00800000E+00
  1.60000000E+01  1.00800000E+00  1.00800000E+00  1.60000000E+01  1.00800000E+00
  1.00800000E+00  1.60000000E+01  1.00800000E+00  1.00800000E+00  1.60000000E+01
  1.00800000E+00  1.00800000E+00  1.60000000E+01  1.00800000E+00  1.00800000E+00
  1.60000000E+01  1.00800000E+00  1.00800000E+00  1.60000000E+01  1.00800000E+00
  1.00800000E+00  1.60000000E+01  1.00800000E+00  1.00800000E+00  1.60000000E+01
  1.00800000E+00  1.00800000E+00  1.60000000E+01  1.00800000E+00  1.00800000E+00
  1.60000000E+01  1.00800000E+00  1.00800000E+00  1.60000000E+01  1.00800000E+00
  1.00800000E+00  1.60000000E+01  1.00800000E+00  1.00800000E+00  1.60000000E+01
  1.00800000E+00  1.00800000E+00  1.60000000E+01  1.00800000E+00  1.00800000E+00
  1.60000000E+01  1.00800000E+00  1.00800000E+00  1.60000000E+01  1.00800000E+00
  1.00800000E+00  1.60000000E+01  1.00800000E+00  1.00800000E+00  1.60000000E+01
  1.00800000E+00  1.00800000E+00  1.60000000E+01  1.00800000E+00  1.00800000E+00
  1.60000000E+01  1.00800000E+00  1.00800000E+00  1.60000000E+01  1.00800000E+00
  1.00800000E+00  1.60000000E+01  1.00800000E+00  1.00800000E+00  1.60000000E+01
  1.00800000E+00  1.00800000E+00  1.60000000E+01  1.00800000E+00  1.00800000E+00
  1.60000000E+01  1.00800000E+00  1.00800000E+00  1.60000000E+01  1.00800000E+00
  1.00800000E+00  1.60000000E+01  1.00800000E+00  1.00800000E+00  1.60000000E+01
  1.00800000E+00  1.00800000E+00  1.60000000E+01  1.00800000E+00  1.00800000E+00
  1.60000000E+01  1.00800000E+00  1.00800000E+00  1.60000000E+01  1.00800000E+00
  1.00800000E+00  1.60000000E+01  1.00800000E+00  1.00800000E+00  1.60000000E+01
  1.00800000E+00  1.00800000E+00  1.60000000E+01  1.00800000E+00  1.00800000E+00
  1.60000000E+01  1.00800000E+00  1.00800000E+00  1.60000000E+01  1.00800000E+00
  1.00800000E+00  1.60000000E+01  1.00800000E+00  1.00800000E+00  1.60000000E+01
  1.00800000E+00  1.00800000E+00  1.60000000E+01  1.00800000E+00  1.00800000E+00
  1.60000000E+01  1.00800000E+00  1.00800000E+00  1.60000000E+01  1.00800000E+00
  1.00800000E+00  1.60000000E+01  1.00800000E+00  1.00800000E+00  1.60000000E+01
  1.00800000E+00  1.00800000E+00  1.60000000E+01  1.00800000E+00  1.00800000E+00
  1.60000000E+01  1.00800000E+00  1.00800000E+00  1.60000000E+01  1.00800000E+00
  1.00800000E+00  1.60000000E+01  1.00800000E+00  1.00800000E+00  1.60000000E+01
  1.00800000E+00  1.00800000E+00  1.60000000E+01  1.00800000E+00  1.00800000E+00
  1.60000000E+01  1.00800000E+00  1.00800000E+00  1.60000000E+01  1.00800000E+00
  1.00800000E+00  1.60000000E+01  1.00800000E+00  1.00800000E+00  1.60000000E+01
  1.00800000E+00  1.00800000E+00  1.60000000E+01  1.00800000E+00  1.00800000E+00
  1.60000000E+01  1.00800000E+00  1.00800000E+00  1.60000000E+01  1.00800000E+00
  1.00800000E+00  1.60000000E+01  1.00800000E+00  1.00800000E+00  1.60000000E+01
  1.00800000E+00  1.00800000E+00  1.60000000E+01  1.00800000E+00  1.00800000E+00
  1.60000000E+01  1.00800000E+00  1.00800000E+00  1.60000000E+01  1.00800000E+00
  1.00800000E+00  1.60000000E+01  1.00800000E+00  1.00800000E+00  1.60000000E+01
  1.00800000E+00  1.00800000E+00  1.60000000E+01  1.00800000E+00  1.00800000E+00
  1.60000000E+01  1.00800000E+00  1.00800000E+00  1.60000000E+01  1.00800000E+00
  1.00800000E+00  1.60000000E+01  1.00800000E+00  1.00800000E+00  1.60000000E+01
  1.00800000E+00  1.00800000E+00  1.60000000E+01  1.00800000E+00  1.00800000E+00
  1.60000000E+01  1.00800000E+00  1.00800000E+00  1.60000000E+01  1.00800000E+00
  1.00800000E+00  1.60000000E+01  1.00800000E+00  1.00800000E+00  1.60000000E+01
  1.00800000E+00  1.00800000E+00  1.60000000E+01  1.00800000E+00  1.00800000E+00
  1.60000000E+01  1.00800000E+00  1.00800000E+00  1.60000000E+01  1.00800000E+00
  1.00800000E+00  1.60000000E+01  1.00800000E+00  1.00800000E+00  1.60000000E+01
  1.00800000E+00  1.00800000E+00  1.60000000E+01  1.00800000E+00  1.00800000E+00
  1.60000000E+01  1.00800000E+00  1.00800000E+00  1.60000000E+01  1.00800000E+00
  1.00800000E+00  1.60000000E+01  1.00800000E+00  1.00800000E+00  1.60000000E+01
  1.00800000E+00  1.00800000E+00  1.60000000E+01  1.00800000E+00  1.00800000E+00
  1.60000000E+01  1.00800000E+00  1.00800000E+00  1.60000000E+01  1.00800000E+00
  1.00800000E+00  1.60000000E+01  1.00800000E+00  1.00800000E+00  1.60000000E+01
  1.00800000E+00  1.00800000E+00  1.60000000E+01  1.00800000E+00  1.00800000E+00
  1.60000000E+01  1.00800000E+00  1.00800000E+00  1.60000000E+01  1.00800000E+00
  1.00800000E+00  1.60000000E+01  1.00800000E+00  1.00800000E+00  1.60000000E+01
  1.00800000E+00  1.00800000E+00  1.60000000E+01  1.00800000E+00  1.00800000E+00
  1.60000000E+01  1.00800000E+00  1.00800000E+00  1.60000000E+01  1.00800000E+00
  1.00800000E+00  1.60000000E+01  1.00800000E+00  1.00800000E+00  1.60000000E+01
  1.00800000E+00  1.00800000E+00  1.60000000E+01  1.00800000E+00  1.00800000E+00
  1.60000000E+01  1.00800000E+00  1.00800000E+00  1.60000000E+01  1.00800000E+00
  1.00800000E+00  1.60000000E+01  1.00800000E+00  1.00800000E+00  1.60000000E+01
  1.00800000E+00  1.00800000E+00  1.60000000E+01  1.00800000E+00  1.00800000E+00
  1.60000000E+01  1.00800000E+00  1.00800000E+00  1.60000000E+01  1.00800000E+00
  1.00800000E+00  1.60000000E+01  1.00800000E+00  1.00800000E+00  1.60000000E+01
  1.00800000E+00  1.00800000E+00  1.60000000E+01  1.00800000E+00  1.00800000E+00
  1.60000000E+01  1.00800000E+00  1.00800000E+00  1.60000000E+01  1.00800000E+00
  1.00800000E+00  1.60000000E+01  1.00800000E+00  1.00800000E+00  1.60000000E+01
  1.00800000E+00  1.00800000E+00  1.60000000E+01  1.00800000E+00  1.00800000E+00
  1.60000000E+01  1.00800000E+00  1.00800000E+00  1.60000000E+01  1.00800000E+00
  1.00800000E+00  1.60000000E+01  1.00800000E+00  1.00800000E+00  1.60000000E+01
  1.00800000E+00  1.00800000E+00  1.60000000E+01  1.00800000E+00  1.00800000E+00
  1.60000000E+01  1.00800000E+00  1.00800000E+00  1.60000000E+01  1.00800000E+00
  1.00800000E+00  1.60000000E+01  1.00800000E+00  1.00800000E+00  1.60000000E+01
  1.00800000E+00  1.00800000E+00  1.60000000E+01  1.00800000E+00  1.00800000E+00
  1.60000000E+01  1.00800000E+00  1.00800000E+00  1.60000000E+01  1.00800000E+00
  1.00800000E+00  1.60000000E+01  1.00800000E+00  1.00800000E+00  1.60000000E+01
  1.00800000E+00  1.00800000E+00  1.60000000E+01  1.00800000E+00  1.00800000E+00
  1.60000000E+01  1.00800000E+00  1.00800000E+00  1.60000000E+01  1.00800000E+00
  1.00800000E+00  1.60000000E+01  1.00800000E+00  1.00800000E+00  1.60000000E+01
  1.00800000E+00  1.00800000E+00  1.60000000E+01  1.00800000E+00  1.00800000E+00
  1.60000000E+01  1.00800000E+00  1.00800000E+00  1.60000000E+01  1.00800000E+00
  1.00800000E+00  1.60000000E+01  1.00800000E+00  1.00800000E+00  1.60000000E+01
  1.00800000E+00  1.00800000E+00  1.60000000E+01  1.00800000E+00  1.00800000E+00
  1.60000000E+01  1.00800000E+00  1.00800000E+00  1.60000000E+01  1.00800000E+00
  1.00800000E+00  1.60000000E+01  1.00800000E+00  1.00800000E+00  1.60000000E+01
  1.00800000E+00  1.00800000E+00  1.60000000E+01  1.00800000E+00  1.00800000E+00
  1.60000000E+01  1.00800000E+00  1.00800000E+00  1.60000000E+01  1.00800000E+00
  1.00800000E+00  1.60000000E+01  1.00800000E+00  1.00800000E+00  1.60000000E+01
  1.00800000E+00  1.00800000E+00  1.60000000E+01  1.00800000E+00  1.00800000E+00
  1.60000000E+01  1.00800000E+00  1.00800000E+00  1.60000000E+01  1.00800000E+00
  1.00800000E+00  1.60000000E+01  1.00800000E+00  1.00800000E+00  1.60000000E+01
  1.00800000E+00  1.00800000E+00  1.60000000E+01  1.00800000E+00  1.00800000E+00
  1.60000000E+01  1.00800000E+00  1.00800000E+00  1.60000000E+01  1.00800000E+00
  1.00800000E+00  1.60000000E+01  1.00800000E+00  1.00800000E+00  1.60000000E+01
  1.00800000E+00  1.00800000E+00  1.60000000E+01  1.00800000E+00  1.00800000E+00
  1.60000000E+01  1.00800000E+00  1.00800000E+00  1.60000000E+01  1.00800000E+00
  1.00800000E+00  1.60000000E+01  1.00800000E+00  1.00800000E+00  1.60000000E+01
  1.00800000E+00  1.00800000E+00  1.60000000E+01  1.00800000E+00  1.00800000E+00
  1.60000000E+01  1.00800000E+00  1.00800000E+00  1.60000000E+01  1.00800000E+00
  1.00800000E+00  1.60000000E+01  1.00800000E+00  1.00800000E+00  1.60000000E+01
  1.00800000E+00  1.00800000E+00  1.60000000E+01  1.00800000E+00  1.00800000E+00
  1.60000000E+01  1.00800000E+00  1.00800000E+00  1.60000000E+01  1.00800000E+00
  1.00800000E+00  1.60000000E+01  1.00800000E+00  1.00800000E+00  1.60000000E+01
  1.00800000E+00  1.00800000E+00  1.60000000E+01  1.00800000E+00  1.00800000E+00
  1.60000000E+01  1.00800000E+00  1.00800000E+00  1.60000000E+01  1.00800000E+00
  1.00800000E+00  1.60000000E+01  1.00800000E+00  1.00800000E+00  1.60000000E+01
  1.00800000E+00  1.00800000E+00  1.60000000E+01  1.00800000E+00  1.00800000E+00
  1.60000000E+01  1.00800000E+00  1.00800000E+00  1.60000000E+01  1.00800000E+00
  1.00800000E+00  1.60000000E+01  1.00800000E+00  1.00800000E+00  1.60000000E+01
  1.00800000E+00  1.00800000E+00  1.60000000E+01  1.00800000E+00  1.00800000E+00
  1.60000000E+01  1.00800000E+00  1.00800000E+00  1.60000000E+01  1.00800000E+00
  1.00800000E+00  1.60000000E+01  1.00800000E+00  1.00800000E+00  1.60000000E+01
  1.00800000E+00  1.00800000E+00  1.60000000E+01  1.00800000E+00  1.00800000E+00
  1.60000000E+01  1.00800000E+00  1.00800000E+00  1.60000000E+01  1.00800000E+00
  1.00800000E+00  1.60000000E+01  1.00800000E+00  1.00800000E+00  1.60000000E+01
  1.00800000E+00  1.00800000E+00  1.60000000E+01  1.00800000E+00  1.00800000E+00
  1.60000000E+01  1.00800000E+00  1.00800000E+00  1.60000000E+01  1.00800000E+00
  1.00800000E+00  1.60000000E+01  1.00800000E+00  1.00800000E+00  1.60000000E+01
  1.00800000E+00  1.00800000E+00  1.60000000E+01  1.00800000E+00  1.00800000E+00
  1.60000000E+01  1.00800000E+00  1.00800000E+00  1.60000000E+01  1.00800000E+00
  1.00800000E+00  1.60000000E+01  1.00800000E+00  1.00800000E+00  1.60000000E+01
  1.00800000E+00  1.00800000E+00  1.60000000E+01  1.00800000E+00  1.00800000E+00
  1.60000000E+01  1.00800000E+00  1.00800000E+00  1.60000000E+01  1.00800000E+00
  1.00800000E+00  1.60000000E+01  1.00800000E+00  1.00800000E+00  1.60000000E+01
  1.00800000E+00  1.00800000E+00  1.60000000E+01  1.00800000E+00  1.00800000E+00
  1.60000000E+01  1.00800000E+00  1.00800000E+00  1.60000000E+01  1.00800000E+00
  1.00800000E+00  1.60000000E+01  1.00800000E+00  1.00800000E+00  1.60000000E+01
  1.00800000E+00  1.00800000E+00  1.60000000E+01  1.00800000E+00  1.00800000E+00
  1.60000000E+01  1.00800000E+00  1.00800000E+00  1.60000000E+01  1.00800000E+00
  1.00800000E+00  1.60000000E+01  1.00800000E+00  1.00800000E+00  1.60000000E+01
  1.00800000E+00  1.00800000E+00  1.60000000E+01  1.00800000E+00  1.00800000E+00
  1.60000000E+01  1.00800000E+00  1.00800000E+00  1.60000000E+01  1.00800000E+00
  1.00800000E+00  1.60000000E+01  1.00800000E+00  1.00800000E+00  1.60000000E+01
  1.00800000E+00  1.00800000E+00  1.60000000E+01  1.00800000E+00  1.00800000E+00
  1.60000000E+01  1.00800000E+00  1.00800000E+00  1.60000000E+01  1.00800000E+00
  1.00800000E+00  1.60000000E+01  1.00800000E+00  1.00800000E+00  1.60000000E+01
  1.00800000E+00  1.00800000E+00  1.60000000E+01  1.00800000E+00  1.00800000E+00
  1.60000000E+01  1.00800000E+00  1.00800000E+00  1.60000000E+01  1.00800000E+00
  1.00800000E+00  1.60000000E+01  1.00800000E+00  1.00800000E+00  1.60000000E+01
  1.00800000E+00  1.00800000E+00  1.60000000E+01  1.00800000E+00  1.00800000E+00
  1.60000000E+01  1.00800000E+00  1.00800000E+00  1.60000000E+01  1.00800000E+00
  1.00800000E+00  1.60000000E+01  1.00800000E+00  1.00800000E+00  1.60000000E+01
  1.00800000E+00  1.00800000E+00  1.60000000E+01  1.00800000E+00  1.00800000E+00
  1.60000000E+01  1.00800000E+00  1.00800000E+00  1.60000000E+01  1.00800000E+00
  1.00800000E+00  1.60000000E+01  1.00800000E+00  1.00800000E+00  1.60000000E+01
  1.00800000E+00  1.00800000E+00  1.60000000E+01  1.00800000E+00  1.00800000E+00
  1.60000000E+01  1.00800000E+00  1.00800000E+00  1.60000000E+01  1.00800000E+00
  1.00800000E+00  1.60000000E+01  1.00800000E+00  1.00800000E+00  1.60000000E+01
  1.00800000E+00  1.00800000E+00  1.60000000E+01  1.00800000E+00  1.00800000E+00
  1.60000000E+01  1.00800000E+00  1.00800000E+00  1.60000000E+01  1.00800000E+00
  1.00800000E+00  1.60000000E+01  1.00800000E+00  1.00800000E+00  1.60000000E+01
  1.00800000E+00  1.00800000E+00  1.60000000E+01  1.00800000E+00  1.00800000E+00
  1.60000000E+01  1.00800000E+00  1.00800000E+00  1.60000000E+01  1.00800000E+00
  1.00800000E+00  1.60000000E+01  1.00800000E+00  1.00800000E+00  1.60000000E+01
  1.00800000E+00  1.00800000E+00  1.60000000E+01  1.00800000E+00  1.00800000E+00
  1.60000000E+01  1.00800000E+00  1.00800000E+00  1.60000000E+01  1.00800000E+00
  1.00800000E+00  1.60000000E+01  1.00800000E+00  1.00800000E+00  1.60000000E+01
  1.00800000E+00  1.00800000E+00  1.60000000E+01  1.00800000E+00  1.00800000E+00
  1.60000000E+01  1.00800000E+00  1.00800000E+00  1.60000000E+01  1.00800000E+00
  1.00800000E+00  1.60000000E+01  1.00800000E+00  1.00800000E+00  1.60000000E+01
  1.00800000E+00  1.00800000E+00  1.60000000E+01  1.00800000E+00  1.00800000E+00
  1.60000000E+01  1.00800000E+00  1.00800000E+00  1.60000000E+01  1.00800000E+00
  1.00800000E+00  1.60000000E+01  1.00800000E+00  1.00800000E+00  1.60000000E+01
  1.00800000E+00  1.00800000E+00  1.60000000E+01  1.00800000E+00  1.00800000E+00
  1.60000000E+01  1.00800000E+00  1.00800000E+00  1.60000000E+01  1.00800000E+00
  1.00800000E+00  1.60000000E+01  1.00800000E+00  1.00800000E+00  1.60000000E+01
  1.00800000E+00  1.00800000E+00  1.60000000E+01  1.00800000E+00  1.00800000E+00
  1.60000000E+01  1.00800000E+00  1.00800000E+00  1.60000000E+01  1.00800000E+00
  1.00800000E+00  1.60000000E+01  1.00800000E+00  1.00800000E+00  1.60000000E+01
  1.00800000E+00  1.00800000E+00  1.60000000E+01  1.00800000E+00  1.00800000E+00
  1.60000000E+01  1.00800000E+00  1.00800000E+00  1.60000000E+01  1.00800000E+00
  1.00800000E+00  1.60000000E+01  1.00800000E+00  1.00800000E+00  1.60000000E+01
  1.00800000E+00  1.00800000E+00  1.60000000E+01  1.00800000E+00  1.00800000E+00
  1.60000000E+01  1.00800000E+00  1.00800000E+00  1.60000000E+01  1.00800000E+00
  1.00800000E+00  1.60000000E+01  1.00800000E+00  1.00800000E+00  1.60000000E+01
  1.00800000E+00  1.00800000E+00  1.60000000E+01  1.00800000E+00  1.00800000E+00
  1.60000000E+01  1.00800000E+00  1.00800000E+00  1.60000000E+01  1.00800000E+00
  1.00800000E+00  1.60000000E+01  1.00800000E+00  1.00800000E+00  1.60000000E+01
  1.00800000E+00  1.00800000E+00  1.60000000E+01  1.00800000E+00  1.00800000E+00
  1.60000000E+01  1.00800000E+00  1.00800000E+00  1.60000000E+01  1.00800000E+00
  1.00800000E+00  1.60000000E+01  1.00800000E+00  1.00800000E+00  1.60000000E+01
  1.00800000E+00  1.00800000E+00  1.60000000E+01  1.00800000E+00  1.00800000E+00
  1.60000000E+01  1.00800000E+00  1.00800000E+00  1.60000000E+01  1.00800000E+00
  1.00800000E+00  1.60000000E+01  1.00800000E+00  1.00800000E+00  1.60000000E+01
  1.00800000E+00  1.00800000E+00  1.60000000E+01  1.00800000E+00  1.00800000E+00
  1.60000000E+01  1.00800000E+00  1.00800000E+00  1.60000000E+01  1.00800000E+00
  1.00800000E+00  1.60000000E+01  1.00800000E+00  1.00800000E+00  1.60000000E+01
  1.00800000E+00  1.00800000E+00  1.60000000E+01  1.00800000E+00  1.00800000E+00
  1.60000000E+01  1.00800000E+00  1.00800000E+00  1.60000000E+01  1.00800000E+00
  1.00800000E+00  1.60000000E+01  1.00800000E+00  1.00800000E+00  1.60000000E+01
  1.00800000E+00  1.00800000E+00  1.60000000E+01  1.00800000E+00  1.00800000E+00
  1.60000000E+01  1.00800000E+00  1.00800000E+00  1.60000000E+01  1.00800000E+00
  1.00800000E+00  1.60000000E+01  1.00800000E+00  1.00800000E+00  1.60000000E+01
  1.00800000E+00  1.00800000E+00  1.60000000E+01  1.00800000E+00  1.00800000E+00
  1.60000000E+01  1.00800000E+00  1.00800000E+00  1.60000000E+01  1.00800000E+00
  1.00800000E+00  1.60000000E+01  1.00800000E+00  1.00800000E+00  1.60000000E+01
  1.00800000E+00  1.00800000E+00  1.60000000E+01  1.00800000E+00  1.00800000E+00
  1.60000000E+01  1.00800000E+00  1.00800000E+00  1.60000000E+01  1.00800000E+00
  1.00800000E+00  1.60000000E+01  1.00800000E+00  1.00800000E+00  1.60000000E+01
  1.00800000E+00  1.00800000E+00  1.60000000E+01  1.00800000E+00  1.00800000E+00
  1.60000000E+01  1.00800000E+00  1.00800000E+00  1.60000000E+01  1.00800000E+00
  1.00800000E+00  1.60000000E+01  1.00800000E+00  1.00800000E+00  1.60000000E+01
  1.00800000E+00  1.00800000E+00  1.60000000E+01  1.00800000E+00  1.00800000E+00
  1.60000000E+01  1.00800000E+00  1.00800000E+00  1.60000000E+01  1.00800000E+00
  1.00800000E+00  1.60000000E+01  1.00800000E+00  1.00800000E+00  1.60000000E+01
  1.00800000E+00  1.00800000E+00  1.60000000E+01  1.00800000E+00  1.00800000E+00
  1.60000000E+01  1.00800000E+00  1.00800000E+00  1.60000000E+01  1.00800000E+00
  1.00800000E+00  1.60000000E+01  1.00800000E+00  1.00800000E+00  1.60000000E+01
  1.00800000E+00  1.00800000E+00  1.60000000E+01  1.00800000E+00  1.00800000E+00
  1.60000000E+01  1.00800000E+00  1.00800000E+00  1.60000000E+01  1.00800000E+00
  1.00800000E+00  1.60000000E+01  1.00800000E+00  1.00800000E+00  1.60000000E+01
  1.00800000E+00  1.00800000E+00  1.60000000E+01  1.00800000E+00  1.00800000E+00
  1.60000000E+01  1.00800000E+00  1.00800000E+00  1.60000000E+01  1.00800000E+00
  1.00800000E+00  1.60000000E+01  1.00800000E+00  1.00800000E+00  1.60000000E+01
  1.00800000E+00  1.00800000E+00  1.60000000E+01  1.00800000E+00  1.00800000E+00
  1.60000000E+01  1.00800000E+00  1.00800000E+00  1.60000000E+01  1.00800000E+00
  1.00800000E+00  1.60000000E+01  1.00800000E+00  1.00800000E+00  1.60000000E+01
  1.00800000E+00  1.00800000E+00  1.60000000E+01  1.00800000E+00  1.00800000E+00
  1.60000000E+01  1.00800000E+00  1.00800000E+00  1.60000000E+01  1.00800000E+00
  1.00800000E+00  1.60000000E+01  1.00800000E+00  1.00800000E+00  1.60000000E+01
  1.00800000E+00  1.00800000E+00  1.60000000E+01  1.00800000E+00  1.00800000E+00
  1.60000000E+01  1.00800000E+00  1.00800000E+00  1.60000000E+01  1.00800000E+00
  1.00800000E+00  1.60000000E+01  1.00800000E+00  1.00800000E+00  1.60000000E+01
  1.00800000E+00  1.00800000E+00  1.60000000E+01  1.00800000E+00  1.00800000E+00
  1.60000000E+01  1.00800000E+00  1.00800000E+00  1.60000000E+01  1.00800000E+00
  1.00800000E+00  1.60000000E+01  1.00800000E+00  1.00800000E+00  1.60000000E+01
  1.00800000E+00  1.00800000E+00  1.60000000E+01  1.00800000E+00  1.00800000E+00
  1.60000000E+01  1.00800000E+00  1.00800000E+00  1.60000000E+01  1.00800000E+00
  1.00800000E+00  1.60000000E+01  1.00800000E+00  1.00800000E+00  1.60000000E+01
  1.00800000E+00  1.00800000E+00  1.60000000E+01  1.00800000E+00  1.00800000E+00
  1.60000000E+01  1.00800000E+00  1.00800000E+00  1.60000000E+01  1.00800000E+00
  1.00800000E+00  1.60000000E+01  1.00800000E+00  1.00800000E+00  1.60000000E+01
  1.00800000E+00  1.00800000E+00  1.60000000E+01  1.00800000E+00  1.00800000E+00
  1.60000000E+01  1.00800000E+00  1.00800000E+00  1.60000000E+01  1.00800000E+00
  1.00800000E+00  1.60000000E+01  1.00800000E+00  1.00800000E+00  1.60000000E+01
  1.00800000E+00  1.00800000E+00  1.60000000E+01  1.00800000E+00  1.00800000E+00
  1.60000000E+01  1.00800000E+00  1.00800000E+00  1.60000000E+01  1.00800000E+00
  1.00800000E+00  1.60000000E+01  1.00800000E+00  1.00800000E+00  1.60000000E+01
  1.00800000E+00  1.00800000E+00  1.60000000E+01  1.00800000E+00  1.00800000E+00
  1.60000000E+01  1.00800000E+00  1.00800000E+00  1.60000000E+01  1.00800000E+00
  1.00800000E+00  1.60000000E+01  1.00800000E+00  1.00800000E+00  1.60000000E+01
  1.00800000E+00  1.00800000E+00  1.60000000E+01  1.00800000E+00  1.00800000E+00
  1.60000000E+01  1.00800000E+00  1.00800000E+00  1.60000000E+01  1.00800000E+00
  1.00800000E+00  1.60000000E+01  1.00800000E+00  1.00800000E+00  1.60000000E+01
  1.00800000E+00  1.00800000E+00  1.60000000E+01  1.00800000E+00  1.00800000E+00
  1.60000000E+01  1.00800000E+00  1.00800000E+00  1.60000000E+01  1.00800000E+00
  1.00800000E+00  1.60000000E+01  1.00800000E+00  1.00800000E+00  1.60000000E+01
  1.00800000E+00  1.00800000E+00  1.60000000E+01  1.00800000E+00  1.00800000E+00
  1.60000000E+01  1.00800000E+00  1.00800000E+00  1.60000000E+01  1.00800000E+00
  1.00800000E+00  1.60000000E+01  1.00800000E+00  1.00800000E+00  1.60000000E+01
  1.00800000E+00  1.00800000E+00  1.60000000E+01  1.00800000E+00  1.00800000E+00
  1.60000000E+01  1.00800000E+00  1.00800000E+00  1.60000000E+01  1.00800000E+00
  1.00800000E+00  1.60000000E+01  1.00800000E+00  1.00800000E+00  1.60000000E+01
  1.00800000E+00  1.00800000E+00  1.60000000E+01  1.00800000E+00  1.00800000E+00
  1.60000000E+01  1.00800000E+00  1.00800000E+00  1.60000000E+01  1.00800000E+00
  1.00800000E+00  1.60000000E+01  1.00800000E+00  1.00800000E+00  1.60000000E+01
  1.00800000E+00  1.00800000E+00  1.60000000E+01  1.00800000E+00  1.00800000E+00
  1.60000000E+01  1.00800000E+00  1.00800000E+00  1.60000000E+01  1.00800000E+00
  1.00800000E+00  1.60000000E+01  1.00800000E+00  1.00800000E+00  1.60000000E+01
  1.00800000E+00  1.00800000E+00  1.60000000E+01  1.00800000E+00  1.00800000E+00
  1.60000000E+01  1.00800000E+00  1.00800000E+00  1.60000000E+01  1.00800000E+00
  1.00800000E+00  1.60000000E+01  1.00800000E+00  1.00800000E+00  1.60000000E+01
  1.00800000E+00  1.00800000E+00  1.60000000E+01  1.00800000E+00  1.00800000E+00
  1.60000000E+01  1.00800000E+00  1.00800000E+00  1.60000000E+01  1.00800000E+00
  1.00800000E+00  1.60000000E+01  1.00800000E+00  1.00800000E+00  1.60000000E+01
  1.00800000E+00  1.00800000E+00  1.60000000E+01  1.00800000E+00  1.00800000E+00
  1.60000000E+01  1.00800000E+00  1.00800000E+00  1.60000000E+01  1.00800000E+00
  1.00800000E+00  1.60000000E+01  1.00800000E+00  1.00800000E+00  1.60000000E+01
  1.00800000E+00  1.00800000E+00  1.60000000E+01  1.00800000E+00  1.00800000E+00
  1.60000000E+01  1.00800000E+00  1.00800000E+00  1.60000000E+01  1.00800000E+00
  1.00800000E+00  1.60000000E+01  1.00800000E+00  1.00800000E+00  1.60000000E+01
  1.00800000E+00  1.00800000E+00  1.60000000E+01  1.00800000E+00  1.00800000E+00
  1.60000000E+01  1.00800000E+00  1.00800000E+00  1.60000000E+01  1.00800000E+00
  1.00800000E+00  1.60000000E+01  1.00800000E+00  1.00800000E+00  1.60000000E+01
  1.00800000E+00  1.00800000E+00  1.60000000E+01  1.00800000E+00  1.00800000E+00
  1.60000000E+01  1.00800000E+00  1.00800000E+00  1.60000000E+01  1.00800000E+00
  1.00800000E+00  1.60000000E+01  1.00800000E+00  1.00800000E+00  1.60000000E+01
  1.00800000E+00  1.00800000E+00  1.60000000E+01  1.00800000E+00  1.00800000E+00
  1.60000000E+01  1.00800000E+00  1.00800000E+00  1.60000000E+01  1.00800000E+00
  1.00800000E+00  1.60000000E+01  1.00800000E+00  1.00800000E+00  1.60000000E+01
  1.00800000E+00  1.00800000E+00  1.60000000E+01  1.00800000E+00  1.00800000E+00
  1.60000000E+01  1.00800000E+00  1.00800000E+00  1.60000000E+01  1.00800000E+00
  1.00800000E+00  1.60000000E+01  1.00800000E+00  1.00800000E+00  1.60000000E+01
  1.00800000E+00  1.00800000E+00  1.60000000E+01  1.00800000E+00  1.00800000E+00
  1.60000000E+01  1.00800000E+00  1.00800000E+00  1.60000000E+01  1.00800000E+00
  1.00800000E+00  1.60000000E+01  1.00800000E+00  1.00800000E+00  1.60000000E+01
  1.00800000E+00  1.00800000E+00  1.60000000E+01  1.00800000E+00  1.00800000E+00
  1.60000000E+01  1.00800000E+00  1.00800000E+00  1.60000000E+01  1.00800000E+00
  1.00800000E+00  1.60000000E+01  1.00800000E+00  1.00800000E+00  1.60000000E+01
  1.00800000E+00  1.00800000E+00  1.60000000E+01  1.00800000E+00  1.00800000E+00
  1.60000000E+01  1.00800000E+00  1.00800000E+00  1.60000000E+01  1.00800000E+00
  1.00800000E+00  1.60000000E+01  1.00800000E+00  1.00800000E+00  1.60000000E+01
  1.00800000E+00  1.00800000E+00  1.60000000E+01  1.00800000E+00  1.00800000E+00
  1.60000000E+01  1.00800000E+00  1.00800000E+00  1.60000000E+01  1.00800000E+00
  1.00800000E+00  1.60000000E+01  1.00800000E+00  1.00800000E+00  1.60000000E+01
  1.00800000E+00  1.00800000E+00  1.60000000E+01  1.00800000E+00  1.00800000E+00
  1.60000000E+01  1.00800000E+00  1.00800000E+00  1.60000000E+01  1.00800000E+00
  1.00800000E+00  1.60000000E+01  1.00800000E+00  1.00800000E+00  1.60000000E+01
  1.00800000E+00  1.00800000E+00  1.60000000E+01  1.00800000E+00  1.00800000E+00
  1.60000000E+01  1.00800000E+00  1.00800000E+00  1.60000000E+01  1.00800000E+00
  1.00800000E+00  1.60000000E+01  1.00800000E+00  1.00800000E+00  1.60000000E+01
  1.00800000E+00  1.00800000E+00  1.60000000E+01  1.00800000E+00  1.00800000E+00
  1.60000000E+01  1.00800000E+00  1.00800000E+00  1.60000000E+01  1.00800000E+00
  1.00800000E+00  1.60000000E+01  1.00800000E+00  1.00800000E+00  1.60000000E+01
  1.00800000E+00  1.00800000E+00  1.60000000E+01  1.00800000E+00  1.00800000E+00
  1.60000000E+01  1.00800000E+00  1.00800000E+00  1.60000000E+01  1.00800000E+00
  1.00800000E+00  1.60000000E+01  1.00800000E+00  1.00800000E+00  1.60000000E+01
  1.00800000E+00  1.00800000E+00  1.60000000E+01  1.00800000E+00  1.00800000E+00
  1.60000000E+01  1.00800000E+00  1.00800000E+00  1.60000000E+01  1.00800000E+00
  1.00800000E+00  1.60000000E+01  1.00800000E+00  1.00800000E+00  1.60000000E+01
  1.00800000E+00  1.00800000E+00  1.60000000E+01  1.00800000E+00  1.00800000E+00
  1.60000000E+01  1.00800000E+00  1.00800000E+00  1.60000000E+01  1.00800000E+00
  1.00800000E+00  1.60000000E+01  1.00800000E+00  1.00800000E+00  1.60000000E+01
  1.00800000E+00  1.00800000E+00  1.60000000E+01  1.00800000E+00  1.00800000E+00
  1.60000000E+01  1.00800000E+00  1.00800000E+00  1.60000000E+01  1.00800000E+00
  1.00800000E+00  1.60000000E+01  1.00800000E+00  1.00800000E+00  1.60000000E+01
  1.00800000E+00  1.00800000E+00  1.60000000E+01  1.00800000E+00  1.00800000E+00
  1.60000000E+01  1.00800000E+00  1.00800000E+00  1.60000000E+01  1.00800000E+00
  1.00800000E+00  1.60000000E+01  1.00800000E+00  1.00800000E+00  1.60000000E+01
  1.00800000E+00  1.00800000E+00  1.60000000E+01  1.00800000E+00  1.00800000E+00
  1.60000000E+01  1.00800000E+00  1.00800000E+00  1.60000000E+01  1.00800000E+00
  1.00800000E+00  1.60000000E+01  1.00800000E+00  1.00800000E+00  1.60000000E+01
  1.00800000E+00  1.00800000E+00  1.60000000E+01  1.00800000E+00  1.00800000E+00
  1.60000000E+01  1.00800000E+00  1.00800000E+00  1.60000000E+01  1.00800000E+00
  1.00800000E+00  1.60000000E+01  1.00800000E+00  1.00800000E+00  1.60000000E+01
  1.00800000E+00  1.00800000E+00  1.60000000E+01  1.00800000E+00  1.00800000E+00
  1.60000000E+01  1.00800000E+00  1.00800000E+00  1.60000000E+01  1.00800000E+00
  1.00800000E+00  1.60000000E+01  1.00800000E+00  1.00800000E+00  1.60000000E+01
  1.00800000E+00  1.00800000E+00  1.60000000E+01  1.00800000E+00  1.00800000E+00
  1.60000000E+01  1.00800000E+00  1.00800000E+00  1.60000000E+01  1.00800000E+00
  1.00800000E+00  1.60000000E+01  1.00800000E+00  1.00800000E+00  1.60000000E+01
  1.00800000E+00  1.00800000E+00  1.60000000E+01  1.00800000E+00  1.00800000E+00
  1.60000000E+01  1.00800000E+00  1.00800000E+00  1.60000000E+01  1.00800000E+00
  1.00800000E+00  1.60000000E+01  1.00800000E+00  1.00800000E+00  1.60000000E+01
  1.00800000E+00  1.00800000E+00  1.60000000E+01  1.00800000E+00  1.00800000E+00
  1.60000000E+01  1.00800000E+00  1.00800000E+00  1.60000000E+01  1.00800000E+00
  1.00800000E+00  1.60000000E+01  1.00800000E+00  1.00800000E+00  1.60000000E+01
  1.00800000E+00  1.00800000E+00  1.60000000E+01  1.00800000E+00  1.00800000E+00
  1.60000000E+01  1.00800000E+00  1.00800000E+00  1.60000000E+01  1.00800000E+00
  1.00800000E+00  1.60000000E+01  1.00800000E+00  1.00800000E+00  1.60000000E+01
  1.00800000E+00  1.00800000E+00  1.60000000E+01  1.00800000E+00  1.00800000E+00
  1.60000000E+01  1.00800000E+00  1.00800000E+00  1.60000000E+01  1.00800000E+00
  1.00800000E+00  1.60000000E+01  1.00800000E+00  1.00800000E+00  1.60000000E+01
  1.00800000E+00  1.00800000E+00  1.60000000E+01  1.00800000E+00  1.00800000E+00
  1.60000000E+01  1.00800000E+00  1.00800000E+00  1.60000000E+01  1.00800000E+00
  1.00800000E+00  1.60000000E+01  1.00800000E+00  1.00800000E+00  1.60000000E+01
  1.00800000E+00  1.00800000E+00  1.60000000E+01  1.00800000E+00  1.00800000E+00
  1.60000000E+01  1.00800000E+00  1.00800000E+00  1.60000000E+01  1.00800000E+00
  1.00800000E+00  1.60000000E+01  1.00800000E+00  1.00800000E+00  1.60000000E+01
  1.00800000E+00  1.00800000E+00  1.60000000E+01  1.00800000E+00  1.00800000E+00
  1.60000000E+01  1.00800000E+00  1.00800000E+00  1.60000000E+01  1.00800000E+00
  1.00800000E+00  1.60000000E+01  1.00800000E+00  1.00800000E+00  1.60000000E+01
  1.00800000E+00  1.00800000E+00  1.60000000E+01  1.00800000E+00  1.00800000E+00
  1.60000000E+01  1.00800000E+00  1.00800000E+00  1.60000000E+01  1.00800000E+00
  1.00800000E+00  1.60000000E+01  1.00800000E+00  1.00800000E+00  1.60000000E+01
  1.00800000E+00  1.00800000E+00  1.60000000E+01  1.00800000E+00  1.00800000E+00
  1.60000000E+01  1.00800000E+00  1.00800000E+00  1.60000000E+01  1.00800000E+00
  1.00800000E+00  1.60000000E+01  1.00800000E+00  1.00800000E+00  1.60000000E+01
  1.00800000E+00  1.00800000E+00  1.60000000E+01  1.00800000E+00  1.00800000E+00
  1.60000000E+01  1.00800000E+00  1.00800000E+00  1.60000000E+01  1.00800000E+00
  1.00800000E+00  1.60000000E+01  1.00800000E+00  1.00800000E+00  1.60000000E+01
  1.00800000E+00  1.00800000E+00  1.60000000E+01  1.00800000E+00  1.00800000E+00
  1.60000000E+01  1.00800000E+00  1.00800000E+00  1.60000000E+01  1.00800000E+00
  1.00800000E+00  1.60000000E+01  1.00800000E+00  1.00800000E+00  1.60000000E+01
  1.00800000E+00  1.00800000E+00  1.60000000E+01  1.00800000E+00  1.00800000E+00
  1.60000000E+01  1.00800000E+00  1.00800000E+00  1.60000000E+01  1.00800000E+00
  1.00800000E+00  1.60000000E+01  1.00800000E+00  1.00800000E+00  1.60000000E+01
  1.00800000E+00  1.00800000E+00  1.60000000E+01  1.00800000E+00  1.00800000E+00
  1.60000000E+01  1.00800000E+00  1.00800000E+00  1.60000000E+01  1.00800000E+00
  1.00800000E+00  1.60000000E+01  1.00800000E+00  1.00800000E+00  1.60000000E+01
  1.00800000E+00  1.00800000E+00  1.60000000E+01  1.00800000E+00  1.00800000E+00
  1.60000000E+01  1.00800000E+00  1.00800000E+00  1.60000000E+01  1.00800000E+00
  1.00800000E+00  1.60000000E+01  1.00800000E+00  1.00800000E+00  1.60000000E+01
  1.00800000E+00  1.00800000E+00  1.60000000E+01  1.00800000E+00  1.00800000E+00
  1.60000000E+01  1.00800000E+00  1.00800000E+00  1.60000000E+01  1.00800000E+00
  1.00800000E+00  1.60000000E+01  1.00800000E+00  1.00800000E+00  1.60000000E+01
  1.00800000E+00  1.00800000E+00  1.60000000E+01  1.00800000E+00  1.00800000E+00
  1.60000000E+01  1.00800000E+00  1.00800000E+00  1.60000000E+01  1.00800000E+00
  1.00800000E+00  1.60000000E+01  1.00800000E+00  1.00800000E+00  1.60000000E+01
  1.00800000E+00  1.00800000E+00  1.60000000E+01  1.00800000E+00  1.00800000E+00
  1.60000000E+01  1.00800000E+00  1.00800000E+00  1.60000000E+01  1.00800000E+00
  1.00800000E+00  1.60000000E+01  1.00800000E+00  1.00800000E+00  1.60000000E+01
  1.00800000E+00  1.00800000E+00  1.60000000E+01  1.00800000E+00  1.00800000E+00
  1.60000000E+01  1.00800000E+00  1.00800000E+00  1.60000000E+01  1.00800000E+00
  1.00800000E+00  1.60000000E+01  1.00800000E+00  1.00800000E+00  1.60000000E+01
  1.00800000E+00  1.00800000E+00  1.60000000E+01  1.00800000E+00  1.00800000E+00
  1.60000000E+01  1.00800000E+00  1.00800000E+00  1.60000000E+01  1.00800000E+00
  1.00800000E+00  1.60000000E+01  1.00800000E+00  1.00800000E+00  1.60000000E+01
  1.00800000E+00  1.00800000E+00  1.60000000E+01  1.00800000E+00  1.00800000E+00
  1.60000000E+01  1.00800000E+00  1.00800000E+00  1.60000000E+01  1.00800000E+00
  1.00800000E+00  1.60000000E+01  1.00800000E+00  1.00800000E+00  1.60000000E+01
  1.00800000E+00  1.00800000E+00  1.60000000E+01  1.00800000E+00  1.00800000E+00
  1.60000000E+01  1.00800000E+00  1.00800000E+00  1.60000000E+01  1.00800000E+00
  1.00800000E+00  1.60000000E+01  1.00800000E+00  1.00800000E+00  1.60000000E+01
  1.00800000E+00  1.00800000E+00  1.60000000E+01  1.00800000E+00  1.00800000E+00
  1.60000000E+01  1.00800000E+00  1.00800000E+00  1.60000000E+01  1.00800000E+00
  1.00800000E+00  1.60000000E+01  1.00800000E+00  1.00800000E+00  1.60000000E+01
  1.00800000E+00  1.00800000E+00  1.60000000E+01  1.00800000E+00  1.00800000E+00
  1.60000000E+01  1.00800000E+00  1.00800000E+00  1.60000000E+01  1.00800000E+00
  1.00800000E+00  1.60000000E+01  1.00800000E+00  1.00800000E+00  1.60000000E+01
  1.00800000E+00  1.00800000E+00  1.60000000E+01  1.00800000E+00  1.00800000E+00
  1.60000000E+01  1.00800000E+00  1.00800000E+00  1.60000000E+01  1.00800000E+00
  1.00800000E+00  1.60000000E+01  1.00800000E+00  1.00800000E+00  1.60000000E+01
  1.00800000E+00  1.00800000E+00  1.60000000E+01  1.00800000E+00  1.00800000E+00
  1.60000000E+01  1.00800000E+00  1.00800000E+00  1.60000000E+01  1.00800000E+00
  1.00800000E+00  1.60000000E+01  1.00800000E+00  1.00800000E+00  1.60000000E+01
  1.00800000E+00  1.00800000E+00  1.60000000E+01  1.00800000E+00  1.00800000E+00
  1.60000000E+01  1.00800000E+00  1.00800000E+00  1.60000000E+01  1.00800000E+00
  1.00800000E+00  1.60000000E+01  1.00800000E+00  1.00800000E+00  1.60000000E+01
  1.00800000E+00  1.00800000E+00  1.60000000E+01  1.00800000E+00  1.00800000E+00
  1.60000000E+01  1.00800000E+00  1.00800000E+00  1.60000000E+01  1.00800000E+00
  1.00800000E+00  1.60000000E+01  1.00800000E+00  1.00800000E+00  1.60000000E+01
  1.00800000E+00  1.00800000E+00  1.60000000E+01  1.00800000E+00  1.00800000E+00
  1.60000000E+01  1.00800000E+00  1.00800000E+00  1.60000000E+01  1.00800000E+00
  1.00800000E+00  1.60000000E+01  1.00800000E+00  1.00800000E+00  1.60000000E+01
  1.00800000E+00  1.00800000E+00  1.60000000E+01  1.00800000E+00  1.00800000E+00
  1.60000000E+01  1.00800000E+00  1.00800000E+00  1.60000000E+01  1.00800000E+00
  1.00800000E+00  1.60000000E+01  1.00800000E+00  1.00800000E+00  1.60000000E+01
  1.00800000E+00  1.00800000E+00  1.60000000E+01  1.00800000E+00  1.00800000E+00
  1.60000000E+01  1.00800000E+00  1.00800000E+00  1.60000000E+01  1.00800000E+00
  1.00800000E+00  1.60000000E+01  1.00800000E+00  1.00800000E+00  1.60000000E+01
  1.00800000E+00  1.00800000E+00  1.60000000E+01  1.00800000E+00  1.00800000E+00
  1.60000000E+01  1.00800000E+00  1.00800000E+00  1.60000000E+01  1.00800000E+00
  1.00800000E+00  1.60000000E+01  1.00800000E+00  1.00800000E+00  1.60000000E+01
  1.00800000E+00  1.00800000E+00  1.60000000E+01  1.00800000E+00  1.00800000E+00
  1.60000000E+01  1.00800000E+00  1.00800000E+00  1.60000000E+01  1.00800000E+00
  1.00800000E+00  1.60000000E+01  1.00800000E+00  1.00800000E+00  1.60000000E+01
  1.00800000E+00  1.00800000E+00  1.60000000E+01  1.00800000E+00  1.00800000E+00
  1.60000000E+01  1.00800000E+00  1.00800000E+00  1.60000000E+01  1.00800000E+00
  1.00800000E+00  1.60000000E+01  1.00800000E+00  1.00800000E+00  1.60000000E+01
  1.00800000E+00  1.00800000E+00  1.60000000E+01  1.00800000E+00  1.00800000E+00
  1.60000000E+01  1.00800000E+00  1.00800000E+00  1.60000000E+01  1.00800000E+00
  1.00800000E+00  1.60000000E+01  1.00800000E+00  1.00800000E+00  1.60000000E+01
  1.00800000E+00  1.00800000E+00  1.60000000E+01  1.00800000E+00  1.00800000E+00
  1.60000000E+01  1.00800000E+00  1.00800000E+00  1.60000000E+01  1.00800000E+00
  1.00800000E+00  1.60000000E+01  1.00800000E+00  1.00800000E+00  1.60000000E+01
  1.00800000E+00  1.00800000E+00  1.60000000E+01  1.00800000E+00  1.00800000E+00
  1.60000000E+01  1.00800000E+00  1.00800000E+00  1.60000000E+01  1.00800000E+00
  1.00800000E+00  1.60000000E+01  1.00800000E+00  1.00800000E+00  1.60000000E+01
  1.00800000E+00  1.00800000E+00  1.60000000E+01  1.00800000E+00  1.00800000E+00
  1.60000000E+01  1.00800000E+00  1.00800000E+00  1.60000000E+01  1.00800000E+00
  1.00800000E+00  1.60000000E+01  1.00800000E+00  1.00800000E+00  1.60000000E+01
  1.00800000E+00  1.00800000E+00  1.60000000E+01  1.00800000E+00  1.00800000E+00
  1.60000000E+01  1.00800000E+00  1.00800000E+00  1.60000000E+01  1.00800000E+00
  1.00800000E+00  1.60000000E+01  1.00800000E+00  1.00800000E+00  1.60000000E+01
  1.00800000E+00  1.00800000E+00  1.60000000E+01  1.00800000E+00  1.00800000E+00
  1.60000000E+01  1.00800000E+00  1.00800000E+00  1.60000000E+01  1.00800000E+00
  1.00800000E+00  1.60000000E+01  1.00800000E+00  1.00800000E+00  1.60000000E+01
  1.00800000E+00  1.00800000E+00  1.60000000E+01  1.00800000E+00  1.00800000E+00
  1.60000000E+01  1.00800000E+00  1.00800000E+00  1.60000000E+01  1.00800000E+00
  1.00800000E+00  1.60000000E+01  1.00800000E+00  1.00800000E+00  1.60000000E+01
  1.00800000E+00  1.00800000E+00  1.60000000E+01  1.00800000E+00  1.00800000E+00
  1.60000000E+01  1.00800000E+00  1.00800000E+00  1.60000000E+01  1.00800000E+00
  1.00800000E+00  1.60000000E+01  1.00800000E+00  1.00800000E+00  1.60000000E+01
  1.00800000E+00  1.00800000E+00  1.60000000E+01  1.00800000E+00  1.00800000E+00
  1.60000000E+01  1.00800000E+00  1.00800000E+00  1.60000000E+01  1.00800000E+00
  1.00800000E+00  1.60000000E+01  1.00800000E+00  1.00800000E+00  1.60000000E+01
  1.00800000E+00  1.00800000E+00  1.60000000E+01  1.00800000E+00  1.00800000E+00
  1.60000000E+01  1.00800000E+00  1.00800000E+00  1.60000000E+01  1.00800000E+00
  1.00800000E+00  1.60000000E+01  1.00800000E+00  1.00800000E+00  1.60000000E+01
  1.00800000E+00  1.00800000E+00  1.60000000E+01  1.00800000E+00  1.00800000E+00
  1.60000000E+01  1.00800000E+00  1.00800000E+00  1.60000000E+01  1.00800000E+00
  1.00800000E+00  1.60000000E+01  1.00800000E+00  1.00800000E+00  1.60000000E+01
  1.00800000E+00  1.00800000E+00  1.60000000E+01  1.00800000E+00  1.00800000E+00
  1.60000000E+01  1.00800000E+00  1.00800000E+00  1.60000000E+01  1.00800000E+00
  1.00800000E+00  1.60000000E+01  1.00800000E+00  1.00800000E+00  1.60000000E+01
  1.00800000E+00  1.00800000E+00  1.60000000E+01  1.00800000E+00  1.00800000E+00
  1.60000000E+01  1.00800000E+00  1.00800000E+00  1.60000000E+01  1.00800000E+00
  1.00800000E+00  1.60000000E+01  1.00800000E+00  1.00800000E+00  1.60000000E+01
  1.00800000E+00  1.00800000E+00  1.60000000E+01  1.00800000E+00  1.00800000E+00
  1.60000000E+01  1.00800000E+00  1.00800000E+00  1.60000000E+01  1.00800000E+00
  1.00800000E+00  1.60000000E+01  1.00800000E+00  1.00800000E+00  1.60000000E+01
  1.00800000E+00  1.00800000E+00  1.60000000E+01  1.00800000E+00  1.00800000E+00
  1.60000000E+01  1.00800000E+00  1.00800000E+00  1.60000000E+01  1.00800000E+00
  1.00800000E+00  1.60000000E+01  1.00800000E+00  1.00800000E+00  1.60000000E+01
  1.00800000E+00  1.00800000E+00  1.60000000E+01  1.00800000E+00  1.00800000E+00
  1.60000000E+01  1.00800000E+00  1.00800000E+00  1.60000000E+01  1.00800000E+00
  1.00800000E+00  1.60000000E+01  1.00800000E+00  1.00800000E+00  1.60000000E+01
  1.00800000E+00  1.00800000E+00  1.60000000E+01  1.00800000E+00  1.00800000E+00
  1.60000000E+01  1.00800000E+00  1.00800000E+00  1.60000000E+01  1.00800000E+00
  1.00800000E+00  1.60000000E+01  1.00800000E+00  1.00800000E+00  1.60000000E+01
  1.00800000E+00  1.00800000E+00  1.60000000E+01  1.00800000E+00  1.00800000E+00
  1.60000000E+01  1.00800000E+00  1.00800000E+00  1.60000000E+01  1.00800000E+00
  1.00800000E+00  1.60000000E+01  1.00800000E+00  1.00800000E+00  1.60000000E+01
  1.00800000E+00  1.00800000E+00  1.60000000E+01  1.00800000E+00  1.00800000E+00
  1.60000000E+01  1.00800000E+00  1.00800000E+00  1.60000000E+01  1.00800000E+00
  1.00800000E+00  1.60000000E+01  1.00800000E+00  1.00800000E+00  1.60000000E+01
  1.00800000E+00  1.00800000E+00  1.60000000E+01  1.00800000E+00  1.00800000E+00
  1.60000000E+01  1.00800000E+00  1.00800000E+00  1.60000000E+01  1.00800000E+00
  1.00800000E+00  1.60000000E+01  1.00800000E+00  1.00800000E+00  1.60000000E+01
  1.00800000E+00  1.00800000E+00  1.60000000E+01  1.00800000E+00  1.00800000E+00
  1.60000000E+01  1.00800000E+00  1.00800000E+00  1.60000000E+01  1.00800000E+00
  1.00800000E+00  1.60000000E+01  1.00800000E+00  1.00800000E+00  1.60000000E+01
  1.00800000E+00  1.00800000E+00  1.60000000E+01  1.00800000E+00  1.00800000E+00
  1.60000000E+01  1.00800000E+00  1.00800000E+00  1.60000000E+01  1.00800000E+00
  1.00800000E+00  1.60000000E+01  1.00800000E+00  1.00800000E+00  1.60000000E+01
  1.00800000E+00  1.00800000E+00  1.60000000E+01  1.00800000E+00  1.00800000E+00
  1.60000000E+01  1.00800000E+00  1.00800000E+00  1.60000000E+01  1.00800000E+00
  1.00800000E+00  1.60000000E+01  1.00800000E+00  1.00800000E+00  1.60000000E+01
  1.00800000E+00  1.00800000E+00  1.60000000E+01  1.00800000E+00  1.00800000E+00
  1.60000000E+01  1.00800000E+00  1.00800000E+00  1.60000000E+01  1.00800000E+00
  1.00800000E+00  1.60000000E+01  1.00800000E+00  1.00800000E+00  1.60000000E+01
  1.00800000E+00  1.00800000E+00  1.60000000E+01  1.00800000E+00  1.00800000E+00
  1.60000000E+01  1.00800000E+00  1.00800000E+00  1.60000000E+01  1.00800000E+00
  1.00800000E+00  1.60000000E+01  1.00800000E+00  1.00800000E+00  1.60000000E+01
  1.00800000E+00  1.00800000E+00  1.60000000E+01  1.00800000E+00  1.00800000E+00
  1.60000000E+01  1.00800000E+00  1.00800000E+00  1.60000000E+01  1.00800000E+00
  1.00800000E+00  1.60000000E+01  1.00800000E+00  1.00800000E+00  1.60000000E+01
  1.00800000E+00  1.00800000E+00  1.60000000E+01  1.00800000E+00  1.00800000E+00
  1.60000000E+01  1.00800000E+00  1.00800000E+00  1.60000000E+01  1.00800000E+00
  1.00800000E+00  1.60000000E+01  1.00800000E+00  1.00800000E+00  1.60000000E+01
  1.00800000E+00  1.00800000E+00  1.60000000E+01  1.00800000E+00  1.00800000E+00
  1.60000000E+01  1.00800000E+00  1.00800000E+00  1.60000000E+01  1.00800000E+00
  1.00800000E+00  1.60000000E+01  1.00800000E+00  1.00800000E+00  1.60000000E+01
  1.00800000E+00  1.00800000E+00  1.60000000E+01  1.00800000E+00  1.00800000E+00
  1.60000000E+01  1.00800000E+00  1.00800000E+00  1.60000000E+01  1.00800000E+00
  1.00800000E+00  1.60000000E+01  1.00800000E+00  1.00800000E+00  1.60000000E+01
  1.00800000E+00  1.00800000E+00  1.60000000E+01  1.00800000E+00  1.00800000E+00
  1.60000000E+01  1.00800000E+00  1.00800000E+00  1.60000000E+01  1.00800000E+00
  1.00800000E+00  1.60000000E+01  1.00800000E+00  1.00800000E+00  1.60000000E+01
  1.00800000E+00  1.00800000E+00  1.60000000E+01  1.00800000E+00  1.00800000E+00
  1.60000000E+01  1.00800000E+00  1.00800000E+00  1.60000000E+01  1.00800000E+00
  1.00800000E+00  1.60000000E+01  1.00800000E+00  1.00800000E+00  1.60000000E+01
  1.00800000E+00  1.00800000E+00  1.60000000E+01  1.00800000E+00  1.00800000E+00
  1.60000000E+01  1.00800000E+00  1.00800000E+00  1.60000000E+01  1.00800000E+00
  1.00800000E+00  1.60000000E+01  1.00800000E+00  1.00800000E+00  1.60000000E+01
  1.00800000E+00  1.00800000E+00  1.60000000E+01  1.00800000E+00  1.00800000E+00
  1.60000000E+01  1.00800000E+00  1.00800000E+00  1.60000000E+01  1.00800000E+00
  1.00800000E+00  1.60000000E+01  1.00800000E+00  1.00800000E+00  1.60000000E+01
  1.00800000E+00  1.00800000E+00  1.60000000E+01  1.00800000E+00  1.00800000E+00
  1.60000000E+01  1.00800000E+00  1.00800000E+00  1.60000000E+01  1.00800000E+00
  1.00800000E+00  1.60000000E+01  1.00800000E+00  1.00800000E+00  1.60000000E+01
  1.00800000E+00  1.00800000E+00  1.60000000E+01  1.00800000E+00  1.00800000E+00
  1.60000000E+01  1.00800000E+00  1.00800000E+00  1.60000000E+01  1.00800000E+00
  1.00800000E+00  1.60000000E+01  1.00800000E+00  1.00800000E+00  1.60000000E+01
  1.00800000E+00  1.00800000E+00  1.60000000E+01  1.00800000E+00  1.00800000E+00
  1.60000000E+01  1.00800000E+00  1.00800000E+00  1.60000000E+01  1.00800000E+00
  1.00800000E+00  1.60000000E+01  1.00800000E+00  1.00800000E+00  1.60000000E+01
  1.00800000E+00  1.00800000E+00  1.60000000E+01  1.00800000E+00  1.00800000E+00
  1.60000000E+01  1.00800000E+00  1.00800000E+00  1.60000000E+01  1.00800000E+00
  1.00800000E+00  1.60000000E+01  1.00800000E+00  1.00800000E+00  1.60000000E+01
  1.00800000E+00  1.00800000E+00  1.60000000E+01  1.00800000E+00  1.00800000E+00
  1.60000000E+01  1.00800000E+00  1.00800000E+00  1.60000000E+01  1.00800000E+00
  1.00800000E+00  1.60000000E+01  1.00800000E+00  1.00800000E+00  1.60000000E+01
  1.00800000E+00  1.00800000E+00  1.60000000E+01  1.00800000E+00  1.00800000E+00
  1.60000000E+01  1.00800000E+00  1.00800000E+00  1.60000000E+01  1.00800000E+00
  1.00800000E+00  1.60000000E+01  1.00800000E+00  1.00800000E+00  1.60000000E+01
  1.00800000E+00  1.00800000E+00  1.60000000E+01  1.00800000E+00  1.00800000E+00
  1.60000000E+01  1.00800000E+00  1.00800000E+00  1.60000000E+01  1.00800000E+00
  1.00800000E+00  1.60000000E+01  1.00800000E+00  1.00800000E+00  1.60000000E+01
  1.00800000E+00  1.00800000E+00  1.60000000E+01  1.00800000E+00  1.00800000E+00
  1.60000000E+01  1.00800000E+00  1.00800000E+00  1.60000000E+01  1.00800000E+00
  1.00800000E+00  1.60000000E+01  1.00800000E+00  1.00800000E+00  1.60000000E+01
  1.00800000E+00  1.00800000E+00  1.60000000E+01  1.00800000E+00  1.00800000E+00
  1.60000000E+01  1.00800000E+00  1.00800000E+00  1.60000000E+01  1.00800000E+00
  1.00800000E+00  1.60000000E+01  1.00800000E+00  1.00800000E+00  1.60000000E+01
  1.00800000E+00  1.00800000E+00  1.60000000E+01  1.00800000E+00  1.00800000E+00
  1.60000000E+01  1.00800000E+00  1.00800000E+00  1.60000000E+01  1.00800000E+00
  1.00800000E+00  1.60000000E+01  1.00800000E+00  1.00800000E+00  1.60000000E+01
  1.00800000E+00  1.00800000E+00  1.60000000E+01  1.00800000E+00  1.00800000E+00
  1.60000000E+01  1.00800000E+00  1.00800000E+00  1.60000000E+01  1.00800000E+00
  1.00800000E+00  1.60000000E+01  1.00800000E+00  1.00800000E+00  1.60000000E+01
  1.00800000E+00  1.00800000E+00  1.60000000E+01  1.00800000E+00  1.00800000E+00
  1.60000000E+01  1.00800000E+00  1.00800000E+00  1.60000000E+01  1.00800000E+00
  1.00800000E+00  1.60000000E+01  1.00800000E+00  1.00800000E+00  1.60000000E+01
  1.00800000E+00  1.00800000E+00  1.60000000E+01  1.00800000E+00  1.00800000E+00
  1.60000000E+01  1.00800000E+00  1.00800000E+00  1.60000000E+01  1.00800000E+00
  1.00800000E+00  1.60000000E+01  1.00800000E+00  1.00800000E+00  1.60000000E+01
  1.00800000E+00  1.00800000E+00  1.60000000E+01  1.00800000E+00  1.00800000E+00
  1.60000000E+01  1.00800000E+00  1.00800000E+00  1.60000000E+01  1.00800000E+00
  1.00800000E+00  1.60000000E+01  1.00800000E+00  1.00800000E+00  1.60000000E+01
  1.00800000E+00  1.00800000E+00  1.60000000E+01  1.00800000E+00  1.00800000E+00
  1.60000000E+01  1.00800000E+00  1.00800000E+00  1.60000000E+01  1.00800000E+00
  1.00800000E+00  1.60000000E+01  1.00800000E+00  1.00800000E+00  1.60000000E+01
  1.00800000E+00  1.00800000E+00  1.60000000E+01  1.00800000E+00  1.00800000E+00
  1.60000000E+01  1.00800000E+00  1.00800000E+00  1.60000000E+01  1.00800000E+00
  1.00800000E+00  1.60000000E+01  1.00800000E+00  1.00800000E+00  1.60000000E+01
  1.00800000E+00  1.00800000E+00  1.60000000E+01  1.00800000E+00  1.00800000E+00
  1.60000000E+01  1.00800000E+00  1.00800000E+00  1.60000000E+01  1.00800000E+00
  1.00800000E+00  1.60000000E+01  1.00800000E+00  1.00800000E+00  1.60000000E+01
  1.00800000E+00  1.00800000E+00  1.60000000E+01  1.00800000E+00  1.00800000E+00
  1.60000000E+01  1.00800000E+00  1.00800000E+00  1.60000000E+01  1.00800000E+00
  1.00800000E+00  1.60000000E+01  1.00800000E+00  1.00800000E+00  1.60000000E+01
  1.00800000E+00  1.00800000E+00  1.60000000E+01  1.00800000E+00  1.00800000E+00
  1.60000000E+01  1.00800000E+00  1.00800000E+00  1.60000000E+01  1.00800000E+00
  1.00800000E+00  1.60000000E+01  1.00800000E+00  1.00800000E+00  1.60000000E+01
  1.00800000E+00  1.00800000E+00  1.60000000E+01  1.00800000E+00  1.00800000E+00
  1.60000000E+01  1.00800000E+00  1.00800000E+00  1.60000000E+01  1.00800000E+00
  1.00800000E+00  1.60000000E+01  1.00800000E+00  1.00800000E+00  1.60000000E+01
  1.00800000E+00  1.00800000E+00  1.60000000E+01  1.00800000E+00  1.00800000E+00
  1.60000000E+01  1.00800000E+00  1.00800000E+00  1.60000000E+01  1.00800000E+00
  1.00800000E+00  1.60000000E+01  1.00800000E+00  1.00800000E+00  1.60000000E+01
  1.00800000E+00  1.00800000E+00  1.60000000E+01  1.00800000E+00  1.00800000E+00
  1.60000000E+01  1.00800000E+00  1.00800000E+00  1.60000000E+01  1.00800000E+00
  1.00800000E+00  1.60000000E+01  1.00800000E+00  1.00800000E+00  1.60000000E+01
  1.00800000E+00  1.00800000E+00  1.60000000E+01  1.00800000E+00  1.00800000E+00
  1.60000000E+01  1.00800000E+00  1.00800000E+00  1.60000000E+01  1.00800000E+00
  1.00800000E+00  1.60000000E+01  1.00800000E+00  1.00800000E+00  1.60000000E+01
  1.00800000E+00  1.00800000E+00  1.60000000E+01  1.00800000E+00  1.00800000E+00
  1.60000000E+01  1.00800000E+00  1.00800000E+00  1.60000000E+01  1.00800000E+00
  1.00800000E+00  1.60000000E+01  1.00800000E+00  1.00800000E+00  1.60000000E+01
  1.00800000E+00  1.00800000E+00  1.60000000E+01  1.00800000E+00  1.00800000E+00
  1.60000000E+01  1.00800000E+00  1.00800000E+00  1.60000000E+01  1.00800000E+00
  1.00800000E+00  1.60000000E+01  1.00800000E+00  1.00800000E+00  1.60000000E+01
  1.00800000E+00  1.00800000E+00  1.60000000E+01  1.00800000E+00  1.00800000E+00
  1.60000000E+01  1.00800000E+00  1.00800000E+00  1.60000000E+01  1.00800000E+00
  1.00800000E+00  1.60000000E+01  1.00800000E+00  1.00800000E+00  1.60000000E+01
  1.00800000E+00  1.00800000E+00  1.60000000E+01  1.00800000E+00  1.00800000E+00
  1.60000000E+01  1.00800000E+00  1.00800000E+00  1.60000000E+01  1.00800000E+00
  1.00800000E+00  1.60000000E+01  1.00800000E+00  1.00800000E+00  1.60000000E+01
  1.00800000E+00  1.00800000E+00  1.60000000E+01  1.00800000E+00  1.00800000E+00
  1.60000000E+01  1.00800000E+00  1.00800000E+00  1.60000000E+01  1.00800000E+00
  1.00800000E+00  1.60000000E+01  1.00800000E+00  1.00800000E+00  1.60000000E+01
  1.00800000E+00  1.00800000E+00  1.60000000E+01  1.00800000E+00  1.00800000E+00
  1.60000000E+01  1.00800000E+00  1.00800000E+00  1.60000000E+01  1.00800000E+00
  1.00800000E+00  1.60000000E+01  1.00800000E+00  1.00800000E+00  1.60000000E+01
  1.00800000E+00  1.00800000E+00  1.60000000E+01  1.00800000E+00  1.00800000E+00
  1.60000000E+01  1.00800000E+00  1.00800000E+00  1.60000000E+01  1.00800000E+00
  1.00800000E+00  1.60000000E+01  1.00800000E+00  1.00800000E+00  1.60000000E+01
  1.00800000E+00  1.00800000E+00  1.60000000E+01  1.00800000E+00  1.00800000E+00
  1.60000000E+01  1.00800000E+00  1.00800000E+00  1.60000000E+01  1.00800000E+00
  1.00800000E+00  1.60000000E+01  1.00800000E+00  1.00800000E+00  1.60000000E+01
  1.00800000E+00  1.00800000E+00  1.60000000E+01  1.00800000E+00  1.00800000E+00
  1.60000000E+01  1.00800000E+00  1.00800000E+00  1.60000000E+01  1.00800000E+00
  1.00800000E+00  1.60000000E+01  1.00800000E+00  1.00800000E+00  1.60000000E+01
  1.00800000E+00  1.00800000E+00  1.60000000E+01  1.00800000E+00  1.00800000E+00
  1.60000000E+01  1.00800000E+00  1.00800000E+00  1.60000000E+01  1.00800000E+00
  1.00800000E+00  1.60000000E+01  1.00800000E+00  1.00800000E+00  1.60000000E+01
  1.00800000E+00  1.00800000E+00  1.60000000E+01  1.00800000E+00  1.00800000E+00
  1.60000000E+01  1.00800000E+00  1.00800000E+00  1.60000000E+01  1.00800000E+00
  1.00800000E+00  1.60000000E+01  1.00800000E+00  1.00800000E+00  1.60000000E+01
  1.00800000E+00  1.00800000E+00  1.60000000E+01  1.00800000E+00  1.00800000E+00
  1.60000000E+01  1.00800000E+00  1.00800000E+00  1.60000000E+01  1.00800000E+00
  1.00800000E+00  1.60000000E+01  1.00800000E+00  1.00800000E+00  1.60000000E+01
  1.00800000E+00  1.00800000E+00  1.60000000E+01  1.00800000E+00  1.00800000E+00
  1.60000000E+01  1.00800000E+00  1.00800000E+00  1.60000000E+01  1.00800000E+00
  1.00800000E+00  1.60000000E+01  1.00800000E+00  1.00800000E+00  1.60000000E+01
  1.00800000E+00  1.00800000E+00  1.60000000E+01  1.00800000E+00  1.00800000E+00
  1.60000000E+01  1.00800000E+00  1.00800000E+00  1.60000000E+01  1.00800000E+00
  1.00800000E+00  1.60000000E+01  1.00800000E+00  1.00800000E+00  1.60000000E+01
  1.00800000E+00  1.00800000E+00  1.60000000E+01  1.00800000E+00  1.00800000E+00
  1.60000000E+01  1.00800000E+00  1.00800000E+00  1.60000000E+01  1.00800000E+00
  1.00800000E+00  1.60000000E+01  1.00800000E+00  1.00800000E+00  1.60000000E+01
  1.00800000E+00  1.00800000E+00  1.60000000E+01  1.00800000E+00  1.00800000E+00
  1.60000000E+01  1.00800000E+00  1.00800000E+00  1.60000000E+01  1.00800000E+00
  1.00800000E+00  1.60000000E+01  1.00800000E+00  1.00800000E+00  1.60000000E+01
  1.00800000E+00  1.00800000E+00  1.60000000E+01  1.00800000E+00  1.00800000E+00
  1.60000000E+01  1.00800000E+00  1.00800000E+00  1.60000000E+01  1.00800000E+00
  1.00800000E+00  1.60000000E+01  1.00800000E+00  1.00800000E+00  1.60000000E+01
  1.00800000E+00  1.00800000E+00  1.60000000E+01  1.00800000E+00  1.00800000E+00
  1.60000000E+01  1.00800000E+00  1.00800000E+00  1.60000000E+01  1.00800000E+00
  1.00800000E+00  1.60000000E+01  1.00800000E+00  1.00800000E+00  1.60000000E+01
  1.00800000E+00  1.00800000E+00  1.60000000E+01  1.00800000E+00  1.00800000E+00
  1.60000000E+01  1.00800000E+00  1.00800000E+00  1.60000000E+01  1.00800000E+00
  1.00800000E+00  1.60000000E+01  1.00800000E+00  1.00800000E+00  1.60000000E+01
  1.00800000E+00  1.00800000E+00  1.60000000E+01  1.00800000E+00  1.00800000E+00
  1.60000000E+01  1.00800000E+00  1.00800000E+00  1.60000000E+01  1.00800000E+00
  1.00800000E+00  1.60000000E+01  1.00800000E+00  1.00800000E+00  1.60000000E+01
  1.00800000E+00  1.00800000E+00  1.60000000E+01  1.00800000E+00  1.00800000E+00
  1.60000000E+01  1.00800000E+00  1.00800000E+00  1.60000000E+01  1.00800000E+00
  1.00800000E+00  1.60000000E+01  1.00800000E+00  1.00800000E+00  1.60000000E+01
  1.00800000E+00  1.00800000E+00  1.60000000E+01  1.00800000E+00  1.00800000E+00
  1.60000000E+01  1.00800000E+00  1.00800000E+00  1.60000000E+01  1.00800000E+00
  1.00800000E+00  1.60000000E+01  1.00800000E+00  1.00800000E+00  1.60000000E+01
  1.00800000E+00  1.00800000E+00  1.60000000E+01  1.00800000E+00  1.00800000E+00
  1.60000000E+01  1.00800000E+00  1.00800000E+00  1.60000000E+01  1.00800000E+00
  1.00800000E+00  1.60000000E+01  1.00800000E+00  1.00800000E+00  1.60000000E+01
  1.00800000E+00  1.00800000E+00  1.60000000E+01  1.00800000E+00  1.00800000E+00
  1.60000000E+01  1.00800000E+00  1.00800000E+00  1.60000000E+01  1.00800000E+00
  1.00800000E+00  1.60000000E+01  1.00800000E+00  1.00800000E+00  1.60000000E+01
  1.00800000E+00  1.00800000E+00  1.60000000E+01  1.00800000E+00  1.00800000E+00
  1.60000000E+01  1.00800000E+00  1.00800000E+00  1.60000000E+01  1.00800000E+00
  1.00800000E+00  1.60000000E+01  1.00800000E+00  1.00800000E+00  1.60000000E+01
  1.00800000E+00  1.00800000E+00  1.60000000E+01  1.00800000E+00  1.00800000E+00
  1.60000000E+01  1.00800000E+00  1.00800000E+00  1.60000000E+01  1.00800000E+00
  1.00800000E+00  1.60000000E+01  1.00800000E+00  1.00800000E+00  1.60000000E+01
  1.00800000E+00  1.00800000E+00  1.60000000E+01  1.00800000E+00  1.00800000E+00
  1.60000000E+01  1.00800000E+00  1.00800000E+00  1.60000000E+01  1.00800000E+00
  1.00800000E+00  1.60000000E+01  1.00800000E+00  1.00800000E+00  1.60000000E+01
  1.00800000E+00  1.00800000E+00  1.60000000E+01  1.00800000E+00  1.00800000E+00
  1.60000000E+01  1.00800000E+00  1.00800000E+00  1.60000000E+01  1.00800000E+00
  1.00800000E+00  1.60000000E+01  1.00800000E+00  1.00800000E+00  1.60000000E+01
  1.00800000E+00  1.00800000E+00  1.60000000E+01  1.00800000E+00  1.00800000E+00
  1.60000000E+01  1.00800000E+00  1.00800000E+00  1.60000000E+01  1.00800000E+00
  1.00800000E+00  1.60000000E+01  1.00800000E+00  1.00800000E+00  1.60000000E+01
  1.00800000E+00  1.00800000E+00  1.60000000E+01  1.00800000E+00  1.00800000E+00
  1.60000000E+01  1.00800000E+00  1.00800000E+00  1.60000000E+01  1.00800000E+00
  1.00800000E+00  1.60000000E+01  1.00800000E+00  1.00800000E+00  1.60000000E+01
  1.00800000E+00  1.00800000E+00  1.60000000E+01  1.00800000E+00  1.00800000E+00
  1.60000000E+01  1.00800000E+00  1.00800000E+00  1.60000000E+01  1.00800000E+00
  1.00800000E+00  1.60000000E+01  1.00800000E+00  1.00800000E+00  1.60000000E+01
  1.00800000E+00  1.00800000E+00  1.60000000E+01  1.00800000E+00  1.00800000E+00
  1.60000000E+01  1.00800000E+00  1.00800000E+00  1.60000000E+01  1.00800000E+00
  1.00800000E+00  1.60000000E+01  1.00800000E+00  1.00800000E+00  1.60000000E+01
  1.00800000E+00  1.00800000E+00  1.60000000E+01  1.00800000E+00  1.00800000E+00
  1.60000000E+01  1.00800000E+00  1.00800000E+00  1.60000000E+01  1.00800000E+00
  1.00800000E+00  1.60000000E+01  1.00800000E+00  1.00800000E+00  1.60000000E+01
  1.00800000E+00  1.00800000E+00  1.60000000E+01  1.00800000E+00  1.00800000E+00
  1.60000000E+01  1.00800000E+00  1.00800000E+00  1.60000000E+01  1.00800000E+00
  1.00800000E+00  1.60000000E+01  1.00800000E+00  1.00800000E+00  1.60000000E+01
  1.00800000E+00  1.00800000E+00  1.60000000E+01  1.00800000E+00  1.00800000E+00
  1.60000000E+01  1.00800000E+00  1.00800000E+00  1.60000000E+01  1.00800000E+00
  1.00800000E+00  1.60000000E+01  1.00800000E+00  1.00800000E+00  1.60000000E+01
  1.00800000E+00  1.00800000E+00  1.60000000E+01  1.00800000E+00  1.00800000E+00
  1.60000000E+01  1.00800000E+00  1.00800000E+00  1.60000000E+01  1.00800000E+00
  1.00800000E+00  1.60000000E+01  1.00800000E+00  1.00800000E+00  1.60000000E+01
  1.00800000E+00  1.00800000E+00  1.60000000E+01  1.00800000E+00  1.00800000E+00
  1.60000000E+01  1.00800000E+00  1.00800000E+00  1.60000000E+01  1.00800000E+00
  1.00800000E+00  1.60000000E+01  1.00800000E+00  1.00800000E+00  1.60000000E+01
  1.00800000E+00  1.00800000E+00  1.60000000E+01  1.00800000E+00  1.00800000E+00
  1.60000000E+01  1.00800000E+00  1.00800000E+00  1.60000000E+01  1.00800000E+00
  1.00800000E+00  1.60000000E+01  1.00800000E+00  1.00800000E+00  1.60000000E+01
  1.00800000E+00  1.00800000E+00  1.60000000E+01  1.00800000E+00  1.00800000E+00
  1.60000000E+01  1.00800000E+00  1.00800000E+00  1.60000000E+01  1.00800000E+00
  1.00800000E+00  1.60000000E+01  1.00800000E+00  1.00800000E+00  1.60000000E+01
  1.00800000E+00  1.00800000E+00  1.60000000E+01  1.00800000E+00  1.00800000E+00
  1.60000000E+01  1.00800000E+00  1.00800000E+00  1.60000000E+01  1.00800000E+00
  1.00800000E+00  1.60000000E+01  1.00800000E+00  1.00800000E+00  1.60000000E+01
  1.00800000E+00  1.00800000E+00  1.60000000E+01  1.00800000E+00  1.00800000E+00
  1.60000000E+01  1.00800000E+00  1.00800000E+00  1.60000000E+01  1.00800000E+00
  1.00800000E+00  1.60000000E+01  1.00800000E+00  1.00800000E+00  1.60000000E+01
  1.00800000E+00  1.00800000E+00  1.60000000E+01  1.00800000E+00  1.00800000E+00
  1.60000000E+01  1.00800000E+00  1.00800000E+00  1.60000000E+01  1.00800000E+00
  1.00800000E+00  1.60000000E+01  1.00800000E+00  1.00800000E+00  1.60000000E+01
  1.00800000E+00  1.00800000E+00  1.60000000E+01  1.00800000E+00  1.00800000E+00
  1.60000000E+01  1.00800000E+00  1.00800000E+00  1.60000000E+01  1.00800000E+00
  1.00800000E+00  1.60000000E+01  1.00800000E+00  1.00800000E+00  1.60000000E+01
  1.00800000E+00  1.00800000E+00  1.60000000E+01  1.00800000E+00  1.00800000E+00
  1.60000000E+01  1.00800000E+00  1.00800000E+00  1.60000000E+01  1.00800000E+00
  1.00800000E+00  1.60000000E+01  1.00800000E+00  1.00800000E+00  1.60000000E+01
  1.00800000E+00  1.00800000E+00  1.60000000E+01  1.00800000E+00  1.00800000E+00
  1.60000000E+01  1.00800000E+00  1.00800000E+00  1.60000000E+01  1.00800000E+00
  1.00800000E+00  1.60000000E+01  1.00800000E+00  1.00800000E+00  1.60000000E+01
  1.00800000E+00  1.00800000E+00  1.60000000E+01  1.00800000E+00  1.00800000E+00
  1.60000000E+01  1.00800000E+00  1.00800000E+00  1.60000000E+01  1.00800000E+00
  1.00800000E+00  1.60000000E+01  1.00800000E+00  1.00800000E+00  1.60000000E+01
  1.00800000E+00  1.00800000E+00  1.60000000E+01  1.00800000E+00  1.00800000E+00
  1.60000000E+01  1.00800000E+00  1.00800000E+00  1.60000000E+01  1.00800000E+00
  1.00800000E+00  1.60000000E+01  1.00800000E+00  1.00800000E+00  1.60000000E+01
  1.00800000E+00  1.00800000E+00  1.60000000E+01  1.00800000E+00  1.00800000E+00
  1.60000000E+01  1.00800000E+00  1.00800000E+00  1.60000000E+01  1.00800000E+00
  1.00800000E+00  1.60000000E+01  1.00800000E+00  1.00800000E+00  1.60000000E+01
  1.00800000E+00  1.00800000E+00  1.60000000E+01  1.00800000E+00  1.00800000E+00
  1.60000000E+01  1.00800000E+00  1.00800000E+00  1.60000000E+01  1.00800000E+00
  1.00800000E+00  1.60000000E+01  1.00800000E+00  1.00800000E+00  1.60000000E+01
  1.00800000E+00  1.00800000E+00  1.60000000E+01  1.00800000E+00  1.00800000E+00
  1.60000000E+01  1.00800000E+00  1.00800000E+00  1.60000000E+01  1.00800000E+00
  1.00800000E+00  1.60000000E+01  1.00800000E+00  1.00800000E+00  1.60000000E+01
  1.00800000E+00  1.00800000E+00  1.60000000E+01  1.00800000E+00  1.00800000E+00
  1.60000000E+01  1.00800000E+00  1.00800000E+00  1.60000000E+01  1.00800000E+00
  1.00800000E+00  1.60000000E+01  1.00800000E+00  1.00800000E+00  1.60000000E+01
  1.00800000E+00  1.00800000E+00  1.60000000E+01  1.00800000E+00  1.00800000E+00
  1.60000000E+01  1.00800000E+00  1.00800000E+00  1.60000000E+01  1.00800000E+00
  1.00800000E+00  1.60000000E+01  1.00800000E+00  1.00800000E+00  1.60000000E+01
  1.00800000E+00  1.00800000E+00  1.60000000E+01  1.00800000E+00  1.00800000E+00
  1.60000000E+01  1.00800000E+00  1.00800000E+00  1.60000000E+01  1.00800000E+00
  1.00800000E+00  1.60000000E+01  1.00800000E+00  1.00800000E+00  1.60000000E+01
  1.00800000E+00  1.00800000E+00  1.60000000E+01  1.00800000E+00  1.00800000E+00
  1.60000000E+01  1.00800000E+00  1.00800000E+00  1.60000000E+01  1.00800000E+00
  1.00800000E+00  1.60000000E+01  1.00800000E+00  1.00800000E+00  1.60000000E+01
  1.00800000E+00  1.00800000E+00  1.60000000E+01  1.00800000E+00  1.00800000E+00
  1.60000000E+01  1.00800000E+00  1.00800000E+00  1.60000000E+01  1.00800000E+00
  1.00800000E+00  1.60000000E+01  1.00800000E+00  1.00800000E+00  1.60000000E+01
  1.00800000E+00  1.00800000E+00  1.60000000E+01  1.00800000E+00  1.00800000E+00
  1.60000000E+01  1.00800000E+00  1.00800000E+00  1.60000000E+01  1.00800000E+00
  1.00800000E+00  1.60000000E+01  1.00800000E+00  1.00800000E+00  1.60000000E+01
  1.00800000E+00  1.00800000E+00  1.60000000E+01  1.00800000E+00  1.00800000E+00
  1.60000000E+01  1.00800000E+00  1.00800000E+00  1.60000000E+01  1.00800000E+00
  1.00800000E+00  1.60000000E+01  1.00800000E+00  1.00800000E+00  1.60000000E+01
  1.00800000E+00  1.00800000E+00  1.60000000E+01  1.00800000E+00  1.00800000E+00
  1.60000000E+01  1.00800000E+00  1.00800000E+00  1.60000000E+01  1.00800000E+00
  1.00800000E+00  1.60000000E+01  1.00800000E+00  1.00800000E+00  1.60000000E+01
  1.00800000E+00  1.00800000E+00  1.60000000E+01  1.00800000E+00  1.00800000E+00
  1.60000000E+01  1.00800000E+00  1.00800000E+00  1.60000000E+01  1.00800000E+00
  1.00800000E+00  1.60000000E+01  1.00800000E+00  1.00800000E+00  1.60000000E+01
  1.00800000E+00  1.00800000E+00  1.60000000E+01  1.00800000E+00  1.00800000E+00
  1.60000000E+01  1.00800000E+00  1.00800000E+00  1.60000000E+01  1.00800000E+00
  1.00800000E+00  1.60000000E+01  1.00800000E+00  1.00800000E+00  1.60000000E+01
  1.00800000E+00  1.00800000E+00  1.60000000E+01  1.00800000E+00  1.00800000E+00
  1.60000000E+01  1.00800000E+00  1.00800000E+00  1.60000000E+01  1.00800000E+00
  1.00800000E+00  1.60000000E+01  1.00800000E+00  1.00800000E+00  1.60000000E+01
  1.00800000E+00  1.00800000E+00  1.60000000E+01  1.00800000E+00  1.00800000E+00
  1.60000000E+01  1.00800000E+00  1.00800000E+00  1.60000000E+01  1.00800000E+00
  1.00800000E+00  1.60000000E+01  1.00800000E+00  1.00800000E+00  1.60000000E+01
  1.00800000E+00  1.00800000E+00  1.60000000E+01  1.00800000E+00  1.00800000E+00
  1.60000000E+01  1.00800000E+00  1.00800000E+00  1.60000000E+01  1.00800000E+00
  1.00800000E+00  1.60000000E+01  1.00800000E+00  1.00800000E+00  1.60000000E+01
  1.00800000E+00  1.00800000E+00  1.60000000E+01  1.00800000E+00  1.00800000E+00
  1.60000000E+01  1.00800000E+00  1.00800000E+00  1.60000000E+01  1.00800000E+00
  1.00800000E+00  1.60000000E+01  1.00800000E+00  1.00800000E+00  1.60000000E+01
  1.00800000E+00  1.00800000E+00  1.60000000E+01  1.00800000E+00  1.00800000E+00
  1.60000000E+01  1.00800000E+00  1.00800000E+00  1.60000000E+01  1.00800000E+00
  1.00800000E+00  1.60000000E+01  1.00800000E+00  1.00800000E+00  1.60000000E+01
  1.00800000E+00  1.00800000E+00  1.60000000E+01  1.00800000E+00  1.00800000E+00
  1.60000000E+01  1.00800000E+00  1.00800000E+00  1.60000000E+01  1.00800000E+00
  1.00800000E+00  1.60000000E+01  1.00800000E+00  1.00800000E+00  1.60000000E+01
  1.00800000E+00  1.00800000E+00  1.60000000E+01  1.00800000E+00  1.00800000E+00
  1.60000000E+01  1.00800000E+00  1.00800000E+00  1.60000000E+01  1.00800000E+00
  1.00800000E+00  1.60000000E+01  1.00800000E+00  1.00800000E+00  1.60000000E+01
  1.00800000E+00  1.00800000E+00  1.60000000E+01  1.00800000E+00  1.00800000E+00
  1.60000000E+01  1.00800000E+00  1.00800000E+00  1.60000000E+01  1.00800000E+00
  1.00800000E+00  1.60000000E+01  1.00800000E+00  1.00800000E+00  1.60000000E+01
  1.00800000E+00  1.00800000E+00  1.60000000E+01  1.00800000E+00  1.00800000E+00
  1.60000000E+01  1.00800000E+00  1.00800000E+00  1.60000000E+01  1.00800000E+00
  1.00800000E+00  1.60000000E+01  1.00800000E+00  1.00800000E+00  1.60000000E+01
  1.00800000E+00  1.00800000E+00  1.60000000E+01  1.00800000E+00  1.00800000E+00
  1.60000000E+01  1.00800000E+00  1.00800000E+00  1.60000000E+01  1.00800000E+00
  1.00800000E+00  1.60000000E+01  1.00800000E+00  1.00800000E+00  1.60000000E+01
  1.00800000E+00  1.00800000E+00  1.60000000E+01  1.00800000E+00  1.00800000E+00
  1.60000000E+01  1.00800000E+00  1.00800000E+00  1.60000000E+01  1.00800000E+00
  1.00800000E+00  1.60000000E+01  1.00800000E+00  1.00800000E+00  1.60000000E+01
  1.00800000E+00  1.00800000E+00  1.60000000E+01  1.00800000E+00  1.00800000E+00
  1.60000000E+01  1.00800000E+00  1.00800000E+00  1.60000000E+01  1.00800000E+00
  1.00800000E+00  1.60000000E+01  1.00800000E+00  1.00800000E+00  1.60000000E+01
  1.00800000E+00  1.00800000E+00  1.60000000E+01  1.00800000E+00  1.00800000E+00
  1.60000000E+01  1.00800000E+00  1.00800000E+00  1.60000000E+01  1.00800000E+00
  1.00800000E+00  1.60000000E+01  1.00800000E+00  1.00800000E+00  1.60000000E+01
  1.00800000E+00  1.00800000E+00  1.60000000E+01  1.00800000E+00  1.00800000E+00
  1.60000000E+01  1.00800000E+00  1.00800000E+00  1.60000000E+01  1.00800000E+00
  1.00800000E+00  1.60000000E+01  1.00800000E+00  1.00800000E+00  1.60000000E+01
  1.00800000E+00  1.00800000E+00  1.60000000E+01  1.00800000E+00  1.00800000E+00
  1.60000000E+01  1.00800000E+00  1.00800000E+00  1.60000000E+01  1.00800000E+00
  1.00800000E+00  1.60000000E+01  1.00800000E+00  1.00800000E+00  1.60000000E+01
  1.00800000E+00  1.00800000E+00  1.60000000E+01  1.00800000E+00  1.00800000E+00
  1.60000000E+01  1.00800000E+00  1.00800000E+00  1.60000000E+01  1.00800000E+00
  1.00800000E+00  1.60000000E+01  1.00800000E+00  1.00800000E+00  1.60000000E+01
  1.00800000E+00  1.00800000E+00  1.60000000E+01  1.00800000E+00  1.00800000E+00
  1.60000000E+01  1.00800000E+00  1.00800000E+00  1.60000000E+01  1.00800000E+00
  1.00800000E+00  1.60000000E+01  1.00800000E+00  1.00800000E+00  1.60000000E+01
  1.00800000E+00  1.00800000E+00  1.60000000E+01  1.00800000E+00  1.00800000E+00
  1.60000000E+01  1.00800000E+00  1.00800000E+00  1.60000000E+01  1.00800000E+00
  1.00800000E+00  1.60000000E+01  1.00800000E+00  1.00800000E+00  1.60000000E+01
  1.00800000E+00  1.00800000E+00  1.60000000E+01  1.00800000E+00  1.00800000E+00
  1.60000000E+01  1.00800000E+00  1.00800000E+00  1.60000000E+01  1.00800000E+00
  1.00800000E+00  1.60000000E+01  1.00800000E+00  1.00800000E+00  1.60000000E+01
  1.00800000E+00  1.00800000E+00  1.60000000E+01  1.00800000E+00  1.00800000E+00
  1.60000000E+01  1.00800000E+00  1.00800000E+00  1.60000000E+01  1.00800000E+00
  1.00800000E+00  1.60000000E+01  1.00800000E+00  1.00800000E+00  1.60000000E+01
  1.00800000E+00  1.00800000E+00  1.60000000E+01  1.00800000E+00  1.00800000E+00
  1.60000000E+01  1.00800000E+00  1.00800000E+00  1.60000000E+01  1.00800000E+00
  1.00800000E+00  1.60000000E+01  1.00800000E+00  1.00800000E+00  1.60000000E+01
  1.00800000E+00  1.00800000E+00  1.60000000E+01  1.00800000E+00  1.00800000E+00
  1.60000000E+01  1.00800000E+00  1.00800000E+00  1.60000000E+01  1.00800000E+00
  1.00800000E+00  1.60000000E+01  1.00800000E+00  1.00800000E+00  1.60000000E+01
  1.00800000E+00  1.00800000E+00  1.60000000E+01  1.00800000E+00  1.00800000E+00
  1.60000000E+01  1.00800000E+00  1.00800000E+00  1.60000000E+01  1.00800000E+00
  1.00800000E+00  1.60000000E+01  1.00800000E+00  1.00800000E+00  1.60000000E+01
  1.00800000E+00  1.00800000E+00  1.60000000E+01  1.00800000E+00  1.00800000E+00
  1.60000000E+01  1.00800000E+00  1.00800000E+00  1.60000000E+01  1.00800000E+00
  1.00800000E+00  1.60000000E+01  1.00800000E+00  1.00800000E+00  1.60000000E+01
  1.00800000E+00  1.00800000E+00  1.60000000E+01  1.00800000E+00  1.00800000E+00
  1.60000000E+01  1.00800000E+00  1.00800000E+00  1.60000000E+01  1.00800000E+00
  1.00800000E+00  1.60000000E+01  1.00800000E+00  1.00800000E+00  1.60000000E+01
  1.00800000E+00  1.00800000E+00  1.60000000E+01  1.00800000E+00  1.00800000E+00
  1.60000000E+01  1.00800000E+00  1.00800000E+00  1.60000000E+01  1.00800000E+00
  1.00800000E+00  1.60000000E+01  1.00800000E+00  1.00800000E+00  1.60000000E+01
  1.00800000E+00  1.00800000E+00  1.60000000E+01  1.00800000E+00  1.00800000E+00
  1.60000000E+01  1.00800000E+00  1.00800000E+00  1.60000000E+01  1.00800000E+00
  1.00800000E+00  1.60000000E+01  1.00800000E+00  1.00800000E+00  1.60000000E+01
  1.00800000E+00  1.00800000E+00  1.60000000E+01  1.00800000E+00  1.00800000E+00
  1.60000000E+01  1.00800000E+00  1.00800000E+00  1.60000000E+01  1.00800000E+00
  1.00800000E+00  1.60000000E+01  1.00800000E+00  1.00800000E+00  1.60000000E+01
  1.00800000E+00  1.00800000E+00  1.60000000E+01  1.00800000E+00  1.00800000E+00
  1.60000000E+01  1.00800000E+00  1.00800000E+00  1.60000000E+01  1.00800000E+00
  1.00800000E+00  1.60000000E+01  1.00800000E+00  1.00800000E+00  1.60000000E+01
  1.00800000E+00  1.00800000E+00  1.60000000E+01  1.00800000E+00  1.00800000E+00
  1.60000000E+01  1.00800000E+00  1.00800000E+00  1.60000000E+01  1.00800000E+00
  1.00800000E+00  1.60000000E+01  1.00800000E+00  1.00800000E+00  1.60000000E+01
  1.00800000E+00  1.00800000E+00  1.60000000E+01  1.00800000E+00  1.00800000E+00
  1.60000000E+01  1.00800000E+00  1.00800000E+00  1.60000000E+01  1.00800000E+00
  1.00800000E+00  1.60000000E+01  1.00800000E+00  1.00800000E+00  1.60000000E+01
  1.00800000E+00  1.00800000E+00  1.60000000E+01  1.00800000E+00  1.00800000E+00
  1.60000000E+01  1.00800000E+00  1.00800000E+00  1.60000000E+01  1.00800000E+00
  1.00800000E+00  1.60000000E+01  1.00800000E+00  1.00800000E+00  1.60000000E+01
  1.00800000E+00  1.00800000E+00  1.60000000E+01  1.00800000E+00  1.00800000E+00
  1.60000000E+01  1.00800000E+00  1.00800000E+00  1.60000000E+01  1.00800000E+00
  1.00800000E+00  1.60000000E+01  1.00800000E+00  1.00800000E+00  1.60000000E+01
  1.00800000E+00  1.00800000E+00  1.60000000E+01  1.00800000E+00  1.00800000E+00
  1.60000000E+01  1.00800000E+00  1.00800000E+00  1.60000000E+01  1.00800000E+00
  1.00800000E+00  1.60000000E+01  1.00800000E+00  1.00800000E+00  1.60000000E+01
  1.00800000E+00  1.00800000E+00  1.60000000E+01  1.00800000E+00  1.00800000E+00
  1.60000000E+01  1.00800000E+00  1.00800000E+00  1.60000000E+01  1.00800000E+00
  1.00800000E+00  1.60000000E+01  1.00800000E+00  1.00800000E+00  1.60000000E+01
  1.00800000E+00  1.00800000E+00  1.60000000E+01  1.00800000E+00  1.00800000E+00
  1.60000000E+01  1.00800000E+00  1.00800000E+00  1.60000000E+01  1.00800000E+00
  1.00800000E+00  1.60000000E+01  1.00800000E+00  1.00800000E+00  1.60000000E+01
  1.00800000E+00  1.00800000E+00  1.60000000E+01  1.00800000E+00  1.00800000E+00
  1.60000000E+01  1.00800000E+00  1.00800000E+00  1.60000000E+01  1.00800000E+00
  1.00800000E+00  1.60000000E+01  1.00800000E+00  1.00800000E+00  1.60000000E+01
  1.00800000E+00  1.00800000E+00  1.60000000E+01  1.00800000E+00  1.00800000E+00
  1.60000000E+01  1.00800000E+00  1.00800000E+00  1.60000000E+01  1.00800000E+00
  1.00800000E+00  1.60000000E+01  1.00800000E+00  1.00800000E+00  1.60000000E+01
  1.00800000E+00  1.00800000E+00  1.60000000E+01  1.00800000E+00  1.00800000E+00
  1.60000000E+01  1.00800000E+00  1.00800000E+00  1.60000000E+01  1.00800000E+00
  1.00800000E+00  1.60000000E+01  1.00800000E+00  1.00800000E+00  1.60000000E+01
  1.00800000E+00  1.00800000E+00  1.60000000E+01  1.00800000E+00  1.00800000E+00
  1.60000000E+01  1.00800000E+00  1.00800000E+00  1.60000000E+01  1.00800000E+00
  1.00800000E+00  1.60000000E+01  1.00800000E+00  1.00800000E+00  1.60000000E+01
  1.00800000E+00  1.00800000E+00  1.60000000E+01  1.00800000E+00  1.00800000E+00
  1.60000000E+01  1.00800000E+00  1.00800000E+00  1.60000000E+01  1.00800000E+00
  1.00800000E+00  1.60000000E+01  1.00800000E+00  1.00800000E+00  1.60000000E+01
  1.00800000E+00  1.00800000E+00  1.60000000E+01  1.00800000E+00  1.00800000E+00
  1.60000000E+01  1.00800000E+00  1.00800000E+00  1.60000000E+01  1.00800000E+00
  1.00800000E+00  1.60000000E+01  1.00800000E+00  1.00800000E+00  1.60000000E+01
  1.00800000E+00  1.00800000E+00  1.60000000E+01  1.00800000E+00  1.00800000E+00
  1.60000000E+01  1.00800000E+00  1.00800000E+00  1.60000000E+01  1.00800000E+00
  1.00800000E+00  1.60000000E+01  1.00800000E+00  1.00800000E+00  1.60000000E+01
  1.00800000E+00  1.00800000E+00  1.60000000E+01  1.00800000E+00  1.00800000E+00
  1.60000000E+01  1.00800000E+00  1.00800000E+00  1.60000000E+01  1.00800000E+00
  1.00800000E+00  1.60000000E+01  1.00800000E+00  1.00800000E+00  1.60000000E+01
  1.00800000E+00  1.00800000E+00  1.60000000E+01  1.00800000E+00  1.00800000E+00
  1.60000000E+01  1.00800000E+00  1.00800000E+00  1.60000000E+01  1.00800000E+00
  1.00800000E+00  1.60000000E+01  1.00800000E+00  1.00800000E+00  1.60000000E+01
  1.00800000E+00  1.00800000E+00  1.60000000E+01  1.00800000E+00  1.00800000E+00
  1.60000000E+01  1.00800000E+00  1.00800000E+00  1.60000000E+01  1.00800000E+00
  1.00800000E+00  1.60000000E+01  1.00800000E+00  1.00800000E+00  1.60000000E+01
  1.00800000E+00  1.00800000E+00  1.60000000E+01  1.00800000E+00  1.00800000E+00
  1.60000000E+01  1.00800000E+00  1.00800000E+00  1.60000000E+01  1.00800000E+00
  1.00800000E+00  1.60000000E+01  1.00800000E+00  1.00800000E+00  1.60000000E+01
  1.00800000E+00  1.00800000E+00  1.60000000E+01  1.00800000E+00  1.00800000E+00
  1.60000000E+01  1.00800000E+00  1.00800000E+00  1.60000000E+01  1.00800000E+00
  1.00800000E+00  1.60000000E+01  1.00800000E+00  1.00800000E+00  1.60000000E+01
  1.00800000E+00  1.00800000E+00  1.60000000E+01  1.00800000E+00  1.00800000E+00
  1.60000000E+01  1.00800000E+00  1.00800000E+00  1.60000000E+01  1.00800000E+00
  1.00800000E+00  1.60000000E+01  1.00800000E+00  1.00800000E+00  1.60000000E+01
  1.00800000E+00  1.00800000E+00  1.60000000E+01  1.00800000E+00  1.00800000E+00
  1.60000000E+01  1.00800000E+00  1.00800000E+00  1.60000000E+01  1.00800000E+00
  1.00800000E+00  1.60000000E+01  1.00800000E+00  1.00800000E+00  1.60000000E+01
  1.00800000E+00  1.00800000E+00  1.60000000E+01  1.00800000E+00  1.00800000E+00
  1.60000000E+01  1.00800000E+00  1.00800000E+00  1.60000000E+01  1.00800000E+00
  1.00800000E+00  1.60000000E+01  1.00800000E+00  1.00800000E+00  1.60000000E+01
  1.00800000E+00  1.00800000E+00  1.60000000E+01  1.00800000E+00  1.00800000E+00
  1.60000000E+01  1.00800000E+00  1.00800000E+00  1.60000000E+01  1.00800000E+00
  1.00800000E+00  1.60000000E+01  1.00800000E+00  1.00800000E+00  1.60000000E+01
  1.00800000E+00  1.00800000E+00  1.60000000E+01  1.00800000E+00  1.00800000E+00
  1.60000000E+01  1.00800000E+00  1.00800000E+00  1.60000000E+01  1.00800000E+00
  1.00800000E+00  1.60000000E+01  1.00800000E+00  1.00800000E+00  1.60000000E+01
  1.00800000E+00  1.00800000E+00  1.60000000E+01  1.00800000E+00  1.00800000E+00
  1.60000000E+01  1.00800000E+00  1.00800000E+00  1.60000000E+01  1.00800000E+00
  1.00800000E+00  1.60000000E+01  1.00800000E+00  1.00800000E+00  1.60000000E+01
  1.00800000E+00  1.00800000E+00  1.60000000E+01  1.00800000E+00  1.00800000E+00
  1.60000000E+01  1.00800000E+00  1.00800000E+00  1.60000000E+01  1.00800000E+00
  1.00800000E+00  1.60000000E+01  1.00800000E+00  1.00800000E+00  1.60000000E+01
  1.00800000E+00  1.00800000E+00  1.60000000E+01  1.00800000E+00  1.00800000E+00
  1.60000000E+01  1.00800000E+00  1.00800000E+00  1.60000000E+01  1.00800000E+00
  1.00800000E+00  1.60000000E+01  1.00800000E+00  1.00800000E+00  1.60000000E+01
  1.00800000E+00  1.00800000E+00  1.60000000E+01  1.00800000E+00  1.00800000E+00
  1.60000000E+01  1.00800000E+00  1.00800000E+00  1.60000000E+01  1.00800000E+00
  1.00800000E+00  1.60000000E+01  1.00800000E+00  1.00800000E+00  1.60000000E+01
  1.00800000E+00  1.00800000E+00  1.60000000E+01  1.00800000E+00  1.00800000E+00
  1.60000000E+01  1.00800000E+00  1.00800000E+00  1.60000000E+01  1.00800000E+00
  1.00800000E+00  1.60000000E+01  1.00800000E+00  1.00800000E+00  1.60000000E+01
  1.00800000E+00  1.00800000E+00  1.60000000E+01  1.00800000E+00  1.00800000E+00
  1.60000000E+01  1.00800000E+00  1.00800000E+00  1.60000000E+01  1.00800000E+00
  1.00800000E+00  1.60000000E+01  1.00800000E+00  1.00800000E+00  1.60000000E+01
  1.00800000E+00  1.00800000E+00  1.60000000E+01  1.00800000E+00  1.00800000E+00
  1.60000000E+01  1.00800000E+00  1.00800000E+00  1.60000000E+01  1.00800000E+00
  1.00800000E+00  1.60000000E+01  1.00800000E+00  1.00800000E+00  1.60000000E+01
  1.00800000E+00  1.00800000E+00  1.60000000E+01  1.00800000E+00  1.00800000E+00
  1.60000000E+01  1.00800000E+00  1.00800000E+00  1.60000000E+01  1.00800000E+00
  1.00800000E+00  1.60000000E+01  1.00800000E+00  1.00800000E+00  1.60000000E+01
  1.00800000E+00  1.00800000E+00  1.60000000E+01  1.00800000E+00  1.00800000E+00
  1.60000000E+01  1.00800000E+00  1.00800000E+00  1.60000000E+01  1.00800000E+00
  1.00800000E+00  1.60000000E+01  1.00800000E+00  1.00800000E+00  1.60000000E+01
  1.00800000E+00  1.00800000E+00  1.60000000E+01  1.00800000E+00  1.00800000E+00
  1.60000000E+01  1.00800000E+00  1.00800000E+00  1.60000000E+01  1.00800000E+00
  1.00800000E+00  1.60000000E+01  1.00800000E+00  1.00800000E+00  1.60000000E+01
  1.00800000E+00  1.00800000E+00  1.60000000E+01  1.00800000E+00  1.00800000E+00
  1.60000000E+01  1.00800000E+00  1.00800000E+00  1.60000000E+01  1.00800000E+00
  1.00800000E+00  1.60000000E+01  1.00800000E+00  1.00800000E+00  1.60000000E+01
  1.00800000E+00  1.00800000E+00  1.60000000E+01  1.00800000E+00  1.00800000E+00
  1.60000000E+01  1.00800000E+00  1.00800000E+00  1.60000000E+01  1.00800000E+00
  1.00800000E+00  1.60000000E+01  1.00800000E+00  1.00800000E+00  1.60000000E+01
  1.00800000E+00  1.00800000E+00  1.60000000E+01  1.00800000E+00  1.00800000E+00
  1.60000000E+01  1.00800000E+00  1.00800000E+00  1.60000000E+01  1.00800000E+00
  1.00800000E+00  1.60000000E+01  1.00800000E+00  1.00800000E+00  1.60000000E+01
  1.00800000E+00  1.00800000E+00  1.60000000E+01  1.00800000E+00  1.00800000E+00
  1.60000000E+01  1.00800000E+00  1.00800000E+00  1.60000000E+01  1.00800000E+00
  1.00800000E+00  1.60000000E+01  1.00800000E+00  1.00800000E+00  1.60000000E+01
  1.00800000E+00  1.00800000E+00  1.60000000E+01  1.00800000E+00  1.00800000E+00
  1.60000000E+01  1.00800000E+00  1.00800000E+00  1.60000000E+01  1.00800000E+00
  1.00800000E+00  1.60000000E+01  1.00800000E+00  1.00800000E+00  1.60000000E+01
  1.00800000E+00  1.00800000E+00  1.60000000E+01  1.00800000E+00  1.00800000E+00
  1.60000000E+01  1.00800000E+00  1.00800000E+00  1.60000000E+01  1.00800000E+00
  1.00800000E+00  1.60000000E+01  1.00800000E+00  1.00800000E+00  1.60000000E+01
  1.00800000E+00  1.00800000E+00  1.60000000E+01  1.00800000E+00  1.00800000E+00
  1.60000000E+01  1.00800000E+00  1.00800000E+00  1.60000000E+01  1.00800000E+00
  1.00800000E+00  1.60000000E+01  1.00800000E+00  1.00800000E+00  1.60000000E+01
  1.00800000E+00  1.00800000E+00  1.60000000E+01  1.00800000E+00  1.00800000E+00
  1.60000000E+01  1.00800000E+00  1.00800000E+00  1.60000000E+01  1.00800000E+00
  1.00800000E+00  1.60000000E+01  1.00800000E+00  1.00800000E+00  1.60000000E+01
  1.00800000E+00  1.00800000E+00  1.60000000E+01  1.00800000E+00  1.00800000E+00
  1.60000000E+01  1.00800000E+00  1.00800000E+00  1.60000000E+01  1.00800000E+00
  1.00800000E+00  1.60000000E+01  1.00800000E+00  1.00800000E+00  1.60000000E+01
  1.00800000E+00  1.00800000E+00  1.60000000E+01  1.00800000E+00  1.00800000E+00
  1.60000000E+01  1.00800000E+00  1.00800000E+00  1.60000000E+01  1.00800000E+00
  1.00800000E+00  1.60000000E+01  1.00800000E+00  1.00800000E+00  1.60000000E+01
  1.00800000E+00  1.00800000E+00  1.60000000E+01  1.00800000E+00  1.00800000E+00
  1.60000000E+01  1.00800000E+00  1.00800000E+00  1.60000000E+01  1.00800000E+00
  1.00800000E+00  1.60000000E+01  1.00800000E+00  1.00800000E+00  1.60000000E+01
  1.00800000E+00  1.00800000E+00  1.60000000E+01  1.00800000E+00  1.00800000E+00
  1.60000000E+01  1.00800000E+00  1.00800000E+00  1.60000000E+01  1.00800000E+00
  1.00800000E+00  1.60000000E+01  1.00800000E+00  1.00800000E+00  1.60000000E+01
  1.00800000E+00  1.00800000E+00  1.60000000E+01  1.00800000E+00  1.00800000E+00
  1.60000000E+01  1.00800000E+00  1.00800000E+00  1.60000000E+01  1.00800000E+00
  1.00800000E+00  1.60000000E+01  1.00800000E+00  1.00800000E+00  1.60000000E+01
  1.00800000E+00  1.00800000E+00  1.60000000E+01  1.00800000E+00  1.00800000E+00
  1.60000000E+01  1.00800000E+00  1.00800000E+00  1.60000000E+01  1.00800000E+00
  1.00800000E+00  1.60000000E+01  1.00800000E+00  1.00800000E+00  1.60000000E+01
  1.00800000E+00  1.00800000E+00  1.60000000E+01  1.00800000E+00  1.00800000E+00
  1.60000000E+01  1.00800000E+00  1.00800000E+00  1.60000000E+01  1.00800000E+00
  1.00800000E+00  1.60000000E+01  1.00800000E+00  1.00800000E+00  1.60000000E+01
  1.00800000E+00  1.00800000E+00  1.60000000E+01  1.00800000E+00  1.00800000E+00
  1.60000000E+01  1.00800000E+00  1.00800000E+00  1.60000000E+01  1.00800000E+00
  1.00800000E+00  1.60000000E+01  1.00800000E+00  1.00800000E+00  1.60000000E+01
  1.00800000E+00  1.00800000E+00  1.60000000E+01  1.00800000E+00  1.00800000E+00
  1.60000000E+01  1.00800000E+00  1.00800000E+00  1.60000000E+01  1.00800000E+00
  1.00800000E+00  1.60000000E+01  1.00800000E+00  1.00800000E+00  1.60000000E+01
  1.00800000E+00  1.00800000E+00  1.60000000E+01  1.00800000E+00  1.00800000E+00
  1.60000000E+01  1.00800000E+00  1.00800000E+00  1.60000000E+01  1.00800000E+00
  1.00800000E+00  1.60000000E+01  1.00800000E+00  1.00800000E+00  1.60000000E+01
  1.00800000E+00  1.00800000E+00  1.60000000E+01  1.00800000E+00  1.00800000E+00
  1.60000000E+01  1.00800000E+00  1.00800000E+00  1.60000000E+01  1.00800000E+00
  1.00800000E+00  1.60000000E+01  1.00800000E+00  1.00800000E+00  1.60000000E+01
  1.00800000E+00  1.00800000E+00  1.60000000E+01  1.00800000E+00  1.00800000E+00
  1.60000000E+01  1.00800000E+00  1.00800000E+00  1.60000000E+01  1.00800000E+00
  1.00800000E+00  1.60000000E+01  1.00800000E+00  1.00800000E+00  1.60000000E+01
  1.00800000E+00  1.00800000E+00  1.60000000E+01  1.00800000E+00  1.00800000E+00
  1.60000000E+01  1.00800000E+00  1.00800000E+00  1.60000000E+01  1.00800000E+00
  1.00800000E+00  1.60000000E+01  1.00800000E+00  1.00800000E+00  1.60000000E+01
  1.00800000E+00  1.00800000E+00  1.60000000E+01  1.00800000E+00  1.00800000E+00
  1.60000000E+01  1.00800000E+00  1.00800000E+00  1.60000000E+01  1.00800000E+00
  1.00800000E+00  1.60000000E+01  1.00800000E+00  1.00800000E+00  1.60000000E+01
  1.00800000E+00  1.00800000E+00  1.60000000E+01  1.00800000E+00  1.00800000E+00
  1.60000000E+01  1.00800000E+00  1.00800000E+00  1.60000000E+01  1.00800000E+00
  1.00800000E+00  1.60000000E+01  1.00800000E+00  1.00800000E+00  1.60000000E+01
  1.00800000E+00  1.00800000E+00  1.60000000E+01  1.00800000E+00  1.00800000E+00
  1.60000000E+01  1.00800000E+00  1.00800000E+00  1.60000000E+01  1.00800000E+00
  1.00800000E+00  1.60000000E+01  1.00800000E+00  1.00800000E+00  1.60000000E+01
  1.00800000E+00  1.00800000E+00  1.60000000E+01  1.00800000E+00  1.00800000E+00
  1.60000000E+01  1.00800000E+00  1.00800000E+00  1.60000000E+01  1.00800000E+00
  1.00800000E+00  1.60000000E+01  1.00800000E+00  1.00800000E+00  1.60000000E+01
  1.00800000E+00  1.00800000E+00  1.60000000E+01  1.00800000E+00  1.00800000E+00
  1.60000000E+01  1.00800000E+00  1.00800000E+00  1.60000000E+01  1.00800000E+00
  1.00800000E+00  1.60000000E+01  1.00800000E+00  1.00800000E+00  1.60000000E+01
  1.00800000E+00  1.00800000E+00  1.60000000E+01  1.00800000E+00  1.00800000E+00
  1.60000000E+01  1.00800000E+00  1.00800000E+00  1.60000000E+01  1.00800000E+00
  1.00800000E+00  1.60000000E+01  1.00800000E+00  1.00800000E+00  1.60000000E+01
  1.00800000E+00  1.00800000E+00  1.60000000E+01  1.00800000E+00  1.00800000E+00
  1.60000000E+01  1.00800000E+00  1.00800000E+00  1.60000000E+01  1.00800000E+00
  1.00800000E+00  1.60000000E+01  1.00800000E+00  1.00800000E+00  1.60000000E+01
  1.00800000E+00  1.00800000E+00  1.60000000E+01  1.00800000E+00  1.00800000E+00
  1.60000000E+01  1.00800000E+00  1.00800000E+00  1.60000000E+01  1.00800000E+00
  1.00800000E+00  1.60000000E+01  1.00800000E+00  1.00800000E+00  1.60000000E+01
  1.00800000E+00  1.00800000E+00  1.60000000E+01  1.00800000E+00  1.00800000E+00
  1.60000000E+01  1.00800000E+00  1.00800000E+00  1.60000000E+01  1.00800000E+00
  1.00800000E+00  1.60000000E+01  1.00800000E+00  1.00800000E+00  1.60000000E+01
  1.00800000E+00  1.00800000E+00  1.60000000E+01  1.00800000E+00  1.00800000E+00
  1.60000000E+01  1.00800000E+00  1.00800000E+00  1.60000000E+01  1.00800000E+00
  1.00800000E+00  1.60000000E+01  1.00800000E+00  1.00800000E+00  1.60000000E+01
  1.00800000E+00  1.00800000E+00  1.60000000E+01  1.00800000E+00  1.00800000E+00
  1.60000000E+01  1.00800000E+00  1.00800000E+00  1.60000000E+01  1.00800000E+00
  1.00800000E+00  1.60000000E+01  1.00800000E+00  1.00800000E+00  1.60000000E+01
  1.00800000E+00  1.00800000E+00  1.60000000E+01  1.00800000E+00  1.00800000E+00
  1.60000000E+01  1.00800000E+00  1.00800000E+00  1.60000000E+01  1.00800000E+00
  1.00800000E+00  1.60000000E+01  1.00800000E+00  1.00800000E+00  1.60000000E+01
  1.00800000E+00  1.00800000E+00  1.60000000E+01  1.00800000E+00  1.00800000E+00
  1.60000000E+01  1.00800000E+00  1.00800000E+00  1.60000000E+01  1.00800000E+00
  1.00800000E+00  1.60000000E+01  1.00800000E+00  1.00800000E+00  1.60000000E+01
  1.00800000E+00  1.00800000E+00  1.60000000E+01  1.00800000E+00  1.00800000E+00
  1.60000000E+01  1.00800000E+00  1.00800000E+00  1.60000000E+01  1.00800000E+00
  1.00800000E+00  1.60000000E+01  1.00800000E+00  1.00800000E+00  1.60000000E+01
  1.00800000E+00  1.00800000E+00  1.60000000E+01  1.00800000E+00  1.00800000E+00
  1.60000000E+01  1.00800000E+00  1.00800000E+00  1.60000000E+01  1.00800000E+00
  1.00800000E+00  1.60000000E+01  1.00800000E+00  1.00800000E+00  1.60000000E+01
  1.00800000E+00  1.00800000E+00  1.60000000E+01  1.00800000E+00  1.00800000E+00
  1.60000000E+01  1.00800000E+00  1.00800000E+00  1.60000000E+01  1.00800000E+00
  1.00800000E+00  1.60000000E+01  1.00800000E+00  1.00800000E+00  1.60000000E+01
  1.00800000E+00  1.00800000E+00  1.60000000E+01  1.00800000E+00  1.00800000E+00
  1.60000000E+01  1.00800000E+00  1.00800000E+00  1.60000000E+01  1.00800000E+00
  1.00800000E+00  1.60000000E+01  1.00800000E+00  1.00800000E+00  1.60000000E+01
  1.00800000E+00  1.00800000E+00  1.60000000E+01  1.00800000E+00  1.00800000E+00
  1.60000000E+01  1.00800000E+00  1.00800000E+00  1.60000000E+01  1.00800000E+00
  1.00800000E+00  1.60000000E+01  1.00800000E+00  1.00800000E+00  1.60000000E+01
  1.00800000E+00  1.00800000E+00  1.60000000E+01  1.00800000E+00  1.00800000E+00
  1.60000000E+01  1.00800000E+00  1.00800000E+00  1.60000000E+01  1.00800000E+00
  1.00800000E+00  1.60000000E+01  1.00800000E+00  1.00800000E+00  1.60000000E+01
  1.00800000E+00  1.00800000E+00  1.60000000E+01  1.00800000E+00  1.00800000E+00
  1.60000000E+01  1.00800000E+00  1.00800000E+00  1.60000000E+01  1.00800000E+00
  1.00800000E+00  1.60000000E+01  1.00800000E+00  1.00800000E+00  1.60000000E+01
  1.00800000E+00  1.00800000E+00  1.60000000E+01  1.00800000E+00  1.00800000E+00
  1.60000000E+01  1.00800000E+00  1.00800000E+00  1.60000000E+01  1.00800000E+00
  1.00800000E+00  1.60000000E+01  1.00800000E+00  1.00800000E+00  1.60000000E+01
  1.00800000E+00  1.00800000E+00  1.60000000E+01  1.00800000E+00  1.00800000E+00
  1.60000000E+01  1.00800000E+00  1.00800000E+00  1.60000000E+01  1.00800000E+00
  1.00800000E+00  1.60000000E+01  1.00800000E+00  1.00800000E+00  1.60000000E+01
  1.00800000E+00  1.00800000E+00  1.60000000E+01  1.00800000E+00  1.00800000E+00
  1.60000000E+01  1.00800000E+00  1.00800000E+00  1.60000000E+01  1.00800000E+00
  1.00800000E+00  1.60000000E+01  1.00800000E+00  1.00800000E+00  1.60000000E+01
  1.00800000E+00  1.00800000E+00  1.60000000E+01  1.00800000E+00  1.00800000E+00
  1.60000000E+01  1.00800000E+00  1.00800000E+00  1.60000000E+01  1.00800000E+00
  1.00800000E+00  1.60000000E+01  1.00800000E+00  1.00800000E+00  1.60000000E+01
  1.00800000E+00  1.00800000E+00  1.60000000E+01  1.00800000E+00  1.00800000E+00
  1.60000000E+01  1.00800000E+00  1.00800000E+00  1.60000000E+01  1.00800000E+00
  1.00800000E+00  1.60000000E+01  1.00800000E+00  1.00800000E+00  1.60000000E+01
  1.00800000E+00  1.00800000E+00  1.60000000E+01  1.00800000E+00  1.00800000E+00
  1.60000000E+01  1.00800000E+00  1.00800000E+00  1.60000000E+01  1.00800000E+00
  1.00800000E+00  1.60000000E+01  1.00800000E+00  1.00800000E+00  1.60000000E+01
  1.00800000E+00  1.00800000E+00  1.60000000E+01  1.00800000E+00  1.00800000E+00
  1.60000000E+01  1.00800000E+00  1.00800000E+00  1.60000000E+01  1.00800000E+00
  1.00800000E+00  1.60000000E+01  1.00800000E+00  1.00800000E+00  1.60000000E+01
  1.00800000E+00  1.00800000E+00  1.60000000E+01  1.00800000E+00  1.00800000E+00
  1.60000000E+01  1.00800000E+00  1.00800000E+00  1.60000000E+01  1.00800000E+00
  1.00800000E+00  1.60000000E+01  1.00800000E+00  1.00800000E+00  1.60000000E+01
  1.00800000E+00  1.00800000E+00  1.60000000E+01  1.00800000E+00  1.00800000E+00
  1.60000000E+01  1.00800000E+00  1.00800000E+00  1.60000000E+01  1.00800000E+00
  1.00800000E+00  1.60000000E+01  1.00800000E+00  1.00800000E+00  1.60000000E+01
  1.00800000E+00  1.00800000E+00  1.60000000E+01  1.00800000E+00  1.00800000E+00
  1.60000000E+01  1.00800000E+00  1.00800000E+00  1.60000000E+01  1.00800000E+00
  1.00800000E+00  1.60000000E+01  1.00800000E+00  1.00800000E+00  1.60000000E+01
  1.00800000E+00  1.00800000E+00  1.60000000E+01  1.00800000E+00  1.00800000E+00
  1.60000000E+01  1.00800000E+00  1.00800000E+00  1.60000000E+01  1.00800000E+00
  1.00800000E+00  1.60000000E+01  1.00800000E+00  1.00800000E+00  1.60000000E+01
  1.00800000E+00  1.00800000E+00  1.60000000E+01  1.00800000E+00  1.00800000E+00
  1.60000000E+01  1.00800000E+00  1.00800000E+00  1.60000000E+01  1.00800000E+00
  1.00800000E+00  1.60000000E+01  1.00800000E+00  1.00800000E+00  1.60000000E+01
  1.00800000E+00  1.00800000E+00  1.60000000E+01  1.00800000E+00  1.00800000E+00
  1.60000000E+01  1.00800000E+00  1.00800000E+00  1.60000000E+01  1.00800000E+00
  1.00800000E+00  1.60000000E+01  1.00800000E+00  1.00800000E+00  1.60000000E+01
  1.00800000E+00  1.00800000E+00  1.60000000E+01  1.00800000E+00  1.00800000E+00
  1.60000000E+01  1.00800000E+00  1.00800000E+00  1.60000000E+01  1.00800000E+00
  1.00800000E+00  1.60000000E+01  1.00800000E+00  1.00800000E+00  1.60000000E+01
  1.00800000E+00  1.00800000E+00  1.60000000E+01  1.00800000E+00  1.00800000E+00
  1.60000000E+01  1.00800000E+00  1.00800000E+00  1.60000000E+01  1.00800000E+00
  1.00800000E+00  1.60000000E+01  1.00800000E+00  1.00800000E+00  1.60000000E+01
  1.00800000E+00  1.00800000E+00  1.60000000E+01  1.00800000E+00  1.00800000E+00
  1.60000000E+01  1.00800000E+00  1.00800000E+00  1.60000000E+01  1.00800000E+00
  1.00800000E+00  1.60000000E+01  1.00800000E+00  1.00800000E+00  1.60000000E+01
  1.00800000E+00  1.00800000E+00  1.60000000E+01  1.00800000E+00  1.00800000E+00
  1.60000000E+01  1.00800000E+00  1.00800000E+00  1.60000000E+01  1.00800000E+00
  1.00800000E+00  1.60000000E+01  1.00800000E+00  1.00800000E+00  1.60000000E+01
  1.00800000E+00  1.00800000E+00  1.60000000E+01  1.00800000E+00  1.00800000E+00
  1.60000000E+01  1.00800000E+00  1.00800000E+00  1.60000000E+01  1.00800000E+00
  1.00800000E+00  1.60000000E+01  1.00800000E+00  1.00800000E+00  1.60000000E+01
  1.00800000E+00  1.00800000E+00  1.60000000E+01  1.00800000E+00  1.00800000E+00
  1.60000000E+01  1.00800000E+00  1.00800000E+00  1.60000000E+01  1.00800000E+00
  1.00800000E+00  1.60000000E+01  1.00800000E+00  1.00800000E+00  1.60000000E+01
  1.00800000E+00  1.00800000E+00  1.60000000E+01  1.00800000E+00  1.00800000E+00
  1.60000000E+01  1.00800000E+00  1.00800000E+00  1.60000000E+01  1.00800000E+00
  1.00800000E+00  1.60000000E+01  1.00800000E+00  1.00800000E+00  1.60000000E+01
  1.00800000E+00  1.00800000E+00  1.60000000E+01  1.00800000E+00  1.00800000E+00
  1.60000000E+01  1.00800000E+00  1.00800000E+00  1.60000000E+01  1.00800000E+00
  1.00800000E+00  1.60000000E+01  1.00800000E+00  1.00800000E+00  1.60000000E+01
  1.00800000E+00  1.00800000E+00  1.60000000E+01  1.00800000E+00  1.00800000E+00
  1.60000000E+01  1.00800000E+00  1.00800000E+00  1.60000000E+01  1.00800000E+00
  1.00800000E+00  1.60000000E+01  1.00800000E+00  1.00800000E+00  1.60000000E+01
  1.00800000E+00  1.00800000E+00  1.60000000E+01  1.00800000E+00  1.00800000E+00
  1.60000000E+01  1.00800000E+00  1.00800000E+00  1.60000000E+01  1.00800000E+00
  1.00800000E+00  1.60000000E+01  1.00800000E+00  1.00800000E+00  1.60000000E+01
  1.00800000E+00  1.00800000E+00  1.60000000E+01  1.00800000E+00  1.00800000E+00
  1.60000000E+01  1.00800000E+00  1.00800000E+00  1.60000000E+01  1.00800000E+00
  1.00800000E+00  1.60000000E+01  1.00800000E+00  1.00800000E+00  1.60000000E+01
  1.00800000E+00  1.00800000E+00  1.60000000E+01  1.00800000E+00  1.00800000E+00
  1.60000000E+01  1.00800000E+00  1.00800000E+00  1.60000000E+01  1.00800000E+00
  1.00800000E+00  1.60000000E+01  1.00800000E+00  1.00800000E+00  1.60000000E+01
  1.00800000E+00  1.00800000E+00  1.60000000E+01  1.00800000E+00  1.00800000E+00
  1.60000000E+01  1.00800000E+00  1.00800000E+00  1.60000000E+01  1.00800000E+00
  1.00800000E+00  1.60000000E+01  1.00800000E+00  1.00800000E+00  1.60000000E+01
  1.00800000E+00  1.00800000E+00  1.60000000E+01  1.00800000E+00  1.00800000E+00
  1.60000000E+01  1.00800000E+00  1.00800000E+00  1.60000000E+01  1.00800000E+00
  1.00800000E+00  1.60000000E+01  1.00800000E+00  1.00800000E+00  1.60000000E+01
  1.00800000E+00  1.00800000E+00  1.60000000E+01  1.00800000E+00  1.00800000E+00
  1.60000000E+01  1.00800000E+00  1.00800000E+00  1.60000000E+01  1.00800000E+00
  1.00800000E+00  1.60000000E+01  1.00800000E+00  1.00800000E+00  1.60000000E+01
  1.00800000E+00  1.00800000E+00  1.60000000E+01  1.00800000E+00  1.00800000E+00
  1.60000000E+01  1.00800000E+00  1.00800000E+00  1.60000000E+01  1.00800000E+00
  1.00800000E+00  1.60000000E+01  1.00800000E+00  1.00800000E+00  1.60000000E+01
  1.00800000E+00  1.00800000E+00  1.60000000E+01  1.00800000E+00  1.00800000E+00
  1.60000000E+01  1.00800000E+00  1.00800000E+00  1.60000000E+01  1.00800000E+00
  1.00800000E+00  1.60000000E+01  1.00800000E+00  1.00800000E+00  1.60000000E+01
  1.00800000E+00  1.00800000E+00  1.60000000E+01  1.00800000E+00  1.00800000E+00
  1.60000000E+01  1.00800000E+00  1.00800000E+00  1.60000000E+01  1.00800000E+00
  1.00800000E+00  1.60000000E+01  1.00800000E+00  1.00800000E+00  1.60000000E+01
  1.00800000E+00  1.00800000E+00  1.60000000E+01  1.00800000E+00  1.00800000E+00
  1.60000000E+01  1.00800000E+00  1.00800000E+00  1.60000000E+01  1.00800000E+00
  1.00800000E+00  1.60000000E+01  1.00800000E+00  1.00800000E+00  1.60000000E+01
  1.00800000E+00  1.00800000E+00  1.60000000E+01  1.00800000E+00  1.00800000E+00
  1.60000000E+01  1.00800000E+00  1.00800000E+00  1.60000000E+01  1.00800000E+00
  1.00800000E+00  1.60000000E+01  1.00800000E+00  1.00800000E+00  1.60000000E+01
  1.00800000E+00  1.00800000E+00  1.60000000E+01  1.00800000E+00  1.00800000E+00
  1.60000000E+01  1.00800000E+00  1.00800000E+00  1.60000000E+01  1.00800000E+00
  1.00800000E+00  1.60000000E+01  1.00800000E+00  1.00800000E+00  1.60000000E+01
  1.00800000E+00  1.00800000E+00  1.60000000E+01  1.00800000E+00  1.00800000E+00
  1.60000000E+01  1.00800000E+00  1.00800000E+00  1.60000000E+01  1.00800000E+00
  1.00800000E+00  1.60000000E+01  1.00800000E+00  1.00800000E+00  1.60000000E+01
  1.00800000E+00  1.00800000E+00  1.60000000E+01  1.00800000E+00  1.00800000E+00
  1.60000000E+01  1.00800000E+00  1.00800000E+00  1.60000000E+01  1.00800000E+00
  1.00800000E+00  1.60000000E+01  1.00800000E+00  1.00800000E+00  1.60000000E+01
  1.00800000E+00  1.00800000E+00  1.60000000E+01  1.00800000E+00  1.00800000E+00
  1.60000000E+01  1.00800000E+00  1.00800000E+00  1.60000000E+01  1.00800000E+00
  1.00800000E+00  1.60000000E+01  1.00800000E+00  1.00800000E+00  1.60000000E+01
  1.00800000E+00  1.00800000E+00  1.60000000E+01  1.00800000E+00  1.00800000E+00
  1.60000000E+01  1.00800000E+00  1.00800000E+00  1.60000000E+01  1.00800000E+00
  1.00800000E+00  1.60000000E+01  1.00800000E+00  1.00800000E+00  1.60000000E+01
  1.00800000E+00  1.00800000E+00  1.60000000E+01  1.00800000E+00  1.00800000E+00
  1.60000000E+01  1.00800000E+00  1.00800000E+00  1.60000000E+01  1.00800000E+00
  1.00800000E+00  1.60000000E+01  1.00800000E+00  1.00800000E+00  1.60000000E+01
  1.00800000E+00  1.00800000E+00  1.60000000E+01  1.00800000E+00  1.00800000E+00
  1.60000000E+01  1.00800000E+00  1.00800000E+00  1.60000000E+01  1.00800000E+00
  1.00800000E+00  1.60000000E+01  1.00800000E+00  1.00800000E+00  1.60000000E+01
  1.00800000E+00  1.00800000E+00  1.60000000E+01  1.00800000E+00  1.00800000E+00
  1.60000000E+01  1.00800000E+00  1.00800000E+00  1.60000000E+01  1.00800000E+00
  1.00800000E+00  1.60000000E+01  1.00800000E+00  1.00800000E+00  1.60000000E+01
  1.00800000E+00  1.00800000E+00  1.60000000E+01  1.00800000E+00  1.00800000E+00
  1.60000000E+01  1.00800000E+00  1.00800000E+00  1.60000000E+01  1.00800000E+00
  1.00800000E+00  1.60000000E+01  1.00800000E+00  1.00800000E+00  1.60000000E+01
  1.00800000E+00  1.00800000E+00  1.60000000E+01  1.00800000E+00  1.00800000E+00
  1.60000000E+01  1.00800000E+00  1.00800000E+00  1.60000000E+01  1.00800000E+00
  1.00800000E+00  1.60000000E+01  1.00800000E+00  1.00800000E+00  1.60000000E+01
  1.00800000E+00  1.00800000E+00  1.60000000E+01  1.00800000E+00  1.00800000E+00
  1.60000000E+01  1.00800000E+00  1.00800000E+00  1.60000000E+01  1.00800000E+00
  1.00800000E+00  1.60000000E+01  1.00800000E+00  1.00800000E+00  1.60000000E+01
  1.00800000E+00  1.00800000E+00  1.60000000E+01  1.00800000E+00  1.00800000E+00
  1.60000000E+01  1.00800000E+00  1.00800000E+00  1.60000000E+01  1.00800000E+00
  1.00800000E+00  1.60000000E+01  1.00800000E+00  1.00800000E+00  1.60000000E+01
  1.00800000E+00  1.00800000E+00  1.60000000E+01  1.00800000E+00  1.00800000E+00
  1.60000000E+01  1.00800000E+00  1.00800000E+00  1.60000000E+01  1.00800000E+00
  1.00800000E+00  1.60000000E+01  1.00800000E+00  1.00800000E+00  1.60000000E+01
  1.00800000E+00  1.00800000E+00  1.60000000E+01  1.00800000E+00  1.00800000E+00
  1.60000000E+01  1.00800000E+00  1.00800000E+00  1.60000000E+01  1.00800000E+00
  1.00800000E+00  1.60000000E+01  1.00800000E+00  1.00800000E+00  1.60000000E+01
  1.00800000E+00  1.00800000E+00  1.60000000E+01  1.00800000E+00  1.00800000E+00
  1.60000000E+01  1.00800000E+00  1.00800000E+00  1.60000000E+01  1.00800000E+00
  1.00800000E+00  1.60000000E+01  1.00800000E+00  1.00800000E+00  1.60000000E+01
  1.00800000E+00  1.00800000E+00  1.60000000E+01  1.00800000E+00  1.00800000E+00
  1.60000000E+01  1.00800000E+00  1.00800000E+00  1.60000000E+01  1.00800000E+00
  1.00800000E+00  1.60000000E+01  1.00800000E+00  1.00800000E+00  1.60000000E+01
  1.00800000E+00  1.00800000E+00  1.60000000E+01  1.00800000E+00  1.00800000E+00
  1.60000000E+01  1.00800000E+00  1.00800000E+00  1.60000000E+01  1.00800000E+00
  1.00800000E+00  1.60000000E+01  1.00800000E+00  1.00800000E+00  1.60000000E+01
  1.00800000E+00  1.00800000E+00  1.60000000E+01  1.00800000E+00  1.00800000E+00
  1.60000000E+01  1.00800000E+00  1.00800000E+00  1.60000000E+01  1.00800000E+00
  1.00800000E+00  1.60000000E+01  1.00800000E+00  1.00800000E+00  1.60000000E+01
  1.00800000E+00  1.00800000E+00  1.60000000E+01  1.00800000E+00  1.00800000E+00
  1.60000000E+01  1.00800000E+00  1.00800000E+00  1.60000000E+01  1.00800000E+00
  1.00800000E+00  1.60000000E+01  1.00800000E+00  1.00800000E+00  1.60000000E+01
  1.00800000E+00  1.00800000E+00  1.60000000E+01  1.00800000E+00  1.00800000E+00
  1.60000000E+01  1.00800000E+00  1.00800000E+00  1.60000000E+01  1.00800000E+00
  1.00800000E+00  1.60000000E+01  1.00800000E+00  1.00800000E+00  1.60000000E+01
  1.00800000E+00  1.00800000E+00  1.60000000E+01  1.00800000E+00  1.00800000E+00
  1.60000000E+01  1.00800000E+00  1.00800000E+00  1.60000000E+01  1.00800000E+00
  1.00800000E+00  1.60000000E+01  1.00800000E+00  1.00800000E+00  1.60000000E+01
  1.00800000E+00  1.00800000E+00  1.60000000E+01  1.00800000E+00  1.00800000E+00
  1.60000000E+01  1.00800000E+00  1.00800000E+00  1.60000000E+01  1.00800000E+00
  1.00800000E+00  1.60000000E+01  1.00800000E+00  1.00800000E+00  1.60000000E+01
  1.00800000E+00  1.00800000E+00  1.60000000E+01  1.00800000E+00  1.00800000E+00
  1.60000000E+01  1.00800000E+00  1.00800000E+00  1.60000000E+01  1.00800000E+00
  1.00800000E+00  1.60000000E+01  1.00800000E+00  1.00800000E+00  1.60000000E+01
  1.00800000E+00  1.00800000E+00  1.60000000E+01  1.00800000E+00  1.00800000E+00
  1.60000000E+01  1.00800000E+00  1.00800000E+00  1.60000000E+01  1.00800000E+00
  1.00800000E+00  1.60000000E+01  1.00800000E+00  1.00800000E+00  1.60000000E+01
  1.00800000E+00  1.00800000E+00  1.60000000E+01  1.00800000E+00  1.00800000E+00
  1.60000000E+01  1.00800000E+00  1.00800000E+00  1.60000000E+01  1.00800000E+00
  1.00800000E+00  1.60000000E+01  1.00800000E+00  1.00800000E+00  1.60000000E+01
  1.00800000E+00  1.00800000E+00  1.60000000E+01  1.00800000E+00  1.00800000E+00
  1.60000000E+01  1.00800000E+00  1.00800000E+00  1.60000000E+01  1.00800000E+00
  1.00800000E+00  1.60000000E+01  1.00800000E+00  1.00800000E+00  1.60000000E+01
  1.00800000E+00  1.00800000E+00  1.60000000E+01  1.00800000E+00  1.00800000E+00
  1.60000000E+01  1.00800000E+00  1.00800000E+00  1.60000000E+01  1.00800000E+00
  1.00800000E+00  1.60000000E+01  1.00800000E+00  1.00800000E+00  1.60000000E+01
  1.00800000E+00  1.00800000E+00  1.60000000E+01  1.00800000E+00  1.00800000E+00
  1.60000000E+01  1.00800000E+00  1.00800000E+00  1.60000000E+01  1.00800000E+00
  1.00800000E+00  1.60000000E+01  1.00800000E+00  1.00800000E+00  1.60000000E+01
  1.00800000E+00  1.00800000E+00  1.60000000E+01  1.00800000E+00  1.00800000E+00
  1.60000000E+01  1.00800000E+00  1.00800000E+00  1.60000000E+01  1.00800000E+00
  1.00800000E+00  1.60000000E+01  1.00800000E+00  1.00800000E+00  1.60000000E+01
  1.00800000E+00  1.00800000E+00  1.60000000E+01  1.00800000E+00  1.00800000E+00
  1.60000000E+01  1.00800000E+00  1.00800000E+00  1.60000000E+01  1.00800000E+00
  1.00800000E+00  1.60000000E+01  1.00800000E+00  1.00800000E+00  1.60000000E+01
  1.00800000E+00  1.00800000E+00  1.60000000E+01  1.00800000E+00  1.00800000E+00
  1.60000000E+01  1.00800000E+00  1.00800000E+00  1.60000000E+01  1.00800000E+00
  1.00800000E+00  1.60000000E+01  1.00800000E+00  1.00800000E+00  1.60000000E+01
  1.00800000E+00  1.00800000E+00  1.60000000E+01  1.00800000E+00  1.00800000E+00
  1.60000000E+01  1.00800000E+00  1.00800000E+00  1.60000000E+01  1.00800000E+00
  1.00800000E+00  1.60000000E+01  1.00800000E+00  1.00800000E+00  1.60000000E+01
  1.00800000E+00  1.00800000E+00  1.60000000E+01  1.00800000E+00  1.00800000E+00
  1.60000000E+01  1.00800000E+00  1.00800000E+00  1.60000000E+01  1.00800000E+00
  1.00800000E+00  1.60000000E+01  1.00800000E+00  1.00800000E+00  1.60000000E+01
  1.00800000E+00  1.00800000E+00  1.60000000E+01  1.00800000E+00  1.00800000E+00
  1.60000000E+01  1.00800000E+00  1.00800000E+00  1.60000000E+01  1.00800000E+00
  1.00800000E+00  1.60000000E+01  1.00800000E+00  1.00800000E+00  1.60000000E+01
  1.00800000E+00  1.00800000E+00  1.60000000E+01  1.00800000E+00  1.00800000E+00
  1.60000000E+01  1.00800000E+00  1.00800000E+00  1.60000000E+01  1.00800000E+00
  1.00800000E+00  1.60000000E+01  1.00800000E+00  1.00800000E+00  1.60000000E+01
  1.00800000E+00  1.00800000E+00  1.60000000E+01  1.00800000E+00  1.00800000E+00
  1.60000000E+01  1.00800000E+00  1.00800000E+00  1.60000000E+01  1.00800000E+00
  1.00800000E+00  1.60000000E+01  1.00800000E+00  1.00800000E+00  1.60000000E+01
  1.00800000E+00  1.00800000E+00  1.60000000E+01  1.00800000E+00  1.00800000E+00
  1.60000000E+01  1.00800000E+00  1.00800000E+00  1.60000000E+01  1.00800000E+00
  1.00800000E+00  1.60000000E+01  1.00800000E+00  1.00800000E+00  1.60000000E+01
  1.00800000E+00  1.00800000E+00  1.60000000E+01  1.00800000E+00  1.00800000E+00
  1.60000000E+01  1.00800000E+00  1.00800000E+00  1.60000000E+01  1.00800000E+00
  1.00800000E+00  1.60000000E+01  1.00800000E+00  1.00800000E+00  1.60000000E+01
  1.00800000E+00  1.00800000E+00  1.60000000E+01  1.00800000E+00  1.00800000E+00
  1.60000000E+01  1.00800000E+00  1.00800000E+00  1.60000000E+01  1.00800000E+00
  1.00800000E+00  1.60000000E+01  1.00800000E+00  1.00800000E+00  1.60000000E+01
  1.00800000E+00  1.00800000E+00  1.60000000E+01  1.00800000E+00  1.00800000E+00
  1.60000000E+01  1.00800000E+00  1.00800000E+00  1.60000000E+01  1.00800000E+00
  1.00800000E+00  1.60000000E+01  1.00800000E+00  1.00800000E+00  1.60000000E+01
  1.00800000E+00  1.00800000E+00  1.60000000E+01  1.00800000E+00  1.00800000E+00
  1.60000000E+01  1.00800000E+00  1.00800000E+00  1.60000000E+01  1.00800000E+00
  1.00800000E+00  1.60000000E+01  1.00800000E+00  1.00800000E+00  1.60000000E+01
  1.00800000E+00  1.00800000E+00  1.60000000E+01  1.00800000E+00  1.00800000E+00
  1.60000000E+01  1.00800000E+00  1.00800000E+00  1.60000000E+01  1.00800000E+00
  1.00800000E+00  1.60000000E+01  1.00800000E+00  1.00800000E+00  1.60000000E+01
  1.00800000E+00  1.00800000E+00  1.60000000E+01  1.00800000E+00  1.00800000E+00
  1.60000000E+01  1.00800000E+00  1.00800000E+00  1.60000000E+01  1.00800000E+00
  1.00800000E+00  1.60000000E+01  1.00800000E+00  1.00800000E+00  1.60000000E+01
  1.00800000E+00  1.00800000E+00  1.60000000E+01  1.00800000E+00  1.00800000E+00
  1.60000000E+01  1.00800000E+00  1.00800000E+00  1.60000000E+01  1.00800000E+00
  1.00800000E+00  1.60000000E+01  1.00800000E+00  1.00800000E+00  1.60000000E+01
  1.00800000E+00  1.00800000E+00  1.60000000E+01  1.00800000E+00  1.00800000E+00
  1.60000000E+01  1.00800000E+00  1.00800000E+00  1.60000000E+01  1.00800000E+00
  1.00800000E+00  1.60000000E+01  1.00800000E+00  1.00800000E+00  1.60000000E+01
  1.00800000E+00  1.00800000E+00  1.60000000E+01  1.00800000E+00  1.00800000E+00
  1.60000000E+01  1.00800000E+00  1.00800000E+00  1.60000000E+01  1.00800000E+00
  1.00800000E+00  1.60000000E+01  1.00800000E+00  1.00800000E+00  1.60000000E+01
  1.00800000E+00  1.00800000E+00  1.60000000E+01  1.00800000E+00  1.00800000E+00
  1.60000000E+01  1.00800000E+00  1.00800000E+00  1.60000000E+01  1.00800000E+00
  1.00800000E+00  1.60000000E+01  1.00800000E+00  1.00800000E+00  1.60000000E+01
  1.00800000E+00  1.00800000E+00  1.60000000E+01  1.00800000E+00  1.00800000E+00
  1.60000000E+01  1.00800000E+00  1.00800000E+00  1.60000000E+01  1.00800000E+00
  1.00800000E+00  1.60000000E+01  1.00800000E+00  1.00800000E+00  1.60000000E+01
  1.00800000E+00  1.00800000E+00  1.60000000E+01  1.00800000E+00  1.00800000E+00
  1.60000000E+01  1.00800000E+00  1.00800000E+00  1.60000000E+01  1.00800000E+00
  1.00800000E+00  1.60000000E+01  1.00800000E+00  1.00800000E+00  1.60000000E+01
  1.00800000E+00  1.00800000E+00  1.60000000E+01  1.00800000E+00  1.00800000E+00
  1.60000000E+01  1.00800000E+00  1.00800000E+00  1.60000000E+01  1.00800000E+00
  1.00800000E+00  1.60000000E+01  1.00800000E+00  1.00800000E+00  1.60000000E+01
  1.00800000E+00  1.00800000E+00  1.60000000E+01  1.00800000E+00  1.00800000E+00
  1.60000000E+01  1.00800000E+00  1.00800000E+00  1.60000000E+01  1.00800000E+00
  1.00800000E+00  1.60000000E+01  1.00800000E+00  1.00800000E+00  1.60000000E+01
  1.00800000E+00  1.00800000E+00  1.60000000E+01  1.00800000E+00  1.00800000E+00
  1.60000000E+01  1.00800000E+00  1.00800000E+00  1.60000000E+01  1.00800000E+00
  1.00800000E+00  1.60000000E+01  1.00800000E+00  1.00800000E+00  1.60000000E+01
  1.00800000E+00  1.00800000E+00  1.60000000E+01  1.00800000E+00  1.00800000E+00
  1.60000000E+01  1.00800000E+00  1.00800000E+00  1.60000000E+01  1.00800000E+00
  1.00800000E+00  1.60000000E+01  1.00800000E+00  1.00800000E+00  1.60000000E+01
  1.00800000E+00  1.00800000E+00  1.60000000E+01  1.00800000E+00  1.00800000E+00
  1.60000000E+01  1.00800000E+00  1.00800000E+00  1.60000000E+01  1.00800000E+00
  1.00800000E+00  1.60000000E+01  1.00800000E+00  1.00800000E+00  1.60000000E+01
  1.00800000E+00  1.00800000E+00  1.60000000E+01  1.00800000E+00  1.00800000E+00
  1.60000000E+01  1.00800000E+00  1.00800000E+00  1.60000000E+01  1.00800000E+00
  1.00800000E+00  1.60000000E+01  1.00800000E+00  1.00800000E+00  1.60000000E+01
  1.00800000E+00  1.00800000E+00  1.60000000E+01  1.00800000E+00  1.00800000E+00
  1.60000000E+01  1.00800000E+00  1.00800000E+00  1.60000000E+01  1.00800000E+00
  1.00800000E+00  1.60000000E+01  1.00800000E+00  1.00800000E+00  1.60000000E+01
  1.00800000E+00  1.00800000E+00  1.60000000E+01  1.00800000E+00  1.00800000E+00
  1.60000000E+01  1.00800000E+00  1.00800000E+00  1.60000000E+01  1.00800000E+00
  1.00800000E+00  1.60000000E+01  1.00800000E+00  1.00800000E+00  1.60000000E+01
  1.00800000E+00  1.00800000E+00  1.60000000E+01  1.00800000E+00  1.00800000E+00
  1.60000000E+01  1.00800000E+00  1.00800000E+00  1.60000000E+01  1.00800000E+00
  1.00800000E+00  1.60000000E+01  1.00800000E+00  1.00800000E+00  1.60000000E+01
  1.00800000E+00  1.00800000E+00  1.60000000E+01  1.00800000E+00  1.00800000E+00
  1.60000000E+01  1.00800000E+00  1.00800000E+00  1.60000000E+01  1.00800000E+00
  1.00800000E+00  1.60000000E+01  1.00800000E+00  1.00800000E+00  1.60000000E+01
  1.00800000E+00  1.00800000E+00  1.60000000E+01  1.00800000E+00  1.00800000E+00
  1.60000000E+01  1.00800000E+00  1.00800000E+00  1.60000000E+01  1.00800000E+00
  1.00800000E+00  1.60000000E+01  1.00800000E+00  1.00800000E+00  1.60000000E+01
  1.00800000E+00  1.00800000E+00  1.60000000E+01  1.00800000E+00  1.00800000E+00
  1.60000000E+01  1.00800000E+00  1.00800000E+00  1.60000000E+01  1.00800000E+00
  1.00800000E+00  1.60000000E+01  1.00800000E+00  1.00800000E+00  1.60000000E+01
  1.00800000E+00  1.00800000E+00  1.60000000E+01  1.00800000E+00  1.00800000E+00
  1.60000000E+01  1.00800000E+00  1.00800000E+00  1.60000000E+01  1.00800000E+00
  1.00800000E+00  1.60000000E+01  1.00800000E+00  1.00800000E+00  1.60000000E+01
  1.00800000E+00  1.00800000E+00  1.60000000E+01  1.00800000E+00  1.00800000E+00
  1.60000000E+01  1.00800000E+00  1.00800000E+00  1.60000000E+01  1.00800000E+00
  1.00800000E+00  1.60000000E+01  1.00800000E+00  1.00800000E+00  1.60000000E+01
  1.00800000E+00  1.00800000E+00  1.60000000E+01  1.00800000E+00  1.00800000E+00
  1.60000000E+01  1.00800000E+00  1.00800000E+00  1.60000000E+01  1.00800000E+00
  1.00800000E+00  1.60000000E+01  1.00800000E+00  1.00800000E+00  1.60000000E+01
  1.00800000E+00  1.00800000E+00  1.60000000E+01  1.00800000E+00  1.00800000E+00
  1.60000000E+01  1.00800000E+00  1.00800000E+00  1.60000000E+01  1.00800000E+00
  1.00800000E+00  1.60000000E+01  1.00800000E+00  1.00800000E+00  1.60000000E+01
  1.00800000E+00  1.00800000E+00  1.60000000E+01  1.00800000E+00  1.00800000E+00
  1.60000000E+01  1.00800000E+00  1.00800000E+00  1.60000000E+01  1.00800000E+00
  1.00800000E+00  1.60000000E+01  1.00800000E+00  1.00800000E+00  1.60000000E+01
  1.00800000E+00  1.00800000E+00  1.60000000E+01  1.00800000E+00  1.00800000E+00
  1.60000000E+01  1.00800000E+00  1.00800000E+00  1.60000000E+01  1.00800000E+00
  1.00800000E+00  1.60000000E+01  1.00800000E+00  1.00800000E+00  1.60000000E+01
  1.00800000E+00  1.00800000E+00  1.60000000E+01  1.00800000E+00  1.00800000E+00
  1.60000000E+01  1.00800000E+00  1.00800000E+00  1.60000000E+01  1.00800000E+00
  1.00800000E+00  1.60000000E+01  1.00800000E+00  1.00800000E+00  1.60000000E+01
  1.00800000E+00  1.00800000E+00  1.60000000E+01  1.00800000E+00  1.00800000E+00
  1.60000000E+01  1.00800000E+00  1.00800000E+00  1.60000000E+01  1.00800000E+00
  1.00800000E+00  1.60000000E+01  1.00800000E+00  1.00800000E+00  1.60000000E+01
  1.00800000E+00  1.00800000E+00  1.60000000E+01  1.00800000E+00  1.00800000E+00
  1.60000000E+01  1.00800000E+00  1.00800000E+00  1.60000000E+01  1.00800000E+00
  1.00800000E+00  1.60000000E+01  1.00800000E+00  1.00800000E+00  1.60000000E+01
  1.00800000E+00  1.00800000E+00  1.60000000E+01  1.00800000E+00  1.00800000E+00
  1.60000000E+01  1.00800000E+00  1.00800000E+00  1.60000000E+01  1.00800000E+00
  1.00800000E+00  1.60000000E+01  1.00800000E+00  1.00800000E+00  1.60000000E+01
  1.00800000E+00  1.00800000E+00  1.60000000E+01  1.00800000E+00  1.00800000E+00
  1.60000000E+01  1.00800000E+00  1.00800000E+00  1.60000000E+01  1.00800000E+00
  1.00800000E+00  1.60000000E+01  1.00800000E+00  1.00800000E+00  1.60000000E+01
  1.00800000E+00  1.00800000E+00  1.60000000E+01  1.00800000E+00  1.00800000E+00
  1.60000000E+01  1.00800000E+00  1.00800000E+00  1.60000000E+01  1.00800000E+00
  1.00800000E+00  1.60000000E+01  1.00800000E+00  1.00800000E+00  1.60000000E+01
  1.00800000E+00  1.00800000E+00  1.60000000E+01  1.00800000E+00  1.00800000E+00
  1.60000000E+01  1.00800000E+00  1.00800000E+00  1.60000000E+01  1.00800000E+00
  1.00800000E+00  1.60000000E+01  1.00800000E+00  1.00800000E+00  1.60000000E+01
  1.00800000E+00  1.00800000E+00  1.60000000E+01  1.00800000E+00  1.00800000E+00
  1.60000000E+01  1.00800000E+00  1.00800000E+00  1.60000000E+01  1.00800000E+00
  1.00800000E+00  1.60000000E+01  1.00800000E+00  1.00800000E+00  1.60000000E+01
  1.00800000E+00  1.00800000E+00  1.60000000E+01  1.00800000E+00  1.00800000E+00
  1.60000000E+01  1.00800000E+00  1.00800000E+00  1.60000000E+01  1.00800000E+00
  1.00800000E+00  1.60000000E+01  1.00800000E+00  1.00800000E+00  1.60000000E+01
  1.00800000E+00  1.00800000E+00  1.60000000E+01  1.00800000E+00  1.00800000E+00
  1.60000000E+01  1.00800000E+00  1.00800000E+00  1.60000000E+01  1.00800000E+00
  1.00800000E+00  1.60000000E+01  1.00800000E+00  1.00800000E+00  1.60000000E+01
  1.00800000E+00  1.00800000E+00  1.60000000E+01  1.00800000E+00  1.00800000E+00
  1.60000000E+01  1.00800000E+00  1.00800000E+00  1.60000000E+01  1.00800000E+00
  1.00800000E+00  1.60000000E+01  1.00800000E+00  1.00800000E+00  1.60000000E+01
  1.00800000E+00  1.00800000E+00  1.60000000E+01  1.00800000E+00  1.00800000E+00
  1.60000000E+01  1.00800000E+00  1.00800000E+00  1.60000000E+01  1.00800000E+00
  1.00800000E+00  1.60000000E+01  1.00800000E+00  1.00800000E+00  1.60000000E+01
  1.00800000E+00  1.00800000E+00  1.60000000E+01  1.00800000E+00  1.00800000E+00
  1.60000000E+01  1.00800000E+00  1.00800000E+00  1.60000000E+01  1.00800000E+00
  1.00800000E+00  1.60000000E+01  1.00800000E+00  1.00800000E+00  1.60000000E+01
  1.00800000E+00  1.00800000E+00  1.60000000E+01  1.00800000E+00  1.00800000E+00
  1.60000000E+01  1.00800000E+00  1.00800000E+00  1.60000000E+01  1.00800000E+00
  1.00800000E+00  1.60000000E+01  1.00800000E+00  1.00800000E+00  1.60000000E+01
  1.00800000E+00  1.00800000E+00  1.60000000E+01  1.00800000E+00  1.00800000E+00
  1.60000000E+01  1.00800000E+00  1.00800000E+00  1.60000000E+01  1.00800000E+00
  1.00800000E+00  1.60000000E+01  1.00800000E+00  1.00800000E+00  1.60000000E+01
  1.00800000E+00  1.00800000E+00  1.60000000E+01  1.00800000E+00  1.00800000E+00
  1.60000000E+01  1.00800000E+00  1.00800000E+00  1.60000000E+01  1.00800000E+00
  1.00800000E+00  1.60000000E+01  1.00800000E+00  1.00800000E+00  1.60000000E+01
  1.00800000E+00  1.00800000E+00  1.60000000E+01  1.00800000E+00  1.00800000E+00
  1.60000000E+01  1.00800000E+00  1.00800000E+00  1.60000000E+01  1.00800000E+00
  1.00800000E+00  1.60000000E+01  1.00800000E+00  1.00800000E+00  1.60000000E+01
  1.00800000E+00  1.00800000E+00  1.60000000E+01  1.00800000E+00  1.00800000E+00
  1.60000000E+01  1.00800000E+00  1.00800000E+00  1.60000000E+01  1.00800000E+00
  1.00800000E+00  1.60000000E+01  1.00800000E+00  1.00800000E+00  1.60000000E+01
  1.00800000E+00  1.00800000E+00  1.60000000E+01  1.00800000E+00  1.00800000E+00
  1.60000000E+01  1.00800000E+00  1.00800000E+00  1.60000000E+01  1.00800000E+00
  1.00800000E+00  1.60000000E+01  1.00800000E+00  1.00800000E+00  1.60000000E+01
  1.00800000E+00  1.00800000E+00  1.60000000E+01  1.00800000E+00  1.00800000E+00
  1.60000000E+01  1.00800000E+00  1.00800000E+00  1.60000000E+01  1.00800000E+00
  1.00800000E+00  1.60000000E+01  1.00800000E+00  1.00800000E+00  1.60000000E+01
  1.00800000E+00  1.00800000E+00  1.60000000E+01  1.00800000E+00  1.00800000E+00
  1.60000000E+01  1.00800000E+00  1.00800000E+00  1.60000000E+01  1.00800000E+00
  1.00800000E+00  1.60000000E+01  1.00800000E+00  1.00800000E+00  1.60000000E+01
  1.00800000E+00  1.00800000E+00  1.60000000E+01  1.00800000E+00  1.00800000E+00
  1.60000000E+01  1.00800000E+00  1.00800000E+00  1.60000000E+01  1.00800000E+00
  1.00800000E+00  1.60000000E+01  1.00800000E+00  1.00800000E+00  1.60000000E+01
  1.00800000E+00  1.00800000E+00  1.60000000E+01  1.00800000E+00  1.00800000E+00
  1.60000000E+01  1.00800000E+00  1.00800000E+00  1.60000000E+01  1.00800000E+00
  1.00800000E+00  1.60000000E+01  1.00800000E+00  1.00800000E+00  1.60000000E+01
  1.00800000E+00  1.00800000E+00  1.60000000E+01  1.00800000E+00  1.00800000E+00
  1.60000000E+01  1.00800000E+00  1.00800000E+00  1.60000000E+01  1.00800000E+00
  1.00800000E+00  1.60000000E+01  1.00800000E+00  1.00800000E+00  1.60000000E+01
  1.00800000E+00  1.00800000E+00  1.60000000E+01  1.00800000E+00  1.00800000E+00
  1.60000000E+01  1.00800000E+00  1.00800000E+00  1.60000000E+01  1.00800000E+00
  1.00800000E+00  1.60000000E+01  1.00800000E+00  1.00800000E+00  1.60000000E+01
  1.00800000E+00  1.00800000E+00  1.60000000E+01  1.00800000E+00  1.00800000E+00
  1.60000000E+01  1.00800000E+00  1.00800000E+00  1.60000000E+01  1.00800000E+00
  1.00800000E+00  1.60000000E+01  1.00800000E+00  1.00800000E+00  1.60000000E+01
  1.00800000E+00  1.00800000E+00  1.60000000E+01  1.00800000E+00  1.00800000E+00
  1.60000000E+01  1.00800000E+00  1.00800000E+00  1.60000000E+01  1.00800000E+00
  1.00800000E+00  1.60000000E+01  1.00800000E+00  1.00800000E+00  1.60000000E+01
  1.00800000E+00  1.00800000E+00  1.60000000E+01  1.00800000E+00  1.00800000E+00
  1.60000000E+01  1.00800000E+00  1.00800000E+00  1.60000000E+01  1.00800000E+00
  1.00800000E+00  1.60000000E+01  1.00800000E+00  1.00800000E+00  1.60000000E+01
  1.00800000E+00  1.00800000E+00  1.60000000E+01  1.00800000E+00  1.00800000E+00
  1.60000000E+01  1.00800000E+00  1.00800000E+00  1.60000000E+01  1.00800000E+00
  1.00800000E+00  1.60000000E+01  1.00800000E+00  1.00800000E+00  1.60000000E+01
  1.00800000E+00  1.00800000E+00  1.60000000E+01  1.00800000E+00  1.00800000E+00
  1.60000000E+01  1.00800000E+00  1.00800000E+00  1.60000000E+01  1.00800000E+00
  1.00800000E+00  1.60000000E+01  1.00800000E+00  1.00800000E+00  1.60000000E+01
  1.00800000E+00  1.00800000E+00  1.60000000E+01  1.00800000E+00  1.00800000E+00
  1.60000000E+01  1.00800000E+00  1.00800000E+00  1.60000000E+01  1.00800000E+00
  1.00800000E+00  1.60000000E+01  1.00800000E+00  1.00800000E+00  1.60000000E+01
  1.00800000E+00  1.00800000E+00  1.60000000E+01  1.00800000E+00  1.00800000E+00
  1.60000000E+01  1.00800000E+00  1.00800000E+00  1.60000000E+01  1.00800000E+00
  1.00800000E+00  1.60000000E+01  1.00800000E+00  1.00800000E+00  1.60000000E+01
  1.00800000E+00  1.00800000E+00  1.60000000E+01  1.00800000E+00  1.00800000E+00
  1.60000000E+01  1.00800000E+00  1.00800000E+00  1.60000000E+01  1.00800000E+00
  1.00800000E+00  1.60000000E+01  1.00800000E+00  1.00800000E+00  1.60000000E+01
  1.00800000E+00  1.00800000E+00  1.60000000E+01  1.00800000E+00  1.00800000E+00
  1.60000000E+01  1.00800000E+00  1.00800000E+00  1.60000000E+01  1.00800000E+00
  1.00800000E+00  1.60000000E+01  1.00800000E+00  1.00800000E+00  1.60000000E+01
  1.00800000E+00  1.00800000E+00  1.60000000E+01  1.00800000E+00  1.00800000E+00
  1.60000000E+01  1.00800000E+00  1.00800000E+00  1.60000000E+01  1.00800000E+00
  1.00800000E+00  1.60000000E+01  1.00800000E+00  1.00800000E+00  1.60000000E+01
  1.00800000E+00  1.00800000E+00  1.60000000E+01  1.00800000E+00  1.00800000E+00
  1.60000000E+01  1.00800000E+00  1.00800000E+00  1.60000000E+01  1.00800000E+00
  1.00800000E+00  1.60000000E+01  1.00800000E+00  1.00800000E+00  1.60000000E+01
  1.00800000E+00  1.00800000E+00  1.60000000E+01  1.00800000E+00  1.00800000E+00
  1.60000000E+01  1.00800000E+00  1.00800000E+00  1.60000000E+01  1.00800000E+00
  1.00800000E+00  1.60000000E+01  1.00800000E+00  1.00800000E+00  1.60000000E+01
  1.00800000E+00  1.00800000E+00  1.60000000E+01  1.00800000E+00  1.00800000E+00
  1.60000000E+01  1.00800000E+00  1.00800000E+00  1.60000000E+01  1.00800000E+00
  1.00800000E+00  1.60000000E+01  1.00800000E+00  1.00800000E+00  1.60000000E+01
  1.00800000E+00  1.00800000E+00  1.60000000E+01  1.00800000E+00  1.00800000E+00
  1.60000000E+01  1.00800000E+00  1.00800000E+00  1.60000000E+01  1.00800000E+00
  1.00800000E+00  1.60000000E+01  1.00800000E+00  1.00800000E+00  1.60000000E+01
  1.00800000E+00  1.00800000E+00  1.60000000E+01  1.00800000E+00  1.00800000E+00
  1.60000000E+01  1.00800000E+00  1.00800000E+00  1.60000000E+01  1.00800000E+00
  1.00800000E+00  1.60000000E+01  1.00800000E+00  1.00800000E+00  1.60000000E+01
  1.00800000E+00  1.00800000E+00  1.60000000E+01  1.00800000E+00  1.00800000E+00
  1.60000000E+01  1.00800000E+00  1.00800000E+00  1.60000000E+01  1.00800000E+00
  1.00800000E+00  1.60000000E+01  1.00800000E+00  1.00800000E+00  1.60000000E+01
  1.00800000E+00  1.00800000E+00  1.60000000E+01  1.00800000E+00  1.00800000E+00
  1.60000000E+01  1.00800000E+00  1.00800000E+00  1.60000000E+01  1.00800000E+00
  1.00800000E+00  1.60000000E+01  1.00800000E+00  1.00800000E+00  1.60000000E+01
  1.00800000E+00  1.00800000E+00  1.60000000E+01  1.00800000E+00  1.00800000E+00
  1.60000000E+01  1.00800000E+00  1.00800000E+00  1.60000000E+01  1.00800000E+00
  1.00800000E+00  1.60000000E+01  1.00800000E+00  1.00800000E+00  1.60000000E+01
  1.00800000E+00  1.00800000E+00  1.60000000E+01  1.00800000E+00  1.00800000E+00
  1.60000000E+01  1.00800000E+00  1.00800000E+00  1.60000000E+01  1.00800000E+00
  1.00800000E+00  1.60000000E+01  1.00800000E+00  1.00800000E+00  1.60000000E+01
  1.00800000E+00  1.00800000E+00  1.60000000E+01  1.00800000E+00  1.00800000E+00
  1.60000000E+01  1.00800000E+00  1.00800000E+00  1.60000000E+01  1.00800000E+00
  1.00800000E+00  1.60000000E+01  1.00800000E+00  1.00800000E+00  1.60000000E+01
  1.00800000E+00  1.00800000E+00  1.60000000E+01  1.00800000E+00  1.00800000E+00
  1.60000000E+01  1.00800000E+00  1.00800000E+00  1.60000000E+01  1.00800000E+00
  1.00800000E+00  1.60000000E+01  1.00800000E+00  1.00800000E+00  1.60000000E+01
  1.00800000E+00  1.00800000E+00  1.60000000E+01  1.00800000E+00  1.00800000E+00
  1.60000000E+01  1.00800000E+00  1.00800000E+00  1.60000000E+01  1.00800000E+00
  1.00800000E+00  1.60000000E+01  1.00800000E+00  1.00800000E+00  1.60000000E+01
  1.00800000E+00  1.00800000E+00  1.60000000E+01  1.00800000E+00  1.00800000E+00
  1.60000000E+01  1.00800000E+00  1.00800000E+00  1.60000000E+01  1.00800000E+00
  1.00800000E+00  1.60000000E+01  1.00800000E+00  1.00800000E+00  1.60000000E+01
  1.00800000E+00  1.00800000E+00  1.60000000E+01  1.00800000E+00  1.00800000E+00
  1.60000000E+01  1.00800000E+00  1.00800000E+00  1.60000000E+01  1.00800000E+00
  1.00800000E+00  1.60000000E+01  1.00800000E+00  1.00800000E+00  1.60000000E+01
  1.00800000E+00  1.00800000E+00  1.60000000E+01  1.00800000E+00  1.00800000E+00
  1.60000000E+01  1.00800000E+00  1.00800000E+00  1.60000000E+01  1.00800000E+00
  1.00800000E+00  1.60000000E+01  1.00800000E+00  1.00800000E+00  1.60000000E+01
  1.00800000E+00  1.00800000E+00  1.60000000E+01  1.00800000E+00  1.00800000E+00
  1.60000000E+01  1.00800000E+00  1.00800000E+00  1.60000000E+01  1.00800000E+00
  1.00800000E+00  1.60000000E+01  1.00800000E+00  1.00800000E+00  1.60000000E+01
  1.00800000E+00  1.00800000E+00  1.60000000E+01  1.00800000E+00  1.00800000E+00
  1.60000000E+01  1.00800000E+00  1.00800000E+00  1.60000000E+01  1.00800000E+00
  1.00800000E+00  1.60000000E+01  1.00800000E+00  1.00800000E+00  1.60000000E+01
  1.00800000E+00  1.00800000E+00  1.60000000E+01  1.00800000E+00  1.00800000E+00
  1.60000000E+01  1.00800000E+00  1.00800000E+00  1.60000000E+01  1.00800000E+00
  1.00800000E+00  1.60000000E+01  1.00800000E+00  1.00800000E+00  1.60000000E+01
  1.00800000E+00  1.00800000E+00  1.60000000E+01  1.00800000E+00  1.00800000E+00
  1.60000000E+01  1.00800000E+00  1.00800000E+00  1.60000000E+01  1.00800000E+00
  1.00800000E+00  1.60000000E+01  1.00800000E+00  1.00800000E+00  1.60000000E+01
  1.00800000E+00  1.00800000E+00  1.60000000E+01  1.00800000E+00  1.00800000E+00
  1.60000000E+01  1.00800000E+00  1.00800000E+00  1.60000000E+01  1.00800000E+00
  1.00800000E+00  1.60000000E+01  1.00800000E+00  1.00800000E+00  1.60000000E+01
  1.00800000E+00  1.00800000E+00  1.60000000E+01  1.00800000E+00  1.00800000E+00
  1.60000000E+01  1.00800000E+00  1.00800000E+00  1.60000000E+01  1.00800000E+00
  1.00800000E+00  1.60000000E+01  1.00800000E+00  1.00800000E+00  1.60000000E+01
  1.00800000E+00  1.00800000E+00  1.60000000E+01  1.00800000E+00  1.00800000E+00
  1.60000000E+01  1.00800000E+00  1.00800000E+00  1.60000000E+01  1.00800000E+00
  1.00800000E+00  1.60000000E+01  1.00800000E+00  1.00800000E+00  1.60000000E+01
  1.00800000E+00  1.00800000E+00  1.60000000E+01  1.00800000E+00  1.00800000E+00
  1.60000000E+01  1.00800000E+00  1.00800000E+00  1.60000000E+01  1.00800000E+00
  1.00800000E+00  1.60000000E+01  1.00800000E+00  1.00800000E+00  1.60000000E+01
  1.00800000E+00  1.00800000E+00  1.60000000E+01  1.00800000E+00  1.00800000E+00
  1.60000000E+01  1.00800000E+00  1.00800000E+00  1.60000000E+01  1.00800000E+00
  1.00800000E+00  1.60000000E+01  1.00800000E+00  1.00800000E+00  1.60000000E+01
  1.00800000E+00  1.00800000E+00  1.60000000E+01  1.00800000E+00  1.00800000E+00
  1.60000000E+01  1.00800000E+00  1.00800000E+00  1.60000000E+01  1.00800000E+00
  1.00800000E+00  1.60000000E+01  1.00800000E+00  1.00800000E+00  1.60000000E+01
  1.00800000E+00  1.00800000E+00  1.60000000E+01  1.00800000E+00  1.00800000E+00
  1.60000000E+01  1.00800000E+00  1.00800000E+00  1.60000000E+01  1.00800000E+00
  1.00800000E+00  1.60000000E+01  1.00800000E+00  1.00800000E+00  1.60000000E+01
  1.00800000E+00  1.00800000E+00  1.60000000E+01  1.00800000E+00  1.00800000E+00
  1.60000000E+01  1.00800000E+00  1.00800000E+00  1.60000000E+01  1.00800000E+00
  1.00800000E+00  1.60000000E+01  1.00800000E+00  1.00800000E+00  1.60000000E+01
  1.00800000E+00  1.00800000E+00  1.60000000E+01  1.00800000E+00  1.00800000E+00
  1.60000000E+01  1.00800000E+00  1.00800000E+00  1.60000000E+01  1.00800000E+00
  1.00800000E+00  1.60000000E+01  1.00800000E+00  1.00800000E+00  1.60000000E+01
  1.00800000E+00  1.00800000E+00  1.60000000E+01  1.00800000E+00  1.00800000E+00
  1.60000000E+01  1.00800000E+00  1.00800000E+00  1.60000000E+01  1.00800000E+00
  1.00800000E+00  1.60000000E+01  1.00800000E+00  1.00800000E+00  1.60000000E+01
  1.00800000E+00  1.00800000E+00  1.60000000E+01  1.00800000E+00  1.00800000E+00
  1.60000000E+01  1.00800000E+00  1.00800000E+00  1.60000000E+01  1.00800000E+00
  1.00800000E+00  1.60000000E+01  1.00800000E+00  1.00800000E+00  1.60000000E+01
  1.00800000E+00  1.00800000E+00  1.60000000E+01  1.00800000E+00  1.00800000E+00
  1.60000000E+01  1.00800000E+00  1.00800000E+00  1.60000000E+01  1.00800000E+00
  1.00800000E+00  1.60000000E+01  1.00800000E+00  1.00800000E+00  1.60000000E+01
  1.00800000E+00  1.00800000E+00  1.60000000E+01  1.00800000E+00  1.00800000E+00
  1.60000000E+01  1.00800000E+00  1.00800000E+00  1.60000000E+01  1.00800000E+00
  1.00800000E+00  1.60000000E+01  1.00800000E+00  1.00800000E+00  1.60000000E+01
  1.00800000E+00  1.00800000E+00  1.60000000E+01  1.00800000E+00  1.00800000E+00
  1.60000000E+01  1.00800000E+00  1.00800000E+00  1.60000000E+01  1.00800000E+00
  1.00800000E+00  1.60000000E+01  1.00800000E+00  1.00800000E+00  1.60000000E+01
  1.00800000E+00  1.00800000E+00  1.60000000E+01  1.00800000E+00  1.00800000E+00
  1.60000000E+01  1.00800000E+00  1.00800000E+00  1.60000000E+01  1.00800000E+00
  1.00800000E+00  1.60000000E+01  1.00800000E+00  1.00800000E+00  1.60000000E+01
  1.00800000E+00  1.00800000E+00  1.60000000E+01  1.00800000E+00  1.00800000E+00
  1.60000000E+01  1.00800000E+00  1.00800000E+00  1.60000000E+01  1.00800000E+00
  1.00800000E+00  1.60000000E+01  1.00800000E+00  1.00800000E+00  1.60000000E+01
  1.00800000E+00  1.00800000E+00  1.60000000E+01  1.00800000E+00  1.00800000E+00
  1.60000000E+01  1.00800000E+00  1.00800000E+00  1.60000000E+01  1.00800000E+00
  1.00800000E+00  1.60000000E+01  1.00800000E+00  1.00800000E+00  1.60000000E+01
  1.00800000E+00  1.00800000E+00  1.60000000E+01  1.00800000E+00  1.00800000E+00
  1.60000000E+01  1.00800000E+00  1.00800000E+00  1.60000000E+01  1.00800000E+00
  1.00800000E+00  1.60000000E+01  1.00800000E+00  1.00800000E+00  1.60000000E+01
  1.00800000E+00  1.00800000E+00  1.60000000E+01  1.00800000E+00  1.00800000E+00
  1.60000000E+01  1.00800000E+00  1.00800000E+00  1.60000000E+01  1.00800000E+00
  1.00800000E+00  1.60000000E+01  1.00800000E+00  1.00800000E+00  1.60000000E+01
  1.00800000E+00  1.00800000E+00  1.60000000E+01  1.00800000E+00  1.00800000E+00
  1.60000000E+01  1.00800000E+00  1.00800000E+00  1.60000000E+01  1.00800000E+00
  1.00800000E+00  1.60000000E+01  1.00800000E+00  1.00800000E+00  1.60000000E+01
  1.00800000E+00  1.00800000E+00  1.60000000E+01  1.00800000E+00  1.00800000E+00
  1.60000000E+01  1.00800000E+00  1.00800000E+00  1.60000000E+01  1.00800000E+00
  1.00800000E+00  1.60000000E+01  1.00800000E+00  1.00800000E+00  1.60000000E+01
  1.00800000E+00  1.00800000E+00  1.60000000E+01  1.00800000E+00  1.00800000E+00
  1.60000000E+01  1.00800000E+00  1.00800000E+00  1.60000000E+01  1.00800000E+00
  1.00800000E+00  1.60000000E+01  1.00800000E+00  1.00800000E+00  1.60000000E+01
  1.00800000E+00  1.00800000E+00  1.60000000E+01  1.00800000E+00  1.00800000E+00
  1.60000000E+01  1.00800000E+00  1.00800000E+00  1.60000000E+01  1.00800000E+00
  1.00800000E+00  1.60000000E+01  1.00800000E+00  1.00800000E+00  1.60000000E+01
  1.00800000E+00  1.00800000E+00  1.60000000E+01  1.00800000E+00  1.00800000E+00
  1.60000000E+01  1.00800000E+00  1.00800000E+00  1.60000000E+01  1.00800000E+00
  1.00800000E+00  1.60000000E+01  1.00800000E+00  1.00800000E+00  1.60000000E+01
  1.00800000E+00  1.00800000E+00  1.60000000E+01  1.00800000E+00  1.00800000E+00
  1.60000000E+01  1.00800000E+00  1.00800000E+00  1.60000000E+01  1.00800000E+00
  1.00800000E+00  1.60000000E+01  1.00800000E+00  1.00800000E+00  1.60000000E+01
  1.00800000E+00  1.00800000E+00  1.60000000E+01  1.00800000E+00  1.00800000E+00
  1.60000000E+01  1.00800000E+00  1.00800000E+00  1.60000000E+01  1.00800000E+00
  1.00800000E+00  1.60000000E+01  1.00800000E+00  1.00800000E+00  1.60000000E+01
  1.00800000E+00  1.00800000E+00  1.60000000E+01  1.00800000E+00  1.00800000E+00
  1.60000000E+01  1.00800000E+00  1.00800000E+00  1.60000000E+01  1.00800000E+00
  1.00800000E+00  1.60000000E+01  1.00800000E+00  1.00800000E+00  1.60000000E+01
  1.00800000E+00  1.00800000E+00  1.60000000E+01  1.00800000E+00  1.00800000E+00
  1.60000000E+01  1.00800000E+00  1.00800000E+00  1.60000000E+01  1.00800000E+00
  1.00800000E+00  1.60000000E+01  1.00800000E+00  1.00800000E+00  1.60000000E+01
  1.00800000E+00  1.00800000E+00  1.60000000E+01  1.00800000E+00  1.00800000E+00
  1.60000000E+01  1.00800000E+00  1.00800000E+00  1.60000000E+01  1.00800000E+00
  1.00800000E+00  1.60000000E+01  1.00800000E+00  1.00800000E+00  1.60000000E+01
  1.00800000E+00  1.00800000E+00  1.60000000E+01  1.00800000E+00  1.00800000E+00
  1.60000000E+01  1.00800000E+00  1.00800000E+00  1.60000000E+01  1.00800000E+00
  1.00800000E+00  1.60000000E+01  1.00800000E+00  1.00800000E+00  1.60000000E+01
  1.00800000E+00  1.00800000E+00  1.60000000E+01  1.00800000E+00  1.00800000E+00
  1.60000000E+01  1.00800000E+00  1.00800000E+00  1.60000000E+01  1.00800000E+00
  1.00800000E+00  1.60000000E+01  1.00800000E+00  1.00800000E+00  1.60000000E+01
  1.00800000E+00  1.00800000E+00  1.60000000E+01  1.00800000E+00  1.00800000E+00
  1.60000000E+01  1.00800000E+00  1.00800000E+00  1.60000000E+01  1.00800000E+00
  1.00800000E+00  1.60000000E+01  1.00800000E+00  1.00800000E+00  1.60000000E+01
  1.00800000E+00  1.00800000E+00  1.60000000E+01  1.00800000E+00  1.00800000E+00
  1.60000000E+01  1.00800000E+00  1.00800000E+00  1.60000000E+01  1.00800000E+00
  1.00800000E+00  1.60000000E+01  1.00800000E+00  1.00800000E+00  1.60000000E+01
  1.00800000E+00  1.00800000E+00  1.60000000E+01  1.00800000E+00  1.00800000E+00
  1.60000000E+01  1.00800000E+00  1.00800000E+00  1.60000000E+01  1.00800000E+00
  1.00800000E+00  1.60000000E+01  1.00800000E+00  1.00800000E+00  1.60000000E+01
  1.00800000E+00  1.00800000E+00  1.60000000E+01  1.00800000E+00  1.00800000E+00
  1.60000000E+01  1.00800000E+00  1.00800000E+00  1.60000000E+01  1.00800000E+00
  1.00800000E+00  1.60000000E+01  1.00800000E+00  1.00800000E+00  1.60000000E+01
  1.00800000E+00  1.00800000E+00  1.60000000E+01  1.00800000E+00  1.00800000E+00
  1.60000000E+01  1.00800000E+00  1.00800000E+00  1.60000000E+01  1.00800000E+00
  1.00800000E+00  1.60000000E+01  1.00800000E+00  1.00800000E+00  1.60000000E+01
  1.00800000E+00  1.00800000E+00  1.60000000E+01  1.00800000E+00  1.00800000E+00
  1.60000000E+01  1.00800000E+00  1.00800000E+00  1.60000000E+01  1.00800000E+00
  1.00800000E+00  1.60000000E+01  1.00800000E+00  1.00800000E+00  1.60000000E+01
  1.00800000E+00  1.00800000E+00  1.60000000E+01  1.00800000E+00  1.00800000E+00
  1.60000000E+01  1.00800000E+00  1.00800000E+00  1.60000000E+01  1.00800000E+00
  1.00800000E+00  1.60000000E+01  1.00800000E+00  1.00800000E+00  1.60000000E+01
  1.00800000E+00  1.00800000E+00  1.60000000E+01  1.00800000E+00  1.00800000E+00
  1.60000000E+01  1.00800000E+00  1.00800000E+00  1.60000000E+01  1.00800000E+00
  1.00800000E+00  1.60000000E+01  1.00800000E+00  1.00800000E+00  1.60000000E+01
  1.00800000E+00  1.00800000E+00  1.60000000E+01  1.00800000E+00  1.00800000E+00
  1.60000000E+01  1.00800000E+00  1.00800000E+00  1.60000000E+01  1.00800000E+00
  1.00800000E+00  1.60000000E+01  1.00800000E+00  1.00800000E+00  1.60000000E+01
  1.00800000E+00  1.00800000E+00  1.60000000E+01  1.00800000E+00  1.00800000E+00
  1.60000000E+01  1.00800000E+00  1.00800000E+00  1.60000000E+01  1.00800000E+00
  1.00800000E+00  1.60000000E+01  1.00800000E+00  1.00800000E+00  1.60000000E+01
  1.00800000E+00  1.00800000E+00  1.60000000E+01  1.00800000E+00  1.00800000E+00
  1.60000000E+01  1.00800000E+00  1.00800000E+00  1.60000000E+01  1.00800000E+00
  1.00800000E+00  1.60000000E+01  1.00800000E+00  1.00800000E+00  1.60000000E+01
  1.00800000E+00  1.00800000E+00  1.60000000E+01  1.00800000E+00  1.00800000E+00
  1.60000000E+01  1.00800000E+00  1.00800000E+00  1.60000000E+01  1.00800000E+00
  1.00800000E+00  1.60000000E+01  1.00800000E+00  1.00800000E+00  1.60000000E+01
  1.00800000E+00  1.00800000E+00  1.60000000E+01  1.00800000E+00  1.00800000E+00
  1.60000000E+01  1.00800000E+00  1.00800000E+00  1.60000000E+01  1.00800000E+00
  1.00800000E+00  1.60000000E+01  1.00800000E+00  1.00800000E+00  1.60000000E+01
  1.00800000E+00  1.00800000E+00  1.60000000E+01  1.00800000E+00  1.00800000E+00
  1.60000000E+01  1.00800000E+00  1.00800000E+00  1.60000000E+01  1.00800000E+00
  1.00800000E+00  1.60000000E+01  1.00800000E+00  1.00800000E+00  1.60000000E+01
  1.00800000E+00  1.00800000E+00  1.60000000E+01  1.00800000E+00  1.00800000E+00
  1.60000000E+01  1.00800000E+00  1.00800000E+00  1.60000000E+01  1.00800000E+00
  1.00800000E+00  1.60000000E+01  1.00800000E+00  1.00800000E+00  1.60000000E+01
  1.00800000E+00  1.00800000E+00  1.60000000E+01  1.00800000E+00  1.00800000E+00
  1.60000000E+01  1.00800000E+00  1.00800000E+00  1.60000000E+01  1.00800000E+00
  1.00800000E+00  1.60000000E+01  1.00800000E+00  1.00800000E+00  1.60000000E+01
  1.00800000E+00  1.00800000E+00  1.60000000E+01  1.00800000E+00  1.00800000E+00
  1.60000000E+01  1.00800000E+00  1.00800000E+00  1.60000000E+01  1.00800000E+00
  1.00800000E+00  1.60000000E+01  1.00800000E+00  1.00800000E+00  1.60000000E+01
  1.00800000E+00  1.00800000E+00  1.60000000E+01  1.00800000E+00  1.00800000E+00
  1.60000000E+01  1.00800000E+00  1.00800000E+00  1.60000000E+01  1.00800000E+00
  1.00800000E+00  1.60000000E+01  1.00800000E+00  1.00800000E+00  1.60000000E+01
  1.00800000E+00  1.00800000E+00  1.60000000E+01  1.00800000E+00  1.00800000E+00
  1.60000000E+01  1.00800000E+00  1.00800000E+00  1.60000000E+01  1.00800000E+00
  1.00800000E+00  1.60000000E+01  1.00800000E+00  1.00800000E+00  1.60000000E+01
  1.00800000E+00  1.00800000E+00  1.60000000E+01  1.00800000E+00  1.00800000E+00
  1.60000000E+01  1.00800000E+00  1.00800000E+00  1.60000000E+01  1.00800000E+00
  1.00800000E+00  1.60000000E+01  1.00800000E+00  1.00800000E+00  1.60000000E+01
  1.00800000E+00  1.00800000E+00  1.60000000E+01  1.00800000E+00  1.00800000E+00
  1.60000000E+01  1.00800000E+00  1.00800000E+00  1.60000000E+01  1.00800000E+00
  1.00800000E+00  1.60000000E+01  1.00800000E+00  1.00800000E+00  1.60000000E+01
  1.00800000E+00  1.00800000E+00  1.60000000E+01  1.00800000E+00  1.00800000E+00
  1.60000000E+01  1.00800000E+00  1.00800000E+00  1.60000000E+01  1.00800000E+00
  1.00800000E+00  1.60000000E+01  1.00800000E+00  1.00800000E+00  1.60000000E+01
  1.00800000E+00  1.00800000E+00  1.60000000E+01  1.00800000E+00  1.00800000E+00
  1.60000000E+01  1.00800000E+00  1.00800000E+00  1.60000000E+01  1.00800000E+00
  1.00800000E+00  1.60000000E+01  1.00800000E+00  1.00800000E+00  1.60000000E+01
  1.00800000E+00  1.00800000E+00  1.60000000E+01  1.00800000E+00  1.00800000E+00
  1.60000000E+01  1.00800000E+00  1.00800000E+00  1.60000000E+01  1.00800000E+00
  1.00800000E+00  1.60000000E+01  1.00800000E+00  1.00800000E+00  1.60000000E+01
  1.00800000E+00  1.00800000E+00  1.60000000E+01  1.00800000E+00  1.00800000E+00
  1.60000000E+01  1.00800000E+00  1.00800000E+00  1.60000000E+01  1.00800000E+00
  1.00800000E+00  1.60000000E+01  1.00800000E+00  1.00800000E+00  1.60000000E+01
  1.00800000E+00  1.00800000E+00  1.60000000E+01  1.00800000E+00  1.00800000E+00
  1.60000000E+01  1.00800000E+00  1.00800000E+00  1.60000000E+01  1.00800000E+00
  1.00800000E+00  1.60000000E+01  1.00800000E+00  1.00800000E+00  1.60000000E+01
  1.00800000E+00  1.00800000E+00  1.60000000E+01  1.00800000E+00  1.00800000E+00
  1.60000000E+01  1.00800000E+00  1.00800000E+00  1.60000000E+01  1.00800000E+00
  1.00800000E+00  1.60000000E+01  1.00800000E+00  1.00800000E+00  1.60000000E+01
  1.00800000E+00  1.00800000E+00  1.60000000E+01  1.00800000E+00  1.00800000E+00
  1.60000000E+01  1.00800000E+00  1.00800000E+00  1.60000000E+01  1.00800000E+00
  1.00800000E+00  1.60000000E+01  1.00800000E+00  1.00800000E+00  1.60000000E+01
  1.00800000E+00  1.00800000E+00  1.60000000E+01  1.00800000E+00  1.00800000E+00
  1.60000000E+01  1.00800000E+00  1.00800000E+00  1.60000000E+01  1.00800000E+00
  1.00800000E+00  1.60000000E+01  1.00800000E+00  1.00800000E+00  1.60000000E+01
  1.00800000E+00  1.00800000E+00  1.60000000E+01  1.00800000E+00  1.00800000E+00
  1.60000000E+01  1.00800000E+00  1.00800000E+00  1.60000000E+01  1.00800000E+00
  1.00800000E+00  1.60000000E+01  1.00800000E+00  1.00800000E+00  1.60000000E+01
  1.00800000E+00  1.00800000E+00  1.60000000E+01  1.00800000E+00  1.00800000E+00
  1.60000000E+01  1.00800000E+00  1.00800000E+00  1.60000000E+01  1.00800000E+00
  1.00800000E+00  1.60000000E+01  1.00800000E+00  1.00800000E+00  1.60000000E+01
  1.00800000E+00  1.00800000E+00  1.60000000E+01  1.00800000E+00  1.00800000E+00
  1.60000000E+01  1.00800000E+00  1.00800000E+00  1.60000000E+01  1.00800000E+00
  1.00800000E+00  1.60000000E+01  1.00800000E+00  1.00800000E+00  1.60000000E+01
  1.00800000E+00  1.00800000E+00  1.60000000E+01  1.00800000E+00  1.00800000E+00
  1.60000000E+01  1.00800000E+00  1.00800000E+00  1.60000000E+01  1.00800000E+00
  1.00800000E+00  1.60000000E+01  1.00800000E+00  1.00800000E+00  1.60000000E+01
  1.00800000E+00  1.00800000E+00  1.60000000E+01  1.00800000E+00  1.00800000E+00
  1.60000000E+01  1.00800000E+00  1.00800000E+00  1.60000000E+01  1.00800000E+00
  1.00800000E+00  1.60000000E+01  1.00800000E+00  1.00800000E+00  1.60000000E+01
  1.00800000E+00  1.00800000E+00  1.60000000E+01  1.00800000E+00  1.00800000E+00
  1.60000000E+01  1.00800000E+00  1.00800000E+00  1.60000000E+01  1.00800000E+00
  1.00800000E+00  1.60000000E+01  1.00800000E+00  1.00800000E+00  1.60000000E+01
  1.00800000E+00  1.00800000E+00  1.60000000E+01  1.00800000E+00  1.00800000E+00
  1.60000000E+01  1.00800000E+00  1.00800000E+00  1.60000000E+01  1.00800000E+00
  1.00800000E+00  1.60000000E+01  1.00800000E+00  1.00800000E+00  1.60000000E+01
  1.00800000E+00  1.00800000E+00  1.60000000E+01  1.00800000E+00  1.00800000E+00
  1.60000000E+01  1.00800000E+00  1.00800000E+00  1.60000000E+01  1.00800000E+00
  1.00800000E+00  1.60000000E+01  1.00800000E+00  1.00800000E+00  1.60000000E+01
  1.00800000E+00  1.00800000E+00  1.60000000E+01  1.00800000E+00  1.00800000E+00
  1.60000000E+01  1.00800000E+00  1.00800000E+00  1.60000000E+01  1.00800000E+00
  1.00800000E+00  1.60000000E+01  1.00800000E+00  1.00800000E+00  1.60000000E+01
  1.00800000E+00  1.00800000E+00  1.60000000E+01  1.00800000E+00  1.00800000E+00
  1.60000000E+01  1.00800000E+00  1.00800000E+00  1.60000000E+01  1.00800000E+00
  1.00800000E+00  1.60000000E+01  1.00800000E+00  1.00800000E+00  1.60000000E+01
  1.00800000E+00  1.00800000E+00  1.60000000E+01  1.00800000E+00  1.00800000E+00
  1.60000000E+01  1.00800000E+00  1.00800000E+00  1.60000000E+01  1.00800000E+00
  1.00800000E+00  1.60000000E+01  1.00800000E+00  1.00800000E+00  1.60000000E+01
  1.00800000E+00  1.00800000E+00  1.60000000E+01  1.00800000E+00  1.00800000E+00
  1.60000000E+01  1.00800000E+00  1.00800000E+00  1.60000000E+01  1.00800000E+00
  1.00800000E+00  1.60000000E+01  1.00800000E+00  1.00800000E+00  1.60000000E+01
  1.00800000E+00  1.00800000E+00  1.60000000E+01  1.00800000E+00  1.00800000E+00
  1.60000000E+01  1.00800000E+00  1.00800000E+00  1.60000000E+01  1.00800000E+00
  1.00800000E+00  1.60000000E+01  1.00800000E+00  1.00800000E+00  1.60000000E+01
  1.00800000E+00  1.00800000E+00  1.60000000E+01  1.00800000E+00  1.00800000E+00
  1.60000000E+01  1.00800000E+00  1.00800000E+00  1.60000000E+01  1.00800000E+00
  1.00800000E+00  1.60000000E+01  1.00800000E+00  1.00800000E+00  1.60000000E+01
  1.00800000E+00  1.00800000E+00  1.60000000E+01  1.00800000E+00  1.00800000E+00
  1.60000000E+01  1.00800000E+00  1.00800000E+00  1.60000000E+01  1.00800000E+00
  1.00800000E+00  1.60000000E+01  1.00800000E+00  1.00800000E+00  1.60000000E+01
  1.00800000E+00  1.00800000E+00  1.60000000E+01  1.00800000E+00  1.00800000E+00
  1.60000000E+01  1.00800000E+00  1.00800000E+00  1.60000000E+01  1.00800000E+00
  1.00800000E+00  1.60000000E+01  1.00800000E+00  1.00800000E+00  1.60000000E+01
  1.00800000E+00  1.00800000E+00  1.60000000E+01  1.00800000E+00  1.00800000E+00
  1.60000000E+01  1.00800000E+00  1.00800000E+00  1.60000000E+01  1.00800000E+00
  1.00800000E+00  1.60000000E+01  1.00800000E+00  1.00800000E+00  1.60000000E+01
  1.00800000E+00  1.00800000E+00  1.60000000E+01  1.00800000E+00  1.00800000E+00
  1.60000000E+01  1.00800000E+00  1.00800000E+00  1.60000000E+01  1.00800000E+00
  1.00800000E+00  1.60000000E+01  1.00800000E+00  1.00800000E+00  1.60000000E+01
  1.00800000E+00  1.00800000E+00  1.60000000E+01  1.00800000E+00  1.00800000E+00
  1.60000000E+01  1.00800000E+00  1.00800000E+00  1.60000000E+01  1.00800000E+00
  1.00800000E+00  1.60000000E+01  1.00800000E+00  1.00800000E+00  1.60000000E+01
  1.00800000E+00  1.00800000E+00  1.60000000E+01  1.00800000E+00  1.00800000E+00
  1.60000000E+01  1.00800000E+00  1.00800000E+00  1.60000000E+01  1.00800000E+00
  1.00800000E+00  1.60000000E+01  1.00800000E+00  1.00800000E+00  1.60000000E+01
  1.00800000E+00  1.00800000E+00  1.60000000E+01  1.00800000E+00  1.00800000E+00
  1.60000000E+01  1.00800000E+00  1.00800000E+00  1.60000000E+01  1.00800000E+00
  1.00800000E+00  1.60000000E+01  1.00800000E+00  1.00800000E+00  1.60000000E+01
  1.00800000E+00  1.00800000E+00  1.60000000E+01  1.00800000E+00  1.00800000E+00
  1.60000000E+01  1.00800000E+00  1.00800000E+00  1.60000000E+01  1.00800000E+00
  1.00800000E+00  1.60000000E+01  1.00800000E+00  1.00800000E+00  1.60000000E+01
  1.00800000E+00  1.00800000E+00  1.60000000E+01  1.00800000E+00  1.00800000E+00
  1.60000000E+01  1.00800000E+00  1.00800000E+00  1.60000000E+01  1.00800000E+00
  1.00800000E+00  1.60000000E+01  1.00800000E+00  1.00800000E+00  1.60000000E+01
  1.00800000E+00  1.00800000E+00  1.60000000E+01  1.00800000E+00  1.00800000E+00
  1.60000000E+01  1.00800000E+00  1.00800000E+00  1.60000000E+01  1.00800000E+00
  1.00800000E+00  1.60000000E+01  1.00800000E+00  1.00800000E+00  1.60000000E+01
  1.00800000E+00  1.00800000E+00  1.60000000E+01  1.00800000E+00  1.00800000E+00
  1.60000000E+01  1.00800000E+00  1.00800000E+00  1.60000000E+01  1.00800000E+00
  1.00800000E+00  1.60000000E+01  1.00800000E+00  1.00800000E+00  1.60000000E+01
  1.00800000E+00  1.00800000E+00  1.60000000E+01  1.00800000E+00  1.00800000E+00
  1.60000000E+01  1.00800000E+00  1.00800000E+00  1.60000000E+01  1.00800000E+00
  1.00800000E+00  1.60000000E+01  1.00800000E+00  1.00800000E+00  1.60000000E+01
  1.00800000E+00  1.00800000E+00  1.60000000E+01  1.00800000E+00  1.00800000E+00
  1.60000000E+01  1.00800000E+00  1.00800000E+00  1.60000000E+01  1.00800000E+00
  1.00800000E+00  1.60000000E+01  1.00800000E+00  1.00800000E+00  1.60000000E+01
  1.00800000E+00  1.00800000E+00  1.60000000E+01  1.00800000E+00  1.00800000E+00
  1.60000000E+01  1.00800000E+00  1.00800000E+00  1.60000000E+01  1.00800000E+00
  1.00800000E+00  1.60000000E+01  1.00800000E+00  1.00800000E+00  1.60000000E+01
  1.00800000E+00  1.00800000E+00  1.60000000E+01  1.00800000E+00  1.00800000E+00
  1.60000000E+01  1.00800000E+00  1.00800000E+00  1.60000000E+01  1.00800000E+00
  1.00800000E+00  1.60000000E+01  1.00800000E+00  1.00800000E+00  1.60000000E+01
  1.00800000E+00  1.00800000E+00  1.60000000E+01  1.00800000E+00  1.00800000E+00
  1.60000000E+01  1.00800000E+00  1.00800000E+00  1.60000000E+01  1.00800000E+00
  1.00800000E+00  1.60000000E+01  1.00800000E+00  1.00800000E+00  1.60000000E+01
  1.00800000E+00  1.00800000E+00  1.60000000E+01  1.00800000E+00  1.00800000E+00
  1.60000000E+01  1.00800000E+00  1.00800000E+00  1.60000000E+01  1.00800000E+00
  1.00800000E+00  1.60000000E+01  1.00800000E+00  1.00800000E+00  1.60000000E+01
  1.00800000E+00  1.00800000E+00  1.60000000E+01  1.00800000E+00  1.00800000E+00
  1.60000000E+01  1.00800000E+00  1.00800000E+00  1.60000000E+01  1.00800000E+00
  1.00800000E+00  1.60000000E+01  1.00800000E+00  1.00800000E+00  1.60000000E+01
  1.00800000E+00  1.00800000E+00  1.60000000E+01  1.00800000E+00  1.00800000E+00
  1.60000000E+01  1.00800000E+00  1.00800000E+00  1.60000000E+01  1.00800000E+00
  1.00800000E+00  1.60000000E+01  1.00800000E+00  1.00800000E+00  1.60000000E+01
  1.00800000E+00  1.00800000E+00  1.60000000E+01  1.00800000E+00  1.00800000E+00
  1.60000000E+01  1.00800000E+00  1.00800000E+00  1.60000000E+01  1.00800000E+00
  1.00800000E+00  1.60000000E+01  1.00800000E+00  1.00800000E+00  1.60000000E+01
  1.00800000E+00  1.00800000E+00  1.60000000E+01  1.00800000E+00  1.00800000E+00
  1.60000000E+01  1.00800000E+00  1.00800000E+00  1.60000000E+01  1.00800000E+00
  1.00800000E+00  1.60000000E+01  1.00800000E+00  1.00800000E+00  1.60000000E+01
  1.00800000E+00  1.00800000E+00  1.60000000E+01  1.00800000E+00  1.00800000E+00
  1.60000000E+01  1.00800000E+00  1.00800000E+00  1.60000000E+01  1.00800000E+00
  1.00800000E+00  1.60000000E+01  1.00800000E+00  1.00800000E+00  1.60000000E+01
  1.00800000E+00  1.00800000E+00  1.60000000E+01  1.00800000E+00  1.00800000E+00
  1.60000000E+01  1.00800000E+00  1.00800000E+00  1.60000000E+01  1.00800000E+00
  1.00800000E+00  1.60000000E+01  1.00800000E+00  1.00800000E+00  1.60000000E+01
  1.00800000E+00  1.00800000E+00  1.60000000E+01  1.00800000E+00  1.00800000E+00
  1.60000000E+01  1.00800000E+00  1.00800000E+00  1.60000000E+01  1.00800000E+00
  1.00800000E+00  1.60000000E+01  1.00800000E+00  1.00800000E+00  1.60000000E+01
  1.00800000E+00  1.00800000E+00  1.60000000E+01  1.00800000E+00  1.00800000E+00
  1.60000000E+01  1.00800000E+00  1.00800000E+00  1.60000000E+01  1.00800000E+00
  1.00800000E+00  1.60000000E+01  1.00800000E+00  1.00800000E+00  1.60000000E+01
  1.00800000E+00  1.00800000E+00  1.60000000E+01  1.00800000E+00  1.00800000E+00
  1.60000000E+01  1.00800000E+00  1.00800000E+00  1.60000000E+01  1.00800000E+00
  1.00800000E+00  1.60000000E+01  1.00800000E+00  1.00800000E+00  1.60000000E+01
  1.00800000E+00  1.00800000E+00  1.60000000E+01  1.00800000E+00  1.00800000E+00
  1.60000000E+01  1.00800000E+00  1.00800000E+00  1.60000000E+01  1.00800000E+00
  1.00800000E+00  1.60000000E+01  1.00800000E+00  1.00800000E+00  1.60000000E+01
  1.00800000E+00  1.00800000E+00  1.60000000E+01  1.00800000E+00  1.00800000E+00
  1.60000000E+01  1.00800000E+00  1.00800000E+00  1.60000000E+01  1.00800000E+00
  1.00800000E+00  1.60000000E+01  1.00800000E+00  1.00800000E+00  1.60000000E+01
  1.00800000E+00  1.00800000E+00  1.60000000E+01  1.00800000E+00  1.00800000E+00
  1.60000000E+01  1.00800000E+00  1.00800000E+00  1.60000000E+01  1.00800000E+00
  1.00800000E+00  1.60000000E+01  1.00800000E+00  1.00800000E+00  1.60000000E+01
  1.00800000E+00  1.00800000E+00  1.60000000E+01  1.00800000E+00  1.00800000E+00
  1.60000000E+01  1.00800000E+00  1.00800000E+00  1.60000000E+01  1.00800000E+00
  1.00800000E+00  1.60000000E+01  1.00800000E+00  1.00800000E+00  1.60000000E+01
  1.00800000E+00  1.00800000E+00  1.60000000E+01  1.00800000E+00  1.00800000E+00
  1.60000000E+01  1.00800000E+00  1.00800000E+00  1.60000000E+01  1.00800000E+00
  1.00800000E+00  1.60000000E+01  1.00800000E+00  1.00800000E+00  1.60000000E+01
  1.00800000E+00  1.00800000E+00  1.60000000E+01  1.00800000E+00  1.00800000E+00
  1.60000000E+01  1.00800000E+00  1.00800000E+00  1.60000000E+01  1.00800000E+00
  1.00800000E+00  1.60000000E+01  1.00800000E+00  1.00800000E+00  1.60000000E+01
  1.00800000E+00  1.00800000E+00  1.60000000E+01  1.00800000E+00  1.00800000E+00
  1.60000000E+01  1.00800000E+00  1.00800000E+00  1.60000000E+01  1.00800000E+00
  1.00800000E+00  1.60000000E+01  1.00800000E+00  1.00800000E+00  1.60000000E+01
  1.00800000E+00  1.00800000E+00  1.60000000E+01  1.00800000E+00  1.00800000E+00
  1.60000000E+01  1.00800000E+00  1.00800000E+00  1.60000000E+01  1.00800000E+00
  1.00800000E+00  1.60000000E+01  1.00800000E+00  1.00800000E+00  1.60000000E+01
  1.00800000E+00  1.00800000E+00  1.60000000E+01  1.00800000E+00  1.00800000E+00
  1.60000000E+01  1.00800000E+00  1.00800000E+00  1.60000000E+01  1.00800000E+00
  1.00800000E+00  1.60000000E+01  1.00800000E+00  1.00800000E+00  1.60000000E+01
  1.00800000E+00  1.00800000E+00  1.60000000E+01  1.00800000E+00  1.00800000E+00
  1.60000000E+01  1.00800000E+00  1.00800000E+00  1.60000000E+01  1.00800000E+00
  1.00800000E+00  1.60000000E+01  1.00800000E+00  1.00800000E+00  1.60000000E+01
  1.00800000E+00  1.00800000E+00  1.60000000E+01  1.00800000E+00  1.00800000E+00
  1.60000000E+01  1.00800000E+00  1.00800000E+00  1.60000000E+01  1.00800000E+00
  1.00800000E+00  1.60000000E+01  1.00800000E+00  1.00800000E+00  1.60000000E+01
  1.00800000E+00  1.00800000E+00  1.60000000E+01  1.00800000E+00  1.00800000E+00
  1.60000000E+01  1.00800000E+00  1.00800000E+00  1.60000000E+01  1.00800000E+00
  1.00800000E+00  1.60000000E+01  1.00800000E+00  1.00800000E+00  1.60000000E+01
  1.00800000E+00  1.00800000E+00  1.60000000E+01  1.00800000E+00  1.00800000E+00
  1.60000000E+01  1.00800000E+00  1.00800000E+00  1.60000000E+01  1.00800000E+00
  1.00800000E+00  1.60000000E+01  1.00800000E+00  1.00800000E+00  1.60000000E+01
  1.00800000E+00  1.00800000E+00  1.60000000E+01  1.00800000E+00  1.00800000E+00
  1.60000000E+01  1.00800000E+00  1.00800000E+00  1.60000000E+01  1.00800000E+00
  1.00800000E+00  1.60000000E+01  1.00800000E+00  1.00800000E+00  1.60000000E+01
  1.00800000E+00  1.00800000E+00  1.60000000E+01  1.00800000E+00  1.00800000E+00
  1.60000000E+01  1.00800000E+00  1.00800000E+00  1.60000000E+01  1.00800000E+00
  1.00800000E+00  1.60000000E+01  1.00800000E+00  1.00800000E+00  1.60000000E+01
  1.00800000E+00  1.00800000E+00  1.60000000E+01  1.00800000E+00  1.00800000E+00
  1.60000000E+01  1.00800000E+00  1.00800000E+00  1.60000000E+01  1.00800000E+00
  1.00800000E+00  1.60000000E+01  1.00800000E+00  1.00800000E+00  1.60000000E+01
  1.00800000E+00  1.00800000E+00  1.60000000E+01  1.00800000E+00  1.00800000E+00
  1.60000000E+01  1.00800000E+00  1.00800000E+00  1.60000000E+01  1.00800000E+00
  1.00800000E+00  1.60000000E+01  1.00800000E+00  1.00800000E+00  1.60000000E+01
  1.00800000E+00  1.00800000E+00  1.60000000E+01  1.00800000E+00  1.00800000E+00
  1.60000000E+01  1.00800000E+00  1.00800000E+00  1.60000000E+01  1.00800000E+00
  1.00800000E+00  1.60000000E+01  1.00800000E+00  1.00800000E+00  1.60000000E+01
  1.00800000E+00  1.00800000E+00  1.60000000E+01  1.00800000E+00  1.00800000E+00
  1.60000000E+01  1.00800000E+00  1.00800000E+00  1.60000000E+01  1.00800000E+00
  1.00800000E+00  1.60000000E+01  1.00800000E+00  1.00800000E+00  1.60000000E+01
  1.00800000E+00  1.00800000E+00  1.60000000E+01  1.00800000E+00  1.00800000E+00
  1.60000000E+01  1.00800000E+00  1.00800000E+00  1.60000000E+01  1.00800000E+00
  1.00800000E+00  1.60000000E+01  1.00800000E+00  1.00800000E+00  1.60000000E+01
  1.00800000E+00  1.00800000E+00  1.60000000E+01  1.00800000E+00  1.00800000E+00
  1.60000000E+01  1.00800000E+00  1.00800000E+00  1.60000000E+01  1.00800000E+00
  1.00800000E+00  1.60000000E+01  1.00800000E+00  1.00800000E+00  1.60000000E+01
  1.00800000E+00  1.00800000E+00  1.60000000E+01  1.00800000E+00  1.00800000E+00
  1.60000000E+01  1.00800000E+00  1.00800000E+00  1.60000000E+01  1.00800000E+00
  1.00800000E+00  1.60000000E+01  1.00800000E+00  1.00800000E+00  1.60000000E+01
  1.00800000E+00  1.00800000E+00  1.60000000E+01  1.00800000E+00  1.00800000E+00
  1.60000000E+01  1.00800000E+00  1.00800000E+00  1.60000000E+01  1.00800000E+00
  1.00800000E+00  1.60000000E+01  1.00800000E+00  1.00800000E+00  1.60000000E+01
  1.00800000E+00  1.00800000E+00  1.60000000E+01  1.00800000E+00  1.00800000E+00
  1.60000000E+01  1.00800000E+00  1.00800000E+00  1.60000000E+01  1.00800000E+00
  1.00800000E+00  1.60000000E+01  1.00800000E+00  1.00800000E+00  1.60000000E+01
  1.00800000E+00  1.00800000E+00  1.60000000E+01  1.00800000E+00  1.00800000E+00
  1.60000000E+01  1.00800000E+00  1.00800000E+00  1.60000000E+01  1.00800000E+00
  1.00800000E+00  1.60000000E+01  1.00800000E+00  1.00800000E+00  1.60000000E+01
  1.00800000E+00  1.00800000E+00  1.60000000E+01  1.00800000E+00  1.00800000E+00
  1.60000000E+01  1.00800000E+00  1.00800000E+00  1.60000000E+01  1.00800000E+00
  1.00800000E+00  1.60000000E+01  1.00800000E+00  1.00800000E+00  1.60000000E+01
  1.00800000E+00  1.00800000E+00  1.60000000E+01  1.00800000E+00  1.00800000E+00
  1.60000000E+01  1.00800000E+00  1.00800000E+00  1.60000000E+01  1.00800000E+00
  1.00800000E+00  1.60000000E+01  1.00800000E+00  1.00800000E+00  1.60000000E+01
  1.00800000E+00  1.00800000E+00  1.60000000E+01  1.00800000E+00  1.00800000E+00
  1.60000000E+01  1.00800000E+00  1.00800000E+00  1.60000000E+01  1.00800000E+00
  1.00800000E+00  1.60000000E+01  1.00800000E+00  1.00800000E+00  1.60000000E+01
  1.00800000E+00  1.00800000E+00  1.60000000E+01  1.00800000E+00  1.00800000E+00
  1.60000000E+01  1.00800000E+00  1.00800000E+00  1.60000000E+01  1.00800000E+00
  1.00800000E+00  1.60000000E+01  1.00800000E+00  1.00800000E+00  1.60000000E+01
  1.00800000E+00  1.00800000E+00  1.60000000E+01  1.00800000E+00  1.00800000E+00
  1.60000000E+01  1.00800000E+00  1.00800000E+00  1.60000000E+01  1.00800000E+00
  1.00800000E+00  1.60000000E+01  1.00800000E+00  1.00800000E+00  1.60000000E+01
  1.00800000E+00  1.00800000E+00  1.60000000E+01  1.00800000E+00  1.00800000E+00
  1.60000000E+01  1.00800000E+00  1.00800000E+00  1.60000000E+01  1.00800000E+00
  1.00800000E+00  1.60000000E+01  1.00800000E+00  1.00800000E+00  1.60000000E+01
  1.00800000E+00  1.00800000E+00  1.60000000E+01  1.00800000E+00  1.00800000E+00
  1.60000000E+01  1.00800000E+00  1.00800000E+00  1.60000000E+01  1.00800000E+00
  1.00800000E+00  1.60000000E+01  1.00800000E+00  1.00800000E+00  1.60000000E+01
  1.00800000E+00  1.00800000E+00  1.60000000E+01  1.00800000E+00  1.00800000E+00
  1.60000000E+01  1.00800000E+00  1.00800000E+00  1.60000000E+01  1.00800000E+00
  1.00800000E+00  1.60000000E+01  1.00800000E+00  1.00800000E+00  1.60000000E+01
  1.00800000E+00  1.00800000E+00  1.60000000E+01  1.00800000E+00  1.00800000E+00
  1.60000000E+01  1.00800000E+00  1.00800000E+00  1.60000000E+01  1.00800000E+00
  1.00800000E+00  1.60000000E+01  1.00800000E+00  1.00800000E+00  1.60000000E+01
  1.00800000E+00  1.00800000E+00  1.60000000E+01  1.00800000E+00  1.00800000E+00
  1.60000000E+01  1.00800000E+00  1.00800000E+00  1.60000000E+01  1.00800000E+00
  1.00800000E+00  1.60000000E+01  1.00800000E+00  1.00800000E+00  1.60000000E+01
  1.00800000E+00  1.00800000E+00  1.60000000E+01  1.00800000E+00  1.00800000E+00
  1.60000000E+01  1.00800000E+00  1.00800000E+00  1.60000000E+01  1.00800000E+00
  1.00800000E+00  1.60000000E+01  1.00800000E+00  1.00800000E+00  1.60000000E+01
  1.00800000E+00  1.00800000E+00  1.60000000E+01  1.00800000E+00  1.00800000E+00
  1.60000000E+01  1.00800000E+00  1.00800000E+00  1.60000000E+01  1.00800000E+00
  1.00800000E+00  1.60000000E+01  1.00800000E+00  1.00800000E+00  1.60000000E+01
  1.00800000E+00  1.00800000E+00  1.60000000E+01  1.00800000E+00  1.00800000E+00
  1.60000000E+01  1.00800000E+00  1.00800000E+00  1.60000000E+01  1.00800000E+00
  1.00800000E+00  1.60000000E+01  1.00800000E+00  1.00800000E+00  1.60000000E+01
  1.00800000E+00  1.00800000E+00  1.60000000E+01  1.00800000E+00  1.00800000E+00
  1.60000000E+01  1.00800000E+00  1.00800000E+00  1.60000000E+01  1.00800000E+00
  1.00800000E+00  1.60000000E+01  1.00800000E+00  1.00800000E+00  1.60000000E+01
  1.00800000E+00  1.00800000E+00  1.60000000E+01  1.00800000E+00  1.00800000E+00
  1.60000000E+01  1.00800000E+00  1.00800000E+00  1.60000000E+01  1.00800000E+00
  1.00800000E+00  1.60000000E+01  1.00800000E+00  1.00800000E+00  1.60000000E+01
  1.00800000E+00  1.00800000E+00  1.60000000E+01  1.00800000E+00  1.00800000E+00
  1.60000000E+01  1.00800000E+00  1.00800000E+00  1.60000000E+01  1.00800000E+00
  1.00800000E+00  1.60000000E+01  1.00800000E+00  1.00800000E+00  1.60000000E+01
  1.00800000E+00  1.00800000E+00  1.60000000E+01  1.00800000E+00  1.00800000E+00
  1.60000000E+01  1.00800000E+00  1.00800000E+00  1.60000000E+01  1.00800000E+00
  1.00800000E+00  1.60000000E+01  1.00800000E+00  1.00800000E+00  1.60000000E+01
  1.00800000E+00  1.00800000E+00  1.60000000E+01  1.00800000E+00  1.00800000E+00
  1.60000000E+01  1.00800000E+00  1.00800000E+00  1.60000000E+01  1.00800000E+00
  1.00800000E+00  1.60000000E+01  1.00800000E+00  1.00800000E+00  1.60000000E+01
  1.00800000E+00  1.00800000E+00  1.60000000E+01  1.00800000E+00  1.00800000E+00
  1.60000000E+01  1.00800000E+00  1.00800000E+00  1.60000000E+01  1.00800000E+00
  1.00800000E+00  1.60000000E+01  1.00800000E+00  1.00800000E+00  1.60000000E+01
  1.00800000E+00  1.00800000E+00  1.60000000E+01  1.00800000E+00  1.00800000E+00
  1.60000000E+01  1.00800000E+00  1.00800000E+00  1.60000000E+01  1.00800000E+00
  1.00800000E+00  1.60000000E+01  1.00800000E+00  1.00800000E+00  1.60000000E+01
  1.00800000E+00  1.00800000E+00  1.60000000E+01  1.00800000E+00  1.00800000E+00
  1.60000000E+01  1.00800000E+00  1.00800000E+00  1.60000000E+01  1.00800000E+00
  1.00800000E+00  1.60000000E+01  1.00800000E+00  1.00800000E+00  1.60000000E+01
  1.00800000E+00  1.00800000E+00  1.60000000E+01  1.00800000E+00  1.00800000E+00
  1.60000000E+01  1.00800000E+00  1.00800000E+00  1.60000000E+01  1.00800000E+00
  1.00800000E+00  1.60000000E+01  1.00800000E+00  1.00800000E+00  1.60000000E+01
  1.00800000E+00  1.00800000E+00  1.60000000E+01  1.00800000E+00  1.00800000E+00
  1.60000000E+01  1.00800000E+00  1.00800000E+00  1.60000000E+01  1.00800000E+00
  1.00800000E+00  1.60000000E+01  1.00800000E+00  1.00800000E+00  1.60000000E+01
  1.00800000E+00  1.00800000E+00  1.60000000E+01  1.00800000E+00  1.00800000E+00
  1.60000000E+01  1.00800000E+00  1.00800000E+00  1.60000000E+01  1.00800000E+00
  1.00800000E+00  1.60000000E+01  1.00800000E+00  1.00800000E+00  1.60000000E+01
  1.00800000E+00  1.00800000E+00  1.60000000E+01  1.00800000E+00  1.00800000E+00
  1.60000000E+01  1.00800000E+00  1.00800000E+00  1.60000000E+01  1.00800000E+00
  1.00800000E+00  1.60000000E+01  1.00800000E+00  1.00800000E+00  1.60000000E+01
  1.00800000E+00  1.00800000E+00  1.60000000E+01  1.00800000E+00  1.00800000E+00
  1.60000000E+01  1.00800000E+00  1.00800000E+00  1.60000000E+01  1.00800000E+00
  1.00800000E+00  1.60000000E+01  1.00800000E+00  1.00800000E+00  1.60000000E+01
  1.00800000E+00  1.00800000E+00  1.60000000E+01  1.00800000E+00  1.00800000E+00
  1.60000000E+01  1.00800000E+00  1.00800000E+00  1.60000000E+01  1.00800000E+00
  1.00800000E+00  1.60000000E+01  1.00800000E+00  1.00800000E+00  1.60000000E+01
  1.00800000E+00  1.00800000E+00  1.60000000E+01  1.00800000E+00  1.00800000E+00
  1.60000000E+01  1.00800000E+00  1.00800000E+00  1.60000000E+01  1.00800000E+00
  1.00800000E+00  1.60000000E+01  1.00800000E+00  1.00800000E+00  1.60000000E+01
  1.00800000E+00  1.00800000E+00  1.60000000E+01  1.00800000E+00  1.00800000E+00
  1.60000000E+01  1.00800000E+00  1.00800000E+00  1.60000000E+01  1.00800000E+00
  1.00800000E+00  1.60000000E+01  1.00800000E+00  1.00800000E+00  1.60000000E+01
  1.00800000E+00  1.00800000E+00  1.60000000E+01  1.00800000E+00  1.00800000E+00
  1.60000000E+01  1.00800000E+00  1.00800000E+00  1.60000000E+01  1.00800000E+00
  1.00800000E+00  1.60000000E+01  1.00800000E+00  1.00800000E+00  1.60000000E+01
  1.00800000E+00  1.00800000E+00  1.60000000E+01  1.00800000E+00  1.00800000E+00
  1.60000000E+01  1.00800000E+00  1.00800000E+00  1.60000000E+01  1.00800000E+00
  1.00800000E+00  1.60000000E+01  1.00800000E+00  1.00800000E+00  1.60000000E+01
  1.00800000E+00  1.00800000E+00  1.60000000E+01  1.00800000E+00  1.00800000E+00
  1.60000000E+01  1.00800000E+00  1.00800000E+00  1.60000000E+01  1.00800000E+00
  1.00800000E+00  1.60000000E+01  1.00800000E+00  1.00800000E+00  1.60000000E+01
  1.00800000E+00  1.00800000E+00  1.60000000E+01  1.00800000E+00  1.00800000E+00
  1.60000000E+01  1.00800000E+00  1.00800000E+00  1.60000000E+01  1.00800000E+00
  1.00800000E+00  1.60000000E+01  1.00800000E+00  1.00800000E+00  1.60000000E+01
  1.00800000E+00  1.00800000E+00  1.60000000E+01  1.00800000E+00  1.00800000E+00
  1.60000000E+01  1.00800000E+00  1.00800000E+00  1.60000000E+01  1.00800000E+00
  1.00800000E+00  1.60000000E+01  1.00800000E+00  1.00800000E+00  1.60000000E+01
  1.00800000E+00  1.00800000E+00  1.60000000E+01  1.00800000E+00  1.00800000E+00
  1.60000000E+01  1.00800000E+00  1.00800000E+00  1.60000000E+01  1.00800000E+00
  1.00800000E+00  1.60000000E+01  1.00800000E+00  1.00800000E+00  1.60000000E+01
  1.00800000E+00  1.00800000E+00  1.60000000E+01  1.00800000E+00  1.00800000E+00
  1.60000000E+01  1.00800000E+00  1.00800000E+00  1.60000000E+01  1.00800000E+00
  1.00800000E+00  1.60000000E+01  1.00800000E+00  1.00800000E+00  1.60000000E+01
  1.00800000E+00  1.00800000E+00  1.60000000E+01  1.00800000E+00  1.00800000E+00
  1.60000000E+01  1.00800000E+00  1.00800000E+00  1.60000000E+01  1.00800000E+00
  1.00800000E+00  1.60000000E+01  1.00800000E+00  1.00800000E+00  1.60000000E+01
  1.00800000E+00  1.00800000E+00  1.60000000E+01  1.00800000E+00  1.00800000E+00
  1.60000000E+01  1.00800000E+00  1.00800000E+00  1.60000000E+01  1.00800000E+00
  1.00800000E+00  1.60000000E+01  1.00800000E+00  1.00800000E+00  1.60000000E+01
  1.00800000E+00  1.00800000E+00  1.60000000E+01  1.00800000E+00  1.00800000E+00
  1.60000000E+01  1.00800000E+00  1.00800000E+00  1.60000000E+01  1.00800000E+00
  1.00800000E+00  1.60000000E+01  1.00800000E+00  1.00800000E+00  1.60000000E+01
  1.00800000E+00  1.00800000E+00  1.60000000E+01  1.00800000E+00  1.00800000E+00
  1.60000000E+01  1.00800000E+00  1.00800000E+00  1.60000000E+01  1.00800000E+00
  1.00800000E+00  1.60000000E+01  1.00800000E+00  1.00800000E+00  1.60000000E+01
  1.00800000E+00  1.00800000E+00  1.60000000E+01  1.00800000E+00  1.00800000E+00
  1.60000000E+01  1.00800000E+00  1.00800000E+00  1.60000000E+01  1.00800000E+00
  1.00800000E+00  1.60000000E+01  1.00800000E+00  1.00800000E+00  1.60000000E+01
  1.00800000E+00  1.00800000E+00  1.60000000E+01  1.00800000E+00  1.00800000E+00
  1.60000000E+01  1.00800000E+00  1.00800000E+00  1.60000000E+01  1.00800000E+00
  1.00800000E+00  1.60000000E+01  1.00800000E+00  1.00800000E+00  1.60000000E+01
  1.00800000E+00  1.00800000E+00  1.60000000E+01  1.00800000E+00  1.00800000E+00
  1.60000000E+01  1.00800000E+00  1.00800000E+00  1.60000000E+01  1.00800000E+00
  1.00800000E+00  1.60000000E+01  1.00800000E+00  1.00800000E+00  1.60000000E+01
  1.00800000E+00  1.00800000E+00  1.60000000E+01  1.00800000E+00  1.00800000E+00
  1.60000000E+01  1.00800000E+00  1.00800000E+00  1.60000000E+01  1.00800000E+00
  1.00800000E+00  1.60000000E+01  1.00800000E+00  1.00800000E+00  1.60000000E+01
  1.00800000E+00  1.00800000E+00  1.60000000E+01  1.00800000E+00  1.00800000E+00
  1.60000000E+01  1.00800000E+00  1.00800000E+00  1.60000000E+01  1.00800000E+00
  1.00800000E+00  1.60000000E+01  1.00800000E+00  1.00800000E+00  1.60000000E+01
  1.00800000E+00  1.00800000E+00  1.60000000E+01  1.00800000E+00  1.00800000E+00
  1.60000000E+01  1.00800000E+00  1.00800000E+00  1.60000000E+01  1.00800000E+00
  1.00800000E+00  1.60000000E+01  1.00800000E+00  1.00800000E+00  1.60000000E+01
  1.00800000E+00  1.00800000E+00  1.60000000E+01  1.00800000E+00  1.00800000E+00
  1.60000000E+01  1.00800000E+00  1.00800000E+00  1.60000000E+01  1.00800000E+00
  1.00800000E+00  1.60000000E+01  1.00800000E+00  1.00800000E+00  1.60000000E+01
  1.00800000E+00  1.00800000E+00  1.60000000E+01  1.00800000E+00  1.00800000E+00
  1.60000000E+01  1.00800000E+00  1.00800000E+00  1.60000000E+01  1.00800000E+00
  1.00800000E+00  1.60000000E+01  1.00800000E+00  1.00800000E+00  1.60000000E+01
  1.00800000E+00  1.00800000E+00  1.60000000E+01  1.00800000E+00  1.00800000E+00
  1.60000000E+01  1.00800000E+00  1.00800000E+00  1.60000000E+01  1.00800000E+00
  1.00800000E+00  1.60000000E+01  1.00800000E+00  1.00800000E+00  1.60000000E+01
  1.00800000E+00  1.00800000E+00  1.60000000E+01  1.00800000E+00  1.00800000E+00
  1.60000000E+01  1.00800000E+00  1.00800000E+00  1.60000000E+01  1.00800000E+00
  1.00800000E+00  1.60000000E+01  1.00800000E+00  1.00800000E+00  1.60000000E+01
  1.00800000E+00  1.00800000E+00  1.60000000E+01  1.00800000E+00  1.00800000E+00
  1.60000000E+01  1.00800000E+00  1.00800000E+00  1.60000000E+01  1.00800000E+00
  1.00800000E+00  1.60000000E+01  1.00800000E+00  1.00800000E+00  1.60000000E+01
  1.00800000E+00  1.00800000E+00  1.60000000E+01  1.00800000E+00  1.00800000E+00
  1.60000000E+01  1.00800000E+00  1.00800000E+00  1.60000000E+01  1.00800000E+00
  1.00800000E+00  1.60000000E+01  1.00800000E+00  1.00800000E+00  1.60000000E+01
  1.00800000E+00  1.00800000E+00  1.60000000E+01  1.00800000E+00  1.00800000E+00
  1.60000000E+01  1.00800000E+00  1.00800000E+00  1.60000000E+01  1.00800000E+00
  1.00800000E+00  1.60000000E+01  1.00800000E+00  1.00800000E+00  1.60000000E+01
  1.00800000E+00  1.00800000E+00  1.60000000E+01  1.00800000E+00  1.00800000E+00
  1.60000000E+01  1.00800000E+00  1.00800000E+00  1.60000000E+01  1.00800000E+00
  1.00800000E+00  1.60000000E+01  1.00800000E+00  1.00800000E+00  1.60000000E+01
  1.00800000E+00  1.00800000E+00  1.60000000E+01  1.00800000E+00  1.00800000E+00
  1.60000000E+01  1.00800000E+00  1.00800000E+00  1.60000000E+01  1.00800000E+00
  1.00800000E+00  1.60000000E+01  1.00800000E+00  1.00800000E+00  1.60000000E+01
  1.00800000E+00  1.00800000E+00  1.60000000E+01  1.00800000E+00  1.00800000E+00
  1.60000000E+01  1.00800000E+00  1.00800000E+00  1.60000000E+01  1.00800000E+00
  1.00800000E+00  1.60000000E+01  1.00800000E+00  1.00800000E+00  1.60000000E+01
  1.00800000E+00  1.00800000E+00  1.60000000E+01  1.00800000E+00  1.00800000E+00
  1.60000000E+01  1.00800000E+00  1.00800000E+00  1.60000000E+01  1.00800000E+00
  1.00800000E+00  1.60000000E+01  1.00800000E+00  1.00800000E+00  1.60000000E+01
  1.00800000E+00  1.00800000E+00  1.60000000E+01  1.00800000E+00  1.00800000E+00
  1.60000000E+01  1.00800000E+00  1.00800000E+00  1.60000000E+01  1.00800000E+00
  1.00800000E+00  1.60000000E+01  1.00800000E+00  1.00800000E+00  1.60000000E+01
  1.00800000E+00  1.00800000E+00  1.60000000E+01  1.00800000E+00  1.00800000E+00
  1.60000000E+01  1.00800000E+00  1.00800000E+00  1.60000000E+01  1.00800000E+00
  1.00800000E+00  1.60000000E+01  1.00800000E+00  1.00800000E+00  1.60000000E+01
  1.00800000E+00  1.00800000E+00  1.60000000E+01  1.00800000E+00  1.00800000E+00
  1.60000000E+01  1.00800000E+00  1.00800000E+00  1.60000000E+01  1.00800000E+00
  1.00800000E+00  1.60000000E+01  1.00800000E+00  1.00800000E+00  1.60000000E+01
  1.00800000E+00  1.00800000E+00  1.60000000E+01  1.00800000E+00  1.00800000E+00
  1.60000000E+01  1.00800000E+00  1.00800000E+00  1.60000000E+01  1.00800000E+00
  1.00800000E+00  1.60000000E+01  1.00800000E+00  1.00800000E+00  1.60000000E+01
  1.00800000E+00  1.00800000E+00  1.60000000E+01  1.00800000E+00  1.00800000E+00
  1.60000000E+01  1.00800000E+00  1.00800000E+00  1.60000000E+01  1.00800000E+00
  1.00800000E+00  1.60000000E+01  1.00800000E+00  1.00800000E+00  1.60000000E+01
  1.00800000E+00  1.00800000E+00  1.60000000E+01  1.00800000E+00  1.00800000E+00
  1.60000000E+01  1.00800000E+00  1.00800000E+00  1.60000000E+01  1.00800000E+00
  1.00800000E+00  1.60000000E+01  1.00800000E+00  1.00800000E+00  1.60000000E+01
  1.00800000E+00  1.00800000E+00  1.60000000E+01  1.00800000E+00  1.00800000E+00
  1.60000000E+01  1.00800000E+00  1.00800000E+00  1.60000000E+01  1.00800000E+00
  1.00800000E+00  1.60000000E+01  1.00800000E+00  1.00800000E+00  1.60000000E+01
  1.00800000E+00  1.00800000E+00  1.60000000E+01  1.00800000E+00  1.00800000E+00
  1.60000000E+01  1.00800000E+00  1.00800000E+00  1.60000000E+01  1.00800000E+00
  1.00800000E+00  1.60000000E+01  1.00800000E+00  1.00800000E+00  1.60000000E+01
  1.00800000E+00  1.00800000E+00  1.60000000E+01  1.00800000E+00  1.00800000E+00
  1.60000000E+01  1.00800000E+00  1.00800000E+00  1.60000000E+01  1.00800000E+00
  1.00800000E+00  1.60000000E+01  1.00800000E+00  1.00800000E+00  1.60000000E+01
  1.00800000E+00  1.00800000E+00  1.60000000E+01  1.00800000E+00  1.00800000E+00
  1.60000000E+01  1.00800000E+00  1.00800000E+00  1.60000000E+01  1.00800000E+00
  1.00800000E+00  1.60000000E+01  1.00800000E+00  1.00800000E+00  1.60000000E+01
  1.00800000E+00  1.00800000E+00  1.60000000E+01  1.00800000E+00  1.00800000E+00
  1.60000000E+01  1.00800000E+00  1.00800000E+00  1.60000000E+01  1.00800000E+00
  1.00800000E+00  1.60000000E+01  1.00800000E+00  1.00800000E+00  1.60000000E+01
  1.00800000E+00  1.00800000E+00  1.60000000E+01  1.00800000E+00  1.00800000E+00
  1.60000000E+01  1.00800000E+00  1.00800000E+00  1.60000000E+01  1.00800000E+00
  1.00800000E+00  1.60000000E+01  1.00800000E+00  1.00800000E+00  1.60000000E+01
  1.00800000E+00  1.00800000E+00  1.60000000E+01  1.00800000E+00  1.00800000E+00
  1.60000000E+01  1.00800000E+00  1.00800000E+00  1.60000000E+01  1.00800000E+00
  1.00800000E+00  1.60000000E+01  1.00800000E+00  1.00800000E+00  1.60000000E+01
  1.00800000E+00  1.00800000E+00  1.60000000E+01  1.00800000E+00  1.00800000E+00
  1.60000000E+01  1.00800000E+00  1.00800000E+00  1.60000000E+01  1.00800000E+00
  1.00800000E+00  1.60000000E+01  1.00800000E+00  1.00800000E+00  1.60000000E+01
  1.00800000E+00  1.00800000E+00  1.60000000E+01  1.00800000E+00  1.00800000E+00
  1.60000000E+01  1.00800000E+00  1.00800000E+00  1.60000000E+01  1.00800000E+00
  1.00800000E+00  1.60000000E+01  1.00800000E+00  1.00800000E+00  1.60000000E+01
  1.00800000E+00  1.00800000E+00  1.60000000E+01  1.00800000E+00  1.00800000E+00
  1.60000000E+01  1.00800000E+00  1.00800000E+00  1.60000000E+01  1.00800000E+00
  1.00800000E+00  1.60000000E+01  1.00800000E+00  1.00800000E+00  1.60000000E+01
  1.00800000E+00  1.00800000E+00  1.60000000E+01  1.00800000E+00  1.00800000E+00
  1.60000000E+01  1.00800000E+00  1.00800000E+00  1.60000000E+01  1.00800000E+00
  1.00800000E+00  1.60000000E+01  1.00800000E+00  1.00800000E+00  1.60000000E+01
  1.00800000E+00  1.00800000E+00  1.60000000E+01  1.00800000E+00  1.00800000E+00
  1.60000000E+01  1.00800000E+00  1.00800000E+00  1.60000000E+01  1.00800000E+00
  1.00800000E+00  1.60000000E+01  1.00800000E+00  1.00800000E+00  1.60000000E+01
  1.00800000E+00  1.00800000E+00  1.60000000E+01  1.00800000E+00  1.00800000E+00
  1.60000000E+01  1.00800000E+00  1.00800000E+00  1.60000000E+01  1.00800000E+00
  1.00800000E+00  1.60000000E+01  1.00800000E+00  1.00800000E+00  1.60000000E+01
  1.00800000E+00  1.00800000E+00  1.60000000E+01  1.00800000E+00  1.00800000E+00
  1.60000000E+01  1.00800000E+00  1.00800000E+00  1.60000000E+01  1.00800000E+00
  1.00800000E+00  1.60000000E+01  1.00800000E+00  1.00800000E+00  1.60000000E+01
  1.00800000E+00  1.00800000E+00  1.60000000E+01  1.00800000E+00  1.00800000E+00
  1.60000000E+01  1.00800000E+00  1.00800000E+00  1.60000000E+01  1.00800000E+00
  1.00800000E+00  1.60000000E+01  1.00800000E+00  1.00800000E+00  1.60000000E+01
  1.00800000E+00  1.00800000E+00  1.60000000E+01  1.00800000E+00  1.00800000E+00
  1.60000000E+01  1.00800000E+00  1.00800000E+00  1.60000000E+01  1.00800000E+00
  1.00800000E+00  1.60000000E+01  1.00800000E+00  1.00800000E+00  1.60000000E+01
  1.00800000E+00  1.00800000E+00  1.60000000E+01  1.00800000E+00  1.00800000E+00
  1.60000000E+01  1.00800000E+00  1.00800000E+00  1.60000000E+01  1.00800000E+00
  1.00800000E+00  1.60000000E+01  1.00800000E+00  1.00800000E+00  1.60000000E+01
  1.00800000E+00  1.00800000E+00  1.60000000E+01  1.00800000E+00  1.00800000E+00
  1.60000000E+01  1.00800000E+00  1.00800000E+00  1.60000000E+01  1.00800000E+00
  1.00800000E+00  1.60000000E+01  1.00800000E+00  1.00800000E+00  1.60000000E+01
  1.00800000E+00  1.00800000E+00  1.60000000E+01  1.00800000E+00  1.00800000E+00
  1.60000000E+01  1.00800000E+00  1.00800000E+00  1.60000000E+01  1.00800000E+00
  1.00800000E+00  1.60000000E+01  1.00800000E+00  1.00800000E+00  1.60000000E+01
  1.00800000E+00  1.00800000E+00  1.60000000E+01  1.00800000E+00  1.00800000E+00
  1.60000000E+01  1.00800000E+00  1.00800000E+00  1.60000000E+01  1.00800000E+00
  1.00800000E+00  1.60000000E+01  1.00800000E+00  1.00800000E+00  1.60000000E+01
  1.00800000E+00  1.00800000E+00  1.60000000E+01  1.00800000E+00  1.00800000E+00
  1.60000000E+01  1.00800000E+00  1.00800000E+00  1.60000000E+01  1.00800000E+00
  1.00800000E+00  1.60000000E+01  1.00800000E+00  1.00800000E+00  1.60000000E+01
  1.00800000E+00  1.00800000E+00  1.60000000E+01  1.00800000E+00  1.00800000E+00
  1.60000000E+01  1.00800000E+00  1.00800000E+00  1.60000000E+01  1.00800000E+00
  1.00800000E+00  1.60000000E+01  1.00800000E+00  1.00800000E+00  1.60000000E+01
  1.00800000E+00  1.00800000E+00  1.60000000E+01  1.00800000E+00  1.00800000E+00
  1.60000000E+01  1.00800000E+00  1.00800000E+00  1.60000000E+01  1.00800000E+00
  1.00800000E+00  1.60000000E+01  1.00800000E+00  1.00800000E+00  1.60000000E+01
  1.00800000E+00  1.00800000E+00  1.60000000E+01  1.00800000E+00  1.00800000E+00
  1.60000000E+01  1.00800000E+00  1.00800000E+00  1.60000000E+01  1.00800000E+00
  1.00800000E+00  1.60000000E+01  1.00800000E+00  1.00800000E+00  1.60000000E+01
  1.00800000E+00  1.00800000E+00  1.60000000E+01  1.00800000E+00  1.00800000E+00
  1.60000000E+01  1.00800000E+00  1.00800000E+00  1.60000000E+01  1.00800000E+00
  1.00800000E+00  1.60000000E+01  1.00800000E+00  1.00800000E+00  1.60000000E+01
  1.00800000E+00  1.00800000E+00  1.60000000E+01  1.00800000E+00  1.00800000E+00
  1.60000000E+01  1.00800000E+00  1.00800000E+00  1.60000000E+01  1.00800000E+00
  1.00800000E+00  1.60000000E+01  1.00800000E+00  1.00800000E+00  1.60000000E+01
  1.00800000E+00  1.00800000E+00  1.60000000E+01  1.00800000E+00  1.00800000E+00
  1.60000000E+01  1.00800000E+00  1.00800000E+00  1.60000000E+01  1.00800000E+00
  1.00800000E+00  1.60000000E+01  1.00800000E+00  1.00800000E+00  1.60000000E+01
  1.00800000E+00  1.00800000E+00  1.60000000E+01  1.00800000E+00  1.00800000E+00
  1.60000000E+01  1.00800000E+00  1.00800000E+00  1.60000000E+01  1.00800000E+00
  1.00800000E+00  1.60000000E+01  1.00800000E+00  1.00800000E+00  1.60000000E+01
  1.00800000E+00  1.00800000E+00  1.60000000E+01  1.00800000E+00  1.00800000E+00
  1.60000000E+01  1.00800000E+00  1.00800000E+00  1.60000000E+01  1.00800000E+00
  1.00800000E+00  1.60000000E+01  1.00800000E+00  1.00800000E+00  1.60000000E+01
  1.00800000E+00  1.00800000E+00  1.60000000E+01  1.00800000E+00  1.00800000E+00
  1.60000000E+01  1.00800000E+00  1.00800000E+00  1.60000000E+01  1.00800000E+00
  1.00800000E+00  1.60000000E+01  1.00800000E+00  1.00800000E+00  1.60000000E+01
  1.00800000E+00  1.00800000E+00  1.60000000E+01  1.00800000E+00  1.00800000E+00
  1.60000000E+01  1.00800000E+00  1.00800000E+00  1.60000000E+01  1.00800000E+00
  1.00800000E+00  1.60000000E+01  1.00800000E+00  1.00800000E+00  1.60000000E+01
  1.00800000E+00  1.00800000E+00  1.60000000E+01  1.00800000E+00  1.00800000E+00
  1.60000000E+01  1.00800000E+00  1.00800000E+00  1.60000000E+01  1.00800000E+00
  1.00800000E+00  1.60000000E+01  1.00800000E+00  1.00800000E+00  1.60000000E+01
  1.00800000E+00  1.00800000E+00  1.60000000E+01  1.00800000E+00  1.00800000E+00
  1.60000000E+01  1.00800000E+00  1.00800000E+00  1.60000000E+01  1.00800000E+00
  1.00800000E+00  1.60000000E+01  1.00800000E+00  1.00800000E+00  1.60000000E+01
  1.00800000E+00  1.00800000E+00  1.60000000E+01  1.00800000E+00  1.00800000E+00
  1.60000000E+01  1.00800000E+00  1.00800000E+00  1.60000000E+01  1.00800000E+00
  1.00800000E+00  1.60000000E+01  1.00800000E+00  1.00800000E+00  1.60000000E+01
  1.00800000E+00  1.00800000E+00  1.60000000E+01  1.00800000E+00  1.00800000E+00
  1.60000000E+01  1.00800000E+00  1.00800000E+00  1.60000000E+01  1.00800000E+00
  1.00800000E+00  1.60000000E+01  1.00800000E+00  1.00800000E+00  1.60000000E+01
  1.00800000E+00  1.00800000E+00  1.60000000E+01  1.00800000E+00  1.00800000E+00
  1.60000000E+01  1.00800000E+00  1.00800000E+00  1.60000000E+01  1.00800000E+00
  1.00800000E+00  1.60000000E+01  1.00800000E+00  1.00800000E+00  1.60000000E+01
  1.00800000E+00  1.00800000E+00  1.60000000E+01  1.00800000E+00  1.00800000E+00
  1.60000000E+01  1.00800000E+00  1.00800000E+00  1.60000000E+01  1.00800000E+00
  1.00800000E+00  1.60000000E+01  1.00800000E+00  1.00800000E+00  1.60000000E+01
  1.00800000E+00  1.00800000E+00  1.60000000E+01  1.00800000E+00  1.00800000E+00
  1.60000000E+01  1.00800000E+00  1.00800000E+00  1.60000000E+01  1.00800000E+00
  1.00800000E+00  1.60000000E+01  1.00800000E+00  1.00800000E+00  1.60000000E+01
  1.00800000E+00  1.00800000E+00  1.60000000E+01  1.00800000E+00  1.00800000E+00
  1.60000000E+01  1.00800000E+00  1.00800000E+00  1.60000000E+01  1.00800000E+00
  1.00800000E+00  1.60000000E+01  1.00800000E+00  1.00800000E+00  1.60000000E+01
  1.00800000E+00  1.00800000E+00  1.60000000E+01  1.00800000E+00  1.00800000E+00
  1.60000000E+01  1.00800000E+00  1.00800000E+00  1.60000000E+01  1.00800000E+00
  1.00800000E+00  1.60000000E+01  1.00800000E+00  1.00800000E+00  1.60000000E+01
  1.00800000E+00  1.00800000E+00  1.60000000E+01  1.00800000E+00  1.00800000E+00
  1.60000000E+01  1.00800000E+00  1.00800000E+00  1.60000000E+01  1.00800000E+00
  1.00800000E+00  1.60000000E+01  1.00800000E+00  1.00800000E+00  1.60000000E+01
  1.00800000E+00  1.00800000E+00  1.60000000E+01  1.00800000E+00  1.00800000E+00
  1.60000000E+01  1.00800000E+00  1.00800000E+00  1.60000000E+01  1.00800000E+00
  1.00800000E+00  1.60000000E+01  1.00800000E+00  1.00800000E+00  1.60000000E+01
  1.00800000E+00  1.00800000E+00  1.60000000E+01  1.00800000E+00  1.00800000E+00
  1.60000000E+01  1.00800000E+00  1.00800000E+00  1.60000000E+01  1.00800000E+00
  1.00800000E+00  1.60000000E+01  1.00800000E+00  1.00800000E+00  1.60000000E+01
  1.00800000E+00  1.00800000E+00  1.60000000E+01  1.00800000E+00  1.00800000E+00
  1.60000000E+01  1.00800000E+00  1.00800000E+00  1.60000000E+01  1.00800000E+00
  1.00800000E+00  1.60000000E+01  1.00800000E+00  1.00800000E+00  1.60000000E+01
  1.00800000E+00  1.00800000E+00  1.60000000E+01  1.00800000E+00  1.00800000E+00
  1.60000000E+01  1.00800000E+00  1.00800000E+00  1.60000000E+01  1.00800000E+00
  1.00800000E+00  1.60000000E+01  1.00800000E+00  1.00800000E+00  1.60000000E+01
  1.00800000E+00  1.00800000E+00  1.60000000E+01  1.00800000E+00  1.00800000E+00
  1.60000000E+01  1.00800000E+00  1.00800000E+00  1.60000000E+01  1.00800000E+00
  1.00800000E+00  1.60000000E+01  1.00800000E+00  1.00800000E+00  1.60000000E+01
  1.00800000E+00  1.00800000E+00  1.60000000E+01  1.00800000E+00  1.00800000E+00
  1.60000000E+01  1.00800000E+00  1.00800000E+00  1.60000000E+01  1.00800000E+00
  1.00800000E+00  1.60000000E+01  1.00800000E+00  1.00800000E+00  1.60000000E+01
  1.00800000E+00  1.00800000E+00  1.60000000E+01  1.00800000E+00  1.00800000E+00
  1.60000000E+01  1.00800000E+00  1.00800000E+00  1.60000000E+01  1.00800000E+00
  1.00800000E+00  1.60000000E+01  1.00800000E+00  1.00800000E+00  1.60000000E+01
  1.00800000E+00  1.00800000E+00  1.60000000E+01  1.00800000E+00  1.00800000E+00
  1.60000000E+01  1.00800000E+00  1.00800000E+00  1.60000000E+01  1.00800000E+00
  1.00800000E+00  1.60000000E+01  1.00800000E+00  1.00800000E+00  1.60000000E+01
  1.00800000E+00  1.00800000E+00  1.60000000E+01  1.00800000E+00  1.00800000E+00
  1.60000000E+01  1.00800000E+00  1.00800000E+00  1.60000000E+01  1.00800000E+00
  1.00800000E+00  1.60000000E+01  1.00800000E+00  1.00800000E+00  1.60000000E+01
  1.00800000E+00  1.00800000E+00  1.60000000E+01  1.00800000E+00  1.00800000E+00
  1.60000000E+01  1.00800000E+00  1.00800000E+00  1.60000000E+01  1.00800000E+00
  1.00800000E+00  1.60000000E+01  1.00800000E+00  1.00800000E+00  1.60000000E+01
  1.00800000E+00  1.00800000E+00  1.60000000E+01  1.00800000E+00  1.00800000E+00
  1.60000000E+01  1.00800000E+00  1.00800000E+00  1.60000000E+01  1.00800000E+00
  1.00800000E+00  1.60000000E+01  1.00800000E+00  1.00800000E+00  1.60000000E+01
  1.00800000E+00  1.00800000E+00  1.60000000E+01  1.00800000E+00  1.00800000E+00
  1.60000000E+01  1.00800000E+00  1.00800000E+00  1.60000000E+01  1.00800000E+00
  1.00800000E+00  1.60000000E+01  1.00800000E+00  1.00800000E+00  1.60000000E+01
  1.00800000E+00  1.00800000E+00  1.60000000E+01  1.00800000E+00  1.00800000E+00
  1.60000000E+01  1.00800000E+00  1.00800000E+00  1.60000000E+01  1.00800000E+00
  1.00800000E+00  1.60000000E+01  1.00800000E+00  1.00800000E+00  1.60000000E+01
  1.00800000E+00  1.00800000E+00  1.60000000E+01  1.00800000E+00  1.00800000E+00
  1.60000000E+01  1.00800000E+00  1.00800000E+00  1.60000000E+01  1.00800000E+00
  1.00800000E+00  1.60000000E+01  1.00800000E+00  1.00800000E+00  1.60000000E+01
  1.00800000E+00  1.00800000E+00  1.60000000E+01  1.00800000E+00  1.00800000E+00
  1.60000000E+01  1.00800000E+00  1.00800000E+00  1.60000000E+01  1.00800000E+00
  1.00800000E+00  1.60000000E+01  1.00800000E+00  1.00800000E+00  1.60000000E+01
  1.00800000E+00  1.00800000E+00  1.60000000E+01  1.00800000E+00  1.00800000E+00
  1.60000000E+01  1.00800000E+00  1.00800000E+00  1.60000000E+01  1.00800000E+00
  1.00800000E+00  1.60000000E+01  1.00800000E+00  1.00800000E+00  1.60000000E+01
  1.00800000E+00  1.00800000E+00  1.60000000E+01  1.00800000E+00  1.00800000E+00
  1.60000000E+01  1.00800000E+00  1.00800000E+00  1.60000000E+01  1.00800000E+00
  1.00800000E+00  1.60000000E+01  1.00800000E+00  1.00800000E+00  1.60000000E+01
  1.00800000E+00  1.00800000E+00  1.60000000E+01  1.00800000E+00  1.00800000E+00
  1.60000000E+01  1.00800000E+00  1.00800000E+00  1.60000000E+01  1.00800000E+00
  1.00800000E+00  1.60000000E+01  1.00800000E+00  1.00800000E+00  1.60000000E+01
  1.00800000E+00  1.00800000E+00  1.60000000E+01  1.00800000E+00  1.00800000E+00
  1.60000000E+01  1.00800000E+00  1.00800000E+00  1.60000000E+01  1.00800000E+00
  1.00800000E+00  1.60000000E+01  1.00800000E+00  1.00800000E+00  1.60000000E+01
  1.00800000E+00  1.00800000E+00  1.60000000E+01  1.00800000E+00  1.00800000E+00
  1.60000000E+01  1.00800000E+00  1.00800000E+00  1.60000000E+01  1.00800000E+00
  1.00800000E+00  1.60000000E+01  1.00800000E+00  1.00800000E+00  1.60000000E+01
  1.00800000E+00  1.00800000E+00  1.60000000E+01  1.00800000E+00  1.00800000E+00
  1.60000000E+01  1.00800000E+00  1.00800000E+00  1.60000000E+01  1.00800000E+00
  1.00800000E+00  1.60000000E+01  1.00800000E+00  1.00800000E+00  1.60000000E+01
  1.00800000E+00  1.00800000E+00  1.60000000E+01  1.00800000E+00  1.00800000E+00
  1.60000000E+01  1.00800000E+00  1.00800000E+00  1.60000000E+01  1.00800000E+00
  1.00800000E+00  1.60000000E+01  1.00800000E+00  1.00800000E+00  1.60000000E+01
  1.00800000E+00  1.00800000E+00  1.60000000E+01  1.00800000E+00  1.00800000E+00
  1.60000000E+01  1.00800000E+00  1.00800000E+00  1.60000000E+01  1.00800000E+00
  1.00800000E+00  1.60000000E+01  1.00800000E+00  1.00800000E+00  1.60000000E+01
  1.00800000E+00  1.00800000E+00  1.60000000E+01  1.00800000E+00  1.00800000E+00
  1.60000000E+01  1.00800000E+00  1.00800000E+00  1.60000000E+01  1.00800000E+00
  1.00800000E+00  1.60000000E+01  1.00800000E+00  1.00800000E+00  1.60000000E+01
  1.00800000E+00  1.00800000E+00  1.60000000E+01  1.00800000E+00  1.00800000E+00
  1.60000000E+01  1.00800000E+00  1.00800000E+00  1.60000000E+01  1.00800000E+00
  1.00800000E+00  1.60000000E+01  1.00800000E+00  1.00800000E+00  1.60000000E+01
  1.00800000E+00  1.00800000E+00  1.60000000E+01  1.00800000E+00  1.00800000E+00
  1.60000000E+01  1.00800000E+00  1.00800000E+00  1.60000000E+01  1.00800000E+00
  1.00800000E+00  1.60000000E+01  1.00800000E+00  1.00800000E+00  1.60000000E+01
  1.00800000E+00  1.00800000E+00  1.60000000E+01  1.00800000E+00  1.00800000E+00
  1.60000000E+01  1.00800000E+00  1.00800000E+00  1.60000000E+01  1.00800000E+00
  1.00800000E+00  1.60000000E+01  1.00800000E+00  1.00800000E+00  1.60000000E+01
  1.00800000E+00  1.00800000E+00  1.60000000E+01  1.00800000E+00  1.00800000E+00
  1.60000000E+01  1.00800000E+00  1.00800000E+00  1.60000000E+01  1.00800000E+00
  1.00800000E+00  1.60000000E+01  1.00800000E+00  1.00800000E+00  1.60000000E+01
  1.00800000E+00  1.00800000E+00  1.60000000E+01  1.00800000E+00  1.00800000E+00
  1.60000000E+01  1.00800000E+00  1.00800000E+00  1.60000000E+01  1.00800000E+00
  1.00800000E+00  1.60000000E+01  1.00800000E+00  1.00800000E+00  1.60000000E+01
  1.00800000E+00  1.00800000E+00  1.60000000E+01  1.00800000E+00  1.00800000E+00
  1.60000000E+01  1.00800000E+00  1.00800000E+00  1.60000000E+01  1.00800000E+00
  1.00800000E+00  1.60000000E+01  1.00800000E+00  1.00800000E+00  1.60000000E+01
  1.00800000E+00  1.00800000E+00  1.60000000E+01  1.00800000E+00  1.00800000E+00
  1.60000000E+01  1.00800000E+00  1.00800000E+00  1.60000000E+01  1.00800000E+00
  1.00800000E+00  1.60000000E+01  1.00800000E+00  1.00800000E+00  1.60000000E+01
  1.00800000E+00  1.00800000E+00  1.60000000E+01  1.00800000E+00  1.00800000E+00
  1.60000000E+01  1.00800000E+00  1.00800000E+00  1.60000000E+01  1.00800000E+00
  1.00800000E+00  1.60000000E+01  1.00800000E+00  1.00800000E+00  1.60000000E+01
  1.00800000E+00  1.00800000E+00  1.60000000E+01  1.00800000E+00  1.00800000E+00
  1.60000000E+01  1.00800000E+00  1.00800000E+00  1.60000000E+01  1.00800000E+00
  1.00800000E+00  1.60000000E+01  1.00800000E+00  1.00800000E+00  1.60000000E+01
  1.00800000E+00  1.00800000E+00  1.60000000E+01  1.00800000E+00  1.00800000E+00
  1.60000000E+01  1.00800000E+00  1.00800000E+00  1.60000000E+01  1.00800000E+00
  1.00800000E+00  1.60000000E+01  1.00800000E+00  1.00800000E+00  1.60000000E+01
  1.00800000E+00  1.00800000E+00  1.60000000E+01  1.00800000E+00  1.00800000E+00
  1.60000000E+01  1.00800000E+00  1.00800000E+00  1.60000000E+01  1.00800000E+00
  1.00800000E+00  1.60000000E+01  1.00800000E+00  1.00800000E+00  1.60000000E+01
  1.00800000E+00  1.00800000E+00  1.60000000E+01  1.00800000E+00  1.00800000E+00
  1.60000000E+01  1.00800000E+00  1.00800000E+00  1.60000000E+01  1.00800000E+00
  1.00800000E+00  1.60000000E+01  1.00800000E+00  1.00800000E+00  1.60000000E+01
  1.00800000E+00  1.00800000E+00  1.60000000E+01  1.00800000E+00  1.00800000E+00
  1.60000000E+01  1.00800000E+00  1.00800000E+00  1.60000000E+01  1.00800000E+00
  1.00800000E+00  1.60000000E+01  1.00800000E+00  1.00800000E+00  1.60000000E+01
  1.00800000E+00  1.00800000E+00  1.60000000E+01  1.00800000E+00  1.00800000E+00
  1.60000000E+01  1.00800000E+00  1.00800000E+00  1.60000000E+01  1.00800000E+00
  1.00800000E+00  1.60000000E+01  1.00800000E+00  1.00800000E+00  1.60000000E+01
  1.00800000E+00  1.00800000E+00  1.60000000E+01  1.00800000E+00  1.00800000E+00
  1.60000000E+01  1.00800000E+00  1.00800000E+00  1.60000000E+01  1.00800000E+00
  1.00800000E+00  1.60000000E+01  1.00800000E+00  1.00800000E+00  1.60000000E+01
  1.00800000E+00  1.00800000E+00  1.60000000E+01  1.00800000E+00  1.00800000E+00
  1.60000000E+01  1.00800000E+00  1.00800000E+00  1.60000000E+01  1.00800000E+00
  1.00800000E+00  1.60000000E+01  1.00800000E+00  1.00800000E+00  1.60000000E+01
  1.00800000E+00  1.00800000E+00  1.60000000E+01  1.00800000E+00  1.00800000E+00
  1.60000000E+01  1.00800000E+00  1.00800000E+00  1.60000000E+01  1.00800000E+00
  1.00800000E+00  1.60000000E+01  1.00800000E+00  1.00800000E+00  1.60000000E+01
  1.00800000E+00  1.00800000E+00  1.60000000E+01  1.00800000E+00  1.00800000E+00
  1.60000000E+01  1.00800000E+00  1.00800000E+00  1.60000000E+01  1.00800000E+00
  1.00800000E+00  1.60000000E+01  1.00800000E+00  1.00800000E+00  1.60000000E+01
  1.00800000E+00  1.00800000E+00  1.60000000E+01  1.00800000E+00  1.00800000E+00
  1.60000000E+01  1.00800000E+00  1.00800000E+00  1.60000000E+01  1.00800000E+00
  1.00800000E+00  1.60000000E+01  1.00800000E+00  1.00800000E+00  1.60000000E+01
  1.00800000E+00  1.00800000E+00  1.60000000E+01  1.00800000E+00  1.00800000E+00
  1.60000000E+01  1.00800000E+00  1.00800000E+00  1.60000000E+01  1.00800000E+00
  1.00800000E+00  1.60000000E+01  1.00800000E+00  1.00800000E+00  1.60000000E+01
  1.00800000E+00  1.00800000E+00  1.60000000E+01  1.00800000E+00  1.00800000E+00
  1.60000000E+01  1.00800000E+00  1.00800000E+00  1.60000000E+01  1.00800000E+00
  1.00800000E+00  1.60000000E+01  1.00800000E+00  1.00800000E+00  1.60000000E+01
  1.00800000E+00  1.00800000E+00  1.60000000E+01  1.00800000E+00  1.00800000E+00
  1.60000000E+01  1.00800000E+00  1.00800000E+00  1.60000000E+01  1.00800000E+00
  1.00800000E+00  1.60000000E+01  1.00800000E+00  1.00800000E+00  1.60000000E+01
  1.00800000E+00  1.00800000E+00  1.60000000E+01  1.00800000E+00  1.00800000E+00
  1.60000000E+01  1.00800000E+00  1.00800000E+00  1.60000000E+01  1.00800000E+00
  1.00800000E+00  1.60000000E+01  1.00800000E+00  1.00800000E+00  1.60000000E+01
  1.00800000E+00  1.00800000E+00  1.60000000E+01  1.00800000E+00  1.00800000E+00
  1.60000000E+01  1.00800000E+00  1.00800000E+00  1.60000000E+01  1.00800000E+00
  1.00800000E+00  1.60000000E+01  1.00800000E+00  1.00800000E+00  1.60000000E+01
  1.00800000E+00  1.00800000E+00  1.60000000E+01  1.00800000E+00  1.00800000E+00
  1.60000000E+01  1.00800000E+00  1.00800000E+00  1.60000000E+01  1.00800000E+00
  1.00800000E+00  1.60000000E+01  1.00800000E+00  1.00800000E+00  1.60000000E+01
  1.00800000E+00  1.00800000E+00  1.60000000E+01  1.00800000E+00  1.00800000E+00
  1.60000000E+01  1.00800000E+00  1.00800000E+00  1.60000000E+01  1.00800000E+00
  1.00800000E+00  1.60000000E+01  1.00800000E+00  1.00800000E+00  1.60000000E+01
  1.00800000E+00  1.00800000E+00  1.60000000E+01  1.00800000E+00  1.00800000E+00
  1.60000000E+01  1.00800000E+00  1.00800000E+00  1.60000000E+01  1.00800000E+00
  1.00800000E+00  1.60000000E+01  1.00800000E+00  1.00800000E+00  1.60000000E+01
  1.00800000E+00  1.00800000E+00  1.60000000E+01  1.00800000E+00  1.00800000E+00
  1.60000000E+01  1.00800000E+00  1.00800000E+00  1.60000000E+01  1.00800000E+00
  1.00800000E+00  1.60000000E+01  1.00800000E+00  1.00800000E+00  1.60000000E+01
  1.00800000E+00  1.00800000E+00  1.60000000E+01  1.00800000E+00  1.00800000E+00
  1.60000000E+01  1.00800000E+00  1.00800000E+00  1.60000000E+01  1.00800000E+00
  1.00800000E+00  1.60000000E+01  1.00800000E+00  1.00800000E+00  1.60000000E+01
  1.00800000E+00  1.00800000E+00  1.60000000E+01  1.00800000E+00  1.00800000E+00
  1.60000000E+01  1.00800000E+00  1.00800000E+00  1.60000000E+01  1.00800000E+00
  1.00800000E+00  1.60000000E+01  1.00800000E+00  1.00800000E+00  1.60000000E+01
  1.00800000E+00  1.00800000E+00  1.60000000E+01  1.00800000E+00  1.00800000E+00
  1.60000000E+01  1.00800000E+00  1.00800000E+00  1.60000000E+01  1.00800000E+00
  1.00800000E+00  1.60000000E+01  1.00800000E+00  1.00800000E+00  1.60000000E+01
  1.00800000E+00  1.00800000E+00  1.60000000E+01  1.00800000E+00  1.00800000E+00
  1.60000000E+01  1.00800000E+00  1.00800000E+00  1.60000000E+01  1.00800000E+00
  1.00800000E+00  1.60000000E+01  1.00800000E+00  1.00800000E+00  1.60000000E+01
  1.00800000E+00  1.00800000E+00  1.60000000E+01  1.00800000E+00  1.00800000E+00
  1.60000000E+01  1.00800000E+00  1.00800000E+00  1.60000000E+01  1.00800000E+00
  1.00800000E+00  1.60000000E+01  1.00800000E+00  1.00800000E+00  1.60000000E+01
  1.00800000E+00  1.00800000E+00  1.60000000E+01  1.00800000E+00  1.00800000E+00
  1.60000000E+01  1.00800000E+00  1.00800000E+00  1.60000000E+01  1.00800000E+00
  1.00800000E+00  1.60000000E+01  1.00800000E+00  1.00800000E+00  1.60000000E+01
  1.00800000E+00  1.00800000E+00  1.60000000E+01  1.00800000E+00  1.00800000E+00
  1.60000000E+01  1.00800000E+00  1.00800000E+00  1.60000000E+01  1.00800000E+00
  1.00800000E+00  1.60000000E+01  1.00800000E+00  1.00800000E+00  1.60000000E+01
  1.00800000E+00  1.00800000E+00  1.60000000E+01  1.00800000E+00  1.00800000E+00
  1.60000000E+01  1.00800000E+00  1.00800000E+00  1.60000000E+01  1.00800000E+00
  1.00800000E+00  1.60000000E+01  1.00800000E+00  1.00800000E+00  1.60000000E+01
  1.00800000E+00  1.00800000E+00  1.60000000E+01  1.00800000E+00  1.00800000E+00
  1.60000000E+01  1.00800000E+00  1.00800000E+00  1.60000000E+01  1.00800000E+00
  1.00800000E+00  1.60000000E+01  1.00800000E+00  1.00800000E+00  1.60000000E+01
  1.00800000E+00  1.00800000E+00  1.60000000E+01  1.00800000E+00  1.00800000E+00
  1.60000000E+01  1.00800000E+00  1.00800000E+00  1.60000000E+01  1.00800000E+00
  1.00800000E+00  1.60000000E+01  1.00800000E+00  1.00800000E+00  1.60000000E+01
  1.00800000E+00  1.00800000E+00  1.60000000E+01  1.00800000E+00  1.00800000E+00
  1.60000000E+01  1.00800000E+00  1.00800000E+00  1.60000000E+01  1.00800000E+00
  1.00800000E+00  1.60000000E+01  1.00800000E+00  1.00800000E+00  1.60000000E+01
  1.00800000E+00  1.00800000E+00  1.60000000E+01  1.00800000E+00  1.00800000E+00
  1.60000000E+01  1.00800000E+00  1.00800000E+00  1.60000000E+01  1.00800000E+00
  1.00800000E+00  1.60000000E+01  1.00800000E+00  1.00800000E+00  1.60000000E+01
  1.00800000E+00  1.00800000E+00  1.60000000E+01  1.00800000E+00  1.00800000E+00
  1.60000000E+01  1.00800000E+00  1.00800000E+00  1.60000000E+01  1.00800000E+00
  1.00800000E+00  1.60000000E+01  1.00800000E+00  1.00800000E+00  1.60000000E+01
  1.00800000E+00  1.00800000E+00  1.60000000E+01  1.00800000E+00  1.00800000E+00
  1.60000000E+01  1.00800000E+00  1.00800000E+00  1.60000000E+01  1.00800000E+00
  1.00800000E+00  1.60000000E+01  1.00800000E+00  1.00800000E+00  1.60000000E+01
  1.00800000E+00  1.00800000E+00  1.60000000E+01  1.00800000E+00  1.00800000E+00
  1.60000000E+01  1.00800000E+00  1.00800000E+00  1.60000000E+01  1.00800000E+00
  1.00800000E+00  1.60000000E+01  1.00800000E+00  1.00800000E+00  1.60000000E+01
  1.00800000E+00  1.00800000E+00  1.60000000E+01  1.00800000E+00  1.00800000E+00
  1.60000000E+01  1.00800000E+00  1.00800000E+00  1.60000000E+01  1.00800000E+00
  1.00800000E+00  1.60000000E+01  1.00800000E+00  1.00800000E+00  1.60000000E+01
  1.00800000E+00  1.00800000E+00  1.60000000E+01  1.00800000E+00  1.00800000E+00
  1.60000000E+01  1.00800000E+00  1.00800000E+00  1.60000000E+01  1.00800000E+00
  1.00800000E+00  1.60000000E+01  1.00800000E+00  1.00800000E+00  1.60000000E+01
  1.00800000E+00  1.00800000E+00  1.60000000E+01  1.00800000E+00  1.00800000E+00
  1.60000000E+01  1.00800000E+00  1.00800000E+00  1.60000000E+01  1.00800000E+00
  1.00800000E+00  1.60000000E+01  1.00800000E+00  1.00800000E+00  1.60000000E+01
  1.00800000E+00  1.00800000E+00  1.60000000E+01  1.00800000E+00  1.00800000E+00
  1.60000000E+01  1.00800000E+00  1.00800000E+00  1.60000000E+01  1.00800000E+00
  1.00800000E+00  1.60000000E+01  1.00800000E+00  1.00800000E+00  1.60000000E+01
  1.00800000E+00  1.00800000E+00  1.60000000E+01  1.00800000E+00  1.00800000E+00
  1.60000000E+01  1.00800000E+00  1.00800000E+00  1.60000000E+01  1.00800000E+00
  1.00800000E+00  1.60000000E+01  1.00800000E+00  1.00800000E+00  1.60000000E+01
  1.00800000E+00  1.00800000E+00  1.60000000E+01  1.00800000E+00  1.00800000E+00
  1.60000000E+01  1.00800000E+00  1.00800000E+00  1.60000000E+01  1.00800000E+00
  1.00800000E+00  1.60000000E+01  1.00800000E+00  1.00800000E+00  1.60000000E+01
  1.00800000E+00  1.00800000E+00  1.60000000E+01  1.00800000E+00  1.00800000E+00
  1.60000000E+01  1.00800000E+00  1.00800000E+00  1.60000000E+01  1.00800000E+00
  1.00800000E+00  1.60000000E+01  1.00800000E+00  1.00800000E+00  1.60000000E+01
  1.00800000E+00  1.00800000E+00  1.60000000E+01  1.00800000E+00  1.00800000E+00
  1.60000000E+01  1.00800000E+00  1.00800000E+00  1.60000000E+01  1.00800000E+00
  1.00800000E+00  1.60000000E+01  1.00800000E+00  1.00800000E+00  1.60000000E+01
  1.00800000E+00  1.00800000E+00  1.60000000E+01  1.00800000E+00  1.00800000E+00
  1.60000000E+01  1.00800000E+00  1.00800000E+00  1.60000000E+01  1.00800000E+00
  1.00800000E+00  1.60000000E+01  1.00800000E+00  1.00800000E+00  1.60000000E+01
  1.00800000E+00  1.00800000E+00  1.60000000E+01  1.00800000E+00  1.00800000E+00
  1.60000000E+01  1.00800000E+00  1.00800000E+00  1.60000000E+01  1.00800000E+00
  1.00800000E+00  1.60000000E+01  1.00800000E+00  1.00800000E+00  1.60000000E+01
  1.00800000E+00  1.00800000E+00  1.60000000E+01  1.00800000E+00  1.00800000E+00
  1.60000000E+01  1.00800000E+00  1.00800000E+00  1.60000000E+01  1.00800000E+00
  1.00800000E+00  1.60000000E+01  1.00800000E+00  1.00800000E+00  1.60000000E+01
  1.00800000E+00  1.00800000E+00  1.60000000E+01  1.00800000E+00  1.00800000E+00
  1.60000000E+01  1.00800000E+00  1.00800000E+00  1.60000000E+01  1.00800000E+00
  1.00800000E+00  1.60000000E+01  1.00800000E+00  1.00800000E+00  1.60000000E+01
  1.00800000E+00  1.00800000E+00  1.60000000E+01  1.00800000E+00  1.00800000E+00
  1.60000000E+01  1.00800000E+00  1.00800000E+00  1.60000000E+01  1.00800000E+00
  1.00800000E+00  1.60000000E+01  1.00800000E+00  1.00800000E+00  1.60000000E+01
  1.00800000E+00  1.00800000E+00  1.60000000E+01  1.00800000E+00  1.00800000E+00
  1.60000000E+01  1.00800000E+00  1.00800000E+00  1.60000000E+01  1.00800000E+00
  1.00800000E+00  1.60000000E+01  1.00800000E+00  1.00800000E+00  1.60000000E+01
  1.00800000E+00  1.00800000E+00  1.60000000E+01  1.00800000E+00  1.00800000E+00
  1.60000000E+01  1.00800000E+00  1.00800000E+00  1.60000000E+01  1.00800000E+00
  1.00800000E+00  1.60000000E+01  1.00800000E+00  1.00800000E+00  1.60000000E+01
  1.00800000E+00  1.00800000E+00  1.60000000E+01  1.00800000E+00  1.00800000E+00
  1.60000000E+01  1.00800000E+00  1.00800000E+00  1.60000000E+01  1.00800000E+00
  1.00800000E+00  1.60000000E+01  1.00800000E+00  1.00800000E+00  1.60000000E+01
  1.00800000E+00  1.00800000E+00  1.60000000E+01  1.00800000E+00  1.00800000E+00
  1.60000000E+01  1.00800000E+00  1.00800000E+00  1.60000000E+01  1.00800000E+00
  1.00800000E+00  1.60000000E+01  1.00800000E+00  1.00800000E+00  1.60000000E+01
  1.00800000E+00  1.00800000E+00  1.60000000E+01  1.00800000E+00  1.00800000E+00
  1.60000000E+01  1.00800000E+00  1.00800000E+00  1.60000000E+01  1.00800000E+00
  1.00800000E+00  1.60000000E+01  1.00800000E+00  1.00800000E+00  1.60000000E+01
  1.00800000E+00  1.00800000E+00  1.60000000E+01  1.00800000E+00  1.00800000E+00
  1.60000000E+01  1.00800000E+00  1.00800000E+00  1.60000000E+01  1.00800000E+00
  1.00800000E+00  1.60000000E+01  1.00800000E+00  1.00800000E+00  1.60000000E+01
  1.00800000E+00  1.00800000E+00  1.60000000E+01  1.00800000E+00  1.00800000E+00
  1.60000000E+01  1.00800000E+00  1.00800000E+00  1.60000000E+01  1.00800000E+00
  1.00800000E+00  1.60000000E+01  1.00800000E+00  1.00800000E+00  1.60000000E+01
  1.00800000E+00  1.00800000E+00  1.60000000E+01  1.00800000E+00  1.00800000E+00
  1.60000000E+01  1.00800000E+00  1.00800000E+00  1.60000000E+01  1.00800000E+00
  1.00800000E+00  1.60000000E+01  1.00800000E+00  1.00800000E+00  1.60000000E+01
  1.00800000E+00  1.00800000E+00  1.60000000E+01  1.00800000E+00  1.00800000E+00
  1.60000000E+01  1.00800000E+00  1.00800000E+00  1.60000000E+01  1.00800000E+00
  1.00800000E+00  1.60000000E+01  1.00800000E+00  1.00800000E+00  1.60000000E+01
  1.00800000E+00  1.00800000E+00  1.60000000E+01  1.00800000E+00  1.00800000E+00
  1.60000000E+01  1.00800000E+00  1.00800000E+00  1.60000000E+01  1.00800000E+00
  1.00800000E+00  1.60000000E+01  1.00800000E+00  1.00800000E+00  1.60000000E+01
  1.00800000E+00  1.00800000E+00  1.60000000E+01  1.00800000E+00  1.00800000E+00
  1.60000000E+01  1.00800000E+00  1.00800000E+00  1.60000000E+01  1.00800000E+00
  1.00800000E+00  1.60000000E+01  1.00800000E+00  1.00800000E+00  1.60000000E+01
  1.00800000E+00  1.00800000E+00  1.60000000E+01  1.00800000E+00  1.00800000E+00
  1.60000000E+01  1.00800000E+00  1.00800000E+00  1.60000000E+01  1.00800000E+00
  1.00800000E+00  1.60000000E+01  1.00800000E+00  1.00800000E+00  1.60000000E+01
  1.00800000E+00  1.00800000E+00  1.60000000E+01  1.00800000E+00  1.00800000E+00
  1.60000000E+01  1.00800000E+00  1.00800000E+00  1.60000000E+01  1.00800000E+00
  1.00800000E+00  1.60000000E+01  1.00800000E+00  1.00800000E+00  1.60000000E+01
  1.00800000E+00  1.00800000E+00  1.60000000E+01  1.00800000E+00  1.00800000E+00
  1.60000000E+01  1.00800000E+00  1.00800000E+00  1.60000000E+01  1.00800000E+00
  1.00800000E+00  1.60000000E+01  1.00800000E+00  1.00800000E+00  1.60000000E+01
  1.00800000E+00  1.00800000E+00  1.60000000E+01  1.00800000E+00  1.00800000E+00
  1.60000000E+01  1.00800000E+00  1.00800000E+00  1.60000000E+01  1.00800000E+00
  1.00800000E+00  1.60000000E+01  1.00800000E+00  1.00800000E+00  1.60000000E+01
  1.00800000E+00  1.00800000E+00  1.60000000E+01  1.00800000E+00  1.00800000E+00
  1.60000000E+01  1.00800000E+00  1.00800000E+00  1.60000000E+01  1.00800000E+00
  1.00800000E+00  1.60000000E+01  1.00800000E+00  1.00800000E+00  1.60000000E+01
  1.00800000E+00  1.00800000E+00  1.60000000E+01  1.00800000E+00  1.00800000E+00
  1.60000000E+01  1.00800000E+00  1.00800000E+00  1.60000000E+01  1.00800000E+00
  1.00800000E+00  1.60000000E+01  1.00800000E+00  1.00800000E+00  1.60000000E+01
  1.00800000E+00  1.00800000E+00  1.60000000E+01  1.00800000E+00  1.00800000E+00
  1.60000000E+01  1.00800000E+00  1.00800000E+00  1.60000000E+01  1.00800000E+00
  1.00800000E+00  1.60000000E+01  1.00800000E+00  1.00800000E+00  1.60000000E+01
  1.00800000E+00  1.00800000E+00  1.60000000E+01  1.00800000E+00  1.00800000E+00
  1.60000000E+01  1.00800000E+00  1.00800000E+00  1.60000000E+01  1.00800000E+00
  1.00800000E+00  1.60000000E+01  1.00800000E+00  1.00800000E+00  1.60000000E+01
  1.00800000E+00  1.00800000E+00  1.60000000E+01  1.00800000E+00  1.00800000E+00
  1.60000000E+01  1.00800000E+00  1.00800000E+00  1.60000000E+01  1.00800000E+00
  1.00800000E+00  1.60000000E+01  1.00800000E+00  1.00800000E+00  1.60000000E+01
  1.00800000E+00  1.00800000E+00  1.60000000E+01  1.00800000E+00  1.00800000E+00
  1.60000000E+01  1.00800000E+00  1.00800000E+00  1.60000000E+01  1.00800000E+00
  1.00800000E+00  1.60000000E+01  1.00800000E+00  1.00800000E+00  1.60000000E+01
  1.00800000E+00  1.00800000E+00  1.60000000E+01  1.00800000E+00  1.00800000E+00
  1.60000000E+01  1.00800000E+00  1.00800000E+00  1.60000000E+01  1.00800000E+00
  1.00800000E+00  1.60000000E+01  1.00800000E+00  1.00800000E+00  1.60000000E+01
  1.00800000E+00  1.00800000E+00  1.60000000E+01  1.00800000E+00  1.00800000E+00
  1.60000000E+01  1.00800000E+00  1.00800000E+00  1.60000000E+01  1.00800000E+00
  1.00800000E+00  1.60000000E+01  1.00800000E+00  1.00800000E+00  1.60000000E+01
  1.00800000E+00  1.00800000E+00  1.60000000E+01  1.00800000E+00  1.00800000E+00
  1.60000000E+01  1.00800000E+00  1.00800000E+00  1.60000000E+01  1.00800000E+00
  1.00800000E+00  1.60000000E+01  1.00800000E+00  1.00800000E+00  1.60000000E+01
  1.00800000E+00  1.00800000E+00  1.60000000E+01  1.00800000E+00  1.00800000E+00
  1.60000000E+01  1.00800000E+00  1.00800000E+00  1.60000000E+01  1.00800000E+00
  1.00800000E+00  1.60000000E+01  1.00800000E+00  1.00800000E+00  1.60000000E+01
  1.00800000E+00  1.00800000E+00  1.60000000E+01  1.00800000E+00  1.00800000E+00
  1.60000000E+01  1.00800000E+00  1.00800000E+00  1.60000000E+01  1.00800000E+00
  1.00800000E+00  1.60000000E+01  1.00800000E+00  1.00800000E+00  1.60000000E+01
  1.00800000E+00  1.00800000E+00  1.60000000E+01  1.00800000E+00  1.00800000E+00
  1.60000000E+01  1.00800000E+00  1.00800000E+00  1.60000000E+01  1.00800000E+00
  1.00800000E+00  1.60000000E+01  1.00800000E+00  1.00800000E+00  1.60000000E+01
  1.00800000E+00  1.00800000E+00  1.60000000E+01  1.00800000E+00  1.00800000E+00
  1.60000000E+01  1.00800000E+00  1.00800000E+00  1.60000000E+01  1.00800000E+00
  1.00800000E+00  1.60000000E+01  1.00800000E+00  1.00800000E+00  1.60000000E+01
  1.00800000E+00  1.00800000E+00  1.60000000E+01  1.00800000E+00  1.00800000E+00
  1.60000000E+01  1.00800000E+00  1.00800000E+00  1.60000000E+01  1.00800000E+00
  1.00800000E+00  1.60000000E+01  1.00800000E+00  1.00800000E+00  1.60000000E+01
  1.00800000E+00  1.00800000E+00  1.60000000E+01  1.00800000E+00  1.00800000E+00
  1.60000000E+01  1.00800000E+00  1.00800000E+00  1.60000000E+01  1.00800000E+00
  1.00800000E+00  1.60000000E+01  1.00800000E+00  1.00800000E+00  1.60000000E+01
  1.00800000E+00  1.00800000E+00  1.60000000E+01  1.00800000E+00  1.00800000E+00
  1.60000000E+01  1.00800000E+00  1.00800000E+00  1.60000000E+01  1.00800000E+00
  1.00800000E+00  1.60000000E+01  1.00800000E+00  1.00800000E+00  1.60000000E+01
  1.00800000E+00  1.00800000E+00  1.60000000E+01  1.00800000E+00  1.00800000E+00
  1.60000000E+01  1.00800000E+00  1.00800000E+00  1.60000000E+01  1.00800000E+00
  1.00800000E+00  1.60000000E+01  1.00800000E+00  1.00800000E+00  1.60000000E+01
  1.00800000E+00  1.00800000E+00  1.60000000E+01  1.00800000E+00  1.00800000E+00
  1.60000000E+01  1.00800000E+00  1.00800000E+00  1.60000000E+01  1.00800000E+00
  1.00800000E+00  1.60000000E+01  1.00800000E+00  1.00800000E+00  1.60000000E+01
  1.00800000E+00  1.00800000E+00  1.60000000E+01  1.00800000E+00  1.00800000E+00
  1.60000000E+01  1.00800000E+00  1.00800000E+00  1.60000000E+01  1.00800000E+00
  1.00800000E+00  1.60000000E+01  1.00800000E+00  1.00800000E+00  1.60000000E+01
  1.00800000E+00  1.00800000E+00  1.60000000E+01  1.00800000E+00  1.00800000E+00
  1.60000000E+01  1.00800000E+00  1.00800000E+00  1.60000000E+01  1.00800000E+00
  1.00800000E+00  1.60000000E+01  1.00800000E+00  1.00800000E+00  1.60000000E+01
  1.00800000E+00  1.00800000E+00  1.60000000E+01  1.00800000E+00  1.00800000E+00
  1.60000000E+01  1.00800000E+00  1.00800000E+00  1.60000000E+01  1.00800000E+00
  1.00800000E+00  1.60000000E+01  1.00800000E+00  1.00800000E+00  1.60000000E+01
  1.00800000E+00  1.00800000E+00  1.60000000E+01  1.00800000E+00  1.00800000E+00
  1.60000000E+01  1.00800000E+00  1.00800000E+00  1.60000000E+01  1.00800000E+00
  1.00800000E+00  1.60000000E+01  1.00800000E+00  1.00800000E+00  1.60000000E+01
  1.00800000E+00  1.00800000E+00  1.60000000E+01  1.00800000E+00  1.00800000E+00
  1.60000000E+01  1.00800000E+00  1.00800000E+00  1.60000000E+01  1.00800000E+00
  1.00800000E+00  1.60000000E+01  1.00800000E+00  1.00800000E+00  1.60000000E+01
  1.00800000E+00  1.00800000E+00  1.60000000E+01  1.00800000E+00  1.00800000E+00
  1.60000000E+01  1.00800000E+00  1.00800000E+00  1.60000000E+01  1.00800000E+00
  1.00800000E+00  1.60000000E+01  1.00800000E+00  1.00800000E+00  1.60000000E+01
  1.00800000E+00  1.00800000E+00  1.60000000E+01  1.00800000E+00  1.00800000E+00
  1.60000000E+01  1.00800000E+00  1.00800000E+00  1.60000000E+01  1.00800000E+00
  1.00800000E+00  1.60000000E+01  1.00800000E+00  1.00800000E+00  1.60000000E+01
  1.00800000E+00  1.00800000E+00  1.60000000E+01  1.00800000E+00  1.00800000E+00
  1.60000000E+01  1.00800000E+00  1.00800000E+00  1.60000000E+01  1.00800000E+00
  1.00800000E+00  1.60000000E+01  1.00800000E+00  1.00800000E+00  1.60000000E+01
  1.00800000E+00  1.00800000E+00  1.60000000E+01  1.00800000E+00  1.00800000E+00
  1.60000000E+01  1.00800000E+00  1.00800000E+00  1.60000000E+01  1.00800000E+00
  1.00800000E+00  1.60000000E+01  1.00800000E+00  1.00800000E+00  1.60000000E+01
  1.00800000E+00  1.00800000E+00  1.60000000E+01  1.00800000E+00  1.00800000E+00
  1.60000000E+01  1.00800000E+00  1.00800000E+00  1.60000000E+01  1.00800000E+00
  1.00800000E+00  1.60000000E+01  1.00800000E+00  1.00800000E+00  1.60000000E+01
  1.00800000E+00  1.00800000E+00  1.60000000E+01  1.00800000E+00  1.00800000E+00
  1.60000000E+01  1.00800000E+00  1.00800000E+00  1.60000000E+01  1.00800000E+00
  1.00800000E+00  1.60000000E+01  1.00800000E+00  1.00800000E+00  1.60000000E+01
  1.00800000E+00  1.00800000E+00  1.60000000E+01  1.00800000E+00  1.00800000E+00
  1.60000000E+01  1.00800000E+00  1.00800000E+00  1.60000000E+01  1.00800000E+00
  1.00800000E+00  1.60000000E+01  1.00800000E+00  1.00800000E+00  1.60000000E+01
  1.00800000E+00  1.00800000E+00  1.60000000E+01  1.00800000E+00  1.00800000E+00
  1.60000000E+01  1.00800000E+00  1.00800000E+00  1.60000000E+01  1.00800000E+00
  1.00800000E+00  1.60000000E+01  1.00800000E+00  1.00800000E+00  1.60000000E+01
  1.00800000E+00  1.00800000E+00  1.60000000E+01  1.00800000E+00  1.00800000E+00
  1.60000000E+01  1.00800000E+00  1.00800000E+00  1.60000000E+01  1.00800000E+00
  1.00800000E+00  1.60000000E+01  1.00800000E+00  1.00800000E+00  1.60000000E+01
  1.00800000E+00  1.00800000E+00  1.60000000E+01  1.00800000E+00  1.00800000E+00
  1.60000000E+01  1.00800000E+00  1.00800000E+00  1.60000000E+01  1.00800000E+00
  1.00800000E+00  1.60000000E+01  1.00800000E+00  1.00800000E+00  1.60000000E+01
  1.00800000E+00  1.00800000E+00  1.60000000E+01  1.00800000E+00  1.00800000E+00
  1.60000000E+01  1.00800000E+00  1.00800000E+00  1.60000000E+01  1.00800000E+00
  1.00800000E+00  1.60000000E+01  1.00800000E+00  1.00800000E+00  1.60000000E+01
  1.00800000E+00  1.00800000E+00  1.60000000E+01  1.00800000E+00  1.00800000E+00
  1.60000000E+01  1.00800000E+00  1.00800000E+00  1.60000000E+01  1.00800000E+00
  1.00800000E+00  1.60000000E+01  1.00800000E+00  1.00800000E+00  1.60000000E+01
  1.00800000E+00  1.00800000E+00  1.60000000E+01  1.00800000E+00  1.00800000E+00
  1.60000000E+01  1.00800000E+00  1.00800000E+00  1.60000000E+01  1.00800000E+00
  1.00800000E+00  1.60000000E+01  1.00800000E+00  1.00800000E+00  1.60000000E+01
  1.00800000E+00  1.00800000E+00  1.60000000E+01  1.00800000E+00  1.00800000E+00
  1.60000000E+01  1.00800000E+00  1.00800000E+00  1.60000000E+01  1.00800000E+00
  1.00800000E+00  1.60000000E+01  1.00800000E+00  1.00800000E+00  1.60000000E+01
  1.00800000E+00  1.00800000E+00  1.60000000E+01  1.00800000E+00  1.00800000E+00
  1.60000000E+01  1.00800000E+00  1.00800000E+00  1.60000000E+01  1.00800000E+00
  1.00800000E+00  1.60000000E+01  1.00800000E+00  1.00800000E+00  1.60000000E+01
  1.00800000E+00  1.00800000E+00  1.60000000E+01  1.00800000E+00  1.00800000E+00
  1.60000000E+01  1.00800000E+00  1.00800000E+00  1.60000000E+01  1.00800000E+00
  1.00800000E+00  1.60000000E+01  1.00800000E+00  1.00800000E+00  1.60000000E+01
  1.00800000E+00  1.00800000E+00  1.60000000E+01  1.00800000E+00  1.00800000E+00
  1.60000000E+01  1.00800000E+00  1.00800000E+00  1.60000000E+01  1.00800000E+00
  1.00800000E+00  1.60000000E+01  1.00800000E+00  1.00800000E+00  1.60000000E+01
  1.00800000E+00  1.00800000E+00  1.60000000E+01  1.00800000E+00  1.00800000E+00
  1.60000000E+01  1.00800000E+00  1.00800000E+00  1.60000000E+01  1.00800000E+00
  1.00800000E+00  1.60000000E+01  1.00800000E+00  1.00800000E+00  1.60000000E+01
  1.00800000E+00  1.00800000E+00  1.60000000E+01  1.00800000E+00  1.00800000E+00
  1.60000000E+01  1.00800000E+00  1.00800000E+00  1.60000000E+01  1.00800000E+00
  1.00800000E+00  1.60000000E+01  1.00800000E+00  1.00800000E+00  1.60000000E+01
  1.00800000E+00  1.00800000E+00  1.60000000E+01  1.00800000E+00  1.00800000E+00
  1.60000000E+01  1.00800000E+00  1.00800000E+00  1.60000000E+01  1.00800000E+00
  1.00800000E+00  1.60000000E+01  1.00800000E+00  1.00800000E+00  1.60000000E+01
  1.00800000E+00  1.00800000E+00  1.60000000E+01  1.00800000E+00  1.00800000E+00
  1.60000000E+01  1.00800000E+00  1.00800000E+00  1.60000000E+01  1.00800000E+00
  1.00800000E+00  1.60000000E+01  1.00800000E+00  1.00800000E+00  1.60000000E+01
  1.00800000E+00  1.00800000E+00  1.60000000E+01  1.00800000E+00  1.00800000E+00
  1.60000000E+01  1.00800000E+00  1.00800000E+00  1.60000000E+01  1.00800000E+00
  1.00800000E+00  1.60000000E+01  1.00800000E+00  1.00800000E+00  1.60000000E+01
  1.00800000E+00  1.00800000E+00  1.60000000E+01  1.00800000E+00  1.00800000E+00
  1.60000000E+01  1.00800000E+00  1.00800000E+00  1.60000000E+01  1.00800000E+00
  1.00800000E+00  1.60000000E+01  1.00800000E+00  1.00800000E+00  1.60000000E+01
  1.00800000E+00  1.00800000E+00  1.60000000E+01  1.00800000E+00  1.00800000E+00
  1.60000000E+01  1.00800000E+00  1.00800000E+00  1.60000000E+01  1.00800000E+00
  1.00800000E+00  1.60000000E+01  1.00800000E+00  1.00800000E+00  1.60000000E+01
  1.00800000E+00  1.00800000E+00  1.60000000E+01  1.00800000E+00  1.00800000E+00
  1.60000000E+01  1.00800000E+00  1.00800000E+00  1.60000000E+01  1.00800000E+00
  1.00800000E+00  1.60000000E+01  1.00800000E+00  1.00800000E+00  1.60000000E+01
  1.00800000E+00  1.00800000E+00  1.60000000E+01  1.00800000E+00  1.00800000E+00
  1.60000000E+01  1.00800000E+00  1.00800000E+00  1.60000000E+01  1.00800000E+00
  1.00800000E+00  1.60000000E+01  1.00800000E+00  1.00800000E+00  1.60000000E+01
  1.00800000E+00  1.00800000E+00  1.60000000E+01  1.00800000E+00  1.00800000E+00
  1.60000000E+01  1.00800000E+00  1.00800000E+00  1.60000000E+01  1.00800000E+00
  1.00800000E+00  1.60000000E+01  1.00800000E+00  1.00800000E+00  1.60000000E+01
  1.00800000E+00  1.00800000E+00  1.60000000E+01  1.00800000E+00  1.00800000E+00
  1.60000000E+01  1.00800000E+00  1.00800000E+00  1.60000000E+01  1.00800000E+00
  1.00800000E+00  1.60000000E+01  1.00800000E+00  1.00800000E+00  1.60000000E+01
  1.00800000E+00  1.00800000E+00  1.60000000E+01  1.00800000E+00  1.00800000E+00
  1.60000000E+01  1.00800000E+00  1.00800000E+00  1.60000000E+01  1.00800000E+00
  1.00800000E+00  1.60000000E+01  1.00800000E+00  1.00800000E+00  1.60000000E+01
  1.00800000E+00  1.00800000E+00  1.60000000E+01  1.00800000E+00  1.00800000E+00
  1.60000000E+01  1.00800000E+00  1.00800000E+00  1.60000000E+01  1.00800000E+00
  1.00800000E+00  1.60000000E+01  1.00800000E+00  1.00800000E+00  1.60000000E+01
  1.00800000E+00  1.00800000E+00  1.60000000E+01  1.00800000E+00  1.00800000E+00
  1.60000000E+01  1.00800000E+00  1.00800000E+00  1.60000000E+01  1.00800000E+00
  1.00800000E+00  1.60000000E+01  1.00800000E+00  1.00800000E+00  1.60000000E+01
  1.00800000E+00  1.00800000E+00  1.60000000E+01  1.00800000E+00  1.00800000E+00
  1.60000000E+01  1.00800000E+00  1.00800000E+00  1.60000000E+01  1.00800000E+00
  1.00800000E+00  1.60000000E+01  1.00800000E+00  1.00800000E+00  1.60000000E+01
  1.00800000E+00  1.00800000E+00  1.60000000E+01  1.00800000E+00  1.00800000E+00
  1.60000000E+01  1.00800000E+00  1.00800000E+00  1.60000000E+01  1.00800000E+00
  1.00800000E+00  1.60000000E+01  1.00800000E+00  1.00800000E+00  1.60000000E+01
  1.00800000E+00  1.00800000E+00  1.60000000E+01  1.00800000E+00  1.00800000E+00
  1.60000000E+01  1.00800000E+00  1.00800000E+00  1.60000000E+01  1.00800000E+00
  1.00800000E+00  1.60000000E+01  1.00800000E+00  1.00800000E+00  1.60000000E+01
  1.00800000E+00  1.00800000E+00  1.60000000E+01  1.00800000E+00  1.00800000E+00
  1.60000000E+01  1.00800000E+00  1.00800000E+00  1.60000000E+01  1.00800000E+00
  1.00800000E+00  1.60000000E+01  1.00800000E+00  1.00800000E+00  1.60000000E+01
  1.00800000E+00  1.00800000E+00  1.60000000E+01  1.00800000E+00  1.00800000E+00
  1.60000000E+01  1.00800000E+00  1.00800000E+00  1.60000000E+01  1.00800000E+00
  1.00800000E+00  1.60000000E+01  1.00800000E+00  1.00800000E+00  1.60000000E+01
  1.00800000E+00  1.00800000E+00  1.60000000E+01  1.00800000E+00  1.00800000E+00
  1.60000000E+01  1.00800000E+00  1.00800000E+00  1.60000000E+01  1.00800000E+00
  1.00800000E+00  1.60000000E+01  1.00800000E+00  1.00800000E+00  1.60000000E+01
  1.00800000E+00  1.00800000E+00  1.60000000E+01  1.00800000E+00  1.00800000E+00
  1.60000000E+01  1.00800000E+00  1.00800000E+00  1.60000000E+01  1.00800000E+00
  1.00800000E+00  1.60000000E+01  1.00800000E+00  1.00800000E+00  1.60000000E+01
  1.00800000E+00  1.00800000E+00  1.60000000E+01  1.00800000E+00  1.00800000E+00
  1.60000000E+01  1.00800000E+00  1.00800000E+00  1.60000000E+01  1.00800000E+00
  1.00800000E+00  1.60000000E+01  1.00800000E+00  1.00800000E+00  1.60000000E+01
  1.00800000E+00  1.00800000E+00  1.60000000E+01  1.00800000E+00  1.00800000E+00
  1.60000000E+01  1.00800000E+00  1.00800000E+00  1.60000000E+01  1.00800000E+00
  1.00800000E+00  1.60000000E+01  1.00800000E+00  1.00800000E+00  1.60000000E+01
  1.00800000E+00  1.00800000E+00  1.60000000E+01  1.00800000E+00  1.00800000E+00
  1.60000000E+01  1.00800000E+00  1.00800000E+00  1.60000000E+01  1.00800000E+00
  1.00800000E+00  1.60000000E+01  1.00800000E+00  1.00800000E+00  1.60000000E+01
  1.00800000E+00  1.00800000E+00  1.60000000E+01  1.00800000E+00  1.00800000E+00
  1.60000000E+01  1.00800000E+00  1.00800000E+00  1.60000000E+01  1.00800000E+00
  1.00800000E+00  1.60000000E+01  1.00800000E+00  1.00800000E+00  1.60000000E+01
  1.00800000E+00  1.00800000E+00  1.60000000E+01  1.00800000E+00  1.00800000E+00
  1.60000000E+01  1.00800000E+00  1.00800000E+00  1.60000000E+01  1.00800000E+00
  1.00800000E+00  1.60000000E+01  1.00800000E+00  1.00800000E+00  1.60000000E+01
  1.00800000E+00  1.00800000E+00  1.60000000E+01  1.00800000E+00  1.00800000E+00
  1.60000000E+01  1.00800000E+00  1.00800000E+00  1.60000000E+01  1.00800000E+00
  1.00800000E+00  1.60000000E+01  1.00800000E+00  1.00800000E+00  1.60000000E+01
  1.00800000E+00  1.00800000E+00  1.60000000E+01  1.00800000E+00  1.00800000E+00
  1.60000000E+01  1.00800000E+00  1.00800000E+00  1.60000000E+01  1.00800000E+00
  1.00800000E+00  1.60000000E+01  1.00800000E+00  1.00800000E+00  1.60000000E+01
  1.00800000E+00  1.00800000E+00  1.60000000E+01  1.00800000E+00  1.00800000E+00
  1.60000000E+01  1.00800000E+00  1.00800000E+00  1.60000000E+01  1.00800000E+00
  1.00800000E+00  1.60000000E+01  1.00800000E+00  1.00800000E+00  1.60000000E+01
  1.00800000E+00  1.00800000E+00  1.60000000E+01  1.00800000E+00  1.00800000E+00
  1.60000000E+01  1.00800000E+00  1.00800000E+00  1.60000000E+01  1.00800000E+00
  1.00800000E+00  1.60000000E+01  1.00800000E+00  1.00800000E+00  1.60000000E+01
  1.00800000E+00  1.00800000E+00  1.60000000E+01  1.00800000E+00  1.00800000E+00
  1.60000000E+01  1.00800000E+00  1.00800000E+00  1.60000000E+01  1.00800000E+00
  1.00800000E+00  1.60000000E+01  1.00800000E+00  1.00800000E+00  1.60000000E+01
  1.00800000E+00  1.00800000E+00  1.60000000E+01  1.00800000E+00  1.00800000E+00
  1.60000000E+01  1.00800000E+00  1.00800000E+00  1.60000000E+01  1.00800000E+00
  1.00800000E+00  1.60000000E+01  1.00800000E+00  1.00800000E+00  1.60000000E+01
  1.00800000E+00  1.00800000E+00  1.60000000E+01  1.00800000E+00  1.00800000E+00
  1.60000000E+01  1.00800000E+00  1.00800000E+00  1.60000000E+01  1.00800000E+00
  1.00800000E+00  1.60000000E+01  1.00800000E+00  1.00800000E+00  1.60000000E+01
  1.00800000E+00  1.00800000E+00  1.60000000E+01  1.00800000E+00  1.00800000E+00
  1.60000000E+01  1.00800000E+00  1.00800000E+00  1.60000000E+01  1.00800000E+00
  1.00800000E+00  1.60000000E+01  1.00800000E+00  1.00800000E+00  1.60000000E+01
  1.00800000E+00  1.00800000E+00  1.60000000E+01  1.00800000E+00  1.00800000E+00
  1.60000000E+01  1.00800000E+00  1.00800000E+00  1.60000000E+01  1.00800000E+00
  1.00800000E+00  1.60000000E+01  1.00800000E+00  1.00800000E+00  1.60000000E+01
  1.00800000E+00  1.00800000E+00  1.60000000E+01  1.00800000E+00  1.00800000E+00
  1.60000000E+01  1.00800000E+00  1.00800000E+00  1.60000000E+01  1.00800000E+00
  1.00800000E+00  1.60000000E+01  1.00800000E+00  1.00800000E+00  1.60000000E+01
  1.00800000E+00  1.00800000E+00  1.60000000E+01  1.00800000E+00  1.00800000E+00
  1.60000000E+01  1.00800000E+00  1.00800000E+00  1.60000000E+01  1.00800000E+00
  1.00800000E+00  1.60000000E+01  1.00800000E+00  1.00800000E+00  1.60000000E+01
  1.00800000E+00  1.00800000E+00  1.60000000E+01  1.00800000E+00  1.00800000E+00
  1.60000000E+01  1.00800000E+00  1.00800000E+00  1.60000000E+01  1.00800000E+00
  1.00800000E+00  1.60000000E+01  1.00800000E+00  1.00800000E+00  1.60000000E+01
  1.00800000E+00  1.00800000E+00  1.60000000E+01  1.00800000E+00  1.00800000E+00
  1.60000000E+01  1.00800000E+00  1.00800000E+00  1.60000000E+01  1.00800000E+00
  1.00800000E+00  1.60000000E+01  1.00800000E+00  1.00800000E+00  1.60000000E+01
  1.00800000E+00  1.00800000E+00  1.60000000E+01  1.00800000E+00  1.00800000E+00
  1.60000000E+01  1.00800000E+00  1.00800000E+00  1.60000000E+01  1.00800000E+00
  1.00800000E+00  1.60000000E+01  1.00800000E+00  1.00800000E+00  1.60000000E+01
  1.00800000E+00  1.00800000E+00  1.60000000E+01  1.00800000E+00  1.00800000E+00
  1.60000000E+01  1.00800000E+00  1.00800000E+00  1.60000000E+01  1.00800000E+00
  1.00800000E+00  1.60000000E+01  1.00800000E+00  1.00800000E+00  1.60000000E+01
  1.00800000E+00  1.00800000E+00  1.60000000E+01  1.00800000E+00  1.00800000E+00
  1.60000000E+01  1.00800000E+00  1.00800000E+00  1.60000000E+01  1.00800000E+00
  1.00800000E+00  1.60000000E+01  1.00800000E+00  1.00800000E+00  1.60000000E+01
  1.00800000E+00  1.00800000E+00  1.60000000E+01  1.00800000E+00  1.00800000E+00
  1.60000000E+01  1.00800000E+00  1.00800000E+00  1.60000000E+01  1.00800000E+00
  1.00800000E+00  1.60000000E+01  1.00800000E+00  1.00800000E+00  1.60000000E+01
  1.00800000E+00  1.00800000E+00  1.60000000E+01  1.00800000E+00  1.00800000E+00
  1.60000000E+01  1.00800000E+00  1.00800000E+00  1.60000000E+01  1.00800000E+00
  1.00800000E+00  1.60000000E+01  1.00800000E+00  1.00800000E+00  1.60000000E+01
  1.00800000E+00  1.00800000E+00  1.60000000E+01  1.00800000E+00  1.00800000E+00
  1.60000000E+01  1.00800000E+00  1.00800000E+00  1.60000000E+01  1.00800000E+00
  1.00800000E+00  1.60000000E+01  1.00800000E+00  1.00800000E+00  1.60000000E+01
  1.00800000E+00  1.00800000E+00  1.60000000E+01  1.00800000E+00  1.00800000E+00
  1.60000000E+01  1.00800000E+00  1.00800000E+00  1.60000000E+01  1.00800000E+00
  1.00800000E+00  1.60000000E+01  1.00800000E+00  1.00800000E+00  1.60000000E+01
  1.00800000E+00  1.00800000E+00  1.60000000E+01  1.00800000E+00  1.00800000E+00
  1.60000000E+01  1.00800000E+00  1.00800000E+00  1.60000000E+01  1.00800000E+00
  1.00800000E+00  1.60000000E+01  1.00800000E+00  1.00800000E+00  1.60000000E+01
  1.00800000E+00  1.00800000E+00  1.60000000E+01  1.00800000E+00  1.00800000E+00
  1.60000000E+01  1.00800000E+00  1.00800000E+00  1.60000000E+01  1.00800000E+00
  1.00800000E+00  1.60000000E+01  1.00800000E+00  1.00800000E+00  1.60000000E+01
  1.00800000E+00  1.00800000E+00  1.60000000E+01  1.00800000E+00  1.00800000E+00
  1.60000000E+01  1.00800000E+00  1.00800000E+00  1.60000000E+01  1.00800000E+00
  1.00800000E+00  1.60000000E+01  1.00800000E+00  1.00800000E+00  1.60000000E+01
  1.00800000E+00  1.00800000E+00  1.60000000E+01  1.00800000E+00  1.00800000E+00
  1.60000000E+01  1.00800000E+00  1.00800000E+00  1.60000000E+01  1.00800000E+00
  1.00800000E+00  1.60000000E+01  1.00800000E+00  1.00800000E+00  1.60000000E+01
  1.00800000E+00  1.00800000E+00  1.60000000E+01  1.00800000E+00  1.00800000E+00
  1.60000000E+01  1.00800000E+00  1.00800000E+00  1.60000000E+01  1.00800000E+00
  1.00800000E+00  1.60000000E+01  1.00800000E+00  1.00800000E+00  1.60000000E+01
  1.00800000E+00  1.00800000E+00  1.60000000E+01  1.00800000E+00  1.00800000E+00
  1.60000000E+01  1.00800000E+00  1.00800000E+00  1.60000000E+01  1.00800000E+00
  1.00800000E+00  1.60000000E+01  1.00800000E+00  1.00800000E+00  1.60000000E+01
  1.00800000E+00  1.00800000E+00  1.60000000E+01  1.00800000E+00  1.00800000E+00
  1.60000000E+01  1.00800000E+00  1.00800000E+00  1.60000000E+01  1.00800000E+00
  1.00800000E+00  1.60000000E+01  1.00800000E+00  1.00800000E+00  1.60000000E+01
  1.00800000E+00  1.00800000E+00  1.60000000E+01  1.00800000E+00  1.00800000E+00
  1.60000000E+01  1.00800000E+00  1.00800000E+00  1.60000000E+01  1.00800000E+00
  1.00800000E+00  1.60000000E+01  1.00800000E+00  1.00800000E+00  1.60000000E+01
  1.00800000E+00  1.00800000E+00  1.60000000E+01  1.00800000E+00  1.00800000E+00
  1.60000000E+01  1.00800000E+00  1.00800000E+00  1.60000000E+01  1.00800000E+00
  1.00800000E+00  1.60000000E+01  1.00800000E+00  1.00800000E+00  1.60000000E+01
  1.00800000E+00  1.00800000E+00  1.60000000E+01  1.00800000E+00  1.00800000E+00
  1.60000000E+01  1.00800000E+00  1.00800000E+00  1.60000000E+01  1.00800000E+00
  1.00800000E+00  1.60000000E+01  1.00800000E+00  1.00800000E+00  1.60000000E+01
  1.00800000E+00  1.00800000E+00  1.60000000E+01  1.00800000E+00  1.00800000E+00
  1.60000000E+01  1.00800000E+00  1.00800000E+00  1.60000000E+01  1.00800000E+00
  1.00800000E+00  1.60000000E+01  1.00800000E+00  1.00800000E+00  1.60000000E+01
  1.00800000E+00  1.00800000E+00  1.60000000E+01  1.00800000E+00  1.00800000E+00
  1.60000000E+01  1.00800000E+00  1.00800000E+00  1.60000000E+01  1.00800000E+00
  1.00800000E+00  1.60000000E+01  1.00800000E+00  1.00800000E+00  1.60000000E+01
  1.00800000E+00  1.00800000E+00  1.60000000E+01  1.00800000E+00  1.00800000E+00
  1.60000000E+01  1.00800000E+00  1.00800000E+00  1.60000000E+01  1.00800000E+00
  1.00800000E+00  1.60000000E+01  1.00800000E+00  1.00800000E+00  1.60000000E+01
  1.00800000E+00  1.00800000E+00  1.60000000E+01  1.00800000E+00  1.00800000E+00
  1.60000000E+01  1.00800000E+00  1.00800000E+00  1.60000000E+01  1.00800000E+00
  1.00800000E+00  1.60000000E+01  1.00800000E+00  1.00800000E+00  1.60000000E+01
  1.00800000E+00  1.00800000E+00  1.60000000E+01  1.00800000E+00  1.00800000E+00
  1.60000000E+01  1.00800000E+00  1.00800000E+00  1.60000000E+01  1.00800000E+00
  1.00800000E+00  1.60000000E+01  1.00800000E+00  1.00800000E+00  1.60000000E+01
  1.00800000E+00  1.00800000E+00  1.60000000E+01  1.00800000E+00  1.00800000E+00
  1.60000000E+01  1.00800000E+00  1.00800000E+00  1.60000000E+01  1.00800000E+00
  1.00800000E+00  1.60000000E+01  1.00800000E+00  1.00800000E+00  1.60000000E+01
  1.00800000E+00  1.00800000E+00  1.60000000E+01  1.00800000E+00  1.00800000E+00
  1.60000000E+01  1.00800000E+00  1.00800000E+00  1.60000000E+01  1.00800000E+00
  1.00800000E+00  1.60000000E+01  1.00800000E+00  1.00800000E+00  1.60000000E+01
  1.00800000E+00  1.00800000E+00  1.60000000E+01  1.00800000E+00  1.00800000E+00
  1.60000000E+01  1.00800000E+00  1.00800000E+00  1.60000000E+01  1.00800000E+00
  1.00800000E+00  1.60000000E+01  1.00800000E+00  1.00800000E+00  1.60000000E+01
  1.00800000E+00  1.00800000E+00  1.60000000E+01  1.00800000E+00  1.00800000E+00
  1.60000000E+01  1.00800000E+00  1.00800000E+00  1.60000000E+01  1.00800000E+00
  1.00800000E+00  1.60000000E+01  1.00800000E+00  1.00800000E+00  1.60000000E+01
  1.00800000E+00  1.00800000E+00  1.60000000E+01  1.00800000E+00  1.00800000E+00
  1.60000000E+01  1.00800000E+00  1.00800000E+00  1.60000000E+01  1.00800000E+00
  1.00800000E+00  1.60000000E+01  1.00800000E+00  1.00800000E+00  1.60000000E+01
  1.00800000E+00  1.00800000E+00  1.60000000E+01  1.00800000E+00  1.00800000E+00
  1.60000000E+01  1.00800000E+00  1.00800000E+00  1.60000000E+01  1.00800000E+00
  1.00800000E+00  1.60000000E+01  1.00800000E+00  1.00800000E+00  1.60000000E+01
  1.00800000E+00  1.00800000E+00  1.60000000E+01  1.00800000E+00  1.00800000E+00
  1.60000000E+01  1.00800000E+00  1.00800000E+00  1.60000000E+01  1.00800000E+00
  1.00800000E+00  1.60000000E+01  1.00800000E+00  1.00800000E+00  1.60000000E+01
  1.00800000E+00  1.00800000E+00  1.60000000E+01  1.00800000E+00  1.00800000E+00
  1.60000000E+01  1.00800000E+00  1.00800000E+00  1.60000000E+01  1.00800000E+00
  1.00800000E+00  1.60000000E+01  1.00800000E+00  1.00800000E+00  1.60000000E+01
  1.00800000E+00  1.00800000E+00  1.60000000E+01  1.00800000E+00  1.00800000E+00
  1.60000000E+01  1.00800000E+00  1.00800000E+00  1.60000000E+01  1.00800000E+00
  1.00800000E+00  1.60000000E+01  1.00800000E+00  1.00800000E+00  1.60000000E+01
  1.00800000E+00  1.00800000E+00  1.60000000E+01  1.00800000E+00  1.00800000E+00
  1.60000000E+01  1.00800000E+00  1.00800000E+00  1.60000000E+01  1.00800000E+00
  1.00800000E+00  1.60000000E+01  1.00800000E+00  1.00800000E+00  1.60000000E+01
  1.00800000E+00  1.00800000E+00  1.60000000E+01  1.00800000E+00  1.00800000E+00
  1.60000000E+01  1.00800000E+00  1.00800000E+00  1.60000000E+01  1.00800000E+00
  1.00800000E+00  1.60000000E+01  1.00800000E+00  1.00800000E+00  1.60000000E+01
  1.00800000E+00  1.00800000E+00  1.60000000E+01  1.00800000E+00  1.00800000E+00
  1.60000000E+01  1.00800000E+00  1.00800000E+00  1.60000000E+01  1.00800000E+00
  1.00800000E+00  1.60000000E+01  1.00800000E+00  1.00800000E+00  1.60000000E+01
  1.00800000E+00  1.00800000E+00  1.60000000E+01  1.00800000E+00  1.00800000E+00
  1.60000000E+01  1.00800000E+00  1.00800000E+00  1.60000000E+01  1.00800000E+00
  1.00800000E+00  1.60000000E+01  1.00800000E+00  1.00800000E+00  1.60000000E+01
  1.00800000E+00  1.00800000E+00  1.60000000E+01  1.00800000E+00  1.00800000E+00
  1.60000000E+01  1.00800000E+00  1.00800000E+00  1.60000000E+01  1.00800000E+00
  1.00800000E+00  1.60000000E+01  1.00800000E+00  1.00800000E+00  1.60000000E+01
  1.00800000E+00  1.00800000E+00  1.60000000E+01  1.00800000E+00  1.00800000E+00
  1.60000000E+01  1.00800000E+00  1.00800000E+00  1.60000000E+01  1.00800000E+00
  1.00800000E+00  1.60000000E+01  1.00800000E+00  1.00800000E+00  1.60000000E+01
  1.00800000E+00  1.00800000E+00  1.60000000E+01  1.00800000E+00  1.00800000E+00
  1.60000000E+01  1.00800000E+00  1.00800000E+00  1.60000000E+01  1.00800000E+00
  1.00800000E+00  1.60000000E+01  1.00800000E+00  1.00800000E+00  1.60000000E+01
  1.00800000E+00  1.00800000E+00  1.60000000E+01  1.00800000E+00  1.00800000E+00
  1.60000000E+01  1.00800000E+00  1.00800000E+00  1.60000000E+01  1.00800000E+00
  1.00800000E+00  1.60000000E+01  1.00800000E+00  1.00800000E+00  1.60000000E+01
  1.00800000E+00  1.00800000E+00  1.60000000E+01  1.00800000E+00  1.00800000E+00
  1.60000000E+01  1.00800000E+00  1.00800000E+00  1.60000000E+01  1.00800000E+00
  1.00800000E+00  1.60000000E+01  1.00800000E+00  1.00800000E+00  1.60000000E+01
  1.00800000E+00  1.00800000E+00  1.60000000E+01  1.00800000E+00  1.00800000E+00
  1.60000000E+01  1.00800000E+00  1.00800000E+00  1.60000000E+01  1.00800000E+00
  1.00800000E+00  1.60000000E+01  1.00800000E+00  1.00800000E+00  1.60000000E+01
  1.00800000E+00  1.00800000E+00  1.60000000E+01  1.00800000E+00  1.00800000E+00
  1.60000000E+01  1.00800000E+00  1.00800000E+00  1.60000000E+01  1.00800000E+00
  1.00800000E+00  1.60000000E+01  1.00800000E+00  1.00800000E+00  1.60000000E+01
  1.00800000E+00  1.00800000E+00  1.60000000E+01  1.00800000E+00  1.00800000E+00
  1.60000000E+01  1.00800000E+00  1.00800000E+00  1.60000000E+01  1.00800000E+00
  1.00800000E+00  1.60000000E+01  1.00800000E+00  1.00800000E+00  1.60000000E+01
  1.00800000E+00  1.00800000E+00  1.60000000E+01  1.00800000E+00  1.00800000E+00
  1.60000000E+01  1.00800000E+00  1.00800000E+00  1.60000000E+01  1.00800000E+00
  1.00800000E+00  1.60000000E+01  1.00800000E+00  1.00800000E+00  1.60000000E+01
  1.00800000E+00  1.00800000E+00  1.60000000E+01  1.00800000E+00  1.00800000E+00
  1.60000000E+01  1.00800000E+00  1.00800000E+00  1.60000000E+01  1.00800000E+00
  1.00800000E+00  1.60000000E+01  1.00800000E+00  1.00800000E+00  1.60000000E+01
  1.00800000E+00  1.00800000E+00  1.60000000E+01  1.00800000E+00  1.00800000E+00
  1.60000000E+01  1.00800000E+00  1.00800000E+00  1.60000000E+01  1.00800000E+00
  1.00800000E+00  1.60000000E+01  1.00800000E+00  1.00800000E+00  1.60000000E+01
  1.00800000E+00  1.00800000E+00  1.60000000E+01  1.00800000E+00  1.00800000E+00
  1.60000000E+01  1.00800000E+00  1.00800000E+00  1.60000000E+01  1.00800000E+00
  1.00800000E+00  1.60000000E+01  1.00800000E+00  1.00800000E+00  1.60000000E+01
  1.00800000E+00  1.00800000E+00  1.60000000E+01  1.00800000E+00  1.00800000E+00
  1.60000000E+01  1.00800000E+00  1.00800000E+00  1.60000000E+01  1.00800000E+00
  1.00800000E+00  1.60000000E+01  1.00800000E+00  1.00800000E+00  1.60000000E+01
  1.00800000E+00  1.00800000E+00  1.60000000E+01  1.00800000E+00  1.00800000E+00
  1.60000000E+01  1.00800000E+00  1.00800000E+00  1.60000000E+01  1.00800000E+00
  1.00800000E+00  1.60000000E+01  1.00800000E+00  1.00800000E+00  1.60000000E+01
  1.00800000E+00  1.00800000E+00  1.60000000E+01  1.00800000E+00  1.00800000E+00
  1.60000000E+01  1.00800000E+00  1.00800000E+00  1.60000000E+01  1.00800000E+00
  1.00800000E+00  1.60000000E+01  1.00800000E+00  1.00800000E+00  1.60000000E+01
  1.00800000E+00  1.00800000E+00  1.60000000E+01  1.00800000E+00  1.00800000E+00
  1.60000000E+01  1.00800000E+00  1.00800000E+00  1.60000000E+01  1.00800000E+00
  1.00800000E+00  1.60000000E+01  1.00800000E+00  1.00800000E+00  1.60000000E+01
  1.00800000E+00  1.00800000E+00  1.60000000E+01  1.00800000E+00  1.00800000E+00
  1.60000000E+01  1.00800000E+00  1.00800000E+00  1.60000000E+01  1.00800000E+00
  1.00800000E+00  1.60000000E+01  1.00800000E+00  1.00800000E+00  1.60000000E+01
  1.00800000E+00  1.00800000E+00  1.60000000E+01  1.00800000E+00  1.00800000E+00
  1.60000000E+01  1.00800000E+00  1.00800000E+00  1.60000000E+01  1.00800000E+00
  1.00800000E+00  1.60000000E+01  1.00800000E+00  1.00800000E+00  1.60000000E+01
  1.00800000E+00  1.00800000E+00  1.60000000E+01  1.00800000E+00  1.00800000E+00
  1.60000000E+01  1.00800000E+00  1.00800000E+00  1.60000000E+01  1.00800000E+00
  1.00800000E+00  1.60000000E+01  1.00800000E+00  1.00800000E+00  1.60000000E+01
  1.00800000E+00  1.00800000E+00  1.60000000E+01  1.00800000E+00  1.00800000E+00
  1.60000000E+01  1.00800000E+00  1.00800000E+00  1.60000000E+01  1.00800000E+00
  1.00800000E+00  1.60000000E+01  1.00800000E+00  1.00800000E+00  1.60000000E+01
  1.00800000E+00  1.00800000E+00  1.60000000E+01  1.00800000E+00  1.00800000E+00
  1.60000000E+01  1.00800000E+00  1.00800000E+00  1.60000000E+01  1.00800000E+00
  1.00800000E+00  1.60000000E+01  1.00800000E+00  1.00800000E+00  1.60000000E+01
  1.00800000E+00  1.00800000E+00  1.60000000E+01  1.00800000E+00  1.00800000E+00
  1.60000000E+01  1.00800000E+00  1.00800000E+00  1.60000000E+01  1.00800000E+00
  1.00800000E+00  1.60000000E+01  1.00800000E+00  1.00800000E+00  1.60000000E+01
  1.00800000E+00  1.00800000E+00  1.60000000E+01  1.00800000E+00  1.00800000E+00
  1.60000000E+01  1.00800000E+00  1.00800000E+00  1.60000000E+01  1.00800000E+00
  1.00800000E+00  1.60000000E+01  1.00800000E+00  1.00800000E+00  1.60000000E+01
  1.00800000E+00  1.00800000E+00  1.60000000E+01  1.00800000E+00  1.00800000E+00
  1.60000000E+01  1.00800000E+00  1.00800000E+00  1.60000000E+01  1.00800000E+00
  1.00800000E+00  1.60000000E+01  1.00800000E+00  1.00800000E+00  1.60000000E+01
  1.00800000E+00  1.00800000E+00  1.60000000E+01  1.00800000E+00  1.00800000E+00
  1.60000000E+01  1.00800000E+00  1.00800000E+00  1.60000000E+01  1.00800000E+00
  1.00800000E+00  1.60000000E+01  1.00800000E+00  1.00800000E+00  1.60000000E+01
  1.00800000E+00  1.00800000E+00  1.60000000E+01  1.00800000E+00  1.00800000E+00
  1.60000000E+01  1.00800000E+00  1.00800000E+00  1.60000000E+01  1.00800000E+00
  1.00800000E+00  1.60000000E+01  1.00800000E+00  1.00800000E+00  1.60000000E+01
  1.00800000E+00  1.00800000E+00  1.60000000E+01  1.00800000E+00  1.00800000E+00
  1.60000000E+01  1.00800000E+00  1.00800000E+00  1.60000000E+01  1.00800000E+00
  1.00800000E+00  1.60000000E+01  1.00800000E+00  1.00800000E+00  1.60000000E+01
  1.00800000E+00  1.00800000E+00  1.60000000E+01  1.00800000E+00  1.00800000E+00
  1.60000000E+01  1.00800000E+00  1.00800000E+00  1.60000000E+01  1.00800000E+00
  1.00800000E+00  1.60000000E+01  1.00800000E+00  1.00800000E+00  1.60000000E+01
  1.00800000E+00  1.00800000E+00  1.60000000E+01  1.00800000E+00  1.00800000E+00
  1.60000000E+01  1.00800000E+00  1.00800000E+00  1.60000000E+01  1.00800000E+00
  1.00800000E+00  1.60000000E+01  1.00800000E+00  1.00800000E+00  1.60000000E+01
  1.00800000E+00  1.00800000E+00  1.60000000E+01  1.00800000E+00  1.00800000E+00
  1.60000000E+01  1.00800000E+00  1.00800000E+00  1.60000000E+01  1.00800000E+00
  1.00800000E+00  1.60000000E+01  1.00800000E+00  1.00800000E+00  1.60000000E+01
  1.00800000E+00  1.00800000E+00  1.60000000E+01  1.00800000E+00  1.00800000E+00
  1.60000000E+01  1.00800000E+00  1.00800000E+00  1.60000000E+01  1.00800000E+00
  1.00800000E+00  1.60000000E+01  1.00800000E+00  1.00800000E+00  1.60000000E+01
  1.00800000E+00  1.00800000E+00  1.60000000E+01  1.00800000E+00  1.00800000E+00
  1.60000000E+01  1.00800000E+00  1.00800000E+00  1.60000000E+01  1.00800000E+00
  1.00800000E+00  1.60000000E+01  1.00800000E+00  1.00800000E+00  1.60000000E+01
  1.00800000E+00  1.00800000E+00  1.60000000E+01  1.00800000E+00  1.00800000E+00
  1.60000000E+01  1.00800000E+00  1.00800000E+00  1.60000000E+01  1.00800000E+00
  1.00800000E+00  1.60000000E+01  1.00800000E+00  1.00800000E+00  1.60000000E+01
  1.00800000E+00  1.00800000E+00  1.60000000E+01  1.00800000E+00  1.00800000E+00
  1.60000000E+01  1.00800000E+00  1.00800000E+00  1.60000000E+01  1.00800000E+00
  1.00800000E+00  1.60000000E+01  1.00800000E+00  1.00800000E+00  1.60000000E+01
  1.00800000E+00  1.00800000E+00  1.60000000E+01  1.00800000E+00  1.00800000E+00
  1.60000000E+01  1.00800000E+00  1.00800000E+00  1.60000000E+01  1.00800000E+00
  1.00800000E+00  1.60000000E+01  1.00800000E+00  1.00800000E+00  1.60000000E+01
  1.00800000E+00  1.00800000E+00  1.60000000E+01  1.00800000E+00  1.00800000E+00
  1.60000000E+01  1.00800000E+00  1.00800000E+00  1.60000000E+01  1.00800000E+00
  1.00800000E+00  1.60000000E+01  1.00800000E+00  1.00800000E+00  1.60000000E+01
  1.00800000E+00  1.00800000E+00  1.60000000E+01  1.00800000E+00  1.00800000E+00
  1.60000000E+01  1.00800000E+00  1.00800000E+00  1.60000000E+01  1.00800000E+00
  1.00800000E+00  1.60000000E+01  1.00800000E+00  1.00800000E+00  1.60000000E+01
  1.00800000E+00  1.00800000E+00  1.60000000E+01  1.00800000E+00  1.00800000E+00
  1.60000000E+01  1.00800000E+00  1.00800000E+00  1.60000000E+01  1.00800000E+00
  1.00800000E+00  1.60000000E+01  1.00800000E+00  1.00800000E+00  1.60000000E+01
  1.00800000E+00  1.00800000E+00  1.60000000E+01  1.00800000E+00  1.00800000E+00
  1.60000000E+01  1.00800000E+00  1.00800000E+00  1.60000000E+01  1.00800000E+00
  1.00800000E+00  1.60000000E+01  1.00800000E+00  1.00800000E+00  1.60000000E+01
  1.00800000E+00  1.00800000E+00  1.60000000E+01  1.00800000E+00  1.00800000E+00
  1.60000000E+01  1.00800000E+00  1.00800000E+00  1.60000000E+01  1.00800000E+00
  1.00800000E+00  1.60000000E+01  1.00800000E+00  1.00800000E+00  1.60000000E+01
  1.00800000E+00  1.00800000E+00  1.60000000E+01  1.00800000E+00  1.00800000E+00
  1.60000000E+01  1.00800000E+00  1.00800000E+00  1.60000000E+01  1.00800000E+00
  1.00800000E+00  1.60000000E+01  1.00800000E+00  1.00800000E+00  1.60000000E+01
  1.00800000E+00  1.00800000E+00  1.60000000E+01  1.00800000E+00  1.00800000E+00
  1.60000000E+01  1.00800000E+00  1.00800000E+00  1.60000000E+01  1.00800000E+00
  1.00800000E+00  1.60000000E+01  1.00800000E+00  1.00800000E+00  1.60000000E+01
  1.00800000E+00  1.00800000E+00  1.60000000E+01  1.00800000E+00  1.00800000E+00
  1.60000000E+01  1.00800000E+00  1.00800000E+00  1.60000000E+01  1.00800000E+00
  1.00800000E+00  1.60000000E+01  1.00800000E+00  1.00800000E+00  1.60000000E+01
  1.00800000E+00  1.00800000E+00  1.60000000E+01  1.00800000E+00  1.00800000E+00
  1.60000000E+01  1.00800000E+00  1.00800000E+00  1.60000000E+01  1.00800000E+00
  1.00800000E+00  1.60000000E+01  1.00800000E+00  1.00800000E+00  1.60000000E+01
  1.00800000E+00  1.00800000E+00  1.60000000E+01  1.00800000E+00  1.00800000E+00
  1.60000000E+01  1.00800000E+00  1.00800000E+00  1.60000000E+01  1.00800000E+00
  1.00800000E+00  1.60000000E+01  1.00800000E+00  1.00800000E+00  1.60000000E+01
  1.00800000E+00  1.00800000E+00  1.60000000E+01  1.00800000E+00  1.00800000E+00
  1.60000000E+01  1.00800000E+00  1.00800000E+00  1.60000000E+01  1.00800000E+00
  1.00800000E+00  1.60000000E+01  1.00800000E+00  1.00800000E+00  1.60000000E+01
  1.00800000E+00  1.00800000E+00  1.60000000E+01  1.00800000E+00  1.00800000E+00
  1.60000000E+01  1.00800000E+00  1.00800000E+00  1.60000000E+01  1.00800000E+00
  1.00800000E+00  1.60000000E+01  1.00800000E+00  1.00800000E+00  1.60000000E+01
  1.00800000E+00  1.00800000E+00  1.60000000E+01  1.00800000E+00  1.00800000E+00
  1.60000000E+01  1.00800000E+00  1.00800000E+00  1.60000000E+01  1.00800000E+00
  1.00800000E+00  1.60000000E+01  1.00800000E+00  1.00800000E+00  1.60000000E+01
  1.00800000E+00  1.00800000E+00  1.60000000E+01  1.00800000E+00  1.00800000E+00
  1.60000000E+01  1.00800000E+00  1.00800000E+00  1.60000000E+01  1.00800000E+00
  1.00800000E+00  1.60000000E+01  1.00800000E+00  1.00800000E+00  1.60000000E+01
  1.00800000E+00  1.00800000E+00  1.60000000E+01  1.00800000E+00  1.00800000E+00
  1.60000000E+01  1.00800000E+00  1.00800000E+00  1.60000000E+01  1.00800000E+00
  1.00800000E+00  1.60000000E+01  1.00800000E+00  1.00800000E+00  1.60000000E+01
  1.00800000E+00  1.00800000E+00  1.60000000E+01  1.00800000E+00  1.00800000E+00
  1.60000000E+01  1.00800000E+00  1.00800000E+00  1.60000000E+01  1.00800000E+00
  1.00800000E+00  1.60000000E+01  1.00800000E+00  1.00800000E+00  1.60000000E+01
  1.00800000E+00  1.00800000E+00  1.60000000E+01  1.00800000E+00  1.00800000E+00
  1.60000000E+01  1.00800000E+00  1.00800000E+00  1.60000000E+01  1.00800000E+00
  1.00800000E+00  1.60000000E+01  1.00800000E+00  1.00800000E+00  1.60000000E+01
  1.00800000E+00  1.00800000E+00  1.60000000E+01  1.00800000E+00  1.00800000E+00
  1.60000000E+01  1.00800000E+00  1.00800000E+00  1.60000000E+01  1.00800000E+00
  1.00800000E+00  1.60000000E+01  1.00800000E+00  1.00800000E+00  1.60000000E+01
  1.00800000E+00  1.00800000E+00  1.60000000E+01  1.00800000E+00  1.00800000E+00
  1.60000000E+01  1.00800000E+00  1.00800000E+00  1.60000000E+01  1.00800000E+00
  1.00800000E+00  1.60000000E+01  1.00800000E+00  1.00800000E+00  1.60000000E+01
  1.00800000E+00  1.00800000E+00  1.60000000E+01  1.00800000E+00  1.00800000E+00
  1.60000000E+01  1.00800000E+00  1.00800000E+00  1.60000000E+01  1.00800000E+00
  1.00800000E+00  1.60000000E+01  1.00800000E+00  1.00800000E+00  1.60000000E+01
  1.00800000E+00  1.00800000E+00  1.60000000E+01  1.00800000E+00  1.00800000E+00
  1.60000000E+01  1.00800000E+00  1.00800000E+00  1.60000000E+01  1.00800000E+00
  1.00800000E+00  1.60000000E+01  1.00800000E+00  1.00800000E+00  1.60000000E+01
  1.00800000E+00  1.00800000E+00  1.60000000E+01  1.00800000E+00  1.00800000E+00
  1.60000000E+01  1.00800000E+00  1.00800000E+00  1.60000000E+01  1.00800000E+00
  1.00800000E+00  1.60000000E+01  1.00800000E+00  1.00800000E+00  1.60000000E+01
  1.00800000E+00  1.00800000E+00  1.60000000E+01  1.00800000E+00  1.00800000E+00
  1.60000000E+01  1.00800000E+00  1.00800000E+00  1.60000000E+01  1.00800000E+00
  1.00800000E+00  1.60000000E+01  1.00800000E+00  1.00800000E+00  1.60000000E+01
  1.00800000E+00  1.00800000E+00  1.60000000E+01  1.00800000E+00  1.00800000E+00
  1.60000000E+01  1.00800000E+00  1.00800000E+00  1.60000000E+01  1.00800000E+00
  1.00800000E+00  1.60000000E+01  1.00800000E+00  1.00800000E+00  1.60000000E+01
  1.00800000E+00  1.00800000E+00  1.60000000E+01  1.00800000E+00  1.00800000E+00
  1.60000000E+01  1.00800000E+00  1.00800000E+00  1.60000000E+01  1.00800000E+00
  1.00800000E+00  1.60000000E+01  1.00800000E+00  1.00800000E+00  1.60000000E+01
  1.00800000E+00  1.00800000E+00  1.60000000E+01  1.00800000E+00  1.00800000E+00
  1.60000000E+01  1.00800000E+00  1.00800000E+00  1.60000000E+01  1.00800000E+00
  1.00800000E+00  1.60000000E+01  1.00800000E+00  1.00800000E+00  1.60000000E+01
  1.00800000E+00  1.00800000E+00  1.60000000E+01  1.00800000E+00  1.00800000E+00
  1.60000000E+01  1.00800000E+00  1.00800000E+00  1.60000000E+01  1.00800000E+00
  1.00800000E+00  1.60000000E+01  1.00800000E+00  1.00800000E+00  1.60000000E+01
  1.00800000E+00  1.00800000E+00  1.60000000E+01  1.00800000E+00  1.00800000E+00
  1.60000000E+01  1.00800000E+00  1.00800000E+00  1.60000000E+01  1.00800000E+00
  1.00800000E+00  1.60000000E+01  1.00800000E+00  1.00800000E+00  1.60000000E+01
  1.00800000E+00  1.00800000E+00  1.60000000E+01  1.00800000E+00  1.00800000E+00
  1.60000000E+01  1.00800000E+00  1.00800000E+00  1.60000000E+01  1.00800000E+00
  1.00800000E+00  1.60000000E+01  1.00800000E+00  1.00800000E+00  1.60000000E+01
  1.00800000E+00  1.00800000E+00  1.60000000E+01  1.00800000E+00  1.00800000E+00
  1.60000000E+01  1.00800000E+00  1.00800000E+00  1.60000000E+01  1.00800000E+00
  1.00800000E+00  1.60000000E+01  1.00800000E+00  1.00800000E+00  1.60000000E+01
  1.00800000E+00  1.00800000E+00  1.60000000E+01  1.00800000E+00  1.00800000E+00
  1.60000000E+01  1.00800000E+00  1.00800000E+00  1.60000000E+01  1.00800000E+00
  1.00800000E+00  1.60000000E+01  1.00800000E+00  1.00800000E+00  1.60000000E+01
  1.00800000E+00  1.00800000E+00  1.60000000E+01  1.00800000E+00  1.00800000E+00
  1.60000000E+01  1.00800000E+00  1.00800000E+00  1.60000000E+01  1.00800000E+00
  1.00800000E+00  1.60000000E+01  1.00800000E+00  1.00800000E+00  1.60000000E+01
  1.00800000E+00  1.00800000E+00  1.60000000E+01  1.00800000E+00  1.00800000E+00
  1.60000000E+01  1.00800000E+00  1.00800000E+00  1.60000000E+01  1.00800000E+00
  1.00800000E+00  1.60000000E+01  1.00800000E+00  1.00800000E+00  1.60000000E+01
  1.00800000E+00  1.00800000E+00  1.60000000E+01  1.00800000E+00  1.00800000E+00
  1.60000000E+01  1.00800000E+00  1.00800000E+00  1.60000000E+01  1.00800000E+00
  1.00800000E+00  1.60000000E+01  1.00800000E+00  1.00800000E+00  1.60000000E+01
  1.00800000E+00  1.00800000E+00  1.60000000E+01  1.00800000E+00  1.00800000E+00
  1.60000000E+01  1.00800000E+00  1.00800000E+00  1.60000000E+01  1.00800000E+00
  1.00800000E+00  1.60000000E+01  1.00800000E+00  1.00800000E+00  1.60000000E+01
  1.00800000E+00  1.00800000E+00  1.60000000E+01  1.00800000E+00  1.00800000E+00
  1.60000000E+01  1.00800000E+00  1.00800000E+00  1.60000000E+01  1.00800000E+00
  1.00800000E+00  1.60000000E+01  1.00800000E+00  1.00800000E+00  1.60000000E+01
  1.00800000E+00  1.00800000E+00  1.60000000E+01  1.00800000E+00  1.00800000E+00
  1.60000000E+01  1.00800000E+00  1.00800000E+00  1.60000000E+01  1.00800000E+00
  1.00800000E+00  1.60000000E+01  1.00800000E+00  1.00800000E+00  1.60000000E+01
  1.00800000E+00  1.00800000E+00  1.60000000E+01  1.00800000E+00  1.00800000E+00
  1.60000000E+01  1.00800000E+00  1.00800000E+00  1.60000000E+01  1.00800000E+00
  1.00800000E+00  1.60000000E+01  1.00800000E+00  1.00800000E+00  1.60000000E+01
  1.00800000E+00  1.00800000E+00  1.60000000E+01  1.00800000E+00  1.00800000E+00
  1.60000000E+01  1.00800000E+00  1.00800000E+00  1.60000000E+01  1.00800000E+00
  1.00800000E+00  1.60000000E+01  1.00800000E+00  1.00800000E+00  1.60000000E+01
  1.00800000E+00  1.00800000E+00  1.60000000E+01  1.00800000E+00  1.00800000E+00
  1.60000000E+01  1.00800000E+00  1.00800000E+00  1.60000000E+01  1.00800000E+00
  1.00800000E+00  1.60000000E+01  1.00800000E+00  1.00800000E+00  1.60000000E+01
  1.00800000E+00  1.00800000E+00  1.60000000E+01  1.00800000E+00  1.00800000E+00
  1.60000000E+01  1.00800000E+00  1.00800000E+00  1.60000000E+01  1.00800000E+00
  1.00800000E+00  1.60000000E+01  1.00800000E+00  1.00800000E+00  1.60000000E+01
  1.00800000E+00  1.00800000E+00  1.60000000E+01  1.00800000E+00  1.00800000E+00
  1.60000000E+01  1.00800000E+00  1.00800000E+00  1.60000000E+01  1.00800000E+00
  1.00800000E+00  1.60000000E+01  1.00800000E+00  1.00800000E+00  1.60000000E+01
  1.00800000E+00  1.00800000E+00  1.60000000E+01  1.00800000E+00  1.00800000E+00
  1.60000000E+01  1.00800000E+00  1.00800000E+00  1.60000000E+01  1.00800000E+00
  1.00800000E+00  1.60000000E+01  1.00800000E+00  1.00800000E+00  1.60000000E+01
  1.00800000E+00  1.00800000E+00  1.60000000E+01  1.00800000E+00  1.00800000E+00
  1.60000000E+01  1.00800000E+00  1.00800000E+00  1.60000000E+01  1.00800000E+00
  1.00800000E+00  1.60000000E+01  1.00800000E+00  1.00800000E+00  1.60000000E+01
  1.00800000E+00  1.00800000E+00  1.60000000E+01  1.00800000E+00  1.00800000E+00
  1.60000000E+01  1.00800000E+00  1.00800000E+00  1.60000000E+01  1.00800000E+00
  1.00800000E+00  1.60000000E+01  1.00800000E+00  1.00800000E+00  1.60000000E+01
  1.00800000E+00  1.00800000E+00  1.60000000E+01  1.00800000E+00  1.00800000E+00
  1.60000000E+01  1.00800000E+00  1.00800000E+00  1.60000000E+01  1.00800000E+00
  1.00800000E+00  1.60000000E+01  1.00800000E+00  1.00800000E+00  1.60000000E+01
  1.00800000E+00  1.00800000E+00  1.60000000E+01  1.00800000E+00  1.00800000E+00
  1.60000000E+01  1.00800000E+00  1.00800000E+00  1.60000000E+01  1.00800000E+00
  1.00800000E+00  1.60000000E+01  1.00800000E+00  1.00800000E+00  1.60000000E+01
  1.00800000E+00  1.00800000E+00  1.60000000E+01  1.00800000E+00  1.00800000E+00
  1.60000000E+01  1.00800000E+00  1.00800000E+00  1.60000000E+01  1.00800000E+00
  1.00800000E+00  1.60000000E+01  1.00800000E+00  1.00800000E+00  1.60000000E+01
  1.00800000E+00  1.00800000E+00  1.60000000E+01  1.00800000E+00  1.00800000E+00
  1.60000000E+01  1.00800000E+00  1.00800000E+00  1.60000000E+01  1.00800000E+00
  1.00800000E+00  1.60000000E+01  1.00800000E+00  1.00800000E+00  1.60000000E+01
  1.00800000E+00  1.00800000E+00  1.60000000E+01  1.00800000E+00  1.00800000E+00
  1.60000000E+01  1.00800000E+00  1.00800000E+00  1.60000000E+01  1.00800000E+00
  1.00800000E+00  1.60000000E+01  1.00800000E+00  1.00800000E+00  1.60000000E+01
  1.00800000E+00  1.00800000E+00  1.60000000E+01  1.00800000E+00  1.00800000E+00
  1.60000000E+01  1.00800000E+00  1.00800000E+00  1.60000000E+01  1.00800000E+00
  1.00800000E+00  1.60000000E+01  1.00800000E+00  1.00800000E+00  1.60000000E+01
  1.00800000E+00  1.00800000E+00  1.60000000E+01  1.00800000E+00  1.00800000E+00
  1.60000000E+01  1.00800000E+00  1.00800000E+00  1.60000000E+01  1.00800000E+00
  1.00800000E+00  1.60000000E+01  1.00800000E+00  1.00800000E+00  1.60000000E+01
  1.00800000E+00  1.00800000E+00  1.60000000E+01  1.00800000E+00  1.00800000E+00
  1.60000000E+01  1.00800000E+00  1.00800000E+00  1.60000000E+01  1.00800000E+00
  1.00800000E+00  1.60000000E+01  1.00800000E+00  1.00800000E+00  1.60000000E+01
  1.00800000E+00  1.00800000E+00  1.60000000E+01  1.00800000E+00  1.00800000E+00
  1.60000000E+01  1.00800000E+00  1.00800000E+00  1.60000000E+01  1.00800000E+00
  1.00800000E+00  1.60000000E+01  1.00800000E+00  1.00800000E+00  1.60000000E+01
  1.00800000E+00  1.00800000E+00  1.60000000E+01  1.00800000E+00  1.00800000E+00
  1.60000000E+01  1.00800000E+00  1.00800000E+00  1.60000000E+01  1.00800000E+00
  1.00800000E+00  1.60000000E+01  1.00800000E+00  1.00800000E+00  1.60000000E+01
  1.00800000E+00  1.00800000E+00  1.60000000E+01  1.00800000E+00  1.00800000E+00
  1.60000000E+01  1.00800000E+00  1.00800000E+00  1.60000000E+01  1.00800000E+00
  1.00800000E+00  1.60000000E+01  1.00800000E+00  1.00800000E+00  1.60000000E+01
  1.00800000E+00  1.00800000E+00  1.60000000E+01  1.00800000E+00  1.00800000E+00
  1.60000000E+01  1.00800000E+00  1.00800000E+00  1.60000000E+01  1.00800000E+00
  1.00800000E+00  1.60000000E+01  1.00800000E+00  1.00800000E+00  1.60000000E+01
  1.00800000E+00  1.00800000E+00  1.60000000E+01  1.00800000E+00  1.00800000E+00
  1.60000000E+01  1.00800000E+00  1.00800000E+00  1.60000000E+01  1.00800000E+00
  1.00800000E+00  1.60000000E+01  1.00800000E+00  1.00800000E+00  1.60000000E+01
  1.00800000E+00  1.00800000E+00  1.60000000E+01  1.00800000E+00  1.00800000E+00
  1.60000000E+01  1.00800000E+00  1.00800000E+00  1.60000000E+01  1.00800000E+00
  1.00800000E+00  1.60000000E+01  1.00800000E+00  1.00800000E+00  1.60000000E+01
  1.00800000E+00  1.00800000E+00  1.60000000E+01  1.00800000E+00  1.00800000E+00
  1.60000000E+01  1.00800000E+00  1.00800000E+00  1.60000000E+01  1.00800000E+00
  1.00800000E+00  1.60000000E+01  1.00800000E+00  1.00800000E+00  1.60000000E+01
  1.00800000E+00  1.00800000E+00  1.60000000E+01  1.00800000E+00  1.00800000E+00
  1.60000000E+01  1.00800000E+00  1.00800000E+00  1.60000000E+01  1.00800000E+00
  1.00800000E+00  1.60000000E+01  1.00800000E+00  1.00800000E+00  1.60000000E+01
  1.00800000E+00  1.00800000E+00  1.60000000E+01  1.00800000E+00  1.00800000E+00
  1.60000000E+01  1.00800000E+00  1.00800000E+00  1.60000000E+01  1.00800000E+00
  1.00800000E+00  1.60000000E+01  1.00800000E+00  1.00800000E+00  1.60000000E+01
  1.00800000E+00  1.00800000E+00  1.60000000E+01  1.00800000E+00  1.00800000E+00
  1.60000000E+01  1.00800000E+00  1.00800000E+00  1.60000000E+01  1.00800000E+00
  1.00800000E+00  1.60000000E+01  1.00800000E+00  1.00800000E+00  1.60000000E+01
  1.00800000E+00  1.00800000E+00  1.60000000E+01  1.00800000E+00  1.00800000E+00
  1.60000000E+01  1.00800000E+00  1.00800000E+00  1.60000000E+01  1.00800000E+00
  1.00800000E+00  1.60000000E+01  1.00800000E+00  1.00800000E+00  1.60000000E+01
  1.00800000E+00  1.00800000E+00  1.60000000E+01  1.00800000E+00  1.00800000E+00
  1.60000000E+01  1.00800000E+00  1.00800000E+00  1.60000000E+01  1.00800000E+00
  1.00800000E+00  1.60000000E+01  1.00800000E+00  1.00800000E+00  1.60000000E+01
  1.00800000E+00  1.00800000E+00  1.60000000E+01  1.00800000E+00  1.00800000E+00
  1.60000000E+01  1.00800000E+00  1.00800000E+00  1.60000000E+01  1.00800000E+00
  1.00800000E+00  1.60000000E+01  1.00800000E+00  1.00800000E+00  1.60000000E+01
  1.00800000E+00  1.00800000E+00  1.60000000E+01  1.00800000E+00  1.00800000E+00
  1.60000000E+01  1.00800000E+00  1.00800000E+00  1.60000000E+01  1.00800000E+00
  1.00800000E+00  1.60000000E+01  1.00800000E+00  1.00800000E+00  1.60000000E+01
  1.00800000E+00  1.00800000E+00  1.60000000E+01  1.00800000E+00  1.00800000E+00
  1.60000000E+01  1.00800000E+00  1.00800000E+00  1.60000000E+01  1.00800000E+00
  1.00800000E+00  1.60000000E+01  1.00800000E+00  1.00800000E+00  1.60000000E+01
  1.00800000E+00  1.00800000E+00  1.60000000E+01  1.00800000E+00  1.00800000E+00
  1.60000000E+01  1.00800000E+00  1.00800000E+00  1.60000000E+01  1.00800000E+00
  1.00800000E+00  1.60000000E+01  1.00800000E+00  1.00800000E+00  1.60000000E+01
  1.00800000E+00  1.00800000E+00  1.60000000E+01  1.00800000E+00  1.00800000E+00
  1.60000000E+01  1.00800000E+00  1.00800000E+00  1.60000000E+01  1.00800000E+00
  1.00800000E+00  1.60000000E+01  1.00800000E+00  1.00800000E+00  1.60000000E+01
  1.00800000E+00  1.00800000E+00  1.60000000E+01  1.00800000E+00  1.00800000E+00
  1.60000000E+01  1.00800000E+00  1.00800000E+00  1.60000000E+01  1.00800000E+00
  1.00800000E+00  1.60000000E+01  1.00800000E+00  1.00800000E+00  1.60000000E+01
  1.00800000E+00  1.00800000E+00  1.60000000E+01  1.00800000E+00  1.00800000E+00
  1.60000000E+01  1.00800000E+00  1.00800000E+00  1.60000000E+01  1.00800000E+00
  1.00800000E+00  1.60000000E+01  1.00800000E+00  1.00800000E+00  1.60000000E+01
  1.00800000E+00  1.00800000E+00  1.60000000E+01  1.00800000E+00  1.00800000E+00
  1.60000000E+01  1.00800000E+00  1.00800000E+00  1.60000000E+01  1.00800000E+00
  1.00800000E+00  1.60000000E+01  1.00800000E+00  1.00800000E+00  1.60000000E+01
  1.00800000E+00  1.00800000E+00  1.60000000E+01  1.00800000E+00  1.00800000E+00
  1.60000000E+01  1.00800000E+00  1.00800000E+00  1.60000000E+01  1.00800000E+00
  1.00800000E+00  1.60000000E+01  1.00800000E+00  1.00800000E+00  1.60000000E+01
  1.00800000E+00  1.00800000E+00  1.60000000E+01  1.00800000E+00  1.00800000E+00
  1.60000000E+01  1.00800000E+00  1.00800000E+00  1.60000000E+01  1.00800000E+00
  1.00800000E+00  1.60000000E+01  1.00800000E+00  1.00800000E+00  1.60000000E+01
  1.00800000E+00  1.00800000E+00  1.60000000E+01  1.00800000E+00  1.00800000E+00
  1.60000000E+01  1.00800000E+00  1.00800000E+00  1.60000000E+01  1.00800000E+00
  1.00800000E+00  1.60000000E+01  1.00800000E+00  1.00800000E+00  1.60000000E+01
  1.00800000E+00  1.00800000E+00  1.60000000E+01  1.00800000E+00  1.00800000E+00
  1.60000000E+01  1.00800000E+00  1.00800000E+00  1.60000000E+01  1.00800000E+00
  1.00800000E+00  1.60000000E+01  1.00800000E+00  1.00800000E+00  1.60000000E+01
  1.00800000E+00  1.00800000E+00  1.60000000E+01  1.00800000E+00  1.00800000E+00
  1.60000000E+01  1.00800000E+00  1.00800000E+00  1.60000000E+01  1.00800000E+00
  1.00800000E+00  1.60000000E+01  1.00800000E+00  1.00800000E+00  1.60000000E+01
  1.00800000E+00  1.00800000E+00  1.60000000E+01  1.00800000E+00  1.00800000E+00
  1.60000000E+01  1.00800000E+00  1.00800000E+00  1.60000000E+01  1.00800000E+00
  1.00800000E+00  1.60000000E+01  1.00800000E+00  1.00800000E+00  1.60000000E+01
  1.00800000E+00  1.00800000E+00  1.60000000E+01  1.00800000E+00  1.00800000E+00
  1.60000000E+01  1.00800000E+00  1.00800000E+00  1.60000000E+01  1.00800000E+00
  1.00800000E+00  1.60000000E+01  1.00800000E+00  1.00800000E+00  1.60000000E+01
  1.00800000E+00  1.00800000E+00  1.60000000E+01  1.00800000E+00  1.00800000E+00
  1.60000000E+01  1.00800000E+00  1.00800000E+00  1.60000000E+01  1.00800000E+00
  1.00800000E+00  1.60000000E+01  1.00800000E+00  1.00800000E+00  1.60000000E+01
  1.00800000E+00  1.00800000E+00  1.60000000E+01  1.00800000E+00  1.00800000E+00
  1.60000000E+01  1.00800000E+00  1.00800000E+00  1.60000000E+01  1.00800000E+00
  1.00800000E+00  1.60000000E+01  1.00800000E+00  1.00800000E+00  1.60000000E+01
  1.00800000E+00  1.00800000E+00  1.60000000E+01  1.00800000E+00  1.00800000E+00
  1.60000000E+01  1.00800000E+00  1.00800000E+00  1.60000000E+01  1.00800000E+00
  1.00800000E+00  1.60000000E+01  1.00800000E+00  1.00800000E+00  1.60000000E+01
  1.00800000E+00  1.00800000E+00  1.60000000E+01  1.00800000E+00  1.00800000E+00
  1.60000000E+01  1.00800000E+00  1.00800000E+00  1.60000000E+01  1.00800000E+00
  1.00800000E+00  1.60000000E+01  1.00800000E+00  1.00800000E+00  1.60000000E+01
  1.00800000E+00  1.00800000E+00  1.60000000E+01  1.00800000E+00  1.00800000E+00
  1.60000000E+01  1.00800000E+00  1.00800000E+00  1.60000000E+01  1.00800000E+00
  1.00800000E+00  1.60000000E+01  1.00800000E+00  1.00800000E+00  1.60000000E+01
  1.00800000E+00  1.00800000E+00  1.60000000E+01  1.00800000E+00  1.00800000E+00
  1.60000000E+01  1.00800000E+00  1.00800000E+00  1.60000000E+01  1.00800000E+00
  1.00800000E+00  1.60000000E+01  1.00800000E+00  1.00800000E+00  1.60000000E+01
  1.00800000E+00  1.00800000E+00  1.60000000E+01  1.00800000E+00  1.00800000E+00
  1.60000000E+01  1.00800000E+00  1.00800000E+00  1.60000000E+01  1.00800000E+00
  1.00800000E+00  1.60000000E+01  1.00800000E+00  1.00800000E+00  1.60000000E+01
  1.00800000E+00  1.00800000E+00  1.60000000E+01  1.00800000E+00  1.00800000E+00
  1.60000000E+01  1.00800000E+00  1.00800000E+00  1.60000000E+01  1.00800000E+00
  1.00800000E+00  1.60000000E+01  1.00800000E+00  1.00800000E+00  1.60000000E+01
  1.00800000E+00  1.00800000E+00  1.60000000E+01  1.00800000E+00  1.00800000E+00
  1.60000000E+01  1.00800000E+00  1.00800000E+00  1.60000000E+01  1.00800000E+00
  1.00800000E+00  1.60000000E+01  1.00800000E+00  1.00800000E+00  1.60000000E+01
  1.00800000E+00  1.00800000E+00  1.60000000E+01  1.00800000E+00  1.00800000E+00
  1.60000000E+01  1.00800000E+00  1.00800000E+00  1.60000000E+01  1.00800000E+00
  1.00800000E+00  1.60000000E+01  1.00800000E+00  1.00800000E+00  1.60000000E+01
  1.00800000E+00  1.00800000E+00  1.60000000E+01  1.00800000E+00  1.00800000E+00
  1.60000000E+01  1.00800000E+00  1.00800000E+00  1.60000000E+01  1.00800000E+00
  1.00800000E+00  1.60000000E+01  1.00800000E+00  1.00800000E+00  1.60000000E+01
  1.00800000E+00  1.00800000E+00  1.60000000E+01  1.00800000E+00  1.00800000E+00
  1.60000000E+01  1.00800000E+00  1.00800000E+00  1.60000000E+01  1.00800000E+00
  1.00800000E+00  1.60000000E+01  1.00800000E+00  1.00800000E+00  1.60000000E+01
  1.00800000E+00  1.00800000E+00  1.60000000E+01  1.00800000E+00  1.00800000E+00
  1.60000000E+01  1.00800000E+00  1.00800000E+00  1.60000000E+01  1.00800000E+00
  1.00800000E+00  1.60000000E+01  1.00800000E+00  1.00800000E+00  1.60000000E+01
  1.00800000E+00  1.00800000E+00  1.60000000E+01  1.00800000E+00  1.00800000E+00
  1.60000000E+01  1.00800000E+00  1.00800000E+00  1.60000000E+01  1.00800000E+00
  1.00800000E+00  1.60000000E+01  1.00800000E+00  1.00800000E+00  1.60000000E+01
  1.00800000E+00  1.00800000E+00  1.60000000E+01  1.00800000E+00  1.00800000E+00
  1.60000000E+01  1.00800000E+00  1.00800000E+00  1.60000000E+01  1.00800000E+00
  1.00800000E+00  1.60000000E+01  1.00800000E+00  1.00800000E+00  1.60000000E+01
  1.00800000E+00  1.00800000E+00  1.60000000E+01  1.00800000E+00  1.00800000E+00
  1.60000000E+01  1.00800000E+00  1.00800000E+00  1.60000000E+01  1.00800000E+00
  1.00800000E+00  1.60000000E+01  1.00800000E+00  1.00800000E+00  1.60000000E+01
  1.00800000E+00  1.00800000E+00  1.60000000E+01  1.00800000E+00  1.00800000E+00
  1.60000000E+01  1.00800000E+00  1.00800000E+00  1.60000000E+01  1.00800000E+00
  1.00800000E+00  1.60000000E+01  1.00800000E+00  1.00800000E+00  1.60000000E+01
  1.00800000E+00  1.00800000E+00  1.60000000E+01  1.00800000E+00  1.00800000E+00
  1.60000000E+01  1.00800000E+00  1.00800000E+00  1.60000000E+01  1.00800000E+00
  1.00800000E+00  1.60000000E+01  1.00800000E+00  1.00800000E+00  1.60000000E+01
  1.00800000E+00  1.00800000E+00  1.60000000E+01  1.00800000E+00  1.00800000E+00
  1.60000000E+01  1.00800000E+00  1.00800000E+00  1.60000000E+01  1.00800000E+00
  1.00800000E+00  1.60000000E+01  1.00800000E+00  1.00800000E+00  1.60000000E+01
  1.00800000E+00  1.00800000E+00  1.60000000E+01  1.00800000E+00  1.00800000E+00
  1.60000000E+01  1.00800000E+00  1.00800000E+00  1.60000000E+01  1.00800000E+00
  1.00800000E+00  1.60000000E+01  1.00800000E+00  1.00800000E+00  1.60000000E+01
  1.00800000E+00  1.00800000E+00  1.60000000E+01  1.00800000E+00  1.00800000E+00
  1.60000000E+01  1.00800000E+00  1.00800000E+00  1.60000000E+01  1.00800000E+00
  1.00800000E+00  1.60000000E+01  1.00800000E+00  1.00800000E+00  1.60000000E+01
  1.00800000E+00  1.00800000E+00  1.60000000E+01  1.00800000E+00  1.00800000E+00
  1.60000000E+01  1.00800000E+00  1.00800000E+00  1.60000000E+01  1.00800000E+00
  1.00800000E+00  1.60000000E+01  1.00800000E+00  1.00800000E+00  1.60000000E+01
  1.00800000E+00  1.00800000E+00  1.60000000E+01  1.00800000E+00  1.00800000E+00
  1.60000000E+01  1.00800000E+00  1.00800000E+00  1.60000000E+01  1.00800000E+00
  1.00800000E+00  1.60000000E+01  1.00800000E+00  1.00800000E+00  1.60000000E+01
  1.00800000E+00  1.00800000E+00  1.60000000E+01  1.00800000E+00  1.00800000E+00
  1.60000000E+01  1.00800000E+00  1.00800000E+00  1.60000000E+01  1.00800000E+00
  1.00800000E+00  1.60000000E+01  1.00800000E+00  1.00800000E+00  1.60000000E+01
  1.00800000E+00  1.00800000E+00  1.60000000E+01  1.00800000E+00  1.00800000E+00
  1.60000000E+01  1.00800000E+00  1.00800000E+00  1.60000000E+01  1.00800000E+00
  1.00800000E+00  1.60000000E+01  1.00800000E+00  1.00800000E+00  1.60000000E+01
  1.00800000E+00  1.00800000E+00  1.60000000E+01  1.00800000E+00  1.00800000E+00
  1.60000000E+01  1.00800000E+00  1.00800000E+00  1.60000000E+01  1.00800000E+00
  1.00800000E+00  1.60000000E+01  1.00800000E+00  1.00800000E+00  1.60000000E+01
  1.00800000E+00  1.00800000E+00  1.60000000E+01  1.00800000E+00  1.00800000E+00
  1.60000000E+01  1.00800000E+00  1.00800000E+00  1.60000000E+01  1.00800000E+00
  1.00800000E+00  1.60000000E+01  1.00800000E+00  1.00800000E+00  1.60000000E+01
  1.00800000E+00  1.00800000E+00  1.60000000E+01  1.00800000E+00  1.00800000E+00
  1.60000000E+01  1.00800000E+00  1.00800000E+00  1.60000000E+01  1.00800000E+00
  1.00800000E+00  1.60000000E+01  1.00800000E+00  1.00800000E+00  1.60000000E+01
  1.00800000E+00  1.00800000E+00  1.60000000E+01  1.00800000E+00  1.00800000E+00
  1.60000000E+01  1.00800000E+00  1.00800000E+00  1.60000000E+01  1.00800000E+00
  1.00800000E+00  1.60000000E+01  1.00800000E+00  1.00800000E+00  1.60000000E+01
  1.00800000E+00  1.00800000E+00  1.60000000E+01  1.00800000E+00  1.00800000E+00
  1.60000000E+01  1.00800000E+00  1.00800000E+00  1.60000000E+01  1.00800000E+00
  1.00800000E+00  1.60000000E+01  1.00800000E+00  1.00800000E+00  1.60000000E+01
  1.00800000E+00  1.00800000E+00  1.60000000E+01  1.00800000E+00  1.00800000E+00
  1.60000000E+01  1.00800000E+00  1.00800000E+00  1.60000000E+01  1.00800000E+00
  1.00800000E+00  1.60000000E+01  1.00800000E+00  1.00800000E+00  1.60000000E+01
  1.00800000E+00  1.00800000E+00  1.60000000E+01  1.00800000E+00  1.00800000E+00
  1.60000000E+01  1.00800000E+00  1.00800000E+00  1.60000000E+01  1.00800000E+00
  1.00800000E+00  1.60000000E+01  1.00800000E+00  1.00800000E+00  1.60000000E+01
  1.00800000E+00  1.00800000E+00  1.60000000E+01  1.00800000E+00  1.00800000E+00
  1.60000000E+01  1.00800000E+00  1.00800000E+00  1.60000000E+01  1.00800000E+00
  1.00800000E+00  1.60000000E+01  1.00800000E+00  1.00800000E+00  1.60000000E+01
  1.00800000E+00  1.00800000E+00  1.60000000E+01  1.00800000E+00  1.00800000E+00
  1.60000000E+01  1.00800000E+00  1.00800000E+00  1.60000000E+01  1.00800000E+00
  1.00800000E+00  1.60000000E+01  1.00800000E+00  1.00800000E+00  1.60000000E+01
  1.00800000E+00  1.00800000E+00  1.60000000E+01  1.00800000E+00  1.00800000E+00
  1.60000000E+01  1.00800000E+00  1.00800000E+00  1.60000000E+01  1.00800000E+00
  1.00800000E+00  1.60000000E+01  1.00800000E+00  1.00800000E+00  1.60000000E+01
  1.00800000E+00  1.00800000E+00  1.60000000E+01  1.00800000E+00  1.00800000E+00
  1.60000000E+01  1.00800000E+00  1.00800000E+00  1.60000000E+01  1.00800000E+00
  1.00800000E+00  1.60000000E+01  1.00800000E+00  1.00800000E+00  1.60000000E+01
  1.00800000E+00  1.00800000E+00  1.60000000E+01  1.00800000E+00  1.00800000E+00
  1.60000000E+01  1.00800000E+00  1.00800000E+00  1.60000000E+01  1.00800000E+00
  1.00800000E+00  1.60000000E+01  1.00800000E+00  1.00800000E+00  1.60000000E+01
  1.00800000E+00  1.00800000E+00  1.60000000E+01  1.00800000E+00  1.00800000E+00
  1.60000000E+01  1.00800000E+00  1.00800000E+00  1.60000000E+01  1.00800000E+00
  1.00800000E+00  1.60000000E+01  1.00800000E+00  1.00800000E+00  1.60000000E+01
  1.00800000E+00  1.00800000E+00  1.60000000E+01  1.00800000E+00  1.00800000E+00
  1.60000000E+01  1.00800000E+00  1.00800000E+00  1.60000000E+01  1.00800000E+00
  1.00800000E+00  1.60000000E+01  1.00800000E+00  1.00800000E+00  1.60000000E+01
  1.00800000E+00  1.00800000E+00  1.60000000E+01  1.00800000E+00  1.00800000E+00
  1.60000000E+01  1.00800000E+00  1.00800000E+00  1.60000000E+01  1.00800000E+00
  1.00800000E+00  1.60000000E+01  1.00800000E+00  1.00800000E+00  1.60000000E+01
  1.00800000E+00  1.00800000E+00  1.60000000E+01  1.00800000E+00  1.00800000E+00
  1.60000000E+01  1.00800000E+00  1.00800000E+00  1.60000000E+01  1.00800000E+00
  1.00800000E+00  1.60000000E+01  1.00800000E+00  1.00800000E+00  1.60000000E+01
  1.00800000E+00  1.00800000E+00  1.60000000E+01  1.00800000E+00  1.00800000E+00
  1.60000000E+01  1.00800000E+00  1.00800000E+00  1.60000000E+01  1.00800000E+00
  1.00800000E+00  1.60000000E+01  1.00800000E+00  1.00800000E+00  1.60000000E+01
  1.00800000E+00  1.00800000E+00  1.60000000E+01  1.00800000E+00  1.00800000E+00
  1.60000000E+01  1.00800000E+00  1.00800000E+00  1.60000000E+01  1.00800000E+00
  1.00800000E+00  1.60000000E+01  1.00800000E+00  1.00800000E+00  1.60000000E+01
  1.00800000E+00  1.00800000E+00  1.60000000E+01  1.00800000E+00  1.00800000E+00
  1.60000000E+01  1.00800000E+00  1.00800000E+00  1.60000000E+01  1.00800000E+00
  1.00800000E+00  1.60000000E+01  1.00800000E+00  1.00800000E+00  1.60000000E+01
  1.00800000E+00  1.00800000E+00  1.60000000E+01  1.00800000E+00  1.00800000E+00
  1.60000000E+01  1.00800000E+00  1.00800000E+00  1.60000000E+01  1.00800000E+00
  1.00800000E+00  1.60000000E+01  1.00800000E+00  1.00800000E+00  1.60000000E+01
  1.00800000E+00  1.00800000E+00  1.60000000E+01  1.00800000E+00  1.00800000E+00
  1.60000000E+01  1.00800000E+00  1.00800000E+00  1.60000000E+01  1.00800000E+00
  1.00800000E+00  1.60000000E+01  1.00800000E+00  1.00800000E+00  1.60000000E+01
  1.00800000E+00  1.00800000E+00  1.60000000E+01  1.00800000E+00  1.00800000E+00
  1.60000000E+01  1.00800000E+00  1.00800000E+00  1.60000000E+01  1.00800000E+00
  1.00800000E+00  1.60000000E+01  1.00800000E+00  1.00800000E+00  1.60000000E+01
  1.00800000E+00  1.00800000E+00  1.60000000E+01  1.00800000E+00  1.00800000E+00
  1.60000000E+01  1.00800000E+00  1.00800000E+00  1.60000000E+01  1.00800000E+00
  1.00800000E+00  1.60000000E+01  1.00800000E+00  1.00800000E+00  1.60000000E+01
  1.00800000E+00  1.00800000E+00  1.60000000E+01  1.00800000E+00  1.00800000E+00
  1.60000000E+01  1.00800000E+00  1.00800000E+00  1.60000000E+01  1.00800000E+00
  1.00800000E+00  1.60000000E+01  1.00800000E+00  1.00800000E+00  1.60000000E+01
  1.00800000E+00  1.00800000E+00  1.60000000E+01  1.00800000E+00  1.00800000E+00
  1.60000000E+01  1.00800000E+00  1.00800000E+00  1.60000000E+01  1.00800000E+00
  1.00800000E+00  1.60000000E+01  1.00800000E+00  1.00800000E+00  1.60000000E+01
  1.00800000E+00  1.00800000E+00  1.60000000E+01  1.00800000E+00  1.00800000E+00
  1.60000000E+01  1.00800000E+00  1.00800000E+00  1.60000000E+01  1.00800000E+00
  1.00800000E+00  1.60000000E+01  1.00800000E+00  1.00800000E+00  1.60000000E+01
  1.00800000E+00  1.00800000E+00  1.60000000E+01  1.00800000E+00  1.00800000E+00
  1.60000000E+01  1.00800000E+00  1.00800000E+00  1.60000000E+01  1.00800000E+00
  1.00800000E+00  1.60000000E+01  1.00800000E+00  1.00800000E+00  1.60000000E+01
  1.00800000E+00  1.00800000E+00  1.60000000E+01  1.00800000E+00  1.00800000E+00
  1.60000000E+01  1.00800000E+00  1.00800000E+00  1.60000000E+01  1.00800000E+00
  1.00800000E+00  1.60000000E+01  1.00800000E+00  1.00800000E+00  1.60000000E+01
  1.00800000E+00  1.00800000E+00  1.60000000E+01  1.00800000E+00  1.00800000E+00
  1.60000000E+01  1.00800000E+00  1.00800000E+00  1.60000000E+01  1.00800000E+00
  1.00800000E+00  1.60000000E+01  1.00800000E+00  1.00800000E+00  1.60000000E+01
  1.00800000E+00  1.00800000E+00  1.60000000E+01  1.00800000E+00  1.00800000E+00
  1.60000000E+01  1.00800000E+00  1.00800000E+00  1.60000000E+01  1.00800000E+00
  1.00800000E+00  1.60000000E+01  1.00800000E+00  1.00800000E+00  1.60000000E+01
  1.00800000E+00  1.00800000E+00  1.60000000E+01  1.00800000E+00  1.00800000E+00
  1.60000000E+01  1.00800000E+00  1.00800000E+00  1.60000000E+01  1.00800000E+00
  1.00800000E+00  1.60000000E+01  1.00800000E+00  1.00800000E+00  1.60000000E+01
  1.00800000E+00  1.00800000E+00  1.60000000E+01  1.00800000E+00  1.00800000E+00
  1.60000000E+01  1.00800000E+00  1.00800000E+00  1.60000000E+01  1.00800000E+00
  1.00800000E+00  1.60000000E+01  1.00800000E+00  1.00800000E+00  1.60000000E+01
  1.00800000E+00  1.00800000E+00  1.60000000E+01  1.00800000E+00  1.00800000E+00
  1.60000000E+01  1.00800000E+00  1.00800000E+00  1.60000000E+01  1.00800000E+00
  1.00800000E+00  1.60000000E+01  1.00800000E+00  1.00800000E+00  1.60000000E+01
  1.00800000E+00  1.00800000E+00  1.60000000E+01  1.00800000E+00  1.00800000E+00
  1.60000000E+01  1.00800000E+00  1.00800000E+00  1.60000000E+01  1.00800000E+00
  1.00800000E+00  1.60000000E+01  1.00800000E+00  1.00800000E+00  1.60000000E+01
  1.00800000E+00  1.00800000E+00  1.60000000E+01  1.00800000E+00  1.00800000E+00
  1.60000000E+01  1.00800000E+00  1.00800000E+00  1.60000000E+01  1.00800000E+00
  1.00800000E+00  1.60000000E+01  1.00800000E+00  1.00800000E+00  1.60000000E+01
  1.00800000E+00  1.00800000E+00  1.60000000E+01  1.00800000E+00  1.00800000E+00
  1.60000000E+01  1.00800000E+00  1.00800000E+00  1.60000000E+01  1.00800000E+00
  1.00800000E+00  1.60000000E+01  1.00800000E+00  1.00800000E+00  1.60000000E+01
  1.00800000E+00  1.00800000E+00  1.60000000E+01  1.00800000E+00  1.00800000E+00
  1.60000000E+01  1.00800000E+00  1.00800000E+00  1.60000000E+01  1.00800000E+00
  1.00800000E+00  1.60000000E+01  1.00800000E+00  1.00800000E+00  1.60000000E+01
  1.00800000E+00  1.00800000E+00  1.60000000E+01  1.00800000E+00  1.00800000E+00
  1.60000000E+01  1.00800000E+00  1.00800000E+00  1.60000000E+01  1.00800000E+00
  1.00800000E+00  1.60000000E+01  1.00800000E+00  1.00800000E+00  1.60000000E+01
  1.00800000E+00  1.00800000E+00  1.60000000E+01  1.00800000E+00  1.00800000E+00
  1.60000000E+01  1.00800000E+00  1.00800000E+00  1.60000000E+01  1.00800000E+00
  1.00800000E+00  1.60000000E+01  1.00800000E+00  1.00800000E+00  1.60000000E+01
  1.00800000E+00  1.00800000E+00  1.60000000E+01  1.00800000E+00  1.00800000E+00
  1.60000000E+01  1.00800000E+00  1.00800000E+00  1.60000000E+01  1.00800000E+00
  1.00800000E+00  1.60000000E+01  1.00800000E+00  1.00800000E+00  1.60000000E+01
  1.00800000E+00  1.00800000E+00  1.60000000E+01  1.00800000E+00  1.00800000E+00
  1.60000000E+01  1.00800000E+00  1.00800000E+00  1.60000000E+01  1.00800000E+00
  1.00800000E+00  1.60000000E+01  1.00800000E+00  1.00800000E+00  1.60000000E+01
  1.00800000E+00  1.00800000E+00  1.60000000E+01  1.00800000E+00  1.00800000E+00
  1.60000000E+01  1.00800000E+00  1.00800000E+00  1.60000000E+01  1.00800000E+00
  1.00800000E+00  1.60000000E+01  1.00800000E+00  1.00800000E+00  1.60000000E+01
  1.00800000E+00  1.00800000E+00  1.60000000E+01  1.00800000E+00  1.00800000E+00
  1.60000000E+01  1.00800000E+00  1.00800000E+00  1.60000000E+01  1.00800000E+00
  1.00800000E+00  1.60000000E+01  1.00800000E+00  1.00800000E+00  1.60000000E+01
  1.00800000E+00  1.00800000E+00  1.60000000E+01  1.00800000E+00  1.00800000E+00
  1.60000000E+01  1.00800000E+00  1.00800000E+00  1.60000000E+01  1.00800000E+00
  1.00800000E+00  1.60000000E+01  1.00800000E+00  1.00800000E+00  1.60000000E+01
  1.00800000E+00  1.00800000E+00  1.60000000E+01  1.00800000E+00  1.00800000E+00
  1.60000000E+01  1.00800000E+00  1.00800000E+00  1.60000000E+01  1.00800000E+00
  1.00800000E+00  1.60000000E+01  1.00800000E+00  1.00800000E+00  1.60000000E+01
  1.00800000E+00  1.00800000E+00  1.60000000E+01  1.00800000E+00  1.00800000E+00
  1.60000000E+01  1.00800000E+00  1.00800000E+00  1.60000000E+01  1.00800000E+00
  1.00800000E+00  1.60000000E+01  1.00800000E+00  1.00800000E+00  1.60000000E+01
  1.00800000E+00  1.00800000E+00  1.60000000E+01  1.00800000E+00  1.00800000E+00
  1.60000000E+01  1.00800000E+00  1.00800000E+00  1.60000000E+01  1.00800000E+00
  1.00800000E+00  1.60000000E+01  1.00800000E+00  1.00800000E+00  1.60000000E+01
  1.00800000E+00  1.00800000E+00  1.60000000E+01  1.00800000E+00  1.00800000E+00
  1.60000000E+01  1.00800000E+00  1.00800000E+00  1.60000000E+01  1.00800000E+00
  1.00800000E+00  1.60000000E+01  1.00800000E+00  1.00800000E+00  1.60000000E+01
  1.00800000E+00  1.00800000E+00  1.60000000E+01  1.00800000E+00  1.00800000E+00
  1.60000000E+01  1.00800000E+00  1.00800000E+00  1.60000000E+01  1.00800000E+00
  1.00800000E+00  1.60000000E+01  1.00800000E+00  1.00800000E+00  1.60000000E+01
  1.00800000E+00  1.00800000E+00  1.60000000E+01  1.00800000E+00  1.00800000E+00
  1.60000000E+01  1.00800000E+00  1.00800000E+00  1.60000000E+01  1.00800000E+00
  1.00800000E+00  1.60000000E+01  1.00800000E+00  1.00800000E+00  1.60000000E+01
  1.00800000E+00  1.00800000E+00  1.60000000E+01  1.00800000E+00  1.00800000E+00
  1.60000000E+01  1.00800000E+00  1.00800000E+00  1.60000000E+01  1.00800000E+00
  1.00800000E+00  1.60000000E+01  1.00800000E+00  1.00800000E+00  1.60000000E+01
  1.00800000E+00  1.00800000E+00  1.60000000E+01  1.00800000E+00  1.00800000E+00
  1.60000000E+01  1.00800000E+00  1.00800000E+00  1.60000000E+01  1.00800000E+00
  1.00800000E+00  1.60000000E+01  1.00800000E+00  1.00800000E+00  1.60000000E+01
  1.00800000E+00  1.00800000E+00  1.60000000E+01  1.00800000E+00  1.00800000E+00
  1.60000000E+01  1.00800000E+00  1.00800000E+00  1.60000000E+01  1.00800000E+00
  1.00800000E+00  1.60000000E+01  1.00800000E+00  1.00800000E+00  1.60000000E+01
  1.00800000E+00  1.00800000E+00  1.60000000E+01  1.00800000E+00  1.00800000E+00
  1.60000000E+01  1.00800000E+00  1.00800000E+00  1.60000000E+01  1.00800000E+00
  1.00800000E+00  1.60000000E+01  1.00800000E+00  1.00800000E+00  1.60000000E+01
  1.00800000E+00  1.00800000E+00  1.60000000E+01  1.00800000E+00  1.00800000E+00
  1.60000000E+01  1.00800000E+00  1.00800000E+00  1.60000000E+01  1.00800000E+00
  1.00800000E+00  1.60000000E+01  1.00800000E+00  1.00800000E+00  1.60000000E+01
  1.00800000E+00  1.00800000E+00  1.60000000E+01  1.00800000E+00  1.00800000E+00
  1.60000000E+01  1.00800000E+00  1.00800000E+00  1.60000000E+01  1.00800000E+00
  1.00800000E+00  1.60000000E+01  1.00800000E+00  1.00800000E+00  1.60000000E+01
  1.00800000E+00  1.00800000E+00  1.60000000E+01  1.00800000E+00  1.00800000E+00
  1.60000000E+01  1.00800000E+00  1.00800000E+00  1.60000000E+01  1.00800000E+00
  1.00800000E+00  1.60000000E+01  1.00800000E+00  1.00800000E+00  1.60000000E+01
  1.00800000E+00  1.00800000E+00  1.60000000E+01  1.00800000E+00  1.00800000E+00
  1.60000000E+01  1.00800000E+00  1.00800000E+00  1.60000000E+01  1.00800000E+00
  1.00800000E+00  1.60000000E+01  1.00800000E+00  1.00800000E+00  1.60000000E+01
  1.00800000E+00  1.00800000E+00  1.60000000E+01  1.00800000E+00  1.00800000E+00
  1.60000000E+01  1.00800000E+00  1.00800000E+00  1.60000000E+01  1.00800000E+00
  1.00800000E+00  1.60000000E+01  1.00800000E+00  1.00800000E+00  1.60000000E+01
  1.00800000E+00  1.00800000E+00  1.60000000E+01  1.00800000E+00  1.00800000E+00
  1.60000000E+01  1.00800000E+00  1.00800000E+00  1.60000000E+01  1.00800000E+00
  1.00800000E+00  1.60000000E+01  1.00800000E+00  1.00800000E+00  1.60000000E+01
  1.00800000E+00  1.00800000E+00  1.60000000E+01  1.00800000E+00  1.00800000E+00
  1.60000000E+01  1.00800000E+00  1.00800000E+00  1.60000000E+01  1.00800000E+00
  1.00800000E+00  1.60000000E+01  1.00800000E+00  1.00800000E+00  1.60000000E+01
  1.00800000E+00  1.00800000E+00  1.60000000E+01  1.00800000E+00  1.00800000E+00
  1.60000000E+01  1.00800000E+00  1.00800000E+00  1.60000000E+01  1.00800000E+00
  1.00800000E+00  1.60000000E+01  1.00800000E+00  1.00800000E+00  1.60000000E+01
  1.00800000E+00  1.00800000E+00  1.60000000E+01  1.00800000E+00  1.00800000E+00
  1.60000000E+01  1.00800000E+00  1.00800000E+00  1.60000000E+01  1.00800000E+00
  1.00800000E+00  1.60000000E+01  1.00800000E+00  1.00800000E+00  1.60000000E+01
  1.00800000E+00  1.00800000E+00  1.60000000E+01  1.00800000E+00  1.00800000E+00
  1.60000000E+01  1.00800000E+00  1.00800000E+00  1.60000000E+01  1.00800000E+00
  1.00800000E+00  1.60000000E+01  1.00800000E+00  1.00800000E+00  1.60000000E+01
  1.00800000E+00  1.00800000E+00  1.60000000E+01  1.00800000E+00  1.00800000E+00
  1.60000000E+01  1.00800000E+00  1.00800000E+00  1.60000000E+01  1.00800000E+00
  1.00800000E+00  1.60000000E+01  1.00800000E+00  1.00800000E+00  1.60000000E+01
  1.00800000E+00  1.00800000E+00  1.60000000E+01  1.00800000E+00  1.00800000E+00
  1.60000000E+01  1.00800000E+00  1.00800000E+00  1.60000000E+01  1.00800000E+00
  1.00800000E+00  1.60000000E+01  1.00800000E+00  1.00800000E+00  1.60000000E+01
  1.00800000E+00  1.00800000E+00  1.60000000E+01  1.00800000E+00  1.00800000E+00
  1.60000000E+01  1.00800000E+00  1.00800000E+00  1.60000000E+01  1.00800000E+00
  1.00800000E+00  1.60000000E+01  1.00800000E+00  1.00800000E+00  1.60000000E+01
  1.00800000E+00  1.00800000E+00  1.60000000E+01  1.00800000E+00  1.00800000E+00
  1.60000000E+01  1.00800000E+00  1.00800000E+00  1.60000000E+01  1.00800000E+00
  1.00800000E+00  1.60000000E+01  1.00800000E+00  1.00800000E+00  1.60000000E+01
  1.00800000E+00  1.00800000E+00  1.60000000E+01  1.00800000E+00  1.00800000E+00
  1.60000000E+01  1.00800000E+00  1.00800000E+00  1.60000000E+01  1.00800000E+00
  1.00800000E+00  1.60000000E+01  1.00800000E+00  1.00800000E+00  1.60000000E+01
  1.00800000E+00  1.00800000E+00  1.60000000E+01  1.00800000E+00  1.00800000E+00
  1.60000000E+01  1.00800000E+00  1.00800000E+00  1.60000000E+01  1.00800000E+00
  1.00800000E+00  1.60000000E+01  1.00800000E+00  1.00800000E+00  1.60000000E+01
  1.00800000E+00  1.00800000E+00  1.60000000E+01  1.00800000E+00  1.00800000E+00
  1.60000000E+01  1.00800000E+00  1.00800000E+00  1.60000000E+01  1.00800000E+00
  1.00800000E+00  1.60000000E+01  1.00800000E+00  1.00800000E+00  1.60000000E+01
  1.00800000E+00  1.00800000E+00  1.60000000E+01  1.00800000E+00  1.00800000E+00
  1.60000000E+01  1.00800000E+00  1.00800000E+00  1.60000000E+01  1.00800000E+00
  1.00800000E+00  1.60000000E+01  1.00800000E+00  1.00800000E+00  1.60000000E+01
  1.00800000E+00  1.00800000E+00  1.60000000E+01  1.00800000E+00  1.00800000E+00
  1.60000000E+01  1.00800000E+00  1.00800000E+00  1.60000000E+01  1.00800000E+00
  1.00800000E+00  1.60000000E+01  1.00800000E+00  1.00800000E+00  1.60000000E+01
  1.00800000E+00  1.00800000E+00  1.60000000E+01  1.00800000E+00  1.00800000E+00
  1.60000000E+01  1.00800000E+00  1.00800000E+00  1.60000000E+01  1.00800000E+00
  1.00800000E+00  1.60000000E+01  1.00800000E+00  1.00800000E+00  1.60000000E+01
  1.00800000E+00  1.00800000E+00  1.60000000E+01  1.00800000E+00  1.00800000E+00
  1.60000000E+01  1.00800000E+00  1.00800000E+00  1.60000000E+01  1.00800000E+00
  1.00800000E+00  1.60000000E+01  1.00800000E+00  1.00800000E+00  1.60000000E+01
  1.00800000E+00  1.00800000E+00  1.60000000E+01  1.00800000E+00  1.00800000E+00
  1.60000000E+01  1.00800000E+00  1.00800000E+00  1.60000000E+01  1.00800000E+00
  1.00800000E+00  1.60000000E+01  1.00800000E+00  1.00800000E+00  1.60000000E+01
  1.00800000E+00  1.00800000E+00  1.60000000E+01  1.00800000E+00  1.00800000E+00
  1.60000000E+01  1.00800000E+00  1.00800000E+00  1.60000000E+01  1.00800000E+00
  1.00800000E+00  1.60000000E+01  1.00800000E+00  1.00800000E+00  1.60000000E+01
  1.00800000E+00  1.00800000E+00  1.60000000E+01  1.00800000E+00  1.00800000E+00
  1.60000000E+01  1.00800000E+00  1.00800000E+00  1.60000000E+01  1.00800000E+00
  1.00800000E+00  1.60000000E+01  1.00800000E+00  1.00800000E+00  1.60000000E+01
  1.00800000E+00  1.00800000E+00  1.60000000E+01  1.00800000E+00  1.00800000E+00
  1.60000000E+01  1.00800000E+00  1.00800000E+00  1.60000000E+01  1.00800000E+00
  1.00800000E+00  1.60000000E+01  1.00800000E+00  1.00800000E+00  1.60000000E+01
  1.00800000E+00  1.00800000E+00  1.60000000E+01  1.00800000E+00  1.00800000E+00
  1.60000000E+01  1.00800000E+00  1.00800000E+00  1.60000000E+01  1.00800000E+00
  1.00800000E+00  1.60000000E+01  1.00800000E+00  1.00800000E+00  1.60000000E+01
  1.00800000E+00  1.00800000E+00  1.60000000E+01  1.00800000E+00  1.00800000E+00
  1.60000000E+01  1.00800000E+00  1.00800000E+00  1.60000000E+01  1.00800000E+00
  1.00800000E+00  1.60000000E+01  1.00800000E+00  1.00800000E+00  1.60000000E+01
  1.00800000E+00  1.00800000E+00  1.60000000E+01  1.00800000E+00  1.00800000E+00
  1.60000000E+01  1.00800000E+00  1.00800000E+00  1.60000000E+01  1.00800000E+00
  1.00800000E+00  1.60000000E+01  1.00800000E+00  1.00800000E+00  1.60000000E+01
  1.00800000E+00  1.00800000E+00  1.60000000E+01  1.00800000E+00  1.00800000E+00
  1.60000000E+01  1.00800000E+00  1.00800000E+00  1.60000000E+01  1.00800000E+00
  1.00800000E+00  1.60000000E+01  1.00800000E+00  1.00800000E+00  1.60000000E+01
  1.00800000E+00  1.00800000E+00  1.60000000E+01  1.00800000E+00  1.00800000E+00
  1.60000000E+01  1.00800000E+00  1.00800000E+00  1.60000000E+01  1.00800000E+00
  1.00800000E+00  1.60000000E+01  1.00800000E+00  1.00800000E+00  1.60000000E+01
  1.00800000E+00  1.00800000E+00  1.60000000E+01  1.00800000E+00  1.00800000E+00
  1.60000000E+01  1.00800000E+00  1.00800000E+00  1.60000000E+01  1.00800000E+00
  1.00800000E+00  1.60000000E+01  1.00800000E+00  1.00800000E+00  1.60000000E+01
  1.00800000E+00  1.00800000E+00  1.60000000E+01  1.00800000E+00  1.00800000E+00
  1.60000000E+01  1.00800000E+00  1.00800000E+00  1.60000000E+01  1.00800000E+00
  1.00800000E+00  1.60000000E+01  1.00800000E+00  1.00800000E+00  1.60000000E+01
  1.00800000E+00  1.00800000E+00  1.60000000E+01  1.00800000E+00  1.00800000E+00
  1.60000000E+01  1.00800000E+00  1.00800000E+00  1.60000000E+01  1.00800000E+00
  1.00800000E+00  1.60000000E+01  1.00800000E+00  1.00800000E+00  1.60000000E+01
  1.00800000E+00  1.00800000E+00  1.60000000E+01  1.00800000E+00  1.00800000E+00
  1.60000000E+01  1.00800000E+00  1.00800000E+00  1.60000000E+01  1.00800000E+00
  1.00800000E+00  1.60000000E+01  1.00800000E+00  1.00800000E+00  1.60000000E+01
  1.00800000E+00  1.00800000E+00  1.60000000E+01  1.00800000E+00  1.00800000E+00
  1.60000000E+01  1.00800000E+00  1.00800000E+00  1.60000000E+01  1.00800000E+00
  1.00800000E+00  1.60000000E+01  1.00800000E+00  1.00800000E+00  1.60000000E+01
  1.00800000E+00  1.00800000E+00  1.60000000E+01  1.00800000E+00  1.00800000E+00
  1.60000000E+01  1.00800000E+00  1.00800000E+00  1.60000000E+01  1.00800000E+00
  1.00800000E+00  1.60000000E+01  1.00800000E+00  1.00800000E+00  1.60000000E+01
  1.00800000E+00  1.00800000E+00  1.60000000E+01  1.00800000E+00  1.00800000E+00
  1.60000000E+01  1.00800000E+00  1.00800000E+00  1.60000000E+01  1.00800000E+00
  1.00800000E+00  1.60000000E+01  1.00800000E+00  1.00800000E+00  1.60000000E+01
  1.00800000E+00  1.00800000E+00  1.60000000E+01  1.00800000E+00  1.00800000E+00
  1.60000000E+01  1.00800000E+00  1.00800000E+00  1.60000000E+01  1.00800000E+00
  1.00800000E+00  1.60000000E+01  1.00800000E+00  1.00800000E+00  1.60000000E+01
  1.00800000E+00  1.00800000E+00  1.60000000E+01  1.00800000E+00  1.00800000E+00
  1.60000000E+01  1.00800000E+00  1.00800000E+00  1.60000000E+01  1.00800000E+00
  1.00800000E+00  1.60000000E+01  1.00800000E+00  1.00800000E+00  1.60000000E+01
  1.00800000E+00  1.00800000E+00  1.60000000E+01  1.00800000E+00  1.00800000E+00
  1.60000000E+01  1.00800000E+00  1.00800000E+00  1.60000000E+01  1.00800000E+00
  1.00800000E+00  1.60000000E+01  1.00800000E+00  1.00800000E+00  1.60000000E+01
  1.00800000E+00  1.00800000E+00  1.60000000E+01  1.00800000E+00  1.00800000E+00
  1.60000000E+01  1.00800000E+00  1.00800000E+00  1.60000000E+01  1.00800000E+00
  1.00800000E+00  1.60000000E+01  1.00800000E+00  1.00800000E+00  1.60000000E+01
  1.00800000E+00  1.00800000E+00  1.60000000E+01  1.00800000E+00  1.00800000E+00
  1.60000000E+01  1.00800000E+00  1.00800000E+00  1.60000000E+01  1.00800000E+00
  1.00800000E+00  1.60000000E+01  1.00800000E+00  1.00800000E+00  1.60000000E+01
  1.00800000E+00  1.00800000E+00  1.60000000E+01  1.00800000E+00  1.00800000E+00
  1.60000000E+01  1.00800000E+00  1.00800000E+00  1.60000000E+01  1.00800000E+00
  1.00800000E+00  1.60000000E+01  1.00800000E+00  1.00800000E+00  1.60000000E+01
  1.00800000E+00  1.00800000E+00  1.60000000E+01  1.00800000E+00  1.00800000E+00
  1.60000000E+01  1.00800000E+00  1.00800000E+00  1.60000000E+01  1.00800000E+00
  1.00800000E+00  1.60000000E+01  1.00800000E+00  1.00800000E+00  1.60000000E+01
  1.00800000E+00  1.00800000E+00  1.60000000E+01  1.00800000E+00  1.00800000E+00
  1.60000000E+01  1.00800000E+00  1.00800000E+00  1.60000000E+01  1.00800000E+00
  1.00800000E+00  1.60000000E+01  1.00800000E+00  1.00800000E+00  1.60000000E+01
  1.00800000E+00  1.00800000E+00  1.60000000E+01  1.00800000E+00  1.00800000E+00
  1.60000000E+01  1.00800000E+00  1.00800000E+00  1.60000000E+01  1.00800000E+00
  1.00800000E+00  1.60000000E+01  1.00800000E+00  1.00800000E+00  1.60000000E+01
  1.00800000E+00  1.00800000E+00  1.60000000E+01  1.00800000E+00  1.00800000E+00
  1.60000000E+01  1.00800000E+00  1.00800000E+00  1.60000000E+01  1.00800000E+00
  1.00800000E+00  1.60000000E+01  1.00800000E+00  1.00800000E+00  1.60000000E+01
  1.00800000E+00  1.00800000E+00  1.60000000E+01  1.00800000E+00  1.00800000E+00
  1.60000000E+01  1.00800000E+00  1.00800000E+00  1.60000000E+01  1.00800000E+00
  1.00800000E+00  1.60000000E+01  1.00800000E+00  1.00800000E+00  1.60000000E+01
  1.00800000E+00  1.00800000E+00  1.60000000E+01  1.00800000E+00  1.00800000E+00
  1.60000000E+01  1.00800000E+00  1.00800000E+00  1.60000000E+01  1.00800000E+00
  1.00800000E+00  1.60000000E+01  1.00800000E+00  1.00800000E+00  1.60000000E+01
  1.00800000E+00  1.00800000E+00  1.60000000E+01  1.00800000E+00  1.00800000E+00
  1.60000000E+01  1.00800000E+00  1.00800000E+00  1.60000000E+01  1.00800000E+00
  1.00800000E+00  1.60000000E+01  1.00800000E+00  1.00800000E+00  1.60000000E+01
  1.00800000E+00  1.00800000E+00  1.60000000E+01  1.00800000E+00  1.00800000E+00
  1.60000000E+01  1.00800000E+00  1.00800000E+00  1.60000000E+01  1.00800000E+00
  1.00800000E+00  1.60000000E+01  1.00800000E+00  1.00800000E+00  1.60000000E+01
  1.00800000E+00  1.00800000E+00  1.60000000E+01  1.00800000E+00  1.00800000E+00
  1.60000000E+01  1.00800000E+00  1.00800000E+00  1.60000000E+01  1.00800000E+00
  1.00800000E+00  1.60000000E+01  1.00800000E+00  1.00800000E+00  1.60000000E+01
  1.00800000E+00  1.00800000E+00  1.60000000E+01  1.00800000E+00  1.00800000E+00
  1.60000000E+01  1.00800000E+00  1.00800000E+00  1.60000000E+01  1.00800000E+00
  1.00800000E+00  1.60000000E+01  1.00800000E+00  1.00800000E+00  1.60000000E+01
  1.00800000E+00  1.00800000E+00  1.60000000E+01  1.00800000E+00  1.00800000E+00
  1.60000000E+01  1.00800000E+00  1.00800000E+00  1.60000000E+01  1.00800000E+00
  1.00800000E+00  1.60000000E+01  1.00800000E+00  1.00800000E+00  1.60000000E+01
  1.00800000E+00  1.00800000E+00  1.60000000E+01  1.00800000E+00  1.00800000E+00
  1.60000000E+01  1.00800000E+00  1.00800000E+00  1.60000000E+01  1.00800000E+00
  1.00800000E+00  1.60000000E+01  1.00800000E+00  1.00800000E+00  1.60000000E+01
  1.00800000E+00  1.00800000E+00  1.60000000E+01  1.00800000E+00  1.00800000E+00
  1.60000000E+01  1.00800000E+00  1.00800000E+00  1.60000000E+01  1.00800000E+00
  1.00800000E+00  1.60000000E+01  1.00800000E+00  1.00800000E+00  1.60000000E+01
  1.00800000E+00  1.00800000E+00  1.60000000E+01  1.00800000E+00  1.00800000E+00
  1.60000000E+01  1.00800000E+00  1.00800000E+00  1.60000000E+01  1.00800000E+00
  1.00800000E+00  1.60000000E+01  1.00800000E+00  1.00800000E+00  1.60000000E+01
  1.00800000E+00  1.00800000E+00  1.60000000E+01  1.00800000E+00  1.00800000E+00
  1.60000000E+01  1.00800000E+00  1.00800000E+00  1.60000000E+01  1.00800000E+00
  1.00800000E+00  1.60000000E+01  1.00800000E+00  1.00800000E+00  1.60000000E+01
  1.00800000E+00  1.00800000E+00  1.60000000E+01  1.00800000E+00  1.00800000E+00
  1.60000000E+01  1.00800000E+00  1.00800000E+00  1.60000000E+01  1.00800000E+00
  1.00800000E+00  1.60000000E+01  1.00800000E+00  1.00800000E+00  1.60000000E+01
  1.00800000E+00  1.00800000E+00  1.60000000E+01  1.00800000E+00  1.00800000E+00
  1.60000000E+01  1.00800000E+00  1.00800000E+00  1.60000000E+01  1.00800000E+00
  1.00800000E+00  1.60000000E+01  1.00800000E+00  1.00800000E+00  1.60000000E+01
  1.00800000E+00  1.00800000E+00  1.60000000E+01  1.00800000E+00  1.00800000E+00
  1.60000000E+01  1.00800000E+00  1.00800000E+00  1.60000000E+01  1.00800000E+00
  1.00800000E+00  1.60000000E+01  1.00800000E+00  1.00800000E+00  1.60000000E+01
  1.00800000E+00  1.00800000E+00  1.60000000E+01  1.00800000E+00  1.00800000E+00
  1.60000000E+01  1.00800000E+00  1.00800000E+00  1.60000000E+01  1.00800000E+00
  1.00800000E+00  1.60000000E+01  1.00800000E+00  1.00800000E+00  1.60000000E+01
  1.00800000E+00  1.00800000E+00  1.60000000E+01  1.00800000E+00  1.00800000E+00
  1.60000000E+01  1.00800000E+00  1.00800000E+00  1.60000000E+01  1.00800000E+00
  1.00800000E+00  1.60000000E+01  1.00800000E+00  1.00800000E+00  1.60000000E+01
  1.00800000E+00  1.00800000E+00  1.60000000E+01  1.00800000E+00  1.00800000E+00
  1.60000000E+01  1.00800000E+00  1.00800000E+00  1.60000000E+01  1.00800000E+00
  1.00800000E+00  1.60000000E+01  1.00800000E+00  1.00800000E+00  1.60000000E+01
  1.00800000E+00  1.00800000E+00  1.60000000E+01  1.00800000E+00  1.00800000E+00
  1.60000000E+01  1.00800000E+00  1.00800000E+00  1.60000000E+01  1.00800000E+00
  1.00800000E+00  1.60000000E+01  1.00800000E+00  1.00800000E+00  1.60000000E+01
  1.00800000E+00  1.00800000E+00  1.60000000E+01  1.00800000E+00  1.00800000E+00
  1.60000000E+01  1.00800000E+00  1.00800000E+00  1.60000000E+01  1.00800000E+00
  1.00800000E+00  1.60000000E+01  1.00800000E+00  1.00800000E+00  1.60000000E+01
  1.00800000E+00  1.00800000E+00  1.60000000E+01  1.00800000E+00  1.00800000E+00
  1.60000000E+01  1.00800000E+00  1.00800000E+00  1.60000000E+01  1.00800000E+00
  1.00800000E+00  1.60000000E+01  1.00800000E+00  1.00800000E+00  1.60000000E+01
  1.00800000E+00  1.00800000E+00  1.60000000E+01  1.00800000E+00  1.00800000E+00
  1.60000000E+01  1.00800000E+00  1.00800000E+00  1.60000000E+01  1.00800000E+00
  1.00800000E+00  1.60000000E+01  1.00800000E+00  1.00800000E+00  1.60000000E+01
  1.00800000E+00  1.00800000E+00  1.60000000E+01  1.00800000E+00  1.00800000E+00
  1.60000000E+01  1.00800000E+00  1.00800000E+00  1.60000000E+01  1.00800000E+00
  1.00800000E+00  1.60000000E+01  1.00800000E+00  1.00800000E+00  1.60000000E+01
  1.00800000E+00  1.00800000E+00  1.60000000E+01  1.00800000E+00  1.00800000E+00
  1.60000000E+01  1.00800000E+00  1.00800000E+00  1.60000000E+01  1.00800000E+00
  1.00800000E+00  1.60000000E+01  1.00800000E+00  1.00800000E+00  1.60000000E+01
  1.00800000E+00  1.00800000E+00  1.60000000E+01  1.00800000E+00  1.00800000E+00
  1.60000000E+01  1.00800000E+00  1.00800000E+00  1.60000000E+01  1.00800000E+00
  1.00800000E+00  1.60000000E+01  1.00800000E+00  1.00800000E+00  1.60000000E+01
  1.00800000E+00  1.00800000E+00  1.60000000E+01  1.00800000E+00  1.00800000E+00
  1.60000000E+01  1.00800000E+00  1.00800000E+00  1.60000000E+01  1.00800000E+00
  1.00800000E+00  1.60000000E+01  1.00800000E+00  1.00800000E+00  1.60000000E+01
  1.00800000E+00  1.00800000E+00  1.60000000E+01  1.00800000E+00  1.00800000E+00
  1.60000000E+01  1.00800000E+00  1.00800000E+00  1.60000000E+01  1.00800000E+00
  1.00800000E+00  1.60000000E+01  1.00800000E+00  1.00800000E+00  1.60000000E+01
  1.00800000E+00  1.00800000E+00  1.60000000E+01  1.00800000E+00  1.00800000E+00
  1.60000000E+01  1.00800000E+00  1.00800000E+00  1.60000000E+01  1.00800000E+00
  1.00800000E+00  1.60000000E+01  1.00800000E+00  1.00800000E+00  1.60000000E+01
  1.00800000E+00  1.00800000E+00  1.60000000E+01  1.00800000E+00  1.00800000E+00
  1.60000000E+01  1.00800000E+00  1.00800000E+00  1.60000000E+01  1.00800000E+00
  1.00800000E+00  1.60000000E+01  1.00800000E+00  1.00800000E+00  1.60000000E+01
  1.00800000E+00  1.00800000E+00  1.60000000E+01  1.00800000E+00  1.00800000E+00
  1.60000000E+01  1.00800000E+00  1.00800000E+00  1.60000000E+01  1.00800000E+00
  1.00800000E+00  1.60000000E+01  1.00800000E+00  1.00800000E+00  1.60000000E+01
  1.00800000E+00  1.00800000E+00  1.60000000E+01  1.00800000E+00  1.00800000E+00
  1.60000000E+01  1.00800000E+00  1.00800000E+00  1.60000000E+01  1.00800000E+00
  1.00800000E+00  1.60000000E+01  1.00800000E+00  1.00800000E+00  1.60000000E+01
  1.00800000E+00  1.00800000E+00  1.60000000E+01  1.00800000E+00  1.00800000E+00
  1.60000000E+01  1.00800000E+00  1.00800000E+00  1.60000000E+01  1.00800000E+00
  1.00800000E+00  1.60000000E+01  1.00800000E+00  1.00800000E+00  1.60000000E+01
  1.00800000E+00  1.00800000E+00  1.60000000E+01  1.00800000E+00  1.00800000E+00
  1.60000000E+01  1.00800000E+00  1.00800000E+00  1.60000000E+01  1.00800000E+00
  1.00800000E+00  1.60000000E+01  1.00800000E+00  1.00800000E+00  1.60000000E+01
  1.00800000E+00  1.00800000E+00  1.60000000E+01  1.00800000E+00  1.00800000E+00
  1.60000000E+01  1.00800000E+00  1.00800000E+00  1.60000000E+01  1.00800000E+00
  1.00800000E+00  1.60000000E+01  1.00800000E+00  1.00800000E+00  1.60000000E+01
  1.00800000E+00  1.00800000E+00  1.60000000E+01  1.00800000E+00  1.00800000E+00
  1.60000000E+01  1.00800000E+00  1.00800000E+00  1.60000000E+01  1.00800000E+00
  1.00800000E+00  1.60000000E+01  1.00800000E+00  1.00800000E+00  1.60000000E+01
  1.00800000E+00  1.00800000E+00  1.60000000E+01  1.00800000E+00  1.00800000E+00
  1.60000000E+01  1.00800000E+00  1.00800000E+00  1.60000000E+01  1.00800000E+00
  1.00800000E+00  1.60000000E+01  1.00800000E+00  1.00800000E+00  1.60000000E+01
  1.00800000E+00  1.00800000E+00  1.60000000E+01  1.00800000E+00  1.00800000E+00
  1.60000000E+01  1.00800000E+00  1.00800000E+00  1.60000000E+01  1.00800000E+00
  1.00800000E+00  1.60000000E+01  1.00800000E+00  1.00800000E+00  1.60000000E+01
  1.00800000E+00  1.00800000E+00  1.60000000E+01  1.00800000E+00  1.00800000E+00
  1.60000000E+01  1.00800000E+00  1.00800000E+00  1.60000000E+01  1.00800000E+00
  1.00800000E+00  1.60000000E+01  1.00800000E+00  1.00800000E+00  1.60000000E+01
  1.00800000E+00  1.00800000E+00  1.60000000E+01  1.00800000E+00  1.00800000E+00
  1.60000000E+01  1.00800000E+00  1.00800000E+00  1.60000000E+01  1.00800000E+00
  1.00800000E+00  1.60000000E+01  1.00800000E+00  1.00800000E+00  1.60000000E+01
  1.00800000E+00  1.00800000E+00  1.60000000E+01  1.00800000E+00  1.00800000E+00
  1.60000000E+01  1.00800000E+00  1.00800000E+00  1.60000000E+01  1.00800000E+00
  1.00800000E+00  1.60000000E+01  1.00800000E+00  1.00800000E+00  1.60000000E+01
  1.00800000E+00  1.00800000E+00  1.60000000E+01  1.00800000E+00  1.00800000E+00
  1.60000000E+01  1.00800000E+00  1.00800000E+00  1.60000000E+01  1.00800000E+00
  1.00800000E+00  1.60000000E+01  1.00800000E+00  1.00800000E+00  1.60000000E+01
  1.00800000E+00  1.00800000E+00  1.60000000E+01  1.00800000E+00  1.00800000E+00
  1.60000000E+01  1.00800000E+00  1.00800000E+00  1.60000000E+01  1.00800000E+00
  1.00800000E+00  1.60000000E+01  1.00800000E+00  1.00800000E+00  1.60000000E+01
  1.00800000E+00  1.00800000E+00  1.60000000E+01  1.00800000E+00  1.00800000E+00
  1.60000000E+01  1.00800000E+00  1.00800000E+00  1.60000000E+01  1.00800000E+00
  1.00800000E+00  1.60000000E+01  1.00800000E+00  1.00800000E+00  1.60000000E+01
  1.00800000E+00  1.00800000E+00  1.60000000E+01  1.00800000E+00  1.00800000E+00
  1.60000000E+01  1.00800000E+00  1.00800000E+00  1.60000000E+01  1.00800000E+00
  1.00800000E+00  1.60000000E+01  1.00800000E+00  1.00800000E+00  1.60000000E+01
  1.00800000E+00  1.00800000E+00  1.60000000E+01  1.00800000E+00  1.00800000E+00
  1.60000000E+01  1.00800000E+00  1.00800000E+00  1.60000000E+01  1.00800000E+00
  1.00800000E+00  1.60000000E+01  1.00800000E+00  1.00800000E+00  1.60000000E+01
  1.00800000E+00  1.00800000E+00  1.60000000E+01  1.00800000E+00  1.00800000E+00
  1.60000000E+01  1.00800000E+00  1.00800000E+00  1.60000000E+01  1.00800000E+00
  1.00800000E+00  1.60000000E+01  1.00800000E+00  1.00800000E+00  1.60000000E+01
  1.00800000E+00  1.00800000E+00  1.60000000E+01  1.00800000E+00  1.00800000E+00
  1.60000000E+01  1.00800000E+00  1.00800000E+00  1.60000000E+01  1.00800000E+00
  1.00800000E+00  1.60000000E+01  1.00800000E+00  1.00800000E+00  1.60000000E+01
  1.00800000E+00  1.00800000E+00  1.60000000E+01  1.00800000E+00  1.00800000E+00
  1.60000000E+01  1.00800000E+00  1.00800000E+00  1.60000000E+01  1.00800000E+00
  1.00800000E+00  1.60000000E+01  1.00800000E+00  1.00800000E+00  1.60000000E+01
  1.00800000E+00  1.00800000E+00  1.60000000E+01  1.00800000E+00  1.00800000E+00
  1.60000000E+01  1.00800000E+00  1.00800000E+00  1.60000000E+01  1.00800000E+00
  1.00800000E+00  1.60000000E+01  1.00800000E+00  1.00800000E+00  1.60000000E+01
  1.00800000E+00  1.00800000E+00  1.60000000E+01  1.00800000E+00  1.00800000E+00
  1.60000000E+01  1.00800000E+00  1.00800000E+00  1.60000000E+01  1.00800000E+00
  1.00800000E+00  1.60000000E+01  1.00800000E+00  1.00800000E+00  1.60000000E+01
  1.00800000E+00  1.00800000E+00  1.60000000E+01  1.00800000E+00  1.00800000E+00
  1.60000000E+01  1.00800000E+00  1.00800000E+00  1.60000000E+01  1.00800000E+00
  1.00800000E+00  1.60000000E+01  1.00800000E+00  1.00800000E+00  1.60000000E+01
  1.00800000E+00  1.00800000E+00  1.60000000E+01  1.00800000E+00  1.00800000E+00
  1.60000000E+01  1.00800000E+00  1.00800000E+00  1.60000000E+01  1.00800000E+00
  1.00800000E+00  1.60000000E+01  1.00800000E+00  1.00800000E+00  1.60000000E+01
  1.00800000E+00  1.00800000E+00  1.60000000E+01  1.00800000E+00  1.00800000E+00
  1.60000000E+01  1.00800000E+00  1.00800000E+00  1.60000000E+01  1.00800000E+00
  1.00800000E+00  1.60000000E+01  1.00800000E+00  1.00800000E+00  1.60000000E+01
  1.00800000E+00  1.00800000E+00  1.60000000E+01  1.00800000E+00  1.00800000E+00
  1.60000000E+01  1.00800000E+00  1.00800000E+00  1.60000000E+01  1.00800000E+00
  1.00800000E+00  1.60000000E+01  1.00800000E+00  1.00800000E+00  1.60000000E+01
  1.00800000E+00  1.00800000E+00  1.60000000E+01  1.00800000E+00  1.00800000E+00
  1.60000000E+01  1.00800000E+00  1.00800000E+00  1.60000000E+01  1.00800000E+00
  1.00800000E+00  1.60000000E+01  1.00800000E+00  1.00800000E+00  1.60000000E+01
  1.00800000E+00  1.00800000E+00  1.60000000E+01  1.00800000E+00  1.00800000E+00
  1.60000000E+01  1.00800000E+00  1.00800000E+00  1.60000000E+01  1.00800000E+00
  1.00800000E+00  1.60000000E+01  1.00800000E+00  1.00800000E+00  1.60000000E+01
  1.00800000E+00  1.00800000E+00  1.60000000E+01  1.00800000E+00  1.00800000E+00
  1.60000000E+01  1.00800000E+00  1.00800000E+00  1.60000000E+01  1.00800000E+00
  1.00800000E+00  1.60000000E+01  1.00800000E+00  1.00800000E+00  1.60000000E+01
  1.00800000E+00  1.00800000E+00  1.60000000E+01  1.00800000E+00  1.00800000E+00
  1.60000000E+01  1.00800000E+00  1.00800000E+00  1.60000000E+01  1.00800000E+00
  1.00800000E+00  1.60000000E+01  1.00800000E+00  1.00800000E+00  1.60000000E+01
  1.00800000E+00  1.00800000E+00  1.60000000E+01  1.00800000E+00  1.00800000E+00
  1.60000000E+01  1.00800000E+00  1.00800000E+00  1.60000000E+01  1.00800000E+00
  1.00800000E+00  1.60000000E+01  1.00800000E+00  1.00800000E+00  1.60000000E+01
  1.00800000E+00  1.00800000E+00  1.60000000E+01  1.00800000E+00  1.00800000E+00
  1.60000000E+01  1.00800000E+00  1.00800000E+00  1.60000000E+01  1.00800000E+00
  1.00800000E+00  1.60000000E+01  1.00800000E+00  1.00800000E+00  1.60000000E+01
  1.00800000E+00  1.00800000E+00  1.60000000E+01  1.00800000E+00  1.00800000E+00
  1.60000000E+01  1.00800000E+00  1.00800000E+00  1.60000000E+01  1.00800000E+00
  1.00800000E+00  1.60000000E+01  1.00800000E+00  1.00800000E+00  1.60000000E+01
  1.00800000E+00  1.00800000E+00  1.60000000E+01  1.00800000E+00  1.00800000E+00
  1.60000000E+01  1.00800000E+00  1.00800000E+00  1.60000000E+01  1.00800000E+00
  1.00800000E+00  1.60000000E+01  1.00800000E+00  1.00800000E+00  1.60000000E+01
  1.00800000E+00  1.00800000E+00  1.60000000E+01  1.00800000E+00  1.00800000E+00
  1.60000000E+01  1.00800000E+00  1.00800000E+00  1.60000000E+01  1.00800000E+00
  1.00800000E+00  1.60000000E+01  1.00800000E+00  1.00800000E+00  1.60000000E+01
  1.00800000E+00  1.00800000E+00  1.60000000E+01  1.00800000E+00  1.00800000E+00
  1.60000000E+01  1.00800000E+00  1.00800000E+00  1.60000000E+01  1.00800000E+00
  1.00800000E+00  1.60000000E+01  1.00800000E+00  1.00800000E+00  1.60000000E+01
  1.00800000E+00  1.00800000E+00  1.60000000E+01  1.00800000E+00  1.00800000E+00
  1.60000000E+01  1.00800000E+00  1.00800000E+00  1.60000000E+01  1.00800000E+00
  1.00800000E+00  1.60000000E+01  1.00800000E+00  1.00800000E+00  1.60000000E+01
  1.00800000E+00  1.00800000E+00  1.60000000E+01  1.00800000E+00  1.00800000E+00
  1.60000000E+01  1.00800000E+00  1.00800000E+00  1.60000000E+01  1.00800000E+00
  1.00800000E+00  1.60000000E+01  1.00800000E+00  1.00800000E+00  1.60000000E+01
  1.00800000E+00  1.00800000E+00  1.60000000E+01  1.00800000E+00  1.00800000E+00
  1.60000000E+01  1.00800000E+00  1.00800000E+00  1.60000000E+01  1.00800000E+00
  1.00800000E+00  1.60000000E+01  1.00800000E+00  1.00800000E+00  1.60000000E+01
  1.00800000E+00  1.00800000E+00  1.60000000E+01  1.00800000E+00  1.00800000E+00
  1.60000000E+01  1.00800000E+00  1.00800000E+00  1.60000000E+01  1.00800000E+00
  1.00800000E+00  1.60000000E+01  1.00800000E+00  1.00800000E+00  1.60000000E+01
  1.00800000E+00  1.00800000E+00  1.60000000E+01  1.00800000E+00  1.00800000E+00
  1.60000000E+01  1.00800000E+00  1.00800000E+00  1.60000000E+01  1.00800000E+00
  1.00800000E+00  1.60000000E+01  1.00800000E+00  1.00800000E+00  1.60000000E+01
  1.00800000E+00  1.00800000E+00  1.60000000E+01  1.00800000E+00  1.00800000E+00
  1.60000000E+01  1.00800000E+00  1.00800000E+00  1.60000000E+01  1.00800000E+00
  1.00800000E+00  1.60000000E+01  1.00800000E+00  1.00800000E+00  1.60000000E+01
  1.00800000E+00  1.00800000E+00  1.60000000E+01  1.00800000E+00  1.00800000E+00
  1.60000000E+01  1.00800000E+00  1.00800000E+00  1.60000000E+01  1.00800000E+00
  1.00800000E+00  1.60000000E+01  1.00800000E+00  1.00800000E+00  1.60000000E+01
  1.00800000E+00  1.00800000E+00  1.60000000E+01  1.00800000E+00  1.00800000E+00
  1.60000000E+01  1.00800000E+00  1.00800000E+00  1.60000000E+01  1.00800000E+00
  1.00800000E+00  1.60000000E+01  1.00800000E+00  1.00800000E+00  1.60000000E+01
  1.00800000E+00  1.00800000E+00  1.60000000E+01  1.00800000E+00  1.00800000E+00
  1.60000000E+01  1.00800000E+00  1.00800000E+00  1.60000000E+01  1.00800000E+00
  1.00800000E+00  1.60000000E+01  1.00800000E+00  1.00800000E+00  1.60000000E+01
  1.00800000E+00  1.00800000E+00  1.60000000E+01  1.00800000E+00  1.00800000E+00
  1.60000000E+01  1.00800000E+00  1.00800000E+00  1.60000000E+01  1.00800000E+00
  1.00800000E+00  1.60000000E+01  1.00800000E+00  1.00800000E+00  1.60000000E+01
  1.00800000E+00  1.00800000E+00  1.60000000E+01  1.00800000E+00  1.00800000E+00
  1.60000000E+01  1.00800000E+00  1.00800000E+00  1.60000000E+01  1.00800000E+00
  1.00800000E+00  1.60000000E+01  1.00800000E+00  1.00800000E+00  1.60000000E+01
  1.00800000E+00  1.00800000E+00  1.60000000E+01  1.00800000E+00  1.00800000E+00
  1.60000000E+01  1.00800000E+00  1.00800000E+00  1.60000000E+01  1.00800000E+00
  1.00800000E+00  1.60000000E+01  1.00800000E+00  1.00800000E+00  1.60000000E+01
  1.00800000E+00  1.00800000E+00  1.60000000E+01  1.00800000E+00  1.00800000E+00
  1.60000000E+01  1.00800000E+00  1.00800000E+00  1.60000000E+01  1.00800000E+00
  1.00800000E+00  1.60000000E+01  1.00800000E+00  1.00800000E+00  1.60000000E+01
  1.00800000E+00  1.00800000E+00  1.60000000E+01  1.00800000E+00  1.00800000E+00
  1.60000000E+01  1.00800000E+00  1.00800000E+00  1.60000000E+01  1.00800000E+00
  1.00800000E+00  1.60000000E+01  1.00800000E+00  1.00800000E+00  1.60000000E+01
  1.00800000E+00  1.00800000E+00  1.60000000E+01  1.00800000E+00  1.00800000E+00
  1.60000000E+01  1.00800000E+00  1.00800000E+00  1.60000000E+01  1.00800000E+00
  1.00800000E+00  1.60000000E+01  1.00800000E+00  1.00800000E+00  1.60000000E+01
  1.00800000E+00  1.00800000E+00  1.60000000E+01  1.00800000E+00  1.00800000E+00
  1.60000000E+01  1.00800000E+00  1.00800000E+00  1.60000000E+01  1.00800000E+00
  1.00800000E+00  1.60000000E+01  1.00800000E+00  1.00800000E+00  1.60000000E+01
  1.00800000E+00  1.00800000E+00  1.60000000E+01  1.00800000E+00  1.00800000E+00
  1.60000000E+01  1.00800000E+00  1.00800000E+00  1.60000000E+01  1.00800000E+00
  1.00800000E+00  1.60000000E+01  1.00800000E+00  1.00800000E+00  1.60000000E+01
  1.00800000E+00  1.00800000E+00  1.60000000E+01  1.00800000E+00  1.00800000E+00
  1.60000000E+01  1.00800000E+00  1.00800000E+00  1.60000000E+01  1.00800000E+00
  1.00800000E+00  1.60000000E+01  1.00800000E+00  1.00800000E+00  1.60000000E+01
  1.00800000E+00  1.00800000E+00  1.60000000E+01  1.00800000E+00  1.00800000E+00
  1.60000000E+01  1.00800000E+00  1.00800000E+00  1.60000000E+01  1.00800000E+00
  1.00800000E+00  1.60000000E+01  1.00800000E+00  1.00800000E+00  1.60000000E+01
  1.00800000E+00  1.00800000E+00  1.60000000E+01  1.00800000E+00  1.00800000E+00
  1.60000000E+01  1.00800000E+00  1.00800000E+00  1.60000000E+01  1.00800000E+00
  1.00800000E+00  1.60000000E+01  1.00800000E+00  1.00800000E+00  1.60000000E+01
  1.00800000E+00  1.00800000E+00  1.60000000E+01  1.00800000E+00  1.00800000E+00
  1.60000000E+01  1.00800000E+00  1.00800000E+00  1.60000000E+01  1.00800000E+00
  1.00800000E+00  1.60000000E+01  1.00800000E+00  1.00800000E+00  1.60000000E+01
  1.00800000E+00  1.00800000E+00  1.60000000E+01  1.00800000E+00  1.00800000E+00
  1.60000000E+01  1.00800000E+00  1.00800000E+00  1.60000000E+01  1.00800000E+00
  1.00800000E+00  1.60000000E+01  1.00800000E+00  1.00800000E+00  1.60000000E+01
  1.00800000E+00  1.00800000E+00  1.60000000E+01  1.00800000E+00  1.00800000E+00
  1.60000000E+01  1.00800000E+00  1.00800000E+00  1.60000000E+01  1.00800000E+00
  1.00800000E+00  1.60000000E+01  1.00800000E+00  1.00800000E+00  1.60000000E+01
  1.00800000E+00  1.00800000E+00  1.60000000E+01  1.00800000E+00  1.00800000E+00
  1.60000000E+01  1.00800000E+00  1.00800000E+00  1.60000000E+01  1.00800000E+00
  1.00800000E+00  1.60000000E+01  1.00800000E+00  1.00800000E+00  1.60000000E+01
  1.00800000E+00  1.00800000E+00  1.60000000E+01  1.00800000E+00  1.00800000E+00
  1.60000000E+01  1.00800000E+00  1.00800000E+00  1.60000000E+01  1.00800000E+00
  1.00800000E+00  1.60000000E+01  1.00800000E+00  1.00800000E+00  1.60000000E+01
  1.00800000E+00  1.00800000E+00  1.60000000E+01  1.00800000E+00  1.00800000E+00
  1.60000000E+01  1.00800000E+00  1.00800000E+00  1.60000000E+01  1.00800000E+00
  1.00800000E+00  1.60000000E+01  1.00800000E+00  1.00800000E+00  1.60000000E+01
  1.00800000E+00  1.00800000E+00  1.60000000E+01  1.00800000E+00  1.00800000E+00
  1.60000000E+01  1.00800000E+00  1.00800000E+00  1.60000000E+01  1.00800000E+00
  1.00800000E+00  1.60000000E+01  1.00800000E+00  1.00800000E+00  1.60000000E+01
  1.00800000E+00  1.00800000E+00  1.60000000E+01  1.00800000E+00  1.00800000E+00
  1.60000000E+01  1.00800000E+00  1.00800000E+00  1.60000000E+01  1.00800000E+00
  1.00800000E+00  1.60000000E+01  1.00800000E+00  1.00800000E+00  1.60000000E+01
  1.00800000E+00  1.00800000E+00  1.60000000E+01  1.00800000E+00  1.00800000E+00
  1.60000000E+01  1.00800000E+00  1.00800000E+00  1.60000000E+01  1.00800000E+00
  1.00800000E+00  1.60000000E+01  1.00800000E+00  1.00800000E+00  1.60000000E+01
  1.00800000E+00  1.00800000E+00  1.60000000E+01  1.00800000E+00  1.00800000E+00
  1.60000000E+01  1.00800000E+00  1.00800000E+00  1.60000000E+01  1.00800000E+00
  1.00800000E+00  1.60000000E+01  1.00800000E+00  1.00800000E+00  1.60000000E+01
  1.00800000E+00  1.00800000E+00  1.60000000E+01  1.00800000E+00  1.00800000E+00
  1.60000000E+01  1.00800000E+00  1.00800000E+00  1.60000000E+01  1.00800000E+00
  1.00800000E+00  1.60000000E+01  1.00800000E+00  1.00800000E+00  1.60000000E+01
  1.00800000E+00  1.00800000E+00  1.60000000E+01  1.00800000E+00  1.00800000E+00
  1.60000000E+01  1.00800000E+00  1.00800000E+00  1.60000000E+01  1.00800000E+00
  1.00800000E+00  1.60000000E+01  1.00800000E+00  1.00800000E+00  1.60000000E+01
  1.00800000E+00  1.00800000E+00  1.60000000E+01  1.00800000E+00  1.00800000E+00
  1.60000000E+01  1.00800000E+00  1.00800000E+00  1.60000000E+01  1.00800000E+00
  1.00800000E+00  1.60000000E+01  1.00800000E+00  1.00800000E+00  1.60000000E+01
  1.00800000E+00  1.00800000E+00  1.60000000E+01  1.00800000E+00  1.00800000E+00
  1.60000000E+01  1.00800000E+00  1.00800000E+00  1.60000000E+01  1.00800000E+00
  1.00800000E+00  1.60000000E+01  1.00800000E+00  1.00800000E+00  1.60000000E+01
  1.00800000E+00  1.00800000E+00  1.60000000E+01  1.00800000E+00  1.00800000E+00
  1.60000000E+01  1.00800000E+00  1.00800000E+00  1.60000000E+01  1.00800000E+00
  1.00800000E+00  1.60000000E+01  1.00800000E+00  1.00800000E+00  1.60000000E+01
  1.00800000E+00  1.00800000E+00  1.60000000E+01  1.00800000E+00  1.00800000E+00
  1.60000000E+01  1.00800000E+00  1.00800000E+00  1.60000000E+01  1.00800000E+00
  1.00800000E+00  1.60000000E+01  1.00800000E+00  1.00800000E+00  1.60000000E+01
  1.00800000E+00  1.00800000E+00  1.60000000E+01  1.00800000E+00  1.00800000E+00
  1.60000000E+01  1.00800000E+00  1.00800000E+00  1.60000000E+01  1.00800000E+00
  1.00800000E+00  1.60000000E+01  1.00800000E+00  1.00800000E+00  1.60000000E+01
  1.00800000E+00  1.00800000E+00  1.60000000E+01  1.00800000E+00  1.00800000E+00
  1.60000000E+01  1.00800000E+00  1.00800000E+00  1.60000000E+01  1.00800000E+00
  1.00800000E+00  1.60000000E+01  1.00800000E+00  1.00800000E+00  1.60000000E+01
  1.00800000E+00  1.00800000E+00  1.60000000E+01  1.00800000E+00  1.00800000E+00
  1.60000000E+01  1.00800000E+00  1.00800000E+00  1.60000000E+01  1.00800000E+00
  1.00800000E+00  1.60000000E+01  1.00800000E+00  1.00800000E+00  1.60000000E+01
  1.00800000E+00  1.00800000E+00  1.60000000E+01  1.00800000E+00  1.00800000E+00
  1.60000000E+01  1.00800000E+00  1.00800000E+00  1.60000000E+01  1.00800000E+00
  1.00800000E+00  1.60000000E+01  1.00800000E+00  1.00800000E+00  1.60000000E+01
  1.00800000E+00  1.00800000E+00  1.60000000E+01  1.00800000E+00  1.00800000E+00
  1.60000000E+01  1.00800000E+00  1.00800000E+00  1.60000000E+01  1.00800000E+00
  1.00800000E+00  1.60000000E+01  1.00800000E+00  1.00800000E+00  1.60000000E+01
  1.00800000E+00  1.00800000E+00  1.60000000E+01  1.00800000E+00  1.00800000E+00
  1.60000000E+01  1.00800000E+00  1.00800000E+00  1.60000000E+01  1.00800000E+00
  1.00800000E+00  1.60000000E+01  1.00800000E+00  1.00800000E+00  1.60000000E+01
  1.00800000E+00  1.00800000E+00  1.60000000E+01  1.00800000E+00  1.00800000E+00
  1.60000000E+01  1.00800000E+00  1.00800000E+00  1.60000000E+01  1.00800000E+00
  1.00800000E+00  1.60000000E+01  1.00800000E+00  1.00800000E+00  1.60000000E+01
  1.00800000E+00  1.00800000E+00  1.60000000E+01  1.00800000E+00  1.00800000E+00
  1.60000000E+01  1.00800000E+00  1.00800000E+00  1.60000000E+01  1.00800000E+00
  1.00800000E+00  1.60000000E+01  1.00800000E+00  1.00800000E+00  1.60000000E+01
  1.00800000E+00  1.00800000E+00  1.60000000E+01  1.00800000E+00  1.00800000E+00
  1.60000000E+01  1.00800000E+00  1.00800000E+00  1.60000000E+01  1.00800000E+00
  1.00800000E+00  1.60000000E+01  1.00800000E+00  1.00800000E+00  1.60000000E+01
  1.00800000E+00  1.00800000E+00  1.60000000E+01  1.00800000E+00  1.00800000E+00
  1.60000000E+01  1.00800000E+00  1.00800000E+00  1.60000000E+01  1.00800000E+00
  1.00800000E+00  1.60000000E+01  1.00800000E+00  1.00800000E+00  1.60000000E+01
  1.00800000E+00  1.00800000E+00  1.60000000E+01  1.00800000E+00  1.00800000E+00
  1.60000000E+01  1.00800000E+00  1.00800000E+00  1.60000000E+01  1.00800000E+00
  1.00800000E+00  1.60000000E+01  1.00800000E+00  1.00800000E+00  1.60000000E+01
  1.00800000E+00  1.00800000E+00  1.60000000E+01  1.00800000E+00  1.00800000E+00
  1.60000000E+01  1.00800000E+00  1.00800000E+00  1.60000000E+01  1.00800000E+00
  1.00800000E+00  1.60000000E+01  1.00800000E+00  1.00800000E+00  1.60000000E+01
  1.00800000E+00  1.00800000E+00  1.60000000E+01  1.00800000E+00  1.00800000E+00
  1.60000000E+01  1.00800000E+00  1.00800000E+00  1.60000000E+01  1.00800000E+00
  1.00800000E+00  1.60000000E+01  1.00800000E+00  1.00800000E+00  1.60000000E+01
  1.00800000E+00  1.00800000E+00  1.60000000E+01  1.00800000E+00  1.00800000E+00
  1.60000000E+01  1.00800000E+00  1.00800000E+00  1.60000000E+01  1.00800000E+00
  1.00800000E+00  1.60000000E+01  1.00800000E+00  1.00800000E+00  1.60000000E+01
  1.00800000E+00  1.00800000E+00  1.60000000E+01  1.00800000E+00  1.00800000E+00
  1.60000000E+01  1.00800000E+00  1.00800000E+00  1.60000000E+01  1.00800000E+00
  1.00800000E+00  1.60000000E+01  1.00800000E+00  1.00800000E+00  1.60000000E+01
  1.00800000E+00  1.00800000E+00  1.60000000E+01  1.00800000E+00  1.00800000E+00
  1.60000000E+01  1.00800000E+00  1.00800000E+00  1.60000000E+01  1.00800000E+00
  1.00800000E+00  1.60000000E+01  1.00800000E+00  1.00800000E+00  1.60000000E+01
  1.00800000E+00  1.00800000E+00  1.60000000E+01  1.00800000E+00  1.00800000E+00
  1.60000000E+01  1.00800000E+00  1.00800000E+00  1.60000000E+01  1.00800000E+00
  1.00800000E+00  1.60000000E+01  1.00800000E+00  1.00800000E+00  1.60000000E+01
  1.00800000E+00  1.00800000E+00  1.60000000E+01  1.00800000E+00  1.00800000E+00
  1.60000000E+01  1.00800000E+00  1.00800000E+00  1.60000000E+01  1.00800000E+00
  1.00800000E+00  1.60000000E+01  1.00800000E+00  1.00800000E+00  1.60000000E+01
  1.00800000E+00  1.00800000E+00  1.60000000E+01  1.00800000E+00  1.00800000E+00
  1.60000000E+01  1.00800000E+00  1.00800000E+00  1.60000000E+01  1.00800000E+00
  1.00800000E+00  1.60000000E+01  1.00800000E+00  1.00800000E+00  1.60000000E+01
  1.00800000E+00  1.00800000E+00  1.60000000E+01  1.00800000E+00  1.00800000E+00
  1.60000000E+01  1.00800000E+00  1.00800000E+00  1.60000000E+01  1.00800000E+00
  1.00800000E+00  1.60000000E+01  1.00800000E+00  1.00800000E+00  1.60000000E+01
  1.00800000E+00  1.00800000E+00  1.60000000E+01  1.00800000E+00  1.00800000E+00
  1.60000000E+01  1.00800000E+00  1.00800000E+00  1.60000000E+01  1.00800000E+00
  1.00800000E+00  1.60000000E+01  1.00800000E+00  1.00800000E+00  1.60000000E+01
  1.00800000E+00  1.00800000E+00  1.60000000E+01  1.00800000E+00  1.00800000E+00
  1.60000000E+01  1.00800000E+00  1.00800000E+00  1.60000000E+01  1.00800000E+00
  1.00800000E+00  1.60000000E+01  1.00800000E+00  1.00800000E+00  1.60000000E+01
  1.00800000E+00  1.00800000E+00  1.60000000E+01  1.00800000E+00  1.00800000E+00
  1.60000000E+01  1.00800000E+00  1.00800000E+00  1.60000000E+01  1.00800000E+00
  1.00800000E+00  1.60000000E+01  1.00800000E+00  1.00800000E+00  1.60000000E+01
  1.00800000E+00  1.00800000E+00  1.60000000E+01  1.00800000E+00  1.00800000E+00
  1.60000000E+01  1.00800000E+00  1.00800000E+00  1.60000000E+01  1.00800000E+00
  1.00800000E+00  1.60000000E+01  1.00800000E+00  1.00800000E+00  1.60000000E+01
  1.00800000E+00  1.00800000E+00  1.60000000E+01  1.00800000E+00  1.00800000E+00
  1.60000000E+01  1.00800000E+00  1.00800000E+00  1.60000000E+01  1.00800000E+00
  1.00800000E+00  1.60000000E+01  1.00800000E+00  1.00800000E+00  1.60000000E+01
  1.00800000E+00  1.00800000E+00  1.60000000E+01  1.00800000E+00  1.00800000E+00
  1.60000000E+01  1.00800000E+00  1.00800000E+00  1.60000000E+01  1.00800000E+00
  1.00800000E+00  1.60000000E+01  1.00800000E+00  1.00800000E+00  1.60000000E+01
  1.00800000E+00  1.00800000E+00  1.60000000E+01  1.00800000E+00  1.00800000E+00
  1.60000000E+01  1.00800000E+00  1.00800000E+00  1.60000000E+01  1.00800000E+00
  1.00800000E+00  1.60000000E+01  1.00800000E+00  1.00800000E+00  1.60000000E+01
  1.00800000E+00  1.00800000E+00  1.60000000E+01  1.00800000E+00  1.00800000E+00
  1.60000000E+01  1.00800000E+00  1.00800000E+00  1.60000000E+01  1.00800000E+00
  1.00800000E+00  1.60000000E+01  1.00800000E+00  1.00800000E+00  1.60000000E+01
  1.00800000E+00  1.00800000E+00  1.60000000E+01  1.00800000E+00  1.00800000E+00
  1.60000000E+01  1.00800000E+00  1.00800000E+00  1.60000000E+01  1.00800000E+00
  1.00800000E+00  1.60000000E+01  1.00800000E+00  1.00800000E+00  1.60000000E+01
  1.00800000E+00  1.00800000E+00  1.60000000E+01  1.00800000E+00  1.00800000E+00
  1.60000000E+01  1.00800000E+00  1.00800000E+00  1.60000000E+01  1.00800000E+00
  1.00800000E+00  1.60000000E+01  1.00800000E+00  1.00800000E+00  1.60000000E+01
  1.00800000E+00  1.00800000E+00  1.60000000E+01  1.00800000E+00  1.00800000E+00
  1.60000000E+01  1.00800000E+00  1.00800000E+00  1.60000000E+01  1.00800000E+00
  1.00800000E+00  1.60000000E+01  1.00800000E+00  1.00800000E+00  1.60000000E+01
  1.00800000E+00  1.00800000E+00  1.60000000E+01  1.00800000E+00  1.00800000E+00
  1.60000000E+01  1.00800000E+00  1.00800000E+00  1.60000000E+01  1.00800000E+00
  1.00800000E+00  1.60000000E+01  1.00800000E+00  1.00800000E+00  1.60000000E+01
  1.00800000E+00  1.00800000E+00  1.60000000E+01  1.00800000E+00  1.00800000E+00
  1.60000000E+01  1.00800000E+00  1.00800000E+00  1.60000000E+01  1.00800000E+00
  1.00800000E+00  1.60000000E+01  1.00800000E+00  1.00800000E+00  1.60000000E+01
  1.00800000E+00  1.00800000E+00  1.60000000E+01  1.00800000E+00  1.00800000E+00
  1.60000000E+01  1.00800000E+00  1.00800000E+00  1.60000000E+01  1.00800000E+00
  1.00800000E+00  1.60000000E+01  1.00800000E+00  1.00800000E+00  1.60000000E+01
  1.00800000E+00  1.00800000E+00  1.60000000E+01  1.00800000E+00  1.00800000E+00
  1.60000000E+01  1.00800000E+00  1.00800000E+00  1.60000000E+01  1.00800000E+00
  1.00800000E+00  1.60000000E+01  1.00800000E+00  1.00800000E+00  1.60000000E+01
  1.00800000E+00  1.00800000E+00  1.60000000E+01  1.00800000E+00  1.00800000E+00
  1.60000000E+01  1.00800000E+00  1.00800000E+00  1.60000000E+01  1.00800000E+00
  1.00800000E+00  1.60000000E+01  1.00800000E+00  1.00800000E+00  1.60000000E+01
  1.00800000E+00  1.00800000E+00  1.60000000E+01  1.00800000E+00  1.00800000E+00
  1.60000000E+01  1.00800000E+00  1.00800000E+00  1.60000000E+01  1.00800000E+00
  1.00800000E+00  1.60000000E+01  1.00800000E+00  1.00800000E+00  1.60000000E+01
  1.00800000E+00  1.00800000E+00  1.60000000E+01  1.00800000E+00  1.00800000E+00
  1.60000000E+01  1.00800000E+00  1.00800000E+00  1.60000000E+01  1.00800000E+00
  1.00800000E+00  1.60000000E+01  1.00800000E+00  1.00800000E+00  1.60000000E+01
  1.00800000E+00  1.00800000E+00  1.60000000E+01  1.00800000E+00  1.00800000E+00
  1.60000000E+01  1.00800000E+00  1.00800000E+00  1.60000000E+01  1.00800000E+00
  1.00800000E+00  1.60000000E+01  1.00800000E+00  1.00800000E+00  1.60000000E+01
  1.00800000E+00  1.00800000E+00  1.60000000E+01  1.00800000E+00  1.00800000E+00
  1.60000000E+01  1.00800000E+00  1.00800000E+00  1.60000000E+01  1.00800000E+00
  1.00800000E+00  1.60000000E+01  1.00800000E+00  1.00800000E+00  1.60000000E+01
  1.00800000E+00  1.00800000E+00  1.60000000E+01  1.00800000E+00  1.00800000E+00
  1.60000000E+01  1.00800000E+00  1.00800000E+00  1.60000000E+01  1.00800000E+00
  1.00800000E+00  1.60000000E+01  1.00800000E+00  1.00800000E+00  1.60000000E+01
  1.00800000E+00  1.00800000E+00  1.60000000E+01  1.00800000E+00  1.00800000E+00
  1.60000000E+01  1.00800000E+00  1.00800000E+00  1.60000000E+01  1.00800000E+00
  1.00800000E+00  1.60000000E+01  1.00800000E+00  1.00800000E+00  1.60000000E+01
  1.00800000E+00  1.00800000E+00  1.60000000E+01  1.00800000E+00  1.00800000E+00
  1.60000000E+01  1.00800000E+00  1.00800000E+00  1.60000000E+01  1.00800000E+00
  1.00800000E+00  1.60000000E+01  1.00800000E+00  1.00800000E+00  1.60000000E+01
  1.00800000E+00  1.00800000E+00  1.60000000E+01  1.00800000E+00  1.00800000E+00
  1.60000000E+01  1.00800000E+00  1.00800000E+00  1.60000000E+01  1.00800000E+00
  1.00800000E+00  1.60000000E+01  1.00800000E+00  1.00800000E+00  1.60000000E+01
  1.00800000E+00  1.00800000E+00  1.60000000E+01  1.00800000E+00  1.00800000E+00
  1.60000000E+01  1.00800000E+00  1.00800000E+00  1.60000000E+01  1.00800000E+00
  1.00800000E+00  1.60000000E+01  1.00800000E+00  1.00800000E+00  1.60000000E+01
  1.00800000E+00  1.00800000E+00  1.60000000E+01  1.00800000E+00  1.00800000E+00
  1.60000000E+01  1.00800000E+00  1.00800000E+00  1.60000000E+01  1.00800000E+00
  1.00800000E+00  1.60000000E+01  1.00800000E+00  1.00800000E+00  1.60000000E+01
  1.00800000E+00  1.00800000E+00  1.60000000E+01  1.00800000E+00  1.00800000E+00
  1.60000000E+01  1.00800000E+00  1.00800000E+00  1.60000000E+01  1.00800000E+00
  1.00800000E+00  1.60000000E+01  1.00800000E+00  1.00800000E+00  1.60000000E+01
  1.00800000E+00  1.00800000E+00  1.60000000E+01  1.00800000E+00  1.00800000E+00
  1.60000000E+01  1.00800000E+00  1.00800000E+00  1.60000000E+01  1.00800000E+00
  1.00800000E+00  1.60000000E+01  1.00800000E+00  1.00800000E+00  1.60000000E+01
  1.00800000E+00  1.00800000E+00  1.60000000E+01  1.00800000E+00  1.00800000E+00
  1.60000000E+01  1.00800000E+00  1.00800000E+00  1.60000000E+01  1.00800000E+00
  1.00800000E+00  1.60000000E+01  1.00800000E+00  1.00800000E+00  1.60000000E+01
  1.00800000E+00  1.00800000E+00  1.60000000E+01  1.00800000E+00  1.00800000E+00
  1.60000000E+01  1.00800000E+00  1.00800000E+00  1.60000000E+01  1.00800000E+00
  1.00800000E+00  1.60000000E+01  1.00800000E+00  1.00800000E+00  1.60000000E+01
  1.00800000E+00  1.00800000E+00  1.60000000E+01  1.00800000E+00  1.00800000E+00
  1.60000000E+01  1.00800000E+00  1.00800000E+00  1.60000000E+01  1.00800000E+00
  1.00800000E+00  1.60000000E+01  1.00800000E+00  1.00800000E+00  1.60000000E+01
  1.00800000E+00  1.00800000E+00  1.60000000E+01  1.00800000E+00  1.00800000E+00
  1.60000000E+01  1.00800000E+00  1.00800000E+00  1.60000000E+01  1.00800000E+00
  1.00800000E+00  1.60000000E+01  1.00800000E+00  1.00800000E+00  1.60000000E+01
  1.00800000E+00  1.00800000E+00  1.60000000E+01  1.00800000E+00  1.00800000E+00
  1.60000000E+01  1.00800000E+00  1.00800000E+00  1.60000000E+01  1.00800000E+00
  1.00800000E+00  1.60000000E+01  1.00800000E+00  1.00800000E+00  1.60000000E+01
  1.00800000E+00  1.00800000E+00  1.60000000E+01  1.00800000E+00  1.00800000E+00
  1.60000000E+01  1.00800000E+00  1.00800000E+00  1.60000000E+01  1.00800000E+00
  1.00800000E+00  1.60000000E+01  1.00800000E+00  1.00800000E+00  1.60000000E+01
  1.00800000E+00  1.00800000E+00  1.60000000E+01  1.00800000E+00  1.00800000E+00
  1.60000000E+01  1.00800000E+00  1.00800000E+00  1.60000000E+01  1.00800000E+00
  1.00800000E+00  1.60000000E+01  1.00800000E+00  1.00800000E+00  1.60000000E+01
  1.00800000E+00  1.00800000E+00  1.60000000E+01  1.00800000E+00  1.00800000E+00
  1.60000000E+01  1.00800000E+00  1.00800000E+00  1.60000000E+01  1.00800000E+00
  1.00800000E+00  1.60000000E+01  1.00800000E+00  1.00800000E+00  1.60000000E+01
  1.00800000E+00  1.00800000E+00  1.60000000E+01  1.00800000E+00  1.00800000E+00
  1.60000000E+01  1.00800000E+00  1.00800000E+00  1.60000000E+01  1.00800000E+00
  1.00800000E+00  1.60000000E+01  1.00800000E+00  1.00800000E+00  1.60000000E+01
  1.00800000E+00  1.00800000E+00  1.60000000E+01  1.00800000E+00  1.00800000E+00
  1.60000000E+01  1.00800000E+00  1.00800000E+00  1.60000000E+01  1.00800000E+00
  1.00800000E+00  1.60000000E+01  1.00800000E+00  1.00800000E+00  1.60000000E+01
  1.00800000E+00  1.00800000E+00  1.60000000E+01  1.00800000E+00  1.00800000E+00
  1.60000000E+01  1.00800000E+00  1.00800000E+00  1.60000000E+01  1.00800000E+00
  1.00800000E+00  1.60000000E+01  1.00800000E+00  1.00800000E+00  1.60000000E+01
  1.00800000E+00  1.00800000E+00  1.60000000E+01  1.00800000E+00  1.00800000E+00
  1.60000000E+01  1.00800000E+00  1.00800000E+00  1.60000000E+01  1.00800000E+00
  1.00800000E+00  1.60000000E+01  1.00800000E+00  1.00800000E+00  1.60000000E+01
  1.00800000E+00  1.00800000E+00  1.60000000E+01  1.00800000E+00  1.00800000E+00
  1.60000000E+01  1.00800000E+00  1.00800000E+00  1.60000000E+01  1.00800000E+00
  1.00800000E+00  1.60000000E+01  1.00800000E+00  1.00800000E+00  1.60000000E+01
  1.00800000E+00  1.00800000E+00  1.60000000E+01  1.00800000E+00  1.00800000E+00
  1.60000000E+01  1.00800000E+00  1.00800000E+00  1.60000000E+01  1.00800000E+00
  1.00800000E+00  1.60000000E+01  1.00800000E+00  1.00800000E+00  1.60000000E+01
  1.00800000E+00  1.00800000E+00  1.60000000E+01  1.00800000E+00  1.00800000E+00
  1.60000000E+01  1.00800000E+00  1.00800000E+00  1.60000000E+01  1.00800000E+00
  1.00800000E+00  1.60000000E+01  1.00800000E+00  1.00800000E+00  1.60000000E+01
  1.00800000E+00  1.00800000E+00  1.60000000E+01  1.00800000E+00  1.00800000E+00
  1.60000000E+01  1.00800000E+00  1.00800000E+00  1.60000000E+01  1.00800000E+00
  1.00800000E+00  1.60000000E+01  1.00800000E+00  1.00800000E+00  1.60000000E+01
  1.00800000E+00  1.00800000E+00  1.60000000E+01  1.00800000E+00  1.00800000E+00
  1.60000000E+01  1.00800000E+00  1.00800000E+00  1.60000000E+01  1.00800000E+00
  1.00800000E+00  1.60000000E+01  1.00800000E+00  1.00800000E+00  1.60000000E+01
  1.00800000E+00  1.00800000E+00  1.60000000E+01  1.00800000E+00  1.00800000E+00
  1.60000000E+01  1.00800000E+00  1.00800000E+00  1.60000000E+01  1.00800000E+00
  1.00800000E+00  1.60000000E+01  1.00800000E+00  1.00800000E+00  1.60000000E+01
  1.00800000E+00  1.00800000E+00  1.60000000E+01  1.00800000E+00  1.00800000E+00
  1.60000000E+01  1.00800000E+00  1.00800000E+00  1.60000000E+01  1.00800000E+00
  1.00800000E+00  1.60000000E+01  1.00800000E+00  1.00800000E+00  1.60000000E+01
  1.00800000E+00  1.00800000E+00  1.60000000E+01  1.00800000E+00  1.00800000E+00
  1.60000000E+01  1.00800000E+00  1.00800000E+00  1.60000000E+01  1.00800000E+00
  1.00800000E+00  1.60000000E+01  1.00800000E+00  1.00800000E+00  1.60000000E+01
  1.00800000E+00  1.00800000E+00  1.60000000E+01  1.00800000E+00  1.00800000E+00
  1.60000000E+01  1.00800000E+00  1.00800000E+00  1.60000000E+01  1.00800000E+00
  1.00800000E+00  1.60000000E+01  1.00800000E+00  1.00800000E+00  1.60000000E+01
  1.00800000E+00  1.00800000E+00  1.60000000E+01  1.00800000E+00  1.00800000E+00
  1.60000000E+01  1.00800000E+00  1.00800000E+00  1.60000000E+01  1.00800000E+00
  1.00800000E+00  1.60000000E+01  1.00800000E+00  1.00800000E+00  1.60000000E+01
  1.00800000E+00  1.00800000E+00  1.60000000E+01  1.00800000E+00  1.00800000E+00
  1.60000000E+01  1.00800000E+00  1.00800000E+00  1.60000000E+01  1.00800000E+00
  1.00800000E+00  1.60000000E+01  1.00800000E+00  1.00800000E+00  1.60000000E+01
  1.00800000E+00  1.00800000E+00  1.60000000E+01  1.00800000E+00  1.00800000E+00
  1.60000000E+01  1.00800000E+00  1.00800000E+00  1.60000000E+01  1.00800000E+00
  1.00800000E+00  1.60000000E+01  1.00800000E+00  1.00800000E+00  1.60000000E+01
  1.00800000E+00  1.00800000E+00  1.60000000E+01  1.00800000E+00  1.00800000E+00
  1.60000000E+01  1.00800000E+00  1.00800000E+00  1.60000000E+01  1.00800000E+00
  1.00800000E+00  1.60000000E+01  1.00800000E+00  1.00800000E+00  1.60000000E+01
  1.00800000E+00  1.00800000E+00  1.60000000E+01  1.00800000E+00  1.00800000E+00
  1.60000000E+01  1.00800000E+00  1.00800000E+00  1.60000000E+01  1.00800000E+00
  1.00800000E+00  1.60000000E+01  1.00800000E+00  1.00800000E+00  1.60000000E+01
  1.00800000E+00  1.00800000E+00  1.60000000E+01  1.00800000E+00  1.00800000E+00
  1.60000000E+01  1.00800000E+00  1.00800000E+00  1.60000000E+01  1.00800000E+00
  1.00800000E+00  1.60000000E+01  1.00800000E+00  1.00800000E+00  1.60000000E+01
  1.00800000E+00  1.00800000E+00  1.60000000E+01  1.00800000E+00  1.00800000E+00
  1.60000000E+01  1.00800000E+00  1.00800000E+00  1.60000000E+01  1.00800000E+00
  1.00800000E+00  1.60000000E+01  1.00800000E+00  1.00800000E+00  1.60000000E+01
  1.00800000E+00  1.00800000E+00  1.60000000E+01  1.00800000E+00  1.00800000E+00
  1.60000000E+01  1.00800000E+00  1.00800000E+00  1.60000000E+01  1.00800000E+00
  1.00800000E+00  1.60000000E+01  1.00800000E+00  1.00800000E+00  1.60000000E+01
  1.00800000E+00  1.00800000E+00  1.60000000E+01  1.00800000E+00  1.00800000E+00
  1.60000000E+01  1.00800000E+00  1.00800000E+00  1.60000000E+01  1.00800000E+00
  1.00800000E+00  1.60000000E+01  1.00800000E+00  1.00800000E+00  1.60000000E+01
  1.00800000E+00  1.00800000E+00  1.60000000E+01  1.00800000E+00  1.00800000E+00
  1.60000000E+01  1.00800000E+00  1.00800000E+00  1.60000000E+01  1.00800000E+00
  1.00800000E+00  1.60000000E+01  1.00800000E+00  1.00800000E+00  1.60000000E+01
  1.00800000E+00  1.00800000E+00  1.60000000E+01  1.00800000E+00  1.00800000E+00
  1.60000000E+01  1.00800000E+00  1.00800000E+00  1.60000000E+01  1.00800000E+00
  1.00800000E+00  1.60000000E+01  1.00800000E+00  1.00800000E+00  1.60000000E+01
  1.00800000E+00  1.00800000E+00  1.60000000E+01  1.00800000E+00  1.00800000E+00
  1.60000000E+01  1.00800000E+00  1.00800000E+00  1.60000000E+01  1.00800000E+00
  1.00800000E+00  1.60000000E+01  1.00800000E+00  1.00800000E+00  1.60000000E+01
  1.00800000E+00  1.00800000E+00  1.60000000E+01  1.00800000E+00  1.00800000E+00
  1.60000000E+01  1.00800000E+00  1.00800000E+00  1.60000000E+01  1.00800000E+00
  1.00800000E+00  1.60000000E+01  1.00800000E+00  1.00800000E+00  1.60000000E+01
  1.00800000E+00  1.00800000E+00  1.60000000E+01  1.00800000E+00  1.00800000E+00
  1.60000000E+01  1.00800000E+00  1.00800000E+00  1.60000000E+01  1.00800000E+00
  1.00800000E+00  1.60000000E+01  1.00800000E+00  1.00800000E+00  1.60000000E+01
  1.00800000E+00  1.00800000E+00  1.60000000E+01  1.00800000E+00  1.00800000E+00
  1.60000000E+01  1.00800000E+00  1.00800000E+00  1.60000000E+01  1.00800000E+00
  1.00800000E+00  1.60000000E+01  1.00800000E+00  1.00800000E+00  1.60000000E+01
  1.00800000E+00  1.00800000E+00  1.60000000E+01  1.00800000E+00  1.00800000E+00
  1.60000000E+01  1.00800000E+00  1.00800000E+00  1.60000000E+01  1.00800000E+00
  1.00800000E+00  1.60000000E+01  1.00800000E+00  1.00800000E+00  1.60000000E+01
  1.00800000E+00  1.00800000E+00  1.60000000E+01  1.00800000E+00  1.00800000E+00
  1.60000000E+01  1.00800000E+00  1.00800000E+00  1.60000000E+01  1.00800000E+00
  1.00800000E+00  1.60000000E+01  1.00800000E+00  1.00800000E+00  1.60000000E+01
  1.00800000E+00  1.00800000E+00  1.60000000E+01  1.00800000E+00  1.00800000E+00
  1.60000000E+01  1.00800000E+00  1.00800000E+00  1.60000000E+01  1.00800000E+00
  1.00800000E+00  1.60000000E+01  1.00800000E+00  1.00800000E+00  1.60000000E+01
  1.00800000E+00  1.00800000E+00  1.60000000E+01  1.00800000E+00  1.00800000E+00
  1.60000000E+01  1.00800000E+00  1.00800000E+00  1.60000000E+01  1.00800000E+00
  1.00800000E+00  1.60000000E+01  1.00800000E+00  1.00800000E+00  1.60000000E+01
  1.00800000E+00  1.00800000E+00  1.60000000E+01  1.00800000E+00  1.00800000E+00
  1.60000000E+01  1.00800000E+00  1.00800000E+00  1.60000000E+01  1.00800000E+00
  1.00800000E+00  1.60000000E+01  1.00800000E+00  1.00800000E+00  1.60000000E+01
  1.00800000E+00  1.00800000E+00  1.60000000E+01  1.00800000E+00  1.00800000E+00
  1.60000000E+01  1.00800000E+00  1.00800000E+00  1.60000000E+01  1.00800000E+00
  1.00800000E+00  1.60000000E+01  1.00800000E+00  1.00800000E+00  1.60000000E+01
  1.00800000E+00  1.00800000E+00  1.60000000E+01  1.00800000E+00  1.00800000E+00
  1.60000000E+01  1.00800000E+00  1.00800000E+00  1.60000000E+01  1.00800000E+00
  1.00800000E+00  1.60000000E+01  1.00800000E+00  1.00800000E+00  1.60000000E+01
  1.00800000E+00  1.00800000E+00  1.60000000E+01  1.00800000E+00  1.00800000E+00
  1.60000000E+01  1.00800000E+00  1.00800000E+00  1.60000000E+01  1.00800000E+00
  1.00800000E+00  1.60000000E+01  1.00800000E+00  1.00800000E+00  1.60000000E+01
  1.00800000E+00  1.00800000E+00  1.60000000E+01  1.00800000E+00  1.00800000E+00
  1.60000000E+01  1.00800000E+00  1.00800000E+00  1.60000000E+01  1.00800000E+00
  1.00800000E+00  1.60000000E+01  1.00800000E+00  1.00800000E+00  1.60000000E+01
  1.00800000E+00  1.00800000E+00  1.60000000E+01  1.00800000E+00  1.00800000E+00
  1.60000000E+01  1.00800000E+00  1.00800000E+00  1.60000000E+01  1.00800000E+00
  1.00800000E+00  1.60000000E+01  1.00800000E+00  1.00800000E+00  1.60000000E+01
  1.00800000E+00  1.00800000E+00  1.60000000E+01  1.00800000E+00  1.00800000E+00
  1.60000000E+01  1.00800000E+00  1.00800000E+00  1.60000000E+01  1.00800000E+00
  1.00800000E+00  1.60000000E+01  1.00800000E+00  1.00800000E+00  1.60000000E+01
  1.00800000E+00  1.00800000E+00  1.60000000E+01  1.00800000E+00  1.00800000E+00
  1.60000000E+01  1.00800000E+00  1.00800000E+00  1.60000000E+01  1.00800000E+00
  1.00800000E+00  1.60000000E+01  1.00800000E+00  1.00800000E+00  1.60000000E+01
  1.00800000E+00  1.00800000E+00  1.60000000E+01  1.00800000E+00  1.00800000E+00
  1.60000000E+01  1.00800000E+00  1.00800000E+00  1.60000000E+01  1.00800000E+00
  1.00800000E+00  1.60000000E+01  1.00800000E+00  1.00800000E+00  1.60000000E+01
  1.00800000E+00  1.00800000E+00  1.60000000E+01  1.00800000E+00  1.00800000E+00
  1.60000000E+01  1.00800000E+00  1.00800000E+00  1.60000000E+01  1.00800000E+00
  1.00800000E+00  1.60000000E+01  1.00800000E+00  1.00800000E+00  1.60000000E+01
  1.00800000E+00  1.00800000E+00  1.60000000E+01  1.00800000E+00  1.00800000E+00
  1.60000000E+01  1.00800000E+00  1.00800000E+00  1.60000000E+01  1.00800000E+00
  1.00800000E+00  1.60000000E+01  1.00800000E+00  1.00800000E+00  1.60000000E+01
  1.00800000E+00  1.00800000E+00  1.60000000E+01  1.00800000E+00  1.00800000E+00
  1.60000000E+01  1.00800000E+00  1.00800000E+00  1.60000000E+01  1.00800000E+00
  1.00800000E+00  1.60000000E+01  1.00800000E+00  1.00800000E+00  1.60000000E+01
  1.00800000E+00  1.00800000E+00  1.60000000E+01  1.00800000E+00  1.00800000E+00
  1.60000000E+01  1.00800000E+00  1.00800000E+00  1.60000000E+01  1.00800000E+00
  1.00800000E+00  1.60000000E+01  1.00800000E+00  1.00800000E+00  1.60000000E+01
  1.00800000E+00  1.00800000E+00  1.60000000E+01  1.00800000E+00  1.00800000E+00
  1.60000000E+01  1.00800000E+00  1.00800000E+00  1.60000000E+01  1.00800000E+00
  1.00800000E+00  1.60000000E+01  1.00800000E+00  1.00800000E+00  1.60000000E+01
  1.00800000E+00  1.00800000E+00  1.60000000E+01  1.00800000E+00  1.00800000E+00
  1.60000000E+01  1.00800000E+00  1.00800000E+00  1.60000000E+01  1.00800000E+00
  1.00800000E+00  1.60000000E+01  1.00800000E+00  1.00800000E+00  1.60000000E+01
  1.00800000E+00  1.00800000E+00  1.60000000E+01  1.00800000E+00  1.00800000E+00
  1.60000000E+01  1.00800000E+00  1.00800000E+00  1.60000000E+01  1.00800000E+00
  1.00800000E+00  1.60000000E+01  1.00800000E+00  1.00800000E+00  1.60000000E+01
  1.00800000E+00  1.00800000E+00  1.60000000E+01  1.00800000E+00  1.00800000E+00
  1.60000000E+01  1.00800000E+00  1.00800000E+00  1.60000000E+01  1.00800000E+00
  1.00800000E+00  1.60000000E+01  1.00800000E+00  1.00800000E+00  1.60000000E+01
  1.00800000E+00  1.00800000E+00  1.60000000E+01  1.00800000E+00  1.00800000E+00
  1.60000000E+01  1.00800000E+00  1.00800000E+00  1.60000000E+01  1.00800000E+00
  1.00800000E+00  1.60000000E+01  1.00800000E+00  1.00800000E+00  1.60000000E+01
  1.00800000E+00  1.00800000E+00  1.60000000E+01  1.00800000E+00  1.00800000E+00
  1.60000000E+01  1.00800000E+00  1.00800000E+00  1.60000000E+01  1.00800000E+00
  1.00800000E+00  1.60000000E+01  1.00800000E+00  1.00800000E+00  1.60000000E+01
  1.00800000E+00  1.00800000E+00  1.60000000E+01  1.00800000E+00  1.00800000E+00
  1.60000000E+01  1.00800000E+00  1.00800000E+00  1.60000000E+01  1.00800000E+00
  1.00800000E+00  1.60000000E+01  1.00800000E+00  1.00800000E+00  1.60000000E+01
  1.00800000E+00  1.00800000E+00  1.60000000E+01  1.00800000E+00  1.00800000E+00
  1.60000000E+01  1.00800000E+00  1.00800000E+00  1.60000000E+01  1.00800000E+00
  1.00800000E+00  1.60000000E+01  1.00800000E+00  1.00800000E+00  1.60000000E+01
  1.00800000E+00  1.00800000E+00  1.60000000E+01  1.00800000E+00  1.00800000E+00
  1.60000000E+01  1.00800000E+00  1.00800000E+00  1.60000000E+01  1.00800000E+00
  1.00800000E+00  1.60000000E+01  1.00800000E+00  1.00800000E+00  1.60000000E+01
  1.00800000E+00  1.00800000E+00  1.60000000E+01  1.00800000E+00  1.00800000E+00
  1.60000000E+01  1.00800000E+00  1.00800000E+00  1.60000000E+01  1.00800000E+00
  1.00800000E+00  1.60000000E+01  1.00800000E+00  1.00800000E+00  1.60000000E+01
  1.00800000E+00  1.00800000E+00  1.60000000E+01  1.00800000E+00  1.00800000E+00
  1.60000000E+01  1.00800000E+00  1.00800000E+00  1.60000000E+01  1.00800000E+00
  1.00800000E+00  1.60000000E+01  1.00800000E+00  1.00800000E+00  1.60000000E+01
  1.00800000E+00  1.00800000E+00  1.60000000E+01  1.00800000E+00  1.00800000E+00
  1.60000000E+01  1.00800000E+00  1.00800000E+00  1.60000000E+01  1.00800000E+00
  1.00800000E+00  1.60000000E+01  1.00800000E+00  1.00800000E+00  1.60000000E+01
  1.00800000E+00  1.00800000E+00  1.60000000E+01  1.00800000E+00  1.00800000E+00
  1.60000000E+01  1.00800000E+00  1.00800000E+00  1.60000000E+01  1.00800000E+00
  1.00800000E+00  1.60000000E+01  1.00800000E+00  1.00800000E+00  1.60000000E+01
  1.00800000E+00  1.00800000E+00  1.60000000E+01  1.00800000E+00  1.00800000E+00
  1.60000000E+01  1.00800000E+00  1.00800000E+00  1.60000000E+01  1.00800000E+00
  1.00800000E+00  1.60000000E+01  1.00800000E+00  1.00800000E+00  1.60000000E+01
  1.00800000E+00  1.00800000E+00  1.60000000E+01  1.00800000E+00  1.00800000E+00
  1.60000000E+01  1.00800000E+00  1.00800000E+00  1.60000000E+01  1.00800000E+00
  1.00800000E+00  1.60000000E+01  1.00800000E+00  1.00800000E+00  1.60000000E+01
  1.00800000E+00  1.00800000E+00  1.60000000E+01  1.00800000E+00  1.00800000E+00
  1.60000000E+01  1.00800000E+00  1.00800000E+00  1.60000000E+01  1.00800000E+00
  1.00800000E+00  1.60000000E+01  1.00800000E+00  1.00800000E+00  1.60000000E+01
  1.00800000E+00  1.00800000E+00  1.60000000E+01  1.00800000E+00  1.00800000E+00
  1.60000000E+01  1.00800000E+00  1.00800000E+00  1.60000000E+01  1.00800000E+00
  1.00800000E+00  1.60000000E+01  1.00800000E+00  1.00800000E+00  1.60000000E+01
  1.00800000E+00  1.00800000E+00  1.60000000E+01  1.00800000E+00  1.00800000E+00
  1.60000000E+01  1.00800000E+00  1.00800000E+00  1.60000000E+01  1.00800000E+00
  1.00800000E+00  1.60000000E+01  1.00800000E+00  1.00800000E+00  1.60000000E+01
  1.00800000E+00  1.00800000E+00  1.60000000E+01  1.00800000E+00  1.00800000E+00
  1.60000000E+01  1.00800000E+00  1.00800000E+00  1.60000000E+01  1.00800000E+00
  1.00800000E+00  1.60000000E+01  1.00800000E+00  1.00800000E+00  1.60000000E+01
  1.00800000E+00  1.00800000E+00  1.60000000E+01  1.00800000E+00  1.00800000E+00
  1.60000000E+01  1.00800000E+00  1.00800000E+00  1.60000000E+01  1.00800000E+00
  1.00800000E+00  1.60000000E+01  1.00800000E+00  1.00800000E+00  1.60000000E+01
  1.00800000E+00  1.00800000E+00  1.60000000E+01  1.00800000E+00  1.00800000E+00
  1.60000000E+01  1.00800000E+00  1.00800000E+00  1.60000000E+01  1.00800000E+00
  1.00800000E+00  1.60000000E+01  1.00800000E+00  1.00800000E+00  1.60000000E+01
  1.00800000E+00  1.00800000E+00  1.60000000E+01  1.00800000E+00  1.00800000E+00
  1.60000000E+01  1.00800000E+00  1.00800000E+00  1.60000000E+01  1.00800000E+00
  1.00800000E+00  1.60000000E+01  1.00800000E+00  1.00800000E+00  1.60000000E+01
  1.00800000E+00  1.00800000E+00  1.60000000E+01  1.00800000E+00  1.00800000E+00
  1.60000000E+01  1.00800000E+00  1.00800000E+00  1.60000000E+01  1.00800000E+00
  1.00800000E+00  1.60000000E+01  1.00800000E+00  1.00800000E+00  1.60000000E+01
  1.00800000E+00  1.00800000E+00  1.60000000E+01  1.00800000E+00  1.00800000E+00
  1.60000000E+01  1.00800000E+00  1.00800000E+00  1.60000000E+01  1.00800000E+00
  1.00800000E+00  1.60000000E+01  1.00800000E+00  1.00800000E+00  1.60000000E+01
  1.00800000E+00  1.00800000E+00  1.60000000E+01  1.00800000E+00  1.00800000E+00
  1.60000000E+01  1.00800000E+00  1.00800000E+00  1.60000000E+01  1.00800000E+00
  1.00800000E+00  1.60000000E+01  1.00800000E+00  1.00800000E+00  1.60000000E+01
  1.00800000E+00  1.00800000E+00  1.60000000E+01  1.00800000E+00  1.00800000E+00
  1.60000000E+01  1.00800000E+00  1.00800000E+00  1.60000000E+01  1.00800000E+00
  1.00800000E+00  1.60000000E+01  1.00800000E+00  1.00800000E+00  1.60000000E+01
  1.00800000E+00  1.00800000E+00  1.60000000E+01  1.00800000E+00  1.00800000E+00
  1.60000000E+01  1.00800000E+00  1.00800000E+00  1.60000000E+01  1.00800000E+00
  1.00800000E+00  1.60000000E+01  1.00800000E+00  1.00800000E+00  1.60000000E+01
  1.00800000E+00  1.00800000E+00  1.60000000E+01  1.00800000E+00  1.00800000E+00
  1.60000000E+01  1.00800000E+00  1.00800000E+00  1.60000000E+01  1.00800000E+00
  1.00800000E+00  1.60000000E+01  1.00800000E+00  1.00800000E+00  1.60000000E+01
  1.00800000E+00  1.00800000E+00  1.60000000E+01  1.00800000E+00  1.00800000E+00
  1.60000000E+01  1.00800000E+00  1.00800000E+00  1.60000000E+01  1.00800000E+00
  1.00800000E+00  1.60000000E+01  1.00800000E+00  1.00800000E+00  1.60000000E+01
  1.00800000E+00  1.00800000E+00  1.60000000E+01  1.00800000E+00  1.00800000E+00
  1.60000000E+01  1.00800000E+00  1.00800000E+00  1.60000000E+01  1.00800000E+00
  1.00800000E+00  1.60000000E+01  1.00800000E+00  1.00800000E+00  1.60000000E+01
  1.00800000E+00  1.00800000E+00  1.60000000E+01  1.00800000E+00  1.00800000E+00
  1.60000000E+01  1.00800000E+00  1.00800000E+00  1.60000000E+01  1.00800000E+00
  1.00800000E+00  1.60000000E+01  1.00800000E+00  1.00800000E+00  1.60000000E+01
  1.00800000E+00  1.00800000E+00  1.60000000E+01  1.00800000E+00  1.00800000E+00
  1.60000000E+01  1.00800000E+00  1.00800000E+00  1.60000000E+01  1.00800000E+00
  1.00800000E+00  1.60000000E+01  1.00800000E+00  1.00800000E+00  1.60000000E+01
  1.00800000E+00  1.00800000E+00  1.60000000E+01  1.00800000E+00  1.00800000E+00
  1.60000000E+01  1.00800000E+00  1.00800000E+00  1.60000000E+01  1.00800000E+00
  1.00800000E+00  1.60000000E+01  1.00800000E+00  1.00800000E+00  1.60000000E+01
  1.00800000E+00  1.00800000E+00  1.60000000E+01  1.00800000E+00  1.00800000E+00
  1.60000000E+01  1.00800000E+00  1.00800000E+00  1.60000000E+01  1.00800000E+00
  1.00800000E+00  1.60000000E+01  1.00800000E+00  1.00800000E+00  1.60000000E+01
  1.00800000E+00  1.00800000E+00  1.60000000E+01  1.00800000E+00  1.00800000E+00
  1.60000000E+01  1.00800000E+00  1.00800000E+00  1.60000000E+01  1.00800000E+00
  1.00800000E+00  1.60000000E+01  1.00800000E+00  1.00800000E+00  1.60000000E+01
  1.00800000E+00  1.00800000E+00  1.60000000E+01  1.00800000E+00  1.00800000E+00
  1.60000000E+01  1.00800000E+00  1.00800000E+00  1.60000000E+01  1.00800000E+00
  1.00800000E+00  1.60000000E+01  1.00800000E+00  1.00800000E+00  1.60000000E+01
  1.00800000E+00  1.00800000E+00  1.60000000E+01  1.00800000E+00  1.00800000E+00
  1.60000000E+01  1.00800000E+00  1.00800000E+00  1.60000000E+01  1.00800000E+00
  1.00800000E+00  1.60000000E+01  1.00800000E+00  1.00800000E+00  1.60000000E+01
  1.00800000E+00  1.00800000E+00  1.60000000E+01  1.00800000E+00  1.00800000E+00
  1.60000000E+01  1.00800000E+00  1.00800000E+00  1.60000000E+01  1.00800000E+00
  1.00800000E+00  1.60000000E+01  1.00800000E+00  1.00800000E+00  1.60000000E+01
  1.00800000E+00  1.00800000E+00  1.60000000E+01  1.00800000E+00  1.00800000E+00
  1.60000000E+01  1.00800000E+00  1.00800000E+00  1.60000000E+01  1.00800000E+00
  1.00800000E+00  1.60000000E+01  1.00800000E+00  1.00800000E+00  1.60000000E+01
  1.00800000E+00  1.00800000E+00  1.60000000E+01  1.00800000E+00  1.00800000E+00
  1.60000000E+01  1.00800000E+00  1.00800000E+00  1.60000000E+01  1.00800000E+00
  1.00800000E+00  1.60000000E+01  1.00800000E+00  1.00800000E+00  1.60000000E+01
  1.00800000E+00  1.00800000E+00  1.60000000E+01  1.00800000E+00  1.00800000E+00
  1.60000000E+01  1.00800000E+00  1.00800000E+00  1.60000000E+01  1.00800000E+00
  1.00800000E+00  1.60000000E+01  1.00800000E+00  1.00800000E+00  1.60000000E+01
  1.00800000E+00  1.00800000E+00  1.60000000E+01  1.00800000E+00  1.00800000E+00
  1.60000000E+01  1.00800000E+00  1.00800000E+00  1.60000000E+01  1.00800000E+00
  1.00800000E+00  1.60000000E+01  1.00800000E+00  1.00800000E+00  1.60000000E+01
  1.00800000E+00  1.00800000E+00  1.60000000E+01  1.00800000E+00  1.00800000E+00
  1.60000000E+01  1.00800000E+00  1.00800000E+00  1.60000000E+01  1.00800000E+00
  1.00800000E+00  1.60000000E+01  1.00800000E+00  1.00800000E+00  1.60000000E+01
  1.00800000E+00  1.00800000E+00  1.60000000E+01  1.00800000E+00  1.00800000E+00
  1.60000000E+01  1.00800000E+00  1.00800000E+00  1.60000000E+01  1.00800000E+00
  1.00800000E+00  1.60000000E+01  1.00800000E+00  1.00800000E+00  1.60000000E+01
  1.00800000E+00  1.00800000E+00  1.60000000E+01  1.00800000E+00  1.00800000E+00
  1.60000000E+01  1.00800000E+00  1.00800000E+00  1.60000000E+01  1.00800000E+00
  1.00800000E+00  1.60000000E+01  1.00800000E+00  1.00800000E+00  1.60000000E+01
  1.00800000E+00  1.00800000E+00  1.60000000E+01  1.00800000E+00  1.00800000E+00
  1.60000000E+01  1.00800000E+00  1.00800000E+00  1.60000000E+01  1.00800000E+00
  1.00800000E+00  1.60000000E+01  1.00800000E+00  1.00800000E+00  1.60000000E+01
  1.00800000E+00  1.00800000E+00  1.60000000E+01  1.00800000E+00  1.00800000E+00
  1.60000000E+01  1.00800000E+00  1.00800000E+00  1.60000000E+01  1.00800000E+00
  1.00800000E+00  1.60000000E+01  1.00800000E+00  1.00800000E+00  1.60000000E+01
  1.00800000E+00  1.00800000E+00  1.60000000E+01  1.00800000E+00  1.00800000E+00
  1.60000000E+01  1.00800000E+00  1.00800000E+00  1.60000000E+01  1.00800000E+00
  1.00800000E+00  1.60000000E+01  1.00800000E+00  1.00800000E+00  1.60000000E+01
  1.00800000E+00  1.00800000E+00  1.60000000E+01  1.00800000E+00  1.00800000E+00
  1.60000000E+01  1.00800000E+00  1.00800000E+00  1.60000000E+01  1.00800000E+00
  1.00800000E+00  1.60000000E+01  1.00800000E+00  1.00800000E+00  1.60000000E+01
  1.00800000E+00  1.00800000E+00  1.60000000E+01  1.00800000E+00  1.00800000E+00
  1.60000000E+01  1.00800000E+00  1.00800000E+00  1.60000000E+01  1.00800000E+00
  1.00800000E+00  1.60000000E+01  1.00800000E+00  1.00800000E+00  1.60000000E+01
  1.00800000E+00  1.00800000E+00  1.60000000E+01  1.00800000E+00  1.00800000E+00
  1.60000000E+01  1.00800000E+00  1.00800000E+00  1.60000000E+01  1.00800000E+00
  1.00800000E+00  1.60000000E+01  1.00800000E+00  1.00800000E+00  1.60000000E+01
  1.00800000E+00  1.00800000E+00  1.60000000E+01  1.00800000E+00  1.00800000E+00
  1.60000000E+01  1.00800000E+00  1.00800000E+00  1.60000000E+01  1.00800000E+00
  1.00800000E+00  1.60000000E+01  1.00800000E+00  1.00800000E+00  1.60000000E+01
  1.00800000E+00  1.00800000E+00  1.60000000E+01  1.00800000E+00  1.00800000E+00
  1.60000000E+01  1.00800000E+00  1.00800000E+00  1.60000000E+01  1.00800000E+00
  1.00800000E+00  1.60000000E+01  1.00800000E+00  1.00800000E+00  1.60000000E+01
  1.00800000E+00  1.00800000E+00  1.60000000E+01  1.00800000E+00  1.00800000E+00
  1.60000000E+01  1.00800000E+00  1.00800000E+00  1.60000000E+01  1.00800000E+00
  1.00800000E+00  1.60000000E+01  1.00800000E+00  1.00800000E+00  1.60000000E+01
  1.00800000E+00  1.00800000E+00  1.60000000E+01  1.00800000E+00  1.00800000E+00
  1.60000000E+01  1.00800000E+00  1.00800000E+00  1.60000000E+01  1.00800000E+00
  1.00800000E+00  1.60000000E+01  1.00800000E+00  1.00800000E+00  1.60000000E+01
  1.00800000E+00  1.00800000E+00  1.60000000E+01  1.00800000E+00  1.00800000E+00
  1.60000000E+01  1.00800000E+00  1.00800000E+00  1.60000000E+01  1.00800000E+00
  1.00800000E+00  1.60000000E+01  1.00800000E+00  1.00800000E+00  1.60000000E+01
  1.00800000E+00  1.00800000E+00  1.60000000E+01  1.00800000E+00  1.00800000E+00
  1.60000000E+01  1.00800000E+00  1.00800000E+00  1.60000000E+01  1.00800000E+00
  1.00800000E+00  1.60000000E+01  1.00800000E+00  1.00800000E+00  1.60000000E+01
  1.00800000E+00  1.00800000E+00  1.60000000E+01  1.00800000E+00  1.00800000E+00
  1.60000000E+01  1.00800000E+00  1.00800000E+00  1.60000000E+01  1.00800000E+00
  1.00800000E+00  1.60000000E+01  1.00800000E+00  1.00800000E+00  1.60000000E+01
  1.00800000E+00  1.00800000E+00  1.60000000E+01  1.00800000E+00  1.00800000E+00
  1.60000000E+01  1.00800000E+00  1.00800000E+00  1.60000000E+01  1.00800000E+00
  1.00800000E+00  1.60000000E+01  1.00800000E+00  1.00800000E+00  1.60000000E+01
  1.00800000E+00  1.00800000E+00  1.60000000E+01  1.00800000E+00  1.00800000E+00
  1.60000000E+01  1.00800000E+00  1.00800000E+00  1.60000000E+01  1.00800000E+00
  1.00800000E+00  1.60000000E+01  1.00800000E+00  1.00800000E+00  1.60000000E+01
  1.00800000E+00  1.00800000E+00  1.60000000E+01  1.00800000E+00  1.00800000E+00
  1.60000000E+01  1.00800000E+00  1.00800000E+00  1.60000000E+01  1.00800000E+00
  1.00800000E+00  1.60000000E+01  1.00800000E+00  1.00800000E+00  1.60000000E+01
  1.00800000E+00  1.00800000E+00  1.60000000E+01  1.00800000E+00  1.00800000E+00
  1.60000000E+01  1.00800000E+00  1.00800000E+00  1.60000000E+01  1.00800000E+00
  1.00800000E+00  1.60000000E+01  1.00800000E+00  1.00800000E+00  1.60000000E+01
  1.00800000E+00  1.00800000E+00  1.60000000E+01  1.00800000E+00  1.00800000E+00
  1.60000000E+01  1.00800000E+00  1.00800000E+00  1.60000000E+01  1.00800000E+00
  1.00800000E+00  1.60000000E+01  1.00800000E+00  1.00800000E+00  1.60000000E+01
  1.00800000E+00  1.00800000E+00  1.60000000E+01  1.00800000E+00  1.00800000E+00
  1.60000000E+01  1.00800000E+00  1.00800000E+00  1.60000000E+01  1.00800000E+00
  1.00800000E+00  1.60000000E+01  1.00800000E+00  1.00800000E+00  1.60000000E+01
  1.00800000E+00  1.00800000E+00  1.60000000E+01  1.00800000E+00  1.00800000E+00
  1.60000000E+01  1.00800000E+00  1.00800000E+00  1.60000000E+01  1.00800000E+00
  1.00800000E+00  1.60000000E+01  1.00800000E+00  1.00800000E+00  1.60000000E+01
  1.00800000E+00  1.00800000E+00  1.60000000E+01  1.00800000E+00  1.00800000E+00
  1.60000000E+01  1.00800000E+00  1.00800000E+00  1.60000000E+01  1.00800000E+00
  1.00800000E+00  1.60000000E+01  1.00800000E+00  1.00800000E+00  1.60000000E+01
  1.00800000E+00  1.00800000E+00  1.60000000E+01  1.00800000E+00  1.00800000E+00
%FLAG ATOM_TYPE_INDEX                                                           
%FORMAT(10I8)                                                                   
       1       1       1       1       1       1       1       1       1       1
       1       1       1       1       1       1       2       2       2       2
       2       2       2       2       2       2       1       2       2       3
       1       4       5       4       4       1       4       4       1       5
       6       7       7       7       7       8       4       4       9       4
       7       9       8       4       9       4       9       1       3       5
       2       5       5       5       2      10      10       5       5       5
       5      10      10      10      10      11      10      10      10      11
      12      11      10      11       3       1       4       5       4       4
       1       4       4       1       5       6       7       7       7       7
       8       4       4       9       4       7       9       8       4       9
       4       9       1       3       5       2       5       5       5       2
      10      10       5       5       5       5      10      10      10      10
      11      10      10      10      11      12      11      10      11       3
       1       4       5       4       4       1       4       4       1       5
       6       7       7       7       7       8       4       4       9       4
       7       9       8       4       9       4       9       1       3       5
       2       5       5       5       2      10      10       5       5       5
       5      10      10      10      10      11      10      10      10      11
      12      11      10      11       3       1       4       5       4       4
       1       4       4       1       5       6       7       7       7       7
       8       4       4       9       4       7       9       8       4       9
       4       9       1       3       5       2       5       5       5       2
      10      10       5       5       5       5      10      10      10      10
      11      10      10      10      11      12      11      10      11       3
       1       4       5       4       4       1       4       4       1       5
       6       7       7       7       7       8       4       4       9       4
       7       9       8       4       9       4       9       1       3       5
       2       5       5       5       2      10      10       5       5       5
       5      10      10      10      10      11      10      10      10      11
      12      11      10      11       3       1       4       5       4       4
       1       4       4       1       5       6       7       7       7       7
       8       4       4       9       4       7       9       8       4       9
       4       9       1       3       5       2       5       5       5       2
      10      10       5       5       5       5      10      10      10      10
      11      10      10      10      11      12      11      10      11       3
       1       4       5       4       4       1       4       4       1       5
       6       7       7       7       7       8       4       4       9       4
       7       9       8       4       9       4       9       1       3       5
       2       5       5       5       2      10      10       5       5       5
       5      10      10      10      10      11      10      10      10      11
      12      11      10      11       3       1       4       5       4       4
       1       4       4       1       5       6       7       7       7       7
       8       4       4       9       4       7       9       8       4       9
       4       9       1       3       5       2       5       5       5       2
      10      10       5       5       5       5      10      10      10      10
      11      10      10      10      11      12      11      10      11       3
       1       4       5       4       4       1       4       4       1       5
       6       7       7       7       7       8       4       4       9       4
       7       9       8       4       9       4       9       1       3       5
       2       5       5       5       2      10      10       5       5       5
       5      10      10      10      10      11      10      10      10      11
      12      11      10      11       3       1       4       5       4       4
       1       4       4       1       5       6       7       7       7       7
       8       4       4       9       4       7       9       8       4       9
       4       9       1       3       5       2       5       5       5       2
      10      10       5       5       5       5      10      10      10      10
      11      10      10      10      11      12      11      10      11       1
       2       2       1       2       2       3       1       4       5       4
       4       1       4       4       1       5       6       7       7       7
       7       8       4       4       9       4       7       9       8       4
       9       4       9       1       3       5       2       5       5       5
       2      10      10       5       5       5       5      10      10      10
      10      11      10      10      10      11      12      11      10      11
       3       1       4       5       4       4       1       4       4       1
       5       6       7       7       7       7       8       4       4       9
       4       7       9       8       4       9       4       9       1       3
       5       2       5       5       5       2      10      10       5       5
       5       5      10      10      10      10      11      10      10      10
      11      12      11      10      11       3       1       4       5       4
       4       1       4       4       1       5       6       7       7       7
       7       8       4       4       9       4       7       9       8       4
       9       4       9       1       3       5       2       5       5       5
       2      10      10       5       5       5       5      10      10      10
      10      11      10      10      10      11      12      11      10      11
       3       1       4       5       4       4       1       4       4       1
       5       6       7       7       7       7       8       4       4       9
       4       7       9       8       4       9       4       9       1       3
       5       2       5       5       5       2      10      10       5       5
       5       5      10      10      10      10      11      10      10      10
      11      12      11      10      11       3       1       4       5       4
       4       1       4       4       1       5       6       7       7       7
       7       8       4       4       9       4       7       9       8       4
       9       4       9       1       3       5       2       5       5       5
       2      10      10       5       5       5       5      10      10      10
      10      11      10      10      10      11      12      11      10      11
       3       1       4       5       4       4       1       4       4       1
       5       6       7       7       7       7       8       4       4       9
       4       7       9       8       4       9       4       9       1       3
       5       2       5       5       5       2      10      10       5       5
       5       5      10      10      10      10      11      10      10      10
      11      12      11      10      11       3       1       4       5       4
       4       1       4       4       1       5       6       7       7       7
       7       8       4       4       9       4       7       9       8       4
       9       4       9       1       3       5       2       5       5       5
       2      10      10       5       5       5       5      10      10      10
      10      11      10      10      10      11      12      11      10      11
       3       1       4       5       4       4       1       4       4       1
       5       6       7       7       7       7       8       4       4       9
       4       7       9       8       4       9       4       9       1       3
       5       2       5       5       5       2      10      10       5       5
       5       5      10      10      10      10      11      10      10      10
      11      12      11      10      11       3       1       4       5       4
       4       1       4       4       1       5       6       7       7       7
       7       8       4       4       9       4       7       9       8       4
       9       4       9       1       3       5       2       5       5       5
       2      10      10       5       5       5       5      10      10      10
      10      11      10      10      10      11      12      11      10      11
       3       1       4       5       4       4       1       4       4       1
       5       6       7       7       7       7       8       4       4       9
       4       7       9       8       4       9       4       9       1       3
       5       2       5       5       5       2      10      10       5       5
       5       5      10      10      10      10      11      10      10      10
      11      12      11      10      11       1       2       2       1       2
       2       3       1       4       5       4       4       1       4       4
       1       5       6       7       7       7       7       8       4       4
       9       4       7       9       8       4       9       4       9       1
       3       5       2       5       5       5       2      10      10       5
       5       5       5      10      10      10      10      11      10      10
      10      11      12      11      10      11       3       1       4       5
       4       4       1       4       4       1       5       6       7       7
       7       7       8       4       4       9       4       7       9       8
       4       9       4       9       1       3       5       2       5       5
       5       2      10      10       5       5       5       5      10      10
      10      10      11      10      10      10      11      12      11      10
      11       3       1       4       5       4       4       1       4       4
       1       5       6       7       7       7       7       8       4       4
       9       4       7       9       8       4       9       4       9       1
       3       5       2       5       5       5       2      10      10       5
       5       5       5      10      10      10      10      11      10      10
      10      11      12      11      10      11       3       1       4       5
       4       4       1       4       4       1       5       6       7       7
       7       7       8       4       4       9       4       7       9       8
       4       9       4       9       1       3       5       2       5       5
       5       2      10      10       5       5       5       5      10      10
      10      10      11      10      10      10      11      12      11      10
      11       3       1       4       5       4       4       1       4       4
       1       5       6       7       7       7       7       8       4       4
       9       4       7       9       8       4       9       4       9       1
       3       5       2       5       5       5       2      10      10       5
       5       5       5      10      10      10      10      11      10      10
      10      11      12      11      10      11       3       1       4       5
       4       4       1       4       4       1       5       6       7       7
       7       7       8       4       4       9       4       7       9       8
       4       9       4       9       1       3       5       2       5       5
       5       2      10      10       5       5       5       5      10      10
      10      10      11      10      10      10      11      12      11      10
      11       3       1       4       5       4       4       1       4       4
       1       5       6       7       7       7       7       8       4       4
       9       4       7       9       8       4       9       4       9       1
       3       5       2       5       5       5       2      10      10       5
       5       5       5      10      10      10      10      11      10      10
      10      11      12      11      10      11       3       1       4       5
       4       4       1       4       4       1       5       6       7       7
       7       7       8       4       4       9       4       7       9       8
       4       9       4       9       1       3       5       2       5       5
       5       2      10      10       5       5       5       5      10      10
      10      10      11      10      10      10      11      12      11      10
      11       3       1       4       5       4       4       1       4       4
       1       5       6       7       7       7       7       8       4       4
       9       4       7       9       8       4       9       4       9       1
       3       5       2       5       5       5       2      10      10       5
       5       5       5      10      10      10      10      11      10      10
      10      11      12      11      10      11       3       1       4       5
       4       4       1       4       4       1       5       6       7       7
       7       7       8       4       4       9       4       7       9       8
       4       9       4       9       1       3       5       2       5       5
       5       2      10      10       5       5       5       5      10      10
      10      10      11      10      10      10      11      12      11      10
      11       1       2       2       1       2       2       3       1       4
       5       4       4       1       4       4       1       5       6       7
       7       7       7       8       4       4       9       4       7       9
       8       4       9       4       9       1       3       5       2       5
       5       5       2      10      10       5       5       5       5      10
      10      10      10      11      10      10      10      11      12      11
      10      11       3       1       4       5       4       4       1       4
       4       1       5       6       7       7       7       7       8       4
       4       9       4       7       9       8       4       9       4       9
       1       3       5       2       5       5       5       2      10      10
       5       5       5       5      10      10      10      10      11      10
      10      10      11      12      11      10      11       3       1       4
       5       4       4       1       4       4       1       5       6       7
       7       7       7       8       4       4       9       4       7       9
       8       4       9       4       9       1       3       5       2       5
       5       5       2      10      10       5       5       5       5      10
      10      10      10      11      10      10      10      11      12      11
      10      11       3       1       4       5       4       4       1       4
       4       1       5       6       7       7       7       7       8       4
       4       9       4       7       9       8       4       9       4       9
       1       3       5       2       5       5       5       2      10      10
       5       5       5       5      10      10      10      10      11      10
      10      10      11      12      11      10      11       3       1       4
       5       4       4       1       4       4       1       5       6       7
       7       7       7       8       4       4       9       4       7       9
       8       4       9       4       9       1       3       5       2       5
       5       5       2      10      10       5       5       5       5      10
      10      10      10      11      10      10      10      11      12      11
      10      11       3       1       4       5       4       4       1       4
       4       1       5       6       7       7       7       7       8       4
       4       9       4       7       9       8       4       9       4       9
       1       3       5       2       5       5       5       2      10      10
       5       5       5       5      10      10      10      10      11      10
      10      10      11      12      11      10      11       3       1       4
       5       4       4       1       4       4       1       5       6       7
       7       7       7       8       4       4       9       4       7       9
       8       4       9       4       9       1       3       5       2       5
       5       5       2      10      10       5       5       5       5      10
      10      10      10      11      10      10      10      11      12      11
      10      11       3       1       4       5       4       4       1       4
       4       1       5       6       7       7       7       7       8       4
       4       9       4       7       9       8       4       9       4       9
       1       3       5       2       5       5       5       2      10      10
       5       5       5       5      10      10      10      10      11      10
      10      10      11      12      11      10      11       3       1       4
       5       4       4       1       4       4       1       5       6       7
       7       7       7       8       4       4       9       4       7       9
       8       4       9       4       9       1       3       5       2       5
       5       5       2      10      10       5       5       5       5      10
      10      10      10      11      10      10      10      11      12      11
      10      11       3       1       4       5       4       4       1       4
       4       1       5       6       7       7       7       7       8       4
       4       9       4       7       9       8       4       9       4       9
       1       3       5       2       5       5       5       2      10      10
       5       5       5       5      10      10      10      10      11      10
      10      10      11      12      11      10      11       1       2       2
      13      14      14      13      14      14      13      14      14      13
      14      14      13      14      14      13      14      14      13      14
      14      13      14      14      13      14      14      13      14      14
      13      14      14      13      14      14      13      14      14      13
      14      14      13      14      14      13      14      14      13      14
      14      13      14      14      13      14      14      13      14      14
      13      14      14      13      14      14      13      14      14      13
      14      14      13      14      14      13      14      14      13      14
      14      13      14      14      13      14      14      13      14      14
      13      14      14      13      14      14      13      14      14      13
      14      14      13      14      14      13      14      14      13      14
      14      13      14      14      13      14      14      13      14      14
      13      14      14      13      14      14      13      14      14      13
      14      14      13      14      14      13      14      14      13      14
      14      13      14      14      13      14      14      13      14      14
      13      14      14      13      14      14      13      14      14      13
      14      14      13      14      14      13      14      14      13      14
      14      13      14      14      13      14      14      13      14      14
      13      14      14      13      14      14      13      14      14      13
      14      14      13      14      14      13      14      14      13      14
      14      13      14      14      13      14      14      13      14      14
      13      14      14      13      14      14      13      14      14      13
      14      14      13      14      14      13      14      14      13      14
      14      13      14      14      13      14      14      13      14      14
      13      14      14      13      14      14      13      14      14      13
      14      14      13      14      14      13      14      14      13      14
      14      13      14      14      13      14      14      13      14      14
      13      14      14      13      14      14      13      14      14      13
      14      14      13      14      14      13      14      14      13      14
      14      13      14      14      13      14      14      13      14      14
      13      14      14      13      14      14      13      14      14      13
      14      14      13      14      14      13      14      14      13      14
      14      13      14      14      13      14      14      13      14      14
      13      14      14      13      14      14      13      14      14      13
      14      14      13      14      14      13      14      14      13      14
      14      13      14      14      13      14      14      13      14      14
      13      14      14      13      14      14      13      14      14      13
      14      14      13      14      14      13      14      14      13      14
      14      13      14      14      13      14      14      13      14      14
      13      14      14      13      14      14      13      14      14      13
      14      14      13      14      14      13      14      14      13      14
      14      13      14      14      13      14      14      13      14      14
      13      14      14      13      14      14      13      14      14      13
      14      14      13      14      14      13      14      14      13      14
      14      13      14      14      13      14      14      13      14      14
      13      14      14      13      14      14      13      14      14      13
      14      14      13      14      14      13      14      14      13      14
      14      13      14      14      13      14      14      13      14      14
      13      14      14      13      14      14      13      14      14      13
      14      14      13      14      14      13      14      14      13      14
      14      13      14      14      13      14      14      13      14      14
      13      14      14      13      14      14      13      14      14      13
      14      14      13      14      14      13      14      14      13      14
      14      13      14      14      13      14      14      13      14      14
      13      14      14      13      14      14      13      14      14      13
      14      14      13      14      14      13      14      14      13      14
      14      13      14      14      13      14      14      13      14      14
      13      14      14      13      14      14      13      14      14      13
      14      14      13      14      14      13      14      14      13      14
      14      13      14      14      13      14      14      13      14      14
      13      14      14      13      14      14      13      14      14      13
      14      14      13      14      14      13      14      14      13      14
      14      13      14      14      13      14      14      13      14      14
      13      14      14      13      14      14      13      14      14      13
      14      14      13      14      14      13      14      14      13      14
      14      13      14      14      13      14      14      13      14      14
      13      14      14      13      14      14      13      14      14      13
      14      14      13      14      14      13      14      14      13      14
      14      13      14      14      13      14      14      13      14      14
      13      14      14      13      14      14      13      14      14      13
      14      14      13      14      14      13      14      14      13      14
      14      13      14      14      13      14      14      13      14      14
      13      14      14      13      14      14      13      14      14      13
      14      14      13      14      14      13      14      14      13      14
      14      13      14      14      13      14      14      13      14      14
      13      14      14      13      14      14      13      14      14      13
      14      14      13      14      14      13      14      14      13      14
      14      13      14      14      13      14      14      13      14      14
      13      14      14      13      14      14      13      14      14      13
      14      14      13      14      14      13      14      14      13      14
      14      13      14      14      13      14      14      13      14      14
      13      14      14      13      14      14      13      14      14      13
      14      14      13      14      14      13      14      14      13      14
      14      13      14      14      13      14      14      13      14      14
      13      14      14      13      14      14      13      14      14      13
      14      14      13      14      14      13      14      14      13      14
      14      13      14      14      13      14      14      13      14      14
      13      14      14      13      14      14      13      14      14      13
      14      14      13      14      14      13      14      14      13      14
      14      13      14      14      13      14      14      13      14      14
      13      14      14      13      14      14      13      14      14      13
      14      14      13      14      14      13      14      14      13      14
      14      13      14      14      13      14      14      13      14      14
      13      14      14      13      14      14      13      14      14      13
      14      14      13      14      14      13      14      14      13      14
      14      13      14      14      13      14      14      13      14      14
      13      14      14      13      14      14      13      14      14      13
      14      14      13      14      14      13      14      14      13      14
      14      13      14      14      13      14      14      13      14      14
      13      14      14      13      14      14      13      14      14      13
      14      14      13      14      14      13      14      14      13      14
      14      13      14      14      13      14      14      13      14      14
      13      14      14      13      14      14      13      14      14      13
      14      14      13      14      14      13      14      14      13      14
      14      13      14      14      13      14      14      13      14      14
      13      14      14      13      14      14      13      14      14      13
      14      14      13      14      14      13      14      14      13      14
      14      13      14      14      13      14      14      13      14      14
      13      14      14      13      14      14      13      14      14      13
      14      14      13      14      14      13      14      14      13      14
      14      13      14      14      13      14      14      13      14      14
      13      14      14      13      14      14      13      14      14      13
      14      14      13      14      14      13      14      14      13      14
      14      13      14      14      13      14      14      13      14      14
      13      14      14      13      14      14      13      14      14      13
      14      14      13      14      14      13      14      14      13      14
      14      13      14      14      13      14      14      13      14      14
      13      14      14      13      14      14      13      14      14      13
      14      14      13      14      14      13      14      14      13      14
      14      13      14      14      13      14      14      13      14      14
      13      14      14      13      14      14      13      14      14      13
      14      14      13      14      14      13      14      14      13      14
      14      13      14      14      13      14      14      13      14      14
      13      14      14      13      14      14      13      14      14      13
      14      14      13      14      14      13      14      14      13      14
      14      13      14      14      13      14      14      13      14      14
      13      14      14      13      14      14      13      14      14      13
      14      14      13      14      14      13      14      14      13      14
      14      13      14      14      13      14      14      13      14      14
      13      14      14      13      14      14      13      14      14      13
      14      14      13      14      14      13      14      14      13      14
      14      13      14      14      13      14      14      13      14      14
      13      14      14      13      14      14      13      14      14      13
      14      14      13      14      14      13      14      14      13      14
      14      13      14      14      13      14      14      13      14      14
      13      14      14      13      14      14      13      14      14      13
      14      14      13      14      14      13      14      14      13      14
      14      13      14      14      13      14      14      13      14      14
      13      14      14      13      14      14      13      14      14      13
      14      14      13      14      14      13      14      14      13      14
      14      13      14      14      13      14      14      13      14      14
      13      14      14      13      14      14      13      14      14      13
      14      14      13      14      14      13      14      14      13      14
      14      13      14      14      13      14      14      13      14      14
      13      14      14      13      14      14      13      14      14      13
      14      14      13      14      14      13      14      14      13      14
      14      13      14      14      13      14      14      13      14      14
      13      14      14      13      14      14      13      14      14      13
      14      14      13      14      14      13      14      14      13      14
      14      13      14      14      13      14      14      13      14      14
      13      14      14      13      14      14      13      14      14      13
      14      14      13      14      14      13      14      14      13      14
      14      13      14      14      13      14      14      13      14      14
      13      14      14      13      14      14      13      14      14      13
      14      14      13      14      14      13      14      14      13      14
      14      13      14      14      13      14      14      13      14      14
      13      14      14      13      14      14      13      14      14      13
      14      14      13      14      14      13      14      14      13      14
      14      13      14      14      13      14      14      13      14      14
      13      14      14      13      14      14      13      14      14      13
      14      14      13      14      14      13      14      14      13      14
      14      13      14      14      13      14      14      13      14      14
      13      14      14      13      14      14      13      14      14      13
      14      14      13      14      14      13      14      14      13      14
      14      13      14      14      13      14      14      13      14      14
      13      14      14      13      14      14      13      14      14      13
      14      14      13      14      14      13      14      14      13      14
      14      13      14      14      13      14      14      13      14      14
      13      14      14      13      14      14      13      14      14      13
      14      14      13      14      14      13      14      14      13      14
      14      13      14      14      13      14      14      13      14      14
      13      14      14      13      14      14      13      14      14      13
      14      14      13      14      14      13      14      14      13      14
      14      13      14      14      13      14      14      13      14      14
      13      14      14      13      14      14      13      14      14      13
      14      14      13      14      14      13      14      14      13      14
      14      13      14      14      13      14      14      13      14      14
      13      14      14      13      14      14      13      14      14      13
      14      14      13      14      14      13      14      14      13      14
      14      13      14      14      13      14      14      13      14      14
      13      14      14      13      14      14      13      14      14      13
      14      14      13      14      14      13      14      14      13      14
      14      13      14      14      13      14      14      13      14      14
      13      14      14      13      14      14      13      14      14      13
      14      14      13      14      14      13      14      14      13      14
      14      13      14      14      13      14      14      13      14      14
      13      14      14      13      14      14      13      14      14      13
      14      14      13      14      14      13      14      14      13      14
      14      13      14      14      13      14      14      13      14      14
      13      14      14      13      14      14      13      14      14      13
      14      14      13      14      14      13      14      14      13      14
      14      13      14      14      13      14      14      13      14      14
      13      14      14      13      14      14      13      14      14      13
      14      14      13      14      14      13      14      14      13      14
      14      13      14      14      13      14      14      13      14      14
      13      14      14      13      14      14      13      14      14      13
      14      14      13      14      14      13      14      14      13      14
      14      13      14      14      13      14      14      13      14      14
      13      14      14      13      14      14      13      14      14      13
      14      14      13      14      14      13      14      14      13      14
      14      13      14      14      13      14      14      13      14      14
      13      14      14      13      14      14      13      14      14      13
      14      14      13      14      14      13      14      14      13      14
      14      13      14      14      13      14      14      13      14      14
      13      14      14      13      14      14      13      14      14      13
      14      14      13      14      14      13      14      14      13      14
      14      13      14      14      13      14      14      13      14      14
      13      14      14      13      14      14      13      14      14      13
      14      14      13      14      14      13      14      14      13      14
      14      13      14      14      13      14      14      13      14      14
      13      14      14      13      14      14      13      14      14      13
      14      14      13      14      14      13      14      14      13      14
      14      13      14      14      13      14      14      13      14      14
      13      14      14      13      14      14      13      14      14      13
      14      14      13      14      14      13      14      14      13      14
      14      13      14      14      13      14      14      13      14      14
      13      14      14      13      14      14      13      14      14      13
      14      14      13      14      14      13      14      14      13      14
      14      13      14      14      13      14      14      13      14      14
      13      14      14      13      14      14      13      14      14      13
      14      14      13      14      14      13      14      14      13      14
      14      13      14      14      13      14      14      13      14      14
      13      14      14      13      14      14      13      14      14      13
      14      14      13      14      14      13      14      14      13      14
      14      13      14      14      13      14      14      13      14      14
      13      14      14      13      14      14      13      14      14      13
      14      14      13      14      14      13      14      14      13      14
      14      13      14      14      13      14      14      13      14      14
      13      14      14      13      14      14      13      14      14      13
      14      14      13      14      14      13      14      14      13      14
      14      13      14      14      13      14      14      13      14      14
      13      14      14      13      14      14      13      14      14      13
      14      14      13      14      14      13      14      14      13      14
      14      13      14      14      13      14      14      13      14      14
      13      14      14      13      14      14      13      14      14      13
      14      14      13      14      14      13      14      14      13      14
      14      13      14      14      13      14      14      13      14      14
      13      14      14      13      14      14      13      14      14      13
      14      14      13      14      14      13      14      14      13      14
      14      13      14      14      13      14      14      13      14      14
      13      14      14      13      14      14      13      14      14      13
      14      14      13      14      14      13      14      14      13      14
      14      13      14      14      13      14      14      13      14      14
      13      14      14      13      14      14      13      14      14      13
      14      14      13      14      14      13      14      14      13      14
      14      13      14      14      13      14      14      13      14      14
      13      14      14      13      14      14      13      14      14      13
      14      14      13      14      14      13      14      14      13      14
      14      13      14      14      13      14      14      13      14      14
      13      14      14      13      14      14      13      14      14      13
      14      14      13      14      14      13      14      14      13      14
      14      13      14      14      13      14      14      13      14      14
      13      14      14      13      14      14      13      14      14      13
      14      14      13      14      14      13      14      14      13      14
      14      13      14      14      13      14      14      13      14      14
      13      14      14      13      14      14      13      14      14      13
      14      14      13      14      14      13      14      14      13      14
      14      13      14      14      13      14      14      13      14      14
      13      14      14      13      14      14      13      14      14      13
      14      14      13      14      14      13      14      14      13      14
      14      13      14      14      13      14      14      13      14      14
      13      14      14      13      14      14      13      14      14      13
      14      14      13      14      14      13      14      14      13      14
      14      13      14      14      13      14      14      13      14      14
      13      14      14      13      14      14      13      14      14      13
      14      14      13      14      14      13      14      14      13      14
      14      13      14      14      13      14      14      13      14      14
      13      14      14      13      14      14      13      14      14      13
      14      14      13      14      14      13      14      14      13      14
      14      13      14      14      13      14      14      13      14      14
      13      14      14      13      14      14      13      14      14      13
      14      14      13      14      14      13      14      14      13      14
      14      13      14      14      13      14      14      13      14      14
      13      14      14      13      14      14      13      14      14      13
      14      14      13      14      14      13      14      14      13      14
      14      13      14      14      13      14      14      13      14      14
      13      14      14      13      14      14      13      14      14      13
      14      14      13      14      14      13      14      14      13      14
      14      13      14      14      13      14      14      13      14      14
      13      14      14      13      14      14      13      14      14      13
      14      14      13      14      14      13      14      14      13      14
      14      13      14      14      13      14      14      13      14      14
      13      14      14      13      14      14      13      14      14      13
      14      14      13      14      14      13      14      14      13      14
      14      13      14      14      13      14      14      13      14      14
      13      14      14      13      14      14      13      14      14      13
      14      14      13      14      14      13      14      14      13      14
      14      13      14      14      13      14      14      13      14      14
      13      14      14      13      14      14      13      14      14      13
      14      14      13      14      14      13      14      14      13      14
      14      13      14      14      13      14      14      13      14      14
      13      14      14      13      14      14      13      14      14      13
      14      14      13      14      14      13      14      14      13      14
      14      13      14      14      13      14      14      13      14      14
      13      14      14      13      14      14      13      14      14      13
      14      14      13      14      14      13      14      14      13      14
      14      13      14      14      13      14      14      13      14      14
      13      14      14      13      14      14      13      14      14      13
      14      14      13      14      14      13      14      14      13      14
      14      13      14      14      13      14      14      13      14      14
      13      14      14      13      14      14      13      14      14      13
      14      14      13      14      14      13      14      14      13      14
      14      13      14      14      13      14      14      13      14      14
      13      14      14      13      14      14      13      14      14      13
      14      14      13      14      14      13      14      14      13      14
      14      13      14      14      13      14      14      13      14      14
      13      14      14      13      14      14      13      14      14      13
      14      14      13      14      14      13      14      14      13      14
      14      13      14      14      13      14      14      13      14      14
      13      14      14      13      14      14      13      14      14      13
      14      14      13      14      14      13      14      14      13      14
      14      13      14      14      13      14      14      13      14      14
      13      14      14      13      14      14      13      14      14      13
      14      14      13      14      14      13      14      14      13      14
      14      13      14      14      13      14      14      13      14      14
      13      14      14      13      14      14      13      14      14      13
      14      14      13      14      14      13      14      14      13      14
      14      13      14      14      13      14      14      13      14      14
      13      14      14      13      14      14      13      14      14      13
      14      14      13      14      14      13      14      14      13      14
      14      13      14      14      13      14      14      13      14      14
      13      14      14      13      14      14      13      14      14      13
      14      14      13      14      14      13      14      14      13      14
      14      13      14      14      13      14      14      13      14      14
      13      14      14      13      14      14      13      14      14      13
      14      14      13      14      14      13      14      14      13      14
      14      13      14      14      13      14      14      13      14      14
      13      14      14      13      14      14      13      14      14      13
      14      14      13      14      14      13      14      14      13      14
      14      13      14      14      13      14      14      13      14      14
      13      14      14      13      14      14      13      14      14      13
      14      14      13      14      14      13      14      14      13      14
      14      13      14      14      13      14      14      13      14      14
      13      14      14      13      14      14      13      14      14      13
      14      14      13      14      14      13      14      14      13      14
      14      13      14      14      13      14      14      13      14      14
      13      14      14      13      14      14      13      14      14      13
      14      14      13      14      14      13      14      14      13      14
      14      13      14      14      13      14      14      13      14      14
      13      14      14      13      14      14      13      14      14      13
      14      14      13      14      14      13      14      14      13      14
      14      13      14      14      13      14      14      13      14      14
      13      14      14      13      14      14      13      14      14      13
      14      14      13      14      14      13      14      14      13      14
      14      13      14      14      13      14      14      13      14      14
      13      14      14      13      14      14      13      14      14      13
      14      14      13      14      14      13      14      14      13      14
      14      13      14      14      13      14      14      13      14      14
      13      14      14      13      14      14      13      14      14      13
      14      14      13      14      14      13      14      14      13      14
      14      13      14      14      13      14      14      13      14      14
      13      14      14      13      14      14      13      14      14      13
      14      14      13      14      14      13      14      14      13      14
      14      13      14      14      13      14      14      13      14      14
      13      14      14      13      14      14      13      14      14      13
      14      14      13      14      14      13      14      14      13      14
      14      13      14      14      13      14      14      13      14      14
      13      14      14      13      14      14      13      14      14      13
      14      14      13      14      14      13      14      14      13      14
      14      13      14      14      13      14      14      13      14      14
      13      14      14      13      14      14      13      14      14      13
      14      14      13      14      14      13      14      14      13      14
      14      13      14      14      13      14      14      13      14      14
      13      14      14      13      14      14      13      14      14      13
      14      14      13      14      14      13      14      14      13      14
      14      13      14      14      13      14      14      13      14      14
      13      14      14      13      14      14      13      14      14      13
      14      14      13      14      14      13      14      14      13      14
      14      13      14      14      13      14      14      13      14      14
      13      14      14      13      14      14      13      14      14      13
      14      14      13      14      14      13      14      14      13      14
      14      13      14      14      13      14      14      13      14      14
      13      14      14      13      14      14      13      14      14      13
      14      14      13      14      14      13      14      14      13      14
      14      13      14      14      13      14      14      13      14      14
      13      14      14      13      14      14      13      14      14      13
      14      14      13      14      14      13      14      14      13      14
      14      13      14      14      13      14      14      13      14      14
      13      14      14      13      14      14      13      14      14      13
      14      14      13      14      14      13      14      14      13      14
      14      13      14      14      13      14      14      13      14      14
      13      14      14      13      14      14      13      14      14      13
      14      14      13      14      14      13      14      14      13      14
      14      13      14      14      13      14      14      13      14      14
      13      14      14      13      14      14      13      14      14      13
      14      14      13      14      14      13      14      14      13      14
      14      13      14      14      13      14      14      13      14      14
      13      14      14      13      14      14      13      14      14      13
      14      14      13      14      14      13      14      14      13      14
      14      13      14      14      13      14      14      13      14      14
      13      14      14      13      14      14      13      14      14      13
      14      14      13      14      14      13      14      14      13      14
      14      13      14      14      13      14      14      13      14      14
      13      14      14      13      14      14      13      14      14      13
      14      14      13      14      14      13      14      14      13      14
      14      13      14      14      13      14      14      13      14      14
      13      14      14      13      14      14      13      14      14      13
      14      14      13      14      14      13      14      14      13      14
      14      13      14      14      13      14      14      13      14      14
      13      14      14      13      14      14      13      14      14      13
      14      14      13      14      14      13      14      14      13      14
      14      13      14      14      13      14      14      13      14      14
      13      14      14      13      14      14      13      14      14      13
      14      14      13      14      14      13      14      14      13      14
      14      13      14      14      13      14      14      13      14      14
      13      14      14      13      14      14      13      14      14      13
      14      14      13      14      14      13      14      14      13      14
      14      13      14      14      13      14      14      13      14      14
      13      14      14      13      14      14      13      14      14      13
      14      14      13      14      14      13      14      14      13      14
      14      13      14      14      13      14      14      13      14      14
      13      14      14      13      14      14      13      14      14      13
      14      14      13      14      14      13      14      14      13      14
      14      13      14      14      13      14      14      13      14      14
      13      14      14      13      14      14      13      14      14      13
      14      14      13      14      14      13      14      14      13      14
      14      13      14      14      13      14      14      13      14      14
      13      14      14      13      14      14      13      14      14      13
      14      14      13      14      14      13      14      14      13      14
      14      13      14      14      13      14      14      13      14      14
      13      14      14      13      14      14      13      14      14      13
      14      14      13      14      14      13      14      14      13      14
      14      13      14      14      13      14      14      13      14      14
      13      14      14      13      14      14      13      14      14      13
      14      14      13      14      14      13      14      14      13      14
      14      13      14      14      13      14      14      13      14      14
      13      14      14      13      14      14      13      14      14      13
      14      14      13      14      14      13      14      14      13      14
      14      13      14      14      13      14      14      13      14      14
      13      14      14      13      14      14      13      14      14      13
      14      14      13      14      14      13      14      14      13      14
      14      13      14      14      13      14      14      13      14      14
      13      14      14      13      14      14      13      14      14      13
      14      14      13      14      14      13      14      14      13      14
      14      13      14      14      13      14      14      13      14      14
      13      14      14      13      14      14      13      14      14      13
      14      14      13      14      14      13      14      14      13      14
      14      13      14      14      13      14      14      13      14      14
      13      14      14      13      14      14      13      14      14      13
      14      14      13      14      14      13      14      14      13      14
      14      13      14      14      13      14      14      13      14      14
      13      14      14      13      14      14      13      14      14      13
      14      14      13      14      14      13      14      14      13      14
      14      13      14      14      13      14      14      13      14      14
      13      14      14      13      14      14      13      14      14      13
      14      14      13      14      14      13      14      14      13      14
      14      13      14      14      13      14      14      13      14      14
      13      14      14      13      14      14      13      14      14      13
      14      14      13      14      14      13      14      14      13      14
      14      13      14      14      13      14      14      13      14      14
      13      14      14      13      14      14      13      14      14      13
      14      14      13      14      14      13      14      14      13      14
      14      13      14      14      13      14      14      13      14      14
      13      14      14      13      14      14      13      14      14      13
      14      14      13      14      14      13      14      14      13      14
      14      13      14      14      13      14      14      13      14      14
      13      14      14      13      14      14      13      14      14      13
      14      14      13      14      14      13      14      14      13      14
      14      13      14      14      13      14      14      13      14      14
      13      14      14      13      14      14      13      14      14      13
      14      14      13      14      14      13      14      14      13      14
      14      13      14      14      13      14      14      13      14      14
      13      14      14      13      14      14      13      14      14      13
      14      14      13      14      14      13      14      14      13      14
      14      13      14      14      13      14      14      13      14      14
      13      14      14      13      14      14      13      14      14      13
      14      14      13      14      14      13      14      14      13      14
      14      13      14      14      13      14      14      13      14      14
      13      14      14      13      14      14      13      14      14      13
      14      14      13      14      14      13      14      14      13      14
      14      13      14      14      13      14      14      13      14      14
      13      14      14      13      14      14      13      14      14      13
      14      14      13      14      14      13      14      14      13      14
      14      13      14      14      13      14      14      13      14      14
      13      14      14      13      14      14      13      14      14      13
      14      14      13      14      14      13      14      14      13      14
      14      13      14      14      13      14      14      13      14      14
      13      14      14      13      14      14      13      14      14      13
      14      14      13      14      14      13      14      14      13      14
      14      13      14      14      13      14      14      13      14      14
      13      14      14      13      14      14      13      14      14      13
      14      14      13      14      14      13      14      14      13      14
      14      13      14      14      13      14      14      13      14      14
      13      14      14      13      14      14      13      14      14      13
      14      14      13      14      14      13      14      14      13      14
      14      13      14      14      13      14      14      13      14      14
      13      14      14      13      14      14      13      14      14      13
      14      14      13      14      14      13      14      14      13      14
      14      13      14      14      13      14      14      13      14      14
      13      14      14      13      14      14      13      14      14      13
      14      14      13      14      14      13      14      14      13      14
      14      13      14      14      13      14      14      13      14      14
      13      14      14      13      14      14      13      14      14      13
      14      14      13      14      14      13      14      14      13      14
      14      13      14      14      13      14      14      13      14      14
      13      14      14      13      14      14      13      14      14      13
      14      14      13      14      14      13      14      14      13      14
      14      13      14      14      13      14      14      13      14      14
      13      14      14      13      14      14      13      14      14      13
      14      14      13      14      14      13      14      14      13      14
      14      13      14      14      13      14      14      13      14      14
      13      14      14      13      14      14      13      14      14      13
      14      14      13      14      14      13      14      14      13      14
      14      13      14      14      13      14      14      13      14      14
      13      14      14      13      14      14      13      14      14      13
      14      14      13      14      14      13      14      14      13      14
      14      13      14      14      13      14      14      13      14      14
      13      14      14      13      14      14      13      14      14      13
      14      14      13      14      14      13      14      14      13      14
      14      13      14      14      13      14      14      13      14      14
      13      14      14      13      14      14      13      14      14      13
      14      14      13      14      14      13      14      14      13      14
      14      13      14      14      13      14      14      13      14      14
      13      14      14      13      14      14      13      14      14      13
      14      14      13      14      14      13      14      14      13      14
      14      13      14      14      13      14      14      13      14      14
      13      14      14      13      14      14      13      14      14      13
      14      14      13      14      14      13      14      14      13      14
      14      13      14      14      13      14      14      13      14      14
      13      14      14      13      14      14      13      14      14      13
      14      14      13      14      14      13      14      14      13      14
      14      13      14      14      13      14      14      13      14      14
      13      14      14      13      14      14      13      14      14      13
      14      14      13      14      14      13      14      14      13      14
      14      13      14      14      13      14      14      13      14      14
      13      14      14      13      14      14      13      14      14      13
      14      14      13      14      14      13      14      14      13      14
      14      13      14      14      13      14      14      13      14      14
      13      14      14      13      14      14      13      14      14      13
      14      14      13      14      14      13      14      14      13      14
      14      13      14      14      13      14      14      13      14      14
      13      14      14      13      14      14      13      14      14      13
      14      14      13      14      14      13      14      14      13      14
      14      13      14      14      13      14      14      13      14      14
      13      14      14      13      14      14      13      14      14      13
      14      14      13      14      14      13      14      14      13      14
      14      13      14      14      13      14      14      13      14      14
      13      14      14      13      14      14      13      14      14      13
      14      14      13      14      14      13      14      14      13      14
      14      13      14      14      13      14      14      13      14      14
      13      14      14      13      14      14      13      14      14      13
      14      14      13      14      14      13      14      14      13      14
      14      13      14      14      13      14      14      13      14      14
      13      14      14      13      14      14      13      14      14      13
      14      14      13      14      14      13      14      14      13      14
      14      13      14      14      13      14      14      13      14      14
      13      14      14      13      14      14      13      14      14      13
      14      14      13      14      14      13      14      14      13      14
      14      13      14      14      13      14      14      13      14      14
      13      14      14      13      14      14      13      14      14      13
      14      14      13      14      14      13      14      14      13      14
      14      13      14      14      13      14      14      13      14      14
      13      14      14      13      14      14      13      14      14      13
      14      14      13      14      14      13      14      14      13      14
      14      13      14      14      13      14      14      13      14      14
      13      14      14      13      14      14      13      14      14      13
      14      14      13      14      14      13      14      14      13      14
      14      13      14      14      13      14      14      13      14      14
      13      14      14      13      14      14      13      14      14      13
      14      14      13      14      14      13      14      14      13      14
      14      13      14      14      13      14      14      13      14      14
      13      14      14      13      14      14      13      14      14      13
      14      14      13      14      14      13      14      14      13      14
      14      13      14      14      13      14      14      13      14      14
      13      14      14      13      14      14      13      14      14      13
      14      14      13      14      14      13      14      14      13      14
      14      13      14      14      13      14      14      13      14      14
      13      14      14      13      14      14      13      14      14      13
      14      14      13      14      14      13      14      14      13      14
      14      13      14      14      13      14      14      13      14      14
      13      14      14      13      14      14      13      14      14      13
      14      14      13      14      14      13      14      14      13      14
      14      13      14      14      13      14      14      13      14      14
      13      14      14      13      14      14      13      14      14      13
      14      14      13      14      14      13      14      14      13      14
      14      13      14      14      13      14      14      13      14      14
      13      14      14      13      14      14      13      14      14      13
      14      14      13      14      14      13      14      14      13      14
      14      13      14      14      13      14      14      13      14      14
      13      14      14      13      14      14      13      14      14      13
      14      14      13      14      14      13      14      14      13      14
      14      13      14      14      13      14      14      13      14      14
      13      14      14      13      14      14      13      14      14      13
      14      14      13      14      14      13      14      14      13      14
      14      13      14      14      13      14      14      13      14      14
      13      14      14      13      14      14      13      14      14      13
      14      14      13      14      14      13      14      14      13      14
      14      13      14      14      13      14      14      13      14      14
      13      14      14      13      14      14      13      14      14      13
      14      14      13      14      14      13      14      14      13      14
      14      13      14      14      13      14      14      13      14      14
      13      14      14      13      14      14      13      14      14      13
      14      14      13      14      14      13      14      14      13      14
      14      13      14      14      13      14      14      13      14      14
      13      14      14      13      14      14      13      14      14      13
      14      14      13      14      14      13      14      14      13      14
      14      13      14      14      13      14      14      13      14      14
      13      14      14      13      14      14      13      14      14      13
      14      14      13      14      14      13      14      14      13      14
      14      13      14      14      13      14      14      13      14      14
      13      14      14      13      14      14      13      14      14      13
      14      14      13      14      14      13      14      14      13      14
      14      13      14      14      13      14      14      13      14      14
      13      14      14      13      14      14      13      14      14      13
      14      14      13      14      14      13      14      14      13      14
      14      13      14      14      13      14      14      13      14      14
      13      14      14      13      14      14      13      14      14      13
      14      14      13      14      14      13      14      14      13      14
      14      13      14      14      13      14      14      13      14      14
      13      14      14      13      14      14      13      14      14      13
      14      14      13      14      14      13      14      14      13      14
      14      13      14      14      13      14      14      13      14      14
      13      14      14      13      14      14      13      14      14      13
      14      14      13      14      14      13      14      14      13      14
      14      13      14      14      13      14      14      13      14      14
      13      14      14      13      14      14      13      14      14      13
      14      14      13      14      14      13      14      14      13      14
      14      13      14      14      13      14      14      13      14      14
      13      14      14      13      14      14      13      14      14      13
      14      14      13      14      14      13      14      14      13      14
      14      13      14      14      13      14      14      13      14      14
      13      14      14      13      14      14      13      14      14      13
      14      14      13      14      14      13      14      14      13      14
      14      13      14      14      13      14      14      13      14      14
      13      14      14      13      14      14      13      14      14      13
      14      14      13      14      14      13      14      14      13      14
      14      13      14      14      13      14      14      13      14      14
      13      14      14      13      14      14      13      14      14      13
      14      14      13      14      14      13      14      14      13      14
      14      13      14      14      13      14      14      13      14      14
      13      14      14      13      14      14      13      14      14      13
      14      14      13      14      14      13      14      14      13      14
      14      13      14      14      13      14      14      13      14      14
      13      14      14      13      14      14      13      14      14      13
      14      14      13      14      14      13      14      14      13      14
      14      13      14      14      13      14      14      13      14      14
      13      14      14      13      14      14      13      14      14      13
      14      14      13      14      14      13      14      14      13      14
      14      13      14      14      13      14      14      13      14      14
      13      14      14      13      14      14      13      14      14      13
      14      14      13      14      14      13      14      14      13      14
      14      13      14      14      13      14      14      13      14      14
      13      14      14      13      14      14      13      14      14      13
      14      14      13      14      14      13      14      14      13      14
      14      13      14      14      13      14      14      13      14      14
      13      14      14      13      14      14      13      14      14      13
      14      14      13      14      14      13      14      14      13      14
      14      13      14      14      13      14      14      13      14      14
      13      14      14      13      14      14      13      14      14      13
      14      14      13      14      14      13      14      14      13      14
      14      13      14      14      13      14      14      13      14      14
      13      14      14      13      14      14      13      14      14      13
      14      14      13      14      14      13      14      14      13      14
      14      13      14      14      13      14      14      13      14      14
      13      14      14      13      14      14      13      14      14      13
      14      14      13      14      14      13      14      14      13      14
      14      13      14      14      13      14      14      13      14      14
      13      14      14      13      14      14      13      14      14      13
      14      14      13      14      14      13      14      14      13      14
      14      13      14      14      13      14      14      13      14      14
      13      14      14      13      14      14      13      14      14      13
      14      14      13      14      14      13      14      14      13      14
      14      13      14      14      13      14      14      13      14      14
      13      14      14      13      14      14      13      14      14      13
      14      14      13      14      14      13      14      14      13      14
      14      13      14      14      13      14      14      13      14      14
      13      14      14      13      14      14      13      14      14      13
      14      14      13      14      14      13      14      14      13      14
      14      13      14      14      13      14      14      13      14      14
      13      14      14      13      14      14      13      14      14      13
      14      14      13      14      14      13      14      14      13      14
      14      13      14      14      13      14      14      13      14      14
      13      14      14      13      14      14      13      14      14      13
      14      14      13      14      14      13      14      14      13      14
      14      13      14      14      13      14      14      13      14      14
      13      14      14      13      14      14      13      14      14      13
      14      14      13      14      14      13      14      14      13      14
      14      13      14      14      13      14      14      13      14      14
      13      14      14      13      14      14      13      14      14      13
      14      14      13      14      14      13      14      14      13      14
      14      13      14      14      13      14      14      13      14      14
      13      14      14      13      14      14      13      14      14      13
      14      14      13      14      14      13      14      14      13      14
      14      13      14      14      13      14      14      13      14      14
      13      14      14      13      14      14      13      14      14      13
      14      14      13      14      14      13      14      14      13      14
      14      13      14      14      13      14      14      13      14      14
      13      14      14      13      14      14      13      14      14      13
      14      14      13      14      14      13      14      14      13      14
      14      13      14      14      13      14      14      13      14      14
      13      14      14      13      14      14      13      14      14      13
      14      14      13      14      14      13      14      14      13      14
      14      13      14      14      13      14      14      13      14      14
      13      14      14      13      14      14      13      14      14      13
      14      14      13      14      14      13      14      14      13      14
      14      13      14      14      13      14      14      13      14      14
      13      14      14      13      14      14      13      14      14      13
      14      14      13      14      14      13      14      14      13      14
      14      13      14      14      13      14      14      13      14      14
      13      14      14      13      14      14      13      14      14      13
      14      14      13      14      14      13      14      14      13      14
      14      13      14      14      13      14      14      13      14      14
      13      14      14      13      14      14      13      14      14      13
      14      14      13      14      14      13      14      14      13      14
      14      13      14      14      13      14      14      13      14      14
      13      14      14      13      14      14      13      14      14      13
      14      14      13      14      14      13      14      14      13      14
      14      13      14      14      13      14      14      13      14      14
      13      14      14      13      14      14      13      14      14      13
      14      14      13      14      14      13      14      14      13      14
      14      13      14      14      13      14      14      13      14      14
      13      14      14      13      14      14      13      14      14      13
      14      14      13      14      14      13      14      14      13      14
      14      13      14      14      13      14      14      13      14      14
      13      14      14      13      14      14      13      14      14      13
      14      14      13      14      14      13      14      14      13      14
      14      13      14      14      13      14      14      13      14      14
      13      14      14      13      14      14      13      14      14      13
      14      14      13      14      14      13      14      14      13      14
      14      13      14      14      13      14      14      13      14      14
      13      14      14      13      14      14      13      14      14      13
      14      14      13      14      14      13      14      14      13      14
      14      13      14      14      13      14      14      13      14      14
      13      14      14      13      14      14      13      14      14      13
      14      14      13      14      14      13      14      14      13      14
      14      13      14      14      13      14      14      13      14      14
      13      14      14      13      14      14      13      14      14      13
      14      14      13      14      14      13      14      14      13      14
      14      13      14      14      13      14      14      13      14      14
      13      14      14      13      14      14      13      14      14      13
      14      14      13      14      14      13      14      14      13      14
      14      13      14      14      13      14      14      13      14      14
      13      14      14      13      14      14      13      14      14      13
      14      14      13      14      14      13      14      14      13      14
      14      13      14      14      13      14      14      13      14      14
      13      14      14      13      14      14      13      14      14      13
      14      14      13      14      14      13      14      14      13      14
      14      13      14      14      13      14      14      13      14      14
      13      14      14      13      14      14      13      14      14      13
      14      14      13      14      14      13      14      14      13      14
      14      13      14      14      13      14      14      13      14      14
      13      14      14      13      14      14      13      14      14      13
      14      14      13      14      14      13      14      14      13      14
      14      13      14      14      13      14      14      13      14      14
      13      14      14      13      14      14      13      14      14      13
      14      14      13      14      14      13      14      14      13      14
      14      13      14      14      13      14      14      13      14      14
      13      14      14      13      14      14      13      14      14      13
      14      14      13      14      14      13      14      14      13      14
      14      13      14      14      13      14      14      13      14      14
      13      14      14      13      14      14      13      14      14      13
      14      14      13      14      14      13      14      14      13      14
      14      13      14      14      13      14      14      13      14      14
      13      14      14      13      14      14      13      14      14      13
      14      14      13      14      14      13      14      14      13      14
      14      13      14      14      13      14      14      13      14      14
      13      14      14      13      14      14      13      14      14      13
      14      14      13      14      14      13      14      14      13      14
      14      13      14      14      13      14      14      13      14      14
      13      14      14      13      14      14      13      14      14      13
      14      14      13      14      14      13      14      14      13      14
      14      13      14      14      13      14      14      13      14      14
      13      14      14      13      14      14      13      14      14      13
      14      14      13      14      14      13      14      14      13      14
      14      13      14      14      13      14      14      13      14      14
      13      14      14      13      14      14      13      14      14      13
      14      14      13      14      14      13      14      14      13      14
      14      13      14      14      13      14      14      13      14      14
      13      14      14      13      14      14      13      14      14      13
      14      14      13      14      14      13      14      14      13      14
      14      13      14      14      13      14      14      13      14      14
      13      14      14      13      14      14      13      14      14      13
      14      14      13      14      14      13      14      14      13      14
      14      13      14      14      13      14      14      13      14      14
      13      14      14      13      14      14      13      14      14      13
      14      14      13      14      14      13      14      14      13      14
      14      13      14      14      13      14      14      13      14      14
      13      14      14      13      14      14      13      14      14      13
      14      14      13      14      14      13      14      14      13      14
      14      13      14      14      13      14      14      13      14      14
      13      14      14      13      14      14      13      14      14      13
      14      14      13      14      14      13      14      14      13      14
      14      13      14      14      13      14      14      13      14      14
      13      14      14      13      14      14      13      14      14      13
      14      14      13      14      14      13      14      14      13      14
      14      13      14      14      13      14      14      13      14      14
      13      14      14      13      14      14      13      14      14      13
      14      14      13      14      14      13      14      14      13      14
      14      13      14      14      13      14      14      13      14      14
      13      14      14      13      14      14      13      14      14      13
      14      14      13      14      14      13      14      14      13      14
      14      13      14      14      13      14      14      13      14      14
      13      14      14      13      14      14      13      14      14      13
      14      14      13      14      14      13      14      14      13      14
      14      13      14      14      13      14      14      13      14      14
      13      14      14      13      14      14      13      14      14      13
      14      14      13      14      14      13      14      14      13      14
      14      13      14      14      13      14      14      13      14      14
      13      14      14      13      14      14      13      14      14      13
      14      14      13      14      14      13      14      14      13      14
      14      13      14      14      13      14      14      13      14      14
      13      14      14      13      14      14      13      14      14      13
      14      14      13      14      14      13      14      14      13      14
      14      13      14      14      13      14      14      13      14      14
      13      14      14      13      14      14      13      14      14      13
      14      14      13      14      14      13      14      14      13      14
      14      13      14      14      13      14      14      13      14      14
      13      14      14      13      14      14      13      14      14      13
      14      14      13      14      14      13      14      14      13      14
      14      13      14      14      13      14      14      13      14      14
      13      14      14      13      14      14      13      14      14      13
      14      14      13      14      14      13      14      14      13      14
      14      13      14      14      13      14      14      13      14      14
      13      14      14      13      14      14      13      14      14      13
      14      14      13      14      14      13      14      14      13      14
      14      13      14      14      13      14      14      13      14      14
      13      14      14      13      14      14      13      14      14      13
      14      14      13      14      14      13      14      14      13      14
      14      13      14      14      13      14      14      13      14      14
      13      14      14      13      14      14      13      14      14      13
      14      14      13      14      14      13      14      14      13      14
      14      13      14      14      13      14      14      13      14      14
      13      14      14      13      14      14      13      14      14      13
      14      14      13      14      14      13      14      14      13      14
      14      13      14      14      13      14      14      13      14      14
      13      14      14      13      14      14      13      14      14      13
      14      14      13      14      14      13      14      14      13      14
      14      13      14      14      13      14      14      13      14      14
      13      14      14      13      14      14      13      14      14      13
      14      14      13      14      14      13      14      14      13      14
      14      13      14      14      13      14      14      13      14      14
      13      14      14      13      14      14      13      14      14      13
      14      14      13      14      14      13      14      14      13      14
      14      13      14      14      13      14      14      13      14      14
      13      14      14      13      14      14      13      14      14      13
      14      14      13      14      14      13      14      14      13      14
      14      13      14      14      13      14      14      13      14      14
      13      14      14      13      14      14      13      14      14      13
      14      14      13      14      14      13      14      14      13      14
      14      13      14      14      13      14      14      13      14      14
      13      14      14      13      14      14      13      14      14      13
      14      14      13      14      14      13      14      14      13      14
      14      13      14      14      13      14      14      13      14      14
      13      14      14      13      14      14      13      14      14      13
      14      14      13      14      14      13      14      14      13      14
      14      13      14      14      13      14      14      13      14      14
      13      14      14      13      14      14      13      14      14      13
      14      14      13      14      14      13      14      14      13      14
      14      13      14      14      13      14      14      13      14      14
      13      14      14      13      14      14      13      14      14      13
      14      14      13      14      14      13      14      14      13      14
      14      13      14      14      13      14      14      13      14      14
      13      14      14      13      14      14      13      14      14      13
      14      14      13      14      14      13      14      14      13      14
      14      13      14      14      13      14      14      13      14      14
      13      14      14      13      14      14      13      14      14      13
      14      14      13      14      14      13      14      14      13      14
      14      13      14      14      13      14      14      13      14      14
      13      14      14      13      14      14      13      14      14      13
      14      14      13      14      14      13      14      14      13      14
      14      13      14      14      13      14      14      13      14      14
      13      14      14      13      14      14      13      14      14      13
      14      14      13      14      14      13      14      14      13      14
      14      13      14      14      13      14      14      13      14      14
      13      14      14      13      14      14      13      14      14      13
      14      14      13      14      14      13      14      14      13      14
      14      13      14      14      13      14      14      13      14      14
      13      14      14      13      14      14      13      14      14      13
      14      14      13      14      14      13      14      14      13      14
      14      13      14      14      13      14      14      13      14      14
      13      14      14      13      14      14      13      14      14      13
      14      14      13      14      14      13      14      14      13      14
      14      13      14      14      13      14      14      13      14      14
      13      14      14      13      14      14      13      14      14      13
      14      14      13      14      14      13      14      14      13      14
      14      13      14      14      13      14      14      13      14      14
      13      14      14      13      14      14      13      14      14      13
      14      14      13      14      14      13      14      14      13      14
      14      13      14      14      13      14      14      13      14      14
      13      14      14      13      14      14      13      14      14      13
      14      14      13      14      14      13      14      14      13      14
      14      13      14      14      13      14      14      13      14      14
      13      14      14      13      14      14      13      14      14      13
      14      14      13      14      14      13      14      14      13      14
      14      13      14      14      13      14      14      13      14      14
      13      14      14      13      14      14      13      14      14      13
      14      14      13      14      14      13      14      14      13      14
      14      13      14      14      13      14      14      13      14      14
      13      14      14      13      14      14      13      14      14      13
      14      14      13      14      14      13      14      14      13      14
      14      13      14      14      13      14      14      13      14      14
      13      14      14      13      14      14      13      14      14      13
      14      14      13      14      14      13      14      14      13      14
      14      13      14      14      13      14      14      13      14      14
      13      14      14      13      14      14      13      14      14      13
      14      14      13      14      14      13      14      14      13      14
      14      13      14      14      13      14      14      13      14      14
      13      14      14      13      14      14      13      14      14      13
      14      14      13      14      14      13      14      14      13      14
      14      13      14      14      13      14      14      13      14      14
      13      14      14      13      14      14      13      14      14      13
      14      14      13      14      14      13      14      14      13      14
      14      13      14      14      13      14      14      13      14      14
      13      14      14      13      14      14      13      14      14      13
      14      14      13      14      14      13      14      14      13      14
      14      13      14      14      13      14      14      13      14      14
      13      14      14      13      14      14      13      14      14      13
      14      14      13      14      14      13      14      14      13      14
      14      13      14      14      13      14      14      13      14      14
      13      14      14      13      14      14      13      14      14      13
      14      14      13      14      14      13      14      14      13      14
      14      13      14      14      13      14      14      13      14      14
      13      14      14      13      14      14      13      14      14      13
      14      14      13      14      14      13      14      14      13      14
      14      13      14      14      13      14      14      13      14      14
      13      14      14      13      14      14      13      14      14      13
      14      14      13      14      14      13      14      14      13      14
      14      13      14      14      13      14      14      13      14      14
      13      14      14      13      14      14      13      14      14      13
      14      14      13      14      14      13      14      14      13      14
      14      13      14      14      13      14      14      13      14      14
      13      14      14      13      14      14      13      14      14      13
      14      14      13      14      14      13      14      14      13      14
      14      13      14      14      13      14      14      13      14      14
      13      14      14      13      14      14      13      14      14      13
      14      14      13      14      14      13      14      14      13      14
      14      13      14      14      13      14      14      13      14      14
      13      14      14      13      14      14      13      14      14      13
      14      14      13      14      14      13      14      14      13      14
      14      13      14      14      13      14      14      13      14      14
      13      14      14      13      14      14      13      14      14      13
      14      14      13      14      14      13      14      14      13      14
      14      13      14      14      13      14      14      13      14      14
      13      14      14      13      14      14      13      14      14      13
      14      14      13      14      14      13      14      14      13      14
      14      13      14      14      13      14      14      13      14      14
      13      14      14      13      14      14      13      14      14      13
      14      14      13      14      14      13      14      14      13      14
      14      13      14      14      13      14      14      13      14      14
      13      14      14      13      14      14      13      14      14      13
      14      14      13      14      14      13      14      14      13      14
      14      13      14      14      13      14      14      13      14      14
      13      14      14      13      14      14      13      14      14      13
      14      14      13      14      14      13      14      14      13      14
      14      13      14      14      13      14      14      13      14      14
      13      14      14      13      14      14      13      14      14      13
      14      14      13      14      14      13      14      14      13      14
      14      13      14      14      13      14      14      13      14      14
      13      14      14      13      14      14      13      14      14      13
      14      14      13      14      14      13      14      14      13      14
      14      13      14      14      13      14      14      13      14      14
      13      14      14      13      14      14      13      14      14      13
      14      14      13      14      14      13      14      14      13      14
      14      13      14      14      13      14      14      13      14      14
      13      14      14      13      14      14      13      14      14      13
      14      14      13      14      14      13      14      14      13      14
      14      13      14      14      13      14      14      13      14      14
      13      14      14      13      14      14      13      14      14      13
      14      14      13      14      14      13      14      14      13      14
      14      13      14      14      13      14      14      13      14      14
      13      14      14      13      14      14      13      14      14      13
      14      14      13      14      14      13      14      14      13      14
      14      13      14      14      13      14      14      13      14      14
      13      14      14      13      14      14      13      14      14      13
      14      14      13      14      14      13      14      14      13      14
      14      13      14      14      13      14      14      13      14      14
      13      14      14      13      14      14      13      14      14      13
      14      14      13      14      14      13      14      14      13      14
      14      13      14      14      13      14      14      13      14      14
      13      14      14      13      14      14      13      14      14      13
      14      14      13      14      14      13      14      14      13      14
      14      13      14      14      13      14      14      13      14      14
      13      14      14      13      14      14      13      14      14      13
      14      14      13      14      14      13      14      14      13      14
      14      13      14      14      13      14      14      13      14      14
      13      14      14      13      14      14      13      14      14      13
      14      14      13      14      14      13      14      14      13      14
      14      13      14      14      13      14      14      13      14      14
      13      14      14      13      14      14      13      14      14      13
      14      14      13      14      14      13      14      14      13      14
      14      13      14      14      13      14      14      13      14      14
      13      14      14      13      14      14      13      14      14      13
      14      14      13      14      14      13      14      14      13      14
      14      13      14      14      13      14      14      13      14      14
      13      14      14      13      14      14      13      14      14      13
      14      14      13      14      14      13      14      14      13      14
      14      13      14      14      13      14      14      13      14      14
      13      14      14      13      14      14      13      14      14      13
      14      14      13      14      14      13      14      14      13      14
      14      13      14      14      13      14      14      13      14      14
      13      14      14      13      14      14      13      14      14      13
      14      14      13      14      14      13      14      14      13      14
      14      13      14      14      13      14      14      13      14      14
      13      14      14      13      14      14      13      14      14      13
      14      14      13      14      14      13      14      14      13      14
      14      13      14      14      13      14      14      13      14      14
      13      14      14      13      14      14      13      14      14      13
      14      14      13      14      14      13      14      14      13      14
      14      13      14      14      13      14      14      13      14      14
      13      14      14      13      14      14      13      14      14      13
      14      14      13      14      14      13      14      14      13      14
      14      13      14      14      13      14      14      13      14      14
      13      14      14      13      14      14      13      14      14      13
      14      14      13      14      14      13      14      14      13      14
      14      13      14      14      13      14      14      13      14      14
      13      14      14      13      14      14      13      14      14      13
      14      14      13      14      14      13      14      14      13      14
      14      13      14      14      13      14      14      13      14      14
      13      14      14      13      14      14      13      14      14      13
      14      14      13      14      14      13      14      14      13      14
      14      13      14      14      13      14      14      13      14      14
      13      14      14      13      14      14      13      14      14      13
      14      14      13      14      14      13      14      14      13      14
      14      13      14      14      13      14      14      13      14      14
      13      14      14      13      14      14      13      14      14      13
      14      14      13      14      14      13      14      14      13      14
      14      13      14      14      13      14      14      13      14      14
      13      14      14      13      14      14      13      14      14      13
      14      14      13      14      14      13      14      14      13      14
      14      13      14      14      13      14      14      13      14      14
      13      14      14      13      14      14      13      14      14      13
      14      14      13      14      14      13      14      14      13      14
      14      13      14      14      13      14      14      13      14      14
      13      14      14      13      14      14      13      14      14      13
      14      14      13      14      14      13      14      14      13      14
      14      13      14      14      13      14      14      13      14      14
      13      14      14      13      14      14      13      14      14      13
      14      14      13      14      14      13      14      14      13      14
      14      13      14      14      13      14      14      13      14      14
      13      14      14      13      14      14      13      14      14      13
      14      14      13      14      14      13      14      14      13      14
      14      13      14      14      13      14      14      13      14      14
      13      14      14      13      14      14      13      14      14      13
      14      14      13      14      14      13      14      14      13      14
      14      13      14      14      13      14      14      13      14      14
      13      14      14      13      14      14      13      14      14      13
      14      14      13      14      14      13      14      14      13      14
      14      13      14      14      13      14      14      13      14      14
      13      14      14      13      14      14      13      14      14      13
      14      14      13      14      14      13      14      14      13      14
      14      13      14      14      13      14      14      13      14      14
      13      14      14      13      14      14      13      14      14      13
      14      14      13      14      14      13      14      14      13      14
      14      13      14      14      13      14      14      13      14      14
      13      14      14      13      14      14      13      14      14      13
      14      14      13      14      14      13      14      14      13      14
      14      13      14      14      13      14      14      13      14      14
      13      14      14      13      14      14      13      14      14      13
      14      14      13      14      14      13      14      14      13      14
      14      13      14      14      13      14      14      13      14      14
      13      14      14      13      14      14      13      14      14      13
      14      14      13      14      14      13      14      14      13      14
      14      13      14      14      13      14      14      13      14      14
      13      14      14      13      14      14      13      14      14      13
      14      14      13      14      14      13      14      14      13      14
      14      13      14      14      13      14      14      13      14      14
      13      14      14      13      14      14      13      14      14      13
      14      14      13      14      14      13      14      14      13      14
      14      13      14      14      13      14      14      13      14      14
      13      14      14      13      14      14      13      14      14      13
      14      14      13      14      14      13      14      14      13      14
      14      13      14      14      13      14      14      13      14      14
      13      14      14      13      14      14      13      14      14      13
      14      14      13      14      14      13      14      14      13      14
      14      13      14      14      13      14      14      13      14      14
      13      14      14      13      14      14      13      14      14      13
      14      14      13      14      14      13      14      14      13      14
      14      13      14      14      13      14      14      13      14      14
      13      14      14      13      14      14      13      14      14      13
      14      14      13      14      14      13      14      14      13      14
      14      13      14      14      13      14      14      13      14      14
      13      14      14      13      14      14      13      14      14      13
      14      14      13      14      14      13      14      14      13      14
      14      13      14      14      13      14      14      13      14      14
      13      14      14      13      14      14      13      14      14      13
      14      14      13      14      14      13      14      14      13      14
      14      13      14      14      13      14      14      13      14      14
      13      14      14      13      14      14      13      14      14      13
      14      14      13      14      14      13      14      14      13      14
      14      13      14      14      13      14      14      13      14      14
      13      14      14      13      14      14      13      14      14      13
      14      14      13      14      14      13      14      14      13      14
      14      13      14      14      13      14      14      13      14      14
      13      14      14      13      14      14      13      14      14      13
      14      14      13      14      14      13      14      14      13      14
      14      13      14      14      13      14      14      13      14      14
      13      14      14      13      14      14      13      14      14      13
      14      14      13      14      14      13      14      14      13      14
      14      13      14      14      13      14      14      13      14      14
      13      14      14      13      14      14      13      14      14      13
      14      14      13      14      14      13      14      14      13      14
      14      13      14      14      13      14      14      13      14      14
      13      14      14      13      14      14      13      14      14      13
      14      14      13      14      14      13      14      14      13      14
      14      13      14      14      13      14      14      13      14      14
      13      14      14      13      14      14      13      14      14      13
      14      14      13      14      14      13      14      14      13      14
      14      13      14      14      13      14      14      13      14      14
      13      14      14      13      14      14      13      14      14      13
      14      14      13      14      14      13      14      14      13      14
      14      13      14      14      13      14      14      13      14      14
      13      14      14      13      14      14      13      14      14      13
      14      14      13      14      14      13      14      14      13      14
      14      13      14      14      13      14      14      13      14      14
      13      14      14      13      14      14      13      14      14      13
      14      14      13      14      14      13      14      14      13      14
      14      13      14      14      13      14      14      13      14      14
      13      14      14      13      14      14      13      14      14      13
      14      14      13      14      14      13      14      14      13      14
      14      13      14      14      13      14      14      13      14      14
      13      14      14      13      14      14      13      14      14      13
      14      14      13      14      14      13      14      14      13      14
      14      13      14      14      13      14      14      13      14      14
      13      14      14      13      14      14      13      14      14      13
      14      14      13      14      14      13      14      14      13      14
      14      13      14      14      13      14      14      13      14      14
      13      14      14      13      14      14      13      14      14      13
      14      14      13      14      14      13      14      14      13      14
      14      13      14      14      13      14      14      13      14      14
      13      14      14      13      14      14      13      14      14      13
      14      14      13      14      14      13      14      14      13      14
      14      13      14      14      13      14      14      13      14      14
      13      14      14      13      14      14      13      14      14      13
      14      14      13      14      14      13      14      14      13      14
      14      13      14      14      13      14      14      13      14      14
      13      14      14      13      14      14      13      14      14      13
      14      14      13      14      14      13      14      14      13      14
      14      13      14      14      13      14      14      13      14      14
      13      14      14      13      14      14      13      14      14      13
      14      14      13      14      14      13      14      14      13      14
      14      13      14      14      13      14      14      13      14      14
      13      14      14      13      14      14      13      14      14      13
      14      14      13      14      14      13      14      14      13      14
      14      13      14      14      13      14      14      13      14      14
      13      14      14      13      14      14      13      14      14      13
      14      14      13      14      14      13      14      14      13      14
      14      13      14      14      13      14      14      13      14      14
      13      14      14      13      14      14      13      14      14      13
      14      14      13      14      14      13      14      14      13      14
      14      13      14      14      13      14      14      13      14      14
      13      14      14      13      14      14      13      14      14      13
      14      14      13      14      14      13      14      14      13      14
      14      13      14      14      13      14      14      13      14      14
      13      14      14      13      14      14      13      14      14      13
      14      14      13      14      14      13      14      14      13      14
      14      13      14      14      13      14      14      13      14      14
      13      14      14      13      14      14      13      14      14      13
      14      14      13      14      14      13      14      14      13      14
      14      13      14      14      13      14      14      13      14      14
      13      14      14      13      14      14      13      14      14      13
      14      14      13      14      14      13      14      14      13      14
      14      13      14      14      13      14      14      13      14      14
      13      14      14      13      14      14      13      14      14      13
      14      14      13      14      14      13      14      14      13      14
      14      13      14      14      13      14      14      13      14      14
      13      14      14      13      14      14      13      14      14      13
      14      14      13      14      14      13      14      14      13      14
      14      13      14      14      13      14      14      13      14      14
      13      14      14      13      14      14      13      14      14      13
      14      14      13      14      14      13      14      14      13      14
      14      13      14      14      13      14      14      13      14      14
      13      14      14      13      14      14      13      14      14      13
      14      14      13      14      14      13      14      14      13      14
      14      13      14      14      13      14      14      13      14      14
      13      14      14      13      14      14      13      14      14      13
      14      14      13      14      14      13      14      14      13      14
      14      13      14      14      13      14      14      13      14      14
      13      14      14      13      14      14      13      14      14      13
      14      14      13      14      14      13      14      14      13      14
      14      13      14      14      13      14      14      13      14      14
      13      14      14      13      14      14      13      14      14      13
      14      14      13      14      14      13      14      14      13      14
      14      13      14      14      13      14      14      13      14      14
      13      14      14      13      14      14      13      14      14      13
      14      14      13      14      14      13      14      14      13      14
      14      13      14      14      13      14      14      13      14      14
      13      14      14      13      14      14      13      14      14      13
      14      14      13      14      14      13      14      14      13      14
      14      13      14      14      13      14      14      13      14      14
      13      14      14      13      14      14      13      14      14      13
      14      14      13      14      14      13      14      14      13      14
      14      13      14      14      13      14      14      13      14      14
      13      14      14      13      14      14      13      14      14      13
      14      14      13      14      14      13      14      14      13      14
      14      13      14      14      13      14      14      13      14      14
      13      14      14      13      14      14      13      14      14      13
      14      14      13      14      14      13      14      14      13      14
      14      13      14      14      13      14      14      13      14      14
      13      14      14      13      14      14      13      14      14      13
      14      14      13      14      14      13      14      14      13      14
      14      13      14      14      13      14      14      13      14      14
      13      14      14      13      14      14      13      14      14      13
      14      14      13      14      14      13      14      14      13      14
      14      13      14      14      13      14      14      13      14      14
      13      14      14      13      14      14      13      14      14      13
      14      14      13      14      14      13      14      14      13      14
      14      13      14      14      13      14      14      13      14      14
      13      14      14      13      14      14      13      14      14      13
      14      14      13      14      14      13      14      14      13      14
      14      13      14      14      13      14      14      13      14      14
      13      14      14      13      14      14      13      14      14      13
      14      14      13      14      14      13      14      14      13      14
      14      13      14      14      13      14      14      13      14      14
      13      14      14      13      14      14      13      14      14      13
      14      14      13      14      14      13      14      14      13      14
      14      13      14      14      13      14      14      13      14      14
      13      14      14      13      14      14      13      14      14      13
      14      14      13      14      14      13      14      14      13      14
      14      13      14      14      13      14      14      13      14      14
      13      14      14      13      14      14      13      14      14      13
      14      14      13      14      14      13      14      14      13      14
      14      13      14      14      13      14      14      13      14      14
      13      14      14      13      14      14      13      14      14      13
      14      14      13      14      14      13      14      14      13      14
      14      13      14      14      13      14      14      13      14      14
      13      14      14      13      14      14      13      14      14      13
      14      14      13      14      14      13      14      14      13      14
      14      13      14      14      13      14      14      13      14      14
      13      14      14      13      14      14      13      14      14      13
      14      14      13      14      14      13      14      14      13      14
      14      13      14      14      13      14      14      13      14      14
      13      14      14      13      14      14      13      14      14      13
      14      14      13      14      14      13      14      14      13      14
      14      13      14      14      13      14      14      13      14      14
      13      14      14      13      14      14      13      14      14      13
      14      14      13      14      14      13      14      14      13      14
      14      13      14      14      13      14      14      13      14      14
      13      14      14      13      14      14      13      14      14      13
      14      14      13      14      14      13      14      14      13      14
      14      13      14      14      13      14      14      13      14      14
      13      14      14      13      14      14      13      14      14      13
      14      14      13      14      14      13      14      14      13      14
      14      13      14      14      13      14      14      13      14      14
      13      14      14      13      14      14      13      14      14      13
      14      14      13      14      14      13      14      14      13      14
      14      13      14      14      13      14      14      13      14      14
      13      14      14      13      14      14      13      14      14      13
      14      14      13      14      14      13      14      14      13      14
      14      13      14      14      13      14      14      13      14      14
      13      14      14      13      14      14      13      14      14      13
      14      14      13      14      14      13      14      14      13      14
      14      13      14      14      13      14      14      13      14      14
      13      14      14      13      14      14      13      14      14      13
      14      14      13      14      14      13      14      14      13      14
      14      13      14      14      13      14      14      13      14      14
      13      14      14      13      14      14      13      14      14      13
      14      14      13      14      14      13      14      14      13      14
      14      13      14      14      13      14      14      13      14      14
      13      14      14      13      14      14      13      14      14      13
      14      14      13      14      14      13      14      14      13      14
      14      13      14      14      13      14      14      13      14      14
      13      14      14      13      14      14      13      14      14      13
      14      14      13      14      14      13      14      14      13      14
      14      13      14      14      13      14      14      13      14      14
      13      14      14      13      14      14      13      14      14      13
      14      14      13      14      14      13      14      14      13      14
      14      13      14      14      13      14      14      13      14      14
      13      14      14      13      14      14      13      14      14      13
      14      14      13      14      14      13      14      14      13      14
      14      13      14      14      13      14      14      13      14      14
      13      14      14      13      14      14      13      14      14      13
      14      14      13      14      14      13      14      14      13      14
      14      13      14      14      13      14      14      13      14      14
      13      14      14      13      14      14      13      14      14      13
      14      14      13      14      14      13      14      14      13      14
      14      13      14      14      13      14      14      13      14      14
      13      14      14      13      14      14      13      14      14      13
      14      14      13      14      14      13      14      14      13      14
      14      13      14      14      13      14      14      13      14      14
      13      14      14      13      14      14      13      14      14      13
      14      14      13      14      14      13      14      14      13      14
      14      13      14      14      13      14      14      13      14      14
      13      14      14      13      14      14      13      14      14      13
      14      14      13      14      14      13      14      14      13      14
      14      13      14      14      13      14      14      13      14      14
      13      14      14      13      14      14      13      14      14      13
      14      14      13      14      14      13      14      14      13      14
      14      13      14      14      13      14      14      13      14      14
      13      14      14      13      14      14      13      14      14      13
      14      14      13      14      14      13      14      14      13      14
      14      13      14      14      13      14      14      13      14      14
      13      14      14      13      14      14      13      14      14      13
      14      14      13      14      14      13      14      14      13      14
      14      13      14      14      13      14      14      13      14      14
      13      14      14      13      14      14      13      14      14      13
      14      14      13      14      14      13      14      14      13      14
      14      13      14      14      13      14      14      13      14      14
      13      14      14      13      14      14      13      14      14      13
      14      14      13      14      14      13      14      14      13      14
      14      13      14      14      13      14      14      13      14      14
      13      14      14      13      14      14      13      14      14      13
      14      14      13      14      14      13      14      14      13      14
      14      13      14      14      13      14      14      13      14      14
      13      14      14      13      14      14      13      14      14      13
      14      14      13      14      14      13      14      14      13      14
      14      13      14      14      13      14      14      13      14      14
      13      14      14      13      14      14      13      14      14      13
      14      14      13      14      14      13      14      14      13      14
      14      13      14      14      13      14      14      13      14      14
      13      14      14      13      14      14      13      14      14      13
      14      14      13      14      14      13      14      14      13      14
      14      13      14      14      13      14      14      13      14      14
      13      14      14      13      14      14      13      14      14      13
      14      14      13      14      14      13      14      14      13      14
      14      13      14      14      13      14      14      13      14      14
      13      14      14      13      14      14      13      14      14      13
      14      14      13      14      14      13      14      14      13      14
      14      13      14      14      13      14      14      13      14      14
      13      14      14      13      14      14      13      14      14      13
      14      14      13      14      14      13      14      14      13      14
      14      13      14      14      13      14      14      13      14      14
      13      14      14      13      14      14      13      14      14      13
      14      14      13      14      14      13      14      14      13      14
      14      13      14      14      13      14      14      13      14      14
      13      14      14      13      14      14      13      14      14      13
      14      14      13      14      14      13      14      14      13      14
      14      13      14      14      13      14      14      13      14      14
      13      14      14      13      14      14      13      14      14      13
      14      14      13      14      14      13      14      14      13      14
      14      13      14      14      13      14      14      13      14      14
      13      14      14      13      14      14      13      14      14      13
      14      14      13      14      14      13      14      14      13      14
      14      13      14      14      13      14      14      13      14      14
      13      14      14      13      14      14      13      14      14      13
      14      14      13      14      14      13      14      14      13      14
      14      13      14      14      13      14      14      13      14      14
      13      14      14      13      14      14      13      14      14      13
      14      14      13      14      14      13      14      14      13      14
      14      13      14      14      13      14      14      13      14      14
      13      14      14      13      14      14      13      14      14      13
      14      14      13      14      14      13      14      14      13      14
      14      13      14      14      13      14      14      13      14      14
      13      14      14      13      14      14      13      14      14      13
      14      14      13      14      14      13      14      14      13      14
      14      13      14      14      13      14      14      13      14      14
      13      14      14      13      14      14      13      14      14      13
      14      14      13      14      14      13      14      14      13      14
      14      13      14      14      13      14      14      13      14      14
      13      14      14      13      14      14      13      14      14      13
      14      14      13      14      14      13      14      14      13      14
      14      13      14      14      13      14      14      13      14      14
      13      14      14      13      14      14      13      14      14      13
      14      14      13      14      14      13      14      14      13      14
      14      13      14      14      13      14      14      13      14      14
      13      14      14      13      14      14      13      14      14      13
      14      14      13      14      14      13      14      14      13      14
      14      13      14      14      13      14      14      13      14      14
      13      14      14      13      14      14      13      14      14      13
      14      14      13      14      14      13      14      14      13      14
      14      13      14      14      13      14      14      13      14      14
      13      14      14      13      14      14      13      14      14      13
      14      14      13      14      14      13      14      14      13      14
      14      13      14      14      13      14      14      13      14      14
      13      14      14      13      14      14      13      14      14      13
      14      14      13      14      14      13      14      14      13      14
      14      13      14      14      13      14      14      13      14      14
      13      14      14      13      14      14      13      14      14      13
      14      14      13      14      14      13      14      14      13      14
      14      13      14      14      13      14      14      13      14      14
      13      14      14      13      14      14      13      14      14      13
      14      14      13      14      14      13      14      14      13      14
      14      13      14      14      13      14      14      13      14      14
      13      14      14      13      14      14      13      14      14      13
      14      14      13      14      14      13      14      14      13      14
      14      13      14      14      13      14      14      13      14      14
      13      14      14      13      14      14      13      14      14      13
      14      14      13      14      14      13      14      14      13      14
      14      13      14      14      13      14      14      13      14      14
      13      14      14      13      14      14      13      14      14      13
      14      14      13      14      14      13      14      14      13      14
      14      13      14      14      13      14      14      13      14      14
      13      14      14      13      14      14      13      14      14      13
      14      14      13      14      14      13      14      14      13      14
      14      13      14      14      13      14      14      13      14      14
      13      14      14      13      14      14      13      14      14      13
      14      14      13      14      14      13      14      14      13      14
      14      13      14      14      13      14      14      13      14      14
      13      14      14      13      14      14      13      14      14      13
      14      14      13      14      14      13      14      14      13      14
      14      13      14      14      13      14      14      13      14      14
      13      14      14      13      14      14      13      14      14      13
      14      14      13      14      14      13      14      14      13      14
      14      13      14      14      13      14      14      13      14      14
      13      14      14      13      14      14      13      14      14      13
      14      14      13      14      14      13      14      14      13      14
      14      13      14      14      13      14      14      13      14      14
      13      14      14      13      14      14      13      14      14      13
      14      14      13      14      14      13      14      14      13      14
      14      13      14      14      13      14      14      13      14      14
      13      14      14      13      14      14      13      14      14      13
      14      14      13      14      14      13      14      14      13      14
      14      13      14      14      13      14      14      13      14      14
      13      14      14      13      14      14      13      14      14      13
      14      14      13      14      14      13      14      14      13      14
      14      13      14      14      13      14      14      13      14      14
      13      14      14      13      14      14      13      14      14      13
      14      14      13      14      14      13      14      14      13      14
      14      13      14      14      13      14      14      13      14      14
      13      14      14      13      14      14      13      14      14      13
      14      14      13      14      14      13      14      14      13      14
      14      13      14      14      13      14      14      13      14      14
      13      14      14      13      14      14      13      14      14      13
      14      14      13      14      14      13      14      14      13      14
      14      13      14      14      13      14      14      13      14      14
      13      14      14      13      14      14      13      14      14      13
      14      14      13      14      14      13      14      14      13      14
      14      13      14      14      13      14      14      13      14      14
      13      14      14      13      14      14      13      14      14      13
      14      14      13      14      14      13      14      14      13      14
      14      13      14      14      13      14      14      13      14      14
      13      14      14      13      14      14      13      14      14      13
      14      14      13      14      14      13      14      14      13      14
      14      13      14      14      13      14      14      13      14      14
      13      14      14      13      14      14      13      14      14      13
      14      14      13      14      14      13      14      14      13      14
      14      13      14      14      13      14      14      13      14      14
      13      14      14      13      14      14      13      14      14      13
      14      14      13      14      14      13      14      14      13      14
      14      13      14      14      13      14      14      13      14      14
      13      14      14      13      14      14      13      14      14      13
      14      14      13      14      14      13      14      14      13      14
      14      13      14      14      13      14      14      13      14      14
      13      14      14      13      14      14      13      14      14      13
      14      14      13      14      14      13      14      14      13      14
      14      13      14      14      13      14      14      13      14      14
      13      14      14      13      14      14      13      14      14      13
      14      14      13      14      14      13      14      14      13      14
      14      13      14      14      13      14      14      13      14      14
      13      14      14      13      14      14      13      14      14      13
      14      14      13      14      14      13      14      14      13      14
      14      13      14      14      13      14      14      13      14      14
      13      14      14      13      14      14      13      14      14      13
      14      14      13      14      14      13      14      14      13      14
      14      13      14      14      13      14      14      13      14      14
      13      14      14      13      14      14      13      14      14      13
      14      14      13      14      14      13      14      14      13      14
      14      13      14      14      13      14      14      13      14      14
      13      14      14      13      14      14      13      14      14      13
      14      14      13      14      14      13      14      14      13      14
      14      13      14      14      13      14      14      13      14      14
      13      14      14      13      14      14      13      14      14      13
      14      14      13      14      14      13      14      14      13      14
      14      13      14      14      13      14      14      13      14      14
      13      14      14      13      14      14      13      14      14      13
      14      14      13      14      14      13      14      14      13      14
      14      13      14      14      13      14      14      13      14      14
      13      14      14      13      14      14      13      14      14      13
      14      14      13      14      14      13      14      14      13      14
      14      13      14      14      13      14      14      13      14      14
      13      14      14      13      14      14      13      14      14      13
      14      14      13      14      14      13      14      14      13      14
      14      13      14      14      13      14      14      13      14      14
      13      14      14      13      14      14      13      14      14      13
      14      14      13      14      14      13      14      14      13      14
      14      13      14      14      13      14      14      13      14      14
      13      14      14      13      14      14      13      14      14      13
      14      14      13      14      14      13      14      14      13      14
      14      13      14      14      13      14      14      13      14      14
      13      14      14      13      14      14      13      14      14      13
      14      14      13      14      14      13      14      14      13      14
      14      13      14      14      13      14      14      13      14      14
      13      14      14      13      14      14      13      14      14      13
      14      14      13      14      14      13      14      14      13      14
      14      13      14      14      13      14      14      13      14      14
      13      14      14      13      14      14      13      14      14      13
      14      14      13      14      14      13      14      14      13      14
      14      13      14      14      13      14      14      13      14      14
      13      14      14      13      14      14      13      14      14      13
      14      14      13      14      14      13      14      14      13      14
      14      13      14      14      13      14      14      13      14      14
      13      14      14      13      14      14      13      14      14      13
      14      14      13      14      14      13      14      14      13      14
      14      13      14      14      13      14      14      13      14      14
      13      14      14      13      14      14      13      14      14      13
      14      14      13      14      14      13      14      14      13      14
      14      13      14      14      13      14      14      13      14      14
      13      14      14      13      14      14      13      14      14      13
      14      14      13      14      14      13      14      14      13      14
      14      13      14      14      13      14      14      13      14      14
      13      14      14      13      14      14      13      14      14      13
      14      14      13      14      14      13      14      14      13      14
      14      13      14      14      13      14      14      13      14      14
      13      14      14      13      14      14      13      14      14      13
      14      14      13      14      14      13      14      14      13      14
      14      13      14      14      13      14      14      13      14      14
      13      14      14      13      14      14      13      14      14      13
      14      14      13      14      14      13      14      14      13      14
      14      13      14      14      13      14      14      13      14      14
      13      14      14      13      14      14      13      14      14      13
      14      14      13      14      14      13      14      14      13      14
      14      13      14      14      13      14      14      13      14      14
      13      14      14      13      14      14      13      14      14      13
      14      14      13      14      14      13      14      14      13      14
      14      13      14      14      13      14      14      13      14      14
      13      14      14      13      14      14      13      14      14      13
      14      14      13      14      14      13      14      14      13      14
      14      13      14      14      13      14      14      13      14      14
      13      14      14      13      14      14      13      14      14      13
      14      14      13      14      14      13      14      14      13      14
      14      13      14      14      13      14      14      13      14      14
      13      14      14      13      14      14      13      14      14      13
      14      14      13      14      14      13      14      14      13      14
      14      13      14      14      13      14      14      13      14      14
      13      14      14      13      14      14      13      14      14      13
      14      14      13      14      14      13      14      14      13      14
      14      13      14      14      13      14      14      13      14      14
      13      14      14      13      14      14      13      14      14      13
      14      14      13      14      14      13      14      14      13      14
      14      13      14      14      13      14      14      13      14      14
      13      14      14      13      14      14      13      14      14      13
      14      14      13      14      14      13      14      14      13      14
      14      13      14      14      13      14      14      13      14      14
      13      14      14      13      14      14      13      14      14      13
      14      14      13      14      14      13      14      14      13      14
      14      13      14      14      13      14      14      13      14      14
      13      14      14      13      14      14      13      14      14      13
      14      14      13      14      14      13      14      14      13      14
      14      13      14      14      13      14      14      13      14      14
      13      14      14      13      14      14      13      14      14      13
      14      14      13      14      14      13      14      14      13      14
      14      13      14      14      13      14      14      13      14      14
      13      14      14      13      14      14      13      14      14      13
      14      14      13      14      14      13      14      14      13      14
      14      13      14      14      13      14      14      13      14      14
      13      14      14      13      14      14      13      14      14      13
      14      14      13      14      14      13      14      14      13      14
      14      13      14      14      13      14      14      13      14      14
      13      14      14      13      14      14      13      14      14      13
      14      14      13      14      14      13      14      14      13      14
      14      13      14      14      13      14      14      13      14      14
      13      14      14      13      14      14      13      14      14      13
      14      14      13      14      14      13      14      14      13      14
      14      13      14      14      13      14      14      13      14      14
      13      14      14      13      14      14      13      14      14      13
      14      14      13      14      14      13      14      14      13      14
      14      13      14      14      13      14      14      13      14      14
      13      14      14      13      14      14      13      14      14      13
      14      14      13      14      14      13      14      14      13      14
      14      13      14      14      13      14      14      13      14      14
      13      14      14      13      14      14      13      14      14      13
      14      14      13      14      14      13      14      14      13      14
      14      13      14      14      13      14      14      13      14      14
      13      14      14      13      14      14      13      14      14      13
      14      14      13      14      14      13      14      14      13      14
      14      13      14      14      13      14      14      13      14      14
      13      14      14      13      14      14      13      14      14      13
      14      14      13      14      14      13      14      14      13      14
      14      13      14      14      13      14      14      13      14      14
      13      14      14      13      14      14      13      14      14      13
      14      14      13      14      14      13      14      14      13      14
      14      13      14      14      13      14      14      13      14      14
      13      14      14      13      14      14      13      14      14      13
      14      14      13      14      14      13      14      14      13      14
      14      13      14      14      13      14      14      13      14      14
      13      14      14      13      14      14      13      14      14      13
      14      14      13      14      14      13      14      14      13      14
      14      13      14      14      13      14      14      13      14      14
      13      14      14      13      14      14      13      14      14      13
      14      14      13      14      14      13      14      14      13      14
      14      13      14      14      13      14      14      13      14      14
      13      14      14      13      14      14      13      14      14      13
      14      14      13      14      14      13      14      14      13      14
      14      13      14      14      13      14      14      13      14      14
      13      14      14      13      14      14      13      14      14      13
      14      14      13      14      14      13      14      14      13      14
      14      13      14      14      13      14      14      13      14      14
      13      14      14      13      14      14      13      14      14      13
      14      14      13      14      14      13      14      14      13      14
      14      13      14      14      13      14      14      13      14      14
      13      14      14      13      14      14      13      14      14      13
      14      14      13      14      14      13      14      14      13      14
      14      13      14      14      13      14      14      13      14      14
      13      14      14      13      14      14      13      14      14      13
      14      14      13      14      14      13      14      14      13      14
      14      13      14      14      13      14      14      13      14      14
      13      14      14      13      14      14      13      14      14      13
      14      14      13      14      14      13      14      14      13      14
      14      13      14      14      13      14      14      13      14      14
      13      14      14      13      14      14      13      14      14      13
      14      14      13      14      14      13      14      14      13      14
      14      13      14      14      13      14      14      13      14      14
      13      14      14      13      14      14      13      14      14      13
      14      14      13      14      14      13      14      14      13      14
      14      13      14      14      13      14      14      13      14      14
      13      14      14      13      14      14      13      14      14      13
      14      14      13      14      14      13      14      14      13      14
      14      13      14      14      13      14      14      13      14      14
      13      14      14      13      14      14      13      14      14      13
      14      14      13      14      14      13      14      14      13      14
      14      13      14      14      13      14      14      13      14      14
      13      14      14      13      14      14      13      14      14      13
      14      14      13      14      14      13      14      14      13      14
      14      13      14      14      13      14      14      13      14      14
      13      14      14      13      14      14      13      14      14      13
      14      14      13      14      14      13      14      14      13      14
      14      13      14      14      13      14      14      13      14      14
      13      14      14      13      14      14      13      14      14      13
      14      14      13      14      14      13      14      14      13      14
      14      13      14      14      13      14      14      13      14      14
      13      14      14      13      14      14      13      14      14      13
      14      14      13      14      14      13      14      14      13      14
      14      13      14      14      13      14      14      13      14      14
      13      14      14      13      14      14      13      14      14      13
      14      14      13      14      14      13      14      14      13      14
      14      13      14      14      13      14      14      13      14      14
      13      14      14      13      14      14      13      14      14      13
      14      14      13      14      14      13      14      14      13      14
      14      13      14      14      13      14      14      13      14      14
      13      14      14      13      14      14      13      14      14      13
      14      14      13      14      14      13      14      14      13      14
      14      13      14      14      13      14      14      13      14      14
      13      14      14      13      14      14      13      14      14      13
      14      14      13      14      14      13      14      14      13      14
      14      13      14      14      13      14      14      13      14      14
      13      14      14      13      14      14      13      14      14      13
      14      14      13      14      14      13      14      14      13      14
      14      13      14      14      13      14      14      13      14      14
      13      14      14      13      14      14      13      14      14      13
      14      14      13      14      14      13      14      14      13      14
      14      13      14      14      13      14      14      13      14      14
      13      14      14      13      14      14      13      14      14      13
      14      14      13      14      14      13      14      14      13      14
      14      13      14      14      13      14      14      13      14      14
      13      14      14      13      14      14      13      14      14      13
      14      14      13      14      14      13      14      14      13      14
      14      13      14      14      13      14      14      13      14      14
      13      14      14      13      14      14      13      14      14      13
      14      14      13      14      14      13      14      14      13      14
      14      13      14      14      13      14      14      13      14      14
      13      14      14      13      14      14      13      14      14      13
      14      14      13      14      14      13      14      14      13      14
      14      13      14      14      13      14      14      13      14      14
      13      14      14      13      14      14      13      14      14      13
      14      14      13      14      14      13      14      14      13      14
      14      13      14      14      13      14      14      13      14      14
      13      14      14      13      14      14      13      14      14      13
      14      14      13      14      14      13      14      14      13      14
      14      13      14      14      13      14      14      13      14      14
      13      14      14      13      14      14      13      14      14      13
      14      14      13      14      14      13      14      14      13      14
      14      13      14      14      13      14      14      13      14      14
      13      14      14      13      14      14      13      14      14      13
      14      14      13      14      14      13      14      14      13      14
      14      13      14      14      13      14      14      13      14      14
      13      14      14      13      14      14      13      14      14      13
      14      14      13      14      14      13      14      14      13      14
      14      13      14      14      13      14      14      13      14      14
      13      14      14      13      14      14      13      14      14      13
      14      14      13      14      14      13      14      14      13      14
      14      13      14      14      13      14      14      13      14      14
      13      14      14      13      14      14      13      14      14      13
      14      14      13      14      14      13      14      14      13      14
      14      13      14      14      13      14      14      13      14      14
      13      14      14      13      14      14      13      14      14      13
      14      14      13      14      14      13      14      14      13      14
      14      13      14      14      13      14      14      13      14      14
      13      14      14      13      14      14      13      14      14      13
      14      14      13      14      14      13      14      14      13      14
      14      13      14      14      13      14      14      13      14      14
      13      14      14      13      14      14      13      14      14      13
      14      14      13      14      14      13      14      14      13      14
      14      13      14      14      13      14      14      13      14      14
      13      14      14      13      14      14      13      14      14      13
      14      14      13      14      14      13      14      14      13      14
      14      13      14      14      13      14      14      13      14      14
      13      14      14      13      14      14      13      14      14      13
      14      14      13      14      14      13      14      14      13      14
      14      13      14      14      13      14      14      13      14      14
      13      14      14      13      14      14      13      14      14      13
      14      14      13      14      14      13      14      14      13      14
      14      13      14      14      13      14      14      13      14      14
      13      14      14      13      14      14      13      14      14      13
      14      14      13      14      14      13      14      14      13      14
      14      13      14      14      13      14      14      13      14      14
      13      14      14      13      14      14      13      14      14      13
      14      14      13      14      14      13      14      14      13      14
      14      13      14      14      13      14      14      13      14      14
      13      14      14      13      14      14      13      14      14      13
      14      14      13      14      14      13      14      14      13      14
      14      13      14      14      13      14      14      13      14      14
      13      14      14      13      14      14      13      14      14      13
      14      14      13      14      14      13      14      14      13      14
      14      13      14      14      13      14      14      13      14      14
      13      14      14      13      14      14      13      14      14      13
      14      14      13      14      14      13      14      14      13      14
      14      13      14      14      13      14      14      13      14      14
      13      14      14      13      14      14      13      14      14      13
      14      14      13      14      14      13      14      14      13      14
      14      13      14      14      13      14      14      13      14      14
      13      14      14      13      14      14      13      14      14      13
      14      14      13      14      14      13      14      14      13      14
      14      13      14      14      13      14      14      13      14      14
      13      14      14      13      14      14      13      14      14      13
      14      14      13      14      14      13      14      14      13      14
      14      13      14      14      13      14      14      13      14      14
      13      14      14      13      14      14      13      14      14      13
      14      14      13      14      14      13      14      14      13      14
      14      13      14      14      13      14      14      13      14      14
      13      14      14      13      14      14      13      14      14      13
      14      14      13      14      14      13      14      14      13      14
      14      13      14      14      13      14      14      13      14      14
      13      14      14      13      14      14      13      14      14      13
      14      14      13      14      14      13      14      14      13      14
      14      13      14      14      13      14      14      13      14      14
      13      14      14      13      14      14      13      14      14      13
      14      14      13      14      14      13      14      14      13      14
      14      13      14      14      13      14      14      13      14      14
      13      14      14      13      14      14      13      14      14      13
      14      14      13      14      14      13      14      14      13      14
      14      13      14      14      13      14      14      13      14      14
      13      14      14      13      14      14      13      14      14      13
      14      14      13      14      14      13      14      14      13      14
      14      13      14      14      13      14      14      13      14      14
      13      14      14      13      14      14      13      14      14      13
      14      14      13      14      14      13      14      14      13      14
      14      13      14      14      13      14      14      13      14      14
      13      14      14      13      14      14      13      14      14      13
      14      14      13      14      14      13      14      14      13      14
      14      13      14      14      13      14      14      13      14      14
      13      14      14      13      14      14      13      14      14      13
      14      14      13      14      14      13      14      14      13      14
      14      13      14      14      13      14      14      13      14      14
      13      14      14      13      14      14      13      14      14      13
      14      14      13      14      14      13      14      14      13      14
      14      13      14      14      13      14      14      13      14      14
      13      14      14      13      14      14      13      14      14      13
      14      14      13      14      14      13      14      14      13      14
      14      13      14      14      13      14      14      13      14      14
      13      14      14      13      14      14      13      14      14      13
      14      14      13      14      14      13      14      14      13      14
      14      13      14      14      13      14      14      13      14      14
      13      14      14      13      14      14      13      14      14      13
      14      14      13      14      14      13      14      14      13      14
      14      13      14      14      13      14      14      13      14      14
      13      14      14      13      14      14      13      14      14      13
      14      14      13      14      14      13      14      14      13      14
      14      13      14      14      13      14      14      13      14      14
      13      14      14      13      14      14      13      14      14      13
      14      14      13      14      14      13      14      14      13      14
      14      13      14      14      13      14      14      13      14      14
      13      14      14      13      14      14      13      14      14      13
      14      14      13      14      14      13      14      14      13      14
      14      13      14      14      13      14      14      13      14      14
      13      14      14      13      14      14      13      14      14      13
      14      14      13      14      14      13      14      14      13      14
      14      13      14      14      13      14      14      13      14      14
      13      14      14      13      14      14      13      14      14      13
      14      14      13      14      14      13      14      14      13      14
      14      13      14      14      13      14      14      13      14      14
      13      14      14      13      14      14      13      14      14      13
      14      14      13      14      14      13      14      14      13      14
      14      13      14      14      13      14      14      13      14      14
      13      14      14      13      14      14      13      14      14      13
      14      14      13      14      14      13      14      14      13      14
      14      13      14      14      13      14      14      13      14      14
      13      14      14      13      14      14      13      14      14      13
      14      14      13      14      14      13      14      14      13      14
      14      13      14      14      13      14      14      13      14      14
      13      14      14      13      14      14      13      14      14      13
      14      14      13      14      14      13      14      14      13      14
      14      13      14      14      13      14      14      13      14      14
      13      14      14      13      14      14      13      14      14      13
      14      14      13      14      14      13      14      14      13      14
      14      13      14      14      13      14      14      13      14      14
      13      14      14      13      14      14      13      14      14      13
      14      14      13      14      14      13      14      14      13      14
      14      13      14      14      13      14      14      13      14      14
      13      14      14      13      14      14      13      14      14      13
      14      14      13      14      14      13      14      14      13      14
      14      13      14      14      13      14      14      13      14      14
      13      14      14      13      14      14      13      14      14      13
      14      14      13      14      14      13      14      14      13      14
      14      13      14      14      13      14      14      13      14      14
      13      14      14      13      14      14      13      14      14      13
      14      14      13      14      14      13      14      14      13      14
      14      13      14      14      13      14      14      13      14      14
      13      14      14      13      14      14      13      14      14      13
      14      14      13      14      14      13      14      14      13      14
      14      13      14      14      13      14      14      13      14      14
      13      14      14      13      14      14      13      14      14      13
      14      14      13      14      14      13      14      14      13      14
      14      13      14      14      13      14      14      13      14      14
      13      14      14      13      14      14      13      14      14      13
      14      14      13      14      14      13      14      14      13      14
      14      13      14      14      13      14      14      13      14      14
      13      14      14      13      14      14      13      14      14      13
      14      14      13      14      14      13      14      14      13      14
      14      13      14      14      13      14      14      13      14      14
      13      14      14      13      14      14      13      14      14      13
      14      14      13      14      14      13      14      14      13      14
      14      13      14      14      13      14      14      13      14      14
      13      14      14      13      14      14      13      14      14      13
      14      14      13      14      14      13      14      14      13      14
      14      13      14      14      13      14      14      13      14      14
      13      14      14      13      14      14      13      14      14      13
      14      14      13      14      14      13      14      14      13      14
      14      13      14      14      13      14      14      13      14      14
      13      14      14      13      14      14      13      14      14      13
      14      14      13      14      14      13      14      14      13      14
      14      13      14      14      13      14      14      13      14      14
      13      14      14      13      14      14      13      14      14      13
      14      14      13      14      14      13      14      14      13      14
      14      13      14      14      13      14      14      13      14      14
      13      14      14      13      14      14      13      14      14      13
      14      14      13      14      14      13      14      14      13      14
      14      13      14      14      13      14      14      13      14      14
      13      14      14      13      14      14      13      14      14      13
      14      14      13      14      14      13      14      14      13      14
      14      13      14      14      13      14      14      13      14      14
      13      14      14      13      14      14      13      14      14      13
      14      14      13      14      14      13      14      14      13      14
      14      13      14      14      13      14      14      13      14      14
      13      14      14      13      14      14      13      14      14      13
      14      14      13      14      14      13      14      14      13      14
      14      13      14      14      13      14      14      13      14      14
      13      14      14      13      14      14      13      14      14      13
      14      14      13      14      14      13      14      14      13      14
      14      13      14      14      13      14      14      13      14      14
      13      14      14      13      14      14      13      14      14      13
      14      14      13      14      14      13      14      14      13      14
      14      13      14      14      13      14      14      13      14      14
      13      14      14      13      14      14      13      14      14      13
      14      14      13      14      14      13      14      14      13      14
      14      13      14      14      13      14      14      13      14      14
      13      14      14      13      14      14      13      14      14      13
      14      14      13      14      14      13      14      14      13      14
      14      13      14      14      13      14      14      13      14      14
      13      14      14      13      14      14      13      14      14      13
      14      14      13      14      14      13      14      14      13      14
      14      13      14      14      13      14      14      13      14      14
      13      14      14      13      14      14      13      14      14      13
      14      14      13      14      14      13      14      14      13      14
      14      13      14      14      13      14      14      13      14      14
      13      14      14      13      14      14      13      14      14      13
      14      14      13      14      14      13      14      14      13      14
      14      13      14      14      13      14      14      13      14      14
      13      14      14      13      14      14      13      14      14      13
      14      14      13      14      14      13      14      14      13      14
      14      13      14      14      13      14      14      13      14      14
      13      14      14      13      14      14      13      14      14      13
      14      14      13      14      14      13      14      14      13      14
      14      13      14      14      13      14      14      13      14      14
      13      14      14      13      14      14      13      14      14      13
      14      14      13      14      14      13      14      14      13      14
      14      13      14      14      13      14      14      13      14      14
      13      14      14      13      14      14      13      14      14      13
      14      14      13      14      14      13      14      14      13      14
      14      13      14      14      13      14      14      13      14      14
      13      14      14      13      14      14      13      14      14      13
      14      14      13      14      14      13      14      14      13      14
      14      13      14      14      13      14      14      13      14      14
      13      14      14      13      14      14      13      14      14      13
      14      14      13      14      14      13      14      14      13      14
      14      13      14      14      13      14      14      13      14      14
      13      14      14      13      14      14      13      14      14      13
      14      14      13      14      14      13      14      14      13      14
      14      13      14      14      13      14      14      13      14      14
      13      14      14      13      14      14      13      14      14      13
      14      14      13      14      14      13      14      14      13      14
      14      13      14      14      13      14      14      13      14      14
      13      14      14      13      14      14      13      14      14      13
      14      14      13      14      14      13      14      14      13      14
      14      13      14      14      13      14      14      13      14      14
      13      14      14      13      14      14      13      14      14      13
      14      14      13      14      14      13      14      14      13      14
      14      13      14      14      13      14      14      13      14      14
      13      14      14      13      14      14      13      14      14      13
      14      14      13      14      14      13      14      14      13      14
      14      13      14      14      13      14      14      13      14      14
      13      14      14      13      14      14      13      14      14      13
      14      14      13      14      14      13      14      14      13      14
      14      13      14      14      13      14      14      13      14      14
      13      14      14      13      14      14      13      14      14      13
      14      14      13      14      14      13      14      14      13      14
      14      13      14      14      13      14      14      13      14      14
      13      14      14      13      14      14      13      14      14      13
      14      14      13      14      14      13      14      14      13      14
      14      13      14      14      13      14      14      13      14      14
      13      14      14      13      14      14      13      14      14      13
      14      14      13      14      14      13      14      14      13      14
      14      13      14      14      13      14      14      13      14      14
      13      14      14      13      14      14      13      14      14      13
      14      14      13      14      14      13      14      14      13      14
      14      13      14      14      13      14      14      13      14      14
      13      14      14      13      14      14      13      14      14      13
      14      14      13      14      14      13      14      14      13      14
      14      13      14      14      13      14      14      13      14      14
      13      14      14      13      14      14      13      14      14      13
      14      14      13      14      14      13      14      14      13      14
      14      13      14      14      13      14      14      13      14      14
      13      14      14      13      14      14      13      14      14      13
      14      14      13      14      14      13      14      14      13      14
      14      13      14      14      13      14      14      13      14      14
      13      14      14      13      14      14      13      14      14      13
      14      14      13      14      14      13      14      14      13      14
      14      13      14      14      13      14      14      13      14      14
      13      14      14      13      14      14      13      14      14      13
      14      14      13      14      14      13      14      14      13      14
      14      13      14      14      13      14      14      13      14      14
      13      14      14      13      14      14      13      14      14      13
      14      14      13      14      14      13      14      14      13      14
      14      13      14      14      13      14      14      13      14      14
      13      14      14      13      14      14      13      14      14      13
      14      14      13      14      14      13      14      14      13      14
      14      13      14      14      13      14      14      13      14      14
      13      14      14      13      14      14      13      14      14      13
      14      14      13      14      14      13      14      14      13      14
      14      13      14      14      13      14      14      13      14      14
      13      14      14      13      14      14      13      14      14      13
      14      14      13      14      14      13      14      14      13      14
      14      13      14      14      13      14      14      13      14      14
      13      14      14      13      14      14      13      14      14      13
      14      14      13      14      14      13      14      14      13      14
      14      13      14      14      13      14      14      13      14      14
      13      14      14      13      14      14      13      14      14      13
      14      14      13      14      14      13      14      14      13      14
      14      13      14      14      13      14      14      13      14      14
      13      14      14      13      14      14      13      14      14      13
      14      14      13      14      14      13      14      14      13      14
      14      13      14      14      13      14      14      13      14      14
      13      14      14      13      14      14      13      14      14      13
      14      14      13      14      14      13      14      14      13      14
      14      13      14      14      13      14      14      13      14      14
      13      14      14      13      14      14      13      14      14      13
      14      14      13      14      14      13      14      14      13      14
      14      13      14      14      13      14      14      13      14      14
      13      14      14      13      14      14      13      14      14      13
      14      14      13      14      14      13      14      14      13      14
      14      13      14      14      13      14      14      13      14      14
      13      14      14      13      14      14      13      14      14      13
      14      14      13      14      14      13      14      14      13      14
      14      13      14      14      13      14      14      13      14      14
      13      14      14      13      14      14      13      14      14      13
      14      14      13      14      14      13      14      14      13      14
      14      13      14      14      13      14      14      13      14      14
      13      14      14      13      14      14      13      14      14      13
      14      14      13      14      14      13      14      14      13      14
      14      13      14      14      13      14      14      13      14      14
      13      14      14      13      14      14      13      14      14      13
      14      14      13      14      14      13      14      14      13      14
      14      13      14      14      13      14      14      13      14      14
      13      14      14      13      14      14      13      14      14      13
      14      14      13      14      14      13      14      14      13      14
      14      13      14      14      13      14      14      13      14      14
      13      14      14      13      14      14      13      14      14      13
      14      14      13      14      14      13      14      14      13      14
      14      13      14      14      13      14      14      13      14      14
      13      14      14      13      14      14      13      14      14      13
      14      14      13      14      14      13      14      14      13      14
      14      13      14      14      13      14      14      13      14      14
      13      14      14      13      14      14      13      14      14      13
      14      14      13      14      14      13      14      14      13      14
      14      13      14      14      13      14      14      13      14      14
      13      14      14      13      14      14      13      14      14      13
      14      14      13      14      14      13      14      14      13      14
      14      13      14      14      13      14      14      13      14      14
      13      14      14      13      14      14      13      14      14      13
      14      14      13      14      14      13      14      14      13      14
      14      13      14      14      13      14      14      13      14      14
      13      14      14      13      14      14      13      14      14      13
      14      14      13      14      14      13      14      14      13      14
      14      13      14      14      13      14      14      13      14      14
      13      14      14      13      14      14      13      14      14      13
      14      14      13      14      14      13      14      14      13      14
      14      13      14      14      13      14      14      13      14      14
      13      14      14      13      14      14      13      14      14      13
      14      14      13      14      14      13      14      14      13      14
      14      13      14      14      13      14      14      13      14      14
      13      14      14      13      14      14      13      14      14      13
      14      14      13      14      14      13      14      14      13      14
      14      13      14      14      13      14      14      13      14      14
      13      14      14      13      14      14      13      14      14      13
      14      14      13      14      14      13      14      14      13      14
      14      13      14      14      13      14      14      13      14      14
      13      14      14      13      14      14      13      14      14      13
      14      14      13      14      14      13      14      14      13      14
      14      13      14      14      13      14      14      13      14      14
      13      14      14      13      14      14      13      14      14      13
      14      14      13      14      14      13      14      14      13      14
      14      13      14      14      13      14      14      13      14      14
      13      14      14      13      14      14      13      14      14      13
      14      14      13      14      14      13      14      14      13      14
      14      13      14      14      13      14      14      13      14      14
      13      14      14      13      14      14      13      14      14      13
      14      14      13      14      14      13      14      14      13      14
      14      13      14      14      13      14      14      13      14      14
      13      14      14      13      14      14      13      14      14      13
      14      14      13      14      14      13      14      14      13      14
      14      13      14      14      13      14      14      13      14      14
      13      14      14      13      14      14      13      14      14      13
      14      14      13      14      14      13      14      14      13      14
      14      13      14      14      13      14      14      13      14      14
      13      14      14      13      14      14      13      14      14      13
      14      14      13      14      14      13      14      14      13      14
      14      13      14      14      13      14      14      13      14      14
      13      14      14      13      14      14      13      14      14      13
      14      14      13      14      14      13      14      14      13      14
      14      13      14      14      13      14      14      13      14      14
      13      14      14      13      14      14      13      14      14      13
      14      14      13      14      14      13      14      14      13      14
      14      13      14      14      13      14      14      13      14      14
      13      14      14      13      14      14      13      14      14      13
      14      14      13      14      14      13      14      14      13      14
      14      13      14      14      13      14      14      13      14      14
      13      14      14      13      14      14      13      14      14      13
      14      14      13      14      14      13      14      14      13      14
      14      13      14      14      13      14      14      13      14      14
      13      14      14      13      14      14      13      14      14      13
      14      14      13      14      14      13      14      14      13      14
      14      13      14      14      13      14      14      13      14      14
      13      14      14      13      14      14      13      14      14      13
      14      14      13      14      14      13      14      14      13      14
      14      13      14      14      13      14      14      13      14      14
      13      14      14      13      14      14      13      14      14      13
      14      14      13      14      14      13      14      14      13      14
      14      13      14      14      13      14      14      13      14      14
      13      14      14      13      14      14      13      14      14      13
      14      14      13      14      14      13      14      14      13      14
      14      13      14      14      13      14      14      13      14      14
      13      14      14      13      14      14      13      14      14      13
      14      14      13      14      14      13      14      14      13      14
      14      13      14      14      13      14      14      13      14      14
      13      14      14      13      14      14      13      14      14      13
      14      14      13      14      14      13      14      14      13      14
      14      13      14      14      13      14      14      13      14      14
      13      14      14      13      14      14      13      14      14      13
      14      14      13      14      14      13      14      14      13      14
      14      13      14      14      13      14      14      13      14      14
      13      14      14      13      14      14      13      14      14      13
      14      14      13      14      14      13      14      14      13      14
      14      13      14      14      13      14      14      13      14      14
      13      14      14      13      14      14      13      14      14      13
      14      14      13      14      14      13      14      14      13      14
      14      13      14      14      13      14      14      13      14      14
      13      14      14      13      14      14      13      14      14      13
      14      14      13      14      14      13      14      14      13      14
      14      13      14      14      13      14      14      13      14      14
      13      14      14      13      14      14      13      14      14      13
      14      14      13      14      14      13      14      14      13      14
      14      13      14      14      13      14      14      13      14      14
      13      14      14      13      14      14      13      14      14      13
      14      14      13      14      14      13      14      14      13      14
      14      13      14      14      13      14      14      13      14      14
      13      14      14      13      14      14      13      14      14      13
      14      14      13      14      14      13      14      14      13      14
      14      13      14      14      13      14      14      13      14      14
      13      14      14      13      14      14      13      14      14      13
      14      14      13      14      14      13      14      14      13      14
      14      13      14      14      13      14      14      13      14      14
      13      14      14      13      14      14      13      14      14      13
      14      14      13      14      14      13      14      14      13      14
      14      13      14      14      13      14      14      13      14      14
      13      14      14      13      14      14      13      14      14      13
      14      14      13      14      14      13      14      14      13      14
      14      13      14      14      13      14      14      13      14      14
      13      14      14      13      14      14      13      14      14      13
      14      14      13      14      14      13      14      14      13      14
      14      13      14      14      13      14      14      13      14      14
      13      14      14      13      14      14      13      14      14      13
      14      14      13      14      14      13      14      14      13      14
      14      13      14      14      13      14      14      13      14      14
      13      14      14      13      14      14      13      14      14      13
      14      14      13      14      14      13      14      14      13      14
      14      13      14      14      13      14      14      13      14      14
      13      14      14      13      14      14      13      14      14      13
      14      14      13      14      14      13      14      14      13      14
      14      13      14      14      13      14      14      13      14      14
      13      14      14      13      14      14      13      14      14      13
      14      14      13      14      14      13      14      14      13      14
      14      13      14      14      13      14      14      13      14      14
      13      14      14      13      14      14      13      14      14      13
      14      14      13      14      14      13      14      14      13      14
      14      13      14      14      13      14      14      13      14      14
      13      14      14      13      14      14      13      14      14      13
      14      14      13      14      14      13      14      14      13      14
      14      13      14      14      13      14      14      13      14      14
      13      14      14      13      14      14      13      14      14      13
      14      14      13      14      14      13      14      14      13      14
      14      13      14      14      13      14      14      13      14      14
      13      14      14      13      14      14      13      14      14      13
      14      14      13      14      14      13      14      14      13      14
      14      13      14      14      13      14      14      13      14      14
      13      14      14      13      14      14      13      14      14      13
      14      14      13      14      14      13      14      14      13      14
      14      13      14      14      13      14      14      13      14      14
      13      14      14      13      14      14      13      14      14      13
      14      14      13      14      14      13      14      14      13      14
      14      13      14      14      13      14      14      13      14      14
      13      14      14      13      14      14      13      14      14      13
      14      14      13      14      14      13      14      14      13      14
      14      13      14      14      13      14      14      13      14      14
      13      14      14      13      14      14      13      14      14      13
      14      14      13      14      14      13      14      14      13      14
      14      13      14      14      13      14      14      13      14      14
      13      14      14      13      14      14      13      14      14      13
      14      14      13      14      14      13      14      14      13      14
      14      13      14      14      13      14      14      13      14      14
      13      14      14      13      14      14      13      14      14      13
      14      14      13      14      14      13      14      14      13      14
      14      13      14      14      13      14      14      13      14      14
      13      14      14      13      14      14      13      14      14      13
      14      14      13      14      14      13      14      14      13      14
      14      13      14      14      13      14      14      13      14      14
      13      14      14      13      14      14      13      14      14      13
      14      14      13      14      14      13      14      14      13      14
      14      13      14      14      13      14      14      13      14      14
      13      14      14      13      14      14      13      14      14      13
      14      14      13      14      14      13      14      14      13      14
      14      13      14      14      13      14      14      13      14      14
      13      14      14      13      14      14      13      14      14      13
      14      14      13      14      14      13      14      14      13      14
      14      13      14      14      13      14      14      13      14      14
      13      14      14      13      14      14      13      14      14      13
      14      14      13      14      14      13      14      14      13      14
      14      13      14      14      13      14      14      13      14      14
      13      14      14      13      14      14      13      14      14      13
      14      14      13      14      14      13      14      14      13      14
      14      13      14      14      13      14      14      13      14      14
      13      14      14      13      14      14      13      14      14      13
      14      14      13      14      14      13      14      14      13      14
      14      13      14      14      13      14      14      13      14      14
      13      14      14      13      14      14      13      14      14      13
      14      14      13      14      14      13      14      14      13      14
      14      13      14      14      13      14      14      13      14      14
      13      14      14      13      14      14      13      14      14      13
      14      14      13      14      14      13      14      14      13      14
      14      13      14      14      13      14      14      13      14      14
      13      14      14      13      14      14      13      14      14      13
      14      14      13      14      14      13      14      14      13      14
      14      13      14      14      13      14      14      13      14      14
      13      14      14      13      14      14      13      14      14      13
      14      14      13      14      14      13      14      14      13      14
      14      13      14      14      13      14      14      13      14      14
      13      14      14      13      14      14      13      14      14      13
      14      14      13      14      14      13      14      14      13      14
      14      13      14      14      13      14      14      13      14      14
      13      14      14      13      14      14      13      14      14      13
      14      14      13      14      14      13      14      14      13      14
      14      13      14      14      13      14      14      13      14      14
      13      14      14      13      14      14      13      14      14      13
      14      14      13      14      14      13      14      14      13      14
      14      13      14      14      13      14      14      13      14      14
      13      14      14      13      14      14      13      14      14      13
      14      14      13      14      14      13      14      14      13      14
      14      13      14      14      13      14      14      13      14      14
      13      14      14      13      14      14      13      14      14      13
      14      14      13      14      14      13      14      14      13      14
      14      13      14      14      13      14      14      13      14      14
      13      14      14      13      14      14      13      14      14      13
      14      14      13      14      14      13      14      14      13      14
      14      13      14      14      13      14      14      13      14      14
      13      14      14      13      14      14      13      14      14      13
      14      14      13      14      14      13      14      14      13      14
      14      13      14      14      13      14      14      13      14      14
      13      14      14      13      14      14      13      14      14      13
      14      14      13      14      14      13      14      14      13      14
      14      13      14      14      13      14      14      13      14      14
      13      14      14      13      14      14      13      14      14      13
      14      14      13      14      14      13      14      14      13      14
      14      13      14      14      13      14      14      13      14      14
      13      14      14      13      14      14      13      14      14      13
      14      14      13      14      14      13      14      14      13      14
      14      13      14      14      13      14      14      13      14      14
      13      14      14      13      14      14      13      14      14      13
      14      14      13      14      14      13      14      14      13      14
      14      13      14      14      13      14      14      13      14      14
      13      14      14      13      14      14      13      14      14      13
      14      14      13      14      14      13      14      14      13      14
      14      13      14      14      13      14      14      13      14      14
      13      14      14      13      14      14      13      14      14      13
      14      14      13      14      14      13      14      14      13      14
      14      13      14      14      13      14      14      13      14      14
      13      14      14      13      14      14      13      14      14      13
      14      14      13      14      14      13      14      14      13      14
      14      13      14      14      13      14      14      13      14      14
      13      14      14      13      14      14      13      14      14      13
      14      14      13      14      14      13      14      14      13      14
      14      13      14      14      13      14      14      13      14      14
      13      14      14      13      14      14      13      14      14      13
      14      14      13      14      14      13      14      14      13      14
      14      13      14      14      13      14      14      13      14      14
      13      14      14      13      14      14      13      14      14      13
      14      14      13      14      14      13      14      14      13      14
      14      13      14      14      13      14      14      13      14      14
      13      14      14      13      14      14      13      14      14      13
      14      14      13      14      14      13      14      14      13      14
      14      13      14      14      13      14      14      13      14      14
      13      14      14      13      14      14      13      14      14      13
      14      14      13      14      14      13      14      14      13      14
      14      13      14      14      13      14      14      13      14      14
      13      14      14      13      14      14      13      14      14      13
      14      14      13      14      14      13      14      14      13      14
      14      13      14      14      13      14      14      13      14      14
      13      14      14      13      14      14      13      14      14      13
      14      14      13      14      14      13      14      14      13      14
      14      13      14      14      13      14      14      13      14      14
      13      14      14      13      14      14      13      14      14      13
      14      14      13      14      14      13      14      14      13      14
      14      13      14      14      13      14      14      13      14      14
      13      14      14      13      14      14      13      14      14      13
      14      14      13      14      14      13      14      14      13      14
      14      13      14      14      13      14      14      13      14      14
      13      14      14      13      14      14      13      14      14      13
      14      14      13      14      14      13      14      14      13      14
      14      13      14      14      13      14      14      13      14      14
      13      14      14      13      14      14      13      14      14      13
      14      14      13      14      14      13      14      14      13      14
      14      13      14      14      13      14      14      13      14      14
      13      14      14      13      14      14      13      14      14      13
      14      14      13      14      14      13      14      14      13      14
      14      13      14      14      13      14      14      13      14      14
      13      14      14      13      14      14      13      14      14      13
      14      14      13      14      14      13      14      14      13      14
      14      13      14      14      13      14      14      13      14      14
      13      14      14      13      14      14      13      14      14      13
      14      14      13      14      14      13      14      14      13      14
      14      13      14      14      13      14      14      13      14      14
      13      14      14      13      14      14      13      14      14      13
      14      14      13      14      14      13      14      14      13      14
      14      13      14      14      13      14      14      13      14      14
      13      14      14      13      14      14      13      14      14      13
      14      14      13      14      14      13      14      14      13      14
      14      13      14      14      13      14      14      13      14      14
      13      14      14      13      14      14      13      14      14      13
      14      14      13      14      14      13      14      14      13      14
      14      13      14      14      13      14      14      13      14      14
      13      14      14      13      14      14      13      14      14      13
      14      14      13      14      14      13      14      14      13      14
      14      13      14      14      13      14      14      13      14      14
      13      14      14      13      14      14      13      14      14      13
      14      14      13      14      14      13      14      14      13      14
      14      13      14      14      13      14      14      13      14      14
      13      14      14      13      14      14      13      14      14      13
      14      14      13      14      14      13      14      14      13      14
      14      13      14      14      13      14      14      13      14      14
      13      14      14      13      14      14      13      14      14      13
      14      14      13      14      14      13      14      14      13      14
      14      13      14      14      13      14      14      13      14      14
      13      14      14      13      14      14      13      14      14      13
      14      14      13      14      14      13      14      14      13      14
      14      13      14      14      13      14      14      13      14      14
      13      14      14      13      14      14      13      14      14      13
      14      14      13      14      14      13      14      14      13      14
      14      13      14      14      13      14      14      13      14      14
      13      14      14      13      14      14      13      14      14      13
      14      14      13      14      14      13      14      14      13      14
      14      13      14      14      13      14      14      13      14      14
      13      14      14      13      14      14      13      14      14      13
      14      14      13      14      14      13      14      14      13      14
      14      13      14      14      13      14      14      13      14      14
      13      14      14      13      14      14      13      14      14      13
      14      14      13      14      14      13      14      14      13      14
      14      13      14      14      13      14      14      13      14      14
      13      14      14      13      14      14      13      14      14      13
      14      14      13      14      14      13      14      14      13      14
      14      13      14      14      13      14      14      13      14      14
      13      14      14      13      14      14      13      14      14      13
      14      14      13      14      14      13      14      14      13      14
      14      13      14      14      13      14      14      13      14      14
      13      14      14      13      14      14      13      14      14      13
      14      14      13      14      14      13      14      14      13      14
      14      13      14      14      13      14      14      13      14      14
      13      14      14      13      14      14      13      14      14      13
      14      14      13      14      14      13      14      14      13      14
      14      13      14      14      13      14      14      13      14      14
      13      14      14      13      14      14      13      14      14      13
      14      14      13      14      14      13      14      14      13      14
      14      13      14      14      13      14      14      13      14      14
      13      14      14      13      14      14      13      14      14      13
      14      14      13      14      14      13      14      14      13      14
      14      13      14      14      13      14      14      13      14      14
      13      14      14      13      14      14      13      14      14      13
      14      14      13      14      14      13      14      14      13      14
      14      13      14      14      13      14      14      13      14      14
      13      14      14      13      14      14      13      14      14      13
      14      14      13      14      14      13      14      14      13      14
      14      13      14      14      13      14      14      13      14      14
      13      14      14      13      14      14      13      14      14      13
      14      14      13      14      14      13      14      14      13      14
      14      13      14      14      13      14      14      13      14      14
      13      14      14      13      14      14      13      14      14      13
      14      14      13      14      14      13      14      14      13      14
      14      13      14      14      13      14      14      13      14      14
      13      14      14      13      14      14      13      14      14      13
      14      14      13      14      14      13      14      14      13      14
      14      13      14      14      13      14      14      13      14      14
      13      14      14      13      14      14      13      14      14      13
      14      14      13      14      14      13      14      14      13      14
      14      13      14      14      13      14      14      13      14      14
      13      14      14      13      14      14      13      14      14      13
      14      14      13      14      14      13      14      14      13      14
      14      13      14      14      13      14      14      13      14      14
      13      14      14      13      14      14      13      14      14      13
      14      14      13      14      14      13      14      14      13      14
      14      13      14      14      13      14      14      13      14      14
      13      14      14      13      14      14      13      14      14      13
      14      14      13      14      14      13      14      14      13      14
      14      13      14      14      13      14      14      13      14      14
      13      14      14      13      14      14      13      14      14      13
      14      14      13      14      14      13      14      14      13      14
      14      13      14      14      13      14      14      13      14      14
      13      14      14      13      14      14      13      14      14      13
      14      14      13      14      14      13      14      14      13      14
      14      13      14      14      13      14      14      13      14      14
      13      14      14      13      14      14      13      14      14      13
      14      14      13      14      14      13      14      14      13      14
      14      13      14      14      13      14      14      13      14      14
      13      14      14      13      14      14      13      14      14      13
      14      14      13      14      14      13      14      14      13      14
      14      13      14      14      13      14      14      13      14      14
      13      14      14      13      14      14      13      14      14      13
      14      14      13      14      14      13      14      14      13      14
      14      13      14      14      13      14      14      13      14      14
      13      14      14      13      14      14      13      14      14      13
      14      14      13      14      14      13      14      14      13      14
      14      13      14      14      13      14      14      13      14      14
      13      14      14      13      14      14      13      14      14      13
      14      14      13      14      14      13      14      14      13      14
      14      13      14      14      13      14      14      13      14      14
      13      14      14      13      14      14      13      14      14      13
      14      14      13      14      14      13      14      14      13      14
      14      13      14      14      13      14      14      13      14      14
      13      14      14      13      14      14      13      14      14      13
      14      14      13      14      14      13      14      14      13      14
      14      13      14      14      13      14      14      13      14      14
      13      14      14      13      14      14      13      14      14      13
      14      14      13      14      14      13      14      14      13      14
      14      13      14      14      13      14      14      13      14      14
      13      14      14      13      14      14      13      14      14      13
      14      14      13      14      14      13      14      14      13      14
      14      13      14      14      13      14      14      13      14      14
      13      14      14      13      14      14      13      14      14      13
      14      14      13      14      14      13      14      14      13      14
      14      13      14      14      13      14      14      13      14      14
      13      14      14      13      14      14      13      14      14      13
      14      14      13      14      14      13      14      14      13      14
      14      13      14      14      13      14      14      13      14      14
      13      14      14      13      14      14      13      14      14      13
      14      14      13      14      14      13      14      14      13      14
      14      13      14      14      13      14      14      13      14      14
      13      14      14      13      14      14      13      14      14      13
      14      14      13      14      14      13      14      14      13      14
      14      13      14      14      13      14      14      13      14      14
      13      14      14      13      14      14      13      14      14      13
      14      14      13      14      14      13      14      14      13      14
      14      13      14      14      13      14      14      13      14      14
      13      14      14      13      14      14      13      14      14      13
      14      14      13      14      14      13      14      14      13      14
      14      13      14      14      13      14      14      13      14      14
      13      14      14      13      14      14      13      14      14      13
      14      14      13      14      14      13      14      14      13      14
      14      13      14      14      13      14      14      13      14      14
      13      14      14      13      14      14      13      14      14      13
      14      14      13      14      14      13      14      14      13      14
      14      13      14      14      13      14      14      13      14      14
      13      14      14      13      14      14      13      14      14      13
      14      14      13      14      14      13      14      14      13      14
      14      13      14      14      13      14      14      13      14      14
      13      14      14      13      14      14      13      14      14      13
      14      14      13      14      14      13      14      14      13      14
      14      13      14      14      13      14      14      13      14      14
      13      14      14      13      14      14      13      14      14      13
      14      14      13      14      14      13      14      14      13      14
      14      13      14      14      13      14      14      13      14      14
      13      14      14      13      14      14      13      14      14      13
      14      14      13      14      14      13      14      14      13      14
      14      13      14      14      13      14      14      13      14      14
      13      14      14      13      14      14      13      14      14      13
      14      14      13      14      14      13      14      14      13      14
      14      13      14      14      13      14      14      13      14      14
      13      14      14      13      14      14      13      14      14      13
      14      14      13      14      14      13      14      14      13      14
      14      13      14      14      13      14      14      13      14      14
      13      14      14      13      14      14      13      14      14      13
      14      14      13      14      14      13      14      14      13      14
      14      13      14      14      13      14      14      13      14      14
      13      14      14      13      14      14      13      14      14      13
      14      14      13      14      14      13      14      14      13      14
      14      13      14      14      13      14      14      13      14      14
      13      14      14      13      14      14      13      14      14      13
      14      14      13      14      14      13      14      14      13      14
      14      13      14      14      13      14      14      13      14      14
      13      14      14      13      14      14      13      14      14      13
      14      14      13      14      14      13      14      14      13      14
      14      13      14      14      13      14      14      13      14      14
      13      14      14      13      14      14      13      14      14      13
      14      14      13      14      14      13      14      14      13      14
      14      13      14      14      13      14      14      13      14      14
      13      14      14      13      14      14      13      14      14      13
      14      14      13      14      14      13      14      14      13      14
      14      13      14      14      13      14      14      13      14      14
      13      14      14      13      14      14      13      14      14      13
      14      14      13      14      14      13      14      14      13      14
      14      13      14      14      13      14      14      13      14      14
      13      14      14      13      14      14      13      14      14      13
      14      14      13      14      14      13      14      14      13      14
      14      13      14      14      13      14      14      13      14      14
      13      14      14      13      14      14      13      14      14      13
      14      14      13      14      14      13      14      14      13      14
      14      13      14      14      13      14      14      13      14      14
      13      14      14      13      14      14      13      14      14      13
      14      14      13      14      14      13      14      14      13      14
      14      13      14      14      13      14      14      13      14      14
      13      14      14      13      14      14      13      14      14      13
      14      14      13      14      14      13      14      14      13      14
      14      13      14      14      13      14      14      13      14      14
      13      14      14      13      14      14      13      14      14      13
      14      14      13      14      14      13      14      14      13      14
      14      13      14      14      13      14      14      13      14      14
      13      14      14      13      14      14      13      14      14      13
      14      14      13      14      14      13      14      14      13      14
      14      13      14      14      13      14      14      13      14      14
      13      14      14      13      14      14      13      14      14      13
      14      14      13      14      14      13      14      14      13      14
      14      13      14      14      13      14      14      13      14      14
      13      14      14      13      14      14      13      14      14      13
      14      14      13      14      14      13      14      14      13      14
      14      13      14      14      13      14      14      13      14      14
      13      14      14      13      14      14      13      14      14      13
      14      14      13      14      14      13      14      14      13      14
      14      13      14      14      13      14      14      13      14      14
      13      14      14      13      14      14      13      14      14      13
      14      14      13      14      14      13      14      14      13      14
      14      13      14      14      13      14      14      13      14      14
      13      14      14      13      14      14      13      14      14      13
      14      14      13      14      14      13      14      14      13      14
      14      13      14      14      13      14      14      13      14      14
      13      14      14      13      14      14      13      14      14      13
      14      14      13      14      14      13      14      14      13      14
      14      13      14      14      13      14      14      13      14      14
      13      14      14      13      14      14      13      14      14      13
      14      14      13      14      14      13      14      14      13      14
      14      13      14      14      13      14      14      13      14      14
      13      14      14      13      14      14      13      14      14      13
      14      14      13      14      14      13      14      14      13      14
      14      13      14      14      13      14      14      13      14      14
      13      14      14      13      14      14      13      14      14      13
      14      14      13      14      14      13      14      14      13      14
      14      13      14      14      13      14      14      13      14      14
      13      14      14      13      14      14      13      14      14      13
      14      14      13      14      14      13      14      14      13      14
      14      13      14      14      13      14      14      13      14      14
      13      14      14      13      14      14      13      14      14      13
      14      14      13      14      14      13      14      14      13      14
      14      13      14      14      13      14      14      13      14      14
      13      14      14      13      14      14      13      14      14      13
      14      14      13      14      14      13      14      14      13      14
      14      13      14      14      13      14      14      13      14      14
      13      14      14      13      14      14      13      14      14      13
      14      14      13      14      14      13      14      14      13      14
      14      13      14      14      13      14      14      13      14      14
      13      14      14      13      14      14      13      14      14      13
      14      14      13      14      14      13      14      14      13      14
      14      13      14      14      13      14      14      13      14      14
      13      14      14      13      14      14      13      14      14      13
      14      14      13      14      14      13      14      14      13      14
      14      13      14      14      13      14      14      13      14      14
      13      14      14      13      14      14      13      14      14      13
      14      14      13      14      14      13      14      14      13      14
      14      13      14      14      13      14      14      13      14      14
      13      14      14      13      14      14      13      14      14      13
      14      14      13      14      14      13      14      14      13      14
      14      13      14      14      13      14      14      13      14      14
      13      14      14      13      14      14      13      14      14      13
      14      14      13      14      14      13      14      14      13      14
      14      13      14      14      13      14      14      13      14      14
      13      14      14      13      14      14      13      14      14      13
      14      14      13      14      14      13      14      14      13      14
      14      13      14      14      13      14      14      13      14      14
      13      14      14      13      14      14      13      14      14      13
      14      14      13      14      14      13      14      14      13      14
      14      13      14      14      13      14      14      13      14      14
      13      14      14      13      14      14      13      14      14      13
      14      14      13      14      14      13      14      14      13      14
      14      13      14      14      13      14      14      13      14      14
      13      14      14      13      14      14      13      14      14      13
      14      14      13      14      14      13      14      14      13      14
      14      13      14      14      13      14      14      13      14      14
      13      14      14      13      14      14      13      14      14      13
      14      14      13      14      14      13      14      14      13      14
      14      13      14      14      13      14      14      13      14      14
      13      14      14      13      14      14      13      14      14      13
      14      14      13      14      14      13      14      14      13      14
      14      13      14      14      13      14      14      13      14      14
      13      14      14      13      14      14      13      14      14      13
      14      14      13      14      14      13      14      14      13      14
      14      13      14      14      13      14      14      13      14      14
      13      14      14      13      14      14      13      14      14      13
      14      14      13      14      14      13      14      14      13      14
      14      13      14      14      13      14      14      13      14      14
      13      14      14      13      14      14      13      14      14      13
      14      14      13      14      14      13      14      14      13      14
      14      13      14      14      13      14      14      13      14      14
      13      14      14      13      14      14      13      14      14      13
      14      14      13      14      14      13      14      14      13      14
      14      13      14      14      13      14      14      13      14      14
      13      14      14      13      14      14      13      14      14      13
      14      14      13      14      14      13      14      14      13      14
      14      13      14      14      13      14      14      13      14      14
      13      14      14      13      14      14      13      14      14      13
      14      14      13      14      14      13      14      14      13      14
      14      13      14      14      13      14      14      13      14      14
      13      14      14      13      14      14      13      14      14      13
      14      14      13      14      14      13      14      14      13      14
      14      13      14      14      13      14      14      13      14      14
      13      14      14      13      14      14      13      14      14      13
      14      14      13      14      14      13      14      14      13      14
      14      13      14      14      13      14      14      13      14      14
      13      14      14      13      14      14      13      14      14      13
      14      14      13      14      14      13      14      14      13      14
      14      13      14      14      13      14      14      13      14      14
      13      14      14      13      14      14      13      14      14      13
      14      14      13      14      14      13      14      14      13      14
      14      13      14      14      13      14      14      13      14      14
      13      14      14      13      14      14      13      14      14      13
      14      14      13      14      14      13      14      14      13      14
      14      13      14      14      13      14      14      13      14      14
      13      14      14      13      14      14      13      14      14      13
      14      14      13      14      14      13      14      14      13      14
      14      13      14      14      13      14      14      13      14      14
      13      14      14      13      14      14      13      14      14      13
      14      14      13      14      14      13      14      14      13      14
      14      13      14      14      13      14      14      13      14      14
      13      14      14      13      14      14      13      14      14      13
      14      14      13      14      14      13      14      14      13      14
      14      13      14      14      13      14      14      13      14      14
      13      14      14      13      14      14      13      14      14      13
      14      14      13      14      14      13      14      14      13      14
      14      13      14      14      13      14      14      13      14      14
      13      14      14      13      14      14      13      14      14      13
      14      14      13      14      14      13      14      14      13      14
      14      13      14      14      13      14      14      13      14      14
      13      14      14      13      14      14      13      14      14      13
      14      14      13      14      14      13      14      14      13      14
      14      13      14      14      13      14      14      13      14      14
      13      14      14      13      14      14      13      14      14      13
      14      14      13      14      14      13      14      14      13      14
      14      13      14      14      13      14      14      13      14      14
      13      14      14      13      14      14      13      14      14      13
      14      14      13      14      14      13      14      14      13      14
      14      13      14      14      13      14      14      13      14      14
      13      14      14      13      14      14      13      14      14      13
      14      14      13      14      14      13      14      14      13      14
      14      13      14      14      13      14      14      13      14      14
      13      14      14      13      14      14      13      14      14      13
      14      14      13      14      14      13      14      14      13      14
      14      13      14      14      13      14      14      13      14      14
      13      14      14      13      14      14      13      14      14      13
      14      14      13      14      14      13      14      14      13      14
      14      13      14      14      13      14      14      13      14      14
      13      14      14      13      14      14      13      14      14      13
      14      14      13      14      14      13      14      14      13      14
      14      13      14      14      13      14      14      13      14      14
      13      14      14      13      14      14      13      14      14      13
      14      14      13      14      14      13      14      14      13      14
      14      13      14      14      13      14      14      13      14      14
      13      14      14      13      14      14      13      14      14      13
      14      14      13      14      14      13      14      14      13      14
      14      13      14      14      13      14      14      13      14      14
      13      14      14      13      14      14      13      14      14      13
      14      14      13      14      14      13      14      14      13      14
      14      13      14      14      13      14      14      13      14      14
      13      14      14      13      14      14      13      14      14      13
      14      14      13      14      14      13      14      14      13      14
      14      13      14      14      13      14      14      13      14      14
      13      14      14      13      14      14      13      14      14      13
      14      14      13      14      14      13      14      14      13      14
      14      13      14      14      13      14      14      13      14      14
      13      14      14      13      14      14      13      14      14      13
      14      14      13      14      14      13      14      14      13      14
      14      13      14      14      13      14      14      13      14      14
      13      14      14      13      14      14      13      14      14      13
      14      14      13      14      14      13      14      14      13      14
      14      13      14      14      13      14      14      13      14      14
      13      14      14      13      14      14      13      14      14      13
      14      14      13      14      14      13      14      14      13      14
      14      13      14      14      13      14      14      13      14      14
      13      14      14      13      14      14      13      14      14      13
      14      14      13      14      14      13      14      14      13      14
      14      13      14      14      13      14      14      13      14      14
      13      14      14      13      14      14      13      14      14      13
      14      14      13      14      14      13      14      14      13      14
      14      13      14      14      13      14      14      13      14      14
      13      14      14      13      14      14      13      14      14      13
      14      14      13      14      14      13      14      14      13      14
      14      13      14      14      13      14      14      13      14      14
      13      14      14      13      14      14      13      14      14      13
      14      14      13      14      14      13      14      14      13      14
      14      13      14      14      13      14      14      13      14      14
      13      14      14      13      14      14      13      14      14      13
      14      14      13      14      14      13      14      14      13      14
      14      13      14      14      13      14      14      13      14      14
      13      14      14      13      14      14      13      14      14      13
      14      14      13      14      14      13      14      14      13      14
      14      13      14      14      13      14      14      13      14      14
      13      14      14      13      14      14      13      14      14      13
      14      14      13      14      14      13      14      14      13      14
      14      13      14      14      13      14      14      13      14      14
      13      14      14      13      14      14      13      14      14      13
      14      14      13      14      14      13      14      14      13      14
      14      13      14      14      13      14      14      13      14      14
      13      14      14      13      14      14      13      14      14      13
      14      14      13      14      14      13      14      14      13      14
      14      13      14      14      13      14      14      13      14      14
      13      14      14      13      14      14      13      14      14      13
      14      14      13      14      14      13      14      14      13      14
      14      13      14      14      13      14      14      13      14      14
      13      14      14      13      14      14      13      14      14      13
      14      14      13      14      14      13      14      14      13      14
      14      13      14      14      13      14      14      13      14      14
      13      14      14      13      14      14      13      14      14      13
      14      14      13      14      14      13      14      14      13      14
      14      13      14      14      13      14      14      13      14      14
      13      14      14      13      14      14      13      14      14      13
      14      14      13      14      14      13      14      14      13      14
      14      13      14      14      13      14      14      13      14      14
      13      14      14      13      14      14      13      14      14      13
      14      14      13      14      14      13      14      14      13      14
      14      13      14      14      13      14      14      13      14      14
      13      14      14      13      14      14      13      14      14      13
      14      14      13      14      14      13      14      14      13      14
      14      13      14      14      13      14      14      13      14      14
      13      14      14      13      14      14      13      14      14      13
      14      14      13      14      14      13      14      14      13      14
      14      13      14      14      13      14      14      13      14      14
      13      14      14      13      14      14      13      14      14      13
      14      14      13      14      14      13      14      14      13      14
      14      13      14      14      13      14      14      13      14      14
      13      14      14      13      14      14      13      14      14      13
      14      14      13      14      14      13      14      14      13      14
      14      13      14      14      13      14      14      13      14      14
      13      14      14      13      14      14      13      14      14      13
      14      14      13      14      14      13      14      14      13      14
      14      13      14      14      13      14      14      13      14      14
      13      14      14      13      14      14      13      14      14      13
      14      14      13      14      14      13      14      14      13      14
      14      13      14      14      13      14      14      13      14      14
      13      14      14      13      14      14      13      14      14      13
      14      14      13      14      14      13      14      14      13      14
      14      13      14      14      13      14      14      13      14      14
      13      14      14      13      14      14      13      14      14      13
      14      14      13      14      14      13      14      14      13      14
      14      13      14      14      13      14      14      13      14      14
      13      14      14      13      14      14      13      14      14      13
      14      14      13      14      14      13      14      14      13      14
      14      13      14      14      13      14      14      13      14      14
      13      14      14      13      14      14      13      14      14      13
      14      14      13      14      14      13      14      14      13      14
      14      13      14      14      13      14      14      13      14      14
      13      14      14      13      14      14      13      14      14      13
      14      14      13      14      14      13      14      14      13      14
      14      13      14      14      13      14      14      13      14      14
      13      14      14      13      14      14      13      14      14      13
      14      14      13      14      14      13      14      14      13      14
      14      13      14      14      13      14      14      13      14      14
      13      14      14      13      14      14      13      14      14      13
      14      14      13      14      14      13      14      14      13      14
      14      13      14      14      13      14      14      13      14      14
      13      14      14      13      14      14      13      14      14      13
      14      14      13      14      14      13      14      14      13      14
      14      13      14      14      13      14      14      13      14      14
      13      14      14      13      14      14      13      14      14      13
      14      14      13      14      14      13      14      14      13      14
      14      13      14      14      13      14      14      13      14      14
      13      14      14      13      14      14      13      14      14      13
      14      14      13      14      14      13      14      14      13      14
      14      13      14      14      13      14      14      13      14      14
      13      14      14      13      14      14      13      14      14      13
      14      14      13      14      14      13      14      14      13      14
      14      13      14      14      13      14      14      13      14      14
      13      14      14      13      14      14      13      14      14      13
      14      14      13      14      14      13      14      14      13      14
      14      13      14      14      13      14      14      13      14      14
      13      14      14      13      14      14      13      14      14      13
      14      14      13      14      14      13      14      14      13      14
      14      13      14      14      13      14      14      13      14      14
      13      14      14      13      14      14      13      14      14      13
      14      14      13      14      14      13      14      14      13      14
      14      13      14      14      13      14      14      13      14      14
      13      14      14      13      14      14      13      14      14      13
      14      14      13      14      14      13      14      14      13      14
      14      13      14      14      13      14      14      13      14      14
      13      14      14      13      14      14      13      14      14      13
      14      14      13      14      14      13      14      14      13      14
      14      13      14      14      13      14      14      13      14      14
      13      14      14      13      14      14      13      14      14      13
      14      14      13      14      14      13      14      14      13      14
      14      13      14      14      13      14      14      13      14      14
      13      14      14      13      14      14      13      14      14      13
      14      14      13      14      14      13      14      14      13      14
      14      13      14      14      13      14      14      13      14      14
      13      14      14      13      14      14      13      14      14      13
      14      14      13      14      14      13      14      14      13      14
      14      13      14      14      13      14      14      13      14      14
      13      14      14      13      14      14      13      14      14      13
      14      14      13      14      14      13      14      14      13      14
      14      13      14      14      13      14      14      13      14      14
      13      14      14      13      14      14      13      14      14      13
      14      14      13      14      14      13      14      14      13      14
      14      13      14      14      13      14      14      13      14      14
      13      14      14      13      14      14      13      14      14      13
      14      14      13      14      14      13      14      14      13      14
      14      13      14      14      13      14      14      13      14      14
      13      14      14      13      14      14      13      14      14      13
      14      14      13      14      14      13      14      14      13      14
      14      13      14      14      13      14      14      13      14      14
      13      14      14      13      14      14      13      14      14      13
      14      14      13      14      14      13      14      14      13      14
      14      13      14      14      13      14      14      13      14      14
      13      14      14      13      14      14      13      14      14      13
      14      14      13      14      14      13      14      14      13      14
      14      13      14      14      13      14      14      13      14      14
      13      14      14      13      14      14      13      14      14      13
      14      14      13      14      14      13      14      14      13      14
      14      13      14      14      13      14      14      13      14      14
      13      14      14      13      14      14      13      14      14      13
      14      14      13      14      14      13      14      14      13      14
      14      13      14      14      13      14      14      13      14      14
      13      14      14      13      14      14      13      14      14      13
      14      14      13      14      14      13      14      14      13      14
      14      13      14      14      13      14      14      13      14      14
      13      14      14      13      14      14      13      14      14      13
      14      14      13      14      14      13      14      14      13      14
      14      13      14      14      13      14      14      13      14      14
      13      14      14      13      14      14      13      14      14      13
      14      14      13      14      14      13      14      14      13      14
      14      13      14      14      13      14      14      13      14      14
      13      14      14      13      14      14      13      14      14      13
      14      14      13      14      14      13      14      14      13      14
      14      13      14      14      13      14      14      13      14      14
      13      14      14      13      14      14      13      14      14      13
      14      14      13      14      14      13      14      14      13      14
      14      13      14      14      13      14      14      13      14      14
      13      14      14      13      14      14      13      14      14      13
      14      14      13      14      14      13      14      14      13      14
      14      13      14      14      13      14      14      13      14      14
      13      14      14      13      14      14      13      14      14      13
      14      14      13      14      14      13      14      14      13      14
      14      13      14      14      13      14      14      13      14      14
      13      14      14      13      14      14      13      14      14      13
      14      14      13      14      14      13      14      14      13      14
      14      13      14      14      13      14      14      13      14      14
      13      14      14      13      14      14      13      14      14      13
      14      14      13      14      14      13      14      14      13      14
      14      13      14      14      13      14      14      13      14      14
      13      14      14      13      14      14      13      14      14      13
      14      14      13      14      14      13      14      14      13      14
      14      13      14      14      13      14      14      13      14      14
      13      14      14      13      14      14      13      14      14      13
      14      14      13      14      14      13      14      14      13      14
      14      13      14      14      13      14      14      13      14      14
      13      14      14      13      14      14      13      14      14      13
      14      14      13      14      14      13      14      14      13      14
      14      13      14      14      13      14      14      13      14      14
      13      14      14      13      14      14      13      14      14      13
      14      14      13      14      14      13      14      14      13      14
      14      13      14      14      13      14      14      13      14      14
      13      14      14      13      14      14      13      14      14      13
      14      14      13      14      14      13      14      14      13      14
      14      13      14      14      13      14      14      13      14      14
      13      14      14      13      14      14      13      14      14      13
      14      14      13      14      14      13      14      14      13      14
      14      13      14      14      13      14      14      13      14      14
      13      14      14      13      14      14      13      14      14      13
      14      14      13      14      14      13      14      14      13      14
      14      13      14      14      13      14      14      13      14      14
      13      14      14      13      14      14      13      14      14      13
      14      14      13      14      14      13      14      14      13      14
      14      13      14      14      13      14      14      13      14      14
      13      14      14      13      14      14      13      14      14      13
      14      14      13      14      14      13      14      14      13      14
      14      13      14      14      13      14      14      13      14      14
      13      14      14      13      14      14      13      14      14      13
      14      14      13      14      14      13      14      14      13      14
      14      13      14      14      13      14      14      13      14      14
      13      14      14      13      14      14      13      14      14      13
      14      14      13      14      14      13      14      14      13      14
      14      13      14      14      13      14      14      13      14      14
      13      14      14      13      14      14      13      14      14      13
      14      14      13      14      14      13      14      14      13      14
      14      13      14      14      13      14      14      13      14      14
      13      14      14      13      14      14      13      14      14      13
      14      14      13      14      14      13      14      14      13      14
      14      13      14      14      13      14      14      13      14      14
      13      14      14      13      14      14      13      14      14      13
      14      14      13      14      14      13      14      14      13      14
      14      13      14      14      13      14      14      13      14      14
      13      14      14      13      14      14      13      14      14      13
      14      14      13      14      14      13      14      14      13      14
      14      13      14      14      13      14      14      13      14      14
      13      14      14      13      14      14      13      14      14      13
      14      14      13      14      14      13      14      14      13      14
      14      13      14      14      13      14      14      13      14      14
      13      14      14      13      14      14      13      14      14      13
      14      14      13      14      14      13      14      14      13      14
      14      13      14      14      13      14      14      13      14      14
      13      14      14      13      14      14      13      14      14      13
      14      14      13      14      14      13      14      14      13      14
      14      13      14      14      13      14      14      13      14      14
      13      14      14      13      14      14      13      14      14      13
      14      14      13      14      14      13      14      14      13      14
      14      13      14      14      13      14      14      13      14      14
      13      14      14      13      14      14      13      14      14      13
      14      14      13      14      14      13      14      14      13      14
      14      13      14      14      13      14      14      13      14      14
      13      14      14      13      14      14      13      14      14      13
      14      14      13      14      14      13      14      14      13      14
      14      13      14      14      13      14      14      13      14      14
      13      14      14      13      14      14      13      14      14      13
      14      14      13      14      14      13      14      14      13      14
      14      13      14      14      13      14      14      13      14      14
      13      14      14      13      14      14      13      14      14      13
      14      14      13      14      14      13      14      14      13      14
      14      13      14      14      13      14      14      13      14      14
      13      14      14      13      14      14      13      14      14      13
      14      14      13      14      14      13      14      14      13      14
      14      13      14      14      13      14      14      13      14      14
      13      14      14      13      14      14      13      14      14      13
      14      14      13      14      14      13      14      14      13      14
      14      13      14      14      13      14      14      13      14      14
      13      14      14      13      14      14      13      14      14      13
      14      14      13      14      14      13      14      14      13      14
      14      13      14      14      13      14      14      13      14      14
      13      14      14      13      14      14      13      14      14      13
      14      14      13      14      14      13      14      14      13      14
      14      13      14      14      13      14      14      13      14      14
      13      14      14      13      14      14      13      14      14      13
      14      14      13      14      14      13      14      14      13      14
      14      13      14      14      13      14      14      13      14      14
      13      14      14      13      14      14      13      14      14      13
      14      14      13      14      14      13      14      14      13      14
      14      13      14      14      13      14      14      13      14      14
      13      14      14      13      14      14      13      14      14      13
      14      14      13      14      14      13      14      14      13      14
      14      13      14      14      13      14      14      13      14      14
      13      14      14      13      14      14      13      14      14      13
      14      14      13      14      14      13      14      14      13      14
      14      13      14      14      13      14      14      13      14      14
      13      14      14      13      14      14      13      14      14      13
      14      14      13      14      14      13      14      14      13      14
      14      13      14      14      13      14      14      13      14      14
      13      14      14      13      14      14      13      14      14      13
      14      14      13      14      14      13      14      14      13      14
      14      13      14      14      13      14      14      13      14      14
      13      14      14      13      14      14      13      14      14      13
      14      14      13      14      14      13      14      14      13      14
      14      13      14      14      13      14      14      13      14      14
      13      14      14      13      14      14      13      14      14      13
      14      14      13      14      14      13      14      14      13      14
      14      13      14      14      13      14      14      13      14      14
      13      14      14      13      14      14      13      14      14      13
      14      14      13      14      14      13      14      14      13      14
      14      13      14      14      13      14      14      13      14      14
      13      14      14      13      14      14      13      14      14      13
      14      14      13      14      14      13      14      14      13      14
      14      13      14      14      13      14      14      13      14      14
      13      14      14      13      14      14      13      14      14      13
      14      14      13      14      14      13      14      14      13      14
      14      13      14      14      13      14      14      13      14      14
      13      14      14      13      14      14      13      14      14      13
      14      14      13      14      14      13      14      14      13      14
      14      13      14      14      13      14      14      13      14      14
      13      14      14      13      14      14      13      14      14      13
      14      14      13      14      14      13      14      14      13      14
      14      13      14      14      13      14      14      13      14      14
      13      14      14      13      14      14      13      14      14      13
      14      14      13      14      14      13      14      14      13      14
      14      13      14      14      13      14      14      13      14      14
      13      14      14      13      14      14      13      14      14      13
      14      14      13      14      14      13      14      14      13      14
      14      13      14      14      13      14      14      13      14      14
      13      14      14      13      14      14      13      14      14      13
      14      14      13      14      14      13      14      14      13      14
      14      13      14      14      13      14      14      13      14      14
      13      14      14      13      14      14      13      14      14      13
      14      14      13      14      14      13      14      14      13      14
      14      13      14      14      13      14      14      13      14      14
      13      14      14      13      14      14      13      14      14      13
      14      14      13      14      14      13      14      14      13      14
      14      13      14      14      13      14      14      13      14      14
      13      14      14      13      14      14      13      14      14      13
      14      14      13      14      14      13      14      14      13      14
      14      13      14      14      13      14      14      13      14      14
      13      14      14      13      14      14      13      14      14      13
      14      14      13      14      14      13      14      14      13      14
      14      13      14      14      13      14      14      13      14      14
      13      14      14      13      14      14      13      14      14      13
      14      14      13      14      14      13      14      14      13      14
      14      13      14      14      13      14      14      13      14      14
      13      14      14      13      14      14      13      14      14      13
      14      14      13      14      14      13      14      14      13      14
      14      13      14      14      13      14      14      13      14      14
      13      14      14      13      14      14      13      14      14      13
      14      14      13      14      14      13      14      14      13      14
      14      13      14      14      13      14      14      13      14      14
      13      14      14      13      14      14      13      14      14      13
      14      14      13      14      14      13      14      14      13      14
      14      13      14      14      13      14      14      13      14      14
      13      14      14      13      14      14      13      14      14      13
      14      14      13      14      14      13      14      14      13      14
      14      13      14      14      13      14      14      13      14      14
      13      14      14      13      14      14      13      14      14      13
      14      14      13      14      14      13      14      14      13      14
      14      13      14      14      13      14      14      13      14      14
      13      14      14      13      14      14      13      14      14      13
      14      14      13      14      14      13      14      14      13      14
      14      13      14      14      13      14      14      13      14      14
      13      14      14      13      14      14      13      14      14      13
      14      14      13      14      14      13      14      14      13      14
      14      13      14      14      13      14      14      13      14      14
      13      14      14      13      14      14      13      14      14      13
      14      14      13      14      14      13      14      14      13      14
      14      13      14      14      13      14      14      13      14      14
      13      14      14      13      14      14      13      14      14      13
      14      14      13      14      14      13      14      14      13      14
      14      13      14      14      13      14      14      13      14      14
      13      14      14      13      14      14      13      14      14      13
      14      14      13      14      14      13      14      14      13      14
      14      13      14      14      13      14      14      13      14      14
      13      14      14      13      14      14      13      14      14      13
      14      14      13      14      14      13      14      14      13      14
      14      13      14      14      13      14      14      13      14      14
      13      14      14      13      14      14      13      14      14      13
      14      14      13      14      14      13      14      14      13      14
      14      13      14      14      13      14      14      13      14      14
      13      14      14      13      14      14      13      14      14      13
      14      14      13      14      14      13      14      14      13      14
      14      13      14      14      13      14      14      13      14      14
      13      14      14      13      14      14      13      14      14      13
      14      14      13      14      14      13      14      14      13      14
      14      13      14      14      13      14      14      13      14      14
      13      14      14      13      14      14      13      14      14      13
      14      14      13      14      14      13      14      14      13      14
      14      13      14      14      13      14      14      13      14      14
      13      14      14      13      14      14      13      14      14      13
      14      14      13      14      14      13      14      14      13      14
      14      13      14      14      13      14      14      13      14      14
      13      14      14      13      14      14      13      14      14      13
      14      14      13      14      14      13      14      14      13      14
      14      13      14      14      13      14      14      13      14      14
      13      14      14      13      14      14      13      14      14      13
      14      14      13      14      14      13      14      14      13      14
      14      13      14      14      13      14      14      13      14      14
      13      14      14      13      14      14      13      14      14      13
      14      14      13      14      14      13      14      14      13      14
      14      13      14      14      13      14      14      13      14      14
      13      14      14      13      14      14      13      14      14      13
      14      14      13      14      14      13      14      14      13      14
      14      13      14      14      13      14      14      13      14      14
      13      14      14      13      14      14      13      14      14      13
      14      14      13      14      14      13      14      14      13      14
      14      13      14      14      13      14      14      13      14      14
      13      14      14      13      14      14      13      14      14      13
      14      14      13      14      14      13      14      14      13      14
      14      13      14      14      13      14      14      13      14      14
      13      14      14      13      14      14      13      14      14      13
      14      14      13      14      14      13      14      14      13      14
      14      13      14      14      13      14      14      13      14      14
      13      14      14      13      14      14      13      14      14      13
      14      14      13      14      14      13      14      14      13      14
      14      13      14      14      13      14      14      13      14      14
      13      14      14      13      14      14      13      14      14      13
      14      14      13      14      14      13      14      14      13      14
      14      13      14      14      13      14      14      13      14      14
      13      14      14      13      14      14      13      14      14      13
      14      14      13      14      14      13      14      14      13      14
      14      13      14      14      13      14      14      13      14      14
      13      14      14      13      14      14      13      14      14      13
      14      14      13      14      14      13      14      14      13      14
      14      13      14      14      13      14      14      13      14      14
      13      14      14      13      14      14      13      14      14      13
      14      14      13      14      14      13      14      14      13      14
      14      13      14      14      13      14      14      13      14      14
      13      14      14      13      14      14      13      14      14      13
      14      14      13      14      14      13      14      14      13      14
      14      13      14      14      13      14      14      13      14      14
      13      14      14      13      14      14      13      14      14      13
      14      14      13      14      14      13      14      14      13      14
      14      13      14      14      13      14      14      13      14      14
      13      14      14      13      14      14      13      14      14      13
      14      14      13      14      14      13      14      14      13      14
      14      13      14      14      13      14      14      13      14      14
      13      14      14      13      14      14      13      14      14      13
      14      14      13      14      14      13      14      14      13      14
      14      13      14      14      13      14      14      13      14      14
      13      14      14      13      14      14      13      14      14      13
      14      14      13      14      14      13      14      14      13      14
      14      13      14      14      13      14      14      13      14      14
      13      14      14      13      14      14      13      14      14      13
      14      14      13      14      14      13      14      14      13      14
      14      13      14      14      13      14      14      13      14      14
      13      14      14      13      14      14      13      14      14      13
      14      14      13      14      14      13      14      14      13      14
      14      13      14      14      13      14      14      13      14      14
      13      14      14      13      14      14      13      14      14      13
      14      14      13      14      14      13      14      14      13      14
      14      13      14      14      13      14      14      13      14      14
      13      14      14      13      14      14      13      14      14      13
      14      14      13      14      14      13      14      14      13      14
      14      13      14      14      13      14      14      13      14      14
      13      14      14      13      14      14      13      14      14      13
      14      14      13      14      14      13      14      14      13      14
      14      13      14      14      13      14      14      13      14      14
      13      14      14      13      14      14      13      14      14      13
      14      14      13      14      14      13      14      14      13      14
      14      13      14      14      13      14      14      13      14      14
      13      14      14      13      14      14      13      14      14      13
      14      14      13      14      14      13      14      14      13      14
      14      13      14      14      13      14      14      13      14      14
      13      14      14      13      14      14      13      14      14      13
      14      14      13      14      14      13      14      14      13      14
      14      13      14      14      13      14      14      13      14      14
      13      14      14      13      14      14      13      14      14      13
      14      14      13      14      14      13      14      14      13      14
      14      13      14      14      13      14      14      13      14      14
      13      14      14      13      14      14      13      14      14      13
      14      14      13      14      14      13      14      14      13      14
      14      13      14      14      13      14      14      13      14      14
      13      14      14      13      14      14      13      14      14      13
      14      14      13      14      14      13      14      14      13      14
      14      13      14      14      13      14      14      13      14      14
      13      14      14      13      14      14      13      14      14      13
      14      14      13      14      14      13      14      14      13      14
      14      13      14      14      13      14      14      13      14      14
      13      14      14      13      14      14      13      14      14      13
      14      14      13      14      14      13      14      14      13      14
      14      13      14      14      13      14      14      13      14      14
      13      14      14      13      14      14      13      14      14      13
      14      14      13      14      14      13      14      14      13      14
      14      13      14      14      13      14      14      13      14      14
      13      14      14      13      14      14      13      14      14      13
      14      14      13      14      14      13      14      14      13      14
      14      13      14      14      13      14      14      13      14      14
      13      14      14      13      14      14      13      14      14      13
      14      14      13      14      14      13      14      14      13      14
      14      13      14      14      13      14      14      13      14      14
      13      14      14      13      14      14      13      14      14      13
      14      14      13      14      14      13      14      14      13      14
      14      13      14      14      13      14      14      13      14      14
      13      14      14      13      14      14      13      14      14      13
      14      14      13      14      14      13      14      14      13      14
      14      13      14      14      13      14      14      13      14      14
      13      14      14      13      14      14      13      14      14      13
      14      14      13      14      14      13      14      14      13      14
      14      13      14      14      13      14      14      13      14      14
      13      14      14      13      14      14      13      14      14      13
      14      14      13      14      14      13      14      14      13      14
      14      13      14      14      13      14      14      13      14      14
      13      14      14      13      14      14      13      14      14      13
      14      14      13      14      14      13      14      14      13      14
      14      13      14      14      13      14      14      13      14      14
      13      14      14      13      14      14      13      14      14      13
      14      14      13      14      14      13      14      14      13      14
      14      13      14      14      13      14      14      13      14      14
      13      14      14      13      14      14      13      14      14      13
      14      14      13      14      14      13      14      14      13      14
      14      13      14      14      13      14      14      13      14      14
      13      14      14      13      14      14      13      14      14      13
      14      14      13      14      14      13      14      14      13      14
      14      13      14      14      13      14      14      13      14      14
      13      14      14      13      14      14      13      14      14      13
      14      14      13      14      14      13      14      14      13      14
      14      13      14      14      13      14      14      13      14      14
      13      14      14      13      14      14      13      14      14      13
      14      14      13      14      14      13      14      14      13      14
      14      13      14      14      13      14      14      13      14      14
      13      14      14      13      14      14      13      14      14      13
      14      14      13      14      14      13      14      14      13      14
      14      13      14      14      13      14      14      13      14      14
      13      14      14      13      14      14      13      14      14      13
      14      14      13      14      14      13      14      14      13      14
      14      13      14      14      13      14      14      13      14      14
      13      14      14      13      14      14      13      14      14      13
      14      14      13      14      14      13      14      14      13      14
      14      13      14      14      13      14      14      13      14      14
      13      14      14      13      14      14      13      14      14      13
      14      14      13      14      14      13      14      14      13      14
      14      13      14      14      13      14      14      13      14      14
      13      14      14      13      14      14      13      14      14      13
      14      14      13      14      14      13      14      14      13      14
      14      13      14      14      13      14      14      13      14      14
      13      14      14      13      14      14      13      14      14      13
      14      14      13      14      14      13      14      14      13      14
      14      13      14      14      13      14      14      13      14      14
      13      14      14      13      14      14      13      14      14      13
      14      14      13      14      14      13      14      14      13      14
      14      13      14      14      13      14      14      13      14      14
      13      14      14      13      14      14      13      14      14      13
      14      14      13      14      14      13      14      14      13      14
      14      13      14      14      13      14      14      13      14      14
      13      14      14      13      14      14      13      14      14      13
      14      14      13      14      14      13      14      14      13      14
      14      13      14      14      13      14      14      13      14      14
      13      14      14      13      14      14      13      14      14      13
      14      14      13      14      14      13      14      14      13      14
      14      13      14      14      13      14      14      13      14      14
      13      14      14      13      14      14      13      14      14      13
      14      14      13      14      14      13      14      14      13      14
      14      13      14      14      13      14      14      13      14      14
      13      14      14      13      14      14      13      14      14      13
      14      14      13      14      14      13      14      14      13      14
      14      13      14      14      13      14      14      13      14      14
      13      14      14      13      14      14      13      14      14      13
      14      14      13      14      14      13      14      14      13      14
      14      13      14      14      13      14      14      13      14      14
      13      14      14      13      14      14      13      14      14      13
      14      14      13      14      14      13      14      14      13      14
      14      13      14      14      13      14      14      13      14      14
      13      14      14      13      14      14      13      14      14      13
      14      14      13      14      14      13      14      14      13      14
      14      13      14      14      13      14      14      13      14      14
      13      14      14      13      14      14      13      14      14      13
      14      14      13      14      14      13      14      14      13      14
      14      13      14      14      13      14      14      13      14      14
      13      14      14      13      14      14      13      14      14      13
      14      14      13      14      14      13      14      14      13      14
      14      13      14      14      13      14      14      13      14      14
      13      14      14      13      14      14      13      14      14      13
      14      14      13      14      14      13      14      14      13      14
      14      13      14      14      13      14      14      13      14      14
      13      14      14      13      14      14      13      14      14      13
      14      14      13      14      14      13      14      14      13      14
      14      13      14      14      13      14      14      13      14      14
      13      14      14      13      14      14      13      14      14      13
      14      14      13      14      14      13      14      14      13      14
      14      13      14      14      13      14      14      13      14      14
      13      14      14      13      14      14      13      14      14      13
      14      14      13      14      14      13      14      14      13      14
      14      13      14      14      13      14      14      13      14      14
      13      14      14      13      14      14      13      14      14      13
      14      14      13      14      14      13      14      14      13      14
      14      13      14      14      13      14      14      13      14      14
      13      14      14      13      14      14      13      14      14      13
      14      14      13      14      14      13      14      14      13      14
      14      13      14      14      13      14      14      13      14      14
      13      14      14      13      14      14      13      14      14      13
      14      14      13      14      14      13      14      14      13      14
      14      13      14      14      13      14      14      13      14      14
      13      14      14      13      14      14      13      14      14      13
      14      14      13      14      14      13      14      14      13      14
      14      13      14      14      13      14      14      13      14      14
      13      14      14      13      14      14      13      14      14      13
      14      14      13      14      14      13      14      14      13      14
      14      13      14      14      13      14      14      13      14      14
      13      14      14      13      14      14      13      14      14      13
      14      14      13      14      14      13      14      14      13      14
      14      13      14      14      13      14      14      13      14      14
      13      14      14      13      14      14      13      14      14      13
      14      14      13      14      14      13      14      14      13      14
      14      13      14      14      13      14      14      13      14      14
      13      14      14      13      14      14      13      14      14      13
      14      14      13      14      14      13      14      14      13      14
      14      13      14      14      13      14      14      13      14      14
      13      14      14      13      14      14      13      14      14      13
      14      14      13      14      14      13      14      14      13      14
      14      13      14      14      13      14      14      13      14      14
      13      14      14      13      14      14      13      14      14      13
      14      14      13      14      14      13      14      14      13      14
      14      13      14      14      13      14      14      13      14      14
      13      14      14      13      14      14      13      14      14      13
      14      14      13      14      14      13      14      14      13      14
      14      13      14      14      13      14      14      13      14      14
      13      14      14      13      14      14      13      14      14      13
      14      14      13      14      14      13      14      14      13      14
      14      13      14      14      13      14      14      13      14      14
      13      14      14      13      14      14      13      14      14      13
      14      14      13      14      14      13      14      14      13      14
      14      13      14      14      13      14      14      13      14      14
      13      14      14      13      14      14      13      14      14      13
      14      14      13      14      14      13      14      14      13      14
      14      13      14      14      13      14      14      13      14      14
      13      14      14      13      14      14      13      14      14      13
      14      14      13      14      14      13      14      14      13      14
      14      13      14      14      13      14      14      13      14      14
      13      14      14      13      14      14      13      14      14      13
      14      14      13      14      14      13      14      14      13      14
      14      13      14      14      13      14      14      13      14      14
      13      14      14      13      14      14      13      14      14      13
      14      14      13      14      14      13      14      14      13      14
      14      13      14      14      13      14      14      13      14      14
      13      14      14      13      14      14      13      14      14      13
      14      14      13      14      14      13      14      14      13      14
      14      13      14      14      13      14      14      13      14      14
      13      14      14      13      14      14      13      14      14      13
      14      14      13      14      14      13      14      14      13      14
      14      13      14      14      13      14      14      13      14      14
      13      14      14      13      14      14      13      14      14      13
      14      14      13      14      14      13      14      14      13      14
      14      13      14      14      13      14      14      13      14      14
      13      14      14      13      14      14      13      14      14      13
      14      14      13      14      14      13      14      14      13      14
      14      13      14      14      13      14      14      13      14      14
      13      14      14      13      14      14      13      14      14      13
      14      14      13      14      14      13      14      14      13      14
      14      13      14      14      13      14      14      13      14      14
      13      14      14      13      14      14      13      14      14      13
      14      14      13      14      14      13      14      14      13      14
      14      13      14      14      13      14      14      13      14      14
      13      14      14      13      14      14      13      14      14      13
      14      14      13      14      14      13      14      14      13      14
      14      13      14      14      13      14      14      13      14      14
      13      14      14      13      14      14      13      14      14      13
      14      14      13      14      14      13      14      14      13      14
      14      13      14      14      13      14      14      13      14      14
      13      14      14      13      14      14      13      14      14      13
      14      14      13      14      14      13      14      14      13      14
      14      13      14      14      13      14      14      13      14      14
      13      14      14      13      14      14      13      14      14      13
      14      14      13      14      14      13      14      14      13      14
      14      13      14      14      13      14      14      13      14      14
      13      14      14      13      14      14      13      14      14      13
      14      14      13      14      14      13      14      14      13      14
      14      13      14      14      13      14      14      13      14      14
      13      14      14      13      14      14      13      14      14      13
      14      14      13      14      14      13      14      14      13      14
      14      13      14      14      13      14      14      13      14      14
      13      14      14      13      14      14      13      14      14      13
      14      14      13      14      14      13      14      14      13      14
      14      13      14      14      13      14      14      13      14      14
      13      14      14      13      14      14      13      14      14      13
      14      14      13      14      14      13      14      14      13      14
      14      13      14      14      13      14      14      13      14      14
      13      14      14      13      14      14      13      14      14      13
      14      14      13      14      14      13      14      14      13      14
      14      13      14      14      13      14      14      13      14      14
      13      14      14      13      14      14      13      14      14      13
      14      14      13      14      14      13      14      14      13      14
      14      13      14      14      13      14      14      13      14      14
      13      14      14      13      14      14      13      14      14      13
      14      14      13      14      14      13      14      14      13      14
      14      13      14      14      13      14      14      13      14      14
      13      14      14      13      14      14      13      14      14      13
      14      14      13      14      14      13      14      14      13      14
      14      13      14      14      13      14      14      13      14      14
      13      14      14      13      14      14      13      14      14      13
      14      14      13      14      14      13      14      14      13      14
      14      13      14      14      13      14      14      13      14      14
      13      14      14      13      14      14      13      14      14      13
      14      14      13      14      14      13      14      14      13      14
      14      13      14      14      13      14      14      13      14      14
      13      14      14      13      14      14      13      14      14      13
      14      14      13      14      14      13      14      14      13      14
      14      13      14      14      13      14      14      13      14      14
      13      14      14      13      14      14      13      14      14      13
      14      14      13      14      14      13      14      14      13      14
      14      13      14      14      13      14      14      13      14      14
      13      14      14      13      14      14      13      14      14      13
      14      14      13      14      14      13      14      14      13      14
      14      13      14      14      13      14      14      13      14      14
      13      14      14      13      14      14      13      14      14      13
      14      14      13      14      14      13      14      14      13      14
      14      13      14      14      13      14      14      13      14      14
      13      14      14      13      14      14      13      14      14      13
      14      14      13      14      14      13      14      14      13      14
      14      13      14      14      13      14      14      13      14      14
      13      14      14      13      14      14      13      14      14      13
      14      14      13      14      14      13      14      14      13      14
      14      13      14      14      13      14      14      13      14      14
      13      14      14      13      14      14      13      14      14      13
      14      14      13      14      14      13      14      14      13      14
      14      13      14      14      13      14      14      13      14      14
      13      14      14      13      14      14      13      14      14      13
      14      14      13      14      14      13      14      14      13      14
      14      13      14      14      13      14      14      13      14      14
      13      14      14      13      14      14      13      14      14      13
      14      14      13      14      14      13      14      14      13      14
      14      13      14      14      13      14      14      13      14      14
      13      14      14      13      14      14      13      14      14      13
      14      14      13      14      14      13      14      14      13      14
      14      13      14      14      13      14      14      13      14      14
      13      14      14      13      14      14      13      14      14      13
      14      14      13      14      14      13      14      14      13      14
      14      13      14      14      13      14      14      13      14      14
      13      14      14      13      14      14      13      14      14      13
      14      14      13      14      14      13      14      14      13      14
      14      13      14      14      13      14      14      13      14      14
      13      14      14      13      14      14      13      14      14      13
      14      14      13      14      14      13      14      14      13      14
      14      13      14      14      13      14      14      13      14      14
      13      14      14      13      14      14      13      14      14      13
      14      14      13      14      14      13      14      14      13      14
      14      13      14      14      13      14      14      13      14      14
      13      14      14      13      14      14      13      14      14      13
      14      14      13      14      14      13      14      14      13      14
      14      13      14      14      13      14      14      13      14      14
      13      14      14      13      14      14      13      14      14      13
      14      14      13      14      14      13      14      14      13      14
      14      13      14      14      13      14      14      13      14      14
      13      14      14      13      14      14      13      14      14      13
      14      14      13      14      14      13      14      14      13      14
      14      13      14      14      13      14      14      13      14      14
      13      14      14      13      14      14      13      14      14      13
      14      14      13      14      14      13      14      14      13      14
      14      13      14      14      13      14      14      13      14      14
      13      14      14      13      14      14      13      14      14      13
      14      14      13      14      14      13      14      14      13      14
      14      13      14      14      13      14      14      13      14      14
      13      14      14      13      14      14      13      14      14      13
      14      14      13      14      14      13      14      14      13      14
      14      13      14      14      13      14      14      13      14      14
      13      14      14      13      14      14      13      14      14      13
      14      14      13      14      14      13      14      14      13      14
      14      13      14      14      13      14      14      13      14      14
      13      14      14      13      14      14      13      14      14      13
      14      14      13      14      14      13      14      14      13      14
      14      13      14      14      13      14      14      13      14      14
      13      14      14      13      14      14      13      14      14      13
      14      14      13      14      14      13      14      14      13      14
      14      13      14      14      13      14      14      13      14      14
      13      14      14      13      14      14      13      14      14      13
      14      14      13      14      14      13      14      14      13      14
      14      13      14      14      13      14      14      13      14      14
      13      14      14      13      14      14      13      14      14      13
      14      14      13      14      14      13      14      14      13      14
      14      13      14      14      13      14      14      13      14      14
      13      14      14      13      14      14      13      14      14      13
      14      14      13      14      14      13      14      14      13      14
      14      13      14      14      13      14      14      13      14      14
      13      14      14      13      14      14      13      14      14      13
      14      14      13      14      14      13      14      14      13      14
      14      13      14      14      13      14      14      13      14      14
      13      14      14      13      14      14      13      14      14      13
      14      14      13      14      14      13      14      14      13      14
      14      13      14      14      13      14      14      13      14      14
      13      14      14      13      14      14      13      14      14      13
      14      14      13      14      14      13      14      14      13      14
      14      13      14      14      13      14      14      13      14      14
      13      14      14      13      14      14      13      14      14      13
      14      14      13      14      14      13      14      14      13      14
      14      13      14      14      13      14      14      13      14      14
      13      14      14      13      14      14      13      14      14      13
      14      14      13      14      14      13      14      14      13      14
      14      13      14      14      13      14      14      13      14      14
      13      14      14      13      14      14      13      14      14      13
      14      14      13      14      14      13      14      14      13      14
      14      13      14      14      13      14      14      13      14      14
      13      14      14      13      14      14      13      14      14      13
      14      14      13      14      14      13      14      14      13      14
      14      13      14      14      13      14      14      13      14      14
      13      14      14      13      14      14      13      14      14      13
      14      14      13      14      14      13      14      14      13      14
      14      13      14      14      13      14      14      13      14      14
      13      14      14      13      14      14      13      14      14      13
      14      14      13      14      14      13      14      14      13      14
      14      13      14      14      13      14      14      13      14      14
      13      14      14      13      14      14      13      14      14      13
      14      14      13      14      14      13      14      14      13      14
      14      13      14      14      13      14      14      13      14      14
      13      14      14      13      14      14      13      14      14      13
      14      14      13      14      14      13      14      14      13      14
      14      13      14      14      13      14      14      13      14      14
      13      14      14      13      14      14      13      14      14      13
      14      14      13      14      14      13      14      14      13      14
      14      13      14      14      13      14      14      13      14      14
      13      14      14      13      14      14      13      14      14      13
      14      14      13      14      14      13      14      14      13      14
      14      13      14      14      13      14      14      13      14      14
      13      14      14      13      14      14      13      14      14      13
      14      14      13      14      14      13      14      14      13      14
      14      13      14      14      13      14      14      13      14      14
      13      14      14      13      14      14      13      14      14      13
      14      14      13      14      14      13      14      14      13      14
      14      13      14      14      13      14      14      13      14      14
      13      14      14      13      14      14      13      14      14      13
      14      14      13      14      14      13      14      14      13      14
      14      13      14      14      13      14      14      13      14      14
      13      14      14      13      14      14      13      14      14      13
      14      14      13      14      14      13      14      14      13      14
      14      13      14      14      13      14      14      13      14      14
      13      14      14      13      14      14      13      14      14      13
      14      14      13      14      14      13      14      14      13      14
      14      13      14      14      13      14      14      13      14      14
      13      14      14      13      14      14      13      14      14      13
      14      14      13      14      14      13      14      14      13      14
      14      13      14      14      13      14      14      13      14      14
      13      14      14      13      14      14      13      14      14      13
      14      14      13      14      14      13      14      14      13      14
      14      13      14      14      13      14      14      13      14      14
      13      14      14      13      14      14      13      14      14      13
      14      14      13      14      14      13      14      14      13      14
      14      13      14      14      13      14      14      13      14      14
      13      14      14      13      14      14      13      14      14      13
      14      14      13      14      14      13      14      14      13      14
      14      13      14      14      13      14      14      13      14      14
      13      14      14      13      14      14      13      14      14      13
      14      14      13      14      14      13      14      14      13      14
      14      13      14      14      13      14      14      13      14      14
      13      14      14      13      14      14      13      14      14      13
      14      14      13      14      14      13      14      14      13      14
      14      13      14      14      13      14      14      13      14      14
      13      14      14      13      14      14      13      14      14      13
      14      14      13      14      14      13      14      14      13      14
      14      13      14      14      13      14      14      13      14      14
      13      14      14      13      14      14      13      14      14      13
      14      14      13      14      14      13      14      14      13      14
      14      13      14      14      13      14      14      13      14      14
      13      14      14      13      14      14      13      14      14      13
      14      14      13      14      14      13      14      14      13      14
      14      13      14      14      13      14      14      13      14      14
      13      14      14      13      14      14      13      14      14      13
      14      14      13      14      14      13      14      14      13      14
      14      13      14      14      13      14      14      13      14      14
      13      14      14      13      14      14      13      14      14      13
      14      14      13      14      14      13      14      14      13      14
      14      13      14      14      13      14      14      13      14      14
      13      14      14      13      14      14      13      14      14      13
      14      14      13      14      14      13      14      14      13      14
      14      13      14      14      13      14      14      13      14      14
      13      14      14      13      14      14      13      14      14      13
      14      14      13      14      14      13      14      14      13      14
      14      13      14      14      13      14      14      13      14      14
      13      14      14      13      14      14      13      14      14      13
      14      14      13      14      14      13      14      14      13      14
      14      13      14      14      13      14      14      13      14      14
      13      14      14      13      14      14      13      14      14      13
      14      14      13      14      14      13      14      14      13      14
      14      13      14      14      13      14      14      13      14      14
      13      14      14      13      14      14      13      14      14      13
      14      14      13      14      14      13      14      14      13      14
      14      13      14      14      13      14      14      13      14      14
      13      14      14      13      14      14      13      14      14      13
      14      14      13      14      14      13      14      14      13      14
      14      13      14      14      13      14      14      13      14      14
      13      14      14      13      14      14      13      14      14      13
      14      14      13      14      14      13      14      14      13      14
      14      13      14      14      13      14      14      13      14      14
      13      14      14      13      14      14      13      14      14      13
      14      14      13      14      14      13      14      14      13      14
      14      13      14      14      13      14      14      13      14      14
      13      14      14      13      14      14      13      14      14      13
      14      14      13      14      14      13      14      14      13      14
      14      13      14      14      13      14      14      13      14      14
      13      14      14      13      14      14      13      14      14      13
      14      14      13      14      14      13      14      14      13      14
      14      13      14      14      13      14      14      13      14      14
      13      14      14      13      14      14      13      14      14      13
      14      14      13      14      14      13      14      14      13      14
      14      13      14      14      13      14      14      13      14      14
      13      14      14      13      14      14      13      14      14      13
      14      14      13      14      14      13      14      14      13      14
      14      13      14      14      13      14      14      13      14      14
      13      14      14      13      14      14      13      14      14      13
      14      14      13      14      14      13      14      14      13      14
      14      13      14      14      13      14      14      13      14      14
      13      14      14      13      14      14      13      14      14      13
      14      14      13      14      14      13      14      14      13      14
      14      13      14      14      13      14      14      13      14      14
      13      14      14      13      14      14      13      14      14      13
      14      14      13      14      14      13      14      14      13      14
      14      13      14      14      13      14      14      13      14      14
      13      14      14      13      14      14      13      14      14      13
      14      14      13      14      14      13      14      14      13      14
      14      13      14      14      13      14      14      13      14      14
      13      14      14      13      14      14      13      14      14      13
      14      14      13      14      14      13      14      14      13      14
      14      13      14      14      13      14      14      13      14      14
      13      14      14      13      14      14      13      14      14      13
      14      14      13      14      14      13      14      14      13      14
      14      13      14      14      13      14      14      13      14      14
      13      14      14      13      14      14      13      14      14      13
      14      14      13      14      14      13      14      14      13      14
      14      13      14      14      13      14      14      13      14      14
      13      14      14      13      14      14      13      14      14      13
      14      14      13      14      14      13      14      14      13      14
      14      13      14      14      13      14      14      13      14      14
      13      14      14      13      14      14      13      14      14      13
      14      14      13      14      14      13      14      14      13      14
      14      13      14      14      13      14      14      13      14      14
      13      14      14      13      14      14      13      14      14      13
      14      14      13      14      14      13      14      14      13      14
      14      13      14      14      13      14      14      13      14      14
      13      14      14      13      14      14      13      14      14      13
      14      14      13      14      14      13      14      14      13      14
      14      13      14      14      13      14      14      13      14      14
      13      14      14      13      14      14      13      14      14      13
      14      14      13      14      14      13      14      14      13      14
      14      13      14      14      13      14      14      13      14      14
      13      14      14      13      14      14      13      14      14      13
      14      14      13      14      14      13      14      14      13      14
      14      13      14      14      13      14      14      13      14      14
      13      14      14      13      14      14      13      14      14      13
      14      14      13      14      14      13      14      14      13      14
      14      13      14      14      13      14      14      13      14      14
      13      14      14      13      14      14      13      14      14      13
      14      14      13      14      14      13      14      14      13      14
      14      13      14      14      13      14      14      13      14      14
      13      14      14      13      14      14      13      14      14      13
      14      14      13      14      14      13      14      14      13      14
      14      13      14      14      13      14      14      13      14      14
      13      14      14      13      14      14      13      14      14      13
      14      14      13      14      14      13      14      14      13      14
      14      13      14      14      13      14      14      13      14      14
      13      14      14      13      14      14      13      14      14      13
      14      14      13      14      14      13      14      14      13      14
      14      13      14      14      13      14      14      13      14      14
      13      14      14      13      14      14      13      14      14      13
      14      14      13      14      14      13      14      14      13      14
      14      13      14      14      13      14      14      13      14      14
      13      14      14      13      14      14      13      14      14      13
      14      14      13      14      14      13      14      14      13      14
      14      13      14      14      13      14      14      13      14      14
      13      14      14      13      14      14      13      14      14      13
      14      14      13      14      14      13      14      14      13      14
      14      13      14      14      13      14      14      13      14      14
      13      14      14      13      14      14      13      14      14      13
      14      14      13      14      14      13      14      14      13      14
      14      13      14      14      13      14      14      13      14      14
      13      14      14      13      14      14      13      14      14      13
      14      14      13      14      14      13      14      14      13      14
      14      13      14      14      13      14      14      13      14      14
      13      14      14      13      14      14      13      14      14      13
      14      14      13      14      14      13      14      14      13      14
      14      13      14      14      13      14      14      13      14      14
      13      14      14      13      14      14      13      14      14      13
      14      14      13      14      14      13      14      14      13      14
      14      13      14      14      13      14      14      13      14      14
      13      14      14      13      14      14      13      14      14      13
      14      14      13      14      14      13      14      14      13      14
      14      13      14      14      13      14      14      13      14      14
      13      14      14      13      14      14      13      14      14      13
      14      14      13      14      14      13      14      14      13      14
      14      13      14      14      13      14      14      13      14      14
      13      14      14      13      14      14      13      14      14      13
      14      14      13      14      14      13      14      14      13      14
      14      13      14      14      13      14      14      13      14      14
      13      14      14      13      14      14      13      14      14      13
      14      14      13      14      14      13      14      14      13      14
      14      13      14      14      13      14      14      13      14      14
      13      14      14      13      14      14      13      14      14      13
      14      14      13      14      14      13      14      14      13      14
      14      13      14      14      13      14      14      13      14      14
      13      14      14      13      14      14      13      14      14      13
      14      14      13      14      14      13      14      14      13      14
      14      13      14      14      13      14      14      13      14      14
      13      14      14      13      14      14      13      14      14      13
      14      14      13      14      14      13      14      14      13      14
      14      13      14      14      13      14      14      13      14      14
      13      14      14      13      14      14      13      14      14      13
      14      14      13      14      14      13      14      14      13      14
      14      13      14      14      13      14      14      13      14      14
      13      14      14      13      14      14      13      14      14      13
      14      14      13      14      14      13      14      14      13      14
      14      13      14      14      13      14      14      13      14      14
      13      14      14      13      14      14      13      14      14      13
      14      14      13      14      14      13      14      14      13      14
      14      13      14      14      13      14      14      13      14      14
      13      14      14      13      14      14      13      14      14      13
      14      14      13      14      14      13      14      14      13      14
      14      13      14      14      13      14      14      13      14      14
      13      14      14      13      14      14      13      14      14      13
      14      14      13      14      14      13      14      14      13      14
      14      13      14      14      13      14      14      13      14      14
      13      14      14      13      14      14      13      14      14      13
      14      14      13      14      14      13      14      14      13      14
      14      13      14      14      13      14      14      13      14      14
      13      14      14      13      14      14      13      14      14      13
      14      14      13      14      14      13      14      14      13      14
      14      13      14      14      13      14      14      13      14      14
      13      14      14      13      14      14      13      14      14      13
      14      14      13      14      14      13      14      14      13      14
      14      13      14      14      13      14      14      13      14      14
      13      14      14      13      14      14      13      14      14      13
      14      14      13      14      14      13      14      14      13      14
      14      13      14      14      13      14      14      13      14      14
      13      14      14      13      14      14      13      14      14      13
      14      14      13      14      14      13      14      14      13      14
      14      13      14      14      13      14      14      13      14      14
      13      14      14      13      14      14      13      14      14      13
      14      14      13      14      14      13      14      14      13      14
      14      13      14      14      13      14      14      13      14      14
      13      14      14      13      14      14      13      14      14      13
      14      14      13      14      14      13      14      14      13      14
      14      13      14      14      13      14      14      13      14      14
      13      14      14      13      14      14      13      14      14      13
      14      14      13      14      14      13      14      14      13      14
      14      13      14      14      13      14      14      13      14      14
      13      14      14      13      14      14      13      14      14      13
      14      14      13      14      14      13      14      14      13      14
      14      13      14      14      13      14      14      13      14      14
      13      14      14      13      14      14      13      14      14      13
      14      14      13      14      14      13      14      14      13      14
      14      13      14      14      13      14      14      13      14      14
      13      14      14      13      14      14      13      14      14      13
      14      14      13      14      14      13      14      14      13      14
      14      13      14      14      13      14      14      13      14      14
      13      14      14      13      14      14      13      14      14      13
      14      14      13      14      14      13      14      14      13      14
      14      13      14      14      13      14      14      13      14      14
      13      14      14      13      14      14      13      14      14      13
      14      14      13      14      14      13      14      14      13      14
      14      13      14      14      13      14      14      13      14      14
      13      14      14      13      14      14      13      14      14      13
      14      14      13      14      14      13      14      14      13      14
      14      13      14      14      13      14      14      13      14      14
      13      14      14      13      14      14      13      14      14      13
      14      14      13      14      14      13      14      14      13      14
      14      13      14      14      13      14      14      13      14      14
      13      14      14      13      14      14      13      14      14      13
      14      14      13      14      14      13      14      14      13      14
      14      13      14      14      13      14      14      13      14      14
      13      14      14      13      14      14      13      14      14      13
      14      14      13      14      14      13      14      14      13      14
      14      13      14      14      13      14      14      13      14      14
      13      14      14      13      14      14      13      14      14      13
      14      14      13      14      14      13      14      14      13      14
      14      13      14      14      13      14      14      13      14      14
      13      14      14      13      14      14      13      14      14      13
      14      14      13      14      14      13      14      14      13      14
      14      13      14      14      13      14      14      13      14      14
      13      14      14      13      14      14      13      14      14      13
      14      14      13      14      14      13      14      14      13      14
      14      13      14      14      13      14      14      13      14      14
      13      14      14      13      14      14      13      14      14      13
      14      14      13      14      14      13      14      14      13      14
      14      13      14      14      13      14      14      13      14      14
      13      14      14      13      14      14      13      14      14      13
      14      14      13      14      14      13      14      14      13      14
      14      13      14      14      13      14      14      13      14      14
      13      14      14      13      14      14      13      14      14      13
      14      14      13      14      14      13      14      14      13      14
      14      13      14      14      13      14      14      13      14      14
      13      14      14      13      14      14      13      14      14      13
      14      14      13      14      14      13      14      14      13      14
      14      13      14      14      13      14      14      13      14      14
      13      14      14      13      14      14      13      14      14      13
      14      14      13      14      14      13      14      14      13      14
      14      13      14      14      13      14      14      13      14      14
      13      14      14      13      14      14      13      14      14      13
      14      14      13      14      14      13      14      14      13      14
      14      13      14      14      13      14      14      13      14      14
      13      14      14      13      14      14      13      14      14      13
      14      14      13      14      14      13      14      14      13      14
      14      13      14      14      13      14      14      13      14      14
      13      14      14      13      14      14      13      14      14      13
      14      14      13      14      14      13      14      14      13      14
      14      13      14      14      13      14      14      13      14      14
      13      14      14      13      14      14      13      14      14      13
      14      14      13      14      14      13      14      14      13      14
      14      13      14      14      13      14      14      13      14      14
      13      14      14      13      14      14      13      14      14      13
      14      14      13      14      14      13      14      14      13      14
      14      13      14      14      13      14      14      13      14      14
      13      14      14      13      14      14      13      14      14      13
      14      14      13      14      14      13      14      14      13      14
      14      13      14      14      13      14      14      13      14      14
      13      14      14      13      14      14      13      14      14      13
      14      14      13      14      14      13      14      14      13      14
      14      13      14      14      13      14      14      13      14      14
      13      14      14      13      14      14      13      14      14      13
      14      14      13      14      14      13      14      14      13      14
      14      13      14      14      13      14      14      13      14      14
      13      14      14      13      14      14      13      14      14      13
      14      14      13      14      14      13      14      14      13      14
      14      13      14      14      13      14      14      13      14      14
      13      14      14      13      14      14      13      14      14      13
      14      14      13      14      14      13      14      14      13      14
      14      13      14      14      13      14      14      13      14      14
      13      14      14      13      14      14      13      14      14      13
      14      14      13      14      14      13      14      14      13      14
      14      13      14      14      13      14      14      13      14      14
      13      14      14      13      14      14      13      14      14      13
      14      14      13      14      14      13      14      14      13      14
      14      13      14      14      13      14      14      13      14      14
      13      14      14      13      14      14      13      14      14      13
      14      14      13      14      14      13      14      14      13      14
      14      13      14      14      13      14      14      13      14      14
      13      14      14      13      14      14      13      14      14      13
      14      14      13      14      14      13      14      14      13      14
      14      13      14      14      13      14      14      13      14      14
      13      14      14      13      14      14      13      14      14      13
      14      14      13      14      14      13      14      14      13      14
      14      13      14      14      13      14      14      13      14      14
      13      14      14      13      14      14      13      14      14      13
      14      14      13      14      14      13      14      14      13      14
      14      13      14      14      13      14      14      13      14      14
      13      14      14      13      14      14      13      14      14      13
      14      14      13      14      14      13      14      14      13      14
      14      13      14      14      13      14      14      13      14      14
      13      14      14      13      14      14      13      14      14      13
      14      14      13      14      14      13      14      14      13      14
      14      13      14      14      13      14      14      13      14      14
      13      14      14      13      14      14      13      14      14      13
      14      14      13      14      14      13      14      14      13      14
      14      13      14      14      13      14      14      13      14      14
      13      14      14      13      14      14      13      14      14      13
      14      14      13      14      14      13      14      14      13      14
      14      13      14      14      13      14      14      13      14      14
      13      14      14      13      14      14      13      14      14      13
      14      14      13      14      14      13      14      14      13      14
      14      13      14      14      13      14      14      13      14      14
      13      14      14      13      14      14      13      14      14      13
      14      14      13      14      14      13      14      14      13      14
      14      13      14      14      13      14      14      13      14      14
      13      14      14      13      14      14      13      14      14      13
      14      14      13      14      14      13      14      14      13      14
      14      13      14      14      13      14      14      13      14      14
      13      14      14      13      14      14      13      14      14      13
      14      14      13      14      14      13      14      14      13      14
      14      13      14      14      13      14      14      13      14      14
      13      14      14      13      14      14      13      14      14      13
      14      14      13      14      14      13      14      14      13      14
      14      13      14      14      13      14      14      13      14      14
      13      14      14      13      14      14      13      14      14      13
      14      14      13      14      14      13      14      14      13      14
      14      13      14      14      13      14      14      13      14      14
      13      14      14      13      14      14      13      14      14      13
      14      14      13      14      14      13      14      14      13      14
      14      13      14      14      13      14      14      13      14      14
      13      14      14      13      14      14      13      14      14      13
      14      14      13      14      14      13      14      14      13      14
      14      13      14      14      13      14      14      13      14      14
      13      14      14      13      14      14      13      14      14      13
      14      14      13      14      14      13      14      14      13      14
      14      13      14      14      13      14      14      13      14      14
      13      14      14      13      14      14      13      14      14      13
      14      14      13      14      14      13      14      14      13      14
      14      13      14      14      13      14      14      13      14      14
      13      14      14      13      14      14      13      14      14      13
      14      14      13      14      14      13      14      14      13      14
      14      13      14      14      13      14      14      13      14      14
      13      14      14      13      14      14      13      14      14      13
      14      14      13      14      14      13      14      14      13      14
      14      13      14      14      13      14      14      13      14      14
      13      14      14      13      14      14      13      14      14      13
      14      14      13      14      14      13      14      14      13      14
      14      13      14      14      13      14      14      13      14      14
      13      14      14      13      14      14      13      14      14      13
      14      14      13      14      14      13      14      14      13      14
      14      13      14      14      13      14      14      13      14      14
      13      14      14      13      14      14      13      14      14      13
      14      14      13      14      14      13      14      14      13      14
      14      13      14      14      13      14      14      13      14      14
      13      14      14      13      14      14      13      14      14      13
      14      14      13      14      14      13      14      14      13      14
      14      13      14      14      13      14      14      13      14      14
      13      14      14      13      14      14      13      14      14      13
      14      14      13      14      14      13      14      14      13      14
      14      13      14      14      13      14      14      13      14      14
      13      14      14      13      14      14      13      14      14      13
      14      14      13      14      14      13      14      14      13      14
      14      13      14      14      13      14      14      13      14      14
      13      14      14      13      14      14      13      14      14      13
      14      14      13      14      14      13      14      14      13      14
      14      13      14      14      13      14      14      13      14      14
      13      14      14      13      14      14      13      14      14      13
      14      14      13      14      14      13      14      14      13      14
      14      13      14      14      13      14      14      13      14      14
      13      14      14      13      14      14      13      14      14      13
      14      14      13      14      14      13      14      14      13      14
      14      13      14      14      13      14      14      13      14      14
      13      14      14      13      14      14      13      14      14      13
      14      14      13      14      14      13      14      14      13      14
      14      13      14      14      13      14      14      13      14      14
      13      14      14      13      14      14      13      14      14      13
      14      14      13      14      14      13      14      14      13      14
      14      13      14      14      13      14      14      13      14      14
      13      14      14      13      14      14      13      14      14      13
      14      14      13      14      14      13      14      14      13      14
      14      13      14      14      13      14      14      13      14      14
      13      14      14      13      14      14      13      14      14      13
      14      14      13      14      14      13      14      14      13      14
      14      13      14      14      13      14      14      13      14      14
      13      14      14      13      14      14      13      14      14      13
      14      14      13      14      14      13      14      14      13      14
      14      13      14      14      13      14      14      13      14      14
      13      14      14      13      14      14      13      14      14      13
      14      14      13      14      14      13      14      14      13      14
      14      13      14      14      13      14      14      13      14      14
      13      14      14      13      14      14      13      14      14      13
      14      14      13      14      14      13      14      14      13      14
      14      13      14      14      13      14      14      13      14      14
      13      14      14      13      14      14      13      14      14      13
      14      14      13      14      14      13      14      14      13      14
      14      13      14      14      13      14      14      13      14      14
      13      14      14      13      14      14      13      14      14      13
      14      14      13      14      14      13      14      14      13      14
      14      13      14      14      13      14      14      13      14      14
      13      14      14      13      14      14      13      14      14      13
      14      14      13      14      14      13      14      14      13      14
      14      13      14      14      13      14      14      13      14      14
      13      14      14      13      14      14      13      14      14      13
      14      14      13      14      14      13      14      14      13      14
      14      13      14      14      13      14      14      13      14      14
      13      14      14      13      14      14      13      14      14      13
      14      14      13      14      14      13      14      14      13      14
      14      13      14      14      13      14      14      13      14      14
      13      14      14      13      14      14      13      14      14      13
      14      14      13      14      14      13      14      14      13      14
      14      13      14      14      13      14      14      13      14      14
      13      14      14      13      14      14      13      14      14      13
      14      14      13      14      14      13      14      14      13      14
      14      13      14      14      13      14      14      13      14      14
      13      14      14      13      14      14      13      14      14      13
      14      14      13      14      14      13      14      14      13      14
      14      13      14      14      13      14      14      13      14      14
      13      14      14      13      14      14      13      14      14      13
      14      14      13      14      14      13      14      14      13      14
      14      13      14      14      13      14      14      13      14      14
      13      14      14      13      14      14      13      14      14      13
      14      14      13      14      14      13      14      14      13      14
      14      13      14      14      13      14      14      13      14      14
      13      14      14      13      14      14      13      14      14      13
      14      14      13      14      14      13      14      14      13      14
      14      13      14      14      13      14      14      13      14      14
      13      14      14      13      14      14      13      14      14      13
      14      14      13      14      14      13      14      14      13      14
      14      13      14      14      13      14      14      13      14      14
      13      14      14      13      14      14      13      14      14      13
      14      14      13      14      14      13      14      14      13      14
      14      13      14      14      13      14      14      13      14      14
      13      14      14      13      14      14      13      14      14      13
      14      14      13      14      14      13      14      14      13      14
      14      13      14      14      13      14      14      13      14      14
      13      14      14      13      14      14      13      14      14      13
      14      14      13      14      14      13      14      14      13      14
      14      13      14      14      13      14      14      13      14      14
      13      14      14      13      14      14      13      14      14      13
      14      14      13      14      14      13      14      14      13      14
      14      13      14      14      13      14      14      13      14      14
      13      14      14      13      14      14      13      14      14      13
      14      14      13      14      14      13      14      14      13      14
      14      13      14      14      13      14      14      13      14      14
      13      14      14      13      14      14      13      14      14      13
      14      14      13      14      14      13      14      14      13      14
      14      13      14      14      13      14      14      13      14      14
      13      14      14      13      14      14      13      14      14      13
      14      14      13      14      14      13      14      14      13      14
      14      13      14      14      13      14      14      13      14      14
      13      14      14      13      14      14      13      14      14      13
      14      14      13      14      14      13      14      14      13      14
      14      13      14      14      13      14      14      13      14      14
      13      14      14      13      14      14      13      14      14      13
      14      14      13      14      14      13      14      14      13      14
      14      13      14      14      13      14      14      13      14      14
      13      14      14      13      14      14      13      14      14      13
      14      14      13      14      14      13      14      14      13      14
      14      13      14      14      13      14      14      13      14      14
      13      14      14      13      14      14      13      14      14      13
      14      14      13      14      14      13      14      14      13      14
      14      13      14      14      13      14      14      13      14      14
      13      14      14      13      14      14      13      14      14      13
      14      14      13      14      14      13      14      14      13      14
      14      13      14      14      13      14      14      13      14      14
      13      14      14      13      14      14      13      14      14      13
      14      14      13      14      14      13      14      14      13      14
      14      13      14      14      13      14      14      13      14      14
      13      14      14      13      14      14      13      14      14      13
      14      14      13      14      14      13      14      14      13      14
      14      13      14      14      13      14      14      13      14      14
      13      14      14      13      14      14      13      14      14      13
      14      14      13      14      14      13      14      14      13      14
      14      13      14      14      13      14      14      13      14      14
      13      14      14      13      14      14      13      14      14      13
      14      14      13      14      14      13      14      14      13      14
      14      13      14      14      13      14      14      13      14      14
      13      14      14      13      14      14      13      14      14      13
      14      14      13      14      14      13      14      14      13      14
      14      13      14      14      13      14      14      13      14      14
      13      14      14      13      14      14      13      14      14      13
      14      14      13      14      14      13      14      14      13      14
      14      13      14      14      13      14      14      13      14      14
      13      14      14      13      14      14      13      14      14      13
      14      14      13      14      14      13      14      14      13      14
      14      13      14      14      13      14      14      13      14      14
      13      14      14      13      14      14      13      14      14      13
      14      14      13      14      14      13      14      14      13      14
      14      13      14      14      13      14      14      13      14      14
      13      14      14      13      14      14      13      14      14      13
      14      14      13      14      14      13      14      14      13      14
      14      13      14      14      13      14      14      13      14      14
      13      14      14      13      14      14      13      14      14      13
      14      14      13      14      14      13      14      14      13      14
      14      13      14      14      13      14      14      13      14      14
      13      14      14      13      14      14      13      14      14      13
      14      14      13      14      14      13      14      14      13      14
      14      13      14      14      13      14      14      13      14      14
      13      14      14      13      14      14      13      14      14      13
      14      14      13      14      14      13      14      14      13      14
      14      13      14      14      13      14      14      13      14      14
      13      14      14      13      14      14      13      14      14      13
      14      14      13      14      14      13      14      14      13      14
      14      13      14      14      13      14      14      13      14      14
      13      14      14      13      14      14      13      14      14      13
      14      14      13      14      14      13      14      14      13      14
      14      13      14      14      13      14      14      13      14      14
      13      14      14      13      14      14      13      14      14      13
      14      14      13      14      14      13      14      14      13      14
      14      13      14      14      13      14      14      13      14      14
      13      14      14      13      14      14      13      14      14      13
      14      14      13      14      14      13      14      14      13      14
      14      13      14      14      13      14      14      13      14      14
      13      14      14      13      14      14      13      14      14      13
      14      14      13      14      14      13      14      14      13      14
      14      13      14      14      13      14      14      13      14      14
      13      14      14      13      14      14      13      14      14      13
      14      14      13      14      14      13      14      14      13      14
      14      13      14      14      13      14      14      13      14      14
      13      14      14      13      14      14      13      14      14      13
      14      14      13      14      14      13      14      14      13      14
      14      13      14      14      13      14      14      13      14      14
      13      14      14      13      14      14      13      14      14      13
      14      14      13      14      14      13      14      14      13      14
      14      13      14      14      13      14      14      13      14      14
      13      14      14      13      14      14      13      14      14      13
      14      14      13      14      14      13      14      14      13      14
      14      13      14      14      13      14      14      13      14      14
      13      14      14      13      14      14      13      14      14      13
      14      14      13      14      14      13      14      14      13      14
      14      13      14      14      13      14      14      13      14      14
      13      14      14      13      14      14      13      14      14      13
      14      14      13      14      14      13      14      14      13      14
      14      13      14      14      13      14      14      13      14      14
      13      14      14      13      14      14      13      14      14      13
      14      14      13      14      14      13      14      14      13      14
      14      13      14      14      13      14      14      13      14      14
      13      14      14      13      14      14      13      14      14      13
      14      14      13      14      14      13      14      14      13      14
      14      13      14      14      13      14      14      13      14      14
      13      14      14      13      14      14      13      14      14      13
      14      14      13      14      14      13      14      14      13      14
      14      13      14      14      13      14      14      13      14      14
      13      14      14      13      14      14      13      14      14      13
      14      14      13      14      14      13      14      14      13      14
      14      13      14      14      13      14      14      13      14      14
      13      14      14      13      14      14      13      14      14      13
      14      14      13      14      14      13      14      14      13      14
      14      13      14      14      13      14      14      13      14      14
      13      14      14      13      14      14      13      14      14      13
      14      14      13      14      14      13      14      14      13      14
      14      13      14      14      13      14      14      13      14      14
      13      14      14      13      14      14      13      14      14      13
      14      14      13      14      14      13      14      14      13      14
      14      13      14      14      13      14      14      13      14      14
      13      14      14      13      14      14      13      14      14      13
      14      14      13      14      14      13      14      14      13      14
      14      13      14      14      13      14      14      13      14      14
      13      14      14      13      14      14      13      14      14      13
      14      14      13      14      14      13      14      14      13      14
      14      13      14      14      13      14      14      13      14      14
      13      14      14      13      14      14      13      14      14      13
      14      14      13      14      14      13      14      14      13      14
      14      13      14      14      13      14      14      13      14      14
      13      14      14      13      14      14      13      14      14      13
      14      14      13      14      14      13      14      14      13      14
      14      13      14      14      13      14      14      13      14      14
      13      14      14      13      14      14      13      14      14      13
      14      14      13      14      14      13      14      14      13      14
      14      13      14      14      13      14      14      13      14      14
      13      14      14      13      14      14      13      14      14      13
      14      14      13      14      14      13      14      14      13      14
      14      13      14      14      13      14      14      13      14      14
      13      14      14      13      14      14      13      14      14      13
      14      14      13      14      14      13      14      14      13      14
      14      13      14      14      13      14      14      13      14      14
      13      14      14      13      14      14      13      14      14      13
      14      14      13      14      14      13      14      14      13      14
      14      13      14      14      13      14      14      13      14      14
      13      14      14      13      14      14      13      14      14      13
      14      14      13      14      14      13      14      14      13      14
      14      13      14      14      13      14      14      13      14      14
      13      14      14      13      14      14      13      14      14      13
      14      14      13      14      14      13      14      14      13      14
      14      13      14      14      13      14      14      13      14      14
      13      14      14      13      14      14      13      14      14      13
      14      14      13      14      14      13      14      14      13      14
      14      13      14      14      13      14      14      13      14      14
      13      14      14      13      14      14      13      14      14      13
      14      14      13      14      14      13      14      14      13      14
      14      13      14      14      13      14      14      13      14      14
      13      14      14      13      14      14      13      14      14      13
      14      14      13      14      14      13      14      14      13      14
      14      13      14      14      13      14      14      13      14      14
      13      14      14      13      14      14      13      14      14      13
      14      14      13      14      14      13      14      14      13      14
      14      13      14      14      13      14      14      13      14      14
      13      14      14      13      14      14      13      14      14      13
      14      14      13      14      14      13      14      14      13      14
      14      13      14      14      13      14      14      13      14      14
      13      14      14      13      14      14      13      14      14      13
      14      14      13      14      14      13      14      14      13      14
      14      13      14      14      13      14      14      13      14      14
      13      14      14      13      14      14      13      14      14      13
      14      14      13      14      14      13      14      14      13      14
      14      13      14      14      13      14      14      13      14      14
      13      14      14      13      14      14      13      14      14      13
      14      14      13      14      14      13      14      14      13      14
      14      13      14      14      13      14      14      13      14      14
      13      14      14      13      14      14      13      14      14      13
      14      14      13      14      14      13      14      14      13      14
      14      13      14      14      13      14      14      13      14      14
      13      14      14      13      14      14      13      14      14      13
      14      14      13      14      14      13      14      14      13      14
      14      13      14      14      13      14      14      13      14      14
      13      14      14      13      14      14      13      14      14      13
      14      14      13      14      14      13      14      14      13      14
      14      13      14      14      13      14      14      13      14      14
      13      14      14      13      14      14      13      14      14      13
      14      14      13      14      14      13      14      14      13      14
      14      13      14      14      13      14      14      13      14      14
      13      14      14      13      14      14      13      14      14      13
      14      14      13      14      14      13      14      14      13      14
      14      13      14      14      13      14      14      13      14      14
      13      14      14      13      14      14      13      14      14      13
      14      14      13      14      14      13      14      14      13      14
      14      13      14      14      13      14      14      13      14      14
      13      14      14      13      14      14      13      14      14      13
      14      14      13      14      14      13      14      14      13      14
      14      13      14      14      13      14      14      13      14      14
      13      14      14      13      14      14      13      14      14      13
      14      14      13      14      14      13      14      14      13      14
      14      13      14      14      13      14      14      13      14      14
      13      14      14      13      14      14      13      14      14      13
      14      14      13      14      14      13      14      14      13      14
      14      13      14      14      13      14      14      13      14      14
      13      14      14      13      14      14      13      14      14      13
      14      14      13      14      14      13      14      14      13      14
      14      13      14      14      13      14      14      13      14      14
      13      14      14      13      14      14      13      14      14      13
      14      14      13      14      14      13      14      14      13      14
      14      13      14      14      13      14      14      13      14      14
      13      14      14      13      14      14      13      14      14      13
      14      14      13      14      14      13      14      14      13      14
      14      13      14      14      13      14      14      13      14      14
      13      14      14      13      14      14      13      14      14      13
      14      14      13      14      14      13      14      14      13      14
      14      13      14      14      13      14      14      13      14      14
      13      14      14      13      14      14      13      14      14      13
      14      14      13      14      14      13      14      14      13      14
      14      13      14      14      13      14      14      13      14      14
      13      14      14      13      14      14      13      14      14      13
      14      14      13      14      14      13      14      14      13      14
      14      13      14      14      13      14      14      13      14      14
      13      14      14      13      14      14      13      14      14      13
      14      14      13      14      14      13      14      14      13      14
      14      13      14      14      13      14      14      13      14      14
      13      14      14      13      14      14      13      14      14      13
      14      14      13      14      14      13      14      14      13      14
      14      13      14      14      13      14      14      13      14      14
      13      14      14      13      14      14      13      14      14      13
      14      14      13      14      14      13      14      14      13      14
      14      13      14      14      13      14      14      13      14      14
      13      14      14      13      14      14      13      14      14      13
      14      14      13      14      14      13      14      14      13      14
      14      13      14      14      13      14      14      13      14      14
      13      14      14      13      14      14      13      14      14      13
      14      14      13      14      14      13      14      14      13      14
      14      13      14      14      13      14      14      13      14      14
      13      14      14      13      14      14      13      14      14      13
      14      14      13      14      14      13      14      14      13      14
      14      13      14      14      13      14      14      13      14      14
      13      14      14      13      14      14      13      14      14      13
      14      14      13      14      14      13      14      14      13      14
      14      13      14      14      13      14      14      13      14      14
      13      14      14      13      14      14      13      14      14      13
      14      14      13      14      14      13      14      14      13      14
      14      13      14      14      13      14      14      13      14      14
      13      14      14      13      14      14      13      14      14      13
      14      14      13      14      14      13      14      14      13      14
      14      13      14      14      13      14      14      13      14      14
      13      14      14      13      14      14      13      14      14      13
      14      14      13      14      14      13      14      14      13      14
      14      13      14      14      13      14      14      13      14      14
      13      14      14      13      14      14      13      14      14      13
      14      14      13      14      14      13      14      14      13      14
      14      13      14      14      13      14      14      13      14      14
      13      14      14      13      14      14      13      14      14      13
      14      14      13      14      14      13      14      14      13      14
      14      13      14      14      13      14      14      13      14      14
      13      14      14      13      14      14      13      14      14      13
      14      14      13      14      14      13      14      14      13      14
      14      13      14      14      13      14      14      13      14      14
      13      14      14      13      14      14      13      14      14      13
      14      14      13      14      14      13      14      14      13      14
      14      13      14      14      13      14      14      13      14      14
      13      14      14      13      14      14      13      14      14      13
      14      14      13      14      14      13      14      14      13      14
      14      13      14      14      13      14      14      13      14      14
      13      14      14      13      14      14      13      14      14      13
      14      14      13      14      14      13      14      14      13      14
      14      13      14      14      13      14      14      13      14      14
      13      14      14      13      14      14      13      14      14      13
      14      14      13      14      14      13      14      14      13      14
      14      13      14      14      13      14      14      13      14      14
      13      14      14      13      14      14      13      14      14      13
      14      14      13      14      14      13      14      14      13      14
      14      13      14      14      13      14      14      13      14      14
      13      14      14      13      14      14      13      14      14      13
      14      14      13      14      14      13      14      14      13      14
      14      13      14      14      13      14      14      13      14      14
      13      14      14      13      14      14      13      14      14      13
      14      14      13      14      14      13      14      14      13      14
      14      13      14      14      13      14      14      13      14      14
      13      14      14      13      14      14      13      14      14      13
      14      14      13      14      14      13      14      14      13      14
      14      13      14      14      13      14      14      13      14      14
      13      14      14      13      14      14      13      14      14      13
      14      14      13      14      14      13      14      14      13      14
      14      13      14      14      13      14      14      13      14      14
      13      14      14      13      14      14      13      14      14      13
      14      14      13      14      14      13      14      14      13      14
      14      13      14      14      13      14      14      13      14      14
      13      14      14      13      14      14      13      14      14      13
      14      14      13      14      14      13      14      14      13      14
      14      13      14      14      13      14      14      13      14      14
      13      14      14      13      14      14      13      14      14      13
      14      14      13      14      14      13      14      14      13      14
      14      13      14      14      13      14      14      13      14      14
      13      14      14      13      14      14      13      14      14      13
      14      14      13      14      14      13      14      14      13      14
      14      13      14      14      13      14      14      13      14      14
      13      14      14      13      14      14      13      14      14      13
      14      14      13      14      14      13      14      14      13      14
      14      13      14      14      13      14      14      13      14      14
      13      14      14      13      14      14      13      14      14      13
      14      14      13      14      14      13      14      14      13      14
      14      13      14      14      13      14      14      13      14      14
      13      14      14      13      14      14      13      14      14      13
      14      14      13      14      14      13      14      14      13      14
      14      13      14      14      13      14      14      13      14      14
      13      14      14      13      14      14      13      14      14      13
      14      14      13      14      14      13      14      14      13      14
      14      13      14      14      13      14      14      13      14      14
      13      14      14      13      14      14      13      14      14      13
      14      14      13      14      14      13      14      14      13      14
      14      13      14      14      13      14      14      13      14      14
      13      14      14      13      14      14      13      14      14      13
      14      14      13      14      14      13      14      14      13      14
      14      13      14      14      13      14      14      13      14      14
      13      14      14      13      14      14      13      14      14      13
      14      14      13      14      14      13      14      14      13      14
      14      13      14      14      13      14      14      13      14      14
      13      14      14      13      14      14      13      14      14      13
      14      14      13      14      14      13      14      14      13      14
      14      13      14      14      13      14      14      13      14      14
      13      14      14      13      14      14      13      14      14      13
      14      14      13      14      14      13      14      14      13      14
      14      13      14      14      13      14      14      13      14      14
      13      14      14      13      14      14      13      14      14      13
      14      14      13      14      14      13      14      14      13      14
      14      13      14      14      13      14      14      13      14      14
      13      14      14      13      14      14      13      14      14      13
      14      14      13      14      14      13      14      14      13      14
      14      13      14      14      13      14      14      13      14      14
      13      14      14      13      14      14      13      14      14      13
      14      14      13      14      14      13      14      14      13      14
      14      13      14      14      13      14      14      13      14      14
      13      14      14      13      14      14      13      14      14      13
      14      14      13      14      14      13      14      14      13      14
      14      13      14      14      13      14      14      13      14      14
      13      14      14      13      14      14      13      14      14      13
      14      14      13      14      14      13      14      14      13      14
      14      13      14      14      13      14      14      13      14      14
      13      14      14      13      14      14      13      14      14      13
      14      14      13      14      14      13      14      14      13      14
      14      13      14      14      13      14      14      13      14      14
      13      14      14      13      14      14      13      14      14      13
      14      14      13      14      14      13      14      14      13      14
      14      13      14      14      13      14      14      13      14      14
      13      14      14      13      14      14      13      14      14      13
      14      14      13      14      14      13      14      14      13      14
      14      13      14      14      13      14      14      13      14      14
      13      14      14      13      14      14      13      14      14      13
      14      14      13      14      14      13      14      14      13      14
      14      13      14      14      13      14      14      13      14      14
      13      14      14      13      14      14      13      14      14      13
      14      14      13      14      14      13      14      14      13      14
      14      13      14      14      13      14      14      13      14      14
      13      14      14      13      14      14      13      14      14      13
      14      14      13      14      14      13      14      14      13      14
      14      13      14      14      13      14      14      13      14      14
      13      14      14      13      14      14      13      14      14      13
      14      14      13      14      14      13      14      14      13      14
      14      13      14      14      13      14      14      13      14      14
      13      14      14      13      14      14      13      14      14      13
      14      14      13      14      14      13      14      14      13      14
      14      13      14      14      13      14      14      13      14      14
      13      14      14      13      14      14      13      14      14      13
      14      14      13      14      14      13      14      14      13      14
      14      13      14      14      13      14      14      13      14      14
      13      14      14      13      14      14      13      14      14      13
      14      14      13      14      14      13      14      14      13      14
      14      13      14      14      13      14      14      13      14      14
      13      14      14      13      14      14      13      14      14      13
      14      14      13      14      14      13      14      14      13      14
      14      13      14      14      13      14      14      13      14      14
      13      14      14      13      14      14      13      14      14      13
      14      14      13      14      14      13      14      14      13      14
      14      13      14      14      13      14      14      13      14      14
      13      14      14      13      14      14      13      14      14      13
      14      14      13      14      14      13      14      14      13      14
      14      13      14      14      13      14      14      13      14      14
      13      14      14      13      14      14      13      14      14      13
      14      14      13      14      14      13      14      14      13      14
      14      13      14      14      13      14      14      13      14      14
      13      14      14      13      14      14      13      14      14      13
      14      14      13      14      14      13      14      14      13      14
      14      13      14      14      13      14      14      13      14      14
      13      14      14      13      14      14      13      14      14      13
      14      14      13      14      14      13      14      14      13      14
      14      13      14      14      13      14      14      13      14      14
      13      14      14      13      14      14      13      14      14      13
      14      14      13      14      14      13      14      14      13      14
      14      13      14      14      13      14      14      13      14      14
      13      14      14      13      14      14      13      14      14      13
      14      14      13      14      14      13      14      14      13      14
      14      13      14      14      13      14      14      13      14      14
      13      14      14      13      14      14      13      14      14      13
      14      14      13      14      14      13      14      14      13      14
      14      13      14      14      13      14      14      13      14      14
      13      14      14      13      14      14      13      14      14      13
      14      14      13      14      14      13      14      14      13      14
      14      13      14      14      13      14      14      13      14      14
      13      14      14      13      14      14      13      14      14      13
      14      14      13      14      14      13      14      14      13      14
      14      13      14      14      13      14      14      13      14      14
      13      14      14      13      14      14      13      14      14      13
      14      14      13      14      14      13      14      14      13      14
      14      13      14      14      13      14      14      13      14      14
      13      14      14      13      14      14      13      14      14      13
      14      14      13      14      14      13      14      14      13      14
      14      13      14      14      13      14      14      13      14      14
      13      14      14      13      14      14      13      14      14      13
      14      14      13      14      14      13      14      14      13      14
      14      13      14      14      13      14      14      13      14      14
      13      14      14      13      14      14      13      14      14      13
      14      14      13      14      14      13      14      14      13      14
      14      13      14      14      13      14      14      13      14      14
      13      14      14      13      14      14      13      14      14      13
      14      14      13      14      14      13      14      14      13      14
      14      13      14      14      13      14      14      13      14      14
      13      14      14      13      14      14      13      14      14      13
      14      14      13      14      14      13      14      14      13      14
      14      13      14      14      13      14      14      13      14      14
      13      14      14      13      14      14      13      14      14      13
      14      14      13      14      14      13      14      14      13      14
      14      13      14      14      13      14      14      13      14      14
      13      14      14      13      14      14      13      14      14      13
      14      14      13      14      14      13      14      14      13      14
      14      13      14      14      13      14      14      13      14      14
      13      14      14      13      14      14      13      14      14      13
      14      14      13      14      14      13      14      14      13      14
      14      13      14      14      13      14      14      13      14      14
      13      14      14      13      14      14      13      14      14      13
      14      14      13      14      14      13      14      14      13      14
      14      13      14      14      13      14      14      13      14      14
      13      14      14      13      14      14      13      14      14      13
      14      14      13      14      14      13      14      14      13      14
      14      13      14      14      13      14      14      13      14      14
      13      14      14      13      14      14      13      14      14      13
      14      14      13      14      14      13      14      14      13      14
      14      13      14      14      13      14      14      13      14      14
      13      14      14      13      14      14      13      14      14      13
      14      14      13      14      14      13      14      14      13      14
      14      13      14      14      13      14      14      13      14      14
      13      14      14      13      14      14      13      14      14      13
      14      14      13      14      14      13      14      14      13      14
      14      13      14      14      13      14      14      13      14      14
      13      14      14      13      14      14      13      14      14      13
      14      14      13      14      14      13      14      14      13      14
      14      13      14      14      13      14      14      13      14      14
      13      14      14      13      14      14      13      14      14      13
      14      14      13      14      14      13      14      14      13      14
      14      13      14      14      13      14      14      13      14      14
      13      14      14      13      14      14      13      14      14      13
      14      14      13      14      14      13      14      14      13      14
      14      13      14      14      13      14      14      13      14      14
      13      14      14      13      14      14      13      14      14      13
      14      14      13      14      14      13      14      14      13      14
      14      13      14      14      13      14      14      13      14      14
      13      14      14      13      14      14      13      14      14      13
      14      14      13      14      14      13      14      14      13      14
      14      13      14      14      13      14      14      13      14      14
      13      14      14      13      14      14      13      14      14      13
      14      14      13      14      14      13      14      14      13      14
      14      13      14      14      13      14      14      13      14      14
      13      14      14      13      14      14      13      14      14      13
      14      14      13      14      14      13      14      14      13      14
      14      13      14      14      13      14      14      13      14      14
      13      14      14      13      14      14      13      14      14      13
      14      14      13      14      14      13      14      14      13      14
      14      13      14      14      13      14      14      13      14      14
      13      14      14      13      14      14      13      14      14      13
      14      14      13      14      14      13      14      14      13      14
      14      13      14      14      13      14      14      13      14      14
      13      14      14      13      14      14      13      14      14      13
      14      14      13      14      14      13      14      14      13      14
      14      13      14      14      13      14      14      13      14      14
      13      14      14      13      14      14      13      14      14      13
      14      14      13      14      14      13      14      14      13      14
      14      13      14      14      13      14      14      13      14      14
      13      14      14      13      14      14      13      14      14      13
      14      14      13      14      14      13      14      14      13      14
      14      13      14      14      13      14      14      13      14      14
      13      14      14      13      14      14      13      14      14      13
      14      14      13      14      14      13      14      14      13      14
      14      13      14      14      13      14      14      13      14      14
      13      14      14      13      14      14      13      14      14      13
      14      14      13      14      14      13      14      14      13      14
      14      13      14      14      13      14      14      13      14      14
      13      14      14      13      14      14      13      14      14      13
      14      14      13      14      14      13      14      14      13      14
      14      13      14      14      13      14      14      13      14      14
      13      14      14      13      14      14      13      14      14      13
      14      14      13      14      14      13      14      14      13      14
      14      13      14      14      13      14      14      13      14      14
      13      14      14      13      14      14      13      14      14      13
      14      14      13      14      14      13      14      14      13      14
      14      13      14      14      13      14      14      13      14      14
      13      14      14      13      14      14      13      14      14      13
      14      14      13      14      14      13      14      14      13      14
      14      13      14      14      13      14      14      13      14      14
      13      14      14      13      14      14      13      14      14      13
      14      14      13      14      14      13      14      14      13      14
      14      13      14      14      13      14      14      13      14      14
      13      14      14      13      14      14      13      14      14      13
      14      14      13      14      14      13      14      14      13      14
      14      13      14      14      13      14      14      13      14      14
      13      14      14      13      14      14      13      14      14      13
      14      14      13      14      14      13      14      14      13      14
      14      13      14      14      13      14      14      13      14      14
      13      14      14      13      14      14      13      14      14      13
      14      14      13      14      14      13      14      14      13      14
      14      13      14      14      13      14      14      13      14      14
      13      14      14      13      14      14      13      14      14      13
      14      14      13      14      14      13      14      14      13      14
      14      13      14      14      13      14      14      13      14      14
      13      14      14      13      14      14      13      14      14      13
      14      14      13      14      14      13      14      14      13      14
      14      13      14      14      13      14      14      13      14      14
      13      14      14      13      14      14      13      14      14      13
      14      14      13      14      14      13      14      14      13      14
      14      13      14      14      13      14      14      13      14      14
      13      14      14      13      14      14      13      14      14      13
      14      14      13      14      14      13      14      14      13      14
      14      13      14      14      13      14      14      13      14      14
      13      14      14      13      14      14      13      14      14      13
      14      14      13      14      14      13      14      14      13      14
      14      13      14      14      13      14      14      13      14      14
      13      14      14      13      14      14      13      14      14      13
      14      14      13      14      14      13      14      14      13      14
      14      13      14      14      13      14      14      13      14      14
      13      14      14      13      14      14      13      14      14      13
      14      14      13      14      14      13      14      14      13      14
      14      13      14      14      13      14      14      13      14      14
      13      14      14      13      14      14      13      14      14      13
      14      14      13      14      14      13      14      14      13      14
      14      13      14      14      13      14      14      13      14      14
      13      14      14      13      14      14      13      14      14      13
      14      14      13      14      14      13      14      14      13      14
      14      13      14      14      13      14      14      13      14      14
      13      14      14      13      14      14      13      14      14      13
      14      14      13      14      14      13      14      14      13      14
      14      13      14      14      13      14      14      13      14      14
      13      14      14      13      14      14      13      14      14      13
      14      14      13      14      14      13      14      14      13      14
      14      13      14      14      13      14      14      13      14      14
      13      14      14      13      14      14      13      14      14      13
      14      14      13      14      14      13      14      14      13      14
      14      13      14      14      13      14      14      13      14      14
      13      14      14      13      14      14      13      14      14      13
      14      14      13      14      14      13      14      14      13      14
      14      13      14      14      13      14      14      13      14      14
      13      14      14      13      14      14      13      14      14      13
      14      14      13      14      14      13      14      14      13      14
      14      13      14      14      13      14      14      13      14      14
      13      14      14      13      14      14      13      14      14      13
      14      14      13      14      14      13      14      14      13      14
      14      13      14      14      13      14      14      13      14      14
      13      14      14      13      14      14      13      14      14      13
      14      14      13      14      14      13      14      14      13      14
      14      13      14      14      13      14      14      13      14      14
      13      14      14      13      14      14      13      14      14      13
      14      14      13      14      14      13      14      14      13      14
      14      13      14      14      13      14      14      13      14      14
      13      14      14      13      14      14      13      14      14      13
      14      14      13      14      14      13      14      14      13      14
      14      13      14      14      13      14      14      13      14      14
      13      14      14      13      14      14      13      14      14      13
      14      14      13      14      14      13      14      14      13      14
      14      13      14      14      13      14      14      13      14      14
      13      14      14      13      14      14      13      14      14      13
      14      14      13      14      14      13      14      14      13      14
      14      13      14      14      13      14      14      13      14      14
      13      14      14      13      14      14      13      14      14      13
      14      14      13      14      14      13      14      14      13      14
      14      13      14      14      13      14      14      13      14      14
      13      14      14      13      14      14      13      14      14      13
      14      14      13      14      14      13      14      14      13      14
      14      13      14      14      13      14      14      13      14      14
      13      14      14      13      14      14      13      14      14      13
      14      14      13      14      14      13      14      14      13      14
      14      13      14      14      13      14      14      13      14      14
      13      14      14      13      14      14      13      14      14      13
      14      14      13      14      14      13      14      14      13      14
      14      13      14      14      13      14      14      13      14      14
      13      14      14      13      14      14      13      14      14      13
      14      14      13      14      14      13      14      14      13      14
      14      13      14      14      13      14      14      13      14      14
      13      14      14      13      14      14      13      14      14      13
      14      14      13      14      14      13      14      14      13      14
      14      13      14      14      13      14      14      13      14      14
      13      14      14      13      14      14      13      14      14      13
      14      14      13      14      14      13      14      14      13      14
      14      13      14      14      13      14      14      13      14      14
      13      14      14      13      14      14      13      14      14      13
      14      14      13      14      14      13      14      14      13      14
      14      13      14      14      13      14      14      13      14      14
      13      14      14      13      14      14      13      14      14      13
      14      14      13      14      14      13      14      14      13      14
      14      13      14      14      13      14      14      13      14      14
      13      14      14      13      14      14      13      14      14      13
      14      14      13      14      14      13      14      14      13      14
      14      13      14      14      13      14      14      13      14      14
      13      14      14      13      14      14      13      14      14      13
      14      14      13      14      14      13      14      14      13      14
      14      13      14      14      13      14      14      13      14      14
      13      14      14      13      14      14      13      14      14      13
      14      14      13      14      14      13      14      14      13      14
      14      13      14      14      13      14      14      13      14      14
      13      14      14      13      14      14      13      14      14      13
      14      14      13      14      14      13      14      14      13      14
      14      13      14      14      13      14      14      13      14      14
      13      14      14      13      14      14      13      14      14      13
      14      14      13      14      14      13      14      14      13      14
      14      13      14      14      13      14      14      13      14      14
      13      14      14      13      14      14      13      14      14      13
      14      14      13      14      14      13      14      14      13      14
      14      13      14      14      13      14      14      13      14      14
      13      14      14      13      14      14      13      14      14      13
      14      14      13      14      14      13      14      14      13      14
      14      13      14      14      13      14      14      13      14      14
      13      14      14      13      14      14      13      14      14      13
      14      14      13      14      14      13      14      14      13      14
      14      13      14      14      13      14      14      13      14      14
      13      14      14      13      14      14      13      14      14      13
      14      14      13      14      14      13      14      14      13      14
      14      13      14      14      13      14      14      13      14      14
      13      14      14      13      14      14      13      14      14      13
      14      14      13      14      14      13      14      14      13      14
      14      13      14      14      13      14      14      13      14      14
      13      14      14      13      14      14      13      14      14      13
      14      14      13      14      14      13      14      14      13      14
      14      13      14      14      13      14      14      13      14      14
      13      14      14      13      14      14      13      14      14      13
      14      14      13      14      14      13      14      14      13      14
      14      13      14      14      13      14      14      13      14      14
      13      14      14      13      14      14      13      14      14      13
      14      14      13      14      14      13      14      14      13      14
      14      13      14      14      13      14      14      13      14      14
      13      14      14      13      14      14      13      14      14      13
      14      14      13      14      14      13      14      14      13      14
      14      13      14      14      13      14      14      13      14      14
      13      14      14      13      14      14      13      14      14      13
      14      14      13      14      14      13      14      14      13      14
      14      13      14      14      13      14      14      13      14      14
      13      14      14      13      14      14      13      14      14      13
      14      14      13      14      14      13      14      14      13      14
      14      13      14      14      13      14      14      13      14      14
      13      14      14      13      14      14      13      14      14      13
      14      14      13      14      14      13      14      14      13      14
      14      13      14      14      13      14      14      13      14      14
      13      14      14      13      14      14      13      14      14      13
      14      14      13      14      14      13      14      14      13      14
      14      13      14      14      13      14      14      13      14      14
      13      14      14      13      14      14      13      14      14      13
      14      14      13      14      14      13      14      14      13      14
      14      13      14      14      13      14      14      13      14      14
      13      14      14      13      14      14      13      14      14      13
      14      14      13      14      14      13      14      14      13      14
      14      13      14      14      13      14      14      13      14      14
      13      14      14      13      14      14      13      14      14      13
      14      14      13      14      14      13      14      14      13      14
      14      13      14      14      13      14      14      13      14      14
      13      14      14      13      14      14      13      14      14      13
      14      14      13      14      14      13      14      14      13      14
      14      13      14      14      13      14      14      13      14      14
      13      14      14      13      14      14      13      14      14      13
      14      14      13      14      14      13      14      14      13      14
      14      13      14      14      13      14      14      13      14      14
      13      14      14      13      14      14      13      14      14      13
      14      14      13      14      14      13      14      14      13      14
      14      13      14      14      13      14      14      13      14      14
      13      14      14      13      14      14      13      14      14      13
      14      14      13      14      14      13      14      14      13      14
      14      13      14      14      13      14      14      13      14      14
      13      14      14      13      14      14      13      14      14      13
      14      14      13      14      14      13      14      14      13      14
      14      13      14      14      13      14      14      13      14      14
      13      14      14      13      14      14      13      14      14      13
      14      14      13      14      14      13      14      14      13      14
      14      13      14      14      13      14      14      13      14      14
      13      14      14      13      14      14      13      14      14      13
      14      14      13      14      14      13      14      14      13      14
      14      13      14      14      13      14      14      13      14      14
      13      14      14      13      14      14      13      14      14      13
      14      14      13      14      14      13      14      14      13      14
      14      13      14      14      13      14      14      13      14      14
      13      14      14      13      14      14      13      14      14      13
      14      14      13      14      14      13      14      14      13      14
      14      13      14      14      13      14      14      13      14      14
      13      14      14      13      14      14      13      14      14      13
      14      14      13      14      14      13      14      14      13      14
      14      13      14      14      13      14      14      13      14      14
      13      14      14      13      14      14      13      14      14      13
      14      14      13      14      14      13      14      14      13      14
      14      13      14      14      13      14      14      13      14      14
      13      14      14      13      14      14      13      14      14      13
      14      14      13      14      14      13      14      14      13      14
      14      13      14      14      13      14      14      13      14      14
      13      14      14      13      14      14      13      14      14      13
      14      14      13      14      14      13      14      14      13      14
      14      13      14      14      13      14      14      13      14      14
      13      14      14      13      14      14      13      14      14      13
      14      14      13      14      14      13      14      14      13      14
      14      13      14      14      13      14      14      13      14      14
      13      14      14      13      14      14      13      14      14      13
      14      14      13      14      14      13      14      14      13      14
      14      13      14      14      13      14      14      13      14      14
      13      14      14      13      14      14      13      14      14      13
      14      14      13      14      14      13      14      14      13      14
      14      13      14      14      13      14      14      13      14      14
      13      14      14      13      14      14      13      14      14      13
      14      14      13      14      14      13      14      14      13      14
      14      13      14      14      13      14      14      13      14      14
      13      14      14      13      14      14      13      14      14      13
      14      14      13      14      14      13      14      14      13      14
      14      13      14      14      13      14      14      13      14      14
      13      14      14      13      14      14      13      14      14      13
      14      14      13      14      14      13      14      14      13      14
      14      13      14      14      13      14      14      13      14      14
      13      14      14      13      14      14      13      14      14      13
      14      14      13      14      14      13      14      14      13      14
      14      13      14      14      13      14      14      13      14      14
      13      14      14      13      14      14      13      14      14      13
      14      14      13      14      14      13      14      14      13      14
      14      13      14      14      13      14      14      13      14      14
      13      14      14      13      14      14      13      14      14      13
      14      14      13      14      14      13      14      14      13      14
      14      13      14      14      13      14      14      13      14      14
      13      14      14      13      14      14      13      14      14      13
      14      14      13      14      14      13      14      14      13      14
      14      13      14      14      13      14      14      13      14      14
      13      14      14      13      14      14      13      14      14      13
      14      14      13      14      14      13      14      14      13      14
      14      13      14      14      13      14      14      13      14      14
      13      14      14      13      14      14      13      14      14      13
      14      14      13      14      14      13      14      14      13      14
      14      13      14      14      13      14      14      13      14      14
      13      14      14      13      14      14      13      14      14      13
      14      14      13      14      14      13      14      14      13      14
      14      13      14      14      13      14      14      13      14      14
      13      14      14      13      14      14      13      14      14      13
      14      14      13      14      14      13      14      14      13      14
      14      13      14      14      13      14      14      13      14      14
      13      14      14      13      14      14      13      14      14      13
      14      14      13      14      14      13      14      14      13      14
      14      13      14      14      13      14      14      13      14      14
      13      14      14      13      14      14      13      14      14      13
      14      14      13      14      14      13      14      14      13      14
      14      13      14      14      13      14      14      13      14      14
      13      14      14      13      14      14      13      14      14      13
      14      14      13      14      14      13      14      14      13      14
      14      13      14      14      13      14      14      13      14      14
      13      14      14      13      14      14      13      14      14      13
      14      14      13      14      14      13      14      14      13      14
      14      13      14      14      13      14      14      13      14      14
      13      14      14      13      14      14      13      14      14      13
      14      14      13      14      14      13      14      14      13      14
      14      13      14      14      13      14      14      13      14      14
      13      14      14      13      14      14      13      14      14      13
      14      14      13      14      14      13      14      14      13      14
      14      13      14      14      13      14      14      13      14      14
      13      14      14      13      14      14      13      14      14      13
      14      14      13      14      14      13      14      14      13      14
      14      13      14      14      13      14      14      13      14      14
      13      14      14      13      14      14      13      14      14      13
      14      14      13      14      14      13      14      14      13      14
      14      13      14      14      13      14      14      13      14      14
      13      14      14      13      14      14      13      14      14      13
      14      14      13      14      14      13      14      14      13      14
      14      13      14      14      13      14      14      13      14      14
      13      14      14      13      14      14      13      14      14      13
      14      14      13      14      14      13      14      14      13      14
      14      13      14      14      13      14      14      13      14      14
      13      14      14      13      14      14      13      14      14      13
      14      14      13      14      14      13      14      14      13      14
      14      13      14      14      13      14      14      13      14      14
      13      14      14      13      14      14      13      14      14      13
      14      14      13      14      14      13      14      14      13      14
      14      13      14      14      13      14      14      13      14      14
      13      14      14      13      14      14      13      14      14      13
      14      14      13      14      14      13      14      14      13      14
      14      13      14      14      13      14      14      13      14      14
      13      14      14      13      14      14      13      14      14      13
      14      14      13      14      14      13      14      14      13      14
      14      13      14      14      13      14      14      13      14      14
      13      14      14      13      14      14      13      14      14      13
      14      14      13      14      14      13      14      14      13      14
      14      13      14      14      13      14      14      13      14      14
      13      14      14      13      14      14      13      14      14      13
      14      14      13      14      14      13      14      14      13      14
      14      13      14      14      13      14      14      13      14      14
      13      14      14      13      14      14      13      14      14      13
      14      14      13      14      14      13      14      14      13      14
      14      13      14      14      13      14      14      13      14      14
      13      14      14      13      14      14      13      14      14      13
      14      14      13      14      14      13      14      14      13      14
      14      13      14      14      13      14      14      13      14      14
      13      14      14      13      14      14      13      14      14      13
      14      14      13      14      14      13      14      14      13      14
      14      13      14      14      13      14      14      13      14      14
      13      14      14      13      14      14      13      14      14      13
      14      14      13      14      14      13      14      14      13      14
      14      13      14      14      13      14      14      13      14      14
      13      14      14      13      14      14      13      14      14      13
      14      14      13      14      14      13      14      14      13      14
      14      13      14      14      13      14      14      13      14      14
      13      14      14      13      14      14      13      14      14      13
      14      14      13      14      14      13      14      14      13      14
      14      13      14      14      13      14      14      13      14      14
      13      14      14      13      14      14      13      14      14      13
      14      14      13      14      14      13      14      14      13      14
      14      13      14      14      13      14      14      13      14      14
      13      14      14      13      14      14      13      14      14      13
      14      14      13      14      14      13      14      14      13      14
      14      13      14      14      13      14      14      13      14      14
      13      14      14      13      14      14      13      14      14      13
      14      14      13      14      14      13      14      14      13      14
      14      13      14      14      13      14      14      13      14      14
      13      14      14      13      14      14      13      14      14      13
      14      14      13      14      14      13      14      14      13      14
      14      13      14      14      13      14      14      13      14      14
      13      14      14      13      14      14      13      14      14      13
      14      14      13      14      14      13      14      14      13      14
      14      13      14      14      13      14      14      13      14      14
      13      14      14      13      14      14      13      14      14      13
      14      14      13      14      14      13      14      14      13      14
      14      13      14      14      13      14      14      13      14      14
      13      14      14      13      14      14      13      14      14      13
      14      14      13      14      14      13      14      14      13      14
      14      13      14      14      13      14      14      13      14      14
      13      14      14      13      14      14      13      14      14      13
      14      14      13      14      14      13      14      14      13      14
      14      13      14      14      13      14      14      13      14      14
      13      14      14      13      14      14      13      14      14      13
      14      14      13      14      14      13      14      14      13      14
      14      13      14      14      13      14      14      13      14      14
      13      14      14      13      14      14      13      14      14      13
      14      14      13      14      14      13      14      14      13      14
      14      13      14      14      13      14      14      13      14      14
      13      14      14      13      14      14      13      14      14      13
      14      14      13      14      14      13      14      14      13      14
      14      13      14      14      13      14      14      13      14      14
      13      14      14      13      14      14      13      14      14      13
      14      14      13      14      14      13      14      14      13      14
      14      13      14      14      13      14      14      13      14      14
      13      14      14      13      14      14      13      14      14      13
      14      14      13      14      14      13      14      14      13      14
      14      13      14      14      13      14      14      13      14      14
      13      14      14      13      14      14      13      14      14      13
      14      14      13      14      14      13      14      14      13      14
      14      13      14      14      13      14      14      13      14      14
      13      14      14      13      14      14      13      14      14      13
      14      14      13      14      14      13      14      14      13      14
      14      13      14      14      13      14      14      13      14      14
      13      14      14      13      14      14      13      14      14      13
      14      14      13      14      14      13      14      14      13      14
      14      13      14      14      13      14      14      13      14      14
      13      14      14      13      14      14      13      14      14      13
      14      14      13      14      14      13      14      14      13      14
      14      13      14      14      13      14      14      13      14      14
      13      14      14      13      14      14      13      14      14      13
      14      14      13      14      14      13      14      14      13      14
      14      13      14      14      13      14      14      13      14      14
      13      14      14      13      14      14      13      14      14      13
      14      14      13      14      14      13      14      14      13      14
      14      13      14      14      13      14      14      13      14      14
      13      14      14      13      14      14      13      14      14      13
      14      14      13      14      14      13      14      14      13      14
      14      13      14      14      13      14      14      13      14      14
      13      14      14      13      14      14      13      14      14      13
      14      14      13      14      14      13      14      14      13      14
      14      13      14      14      13      14      14      13      14      14
      13      14      14      13      14      14      13      14      14      13
      14      14      13      14      14      13      14      14      13      14
      14      13      14      14      13      14      14      13      14      14
      13      14      14      13      14      14      13      14      14      13
      14      14      13      14      14      13      14      14      13      14
      14      13      14      14      13      14      14      13      14      14
      13      14      14      13      14      14      13      14      14      13
      14      14      13      14      14      13      14      14      13      14
      14      13      14      14      13      14      14      13      14      14
      13      14      14      13      14      14      13      14      14      13
      14      14      13      14      14      13      14      14      13      14
      14      13      14      14      13      14      14      13      14      14
      13      14      14      13      14      14      13      14      14      13
      14      14      13      14      14      13      14      14      13      14
      14      13      14      14      13      14      14      13      14      14
      13      14      14      13      14      14      13      14      14      13
      14      14      13      14      14      13      14      14      13      14
      14      13      14      14      13      14      14      13      14      14
      13      14      14      13      14      14      13      14      14      13
      14      14      13      14      14      13      14      14      13      14
      14      13      14      14      13      14      14      13      14      14
      13      14      14      13      14      14      13      14      14      13
      14      14      13      14      14      13      14      14      13      14
      14      13      14      14      13      14      14      13      14      14
      13      14      14      13      14      14      13      14      14      13
      14      14      13      14      14      13      14      14      13      14
      14      13      14      14      13      14      14      13      14      14
      13      14      14      13      14      14      13      14      14      13
      14      14      13      14      14      13      14      14      13      14
      14      13      14      14      13      14      14      13      14      14
      13      14      14      13      14      14      13      14      14      13
      14      14      13      14      14      13      14      14      13      14
      14      13      14      14      13      14      14      13      14      14
      13      14      14      13      14      14      13      14      14      13
      14      14      13      14      14      13      14      14      13      14
      14      13      14      14      13      14      14      13      14      14
      13      14      14      13      14      14      13      14      14      13
      14      14      13      14      14      13      14      14      13      14
      14      13      14      14      13      14      14      13      14      14
      13      14      14      13      14      14      13      14      14      13
      14      14      13      14      14      13      14      14      13      14
      14      13      14      14      13      14      14      13      14      14
      13      14      14      13      14      14      13      14      14      13
      14      14      13      14      14      13      14      14      13      14
      14      13      14      14      13      14      14      13      14      14
      13      14      14      13      14      14      13      14      14      13
      14      14      13      14      14      13      14      14      13      14
      14      13      14      14      13      14      14      13      14      14
      13      14      14      13      14      14      13      14      14      13
      14      14      13      14      14      13      14      14      13      14
      14      13      14      14      13      14      14      13      14      14
      13      14      14      13      14      14      13      14      14      13
      14      14      13      14      14      13      14      14      13      14
      14      13      14      14      13      14      14      13      14      14
      13      14      14      13      14      14      13      14      14      13
      14      14      13      14      14      13      14      14      13      14
      14      13      14      14      13      14      14      13      14      14
      13      14      14      13      14      14      13      14      14      13
      14      14      13      14      14      13      14      14      13      14
      14      13      14      14      13      14      14      13      14      14
      13      14      14      13      14      14      13      14      14      13
      14      14      13      14      14      13      14      14      13      14
      14      13      14      14      13      14      14      13      14      14
      13      14      14      13      14      14      13      14      14      13
      14      14      13      14      14      13      14      14      13      14
      14      13      14      14      13      14      14      13      14      14
      13      14      14      13      14      14      13      14      14      13
      14      14      13      14      14      13      14      14      13      14
      14      13      14      14      13      14      14      13      14      14
      13      14      14      13      14      14      13      14      14      13
      14      14      13      14      14      13      14      14      13      14
      14      13      14      14      13      14      14      13      14      14
      13      14      14      13      14      14      13      14      14      13
      14      14      13      14      14      13      14      14      13      14
      14      13      14      14      13      14      14      13      14      14
      13      14      14      13      14      14      13      14      14      13
      14      14      13      14      14      13      14      14      13      14
      14      13      14      14      13      14      14      13      14      14
      13      14      14      13      14      14      13      14      14      13
      14      14      13      14      14      13      14      14      13      14
      14      13      14      14      13      14      14      13      14      14
      13      14      14      13      14      14      13      14      14      13
      14      14      13      14      14      13      14      14      13      14
      14      13      14      14      13      14      14      13      14      14
      13      14      14      13      14      14      13      14      14      13
      14      14      13      14      14      13      14      14      13      14
      14      13      14      14      13      14      14      13      14      14
      13      14      14      13      14      14      13      14      14      13
      14      14      13      14      14      13      14      14      13      14
      14      13      14      14      13      14      14      13      14      14
      13      14      14      13      14      14      13      14      14      13
      14      14      13      14      14      13      14      14      13      14
      14      13      14      14      13      14      14      13      14      14
      13      14      14      13      14      14      13      14      14      13
      14      14      13      14      14      13      14      14      13      14
      14      13      14      14      13      14      14      13      14      14
      13      14      14      13      14      14      13      14      14      13
      14      14      13      14      14      13      14      14      13      14
      14      13      14      14      13      14      14      13      14      14
      13      14      14      13      14      14      13      14      14      13
      14      14      13      14      14      13      14      14      13      14
      14      13      14      14      13      14      14      13      14      14
      13      14      14      13      14      14      13      14      14      13
      14      14      13      14      14      13      14      14      13      14
      14      13      14      14      13      14      14      13      14      14
      13      14      14      13      14      14      13      14      14      13
      14      14      13      14      14      13      14      14      13      14
      14      13      14      14      13      14      14      13      14      14
      13      14      14      13      14      14      13      14      14      13
      14      14      13      14      14      13      14      14      13      14
      14      13      14      14      13      14      14      13      14      14
      13      14      14      13      14      14      13      14      14      13
      14      14      13      14      14      13      14      14      13      14
      14      13      14      14      13      14      14      13      14      14
      13      14      14      13      14      14      13      14      14      13
      14      14      13      14      14      13      14      14      13      14
      14      13      14      14      13      14      14      13      14      14
      13      14      14      13      14      14      13      14      14      13
      14      14      13      14      14      13      14      14      13      14
      14      13      14      14      13      14      14      13      14      14
      13      14      14      13      14      14      13      14      14      13
      14      14      13      14      14      13      14      14      13      14
      14      13      14      14      13      14      14      13      14      14
      13      14      14      13      14      14      13      14      14      13
      14      14      13      14      14      13      14      14      13      14
      14      13      14      14      13      14      14      13      14      14
      13      14      14      13      14      14      13      14      14      13
      14      14      13      14      14      13      14      14      13      14
      14      13      14      14      13      14      14      13      14      14
      13      14      14      13      14      14      13      14      14      13
      14      14      13      14      14      13      14      14      13      14
      14      13      14      14      13      14      14      13      14      14
      13      14      14      13      14      14      13      14      14      13
      14      14      13      14      14      13      14      14      13      14
      14      13      14      14      13      14      14      13      14      14
      13      14      14      13      14      14      13      14      14      13
      14      14      13      14      14      13      14      14      13      14
      14      13      14      14      13      14      14      13      14      14
      13      14      14      13      14      14      13      14      14      13
      14      14      13      14      14      13      14      14      13      14
      14      13      14      14      13      14      14      13      14      14
      13      14      14      13      14      14      13      14      14      13
      14      14      13      14      14      13      14      14      13      14
      14      13      14      14      13      14      14      13      14      14
      13      14      14      13      14      14      13      14      14      13
      14      14      13      14      14      13      14      14      13      14
      14      13      14      14      13      14      14      13      14      14
      13      14      14      13      14      14      13      14      14      13
      14      14      13      14      14      13      14      14      13      14
      14      13      14      14      13      14      14      13      14      14
      13      14      14      13      14      14      13      14      14      13
      14      14      13      14      14      13      14      14      13      14
      14      13      14      14      13      14      14      13      14      14
      13      14      14      13      14      14      13      14      14      13
      14      14      13      14      14      13      14      14      13      14
      14      13      14      14      13      14      14      13      14      14
      13      14      14      13      14      14      13      14      14      13
      14      14      13      14      14      13      14      14      13      14
      14      13      14      14      13      14      14      13      14      14
      13      14      14      13      14      14      13      14      14      13
      14      14      13      14      14      13      14      14      13      14
      14      13      14      14      13      14      14      13      14      14
      13      14      14      13      14      14      13      14      14      13
      14      14      13      14      14      13      14      14      13      14
      14      13      14      14      13      14      14      13      14      14
      13      14      14      13      14      14      13      14      14      13
      14      14      13      14      14      13      14      14      13      14
      14      13      14      14      13      14      14      13      14      14
      13      14      14      13      14      14      13      14      14      13
      14      14      13      14      14      13      14      14      13      14
      14      13      14      14      13      14      14      13      14      14
      13      14      14      13      14      14      13      14      14      13
      14      14      13      14      14      13      14      14      13      14
      14      13      14      14      13      14      14      13      14      14
      13      14      14      13      14      14      13      14      14      13
      14      14      13      14      14      13      14      14      13      14
      14      13      14      14      13      14      14      13      14      14
      13      14      14      13      14      14      13      14      14      13
      14      14      13      14      14      13      14      14      13      14
      14      13      14      14      13      14      14      13      14      14
      13      14      14      13      14      14      13      14      14      13
      14      14      13      14      14      13      14      14      13      14
      14      13      14      14      13      14      14      13      14      14
      13      14      14      13      14      14      13      14      14      13
      14      14      13      14      14      13      14      14      13      14
      14      13      14      14      13      14      14      13      14      14
      13      14      14      13      14      14      13      14      14      13
      14      14      13      14      14      13      14      14      13      14
      14      13      14      14      13      14      14      13      14      14
      13      14      14      13      14      14      13      14      14      13
      14      14      13      14      14      13      14      14      13      14
      14      13      14      14      13      14      14      13      14      14
      13      14      14      13      14      14      13      14      14      13
      14      14      13      14      14      13      14      14      13      14
      14      13      14      14      13      14      14      13      14      14
      13      14      14      13      14      14      13      14      14      13
      14      14      13      14      14      13      14      14      13      14
      14      13      14      14      13      14      14      13      14      14
      13      14      14      13      14      14      13      14      14      13
      14      14      13      14      14      13      14      14      13      14
      14      13      14      14      13      14      14      13      14      14
      13      14      14      13      14      14      13      14      14      13
      14      14      13      14      14      13      14      14      13      14
      14      13      14      14      13      14      14      13      14      14
      13      14      14      13      14      14      13      14      14      13
      14      14      13      14      14      13      14      14      13      14
      14      13      14      14      13      14      14      13      14      14
      13      14      14      13      14      14      13      14      14      13
      14      14      13      14      14      13      14      14      13      14
      14      13      14      14      13      14      14      13      14      14
      13      14      14      13      14      14      13      14      14      13
      14      14      13      14      14      13      14      14      13      14
      14      13      14      14      13      14      14      13      14      14
      13      14      14      13      14      14      13      14      14      13
      14      14      13      14      14      13      14      14      13      14
      14      13      14      14      13      14      14      13      14      14
      13      14      14      13      14      14      13      14      14      13
      14      14      13      14      14      13      14      14      13      14
      14      13      14      14      13      14      14      13      14      14
      13      14      14      13      14      14      13      14      14      13
      14      14      13      14      14      13      14      14      13      14
      14      13      14      14      13      14      14      13      14      14
      13      14      14      13      14      14      13      14      14      13
      14      14      13      14      14      13      14      14      13      14
      14      13      14      14      13      14      14      13      14      14
      13      14      14      13      14      14      13      14      14      13
      14      14      13      14      14      13      14      14      13      14
      14      13      14      14      13      14      14      13      14      14
      13      14      14      13      14      14      13      14      14      13
      14      14      13      14      14      13      14      14      13      14
      14      13      14      14      13      14      14      13      14      14
      13      14      14      13      14      14      13      14      14      13
      14      14      13      14      14      13      14      14      13      14
      14      13      14      14      13      14      14      13      14      14
      13      14      14      13      14      14      13      14      14      13
      14      14      13      14      14      13      14      14      13      14
      14      13      14      14      13      14      14      13      14      14
      13      14      14      13      14      14      13      14      14      13
      14      14      13      14      14      13      14      14      13      14
      14      13      14      14      13      14      14      13      14      14
      13      14      14      13      14      14      13      14      14      13
      14      14      13      14      14      13      14      14      13      14
      14      13      14      14      13      14      14      13      14      14
      13      14      14      13      14      14      13      14      14      13
      14      14      13      14      14      13      14      14      13      14
      14      13      14      14      13      14      14      13      14      14
      13      14      14      13      14      14      13      14      14      13
      14      14      13      14      14      13      14      14      13      14
      14      13      14      14      13      14      14      13      14      14
      13      14      14      13      14      14      13      14      14      13
      14      14      13      14      14      13      14      14      13      14
      14      13      14      14      13      14      14      13      14      14
      13      14      14      13      14      14      13      14      14      13
      14      14      13      14      14      13      14      14      13      14
      14      13      14      14      13      14      14      13      14      14
      13      14      14      13      14      14      13      14      14      13
      14      14      13      14      14      13      14      14      13      14
      14      13      14      14      13      14      14      13      14      14
      13      14      14      13      14      14      13      14      14      13
      14      14      13      14      14      13      14      14      13      14
      14      13      14      14      13      14      14      13      14      14
      13      14      14      13      14      14      13      14      14      13
      14      14      13      14      14      13      14      14      13      14
      14      13      14      14      13      14      14      13      14      14
      13      14      14      13      14      14      13      14      14      13
      14      14      13      14      14      13      14      14      13      14
      14      13      14      14      13      14      14      13      14      14
      13      14      14      13      14      14      13      14      14      13
      14      14      13      14      14      13      14      14      13      14
      14      13      14      14      13      14      14      13      14      14
      13      14      14      13      14      14      13      14      14      13
      14      14      13      14      14      13      14      14      13      14
      14      13      14      14      13      14      14      13      14      14
      13      14      14      13      14      14      13      14      14      13
      14      14      13      14      14      13      14      14      13      14
      14      13      14      14      13      14      14      13      14      14
      13      14      14      13      14      14      13      14      14      13
      14      14      13      14      14      13      14      14      13      14
      14      13      14      14      13      14      14      13      14      14
      13      14      14      13      14      14      13      14      14      13
      14      14      13      14      14      13      14      14      13      14
      14      13      14      14      13      14      14      13      14      14
      13      14      14      13      14      14      13      14      14      13
      14      14      13      14      14      13      14      14      13      14
      14      13      14      14      13      14      14      13      14      14
      13      14      14      13      14      14      13      14      14      13
      14      14      13      14      14      13      14      14      13      14
      14      13      14      14      13      14      14      13      14      14
      13      14      14      13      14      14      13      14      14      13
      14      14      13      14      14      13      14      14      13      14
      14      13      14      14      13      14      14      13      14      14
      13      14      14      13      14      14      13      14      14      13
      14      14      13      14      14      13      14      14      13      14
      14      13      14      14      13      14      14      13      14      14
      13      14      14      13      14      14      13      14      14      13
      14      14      13      14      14      13      14      14      13      14
      14      13      14      14      13      14      14      13      14      14
      13      14      14      13      14      14      13      14      14      13
      14      14      13      14      14      13      14      14      13      14
      14      13      14      14      13      14      14      13      14      14
      13      14      14      13      14      14      13      14      14      13
      14      14      13      14      14      13      14      14      13      14
      14      13      14      14      13      14      14      13      14      14
      13      14      14      13      14      14      13      14      14      13
      14      14      13      14      14      13      14      14      13      14
      14      13      14      14      13      14      14      13      14      14
      13      14      14      13      14      14      13      14      14      13
      14      14      13      14      14      13      14      14      13      14
      14      13      14      14      13      14      14      13      14      14
      13      14      14      13      14      14      13      14      14      13
      14      14      13      14      14      13      14      14      13      14
      14      13      14      14      13      14      14      13      14      14
      13      14      14      13      14      14      13      14      14      13
      14      14      13      14      14      13      14      14      13      14
      14      13      14      14      13      14      14      13      14      14
      13      14      14      13      14      14      13      14      14      13
      14      14      13      14      14      13      14      14      13      14
      14      13      14      14      13      14      14      13      14      14
      13      14      14      13      14      14      13      14      14      13
      14      14      13      14      14      13      14      14      13      14
      14      13      14      14      13      14      14      13      14      14
      13      14      14      13      14      14      13      14      14      13
      14      14      13      14      14      13      14      14      13      14
      14      13      14      14      13      14      14      13      14      14
      13      14      14      13      14      14      13      14      14      13
      14      14      13      14      14      13      14      14      13      14
      14      13      14      14      13      14      14      13      14      14
      13      14      14      13      14      14      13      14      14      13
      14      14      13      14      14      13      14      14      13      14
      14      13      14      14      13      14      14      13      14      14
      13      14      14      13      14      14      13      14      14      13
      14      14      13      14      14      13      14      14      13      14
      14      13      14      14      13      14      14      13      14      14
      13      14      14      13      14      14      13      14      14      13
      14      14      13      14      14      13      14      14      13      14
      14      13      14      14      13      14      14      13      14      14
      13      14      14      13      14      14      13      14      14      13
      14      14      13      14      14      13      14      14      13      14
      14      13      14      14      13      14      14      13      14      14
      13      14      14      13      14      14      13      14      14      13
      14      14      13      14      14      13      14      14      13      14
      14      13      14      14      13      14      14      13      14      14
      13      14      14      13      14      14      13      14      14      13
      14      14      13      14      14      13      14      14      13      14
      14      13      14      14      13      14      14      13      14      14
      13      14      14      13      14      14      13      14      14      13
      14      14      13      14      14      13      14      14      13      14
      14      13      14      14      13      14      14      13      14      14
      13      14      14      13      14      14      13      14      14      13
      14      14      13      14      14      13      14      14      13      14
      14      13      14      14      13      14      14      13      14      14
      13      14      14      13      14      14      13      14      14      13
      14      14      13      14      14      13      14      14      13      14
      14      13      14      14      13      14      14      13      14      14
      13      14      14      13      14      14      13      14      14      13
      14      14      13      14      14      13      14      14      13      14
      14      13      14      14      13      14      14      13      14      14
      13      14      14      13      14      14      13      14      14      13
      14      14      13      14      14      13      14      14      13      14
      14      13      14      14      13      14      14      13      14      14
      13      14      14      13      14      14      13      14      14      13
      14      14      13      14      14      13      14      14      13      14
      14      13      14      14      13      14      14      13      14      14
      13      14      14      13      14      14      13      14      14      13
      14      14      13      14      14      13      14      14      13      14
      14      13      14      14      13      14      14      13      14      14
      13      14      14      13      14      14      13      14      14      13
      14      14      13      14      14      13      14      14      13      14
      14      13      14      14      13      14      14      13      14      14
      13      14      14      13      14      14      13      14      14      13
      14      14      13      14      14      13      14      14      13      14
      14      13      14      14      13      14      14      13      14      14
      13      14      14      13      14      14      13      14      14      13
      14      14      13      14      14      13      14      14      13      14
      14      13      14      14      13      14      14      13      14      14
      13      14      14      13      14      14      13      14      14      13
      14      14      13      14      14      13      14      14      13      14
      14      13      14      14      13      14      14      13      14      14
      13      14      14      13      14      14      13      14      14      13
      14      14      13      14      14      13      14      14      13      14
      14      13      14      14      13      14      14      13      14      14
      13      14      14      13      14      14      13      14      14      13
      14      14      13      14      14      13      14      14      13      14
      14      13      14      14      13      14      14      13      14      14
      13      14      14      13      14      14      13      14      14      13
      14      14      13      14      14      13      14      14      13      14
      14      13      14      14      13      14      14      13      14      14
      13      14      14      13      14      14      13      14      14      13
      14      14      13      14      14      13      14      14      13      14
      14      13      14      14      13      14      14      13      14      14
      13      14      14      13      14      14      13      14      14      13
      14      14      13      14      14      13      14      14      13      14
      14      13      14      14      13      14      14      13      14      14
      13      14      14      13      14      14      13      14      14      13
      14      14      13      14      14      13      14      14      13      14
      14      13      14      14      13      14      14      13      14      14
      13      14      14      13      14      14      13      14      14      13
      14      14      13      14      14      13      14      14      13      14
      14      13      14      14      13      14      14      13      14      14
      13      14      14      13      14      14      13      14      14      13
      14      14      13      14      14      13      14      14      13      14
      14      13      14      14      13      14      14      13      14      14
      13      14      14      13      14      14      13      14      14      13
      14      14      13      14      14      13      14      14      13      14
      14      13      14      14      13      14      14      13      14      14
      13      14      14      13      14      14      13      14      14      13
      14      14      13      14      14      13      14      14      13      14
      14      13      14      14      13      14      14      13      14      14
      13      14      14      13      14      14      13      14      14      13
      14      14      13      14      14      13      14      14      13      14
      14      13      14      14      13      14      14      13      14      14
      13      14      14      13      14      14      13      14      14      13
      14      14      13      14      14      13      14      14      13      14
      14      13      14      14      13      14      14      13      14      14
      13      14      14      13      14      14      13      14      14      13
      14      14      13      14      14      13      14      14      13      14
      14      13      14      14      13      14      14      13      14      14
      13      14      14      13      14      14      13      14      14      13
      14      14      13      14      14      13      14      14      13      14
      14      13      14      14      13      14      14      13      14      14
      13      14      14      13      14      14      13      14      14      13
      14      14      13      14      14      13      14      14      13      14
      14      13      14      14      13      14      14      13      14      14
      13      14      14      13      14      14      13      14      14      13
      14      14      13      14      14      13      14      14      13      14
      14      13      14      14      13      14      14      13      14      14
      13      14      14      13      14      14      13      14      14      13
      14      14      13      14      14      13      14      14      13      14
      14      13      14      14      13      14      14      13      14      14
      13      14      14      13      14      14      13      14      14      13
      14      14      13      14      14      13      14      14      13      14
      14      13      14      14      13      14      14      13      14      14
      13      14      14      13      14      14      13      14      14      13
      14      14      13      14      14      13      14      14      13      14
      14      13      14      14      13      14      14      13      14      14
      13      14      14      13      14      14      13      14      14      13
      14      14      13      14      14      13      14      14      13      14
      14      13      14      14      13      14      14      13      14      14
      13      14      14      13      14      14      13      14      14      13
      14      14      13      14      14      13      14      14      13      14
      14      13      14      14      13      14      14      13      14      14
      13      14      14      13      14      14      13      14      14      13
      14      14      13      14      14      13      14      14      13      14
      14      13      14      14      13      14      14      13      14      14
      13      14      14      13      14      14      13      14      14      13
      14      14      13      14      14      13      14      14      13      14
      14      13      14      14      13      14      14      13      14      14
      13      14      14      13      14      14      13      14      14      13
      14      14      13      14      14      13      14      14      13      14
      14      13      14      14      13      14      14      13      14      14
      13      14      14      13      14      14      13      14      14      13
      14      14      13      14      14      13      14      14      13      14
      14      13      14      14      13      14      14      13      14      14
      13      14      14      13      14      14      13      14      14      13
      14      14      13      14      14      13      14      14      13      14
      14      13      14      14      13      14      14      13      14      14
      13      14      14      13      14      14      13      14      14      13
      14      14      13      14      14      13      14      14      13      14
      14      13      14      14      13      14      14      13      14      14
      13      14      14      13      14      14      13      14      14      13
      14      14      13      14      14      13      14      14      13      14
      14      13      14      14      13      14      14      13      14      14
      13      14      14      13      14      14      13      14      14      13
      14      14      13      14      14      13      14      14      13      14
      14      13      14      14      13      14      14      13      14      14
      13      14      14      13      14      14      13      14      14      13
      14      14      13      14      14      13      14      14      13      14
      14      13      14      14      13      14      14      13      14      14
      13      14      14      13      14      14      13      14      14      13
      14      14      13      14      14      13      14      14      13      14
      14      13      14      14      13      14      14      13      14      14
      13      14      14      13      14      14      13      14      14      13
      14      14      13      14      14      13      14      14      13      14
      14      13      14      14      13      14      14      13      14      14
      13      14      14      13      14      14      13      14      14      13
      14      14      13      14      14      13      14      14      13      14
      14      13      14      14      13      14      14      13      14      14
      13      14      14      13      14      14      13      14      14      13
      14      14      13      14      14      13      14      14      13      14
      14      13      14      14      13      14      14      13      14      14
      13      14      14      13      14      14      13      14      14      13
      14      14      13      14      14      13      14      14      13      14
      14      13      14      14      13      14      14      13      14      14
      13      14      14      13      14      14      13      14      14      13
      14      14      13      14      14      13      14      14      13      14
      14      13      14      14      13      14      14      13      14      14
      13      14      14      13      14      14      13      14      14      13
      14      14      13      14      14      13      14      14      13      14
      14      13      14      14      13      14      14      13      14      14
      13      14      14      13      14      14      13      14      14      13
      14      14      13      14      14      13      14      14      13      14
      14      13      14      14      13      14      14      13      14      14
      13      14      14      13      14      14      13      14      14      13
      14      14      13      14      14      13      14      14      13      14
      14      13      14      14      13      14      14      13      14      14
      13      14      14      13      14      14      13      14      14      13
      14      14      13      14      14      13      14      14      13      14
      14      13      14      14      13      14      14      13      14      14
      13      14      14      13      14      14      13      14      14      13
      14      14      13      14      14      13      14      14      13      14
      14      13      14      14      13      14      14      13      14      14
      13      14      14      13      14      14      13      14      14      13
      14      14      13      14      14      13      14      14      13      14
      14      13      14      14      13      14      14      13      14      14
      13      14      14      13      14      14      13      14      14      13
      14      14      13      14      14      13      14      14      13      14
      14      13      14      14      13      14      14      13      14      14
      13      14      14      13      14      14      13      14      14      13
      14      14      13      14      14      13      14      14      13      14
      14      13      14      14      13      14      14      13      14      14
      13      14      14      13      14      14      13      14      14      13
      14      14      13      14      14      13      14      14      13      14
      14      13      14      14      13      14      14      13      14      14
      13      14      14      13      14      14      13      14      14      13
      14      14      13      14      14      13      14      14      13      14
      14      13      14      14      13      14      14      13      14      14
      13      14      14      13      14      14      13      14      14      13
      14      14      13      14      14      13      14      14      13      14
      14      13      14      14      13      14      14      13      14      14
      13      14      14      13      14      14      13      14      14      13
      14      14      13      14      14      13      14      14      13      14
      14      13      14      14      13      14      14      13      14      14
      13      14      14      13      14      14      13      14      14      13
      14      14      13      14      14      13      14      14      13      14
      14      13      14      14      13      14      14      13      14      14
      13      14      14      13      14      14      13      14      14      13
      14      14      13      14      14      13      14      14      13      14
      14      13      14      14      13      14      14      13      14      14
      13      14      14      13      14      14      13      14      14      13
      14      14      13      14      14      13      14      14      13      14
      14      13      14      14      13      14      14      13      14      14
      13      14      14      13      14      14      13      14      14      13
      14      14      13      14      14      13      14      14      13      14
      14      13      14      14      13      14      14      13      14      14
      13      14      14      13      14      14      13      14      14      13
      14      14      13      14      14      13      14      14      13      14
      14      13      14      14      13      14      14      13      14      14
      13      14      14      13      14      14      13      14      14      13
      14      14      13      14      14      13      14      14      13      14
      14      13      14      14      13      14      14      13      14      14
      13      14      14      13      14      14      13      14      14      13
      14      14      13      14      14      13      14      14      13      14
      14      13      14      14      13      14      14      13      14      14
      13      14      14      13      14      14      13      14      14      13
      14      14      13      14      14      13      14      14      13      14
      14      13      14      14      13      14      14      13      14      14
      13      14      14      13      14      14      13      14      14      13
      14      14      13      14      14      13      14      14      13      14
      14      13      14      14      13      14      14      13      14      14
      13      14      14      13      14      14      13      14      14      13
      14      14      13      14      14      13      14      14      13      14
      14      13      14      14      13      14      14      13      14      14
      13      14      14      13      14      14      13      14      14      13
      14      14      13      14      14      13      14      14      13      14
      14      13      14      14      13      14      14      13      14      14
      13      14      14      13      14      14      13      14      14      13
      14      14      13      14      14      13      14      14      13      14
      14      13      14      14      13      14      14      13      14      14
      13      14      14      13      14      14      13      14      14      13
      14      14      13      14      14      13      14      14      13      14
      14      13      14      14      13      14      14      13      14      14
      13      14      14      13      14      14      13      14      14      13
      14      14      13      14      14      13      14      14      13      14
      14      13      14      14      13      14      14      13      14      14
      13      14      14      13      14      14      13      14      14      13
      14      14      13      14      14      13      14      14      13      14
      14      13      14      14      13      14      14      13      14      14
      13      14      14      13      14      14      13      14      14      13
      14      14      13      14      14      13      14      14      13      14
      14      13      14      14      13      14      14      13      14      14
      13      14      14      13      14      14      13      14      14      13
      14      14      13      14      14      13      14      14      13      14
      14      13      14      14      13      14      14      13      14      14
      13      14      14      13      14      14      13      14      14      13
      14      14      13      14      14      13      14      14      13      14
      14      13      14      14      13      14      14      13      14      14
      13      14      14      13      14      14      13      14      14      13
      14      14      13      14      14      13      14      14      13      14
      14      13      14      14      13      14      14      13      14      14
      13      14      14      13      14      14      13      14      14      13
      14      14      13      14      14      13      14      14      13      14
      14      13      14      14      13      14      14      13      14      14
      13      14      14      13      14      14      13      14      14      13
      14      14      13      14      14      13      14      14      13      14
      14      13      14      14      13      14      14      13      14      14
      13      14      14      13      14      14      13      14      14      13
      14      14      13      14      14      13      14      14      13      14
      14      13      14      14      13      14      14      13      14      14
      13      14      14      13      14      14      13      14      14      13
      14      14      13      14      14      13      14      14      13      14
      14      13      14      14      13      14      14      13      14      14
      13      14      14      13      14      14      13      14      14      13
      14      14      13      14      14      13      14      14      13      14
      14      13      14      14      13      14      14      13      14      14
      13      14      14      13      14      14      13      14      14      13
      14      14      13      14      14      13      14      14      13      14
      14      13      14      14      13      14      14      13      14      14
      13      14      14      13      14      14      13      14      14      13
      14      14      13      14      14      13      14      14      13      14
      14      13      14      14      13      14      14      13      14      14
      13      14      14      13      14      14      13      14      14      13
      14      14      13      14      14      13      14      14      13      14
      14      13      14      14      13      14      14      13      14      14
      13      14      14      13      14      14      13      14      14      13
      14      14      13      14      14      13      14      14      13      14
      14      13      14      14      13      14      14      13      14      14
      13      14      14      13      14      14      13      14      14      13
      14      14      13      14      14      13      14      14      13      14
      14      13      14      14      13      14      14      13      14      14
      13      14      14      13      14      14      13      14      14      13
      14      14      13      14      14      13      14      14      13      14
      14      13      14      14      13      14      14      13      14      14
      13      14      14      13      14      14      13      14      14      13
      14      14      13      14      14      13      14      14      13      14
      14      13      14      14      13      14      14      13      14      14
      13      14      14      13      14      14      13      14      14      13
      14      14      13      14      14      13      14      14      13      14
      14      13      14      14      13      14      14      13      14      14
      13      14      14      13      14      14      13      14      14      13
      14      14      13      14      14      13      14      14      13      14
      14      13      14      14      13      14      14      13      14      14
      13      14      14      13      14      14      13      14      14      13
      14      14      13      14      14      13      14      14      13      14
      14      13      14      14      13      14      14      13      14      14
      13      14      14      13      14      14      13      14      14      13
      14      14      13      14      14      13      14      14      13      14
      14      13      14      14      13      14      14      13      14      14
      13      14      14      13      14      14      13      14      14      13
      14      14      13      14      14      13      14      14      13      14
      14      13      14      14      13      14      14      13      14      14
      13      14      14      13      14      14      13      14      14      13
      14      14      13      14      14      13      14      14      13      14
      14      13      14      14      13      14      14      13      14      14
      13      14      14      13      14      14      13      14      14      13
      14      14      13      14      14      13      14      14      13      14
      14      13      14      14      13      14      14      13      14      14
      13      14      14      13      14      14      13      14      14      13
      14      14      13      14      14      13      14      14      13      14
      14      13      14      14      13      14      14      13      14      14
      13      14      14      13      14      14      13      14      14      13
      14      14      13      14      14      13      14      14      13      14
      14      13      14      14      13      14      14      13      14      14
      13      14      14      13      14      14      13      14      14      13
      14      14      13      14      14      13      14      14      13      14
      14      13      14      14      13      14      14      13      14      14
      13      14      14      13      14      14      13      14      14      13
      14      14      13      14      14      13      14      14      13      14
      14      13      14      14      13      14      14      13      14      14
      13      14      14      13      14      14      13      14      14      13
      14      14      13      14      14      13      14      14      13      14
      14      13      14      14      13      14      14      13      14      14
      13      14      14      13      14      14      13      14      14      13
      14      14      13      14      14      13      14      14      13      14
      14      13      14      14      13      14      14      13      14      14
      13      14      14      13      14      14      13      14      14      13
      14      14      13      14      14      13      14      14      13      14
      14      13      14      14      13      14      14      13      14      14
      13      14      14      13      14      14      13      14      14      13
      14      14      13      14      14      13      14      14      13      14
      14      13      14      14      13      14      14      13      14      14
      13      14      14      13      14      14      13      14      14      13
      14      14      13      14      14      13      14      14      13      14
      14      13      14      14      13      14      14      13      14      14
      13      14      14      13      14      14      13      14      14      13
      14      14      13      14      14      13      14      14      13      14
      14      13      14      14      13      14      14      13      14      14
      13      14      14      13      14      14      13      14      14      13
      14      14      13      14      14      13      14      14      13      14
      14      13      14      14      13      14      14      13      14      14
      13      14      14      13      14      14      13      14      14      13
      14      14      13      14      14      13      14      14      13      14
      14      13      14      14      13      14      14      13      14      14
      13      14      14      13      14      14      13      14      14      13
      14      14      13      14      14      13      14      14      13      14
      14      13      14      14      13      14      14      13      14      14
      13      14      14      13      14      14      13      14      14      13
      14      14      13      14      14      13      14      14      13      14
      14      13      14      14      13      14      14      13      14      14
      13      14      14      13      14      14      13      14      14      13
      14      14      13      14      14      13      14      14      13      14
      14      13      14      14      13      14      14      13      14      14
      13      14      14      13      14      14      13      14      14      13
      14      14      13      14      14      13      14      14      13      14
      14      13      14      14      13      14      14      13      14      14
      13      14      14      13      14      14      13      14      14      13
      14      14      13      14      14      13      14      14      13      14
      14      13      14      14      13      14      14      13      14      14
      13      14      14      13      14      14      13      14      14      13
      14      14      13      14      14      13      14      14      13      14
      14      13      14      14      13      14      14      13      14      14
      13      14      14      13      14      14      13      14      14      13
      14      14      13      14      14      13      14      14      13      14
      14      13      14      14      13      14      14      13      14      14
      13      14      14      13      14      14      13      14      14      13
      14      14      13      14      14      13      14      14      13      14
      14      13      14      14      13      14      14      13      14      14
      13      14      14      13      14      14      13      14      14      13
      14      14      13      14      14      13      14      14      13      14
      14      13      14      14      13      14      14      13      14      14
      13      14      14      13      14      14      13      14      14      13
      14      14      13      14      14      13      14      14      13      14
      14      13      14      14      13      14      14      13      14      14
      13      14      14      13      14      14      13      14      14      13
      14      14      13      14      14      13      14      14      13      14
      14      13      14      14      13      14      14      13      14      14
      13      14      14      13      14      14      13      14      14      13
      14      14      13      14      14      13      14      14      13      14
      14      13      14      14      13      14      14      13      14      14
      13      14      14      13      14      14      13      14      14      13
      14      14      13      14      14      13      14      14      13      14
      14      13      14      14      13      14      14      13      14      14
      13      14      14      13      14      14      13      14      14      13
      14      14      13      14      14      13      14      14      13      14
      14      13      14      14      13      14      14      13      14      14
      13      14      14      13      14      14      13      14      14      13
      14      14      13      14      14      13      14      14      13      14
      14      13      14      14      13      14      14      13      14      14
      13      14      14      13      14      14      13      14      14      13
      14      14      13      14      14      13      14      14      13      14
      14      13      14      14      13      14      14      13      14      14
      13      14      14      13      14      14      13      14      14      13
      14      14      13      14      14      13      14      14      13      14
      14      13      14      14      13      14      14      13      14      14
      13      14      14      13      14      14      13      14      14      13
      14      14      13      14      14      13      14      14      13      14
      14      13      14      14      13      14      14      13      14      14
      13      14      14      13      14      14      13      14      14      13
      14      14      13      14      14      13      14      14      13      14
      14      13      14      14      13      14      14      13      14      14
      13      14      14      13      14      14      13      14      14      13
      14      14      13      14      14      13      14      14      13      14
      14      13      14      14      13      14      14      13      14      14
      13      14      14      13      14      14      13      14      14      13
      14      14      13      14      14      13      14      14      13      14
      14      13      14      14      13      14      14      13      14      14
      13      14      14      13      14      14      13      14      14      13
      14      14      13      14      14      13      14      14      13      14
      14      13      14      14      13      14      14      13      14      14
      13      14      14      13      14      14      13      14      14      13
      14      14      13      14      14      13      14      14      13      14
      14      13      14      14      13      14      14      13      14      14
      13      14      14      13      14      14      13      14      14      13
      14      14      13      14      14      13      14      14      13      14
      14      13      14      14      13      14      14      13      14      14
      13      14      14      13      14      14      13      14      14      13
      14      14      13      14      14      13      14      14      13      14
      14      13      14      14      13      14      14      13      14      14
      13      14      14      13      14      14      13      14      14      13
      14      14      13      14      14      13      14      14      13      14
      14      13      14      14      13      14      14      13      14      14
      13      14      14      13      14      14      13      14      14      13
      14      14      13      14      14      13      14      14      13      14
      14      13      14      14      13      14      14      13      14      14
      13      14      14      13      14      14      13      14      14      13
      14      14      13      14      14      13      14      14      13      14
      14      13      14      14      13      14      14      13      14      14
      13      14      14      13      14      14      13      14      14      13
      14      14      13      14      14      13      14      14      13      14
      14      13      14      14      13      14      14      13      14      14
      13      14      14      13      14      14      13      14      14      13
      14      14      13      14      14      13      14      14      13      14
      14      13      14      14      13      14      14      13      14      14
      13      14      14      13      14      14      13      14      14      13
      14      14      13      14      14      13      14      14      13      14
      14      13      14      14      13      14      14      13      14      14
      13      14      14      13      14      14      13      14      14      13
      14      14      13      14      14      13      14      14      13      14
      14      13      14      14      13      14      14      13      14      14
      13      14      14      13      14      14      13      14      14      13
      14      14      13      14      14      13      14      14      13      14
      14      13      14      14      13      14      14      13      14      14
      13      14      14      13      14      14      13      14      14      13
      14      14      13      14      14      13      14      14      13      14
      14      13      14      14      13      14      14      13      14      14
      13      14      14      13      14      14      13      14      14      13
      14      14      13      14      14      13      14      14      13      14
      14      13      14      14      13      14      14      13      14      14
      13      14      14      13      14      14      13      14      14      13
      14      14      13      14      14      13      14      14      13      14
      14      13      14      14      13      14      14      13      14      14
      13      14      14      13      14      14      13      14      14      13
      14      14      13      14      14      13      14      14      13      14
      14      13      14      14      13      14      14      13      14      14
      13      14      14      13      14      14      13      14      14      13
      14      14      13      14      14      13      14      14      13      14
      14      13      14      14      13      14      14      13      14      14
      13      14      14      13      14      14      13      14      14      13
      14      14      13      14      14      13      14      14      13      14
      14      13      14      14      13      14      14      13      14      14
      13      14      14      13      14      14      13      14      14      13
      14      14      13      14      14      13      14      14      13      14
      14      13      14      14      13      14      14      13      14      14
      13      14      14      13      14      14      13      14      14      13
      14      14      13      14      14      13      14      14      13      14
      14      13      14      14      13      14      14      13      14      14
      13      14      14      13      14      14      13      14      14      13
      14      14      13      14      14      13      14      14      13      14
      14      13      14      14      13      14      14      13      14      14
      13      14      14      13      14      14      13      14      14      13
      14      14      13      14      14      13      14      14      13      14
      14      13      14      14      13      14      14      13      14      14
      13      14      14      13      14      14      13      14      14      13
      14      14      13      14      14      13      14      14      13      14
      14      13      14      14      13      14      14      13      14      14
      13      14      14      13      14      14      13      14      14      13
      14      14      13      14      14      13      14      14      13      14
      14      13      14      14      13      14      14      13      14      14
      13      14      14      13      14      14      13      14      14      13
      14      14      13      14      14      13      14      14      13      14
      14      13      14      14      13      14      14      13      14      14
      13      14      14      13      14      14      13      14      14      13
      14      14      13      14      14      13      14      14      13      14
      14      13      14      14      13      14      14      13      14      14
      13      14      14      13      14      14      13      14      14      13
      14      14      13      14      14      13      14      14      13      14
      14      13      14      14      13      14      14      13      14      14
      13      14      14      13      14      14      13      14      14      13
      14      14      13      14      14      13      14      14      13      14
      14      13      14      14      13      14      14      13      14      14
      13      14      14      13      14      14      13      14      14      13
      14      14      13      14      14      13      14      14      13      14
      14      13      14      14      13      14      14      13      14      14
      13      14      14      13      14      14      13      14      14      13
      14      14      13      14      14      13      14      14      13      14
      14      13      14      14      13      14      14      13      14      14
      13      14      14      13      14      14      13      14      14      13
      14      14      13      14      14      13      14      14      13      14
      14      13      14      14      13      14      14      13      14      14
      13      14      14      13      14      14      13      14      14      13
      14      14      13      14      14      13      14      14      13      14
      14      13      14      14      13      14      14      13      14      14
      13      14      14      13      14      14      13      14      14      13
      14      14      13      14      14      13      14      14      13      14
      14      13      14      14      13      14      14      13      14      14
      13      14      14      13      14      14      13      14      14      13
      14      14      13      14      14      13      14      14      13      14
      14      13      14      14      13      14      14      13      14      14
      13      14      14      13      14      14      13      14      14      13
      14      14      13      14      14      13      14      14      13      14
      14      13      14      14      13      14      14      13      14      14
      13      14      14      13      14      14      13      14      14      13
      14      14      13      14      14      13      14      14      13      14
      14      13      14      14      13      14      14      13      14      14
      13      14      14      13      14      14      13      14      14      13
      14      14      13      14      14      13      14      14      13      14
      14      13      14      14      13      14      14      13      14      14
      13      14      14      13      14      14      13      14      14      13
      14      14      13      14      14      13      14      14      13      14
      14      13      14      14      13      14      14      13      14      14
      13      14      14      13      14      14      13      14      14      13
      14      14      13      14      14      13      14      14      13      14
      14      13      14      14      13      14      14      13      14      14
      13      14      14      13      14      14      13      14      14      13
      14      14      13      14      14      13      14      14      13      14
      14      13      14      14      13      14      14      13      14      14
      13      14      14      13      14      14      13      14      14      13
      14      14      13      14      14      13      14      14      13      14
      14      13      14      14      13      14      14      13      14      14
      13      14      14      13      14      14      13      14      14      13
      14      14      13      14      14      13      14      14      13      14
      14      13      14      14      13      14      14      13      14      14
      13      14      14      13      14      14      13      14      14      13
      14      14      13      14      14      13      14      14      13      14
      14      13      14      14      13      14      14      13      14      14
      13      14      14      13      14      14      13      14      14      13
      14      14      13      14      14      13      14      14      13      14
      14      13      14      14      13      14      14      13      14      14
      13      14      14      13      14      14      13      14      14      13
      14      14      13      14      14      13      14      14      13      14
      14      13      14      14      13      14      14      13      14      14
      13      14      14      13      14      14      13      14      14      13
      14      14      13      14      14      13      14      14      13      14
      14      13      14      14      13      14      14      13      14      14
      13      14      14      13      14      14      13      14      14      13
      14      14      13      14      14      13      14      14      13      14
      14      13      14      14      13      14      14      13      14      14
      13      14      14      13      14      14      13      14      14      13
      14      14      13      14      14      13      14      14      13      14
      14      13      14      14      13      14      14      13      14      14
      13      14      14      13      14      14      13      14      14      13
      14      14      13      14      14      13      14      14      13      14
      14      13      14      14      13      14      14      13      14      14
      13      14      14      13      14      14      13      14      14      13
      14      14      13      14      14      13      14      14      13      14
      14      13      14      14      13      14      14      13      14      14
      13      14      14      13      14      14      13      14      14      13
      14      14      13      14      14      13      14      14      13      14
      14      13      14      14      13      14      14      13      14      14
      13      14      14      13      14      14      13      14      14      13
      14      14      13      14      14      13      14      14      13      14
      14      13      14      14      13      14      14      13      14      14
      13      14      14      13      14      14      13      14      14      13
      14      14      13      14      14      13      14      14      13      14
      14      13      14      14      13      14      14      13      14      14
      13      14      14      13      14      14      13      14      14      13
      14      14      13      14      14      13      14      14      13      14
      14      13      14      14      13      14      14      13      14      14
      13      14      14      13      14      14      13      14      14      13
      14      14      13      14      14      13      14      14      13      14
      14      13      14      14      13      14      14      13      14      14
      13      14      14      13      14      14      13      14      14      13
      14      14      13      14      14      13      14      14      13      14
      14      13      14      14      13      14      14      13      14      14
      13      14      14      13      14      14      13      14      14      13
      14      14      13      14      14      13      14      14      13      14
      14      13      14      14      13      14      14      13      14      14
      13      14      14      13      14      14      13      14      14      13
      14      14      13      14      14      13      14      14      13      14
      14      13      14      14      13      14      14      13      14      14
      13      14      14      13      14      14      13      14      14      13
      14      14      13      14      14      13      14      14      13      14
      14      13      14      14      13      14      14      13      14      14
      13      14      14      13      14      14      13      14      14      13
      14      14      13      14      14      13      14      14      13      14
      14      13      14      14      13      14      14      13      14      14
      13      14      14      13      14      14      13      14      14      13
      14      14      13      14      14      13      14      14      13      14
      14      13      14      14      13      14      14      13      14      14
      13      14      14      13      14      14      13      14      14      13
      14      14      13      14      14      13      14      14      13      14
      14      13      14      14      13      14      14      13      14      14
      13      14      14      13      14      14      13      14      14      13
      14      14      13      14      14      13      14      14      13      14
      14      13      14      14      13      14      14      13      14      14
      13      14      14      13      14      14      13      14      14      13
      14      14      13      14      14      13      14      14      13      14
      14      13      14      14      13      14      14      13      14      14
      13      14      14      13      14      14      13      14      14      13
      14      14      13      14      14      13      14      14      13      14
      14      13      14      14      13      14      14      13      14      14
      13      14      14      13      14      14      13      14      14      13
      14      14      13      14      14      13      14      14      13      14
      14      13      14      14      13      14      14      13      14      14
      13      14      14      13      14      14      13      14      14      13
      14      14      13      14      14      13      14      14      13      14
      14      13      14      14      13      14      14      13      14      14
      13      14      14      13      14      14      13      14      14      13
      14      14      13      14      14      13      14      14      13      14
      14      13      14      14      13      14      14      13      14      14
      13      14      14      13      14      14      13      14      14      13
      14      14      13      14      14      13      14      14      13      14
      14      13      14      14      13      14      14      13      14      14
      13      14      14      13      14      14      13      14      14      13
      14      14      13      14      14      13      14      14      13      14
      14      13      14      14      13      14      14      13      14      14
      13      14      14      13      14      14      13      14      14      13
      14      14      13      14      14      13      14      14      13      14
      14      13      14      14      13      14      14      13      14      14
      13      14      14      13      14      14      13      14      14      13
      14      14      13      14      14      13      14      14      13      14
      14      13      14      14      13      14      14      13      14      14
      13      14      14      13      14      14      13      14      14      13
      14      14      13      14      14      13      14      14      13      14
      14      13      14      14      13      14      14      13      14      14
      13      14      14      13      14      14      13      14      14      13
      14      14      13      14      14      13      14      14      13      14
      14      13      14      14      13      14      14      13      14      14
      13      14      14      13      14      14      13      14      14      13
      14      14      13      14      14      13      14      14      13      14
      14      13      14      14      13      14      14      13      14      14
      13      14      14      13      14      14      13      14      14      13
      14      14      13      14      14      13      14      14      13      14
      14      13      14      14      13      14      14      13      14      14
      13      14      14      13      14      14      13      14      14      13
      14      14      13      14      14      13      14      14      13      14
      14      13      14      14      13      14      14      13      14      14
      13      14      14      13      14      14      13      14      14      13
      14      14      13      14      14      13      14      14      13      14
      14      13      14      14      13      14      14      13      14      14
      13      14      14      13      14      14      13      14      14      13
      14      14      13      14      14      13      14      14      13      14
      14      13      14      14      13      14      14      13      14      14
      13      14      14      13      14      14      13      14      14      13
      14      14      13      14      14      13      14      14      13      14
      14      13      14      14      13      14      14      13      14      14
      13      14      14      13      14      14      13      14      14      13
      14      14      13      14      14      13      14      14      13      14
      14      13      14      14      13      14      14      13      14      14
      13      14      14      13      14      14      13      14      14      13
      14      14      13      14      14      13      14      14      13      14
      14      13      14      14      13      14      14      13      14      14
      13      14      14      13      14      14      13      14      14      13
      14      14      13      14      14      13      14      14      13      14
      14      13      14      14      13      14      14      13      14      14
      13      14      14      13      14      14      13      14      14      13
      14      14      13      14      14      13      14      14      13      14
      14      13      14      14      13      14      14      13      14      14
      13      14      14      13      14      14      13      14      14      13
      14      14      13      14      14      13      14      14      13      14
      14      13      14      14      13      14      14      13      14      14
      13      14      14      13      14      14      13      14      14      13
      14      14      13      14      14      13      14      14      13      14
      14      13      14      14      13      14      14      13      14      14
      13      14      14      13      14      14      13      14      14      13
      14      14      13      14      14      13      14      14      13      14
      14      13      14      14      13      14      14      13      14      14
      13      14      14      13      14      14      13      14      14      13
      14      14      13      14      14      13      14      14      13      14
      14      13      14      14      13      14      14      13      14      14
      13      14      14      13      14      14      13      14      14      13
      14      14      13      14      14      13      14      14      13      14
      14      13      14      14      13      14      14      13      14      14
      13      14      14      13      14      14      13      14      14      13
      14      14      13      14      14      13      14      14      13      14
      14      13      14      14      13      14      14      13      14      14
      13      14      14      13      14      14      13      14      14      13
      14      14      13      14      14      13      14      14      13      14
      14      13      14      14      13      14      14      13      14      14
      13      14      14      13      14      14      13      14      14      13
      14      14      13      14      14      13      14      14      13      14
      14      13      14      14      13      14      14      13      14      14
      13      14      14      13      14      14      13      14      14      13
      14      14      13      14      14      13      14      14      13      14
      14      13      14      14      13      14      14      13      14      14
      13      14      14      13      14      14      13      14      14      13
      14      14      13      14      14      13      14      14      13      14
      14      13      14      14      13      14      14      13      14      14
      13      14      14      13      14      14      13      14      14      13
      14      14      13      14      14      13      14      14      13      14
      14      13      14      14      13      14      14      13      14      14
      13      14      14      13      14      14      13      14      14      13
      14      14      13      14      14      13      14      14      13      14
      14      13      14      14      13      14      14      13      14      14
      13      14      14      13      14      14      13      14      14      13
      14      14      13      14      14      13      14      14      13      14
      14      13      14      14      13      14      14      13      14      14
      13      14      14      13      14      14      13      14      14      13
      14      14      13      14      14      13      14      14      13      14
      14      13      14      14      13      14      14      13      14      14
      13      14      14      13      14      14      13      14      14      13
      14      14      13      14      14      13      14      14      13      14
      14      13      14      14      13      14      14      13      14      14
      13      14      14      13      14      14      13      14      14      13
      14      14      13      14      14      13      14      14      13      14
      14      13      14      14      13      14      14      13      14      14
      13      14      14      13      14      14      13      14      14      13
      14      14      13      14      14      13      14      14      13      14
      14      13      14      14      13      14      14      13      14      14
      13      14      14      13      14      14      13      14      14      13
      14      14      13      14      14      13      14      14      13      14
      14      13      14      14      13      14      14      13      14      14
      13      14      14      13      14      14      13      14      14      13
      14      14      13      14      14      13      14      14      13      14
      14      13      14      14      13      14      14      13      14      14
      13      14      14      13      14      14      13      14      14      13
      14      14      13      14      14      13      14      14      13      14
      14      13      14      14      13      14      14      13      14      14
      13      14      14      13      14      14      13      14      14      13
      14      14      13      14      14      13      14      14      13      14
      14      13      14      14      13      14      14      13      14      14
      13      14      14      13      14      14      13      14      14      13
      14      14      13      14      14      13      14      14      13      14
      14      13      14      14      13      14      14      13      14      14
      13      14      14      13      14      14      13      14      14      13
      14      14      13      14      14      13      14      14      13      14
      14      13      14      14      13      14      14      13      14      14
      13      14      14      13      14      14      13      14      14      13
      14      14      13      14      14      13      14      14      13      14
      14      13      14      14      13      14      14      13      14      14
      13      14      14      13      14      14      13      14      14      13
      14      14      13      14      14      13      14      14      13      14
      14      13      14      14      13      14      14      13      14      14
      13      14      14      13      14      14      13      14      14      13
      14      14      13      14      14      13      14      14      13      14
      14      13      14      14      13      14      14      13      14      14
      13      14      14      13      14      14      13      14      14      13
      14      14      13      14      14      13      14      14      13      14
      14      13      14      14      13      14      14      13      14      14
      13      14      14      13      14      14      13      14      14      13
      14      14      13      14      14      13      14      14      13      14
      14      13      14      14      13      14      14      13      14      14
      13      14      14      13      14      14      13      14      14      13
      14      14      13      14      14      13      14      14      13      14
      14      13      14      14      13      14      14      13      14      14
      13      14      14      13      14      14      13      14      14      13
      14      14      13      14      14      13      14      14      13      14
      14      13      14      14      13      14      14      13      14      14
      13      14      14      13      14      14      13      14      14      13
      14      14      13      14      14      13      14      14      13      14
      14      13      14      14      13      14      14      13      14      14
      13      14      14      13      14      14      13      14      14      13
      14      14      13      14      14      13      14      14      13      14
      14      13      14      14      13      14      14      13      14      14
      13      14      14      13      14      14      13      14      14      13
      14      14      13      14      14      13      14      14      13      14
      14      13      14      14      13      14      14      13      14      14
      13      14      14      13      14      14      13      14      14      13
      14      14      13      14      14      13      14      14      13      14
      14      13      14      14      13      14      14      13      14      14
      13      14      14      13      14      14      13      14      14      13
      14      14      13      14      14      13      14      14      13      14
      14      13      14      14      13      14      14      13      14      14
      13      14      14      13      14      14      13      14      14      13
      14      14      13      14      14      13      14      14      13      14
      14      13      14      14      13      14      14      13      14      14
      13      14      14      13      14      14      13      14      14      13
      14      14      13      14      14      13      14      14      13      14
      14      13      14      14      13      14      14      13      14      14
      13      14      14      13      14      14      13      14      14      13
      14      14      13      14      14      13      14      14      13      14
      14      13      14      14      13      14      14      13      14      14
      13      14      14      13      14      14      13      14      14      13
      14      14      13      14      14      13      14      14      13      14
      14      13      14      14      13      14      14      13      14      14
      13      14      14      13      14      14      13      14      14      13
      14      14      13      14      14      13      14      14      13      14
      14      13      14      14      13      14      14      13      14      14
      13      14      14      13      14      14      13      14      14      13
      14      14      13      14      14      13      14      14      13      14
      14      13      14      14      13      14      14      13      14      14
      13      14      14      13      14      14      13      14      14      13
      14      14      13      14      14      13      14      14      13      14
      14      13      14      14      13      14      14      13      14      14
      13      14      14      13      14      14      13      14      14      13
      14      14      13      14      14      13      14      14      13      14
      14      13      14      14      13      14      14      13      14      14
      13      14      14      13      14      14      13      14      14      13
      14      14      13      14      14      13      14      14      13      14
      14      13      14      14      13      14      14      13      14      14
      13      14      14      13      14      14      13      14      14      13
      14      14      13      14      14      13      14      14      13      14
      14      13      14      14      13      14      14      13      14      14
      13      14      14      13      14      14      13      14      14      13
      14      14      13      14      14      13      14      14      13      14
      14      13      14      14      13      14      14      13      14      14
      13      14      14      13      14      14      13      14      14      13
      14      14      13      14      14      13      14      14      13      14
      14      13      14      14      13      14      14      13      14      14
      13      14      14      13      14      14      13      14      14      13
      14      14      13      14      14      13      14      14      13      14
      14      13      14      14      13      14      14      13      14      14
      13      14      14      13      14      14      13      14      14      13
      14      14      13      14      14      13      14      14      13      14
      14      13      14      14      13      14      14      13      14      14
      13      14      14      13      14      14      13      14      14      13
      14      14      13      14      14      13      14      14      13      14
      14      13      14      14      13      14      14      13      14      14
      13      14      14      13      14      14      13      14      14      13
      14      14      13      14      14      13      14      14      13      14
      14      13      14      14      13      14      14      13      14      14
      13      14      14      13      14      14      13      14      14      13
      14      14      13      14      14      13      14      14      13      14
      14      13      14      14      13      14      14      13      14      14
      13      14      14      13      14      14      13      14      14      13
      14      14      13      14      14      13      14      14      13      14
      14      13      14      14      13      14      14      13      14      14
      13      14      14      13      14      14      13      14      14      13
      14      14      13      14      14      13      14      14      13      14
      14      13      14      14      13      14      14      13      14      14
      13      14      14      13      14      14      13      14      14      13
      14      14      13      14      14      13      14      14      13      14
      14      13      14      14      13      14      14      13      14      14
      13      14      14      13      14      14      13      14      14      13
      14      14      13      14      14      13      14      14      13      14
      14      13      14      14      13      14      14      13      14      14
      13      14      14      13      14      14      13      14      14      13
      14      14      13      14      14      13      14      14      13      14
      14      13      14      14      13      14      14      13      14      14
      13      14      14      13      14      14      13      14      14      13
      14      14      13      14      14      13      14      14      13      14
      14      13      14      14      13      14      14      13      14      14
      13      14      14      13      14      14      13      14      14      13
      14      14      13      14      14      13      14      14      13      14
      14      13      14      14      13      14      14      13      14      14
      13      14      14      13      14      14      13      14      14      13
      14      14      13      14      14      13      14      14      13      14
      14      13      14      14      13      14      14      13      14      14
      13      14      14      13      14      14      13      14      14      13
      14      14      13      14      14      13      14      14      13      14
      14      13      14      14      13      14      14      13      14      14
      13      14      14      13      14      14      13      14      14      13
      14      14      13      14      14      13      14      14      13      14
      14      13      14      14      13      14      14      13      14      14
      13      14      14      13      14      14      13      14      14      13
      14      14      13      14      14      13      14      14      13      14
      14      13      14      14      13      14      14      13      14      14
      13      14      14      13      14      14      13      14      14      13
      14      14      13      14      14      13      14      14      13      14
      14      13      14      14      13      14      14      13      14      14
      13      14      14      13      14      14      13      14      14      13
      14      14      13      14      14      13      14      14      13      14
      14      13      14      14      13      14      14      13      14      14
      13      14      14      13      14      14      13      14      14      13
      14      14      13      14      14      13      14      14      13      14
      14      13      14      14      13      14      14      13      14      14
      13      14      14      13      14      14      13      14      14      13
      14      14      13      14      14      13      14      14      13      14
      14      13      14      14      13      14      14      13      14      14
      13      14      14      13      14      14      13      14      14      13
      14      14      13      14      14      13      14      14      13      14
      14      13      14      14      13      14      14      13      14      14
      13      14      14      13      14      14      13      14      14      13
      14      14      13      14      14      13      14      14      13      14
      14      13      14      14      13      14      14      13      14      14
      13      14      14      13      14      14      13      14      14      13
      14      14      13      14      14      13      14      14      13      14
      14      13      14      14      13      14      14      13      14      14
      13      14      14      13      14      14      13      14      14      13
      14      14      13      14      14      13      14      14      13      14
      14      13      14      14      13      14      14      13      14      14
      13      14      14      13      14      14      13      14      14      13
      14      14      13      14      14      13      14      14      13      14
      14      13      14      14      13      14      14      13      14      14
      13      14      14      13      14      14      13      14      14      13
      14      14      13      14      14      13      14      14      13      14
      14      13      14      14      13      14      14      13      14      14
      13      14      14      13      14      14      13      14      14      13
      14      14      13      14      14      13      14      14      13      14
      14      13      14      14      13      14      14      13      14      14
      13      14      14      13      14      14      13      14      14      13
      14      14      13      14      14      13      14      14      13      14
      14      13      14      14      13      14      14      13      14      14
      13      14      14      13      14      14      13      14      14      13
      14      14      13      14      14      13      14      14      13      14
      14      13      14      14      13      14      14      13      14      14
      13      14      14      13      14      14      13      14      14      13
      14      14      13      14      14      13      14      14      13      14
      14      13      14      14      13      14      14      13      14      14
      13      14      14      13      14      14      13      14      14      13
      14      14      13      14      14      13      14      14      13      14
      14      13      14      14      13      14      14      13      14      14
      13      14      14      13      14      14      13      14      14      13
      14      14      13      14      14      13      14      14      13      14
      14      13      14      14      13      14      14      13      14      14
      13      14      14      13      14      14      13      14      14      13
      14      14      13      14      14      13      14      14      13      14
      14      13      14      14      13      14      14      13      14      14
      13      14      14      13      14      14      13      14      14      13
      14      14      13      14      14      13      14      14      13      14
      14      13      14      14      13      14      14      13      14      14
      13      14      14      13      14      14      13      14      14      13
      14      14      13      14      14      13      14      14      13      14
      14      13      14      14      13      14      14      13      14      14
      13      14      14      13      14      14      13      14      14      13
      14      14      13      14      14      13      14      14      13      14
      14      13      14      14      13      14      14      13      14      14
      13      14      14      13      14      14      13      14      14      13
      14      14      13      14      14      13      14      14      13      14
      14      13      14      14      13      14      14      13      14      14
      13      14      14      13      14      14      13      14      14      13
      14      14      13      14      14      13      14      14      13      14
      14      13      14      14      13      14      14      13      14      14
      13      14      14      13      14      14      13      14      14      13
      14      14      13      14      14      13      14      14      13      14
      14      13      14      14      13      14      14      13      14      14
      13      14      14      13      14      14      13      14      14      13
      14      14      13      14      14      13      14      14      13      14
      14      13      14      14      13      14      14      13      14      14
      13      14      14      13      14      14      13      14      14      13
      14      14      13      14      14      13      14      14      13      14
      14      13      14      14      13      14      14      13      14      14
      13      14      14      13      14      14      13      14      14      13
      14      14      13      14      14      13      14      14      13      14
      14      13      14      14      13      14      14      13      14      14
      13      14      14      13      14      14      13      14      14      13
      14      14      13      14      14      13      14      14      13      14
      14      13      14      14      13      14      14      13      14      14
      13      14      14      13      14      14      13      14      14      13
      14      14      13      14      14      13      14      14      13      14
      14      13      14      14      13      14      14      13      14      14
      13      14      14      13      14      14      13      14      14      13
      14      14      13      14      14      13      14      14      13      14
      14      13      14      14      13      14      14      13      14      14
      13      14      14      13      14      14      13      14      14      13
      14      14      13      14      14      13      14      14      13      14
      14      13      14      14      13      14      14      13      14      14
      13      14      14      13      14      14      13      14      14      13
      14      14      13      14      14      13      14      14      13      14
      14      13      14      14      13      14      14      13      14      14
      13      14      14      13      14      14      13      14      14      13
      14      14      13      14      14      13      14      14      13      14
      14      13      14      14      13      14      14      13      14      14
      13      14      14      13      14      14      13      14      14      13
      14      14      13      14      14      13      14      14      13      14
      14      13      14      14      13      14      14      13      14      14
      13      14      14      13      14      14      13      14      14      13
      14      14      13      14      14      13      14      14      13      14
      14      13      14      14      13      14      14      13      14      14
      13      14      14      13      14      14      13      14      14      13
      14      14      13      14      14      13      14      14      13      14
      14      13      14      14      13      14      14      13      14      14
      13      14      14      13      14      14      13      14      14      13
      14      14      13      14      14      13      14      14      13      14
      14      13      14      14      13      14      14      13      14      14
      13      14      14      13      14      14      13      14      14      13
      14      14      13      14      14      13      14      14      13      14
      14      13      14      14      13      14      14      13      14      14
      13      14      14      13      14      14      13      14      14      13
      14      14      13      14      14      13      14      14      13      14
      14      13      14      14      13      14      14      13      14      14
      13      14      14      13      14      14      13      14      14      13
      14      14      13      14      14      13      14      14      13      14
      14      13      14      14      13      14      14      13      14      14
      13      14      14      13      14      14      13      14      14      13
      14      14      13      14      14      13      14      14      13      14
      14      13      14      14      13      14      14      13      14      14
      13      14      14      13      14      14      13      14      14      13
      14      14      13      14      14      13      14      14      13      14
      14      13      14      14      13      14      14      13      14      14
      13      14      14      13      14      14      13      14      14      13
      14      14      13      14      14      13      14      14      13      14
      14      13      14      14      13      14      14      13      14      14
      13      14      14      13      14      14      13      14      14      13
      14      14      13      14      14      13      14      14      13      14
      14      13      14      14      13      14      14      13      14      14
      13      14      14      13      14      14      13      14      14      13
      14      14      13      14      14      13      14      14      13      14
      14      13      14      14      13      14      14      13      14      14
      13      14      14      13      14      14      13      14      14      13
      14      14      13      14      14      13      14      14      13      14
      14      13      14      14      13      14      14      13      14      14
      13      14      14      13      14      14      13      14      14      13
      14      14      13      14      14      13      14      14      13      14
      14      13      14      14      13      14      14      13      14      14
      13      14      14      13      14      14      13      14      14      13
      14      14      13      14      14      13      14      14      13      14
      14      13      14      14      13      14      14      13      14      14
      13      14      14      13      14      14      13      14      14      13
      14      14      13      14      14      13      14      14      13      14
      14      13      14      14      13      14      14      13      14      14
      13      14      14      13      14      14      13      14      14      13
      14      14      13      14      14      13      14      14      13      14
      14      13      14      14      13      14      14      13      14      14
      13      14      14      13      14      14      13      14      14      13
      14      14      13      14      14      13      14      14      13      14
      14      13      14      14      13      14      14      13      14      14
      13      14      14      13      14      14      13      14      14      13
      14      14      13      14      14      13      14      14      13      14
      14      13      14      14      13      14      14      13      14      14
      13      14      14      13      14      14      13      14      14      13
      14      14      13      14      14      13      14      14      13      14
      14      13      14      14      13      14      14      13      14      14
      13      14      14      13      14      14      13      14      14      13
      14      14      13      14      14      13      14      14      13      14
      14      13      14      14      13      14      14      13      14      14
      13      14      14      13      14      14      13      14      14      13
      14      14      13      14      14      13      14      14      13      14
      14      13      14      14      13      14      14      13      14      14
      13      14      14      13      14      14      13      14      14      13
      14      14      13      14      14      13      14      14      13      14
      14      13      14      14      13      14      14      13      14      14
      13      14      14      13      14      14      13      14      14      13
      14      14      13      14      14      13      14      14      13      14
      14      13      14      14      13      14      14      13      14      14
      13      14      14      13      14      14      13      14      14      13
      14      14      13      14      14      13      14      14      13      14
      14      13      14      14      13      14      14      13      14      14
      13      14      14      13      14      14      13      14      14      13
      14      14      13      14      14      13      14      14      13      14
      14      13      14      14      13      14      14      13      14      14
      13      14      14      13      14      14      13      14      14      13
      14      14      13      14      14      13      14      14      13      14
      14      13      14      14      13      14      14      13      14      14
      13      14      14      13      14      14      13      14      14      13
      14      14      13      14      14      13      14      14      13      14
      14      13      14      14      13      14      14      13      14      14
      13      14      14      13      14      14      13      14      14      13
      14      14      13      14      14      13      14      14      13      14
      14      13      14      14      13      14      14      13      14      14
      13      14      14      13      14      14      13      14      14      13
      14      14      13      14      14      13      14      14      13      14
      14      13      14      14      13      14      14      13      14      14
      13      14      14      13      14      14      13      14      14      13
      14      14      13      14      14      13      14      14      13      14
      14      13      14      14      13      14      14      13      14      14
      13      14      14      13      14      14      13      14      14      13
      14      14      13      14      14      13      14      14      13      14
      14      13      14      14      13      14      14      13      14      14
      13      14      14      13      14      14      13      14      14      13
      14      14      13      14      14      13      14      14      13      14
      14      13      14      14      13      14      14      13      14      14
      13      14      14      13      14      14      13      14      14      13
      14      14      13      14      14      13      14      14      13      14
      14      13      14      14      13      14      14      13      14      14
      13      14      14      13      14      14      13      14      14      13
      14      14      13      14      14      13      14      14      13      14
      14      13      14      14      13      14      14      13      14      14
      13      14      14      13      14      14      13      14      14      13
      14      14      13      14      14      13      14      14      13      14
      14      13      14      14      13      14      14      13      14      14
      13      14      14      13      14      14      13      14      14      13
      14      14      13      14      14      13      14      14      13      14
      14      13      14      14      13      14      14      13      14      14
      13      14      14      13      14      14      13      14      14      13
      14      14      13      14      14      13      14      14      13      14
      14      13      14      14      13      14      14      13      14      14
      13      14      14      13      14      14      13      14      14      13
      14      14      13      14      14      13      14      14      13      14
      14      13      14      14      13      14      14      13      14      14
      13      14      14      13      14      14      13      14      14      13
      14      14      13      14      14      13      14      14      13      14
      14      13      14      14      13      14      14      13      14      14
      13      14      14      13      14      14      13      14      14      13
      14      14      13      14      14      13      14      14      13      14
      14      13      14      14      13      14      14      13      14      14
      13      14      14      13      14      14      13      14      14      13
      14      14      13      14      14      13      14      14      13      14
      14      13      14      14      13      14      14      13      14      14
      13      14      14      13      14      14      13      14      14      13
      14      14      13      14      14      13      14      14      13      14
      14      13      14      14      13      14      14      13      14      14
      13      14      14      13      14      14      13      14      14      13
      14      14      13      14      14      13      14      14      13      14
      14      13      14      14      13      14      14      13      14      14
      13      14      14      13      14      14      13      14      14      13
      14      14      13      14      14      13      14      14      13      14
      14      13      14      14      13      14      14      13      14      14
      13      14      14      13      14      14      13      14      14      13
      14      14      13      14      14      13      14      14      13      14
      14      13      14      14      13      14      14      13      14      14
      13      14      14      13      14      14      13      14      14      13
      14      14      13      14      14      13      14      14      13      14
      14      13      14      14      13      14      14      13      14      14
      13      14      14      13      14      14      13      14      14      13
      14      14      13      14      14      13      14      14      13      14
      14      13      14      14      13      14      14      13      14      14
      13      14      14      13      14      14      13      14      14      13
      14      14      13      14      14      13      14      14      13      14
      14      13      14      14      13      14      14      13      14      14
      13      14      14      13      14      14      13      14      14      13
      14      14      13      14      14      13      14      14      13      14
      14      13      14      14      13      14      14      13      14      14
      13      14      14      13      14      14      13      14      14      13
      14      14      13      14      14      13      14      14      13      14
      14      13      14      14      13      14      14      13      14      14
      13      14      14      13      14      14      13      14      14      13
      14      14      13      14      14      13      14      14      13      14
      14      13      14      14      13      14      14      13      14      14
      13      14      14      13      14      14      13      14      14      13
      14      14      13      14      14      13      14      14      13      14
      14      13      14      14      13      14      14      13      14      14
      13      14      14      13      14      14      13      14      14      13
      14      14      13      14      14      13      14      14      13      14
      14      13      14      14      13      14      14      13      14      14
      13      14      14      13      14      14      13      14      14      13
      14      14      13      14      14      13      14      14      13      14
      14      13      14      14      13      14      14      13      14      14
      13      14      14      13      14      14      13      14      14      13
      14      14      13      14      14      13      14      14      13      14
      14      13      14      14      13      14      14      13      14      14
      13      14      14      13      14      14      13      14      14      13
      14      14      13      14      14      13      14      14      13      14
      14      13      14      14      13      14      14      13      14      14
      13      14      14      13      14      14      13      14      14      13
      14      14      13      14      14      13      14      14      13      14
      14      13      14      14      13      14      14      13      14      14
      13      14      14      13      14      14      13      14      14      13
      14      14      13      14      14      13      14      14      13      14
      14      13      14      14      13      14      14      13      14      14
      13      14      14      13      14      14      13      14      14      13
      14      14      13      14      14      13      14      14      13      14
      14      13      14      14      13      14      14      13      14      14
      13      14      14      13      14      14      13      14      14      13
      14      14      13      14      14      13      14      14      13      14
      14      13      14      14      13      14      14      13      14      14
      13      14      14      13      14      14      13      14      14      13
      14      14      13      14      14      13      14      14      13      14
      14      13      14      14      13      14      14      13      14      14
      13      14      14      13      14      14      13      14      14      13
      14      14      13      14      14      13      14      14      13      14
      14      13      14      14      13      14      14      13      14      14
      13      14      14      13      14      14      13      14      14      13
      14      14      13      14      14      13      14      14      13      14
      14      13      14      14      13      14      14      13      14      14
      13      14      14      13      14      14      13      14      14      13
      14      14      13      14      14      13      14      14      13      14
      14      13      14      14      13      14      14      13      14      14
      13      14      14      13      14      14      13      14      14      13
      14      14      13      14      14      13      14      14      13      14
      14      13      14      14      13      14      14      13      14      14
      13      14      14      13      14      14      13      14      14      13
      14      14      13      14      14      13      14      14      13      14
      14      13      14      14      13      14      14      13      14      14
      13      14      14      13      14      14      13      14      14      13
      14      14      13      14      14      13      14      14      13      14
      14      13      14      14      13      14      14      13      14      14
      13      14      14      13      14      14      13      14      14      13
      14      14      13      14      14      13      14      14      13      14
      14      13      14      14      13      14      14      13      14      14
      13      14      14      13      14      14      13      14      14      13
      14      14      13      14      14      13      14      14      13      14
      14      13      14      14      13      14      14      13      14      14
      13      14      14      13      14      14      13      14      14      13
      14      14      13      14      14      13      14      14      13      14
      14      13      14      14      13      14      14      13      14      14
      13      14      14      13      14      14      13      14      14      13
      14      14      13      14      14      13      14      14      13      14
      14      13      14      14      13      14      14      13      14      14
      13      14      14      13      14      14      13      14      14      13
      14      14      13      14      14      13      14      14      13      14
      14      13      14      14      13      14      14      13      14      14
      13      14      14      13      14      14      13      14      14      13
      14      14      13      14      14      13      14      14      13      14
      14      13      14      14      13      14      14      13      14      14
      13      14      14      13      14      14      13      14      14      13
      14      14      13      14      14      13      14      14      13      14
      14      13      14      14      13      14      14      13      14      14
      13      14      14      13      14      14      13      14      14      13
      14      14      13      14      14      13      14      14      13      14
      14      13      14      14      13      14      14      13      14      14
      13      14      14      13      14      14      13      14      14      13
      14      14      13      14      14      13      14      14      13      14
      14      13      14      14      13      14      14      13      14      14
      13      14      14      13      14      14      13      14      14      13
      14      14      13      14      14      13      14      14      13      14
      14      13      14      14      13      14      14      13      14      14
      13      14      14      13      14      14      13      14      14      13
      14      14      13      14      14      13      14      14      13      14
      14      13      14      14      13      14      14      13      14      14
      13      14      14      13      14      14      13      14      14      13
      14      14      13      14      14      13      14      14      13      14
      14      13      14      14      13      14      14      13      14      14
      13      14      14      13      14      14      13      14      14      13
      14      14      13      14      14      13      14      14      13      14
      14      13      14      14      13      14      14      13      14      14
      13      14      14      13      14      14      13      14      14      13
      14      14      13      14      14      13      14      14      13      14
      14      13      14      14      13      14      14      13      14      14
      13      14      14      13      14      14      13      14      14      13
      14      14      13      14      14      13      14      14      13      14
      14      13      14      14      13      14      14      13      14      14
      13      14      14      13      14      14      13      14      14      13
      14      14      13      14      14      13      14      14      13      14
      14      13      14      14      13      14      14      13      14      14
      13      14      14      13      14      14      13      14      14      13
      14      14      13      14      14      13      14      14      13      14
      14      13      14      14      13      14      14      13      14      14
      13      14      14      13      14      14      13      14      14      13
      14      14      13      14      14      13      14      14      13      14
      14      13      14      14      13      14      14      13      14      14
      13      14      14      13      14      14      13      14      14      13
      14      14      13      14      14      13      14      14      13      14
      14      13      14      14      13      14      14      13      14      14
      13      14      14      13      14      14      13      14      14      13
      14      14      13      14      14      13      14      14      13      14
      14      13      14      14      13      14      14      13      14      14
      13      14      14      13      14      14      13      14      14      13
      14      14      13      14      14      13      14      14      13      14
      14      13      14      14      13      14      14      13      14      14
      13      14      14      13      14      14      13      14      14      13
      14      14      13      14      14      13      14      14      13      14
      14      13      14      14      13      14      14      13      14      14
      13      14      14      13      14      14      13      14      14      13
      14      14      13      14      14      13      14      14      13      14
      14      13      14      14      13      14      14      13      14      14
      13      14      14      13      14      14      13      14      14      13
      14      14      13      14      14      13      14      14      13      14
      14      13      14      14      13      14      14      13      14      14
      13      14      14      13      14      14      13      14      14      13
      14      14      13      14      14      13      14      14      13      14
      14      13      14      14      13      14      14      13      14      14
      13      14      14      13      14      14      13      14      14      13
      14      14      13      14      14      13      14      14      13      14
      14      13      14      14      13      14      14      13      14      14
      13      14      14      13      14      14      13      14      14      13
      14      14      13      14      14      13      14      14      13      14
      14      13      14      14      13      14      14      13      14      14
      13      14      14      13      14      14      13      14      14      13
      14      14      13      14      14      13      14      14      13      14
      14      13      14      14      13      14      14      13      14      14
      13      14      14      13      14      14      13      14      14      13
      14      14      13      14      14      13      14      14      13      14
      14      13      14      14      13      14      14      13      14      14
      13      14      14      13      14      14      13      14      14      13
      14      14      13      14      14      13      14      14      13      14
      14      13      14      14      13      14      14      13      14      14
      13      14      14      13      14      14      13      14      14      13
      14      14      13      14      14      13      14      14      13      14
      14      13      14      14      13      14      14      13      14      14
      13      14      14      13      14      14      13      14      14      13
      14      14      13      14      14      13      14      14      13      14
      14      13      14      14      13      14      14      13      14      14
      13      14      14      13      14      14      13      14      14      13
      14      14      13      14      14      13      14      14      13      14
      14      13      14      14      13      14      14      13      14      14
      13      14      14      13      14      14      13      14      14      13
      14      14      13      14      14      13      14      14      13      14
      14      13      14      14      13      14      14      13      14      14
      13      14      14      13      14      14      13      14      14      13
      14      14      13      14      14      13      14      14      13      14
      14      13      14      14      13      14      14      13      14      14
      13      14      14      13      14      14      13      14      14      13
      14      14      13      14      14      13      14      14      13      14
      14      13      14      14      13      14      14      13      14      14
      13      14      14      13      14      14      13      14      14      13
      14      14      13      14      14      13      14      14      13      14
      14      13      14      14      13      14      14      13      14      14
      13      14      14      13      14      14      13      14      14      13
      14      14      13      14      14      13      14      14      13      14
      14      13      14      14      13      14      14      13      14      14
      13      14      14      13      14      14      13      14      14      13
      14      14      13      14      14      13      14      14      13      14
      14      13      14      14      13      14      14      13      14      14
      13      14      14      13      14      14      13      14      14      13
      14      14      13      14      14      13      14      14      13      14
      14      13      14      14      13      14      14      13      14      14
      13      14      14      13      14      14      13      14      14      13
      14      14      13      14      14      13      14      14      13      14
      14      13      14      14      13      14      14      13      14      14
      13      14      14      13      14      14      13      14      14      13
      14      14      13      14      14      13      14      14      13      14
      14      13      14      14      13      14      14      13      14      14
      13      14      14      13      14      14      13      14      14      13
      14      14      13      14      14      13      14      14      13      14
      14      13      14      14      13      14      14      13      14      14
      13      14      14      13      14      14      13      14      14      13
      14      14      13      14      14      13      14      14      13      14
      14      13      14      14      13      14      14      13      14      14
      13      14      14      13      14      14      13      14      14      13
      14      14      13      14      14      13      14      14      13      14
      14      13      14      14      13      14      14      13      14      14
      13      14      14      13      14      14      13      14      14      13
      14      14      13      14      14      13      14      14      13      14
      14      13      14      14      13      14      14      13      14      14
      13      14      14      13      14      14      13      14      14      13
      14      14      13      14      14      13      14      14      13      14
      14      13      14      14      13      14      14      13      14      14
      13      14      14      13      14      14      13      14      14      13
      14      14      13      14      14      13      14      14      13      14
      14      13      14      14      13      14      14      13      14      14
      13      14      14      13      14      14      13      14      14      13
      14      14      13      14      14      13      14      14      13      14
      14      13      14      14      13      14      14      13      14      14
      13      14      14      13      14      14      13      14      14      13
      14      14      13      14      14      13      14      14      13      14
      14      13      14      14      13      14      14      13      14      14
      13      14      14      13      14      14      13      14      14      13
      14      14      13      14      14      13      14      14      13      14
      14      13      14      14      13      14      14      13      14      14
      13      14      14      13      14      14      13      14      14      13
      14      14      13      14      14      13      14      14      13      14
      14      13      14      14      13      14      14      13      14      14
      13      14      14      13      14      14      13      14      14      13
      14      14      13      14      14      13      14      14      13      14
      14      13      14      14      13      14      14      13      14      14
      13      14      14      13      14      14      13      14      14      13
      14      14      13      14      14      13      14      14      13      14
      14      13      14      14      13      14      14      13      14      14
      13      14      14      13      14      14      13      14      14      13
      14      14      13      14      14      13      14      14      13      14
      14      13      14      14      13      14      14      13      14      14
      13      14      14      13      14      14      13      14      14      13
      14      14      13      14      14      13      14      14      13      14
      14      13      14      14      13      14      14      13      14      14
      13      14      14      13      14      14      13      14      14      13
      14      14      13      14      14      13      14      14      13      14
      14      13      14      14      13      14      14      13      14      14
      13      14      14      13      14      14      13      14      14      13
      14      14      13      14      14      13      14      14      13      14
      14      13      14      14      13      14      14      13      14      14
      13      14      14      13      14      14      13      14      14      13
      14      14      13      14      14      13      14      14      13      14
      14      13      14      14      13      14      14      13      14      14
      13      14      14      13      14      14      13      14      14      13
      14      14      13      14      14      13      14      14      13      14
      14      13      14      14      13      14      14      13      14      14
      13      14      14      13      14      14      13      14      14      13
      14      14      13      14      14      13      14      14      13      14
      14      13      14      14      13      14      14      13      14      14
      13      14      14      13      14      14      13      14      14      13
      14      14      13      14      14      13      14      14      13      14
      14      13      14      14      13      14      14      13      14      14
      13      14      14      13      14      14      13      14      14      13
      14      14      13      14      14      13      14      14      13      14
      14      13      14      14      13      14      14      13      14      14
      13      14      14      13      14      14      13      14      14      13
      14      14      13      14      14      13      14      14      13      14
      14      13      14      14      13      14      14      13      14      14
      13      14      14      13      14      14      13      14      14      13
      14      14      13      14      14      13      14      14      13      14
      14      13      14      14      13      14      14      13      14      14
      13      14      14      13      14      14      13      14      14      13
      14      14      13      14      14      13      14      14      13      14
      14      13      14      14      13      14      14      13      14      14
      13      14      14      13      14      14      13      14      14      13
      14      14      13      14      14      13      14      14      13      14
      14      13      14      14      13      14      14      13      14      14
      13      14      14      13      14      14      13      14      14      13
      14      14      13      14      14      13      14      14      13      14
      14      13      14      14      13      14      14      13      14      14
      13      14      14      13      14      14      13      14      14      13
      14      14      13      14      14      13      14      14      13      14
      14      13      14      14      13      14      14      13      14      14
      13      14      14      13      14      14      13      14      14      13
      14      14      13      14      14      13      14      14      13      14
      14      13      14      14      13      14      14      13      14      14
      13      14      14      13      14      14      13      14      14      13
      14      14      13      14      14      13      14      14      13      14
      14      13      14      14      13      14      14      13      14      14
      13      14      14      13      14      14      13      14      14      13
      14      14      13      14      14      13      14      14      13      14
      14      13      14      14      13      14      14      13      14      14
      13      14      14      13      14      14      13      14      14      13
      14      14      13      14      14      13      14      14      13      14
      14      13      14      14      13      14      14      13      14      14
      13      14      14      13      14      14      13      14      14      13
      14      14      13      14      14      13      14      14      13      14
      14      13      14      14      13      14      14      13      14      14
      13      14      14      13      14      14      13      14      14      13
      14      14      13      14      14      13      14      14      13      14
      14      13      14      14      13      14      14      13      14      14
      13      14      14      13      14      14      13      14      14      13
      14      14      13      14      14      13      14      14      13      14
      14      13      14      14      13      14      14      13      14      14
      13      14      14      13      14      14      13      14      14      13
      14      14      13      14      14      13      14      14      13      14
      14      13      14      14      13      14      14      13      14      14
      13      14      14      13      14      14      13      14      14      13
      14      14      13      14      14      13      14      14      13      14
      14      13      14      14      13      14      14      13      14      14
      13      14      14      13      14      14      13      14      14      13
      14      14      13      14      14      13      14      14      13      14
      14      13      14      14      13      14      14      13      14      14
      13      14      14      13      14      14      13      14      14      13
      14      14      13      14      14      13      14      14      13      14
      14      13      14      14      13      14      14      13      14      14
      13      14      14      13      14      14      13      14      14      13
      14      14      13      14      14      13      14      14      13      14
      14      13      14      14      13      14      14      13      14      14
      13      14      14      13      14      14      13      14      14      13
      14      14      13      14      14      13      14      14      13      14
      14      13      14      14      13      14      14      13      14      14
      13      14      14      13      14      14      13      14      14      13
      14      14      13      14      14      13      14      14      13      14
      14      13      14      14      13      14      14      13      14      14
      13      14      14      13      14      14      13      14      14      13
      14      14      13      14      14      13      14      14      13      14
      14      13      14      14      13      14      14      13      14      14
      13      14      14      13      14      14      13      14      14      13
      14      14      13      14      14      13      14      14      13      14
      14      13      14      14      13      14      14      13      14      14
      13      14      14      13      14      14      13      14      14      13
      14      14      13      14      14      13      14      14      13      14
      14      13      14      14      13      14      14      13      14      14
      13      14      14      13      14      14      13      14      14      13
      14      14      13      14      14      13      14      14      13      14
      14      13      14      14      13      14      14      13      14      14
      13      14      14      13      14      14      13      14      14      13
      14      14      13      14      14      13      14      14      13      14
      14      13      14      14      13      14      14      13      14      14
      13      14      14      13      14      14      13      14      14      13
      14      14      13      14      14      13      14      14      13      14
      14      13      14      14      13      14      14      13      14      14
      13      14      14      13      14      14      13      14      14      13
      14      14      13      14      14      13      14      14      13      14
      14      13      14      14      13      14      14      13      14      14
      13      14      14      13      14      14      13      14      14      13
      14      14      13      14      14      13      14      14      13      14
      14      13      14      14      13      14      14      13      14      14
      13      14      14      13      14      14      13      14      14      13
      14      14      13      14      14      13      14      14      13      14
      14      13      14      14      13      14      14      13      14      14
      13      14      14      13      14      14      13      14      14      13
      14      14      13      14      14      13      14      14      13      14
      14      13      14      14      13      14      14      13      14      14
      13      14      14      13      14      14      13      14      14      13
      14      14      13      14      14      13      14      14      13      14
      14      13      14      14      13      14      14      13      14      14
      13      14      14      13      14      14      13      14      14      13
      14      14      13      14      14      13      14      14      13      14
      14      13      14      14      13      14      14      13      14      14
      13      14      14      13      14      14      13      14      14      13
      14      14      13      14      14      13      14      14      13      14
      14      13      14      14      13      14      14      13      14      14
      13      14      14      13      14      14      13      14      14      13
      14      14      13      14      14      13      14      14      13      14
      14      13      14      14      13      14      14      13      14      14
      13      14      14      13      14      14      13      14      14      13
      14      14      13      14      14      13      14      14      13      14
      14      13      14      14      13      14      14      13      14      14
      13      14      14      13      14      14      13      14      14      13
      14      14      13      14      14      13      14      14      13      14
      14      13      14      14      13      14      14      13      14      14
      13      14      14      13      14      14      13      14      14      13
      14      14      13      14      14      13      14      14      13      14
      14      13      14      14      13      14      14      13      14      14
      13      14      14      13      14      14      13      14      14      13
      14      14      13      14      14      13      14      14      13      14
      14      13      14      14      13      14      14      13      14      14
      13      14      14      13      14      14      13      14      14      13
      14      14      13      14      14      13      14      14      13      14
      14      13      14      14      13      14      14      13      14      14
      13      14      14      13      14      14      13      14      14      13
      14      14      13      14      14      13      14      14      13      14
      14      13      14      14      13      14      14      13      14      14
      13      14      14      13      14      14      13      14      14      13
      14      14      13      14      14      13      14      14      13      14
      14      13      14      14      13      14      14      13      14      14
      13      14      14      13      14      14      13      14      14      13
      14      14      13      14      14      13      14      14      13      14
      14      13      14      14      13      14      14      13      14      14
      13      14      14      13      14      14      13      14      14      13
      14      14      13      14      14      13      14      14      13      14
      14      13      14      14      13      14      14      13      14      14
      13      14      14      13      14      14      13      14      14      13
      14      14      13      14      14      13      14      14      13      14
      14      13      14      14      13      14      14      13      14      14
      13      14      14      13      14      14      13      14      14      13
      14      14      13      14      14      13      14      14      13      14
      14      13      14      14      13      14      14      13      14      14
      13      14      14      13      14      14      13      14      14      13
      14      14      13      14      14      13      14      14      13      14
      14      13      14      14      13      14      14      13      14      14
      13      14      14      13      14      14      13      14      14      13
      14      14      13      14      14      13      14      14      13      14
      14      13      14      14      13      14      14      13      14      14
      13      14      14      13      14      14      13      14      14      13
      14      14      13      14      14      13      14      14      13      14
      14      13      14      14      13      14      14      13      14      14
      13      14      14      13      14      14      13      14      14      13
      14      14      13      14      14      13      14      14      13      14
      14      13      14      14      13      14      14      13      14      14
      13      14      14      13      14      14      13      14      14      13
      14      14      13      14      14      13      14      14      13      14
      14      13      14      14      13      14      14      13      14      14
      13      14      14      13      14      14      13      14      14      13
      14      14      13      14      14      13      14      14      13      14
      14      13      14      14      13      14      14      13      14      14
      13      14      14      13      14      14      13      14      14      13
      14      14      13      14      14      13      14      14      13      14
      14      13      14      14      13      14      14      13      14      14
      13      14      14      13      14      14      13      14      14      13
      14      14      13      14      14      13      14      14      13      14
      14      13      14      14      13      14      14      13      14      14
      13      14      14      13      14      14      13      14      14      13
      14      14      13      14      14      13      14      14      13      14
      14      13      14      14      13      14      14      13      14      14
      13      14      14      13      14      14      13      14      14      13
      14      14      13      14      14      13      14      14      13      14
      14      13      14      14      13      14      14      13      14      14
      13      14      14      13      14      14      13      14      14      13
      14      14      13      14      14      13      14      14      13      14
      14      13      14      14      13      14      14      13      14      14
      13      14      14      13      14      14      13      14      14      13
      14      14      13      14      14      13      14      14      13      14
      14      13      14      14      13      14      14      13      14      14
      13      14      14      13      14      14      13      14      14      13
      14      14      13      14      14      13      14      14      13      14
      14      13      14      14      13      14      14      13      14      14
      13      14      14      13      14      14      13      14      14      13
      14      14      13      14      14      13      14      14      13      14
      14      13      14      14      13      14      14      13      14      14
      13      14      14      13      14      14      13      14      14      13
      14      14      13      14      14      13      14      14      13      14
      14      13      14      14      13      14      14      13      14      14
      13      14      14      13      14      14      13      14      14      13
      14      14      13      14      14      13      14      14      13      14
      14      13      14      14      13      14      14      13      14      14
      13      14      14      13      14      14      13      14      14      13
      14      14      13      14      14      13      14      14      13      14
      14      13      14      14      13      14      14      13      14      14
      13      14      14      13      14      14      13      14      14      13
      14      14      13      14      14      13      14      14      13      14
      14      13      14      14      13      14      14      13      14      14
      13      14      14      13      14      14      13      14      14      13
      14      14      13      14      14      13      14      14      13      14
      14      13      14      14      13      14      14      13      14      14
      13      14      14      13      14      14      13      14      14      13
      14      14      13      14      14      13      14      14      13      14
      14      13      14      14      13      14      14      13      14      14
      13      14      14      13      14      14      13      14      14      13
      14      14      13      14      14      13      14      14      13      14
      14      13      14      14      13      14      14      13      14      14
      13      14      14      13      14      14      13      14      14      13
      14      14      13      14      14      13      14      14      13      14
      14      13      14      14      13      14      14      13      14      14
      13      14      14      13      14      14      13      14      14      13
      14      14      13      14      14      13      14      14      13      14
      14      13      14      14      13      14      14      13      14      14
      13      14      14      13      14      14      13      14      14      13
      14      14      13      14      14      13      14      14      13      14
      14      13      14      14      13      14      14      13      14      14
      13      14      14      13      14      14      13      14      14      13
      14      14      13      14      14      13      14      14      13      14
      14      13      14      14      13      14      14      13      14      14
      13      14      14      13      14      14      13      14      14      13
      14      14      13      14      14      13      14      14      13      14
      14      13      14      14      13      14      14      13      14      14
      13      14      14      13      14      14      13      14      14      13
      14      14      13      14      14      13      14      14      13      14
      14      13      14      14      13      14      14      13      14      14
      13      14      14      13      14      14      13      14      14      13
      14      14      13      14      14      13      14      14      13      14
      14      13      14      14      13      14      14      13      14      14
      13      14      14      13      14      14      13      14      14      13
      14      14      13      14      14      13      14      14      13      14
      14      13      14      14      13      14      14      13      14      14
      13      14      14      13      14      14      13      14      14      13
      14      14      13      14      14      13      14      14      13      14
      14      13      14      14      13      14      14      13      14      14
      13      14      14      13      14      14      13      14      14      13
      14      14      13      14      14      13      14      14      13      14
      14      13      14      14      13      14      14      13      14      14
      13      14      14      13      14      14      13      14      14      13
      14      14      13      14      14      13      14      14      13      14
      14      13      14      14      13      14      14      13      14      14
      13      14      14      13      14      14      13      14      14      13
      14      14      13      14      14      13      14      14      13      14
      14      13      14      14      13      14      14      13      14      14
      13      14      14      13      14      14      13      14      14      13
      14      14      13      14      14      13      14      14      13      14
      14      13      14      14      13      14      14      13      14      14
      13      14      14      13      14      14      13      14      14      13
      14      14      13      14      14      13      14      14      13      14
      14      13      14      14      13      14      14      13      14      14
      13      14      14      13      14      14      13      14      14      13
      14      14      13      14      14      13      14      14      13      14
      14      13      14      14      13      14      14      13      14      14
      13      14      14      13      14      14      13      14      14      13
      14      14      13      14      14      13      14      14      13      14
      14      13      14      14      13      14      14      13      14      14
      13      14      14      13      14      14      13      14      14      13
      14      14      13      14      14      13      14      14      13      14
      14      13      14      14      13      14      14      13      14      14
      13      14      14      13      14      14      13      14      14      13
      14      14      13      14      14      13      14      14      13      14
      14      13      14      14      13      14      14      13      14      14
      13      14      14      13      14      14      13      14      14      13
      14      14      13      14      14      13      14      14      13      14
      14      13      14      14      13      14      14      13      14      14
      13      14      14      13      14      14      13      14      14      13
      14      14      13      14      14      13      14      14      13      14
      14      13      14      14      13      14      14      13      14      14
      13      14      14      13      14      14      13      14      14      13
      14      14      13      14      14      13      14      14      13      14
      14      13      14      14      13      14      14      13      14      14
      13      14      14      13      14      14      13      14      14      13
      14      14      13      14      14      13      14      14      13      14
      14      13      14      14      13      14      14      13      14      14
      13      14      14      13      14      14      13      14      14      13
      14      14      13      14      14      13      14      14      13      14
      14      13      14      14      13      14      14      13      14      14
      13      14      14      13      14      14      13      14      14      13
      14      14      13      14      14      13      14      14      13      14
      14      13      14      14      13      14      14      13      14      14
      13      14      14      13      14      14      13      14      14      13
      14      14      13      14      14      13      14      14      13      14
      14      13      14      14      13      14      14      13      14      14
      13      14      14      13      14      14      13      14      14      13
      14      14      13      14      14      13      14      14      13      14
      14      13      14      14      13      14      14      13      14      14
      13      14      14      13      14      14      13      14      14      13
      14      14      13      14      14      13      14      14      13      14
      14      13      14      14      13      14      14      13      14      14
      13      14      14      13      14      14      13      14      14      13
      14      14      13      14      14      13      14      14      13      14
      14      13      14      14      13      14      14      13      14      14
      13      14      14      13      14      14      13      14      14      13
      14      14      13      14      14      13      14      14      13      14
      14      13      14      14      13      14      14      13      14      14
      13      14      14      13      14      14      13      14      14      13
      14      14      13      14      14      13      14      14      13      14
      14      13      14      14      13      14      14      13      14      14
      13      14      14      13      14      14      13      14      14      13
      14      14      13      14      14      13      14      14      13      14
      14      13      14      14      13      14      14      13      14      14
      13      14      14      13      14      14      13      14      14      13
      14      14      13      14      14      13      14      14      13      14
      14      13      14      14      13      14      14      13      14      14
      13      14      14      13      14      14      13      14      14      13
      14      14      13      14      14      13      14      14      13      14
      14      13      14      14      13      14      14      13      14      14
      13      14      14      13      14      14      13      14      14      13
      14      14      13      14      14      13      14      14      13      14
      14      13      14      14      13      14      14      13      14      14
      13      14      14      13      14      14      13      14      14      13
      14      14      13      14      14      13      14      14      13      14
      14      13      14      14      13      14      14      13      14      14
      13      14      14      13      14      14      13      14      14      13
      14      14      13      14      14      13      14      14      13      14
      14      13      14      14      13      14      14      13      14      14
      13      14      14      13      14      14      13      14      14      13
      14      14      13      14      14      13      14      14      13      14
      14      13      14      14      13      14      14      13      14      14
      13      14      14      13      14      14      13      14      14      13
      14      14      13      14      14      13      14      14      13      14
      14      13      14      14      13      14      14      13      14      14
      13      14      14      13      14      14      13      14      14      13
      14      14      13      14      14      13      14      14      13      14
      14      13      14      14      13      14      14      13      14      14
      13      14      14      13      14      14      13      14      14      13
      14      14      13      14      14      13      14      14      13      14
      14      13      14      14      13      14      14      13      14      14
      13      14      14      13      14      14      13      14      14      13
      14      14      13      14      14      13      14      14      13      14
      14      13      14      14      13      14      14      13      14      14
      13      14      14      13      14      14      13      14      14      13
      14      14      13      14      14      13      14      14      13      14
      14      13      14      14      13      14      14      13      14      14
      13      14      14      13      14      14      13      14      14      13
      14      14      13      14      14      13      14      14      13      14
      14      13      14      14      13      14      14      13      14      14
      13      14      14      13      14      14      13      14      14      13
      14      14      13      14      14      13      14      14      13      14
      14      13      14      14      13      14      14      13      14      14
      13      14      14      13      14      14      13      14      14      13
      14      14      13      14      14      13      14      14      13      14
      14      13      14      14      13      14      14      13      14      14
      13      14      14      13      14      14      13      14      14      13
      14      14      13      14      14      13      14      14      13      14
      14      13      14      14      13      14      14      13      14      14
      13      14      14      13      14      14      13      14      14      13
      14      14      13      14      14      13      14      14      13      14
      14      13      14      14      13      14      14      13      14      14
      13      14      14      13      14      14      13      14      14      13
      14      14      13      14      14      13      14      14      13      14
      14      13      14      14      13      14      14      13      14      14
      13      14      14      13      14      14      13      14      14      13
      14      14      13      14      14      13      14      14      13      14
      14      13      14      14      13      14      14      13      14      14
      13      14      14      13      14      14      13      14      14      13
      14      14      13      14      14      13      14      14      13      14
      14      13      14      14      13      14      14      13      14      14
      13      14      14      13      14      14      13      14      14      13
      14      14      13      14      14      13      14      14      13      14
      14      13      14      14      13      14      14      13      14      14
      13      14      14      13      14      14      13      14      14      13
      14      14      13      14      14      13      14      14      13      14
      14      13      14      14      13      14      14      13      14      14
      13      14      14      13      14      14      13      14      14      13
      14      14      13      14      14      13      14      14      13      14
      14      13      14      14      13      14      14      13      14      14
      13      14      14      13      14      14      13      14      14      13
      14      14      13      14      14      13      14      14      13      14
      14      13      14      14      13      14      14      13      14      14
      13      14      14      13      14      14      13      14      14      13
      14      14      13      14      14      13      14      14      13      14
      14      13      14      14      13      14      14      13      14      14
      13      14      14      13      14      14      13      14      14      13
      14      14      13      14      14      13      14      14      13      14
      14      13      14      14      13      14      14      13      14      14
      13      14      14      13      14      14      13      14      14      13
      14      14      13      14      14      13      14      14      13      14
      14      13      14      14      13      14      14      13      14      14
      13      14      14      13      14      14      13      14      14      13
      14      14      13      14      14      13      14      14      13      14
      14      13      14      14      13      14      14      13      14      14
      13      14      14      13      14      14      13      14      14      13
      14      14      13      14      14      13      14      14      13      14
      14      13      14      14      13      14      14      13      14      14
      13      14      14      13      14      14      13      14      14      13
      14      14      13      14      14      13      14      14      13      14
      14      13      14      14      13      14      14      13      14      14
      13      14      14      13      14      14      13      14      14      13
      14      14      13      14      14      13      14      14      13      14
      14      13      14      14      13      14      14      13      14      14
      13      14      14      13      14      14      13      14      14      13
      14      14      13      14      14      13      14      14      13      14
      14      13      14      14      13      14      14      13      14      14
      13      14      14      13      14      14      13      14      14      13
      14      14      13      14      14      13      14      14      13      14
      14      13      14      14      13      14      14      13      14      14
      13      14      14      13      14      14      13      14      14      13
      14      14      13      14      14      13      14      14      13      14
      14      13      14      14      13      14      14      13      14      14
      13      14      14      13      14      14      13      14      14      13
      14      14      13      14      14      13      14      14      13      14
      14      13      14      14      13      14      14      13      14      14
      13      14      14      13      14      14      13      14      14      13
      14      14      13      14      14      13      14      14      13      14
      14      13      14      14      13      14      14      13      14      14
      13      14      14      13      14      14      13      14      14      13
      14      14      13      14      14      13      14      14      13      14
      14      13      14      14      13      14      14      13      14      14
      13      14      14      13      14      14      13      14      14      13
      14      14      13      14      14      13      14      14      13      14
      14      13      14      14      13      14      14      13      14      14
      13      14      14      13      14      14      13      14      14      13
      14      14      13      14      14      13      14      14      13      14
      14      13      14      14      13      14      14      13      14      14
      13      14      14      13      14      14      13      14      14      13
      14      14      13      14      14      13      14      14      13      14
      14      13      14      14      13      14      14      13      14      14
      13      14      14      13      14      14      13      14      14      13
      14      14      13      14      14      13      14      14      13      14
      14      13      14      14      13      14      14      13      14      14
      13      14      14      13      14      14      13      14      14      13
      14      14      13      14      14      13      14      14      13      14
      14      13      14      14      13      14      14      13      14      14
      13      14      14      13      14      14      13      14      14      13
      14      14      13      14      14      13      14      14      13      14
      14      13      14      14      13      14      14      13      14      14
      13      14      14      13      14      14      13      14      14      13
      14      14      13      14      14      13      14      14      13      14
      14      13      14      14      13      14      14      13      14      14
      13      14      14      13      14      14      13      14      14      13
      14      14      13      14      14      13      14      14      13      14
      14      13      14      14      13      14      14      13      14      14
      13      14      14      13      14      14      13      14      14      13
      14      14      13      14      14      13      14      14      13      14
      14      13      14      14      13      14      14      13      14      14
      13      14      14      13      14      14      13      14      14      13
      14      14      13      14      14      13      14      14      13      14
      14      13      14      14      13      14      14      13      14      14
      13      14      14      13      14      14      13      14      14      13
      14      14      13      14      14      13      14      14      13      14
      14      13      14      14      13      14      14      13      14      14
      13      14      14      13      14      14      13      14      14      13
      14      14      13      14      14      13      14      14      13      14
      14      13      14      14      13      14      14      13      14      14
      13      14      14      13      14      14      13      14      14      13
      14      14      13      14      14      13      14      14      13      14
      14      13      14      14      13      14      14      13      14      14
      13      14      14      13      14      14      13      14      14      13
      14      14      13      14      14      13      14      14      13      14
      14      13      14      14      13      14      14      13      14      14
      13      14      14      13      14      14      13      14      14      13
      14      14      13      14      14      13      14      14      13      14
      14      13      14      14      13      14      14      13      14      14
      13      14      14      13      14      14      13      14      14      13
      14      14      13      14      14      13      14      14      13      14
      14      13      14      14      13      14      14      13      14      14
      13      14      14      13      14      14      13      14      14      13
      14      14      13      14      14      13      14      14      13      14
      14      13      14      14      13      14      14      13      14      14
      13      14      14      13      14      14      13      14      14      13
      14      14      13      14      14      13      14      14      13      14
      14      13      14      14      13      14      14      13      14      14
      13      14      14      13      14      14      13      14      14      13
      14      14      13      14      14      13      14      14      13      14
      14      13      14      14      13      14      14      13      14      14
      13      14      14      13      14      14      13      14      14      13
      14      14      13      14      14      13      14      14      13      14
      14      13      14      14      13      14      14      13      14      14
      13      14      14      13      14      14      13      14      14      13
      14      14      13      14      14      13      14      14      13      14
      14      13      14      14      13      14      14      13      14      14
      13      14      14      13      14      14      13      14      14      13
      14      14      13      14      14      13      14      14      13      14
      14      13      14      14      13      14      14      13      14      14
      13      14      14      13      14      14      13      14      14      13
      14      14      13      14      14      13      14      14      13      14
      14      13      14      14      13      14      14      13      14      14
      13      14      14      13      14      14      13      14      14      13
      14      14      13      14      14      13      14      14      13      14
      14      13      14      14      13      14      14      13      14      14
      13      14      14      13      14      14      13      14      14      13
      14      14      13      14      14      13      14      14      13      14
      14      13      14      14      13      14      14      13      14      14
      13      14      14      13      14      14      13      14      14      13
      14      14      13      14      14      13      14      14      13      14
      14      13      14      14      13      14      14      13      14      14
      13      14      14      13      14      14      13      14      14      13
      14      14      13      14      14      13      14      14      13      14
      14      13      14      14      13      14      14      13      14      14
      13      14      14      13      14      14      13      14      14      13
      14      14      13      14      14      13      14      14      13      14
      14      13      14      14      13      14      14      13      14      14
      13      14      14      13      14      14      13      14      14      13
      14      14      13      14      14      13      14      14      13      14
      14      13      14      14      13      14      14      13      14      14
      13      14      14      13      14      14      13      14      14      13
      14      14      13      14      14      13      14      14      13      14
      14      13      14      14      13      14      14      13      14      14
      13      14      14      13      14      14      13      14      14      13
      14      14      13      14      14      13      14      14      13      14
      14      13      14      14      13      14      14      13      14      14
      13      14      14      13      14      14      13      14      14      13
      14      14      13      14      14      13      14      14      13      14
      14      13      14      14      13      14      14      13      14      14
      13      14      14      13      14      14      13      14      14      13
      14      14      13      14      14      13      14      14      13      14
      14      13      14      14      13      14      14      13      14      14
      13      14      14      13      14      14      13      14      14      13
      14      14      13      14      14      13      14      14      13      14
      14      13      14      14      13      14      14      13      14      14
      13      14      14      13      14      14      13      14      14      13
      14      14      13      14      14      13      14      14      13      14
      14      13      14      14      13      14      14      13      14      14
      13      14      14      13      14      14      13      14      14      13
      14      14      13      14      14      13      14      14      13      14
      14      13      14      14      13      14      14      13      14      14
      13      14      14      13      14      14      13      14      14      13
      14      14      13      14      14      13      14      14      13      14
      14      13      14      14      13      14      14      13      14      14
      13      14      14      13      14      14      13      14      14      13
      14      14      13      14      14      13      14      14      13      14
      14      13      14      14      13      14      14      13      14      14
      13      14      14      13      14      14      13      14      14      13
      14      14      13      14      14      13      14      14      13      14
      14      13      14      14      13      14      14      13      14      14
      13      14      14      13      14      14      13      14      14      13
      14      14      13      14      14      13      14      14      13      14
      14      13      14      14      13      14      14      13      14      14
      13      14      14      13      14      14      13      14      14      13
      14      14      13      14      14      13      14      14      13      14
      14      13      14      14      13      14      14      13      14      14
      13      14      14      13      14      14      13      14      14      13
      14      14      13      14      14      13      14      14      13      14
      14      13      14      14      13      14      14      13      14      14
      13      14      14      13      14      14      13      14      14      13
      14      14      13      14      14      13      14      14      13      14
      14      13      14      14      13      14      14      13      14      14
      13      14      14      13      14      14      13      14      14      13
      14      14      13      14      14      13      14      14      13      14
      14      13      14      14      13      14      14      13      14      14
      13      14      14      13      14      14      13      14      14      13
      14      14      13      14      14      13      14      14      13      14
      14      13      14      14      13      14      14      13      14      14
      13      14      14      13      14      14      13      14      14      13
      14      14      13      14      14      13      14      14      13      14
      14      13      14      14      13      14      14      13      14      14
      13      14      14      13      14      14      13      14      14      13
      14      14      13      14      14      13      14      14      13      14
      14      13      14      14      13      14      14      13      14      14
      13      14      14      13      14      14      13      14      14      13
      14      14      13      14      14      13      14      14      13      14
      14      13      14      14      13      14      14      13      14      14
      13      14      14      13      14      14      13      14      14      13
      14      14      13      14      14      13      14      14      13      14
      14      13      14      14      13      14      14      13      14      14
      13      14      14      13      14      14      13      14      14      13
      14      14      13      14      14      13      14      14      13      14
      14      13      14      14      13      14      14      13      14      14
      13      14      14      13      14      14      13      14      14      13
      14      14      13      14      14      13      14      14      13      14
      14      13      14      14      13      14      14      13      14      14
      13      14      14      13      14      14      13      14      14      13
      14      14      13      14      14      13      14      14      13      14
      14      13      14      14      13      14      14      13      14      14
      13      14      14      13      14      14      13      14      14      13
      14      14      13      14      14      13      14      14      13      14
      14      13      14      14      13      14      14      13      14      14
      13      14      14      13      14      14      13      14      14      13
      14      14      13      14      14      13      14      14      13      14
      14      13      14      14      13      14      14      13      14      14
      13      14      14      13      14      14      13      14      14      13
      14      14      13      14      14      13      14      14      13      14
      14      13      14      14      13      14      14      13      14      14
      13      14      14      13      14      14      13      14      14      13
      14      14      13      14      14      13      14      14      13      14
      14      13      14      14      13      14      14      13      14      14
      13      14      14      13      14      14      13      14      14      13
      14      14      13      14      14      13      14      14      13      14
      14      13      14      14      13      14      14      13      14      14
      13      14      14      13      14      14      13      14      14      13
      14      14      13      14      14      13      14      14      13      14
      14      13      14      14      13      14      14      13      14      14
      13      14      14      13      14      14      13      14      14      13
      14      14      13      14      14      13      14      14      13      14
      14      13      14      14      13      14      14      13      14      14
      13      14      14      13      14      14      13      14      14      13
      14      14      13      14      14      13      14      14      13      14
      14      13      14      14      13      14      14      13      14      14
      13      14      14      13      14      14      13      14      14      13
      14      14      13      14      14      13      14      14      13      14
      14      13      14      14      13      14      14      13      14      14
      13      14      14      13      14      14      13      14      14      13
      14      14      13      14      14      13      14      14      13      14
      14      13      14      14      13      14      14      13      14      14
      13      14      14      13      14      14      13      14      14      13
      14      14      13      14      14      13      14      14      13      14
      14      13      14      14      13      14      14      13      14      14
      13      14      14      13      14      14      13      14      14      13
      14      14      13      14      14      13      14      14      13      14
      14      13      14      14      13      14      14      13      14      14
      13      14      14      13      14      14      13      14      14      13
      14      14      13      14      14      13      14      14      13      14
      14      13      14      14      13      14      14      13      14      14
      13      14      14      13      14      14      13      14      14      13
      14      14      13      14      14      13      14      14      13      14
      14      13      14      14      13      14      14      13      14      14
      13      14      14      13      14      14      13      14      14      13
      14      14      13      14      14      13      14      14      13      14
      14      13      14      14      13      14      14      13      14      14
      13      14      14      13      14      14      13      14      14      13
      14      14      13      14      14      13      14      14      13      14
      14      13      14      14      13      14      14      13      14      14
      13      14      14      13      14      14      13      14      14      13
      14      14      13      14      14      13      14      14      13      14
      14      13      14      14      13      14      14      13      14      14
      13      14      14      13      14      14      13      14      14      13
      14      14      13      14      14      13      14      14      13      14
      14      13      14      14      13      14      14      13      14      14
      13      14      14      13      14      14      13      14      14      13
      14      14      13      14      14      13      14      14      13      14
      14      13      14      14      13      14      14      13      14      14
      13      14      14      13      14      14      13      14      14      13
      14      14      13      14      14      13      14      14      13      14
      14      13      14      14      13      14      14      13      14      14
      13      14      14      13      14      14      13      14      14      13
      14      14      13      14      14      13      14      14      13      14
      14      13      14      14      13      14      14      13      14      14
      13      14      14      13      14      14      13      14      14      13
      14      14      13      14      14      13      14      14      13      14
      14      13      14      14      13      14      14      13      14      14
      13      14      14      13      14      14      13      14      14      13
      14      14      13      14      14      13      14      14      13      14
      14      13      14      14      13      14      14      13      14      14
      13      14      14      13      14      14      13      14      14      13
      14      14      13      14      14      13      14      14      13      14
      14      13      14      14      13      14      14      13      14      14
      13      14      14      13      14      14      13      14      14      13
      14      14      13      14      14      13      14      14      13      14
      14      13      14      14      13      14      14      13      14      14
      13      14      14      13      14      14      13      14      14      13
      14      14      13      14      14      13      14      14      13      14
      14      13      14      14      13      14      14      13      14      14
      13      14      14      13      14      14      13      14      14      13
      14      14      13      14      14      13      14      14      13      14
      14      13      14      14      13      14      14      13      14      14
      13      14      14      13      14      14      13      14      14      13
      14      14      13      14      14      13      14      14      13      14
      14      13      14      14      13      14      14      13      14      14
      13      14      14      13      14      14      13      14      14      13
      14      14      13      14      14      13      14      14      13      14
      14      13      14      14      13      14      14      13      14      14
      13      14      14      13      14      14      13      14      14      13
      14      14      13      14      14      13      14      14      13      14
      14      13      14      14      13      14      14      13      14      14
      13      14      14      13      14      14      13      14      14      13
      14      14      13      14      14      13      14      14      13      14
      14      13      14      14      13      14      14      13      14      14
      13      14      14      13      14      14      13      14      14      13
      14      14      13      14      14      13      14      14      13      14
      14      13      14      14      13      14      14      13      14      14
      13      14      14      13      14      14      13      14      14      13
      14      14      13      14      14      13      14      14      13      14
      14      13      14      14      13      14      14      13      14      14
      13      14      14      13      14      14      13      14      14      13
      14      14      13      14      14      13      14      14      13      14
      14      13      14      14      13      14      14      13      14      14
      13      14      14      13      14      14      13      14      14      13
      14      14      13      14      14      13      14      14      13      14
      14      13      14      14      13      14      14      13      14      14
      13      14      14      13      14      14      13      14      14      13
      14      14      13      14      14      13      14      14      13      14
      14      13      14      14      13      14      14      13      14      14
      13      14      14      13      14      14      13      14      14      13
      14      14      13      14      14      13      14      14      13      14
      14      13      14      14      13      14      14      13      14      14
      13      14      14      13      14      14      13      14      14      13
      14      14      13      14      14      13      14      14      13      14
      14      13      14      14      13      14      14      13      14      14
      13      14      14      13      14      14      13      14      14      13
      14      14      13      14      14      13      14      14      13      14
      14      13      14      14      13      14      14      13      14      14
      13      14      14      13      14      14      13      14      14      13
      14      14      13      14      14      13      14      14      13      14
      14      13      14      14      13      14      14      13      14      14
      13      14      14      13      14      14      13      14      14      13
      14      14      13      14      14      13      14      14      13      14
      14      13      14      14      13      14      14      13      14      14
      13      14      14      13      14      14      13      14      14      13
      14      14      13      14      14      13      14      14      13      14
      14      13      14      14      13      14      14      13      14      14
      13      14      14      13      14      14      13      14      14      13
      14      14      13      14      14      13      14      14      13      14
      14      13      14      14      13      14      14      13      14      14
      13      14      14      13      14      14      13      14      14      13
      14      14      13      14      14      13      14      14      13      14
      14      13      14      14      13      14      14      13      14      14
      13      14      14      13      14      14      13      14      14      13
      14      14      13      14      14      13      14      14      13      14
      14      13      14      14      13      14      14      13      14      14
      13      14      14      13      14      14      13      14      14      13
      14      14      13      14      14      13      14      14      13      14
      14      13      14      14      13      14      14      13      14      14
      13      14      14      13      14      14      13      14      14      13
      14      14      13      14      14      13      14      14      13      14
      14      13      14      14      13      14      14      13      14      14
      13      14      14      13      14      14      13      14      14      13
      14      14      13      14      14      13      14      14      13      14
      14      13      14      14      13      14      14      13      14      14
      13      14      14      13      14      14      13      14      14      13
      14      14      13      14      14      13      14      14      13      14
      14      13      14      14      13      14      14      13      14      14
      13      14      14      13      14      14      13      14      14      13
      14      14      13      14      14      13      14      14      13      14
      14      13      14      14      13      14      14      13      14      14
      13      14      14      13      14      14      13      14      14      13
      14      14      13      14      14      13      14      14      13      14
      14      13      14      14      13      14      14      13      14      14
      13      14      14      13      14      14      13      14      14      13
      14      14      13      14      14      13      14      14      13      14
      14      13      14      14      13      14      14      13      14      14
      13      14      14      13      14      14      13      14      14      13
      14      14      13      14      14      13      14      14      13      14
      14      13      14      14      13      14      14      13      14      14
      13      14      14      13      14      14      13      14      14      13
      14      14      13      14      14      13      14      14      13      14
      14      13      14      14      13      14      14      13      14      14
      13      14      14      13      14      14      13      14      14      13
      14      14      13      14      14      13      14      14      13      14
      14      13      14      14      13      14      14      13      14      14
      13      14      14      13      14      14      13      14      14      13
      14      14      13      14      14      13      14      14      13      14
      14      13      14      14      13      14      14      13      14      14
      13      14      14      13      14      14      13      14      14      13
      14      14      13      14      14      13      14      14      13      14
      14      13      14      14      13      14      14      13      14      14
      13      14      14      13      14      14      13      14      14      13
      14      14      13      14      14      13      14      14      13      14
      14      13      14      14      13      14      14      13      14      14
      13      14      14      13      14      14      13      14      14      13
      14      14      13      14      14      13      14      14      13      14
      14      13      14      14      13      14      14      13      14      14
      13      14      14      13      14      14      13      14      14      13
      14      14      13      14      14      13      14      14      13      14
      14      13      14      14      13      14      14      13      14      14
      13      14      14      13      14      14      13      14      14      13
      14      14      13      14      14      13      14      14      13      14
      14      13      14      14      13      14      14      13      14      14
      13      14      14      13      14      14      13      14      14      13
      14      14      13      14      14      13      14      14      13      14
      14      13      14      14      13      14      14      13      14      14
      13      14      14      13      14      14      13      14      14      13
      14      14      13      14      14      13      14      14      13      14
      14      13      14      14      13      14      14      13      14      14
      13      14      14      13      14      14      13      14      14      13
      14      14      13      14      14      13      14      14      13      14
      14      13      14      14      13      14      14      13      14      14
      13      14      14      13      14      14      13      14      14      13
      14      14      13      14      14      13      14      14      13      14
      14      13      14      14      13      14      14      13      14      14
      13      14      14      13      14      14      13      14      14      13
      14      14      13      14      14      13      14      14      13      14
      14      13      14      14      13      14      14      13      14      14
      13      14      14      13      14      14      13      14      14      13
      14      14      13      14      14      13      14      14      13      14
      14      13      14      14      13      14      14      13      14      14
      13      14      14      13      14      14      13      14      14      13
      14      14      13      14      14      13      14      14      13      14
      14      13      14      14      13      14      14      13      14      14
      13      14      14      13      14      14      13      14      14      13
      14      14      13      14      14      13      14      14      13      14
      14      13      14      14      13      14      14      13      14      14
      13      14      14      13      14      14      13      14      14      13
      14      14      13      14      14      13      14      14      13      14
      14      13      14      14      13      14      14      13      14      14
      13      14      14      13      14      14      13      14      14      13
      14      14      13      14      14      13      14      14      13      14
      14      13      14      14      13      14      14      13      14      14
      13      14      14      13      14      14      13      14      14      13
      14      14      13      14      14      13      14      14      13      14
      14      13      14      14      13      14      14      13      14      14
      13      14      14      13      14      14      13      14      14      13
      14      14      13      14      14      13      14      14      13      14
      14      13      14      14      13      14      14      13      14      14
      13      14      14      13      14      14      13      14      14      13
      14      14      13      14      14      13      14      14      13      14
      14      13      14      14      13      14      14      13      14      14
      13      14      14      13      14      14      13      14      14      13
      14      14      13      14      14      13      14      14      13      14
      14      13      14      14      13      14      14      13      14      14
      13      14      14      13      14      14      13      14      14      13
      14      14      13      14      14      13      14      14      13      14
      14      13      14      14      13      14      14      13      14      14
      13      14      14      13      14      14      13      14      14      13
      14      14      13      14      14      13      14      14      13      14
      14      13      14      14      13      14      14      13      14      14
      13      14      14      13      14      14      13      14      14      13
      14      14      13      14      14      13      14      14      13      14
      14      13      14      14      13      14      14      13      14      14
      13      14      14      13      14      14      13      14      14      13
      14      14      13      14      14      13      14      14      13      14
      14      13      14      14      13      14      14      13      14      14
      13      14      14      13      14      14      13      14      14      13
      14      14      13      14      14      13      14      14      13      14
      14      13      14      14      13      14      14      13      14      14
      13      14      14      13      14      14      13      14      14      13
      14      14      13      14      14      13      14      14      13      14
      14      13      14      14      13      14      14      13      14      14
      13      14      14      13      14      14      13      14      14      13
      14      14      13      14      14      13      14      14      13      14
      14      13      14      14      13      14      14      13      14      14
      13      14      14      13      14      14      13      14      14      13
      14      14      13      14      14      13      14      14      13      14
      14      13      14      14      13      14      14      13      14      14
      13      14      14      13      14      14      13      14      14      13
      14      14      13      14      14      13      14      14      13      14
      14      13      14      14      13      14      14      13      14      14
      13      14      14      13      14      14      13      14      14      13
      14      14      13      14      14      13      14      14      13      14
      14      13      14      14      13      14      14      13      14      14
      13      14      14      13      14      14      13      14      14      13
      14      14      13      14      14      13      14      14      13      14
      14      13      14      14      13      14      14      13      14      14
      13      14      14      13      14      14      13      14      14      13
      14      14      13      14      14      13      14      14      13      14
      14      13      14      14      13      14      14      13      14      14
      13      14      14      13      14      14      13      14      14      13
      14      14      13      14      14      13      14      14      13      14
      14      13      14      14      13      14      14      13      14      14
      13      14      14      13      14      14      13      14      14      13
      14      14      13      14      14      13      14      14      13      14
      14      13      14      14      13      14      14      13      14      14
      13      14      14      13      14      14      13      14      14      13
      14      14      13      14      14      13      14      14      13      14
      14      13      14      14      13      14      14      13      14      14
      13      14      14      13      14      14      13      14      14      13
      14      14      13      14      14      13      14      14      13      14
      14      13      14      14      13      14      14      13      14      14
      13      14      14      13      14      14      13      14      14      13
      14      14      13      14      14      13      14      14      13      14
      14      13      14      14      13      14      14      13      14      14
      13      14      14      13      14      14      13      14      14      13
      14      14      13      14      14      13      14      14      13      14
      14      13      14      14      13      14      14      13      14      14
      13      14      14      13      14      14      13      14      14      13
      14      14      13      14      14      13      14      14      13      14
      14      13      14      14      13      14      14      13      14      14
      13      14      14      13      14      14      13      14      14      13
      14      14      13      14      14      13      14      14      13      14
      14      13      14      14      13      14      14      13      14      14
      13      14      14      13      14      14      13      14      14      13
      14      14      13      14      14      13      14      14      13      14
      14      13      14      14      13      14      14      13      14      14
      13      14      14      13      14      14      13      14      14      13
      14      14      13      14      14      13      14      14      13      14
      14      13      14      14      13      14      14      13      14      14
      13      14      14      13      14      14      13      14      14      13
      14      14      13      14      14      13      14      14      13      14
      14      13      14      14      13      14      14      13      14      14
      13      14      14      13      14      14      13      14      14      13
      14      14      13      14      14      13      14      14      13      14
      14      13      14      14      13      14      14      13      14      14
      13      14      14      13      14      14      13      14      14      13
      14      14      13      14      14      13      14      14      13      14
      14      13      14      14      13      14      14      13      14      14
      13      14      14      13      14      14      13      14      14      13
      14      14      13      14      14      13      14      14      13      14
      14      13      14      14      13      14      14      13      14      14
      13      14      14      13      14      14      13      14      14      13
      14      14      13      14      14      13      14      14      13      14
      14      13      14      14      13      14      14      13      14      14
      13      14      14      13      14      14      13      14      14      13
      14      14      13      14      14      13      14      14      13      14
      14      13      14      14      13      14      14      13      14      14
      13      14      14      13      14      14      13      14      14      13
      14      14      13      14      14      13      14      14      13      14
      14      13      14      14      13      14      14      13      14      14
      13      14      14      13      14      14      13      14      14      13
      14      14      13      14      14      13      14      14      13      14
      14      13      14      14      13      14      14      13      14      14
      13      14      14      13      14      14      13      14      14      13
      14      14      13      14      14      13      14      14      13      14
      14      13      14      14      13      14      14      13      14      14
      13      14      14      13      14      14      13      14      14      13
      14      14      13      14      14      13      14      14      13      14
      14      13      14      14      13      14      14      13      14      14
      13      14      14      13      14      14      13      14      14      13
      14      14      13      14      14      13      14      14      13      14
      14      13      14      14      13      14      14      13      14      14
      13      14      14      13      14      14      13      14      14      13
      14      14      13      14      14      13      14      14      13      14
      14      13      14      14      13      14      14      13      14      14
      13      14      14      13      14      14      13      14      14      13
      14      14      13      14      14      13      14      14      13      14
      14      13      14      14      13      14      14      13      14      14
      13      14      14      13      14      14      13      14      14      13
      14      14      13      14      14      13      14      14      13      14
      14      13      14      14      13      14      14      13      14      14
      13      14      14      13      14      14      13      14      14      13
      14      14      13      14      14      13      14      14      13      14
      14      13      14      14      13      14      14      13      14      14
      13      14      14      13      14      14      13      14      14      13
      14      14      13      14      14      13      14      14      13      14
      14      13      14      14      13      14      14      13      14      14
      13      14      14      13      14      14      13      14      14      13
      14      14      13      14      14      13      14      14      13      14
      14      13      14      14      13      14      14      13      14      14
      13      14      14      13      14      14      13      14      14      13
      14      14      13      14      14      13      14      14      13      14
      14      13      14      14      13      14      14      13      14      14
      13      14      14      13      14      14      13      14      14      13
      14      14      13      14      14      13      14      14      13      14
      14      13      14      14      13      14      14      13      14      14
      13      14      14      13      14      14      13      14      14      13
      14      14      13      14      14      13      14      14      13      14
      14      13      14      14      13      14      14      13      14      14
      13      14      14      13      14      14      13      14      14      13
      14      14      13      14      14      13      14      14      13      14
      14      13      14      14      13      14      14      13      14      14
      13      14      14      13      14      14      13      14      14      13
      14      14      13      14      14      13      14      14      13      14
      14      13      14      14      13      14      14      13      14      14
      13      14      14      13      14      14      13      14      14      13
      14      14      13      14      14
%FLAG NUMBER_EXCLUDED_ATOMS                                                     
%FORMAT(10I8)                                                                   
      10      11      13       9       9      12       9       7       9       9
       8       7       7       6       5       4       2       1       1       1
       1       1       1       1       1       1       8       4       3       8
      16      18       9      15      13       8      11      12      10       4
       9      11      12      11      11      14      18      15       8      14
       8       5      11       9       5       7       4       4       1       3
       1       2       1       2       3       3       2       3       2       3
       2       1       1       2       2       1       2       2       1       1
       2       1       1       1       8      16      18       9      15      13
       8      11      12      10       4       9      11      12      11      11
      14      18      15       8      14       8       5      11       9       5
       7       4       4       1       3       1       2       1       2       3
       3       2       3       2       3       2       1       1       2       2
       1       2       2       1       1       2       1       1       1       8
      16      18       9      15      13       8      11      12      10       4
       9      11      12      11      11      14      18      15       8      14
       8       5      11       9       5       7       4       4       1       3
       1       2       1       2       3       3       2       3       2       3
       2       1       1       2       2       1       2       2       1       1
       2       1       1       1       8      16      18       9      15      13
       8      11      12      10       4       9      11      12      11      11
      14      18      15       8      14       8       5      11       9       5
       7       4       4       1       3       1       2       1       2       3
       3       2       3       2       3       2       1       1       2       2
       1       2       2       1       1       2       1       1       1       8
      16      18       9      15      13       8      11      12      10       4
       9      11      12      11      11      14      18      15       8      14
       8       5      11       9       5       7       4       4       1       3
       1       2       1       2       3       3       2       3       2       3
       2       1       1       2       2       1       2       2       1       1
       2       1       1       1       8      16      18       9      15      13
       8      11      12      10       4       9      11      12      11      11
      14      18      15       8      14       8       5      11       9       5
       7       4       4       1       3       1       2       1       2       3
       3       2       3       2       3       2       1       1       2       2
       1       2       2       1       1       2       1       1       1       8
      16      18       9      15      13       8      11      12      10       4
       9      11      12      11      11      14      18      15       8      14
       8       5      11       9       5       7       4       4       1       3
       1       2       1       2       3       3       2       3       2       3
       2       1       1       2       2       1       2       2       1       1
       2       1       1       1       8      16      18       9      15      13
       8      11      12      10       4       9      11      12      11      11
      14      18      15       8      14       8       5      11       9       5
       7       4       4       1       3       1       2       1       2       3
       3       2       3       2       3       2       1       1       2       2
       1       2       2       1       1       2       1       1       1       8
      16      18       9      15      13       8      11      12      10       4
       9      11      12      11      11      14      18      15       8      14
       8       5      11       9       5       7       4       4       1       3
       1       2       1       2       3       3       2       3       2       3
       2       1       1       2       2       1       2       2       1       1
       2       1       1       1       8      16      18       9      15      13
       8      11      12       7       4       9      11      12      11      11
      14      18      15       8      14       8       5      11       9       5
       7       4       4       1       3       1       2       1       2       3
       3       2       3       2       3       2       1       1       2       2
       1       2       2       1       1       2       1       1       1       2
       1       1       8       4       3       8      16      18       9      15
      13       8      11      12      10       4       9      11      12      11
      11      14      18      15       8      14       8       5      11       9
       5       7       4       4       1       3       1       2       1       2
       3       3       2       3       2       3       2       1       1       2
       2       1       2       2       1       1       2       1       1       1
       8      16      18       9      15      13       8      11      12      10
       4       9      11      12      11      11      14      18      15       8
      14       8       5      11       9       5       7       4       4       1
       3       1       2       1       2       3       3       2       3       2
       3       2       1       1       2       2       1       2       2       1
       1       2       1       1       1       8      16      18       9      15
      13       8      11      12      10       4       9      11      12      11
      11      14      18      15       8      14       8       5      11       9
       5       7       4       4       1       3       1       2       1       2
       3       3       2       3       2       3       2       1       1       2
       2       1       2       2       1       1       2       1       1       1
       8      16      18       9      15      13       8      11      12      10
       4       9      11      12      11      11      14      18      15       8
      14       8       5      11       9       5       7       4       4       1
       3       1       2       1       2       3       3       2       3       2
       3       2       1       1       2       2       1       2       2       1
       1       2       1       1       1       8      16      18       9      15
      13       8      11      12      10       4       9      11      12      11
      11      14      18      15       8      14       8       5      11       9
       5       7       4       4       1       3       1       2       1       2
       3       3       2       3       2       3       2       1       1       2
       2       1       2       2       1       1       2       1       1       1
       8      16      18       9      15      13       8      11      12      10
       4       9      11      12      11      11      14      18      15       8
      14       8       5      11       9       5       7       4       4       1
       3       1       2       1       2       3       3       2       3       2
       3       2       1       1       2       2       1       2       2       1
       1       2       1       1       1       8      16      18       9      15
      13       8      11      12      10       4       9      11      12      11
      11      14      18      15       8      14       8       5      11       9
       5       7       4       4       1       3       1       2       1       2
       3       3       2       3       2       3       2       1       1       2
       2       1       2       2       1       1       2       1       1       1
       8      16      18       9      15      13       8      11      12      10
       4       9      11      12      11      11      14      18      15       8
      14       8       5      11       9       5       7       4       4       1
       3       1       2       1       2       3       3       2       3       2
       3       2       1       1       2       2       1       2       2       1
       1       2       1       1       1       8      16      18       9      15
      13       8      11      12      10       4       9      11      12      11
      11      14      18      15       8      14       8       5      11       9
       5       7       4       4       1       3       1       2       1       2
       3       3       2       3       2       3       2       1       1       2
       2       1       2       2       1       1       2       1       1       1
       8      16      18       9      15      13       8      11      12       7
       4       9      11      12      11      11      14      18      15       8
      14       8       5      11       9       5       7       4       4       1
       3       1       2       1       2       3       3       2       3       2
       3       2       1       1       2       2       1       2       2       1
       1       2       1       1       1       2       1       1       8       4
       3       8      16      18       9      15      13       8      11      12
      10       4       9      11      12      11      11      14      18      15
       8      14       8       5      11       9       5       7       4       4
       1       3       1       2       1       2       3       3       2       3
       2       3       2       1       1       2       2       1       2       2
       1       1       2       1       1       1       8      16      18       9
      15      13       8      11      12      10       4       9      11      12
      11      11      14      18      15       8      14       8       5      11
       9       5       7       4       4       1       3       1       2       1
       2       3       3       2       3       2       3       2       1       1
       2       2       1       2       2       1       1       2       1       1
       1       8      16      18       9      15      13       8      11      12
      10       4       9      11      12      11      11      14      18      15
       8      14       8       5      11       9       5       7       4       4
       1       3       1       2       1       2       3       3       2       3
       2       3       2       1       1       2       2       1       2       2
       1       1       2       1       1       1       8      16      18       9
      15      13       8      11      12      10       4       9      11      12
      11      11      14      18      15       8      14       8       5      11
       9       5       7       4       4       1       3       1       2       1
       2       3       3       2       3       2       3       2       1       1
       2       2       1       2       2       1       1       2       1       1
       1       8      16      18       9      15      13       8      11      12
      10       4       9      11      12      11      11      14      18      15
       8      14       8       5      11       9       5       7       4       4
       1       3       1       2       1       2       3       3       2       3
       2       3       2       1       1       2       2       1       2       2
       1       1       2       1       1       1       8      16      18       9
      15      13       8      11      12      10       4       9      11      12
      11      11      14      18      15       8      14       8       5      11
       9       5       7       4       4       1       3       1       2       1
       2       3       3       2       3       2       3       2       1       1
       2       2       1       2       2       1       1       2       1       1
       1       8      16      18       9      15      13       8      11      12
      10       4       9      11      12      11      11      14      18      15
       8      14       8       5      11       9       5       7       4       4
       1       3       1       2       1       2       3       3       2       3
       2       3       2       1       1       2       2       1       2       2
       1       1       2       1       1       1       8      16      18       9
      15      13       8      11      12      10       4       9      11      12
      11      11      14      18      15       8      14       8       5      11
       9       5       7       4       4       1       3       1       2       1
       2       3       3       2       3       2       3       2       1       1
       2       2       1       2       2       1       1       2       1       1
       1       8      16      18       9      15      13       8      11      12
      10       4       9      11      12      11      11      14      18      15
       8      14       8       5      11       9       5       7       4       4
       1       3       1       2       1       2       3       3       2       3
       2       3       2       1       1       2       2       1       2       2
       1       1       2       1       1       1       8      16      18       9
      15      13       8      11      12       7       4       9      11      12
      11      11      14      18      15       8      14       8       5      11
       9       5       7       4       4       1       3       1       2       1
       2       3       3       2       3       2       3       2       1       1
       2       2       1       2       2       1       1       2       1       1
       1       2       1       1       8       4       3       8      16      18
       9      15      13       8      11      12      10       4       9      11
      12      11      11      14      18      15       8      14       8       5
      11       9       5       7       4       4       1       3       1       2
       1       2       3       3       2       3       2       3       2       1
       1       2       2       1       2       2       1       1       2       1
       1       1       8      16      18       9      15      13       8      11
      12      10       4       9      11      12      11      11      14      18
      15       8      14       8       5      11       9       5       7       4
       4       1       3       1       2       1       2       3       3       2
       3       2       3       2       1       1       2       2       1       2
       2       1       1       2       1       1       1       8      16      18
       9      15      13       8      11      12      10       4       9      11
      12      11      11      14      18      15       8      14       8       5
      11       9       5       7       4       4       1       3       1       2
       1       2       3       3       2       3       2       3       2       1
       1       2       2       1       2       2       1       1       2       1
       1       1       8      16      18       9      15      13       8      11
      12      10       4       9      11      12      11      11      14      18
      15       8      14       8       5      11       9       5       7       4
       4       1       3       1       2       1       2       3       3       2
       3       2       3       2       1       1       2       2       1       2
       2       1       1       2       1       1       1       8      16      18
       9      15      13       8      11      12      10       4       9      11
      12      11      11      14      18      15       8      14       8       5
      11       9       5       7       4       4       1       3       1       2
       1       2       3       3       2       3       2       3       2       1
       1       2       2       1       2       2       1       1       2       1
       1       1       8      16      18       9      15      13       8      11
      12      10       4       9      11      12      11      11      14      18
      15       8      14       8       5      11       9       5       7       4
       4       1       3       1       2       1       2       3       3       2
       3       2       3       2       1       1       2       2       1       2
       2       1       1       2       1       1       1       8      16      18
       9      15      13       8      11      12      10       4       9      11
      12      11      11      14      18      15       8      14       8       5
      11       9       5       7       4       4       1       3       1       2
       1       2       3       3       2       3       2       3       2       1
       1       2       2       1       2       2       1       1       2       1
       1       1       8      16      18       9      15      13       8      11
      12      10       4       9      11      12      11      11      14      18
      15       8      14       8       5      11       9       5       7       4
       4       1       3       1       2       1       2       3       3       2
       3       2       3       2       1       1       2       2       1       2
       2       1       1       2       1       1       1       8      16      18
       9      15      13       8      11      12      10       4       9      11
      12      11      11      14      18      15       8      14       8       5
      11       9       5       7       4       4       1       3       1       2
       1       2       3       3       2       3       2       3       2       1
       1       2       2       1       2       2       1       1       2       1
       1       1       8      16      18       9      15      13       8      11
      12       7       4       9      11      12      11      11      14      18
      15       8      14       8       5      11       9       5       7       4
       4       1       3       1       2       1       2       3       3       2
       3       2       3       2       1       1       2       2       1       2
       2       1       1       2       1       1       1       2       1       1
       2       1       1       2       1       1       2       1       1       2
       1       1       2       1       1       2       1       1       2       1
       1       2       1       1       2       1       1       2       1       1
       2       1       1       2       1       1       2       1       1       2
       1       1       2       1       1       2       1       1       2       1
       1       2       1       1       2       1       1       2       1       1
       2       1       1       2       1       1       2       1       1       2
       1       1       2       1       1       2       1       1       2       1
       1       2       1       1       2       1       1       2       1       1
       2       1       1       2       1       1       2       1       1       2
       1       1       2       1       1       2       1       1       2       1
       1       2       1       1       2       1       1       2       1       1
       2       1       1       2       1       1       2       1       1       2
       1       1       2       1       1       2       1       1       2       1
       1       2       1       1       2       1       1       2       1       1
       2       1       1       2       1       1       2       1       1       2
       1       1       2       1       1       2       1       1       2       1
       1       2       1       1       2       1       1       2       1       1
       2       1       1       2       1       1       2       1       1       2
       1       1       2       1       1       2       1       1       2       1
       1       2       1       1       2       1       1       2       1       1
       2       1       1       2       1       1       2       1       1       2
       1       1       2       1       1       2       1       1       2       1
       1       2       1       1       2       1       1       2       1       1
       2       1       1       2       1       1       2       1       1       2
       1       1       2       1       1       2       1       1       2       1
       1       2       1       1       2       1       1       2       1       1
       2       1       1       2       1       1       2       1       1       2
       1       1       2       1       1       2       1       1       2       1
       1       2       1       1       2       1       1       2       1       1
       2       1       1       2       1       1       2       1       1       2
       1       1       2       1       1       2       1       1       2       1
       1       2       1       1       2       1       1       2       1       1
       2       1       1       2       1       1       2       1       1       2
       1       1       2       1       1       2       1       1       2       1
       1       2       1       1       2       1       1       2       1       1
       2       1       1       2       1       1       2       1       1       2
       1       1       2       1       1       2       1       1       2       1
       1       2       1       1       2       1       1       2       1       1
       2       1       1       2       1       1       2       1       1       2
       1       1       2       1       1       2       1       1       2       1
       1       2       1       1       2       1       1       2       1       1
       2       1       1       2       1       1       2       1       1       2
       1       1       2       1       1       2       1       1       2       1
       1       2       1       1       2       1       1       2       1       1
       2       1       1       2       1       1       2       1       1       2
       1       1       2       1       1       2       1       1       2       1
       1       2       1       1       2       1       1       2       1       1
       2       1       1       2       1       1       2       1       1       2
       1       1       2       1       1       2       1       1       2       1
       1       2       1       1       2       1       1       2       1       1
       2       1       1       2       1       1       2       1       1       2
       1       1       2       1       1       2       1       1       2       1
       1       2       1       1       2       1       1       2       1       1
       2       1       1       2       1       1       2       1       1       2
       1       1       2       1       1       2       1       1       2       1
       1       2       1       1       2       1       1       2       1       1
       2       1       1       2       1       1       2       1       1       2
       1       1       2       1       1       2       1       1       2       1
       1       2       1       1       2       1       1       2       1       1
       2       1       1       2       1       1       2       1       1       2
       1       1       2       1       1       2       1       1       2       1
       1       2       1       1       2       1       1       2       1       1
       2       1       1       2       1       1       2       1       1       2
       1       1       2       1       1       2       1       1       2       1
       1       2       1       1       2       1       1       2       1       1
       2       1       1       2       1       1       2       1       1       2
       1       1       2       1       1       2       1       1       2       1
       1       2       1       1       2       1       1       2       1       1
       2       1       1       2       1       1       2       1       1       2
       1       1       2       1       1       2       1       1       2       1
       1       2       1       1       2       1       1       2       1       1
       2       1       1       2       1       1       2       1       1       2
       1       1       2       1       1       2       1       1       2       1
       1       2       1       1       2       1       1       2       1       1
       2       1       1       2       1       1       2       1       1       2
       1       1       2       1       1       2       1       1       2       1
       1       2       1       1       2       1       1       2       1       1
       2       1       1       2       1       1       2       1       1       2
       1       1       2       1       1       2       1       1       2       1
       1       2       1       1       2       1       1       2       1       1
       2       1       1       2       1       1       2       1       1       2
       1       1       2       1       1       2       1       1       2       1
       1       2       1       1       2       1       1       2       1       1
       2       1       1       2       1       1       2       1       1       2
       1       1       2       1       1       2       1       1       2       1
       1       2       1       1       2       1       1       2       1       1
       2       1       1       2       1       1       2       1       1       2
       1       1       2       1       1       2       1       1       2       1
       1       2       1       1       2       1       1       2       1       1
       2       1       1       2       1       1       2       1       1       2
       1       1       2       1       1       2       1       1       2       1
       1       2       1       1       2       1       1       2       1       1
       2       1       1       2       1       1       2       1       1       2
       1       1       2       1       1       2       1       1       2       1
       1       2       1       1       2       1       1       2       1       1
       2       1       1       2       1       1       2       1       1       2
       1       1       2       1       1       2       1       1       2       1
       1       2       1       1       2       1       1       2       1       1
       2       1       1       2       1       1       2       1       1       2
       1       1       2       1       1       2       1       1       2       1
       1       2       1       1       2       1       1       2       1       1
       2       1       1       2       1       1       2       1       1       2
       1       1       2       1       1       2       1       1       2       1
       1       2       1       1       2       1       1       2       1       1
       2       1       1       2       1       1       2       1       1       2
       1       1       2       1       1       2       1       1       2       1
       1       2       1       1       2       1       1       2       1       1
       2       1       1       2       1       1       2       1       1       2
       1       1       2       1       1       2       1       1       2       1
       1       2       1       1       2       1       1       2       1       1
       2       1       1       2       1       1       2       1       1       2
       1       1       2       1       1       2       1       1       2       1
       1       2       1       1       2       1       1       2       1       1
       2       1       1       2       1       1       2       1       1       2
       1       1       2       1       1       2       1       1       2       1
       1       2       1       1       2       1       1       2       1       1
       2       1       1       2       1       1       2       1       1       2
       1       1       2       1       1       2       1       1       2       1
       1       2       1       1       2       1       1       2       1       1
       2       1       1       2       1       1       2       1       1       2
       1       1       2       1       1       2       1       1       2       1
       1       2       1       1       2       1       1       2       1       1
       2       1       1       2       1       1       2       1       1       2
       1       1       2       1       1       2       1       1       2       1
       1       2       1       1       2       1       1       2       1       1
       2       1       1       2       1       1       2       1       1       2
       1       1       2       1       1       2       1       1       2       1
       1       2       1       1       2       1       1       2       1       1
       2       1       1       2       1       1       2       1       1       2
       1       1       2       1       1       2       1       1       2       1
       1       2       1       1       2       1       1       2       1       1
       2       1       1       2       1       1       2       1       1       2
       1       1       2       1       1       2       1       1       2       1
       1       2       1       1       2       1       1       2       1       1
       2       1       1       2       1       1       2       1       1       2
       1       1       2       1       1       2       1       1       2       1
       1       2       1       1       2       1       1       2       1       1
       2       1       1       2       1       1       2       1       1       2
       1       1       2       1       1       2       1       1       2       1
       1       2       1       1       2       1       1       2       1       1
       2       1       1       2       1       1       2       1       1       2
       1       1       2       1       1       2       1       1       2       1
       1       2       1       1       2       1       1       2       1       1
       2       1       1       2       1       1       2       1       1       2
       1       1       2       1       1       2       1       1       2       1
       1       2       1       1       2       1       1       2       1       1
       2       1       1       2       1       1       2       1       1       2
       1       1       2       1       1       2       1       1       2       1
       1       2       1       1       2       1       1       2       1       1
       2       1       1       2       1       1       2       1       1       2
       1       1       2       1       1       2       1       1       2       1
       1       2       1       1       2       1       1       2       1       1
       2       1       1       2       1       1       2       1       1       2
       1       1       2       1       1       2       1       1       2       1
       1       2       1       1       2       1       1       2       1       1
       2       1       1       2       1       1       2       1       1       2
       1       1       2       1       1       2       1       1       2       1
       1       2       1       1       2       1       1       2       1       1
       2       1       1       2       1       1       2       1       1       2
       1       1       2       1       1       2       1       1       2       1
       1       2       1       1       2       1       1       2       1       1
       2       1       1       2       1       1       2       1       1       2
       1       1       2       1       1       2       1       1       2       1
       1       2       1       1       2       1       1       2       1       1
       2       1       1       2       1       1       2       1       1       2
       1       1       2       1       1       2       1       1       2       1
       1       2       1       1       2       1       1       2       1       1
       2       1       1       2       1       1       2       1       1       2
       1       1       2       1       1       2       1       1       2       1
       1       2       1       1       2       1       1       2       1       1
       2       1       1       2       1       1       2       1       1       2
       1       1       2       1       1       2       1       1       2       1
       1       2       1       1       2       1       1       2       1       1
       2       1       1       2       1       1       2       1       1       2
       1       1       2       1       1       2       1       1       2       1
       1       2       1       1       2       1       1       2       1       1
       2       1       1       2       1       1       2       1       1       2
       1       1       2       1       1       2       1       1       2       1
       1       2       1       1       2       1       1       2       1       1
       2       1       1       2       1       1       2       1       1       2
       1       1       2       1       1       2       1       1       2       1
       1       2       1       1       2       1       1       2       1       1
       2       1       1       2       1       1       2       1       1       2
       1       1       2       1       1       2       1       1       2       1
       1       2       1       1       2       1       1       2       1       1
       2       1       1       2       1       1       2       1       1       2
       1       1       2       1       1       2       1       1       2       1
       1       2       1       1       2       1       1       2       1       1
       2       1       1       2       1       1       2       1       1       2
       1       1       2       1       1       2       1       1       2       1
       1       2       1       1       2       1       1       2       1       1
       2       1       1       2       1       1       2       1       1       2
       1       1       2       1       1       2       1       1       2       1
       1       2       1       1       2       1       1       2       1       1
       2       1       1       2       1       1       2       1       1       2
       1       1       2       1       1       2       1       1       2       1
       1       2       1       1       2       1       1       2       1       1
       2       1       1       2       1       1       2       1       1       2
       1       1       2       1       1       2       1       1       2       1
       1       2       1       1       2       1       1       2       1       1
       2       1       1       2       1       1       2       1       1       2
       1       1       2       1       1       2       1       1       2       1
       1       2       1       1       2       1       1       2       1       1
       2       1       1       2       1       1       2       1       1       2
       1       1       2       1       1       2       1       1       2       1
       1       2       1       1       2       1       1       2       1       1
       2       1       1       2       1       1       2       1       1       2
       1       1       2       1       1       2       1       1       2       1
       1       2       1       1       2       1       1       2       1       1
       2       1       1       2       1       1       2       1       1       2
       1       1       2       1       1       2       1       1       2       1
       1       2       1       1       2       1       1       2       1       1
       2       1       1       2       1       1       2       1       1       2
       1       1       2       1       1       2       1       1       2       1
       1       2       1       1       2       1       1       2       1       1
       2       1       1       2       1       1       2       1       1       2
       1       1       2       1       1       2       1       1       2       1
       1       2       1       1       2       1       1       2       1       1
       2       1       1       2       1       1       2       1       1       2
       1       1       2       1       1       2       1       1       2       1
       1       2       1       1       2       1       1       2       1       1
       2       1       1       2       1       1       2       1       1       2
       1       1       2       1       1       2       1       1       2       1
       1       2       1       1       2       1       1       2       1       1
       2       1       1       2       1       1       2       1       1       2
       1       1       2       1       1       2       1       1       2       1
       1       2       1       1       2       1       1       2       1       1
       2       1       1       2       1       1       2       1       1       2
       1       1       2       1       1       2       1       1       2       1
       1       2       1       1       2       1       1       2       1       1
       2       1       1       2       1       1       2       1       1       2
       1       1       2       1       1       2       1       1       2       1
       1       2       1       1       2       1       1       2       1       1
       2       1       1       2       1       1       2       1       1       2
       1       1       2       1       1       2       1       1       2       1
       1       2       1       1       2       1       1       2       1       1
       2       1       1       2       1       1       2       1       1       2
       1       1       2       1       1       2       1       1       2       1
       1       2       1       1       2       1       1       2       1       1
       2       1       1       2       1       1       2       1       1       2
       1       1       2       1       1       2       1       1       2       1
       1       2       1       1       2       1       1       2       1       1
       2       1       1       2       1       1       2       1       1       2
       1       1       2       1       1       2       1       1       2       1
       1       2       1       1       2       1       1       2       1       1
       2       1       1       2       1       1       2       1       1       2
       1       1       2       1       1       2       1       1       2       1
       1       2       1       1       2       1       1       2       1       1
       2       1       1       2       1       1       2       1       1       2
       1       1       2       1       1       2       1       1       2       1
       1       2       1       1       2       1       1       2       1       1
       2       1       1       2       1       1       2       1       1       2
       1       1       2       1       1       2       1       1       2       1
       1       2       1       1       2       1       1       2       1       1
       2       1       1       2       1       1       2       1       1       2
       1       1       2       1       1       2       1       1       2       1
       1       2       1       1       2       1       1       2       1       1
       2       1       1       2       1       1       2       1       1       2
       1       1       2       1       1       2       1       1       2       1
       1       2       1       1       2       1       1       2       1       1
       2       1       1       2       1       1       2       1       1       2
       1       1       2       1       1       2       1       1       2       1
       1       2       1       1       2       1       1       2       1       1
       2       1       1       2       1       1       2       1       1       2
       1       1       2       1       1       2       1       1       2       1
       1       2       1       1       2       1       1       2       1       1
       2       1       1       2       1       1       2       1       1       2
       1       1       2       1       1       2       1       1       2       1
       1       2       1       1       2       1       1       2       1       1
       2       1       1       2       1       1       2       1       1       2
       1       1       2       1       1       2       1       1       2       1
       1       2       1       1       2       1       1       2       1       1
       2       1       1       2       1       1       2       1       1       2
       1       1       2       1       1       2       1       1       2       1
       1       2       1       1       2       1       1       2       1       1
       2       1       1       2       1       1       2       1       1       2
       1       1       2       1       1       2       1       1       2       1
       1       2       1       1       2       1       1       2       1       1
       2       1       1       2       1       1       2       1       1       2
       1       1       2       1       1       2       1       1       2       1
       1       2       1       1       2       1       1       2       1       1
       2       1       1       2       1       1       2       1       1       2
       1       1       2       1       1       2       1       1       2       1
       1       2       1       1       2       1       1       2       1       1
       2       1       1       2       1       1       2       1       1       2
       1       1       2       1       1       2       1       1       2       1
       1       2       1       1       2       1       1       2       1       1
       2       1       1       2       1       1       2       1       1       2
       1       1       2       1       1       2       1       1       2       1
       1       2       1       1       2       1       1       2       1       1
       2       1       1       2       1       1       2       1       1       2
       1       1       2       1       1       2       1       1       2       1
       1       2       1       1       2       1       1       2       1       1
       2       1       1       2       1       1       2       1       1       2
       1       1       2       1       1       2       1       1       2       1
       1       2       1       1       2       1       1       2       1       1
       2       1       1       2       1       1       2       1       1       2
       1       1       2       1       1       2       1       1       2       1
       1       2       1       1       2       1       1       2       1       1
       2       1       1       2       1       1       2       1       1       2
       1       1       2       1       1       2       1       1       2       1
       1       2       1       1       2       1       1       2       1       1
       2       1       1       2       1       1       2       1       1       2
       1       1       2       1       1       2       1       1       2       1
       1       2       1       1       2       1       1       2       1       1
       2       1       1       2       1       1       2       1       1       2
       1       1       2       1       1       2       1       1       2       1
       1       2       1       1       2       1       1       2       1       1
       2       1       1       2       1       1       2       1       1       2
       1       1       2       1       1       2       1       1       2       1
       1       2       1       1       2       1       1       2       1       1
       2       1       1       2       1       1       2       1       1       2
       1       1       2       1       1       2       1       1       2       1
       1       2       1       1       2       1       1       2       1       1
       2       1       1       2       1       1       2       1       1       2
       1       1       2       1       1       2       1       1       2       1
       1       2       1       1       2       1       1       2       1       1
       2       1       1       2       1       1       2       1       1       2
       1       1       2       1       1       2       1       1       2       1
       1       2       1       1       2       1       1       2       1       1
       2       1       1       2       1       1       2       1       1       2
       1       1       2       1       1       2       1       1       2       1
       1       2       1       1       2       1       1       2       1       1
       2       1       1       2       1       1       2       1       1       2
       1       1       2       1       1       2       1       1       2       1
       1       2       1       1       2       1       1       2       1       1
       2       1       1       2       1       1       2       1       1       2
       1       1       2       1       1       2       1       1       2       1
       1       2       1       1       2       1       1       2       1       1
       2       1       1       2       1       1       2       1       1       2
       1       1       2       1       1       2       1       1       2       1
       1       2       1       1       2       1       1       2       1       1
       2       1       1       2       1       1       2       1       1       2
       1       1       2       1       1       2       1       1       2       1
       1       2       1       1       2       1       1       2       1       1
       2       1       1       2       1       1       2       1       1       2
       1       1       2       1       1       2       1       1       2       1
       1       2       1       1       2       1       1       2       1       1
       2       1       1       2       1       1       2       1       1       2
       1       1       2       1       1       2       1       1       2       1
       1       2       1       1       2       1       1       2       1       1
       2       1       1       2       1       1       2       1       1       2
       1       1       2       1       1       2       1       1       2       1
       1       2       1       1       2       1       1       2       1       1
       2       1       1       2       1       1       2       1       1       2
       1       1       2       1       1       2       1       1       2       1
       1       2       1       1       2       1       1       2       1       1
       2       1       1       2       1       1       2       1       1       2
       1       1       2       1       1       2       1       1       2       1
       1       2       1       1       2       1       1       2       1       1
       2       1       1       2       1       1       2       1       1       2
       1       1       2       1       1       2       1       1       2       1
       1       2       1       1       2       1       1       2       1       1
       2       1       1       2       1       1       2       1       1       2
       1       1       2       1       1       2       1       1       2       1
       1       2       1       1       2       1       1       2       1       1
       2       1       1       2       1       1       2       1       1       2
       1       1       2       1       1       2       1       1       2       1
       1       2       1       1       2       1       1       2       1       1
       2       1       1       2       1       1       2       1       1       2
       1       1       2       1       1       2       1       1       2       1
       1       2       1       1       2       1       1       2       1       1
       2       1       1       2       1       1       2       1       1       2
       1       1       2       1       1       2       1       1       2       1
       1       2       1       1       2       1       1       2       1       1
       2       1       1       2       1       1       2       1       1       2
       1       1       2       1       1       2       1       1       2       1
       1       2       1       1       2       1       1       2       1       1
       2       1       1       2       1       1       2       1       1       2
       1       1       2       1       1       2       1       1       2       1
       1       2       1       1       2       1       1       2       1       1
       2       1       1       2       1       1       2       1       1       2
       1       1       2       1       1       2       1       1       2       1
       1       2       1       1       2       1       1       2       1       1
       2       1       1       2       1       1       2       1       1       2
       1       1       2       1       1       2       1       1       2       1
       1       2       1       1       2       1       1       2       1       1
       2       1       1       2       1       1       2       1       1       2
       1       1       2       1       1       2       1       1       2       1
       1       2       1       1       2       1       1       2       1       1
       2       1       1       2       1       1       2       1       1       2
       1       1       2       1       1       2       1       1       2       1
       1       2       1       1       2       1       1       2       1       1
       2       1       1       2       1       1       2       1       1       2
       1       1       2       1       1       2       1       1       2       1
       1       2       1       1       2       1       1       2       1       1
       2       1       1       2       1       1       2       1       1       2
       1       1       2       1       1       2       1       1       2       1
       1       2       1       1       2       1       1       2       1       1
       2       1       1       2       1       1       2       1       1       2
       1       1       2       1       1       2       1       1       2       1
       1       2       1       1       2       1       1       2       1       1
       2       1       1       2       1       1       2       1       1       2
       1       1       2       1       1       2       1       1       2       1
       1       2       1       1       2       1       1       2       1       1
       2       1       1       2       1       1       2       1       1       2
       1       1       2       1       1       2       1       1       2       1
       1       2       1       1       2       1       1       2       1       1
       2       1       1       2       1       1       2       1       1       2
       1       1       2       1       1       2       1       1       2       1
       1       2       1       1       2       1       1       2       1       1
       2       1       1       2       1       1       2       1       1       2
       1       1       2       1       1       2       1       1       2       1
       1       2       1       1       2       1       1       2       1       1
       2       1       1       2       1       1       2       1       1       2
       1       1       2       1       1       2       1       1       2       1
       1       2       1       1       2       1       1       2       1       1
       2       1       1       2       1       1       2       1       1       2
       1       1       2       1       1       2       1       1       2       1
       1       2       1       1       2       1       1       2       1       1
       2       1       1       2       1       1       2       1       1       2
       1       1       2       1       1       2       1       1       2       1
       1       2       1       1       2       1       1       2       1       1
       2       1       1       2       1       1       2       1       1       2
       1       1       2       1       1       2       1       1       2       1
       1       2       1       1       2       1       1       2       1       1
       2       1       1       2       1       1       2       1       1       2
       1       1       2       1       1       2       1       1       2       1
       1       2       1       1       2       1       1       2       1       1
       2       1       1       2       1       1       2       1       1       2
       1       1       2       1       1       2       1       1       2       1
       1       2       1       1       2       1       1       2       1       1
       2       1       1       2       1       1       2       1       1       2
       1       1       2       1       1       2       1       1       2       1
       1       2       1       1       2       1       1       2       1       1
       2       1       1       2       1       1       2       1       1       2
       1       1       2       1       1       2       1       1       2       1
       1       2       1       1       2       1       1       2       1       1
       2       1       1       2       1       1       2       1       1       2
       1       1       2       1       1       2       1       1       2       1
       1       2       1       1       2       1       1       2       1       1
       2       1       1       2       1       1       2       1       1       2
       1       1       2       1       1       2       1       1       2       1
       1       2       1       1       2       1       1       2       1       1
       2       1       1       2       1       1       2       1       1       2
       1       1       2       1       1       2       1       1       2       1
       1       2       1       1       2       1       1       2       1       1
       2       1       1       2       1       1       2       1       1       2
       1       1       2       1       1       2       1       1       2       1
       1       2       1       1       2       1       1       2       1       1
       2       1       1       2       1       1       2       1       1       2
       1       1       2       1       1       2       1       1       2       1
       1       2       1       1       2       1       1       2       1       1
       2       1       1       2       1       1       2       1       1       2
       1       1       2       1       1       2       1       1       2       1
       1       2       1       1       2       1       1       2       1       1
       2       1       1       2       1       1       2       1       1       2
       1       1       2       1       1       2       1       1       2       1
       1       2       1       1       2       1       1       2       1       1
       2       1       1       2       1       1       2       1       1       2
       1       1       2       1       1       2       1       1       2       1
       1       2       1       1       2       1       1       2       1       1
       2       1       1       2       1       1       2       1       1       2
       1       1       2       1       1       2       1       1       2       1
       1       2       1       1       2       1       1       2       1       1
       2       1       1       2       1       1       2       1       1       2
       1       1       2       1       1       2       1       1       2       1
       1       2       1       1       2       1       1       2       1       1
       2       1       1       2       1       1       2       1       1       2
       1       1       2       1       1       2       1       1       2       1
       1       2       1       1       2       1       1       2       1       1
       2       1       1       2       1       1       2       1       1       2
       1       1       2       1       1       2       1       1       2       1
       1       2       1       1       2       1       1       2       1       1
       2       1       1       2       1       1       2       1       1       2
       1       1       2       1       1       2       1       1       2       1
       1       2       1       1       2       1       1       2       1       1
       2       1       1       2       1       1       2       1       1       2
       1       1       2       1       1       2       1       1       2       1
       1       2       1       1       2       1       1       2       1       1
       2       1       1       2       1       1       2       1       1       2
       1       1       2       1       1       2       1       1       2       1
       1       2       1       1       2       1       1       2       1       1
       2       1       1       2       1       1       2       1       1       2
       1       1       2       1       1       2       1       1       2       1
       1       2       1       1       2       1       1       2       1       1
       2       1       1       2       1       1       2       1       1       2
       1       1       2       1       1       2       1       1       2       1
       1       2       1       1       2       1       1       2       1       1
       2       1       1       2       1       1       2       1       1       2
       1       1       2       1       1       2       1       1       2       1
       1       2       1       1       2       1       1       2       1       1
       2       1       1       2       1       1       2       1       1       2
       1       1       2       1       1       2       1       1       2       1
       1       2       1       1       2       1       1       2       1       1
       2       1       1       2       1       1       2       1       1       2
       1       1       2       1       1       2       1       1       2       1
       1       2       1       1       2       1       1       2       1       1
       2       1       1       2       1       1       2       1       1       2
       1       1       2       1       1       2       1       1       2       1
       1       2       1       1       2       1       1       2       1       1
       2       1       1       2       1       1       2       1       1       2
       1       1       2       1       1       2       1       1       2       1
       1       2       1       1       2       1       1       2       1       1
       2       1       1       2       1       1       2       1       1       2
       1       1       2       1       1       2       1       1       2       1
       1       2       1       1       2       1       1       2       1       1
       2       1       1       2       1       1       2       1       1       2
       1       1       2       1       1       2       1       1       2       1
       1       2       1       1       2       1       1       2       1       1
       2       1       1       2       1       1       2       1       1       2
       1       1       2       1       1       2       1       1       2       1
       1       2       1       1       2       1       1       2       1       1
       2       1       1       2       1       1       2       1       1       2
       1       1       2       1       1       2       1       1       2       1
       1       2       1       1       2       1       1       2       1       1
       2       1       1       2       1       1       2       1       1       2
       1       1       2       1       1       2       1       1       2       1
       1       2       1       1       2       1       1       2       1       1
       2       1       1       2       1       1       2       1       1       2
       1       1       2       1       1       2       1       1       2       1
       1       2       1       1       2       1       1       2       1       1
       2       1       1       2       1       1       2       1       1       2
       1       1       2       1       1       2       1       1       2       1
       1       2       1       1       2       1       1       2       1       1
       2       1       1       2       1       1       2       1       1       2
       1       1       2       1       1       2       1       1       2       1
       1       2       1       1       2       1       1       2       1       1
       2       1       1       2       1       1       2       1       1       2
       1       1       2       1       1       2       1       1       2       1
       1       2       1       1       2       1       1       2       1       1
       2       1       1       2       1       1       2       1       1       2
       1       1       2       1       1       2       1       1       2       1
       1       2       1       1       2       1       1       2       1       1
       2       1       1       2       1       1       2       1       1       2
       1       1       2       1       1       2       1       1       2       1
       1       2       1       1       2       1       1       2       1       1
       2       1       1       2       1       1       2       1       1       2
       1       1       2       1       1       2       1       1       2       1
       1       2       1       1       2       1       1       2       1       1
       2       1       1       2       1       1       2       1       1       2
       1       1       2       1       1       2       1       1       2       1
       1       2       1       1       2       1       1       2       1       1
       2       1       1       2       1       1       2       1       1       2
       1       1       2       1       1       2       1       1       2       1
       1       2       1       1       2       1       1       2       1       1
       2       1       1       2       1       1       2       1       1       2
       1       1       2       1       1       2       1       1       2       1
       1       2       1       1       2       1       1       2       1       1
       2       1       1       2       1       1       2       1       1       2
       1       1       2       1       1       2       1       1       2       1
       1       2       1       1       2       1       1       2       1       1
       2       1       1       2       1       1       2       1       1       2
       1       1       2       1       1       2       1       1       2       1
       1       2       1       1       2       1       1       2       1       1
       2       1       1       2       1       1       2       1       1       2
       1       1       2       1       1       2       1       1       2       1
       1       2       1       1       2       1       1       2       1       1
       2       1       1       2       1       1       2       1       1       2
       1       1       2       1       1       2       1       1       2       1
       1       2       1       1       2       1       1       2       1       1
       2       1       1       2       1       1       2       1       1       2
       1       1       2       1       1       2       1       1       2       1
       1       2       1       1       2       1       1       2       1       1
       2       1       1       2       1       1       2       1       1       2
       1       1       2       1       1       2       1       1       2       1
       1       2       1       1       2       1       1       2       1       1
       2       1       1       2       1       1       2       1       1       2
       1       1       2       1       1       2       1       1       2       1
       1       2       1       1       2       1       1       2       1       1
       2       1       1       2       1       1       2       1       1       2
       1       1       2       1       1       2       1       1       2       1
       1       2       1       1       2       1       1       2       1       1
       2       1       1       2       1       1       2       1       1       2
       1       1       2       1       1       2       1       1       2       1
       1       2       1       1       2       1       1       2       1       1
       2       1       1       2       1       1       2       1       1       2
       1       1       2       1       1       2       1       1       2       1
       1       2       1       1       2       1       1       2       1       1
       2       1       1       2       1       1       2       1       1       2
       1       1       2       1       1       2       1       1       2       1
       1       2       1       1       2       1       1       2       1       1
       2       1       1       2       1       1       2       1       1       2
       1       1       2       1       1       2       1       1       2       1
       1       2       1       1       2       1       1       2       1       1
       2       1       1       2       1       1       2       1       1       2
       1       1       2       1       1       2       1       1       2       1
       1       2       1       1       2       1       1       2       1       1
       2       1       1       2       1       1       2       1       1       2
       1       1       2       1       1       2       1       1       2       1
       1       2       1       1       2       1       1       2       1       1
       2       1       1       2       1       1       2       1       1       2
       1       1       2       1       1       2       1       1       2       1
       1       2       1       1       2       1       1       2       1       1
       2       1       1       2       1       1       2       1       1       2
       1       1       2       1       1       2       1       1       2       1
       1       2       1       1       2       1       1       2       1       1
       2       1       1       2       1       1       2       1       1       2
       1       1       2       1       1       2       1       1       2       1
       1       2       1       1       2       1       1       2       1       1
       2       1       1       2       1       1       2       1       1       2
       1       1       2       1       1       2       1       1       2       1
       1       2       1       1       2       1       1       2       1       1
       2       1       1       2       1       1       2       1       1       2
       1       1       2       1       1       2       1       1       2       1
       1       2       1       1       2       1       1       2       1       1
       2       1       1       2       1       1       2       1       1       2
       1       1       2       1       1       2       1       1       2       1
       1       2       1       1       2       1       1       2       1       1
       2       1       1       2       1       1       2       1       1       2
       1       1       2       1       1       2       1       1       2       1
       1       2       1       1       2       1       1       2       1       1
       2       1       1       2       1       1       2       1       1       2
       1       1       2       1       1       2       1       1       2       1
       1       2       1       1       2       1       1       2       1       1
       2       1       1       2       1       1       2       1       1       2
       1       1       2       1       1       2       1       1       2       1
       1       2       1       1       2       1       1       2       1       1
       2       1       1       2       1       1       2       1       1       2
       1       1       2       1       1       2       1       1       2       1
       1       2       1       1       2       1       1       2       1       1
       2       1       1       2       1       1       2       1       1       2
       1       1       2       1       1       2       1       1       2       1
       1       2       1       1       2       1       1       2       1       1
       2       1       1       2       1       1       2       1       1       2
       1       1       2       1       1       2       1       1       2       1
       1       2       1       1       2       1       1       2       1       1
       2       1       1       2       1       1       2       1       1       2
       1       1       2       1       1       2       1       1       2       1
       1       2       1       1       2       1       1       2       1       1
       2       1       1       2       1       1       2       1       1       2
       1       1       2       1       1       2       1       1       2       1
       1       2       1       1       2       1       1       2       1       1
       2       1       1       2       1       1       2       1       1       2
       1       1       2       1       1       2       1       1       2       1
       1       2       1       1       2       1       1       2       1       1
       2       1       1       2       1       1       2       1       1       2
       1       1       2       1       1       2       1       1       2       1
       1       2       1       1       2       1       1       2       1       1
       2       1       1       2       1       1       2       1       1       2
       1       1       2       1       1       2       1       1       2       1
       1       2       1       1       2       1       1       2       1       1
       2       1       1       2       1       1       2       1       1       2
       1       1       2       1       1       2       1       1       2       1
       1       2       1       1       2       1       1       2       1       1
       2       1       1       2       1       1       2       1       1       2
       1       1       2       1       1       2       1       1       2       1
       1       2       1       1       2       1       1       2       1       1
       2       1       1       2       1       1       2       1       1       2
       1       1       2       1       1       2       1       1       2       1
       1       2       1       1       2       1       1       2       1       1
       2       1       1       2       1       1       2       1       1       2
       1       1       2       1       1       2       1       1       2       1
       1       2       1       1       2       1       1       2       1       1
       2       1       1       2       1       1       2       1       1       2
       1       1       2       1       1       2       1       1       2       1
       1       2       1       1       2       1       1       2       1       1
       2       1       1       2       1       1       2       1       1       2
       1       1       2       1       1       2       1       1       2       1
       1       2       1       1       2       1       1       2       1       1
       2       1       1       2       1       1       2       1       1       2
       1       1       2       1       1       2       1       1       2       1
       1       2       1       1       2       1       1       2       1       1
       2       1       1       2       1       1       2       1       1       2
       1       1       2       1       1       2       1       1       2       1
       1       2       1       1       2       1       1       2       1       1
       2       1       1       2       1       1       2       1       1       2
       1       1       2       1       1       2       1       1       2       1
       1       2       1       1       2       1       1       2       1       1
       2       1       1       2       1       1       2       1       1       2
       1       1       2       1       1       2       1       1       2       1
       1       2       1       1       2       1       1       2       1       1
       2       1       1       2       1       1       2       1       1       2
       1       1       2       1       1       2       1       1       2       1
       1       2       1       1       2       1       1       2       1       1
       2       1       1       2       1       1       2       1       1       2
       1       1       2       1       1       2       1       1       2       1
       1       2       1       1       2       1       1       2       1       1
       2       1       1       2       1       1       2       1       1       2
       1       1       2       1       1       2       1       1       2       1
       1       2       1       1       2       1       1       2       1       1
       2       1       1       2       1       1       2       1       1       2
       1       1       2       1       1       2       1       1       2       1
       1       2       1       1       2       1       1       2       1       1
       2       1       1       2       1       1       2       1       1       2
       1       1       2       1       1       2       1       1       2       1
       1       2       1       1       2       1       1       2       1       1
       2       1       1       2       1       1       2       1       1       2
       1       1       2       1       1       2       1       1       2       1
       1       2       1       1       2       1       1       2       1       1
       2       1       1       2       1       1       2       1       1       2
       1       1       2       1       1       2       1       1       2       1
       1       2       1       1       2       1       1       2       1       1
       2       1       1       2       1       1       2       1       1       2
       1       1       2       1       1       2       1       1       2       1
       1       2       1       1       2       1       1       2       1       1
       2       1       1       2       1       1       2       1       1       2
       1       1       2       1       1       2       1       1       2       1
       1       2       1       1       2       1       1       2       1       1
       2       1       1       2       1       1       2       1       1       2
       1       1       2       1       1       2       1       1       2       1
       1       2       1       1       2       1       1       2       1       1
       2       1       1       2       1       1       2       1       1       2
       1       1       2       1       1       2       1       1       2       1
       1       2       1       1       2       1       1       2       1       1
       2       1       1       2       1       1       2       1       1       2
       1       1       2       1       1       2       1       1       2       1
       1       2       1       1       2       1       1       2       1       1
       2       1       1       2       1       1       2       1       1       2
       1       1       2       1       1       2       1       1       2       1
       1       2       1       1       2       1       1       2       1       1
       2       1       1       2       1       1       2       1       1       2
       1       1       2       1       1       2       1       1       2       1
       1       2       1       1       2       1       1       2       1       1
       2       1       1       2       1       1       2       1       1       2
       1       1       2       1       1       2       1       1       2       1
       1       2       1       1       2       1       1       2       1       1
       2       1       1       2       1       1       2       1       1       2
       1       1       2       1       1       2       1       1       2       1
       1       2       1       1       2       1       1       2       1       1
       2       1       1       2       1       1       2       1       1       2
       1       1       2       1       1       2       1       1       2       1
       1       2       1       1       2       1       1       2       1       1
       2       1       1       2       1       1       2       1       1       2
       1       1       2       1       1       2       1       1       2       1
       1       2       1       1       2       1       1       2       1       1
       2       1       1       2       1       1       2       1       1       2
       1       1       2       1       1       2       1       1       2       1
       1       2       1       1       2       1       1       2       1       1
       2       1       1       2       1       1       2       1       1       2
       1       1       2       1       1       2       1       1       2       1
       1       2       1       1       2       1       1       2       1       1
       2       1       1       2       1       1       2       1       1       2
       1       1       2       1       1       2       1       1       2       1
       1       2       1       1       2       1       1       2       1       1
       2       1       1       2       1       1       2       1       1       2
       1       1       2       1       1       2       1       1       2       1
       1       2       1       1       2       1       1       2       1       1
       2       1       1       2       1       1       2       1       1       2
       1       1       2       1       1       2       1       1       2       1
       1       2       1       1       2       1       1       2       1       1
       2       1       1       2       1       1       2       1       1       2
       1       1       2       1       1       2       1       1       2       1
       1       2       1       1       2       1       1       2       1       1
       2       1       1       2       1       1       2       1       1       2
       1       1       2       1       1       2       1       1       2       1
       1       2       1       1       2       1       1       2       1       1
       2       1       1       2       1       1       2       1       1       2
       1       1       2       1       1       2       1       1       2       1
       1       2       1       1       2       1       1       2       1       1
       2       1       1       2       1       1       2       1       1       2
       1       1       2       1       1       2       1       1       2       1
       1       2       1       1       2       1       1       2       1       1
       2       1       1       2       1       1       2       1       1       2
       1       1       2       1       1       2       1       1       2       1
       1       2       1       1       2       1       1       2       1       1
       2       1       1       2       1       1       2       1       1       2
       1       1       2       1       1       2       1       1       2       1
       1       2       1       1       2       1       1       2       1       1
       2       1       1       2       1       1       2       1       1       2
       1       1       2       1       1       2       1       1       2       1
       1       2       1       1       2       1       1       2       1       1
       2       1       1       2       1       1       2       1       1       2
       1       1       2       1       1       2       1       1       2       1
       1       2       1       1       2       1       1       2       1       1
       2       1       1       2       1       1       2       1       1       2
       1       1       2       1       1       2       1       1       2       1
       1       2       1       1       2       1       1       2       1       1
       2       1       1       2       1       1       2       1       1       2
       1       1       2       1       1       2       1       1       2       1
       1       2       1       1       2       1       1       2       1       1
       2       1       1       2       1       1       2       1       1       2
       1       1       2       1       1       2       1       1       2       1
       1       2       1       1       2       1       1       2       1       1
       2       1       1       2       1       1       2       1       1       2
       1       1       2       1       1       2       1       1       2       1
       1       2       1       1       2       1       1       2       1       1
       2       1       1       2       1       1       2       1       1       2
       1       1       2       1       1       2       1       1       2       1
       1       2       1       1       2       1       1       2       1       1
       2       1       1       2       1       1       2       1       1       2
       1       1       2       1       1       2       1       1       2       1
       1       2       1       1       2       1       1       2       1       1
       2       1       1       2       1       1       2       1       1       2
       1       1       2       1       1       2       1       1       2       1
       1       2       1       1       2       1       1       2       1       1
       2       1       1       2       1       1       2       1       1       2
       1       1       2       1       1       2       1       1       2       1
       1       2       1       1       2       1       1       2       1       1
       2       1       1       2       1       1       2       1       1       2
       1       1       2       1       1       2       1       1       2       1
       1       2       1       1       2       1       1       2       1       1
       2       1       1       2       1       1       2       1       1       2
       1       1       2       1       1       2       1       1       2       1
       1       2       1       1       2       1       1       2       1       1
       2       1       1       2       1       1       2       1       1       2
       1       1       2       1       1       2       1       1       2       1
       1       2       1       1       2       1       1       2       1       1
       2       1       1       2       1       1       2       1       1       2
       1       1       2       1       1       2       1       1       2       1
       1       2       1       1       2       1       1       2       1       1
       2       1       1       2       1       1       2       1       1       2
       1       1       2       1       1       2       1       1       2       1
       1       2       1       1       2       1       1       2       1       1
       2       1       1       2       1       1       2       1       1       2
       1       1       2       1       1       2       1       1       2       1
       1       2       1       1       2       1       1       2       1       1
       2       1       1       2       1       1       2       1       1       2
       1       1       2       1       1       2       1       1       2       1
       1       2       1       1       2       1       1       2       1       1
       2       1       1       2       1       1       2       1       1       2
       1       1       2       1       1       2       1       1       2       1
       1       2       1       1       2       1       1       2       1       1
       2       1       1       2       1       1       2       1       1       2
       1       1       2       1       1       2       1       1       2       1
       1       2       1       1       2       1       1       2       1       1
       2       1       1       2       1       1       2       1       1       2
       1       1       2       1       1       2       1       1       2       1
       1       2       1       1       2       1       1       2       1       1
       2       1       1       2       1       1       2       1       1       2
       1       1       2       1       1       2       1       1       2       1
       1       2       1       1       2       1       1       2       1       1
       2       1       1       2       1       1       2       1       1       2
       1       1       2       1       1       2       1       1       2       1
       1       2       1       1       2       1       1       2       1       1
       2       1       1       2       1       1       2       1       1       2
       1       1       2       1       1       2       1       1       2       1
       1       2       1       1       2       1       1       2       1       1
       2       1       1       2       1       1       2       1       1       2
       1       1       2       1       1       2       1       1       2       1
       1       2       1       1       2       1       1       2       1       1
       2       1       1       2       1       1       2       1       1       2
       1       1       2       1       1       2       1       1       2       1
       1       2       1       1       2       1       1       2       1       1
       2       1       1       2       1       1       2       1       1       2
       1       1       2       1       1       2       1       1       2       1
       1       2       1       1       2       1       1       2       1       1
       2       1       1       2       1       1       2       1       1       2
       1       1       2       1       1       2       1       1       2       1
       1       2       1       1       2       1       1       2       1       1
       2       1       1       2       1       1       2       1       1       2
       1       1       2       1       1       2       1       1       2       1
       1       2       1       1       2       1       1       2       1       1
       2       1       1       2       1       1       2       1       1       2
       1       1       2       1       1       2       1       1       2       1
       1       2       1       1       2       1       1       2       1       1
       2       1       1       2       1       1       2       1       1       2
       1       1       2       1       1       2       1       1       2       1
       1       2       1       1       2       1       1       2       1       1
       2       1       1       2       1       1       2       1       1       2
       1       1       2       1       1       2       1       1       2       1
       1       2       1       1       2       1       1       2       1       1
       2       1       1       2       1       1       2       1       1       2
       1       1       2       1       1       2       1       1       2       1
       1       2       1       1       2       1       1       2       1       1
       2       1       1       2       1       1       2       1       1       2
       1       1       2       1       1       2       1       1       2       1
       1       2       1       1       2       1       1       2       1       1
       2       1       1       2       1       1       2       1       1       2
       1       1       2       1       1       2       1       1       2       1
       1       2       1       1       2       1       1       2       1       1
       2       1       1       2       1       1       2       1       1       2
       1       1       2       1       1       2       1       1       2       1
       1       2       1       1       2       1       1       2       1       1
       2       1       1       2       1       1       2       1       1       2
       1       1       2       1       1       2       1       1       2       1
       1       2       1       1       2       1       1       2       1       1
       2       1       1       2       1       1       2       1       1       2
       1       1       2       1       1       2       1       1       2       1
       1       2       1       1       2       1       1       2       1       1
       2       1       1       2       1       1       2       1       1       2
       1       1       2       1       1       2       1       1       2       1
       1       2       1       1       2       1       1       2       1       1
       2       1       1       2       1       1       2       1       1       2
       1       1       2       1       1       2       1       1       2       1
       1       2       1       1       2       1       1       2       1       1
       2       1       1       2       1       1       2       1       1       2
       1       1       2       1       1       2       1       1       2       1
       1       2       1       1       2       1       1       2       1       1
       2       1       1       2       1       1       2       1       1       2
       1       1       2       1       1       2       1       1       2       1
       1       2       1       1       2       1       1       2       1       1
       2       1       1       2       1       1       2       1       1       2
       1       1       2       1       1       2       1       1       2       1
       1       2       1       1       2       1       1       2       1       1
       2       1       1       2       1       1       2       1       1       2
       1       1       2       1       1       2       1       1       2       1
       1       2       1       1       2       1       1       2       1       1
       2       1       1       2       1       1       2       1       1       2
       1       1       2       1       1       2       1       1       2       1
       1       2       1       1       2       1       1       2       1       1
       2       1       1       2       1       1       2       1       1       2
       1       1       2       1       1       2       1       1       2       1
       1       2       1       1       2       1       1       2       1       1
       2       1       1       2       1       1       2       1       1       2
       1       1       2       1       1       2       1       1       2       1
       1       2       1       1       2       1       1       2       1       1
       2       1       1       2       1       1       2       1       1       2
       1       1       2       1       1       2       1       1       2       1
       1       2       1       1       2       1       1       2       1       1
       2       1       1       2       1       1       2       1       1       2
       1       1       2       1       1       2       1       1       2       1
       1       2       1       1       2       1       1       2       1       1
       2       1       1       2       1       1       2       1       1       2
       1       1       2       1       1       2       1       1       2       1
       1       2       1       1       2       1       1       2       1       1
       2       1       1       2       1       1       2       1       1       2
       1       1       2       1       1       2       1       1       2       1
       1       2       1       1       2       1       1       2       1       1
       2       1       1       2       1       1       2       1       1       2
       1       1       2       1       1       2       1       1       2       1
       1       2       1       1       2       1       1       2       1       1
       2       1       1       2       1       1       2       1       1       2
       1       1       2       1       1       2       1       1       2       1
       1       2       1       1       2       1       1       2       1       1
       2       1       1       2       1       1       2       1       1       2
       1       1       2       1       1       2       1       1       2       1
       1       2       1       1       2       1       1       2       1       1
       2       1       1       2       1       1       2       1       1       2
       1       1       2       1       1       2       1       1       2       1
       1       2       1       1       2       1       1       2       1       1
       2       1       1       2       1       1       2       1       1       2
       1       1       2       1       1       2       1       1       2       1
       1       2       1       1       2       1       1       2       1       1
       2       1       1       2       1       1       2       1       1       2
       1       1       2       1       1       2       1       1       2       1
       1       2       1       1       2       1       1       2       1       1
       2       1       1       2       1       1       2       1       1       2
       1       1       2       1       1       2       1       1       2       1
       1       2       1       1       2       1       1       2       1       1
       2       1       1       2       1       1       2       1       1       2
       1       1       2       1       1       2       1       1       2       1
       1       2       1       1       2       1       1       2       1       1
       2       1       1       2       1       1       2       1       1       2
       1       1       2       1       1       2       1       1       2       1
       1       2       1       1       2       1       1       2       1       1
       2       1       1       2       1       1       2       1       1       2
       1       1       2       1       1       2       1       1       2       1
       1       2       1       1       2       1       1       2       1       1
       2       1       1       2       1       1       2       1       1       2
       1       1       2       1       1       2       1       1       2       1
       1       2       1       1       2       1       1       2       1       1
       2       1       1       2       1       1       2       1       1       2
       1       1       2       1       1       2       1       1       2       1
       1       2       1       1       2       1       1       2       1       1
       2       1       1       2       1       1       2       1       1       2
       1       1       2       1       1       2       1       1       2       1
       1       2       1       1       2       1       1       2       1       1
       2       1       1       2       1       1       2       1       1       2
       1       1       2       1       1       2       1       1       2       1
       1       2       1       1       2       1       1       2       1       1
       2       1       1       2       1       1       2       1       1       2
       1       1       2       1       1       2       1       1       2       1
       1       2       1       1       2       1       1       2       1       1
       2       1       1       2       1       1       2       1       1       2
       1       1       2       1       1       2       1       1       2       1
       1       2       1       1       2       1       1       2       1       1
       2       1       1       2       1       1       2       1       1       2
       1       1       2       1       1       2       1       1       2       1
       1       2       1       1       2       1       1       2       1       1
       2       1       1       2       1       1       2       1       1       2
       1       1       2       1       1       2       1       1       2       1
       1       2       1       1       2       1       1       2       1       1
       2       1       1       2       1       1       2       1       1       2
       1       1       2       1       1       2       1       1       2       1
       1       2       1       1       2       1       1       2       1       1
       2       1       1       2       1       1       2       1       1       2
       1       1       2       1       1       2       1       1       2       1
       1       2       1       1       2       1       1       2       1       1
       2       1       1       2       1       1       2       1       1       2
       1       1       2       1       1       2       1       1       2       1
       1       2       1       1       2       1       1       2       1       1
       2       1       1       2       1       1       2       1       1       2
       1       1       2       1       1       2       1       1       2       1
       1       2       1       1       2       1       1       2       1       1
       2       1       1       2       1       1       2       1       1       2
       1       1       2       1       1       2       1       1       2       1
       1       2       1       1       2       1       1       2       1       1
       2       1       1       2       1       1       2       1       1       2
       1       1       2       1       1       2       1       1       2       1
       1       2       1       1       2       1       1       2       1       1
       2       1       1       2       1       1       2       1       1       2
       1       1       2       1       1       2       1       1       2       1
       1       2       1       1       2       1       1       2       1       1
       2       1       1       2       1       1       2       1       1       2
       1       1       2       1       1       2       1       1       2       1
       1       2       1       1       2       1       1       2       1       1
       2       1       1       2       1       1       2       1       1       2
       1       1       2       1       1       2       1       1       2       1
       1       2       1       1       2       1       1       2       1       1
       2       1       1       2       1       1       2       1       1       2
       1       1       2       1       1       2       1       1       2       1
       1       2       1       1       2       1       1       2       1       1
       2       1       1       2       1       1       2       1       1       2
       1       1       2       1       1       2       1       1       2       1
       1       2       1       1       2       1       1       2       1       1
       2       1       1       2       1       1       2       1       1       2
       1       1       2       1       1       2       1       1       2       1
       1       2       1       1       2       1       1       2       1       1
       2       1       1       2       1       1       2       1       1       2
       1       1       2       1       1       2       1       1       2       1
       1       2       1       1       2       1       1       2       1       1
       2       1       1       2       1       1       2       1       1       2
       1       1       2       1       1       2       1       1       2       1
       1       2       1       1       2       1       1       2       1       1
       2       1       1       2       1       1       2       1       1       2
       1       1       2       1       1       2       1       1       2       1
       1       2       1       1       2       1       1       2       1       1
       2       1       1       2       1       1       2       1       1       2
       1       1       2       1       1       2       1       1       2       1
       1       2       1       1       2       1       1       2       1       1
       2       1       1       2       1       1       2       1       1       2
       1       1       2       1       1       2       1       1       2       1
       1       2       1       1       2       1       1       2       1       1
       2       1       1       2       1       1       2       1       1       2
       1       1       2       1       1       2       1       1       2       1
       1       2       1       1       2       1       1       2       1       1
       2       1       1       2       1       1       2       1       1       2
       1       1       2       1       1       2       1       1       2       1
       1       2       1       1       2       1       1       2       1       1
       2       1       1       2       1       1       2       1       1       2
       1       1       2       1       1       2       1       1       2       1
       1       2       1       1       2       1       1       2       1       1
       2       1       1       2       1       1       2       1       1       2
       1       1       2       1       1       2       1       1       2       1
       1       2       1       1       2       1       1       2       1       1
       2       1       1       2       1       1       2       1       1       2
       1       1       2       1       1       2       1       1       2       1
       1       2       1       1       2       1       1       2       1       1
       2       1       1       2       1       1       2       1       1       2
       1       1       2       1       1       2       1       1       2       1
       1       2       1       1       2       1       1       2       1       1
       2       1       1       2       1       1       2       1       1       2
       1       1       2       1       1       2       1       1       2       1
       1       2       1       1       2       1       1       2       1       1
       2       1       1       2       1       1       2       1       1       2
       1       1       2       1       1       2       1       1       2       1
       1       2       1       1       2       1       1       2       1       1
       2       1       1       2       1       1       2       1       1       2
       1       1       2       1       1       2       1       1       2       1
       1       2       1       1       2       1       1       2       1       1
       2       1       1       2       1       1       2       1       1       2
       1       1       2       1       1       2       1       1       2       1
       1       2       1       1       2       1       1       2       1       1
       2       1       1       2       1       1       2       1       1       2
       1       1       2       1       1       2       1       1       2       1
       1       2       1       1       2       1       1       2       1       1
       2       1       1       2       1       1       2       1       1       2
       1       1       2       1       1       2       1       1       2       1
       1       2       1       1       2       1       1       2       1       1
       2       1       1       2       1       1       2       1       1       2
       1       1       2       1       1       2       1       1       2       1
       1       2       1       1       2       1       1       2       1       1
       2       1       1       2       1       1       2       1       1       2
       1       1       2       1       1       2       1       1       2       1
       1       2       1       1       2       1       1       2       1       1
       2       1       1       2       1       1       2       1       1       2
       1       1       2       1       1       2       1       1       2       1
       1       2       1       1       2       1       1       2       1       1
       2       1       1       2       1       1       2       1       1       2
       1       1       2       1       1       2       1       1       2       1
       1       2       1       1       2       1       1       2       1       1
       2       1       1       2       1       1       2       1       1       2
       1       1       2       1       1       2       1       1       2       1
       1       2       1       1       2       1       1       2       1       1
       2       1       1       2       1       1       2       1       1       2
       1       1       2       1       1       2       1       1       2       1
       1       2       1       1       2       1       1       2       1       1
       2       1       1       2       1       1       2       1       1       2
       1       1       2       1       1       2       1       1       2       1
       1       2       1       1       2       1       1       2       1       1
       2       1       1       2       1       1       2       1       1       2
       1       1       2       1       1       2       1       1       2       1
       1       2       1       1       2       1       1       2       1       1
       2       1       1       2       1       1       2       1       1       2
       1       1       2       1       1       2       1       1       2       1
       1       2       1       1       2       1       1       2       1       1
       2       1       1       2       1       1       2       1       1       2
       1       1       2       1       1       2       1       1       2       1
       1       2       1       1       2       1       1       2       1       1
       2       1       1       2       1       1       2       1       1       2
       1       1       2       1       1       2       1       1       2       1
       1       2       1       1       2       1       1       2       1       1
       2       1       1       2       1       1       2       1       1       2
       1       1       2       1       1       2       1       1       2       1
       1       2       1       1       2       1       1       2       1       1
       2       1       1       2       1       1       2       1       1       2
       1       1       2       1       1       2       1       1       2       1
       1       2       1       1       2       1       1       2       1       1
       2       1       1       2       1       1       2       1       1       2
       1       1       2       1       1       2       1       1       2       1
       1       2       1       1       2       1       1       2       1       1
       2       1       1       2       1       1       2       1       1       2
       1       1       2       1       1       2       1       1       2       1
       1       2       1       1       2       1       1       2       1       1
       2       1       1       2       1       1       2       1       1       2
       1       1       2       1       1       2       1       1       2       1
       1       2       1       1       2       1       1       2       1       1
       2       1       1       2       1       1       2       1       1       2
       1       1       2       1       1       2       1       1       2       1
       1       2       1       1       2       1       1       2       1       1
       2       1       1       2       1       1       2       1       1       2
       1       1       2       1       1       2       1       1       2       1
       1       2       1       1       2       1       1       2       1       1
       2       1       1       2       1       1       2       1       1       2
       1       1       2       1       1       2       1       1       2       1
       1       2       1       1       2       1       1       2       1       1
       2       1       1       2       1       1       2       1       1       2
       1       1       2       1       1       2       1       1       2       1
       1       2       1       1       2       1       1       2       1       1
       2       1       1       2       1       1       2       1       1       2
       1       1       2       1       1       2       1       1       2       1
       1       2       1       1       2       1       1       2       1       1
       2       1       1       2       1       1       2       1       1       2
       1       1       2       1       1       2       1       1       2       1
       1       2       1       1       2       1       1       2       1       1
       2       1       1       2       1       1       2       1       1       2
       1       1       2       1       1       2       1       1       2       1
       1       2       1       1       2       1       1       2       1       1
       2       1       1       2       1       1       2       1       1       2
       1       1       2       1       1       2       1       1       2       1
       1       2       1       1       2       1       1       2       1       1
       2       1       1       2       1       1       2       1       1       2
       1       1       2       1       1       2       1       1       2       1
       1       2       1       1       2       1       1       2       1       1
       2       1       1       2       1       1       2       1       1       2
       1       1       2       1       1       2       1       1       2       1
       1       2       1       1       2       1       1       2       1       1
       2       1       1       2       1       1       2       1       1       2
       1       1       2       1       1       2       1       1       2       1
       1       2       1       1       2       1       1       2       1       1
       2       1       1       2       1       1       2       1       1       2
       1       1       2       1       1       2       1       1       2       1
       1       2       1       1       2       1       1       2       1       1
       2       1       1       2       1       1       2       1       1       2
       1       1       2       1       1       2       1       1       2       1
       1       2       1       1       2       1       1       2       1       1
       2       1       1       2       1       1       2       1       1       2
       1       1       2       1       1       2       1       1       2       1
       1       2       1       1       2       1       1       2       1       1
       2       1       1       2       1       1       2       1       1       2
       1       1       2       1       1       2       1       1       2       1
       1       2       1       1       2       1       1       2       1       1
       2       1       1       2       1       1       2       1       1       2
       1       1       2       1       1       2       1       1       2       1
       1       2       1       1       2       1       1       2       1       1
       2       1       1       2       1       1       2       1       1       2
       1       1       2       1       1       2       1       1       2       1
       1       2       1       1       2       1       1       2       1       1
       2       1       1       2       1       1       2       1       1       2
       1       1       2       1       1       2       1       1       2       1
       1       2       1       1       2       1       1       2       1       1
       2       1       1       2       1       1       2       1       1       2
       1       1       2       1       1       2       1       1       2       1
       1       2       1       1       2       1       1       2       1       1
       2       1       1       2       1       1       2       1       1       2
       1       1       2       1       1       2       1       1       2       1
       1       2       1       1       2       1       1       2       1       1
       2       1       1       2       1       1       2       1       1       2
       1       1       2       1       1       2       1       1       2       1
       1       2       1       1       2       1       1       2       1       1
       2       1       1       2       1       1       2       1       1       2
       1       1       2       1       1       2       1       1       2       1
       1       2       1       1       2       1       1       2       1       1
       2       1       1       2       1       1       2       1       1       2
       1       1       2       1       1       2       1       1       2       1
       1       2       1       1       2       1       1       2       1       1
       2       1       1       2       1       1       2       1       1       2
       1       1       2       1       1       2       1       1       2       1
       1       2       1       1       2       1       1       2       1       1
       2       1       1       2       1       1       2       1       1       2
       1       1       2       1       1       2       1       1       2       1
       1       2       1       1       2       1       1       2       1       1
       2       1       1       2       1       1       2       1       1       2
       1       1       2       1       1       2       1       1       2       1
       1       2       1       1       2       1       1       2       1       1
       2       1       1       2       1       1       2       1       1       2
       1       1       2       1       1       2       1       1       2       1
       1       2       1       1       2       1       1       2       1       1
       2       1       1       2       1       1       2       1       1       2
       1       1       2       1       1       2       1       1       2       1
       1       2       1       1       2       1       1       2       1       1
       2       1       1       2       1       1       2       1       1       2
       1       1       2       1       1       2       1       1       2       1
       1       2       1       1       2       1       1       2       1       1
       2       1       1       2       1       1       2       1       1       2
       1       1       2       1       1       2       1       1       2       1
       1       2       1       1       2       1       1       2       1       1
       2       1       1       2       1       1       2       1       1       2
       1       1       2       1       1       2       1       1       2       1
       1       2       1       1       2       1       1       2       1       1
       2       1       1       2       1       1       2       1       1       2
       1       1       2       1       1       2       1       1       2       1
       1       2       1       1       2       1       1       2       1       1
       2       1       1       2       1       1       2       1       1       2
       1       1       2       1       1       2       1       1       2       1
       1       2       1       1       2       1       1       2       1       1
       2       1       1       2       1       1       2       1       1       2
       1       1       2       1       1       2       1       1       2       1
       1       2       1       1       2       1       1       2       1       1
       2       1       1       2       1       1       2       1       1       2
       1       1       2       1       1       2       1       1       2       1
       1       2       1       1       2       1       1       2       1       1
       2       1       1       2       1       1       2       1       1       2
       1       1       2       1       1       2       1       1       2       1
       1       2       1       1       2       1       1       2       1       1
       2       1       1       2       1       1       2       1       1       2
       1       1       2       1       1       2       1       1       2       1
       1       2       1       1       2       1       1       2       1       1
       2       1       1       2       1       1       2       1       1       2
       1       1       2       1       1       2       1       1       2       1
       1       2       1       1       2       1       1       2       1       1
       2       1       1       2       1       1       2       1       1       2
       1       1       2       1       1       2       1       1       2       1
       1       2       1       1       2       1       1       2       1       1
       2       1       1       2       1       1       2       1       1       2
       1       1       2       1       1       2       1       1       2       1
       1       2       1       1       2       1       1       2       1       1
       2       1       1       2       1       1       2       1       1       2
       1       1       2       1       1       2       1       1       2       1
       1       2       1       1       2       1       1       2       1       1
       2       1       1       2       1       1       2       1       1       2
       1       1       2       1       1       2       1       1       2       1
       1       2       1       1       2       1       1       2       1       1
       2       1       1       2       1       1       2       1       1       2
       1       1       2       1       1       2       1       1       2       1
       1       2       1       1       2       1       1       2       1       1
       2       1       1       2       1       1       2       1       1       2
       1       1       2       1       1       2       1       1       2       1
       1       2       1       1       2       1       1       2       1       1
       2       1       1       2       1       1       2       1       1       2
       1       1       2       1       1       2       1       1       2       1
       1       2       1       1       2       1       1       2       1       1
       2       1       1       2       1       1       2       1       1       2
       1       1       2       1       1       2       1       1       2       1
       1       2       1       1       2       1       1       2       1       1
       2       1       1       2       1       1       2       1       1       2
       1       1       2       1       1       2       1       1       2       1
       1       2       1       1       2       1       1       2       1       1
       2       1       1       2       1       1       2       1       1       2
       1       1       2       1       1       2       1       1       2       1
       1       2       1       1       2       1       1       2       1       1
       2       1       1       2       1       1       2       1       1       2
       1       1       2       1       1       2       1       1       2       1
       1       2       1       1       2       1       1       2       1       1
       2       1       1       2       1       1       2       1       1       2
       1       1       2       1       1       2       1       1       2       1
       1       2       1       1       2       1       1       2       1       1
       2       1       1       2       1       1       2       1       1       2
       1       1       2       1       1       2       1       1       2       1
       1       2       1       1       2       1       1       2       1       1
       2       1       1       2       1       1       2       1       1       2
       1       1       2       1       1       2       1       1       2       1
       1       2       1       1       2       1       1       2       1       1
       2       1       1       2       1       1       2       1       1       2
       1       1       2       1       1       2       1       1       2       1
       1       2       1       1       2       1       1       2       1       1
       2       1       1       2       1       1       2       1       1       2
       1       1       2       1       1       2       1       1       2       1
       1       2       1       1       2       1       1       2       1       1
       2       1       1       2       1       1       2       1       1       2
       1       1       2       1       1       2       1       1       2       1
       1       2       1       1       2       1       1       2       1       1
       2       1       1       2       1       1       2       1       1       2
       1       1       2       1       1       2       1       1       2       1
       1       2       1       1       2       1       1       2       1       1
       2       1       1       2       1       1       2       1       1       2
       1       1       2       1       1       2       1       1       2       1
       1       2       1       1       2       1       1       2       1       1
       2       1       1       2       1       1       2       1       1       2
       1       1       2       1       1       2       1       1       2       1
       1       2       1       1       2       1       1       2       1       1
       2       1       1       2       1       1       2       1       1       2
       1       1       2       1       1       2       1       1       2       1
       1       2       1       1       2       1       1       2       1       1
       2       1       1       2       1       1       2       1       1       2
       1       1       2       1       1       2       1       1       2       1
       1       2       1       1       2       1       1       2       1       1
       2       1       1       2       1       1       2       1       1       2
       1       1       2       1       1       2       1       1       2       1
       1       2       1       1       2       1       1       2       1       1
       2       1       1       2       1       1       2       1       1       2
       1       1       2       1       1       2       1       1       2       1
       1       2       1       1       2       1       1       2       1       1
       2       1       1       2       1       1       2       1       1       2
       1       1       2       1       1       2       1       1       2       1
       1       2       1       1       2       1       1       2       1       1
       2       1       1       2       1       1       2       1       1       2
       1       1       2       1       1       2       1       1       2       1
       1       2       1       1       2       1       1       2       1       1
       2       1       1       2       1       1       2       1       1       2
       1       1       2       1       1       2       1       1       2       1
       1       2       1       1       2       1       1       2       1       1
       2       1       1       2       1       1       2       1       1       2
       1       1       2       1       1       2       1       1       2       1
       1       2       1       1       2       1       1       2       1       1
       2       1       1       2       1       1       2       1       1       2
       1       1       2       1       1       2       1       1       2       1
       1       2       1       1       2       1       1       2       1       1
       2       1       1       2       1       1       2       1       1       2
       1       1       2       1       1       2       1       1       2       1
       1       2       1       1       2       1       1       2       1       1
       2       1       1       2       1       1       2       1       1       2
       1       1       2       1       1       2       1       1       2       1
       1       2       1       1       2       1       1       2       1       1
       2       1       1       2       1       1       2       1       1       2
       1       1       2       1       1       2       1       1       2       1
       1       2       1       1       2       1       1       2       1       1
       2       1       1       2       1       1       2       1       1       2
       1       1       2       1       1       2       1       1       2       1
       1       2       1       1       2       1       1       2       1       1
       2       1       1       2       1       1       2       1       1       2
       1       1       2       1       1       2       1       1       2       1
       1       2       1       1       2       1       1       2       1       1
       2       1       1       2       1       1       2       1       1       2
       1       1       2       1       1       2       1       1       2       1
       1       2       1       1       2       1       1       2       1       1
       2       1       1       2       1       1       2       1       1       2
       1       1       2       1       1       2       1       1       2       1
       1       2       1       1       2       1       1       2       1       1
       2       1       1       2       1       1       2       1       1       2
       1       1       2       1       1       2       1       1       2       1
       1       2       1       1       2       1       1       2       1       1
       2       1       1       2       1       1       2       1       1       2
       1       1       2       1       1       2       1       1       2       1
       1       2       1       1       2       1       1       2       1       1
       2       1       1       2       1       1       2       1       1       2
       1       1       2       1       1       2       1       1       2       1
       1       2       1       1       2       1       1       2       1       1
       2       1       1       2       1       1       2       1       1       2
       1       1       2       1       1       2       1       1       2       1
       1       2       1       1       2       1       1       2       1       1
       2       1       1       2       1       1       2       1       1       2
       1       1       2       1       1       2       1       1       2       1
       1       2       1       1       2       1       1       2       1       1
       2       1       1       2       1       1       2       1       1       2
       1       1       2       1       1       2       1       1       2       1
       1       2       1       1       2       1       1       2       1       1
       2       1       1       2       1       1       2       1       1       2
       1       1       2       1       1       2       1       1       2       1
       1       2       1       1       2       1       1       2       1       1
       2       1       1       2       1       1       2       1       1       2
       1       1       2       1       1       2       1       1       2       1
       1       2       1       1       2       1       1       2       1       1
       2       1       1       2       1       1       2       1       1       2
       1       1       2       1       1       2       1       1       2       1
       1       2       1       1       2       1       1       2       1       1
       2       1       1       2       1       1       2       1       1       2
       1       1       2       1       1       2       1       1       2       1
       1       2       1       1       2       1       1       2       1       1
       2       1       1       2       1       1       2       1       1       2
       1       1       2       1       1       2       1       1       2       1
       1       2       1       1       2       1       1       2       1       1
       2       1       1       2       1       1       2       1       1       2
       1       1       2       1       1       2       1       1       2       1
       1       2       1       1       2       1       1       2       1       1
       2       1       1       2       1       1       2       1       1       2
       1       1       2       1       1       2       1       1       2       1
       1       2       1       1       2       1       1       2       1       1
       2       1       1       2       1       1       2       1       1       2
       1       1       2       1       1       2       1       1       2       1
       1       2       1       1       2       1       1       2       1       1
       2       1       1       2       1       1       2       1       1       2
       1       1       2       1       1       2       1       1       2       1
       1       2       1       1       2       1       1       2       1       1
       2       1       1       2       1       1       2       1       1       2
       1       1       2       1       1       2       1       1       2       1
       1       2       1       1       2       1       1       2       1       1
       2       1       1       2       1       1       2       1       1       2
       1       1       2       1       1       2       1       1       2       1
       1       2       1       1       2       1       1       2       1       1
       2       1       1       2       1       1       2       1       1       2
       1       1       2       1       1       2       1       1       2       1
       1       2       1       1       2       1       1       2       1       1
       2       1       1       2       1       1       2       1       1       2
       1       1       2       1       1       2       1       1       2       1
       1       2       1       1       2       1       1       2       1       1
       2       1       1       2       1       1       2       1       1       2
       1       1       2       1       1       2       1       1       2       1
       1       2       1       1       2       1       1       2       1       1
       2       1       1       2       1       1       2       1       1       2
       1       1       2       1       1       2       1       1       2       1
       1       2       1       1       2       1       1       2       1       1
       2       1       1       2       1       1       2       1       1       2
       1       1       2       1       1       2       1       1       2       1
       1       2       1       1       2       1       1       2       1       1
       2       1       1       2       1       1       2       1       1       2
       1       1       2       1       1       2       1       1       2       1
       1       2       1       1       2       1       1       2       1       1
       2       1       1       2       1       1       2       1       1       2
       1       1       2       1       1       2       1       1       2       1
       1       2       1       1       2       1       1       2       1       1
       2       1       1       2       1       1       2       1       1       2
       1       1       2       1       1       2       1       1       2       1
       1       2       1       1       2       1       1       2       1       1
       2       1       1       2       1       1       2       1       1       2
       1       1       2       1       1       2       1       1       2       1
       1       2       1       1       2       1       1       2       1       1
       2       1       1       2       1       1       2       1       1       2
       1       1       2       1       1       2       1       1       2       1
       1       2       1       1       2       1       1       2       1       1
       2       1       1       2       1       1       2       1       1       2
       1       1       2       1       1       2       1       1       2       1
       1       2       1       1       2       1       1       2       1       1
       2       1       1       2       1       1       2       1       1       2
       1       1       2       1       1       2       1       1       2       1
       1       2       1       1       2       1       1       2       1       1
       2       1       1       2       1       1       2       1       1       2
       1       1       2       1       1       2       1       1       2       1
       1       2       1       1       2       1       1       2       1       1
       2       1       1       2       1       1       2       1       1       2
       1       1       2       1       1       2       1       1       2       1
       1       2       1       1       2       1       1       2       1       1
       2       1       1       2       1       1       2       1       1       2
       1       1       2       1       1       2       1       1       2       1
       1       2       1       1       2       1       1       2       1       1
       2       1       1       2       1       1       2       1       1       2
       1       1       2       1       1       2       1       1       2       1
       1       2       1       1       2       1       1       2       1       1
       2       1       1       2       1       1       2       1       1       2
       1       1       2       1       1       2       1       1       2       1
       1       2       1       1       2       1       1       2       1       1
       2       1       1       2       1       1       2       1       1       2
       1       1       2       1       1       2       1       1       2       1
       1       2       1       1       2       1       1       2       1       1
       2       1       1       2       1       1       2       1       1       2
       1       1       2       1       1       2       1       1       2       1
       1       2       1       1       2       1       1       2       1       1
       2       1       1       2       1       1       2       1       1       2
       1       1       2       1       1       2       1       1       2       1
       1       2       1       1       2       1       1       2       1       1
       2       1       1       2       1       1       2       1       1       2
       1       1       2       1       1       2       1       1       2       1
       1       2       1       1       2       1       1       2       1       1
       2       1       1       2       1       1       2       1       1       2
       1       1       2       1       1       2       1       1       2       1
       1       2       1       1       2       1       1       2       1       1
       2       1       1       2       1       1       2       1       1       2
       1       1       2       1       1       2       1       1       2       1
       1       2       1       1       2       1       1       2       1       1
       2       1       1       2       1       1       2       1       1       2
       1       1       2       1       1       2       1       1       2       1
       1       2       1       1       2       1       1       2       1       1
       2       1       1       2       1       1       2       1       1       2
       1       1       2       1       1       2       1       1       2       1
       1       2       1       1       2       1       1       2       1       1
       2       1       1       2       1       1       2       1       1       2
       1       1       2       1       1       2       1       1       2       1
       1       2       1       1       2       1       1       2       1       1
       2       1       1       2       1       1       2       1       1       2
       1       1       2       1       1       2       1       1       2       1
       1       2       1       1       2       1       1       2       1       1
       2       1       1       2       1       1       2       1       1       2
       1       1       2       1       1       2       1       1       2       1
       1       2       1       1       2       1       1       2       1       1
       2       1       1       2       1       1       2       1       1       2
       1       1       2       1       1       2       1       1       2       1
       1       2       1       1       2       1       1       2       1       1
       2       1       1       2       1       1       2       1       1       2
       1       1       2       1       1       2       1       1       2       1
       1       2       1       1       2       1       1       2       1       1
       2       1       1       2       1       1       2       1       1       2
       1       1       2       1       1       2       1       1       2       1
       1       2       1       1       2       1       1       2       1       1
       2       1       1       2       1       1       2       1       1       2
       1       1       2       1       1       2       1       1       2       1
       1       2       1       1       2       1       1       2       1       1
       2       1       1       2       1       1       2       1       1       2
       1       1       2       1       1       2       1       1       2       1
       1       2       1       1       2       1       1       2       1       1
       2       1       1       2       1       1       2       1       1       2
       1       1       2       1       1       2       1       1       2       1
       1       2       1       1       2       1       1       2       1       1
       2       1       1       2       1       1       2       1       1       2
       1       1       2       1       1       2       1       1       2       1
       1       2       1       1       2       1       1       2       1       1
       2       1       1       2       1       1       2       1       1       2
       1       1       2       1       1       2       1       1       2       1
       1       2       1       1       2       1       1       2       1       1
       2       1       1       2       1       1       2       1       1       2
       1       1       2       1       1       2       1       1       2       1
       1       2       1       1       2       1       1       2       1       1
       2       1       1       2       1       1       2       1       1       2
       1       1       2       1       1       2       1       1       2       1
       1       2       1       1       2       1       1       2       1       1
       2       1       1       2       1       1       2       1       1       2
       1       1       2       1       1       2       1       1       2       1
       1       2       1       1       2       1       1       2       1       1
       2       1       1       2       1       1       2       1       1       2
       1       1       2       1       1       2       1       1       2       1
       1       2       1       1       2       1       1       2       1       1
       2       1       1       2       1       1       2       1       1       2
       1       1       2       1       1       2       1       1       2       1
       1       2       1       1       2       1       1       2       1       1
       2       1       1       2       1       1       2       1       1       2
       1       1       2       1       1       2       1       1       2       1
       1       2       1       1       2       1       1       2       1       1
       2       1       1       2       1       1       2       1       1       2
       1       1       2       1       1       2       1       1       2       1
       1       2       1       1       2       1       1       2       1       1
       2       1       1       2       1       1       2       1       1       2
       1       1       2       1       1       2       1       1       2       1
       1       2       1       1       2       1       1       2       1       1
       2       1       1       2       1       1       2       1       1       2
       1       1       2       1       1       2       1       1       2       1
       1       2       1       1       2       1       1       2       1       1
       2       1       1       2       1       1       2       1       1       2
       1       1       2       1       1       2       1       1       2       1
       1       2       1       1       2       1       1       2       1       1
       2       1       1       2       1       1       2       1       1       2
       1       1       2       1       1       2       1       1       2       1
       1       2       1       1       2       1       1       2       1       1
       2       1       1       2       1       1       2       1       1       2
       1       1       2       1       1       2       1       1       2       1
       1       2       1       1       2       1       1       2       1       1
       2       1       1       2       1       1       2       1       1       2
       1       1       2       1       1       2       1       1       2       1
       1       2       1       1       2       1       1       2       1       1
       2       1       1       2       1       1       2       1       1       2
       1       1       2       1       1       2       1       1       2       1
       1       2       1       1       2       1       1       2       1       1
       2       1       1       2       1       1       2       1       1       2
       1       1       2       1       1       2       1       1       2       1
       1       2       1       1       2       1       1       2       1       1
       2       1       1       2       1       1       2       1       1       2
       1       1       2       1       1       2       1       1       2       1
       1       2       1       1       2       1       1       2       1       1
       2       1       1       2       1       1       2       1       1       2
       1       1       2       1       1       2       1       1       2       1
       1       2       1       1       2       1       1       2       1       1
       2       1       1       2       1       1       2       1       1       2
       1       1       2       1       1       2       1       1       2       1
       1       2       1       1       2       1       1       2       1       1
       2       1       1       2       1       1       2       1       1       2
       1       1       2       1       1       2       1       1       2       1
       1       2       1       1       2       1       1       2       1       1
       2       1       1       2       1       1       2       1       1       2
       1       1       2       1       1       2       1       1       2       1
       1       2       1       1       2       1       1       2       1       1
       2       1       1       2       1       1       2       1       1       2
       1       1       2       1       1       2       1       1       2       1
       1       2       1       1       2       1       1       2       1       1
       2       1       1       2       1       1       2       1       1       2
       1       1       2       1       1       2       1       1       2       1
       1       2       1       1       2       1       1       2       1       1
       2       1       1       2       1       1       2       1       1       2
       1       1       2       1       1       2       1       1       2       1
       1       2       1       1       2       1       1       2       1       1
       2       1       1       2       1       1       2       1       1       2
       1       1       2       1       1       2       1       1       2       1
       1       2       1       1       2       1       1       2       1       1
       2       1       1       2       1       1       2       1       1       2
       1       1       2       1       1       2       1       1       2       1
       1       2       1       1       2       1       1       2       1       1
       2       1       1       2       1       1       2       1       1       2
       1       1       2       1       1       2       1       1       2       1
       1       2       1       1       2       1       1       2       1       1
       2       1       1       2       1       1       2       1       1       2
       1       1       2       1       1       2       1       1       2       1
       1       2       1       1       2       1       1       2       1       1
       2       1       1       2       1       1       2       1       1       2
       1       1       2       1       1       2       1       1       2       1
       1       2       1       1       2       1       1       2       1       1
       2       1       1       2       1       1       2       1       1       2
       1       1       2       1       1       2       1       1       2       1
       1       2       1       1       2       1       1       2       1       1
       2       1       1       2       1       1       2       1       1       2
       1       1       2       1       1       2       1       1       2       1
       1       2       1       1       2       1       1       2       1       1
       2       1       1       2       1       1       2       1       1       2
       1       1       2       1       1       2       1       1       2       1
       1       2       1       1       2       1       1       2       1       1
       2       1       1       2       1       1       2       1       1       2
       1       1       2       1       1       2       1       1       2       1
       1       2       1       1       2       1       1       2       1       1
       2       1       1       2       1       1       2       1       1       2
       1       1       2       1       1       2       1       1       2       1
       1       2       1       1       2       1       1       2       1       1
       2       1       1       2       1       1       2       1       1       2
       1       1       2       1       1       2       1       1       2       1
       1       2       1       1       2       1       1       2       1       1
       2       1       1       2       1       1       2       1       1       2
       1       1       2       1       1       2       1       1       2       1
       1       2       1       1       2       1       1       2       1       1
       2       1       1       2       1       1       2       1       1       2
       1       1       2       1       1       2       1       1       2       1
       1       2       1       1       2       1       1       2       1       1
       2       1       1       2       1       1       2       1       1       2
       1       1       2       1       1       2       1       1       2       1
       1       2       1       1       2       1       1       2       1       1
       2       1       1       2       1       1       2       1       1       2
       1       1       2       1       1       2       1       1       2       1
       1       2       1       1       2       1       1       2       1       1
       2       1       1       2       1       1       2       1       1       2
       1       1       2       1       1       2       1       1       2       1
       1       2       1       1       2       1       1       2       1       1
       2       1       1       2       1       1       2       1       1       2
       1       1       2       1       1       2       1       1       2       1
       1       2       1       1       2       1       1       2       1       1
       2       1       1       2       1       1       2       1       1       2
       1       1       2       1       1       2       1       1       2       1
       1       2       1       1       2       1       1       2       1       1
       2       1       1       2       1       1       2       1       1       2
       1       1       2       1       1       2       1       1       2       1
       1       2       1       1       2       1       1       2       1       1
       2       1       1       2       1       1       2       1       1       2
       1       1       2       1       1       2       1       1       2       1
       1       2       1       1       2       1       1       2       1       1
       2       1       1       2       1       1       2       1       1       2
       1       1       2       1       1       2       1       1       2       1
       1       2       1       1       2       1       1       2       1       1
       2       1       1       2       1       1       2       1       1       2
       1       1       2       1       1       2       1       1       2       1
       1       2       1       1       2       1       1       2       1       1
       2       1       1       2       1       1       2       1       1       2
       1       1       2       1       1       2       1       1       2       1
       1       2       1       1       2       1       1       2       1       1
       2       1       1       2       1       1       2       1       1       2
       1       1       2       1       1       2       1       1       2       1
       1       2       1       1       2       1       1       2       1       1
       2       1       1       2       1       1       2       1       1       2
       1       1       2       1       1       2       1       1       2       1
       1       2       1       1       2       1       1       2       1       1
       2       1       1       2       1       1       2       1       1       2
       1       1       2       1       1       2       1       1       2       1
       1       2       1       1       2       1       1       2       1       1
       2       1       1       2       1       1       2       1       1       2
       1       1       2       1       1       2       1       1       2       1
       1       2       1       1       2       1       1       2       1       1
       2       1       1       2       1       1       2       1       1       2
       1       1       2       1       1       2       1       1       2       1
       1       2       1       1       2       1       1       2       1       1
       2       1       1       2       1       1       2       1       1       2
       1       1       2       1       1       2       1       1       2       1
       1       2       1       1       2       1       1       2       1       1
       2       1       1       2       1       1       2       1       1       2
       1       1       2       1       1       2       1       1       2       1
       1       2       1       1       2       1       1       2       1       1
       2       1       1       2       1       1       2       1       1       2
       1       1       2       1       1       2       1       1       2       1
       1       2       1       1       2       1       1       2       1       1
       2       1       1       2       1       1       2       1       1       2
       1       1       2       1       1       2       1       1       2       1
       1       2       1       1       2       1       1       2       1       1
       2       1       1       2       1       1       2       1       1       2
       1       1       2       1       1       2       1       1       2       1
       1       2       1       1       2       1       1       2       1       1
       2       1       1       2       1       1       2       1       1       2
       1       1       2       1       1       2       1       1       2       1
       1       2       1       1       2       1       1       2       1       1
       2       1       1       2       1       1       2       1       1       2
       1       1       2       1       1       2       1       1       2       1
       1       2       1       1       2       1       1       2       1       1
       2       1       1       2       1       1       2       1       1       2
       1       1       2       1       1       2       1       1       2       1
       1       2       1       1       2       1       1       2       1       1
       2       1       1       2       1       1       2       1       1       2
       1       1       2       1       1       2       1       1       2       1
       1       2       1       1       2       1       1       2       1       1
       2       1       1       2       1       1       2       1       1       2
       1       1       2       1       1       2       1       1       2       1
       1       2       1       1       2       1       1       2       1       1
       2       1       1       2       1       1       2       1       1       2
       1       1       2       1       1       2       1       1       2       1
       1       2       1       1       2       1       1       2       1       1
       2       1       1       2       1       1       2       1       1       2
       1       1       2       1       1       2       1       1       2       1
       1       2       1       1       2       1       1       2       1       1
       2       1       1       2       1       1       2       1       1       2
       1       1       2       1       1       2       1       1       2       1
       1       2       1       1       2       1       1       2       1       1
       2       1       1       2       1       1       2       1       1       2
       1       1       2       1       1       2       1       1       2       1
       1       2       1       1       2       1       1       2       1       1
       2       1       1       2       1       1       2       1       1       2
       1       1       2       1       1       2       1       1       2       1
       1       2       1       1       2       1       1       2       1       1
       2       1       1       2       1       1       2       1       1       2
       1       1       2       1       1       2       1       1       2       1
       1       2       1       1       2       1       1       2       1       1
       2       1       1       2       1       1       2       1       1       2
       1       1       2       1       1       2       1       1       2       1
       1       2       1       1       2       1       1       2       1       1
       2       1       1       2       1       1       2       1       1       2
       1       1       2       1       1       2       1       1       2       1
       1       2       1       1       2       1       1       2       1       1
       2       1       1       2       1       1       2       1       1       2
       1       1       2       1       1       2       1       1       2       1
       1       2       1       1       2       1       1       2       1       1
       2       1       1       2       1       1       2       1       1       2
       1       1       2       1       1       2       1       1       2       1
       1       2       1       1       2       1       1       2       1       1
       2       1       1       2       1       1       2       1       1       2
       1       1       2       1       1       2       1       1       2       1
       1       2       1       1       2       1       1       2       1       1
       2       1       1       2       1       1       2       1       1       2
       1       1       2       1       1       2       1       1       2       1
       1       2       1       1       2       1       1       2       1       1
       2       1       1       2       1       1       2       1       1       2
       1       1       2       1       1       2       1       1       2       1
       1       2       1       1       2       1       1       2       1       1
       2       1       1       2       1       1       2       1       1       2
       1       1       2       1       1       2       1       1       2       1
       1       2       1       1       2       1       1       2       1       1
       2       1       1       2       1       1       2       1       1       2
       1       1       2       1       1       2       1       1       2       1
       1       2       1       1       2       1       1       2       1       1
       2       1       1       2       1       1       2       1       1       2
       1       1       2       1       1       2       1       1       2       1
       1       2       1       1       2       1       1       2       1       1
       2       1       1       2       1       1       2       1       1       2
       1       1       2       1       1       2       1       1       2       1
       1       2       1       1       2       1       1       2       1       1
       2       1       1       2       1       1       2       1       1       2
       1       1       2       1       1       2       1       1       2       1
       1       2       1       1       2       1       1       2       1       1
       2       1       1       2       1       1       2       1       1       2
       1       1       2       1       1       2       1       1       2       1
       1       2       1       1       2       1       1       2       1       1
       2       1       1       2       1       1       2       1       1       2
       1       1       2       1       1       2       1       1       2       1
       1       2       1       1       2       1       1       2       1       1
       2       1       1       2       1       1       2       1       1       2
       1       1       2       1       1       2       1       1       2       1
       1       2       1       1       2       1       1       2       1       1
       2       1       1       2       1       1       2       1       1       2
       1       1       2       1       1       2       1       1       2       1
       1       2       1       1       2       1       1       2       1       1
       2       1       1       2       1       1       2       1       1       2
       1       1       2       1       1       2       1       1       2       1
       1       2       1       1       2       1       1       2       1       1
       2       1       1       2       1       1       2       1       1       2
       1       1       2       1       1       2       1       1       2       1
       1       2       1       1       2       1       1       2       1       1
       2       1       1       2       1       1       2       1       1       2
       1       1       2       1       1       2       1       1       2       1
       1       2       1       1       2       1       1       2       1       1
       2       1       1       2       1       1       2       1       1       2
       1       1       2       1       1       2       1       1       2       1
       1       2       1       1       2       1       1       2       1       1
       2       1       1       2       1       1       2       1       1       2
       1       1       2       1       1       2       1       1       2       1
       1       2       1       1       2       1       1       2       1       1
       2       1       1       2       1       1       2       1       1       2
       1       1       2       1       1       2       1       1       2       1
       1       2       1       1       2       1       1       2       1       1
       2       1       1       2       1       1       2       1       1       2
       1       1       2       1       1       2       1       1       2       1
       1       2       1       1       2       1       1       2       1       1
       2       1       1       2       1       1       2       1       1       2
       1       1       2       1       1       2       1       1       2       1
       1       2       1       1       2       1       1       2       1       1
       2       1       1       2       1       1       2       1       1       2
       1       1       2       1       1       2       1       1       2       1
       1       2       1       1       2       1       1       2       1       1
       2       1       1       2       1       1       2       1       1       2
       1       1       2       1       1       2       1       1       2       1
       1       2       1       1       2       1       1       2       1       1
       2       1       1       2       1       1       2       1       1       2
       1       1       2       1       1       2       1       1       2       1
       1       2       1       1       2       1       1       2       1       1
       2       1       1       2       1       1       2       1       1       2
       1       1       2       1       1       2       1       1       2       1
       1       2       1       1       2       1       1       2       1       1
       2       1       1       2       1       1       2       1       1       2
       1       1       2       1       1       2       1       1       2       1
       1       2       1       1       2       1       1       2       1       1
       2       1       1       2       1       1       2       1       1       2
       1       1       2       1       1       2       1       1       2       1
       1       2       1       1       2       1       1       2       1       1
       2       1       1       2       1       1       2       1       1       2
       1       1       2       1       1       2       1       1       2       1
       1       2       1       1       2       1       1       2       1       1
       2       1       1       2       1       1       2       1       1       2
       1       1       2       1       1       2       1       1       2       1
       1       2       1       1       2       1       1       2       1       1
       2       1       1       2       1       1       2       1       1       2
       1       1       2       1       1       2       1       1       2       1
       1       2       1       1       2       1       1       2       1       1
       2       1       1       2       1       1       2       1       1       2
       1       1       2       1       1       2       1       1       2       1
       1       2       1       1       2       1       1       2       1       1
       2       1       1       2       1       1       2       1       1       2
       1       1       2       1       1       2       1       1       2       1
       1       2       1       1       2       1       1       2       1       1
       2       1       1       2       1       1       2       1       1       2
       1       1       2       1       1       2       1       1       2       1
       1       2       1       1       2       1       1       2       1       1
       2       1       1       2       1       1       2       1       1       2
       1       1       2       1       1       2       1       1       2       1
       1       2       1       1       2       1       1       2       1       1
       2       1       1       2       1       1       2       1       1       2
       1       1       2       1       1       2       1       1       2       1
       1       2       1       1       2       1       1       2       1       1
       2       1       1       2       1       1       2       1       1       2
       1       1       2       1       1       2       1       1       2       1
       1       2       1       1       2       1       1       2       1       1
       2       1       1       2       1       1       2       1       1       2
       1       1       2       1       1       2       1       1       2       1
       1       2       1       1       2       1       1       2       1       1
       2       1       1       2       1       1       2       1       1       2
       1       1       2       1       1       2       1       1       2       1
       1       2       1       1       2       1       1       2       1       1
       2       1       1       2       1       1       2       1       1       2
       1       1       2       1       1       2       1       1       2       1
       1       2       1       1       2       1       1       2       1       1
       2       1       1       2       1       1       2       1       1       2
       1       1       2       1       1       2       1       1       2       1
       1       2       1       1       2       1       1       2       1       1
       2       1       1       2       1       1       2       1       1       2
       1       1       2       1       1       2       1       1       2       1
       1       2       1       1       2       1       1       2       1       1
       2       1       1       2       1       1       2       1       1       2
       1       1       2       1       1       2       1       1       2       1
       1       2       1       1       2       1       1       2       1       1
       2       1       1       2       1       1       2       1       1       2
       1       1       2       1       1       2       1       1       2       1
       1       2       1       1       2       1       1       2       1       1
       2       1       1       2       1       1       2       1       1       2
       1       1       2       1       1       2       1       1       2       1
       1       2       1       1       2       1       1       2       1       1
       2       1       1       2       1       1       2       1       1       2
       1       1       2       1       1       2       1       1       2       1
       1       2       1       1       2       1       1       2       1       1
       2       1       1       2       1       1       2       1       1       2
       1       1       2       1       1       2       1       1       2       1
       1       2       1       1       2       1       1       2       1       1
       2       1       1       2       1       1       2       1       1       2
       1       1       2       1       1       2       1       1       2       1
       1       2       1       1       2       1       1       2       1       1
       2       1       1       2       1       1       2       1       1       2
       1       1       2       1       1       2       1       1       2       1
       1       2       1       1       2       1       1       2       1       1
       2       1       1       2       1       1       2       1       1       2
       1       1       2       1       1       2       1       1       2       1
       1       2       1       1       2       1       1       2       1       1
       2       1       1       2       1       1       2       1       1       2
       1       1       2       1       1       2       1       1       2       1
       1       2       1       1       2       1       1       2       1       1
       2       1       1       2       1       1       2       1       1       2
       1       1       2       1       1       2       1       1       2       1
       1       2       1       1       2       1       1       2       1       1
       2       1       1       2       1       1       2       1       1       2
       1       1       2       1       1       2       1       1       2       1
       1       2       1       1       2       1       1       2       1       1
       2       1       1       2       1       1       2       1       1       2
       1       1       2       1       1       2       1       1       2       1
       1       2       1       1       2       1       1       2       1       1
       2       1       1       2       1       1       2       1       1       2
       1       1       2       1       1       2       1       1       2       1
       1       2       1       1       2       1       1       2       1       1
       2       1       1       2       1       1       2       1       1       2
       1       1       2       1       1       2       1       1       2       1
       1       2       1       1       2       1       1       2       1       1
       2       1       1       2       1       1       2       1       1       2
       1       1       2       1       1       2       1       1       2       1
       1       2       1       1       2       1       1       2       1       1
       2       1       1       2       1       1       2       1       1       2
       1       1       2       1       1       2       1       1       2       1
       1       2       1       1       2       1       1       2       1       1
       2       1       1       2       1       1       2       1       1       2
       1       1       2       1       1       2       1       1       2       1
       1       2       1       1       2       1       1       2       1       1
       2       1       1       2       1       1       2       1       1       2
       1       1       2       1       1       2       1       1       2       1
       1       2       1       1       2       1       1       2       1       1
       2       1       1       2       1       1       2       1       1       2
       1       1       2       1       1       2       1       1       2       1
       1       2       1       1       2       1       1       2       1       1
       2       1       1       2       1       1       2       1       1       2
       1       1       2       1       1       2       1       1       2       1
       1       2       1       1       2       1       1       2       1       1
       2       1       1       2       1       1       2       1       1       2
       1       1       2       1       1       2       1       1       2       1
       1       2       1       1       2       1       1       2       1       1
       2       1       1       2       1       1       2       1       1       2
       1       1       2       1       1       2       1       1       2       1
       1       2       1       1       2       1       1       2       1       1
       2       1       1       2       1       1       2       1       1       2
       1       1       2       1       1       2       1       1       2       1
       1       2       1       1       2       1       1       2       1       1
       2       1       1       2       1       1       2       1       1       2
       1       1       2       1       1       2       1       1       2       1
       1       2       1       1       2       1       1       2       1       1
       2       1       1       2       1       1       2       1       1       2
       1       1       2       1       1       2       1       1       2       1
       1       2       1       1       2       1       1       2       1       1
       2       1       1       2       1       1       2       1       1       2
       1       1       2       1       1       2       1       1       2       1
       1       2       1       1       2       1       1       2       1       1
       2       1       1       2       1       1       2       1       1       2
       1       1       2       1       1       2       1       1       2       1
       1       2       1       1       2       1       1       2       1       1
       2       1       1       2       1       1       2       1       1       2
       1       1       2       1       1       2       1       1       2       1
       1       2       1       1       2       1       1       2       1       1
       2       1       1       2       1       1       2       1       1       2
       1       1       2       1       1       2       1       1       2       1
       1       2       1       1       2       1       1       2       1       1
       2       1       1       2       1       1       2       1       1       2
       1       1       2       1       1       2       1       1       2       1
       1       2       1       1       2       1       1       2       1       1
       2       1       1       2       1       1       2       1       1       2
       1       1       2       1       1       2       1       1       2       1
       1       2       1       1       2       1       1       2       1       1
       2       1       1       2       1       1       2       1       1       2
       1       1       2       1       1       2       1       1       2       1
       1       2       1       1       2       1       1       2       1       1
       2       1       1       2       1       1       2       1       1       2
       1       1       2       1       1       2       1       1       2       1
       1       2       1       1       2       1       1       2       1       1
       2       1       1       2       1       1       2       1       1       2
       1       1       2       1       1       2       1       1       2       1
       1       2       1       1       2       1       1       2       1       1
       2       1       1       2       1       1       2       1       1       2
       1       1       2       1       1       2       1       1       2       1
       1       2       1       1       2       1       1       2       1       1
       2       1       1       2       1       1       2       1       1       2
       1       1       2       1       1       2       1       1       2       1
       1       2       1       1       2       1       1       2       1       1
       2       1       1       2       1       1       2       1       1       2
       1       1       2       1       1       2       1       1       2       1
       1       2       1       1       2       1       1       2       1       1
       2       1       1       2       1       1       2       1       1       2
       1       1       2       1       1       2       1       1       2       1
       1       2       1       1       2       1       1       2       1       1
       2       1       1       2       1       1       2       1       1       2
       1       1       2       1       1       2       1       1       2       1
       1       2       1       1       2       1       1       2       1       1
       2       1       1       2       1       1       2       1       1       2
       1       1       2       1       1       2       1       1       2       1
       1       2       1       1       2       1       1       2       1       1
       2       1       1       2       1       1       2       1       1       2
       1       1       2       1       1       2       1       1       2       1
       1       2       1       1       2       1       1       2       1       1
       2       1       1       2       1       1       2       1       1       2
       1       1       2       1       1       2       1       1       2       1
       1       2       1       1       2       1       1       2       1       1
       2       1       1       2       1       1       2       1       1       2
       1       1       2       1       1       2       1       1       2       1
       1       2       1       1       2       1       1       2       1       1
       2       1       1       2       1       1       2       1       1       2
       1       1       2       1       1       2       1       1       2       1
       1       2       1       1       2       1       1       2       1       1
       2       1       1       2       1       1       2       1       1       2
       1       1       2       1       1       2       1       1       2       1
       1       2       1       1       2       1       1       2       1       1
       2       1       1       2       1       1       2       1       1       2
       1       1       2       1       1       2       1       1       2       1
       1       2       1       1       2       1       1       2       1       1
       2       1       1       2       1       1       2       1       1       2
       1       1       2       1       1       2       1       1       2       1
       1       2       1       1       2       1       1       2       1       1
       2       1       1       2       1       1       2       1       1       2
       1       1       2       1       1       2       1       1       2       1
       1       2       1       1       2       1       1       2       1       1
       2       1       1       2       1       1       2       1       1       2
       1       1       2       1       1       2       1       1       2       1
       1       2       1       1       2       1       1       2       1       1
       2       1       1       2       1       1       2       1       1       2
       1       1       2       1       1       2       1       1       2       1
       1       2       1       1       2       1       1       2       1       1
       2       1       1       2       1       1       2       1       1       2
       1       1       2       1       1       2       1       1       2       1
       1       2       1       1       2       1       1       2       1       1
       2       1       1       2       1       1       2       1       1       2
       1       1       2       1       1       2       1       1       2       1
       1       2       1       1       2       1       1       2       1       1
       2       1       1       2       1       1       2       1       1       2
       1       1       2       1       1       2       1       1       2       1
       1       2       1       1       2       1       1       2       1       1
       2       1       1       2       1       1       2       1       1       2
       1       1       2       1       1       2       1       1       2       1
       1       2       1       1       2       1       1       2       1       1
       2       1       1       2       1       1       2       1       1       2
       1       1       2       1       1       2       1       1       2       1
       1       2       1       1       2       1       1       2       1       1
       2       1       1       2       1       1       2       1       1       2
       1       1       2       1       1       2       1       1       2       1
       1       2       1       1       2       1       1       2       1       1
       2       1       1       2       1       1       2       1       1       2
       1       1       2       1       1       2       1       1       2       1
       1       2       1       1       2       1       1       2       1       1
       2       1       1       2       1       1       2       1       1       2
       1       1       2       1       1       2       1       1       2       1
       1       2       1       1       2       1       1       2       1       1
       2       1       1       2       1       1       2       1       1       2
       1       1       2       1       1       2       1       1       2       1
       1       2       1       1       2       1       1       2       1       1
       2       1       1       2       1       1       2       1       1       2
       1       1       2       1       1       2       1       1       2       1
       1       2       1       1       2       1       1       2       1       1
       2       1       1       2       1       1       2       1       1       2
       1       1       2       1       1       2       1       1       2       1
       1       2       1       1       2       1       1       2       1       1
       2       1       1       2       1       1       2       1       1       2
       1       1       2       1       1       2       1       1       2       1
       1       2       1       1       2       1       1       2       1       1
       2       1       1       2       1       1       2       1       1       2
       1       1       2       1       1       2       1       1       2       1
       1       2       1       1       2       1       1       2       1       1
       2       1       1       2       1       1       2       1       1       2
       1       1       2       1       1       2       1       1       2       1
       1       2       1       1       2       1       1       2       1       1
       2       1       1       2       1       1       2       1       1       2
       1       1       2       1       1       2       1       1       2       1
       1       2       1       1       2       1       1       2       1       1
       2       1       1       2       1       1       2       1       1       2
       1       1       2       1       1       2       1       1       2       1
       1       2       1       1       2       1       1       2       1       1
       2       1       1       2       1       1       2       1       1       2
       1       1       2       1       1       2       1       1       2       1
       1       2       1       1       2       1       1       2       1       1
       2       1       1       2       1       1       2       1       1       2
       1       1       2       1       1       2       1       1       2       1
       1       2       1       1       2       1       1       2       1       1
       2       1       1       2       1       1       2       1       1       2
       1       1       2       1       1       2       1       1       2       1
       1       2       1       1       2       1       1       2       1       1
       2       1       1       2       1       1       2       1       1       2
       1       1       2       1       1       2       1       1       2       1
       1       2       1       1       2       1       1       2       1       1
       2       1       1       2       1       1       2       1       1       2
       1       1       2       1       1       2       1       1       2       1
       1       2       1       1       2       1       1       2       1       1
       2       1       1       2       1       1       2       1       1       2
       1       1       2       1       1       2       1       1       2       1
       1       2       1       1       2       1       1       2       1       1
       2       1       1       2       1       1       2       1       1       2
       1       1       2       1       1       2       1       1       2       1
       1       2       1       1       2       1       1       2       1       1
       2       1       1       2       1       1       2       1       1       2
       1       1       2       1       1       2       1       1       2       1
       1       2       1       1       2       1       1       2       1       1
       2       1       1       2       1       1       2       1       1       2
       1       1       2       1       1       2       1       1       2       1
       1       2       1       1       2       1       1       2       1       1
       2       1       1       2       1       1       2       1       1       2
       1       1       2       1       1       2       1       1       2       1
       1       2       1       1       2       1       1       2       1       1
       2       1       1       2       1       1       2       1       1       2
       1       1       2       1       1       2       1       1       2       1
       1       2       1       1       2       1       1       2       1       1
       2       1       1       2       1       1       2       1       1       2
       1       1       2       1       1       2       1       1       2       1
       1       2       1       1       2       1       1       2       1       1
       2       1       1       2       1       1       2       1       1       2
       1       1       2       1       1       2       1       1       2       1
       1       2       1       1       2       1       1       2       1       1
       2       1       1       2       1       1       2       1       1       2
       1       1       2       1       1       2       1       1       2       1
       1       2       1       1       2       1       1       2       1       1
       2       1       1       2       1       1       2       1       1       2
       1       1       2       1       1       2       1       1       2       1
       1       2       1       1       2       1       1       2       1       1
       2       1       1       2       1       1       2       1       1       2
       1       1       2       1       1       2       1       1       2       1
       1       2       1       1       2       1       1       2       1       1
       2       1       1       2       1       1       2       1       1       2
       1       1       2       1       1       2       1       1       2       1
       1       2       1       1       2       1       1       2       1       1
       2       1       1       2       1       1       2       1       1       2
       1       1       2       1       1       2       1       1       2       1
       1       2       1       1       2       1       1       2       1       1
       2       1       1       2       1       1       2       1       1       2
       1       1       2       1       1       2       1       1       2       1
       1       2       1       1       2       1       1       2       1       1
       2       1       1       2       1       1       2       1       1       2
       1       1       2       1       1       2       1       1       2       1
       1       2       1       1       2       1       1       2       1       1
       2       1       1       2       1       1       2       1       1       2
       1       1       2       1       1       2       1       1       2       1
       1       2       1       1       2       1       1       2       1       1
       2       1       1       2       1       1       2       1       1       2
       1       1       2       1       1       2       1       1       2       1
       1       2       1       1       2       1       1       2       1       1
       2       1       1       2       1       1       2       1       1       2
       1       1       2       1       1       2       1       1       2       1
       1       2       1       1       2       1       1       2       1       1
       2       1       1       2       1       1       2       1       1       2
       1       1       2       1       1       2       1       1       2       1
       1       2       1       1       2       1       1       2       1       1
       2       1       1       2       1       1       2       1       1       2
       1       1       2       1       1       2       1       1       2       1
       1       2       1       1       2       1       1       2       1       1
       2       1       1       2       1       1       2       1       1       2
       1       1       2       1       1       2       1       1       2       1
       1       2       1       1       2       1       1       2       1       1
       2       1       1       2       1       1       2       1       1       2
       1       1       2       1       1       2       1       1       2       1
       1       2       1       1       2       1       1       2       1       1
       2       1       1       2       1       1       2       1       1       2
       1       1       2       1       1       2       1       1       2       1
       1       2       1       1       2       1       1       2       1       1
       2       1       1       2       1       1       2       1       1       2
       1       1       2       1       1       2       1       1       2       1
       1       2       1       1       2       1       1       2       1       1
       2       1       1       2       1       1       2       1       1       2
       1       1       2       1       1       2       1       1       2       1
       1       2       1       1       2       1       1       2       1       1
       2       1       1       2       1       1       2       1       1       2
       1       1       2       1       1       2       1       1       2       1
       1       2       1       1       2       1       1       2       1       1
       2       1       1       2       1       1       2       1       1       2
       1       1       2       1       1       2       1       1       2       1
       1       2       1       1       2       1       1       2       1       1
       2       1       1       2       1       1       2       1       1       2
       1       1       2       1       1       2       1       1       2       1
       1       2       1       1       2       1       1       2       1       1
       2       1       1       2       1       1       2       1       1       2
       1       1       2       1       1       2       1       1       2       1
       1       2       1       1       2       1       1       2       1       1
       2       1       1       2       1       1       2       1       1       2
       1       1       2       1       1       2       1       1       2       1
       1       2       1       1       2       1       1       2       1       1
       2       1       1       2       1       1       2       1       1       2
       1       1       2       1       1       2       1       1       2       1
       1       2       1       1       2       1       1       2       1       1
       2       1       1       2       1       1       2       1       1       2
       1       1       2       1       1       2       1       1       2       1
       1       2       1       1       2       1       1       2       1       1
       2       1       1       2       1       1       2       1       1       2
       1       1       2       1       1       2       1       1       2       1
       1       2       1       1       2       1       1       2       1       1
       2       1       1       2       1       1       2       1       1       2
       1       1       2       1       1       2       1       1       2       1
       1       2       1       1       2       1       1       2       1       1
       2       1       1       2       1       1       2       1       1       2
       1       1       2       1       1       2       1       1       2       1
       1       2       1       1       2       1       1       2       1       1
       2       1       1       2       1       1       2       1       1       2
       1       1       2       1       1       2       1       1       2       1
       1       2       1       1       2       1       1       2       1       1
       2       1       1       2       1       1       2       1       1       2
       1       1       2       1       1       2       1       1       2       1
       1       2       1       1       2       1       1       2       1       1
       2       1       1       2       1       1       2       1       1       2
       1       1       2       1       1       2       1       1       2       1
       1       2       1       1       2       1       1       2       1       1
       2       1       1       2       1       1       2       1       1       2
       1       1       2       1       1       2       1       1       2       1
       1       2       1       1       2       1       1       2       1       1
       2       1       1       2       1       1       2       1       1       2
       1       1       2       1       1       2       1       1       2       1
       1       2       1       1       2       1       1       2       1       1
       2       1       1       2       1       1       2       1       1       2
       1       1       2       1       1       2       1       1       2       1
       1       2       1       1       2       1       1       2       1       1
       2       1       1       2       1       1       2       1       1       2
       1       1       2       1       1       2       1       1       2       1
       1       2       1       1       2       1       1       2       1       1
       2       1       1       2       1       1       2       1       1       2
       1       1       2       1       1       2       1       1       2       1
       1       2       1       1       2       1       1       2       1       1
       2       1       1       2       1       1       2       1       1       2
       1       1       2       1       1       2       1       1       2       1
       1       2       1       1       2       1       1       2       1       1
       2       1       1       2       1       1       2       1       1       2
       1       1       2       1       1       2       1       1       2       1
       1       2       1       1       2       1       1       2       1       1
       2       1       1       2       1       1       2       1       1       2
       1       1       2       1       1       2       1       1       2       1
       1       2       1       1       2       1       1       2       1       1
       2       1       1       2       1       1       2       1       1       2
       1       1       2       1       1       2       1       1       2       1
       1       2       1       1       2       1       1       2       1       1
       2       1       1       2       1       1       2       1       1       2
       1       1       2       1       1       2       1       1       2       1
       1       2       1       1       2       1       1       2       1       1
       2       1       1       2       1       1       2       1       1       2
       1       1       2       1       1       2       1       1       2       1
       1       2       1       1       2       1       1       2       1       1
       2       1       1       2       1       1       2       1       1       2
       1       1       2       1       1       2       1       1       2       1
       1       2       1       1       2       1       1       2       1       1
       2       1       1       2       1       1       2       1       1       2
       1       1       2       1       1       2       1       1       2       1
       1       2       1       1       2       1       1       2       1       1
       2       1       1       2       1       1       2       1       1       2
       1       1       2       1       1       2       1       1       2       1
       1       2       1       1       2       1       1       2       1       1
       2       1       1       2       1       1       2       1       1       2
       1       1       2       1       1       2       1       1       2       1
       1       2       1       1       2       1       1       2       1       1
       2       1       1       2       1       1       2       1       1       2
       1       1       2       1       1       2       1       1       2       1
       1       2       1       1       2       1       1       2       1       1
       2       1       1       2       1       1       2       1       1       2
       1       1       2       1       1       2       1       1       2       1
       1       2       1       1       2       1       1       2       1       1
       2       1       1       2       1       1       2       1       1       2
       1       1       2       1       1       2       1       1       2       1
       1       2       1       1       2       1       1       2       1       1
       2       1       1       2       1       1       2       1       1       2
       1       1       2       1       1       2       1       1       2       1
       1       2       1       1       2       1       1       2       1       1
       2       1       1       2       1       1       2       1       1       2
       1       1       2       1       1       2       1       1       2       1
       1       2       1       1       2       1       1       2       1       1
       2       1       1       2       1       1       2       1       1       2
       1       1       2       1       1       2       1       1       2       1
       1       2       1       1       2       1       1       2       1       1
       2       1       1       2       1       1       2       1       1       2
       1       1       2       1       1       2       1       1       2       1
       1       2       1       1       2       1       1       2       1       1
       2       1       1       2       1       1       2       1       1       2
       1       1       2       1       1       2       1       1       2       1
       1       2       1       1       2       1       1       2       1       1
       2       1       1       2       1       1       2       1       1       2
       1       1       2       1       1       2       1       1       2       1
       1       2       1       1       2       1       1       2       1       1
       2       1       1       2       1       1       2       1       1       2
       1       1       2       1       1       2       1       1       2       1
       1       2       1       1       2       1       1       2       1       1
       2       1       1       2       1       1       2       1       1       2
       1       1       2       1       1       2       1       1       2       1
       1       2       1       1       2       1       1       2       1       1
       2       1       1       2       1       1       2       1       1       2
       1       1       2       1       1       2       1       1       2       1
       1       2       1       1       2       1       1       2       1       1
       2       1       1       2       1       1       2       1       1       2
       1       1       2       1       1       2       1       1       2       1
       1       2       1       1       2       1       1       2       1       1
       2       1       1       2       1       1       2       1       1       2
       1       1       2       1       1       2       1       1       2       1
       1       2       1       1       2       1       1       2       1       1
       2       1       1       2       1       1       2       1       1       2
       1       1       2       1       1       2       1       1       2       1
       1       2       1       1       2       1       1       2       1       1
       2       1       1       2       1       1       2       1       1       2
       1       1       2       1       1       2       1       1       2       1
       1       2       1       1       2       1       1       2       1       1
       2       1       1       2       1       1       2       1       1       2
       1       1       2       1       1       2       1       1       2       1
       1       2       1       1       2       1       1       2       1       1
       2       1       1       2       1       1       2       1       1       2
       1       1       2       1       1       2       1       1       2       1
       1       2       1       1       2       1       1       2       1       1
       2       1       1       2       1       1       2       1       1       2
       1       1       2       1       1       2       1       1       2       1
       1       2       1       1       2       1       1       2       1       1
       2       1       1       2       1       1       2       1       1       2
       1       1       2       1       1       2       1       1       2       1
       1       2       1       1       2       1       1       2       1       1
       2       1       1       2       1       1       2       1       1       2
       1       1       2       1       1       2       1       1       2       1
       1       2       1       1       2       1       1       2       1       1
       2       1       1       2       1       1       2       1       1       2
       1       1       2       1       1       2       1       1       2       1
       1       2       1       1       2       1       1       2       1       1
       2       1       1       2       1       1       2       1       1       2
       1       1       2       1       1       2       1       1       2       1
       1       2       1       1       2       1       1       2       1       1
       2       1       1       2       1       1       2       1       1       2
       1       1       2       1       1       2       1       1       2       1
       1       2       1       1       2       1       1       2       1       1
       2       1       1       2       1       1       2       1       1       2
       1       1       2       1       1       2       1       1       2       1
       1       2       1       1       2       1       1       2       1       1
       2       1       1       2       1       1       2       1       1       2
       1       1       2       1       1       2       1       1       2       1
       1       2       1       1       2       1       1       2       1       1
       2       1       1       2       1       1       2       1       1       2
       1       1       2       1       1       2       1       1       2       1
       1       2       1       1       2       1       1       2       1       1
       2       1       1       2       1       1       2       1       1       2
       1       1       2       1       1       2       1       1       2       1
       1       2       1       1       2       1       1       2       1       1
       2       1       1       2       1       1       2       1       1       2
       1       1       2       1       1       2       1       1       2       1
       1       2       1       1       2       1       1       2       1       1
       2       1       1       2       1       1       2       1       1       2
       1       1       2       1       1       2       1       1       2       1
       1       2       1       1       2       1       1       2       1       1
       2       1       1       2       1       1       2       1       1       2
       1       1       2       1       1       2       1       1       2       1
       1       2       1       1       2       1       1       2       1       1
       2       1       1       2       1       1       2       1       1       2
       1       1       2       1       1       2       1       1       2       1
       1       2       1       1       2       1       1       2       1       1
       2       1       1       2       1       1       2       1       1       2
       1       1       2       1       1       2       1       1       2       1
       1       2       1       1       2       1       1       2       1       1
       2       1       1       2       1       1       2       1       1       2
       1       1       2       1       1       2       1       1       2       1
       1       2       1       1       2       1       1       2       1       1
       2       1       1       2       1       1       2       1       1       2
       1       1       2       1       1       2       1       1       2       1
       1       2       1       1       2       1       1       2       1       1
       2       1       1       2       1       1       2       1       1       2
       1       1       2       1       1       2       1       1       2       1
       1       2       1       1       2       1       1       2       1       1
       2       1       1       2       1       1       2       1       1       2
       1       1       2       1       1       2       1       1       2       1
       1       2       1       1       2       1       1       2       1       1
       2       1       1       2       1       1       2       1       1       2
       1       1       2       1       1       2       1       1       2       1
       1       2       1       1       2       1       1       2       1       1
       2       1       1       2       1       1       2       1       1       2
       1       1       2       1       1       2       1       1       2       1
       1       2       1       1       2       1       1       2       1       1
       2       1       1       2       1       1       2       1       1       2
       1       1       2       1       1       2       1       1       2       1
       1       2       1       1       2       1       1       2       1       1
       2       1       1       2       1       1       2       1       1       2
       1       1       2       1       1       2       1       1       2       1
       1       2       1       1       2       1       1       2       1       1
       2       1       1       2       1       1       2       1       1       2
       1       1       2       1       1       2       1       1       2       1
       1       2       1       1       2       1       1       2       1       1
       2       1       1       2       1       1       2       1       1       2
       1       1       2       1       1       2       1       1       2       1
       1       2       1       1       2       1       1       2       1       1
       2       1       1       2       1       1       2       1       1       2
       1       1       2       1       1       2       1       1       2       1
       1       2       1       1       2       1       1       2       1       1
       2       1       1       2       1       1       2       1       1       2
       1       1       2       1       1       2       1       1       2       1
       1       2       1       1       2       1       1       2       1       1
       2       1       1       2       1       1       2       1       1       2
       1       1       2       1       1       2       1       1       2       1
       1       2       1       1       2       1       1       2       1       1
       2       1       1       2       1       1       2       1       1       2
       1       1       2       1       1       2       1       1       2       1
       1       2       1       1       2       1       1       2       1       1
       2       1       1       2       1       1       2       1       1       2
       1       1       2       1       1       2       1       1       2       1
       1       2       1       1       2       1       1       2       1       1
       2       1       1       2       1       1       2       1       1       2
       1       1       2       1       1       2       1       1       2       1
       1       2       1       1       2       1       1       2       1       1
       2       1       1       2       1       1       2       1       1       2
       1       1       2       1       1       2       1       1       2       1
       1       2       1       1       2       1       1       2       1       1
       2       1       1       2       1       1       2       1       1       2
       1       1       2       1       1       2       1       1       2       1
       1       2       1       1       2       1       1       2       1       1
       2       1       1       2       1       1       2       1       1       2
       1       1       2       1       1       2       1       1       2       1
       1       2       1       1       2       1       1       2       1       1
       2       1       1       2       1       1       2       1       1       2
       1       1       2       1       1       2       1       1       2       1
       1       2       1       1       2       1       1       2       1       1
       2       1       1       2       1       1       2       1       1       2
       1       1       2       1       1       2       1       1       2       1
       1       2       1       1       2       1       1       2       1       1
       2       1       1       2       1       1       2       1       1       2
       1       1       2       1       1       2       1       1       2       1
       1       2       1       1       2       1       1       2       1       1
       2       1       1       2       1       1       2       1       1       2
       1       1       2       1       1       2       1       1       2       1
       1       2       1       1       2       1       1       2       1       1
       2       1       1       2       1       1       2       1       1       2
       1       1       2       1       1       2       1       1       2       1
       1       2       1       1       2       1       1       2       1       1
       2       1       1       2       1       1       2       1       1       2
       1       1       2       1       1       2       1       1       2       1
       1       2       1       1       2       1       1       2       1       1
       2       1       1       2       1       1       2       1       1       2
       1       1       2       1       1       2       1       1       2       1
       1       2       1       1       2       1       1       2       1       1
       2       1       1       2       1       1       2       1       1       2
       1       1       2       1       1       2       1       1       2       1
       1       2       1       1       2       1       1       2       1       1
       2       1       1       2       1       1       2       1       1       2
       1       1       2       1       1       2       1       1       2       1
       1       2       1       1       2       1       1       2       1       1
       2       1       1       2       1       1       2       1       1       2
       1       1       2       1       1       2       1       1       2       1
       1       2       1       1       2       1       1       2       1       1
       2       1       1       2       1       1       2       1       1       2
       1       1       2       1       1       2       1       1       2       1
       1       2       1       1       2       1       1       2       1       1
       2       1       1       2       1       1       2       1       1       2
       1       1       2       1       1       2       1       1       2       1
       1       2       1       1       2       1       1       2       1       1
       2       1       1       2       1       1       2       1       1       2
       1       1       2       1       1       2       1       1       2       1
       1       2       1       1       2       1       1       2       1       1
       2       1       1       2       1       1       2       1       1       2
       1       1       2       1       1       2       1       1       2       1
       1       2       1       1       2       1       1       2       1       1
       2       1       1       2       1       1       2       1       1       2
       1       1       2       1       1       2       1       1       2       1
       1       2       1       1       2       1       1       2       1       1
       2       1       1       2       1       1       2       1       1       2
       1       1       2       1       1       2       1       1       2       1
       1       2       1       1       2       1       1       2       1       1
       2       1       1       2       1       1       2       1       1       2
       1       1       2       1       1       2       1       1       2       1
       1       2       1       1       2       1       1       2       1       1
       2       1       1       2       1       1       2       1       1       2
       1       1       2       1       1       2       1       1       2       1
       1       2       1       1       2       1       1       2       1       1
       2       1       1       2       1       1       2       1       1       2
       1       1       2       1       1       2       1       1       2       1
       1       2       1       1       2       1       1       2       1       1
       2       1       1       2       1       1       2       1       1       2
       1       1       2       1       1       2       1       1       2       1
       1       2       1       1       2       1       1       2       1       1
       2       1       1       2       1       1       2       1       1       2
       1       1       2       1       1       2       1       1       2       1
       1       2       1       1       2       1       1       2       1       1
       2       1       1       2       1       1       2       1       1       2
       1       1       2       1       1       2       1       1       2       1
       1       2       1       1       2       1       1       2       1       1
       2       1       1       2       1       1       2       1       1       2
       1       1       2       1       1       2       1       1       2       1
       1       2       1       1       2       1       1       2       1       1
       2       1       1       2       1       1       2       1       1       2
       1       1       2       1       1       2       1       1       2       1
       1       2       1       1       2       1       1       2       1       1
       2       1       1       2       1       1       2       1       1       2
       1       1       2       1       1       2       1       1       2       1
       1       2       1       1       2       1       1       2       1       1
       2       1       1       2       1       1       2       1       1       2
       1       1       2       1       1       2       1       1       2       1
       1       2       1       1       2       1       1       2       1       1
       2       1       1       2       1       1       2       1       1       2
       1       1       2       1       1       2       1       1       2       1
       1       2       1       1       2       1       1       2       1       1
       2       1       1       2       1       1       2       1       1       2
       1       1       2       1       1       2       1       1       2       1
       1       2       1       1       2       1       1       2       1       1
       2       1       1       2       1       1       2       1       1       2
       1       1       2       1       1       2       1       1       2       1
       1       2       1       1       2       1       1       2       1       1
       2       1       1       2       1       1       2       1       1       2
       1       1       2       1       1       2       1       1       2       1
       1       2       1       1       2       1       1       2       1       1
       2       1       1       2       1       1       2       1       1       2
       1       1       2       1       1       2       1       1       2       1
       1       2       1       1       2       1       1       2       1       1
       2       1       1       2       1       1       2       1       1       2
       1       1       2       1       1       2       1       1       2       1
       1       2       1       1       2       1       1       2       1       1
       2       1       1       2       1       1       2       1       1       2
       1       1       2       1       1       2       1       1       2       1
       1       2       1       1       2       1       1       2       1       1
       2       1       1       2       1       1       2       1       1       2
       1       1       2       1       1       2       1       1       2       1
       1       2       1       1       2       1       1       2       1       1
       2       1       1       2       1       1       2       1       1       2
       1       1       2       1       1       2       1       1       2       1
       1       2       1       1       2       1       1       2       1       1
       2       1       1       2       1       1       2       1       1       2
       1       1       2       1       1       2       1       1       2       1
       1       2       1       1       2       1       1       2       1       1
       2       1       1       2       1       1       2       1       1       2
       1       1       2       1       1       2       1       1       2       1
       1       2       1       1       2       1       1       2       1       1
       2       1       1       2       1       1       2       1       1       2
       1       1       2       1       1       2       1       1       2       1
       1       2       1       1       2       1       1       2       1       1
       2       1       1       2       1       1       2       1       1       2
       1       1       2       1       1       2       1       1       2       1
       1       2       1       1       2       1       1       2       1       1
       2       1       1       2       1       1       2       1       1       2
       1       1       2       1       1       2       1       1       2       1
       1       2       1       1       2       1       1       2       1       1
       2       1       1       2       1       1       2       1       1       2
       1       1       2       1       1       2       1       1       2       1
       1       2       1       1       2       1       1       2       1       1
       2       1       1       2       1       1       2       1       1       2
       1       1       2       1       1       2       1       1       2       1
       1       2       1       1       2       1       1       2       1       1
       2       1       1       2       1       1       2       1       1       2
       1       1       2       1       1       2       1       1       2       1
       1       2       1       1       2       1       1       2       1       1
       2       1       1       2       1       1       2       1       1       2
       1       1       2       1       1       2       1       1       2       1
       1       2       1       1       2       1       1       2       1       1
       2       1       1       2       1       1       2       1       1       2
       1       1       2       1       1       2       1       1       2       1
       1       2       1       1       2       1       1       2       1       1
       2       1       1       2       1       1       2       1       1       2
       1       1       2       1       1       2       1       1       2       1
       1       2       1       1       2       1       1       2       1       1
       2       1       1       2       1       1       2       1       1       2
       1       1       2       1       1       2       1       1       2       1
       1       2       1       1       2       1       1       2       1       1
       2       1       1       2       1       1       2       1       1       2
       1       1       2       1       1       2       1       1       2       1
       1       2       1       1       2       1       1       2       1       1
       2       1       1       2       1       1       2       1       1       2
       1       1       2       1       1       2       1       1       2       1
       1       2       1       1       2       1       1       2       1       1
       2       1       1       2       1       1       2       1       1       2
       1       1       2       1       1       2       1       1       2       1
       1       2       1       1       2       1       1       2       1       1
       2       1       1       2       1       1       2       1       1       2
       1       1       2       1       1       2       1       1       2       1
       1       2       1       1       2       1       1       2       1       1
       2       1       1       2       1       1       2       1       1       2
       1       1       2       1       1       2       1       1       2       1
       1       2       1       1       2       1       1       2       1       1
       2       1       1       2       1       1       2       1       1       2
       1       1       2       1       1       2       1       1       2       1
       1       2       1       1       2       1       1       2       1       1
       2       1       1       2       1       1       2       1       1       2
       1       1       2       1       1       2       1       1       2       1
       1       2       1       1       2       1       1       2       1       1
       2       1       1       2       1       1       2       1       1       2
       1       1       2       1       1       2       1       1       2       1
       1       2       1       1       2       1       1       2       1       1
       2       1       1       2       1       1       2       1       1       2
       1       1       2       1       1       2       1       1       2       1
       1       2       1       1       2       1       1       2       1       1
       2       1       1       2       1       1       2       1       1       2
       1       1       2       1       1       2       1       1       2       1
       1       2       1       1       2       1       1       2       1       1
       2       1       1       2       1       1       2       1       1       2
       1       1       2       1       1       2       1       1       2       1
       1       2       1       1       2       1       1       2       1       1
       2       1       1       2       1       1       2       1       1       2
       1       1       2       1       1       2       1       1       2       1
       1       2       1       1       2       1       1       2       1       1
       2       1       1       2       1       1       2       1       1       2
       1       1       2       1       1       2       1       1       2       1
       1       2       1       1       2       1       1       2       1       1
       2       1       1       2       1       1       2       1       1       2
       1       1       2       1       1       2       1       1       2       1
       1       2       1       1       2       1       1       2       1       1
       2       1       1       2       1       1       2       1       1       2
       1       1       2       1       1       2       1       1       2       1
       1       2       1       1       2       1       1       2       1       1
       2       1       1       2       1       1       2       1       1       2
       1       1       2       1       1       2       1       1       2       1
       1       2       1       1       2       1       1       2       1       1
       2       1       1       2       1       1       2       1       1       2
       1       1       2       1       1       2       1       1       2       1
       1       2       1       1       2       1       1       2       1       1
       2       1       1       2       1       1       2       1       1       2
       1       1       2       1       1       2       1       1       2       1
       1       2       1       1       2       1       1       2       1       1
       2       1       1       2       1       1       2       1       1       2
       1       1       2       1       1       2       1       1       2       1
       1       2       1       1       2       1       1       2       1       1
       2       1       1       2       1       1       2       1       1       2
       1       1       2       1       1       2       1       1       2       1
       1       2       1       1       2       1       1       2       1       1
       2       1       1       2       1       1       2       1       1       2
       1       1       2       1       1       2       1       1       2       1
       1       2       1       1       2       1       1       2       1       1
       2       1       1       2       1       1       2       1       1       2
       1       1       2       1       1       2       1       1       2       1
       1       2       1       1       2       1       1       2       1       1
       2       1       1       2       1       1       2       1       1       2
       1       1       2       1       1       2       1       1       2       1
       1       2       1       1       2       1       1       2       1       1
       2       1       1       2       1       1       2       1       1       2
       1       1       2       1       1       2       1       1       2       1
       1       2       1       1       2       1       1       2       1       1
       2       1       1       2       1       1       2       1       1       2
       1       1       2       1       1       2       1       1       2       1
       1       2       1       1       2       1       1       2       1       1
       2       1       1       2       1       1       2       1       1       2
       1       1       2       1       1       2       1       1       2       1
       1       2       1       1       2       1       1       2       1       1
       2       1       1       2       1       1       2       1       1       2
       1       1       2       1       1       2       1       1       2       1
       1       2       1       1       2       1       1       2       1       1
       2       1       1       2       1       1       2       1       1       2
       1       1       2       1       1       2       1       1       2       1
       1       2       1       1       2       1       1       2       1       1
       2       1       1       2       1       1       2       1       1       2
       1       1       2       1       1       2       1       1       2       1
       1       2       1       1       2       1       1       2       1       1
       2       1       1       2       1       1       2       1       1       2
       1       1       2       1       1       2       1       1       2       1
       1       2       1       1       2       1       1       2       1       1
       2       1       1       2       1       1       2       1       1       2
       1       1       2       1       1       2       1       1       2       1
       1       2       1       1       2       1       1       2       1       1
       2       1       1       2       1       1       2       1       1       2
       1       1       2       1       1       2       1       1       2       1
       1       2       1       1       2       1       1       2       1       1
       2       1       1       2       1       1       2       1       1       2
       1       1       2       1       1       2       1       1       2       1
       1       2       1       1       2       1       1       2       1       1
       2       1       1       2       1       1       2       1       1       2
       1       1       2       1       1       2       1       1       2       1
       1       2       1       1       2       1       1       2       1       1
       2       1       1       2       1       1       2       1       1       2
       1       1       2       1       1       2       1       1       2       1
       1       2       1       1       2       1       1       2       1       1
       2       1       1       2       1       1       2       1       1       2
       1       1       2       1       1       2       1       1       2       1
       1       2       1       1       2       1       1       2       1       1
       2       1       1       2       1       1       2       1       1       2
       1       1       2       1       1       2       1       1       2       1
       1       2       1       1       2       1       1       2       1       1
       2       1       1       2       1       1       2       1       1       2
       1       1       2       1       1       2       1       1       2       1
       1       2       1       1       2       1       1       2       1       1
       2       1       1       2       1       1       2       1       1       2
       1       1       2       1       1       2       1       1       2       1
       1       2       1       1       2       1       1       2       1       1
       2       1       1       2       1       1       2       1       1       2
       1       1       2       1       1       2       1       1       2       1
       1       2       1       1       2       1       1       2       1       1
       2       1       1       2       1       1       2       1       1       2
       1       1       2       1       1       2       1       1       2       1
       1       2       1       1       2       1       1       2       1       1
       2       1       1       2       1       1       2       1       1       2
       1       1       2       1       1       2       1       1       2       1
       1       2       1       1       2       1       1       2       1       1
       2       1       1       2       1       1       2       1       1       2
       1       1       2       1       1       2       1       1       2       1
       1       2       1       1       2       1       1       2       1       1
       2       1       1       2       1       1       2       1       1       2
       1       1       2       1       1       2       1       1       2       1
       1       2       1       1       2       1       1       2       1       1
       2       1       1       2       1       1       2       1       1       2
       1       1       2       1       1       2       1       1       2       1
       1       2       1       1       2       1       1       2       1       1
       2       1       1       2       1       1       2       1       1       2
       1       1       2       1       1       2       1       1       2       1
       1       2       1       1       2       1       1       2       1       1
       2       1       1       2       1       1       2       1       1       2
       1       1       2       1       1       2       1       1       2       1
       1       2       1       1       2       1       1       2       1       1
       2       1       1       2       1       1       2       1       1       2
       1       1       2       1       1       2       1       1       2       1
       1       2       1       1       2       1       1       2       1       1
       2       1       1       2       1       1       2       1       1       2
       1       1       2       1       1       2       1       1       2       1
       1       2       1       1       2       1       1       2       1       1
       2       1       1       2       1       1       2       1       1       2
       1       1       2       1       1       2       1       1       2       1
       1       2       1       1       2       1       1       2       1       1
       2       1       1       2       1       1       2       1       1       2
       1       1       2       1       1       2       1       1       2       1
       1       2       1       1       2       1       1       2       1       1
       2       1       1       2       1       1       2       1       1       2
       1       1       2       1       1       2       1       1       2       1
       1       2       1       1       2       1       1       2       1       1
       2       1       1       2       1       1       2       1       1       2
       1       1       2       1       1       2       1       1       2       1
       1       2       1       1       2       1       1       2       1       1
       2       1       1       2       1       1       2       1       1       2
       1       1       2       1       1       2       1       1       2       1
       1       2       1       1       2       1       1       2       1       1
       2       1       1       2       1       1       2       1       1       2
       1       1       2       1       1       2       1       1       2       1
       1       2       1       1       2       1       1       2       1       1
       2       1       1       2       1       1       2       1       1       2
       1       1       2       1       1       2       1       1       2       1
       1       2       1       1       2       1       1       2       1       1
       2       1       1       2       1       1       2       1       1       2
       1       1       2       1       1       2       1       1       2       1
       1       2       1       1       2       1       1       2       1       1
       2       1       1       2       1       1       2       1       1       2
       1       1       2       1       1       2       1       1       2       1
       1       2       1       1       2       1       1       2       1       1
       2       1       1       2       1       1       2       1       1       2
       1       1       2       1       1       2       1       1       2       1
       1       2       1       1       2       1       1       2       1       1
       2       1       1       2       1       1       2       1       1       2
       1       1       2       1       1       2       1       1       2       1
       1       2       1       1       2       1       1       2       1       1
       2       1       1       2       1       1       2       1       1       2
       1       1       2       1       1       2       1       1       2       1
       1       2       1       1       2       1       1       2       1       1
       2       1       1       2       1       1       2       1       1       2
       1       1       2       1       1       2       1       1       2       1
       1       2       1       1       2       1       1       2       1       1
       2       1       1       2       1       1       2       1       1       2
       1       1       2       1       1       2       1       1       2       1
       1       2       1       1       2       1       1       2       1       1
       2       1       1       2       1       1       2       1       1       2
       1       1       2       1       1       2       1       1       2       1
       1       2       1       1       2       1       1       2       1       1
       2       1       1       2       1       1       2       1       1       2
       1       1       2       1       1       2       1       1       2       1
       1       2       1       1       2       1       1       2       1       1
       2       1       1       2       1       1       2       1       1       2
       1       1       2       1       1       2       1       1       2       1
       1       2       1       1       2       1       1       2       1       1
       2       1       1       2       1       1       2       1       1       2
       1       1       2       1       1       2       1       1       2       1
       1       2       1       1       2       1       1       2       1       1
       2       1       1       2       1       1       2       1       1       2
       1       1       2       1       1       2       1       1       2       1
       1       2       1       1       2       1       1       2       1       1
       2       1       1       2       1       1       2       1       1       2
       1       1       2       1       1       2       1       1       2       1
       1       2       1       1       2       1       1       2       1       1
       2       1       1       2       1       1       2       1       1       2
       1       1       2       1       1       2       1       1       2       1
       1       2       1       1       2       1       1       2       1       1
       2       1       1       2       1       1       2       1       1       2
       1       1       2       1       1       2       1       1       2       1
       1       2       1       1       2       1       1       2       1       1
       2       1       1       2       1       1       2       1       1       2
       1       1       2       1       1       2       1       1       2       1
       1       2       1       1       2       1       1       2       1       1
       2       1       1       2       1       1       2       1       1       2
       1       1       2       1       1       2       1       1       2       1
       1       2       1       1       2       1       1       2       1       1
       2       1       1       2       1       1       2       1       1       2
       1       1       2       1       1       2       1       1       2       1
       1       2       1       1       2       1       1       2       1       1
       2       1       1       2       1       1       2       1       1       2
       1       1       2       1       1       2       1       1       2       1
       1       2       1       1       2       1       1       2       1       1
       2       1       1       2       1       1       2       1       1       2
       1       1       2       1       1       2       1       1       2       1
       1       2       1       1       2       1       1       2       1       1
       2       1       1       2       1       1       2       1       1       2
       1       1       2       1       1       2       1       1       2       1
       1       2       1       1       2       1       1       2       1       1
       2       1       1       2       1       1       2       1       1       2
       1       1       2       1       1       2       1       1       2       1
       1       2       1       1       2       1       1       2       1       1
       2       1       1       2       1       1       2       1       1       2
       1       1       2       1       1       2       1       1       2       1
       1       2       1       1       2       1       1       2       1       1
       2       1       1       2       1       1       2       1       1       2
       1       1       2       1       1       2       1       1       2       1
       1       2       1       1       2       1       1       2       1       1
       2       1       1       2       1       1       2       1       1       2
       1       1       2       1       1       2       1       1       2       1
       1       2       1       1       2       1       1       2       1       1
       2       1       1       2       1       1       2       1       1       2
       1       1       2       1       1       2       1       1       2       1
       1       2       1       1       2       1       1       2       1       1
       2       1       1       2       1       1       2       1       1       2
       1       1       2       1       1       2       1       1       2       1
       1       2       1       1       2       1       1       2       1       1
       2       1       1       2       1       1       2       1       1       2
       1       1       2       1       1       2       1       1       2       1
       1       2       1       1       2       1       1       2       1       1
       2       1       1       2       1       1       2       1       1       2
       1       1       2       1       1       2       1       1       2       1
       1       2       1       1       2       1       1       2       1       1
       2       1       1       2       1       1       2       1       1       2
       1       1       2       1       1       2       1       1       2       1
       1       2       1       1       2       1       1       2       1       1
       2       1       1       2       1       1       2       1       1       2
       1       1       2       1       1       2       1       1       2       1
       1       2       1       1       2       1       1       2       1       1
       2       1       1       2       1       1       2       1       1       2
       1       1       2       1       1       2       1       1       2       1
       1       2       1       1       2       1       1       2       1       1
       2       1       1       2       1       1       2       1       1       2
       1       1       2       1       1       2       1       1       2       1
       1       2       1       1       2       1       1       2       1       1
       2       1       1       2       1       1       2       1       1       2
       1       1       2       1       1       2       1       1       2       1
       1       2       1       1       2       1       1       2       1       1
       2       1       1       2       1       1       2       1       1       2
       1       1       2       1       1       2       1       1       2       1
       1       2       1       1       2       1       1       2       1       1
       2       1       1       2       1       1       2       1       1       2
       1       1       2       1       1       2       1       1       2       1
       1       2       1       1       2       1       1       2       1       1
       2       1       1       2       1       1       2       1       1       2
       1       1       2       1       1       2       1       1       2       1
       1       2       1       1       2       1       1       2       1       1
       2       1       1       2       1       1       2       1       1       2
       1       1       2       1       1       2       1       1       2       1
       1       2       1       1       2       1       1       2       1       1
       2       1       1       2       1       1       2       1       1       2
       1       1       2       1       1       2       1       1       2       1
       1       2       1       1       2       1       1       2       1       1
       2       1       1       2       1       1       2       1       1       2
       1       1       2       1       1       2       1       1       2       1
       1       2       1       1       2       1       1       2       1       1
       2       1       1       2       1       1       2       1       1       2
       1       1       2       1       1       2       1       1       2       1
       1       2       1       1       2       1       1       2       1       1
       2       1       1       2       1       1       2       1       1       2
       1       1       2       1       1       2       1       1       2       1
       1       2       1       1       2       1       1       2       1       1
       2       1       1       2       1       1       2       1       1       2
       1       1       2       1       1       2       1       1       2       1
       1       2       1       1       2       1       1       2       1       1
       2       1       1       2       1       1       2       1       1       2
       1       1       2       1       1       2       1       1       2       1
       1       2       1       1       2       1       1       2       1       1
       2       1       1       2       1       1       2       1       1       2
       1       1       2       1       1       2       1       1       2       1
       1       2       1       1       2       1       1       2       1       1
       2       1       1       2       1       1       2       1       1       2
       1       1       2       1       1       2       1       1       2       1
       1       2       1       1       2       1       1       2       1       1
       2       1       1       2       1       1       2       1       1       2
       1       1       2       1       1       2       1       1       2       1
       1       2       1       1       2       1       1       2       1       1
       2       1       1       2       1       1       2       1       1       2
       1       1       2       1       1       2       1       1       2       1
       1       2       1       1       2       1       1       2       1       1
       2       1       1       2       1       1       2       1       1       2
       1       1       2       1       1       2       1       1       2       1
       1       2       1       1       2       1       1       2       1       1
       2       1       1       2       1       1       2       1       1       2
       1       1       2       1       1       2       1       1       2       1
       1       2       1       1       2       1       1       2       1       1
       2       1       1       2       1       1       2       1       1       2
       1       1       2       1       1       2       1       1       2       1
       1       2       1       1       2       1       1       2       1       1
       2       1       1       2       1       1       2       1       1       2
       1       1       2       1       1       2       1       1       2       1
       1       2       1       1       2       1       1       2       1       1
       2       1       1       2       1       1       2       1       1       2
       1       1       2       1       1       2       1       1       2       1
       1       2       1       1       2       1       1       2       1       1
       2       1       1       2       1       1       2       1       1       2
       1       1       2       1       1       2       1       1       2       1
       1       2       1       1       2       1       1       2       1       1
       2       1       1       2       1       1       2       1       1       2
       1       1       2       1       1       2       1       1       2       1
       1       2       1       1       2       1       1       2       1       1
       2       1       1       2       1       1       2       1       1       2
       1       1       2       1       1       2       1       1       2       1
       1       2       1       1       2       1       1       2       1       1
       2       1       1       2       1       1       2       1       1       2
       1       1       2       1       1       2       1       1       2       1
       1       2       1       1       2       1       1       2       1       1
       2       1       1       2       1       1       2       1       1       2
       1       1       2       1       1       2       1       1       2       1
       1       2       1       1       2       1       1       2       1       1
       2       1       1       2       1       1       2       1       1       2
       1       1       2       1       1       2       1       1       2       1
       1       2       1       1       2       1       1       2       1       1
       2       1       1       2       1       1       2       1       1       2
       1       1       2       1       1       2       1       1       2       1
       1       2       1       1       2       1       1       2       1       1
       2       1       1       2       1       1       2       1       1       2
       1       1       2       1       1       2       1       1       2       1
       1       2       1       1       2       1       1       2       1       1
       2       1       1       2       1       1       2       1       1       2
       1       1       2       1       1       2       1       1       2       1
       1       2       1       1       2       1       1       2       1       1
       2       1       1       2       1       1       2       1       1       2
       1       1       2       1       1       2       1       1       2       1
       1       2       1       1       2       1       1       2       1       1
       2       1       1       2       1       1       2       1       1       2
       1       1       2       1       1       2       1       1       2       1
       1       2       1       1       2       1       1       2       1       1
       2       1       1       2       1       1       2       1       1       2
       1       1       2       1       1       2       1       1       2       1
       1       2       1       1       2       1       1       2       1       1
       2       1       1       2       1       1       2       1       1       2
       1       1       2       1       1       2       1       1       2       1
       1       2       1       1       2       1       1       2       1       1
       2       1       1       2       1       1       2       1       1       2
       1       1       2       1       1       2       1       1       2       1
       1       2       1       1       2       1       1       2       1       1
       2       1       1       2       1       1       2       1       1       2
       1       1       2       1       1       2       1       1       2       1
       1       2       1       1       2       1       1       2       1       1
       2       1       1       2       1       1       2       1       1       2
       1       1       2       1       1       2       1       1       2       1
       1       2       1       1       2       1       1       2       1       1
       2       1       1       2       1       1       2       1       1       2
       1       1       2       1       1       2       1       1       2       1
       1       2       1       1       2       1       1       2       1       1
       2       1       1       2       1       1       2       1       1       2
       1       1       2       1       1       2       1       1       2       1
       1       2       1       1       2       1       1       2       1       1
       2       1       1       2       1       1       2       1       1       2
       1       1       2       1       1       2       1       1       2       1
       1       2       1       1       2       1       1       2       1       1
       2       1       1       2       1       1       2       1       1       2
       1       1       2       1       1       2       1       1       2       1
       1       2       1       1       2       1       1       2       1       1
       2       1       1       2       1       1       2       1       1       2
       1       1       2       1       1       2       1       1       2       1
       1       2       1       1       2       1       1       2       1       1
       2       1       1       2       1       1       2       1       1       2
       1       1       2       1       1       2       1       1       2       1
       1       2       1       1       2       1       1       2       1       1
       2       1       1       2       1       1       2       1       1       2
       1       1       2       1       1       2       1       1       2       1
       1       2       1       1       2       1       1       2       1       1
       2       1       1       2       1       1       2       1       1       2
       1       1       2       1       1       2       1       1       2       1
       1       2       1       1       2       1       1       2       1       1
       2       1       1       2       1       1       2       1       1       2
       1       1       2       1       1       2       1       1       2       1
       1       2       1       1       2       1       1       2       1       1
       2       1       1       2       1       1       2       1       1       2
       1       1       2       1       1       2       1       1       2       1
       1       2       1       1       2       1       1       2       1       1
       2       1       1       2       1       1       2       1       1       2
       1       1       2       1       1       2       1       1       2       1
       1       2       1       1       2       1       1       2       1       1
       2       1       1       2       1       1       2       1       1       2
       1       1       2       1       1       2       1       1       2       1
       1       2       1       1       2       1       1       2       1       1
       2       1       1       2       1       1       2       1       1       2
       1       1       2       1       1       2       1       1       2       1
       1       2       1       1       2       1       1       2       1       1
       2       1       1       2       1       1       2       1       1       2
       1       1       2       1       1       2       1       1       2       1
       1       2       1       1       2       1       1       2       1       1
       2       1       1       2       1       1       2       1       1       2
       1       1       2       1       1       2       1       1       2       1
       1       2       1       1       2       1       1       2       1       1
       2       1       1       2       1       1       2       1       1       2
       1       1       2       1       1       2       1       1       2       1
       1       2       1       1       2       1       1       2       1       1
       2       1       1       2       1       1       2       1       1       2
       1       1       2       1       1       2       1       1       2       1
       1       2       1       1       2       1       1       2       1       1
       2       1       1       2       1       1       2       1       1       2
       1       1       2       1       1       2       1       1       2       1
       1       2       1       1       2       1       1       2       1       1
       2       1       1       2       1       1       2       1       1       2
       1       1       2       1       1       2       1       1       2       1
       1       2       1       1       2       1       1       2       1       1
       2       1       1       2       1       1       2       1       1       2
       1       1       2       1       1       2       1       1       2       1
       1       2       1       1       2       1       1       2       1       1
       2       1       1       2       1       1       2       1       1       2
       1       1       2       1       1       2       1       1       2       1
       1       2       1       1       2       1       1       2       1       1
       2       1       1       2       1       1       2       1       1       2
       1       1       2       1       1       2       1       1       2       1
       1       2       1       1       2       1       1       2       1       1
       2       1       1       2       1       1       2       1       1       2
       1       1       2       1       1       2       1       1       2       1
       1       2       1       1       2       1       1       2       1       1
       2       1       1       2       1       1       2       1       1       2
       1       1       2       1       1       2       1       1       2       1
       1       2       1       1       2       1       1       2       1       1
       2       1       1       2       1       1       2       1       1       2
       1       1       2       1       1       2       1       1       2       1
       1       2       1       1       2       1       1       2       1       1
       2       1       1       2       1       1       2       1       1       2
       1       1       2       1       1       2       1       1       2       1
       1       2       1       1       2       1       1       2       1       1
       2       1       1       2       1       1       2       1       1       2
       1       1       2       1       1       2       1       1       2       1
       1       2       1       1       2       1       1       2       1       1
       2       1       1       2       1       1       2       1       1       2
       1       1       2       1       1       2       1       1       2       1
       1       2       1       1       2       1       1       2       1       1
       2       1       1       2       1       1       2       1       1       2
       1       1       2       1       1       2       1       1       2       1
       1       2       1       1       2       1       1       2       1       1
       2       1       1       2       1       1       2       1       1       2
       1       1       2       1       1       2       1       1       2       1
       1       2       1       1       2       1       1       2       1       1
       2       1       1       2       1       1       2       1       1       2
       1       1       2       1       1       2       1       1       2       1
       1       2       1       1       2       1       1       2       1       1
       2       1       1       2       1       1       2       1       1       2
       1       1       2       1       1       2       1       1       2       1
       1       2       1       1       2       1       1       2       1       1
       2       1       1       2       1       1       2       1       1       2
       1       1       2       1       1       2       1       1       2       1
       1       2       1       1       2       1       1       2       1       1
       2       1       1       2       1       1       2       1       1       2
       1       1       2       1       1       2       1       1       2       1
       1       2       1       1       2       1       1       2       1       1
       2       1       1       2       1       1       2       1       1       2
       1       1       2       1       1       2       1       1       2       1
       1       2       1       1       2       1       1       2       1       1
       2       1       1       2       1       1       2       1       1       2
       1       1       2       1       1       2       1       1       2       1
       1       2       1       1       2       1       1       2       1       1
       2       1       1       2       1       1       2       1       1       2
       1       1       2       1       1       2       1       1       2       1
       1       2       1       1       2       1       1       2       1       1
       2       1       1       2       1       1       2       1       1       2
       1       1       2       1       1       2       1       1       2       1
       1       2       1       1       2       1       1       2       1       1
       2       1       1       2       1       1       2       1       1       2
       1       1       2       1       1       2       1       1       2       1
       1       2       1       1       2       1       1       2       1       1
       2       1       1       2       1       1       2       1       1       2
       1       1       2       1       1       2       1       1       2       1
       1       2       1       1       2       1       1       2       1       1
       2       1       1       2       1       1       2       1       1       2
       1       1       2       1       1       2       1       1       2       1
       1       2       1       1       2       1       1       2       1       1
       2       1       1       2       1       1       2       1       1       2
       1       1       2       1       1       2       1       1       2       1
       1       2       1       1       2       1       1       2       1       1
       2       1       1       2       1       1       2       1       1       2
       1       1       2       1       1       2       1       1       2       1
       1       2       1       1       2       1       1       2       1       1
       2       1       1       2       1       1       2       1       1       2
       1       1       2       1       1       2       1       1       2       1
       1       2       1       1       2       1       1       2       1       1
       2       1       1       2       1       1       2       1       1       2
       1       1       2       1       1       2       1       1       2       1
       1       2       1       1       2       1       1       2       1       1
       2       1       1       2       1       1       2       1       1       2
       1       1       2       1       1       2       1       1       2       1
       1       2       1       1       2       1       1       2       1       1
       2       1       1       2       1       1       2       1       1       2
       1       1       2       1       1       2       1       1       2       1
       1       2       1       1       2       1       1       2       1       1
       2       1       1       2       1       1       2       1       1       2
       1       1       2       1       1       2       1       1       2       1
       1       2       1       1       2       1       1       2       1       1
       2       1       1       2       1       1       2       1       1       2
       1       1       2       1       1       2       1       1       2       1
       1       2       1       1       2       1       1       2       1       1
       2       1       1       2       1       1       2       1       1       2
       1       1       2       1       1       2       1       1       2       1
       1       2       1       1       2       1       1       2       1       1
       2       1       1       2       1       1       2       1       1       2
       1       1       2       1       1       2       1       1       2       1
       1       2       1       1       2       1       1       2       1       1
       2       1       1       2       1       1       2       1       1       2
       1       1       2       1       1       2       1       1       2       1
       1       2       1       1       2       1       1       2       1       1
       2       1       1       2       1       1       2       1       1       2
       1       1       2       1       1       2       1       1       2       1
       1       2       1       1       2       1       1       2       1       1
       2       1       1       2       1       1       2       1       1       2
       1       1       2       1       1       2       1       1       2       1
       1       2       1       1       2       1       1       2       1       1
       2       1       1       2       1       1       2       1       1       2
       1       1       2       1       1       2       1       1       2       1
       1       2       1       1       2       1       1       2       1       1
       2       1       1       2       1       1       2       1       1       2
       1       1       2       1       1       2       1       1       2       1
       1       2       1       1       2       1       1       2       1       1
       2       1       1       2       1       1       2       1       1       2
       1       1       2       1       1       2       1       1       2       1
       1       2       1       1       2       1       1       2       1       1
       2       1       1       2       1       1       2       1       1       2
       1       1       2       1       1       2       1       1       2       1
       1       2       1       1       2       1       1       2       1       1
       2       1       1       2       1       1       2       1       1       2
       1       1       2       1       1       2       1       1       2       1
       1       2       1       1       2       1       1       2       1       1
       2       1       1       2       1       1       2       1       1       2
       1       1       2       1       1       2       1       1       2       1
       1       2       1       1       2       1       1       2       1       1
       2       1       1       2       1       1       2       1       1       2
       1       1       2       1       1       2       1       1       2       1
       1       2       1       1       2       1       1       2       1       1
       2       1       1       2       1       1       2       1       1       2
       1       1       2       1       1       2       1       1       2       1
       1       2       1       1       2       1       1       2       1       1
       2       1       1       2       1       1       2       1       1       2
       1       1       2       1       1       2       1       1       2       1
       1       2       1       1       2       1       1       2       1       1
       2       1       1       2       1       1       2       1       1       2
       1       1       2       1       1       2       1       1       2       1
       1       2       1       1       2       1       1       2       1       1
       2       1       1       2       1       1       2       1       1       2
       1       1       2       1       1       2       1       1       2       1
       1       2       1       1       2       1       1       2       1       1
       2       1       1       2       1       1       2       1       1       2
       1       1       2       1       1       2       1       1       2       1
       1       2       1       1       2       1       1       2       1       1
       2       1       1       2       1       1       2       1       1       2
       1       1       2       1       1       2       1       1       2       1
       1       2       1       1       2       1       1       2       1       1
       2       1       1       2       1       1       2       1       1       2
       1       1       2       1       1       2       1       1       2       1
       1       2       1       1       2       1       1       2       1       1
       2       1       1       2       1       1       2       1       1       2
       1       1       2       1       1       2       1       1       2       1
       1       2       1       1       2       1       1       2       1       1
       2       1       1       2       1       1       2       1       1       2
       1       1       2       1       1       2       1       1       2       1
       1       2       1       1       2       1       1       2       1       1
       2       1       1       2       1       1       2       1       1       2
       1       1       2       1       1       2       1       1       2       1
       1       2       1       1       2       1       1       2       1       1
       2       1       1       2       1       1       2       1       1       2
       1       1       2       1       1       2       1       1       2       1
       1       2       1       1       2       1       1       2       1       1
       2       1       1       2       1       1       2       1       1       2
       1       1       2       1       1       2       1       1       2       1
       1       2       1       1       2       1       1       2       1       1
       2       1       1       2       1       1       2       1       1       2
       1       1       2       1       1       2       1       1       2       1
       1       2       1       1       2       1       1       2       1       1
       2       1       1       2       1       1       2       1       1       2
       1       1       2       1       1       2       1       1       2       1
       1       2       1       1       2       1       1       2       1       1
       2       1       1       2       1       1       2       1       1       2
       1       1       2       1       1       2       1       1       2       1
       1       2       1       1       2       1       1       2       1       1
       2       1       1       2       1       1       2       1       1       2
       1       1       2       1       1       2       1       1       2       1
       1       2       1       1       2       1       1       2       1       1
       2       1       1       2       1       1       2       1       1       2
       1       1       2       1       1       2       1       1       2       1
       1       2       1       1       2       1       1       2       1       1
       2       1       1       2       1       1       2       1       1       2
       1       1       2       1       1       2       1       1       2       1
       1       2       1       1       2       1       1       2       1       1
       2       1       1       2       1       1       2       1       1       2
       1       1       2       1       1       2       1       1       2       1
       1       2       1       1       2       1       1       2       1       1
       2       1       1       2       1       1       2       1       1       2
       1       1       2       1       1       2       1       1       2       1
       1       2       1       1       2       1       1       2       1       1
       2       1       1       2       1       1       2       1       1       2
       1       1       2       1       1       2       1       1       2       1
       1       2       1       1       2       1       1       2       1       1
       2       1       1       2       1       1       2       1       1       2
       1       1       2       1       1       2       1       1       2       1
       1       2       1       1       2       1       1       2       1       1
       2       1       1       2       1       1       2       1       1       2
       1       1       2       1       1       2       1       1       2       1
       1       2       1       1       2       1       1       2       1       1
       2       1       1       2       1       1       2       1       1       2
       1       1       2       1       1       2       1       1       2       1
       1       2       1       1       2       1       1       2       1       1
       2       1       1       2       1       1       2       1       1       2
       1       1       2       1       1       2       1       1       2       1
       1       2       1       1       2       1       1       2       1       1
       2       1       1       2       1       1       2       1       1       2
       1       1       2       1       1       2       1       1       2       1
       1       2       1       1       2       1       1       2       1       1
       2       1       1       2       1       1       2       1       1       2
       1       1       2       1       1       2       1       1       2       1
       1       2       1       1       2       1       1       2       1       1
       2       1       1       2       1       1       2       1       1       2
       1       1       2       1       1       2       1       1       2       1
       1       2       1       1       2       1       1       2       1       1
       2       1       1       2       1       1       2       1       1       2
       1       1       2       1       1       2       1       1       2       1
       1       2       1       1       2       1       1       2       1       1
       2       1       1       2       1       1       2       1       1       2
       1       1       2       1       1       2       1       1       2       1
       1       2       1       1       2       1       1       2       1       1
       2       1       1       2       1       1       2       1       1       2
       1       1       2       1       1       2       1       1       2       1
       1       2       1       1       2       1       1       2       1       1
       2       1       1       2       1       1       2       1       1       2
       1       1       2       1       1       2       1       1       2       1
       1       2       1       1       2       1       1       2       1       1
       2       1       1       2       1       1       2       1       1       2
       1       1       2       1       1       2       1       1       2       1
       1       2       1       1       2       1       1       2       1       1
       2       1       1       2       1       1       2       1       1       2
       1       1       2       1       1       2       1       1       2       1
       1       2       1       1       2       1       1       2       1       1
       2       1       1       2       1       1       2       1       1       2
       1       1       2       1       1       2       1       1       2       1
       1       2       1       1       2       1       1       2       1       1
       2       1       1       2       1       1       2       1       1       2
       1       1       2       1       1       2       1       1       2       1
       1       2       1       1       2       1       1       2       1       1
       2       1       1       2       1       1       2       1       1       2
       1       1       2       1       1       2       1       1       2       1
       1       2       1       1       2       1       1       2       1       1
       2       1       1       2       1       1       2       1       1       2
       1       1       2       1       1       2       1       1       2       1
       1       2       1       1       2       1       1       2       1       1
       2       1       1       2       1       1       2       1       1       2
       1       1       2       1       1       2       1       1       2       1
       1       2       1       1       2       1       1       2       1       1
       2       1       1       2       1       1       2       1       1       2
       1       1       2       1       1       2       1       1       2       1
       1       2       1       1       2       1       1       2       1       1
       2       1       1       2       1       1       2       1       1       2
       1       1       2       1       1       2       1       1       2       1
       1       2       1       1       2       1       1       2       1       1
       2       1       1       2       1       1       2       1       1       2
       1       1       2       1       1       2       1       1       2       1
       1       2       1       1       2       1       1       2       1       1
       2       1       1       2       1       1       2       1       1       2
       1       1       2       1       1       2       1       1       2       1
       1       2       1       1       2       1       1       2       1       1
       2       1       1       2       1       1       2       1       1       2
       1       1       2       1       1       2       1       1       2       1
       1       2       1       1       2       1       1       2       1       1
       2       1       1       2       1       1       2       1       1       2
       1       1       2       1       1       2       1       1       2       1
       1       2       1       1       2       1       1       2       1       1
       2       1       1       2       1       1       2       1       1       2
       1       1       2       1       1       2       1       1       2       1
       1       2       1       1       2       1       1       2       1       1
       2       1       1       2       1       1       2       1       1       2
       1       1       2       1       1       2       1       1       2       1
       1       2       1       1       2       1       1       2       1       1
       2       1       1       2       1       1       2       1       1       2
       1       1       2       1       1       2       1       1       2       1
       1       2       1       1       2       1       1       2       1       1
       2       1       1       2       1       1       2       1       1       2
       1       1       2       1       1       2       1       1       2       1
       1       2       1       1       2       1       1       2       1       1
       2       1       1       2       1       1       2       1       1       2
       1       1       2       1       1       2       1       1       2       1
       1       2       1       1       2       1       1       2       1       1
       2       1       1       2       1       1       2       1       1       2
       1       1       2       1       1       2       1       1       2       1
       1       2       1       1       2       1       1       2       1       1
       2       1       1       2       1       1       2       1       1       2
       1       1       2       1       1       2       1       1       2       1
       1       2       1       1       2       1       1       2       1       1
       2       1       1       2       1       1       2       1       1       2
       1       1       2       1       1       2       1       1       2       1
       1       2       1       1       2       1       1       2       1       1
       2       1       1       2       1       1       2       1       1       2
       1       1       2       1       1       2       1       1       2       1
       1       2       1       1       2       1       1       2       1       1
       2       1       1       2       1       1       2       1       1       2
       1       1       2       1       1       2       1       1       2       1
       1       2       1       1       2       1       1       2       1       1
       2       1       1       2       1       1       2       1       1       2
       1       1       2       1       1       2       1       1       2       1
       1       2       1       1       2       1       1       2       1       1
       2       1       1       2       1       1       2       1       1       2
       1       1       2       1       1       2       1       1       2       1
       1       2       1       1       2       1       1       2       1       1
       2       1       1       2       1       1       2       1       1       2
       1       1       2       1       1       2       1       1       2       1
       1       2       1       1       2       1       1       2       1       1
       2       1       1       2       1       1       2       1       1       2
       1       1       2       1       1       2       1       1       2       1
       1       2       1       1       2       1       1       2       1       1
       2       1       1       2       1       1       2       1       1       2
       1       1       2       1       1       2       1       1       2       1
       1       2       1       1       2       1       1       2       1       1
       2       1       1       2       1       1       2       1       1       2
       1       1       2       1       1       2       1       1       2       1
       1       2       1       1       2       1       1       2       1       1
       2       1       1       2       1       1       2       1       1       2
       1       1       2       1       1       2       1       1       2       1
       1       2       1       1       2       1       1       2       1       1
       2       1       1       2       1       1       2       1       1       2
       1       1       2       1       1       2       1       1       2       1
       1       2       1       1       2       1       1       2       1       1
       2       1       1       2       1       1       2       1       1       2
       1       1       2       1       1       2       1       1       2       1
       1       2       1       1       2       1       1       2       1       1
       2       1       1       2       1       1       2       1       1       2
       1       1       2       1       1       2       1       1       2       1
       1       2       1       1       2       1       1       2       1       1
       2       1       1       2       1       1       2       1       1       2
       1       1       2       1       1       2       1       1       2       1
       1       2       1       1       2       1       1       2       1       1
       2       1       1       2       1       1       2       1       1       2
       1       1       2       1       1       2       1       1       2       1
       1       2       1       1       2       1       1       2       1       1
       2       1       1       2       1       1       2       1       1       2
       1       1       2       1       1       2       1       1       2       1
       1       2       1       1       2       1       1       2       1       1
       2       1       1       2       1       1       2       1       1       2
       1       1       2       1       1       2       1       1       2       1
       1       2       1       1       2       1       1       2       1       1
       2       1       1       2       1       1       2       1       1       2
       1       1       2       1       1       2       1       1       2       1
       1       2       1       1       2       1       1       2       1       1
       2       1       1       2       1       1       2       1       1       2
       1       1       2       1       1       2       1       1       2       1
       1       2       1       1       2       1       1       2       1       1
       2       1       1       2       1       1       2       1       1       2
       1       1       2       1       1       2       1       1       2       1
       1       2       1       1       2       1       1       2       1       1
       2       1       1       2       1       1       2       1       1       2
       1       1       2       1       1       2       1       1       2       1
       1       2       1       1       2       1       1       2       1       1
       2       1       1       2       1       1       2       1       1       2
       1       1       2       1       1       2       1       1       2       1
       1       2       1       1       2       1       1       2       1       1
       2       1       1       2       1       1       2       1       1       2
       1       1       2       1       1       2       1       1       2       1
       1       2       1       1       2       1       1       2       1       1
       2       1       1       2       1       1       2       1       1       2
       1       1       2       1       1       2       1       1       2       1
       1       2       1       1       2       1       1       2       1       1
       2       1       1       2       1       1       2       1       1       2
       1       1       2       1       1       2       1       1       2       1
       1       2       1       1       2       1       1       2       1       1
       2       1       1       2       1       1       2       1       1       2
       1       1       2       1       1       2       1       1       2       1
       1       2       1       1       2       1       1       2       1       1
       2       1       1       2       1       1       2       1       1       2
       1       1       2       1       1       2       1       1       2       1
       1       2       1       1       2       1       1       2       1       1
       2       1       1       2       1       1       2       1       1       2
       1       1       2       1       1       2       1       1       2       1
       1       2       1       1       2       1       1       2       1       1
       2       1       1       2       1       1       2       1       1       2
       1       1       2       1       1       2       1       1       2       1
       1       2       1       1       2       1       1       2       1       1
       2       1       1       2       1       1       2       1       1       2
       1       1       2       1       1       2       1       1       2       1
       1       2       1       1       2       1       1       2       1       1
       2       1       1       2       1       1       2       1       1       2
       1       1       2       1       1       2       1       1       2       1
       1       2       1       1       2       1       1       2       1       1
       2       1       1       2       1       1       2       1       1       2
       1       1       2       1       1       2       1       1       2       1
       1       2       1       1       2       1       1       2       1       1
       2       1       1       2       1       1       2       1       1       2
       1       1       2       1       1       2       1       1       2       1
       1       2       1       1       2       1       1       2       1       1
       2       1       1       2       1       1       2       1       1       2
       1       1       2       1       1       2       1       1       2       1
       1       2       1       1       2       1       1       2       1       1
       2       1       1       2       1       1       2       1       1       2
       1       1       2       1       1       2       1       1       2       1
       1       2       1       1       2       1       1       2       1       1
       2       1       1       2       1       1       2       1       1       2
       1       1       2       1       1       2       1       1       2       1
       1       2       1       1       2       1       1       2       1       1
       2       1       1       2       1       1       2       1       1       2
       1       1       2       1       1       2       1       1       2       1
       1       2       1       1       2       1       1       2       1       1
       2       1       1       2       1       1       2       1       1       2
       1       1       2       1       1       2       1       1       2       1
       1       2       1       1       2       1       1       2       1       1
       2       1       1       2       1       1       2       1       1       2
       1       1       2       1       1       2       1       1       2       1
       1       2       1       1       2       1       1       2       1       1
       2       1       1       2       1       1       2       1       1       2
       1       1       2       1       1       2       1       1       2       1
       1       2       1       1       2       1       1       2       1       1
       2       1       1       2       1       1       2       1       1       2
       1       1       2       1       1       2       1       1       2       1
       1       2       1       1       2       1       1       2       1       1
       2       1       1       2       1       1       2       1       1       2
       1       1       2       1       1       2       1       1       2       1
       1       2       1       1       2       1       1       2       1       1
       2       1       1       2       1       1       2       1       1       2
       1       1       2       1       1       2       1       1       2       1
       1       2       1       1       2       1       1       2       1       1
       2       1       1       2       1       1       2       1       1       2
       1       1       2       1       1       2       1       1       2       1
       1       2       1       1       2       1       1       2       1       1
       2       1       1       2       1       1       2       1       1       2
       1       1       2       1       1       2       1       1       2       1
       1       2       1       1       2       1       1       2       1       1
       2       1       1       2       1       1       2       1       1       2
       1       1       2       1       1       2       1       1       2       1
       1       2       1       1       2       1       1       2       1       1
       2       1       1       2       1       1       2       1       1       2
       1       1       2       1       1       2       1       1       2       1
       1       2       1       1       2       1       1       2       1       1
       2       1       1       2       1       1       2       1       1       2
       1       1       2       1       1       2       1       1       2       1
       1       2       1       1       2       1       1       2       1       1
       2       1       1       2       1       1       2       1       1       2
       1       1       2       1       1       2       1       1       2       1
       1       2       1       1       2       1       1       2       1       1
       2       1       1       2       1       1       2       1       1       2
       1       1       2       1       1       2       1       1       2       1
       1       2       1       1       2       1       1       2       1       1
       2       1       1       2       1       1       2       1       1       2
       1       1       2       1       1       2       1       1       2       1
       1       2       1       1       2       1       1       2       1       1
       2       1       1       2       1       1       2       1       1       2
       1       1       2       1       1       2       1       1       2       1
       1       2       1       1       2       1       1       2       1       1
       2       1       1       2       1       1       2       1       1       2
       1       1       2       1       1       2       1       1       2       1
       1       2       1       1       2       1       1       2       1       1
       2       1       1       2       1       1       2       1       1       2
       1       1       2       1       1       2       1       1       2       1
       1       2       1       1       2       1       1       2       1       1
       2       1       1       2       1       1       2       1       1       2
       1       1       2       1       1       2       1       1       2       1
       1       2       1       1       2       1       1       2       1       1
       2       1       1       2       1       1       2       1       1       2
       1       1       2       1       1       2       1       1       2       1
       1       2       1       1       2       1       1       2       1       1
       2       1       1       2       1       1       2       1       1       2
       1       1       2       1       1       2       1       1       2       1
       1       2       1       1       2       1       1       2       1       1
       2       1       1       2       1       1       2       1       1       2
       1       1       2       1       1       2       1       1       2       1
       1       2       1       1       2       1       1       2       1       1
       2       1       1       2       1       1       2       1       1       2
       1       1       2       1       1       2       1       1       2       1
       1       2       1       1       2       1       1       2       1       1
       2       1       1       2       1       1       2       1       1       2
       1       1       2       1       1       2       1       1       2       1
       1       2       1       1       2       1       1       2       1       1
       2       1       1       2       1       1       2       1       1       2
       1       1       2       1       1       2       1       1       2       1
       1       2       1       1       2       1       1       2       1       1
       2       1       1       2       1       1       2       1       1       2
       1       1       2       1       1       2       1       1       2       1
       1       2       1       1       2       1       1       2       1       1
       2       1       1       2       1       1       2       1       1       2
       1       1       2       1       1       2       1       1       2       1
       1       2       1       1       2       1       1       2       1       1
       2       1       1       2       1       1       2       1       1       2
       1       1       2       1       1       2       1       1       2       1
       1       2       1       1       2       1       1       2       1       1
       2       1       1       2       1       1       2       1       1       2
       1       1       2       1       1       2       1       1       2       1
       1       2       1       1       2       1       1       2       1       1
       2       1       1       2       1       1       2       1       1       2
       1       1       2       1       1       2       1       1       2       1
       1       2       1       1       2       1       1       2       1       1
       2       1       1       2       1       1       2       1       1       2
       1       1       2       1       1       2       1       1       2       1
       1       2       1       1       2       1       1       2       1       1
       2       1       1       2       1       1       2       1       1       2
       1       1       2       1       1       2       1       1       2       1
       1       2       1       1       2       1       1       2       1       1
       2       1       1       2       1       1       2       1       1       2
       1       1       2       1       1       2       1       1       2       1
       1       2       1       1       2       1       1       2       1       1
       2       1       1       2       1       1       2       1       1       2
       1       1       2       1       1       2       1       1       2       1
       1       2       1       1       2       1       1       2       1       1
       2       1       1       2       1       1       2       1       1       2
       1       1       2       1       1       2       1       1       2       1
       1       2       1       1       2       1       1       2       1       1
       2       1       1       2       1       1       2       1       1       2
       1       1       2       1       1       2       1       1       2       1
       1       2       1       1       2       1       1       2       1       1
       2       1       1       2       1       1       2       1       1       2
       1       1       2       1       1       2       1       1       2       1
       1       2       1       1       2       1       1       2       1       1
       2       1       1       2       1       1       2       1       1       2
       1       1       2       1       1       2       1       1       2       1
       1       2       1       1       2       1       1       2       1       1
       2       1       1       2       1       1       2       1       1       2
       1       1       2       1       1       2       1       1       2       1
       1       2       1       1       2       1       1       2       1       1
       2       1       1       2       1       1       2       1       1       2
       1       1       2       1       1       2       1       1       2       1
       1       2       1       1       2       1       1       2       1       1
       2       1       1       2       1       1       2       1       1       2
       1       1       2       1       1       2       1       1       2       1
       1       2       1       1       2       1       1       2       1       1
       2       1       1       2       1       1       2       1       1       2
       1       1       2       1       1       2       1       1       2       1
       1       2       1       1       2       1       1       2       1       1
       2       1       1       2       1       1       2       1       1       2
       1       1       2       1       1       2       1       1       2       1
       1       2       1       1       2       1       1       2       1       1
       2       1       1       2       1       1       2       1       1       2
       1       1       2       1       1       2       1       1       2       1
       1       2       1       1       2       1       1       2       1       1
       2       1       1       2       1       1       2       1       1       2
       1       1       2       1       1       2       1       1       2       1
       1       2       1       1       2       1       1       2       1       1
       2       1       1       2       1       1       2       1       1       2
       1       1       2       1       1       2       1       1       2       1
       1       2       1       1       2       1       1       2       1       1
       2       1       1       2       1       1       2       1       1       2
       1       1       2       1       1       2       1       1       2       1
       1       2       1       1       2       1       1       2       1       1
       2       1       1       2       1       1       2       1       1       2
       1       1       2       1       1       2       1       1       2       1
       1       2       1       1       2       1       1       2       1       1
       2       1       1       2       1       1       2       1       1       2
       1       1       2       1       1       2       1       1       2       1
       1       2       1       1       2       1       1       2       1       1
       2       1       1       2       1       1       2       1       1       2
       1       1       2       1       1       2       1       1       2       1
       1       2       1       1       2       1       1       2       1       1
       2       1       1       2       1       1       2       1       1       2
       1       1       2       1       1       2       1       1       2       1
       1       2       1       1       2       1       1       2       1       1
       2       1       1       2       1       1       2       1       1       2
       1       1       2       1       1       2       1       1       2       1
       1       2       1       1       2       1       1       2       1       1
       2       1       1       2       1       1       2       1       1       2
       1       1       2       1       1       2       1       1       2       1
       1       2       1       1       2       1       1       2       1       1
       2       1       1       2       1       1       2       1       1       2
       1       1       2       1       1       2       1       1       2       1
       1       2       1       1       2       1       1       2       1       1
       2       1       1       2       1       1       2       1       1       2
       1       1       2       1       1       2       1       1       2       1
       1       2       1       1       2       1       1       2       1       1
       2       1       1       2       1       1       2       1       1       2
       1       1       2       1       1       2       1       1       2       1
       1       2       1       1       2       1       1       2       1       1
       2       1       1       2       1       1       2       1       1       2
       1       1       2       1       1       2       1       1       2       1
       1       2       1       1       2       1       1       2       1       1
       2       1       1       2       1       1       2       1       1       2
       1       1       2       1       1       2       1       1       2       1
       1       2       1       1       2       1       1       2       1       1
       2       1       1       2       1       1       2       1       1       2
       1       1       2       1       1       2       1       1       2       1
       1       2       1       1       2       1       1       2       1       1
       2       1       1       2       1       1       2       1       1       2
       1       1       2       1       1       2       1       1       2       1
       1       2       1       1       2       1       1       2       1       1
       2       1       1       2       1       1       2       1       1       2
       1       1       2       1       1       2       1       1       2       1
       1       2       1       1       2       1       1       2       1       1
       2       1       1       2       1       1       2       1       1       2
       1       1       2       1       1       2       1       1       2       1
       1       2       1       1       2       1       1       2       1       1
       2       1       1       2       1       1       2       1       1       2
       1       1       2       1       1       2       1       1       2       1
       1       2       1       1       2       1       1       2       1       1
       2       1       1       2       1       1       2       1       1       2
       1       1       2       1       1       2       1       1       2       1
       1       2       1       1       2       1       1       2       1       1
       2       1       1       2       1       1       2       1       1       2
       1       1       2       1       1       2       1       1       2       1
       1       2       1       1       2       1       1       2       1       1
       2       1       1       2       1       1       2       1       1       2
       1       1       2       1       1       2       1       1       2       1
       1       2       1       1       2       1       1       2       1       1
       2       1       1       2       1       1       2       1       1       2
       1       1       2       1       1       2       1       1       2       1
       1       2       1       1       2       1       1       2       1       1
       2       1       1       2       1       1       2       1       1       2
       1       1       2       1       1       2       1       1       2       1
       1       2       1       1       2       1       1       2       1       1
       2       1       1       2       1       1       2       1       1       2
       1       1       2       1       1       2       1       1       2       1
       1       2       1       1       2       1       1       2       1       1
       2       1       1       2       1       1       2       1       1       2
       1       1       2       1       1       2       1       1       2       1
       1       2       1       1       2       1       1       2       1       1
       2       1       1       2       1       1       2       1       1       2
       1       1       2       1       1       2       1       1       2       1
       1       2       1       1       2       1       1       2       1       1
       2       1       1       2       1       1       2       1       1       2
       1       1       2       1       1       2       1       1       2       1
       1       2       1       1       2       1       1       2       1       1
       2       1       1       2       1       1       2       1       1       2
       1       1       2       1       1       2       1       1       2       1
       1       2       1       1       2       1       1       2       1       1
       2       1       1       2       1       1       2       1       1       2
       1       1       2       1       1       2       1       1       2       1
       1       2       1       1       2       1       1       2       1       1
       2       1       1       2       1       1       2       1       1       2
       1       1       2       1       1       2       1       1       2       1
       1       2       1       1       2       1       1       2       1       1
       2       1       1       2       1       1       2       1       1       2
       1       1       2       1       1       2       1       1       2       1
       1       2       1       1       2       1       1       2       1       1
       2       1       1       2       1       1       2       1       1       2
       1       1       2       1       1       2       1       1       2       1
       1       2       1       1       2       1       1       2       1       1
       2       1       1       2       1       1       2       1       1       2
       1       1       2       1       1       2       1       1       2       1
       1       2       1       1       2       1       1       2       1       1
       2       1       1       2       1       1       2       1       1       2
       1       1       2       1       1       2       1       1       2       1
       1       2       1       1       2       1       1       2       1       1
       2       1       1       2       1       1       2       1       1       2
       1       1       2       1       1       2       1       1       2       1
       1       2       1       1       2       1       1       2       1       1
       2       1       1       2       1       1       2       1       1       2
       1       1       2       1       1       2       1       1       2       1
       1       2       1       1       2       1       1       2       1       1
       2       1       1       2       1       1       2       1       1       2
       1       1       2       1       1       2       1       1       2       1
       1       2       1       1       2       1       1       2       1       1
       2       1       1       2       1       1       2       1       1       2
       1       1       2       1       1       2       1       1       2       1
       1       2       1       1       2       1       1       2       1       1
       2       1       1       2       1       1       2       1       1       2
       1       1       2       1       1       2       1       1       2       1
       1       2       1       1       2       1       1       2       1       1
       2       1       1       2       1       1       2       1       1       2
       1       1       2       1       1       2       1       1       2       1
       1       2       1       1       2       1       1       2       1       1
       2       1       1       2       1       1       2       1       1       2
       1       1       2       1       1       2       1       1       2       1
       1       2       1       1       2       1       1       2       1       1
       2       1       1       2       1       1       2       1       1       2
       1       1       2       1       1       2       1       1       2       1
       1       2       1       1       2       1       1       2       1       1
       2       1       1       2       1       1       2       1       1       2
       1       1       2       1       1       2       1       1       2       1
       1       2       1       1       2       1       1       2       1       1
       2       1       1       2       1       1       2       1       1       2
       1       1       2       1       1       2       1       1       2       1
       1       2       1       1       2       1       1       2       1       1
       2       1       1       2       1       1       2       1       1       2
       1       1       2       1       1       2       1       1       2       1
       1       2       1       1       2       1       1       2       1       1
       2       1       1       2       1       1       2       1       1       2
       1       1       2       1       1       2       1       1       2       1
       1       2       1       1       2       1       1       2       1       1
       2       1       1       2       1       1       2       1       1       2
       1       1       2       1       1       2       1       1       2       1
       1       2       1       1       2       1       1       2       1       1
       2       1       1       2       1       1       2       1       1       2
       1       1       2       1       1       2       1       1       2       1
       1       2       1       1       2       1       1       2       1       1
       2       1       1       2       1       1       2       1       1       2
       1       1       2       1       1       2       1       1       2       1
       1       2       1       1       2       1       1       2       1       1
       2       1       1       2       1       1       2       1       1       2
       1       1       2       1       1       2       1       1       2       1
       1       2       1       1       2       1       1       2       1       1
       2       1       1       2       1       1       2       1       1       2
       1       1       2       1       1       2       1       1       2       1
       1       2       1       1       2       1       1       2       1       1
       2       1       1       2       1       1       2       1       1       2
       1       1       2       1       1       2       1       1       2       1
       1       2       1       1       2       1       1       2       1       1
       2       1       1       2       1       1       2       1       1       2
       1       1       2       1       1       2       1       1       2       1
       1       2       1       1       2       1       1       2       1       1
       2       1       1       2       1       1       2       1       1       2
       1       1       2       1       1       2       1       1       2       1
       1       2       1       1       2       1       1       2       1       1
       2       1       1       2       1       1       2       1       1       2
       1       1       2       1       1       2       1       1       2       1
       1       2       1       1       2       1       1       2       1       1
       2       1       1       2       1       1       2       1       1       2
       1       1       2       1       1       2       1       1       2       1
       1       2       1       1       2       1       1       2       1       1
       2       1       1       2       1       1       2       1       1       2
       1       1       2       1       1       2       1       1       2       1
       1       2       1       1       2       1       1       2       1       1
       2       1       1       2       1       1       2       1       1       2
       1       1       2       1       1       2       1       1       2       1
       1       2       1       1       2       1       1       2       1       1
       2       1       1       2       1       1       2       1       1       2
       1       1       2       1       1       2       1       1       2       1
       1       2       1       1       2       1       1       2       1       1
       2       1       1       2       1       1       2       1       1       2
       1       1       2       1       1       2       1       1       2       1
       1       2       1       1       2       1       1       2       1       1
       2       1       1       2       1       1       2       1       1       2
       1       1       2       1       1       2       1       1       2       1
       1       2       1       1       2       1       1       2       1       1
       2       1       1       2       1       1       2       1       1       2
       1       1       2       1       1       2       1       1       2       1
       1       2       1       1       2       1       1       2       1       1
       2       1       1       2       1       1       2       1       1       2
       1       1       2       1       1       2       1       1       2       1
       1       2       1       1       2       1       1       2       1       1
       2       1       1       2       1       1       2       1       1       2
       1       1       2       1       1       2       1       1       2       1
       1       2       1       1       2       1       1       2       1       1
       2       1       1       2       1       1       2       1       1       2
       1       1       2       1       1       2       1       1       2       1
       1       2       1       1       2       1       1       2       1       1
       2       1       1       2       1       1       2       1       1       2
       1       1       2       1       1       2       1       1       2       1
       1       2       1       1       2       1       1       2       1       1
       2       1       1       2       1       1       2       1       1       2
       1       1       2       1       1       2       1       1       2       1
       1       2       1       1       2       1       1       2       1       1
       2       1       1       2       1       1       2       1       1       2
       1       1       2       1       1       2       1       1       2       1
       1       2       1       1       2       1       1       2       1       1
       2       1       1       2       1       1       2       1       1       2
       1       1       2       1       1       2       1       1       2       1
       1       2       1       1       2       1       1       2       1       1
       2       1       1       2       1       1       2       1       1       2
       1       1       2       1       1       2       1       1       2       1
       1       2       1       1       2       1       1       2       1       1
       2       1       1       2       1       1       2       1       1       2
       1       1       2       1       1       2       1       1       2       1
       1       2       1       1       2       1       1       2       1       1
       2       1       1       2       1       1       2       1       1       2
       1       1       2       1       1       2       1       1       2       1
       1       2       1       1       2       1       1       2       1       1
       2       1       1       2       1       1       2       1       1       2
       1       1       2       1       1       2       1       1       2       1
       1       2       1       1       2       1       1       2       1       1
       2       1       1       2       1       1       2       1       1       2
       1       1       2       1       1       2       1       1       2       1
       1       2       1       1       2       1       1       2       1       1
       2       1       1       2       1       1       2       1       1       2
       1       1       2       1       1       2       1       1       2       1
       1       2       1       1       2       1       1       2       1       1
       2       1       1       2       1       1       2       1       1       2
       1       1       2       1       1       2       1       1       2       1
       1       2       1       1       2       1       1       2       1       1
       2       1       1       2       1       1       2       1       1       2
       1       1       2       1       1       2       1       1       2       1
       1       2       1       1       2       1       1       2       1       1
       2       1       1       2       1       1       2       1       1       2
       1       1       2       1       1       2       1       1       2       1
       1       2       1       1       2       1       1       2       1       1
       2       1       1       2       1       1       2       1       1       2
       1       1       2       1       1       2       1       1       2       1
       1       2       1       1       2       1       1       2       1       1
       2       1       1       2       1       1       2       1       1       2
       1       1       2       1       1       2       1       1       2       1
       1       2       1       1       2       1       1       2       1       1
       2       1       1       2       1       1       2       1       1       2
       1       1       2       1       1       2       1       1       2       1
       1       2       1       1       2       1       1       2       1       1
       2       1       1       2       1       1       2       1       1       2
       1       1       2       1       1       2       1       1       2       1
       1       2       1       1       2       1       1       2       1       1
       2       1       1       2       1       1       2       1       1       2
       1       1       2       1       1       2       1       1       2       1
       1       2       1       1       2       1       1       2       1       1
       2       1       1       2       1       1       2       1       1       2
       1       1       2       1       1       2       1       1       2       1
       1       2       1       1       2       1       1       2       1       1
       2       1       1       2       1       1       2       1       1       2
       1       1       2       1       1       2       1       1       2       1
       1       2       1       1       2       1       1       2       1       1
       2       1       1       2       1       1       2       1       1       2
       1       1       2       1       1       2       1       1       2       1
       1       2       1       1       2       1       1       2       1       1
       2       1       1       2       1       1       2       1       1       2
       1       1       2       1       1       2       1       1       2       1
       1       2       1       1       2       1       1       2       1       1
       2       1       1       2       1       1       2       1       1       2
       1       1       2       1       1       2       1       1       2       1
       1       2       1       1       2       1       1       2       1       1
       2       1       1       2       1       1       2       1       1       2
       1       1       2       1       1       2       1       1       2       1
       1       2       1       1       2       1       1       2       1       1
       2       1       1       2       1       1       2       1       1       2
       1       1       2       1       1       2       1       1       2       1
       1       2       1       1       2       1       1       2       1       1
       2       1       1       2       1       1       2       1       1       2
       1       1       2       1       1       2       1       1       2       1
       1       2       1       1       2       1       1       2       1       1
       2       1       1       2       1       1       2       1       1       2
       1       1       2       1       1       2       1       1       2       1
       1       2       1       1       2       1       1       2       1       1
       2       1       1       2       1       1       2       1       1       2
       1       1       2       1       1       2       1       1       2       1
       1       2       1       1       2       1       1       2       1       1
       2       1       1       2       1       1       2       1       1       2
       1       1       2       1       1       2       1       1       2       1
       1       2       1       1       2       1       1       2       1       1
       2       1       1       2       1       1       2       1       1       2
       1       1       2       1       1       2       1       1       2       1
       1       2       1       1       2       1       1       2       1       1
       2       1       1       2       1       1       2       1       1       2
       1       1       2       1       1       2       1       1       2       1
       1       2       1       1       2       1       1       2       1       1
       2       1       1       2       1       1       2       1       1       2
       1       1       2       1       1       2       1       1       2       1
       1       2       1       1       2       1       1       2       1       1
       2       1       1       2       1       1       2       1       1       2
       1       1       2       1       1       2       1       1       2       1
       1       2       1       1       2       1       1       2       1       1
       2       1       1       2       1       1       2       1       1       2
       1       1       2       1       1       2       1       1       2       1
       1       2       1       1       2       1       1       2       1       1
       2       1       1       2       1       1       2       1       1       2
       1       1       2       1       1       2       1       1       2       1
       1       2       1       1       2       1       1       2       1       1
       2       1       1       2       1       1       2       1       1       2
       1       1       2       1       1       2       1       1       2       1
       1       2       1       1       2       1       1       2       1       1
       2       1       1       2       1       1       2       1       1       2
       1       1       2       1       1       2       1       1       2       1
       1       2       1       1       2       1       1       2       1       1
       2       1       1       2       1       1       2       1       1       2
       1       1       2       1       1       2       1       1       2       1
       1       2       1       1       2       1       1       2       1       1
       2       1       1       2       1       1       2       1       1       2
       1       1       2       1       1       2       1       1       2       1
       1       2       1       1       2       1       1       2       1       1
       2       1       1       2       1       1       2       1       1       2
       1       1       2       1       1       2       1       1       2       1
       1       2       1       1       2       1       1       2       1       1
       2       1       1       2       1       1       2       1       1       2
       1       1       2       1       1       2       1       1       2       1
       1       2       1       1       2       1       1       2       1       1
       2       1       1       2       1       1       2       1       1       2
       1       1       2       1       1       2       1       1       2       1
       1       2       1       1       2       1       1       2       1       1
       2       1       1       2       1       1       2       1       1       2
       1       1       2       1       1       2       1       1       2       1
       1       2       1       1       2       1       1       2       1       1
       2       1       1       2       1       1       2       1       1       2
       1       1       2       1       1       2       1       1       2       1
       1       2       1       1       2       1       1       2       1       1
       2       1       1       2       1       1       2       1       1       2
       1       1       2       1       1       2       1       1       2       1
       1       2       1       1       2       1       1       2       1       1
       2       1       1       2       1       1       2       1       1       2
       1       1       2       1       1       2       1       1       2       1
       1       2       1       1       2       1       1       2       1       1
       2       1       1       2       1       1       2       1       1       2
       1       1       2       1       1       2       1       1       2       1
       1       2       1       1       2       1       1       2       1       1
       2       1       1       2       1       1       2       1       1       2
       1       1       2       1       1       2       1       1       2       1
       1       2       1       1       2       1       1       2       1       1
       2       1       1       2       1       1       2       1       1       2
       1       1       2       1       1       2       1       1       2       1
       1       2       1       1       2       1       1       2       1       1
       2       1       1       2       1       1       2       1       1       2
       1       1       2       1       1       2       1       1       2       1
       1       2       1       1       2       1       1       2       1       1
       2       1       1       2       1       1       2       1       1       2
       1       1       2       1       1       2       1       1       2       1
       1       2       1       1       2       1       1       2       1       1
       2       1       1       2       1       1       2       1       1       2
       1       1       2       1       1       2       1       1       2       1
       1       2       1       1       2       1       1       2       1       1
       2       1       1       2       1       1       2       1       1       2
       1       1       2       1       1       2       1       1       2       1
       1       2       1       1       2       1       1       2       1       1
       2       1       1       2       1       1       2       1       1       2
       1       1       2       1       1       2       1       1       2       1
       1       2       1       1       2       1       1       2       1       1
       2       1       1       2       1       1       2       1       1       2
       1       1       2       1       1       2       1       1       2       1
       1       2       1       1       2       1       1       2       1       1
       2       1       1       2       1       1       2       1       1       2
       1       1       2       1       1       2       1       1       2       1
       1       2       1       1       2       1       1       2       1       1
       2       1       1       2       1       1       2       1       1       2
       1       1       2       1       1       2       1       1       2       1
       1       2       1       1       2       1       1       2       1       1
       2       1       1       2       1       1       2       1       1       2
       1       1       2       1       1       2       1       1       2       1
       1       2       1       1       2       1       1       2       1       1
       2       1       1       2       1       1       2       1       1       2
       1       1       2       1       1       2       1       1       2       1
       1       2       1       1       2       1       1       2       1       1
       2       1       1       2       1       1       2       1       1       2
       1       1       2       1       1       2       1       1       2       1
       1       2       1       1       2       1       1       2       1       1
       2       1       1       2       1       1       2       1       1       2
       1       1       2       1       1       2       1       1       2       1
       1       2       1       1       2       1       1       2       1       1
       2       1       1       2       1       1       2       1       1       2
       1       1       2       1       1       2       1       1       2       1
       1       2       1       1       2       1       1       2       1       1
       2       1       1       2       1       1       2       1       1       2
       1       1       2       1       1       2       1       1       2       1
       1       2       1       1       2       1       1       2       1       1
       2       1       1       2       1       1       2       1       1       2
       1       1       2       1       1       2       1       1       2       1
       1       2       1       1       2       1       1       2       1       1
       2       1       1       2       1       1       2       1       1       2
       1       1       2       1       1       2       1       1       2       1
       1       2       1       1       2       1       1       2       1       1
       2       1       1       2       1       1       2       1       1       2
       1       1       2       1       1       2       1       1       2       1
       1       2       1       1       2       1       1       2       1       1
       2       1       1       2       1       1       2       1       1       2
       1       1       2       1       1       2       1       1       2       1
       1       2       1       1       2       1       1       2       1       1
       2       1       1       2       1       1       2       1       1       2
       1       1       2       1       1       2       1       1       2       1
       1       2       1       1       2       1       1       2       1       1
       2       1       1       2       1       1       2       1       1       2
       1       1       2       1       1       2       1       1       2       1
       1       2       1       1       2       1       1       2       1       1
       2       1       1       2       1       1       2       1       1       2
       1       1       2       1       1       2       1       1       2       1
       1       2       1       1       2       1       1       2       1       1
       2       1       1       2       1       1       2       1       1       2
       1       1       2       1       1       2       1       1       2       1
       1       2       1       1       2       1       1       2       1       1
       2       1       1       2       1       1       2       1       1       2
       1       1       2       1       1       2       1       1       2       1
       1       2       1       1       2       1       1       2       1       1
       2       1       1       2       1       1       2       1       1       2
       1       1       2       1       1       2       1       1       2       1
       1       2       1       1       2       1       1       2       1       1
       2       1       1       2       1       1       2       1       1       2
       1       1       2       1       1       2       1       1       2       1
       1       2       1       1       2       1       1       2       1       1
       2       1       1       2       1       1       2       1       1       2
       1       1       2       1       1       2       1       1       2       1
       1       2       1       1       2       1       1       2       1       1
       2       1       1       2       1       1       2       1       1       2
       1       1       2       1       1       2       1       1       2       1
       1       2       1       1       2       1       1       2       1       1
       2       1       1       2       1       1       2       1       1       2
       1       1       2       1       1       2       1       1       2       1
       1       2       1       1       2       1       1       2       1       1
       2       1       1       2       1       1       2       1       1       2
       1       1       2       1       1       2       1       1       2       1
       1       2       1       1       2       1       1       2       1       1
       2       1       1       2       1       1       2       1       1       2
       1       1       2       1       1       2       1       1       2       1
       1       2       1       1       2       1       1       2       1       1
       2       1       1       2       1       1       2       1       1       2
       1       1       2       1       1       2       1       1       2       1
       1       2       1       1       2       1       1       2       1       1
       2       1       1       2       1       1       2       1       1       2
       1       1       2       1       1       2       1       1       2       1
       1       2       1       1       2       1       1       2       1       1
       2       1       1       2       1       1       2       1       1       2
       1       1       2       1       1       2       1       1       2       1
       1       2       1       1       2       1       1       2       1       1
       2       1       1       2       1       1       2       1       1       2
       1       1       2       1       1       2       1       1       2       1
       1       2       1       1       2       1       1       2       1       1
       2       1       1       2       1       1       2       1       1       2
       1       1       2       1       1       2       1       1       2       1
       1       2       1       1       2       1       1       2       1       1
       2       1       1       2       1       1       2       1       1       2
       1       1       2       1       1       2       1       1       2       1
       1       2       1       1       2       1       1       2       1       1
       2       1       1       2       1       1       2       1       1       2
       1       1       2       1       1       2       1       1       2       1
       1       2       1       1       2       1       1       2       1       1
       2       1       1       2       1       1       2       1       1       2
       1       1       2       1       1       2       1       1       2       1
       1       2       1       1       2       1       1       2       1       1
       2       1       1       2       1       1       2       1       1       2
       1       1       2       1       1       2       1       1       2       1
       1       2       1       1       2       1       1       2       1       1
       2       1       1       2       1       1       2       1       1       2
       1       1       2       1       1       2       1       1       2       1
       1       2       1       1       2       1       1       2       1       1
       2       1       1       2       1       1       2       1       1       2
       1       1       2       1       1       2       1       1       2       1
       1       2       1       1       2       1       1       2       1       1
       2       1       1       2       1       1       2       1       1       2
       1       1       2       1       1       2       1       1       2       1
       1       2       1       1       2       1       1       2       1       1
       2       1       1       2       1       1       2       1       1       2
       1       1       2       1       1       2       1       1       2       1
       1       2       1       1       2       1       1       2       1       1
       2       1       1       2       1       1       2       1       1       2
       1       1       2       1       1       2       1       1       2       1
       1       2       1       1       2       1       1       2       1       1
       2       1       1       2       1       1       2       1       1       2
       1       1       2       1       1       2       1       1       2       1
       1       2       1       1       2       1       1       2       1       1
       2       1       1       2       1       1       2       1       1       2
       1       1       2       1       1       2       1       1       2       1
       1       2       1       1       2       1       1       2       1       1
       2       1       1       2       1       1       2       1       1       2
       1       1       2       1       1       2       1       1       2       1
       1       2       1       1       2       1       1       2       1       1
       2       1       1       2       1       1       2       1       1       2
       1       1       2       1       1       2       1       1       2       1
       1       2       1       1       2       1       1       2       1       1
       2       1       1       2       1       1       2       1       1       2
       1       1       2       1       1       2       1       1       2       1
       1       2       1       1       2       1       1       2       1       1
       2       1       1       2       1       1       2       1       1       2
       1       1       2       1       1       2       1       1       2       1
       1       2       1       1       2       1       1       2       1       1
       2       1       1       2       1       1       2       1       1       2
       1       1       2       1       1       2       1       1       2       1
       1       2       1       1       2       1       1       2       1       1
       2       1       1       2       1       1       2       1       1       2
       1       1       2       1       1       2       1       1       2       1
       1       2       1       1       2       1       1       2       1       1
       2       1       1       2       1       1       2       1       1       2
       1       1       2       1       1       2       1       1       2       1
       1       2       1       1       2       1       1       2       1       1
       2       1       1       2       1       1       2       1       1       2
       1       1       2       1       1       2       1       1       2       1
       1       2       1       1       2       1       1       2       1       1
       2       1       1       2       1       1       2       1       1       2
       1       1       2       1       1       2       1       1       2       1
       1       2       1       1       2       1       1       2       1       1
       2       1       1       2       1       1       2       1       1       2
       1       1       2       1       1       2       1       1       2       1
       1       2       1       1       2       1       1       2       1       1
       2       1       1       2       1       1       2       1       1       2
       1       1       2       1       1       2       1       1       2       1
       1       2       1       1       2       1       1       2       1       1
       2       1       1       2       1       1       2       1       1       2
       1       1       2       1       1       2       1       1       2       1
       1       2       1       1       2       1       1       2       1       1
       2       1       1       2       1       1       2       1       1       2
       1       1       2       1       1       2       1       1       2       1
       1       2       1       1       2       1       1       2       1       1
       2       1       1       2       1       1       2       1       1       2
       1       1       2       1       1       2       1       1       2       1
       1       2       1       1       2       1       1       2       1       1
       2       1       1       2       1       1       2       1       1       2
       1       1       2       1       1       2       1       1       2       1
       1       2       1       1       2       1       1       2       1       1
       2       1       1       2       1       1       2       1       1       2
       1       1       2       1       1       2       1       1       2       1
       1       2       1       1       2       1       1       2       1       1
       2       1       1       2       1       1       2       1       1       2
       1       1       2       1       1       2       1       1       2       1
       1       2       1       1       2       1       1       2       1       1
       2       1       1       2       1       1       2       1       1       2
       1       1       2       1       1       2       1       1       2       1
       1       2       1       1       2       1       1       2       1       1
       2       1       1       2       1       1       2       1       1       2
       1       1       2       1       1       2       1       1       2       1
       1       2       1       1       2       1       1       2       1       1
       2       1       1       2       1       1       2       1       1       2
       1       1       2       1       1       2       1       1       2       1
       1       2       1       1       2       1       1       2       1       1
       2       1       1       2       1       1       2       1       1       2
       1       1       2       1       1       2       1       1       2       1
       1       2       1       1       2       1       1       2       1       1
       2       1       1       2       1       1       2       1       1       2
       1       1       2       1       1       2       1       1       2       1
       1       2       1       1       2       1       1       2       1       1
       2       1       1       2       1       1       2       1       1       2
       1       1       2       1       1       2       1       1       2       1
       1       2       1       1       2       1       1       2       1       1
       2       1       1       2       1       1       2       1       1       2
       1       1       2       1       1       2       1       1       2       1
       1       2       1       1       2       1       1       2       1       1
       2       1       1       2       1       1       2       1       1       2
       1       1       2       1       1       2       1       1       2       1
       1       2       1       1       2       1       1       2       1       1
       2       1       1       2       1       1       2       1       1       2
       1       1       2       1       1       2       1       1       2       1
       1       2       1       1       2       1       1       2       1       1
       2       1       1       2       1       1       2       1       1       2
       1       1       2       1       1       2       1       1       2       1
       1       2       1       1       2       1       1       2       1       1
       2       1       1       2       1       1       2       1       1       2
       1       1       2       1       1       2       1       1       2       1
       1       2       1       1       2       1       1       2       1       1
       2       1       1       2       1       1       2       1       1       2
       1       1       2       1       1       2       1       1       2       1
       1       2       1       1       2       1       1       2       1       1
       2       1       1       2       1       1       2       1       1       2
       1       1       2       1       1       2       1       1       2       1
       1       2       1       1       2       1       1       2       1       1
       2       1       1       2       1       1       2       1       1       2
       1       1       2       1       1       2       1       1       2       1
       1       2       1       1       2       1       1       2       1       1
       2       1       1       2       1       1       2       1       1       2
       1       1       2       1       1       2       1       1       2       1
       1       2       1       1       2       1       1       2       1       1
       2       1       1       2       1       1       2       1       1       2
       1       1       2       1       1       2       1       1       2       1
       1       2       1       1       2       1       1       2       1       1
       2       1       1       2       1       1       2       1       1       2
       1       1       2       1       1       2       1       1       2       1
       1       2       1       1       2       1       1       2       1       1
       2       1       1       2       1       1       2       1       1       2
       1       1       2       1       1       2       1       1       2       1
       1       2       1       1       2       1       1       2       1       1
       2       1       1       2       1       1       2       1       1       2
       1       1       2       1       1       2       1       1       2       1
       1       2       1       1       2       1       1       2       1       1
       2       1       1       2       1       1       2       1       1       2
       1       1       2       1       1       2       1       1       2       1
       1       2       1       1       2       1       1       2       1       1
       2       1       1       2       1       1       2       1       1       2
       1       1       2       1       1       2       1       1       2       1
       1       2       1       1       2       1       1       2       1       1
       2       1       1       2       1       1       2       1       1       2
       1       1       2       1       1       2       1       1       2       1
       1       2       1       1       2       1       1       2       1       1
       2       1       1       2       1       1       2       1       1       2
       1       1       2       1       1       2       1       1       2       1
       1       2       1       1       2       1       1       2       1       1
       2       1       1       2       1       1       2       1       1       2
       1       1       2       1       1       2       1       1       2       1
       1       2       1       1       2       1       1       2       1       1
       2       1       1       2       1       1       2       1       1       2
       1       1       2       1       1       2       1       1       2       1
       1       2       1       1       2       1       1       2       1       1
       2       1       1       2       1       1       2       1       1       2
       1       1       2       1       1       2       1       1       2       1
       1       2       1       1       2       1       1       2       1       1
       2       1       1       2       1       1       2       1       1       2
       1       1       2       1       1       2       1       1       2       1
       1       2       1       1       2       1       1       2       1       1
       2       1       1       2       1       1       2       1       1       2
       1       1       2       1       1       2       1       1       2       1
       1       2       1       1       2       1       1       2       1       1
       2       1       1       2       1       1       2       1       1       2
       1       1       2       1       1       2       1       1       2       1
       1       2       1       1       2       1       1       2       1       1
       2       1       1       2       1       1       2       1       1       2
       1       1       2       1       1       2       1       1       2       1
       1       2       1       1       2       1       1       2       1       1
       2       1       1       2       1       1       2       1       1       2
       1       1       2       1       1       2       1       1       2       1
       1       2       1       1       2       1       1       2       1       1
       2       1       1       2       1       1       2       1       1       2
       1       1       2       1       1       2       1       1       2       1
       1       2       1       1       2       1       1       2       1       1
       2       1       1       2       1       1       2       1       1       2
       1       1       2       1       1       2       1       1       2       1
       1       2       1       1       2       1       1       2       1       1
       2       1       1       2       1       1       2       1       1       2
       1       1       2       1       1       2       1       1       2       1
       1       2       1       1       2       1       1       2       1       1
       2       1       1       2       1       1       2       1       1       2
       1       1       2       1       1       2       1       1       2       1
       1       2       1       1       2       1       1       2       1       1
       2       1       1       2       1       1       2       1       1       2
       1       1       2       1       1       2       1       1       2       1
       1       2       1       1       2       1       1       2       1       1
       2       1       1       2       1       1       2       1       1       2
       1       1       2       1       1       2       1       1       2       1
       1       2       1       1       2       1       1       2       1       1
       2       1       1       2       1       1       2       1       1       2
       1       1       2       1       1       2       1       1       2       1
       1       2       1       1       2       1       1       2       1       1
       2       1       1       2       1       1       2       1       1       2
       1       1       2       1       1       2       1       1       2       1
       1       2       1       1       2       1       1       2       1       1
       2       1       1       2       1       1       2       1       1       2
       1       1       2       1       1       2       1       1       2       1
       1       2       1       1       2       1       1       2       1       1
       2       1       1       2       1       1       2       1       1       2
       1       1       2       1       1       2       1       1       2       1
       1       2       1       1       2       1       1       2       1       1
       2       1       1       2       1       1       2       1       1       2
       1       1       2       1       1       2       1       1       2       1
       1       2       1       1       2       1       1       2       1       1
       2       1       1       2       1       1       2       1       1       2
       1       1       2       1       1       2       1       1       2       1
       1       2       1       1       2       1       1       2       1       1
       2       1       1       2       1       1       2       1       1       2
       1       1       2       1       1       2       1       1       2       1
       1       2       1       1       2       1       1       2       1       1
       2       1       1       2       1       1       2       1       1       2
       1       1       2       1       1       2       1       1       2       1
       1       2       1       1       2       1       1       2       1       1
       2       1       1       2       1       1       2       1       1       2
       1       1       2       1       1       2       1       1       2       1
       1       2       1       1       2       1       1       2       1       1
       2       1       1       2       1       1       2       1       1       2
       1       1       2       1       1       2       1       1       2       1
       1       2       1       1       2       1       1       2       1       1
       2       1       1       2       1       1       2       1       1       2
       1       1       2       1       1       2       1       1       2       1
       1       2       1       1       2       1       1       2       1       1
       2       1       1       2       1       1       2       1       1       2
       1       1       2       1       1       2       1       1       2       1
       1       2       1       1       2       1       1       2       1       1
       2       1       1       2       1       1       2       1       1       2
       1       1       2       1       1       2       1       1       2       1
       1       2       1       1       2       1       1       2       1       1
       2       1       1       2       1       1       2       1       1       2
       1       1       2       1       1       2       1       1       2       1
       1       2       1       1       2       1       1       2       1       1
       2       1       1       2       1       1       2       1       1       2
       1       1       2       1       1       2       1       1       2       1
       1       2       1       1       2       1       1       2       1       1
       2       1       1       2       1       1       2       1       1       2
       1       1       2       1       1       2       1       1       2       1
       1       2       1       1       2       1       1       2       1       1
       2       1       1       2       1       1       2       1       1       2
       1       1       2       1       1       2       1       1       2       1
       1       2       1       1       2       1       1       2       1       1
       2       1       1       2       1       1       2       1       1       2
       1       1       2       1       1       2       1       1       2       1
       1       2       1       1       2       1       1       2       1       1
       2       1       1       2       1       1       2       1       1       2
       1       1       2       1       1       2       1       1       2       1
       1       2       1       1       2       1       1       2       1       1
       2       1       1       2       1       1       2       1       1       2
       1       1       2       1       1       2       1       1       2       1
       1       2       1       1       2       1       1       2       1       1
       2       1       1       2       1       1       2       1       1       2
       1       1       2       1       1       2       1       1       2       1
       1       2       1       1       2       1       1       2       1       1
       2       1       1       2       1       1       2       1       1       2
       1       1       2       1       1       2       1       1       2       1
       1       2       1       1       2       1       1       2       1       1
       2       1       1       2       1       1       2       1       1       2
       1       1       2       1       1       2       1       1       2       1
       1       2       1       1       2       1       1       2       1       1
       2       1       1       2       1       1       2       1       1       2
       1       1       2       1       1       2       1       1       2       1
       1       2       1       1       2       1       1       2       1       1
       2       1       1       2       1       1       2       1       1       2
       1       1       2       1       1       2       1       1       2       1
       1       2       1       1       2       1       1       2       1       1
       2       1       1       2       1       1       2       1       1       2
       1       1       2       1       1       2       1       1       2       1
       1       2       1       1       2       1       1       2       1       1
       2       1       1       2       1       1       2       1       1       2
       1       1       2       1       1       2       1       1       2       1
       1       2       1       1       2       1       1       2       1       1
       2       1       1       2       1       1       2       1       1       2
       1       1       2       1       1       2       1       1       2       1
       1       2       1       1       2       1       1       2       1       1
       2       1       1       2       1       1       2       1       1       2
       1       1       2       1       1       2       1       1       2       1
       1       2       1       1       2       1       1       2       1       1
       2       1       1       2       1       1       2       1       1       2
       1       1       2       1       1       2       1       1       2       1
       1       2       1       1       2       1       1       2       1       1
       2       1       1       2       1       1       2       1       1       2
       1       1       2       1       1       2       1       1       2       1
       1       2       1       1       2       1       1       2       1       1
       2       1       1       2       1       1       2       1       1       2
       1       1       2       1       1       2       1       1       2       1
       1       2       1       1       2       1       1       2       1       1
       2       1       1       2       1       1       2       1       1       2
       1       1       2       1       1       2       1       1       2       1
       1       2       1       1       2       1       1       2       1       1
       2       1       1       2       1       1       2       1       1       2
       1       1       2       1       1       2       1       1       2       1
       1       2       1       1       2       1       1       2       1       1
       2       1       1       2       1       1       2       1       1       2
       1       1       2       1       1       2       1       1       2       1
       1       2       1       1       2       1       1       2       1       1
       2       1       1       2       1       1       2       1       1       2
       1       1       2       1       1       2       1       1       2       1
       1       2       1       1       2       1       1       2       1       1
       2       1       1       2       1       1       2       1       1       2
       1       1       2       1       1       2       1       1       2       1
       1       2       1       1       2       1       1       2       1       1
       2       1       1       2       1       1       2       1       1       2
       1       1       2       1       1       2       1       1       2       1
       1       2       1       1       2       1       1       2       1       1
       2       1       1       2       1       1       2       1       1       2
       1       1       2       1       1       2       1       1       2       1
       1       2       1       1       2       1       1       2       1       1
       2       1       1       2       1       1       2       1       1       2
       1       1       2       1       1       2       1       1       2       1
       1       2       1       1       2       1       1       2       1       1
       2       1       1       2       1       1       2       1       1       2
       1       1       2       1       1       2       1       1       2       1
       1       2       1       1       2       1       1       2       1       1
       2       1       1       2       1       1       2       1       1       2
       1       1       2       1       1       2       1       1       2       1
       1       2       1       1       2       1       1       2       1       1
       2       1       1       2       1       1       2       1       1       2
       1       1       2       1       1       2       1       1       2       1
       1       2       1       1       2       1       1       2       1       1
       2       1       1       2       1       1       2       1       1       2
       1       1       2       1       1       2       1       1       2       1
       1       2       1       1       2       1       1       2       1       1
       2       1       1       2       1       1       2       1       1       2
       1       1       2       1       1       2       1       1       2       1
       1       2       1       1       2       1       1       2       1       1
       2       1       1       2       1       1       2       1       1       2
       1       1       2       1       1       2       1       1       2       1
       1       2       1       1       2       1       1       2       1       1
       2       1       1       2       1       1       2       1       1       2
       1       1       2       1       1       2       1       1       2       1
       1       2       1       1       2       1       1       2       1       1
       2       1       1       2       1       1       2       1       1       2
       1       1       2       1       1       2       1       1       2       1
       1       2       1       1       2       1       1       2       1       1
       2       1       1       2       1       1       2       1       1       2
       1       1       2       1       1       2       1       1       2       1
       1       2       1       1       2       1       1       2       1       1
       2       1       1       2       1       1       2       1       1       2
       1       1       2       1       1       2       1       1       2       1
       1       2       1       1       2       1       1       2       1       1
       2       1       1       2       1       1       2       1       1       2
       1       1       2       1       1       2       1       1       2       1
       1       2       1       1       2       1       1       2       1       1
       2       1       1       2       1       1       2       1       1       2
       1       1       2       1       1       2       1       1       2       1
       1       2       1       1       2       1       1       2       1       1
       2       1       1       2       1       1       2       1       1       2
       1       1       2       1       1       2       1       1       2       1
       1       2       1       1       2       1       1       2       1       1
       2       1       1       2       1       1       2       1       1       2
       1       1       2       1       1       2       1       1       2       1
       1       2       1       1       2       1       1       2       1       1
       2       1       1       2       1       1       2       1       1       2
       1       1       2       1       1       2       1       1       2       1
       1       2       1       1       2       1       1       2       1       1
       2       1       1       2       1       1       2       1       1       2
       1       1       2       1       1       2       1       1       2       1
       1       2       1       1       2       1       1       2       1       1
       2       1       1       2       1       1       2       1       1       2
       1       1       2       1       1       2       1       1       2       1
       1       2       1       1       2       1       1       2       1       1
       2       1       1       2       1       1       2       1       1       2
       1       1       2       1       1       2       1       1       2       1
       1       2       1       1       2       1       1       2       1       1
       2       1       1       2       1       1       2       1       1       2
       1       1       2       1       1       2       1       1       2       1
       1       2       1       1       2       1       1       2       1       1
       2       1       1       2       1       1       2       1       1       2
       1       1       2       1       1       2       1       1       2       1
       1       2       1       1       2       1       1       2       1       1
       2       1       1       2       1       1       2       1       1       2
       1       1       2       1       1       2       1       1       2       1
       1       2       1       1       2       1       1       2       1       1
       2       1       1       2       1       1       2       1       1       2
       1       1       2       1       1       2       1       1       2       1
       1       2       1       1       2       1       1       2       1       1
       2       1       1       2       1       1       2       1       1       2
       1       1       2       1       1       2       1       1       2       1
       1       2       1       1       2       1       1       2       1       1
       2       1       1       2       1       1       2       1       1       2
       1       1       2       1       1       2       1       1       2       1
       1       2       1       1       2       1       1       2       1       1
       2       1       1       2       1       1       2       1       1       2
       1       1       2       1       1       2       1       1       2       1
       1       2       1       1       2       1       1       2       1       1
       2       1       1       2       1       1       2       1       1       2
       1       1       2       1       1       2       1       1       2       1
       1       2       1       1       2       1       1       2       1       1
       2       1       1       2       1       1       2       1       1       2
       1       1       2       1       1       2       1       1       2       1
       1       2       1       1       2       1       1       2       1       1
       2       1       1       2       1       1       2       1       1       2
       1       1       2       1       1       2       1       1       2       1
       1       2       1       1       2       1       1       2       1       1
       2       1       1       2       1       1       2       1       1       2
       1       1       2       1       1       2       1       1       2       1
       1       2       1       1       2       1       1       2       1       1
       2       1       1       2       1       1       2       1       1       2
       1       1       2       1       1       2       1       1       2       1
       1       2       1       1       2       1       1       2       1       1
       2       1       1       2       1       1       2       1       1       2
       1       1       2       1       1       2       1       1       2       1
       1       2       1       1       2       1       1       2       1       1
       2       1       1       2       1       1       2       1       1       2
       1       1       2       1       1       2       1       1       2       1
       1       2       1       1       2       1       1       2       1       1
       2       1       1       2       1       1       2       1       1       2
       1       1       2       1       1       2       1       1       2       1
       1       2       1       1       2       1       1       2       1       1
       2       1       1       2       1       1       2       1       1       2
       1       1       2       1       1       2       1       1       2       1
       1       2       1       1       2       1       1       2       1       1
       2       1       1       2       1       1       2       1       1       2
       1       1       2       1       1       2       1       1       2       1
       1       2       1       1       2       1       1       2       1       1
       2       1       1       2       1       1       2       1       1       2
       1       1       2       1       1       2       1       1       2       1
       1       2       1       1       2       1       1       2       1       1
       2       1       1       2       1       1       2       1       1       2
       1       1       2       1       1       2       1       1       2       1
       1       2       1       1       2       1       1       2       1       1
       2       1       1       2       1       1       2       1       1       2
       1       1       2       1       1       2       1       1       2       1
       1       2       1       1       2       1       1       2       1       1
       2       1       1       2       1       1       2       1       1       2
       1       1       2       1       1       2       1       1       2       1
       1       2       1       1       2       1       1       2       1       1
       2       1       1       2       1       1       2       1       1       2
       1       1       2       1       1       2       1       1       2       1
       1       2       1       1       2       1       1       2       1       1
       2       1       1       2       1       1       2       1       1       2
       1       1       2       1       1       2       1       1       2       1
       1       2       1       1       2       1       1       2       1       1
       2       1       1       2       1       1       2       1       1       2
       1       1       2       1       1       2       1       1       2       1
       1       2       1       1       2       1       1       2       1       1
       2       1       1       2       1       1       2       1       1       2
       1       1       2       1       1       2       1       1       2       1
       1       2       1       1       2       1       1       2       1       1
       2       1       1       2       1       1       2       1       1       2
       1       1       2       1       1       2       1       1       2       1
       1       2       1       1       2       1       1       2       1       1
       2       1       1       2       1       1       2       1       1       2
       1       1       2       1       1       2       1       1       2       1
       1       2       1       1       2       1       1       2       1       1
       2       1       1       2       1       1       2       1       1       2
       1       1       2       1       1       2       1       1       2       1
       1       2       1       1       2       1       1       2       1       1
       2       1       1       2       1       1       2       1       1       2
       1       1       2       1       1       2       1       1       2       1
       1       2       1       1       2       1       1       2       1       1
       2       1       1       2       1       1       2       1       1       2
       1       1       2       1       1       2       1       1       2       1
       1       2       1       1       2       1       1       2       1       1
       2       1       1       2       1       1       2       1       1       2
       1       1       2       1       1       2       1       1       2       1
       1       2       1       1       2       1       1       2       1       1
       2       1       1       2       1       1       2       1       1       2
       1       1       2       1       1       2       1       1       2       1
       1       2       1       1       2       1       1       2       1       1
       2       1       1       2       1       1       2       1       1       2
       1       1       2       1       1       2       1       1       2       1
       1       2       1       1       2       1       1       2       1       1
       2       1       1       2       1       1       2       1       1       2
       1       1       2       1       1       2       1       1       2       1
       1       2       1       1       2       1       1       2       1       1
       2       1       1       2       1       1       2       1       1       2
       1       1       2       1       1       2       1       1       2       1
       1       2       1       1       2       1       1       2       1       1
       2       1       1       2       1       1       2       1       1       2
       1       1       2       1       1       2       1       1       2       1
       1       2       1       1       2       1       1       2       1       1
       2       1       1       2       1       1       2       1       1       2
       1       1       2       1       1       2       1       1       2       1
       1       2       1       1       2       1       1       2       1       1
       2       1       1       2       1       1       2       1       1       2
       1       1       2       1       1       2       1       1       2       1
       1       2       1       1       2       1       1       2       1       1
       2       1       1       2       1       1       2       1       1       2
       1       1       2       1       1       2       1       1       2       1
       1       2       1       1       2       1       1       2       1       1
       2       1       1       2       1       1       2       1       1       2
       1       1       2       1       1       2       1       1       2       1
       1       2       1       1       2       1       1       2       1       1
       2       1       1       2       1       1       2       1       1       2
       1       1       2       1       1       2       1       1       2       1
       1       2       1       1       2       1       1       2       1       1
       2       1       1       2       1       1       2       1       1       2
       1       1       2       1       1       2       1       1       2       1
       1       2       1       1       2       1       1       2       1       1
       2       1       1       2       1       1       2       1       1       2
       1       1       2       1       1       2       1       1       2       1
       1       2       1       1       2       1       1       2       1       1
       2       1       1       2       1       1       2       1       1       2
       1       1       2       1       1       2       1       1       2       1
       1       2       1       1       2       1       1       2       1       1
       2       1       1       2       1       1       2       1       1       2
       1       1       2       1       1       2       1       1       2       1
       1       2       1       1       2       1       1       2       1       1
       2       1       1       2       1       1       2       1       1       2
       1       1       2       1       1       2       1       1       2       1
       1       2       1       1       2       1       1       2       1       1
       2       1       1       2       1       1       2       1       1       2
       1       1       2       1       1       2       1       1       2       1
       1       2       1       1       2       1       1       2       1       1
       2       1       1       2       1       1       2       1       1       2
       1       1       2       1       1       2       1       1       2       1
       1       2       1       1       2       1       1       2       1       1
       2       1       1       2       1       1       2       1       1       2
       1       1       2       1       1       2       1       1       2       1
       1       2       1       1       2       1       1       2       1       1
       2       1       1       2       1       1       2       1       1       2
       1       1       2       1       1       2       1       1       2       1
       1       2       1       1       2       1       1       2       1       1
       2       1       1       2       1       1       2       1       1       2
       1       1       2       1       1       2       1       1       2       1
       1       2       1       1       2       1       1       2       1       1
       2       1       1       2       1       1       2       1       1       2
       1       1       2       1       1       2       1       1       2       1
       1       2       1       1       2       1       1       2       1       1
       2       1       1       2       1       1       2       1       1       2
       1       1       2       1       1       2       1       1       2       1
       1       2       1       1       2       1       1       2       1       1
       2       1       1       2       1       1       2       1       1       2
       1       1       2       1       1       2       1       1       2       1
       1       2       1       1       2       1       1       2       1       1
       2       1       1       2       1       1       2       1       1       2
       1       1       2       1       1       2       1       1       2       1
       1       2       1       1       2       1       1       2       1       1
       2       1       1       2       1       1       2       1       1       2
       1       1       2       1       1       2       1       1       2       1
       1       2       1       1       2       1       1       2       1       1
       2       1       1       2       1       1       2       1       1       2
       1       1       2       1       1       2       1       1       2       1
       1       2       1       1       2       1       1       2       1       1
       2       1       1       2       1       1       2       1       1       2
       1       1       2       1       1       2       1       1       2       1
       1       2       1       1       2       1       1       2       1       1
       2       1       1       2       1       1       2       1       1       2
       1       1       2       1       1       2       1       1       2       1
       1       2       1       1       2       1       1       2       1       1
       2       1       1       2       1       1       2       1       1       2
       1       1       2       1       1       2       1       1       2       1
       1       2       1       1       2       1       1       2       1       1
       2       1       1       2       1       1       2       1       1       2
       1       1       2       1       1       2       1       1       2       1
       1       2       1       1       2       1       1       2       1       1
       2       1       1       2       1       1       2       1       1       2
       1       1       2       1       1       2       1       1       2       1
       1       2       1       1       2       1       1       2       1       1
       2       1       1       2       1       1       2       1       1       2
       1       1       2       1       1       2       1       1       2       1
       1       2       1       1       2       1       1       2       1       1
       2       1       1       2       1       1       2       1       1       2
       1       1       2       1       1       2       1       1       2       1
       1       2       1       1       2       1       1       2       1       1
       2       1       1       2       1       1       2       1       1       2
       1       1       2       1       1       2       1       1       2       1
       1       2       1       1       2       1       1       2       1       1
       2       1       1       2       1       1       2       1       1       2
       1       1       2       1       1       2       1       1       2       1
       1       2       1       1       2       1       1       2       1       1
       2       1       1       2       1       1       2       1       1       2
       1       1       2       1       1       2       1       1       2       1
       1       2       1       1       2       1       1       2       1       1
       2       1       1       2       1       1       2       1       1       2
       1       1       2       1       1       2       1       1       2       1
       1       2       1       1       2       1       1       2       1       1
       2       1       1       2       1       1       2       1       1       2
       1       1       2       1       1       2       1       1       2       1
       1       2       1       1       2       1       1       2       1       1
       2       1       1       2       1       1       2       1       1       2
       1       1       2       1       1       2       1       1       2       1
       1       2       1       1       2       1       1       2       1       1
       2       1       1       2       1       1       2       1       1       2
       1       1       2       1       1       2       1       1       2       1
       1       2       1       1       2       1       1       2       1       1
       2       1       1       2       1       1       2       1       1       2
       1       1       2       1       1       2       1       1       2       1
       1       2       1       1       2       1       1       2       1       1
       2       1       1       2       1       1       2       1       1       2
       1       1       2       1       1       2       1       1       2       1
       1       2       1       1       2       1       1       2       1       1
       2       1       1       2       1       1       2       1       1       2
       1       1       2       1       1       2       1       1       2       1
       1       2       1       1       2       1       1       2       1       1
       2       1       1       2       1       1       2       1       1       2
       1       1       2       1       1       2       1       1       2       1
       1       2       1       1       2       1       1       2       1       1
       2       1       1       2       1       1       2       1       1       2
       1       1       2       1       1       2       1       1       2       1
       1       2       1       1       2       1       1       2       1       1
       2       1       1       2       1       1       2       1       1       2
       1       1       2       1       1       2       1       1       2       1
       1       2       1       1       2       1       1       2       1       1
       2       1       1       2       1       1       2       1       1       2
       1       1       2       1       1       2       1       1       2       1
       1       2       1       1       2       1       1       2       1       1
       2       1       1       2       1       1       2       1       1       2
       1       1       2       1       1       2       1       1       2       1
       1       2       1       1       2       1       1       2       1       1
       2       1       1       2       1       1       2       1       1       2
       1       1       2       1       1       2       1       1       2       1
       1       2       1       1       2       1       1       2       1       1
       2       1       1       2       1       1       2       1       1       2
       1       1       2       1       1       2       1       1       2       1
       1       2       1       1       2       1       1       2       1       1
       2       1       1       2       1       1       2       1       1       2
       1       1       2       1       1       2       1       1       2       1
       1       2       1       1       2       1       1       2       1       1
       2       1       1       2       1       1       2       1       1       2
       1       1       2       1       1       2       1       1       2       1
       1       2       1       1       2       1       1       2       1       1
       2       1       1       2       1       1       2       1       1       2
       1       1       2       1       1       2       1       1       2       1
       1       2       1       1       2       1       1       2       1       1
       2       1       1       2       1       1       2       1       1       2
       1       1       2       1       1       2       1       1       2       1
       1       2       1       1       2       1       1       2       1       1
       2       1       1       2       1       1       2       1       1       2
       1       1       2       1       1       2       1       1       2       1
       1       2       1       1       2       1       1       2       1       1
       2       1       1       2       1       1       2       1       1       2
       1       1       2       1       1       2       1       1       2       1
       1       2       1       1       2       1       1       2       1       1
       2       1       1       2       1       1       2       1       1       2
       1       1       2       1       1       2       1       1       2       1
       1       2       1       1       2       1       1       2       1       1
       2       1       1       2       1       1       2       1       1       2
       1       1       2       1       1       2       1       1       2       1
       1       2       1       1       2       1       1       2       1       1
       2       1       1       2       1       1       2       1       1       2
       1       1       2       1       1       2       1       1       2       1
       1       2       1       1       2       1       1       2       1       1
       2       1       1       2       1       1       2       1       1       2
       1       1       2       1       1       2       1       1       2       1
       1       2       1       1       2       1       1       2       1       1
       2       1       1       2       1       1       2       1       1       2
       1       1       2       1       1       2       1       1       2       1
       1       2       1       1       2       1       1       2       1       1
       2       1       1       2       1       1       2       1       1       2
       1       1       2       1       1       2       1       1       2       1
       1       2       1       1       2       1       1       2       1       1
       2       1       1       2       1       1       2       1       1       2
       1       1       2       1       1       2       1       1       2       1
       1       2       1       1       2       1       1       2       1       1
       2       1       1       2       1       1       2       1       1       2
       1       1       2       1       1       2       1       1       2       1
       1       2       1       1       2       1       1       2       1       1
       2       1       1       2       1       1       2       1       1       2
       1       1       2       1       1       2       1       1       2       1
       1       2       1       1       2       1       1       2       1       1
       2       1       1       2       1       1       2       1       1       2
       1       1       2       1       1       2       1       1       2       1
       1       2       1       1       2       1       1       2       1       1
       2       1       1       2       1       1       2       1       1       2
       1       1       2       1       1       2       1       1       2       1
       1       2       1       1       2       1       1       2       1       1
       2       1       1       2       1       1       2       1       1       2
       1       1       2       1       1       2       1       1       2       1
       1       2       1       1       2       1       1       2       1       1
       2       1       1       2       1       1       2       1       1       2
       1       1       2       1       1       2       1       1       2       1
       1       2       1       1       2       1       1       2       1       1
       2       1       1       2       1       1       2       1       1       2
       1       1       2       1       1       2       1       1       2       1
       1       2       1       1       2       1       1       2       1       1
       2       1       1       2       1       1       2       1       1       2
       1       1       2       1       1       2       1       1       2       1
       1       2       1       1       2       1       1       2       1       1
       2       1       1       2       1       1       2       1       1       2
       1       1       2       1       1       2       1       1       2       1
       1       2       1       1       2       1       1       2       1       1
       2       1       1       2       1       1       2       1       1       2
       1       1       2       1       1       2       1       1       2       1
       1       2       1       1       2       1       1       2       1       1
       2       1       1       2       1       1       2       1       1       2
       1       1       2       1       1       2       1       1       2       1
       1       2       1       1       2       1       1       2       1       1
       2       1       1       2       1       1       2       1       1       2
       1       1       2       1       1       2       1       1       2       1
       1       2       1       1       2       1       1       2       1       1
       2       1       1       2       1       1       2       1       1       2
       1       1       2       1       1       2       1       1       2       1
       1       2       1       1       2       1       1       2       1       1
       2       1       1       2       1       1       2       1       1       2
       1       1       2       1       1       2       1       1       2       1
       1       2       1       1       2       1       1       2       1       1
       2       1       1       2       1       1       2       1       1       2
       1       1       2       1       1       2       1       1       2       1
       1       2       1       1       2       1       1       2       1       1
       2       1       1       2       1       1       2       1       1       2
       1       1       2       1       1       2       1       1       2       1
       1       2       1       1       2       1       1       2       1       1
       2       1       1       2       1       1       2       1       1       2
       1       1       2       1       1       2       1       1       2       1
       1       2       1       1       2       1       1       2       1       1
       2       1       1       2       1       1       2       1       1       2
       1       1       2       1       1       2       1       1       2       1
       1       2       1       1       2       1       1       2       1       1
       2       1       1       2       1       1       2       1       1       2
       1       1       2       1       1       2       1       1       2       1
       1       2       1       1       2       1       1       2       1       1
       2       1       1       2       1       1       2       1       1       2
       1       1       2       1       1       2       1       1       2       1
       1       2       1       1       2       1       1       2       1       1
       2       1       1       2       1       1       2       1       1       2
       1       1       2       1       1       2       1       1       2       1
       1       2       1       1       2       1       1       2       1       1
       2       1       1       2       1       1       2       1       1       2
       1       1       2       1       1       2       1       1       2       1
       1       2       1       1       2       1       1       2       1       1
       2       1       1       2       1       1       2       1       1       2
       1       1       2       1       1       2       1       1       2       1
       1       2       1       1       2       1       1       2       1       1
       2       1       1       2       1       1       2       1       1       2
       1       1       2       1       1       2       1       1       2       1
       1       2       1       1       2       1       1       2       1       1
       2       1       1       2       1       1       2       1       1       2
       1       1       2       1       1       2       1       1       2       1
       1       2       1       1       2       1       1       2       1       1
       2       1       1       2       1       1       2       1       1       2
       1       1       2       1       1       2       1       1       2       1
       1       2       1       1       2       1       1       2       1       1
       2       1       1       2       1       1       2       1       1       2
       1       1       2       1       1       2       1       1       2       1
       1       2       1       1       2       1       1       2       1       1
       2       1       1       2       1       1       2       1       1       2
       1       1       2       1       1       2       1       1       2       1
       1       2       1       1       2       1       1       2       1       1
       2       1       1       2       1       1       2       1       1       2
       1       1       2       1       1       2       1       1       2       1
       1       2       1       1       2       1       1       2       1       1
       2       1       1       2       1       1       2       1       1       2
       1       1       2       1       1       2       1       1       2       1
       1       2       1       1       2       1       1       2       1       1
       2       1       1       2       1       1       2       1       1       2
       1       1       2       1       1       2       1       1       2       1
       1       2       1       1       2       1       1       2       1       1
       2       1       1       2       1       1       2       1       1       2
       1       1       2       1       1       2       1       1       2       1
       1       2       1       1       2       1       1       2       1       1
       2       1       1       2       1       1       2       1       1       2
       1       1       2       1       1       2       1       1       2       1
       1       2       1       1       2       1       1       2       1       1
       2       1       1       2       1       1       2       1       1       2
       1       1       2       1       1       2       1       1       2       1
       1       2       1       1       2       1       1       2       1       1
       2       1       1       2       1       1       2       1       1       2
       1       1       2       1       1       2       1       1       2       1
       1       2       1       1       2       1       1       2       1       1
       2       1       1       2       1       1       2       1       1       2
       1       1       2       1       1       2       1       1       2       1
       1       2       1       1       2       1       1       2       1       1
       2       1       1       2       1       1       2       1       1       2
       1       1       2       1       1       2       1       1       2       1
       1       2       1       1       2       1       1       2       1       1
       2       1       1       2       1       1       2       1       1       2
       1       1       2       1       1       2       1       1       2       1
       1       2       1       1       2       1       1       2       1       1
       2       1       1       2       1       1       2       1       1       2
       1       1       2       1       1       2       1       1       2       1
       1       2       1       1       2       1       1       2       1       1
       2       1       1       2       1       1       2       1       1       2
       1       1       2       1       1       2       1       1       2       1
       1       2       1       1       2       1       1       2       1       1
       2       1       1       2       1       1       2       1       1       2
       1       1       2       1       1       2       1       1       2       1
       1       2       1       1       2       1       1       2       1       1
       2       1       1       2       1       1       2       1       1       2
       1       1       2       1       1       2       1       1       2       1
       1       2       1       1       2       1       1       2       1       1
       2       1       1       2       1       1       2       1       1       2
       1       1       2       1       1       2       1       1       2       1
       1       2       1       1       2       1       1       2       1       1
       2       1       1       2       1       1       2       1       1       2
       1       1       2       1       1       2       1       1       2       1
       1       2       1       1       2       1       1       2       1       1
       2       1       1       2       1       1       2       1       1       2
       1       1       2       1       1       2       1       1       2       1
       1       2       1       1       2       1       1       2       1       1
       2       1       1       2       1       1       2       1       1       2
       1       1       2       1       1       2       1       1       2       1
       1       2       1       1       2       1       1       2       1       1
       2       1       1       2       1       1       2       1       1       2
       1       1       2       1       1       2       1       1       2       1
       1       2       1       1       2       1       1       2       1       1
       2       1       1       2       1       1       2       1       1       2
       1       1       2       1       1       2       1       1       2       1
       1       2       1       1       2       1       1       2       1       1
       2       1       1       2       1       1       2       1       1       2
       1       1       2       1       1       2       1       1       2       1
       1       2       1       1       2       1       1       2       1       1
       2       1       1       2       1       1       2       1       1       2
       1       1       2       1       1       2       1       1       2       1
       1       2       1       1       2       1       1       2       1       1
       2       1       1       2       1       1       2       1       1       2
       1       1       2       1       1       2       1       1       2       1
       1       2       1       1       2       1       1       2       1       1
       2       1       1       2       1       1       2       1       1       2
       1       1       2       1       1       2       1       1       2       1
       1       2       1       1       2       1       1       2       1       1
       2       1       1       2       1       1       2       1       1       2
       1       1       2       1       1       2       1       1       2       1
       1       2       1       1       2       1       1       2       1       1
       2       1       1       2       1       1       2       1       1       2
       1       1       2       1       1       2       1       1       2       1
       1       2       1       1       2       1       1       2       1       1
       2       1       1       2       1       1       2       1       1       2
       1       1       2       1       1       2       1       1       2       1
       1       2       1       1       2       1       1       2       1       1
       2       1       1       2       1       1       2       1       1       2
       1       1       2       1       1       2       1       1       2       1
       1       2       1       1       2       1       1       2       1       1
       2       1       1       2       1       1       2       1       1       2
       1       1       2       1       1       2       1       1       2       1
       1       2       1       1       2       1       1       2       1       1
       2       1       1       2       1       1       2       1       1       2
       1       1       2       1       1       2       1       1       2       1
       1       2       1       1       2       1       1       2       1       1
       2       1       1       2       1       1       2       1       1       2
       1       1       2       1       1       2       1       1       2       1
       1       2       1       1       2       1       1       2       1       1
       2       1       1       2       1       1       2       1       1       2
       1       1       2       1       1       2       1       1       2       1
       1       2       1       1       2       1       1       2       1       1
       2       1       1       2       1       1       2       1       1       2
       1       1       2       1       1       2       1       1       2       1
       1       2       1       1       2       1       1       2       1       1
       2       1       1       2       1       1       2       1       1       2
       1       1       2       1       1       2       1       1       2       1
       1       2       1       1       2       1       1       2       1       1
       2       1       1       2       1       1       2       1       1       2
       1       1       2       1       1       2       1       1       2       1
       1       2       1       1       2       1       1       2       1       1
       2       1       1       2       1       1       2       1       1       2
       1       1       2       1       1       2       1       1       2       1
       1       2       1       1       2       1       1       2       1       1
       2       1       1       2       1       1       2       1       1       2
       1       1       2       1       1       2       1       1       2       1
       1       2       1       1       2       1       1       2       1       1
       2       1       1       2       1       1       2       1       1       2
       1       1       2       1       1       2       1       1       2       1
       1       2       1       1       2       1       1       2       1       1
       2       1       1       2       1       1       2       1       1       2
       1       1       2       1       1       2       1       1       2       1
       1       2       1       1       2       1       1       2       1       1
       2       1       1       2       1       1       2       1       1       2
       1       1       2       1       1       2       1       1       2       1
       1       2       1       1       2       1       1       2       1       1
       2       1       1       2       1       1       2       1       1       2
       1       1       2       1       1       2       1       1       2       1
       1       2       1       1       2       1       1       2       1       1
       2       1       1       2       1       1       2       1       1       2
       1       1       2       1       1       2       1       1       2       1
       1       2       1       1       2       1       1       2       1       1
       2       1       1       2       1       1       2       1       1       2
       1       1       2       1       1       2       1       1       2       1
       1       2       1       1       2       1       1       2       1       1
       2       1       1       2       1       1       2       1       1       2
       1       1       2       1       1       2       1       1       2       1
       1       2       1       1       2       1       1       2       1       1
       2       1       1       2       1       1       2       1       1       2
       1       1       2       1       1       2       1       1       2       1
       1       2       1       1       2       1       1       2       1       1
       2       1       1       2       1       1       2       1       1       2
       1       1       2       1       1       2       1       1       2       1
       1       2       1       1       2       1       1       2       1       1
       2       1       1       2       1       1       2       1       1       2
       1       1       2       1       1       2       1       1       2       1
       1       2       1       1       2       1       1       2       1       1
       2       1       1       2       1       1       2       1       1       2
       1       1       2       1       1       2       1       1       2       1
       1       2       1       1       2       1       1       2       1       1
       2       1       1       2       1       1       2       1       1       2
       1       1       2       1       1       2       1       1       2       1
       1       2       1       1       2       1       1       2       1       1
       2       1       1       2       1       1       2       1       1       2
       1       1       2       1       1       2       1       1       2       1
       1       2       1       1       2       1       1       2       1       1
       2       1       1       2       1       1       2       1       1       2
       1       1       2       1       1       2       1       1       2       1
       1       2       1       1       2       1       1       2       1       1
       2       1       1       2       1       1       2       1       1       2
       1       1       2       1       1       2       1       1       2       1
       1       2       1       1       2       1       1       2       1       1
       2       1       1       2       1       1       2       1       1       2
       1       1       2       1       1       2       1       1       2       1
       1       2       1       1       2       1       1       2       1       1
       2       1       1       2       1       1       2       1       1       2
       1       1       2       1       1       2       1       1       2       1
       1       2       1       1       2       1       1       2       1       1
       2       1       1       2       1       1       2       1       1       2
       1       1       2       1       1       2       1       1       2       1
       1       2       1       1       2       1       1       2       1       1
       2       1       1       2       1       1       2       1       1       2
       1       1       2       1       1       2       1       1       2       1
       1       2       1       1       2       1       1       2       1       1
       2       1       1       2       1       1       2       1       1       2
       1       1       2       1       1       2       1       1       2       1
       1       2       1       1       2       1       1       2       1       1
       2       1       1       2       1       1       2       1       1       2
       1       1       2       1       1       2       1       1       2       1
       1       2       1       1       2       1       1       2       1       1
       2       1       1       2       1       1       2       1       1       2
       1       1       2       1       1       2       1       1       2       1
       1       2       1       1       2       1       1       2       1       1
       2       1       1       2       1       1       2       1       1       2
       1       1       2       1       1       2       1       1       2       1
       1       2       1       1       2       1       1       2       1       1
       2       1       1       2       1       1       2       1       1       2
       1       1       2       1       1       2       1       1       2       1
       1       2       1       1       2       1       1       2       1       1
       2       1       1       2       1       1       2       1       1       2
       1       1       2       1       1       2       1       1       2       1
       1       2       1       1       2       1       1       2       1       1
       2       1       1       2       1       1       2       1       1       2
       1       1       2       1       1       2       1       1       2       1
       1       2       1       1       2       1       1       2       1       1
       2       1       1       2       1       1       2       1       1       2
       1       1       2       1       1       2       1       1       2       1
       1       2       1       1       2       1       1       2       1       1
       2       1       1       2       1       1       2       1       1       2
       1       1       2       1       1       2       1       1       2       1
       1       2       1       1       2       1       1       2       1       1
       2       1       1       2       1       1       2       1       1       2
       1       1       2       1       1       2       1       1       2       1
       1       2       1       1       2       1       1       2       1       1
       2       1       1       2       1       1       2       1       1       2
       1       1       2       1       1       2       1       1       2       1
       1       2       1       1       2       1       1       2       1       1
       2       1       1       2       1       1       2       1       1       2
       1       1       2       1       1       2       1       1       2       1
       1       2       1       1       2       1       1       2       1       1
       2       1       1       2       1       1       2       1       1       2
       1       1       2       1       1       2       1       1       2       1
       1       2       1       1       2       1       1       2       1       1
       2       1       1       2       1       1       2       1       1       2
       1       1       2       1       1       2       1       1       2       1
       1       2       1       1       2       1       1       2       1       1
       2       1       1       2       1       1       2       1       1       2
       1       1       2       1       1       2       1       1       2       1
       1       2       1       1       2       1       1       2       1       1
       2       1       1       2       1       1       2       1       1       2
       1       1       2       1       1       2       1       1       2       1
       1       2       1       1       2       1       1       2       1       1
       2       1       1       2       1       1       2       1       1       2
       1       1       2       1       1       2       1       1       2       1
       1       2       1       1       2       1       1       2       1       1
       2       1       1       2       1       1       2       1       1       2
       1       1       2       1       1       2       1       1       2       1
       1       2       1       1       2       1       1       2       1       1
       2       1       1       2       1       1       2       1       1       2
       1       1       2       1       1       2       1       1       2       1
       1       2       1       1       2       1       1       2       1       1
       2       1       1       2       1       1       2       1       1       2
       1       1       2       1       1       2       1       1       2       1
       1       2       1       1       2       1       1       2       1       1
       2       1       1       2       1       1       2       1       1       2
       1       1       2       1       1       2       1       1       2       1
       1       2       1       1       2       1       1       2       1       1
       2       1       1       2       1       1       2       1       1       2
       1       1       2       1       1       2       1       1       2       1
       1       2       1       1       2       1       1       2       1       1
       2       1       1       2       1       1       2       1       1       2
       1       1       2       1       1       2       1       1       2       1
       1       2       1       1       2       1       1       2       1       1
       2       1       1       2       1       1       2       1       1       2
       1       1       2       1       1       2       1       1       2       1
       1       2       1       1       2       1       1       2       1       1
       2       1       1       2       1       1       2       1       1       2
       1       1       2       1       1       2       1       1       2       1
       1       2       1       1       2       1       1       2       1       1
       2       1       1       2       1       1       2       1       1       2
       1       1       2       1       1       2       1       1       2       1
       1       2       1       1       2       1       1       2       1       1
       2       1       1       2       1       1       2       1       1       2
       1       1       2       1       1       2       1       1       2       1
       1       2       1       1       2       1       1       2       1       1
       2       1       1       2       1       1       2       1       1       2
       1       1       2       1       1       2       1       1       2       1
       1       2       1       1       2       1       1       2       1       1
       2       1       1       2       1       1       2       1       1       2
       1       1       2       1       1       2       1       1       2       1
       1       2       1       1       2       1       1       2       1       1
       2       1       1       2       1       1       2       1       1       2
       1       1       2       1       1       2       1       1       2       1
       1       2       1       1       2       1       1       2       1       1
       2       1       1       2       1       1       2       1       1       2
       1       1       2       1       1       2       1       1       2       1
       1       2       1       1       2       1       1       2       1       1
       2       1       1       2       1       1       2       1       1       2
       1       1       2       1       1       2       1       1       2       1
       1       2       1       1       2       1       1       2       1       1
       2       1       1       2       1       1       2       1       1       2
       1       1       2       1       1       2       1       1       2       1
       1       2       1       1       2       1       1       2       1       1
       2       1       1       2       1       1       2       1       1       2
       1       1       2       1       1       2       1       1       2       1
       1       2       1       1       2       1       1       2       1       1
       2       1       1       2       1       1       2       1       1       2
       1       1       2       1       1       2       1       1       2       1
       1       2       1       1       2       1       1       2       1       1
       2       1       1       2       1       1       2       1       1       2
       1       1       2       1       1       2       1       1       2       1
       1       2       1       1       2       1       1       2       1       1
       2       1       1       2       1       1       2       1       1       2
       1       1       2       1       1       2       1       1       2       1
       1       2       1       1       2       1       1       2       1       1
       2       1       1       2       1       1       2       1       1       2
       1       1       2       1       1       2       1       1       2       1
       1       2       1       1       2       1       1       2       1       1
       2       1       1       2       1       1       2       1       1       2
       1       1       2       1       1       2       1       1       2       1
       1       2       1       1       2       1       1       2       1       1
       2       1       1       2       1       1       2       1       1       2
       1       1       2       1       1       2       1       1       2       1
       1       2       1       1       2       1       1       2       1       1
       2       1       1       2       1       1       2       1       1       2
       1       1       2       1       1       2       1       1       2       1
       1       2       1       1       2       1       1       2       1       1
       2       1       1       2       1       1       2       1       1       2
       1       1       2       1       1       2       1       1       2       1
       1       2       1       1       2       1       1       2       1       1
       2       1       1       2       1       1       2       1       1       2
       1       1       2       1       1       2       1       1       2       1
       1       2       1       1       2       1       1       2       1       1
       2       1       1       2       1       1       2       1       1       2
       1       1       2       1       1       2       1       1       2       1
       1       2       1       1       2       1       1       2       1       1
       2       1       1       2       1       1       2       1       1       2
       1       1       2       1       1       2       1       1       2       1
       1       2       1       1       2       1       1       2       1       1
       2       1       1       2       1       1       2       1       1       2
       1       1       2       1       1       2       1       1       2       1
       1       2       1       1       2       1       1       2       1       1
       2       1       1       2       1       1       2       1       1       2
       1       1       2       1       1       2       1       1       2       1
       1       2       1       1       2       1       1       2       1       1
       2       1       1       2       1       1       2       1       1       2
       1       1       2       1       1       2       1       1       2       1
       1       2       1       1       2       1       1       2       1       1
       2       1       1       2       1       1       2       1       1       2
       1       1       2       1       1       2       1       1       2       1
       1       2       1       1       2       1       1       2       1       1
       2       1       1       2       1       1       2       1       1       2
       1       1       2       1       1       2       1       1       2       1
       1       2       1       1       2       1       1       2       1       1
       2       1       1       2       1       1       2       1       1       2
       1       1       2       1       1       2       1       1       2       1
       1       2       1       1       2       1       1       2       1       1
       2       1       1       2       1       1       2       1       1       2
       1       1       2       1       1       2       1       1       2       1
       1       2       1       1       2       1       1       2       1       1
       2       1       1       2       1       1       2       1       1       2
       1       1       2       1       1       2       1       1       2       1
       1       2       1       1       2       1       1       2       1       1
       2       1       1       2       1       1       2       1       1       2
       1       1       2       1       1       2       1       1       2       1
       1       2       1       1       2       1       1       2       1       1
       2       1       1       2       1       1       2       1       1       2
       1       1       2       1       1       2       1       1       2       1
       1       2       1       1       2       1       1       2       1       1
       2       1       1       2       1       1       2       1       1       2
       1       1       2       1       1       2       1       1       2       1
       1       2       1       1       2       1       1       2       1       1
       2       1       1       2       1       1       2       1       1       2
       1       1       2       1       1       2       1       1       2       1
       1       2       1       1       2       1       1       2       1       1
       2       1       1       2       1       1       2       1       1       2
       1       1       2       1       1       2       1       1       2       1
       1       2       1       1       2       1       1       2       1       1
       2       1       1       2       1       1       2       1       1       2
       1       1       2       1       1       2       1       1       2       1
       1       2       1       1       2       1       1       2       1       1
       2       1       1       2       1       1       2       1       1       2
       1       1       2       1       1       2       1       1       2       1
       1       2       1       1       2       1       1       2       1       1
       2       1       1       2       1       1       2       1       1       2
       1       1       2       1       1       2       1       1       2       1
       1       2       1       1       2       1       1       2       1       1
       2       1       1       2       1       1       2       1       1       2
       1       1       2       1       1       2       1       1       2       1
       1       2       1       1       2       1       1       2       1       1
       2       1       1       2       1       1       2       1       1       2
       1       1       2       1       1       2       1       1       2       1
       1       2       1       1       2       1       1       2       1       1
       2       1       1       2       1       1       2       1       1       2
       1       1       2       1       1       2       1       1       2       1
       1       2       1       1       2       1       1       2       1       1
       2       1       1       2       1       1       2       1       1       2
       1       1       2       1       1       2       1       1       2       1
       1       2       1       1       2       1       1       2       1       1
       2       1       1       2       1       1       2       1       1       2
       1       1       2       1       1       2       1       1       2       1
       1       2       1       1       2       1       1       2       1       1
       2       1       1       2       1       1       2       1       1       2
       1       1       2       1       1       2       1       1       2       1
       1       2       1       1       2       1       1       2       1       1
       2       1       1       2       1       1       2       1       1       2
       1       1       2       1       1       2       1       1       2       1
       1       2       1       1       2       1       1       2       1       1
       2       1       1       2       1       1       2       1       1       2
       1       1       2       1       1       2       1       1       2       1
       1       2       1       1       2       1       1       2       1       1
       2       1       1       2       1       1       2       1       1       2
       1       1       2       1       1       2       1       1       2       1
       1       2       1       1       2       1       1       2       1       1
       2       1       1       2       1       1       2       1       1       2
       1       1       2       1       1       2       1       1       2       1
       1       2       1       1       2       1       1       2       1       1
       2       1       1       2       1       1       2       1       1       2
       1       1       2       1       1       2       1       1       2       1
       1       2       1       1       2       1       1       2       1       1
       2       1       1       2       1       1       2       1       1       2
       1       1       2       1       1       2       1       1       2       1
       1       2       1       1       2       1       1       2       1       1
       2       1       1       2       1       1       2       1       1       2
       1       1       2       1       1       2       1       1       2       1
       1       2       1       1       2       1       1       2       1       1
       2       1       1       2       1       1       2       1       1       2
       1       1       2       1       1       2       1       1       2       1
       1       2       1       1       2       1       1       2       1       1
       2       1       1       2       1       1       2       1       1       2
       1       1       2       1       1       2       1       1       2       1
       1       2       1       1       2       1       1       2       1       1
       2       1       1       2       1       1       2       1       1       2
       1       1       2       1       1       2       1       1       2       1
       1       2       1       1       2       1       1       2       1       1
       2       1       1       2       1       1       2       1       1       2
       1       1       2       1       1       2       1       1       2       1
       1       2       1       1       2       1       1       2       1       1
       2       1       1       2       1       1       2       1       1       2
       1       1       2       1       1       2       1       1       2       1
       1       2       1       1       2       1       1       2       1       1
       2       1       1       2       1       1       2       1       1       2
       1       1       2       1       1       2       1       1       2       1
       1       2       1       1       2       1       1       2       1       1
       2       1       1       2       1       1       2       1       1       2
       1       1       2       1       1       2       1       1       2       1
       1       2       1       1       2       1       1       2       1       1
       2       1       1       2       1       1       2       1       1       2
       1       1       2       1       1       2       1       1       2       1
       1       2       1       1       2       1       1       2       1       1
       2       1       1       2       1       1       2       1       1       2
       1       1       2       1       1       2       1       1       2       1
       1       2       1       1       2       1       1       2       1       1
       2       1       1       2       1       1       2       1       1       2
       1       1       2       1       1       2       1       1       2       1
       1       2       1       1       2       1       1       2       1       1
       2       1       1       2       1       1       2       1       1       2
       1       1       2       1       1       2       1       1       2       1
       1       2       1       1       2       1       1       2       1       1
       2       1       1       2       1       1       2       1       1       2
       1       1       2       1       1       2       1       1       2       1
       1       2       1       1       2       1       1       2       1       1
       2       1       1       2       1       1       2       1       1       2
       1       1       2       1       1       2       1       1       2       1
       1       2       1       1       2       1       1       2       1       1
       2       1       1       2       1       1       2       1       1       2
       1       1       2       1       1       2       1       1       2       1
       1       2       1       1       2       1       1       2       1       1
       2       1       1       2       1       1       2       1       1       2
       1       1       2       1       1       2       1       1       2       1
       1       2       1       1       2       1       1       2       1       1
       2       1       1       2       1       1       2       1       1       2
       1       1       2       1       1       2       1       1       2       1
       1       2       1       1       2       1       1       2       1       1
       2       1       1       2       1       1       2       1       1       2
       1       1       2       1       1       2       1       1       2       1
       1       2       1       1       2       1       1       2       1       1
       2       1       1       2       1       1       2       1       1       2
       1       1       2       1       1       2       1       1       2       1
       1       2       1       1       2       1       1       2       1       1
       2       1       1       2       1       1       2       1       1       2
       1       1       2       1       1       2       1       1       2       1
       1       2       1       1       2       1       1       2       1       1
       2       1       1       2       1       1       2       1       1       2
       1       1       2       1       1       2       1       1       2       1
       1       2       1       1       2       1       1       2       1       1
       2       1       1       2       1       1       2       1       1       2
       1       1       2       1       1       2       1       1       2       1
       1       2       1       1       2       1       1       2       1       1
       2       1       1       2       1       1       2       1       1       2
       1       1       2       1       1       2       1       1       2       1
       1       2       1       1       2       1       1       2       1       1
       2       1       1       2       1       1       2       1       1       2
       1       1       2       1       1       2       1       1       2       1
       1       2       1       1       2       1       1       2       1       1
       2       1       1       2       1       1       2       1       1       2
       1       1       2       1       1       2       1       1       2       1
       1       2       1       1       2       1       1       2       1       1
       2       1       1       2       1       1       2       1       1       2
       1       1       2       1       1       2       1       1       2       1
       1       2       1       1       2       1       1       2       1       1
       2       1       1       2       1       1       2       1       1       2
       1       1       2       1       1       2       1       1       2       1
       1       2       1       1       2       1       1       2       1       1
       2       1       1       2       1       1       2       1       1       2
       1       1       2       1       1       2       1       1       2       1
       1       2       1       1       2       1       1       2       1       1
       2       1       1       2       1       1       2       1       1       2
       1       1       2       1       1       2       1       1       2       1
       1       2       1       1       2       1       1       2       1       1
       2       1       1       2       1       1       2       1       1       2
       1       1       2       1       1       2       1       1       2       1
       1       2       1       1       2       1       1       2       1       1
       2       1       1       2       1       1       2       1       1       2
       1       1       2       1       1       2       1       1       2       1
       1       2       1       1       2       1       1       2       1       1
       2       1       1       2       1       1       2       1       1       2
       1       1       2       1       1       2       1       1       2       1
       1       2       1       1       2       1       1       2       1       1
       2       1       1       2       1       1       2       1       1       2
       1       1       2       1       1       2       1       1       2       1
       1       2       1       1       2       1       1       2       1       1
       2       1       1       2       1       1       2       1       1       2
       1       1       2       1       1       2       1       1       2       1
       1       2       1       1       2       1       1       2       1       1
       2       1       1       2       1       1       2       1       1       2
       1       1       2       1       1       2       1       1       2       1
       1       2       1       1       2       1       1       2       1       1
       2       1       1       2       1       1       2       1       1       2
       1       1       2       1       1       2       1       1       2       1
       1       2       1       1       2       1       1       2       1       1
       2       1       1       2       1       1       2       1       1       2
       1       1       2       1       1       2       1       1       2       1
       1       2       1       1       2       1       1       2       1       1
       2       1       1       2       1       1       2       1       1       2
       1       1       2       1       1       2       1       1       2       1
       1       2       1       1       2       1       1       2       1       1
       2       1       1       2       1       1       2       1       1       2
       1       1       2       1       1       2       1       1       2       1
       1       2       1       1       2       1       1       2       1       1
       2       1       1       2       1       1       2       1       1       2
       1       1       2       1       1       2       1       1       2       1
       1       2       1       1       2       1       1       2       1       1
       2       1       1       2       1       1       2       1       1       2
       1       1       2       1       1       2       1       1       2       1
       1       2       1       1       2       1       1       2       1       1
       2       1       1       2       1       1       2       1       1       2
       1       1       2       1       1       2       1       1       2       1
       1       2       1       1       2       1       1       2       1       1
       2       1       1       2       1       1       2       1       1       2
       1       1       2       1       1       2       1       1       2       1
       1       2       1       1       2       1       1       2       1       1
       2       1       1       2       1       1       2       1       1       2
       1       1       2       1       1       2       1       1       2       1
       1       2       1       1       2       1       1       2       1       1
       2       1       1       2       1       1       2       1       1       2
       1       1       2       1       1       2       1       1       2       1
       1       2       1       1       2       1       1       2       1       1
       2       1       1       2       1       1       2       1       1       2
       1       1       2       1       1       2       1       1       2       1
       1       2       1       1       2       1       1       2       1       1
       2       1       1       2       1       1       2       1       1       2
       1       1       2       1       1       2       1       1       2       1
       1       2       1       1       2       1       1       2       1       1
       2       1       1       2       1       1       2       1       1       2
       1       1       2       1       1       2       1       1       2       1
       1       2       1       1       2       1       1       2       1       1
       2       1       1       2       1       1       2       1       1       2
       1       1       2       1       1       2       1       1       2       1
       1       2       1       1       2       1       1       2       1       1
       2       1       1       2       1       1       2       1       1       2
       1       1       2       1       1       2       1       1       2       1
       1       2       1       1       2       1       1       2       1       1
       2       1       1       2       1       1       2       1       1       2
       1       1       2       1       1       2       1       1       2       1
       1       2       1       1       2       1       1       2       1       1
       2       1       1       2       1       1       2       1       1       2
       1       1       2       1       1       2       1       1       2       1
       1       2       1       1       2       1       1       2       1       1
       2       1       1       2       1       1       2       1       1       2
       1       1       2       1       1       2       1       1       2       1
       1       2       1       1       2       1       1       2       1       1
       2       1       1       2       1       1       2       1       1       2
       1       1       2       1       1       2       1       1       2       1
       1       2       1       1       2       1       1       2       1       1
       2       1       1       2       1       1       2       1       1       2
       1       1       2       1       1       2       1       1       2       1
       1       2       1       1       2       1       1       2       1       1
       2       1       1       2       1       1       2       1       1       2
       1       1       2       1       1       2       1       1       2       1
       1       2       1       1       2       1       1       2       1       1
       2       1       1       2       1       1       2       1       1       2
       1       1       2       1       1       2       1       1       2       1
       1       2       1       1       2       1       1       2       1       1
       2       1       1       2       1       1       2       1       1       2
       1       1       2       1       1       2       1       1       2       1
       1       2       1       1       2       1       1       2       1       1
       2       1       1       2       1       1       2       1       1       2
       1       1       2       1       1       2       1       1       2       1
       1       2       1       1       2       1       1       2       1       1
       2       1       1       2       1       1       2       1       1       2
       1       1       2       1       1       2       1       1       2       1
       1       2       1       1       2       1       1       2       1       1
       2       1       1       2       1       1       2       1       1       2
       1       1       2       1       1       2       1       1       2       1
       1       2       1       1       2       1       1       2       1       1
       2       1       1       2       1       1       2       1       1       2
       1       1       2       1       1       2       1       1       2       1
       1       2       1       1       2       1       1       2       1       1
       2       1       1       2       1       1       2       1       1       2
       1       1       2       1       1       2       1       1       2       1
       1       2       1       1       2       1       1       2       1       1
       2       1       1       2       1       1       2       1       1       2
       1       1       2       1       1       2       1       1       2       1
       1       2       1       1       2       1       1       2       1       1
       2       1       1       2       1       1       2       1       1       2
       1       1       2       1       1       2       1       1       2       1
       1       2       1       1       2       1       1       2       1       1
       2       1       1       2       1       1       2       1       1       2
       1       1       2       1       1       2       1       1       2       1
       1       2       1       1       2       1       1       2       1       1
       2       1       1       2       1       1       2       1       1       2
       1       1       2       1       1       2       1       1       2       1
       1       2       1       1       2       1       1       2       1       1
       2       1       1       2       1       1       2       1       1       2
       1       1       2       1       1       2       1       1       2       1
       1       2       1       1       2       1       1       2       1       1
       2       1       1       2       1       1       2       1       1       2
       1       1       2       1       1       2       1       1       2       1
       1       2       1       1       2       1       1       2       1       1
       2       1       1       2       1       1       2       1       1       2
       1       1       2       1       1       2       1       1       2       1
       1       2       1       1       2       1       1       2       1       1
       2       1       1       2       1       1       2       1       1       2
       1       1       2       1       1       2       1       1       2       1
       1       2       1       1       2       1       1       2       1       1
       2       1       1       2       1       1       2       1       1       2
       1       1       2       1       1       2       1       1       2       1
       1       2       1       1       2       1       1       2       1       1
       2       1       1       2       1       1       2       1       1       2
       1       1       2       1       1       2       1       1       2       1
       1       2       1       1       2       1       1       2       1       1
       2       1       1       2       1       1       2       1       1       2
       1       1       2       1       1       2       1       1       2       1
       1       2       1       1       2       1       1       2       1       1
       2       1       1       2       1       1       2       1       1       2
       1       1       2       1       1       2       1       1       2       1
       1       2       1       1       2       1       1       2       1       1
       2       1       1       2       1       1       2       1       1       2
       1       1       2       1       1       2       1       1       2       1
       1       2       1       1       2       1       1       2       1       1
       2       1       1       2       1       1       2       1       1       2
       1       1       2       1       1       2       1       1       2       1
       1       2       1       1       2       1       1       2       1       1
       2       1       1       2       1       1       2       1       1       2
       1       1       2       1       1       2       1       1       2       1
       1       2       1       1       2       1       1       2       1       1
       2       1       1       2       1       1       2       1       1       2
       1       1       2       1       1       2       1       1       2       1
       1       2       1       1       2       1       1       2       1       1
       2       1       1       2       1       1       2       1       1       2
       1       1       2       1       1       2       1       1       2       1
       1       2       1       1       2       1       1       2       1       1
       2       1       1       2       1       1       2       1       1       2
       1       1       2       1       1       2       1       1       2       1
       1       2       1       1       2       1       1       2       1       1
       2       1       1       2       1       1       2       1       1       2
       1       1       2       1       1       2       1       1       2       1
       1       2       1       1       2       1       1       2       1       1
       2       1       1       2       1       1       2       1       1       2
       1       1       2       1       1       2       1       1       2       1
       1       2       1       1       2       1       1       2       1       1
       2       1       1       2       1       1       2       1       1       2
       1       1       2       1       1       2       1       1       2       1
       1       2       1       1       2       1       1       2       1       1
       2       1       1       2       1       1       2       1       1       2
       1       1       2       1       1       2       1       1       2       1
       1       2       1       1       2       1       1       2       1       1
       2       1       1       2       1       1       2       1       1       2
       1       1       2       1       1       2       1       1       2       1
       1       2       1       1       2       1       1       2       1       1
       2       1       1       2       1       1       2       1       1       2
       1       1       2       1       1       2       1       1       2       1
       1       2       1       1       2       1       1       2       1       1
       2       1       1       2       1       1       2       1       1       2
       1       1       2       1       1       2       1       1       2       1
       1       2       1       1       2       1       1       2       1       1
       2       1       1       2       1       1       2       1       1       2
       1       1       2       1       1       2       1       1       2       1
       1       2       1       1       2       1       1       2       1       1
       2       1       1       2       1       1       2       1       1       2
       1       1       2       1       1       2       1       1       2       1
       1       2       1       1       2       1       1       2       1       1
       2       1       1       2       1       1       2       1       1       2
       1       1       2       1       1       2       1       1       2       1
       1       2       1       1       2       1       1       2       1       1
       2       1       1       2       1       1       2       1       1       2
       1       1       2       1       1       2       1       1       2       1
       1       2       1       1       2       1       1       2       1       1
       2       1       1       2       1       1       2       1       1       2
       1       1       2       1       1       2       1       1       2       1
       1       2       1       1       2       1       1       2       1       1
       2       1       1       2       1       1       2       1       1       2
       1       1       2       1       1       2       1       1       2       1
       1       2       1       1       2       1       1       2       1       1
       2       1       1       2       1       1       2       1       1       2
       1       1       2       1       1       2       1       1       2       1
       1       2       1       1       2       1       1       2       1       1
       2       1       1       2       1       1       2       1       1       2
       1       1       2       1       1       2       1       1       2       1
       1       2       1       1       2       1       1       2       1       1
       2       1       1       2       1       1       2       1       1       2
       1       1       2       1       1       2       1       1       2       1
       1       2       1       1       2       1       1       2       1       1
       2       1       1       2       1       1       2       1       1       2
       1       1       2       1       1       2       1       1       2       1
       1       2       1       1       2       1       1       2       1       1
       2       1       1       2       1       1       2       1       1       2
       1       1       2       1       1       2       1       1       2       1
       1       2       1       1       2       1       1       2       1       1
       2       1       1       2       1       1       2       1       1       2
       1       1       2       1       1       2       1       1       2       1
       1       2       1       1       2       1       1       2       1       1
       2       1       1       2       1       1       2       1       1       2
       1       1       2       1       1       2       1       1       2       1
       1       2       1       1       2       1       1       2       1       1
       2       1       1       2       1       1       2       1       1       2
       1       1       2       1       1       2       1       1       2       1
       1       2       1       1       2       1       1       2       1       1
       2       1       1       2       1       1       2       1       1       2
       1       1       2       1       1       2       1       1       2       1
       1       2       1       1       2       1       1       2       1       1
       2       1       1       2       1       1       2       1       1       2
       1       1       2       1       1       2       1       1       2       1
       1       2       1       1       2       1       1       2       1       1
       2       1       1       2       1       1       2       1       1       2
       1       1       2       1       1       2       1       1       2       1
       1       2       1       1       2       1       1       2       1       1
       2       1       1       2       1       1       2       1       1       2
       1       1       2       1       1       2       1       1       2       1
       1       2       1       1       2       1       1       2       1       1
       2       1       1       2       1       1       2       1       1       2
       1       1       2       1       1       2       1       1       2       1
       1       2       1       1       2       1       1       2       1       1
       2       1       1       2       1       1       2       1       1       2
       1       1       2       1       1       2       1       1       2       1
       1       2       1       1       2       1       1       2       1       1
       2       1       1       2       1       1       2       1       1       2
       1       1       2       1       1       2       1       1       2       1
       1       2       1       1       2       1       1       2       1       1
       2       1       1       2       1       1       2       1       1       2
       1       1       2       1       1       2       1       1       2       1
       1       2       1       1       2       1       1       2       1       1
       2       1       1       2       1       1       2       1       1       2
       1       1       2       1       1       2       1       1       2       1
       1       2       1       1       2       1       1       2       1       1
       2       1       1       2       1       1       2       1       1       2
       1       1       2       1       1       2       1       1       2       1
       1       2       1       1       2       1       1       2       1       1
       2       1       1       2       1       1       2       1       1       2
       1       1       2       1       1       2       1       1       2       1
       1       2       1       1       2       1       1       2       1       1
       2       1       1       2       1       1       2       1       1       2
       1       1       2       1       1       2       1       1       2       1
       1       2       1       1       2       1       1       2       1       1
       2       1       1       2       1       1       2       1       1       2
       1       1       2       1       1       2       1       1       2       1
       1       2       1       1       2       1       1       2       1       1
       2       1       1       2       1       1       2       1       1       2
       1       1       2       1       1       2       1       1       2       1
       1       2       1       1       2       1       1       2       1       1
       2       1       1       2       1       1       2       1       1       2
       1       1       2       1       1       2       1       1       2       1
       1       2       1       1       2       1       1       2       1       1
       2       1       1       2       1       1       2       1       1       2
       1       1       2       1       1       2       1       1       2       1
       1       2       1       1       2       1       1       2       1       1
       2       1       1       2       1       1       2       1       1       2
       1       1       2       1       1       2       1       1       2       1
       1       2       1       1       2       1       1       2       1       1
       2       1       1       2       1       1       2       1       1       2
       1       1       2       1       1       2       1       1       2       1
       1       2       1       1       2       1       1       2       1       1
       2       1       1       2       1       1       2       1       1       2
       1       1       2       1       1       2       1       1       2       1
       1       2       1       1       2       1       1       2       1       1
       2       1       1       2       1       1       2       1       1       2
       1       1       2       1       1       2       1       1       2       1
       1       2       1       1       2       1       1       2       1       1
       2       1       1       2       1       1       2       1       1       2
       1       1       2       1       1       2       1       1       2       1
       1       2       1       1       2       1       1       2       1       1
       2       1       1       2       1       1       2       1       1       2
       1       1       2       1       1       2       1       1       2       1
       1       2       1       1       2       1       1       2       1       1
       2       1       1       2       1       1       2       1       1       2
       1       1       2       1       1       2       1       1       2       1
       1       2       1       1       2       1       1       2       1       1
       2       1       1       2       1       1       2       1       1       2
       1       1       2       1       1       2       1       1       2       1
       1       2       1       1       2       1       1       2       1       1
       2       1       1       2       1       1       2       1       1       2
       1       1       2       1       1       2       1       1       2       1
       1       2       1       1       2       1       1       2       1       1
       2       1       1       2       1       1       2       1       1       2
       1       1       2       1       1       2       1       1       2       1
       1       2       1       1       2       1       1       2       1       1
       2       1       1       2       1       1       2       1       1       2
       1       1       2       1       1       2       1       1       2       1
       1       2       1       1       2       1       1       2       1       1
       2       1       1       2       1       1       2       1       1       2
       1       1       2       1       1       2       1       1       2       1
       1       2       1       1       2       1       1       2       1       1
       2       1       1       2       1       1       2       1       1       2
       1       1       2       1       1       2       1       1       2       1
       1       2       1       1       2       1       1       2       1       1
       2       1       1       2       1       1       2       1       1       2
       1       1       2       1       1       2       1       1       2       1
       1       2       1       1       2       1       1       2       1       1
       2       1       1       2       1       1       2       1       1       2
       1       1       2       1       1       2       1       1       2       1
       1       2       1       1       2       1       1       2       1       1
       2       1       1       2       1       1       2       1       1       2
       1       1       2       1       1       2       1       1       2       1
       1       2       1       1       2       1       1       2       1       1
       2       1       1       2       1       1       2       1       1       2
       1       1       2       1       1       2       1       1       2       1
       1       2       1       1       2       1       1       2       1       1
       2       1       1       2       1       1       2       1       1       2
       1       1       2       1       1       2       1       1       2       1
       1       2       1       1       2       1       1       2       1       1
       2       1       1       2       1       1       2       1       1       2
       1       1       2       1       1       2       1       1       2       1
       1       2       1       1       2       1       1       2       1       1
       2       1       1       2       1       1       2       1       1       2
       1       1       2       1       1       2       1       1       2       1
       1       2       1       1       2       1       1       2       1       1
       2       1       1       2       1       1       2       1       1       2
       1       1       2       1       1       2       1       1       2       1
       1       2       1       1       2       1       1       2       1       1
       2       1       1       2       1       1       2       1       1       2
       1       1       2       1       1       2       1       1       2       1
       1       2       1       1       2       1       1       2       1       1
       2       1       1       2       1       1       2       1       1       2
       1       1       2       1       1       2       1       1       2       1
       1       2       1       1       2       1       1       2       1       1
       2       1       1       2       1       1       2       1       1       2
       1       1       2       1       1       2       1       1       2       1
       1       2       1       1       2       1       1       2       1       1
       2       1       1       2       1       1       2       1       1       2
       1       1       2       1       1       2       1       1       2       1
       1       2       1       1       2       1       1       2       1       1
       2       1       1       2       1       1       2       1       1       2
       1       1       2       1       1       2       1       1       2       1
       1       2       1       1       2       1       1       2       1       1
       2       1       1       2       1       1       2       1       1       2
       1       1       2       1       1       2       1       1       2       1
       1       2       1       1       2       1       1       2       1       1
       2       1       1       2       1       1       2       1       1       2
       1       1       2       1       1       2       1       1       2       1
       1       2       1       1       2       1       1       2       1       1
       2       1       1       2       1       1       2       1       1       2
       1       1       2       1       1       2       1       1       2       1
       1       2       1       1       2       1       1       2       1       1
       2       1       1       2       1       1       2       1       1       2
       1       1       2       1       1       2       1       1       2       1
       1       2       1       1       2       1       1       2       1       1
       2       1       1       2       1       1       2       1       1       2
       1       1       2       1       1       2       1       1       2       1
       1       2       1       1       2       1       1       2       1       1
       2       1       1       2       1       1       2       1       1       2
       1       1       2       1       1       2       1       1       2       1
       1       2       1       1       2       1       1       2       1       1
       2       1       1       2       1       1       2       1       1       2
       1       1       2       1       1       2       1       1       2       1
       1       2       1       1       2       1       1       2       1       1
       2       1       1       2       1       1       2       1       1       2
       1       1       2       1       1       2       1       1       2       1
       1       2       1       1       2       1       1       2       1       1
       2       1       1       2       1       1       2       1       1       2
       1       1       2       1       1       2       1       1       2       1
       1       2       1       1       2       1       1       2       1       1
       2       1       1       2       1       1       2       1       1       2
       1       1       2       1       1       2       1       1       2       1
       1       2       1       1       2       1       1       2       1       1
       2       1       1       2       1       1       2       1       1       2
       1       1       2       1       1       2       1       1       2       1
       1       2       1       1       2       1       1       2       1       1
       2       1       1       2       1       1       2       1       1       2
       1       1       2       1       1       2       1       1       2       1
       1       2       1       1       2       1       1       2       1       1
       2       1       1       2       1       1       2       1       1       2
       1       1       2       1       1       2       1       1       2       1
       1       2       1       1       2       1       1       2       1       1
       2       1       1       2       1       1       2       1       1       2
       1       1       2       1       1       2       1       1       2       1
       1       2       1       1       2       1       1       2       1       1
       2       1       1       2       1       1       2       1       1       2
       1       1       2       1       1       2       1       1       2       1
       1       2       1       1       2       1       1       2       1       1
       2       1       1       2       1       1       2       1       1       2
       1       1       2       1       1       2       1       1       2       1
       1       2       1       1       2       1       1       2       1       1
       2       1       1       2       1       1       2       1       1       2
       1       1       2       1       1       2       1       1       2       1
       1       2       1       1       2       1       1       2       1       1
       2       1       1       2       1       1       2       1       1       2
       1       1       2       1       1       2       1       1       2       1
       1       2       1       1       2       1       1       2       1       1
       2       1       1       2       1       1       2       1       1       2
       1       1       2       1       1       2       1       1       2       1
       1       2       1       1       2       1       1       2       1       1
       2       1       1       2       1       1       2       1       1       2
       1       1       2       1       1       2       1       1       2       1
       1       2       1       1       2       1       1       2       1       1
       2       1       1       2       1       1       2       1       1       2
       1       1       2       1       1       2       1       1       2       1
       1       2       1       1       2       1       1       2       1       1
       2       1       1       2       1       1       2       1       1       2
       1       1       2       1       1       2       1       1       2       1
       1       2       1       1       2       1       1       2       1       1
       2       1       1       2       1       1       2       1       1       2
       1       1       2       1       1       2       1       1       2       1
       1       2       1       1       2       1       1       2       1       1
       2       1       1       2       1       1       2       1       1       2
       1       1       2       1       1       2       1       1       2       1
       1       2       1       1       2       1       1       2       1       1
       2       1       1       2       1       1       2       1       1       2
       1       1       2       1       1       2       1       1       2       1
       1       2       1       1       2       1       1       2       1       1
       2       1       1       2       1       1       2       1       1       2
       1       1       2       1       1       2       1       1       2       1
       1       2       1       1       2       1       1       2       1       1
       2       1       1       2       1       1       2       1       1       2
       1       1       2       1       1       2       1       1       2       1
       1       2       1       1       2       1       1       2       1       1
       2       1       1       2       1       1       2       1       1       2
       1       1       2       1       1       2       1       1       2       1
       1       2       1       1       2       1       1       2       1       1
       2       1       1       2       1       1       2       1       1       2
       1       1       2       1       1       2       1       1       2       1
       1       2       1       1       2       1       1       2       1       1
       2       1       1       2       1       1       2       1       1       2
       1       1       2       1       1       2       1       1       2       1
       1       2       1       1       2       1       1       2       1       1
       2       1       1       2       1       1       2       1       1       2
       1       1       2       1       1       2       1       1       2       1
       1       2       1       1       2       1       1       2       1       1
       2       1       1       2       1       1       2       1       1       2
       1       1       2       1       1       2       1       1       2       1
       1       2       1       1       2       1       1       2       1       1
       2       1       1       2       1       1       2       1       1       2
       1       1       2       1       1       2       1       1       2       1
       1       2       1       1       2       1       1       2       1       1
       2       1       1       2       1       1       2       1       1       2
       1       1       2       1       1       2       1       1       2       1
       1       2       1       1       2       1       1       2       1       1
       2       1       1       2       1       1       2       1       1       2
       1       1       2       1       1       2       1       1       2       1
       1       2       1       1       2       1       1       2       1       1
       2       1       1       2       1       1       2       1       1       2
       1       1       2       1       1       2       1       1       2       1
       1       2       1       1       2       1       1       2       1       1
       2       1       1       2       1       1       2       1       1       2
       1       1       2       1       1       2       1       1       2       1
       1       2       1       1       2       1       1       2       1       1
       2       1       1       2       1       1       2       1       1       2
       1       1       2       1       1       2       1       1       2       1
       1       2       1       1       2       1       1       2       1       1
       2       1       1       2       1       1       2       1       1       2
       1       1       2       1       1       2       1       1       2       1
       1       2       1       1       2       1       1       2       1       1
       2       1       1       2       1       1       2       1       1       2
       1       1       2       1       1       2       1       1       2       1
       1       2       1       1       2       1       1       2       1       1
       2       1       1       2       1       1       2       1       1       2
       1       1       2       1       1       2       1       1       2       1
       1       2       1       1       2       1       1       2       1       1
       2       1       1       2       1       1       2       1       1       2
       1       1       2       1       1       2       1       1       2       1
       1       2       1       1       2       1       1       2       1       1
       2       1       1       2       1       1       2       1       1       2
       1       1       2       1       1       2       1       1       2       1
       1       2       1       1       2       1       1       2       1       1
       2       1       1       2       1       1       2       1       1       2
       1       1       2       1       1       2       1       1       2       1
       1       2       1       1       2       1       1       2       1       1
       2       1       1       2       1       1       2       1       1       2
       1       1       2       1       1       2       1       1       2       1
       1       2       1       1       2       1       1       2       1       1
       2       1       1       2       1       1       2       1       1       2
       1       1       2       1       1       2       1       1       2       1
       1       2       1       1       2       1       1       2       1       1
       2       1       1       2       1       1       2       1       1       2
       1       1       2       1       1       2       1       1       2       1
       1       2       1       1       2       1       1       2       1       1
       2       1       1       2       1       1       2       1       1       2
       1       1       2       1       1       2       1       1       2       1
       1       2       1       1       2       1       1       2       1       1
       2       1       1       2       1       1       2       1       1       2
       1       1       2       1       1       2       1       1       2       1
       1       2       1       1       2       1       1       2       1       1
       2       1       1       2       1       1       2       1       1       2
       1       1       2       1       1       2       1       1       2       1
       1       2       1       1       2       1       1       2       1       1
       2       1       1       2       1       1       2       1       1       2
       1       1       2       1       1       2       1       1       2       1
       1       2       1       1       2       1       1       2       1       1
       2       1       1       2       1       1       2       1       1       2
       1       1       2       1       1       2       1       1       2       1
       1       2       1       1       2       1       1       2       1       1
       2       1       1       2       1       1       2       1       1       2
       1       1       2       1       1       2       1       1       2       1
       1       2       1       1       2       1       1       2       1       1
       2       1       1       2       1       1       2       1       1       2
       1       1       2       1       1       2       1       1       2       1
       1       2       1       1       2       1       1       2       1       1
       2       1       1       2       1       1       2       1       1       2
       1       1       2       1       1       2       1       1       2       1
       1       2       1       1       2       1       1       2       1       1
       2       1       1       2       1       1       2       1       1       2
       1       1       2       1       1       2       1       1       2       1
       1       2       1       1       2       1       1       2       1       1
       2       1       1       2       1       1       2       1       1       2
       1       1       2       1       1       2       1       1       2       1
       1       2       1       1       2       1       1       2       1       1
       2       1       1       2       1       1       2       1       1       2
       1       1       2       1       1       2       1       1       2       1
       1       2       1       1       2       1       1       2       1       1
       2       1       1       2       1       1       2       1       1       2
       1       1       2       1       1       2       1       1       2       1
       1       2       1       1       2       1       1       2       1       1
       2       1       1       2       1       1       2       1       1       2
       1       1       2       1       1       2       1       1       2       1
       1       2       1       1       2       1       1       2       1       1
       2       1       1       2       1       1       2       1       1       2
       1       1       2       1       1       2       1       1       2       1
       1       2       1       1       2       1       1       2       1       1
       2       1       1       2       1       1       2       1       1       2
       1       1       2       1       1       2       1       1       2       1
       1       2       1       1       2       1       1       2       1       1
       2       1       1       2       1       1       2       1       1       2
       1       1       2       1       1       2       1       1       2       1
       1       2       1       1       2       1       1       2       1       1
       2       1       1       2       1       1       2       1       1       2
       1       1       2       1       1       2       1       1       2       1
       1       2       1       1       2       1       1       2       1       1
       2       1       1       2       1       1       2       1       1       2
       1       1       2       1       1       2       1       1       2       1
       1       2       1       1       2       1       1       2       1       1
       2       1       1       2       1       1       2       1       1       2
       1       1       2       1       1       2       1       1       2       1
       1       2       1       1       2       1       1       2       1       1
       2       1       1       2       1       1       2       1       1       2
       1       1       2       1       1       2       1       1       2       1
       1       2       1       1       2       1       1       2       1       1
       2       1       1       2       1       1       2       1       1       2
       1       1       2       1       1       2       1       1       2       1
       1       2       1       1       2       1       1       2       1       1
       2       1       1       2       1       1       2       1       1       2
       1       1       2       1       1       2       1       1       2       1
       1       2       1       1       2       1       1       2       1       1
       2       1       1       2       1       1       2       1       1       2
       1       1       2       1       1       2       1       1       2       1
       1       2       1       1       2       1       1       2       1       1
       2       1       1       2       1       1       2       1       1       2
       1       1       2       1       1       2       1       1       2       1
       1       2       1       1       2       1       1       2       1       1
       2       1       1       2       1       1       2       1       1       2
       1       1       2       1       1       2       1       1       2       1
       1       2       1       1       2       1       1       2       1       1
       2       1       1       2       1       1       2       1       1       2
       1       1       2       1       1       2       1       1       2       1
       1       2       1       1       2       1       1       2       1       1
       2       1       1       2       1       1       2       1       1       2
       1       1       2       1       1       2       1       1       2       1
       1       2       1       1       2       1       1       2       1       1
       2       1       1       2       1       1       2       1       1       2
       1       1       2       1       1       2       1       1       2       1
       1       2       1       1       2       1       1       2       1       1
       2       1       1       2       1       1       2       1       1       2
       1       1       2       1       1       2       1       1       2       1
       1       2       1       1       2       1       1       2       1       1
       2       1       1       2       1       1       2       1       1       2
       1       1       2       1       1       2       1       1       2       1
       1       2       1       1       2       1       1       2       1       1
       2       1       1       2       1       1       2       1       1       2
       1       1       2       1       1       2       1       1       2       1
       1       2       1       1       2       1       1       2       1       1
       2       1       1       2       1       1       2       1       1       2
       1       1       2       1       1       2       1       1       2       1
       1       2       1       1       2       1       1       2       1       1
       2       1       1       2       1       1       2       1       1       2
       1       1       2       1       1       2       1       1       2       1
       1       2       1       1       2       1       1       2       1       1
       2       1       1       2       1       1       2       1       1       2
       1       1       2       1       1       2       1       1       2       1
       1       2       1       1       2       1       1       2       1       1
       2       1       1       2       1       1       2       1       1       2
       1       1       2       1       1       2       1       1       2       1
       1       2       1       1       2       1       1       2       1       1
       2       1       1       2       1       1       2       1       1       2
       1       1       2       1       1       2       1       1       2       1
       1       2       1       1       2       1       1       2       1       1
       2       1       1       2       1       1       2       1       1       2
       1       1       2       1       1       2       1       1       2       1
       1       2       1       1       2       1       1       2       1       1
       2       1       1       2       1       1       2       1       1       2
       1       1       2       1       1       2       1       1       2       1
       1       2       1       1       2       1       1       2       1       1
       2       1       1       2       1       1       2       1       1       2
       1       1       2       1       1       2       1       1       2       1
       1       2       1       1       2       1       1       2       1       1
       2       1       1       2       1       1       2       1       1       2
       1       1       2       1       1       2       1       1       2       1
       1       2       1       1       2       1       1       2       1       1
       2       1       1       2       1       1       2       1       1       2
       1       1       2       1       1       2       1       1       2       1
       1       2       1       1       2       1       1       2       1       1
       2       1       1       2       1       1       2       1       1       2
       1       1       2       1       1       2       1       1       2       1
       1       2       1       1       2       1       1       2       1       1
       2       1       1       2       1       1       2       1       1       2
       1       1       2       1       1       2       1       1       2       1
       1       2       1       1       2       1       1       2       1       1
       2       1       1       2       1       1       2       1       1       2
       1       1       2       1       1       2       1       1       2       1
       1       2       1       1       2       1       1       2       1       1
       2       1       1       2       1       1       2       1       1       2
       1       1       2       1       1       2       1       1       2       1
       1       2       1       1       2       1       1       2       1       1
       2       1       1       2       1       1       2       1       1       2
       1       1       2       1       1       2       1       1       2       1
       1       2       1       1       2       1       1       2       1       1
       2       1       1       2       1       1       2       1       1       2
       1       1       2       1       1       2       1       1       2       1
       1       2       1       1       2       1       1       2       1       1
       2       1       1       2       1       1       2       1       1       2
       1       1       2       1       1       2       1       1       2       1
       1       2       1       1       2       1       1       2       1       1
       2       1       1       2       1       1       2       1       1       2
       1       1       2       1       1       2       1       1       2       1
       1       2       1       1       2       1       1       2       1       1
       2       1       1       2       1       1       2       1       1       2
       1       1       2       1       1       2       1       1       2       1
       1       2       1       1       2       1       1       2       1       1
       2       1       1       2       1       1       2       1       1       2
       1       1       2       1       1       2       1       1       2       1
       1       2       1       1       2       1       1       2       1       1
       2       1       1       2       1       1       2       1       1       2
       1       1       2       1       1       2       1       1       2       1
       1       2       1       1       2       1       1       2       1       1
       2       1       1       2       1       1       2       1       1       2
       1       1       2       1       1       2       1       1       2       1
       1       2       1       1       2       1       1       2       1       1
       2       1       1       2       1       1       2       1       1       2
       1       1       2       1       1       2       1       1       2       1
       1       2       1       1       2       1       1       2       1       1
       2       1       1       2       1       1       2       1       1       2
       1       1       2       1       1       2       1       1       2       1
       1       2       1       1       2       1       1       2       1       1
       2       1       1       2       1       1       2       1       1       2
       1       1       2       1       1       2       1       1       2       1
       1       2       1       1       2       1       1       2       1       1
       2       1       1       2       1       1       2       1       1       2
       1       1       2       1       1       2       1       1       2       1
       1       2       1       1       2       1       1       2       1       1
       2       1       1       2       1       1       2       1       1       2
       1       1       2       1       1       2       1       1       2       1
       1       2       1       1       2       1       1       2       1       1
       2       1       1       2       1       1       2       1       1       2
       1       1       2       1       1       2       1       1       2       1
       1       2       1       1       2       1       1       2       1       1
       2       1       1       2       1       1       2       1       1       2
       1       1       2       1       1       2       1       1       2       1
       1       2       1       1       2       1       1       2       1       1
       2       1       1       2       1       1       2       1       1       2
       1       1       2       1       1       2       1       1       2       1
       1       2       1       1       2       1       1       2       1       1
       2       1       1       2       1       1       2       1       1       2
       1       1       2       1       1       2       1       1       2       1
       1       2       1       1       2       1       1       2       1       1
       2       1       1       2       1       1       2       1       1       2
       1       1       2       1       1       2       1       1       2       1
       1       2       1       1       2       1       1       2       1       1
       2       1       1       2       1       1       2       1       1       2
       1       1       2       1       1       2       1       1       2       1
       1       2       1       1       2       1       1       2       1       1
       2       1       1       2       1       1       2       1       1       2
       1       1       2       1       1       2       1       1       2       1
       1       2       1       1       2       1       1       2       1       1
       2       1       1       2       1       1       2       1       1       2
       1       1       2       1       1       2       1       1       2       1
       1       2       1       1       2       1       1       2       1       1
       2       1       1       2       1       1       2       1       1       2
       1       1       2       1       1       2       1       1       2       1
       1       2       1       1       2       1       1       2       1       1
       2       1       1       2       1       1       2       1       1       2
       1       1       2       1       1       2       1       1       2       1
       1       2       1       1       2       1       1       2       1       1
       2       1       1       2       1       1       2       1       1       2
       1       1       2       1       1       2       1       1       2       1
       1       2       1       1       2       1       1       2       1       1
       2       1       1       2       1       1       2       1       1       2
       1       1       2       1       1       2       1       1       2       1
       1       2       1       1       2       1       1       2       1       1
       2       1       1       2       1       1       2       1       1       2
       1       1       2       1       1       2       1       1       2       1
       1       2       1       1       2       1       1       2       1       1
       2       1       1       2       1       1       2       1       1       2
       1       1       2       1       1       2       1       1       2       1
       1       2       1       1       2       1       1       2       1       1
       2       1       1       2       1       1       2       1       1       2
       1       1       2       1       1       2       1       1       2       1
       1       2       1       1       2       1       1       2       1       1
       2       1       1       2       1       1       2       1       1       2
       1       1       2       1       1       2       1       1       2       1
       1       2       1       1       2       1       1       2       1       1
       2       1       1       2       1       1       2       1       1       2
       1       1       2       1       1       2       1       1       2       1
       1       2       1       1       2       1       1       2       1       1
       2       1       1       2       1       1       2       1       1       2
       1       1       2       1       1       2       1       1       2       1
       1       2       1       1       2       1       1       2       1       1
       2       1       1       2       1       1       2       1       1       2
       1       1       2       1       1       2       1       1       2       1
       1       2       1       1       2       1       1       2       1       1
       2       1       1       2       1       1       2       1       1       2
       1       1       2       1       1       2       1       1       2       1
       1       2       1       1       2       1       1       2       1       1
       2       1       1       2       1       1       2       1       1       2
       1       1       2       1       1       2       1       1       2       1
       1       2       1       1       2       1       1       2       1       1
       2       1       1       2       1       1       2       1       1       2
       1       1       2       1       1       2       1       1       2       1
       1       2       1       1       2       1       1       2       1       1
       2       1       1       2       1       1       2       1       1       2
       1       1       2       1       1       2       1       1       2       1
       1       2       1       1       2       1       1       2       1       1
       2       1       1       2       1       1       2       1       1       2
       1       1       2       1       1       2       1       1       2       1
       1       2       1       1       2       1       1       2       1       1
       2       1       1       2       1       1       2       1       1       2
       1       1       2       1       1       2       1       1       2       1
       1       2       1       1       2       1       1       2       1       1
       2       1       1       2       1       1       2       1       1       2
       1       1       2       1       1       2       1       1       2       1
       1       2       1       1       2       1       1       2       1       1
       2       1       1       2       1       1       2       1       1       2
       1       1       2       1       1       2       1       1       2       1
       1       2       1       1       2       1       1       2       1       1
       2       1       1       2       1       1       2       1       1       2
       1       1       2       1       1       2       1       1       2       1
       1       2       1       1       2       1       1       2       1       1
       2       1       1       2       1       1       2       1       1       2
       1       1       2       1       1       2       1       1       2       1
       1       2       1       1       2       1       1       2       1       1
       2       1       1       2       1       1       2       1       1       2
       1       1       2       1       1       2       1       1       2       1
       1       2       1       1       2       1       1       2       1       1
       2       1       1       2       1       1       2       1       1       2
       1       1       2       1       1       2       1       1       2       1
       1       2       1       1       2       1       1       2       1       1
       2       1       1       2       1       1       2       1       1       2
       1       1       2       1       1       2       1       1       2       1
       1       2       1       1       2       1       1       2       1       1
       2       1       1       2       1       1       2       1       1       2
       1       1       2       1       1       2       1       1       2       1
       1       2       1       1       2       1       1       2       1       1
       2       1       1       2       1       1       2       1       1       2
       1       1       2       1       1       2       1       1       2       1
       1       2       1       1       2       1       1       2       1       1
       2       1       1       2       1       1       2       1       1       2
       1       1       2       1       1       2       1       1       2       1
       1       2       1       1       2       1       1       2       1       1
       2       1       1       2       1       1       2       1       1       2
       1       1       2       1       1       2       1       1       2       1
       1       2       1       1       2       1       1       2       1       1
       2       1       1       2       1       1       2       1       1       2
       1       1       2       1       1       2       1       1       2       1
       1       2       1       1       2       1       1       2       1       1
       2       1       1       2       1       1       2       1       1       2
       1       1       2       1       1       2       1       1       2       1
       1       2       1       1       2       1       1       2       1       1
       2       1       1       2       1       1       2       1       1       2
       1       1       2       1       1       2       1       1       2       1
       1       2       1       1       2       1       1       2       1       1
       2       1       1       2       1       1       2       1       1       2
       1       1       2       1       1       2       1       1       2       1
       1       2       1       1       2       1       1       2       1       1
       2       1       1       2       1       1       2       1       1       2
       1       1       2       1       1       2       1       1       2       1
       1       2       1       1       2       1       1       2       1       1
       2       1       1       2       1       1       2       1       1       2
       1       1       2       1       1       2       1       1       2       1
       1       2       1       1       2       1       1       2       1       1
       2       1       1       2       1       1       2       1       1       2
       1       1       2       1       1       2       1       1       2       1
       1       2       1       1       2       1       1       2       1       1
       2       1       1       2       1       1       2       1       1       2
       1       1       2       1       1       2       1       1       2       1
       1       2       1       1       2       1       1       2       1       1
       2       1       1       2       1       1       2       1       1       2
       1       1       2       1       1       2       1       1       2       1
       1       2       1       1       2       1       1       2       1       1
       2       1       1       2       1       1       2       1       1       2
       1       1       2       1       1       2       1       1       2       1
       1       2       1       1       2       1       1       2       1       1
       2       1       1       2       1       1       2       1       1       2
       1       1       2       1       1       2       1       1       2       1
       1       2       1       1       2       1       1       2       1       1
       2       1       1       2       1       1       2       1       1       2
       1       1       2       1       1       2       1       1       2       1
       1       2       1       1       2       1       1       2       1       1
       2       1       1       2       1       1       2       1       1       2
       1       1       2       1       1       2       1       1       2       1
       1       2       1       1       2       1       1       2       1       1
       2       1       1       2       1       1       2       1       1       2
       1       1       2       1       1       2       1       1       2       1
       1       2       1       1       2       1       1       2       1       1
       2       1       1       2       1       1       2       1       1       2
       1       1       2       1       1       2       1       1       2       1
       1       2       1       1       2       1       1       2       1       1
       2       1       1       2       1       1       2       1       1       2
       1       1       2       1       1       2       1       1       2       1
       1       2       1       1       2       1       1       2       1       1
       2       1       1       2       1       1       2       1       1       2
       1       1       2       1       1       2       1       1       2       1
       1       2       1       1       2       1       1       2       1       1
       2       1       1       2       1       1       2       1       1       2
       1       1       2       1       1       2       1       1       2       1
       1       2       1       1       2       1       1       2       1       1
       2       1       1       2       1       1       2       1       1       2
       1       1       2       1       1       2       1       1       2       1
       1       2       1       1       2       1       1       2       1       1
       2       1       1       2       1       1       2       1       1       2
       1       1       2       1       1       2       1       1       2       1
       1       2       1       1       2       1       1       2       1       1
       2       1       1       2       1       1       2       1       1       2
       1       1       2       1       1       2       1       1       2       1
       1       2       1       1       2       1       1       2       1       1
       2       1       1       2       1       1       2       1       1       2
       1       1       2       1       1       2       1       1       2       1
       1       2       1       1       2       1       1       2       1       1
       2       1       1       2       1       1       2       1       1       2
       1       1       2       1       1       2       1       1       2       1
       1       2       1       1       2       1       1       2       1       1
       2       1       1       2       1       1       2       1       1       2
       1       1       2       1       1       2       1       1       2       1
       1       2       1       1       2       1       1       2       1       1
       2       1       1       2       1       1       2       1       1       2
       1       1       2       1       1       2       1       1       2       1
       1       2       1       1       2       1       1       2       1       1
       2       1       1       2       1       1       2       1       1       2
       1       1       2       1       1       2       1       1       2       1
       1       2       1       1       2       1       1       2       1       1
       2       1       1       2       1       1       2       1       1       2
       1       1       2       1       1       2       1       1       2       1
       1       2       1       1       2       1       1       2       1       1
       2       1       1       2       1       1       2       1       1       2
       1       1       2       1       1       2       1       1       2       1
       1       2       1       1       2       1       1       2       1       1
       2       1       1       2       1       1       2       1       1       2
       1       1       2       1       1       2       1       1       2       1
       1       2       1       1       2       1       1       2       1       1
       2       1       1       2       1       1       2       1       1       2
       1       1       2       1       1       2       1       1       2       1
       1       2       1       1       2       1       1       2       1       1
       2       1       1       2       1       1       2       1       1       2
       1       1       2       1       1       2       1       1       2       1
       1       2       1       1       2       1       1       2       1       1
       2       1       1       2       1       1       2       1       1       2
       1       1       2       1       1       2       1       1       2       1
       1       2       1       1       2       1       1       2       1       1
       2       1       1       2       1       1       2       1       1       2
       1       1       2       1       1       2       1       1       2       1
       1       2       1       1       2       1       1       2       1       1
       2       1       1       2       1       1       2       1       1       2
       1       1       2       1       1       2       1       1       2       1
       1       2       1       1       2       1       1       2       1       1
       2       1       1       2       1       1       2       1       1       2
       1       1       2       1       1       2       1       1       2       1
       1       2       1       1       2       1       1       2       1       1
       2       1       1       2       1       1       2       1       1       2
       1       1       2       1       1       2       1       1       2       1
       1       2       1       1       2       1       1       2       1       1
       2       1       1       2       1       1       2       1       1       2
       1       1       2       1       1       2       1       1       2       1
       1       2       1       1       2       1       1       2       1       1
       2       1       1       2       1       1       2       1       1       2
       1       1       2       1       1       2       1       1       2       1
       1       2       1       1       2       1       1       2       1       1
       2       1       1       2       1       1       2       1       1       2
       1       1       2       1       1       2       1       1       2       1
       1       2       1       1       2       1       1       2       1       1
       2       1       1       2       1       1       2       1       1       2
       1       1       2       1       1       2       1       1       2       1
       1       2       1       1       2       1       1       2       1       1
       2       1       1       2       1       1       2       1       1       2
       1       1       2       1       1       2       1       1       2       1
       1       2       1       1       2       1       1       2       1       1
       2       1       1       2       1       1       2       1       1       2
       1       1       2       1       1       2       1       1       2       1
       1       2       1       1       2       1       1       2       1       1
       2       1       1       2       1       1       2       1       1       2
       1       1       2       1       1       2       1       1       2       1
       1       2       1       1       2       1       1       2       1       1
       2       1       1       2       1       1       2       1       1       2
       1       1       2       1       1       2       1       1       2       1
       1       2       1       1       2       1       1       2       1       1
       2       1       1       2       1       1       2       1       1       2
       1       1       2       1       1       2       1       1       2       1
       1       2       1       1       2       1       1       2       1       1
       2       1       1       2       1       1       2       1       1       2
       1       1       2       1       1       2       1       1       2       1
       1       2       1       1       2       1       1       2       1       1
       2       1       1       2       1       1       2       1       1       2
       1       1       2       1       1       2       1       1       2       1
       1       2       1       1       2       1       1       2       1       1
       2       1       1       2       1       1       2       1       1       2
       1       1       2       1       1       2       1       1       2       1
       1       2       1       1       2       1       1       2       1       1
       2       1       1       2       1       1       2       1       1       2
       1       1       2       1       1       2       1       1       2       1
       1       2       1       1       2       1       1       2       1       1
       2       1       1       2       1       1       2       1       1       2
       1       1       2       1       1       2       1       1       2       1
       1       2       1       1       2       1       1       2       1       1
       2       1       1       2       1       1       2       1       1       2
       1       1       2       1       1       2       1       1       2       1
       1       2       1       1       2       1       1       2       1       1
       2       1       1       2       1       1       2       1       1       2
       1       1       2       1       1       2       1       1       2       1
       1       2       1       1       2       1       1       2       1       1
       2       1       1       2       1       1       2       1       1       2
       1       1       2       1       1       2       1       1       2       1
       1       2       1       1       2       1       1       2       1       1
       2       1       1       2       1       1       2       1       1       2
       1       1       2       1       1       2       1       1       2       1
       1       2       1       1       2       1       1       2       1       1
       2       1       1       2       1       1       2       1       1       2
       1       1       2       1       1       2       1       1       2       1
       1       2       1       1       2       1       1       2       1       1
       2       1       1       2       1       1       2       1       1       2
       1       1       2       1       1       2       1       1       2       1
       1       2       1       1       2       1       1       2       1       1
       2       1       1       2       1       1       2       1       1       2
       1       1       2       1       1       2       1       1       2       1
       1       2       1       1       2       1       1       2       1       1
       2       1       1       2       1       1       2       1       1       2
       1       1       2       1       1       2       1       1       2       1
       1       2       1       1       2       1       1       2       1       1
       2       1       1       2       1       1       2       1       1       2
       1       1       2       1       1       2       1       1       2       1
       1       2       1       1       2       1       1       2       1       1
       2       1       1       2       1       1       2       1       1       2
       1       1       2       1       1       2       1       1       2       1
       1       2       1       1       2       1       1       2       1       1
       2       1       1       2       1       1       2       1       1       2
       1       1       2       1       1       2       1       1       2       1
       1       2       1       1       2       1       1       2       1       1
       2       1       1       2       1       1       2       1       1       2
       1       1       2       1       1       2       1       1       2       1
       1       2       1       1       2       1       1       2       1       1
       2       1       1       2       1       1       2       1       1       2
       1       1       2       1       1       2       1       1       2       1
       1       2       1       1       2       1       1       2       1       1
       2       1       1       2       1       1       2       1       1       2
       1       1       2       1       1       2       1       1       2       1
       1       2       1       1       2       1       1       2       1       1
       2       1       1       2       1       1       2       1       1       2
       1       1       2       1       1       2       1       1       2       1
       1       2       1       1       2       1       1       2       1       1
       2       1       1       2       1       1       2       1       1       2
       1       1       2       1       1       2       1       1       2       1
       1       2       1       1       2       1       1       2       1       1
       2       1       1       2       1       1       2       1       1       2
       1       1       2       1       1       2       1       1       2       1
       1       2       1       1       2       1       1       2       1       1
       2       1       1       2       1       1       2       1       1       2
       1       1       2       1       1       2       1       1       2       1
       1       2       1       1       2       1       1       2       1       1
       2       1       1       2       1       1       2       1       1       2
       1       1       2       1       1       2       1       1       2       1
       1       2       1       1       2       1       1       2       1       1
       2       1       1       2       1       1       2       1       1       2
       1       1       2       1       1       2       1       1       2       1
       1       2       1       1       2       1       1       2       1       1
       2       1       1       2       1       1       2       1       1       2
       1       1       2       1       1       2       1       1       2       1
       1       2       1       1       2       1       1       2       1       1
       2       1       1       2       1       1       2       1       1       2
       1       1       2       1       1       2       1       1       2       1
       1       2       1       1       2       1       1       2       1       1
       2       1       1       2       1       1       2       1       1       2
       1       1       2       1       1       2       1       1       2       1
       1       2       1       1       2       1       1       2       1       1
       2       1       1       2       1       1       2       1       1       2
       1       1       2       1       1       2       1       1       2       1
       1       2       1       1       2       1       1       2       1       1
       2       1       1       2       1       1       2       1       1       2
       1       1       2       1       1       2       1       1       2       1
       1       2       1       1       2       1       1       2       1       1
       2       1       1       2       1       1       2       1       1       2
       1       1       2       1       1       2       1       1       2       1
       1       2       1       1       2       1       1       2       1       1
       2       1       1       2       1       1       2       1       1       2
       1       1       2       1       1       2       1       1       2       1
       1       2       1       1       2       1       1       2       1       1
       2       1       1       2       1       1       2       1       1       2
       1       1       2       1       1       2       1       1       2       1
       1       2       1       1       2       1       1       2       1       1
       2       1       1       2       1       1       2       1       1       2
       1       1       2       1       1       2       1       1       2       1
       1       2       1       1       2       1       1       2       1       1
       2       1       1       2       1       1       2       1       1       2
       1       1       2       1       1       2       1       1       2       1
       1       2       1       1       2       1       1       2       1       1
       2       1       1       2       1       1       2       1       1       2
       1       1       2       1       1       2       1       1       2       1
       1       2       1       1       2       1       1       2       1       1
       2       1       1       2       1       1       2       1       1       2
       1       1       2       1       1       2       1       1       2       1
       1       2       1       1       2       1       1       2       1       1
       2       1       1       2       1       1       2       1       1       2
       1       1       2       1       1       2       1       1       2       1
       1       2       1       1       2       1       1       2       1       1
       2       1       1       2       1       1       2       1       1       2
       1       1       2       1       1       2       1       1       2       1
       1       2       1       1       2       1       1       2       1       1
       2       1       1       2       1       1       2       1       1       2
       1       1       2       1       1       2       1       1       2       1
       1       2       1       1       2       1       1       2       1       1
       2       1       1       2       1       1       2       1       1       2
       1       1       2       1       1       2       1       1       2       1
       1       2       1       1       2       1       1       2       1       1
       2       1       1       2       1       1       2       1       1       2
       1       1       2       1       1       2       1       1       2       1
       1       2       1       1       2       1       1       2       1       1
       2       1       1       2       1       1       2       1       1       2
       1       1       2       1       1       2       1       1       2       1
       1       2       1       1       2       1       1       2       1       1
       2       1       1       2       1       1       2       1       1       2
       1       1       2       1       1       2       1       1       2       1
       1       2       1       1       2       1       1       2       1       1
       2       1       1       2       1       1       2       1       1       2
       1       1       2       1       1       2       1       1       2       1
       1       2       1       1       2       1       1       2       1       1
       2       1       1       2       1       1       2       1       1       2
       1       1       2       1       1       2       1       1       2       1
       1       2       1       1       2       1       1       2       1       1
       2       1       1       2       1       1       2       1       1       2
       1       1       2       1       1       2       1       1       2       1
       1       2       1       1       2       1       1       2       1       1
       2       1       1       2       1       1       2       1       1       2
       1       1       2       1       1       2       1       1       2       1
       1       2       1       1       2       1       1       2       1       1
       2       1       1       2       1       1       2       1       1       2
       1       1       2       1       1       2       1       1       2       1
       1       2       1       1       2       1       1       2       1       1
       2       1       1       2       1       1       2       1       1       2
       1       1       2       1       1       2       1       1       2       1
       1       2       1       1       2       1       1       2       1       1
       2       1       1       2       1       1       2       1       1       2
       1       1       2       1       1       2       1       1       2       1
       1       2       1       1       2       1       1       2       1       1
       2       1       1       2       1       1       2       1       1       2
       1       1       2       1       1       2       1       1       2       1
       1       2       1       1       2       1       1       2       1       1
       2       1       1       2       1       1       2       1       1       2
       1       1       2       1       1       2       1       1       2       1
       1       2       1       1       2       1       1       2       1       1
       2       1       1       2       1       1       2       1       1       2
       1       1       2       1       1       2       1       1       2       1
       1       2       1       1       2       1       1       2       1       1
       2       1       1       2       1       1       2       1       1       2
       1       1       2       1       1       2       1       1       2       1
       1       2       1       1       2       1       1       2       1       1
       2       1       1       2       1       1       2       1       1       2
       1       1       2       1       1       2       1       1       2       1
       1       2       1       1       2       1       1       2       1       1
       2       1       1       2       1       1       2       1       1       2
       1       1       2       1       1       2       1       1       2       1
       1       2       1       1       2       1       1       2       1       1
       2       1       1       2       1       1       2       1       1       2
       1       1       2       1       1       2       1       1       2       1
       1       2       1       1       2       1       1       2       1       1
       2       1       1       2       1       1       2       1       1       2
       1       1       2       1       1       2       1       1       2       1
       1       2       1       1       2       1       1       2       1       1
       2       1       1       2       1       1       2       1       1       2
       1       1       2       1       1       2       1       1       2       1
       1       2       1       1       2       1       1       2       1       1
       2       1       1       2       1       1       2       1       1       2
       1       1       2       1       1       2       1       1       2       1
       1       2       1       1       2       1       1       2       1       1
       2       1       1       2       1       1       2       1       1       2
       1       1       2       1       1       2       1       1       2       1
       1       2       1       1       2       1       1       2       1       1
       2       1       1       2       1       1       2       1       1       2
       1       1       2       1       1       2       1       1       2       1
       1       2       1       1       2       1       1       2       1       1
       2       1       1       2       1       1       2       1       1       2
       1       1       2       1       1       2       1       1       2       1
       1       2       1       1       2       1       1       2       1       1
       2       1       1       2       1       1       2       1       1       2
       1       1       2       1       1       2       1       1       2       1
       1       2       1       1       2       1       1       2       1       1
       2       1       1       2       1       1       2       1       1       2
       1       1       2       1       1       2       1       1       2       1
       1       2       1       1       2       1       1       2       1       1
       2       1       1       2       1       1       2       1       1       2
       1       1       2       1       1       2       1       1       2       1
       1       2       1       1       2       1       1       2       1       1
       2       1       1       2       1       1       2       1       1       2
       1       1       2       1       1       2       1       1       2       1
       1       2       1       1       2       1       1       2       1       1
       2       1       1       2       1       1       2       1       1       2
       1       1       2       1       1       2       1       1       2       1
       1       2       1       1       2       1       1       2       1       1
       2       1       1       2       1       1       2       1       1       2
       1       1       2       1       1       2       1       1       2       1
       1       2       1       1       2       1       1       2       1       1
       2       1       1       2       1       1       2       1       1       2
       1       1       2       1       1       2       1       1       2       1
       1       2       1       1       2       1       1       2       1       1
       2       1       1       2       1       1       2       1       1       2
       1       1       2       1       1       2       1       1       2       1
       1       2       1       1       2       1       1       2       1       1
       2       1       1       2       1       1       2       1       1       2
       1       1       2       1       1       2       1       1       2       1
       1       2       1       1       2       1       1       2       1       1
       2       1       1       2       1       1       2       1       1       2
       1       1       2       1       1       2       1       1       2       1
       1       2       1       1       2       1       1       2       1       1
       2       1       1       2       1       1       2       1       1       2
       1       1       2       1       1       2       1       1       2       1
       1       2       1       1       2       1       1       2       1       1
       2       1       1       2       1       1       2       1       1       2
       1       1       2       1       1       2       1       1       2       1
       1       2       1       1       2       1       1       2       1       1
       2       1       1       2       1       1       2       1       1       2
       1       1       2       1       1       2       1       1       2       1
       1       2       1       1       2       1       1       2       1       1
       2       1       1       2       1       1       2       1       1       2
       1       1       2       1       1       2       1       1       2       1
       1       2       1       1       2       1       1       2       1       1
       2       1       1       2       1       1       2       1       1       2
       1       1       2       1       1       2       1       1       2       1
       1       2       1       1       2       1       1       2       1       1
       2       1       1       2       1       1       2       1       1       2
       1       1       2       1       1       2       1       1       2       1
       1       2       1       1       2       1       1       2       1       1
       2       1       1       2       1       1       2       1       1       2
       1       1       2       1       1       2       1       1       2       1
       1       2       1       1       2       1       1       2       1       1
       2       1       1       2       1       1       2       1       1       2
       1       1       2       1       1       2       1       1       2       1
       1       2       1       1       2       1       1       2       1       1
       2       1       1       2       1       1       2       1       1       2
       1       1       2       1       1       2       1       1       2       1
       1       2       1       1       2       1       1       2       1       1
       2       1       1       2       1       1       2       1       1       2
       1       1       2       1       1       2       1       1       2       1
       1       2       1       1       2       1       1       2       1       1
       2       1       1       2       1       1       2       1       1       2
       1       1       2       1       1       2       1       1       2       1
       1       2       1       1       2       1       1       2       1       1
       2       1       1       2       1       1       2       1       1       2
       1       1       2       1       1       2       1       1       2       1
       1       2       1       1       2       1       1       2       1       1
       2       1       1       2       1       1       2       1       1       2
       1       1       2       1       1       2       1       1       2       1
       1       2       1       1       2       1       1       2       1       1
       2       1       1       2       1       1       2       1       1       2
       1       1       2       1       1       2       1       1       2       1
       1       2       1       1       2       1       1       2       1       1
       2       1       1       2       1       1       2       1       1       2
       1       1       2       1       1       2       1       1       2       1
       1       2       1       1       2       1       1       2       1       1
       2       1       1       2       1       1       2       1       1       2
       1       1       2       1       1       2       1       1       2       1
       1       2       1       1       2       1       1       2       1       1
       2       1       1       2       1       1       2       1       1       2
       1       1       2       1       1       2       1       1       2       1
       1       2       1       1       2       1       1       2       1       1
       2       1       1       2       1       1       2       1       1       2
       1       1       2       1       1       2       1       1       2       1
       1       2       1       1       2       1       1       2       1       1
       2       1       1       2       1       1       2       1       1       2
       1       1       2       1       1       2       1       1       2       1
       1       2       1       1       2       1       1       2       1       1
       2       1       1       2       1       1       2       1       1       2
       1       1       2       1       1       2       1       1       2       1
       1       2       1       1       2       1       1       2       1       1
       2       1       1       2       1       1       2       1       1       2
       1       1       2       1       1       2       1       1       2       1
       1       2       1       1       2       1       1       2       1       1
       2       1       1       2       1       1       2       1       1       2
       1       1       2       1       1       2       1       1       2       1
       1       2       1       1       2       1       1       2       1       1
       2       1       1       2       1       1       2       1       1       2
       1       1       2       1       1       2       1       1       2       1
       1       2       1       1       2       1       1       2       1       1
       2       1       1       2       1       1       2       1       1       2
       1       1       2       1       1       2       1       1       2       1
       1       2       1       1       2       1       1       2       1       1
       2       1       1       2       1       1       2       1       1       2
       1       1       2       1       1       2       1       1       2       1
       1       2       1       1       2       1       1       2       1       1
       2       1       1       2       1       1       2       1       1       2
       1       1       2       1       1       2       1       1       2       1
       1       2       1       1       2       1       1       2       1       1
       2       1       1       2       1       1       2       1       1       2
       1       1       2       1       1       2       1       1       2       1
       1       2       1       1       2       1       1       2       1       1
       2       1       1       2       1       1       2       1       1       2
       1       1       2       1       1       2       1       1       2       1
       1       2       1       1       2       1       1       2       1       1
       2       1       1       2       1       1       2       1       1       2
       1       1       2       1       1       2       1       1       2       1
       1       2       1       1       2       1       1       2       1       1
       2       1       1       2       1       1       2       1       1       2
       1       1       2       1       1       2       1       1       2       1
       1       2       1       1       2       1       1       2       1       1
       2       1       1       2       1       1       2       1       1       2
       1       1       2       1       1       2       1       1       2       1
       1       2       1       1       2       1       1       2       1       1
       2       1       1       2       1       1       2       1       1       2
       1       1       2       1       1       2       1       1       2       1
       1       2       1       1       2       1       1       2       1       1
       2       1       1       2       1       1       2       1       1       2
       1       1       2       1       1       2       1       1       2       1
       1       2       1       1       2       1       1       2       1       1
       2       1       1       2       1       1       2       1       1       2
       1       1       2       1       1       2       1       1       2       1
       1       2       1       1       2       1       1       2       1       1
       2       1       1       2       1       1       2       1       1       2
       1       1       2       1       1       2       1       1       2       1
       1       2       1       1       2       1       1       2       1       1
       2       1       1       2       1       1       2       1       1       2
       1       1       2       1       1       2       1       1       2       1
       1       2       1       1       2       1       1       2       1       1
       2       1       1       2       1       1       2       1       1       2
       1       1       2       1       1       2       1       1       2       1
       1       2       1       1       2       1       1       2       1       1
       2       1       1       2       1       1       2       1       1       2
       1       1       2       1       1       2       1       1       2       1
       1       2       1       1       2       1       1       2       1       1
       2       1       1       2       1       1       2       1       1       2
       1       1       2       1       1       2       1       1       2       1
       1       2       1       1       2       1       1       2       1       1
       2       1       1       2       1       1       2       1       1       2
       1       1       2       1       1       2       1       1       2       1
       1       2       1       1       2       1       1       2       1       1
       2       1       1       2       1       1       2       1       1       2
       1       1       2       1       1       2       1       1       2       1
       1       2       1       1       2       1       1       2       1       1
       2       1       1       2       1       1       2       1       1       2
       1       1       2       1       1       2       1       1       2       1
       1       2       1       1       2       1       1       2       1       1
       2       1       1       2       1       1       2       1       1       2
       1       1       2       1       1       2       1       1       2       1
       1       2       1       1       2       1       1       2       1       1
       2       1       1       2       1       1       2       1       1       2
       1       1       2       1       1       2       1       1       2       1
       1       2       1       1       2       1       1       2       1       1
       2       1       1       2       1       1       2       1       1       2
       1       1       2       1       1       2       1       1       2       1
       1       2       1       1       2       1       1       2       1       1
       2       1       1       2       1       1       2       1       1       2
       1       1       2       1       1       2       1       1       2       1
       1       2       1       1       2       1       1       2       1       1
       2       1       1       2       1       1       2       1       1       2
       1       1       2       1       1       2       1       1       2       1
       1       2       1       1       2       1       1       2       1       1
       2       1       1       2       1       1       2       1       1       2
       1       1       2       1       1       2       1       1       2       1
       1       2       1       1       2       1       1       2       1       1
       2       1       1       2       1       1       2       1       1       2
       1       1       2       1       1       2       1       1       2       1
       1       2       1       1       2       1       1       2       1       1
       2       1       1       2       1       1       2       1       1       2
       1       1       2       1       1       2       1       1       2       1
       1       2       1       1       2       1       1       2       1       1
       2       1       1       2       1       1       2       1       1       2
       1       1       2       1       1       2       1       1       2       1
       1       2       1       1       2       1       1       2       1       1
       2       1       1       2       1       1       2       1       1       2
       1       1       2       1       1       2       1       1       2       1
       1       2       1       1       2       1       1       2       1       1
       2       1       1       2       1       1       2       1       1       2
       1       1       2       1       1       2       1       1       2       1
       1       2       1       1       2       1       1       2       1       1
       2       1       1       2       1       1       2       1       1       2
       1       1       2       1       1       2       1       1       2       1
       1       2       1       1       2       1       1       2       1       1
       2       1       1       2       1       1       2       1       1       2
       1       1       2       1       1       2       1       1       2       1
       1       2       1       1       2       1       1       2       1       1
       2       1       1       2       1       1       2       1       1       2
       1       1       2       1       1       2       1       1       2       1
       1       2       1       1       2       1       1       2       1       1
       2       1       1       2       1       1       2       1       1       2
       1       1       2       1       1       2       1       1       2       1
       1       2       1       1       2       1       1       2       1       1
       2       1       1       2       1       1       2       1       1       2
       1       1       2       1       1       2       1       1       2       1
       1       2       1       1       2       1       1       2       1       1
       2       1       1       2       1       1       2       1       1       2
       1       1       2       1       1       2       1       1       2       1
       1       2       1       1       2       1       1       2       1       1
       2       1       1       2       1       1       2       1       1       2
       1       1       2       1       1       2       1       1       2       1
       1       2       1       1       2       1       1       2       1       1
       2       1       1       2       1       1       2       1       1       2
       1       1       2       1       1       2       1       1       2       1
       1       2       1       1       2       1       1       2       1       1
       2       1       1       2       1       1       2       1       1       2
       1       1       2       1       1       2       1       1       2       1
       1       2       1       1       2       1       1       2       1       1
       2       1       1       2       1       1       2       1       1       2
       1       1       2       1       1       2       1       1       2       1
       1       2       1       1       2       1       1       2       1       1
       2       1       1       2       1       1       2       1       1       2
       1       1       2       1       1       2       1       1       2       1
       1       2       1       1       2       1       1       2       1       1
       2       1       1       2       1       1       2       1       1       2
       1       1       2       1       1       2       1       1       2       1
       1       2       1       1       2       1       1       2       1       1
       2       1       1       2       1       1       2       1       1       2
       1       1       2       1       1       2       1       1       2       1
       1       2       1       1       2       1       1       2       1       1
       2       1       1       2       1       1       2       1       1       2
       1       1       2       1       1       2       1       1       2       1
       1       2       1       1       2       1       1       2       1       1
       2       1       1       2       1       1       2       1       1       2
       1       1       2       1       1       2       1       1       2       1
       1       2       1       1       2       1       1       2       1       1
       2       1       1       2       1       1       2       1       1       2
       1       1       2       1       1       2       1       1       2       1
       1       2       1       1       2       1       1       2       1       1
       2       1       1       2       1       1       2       1       1       2
       1       1       2       1       1       2       1       1       2       1
       1       2       1       1       2       1       1       2       1       1
       2       1       1       2       1       1       2       1       1       2
       1       1       2       1       1       2       1       1       2       1
       1       2       1       1       2       1       1       2       1       1
       2       1       1       2       1       1       2       1       1       2
       1       1       2       1       1       2       1       1       2       1
       1       2       1       1       2       1       1       2       1       1
       2       1       1       2       1       1       2       1       1       2
       1       1       2       1       1       2       1       1       2       1
       1       2       1       1       2       1       1       2       1       1
       2       1       1       2       1       1       2       1       1       2
       1       1       2       1       1       2       1       1       2       1
       1       2       1       1       2       1       1       2       1       1
       2       1       1       2       1       1       2       1       1       2
       1       1       2       1       1       2       1       1       2       1
       1       2       1       1       2       1       1       2       1       1
       2       1       1       2       1       1       2       1       1       2
       1       1       2       1       1       2       1       1       2       1
       1       2       1       1       2       1       1       2       1       1
       2       1       1       2       1       1       2       1       1       2
       1       1       2       1       1       2       1       1       2       1
       1       2       1       1       2       1       1       2       1       1
       2       1       1       2       1       1       2       1       1       2
       1       1       2       1       1       2       1       1       2       1
       1       2       1       1       2       1       1       2       1       1
       2       1       1       2       1       1       2       1       1       2
       1       1       2       1       1       2       1       1       2       1
       1       2       1       1       2       1       1       2       1       1
       2       1       1       2       1       1       2       1       1       2
       1       1       2       1       1       2       1       1       2       1
       1       2       1       1       2       1       1       2       1       1
       2       1       1       2       1       1       2       1       1       2
       1       1       2       1       1       2       1       1       2       1
       1       2       1       1       2       1       1       2       1       1
       2       1       1       2       1       1       2       1       1       2
       1       1       2       1       1       2       1       1       2       1
       1       2       1       1       2       1       1       2       1       1
       2       1       1       2       1       1       2       1       1       2
       1       1       2       1       1       2       1       1       2       1
       1       2       1       1       2       1       1       2       1       1
       2       1       1       2       1       1       2       1       1       2
       1       1       2       1       1       2       1       1       2       1
       1       2       1       1       2       1       1       2       1       1
       2       1       1       2       1       1       2       1       1       2
       1       1       2       1       1       2       1       1       2       1
       1       2       1       1       2       1       1       2       1       1
       2       1       1       2       1       1       2       1       1       2
       1       1       2       1       1       2       1       1       2       1
       1       2       1       1       2       1       1       2       1       1
       2       1       1       2       1       1       2       1       1       2
       1       1       2       1       1       2       1       1       2       1
       1       2       1       1       2       1       1       2       1       1
       2       1       1       2       1       1       2       1       1       2
       1       1       2       1       1       2       1       1       2       1
       1       2       1       1       2       1       1       2       1       1
       2       1       1       2       1       1       2       1       1       2
       1       1       2       1       1       2       1       1       2       1
       1       2       1       1       2       1       1       2       1       1
       2       1       1       2       1       1       2       1       1       2
       1       1       2       1       1       2       1       1       2       1
       1       2       1       1       2       1       1       2       1       1
       2       1       1       2       1       1       2       1       1       2
       1       1       2       1       1       2       1       1       2       1
       1       2       1       1       2       1       1       2       1       1
       2       1       1       2       1       1       2       1       1       2
       1       1       2       1       1       2       1       1       2       1
       1       2       1       1       2       1       1       2       1       1
       2       1       1       2       1       1       2       1       1       2
       1       1       2       1       1       2       1       1       2       1
       1       2       1       1       2       1       1       2       1       1
       2       1       1       2       1       1       2       1       1       2
       1       1       2       1       1       2       1       1       2       1
       1       2       1       1       2       1       1       2       1       1
       2       1       1       2       1       1       2       1       1       2
       1       1       2       1       1       2       1       1       2       1
       1       2       1       1       2       1       1       2       1       1
       2       1       1       2       1       1       2       1       1       2
       1       1       2       1       1       2       1       1       2       1
       1       2       1       1       2       1       1       2       1       1
       2       1       1       2       1       1       2       1       1       2
       1       1       2       1       1       2       1       1       2       1
       1       2       1       1       2       1       1       2       1       1
       2       1       1       2       1       1       2       1       1       2
       1       1       2       1       1       2       1       1       2       1
       1       2       1       1       2       1       1       2       1       1
       2       1       1       2       1       1       2       1       1       2
       1       1       2       1       1       2       1       1       2       1
       1       2       1       1       2       1       1       2       1       1
       2       1       1       2       1       1       2       1       1       2
       1       1       2       1       1       2       1       1       2       1
       1       2       1       1       2       1       1       2       1       1
       2       1       1       2       1       1       2       1       1       2
       1       1       2       1       1       2       1       1       2       1
       1       2       1       1       2       1       1       2       1       1
       2       1       1       2       1       1       2       1       1       2
       1       1       2       1       1       2       1       1       2       1
       1       2       1       1       2       1       1       2       1       1
       2       1       1       2       1       1       2       1       1       2
       1       1       2       1       1       2       1       1       2       1
       1       2       1       1       2       1       1       2       1       1
       2       1       1       2       1       1       2       1       1       2
       1       1       2       1       1       2       1       1       2       1
       1       2       1       1       2       1       1       2       1       1
       2       1       1       2       1       1       2       1       1       2
       1       1       2       1       1       2       1       1       2       1
       1       2       1       1       2       1       1       2       1       1
       2       1       1       2       1       1       2       1       1       2
       1       1       2       1       1       2       1       1       2       1
       1       2       1       1       2       1       1       2       1       1
       2       1       1       2       1       1       2       1       1       2
       1       1       2       1       1       2       1       1       2       1
       1       2       1       1       2       1       1       2       1       1
       2       1       1       2       1       1       2       1       1       2
       1       1       2       1       1       2       1       1       2       1
       1       2       1       1       2       1       1       2       1       1
       2       1       1       2       1       1       2       1       1       2
       1       1       2       1       1       2       1       1       2       1
       1       2       1       1       2       1       1       2       1       1
       2       1       1       2       1       1       2       1       1       2
       1       1       2       1       1       2       1       1       2       1
       1       2       1       1       2       1       1       2       1       1
       2       1       1       2       1       1       2       1       1       2
       1       1       2       1       1       2       1       1       2       1
       1       2       1       1       2       1       1       2       1       1
       2       1       1       2       1       1       2       1       1       2
       1       1       2       1       1       2       1       1       2       1
       1       2       1       1       2       1       1       2       1       1
       2       1       1       2       1       1       2       1       1       2
       1       1       2       1       1       2       1       1       2       1
       1       2       1       1       2       1       1       2       1       1
       2       1       1       2       1       1       2       1       1       2
       1       1       2       1       1       2       1       1       2       1
       1       2       1       1       2       1       1       2       1       1
       2       1       1       2       1       1       2       1       1       2
       1       1       2       1       1       2       1       1       2       1
       1       2       1       1       2       1       1       2       1       1
       2       1       1       2       1       1       2       1       1       2
       1       1       2       1       1       2       1       1       2       1
       1       2       1       1       2       1       1       2       1       1
       2       1       1       2       1       1       2       1       1       2
       1       1       2       1       1       2       1       1       2       1
       1       2       1       1       2       1       1       2       1       1
       2       1       1       2       1       1       2       1       1       2
       1       1       2       1       1       2       1       1       2       1
       1       2       1       1       2       1       1       2       1       1
       2       1       1       2       1       1       2       1       1       2
       1       1       2       1       1       2       1       1       2       1
       1       2       1       1       2       1       1       2       1       1
       2       1       1       2       1       1       2       1       1       2
       1       1       2       1       1       2       1       1       2       1
       1       2       1       1       2       1       1       2       1       1
       2       1       1       2       1       1       2       1       1       2
       1       1       2       1       1       2       1       1       2       1
       1       2       1       1       2       1       1       2       1       1
       2       1       1       2       1       1       2       1       1       2
       1       1       2       1       1       2       1       1       2       1
       1       2       1       1       2       1       1       2       1       1
       2       1       1       2       1       1       2       1       1       2
       1       1       2       1       1       2       1       1       2       1
       1       2       1       1       2       1       1       2       1       1
       2       1       1       2       1       1       2       1       1       2
       1       1       2       1       1       2       1       1       2       1
       1       2       1       1       2       1       1       2       1       1
       2       1       1       2       1       1       2       1       1       2
       1       1       2       1       1       2       1       1       2       1
       1       2       1       1       2       1       1       2       1       1
       2       1       1       2       1       1       2       1       1       2
       1       1       2       1       1       2       1       1       2       1
       1       2       1       1       2       1       1       2       1       1
       2       1       1       2       1       1       2       1       1       2
       1       1       2       1       1       2       1       1       2       1
       1       2       1       1       2       1       1       2       1       1
       2       1       1       2       1       1       2       1       1       2
       1       1       2       1       1       2       1       1       2       1
       1       2       1       1       2       1       1       2       1       1
       2       1       1       2       1       1       2       1       1       2
       1       1       2       1       1       2       1       1       2       1
       1       2       1       1       2       1       1       2       1       1
       2       1       1       2       1       1       2       1       1       2
       1       1       2       1       1       2       1       1       2       1
       1       2       1       1       2       1       1       2       1       1
       2       1       1       2       1       1       2       1       1       2
       1       1       2       1       1       2       1       1       2       1
       1       2       1       1       2       1       1       2       1       1
       2       1       1       2       1       1       2       1       1       2
       1       1       2       1       1       2       1       1       2       1
       1       2       1       1       2       1       1       2       1       1
       2       1       1       2       1       1       2       1       1       2
       1       1       2       1       1       2       1       1       2       1
       1       2       1       1       2       1       1       2       1       1
       2       1       1       2       1       1       2       1       1       2
       1       1       2       1       1       2       1       1       2       1
       1       2       1       1       2       1       1       2       1       1
       2       1       1       2       1       1       2       1       1       2
       1       1       2       1       1       2       1       1       2       1
       1       2       1       1       2       1       1       2       1       1
       2       1       1       2       1       1       2       1       1       2
       1       1       2       1       1       2       1       1       2       1
       1       2       1       1       2       1       1       2       1       1
       2       1       1       2       1       1       2       1       1       2
       1       1       2       1       1       2       1       1       2       1
       1       2       1       1       2       1       1       2       1       1
       2       1       1       2       1       1       2       1       1       2
       1       1       2       1       1       2       1       1       2       1
       1       2       1       1       2       1       1       2       1       1
       2       1       1       2       1       1       2       1       1       2
       1       1       2       1       1       2       1       1       2       1
       1       2       1       1       2       1       1       2       1       1
       2       1       1       2       1       1       2       1       1       2
       1       1       2       1       1       2       1       1       2       1
       1       2       1       1       2       1       1       2       1       1
       2       1       1       2       1       1       2       1       1       2
       1       1       2       1       1       2       1       1       2       1
       1       2       1       1       2       1       1       2       1       1
       2       1       1       2       1       1       2       1       1       2
       1       1       2       1       1       2       1       1       2       1
       1       2       1       1       2       1       1       2       1       1
       2       1       1       2       1       1       2       1       1       2
       1       1       2       1       1       2       1       1       2       1
       1       2       1       1       2       1       1       2       1       1
       2       1       1       2       1       1       2       1       1       2
       1       1       2       1       1       2       1       1       2       1
       1       2       1       1       2       1       1       2       1       1
       2       1       1       2       1       1       2       1       1       2
       1       1       2       1       1       2       1       1       2       1
       1       2       1       1       2       1       1       2       1       1
       2       1       1       2       1       1       2       1       1       2
       1       1       2       1       1       2       1       1       2       1
       1       2       1       1       2       1       1       2       1       1
       2       1       1       2       1       1       2       1       1       2
       1       1       2       1       1       2       1       1       2       1
       1       2       1       1       2       1       1       2       1       1
       2       1       1       2       1       1       2       1       1       2
       1       1       2       1       1       2       1       1       2       1
       1       2       1       1       2       1       1       2       1       1
       2       1       1       2       1       1       2       1       1       2
       1       1       2       1       1       2       1       1       2       1
       1       2       1       1       2       1       1       2       1       1
       2       1       1       2       1       1       2       1       1       2
       1       1       2       1       1       2       1       1       2       1
       1       2       1       1       2       1       1       2       1       1
       2       1       1       2       1       1       2       1       1       2
       1       1       2       1       1       2       1       1       2       1
       1       2       1       1       2       1       1       2       1       1
       2       1       1       2       1       1       2       1       1       2
       1       1       2       1       1       2       1       1       2       1
       1       2       1       1       2       1       1       2       1       1
       2       1       1       2       1       1       2       1       1       2
       1       1       2       1       1       2       1       1       2       1
       1       2       1       1       2       1       1       2       1       1
       2       1       1       2       1       1       2       1       1       2
       1       1       2       1       1       2       1       1       2       1
       1       2       1       1       2       1       1       2       1       1
       2       1       1       2       1       1       2       1       1       2
       1       1       2       1       1       2       1       1       2       1
       1       2       1       1       2       1       1       2       1       1
       2       1       1       2       1       1       2       1       1       2
       1       1       2       1       1       2       1       1       2       1
       1       2       1       1       2       1       1       2       1       1
       2       1       1       2       1       1       2       1       1       2
       1       1       2       1       1       2       1       1       2       1
       1       2       1       1       2       1       1       2       1       1
       2       1       1       2       1       1       2       1       1       2
       1       1       2       1       1       2       1       1       2       1
       1       2       1       1       2       1       1       2       1       1
       2       1       1       2       1       1       2       1       1       2
       1       1       2       1       1       2       1       1       2       1
       1       2       1       1       2       1       1       2       1       1
       2       1       1       2       1       1       2       1       1       2
       1       1       2       1       1       2       1       1       2       1
       1       2       1       1       2       1       1       2       1       1
       2       1       1       2       1       1       2       1       1       2
       1       1       2       1       1       2       1       1       2       1
       1       2       1       1       2       1       1       2       1       1
       2       1       1       2       1       1       2       1       1       2
       1       1       2       1       1       2       1       1       2       1
       1       2       1       1       2       1       1       2       1       1
       2       1       1       2       1       1       2       1       1       2
       1       1       2       1       1       2       1       1       2       1
       1       2       1       1       2       1       1       2       1       1
       2       1       1       2       1       1       2       1       1       2
       1       1       2       1       1       2       1       1       2       1
       1       2       1       1       2       1       1       2       1       1
       2       1       1       2       1       1       2       1       1       2
       1       1       2       1       1       2       1       1       2       1
       1       2       1       1       2       1       1       2       1       1
       2       1       1       2       1       1       2       1       1       2
       1       1       2       1       1       2       1       1       2       1
       1       2       1       1       2       1       1       2       1       1
       2       1       1       2       1       1       2       1       1       2
       1       1       2       1       1       2       1       1       2       1
       1       2       1       1       2       1       1       2       1       1
       2       1       1       2       1       1       2       1       1       2
       1       1       2       1       1       2       1       1       2       1
       1       2       1       1       2       1       1       2       1       1
       2       1       1       2       1       1       2       1       1       2
       1       1       2       1       1       2       1       1       2       1
       1       2       1       1       2       1       1       2       1       1
       2       1       1       2       1       1       2       1       1       2
       1       1       2       1       1       2       1       1       2       1
       1       2       1       1       2       1       1       2       1       1
       2       1       1       2       1       1       2       1       1       2
       1       1       2       1       1       2       1       1       2       1
       1       2       1       1       2       1       1       2       1       1
       2       1       1       2       1       1       2       1       1       2
       1       1       2       1       1       2       1       1       2       1
       1       2       1       1       2       1       1       2       1       1
       2       1       1       2       1       1       2       1       1       2
       1       1       2       1       1       2       1       1       2       1
       1       2       1       1       2       1       1       2       1       1
       2       1       1       2       1       1       2       1       1       2
       1       1       2       1       1       2       1       1       2       1
       1       2       1       1       2       1       1       2       1       1
       2       1       1       2       1       1       2       1       1       2
       1       1       2       1       1       2       1       1       2       1
       1       2       1       1       2       1       1       2       1       1
       2       1       1       2       1       1       2       1       1       2
       1       1       2       1       1       2       1       1       2       1
       1       2       1       1       2       1       1       2       1       1
       2       1       1       2       1       1       2       1       1       2
       1       1       2       1       1       2       1       1       2       1
       1       2       1       1       2       1       1       2       1       1
       2       1       1       2       1       1       2       1       1       2
       1       1       2       1       1       2       1       1       2       1
       1       2       1       1       2       1       1       2       1       1
       2       1       1       2       1       1       2       1       1       2
       1       1       2       1       1       2       1       1       2       1
       1       2       1       1       2       1       1       2       1       1
       2       1       1       2       1       1       2       1       1       2
       1       1       2       1       1       2       1       1       2       1
       1       2       1       1       2       1       1       2       1       1
       2       1       1       2       1       1       2       1       1       2
       1       1       2       1       1       2       1       1       2       1
       1       2       1       1       2       1       1       2       1       1
       2       1       1       2       1       1       2       1       1       2
       1       1       2       1       1       2       1       1       2       1
       1       2       1       1       2       1       1       2       1       1
       2       1       1       2       1       1       2       1       1       2
       1       1       2       1       1       2       1       1       2       1
       1       2       1       1       2       1       1       2       1       1
       2       1       1       2       1       1       2       1       1       2
       1       1       2       1       1       2       1       1       2       1
       1       2       1       1       2       1       1       2       1       1
       2       1       1       2       1       1       2       1       1       2
       1       1       2       1       1       2       1       1       2       1
       1       2       1       1       2       1       1       2       1       1
       2       1       1       2       1       1       2       1       1       2
       1       1       2       1       1       2       1       1       2       1
       1       2       1       1       2       1       1       2       1       1
       2       1       1       2       1       1       2       1       1       2
       1       1       2       1       1       2       1       1       2       1
       1       2       1       1       2       1       1       2       1       1
       2       1       1       2       1       1       2       1       1       2
       1       1       2       1       1       2       1       1       2       1
       1       2       1       1       2       1       1       2       1       1
       2       1       1       2       1       1       2       1       1       2
       1       1       2       1       1       2       1       1       2       1
       1       2       1       1       2       1       1       2       1       1
       2       1       1       2       1       1       2       1       1       2
       1       1       2       1       1       2       1       1       2       1
       1       2       1       1       2       1       1       2       1       1
       2       1       1       2       1       1       2       1       1       2
       1       1       2       1       1       2       1       1       2       1
       1       2       1       1       2       1       1       2       1       1
       2       1       1       2       1       1       2       1       1       2
       1       1       2       1       1       2       1       1       2       1
       1       2       1       1       2       1       1       2       1       1
       2       1       1       2       1       1       2       1       1       2
       1       1       2       1       1       2       1       1       2       1
       1       2       1       1       2       1       1       2       1       1
       2       1       1       2       1       1       2       1       1       2
       1       1       2       1       1       2       1       1       2       1
       1       2       1       1       2       1       1       2       1       1
       2       1       1       2       1       1       2       1       1       2
       1       1       2       1       1       2       1       1       2       1
       1       2       1       1       2       1       1       2       1       1
       2       1       1       2       1       1       2       1       1       2
       1       1       2       1       1       2       1       1       2       1
       1       2       1       1       2       1       1       2       1       1
       2       1       1       2       1       1       2       1       1       2
       1       1       2       1       1       2       1       1       2       1
       1       2       1       1       2       1       1       2       1       1
       2       1       1       2       1       1       2       1       1       2
       1       1       2       1       1       2       1       1       2       1
       1       2       1       1       2       1       1       2       1       1
       2       1       1       2       1       1       2       1       1       2
       1       1       2       1       1       2       1       1       2       1
       1       2       1       1       2       1       1       2       1       1
       2       1       1       2       1       1       2       1       1       2
       1       1       2       1       1       2       1       1       2       1
       1       2       1       1       2       1       1       2       1       1
       2       1       1       2       1       1       2       1       1       2
       1       1       2       1       1       2       1       1       2       1
       1       2       1       1       2       1       1       2       1       1
       2       1       1       2       1       1       2       1       1       2
       1       1       2       1       1       2       1       1       2       1
       1       2       1       1       2       1       1       2       1       1
       2       1       1       2       1       1       2       1       1       2
       1       1       2       1       1       2       1       1       2       1
       1       2       1       1       2       1       1       2       1       1
       2       1       1       2       1       1       2       1       1       2
       1       1       2       1       1       2       1       1       2       1
       1       2       1       1       2       1       1       2       1       1
       2       1       1       2       1       1       2       1       1       2
       1       1       2       1       1       2       1       1       2       1
       1       2       1       1       2       1       1       2       1       1
       2       1       1       2       1       1       2       1       1       2
       1       1       2       1       1       2       1       1       2       1
       1       2       1       1       2       1       1       2       1       1
       2       1       1       2       1       1       2       1       1       2
       1       1       2       1       1       2       1       1       2       1
       1       2       1       1       2       1       1       2       1       1
       2       1       1       2       1       1       2       1       1       2
       1       1       2       1       1       2       1       1       2       1
       1       2       1       1       2       1       1       2       1       1
       2       1       1       2       1       1       2       1       1       2
       1       1       2       1       1       2       1       1       2       1
       1       2       1       1       2       1       1       2       1       1
       2       1       1       2       1       1       2       1       1       2
       1       1       2       1       1       2       1       1       2       1
       1       2       1       1       2       1       1       2       1       1
       2       1       1       2       1       1       2       1       1       2
       1       1       2       1       1       2       1       1       2       1
       1       2       1       1       2       1       1       2       1       1
       2       1       1       2       1       1       2       1       1       2
       1       1       2       1       1       2       1       1       2       1
       1       2       1       1       2       1       1       2       1       1
       2       1       1       2       1       1       2       1       1       2
       1       1       2       1       1       2       1       1       2       1
       1       2       1       1       2       1       1       2       1       1
       2       1       1       2       1       1       2       1       1       2
       1       1       2       1       1       2       1       1       2       1
       1       2       1       1       2       1       1       2       1       1
       2       1       1       2       1       1       2       1       1       2
       1       1       2       1       1       2       1       1       2       1
       1       2       1       1       2       1       1       2       1       1
       2       1       1       2       1       1       2       1       1       2
       1       1       2       1       1       2       1       1       2       1
       1       2       1       1       2       1       1       2       1       1
       2       1       1       2       1       1       2       1       1       2
       1       1       2       1       1       2       1       1       2       1
       1       2       1       1       2       1       1       2       1       1
       2       1       1       2       1       1       2       1       1       2
       1       1       2       1       1       2       1       1       2       1
       1       2       1       1       2       1       1       2       1       1
       2       1       1       2       1       1       2       1       1       2
       1       1       2       1       1       2       1       1       2       1
       1       2       1       1       2       1       1       2       1       1
       2       1       1       2       1       1       2       1       1       2
       1       1       2       1       1       2       1       1       2       1
       1       2       1       1       2       1       1       2       1       1
       2       1       1       2       1       1       2       1       1       2
       1       1       2       1       1       2       1       1       2       1
       1       2       1       1       2       1       1       2       1       1
       2       1       1       2       1       1       2       1       1       2
       1       1       2       1       1       2       1       1       2       1
       1       2       1       1       2       1       1       2       1       1
       2       1       1       2       1       1       2       1       1       2
       1       1       2       1       1       2       1       1       2       1
       1       2       1       1       2       1       1       2       1       1
       2       1       1       2       1       1       2       1       1       2
       1       1       2       1       1       2       1       1       2       1
       1       2       1       1       2       1       1       2       1       1
       2       1       1       2       1       1       2       1       1       2
       1       1       2       1       1       2       1       1       2       1
       1       2       1       1       2       1       1       2       1       1
       2       1       1       2       1       1       2       1       1       2
       1       1       2       1       1       2       1       1       2       1
       1       2       1       1       2       1       1       2       1       1
       2       1       1       2       1       1       2       1       1       2
       1       1       2       1       1       2       1       1       2       1
       1       2       1       1       2       1       1       2       1       1
       2       1       1       2       1       1       2       1       1       2
       1       1       2       1       1       2       1       1       2       1
       1       2       1       1       2       1       1       2       1       1
       2       1       1       2       1       1       2       1       1       2
       1       1       2       1       1       2       1       1       2       1
       1       2       1       1       2       1       1       2       1       1
       2       1       1       2       1       1       2       1       1       2
       1       1       2       1       1       2       1       1       2       1
       1       2       1       1       2       1       1       2       1       1
       2       1       1       2       1       1       2       1       1       2
       1       1       2       1       1       2       1       1       2       1
       1       2       1       1       2       1       1       2       1       1
       2       1       1       2       1       1       2       1       1       2
       1       1       2       1       1       2       1       1       2       1
       1       2       1       1       2       1       1       2       1       1
       2       1       1       2       1       1       2       1       1       2
       1       1       2       1       1       2       1       1       2       1
       1       2       1       1       2       1       1       2       1       1
       2       1       1       2       1       1       2       1       1       2
       1       1       2       1       1       2       1       1       2       1
       1       2       1       1       2       1       1       2       1       1
       2       1       1       2       1       1       2       1       1       2
       1       1       2       1       1       2       1       1       2       1
       1       2       1       1       2       1       1       2       1       1
       2       1       1       2       1       1       2       1       1       2
       1       1       2       1       1       2       1       1       2       1
       1       2       1       1       2       1       1       2       1       1
       2       1       1       2       1       1       2       1       1       2
       1       1       2       1       1       2       1       1       2       1
       1       2       1       1       2       1       1       2       1       1
       2       1       1       2       1       1       2       1       1       2
       1       1       2       1       1       2       1       1       2       1
       1       2       1       1       2       1       1       2       1       1
       2       1       1       2       1       1       2       1       1       2
       1       1       2       1       1       2       1       1       2       1
       1       2       1       1       2       1       1       2       1       1
       2       1       1       2       1       1       2       1       1       2
       1       1       2       1       1       2       1       1       2       1
       1       2       1       1       2       1       1       2       1       1
       2       1       1       2       1       1       2       1       1       2
       1       1       2       1       1       2       1       1       2       1
       1       2       1       1       2       1       1       2       1       1
       2       1       1       2       1       1       2       1       1       2
       1       1       2       1       1       2       1       1       2       1
       1       2       1       1       2       1       1       2       1       1
       2       1       1       2       1       1       2       1       1       2
       1       1       2       1       1       2       1       1       2       1
       1       2       1       1       2       1       1       2       1       1
       2       1       1       2       1       1       2       1       1       2
       1       1       2       1       1       2       1       1       2       1
       1       2       1       1       2       1       1       2       1       1
       2       1       1       2       1       1       2       1       1       2
       1       1       2       1       1       2       1       1       2       1
       1       2       1       1       2       1       1       2       1       1
       2       1       1       2       1       1       2       1       1       2
       1       1       2       1       1       2       1       1       2       1
       1       2       1       1       2       1       1       2       1       1
       2       1       1       2       1       1       2       1       1       2
       1       1       2       1       1       2       1       1       2       1
       1       2       1       1       2       1       1       2       1       1
       2       1       1       2       1       1       2       1       1       2
       1       1       2       1       1       2       1       1       2       1
       1       2       1       1       2       1       1       2       1       1
       2       1       1       2       1       1       2       1       1       2
       1       1       2       1       1       2       1       1       2       1
       1       2       1       1       2       1       1       2       1       1
       2       1       1       2       1       1       2       1       1       2
       1       1       2       1       1       2       1       1       2       1
       1       2       1       1       2       1       1       2       1       1
       2       1       1       2       1       1       2       1       1       2
       1       1       2       1       1       2       1       1       2       1
       1       2       1       1       2       1       1       2       1       1
       2       1       1       2       1       1       2       1       1       2
       1       1       2       1       1       2       1       1       2       1
       1       2       1       1       2       1       1       2       1       1
       2       1       1       2       1       1       2       1       1       2
       1       1       2       1       1       2       1       1       2       1
       1       2       1       1       2       1       1       2       1       1
       2       1       1       2       1       1       2       1       1       2
       1       1       2       1       1       2       1       1       2       1
       1       2       1       1       2       1       1       2       1       1
       2       1       1       2       1       1       2       1       1       2
       1       1       2       1       1       2       1       1       2       1
       1       2       1       1       2       1       1       2       1       1
       2       1       1       2       1       1       2       1       1       2
       1       1       2       1       1       2       1       1       2       1
       1       2       1       1       2       1       1       2       1       1
       2       1       1       2       1       1       2       1       1       2
       1       1       2       1       1       2       1       1       2       1
       1       2       1       1       2       1       1       2       1       1
       2       1       1       2       1       1       2       1       1       2
       1       1       2       1       1       2       1       1       2       1
       1       2       1       1       2       1       1       2       1       1
       2       1       1       2       1       1       2       1       1       2
       1       1       2       1       1       2       1       1       2       1
       1       2       1       1       2       1       1       2       1       1
       2       1       1       2       1       1       2       1       1       2
       1       1       2       1       1       2       1       1       2       1
       1       2       1       1       2       1       1       2       1       1
       2       1       1       2       1       1       2       1       1       2
       1       1       2       1       1       2       1       1       2       1
       1       2       1       1       2       1       1       2       1       1
       2       1       1       2       1       1       2       1       1       2
       1       1       2       1       1       2       1       1       2       1
       1       2       1       1       2       1       1       2       1       1
       2       1       1       2       1       1       2       1       1       2
       1       1       2       1       1       2       1       1       2       1
       1       2       1       1       2       1       1       2       1       1
       2       1       1       2       1       1       2       1       1       2
       1       1       2       1       1       2       1       1       2       1
       1       2       1       1       2       1       1       2       1       1
       2       1       1       2       1       1       2       1       1       2
       1       1       2       1       1       2       1       1       2       1
       1       2       1       1       2       1       1       2       1       1
       2       1       1       2       1       1       2       1       1       2
       1       1       2       1       1       2       1       1       2       1
       1       2       1       1       2       1       1       2       1       1
       2       1       1       2       1       1       2       1       1       2
       1       1       2       1       1       2       1       1       2       1
       1       2       1       1       2       1       1       2       1       1
       2       1       1       2       1       1       2       1       1       2
       1       1       2       1       1       2       1       1       2       1
       1       2       1       1       2       1       1       2       1       1
       2       1       1       2       1       1       2       1       1       2
       1       1       2       1       1       2       1       1       2       1
       1       2       1       1       2       1       1       2       1       1
       2       1       1       2       1       1       2       1       1       2
       1       1       2       1       1       2       1       1       2       1
       1       2       1       1       2       1       1       2       1       1
       2       1       1       2       1       1       2       1       1       2
       1       1       2       1       1       2       1       1       2       1
       1       2       1       1       2       1       1       2       1       1
       2       1       1       2       1       1       2       1       1       2
       1       1       2       1       1       2       1       1       2       1
       1       2       1       1       2       1       1       2       1       1
       2       1       1       2       1       1       2       1       1       2
       1       1       2       1       1       2       1       1       2       1
       1       2       1       1       2       1       1       2       1       1
       2       1       1       2       1       1       2       1       1       2
       1       1       2       1       1       2       1       1       2       1
       1       2       1       1       2       1       1       2       1       1
       2       1       1       2       1       1       2       1       1       2
       1       1       2       1       1       2       1       1       2       1
       1       2       1       1       2       1       1       2       1       1
       2       1       1       2       1       1       2       1       1       2
       1       1       2       1       1       2       1       1       2       1
       1       2       1       1       2       1       1       2       1       1
       2       1       1       2       1       1       2       1       1       2
       1       1       2       1       1       2       1       1       2       1
       1       2       1       1       2       1       1       2       1       1
       2       1       1       2       1       1       2       1       1       2
       1       1       2       1       1       2       1       1       2       1
       1       2       1       1       2       1       1       2       1       1
       2       1       1       2       1       1       2       1       1       2
       1       1       2       1       1       2       1       1       2       1
       1       2       1       1       2       1       1       2       1       1
       2       1       1       2       1       1       2       1       1       2
       1       1       2       1       1       2       1       1       2       1
       1       2       1       1       2       1       1       2       1       1
       2       1       1       2       1       1       2       1       1       2
       1       1       2       1       1       2       1       1       2       1
       1       2       1       1       2       1       1       2       1       1
       2       1       1       2       1       1       2       1       1       2
       1       1       2       1       1       2       1       1       2       1
       1       2       1       1       2       1       1       2       1       1
       2       1       1       2       1       1       2       1       1       2
       1       1       2       1       1       2       1       1       2       1
       1       2       1       1       2       1       1       2       1       1
       2       1       1       2       1       1       2       1       1       2
       1       1       2       1       1       2       1       1       2       1
       1       2       1       1       2       1       1       2       1       1
       2       1       1       2       1       1       2       1       1       2
       1       1       2       1       1       2       1       1       2       1
       1       2       1       1       2       1       1       2       1       1
       2       1       1       2       1       1       2       1       1       2
       1       1       2       1       1       2       1       1       2       1
       1       2       1       1       2       1       1       2       1       1
       2       1       1       2       1       1       2       1       1       2
       1       1       2       1       1       2       1       1       2       1
       1       2       1       1       2       1       1       2       1       1
       2       1       1       2       1       1       2       1       1       2
       1       1       2       1       1       2       1       1       2       1
       1       2       1       1       2       1       1       2       1       1
       2       1       1       2       1       1       2       1       1       2
       1       1       2       1       1       2       1       1       2       1
       1       2       1       1       2       1       1       2       1       1
       2       1       1       2       1       1       2       1       1       2
       1       1       2       1       1       2       1       1       2       1
       1       2       1       1       2       1       1       2       1       1
       2       1       1       2       1       1       2       1       1       2
       1       1       2       1       1       2       1       1       2       1
       1       2       1       1       2       1       1       2       1       1
       2       1       1       2       1       1       2       1       1       2
       1       1       2       1       1       2       1       1       2       1
       1       2       1       1       2       1       1       2       1       1
       2       1       1       2       1       1       2       1       1       2
       1       1       2       1       1       2       1       1       2       1
       1       2       1       1       2       1       1       2       1       1
       2       1       1       2       1       1       2       1       1       2
       1       1       2       1       1       2       1       1       2       1
       1       2       1       1       2       1       1       2       1       1
       2       1       1       2       1       1       2       1       1       2
       1       1       2       1       1       2       1       1       2       1
       1       2       1       1       2       1       1       2       1       1
       2       1       1       2       1       1       2       1       1       2
       1       1       2       1       1       2       1       1       2       1
       1       2       1       1       2       1       1       2       1       1
       2       1       1       2       1       1       2       1       1       2
       1       1       2       1       1       2       1       1       2       1
       1       2       1       1       2       1       1       2       1       1
       2       1       1       2       1       1       2       1       1       2
       1       1       2       1       1       2       1       1       2       1
       1       2       1       1       2       1       1       2       1       1
       2       1       1       2       1       1       2       1       1       2
       1       1       2       1       1       2       1       1       2       1
       1       2       1       1       2       1       1       2       1       1
       2       1       1       2       1       1       2       1       1       2
       1       1       2       1       1       2       1       1       2       1
       1       2       1       1       2       1       1       2       1       1
       2       1       1       2       1       1       2       1       1       2
       1       1       2       1       1       2       1       1       2       1
       1       2       1       1       2       1       1       2       1       1
       2       1       1       2       1       1       2       1       1       2
       1       1       2       1       1       2       1       1       2       1
       1       2       1       1       2       1       1       2       1       1
       2       1       1       2       1       1       2       1       1       2
       1       1       2       1       1       2       1       1       2       1
       1       2       1       1       2       1       1       2       1       1
       2       1       1       2       1       1       2       1       1       2
       1       1       2       1       1       2       1       1       2       1
       1       2       1       1       2       1       1       2       1       1
       2       1       1       2       1       1       2       1       1       2
       1       1       2       1       1       2       1       1       2       1
       1       2       1       1       2       1       1       2       1       1
       2       1       1       2       1       1       2       1       1       2
       1       1       2       1       1       2       1       1       2       1
       1       2       1       1       2       1       1       2       1       1
       2       1       1       2       1       1       2       1       1       2
       1       1       2       1       1       2       1       1       2       1
       1       2       1       1       2       1       1       2       1       1
       2       1       1       2       1       1       2       1       1       2
       1       1       2       1       1       2       1       1       2       1
       1       2       1       1       2       1       1       2       1       1
       2       1       1       2       1       1       2       1       1       2
       1       1       2       1       1       2       1       1       2       1
       1       2       1       1       2       1       1       2       1       1
       2       1       1       2       1       1       2       1       1       2
       1       1       2       1       1       2       1       1       2       1
       1       2       1       1       2       1       1       2       1       1
       2       1       1       2       1       1       2       1       1       2
       1       1       2       1       1       2       1       1       2       1
       1       2       1       1       2       1       1       2       1       1
       2       1       1       2       1       1       2       1       1       2
       1       1       2       1       1       2       1       1       2       1
       1       2       1       1       2       1       1       2       1       1
       2       1       1       2       1       1       2       1       1       2
       1       1       2       1       1       2       1       1       2       1
       1       2       1       1       2       1       1       2       1       1
       2       1       1       2       1       1       2       1       1       2
       1       1       2       1       1       2       1       1       2       1
       1       2       1       1       2       1       1       2       1       1
       2       1       1       2       1       1       2       1       1       2
       1       1       2       1       1       2       1       1       2       1
       1       2       1       1       2       1       1       2       1       1
       2       1       1       2       1       1       2       1       1       2
       1       1       2       1       1       2       1       1       2       1
       1       2       1       1       2       1       1       2       1       1
       2       1       1       2       1       1       2       1       1       2
       1       1       2       1       1       2       1       1       2       1
       1       2       1       1       2       1       1       2       1       1
       2       1       1       2       1       1       2       1       1       2
       1       1       2       1       1       2       1       1       2       1
       1       2       1       1       2       1       1       2       1       1
       2       1       1       2       1       1       2       1       1       2
       1       1       2       1       1       2       1       1       2       1
       1       2       1       1       2       1       1       2       1       1
       2       1       1       2       1       1       2       1       1       2
       1       1       2       1       1       2       1       1       2       1
       1       2       1       1       2       1       1       2       1       1
       2       1       1       2       1       1       2       1       1       2
       1       1       2       1       1       2       1       1       2       1
       1       2       1       1       2       1       1       2       1       1
       2       1       1       2       1       1       2       1       1       2
       1       1       2       1       1       2       1       1       2       1
       1       2       1       1       2       1       1       2       1       1
       2       1       1       2       1       1       2       1       1       2
       1       1       2       1       1       2       1       1       2       1
       1       2       1       1       2       1       1       2       1       1
       2       1       1       2       1       1       2       1       1       2
       1       1       2       1       1       2       1       1       2       1
       1       2       1       1       2       1       1       2       1       1
       2       1       1       2       1       1       2       1       1       2
       1       1       2       1       1       2       1       1       2       1
       1       2       1       1       2       1       1       2       1       1
       2       1       1       2       1       1       2       1       1       2
       1       1       2       1       1       2       1       1       2       1
       1       2       1       1       2       1       1       2       1       1
       2       1       1       2       1       1       2       1       1       2
       1       1       2       1       1       2       1       1       2       1
       1       2       1       1       2       1       1       2       1       1
       2       1       1       2       1       1       2       1       1       2
       1       1       2       1       1       2       1       1       2       1
       1       2       1       1       2       1       1       2       1       1
       2       1       1       2       1       1       2       1       1       2
       1       1       2       1       1       2       1       1       2       1
       1       2       1       1       2       1       1       2       1       1
       2       1       1       2       1       1       2       1       1       2
       1       1       2       1       1       2       1       1       2       1
       1       2       1       1       2       1       1       2       1       1
       2       1       1       2       1       1       2       1       1       2
       1       1       2       1       1       2       1       1       2       1
       1       2       1       1       2       1       1       2       1       1
       2       1       1       2       1       1       2       1       1       2
       1       1       2       1       1       2       1       1       2       1
       1       2       1       1       2       1       1       2       1       1
       2       1       1       2       1       1       2       1       1       2
       1       1       2       1       1       2       1       1       2       1
       1       2       1       1       2       1       1       2       1       1
       2       1       1       2       1       1       2       1       1       2
       1       1       2       1       1       2       1       1       2       1
       1       2       1       1       2       1       1       2       1       1
       2       1       1       2       1       1       2       1       1       2
       1       1       2       1       1       2       1       1       2       1
       1       2       1       1       2       1       1       2       1       1
       2       1       1       2       1       1       2       1       1       2
       1       1       2       1       1       2       1       1       2       1
       1       2       1       1       2       1       1       2       1       1
       2       1       1       2       1       1       2       1       1       2
       1       1       2       1       1       2       1       1       2       1
       1       2       1       1       2       1       1       2       1       1
       2       1       1       2       1       1       2       1       1       2
       1       1       2       1       1       2       1       1       2       1
       1       2       1       1       2       1       1       2       1       1
       2       1       1       2       1       1       2       1       1       2
       1       1       2       1       1       2       1       1       2       1
       1       2       1       1       2       1       1       2       1       1
       2       1       1       2       1       1       2       1       1       2
       1       1       2       1       1       2       1       1       2       1
       1       2       1       1       2       1       1       2       1       1
       2       1       1       2       1       1       2       1       1       2
       1       1       2       1       1       2       1       1       2       1
       1       2       1       1       2       1       1       2       1       1
       2       1       1       2       1       1       2       1       1       2
       1       1       2       1       1       2       1       1       2       1
       1       2       1       1       2       1       1       2       1       1
       2       1       1       2       1       1       2       1       1       2
       1       1       2       1       1       2       1       1       2       1
       1       2       1       1       2       1       1       2       1       1
       2       1       1       2       1       1       2       1       1       2
       1       1       2       1       1       2       1       1       2       1
       1       2       1       1       2       1       1       2       1       1
       2       1       1       2       1       1       2       1       1       2
       1       1       2       1       1       2       1       1       2       1
       1       2       1       1       2       1       1       2       1       1
       2       1       1       2       1       1       2       1       1       2
       1       1       2       1       1       2       1       1       2       1
       1       2       1       1       2       1       1       2       1       1
       2       1       1       2       1       1       2       1       1       2
       1       1       2       1       1       2       1       1       2       1
       1       2       1       1       2       1       1       2       1       1
       2       1       1       2       1       1       2       1       1       2
       1       1       2       1       1       2       1       1       2       1
       1       2       1       1       2       1       1       2       1       1
       2       1       1       2       1       1       2       1       1       2
       1       1       2       1       1       2       1       1       2       1
       1       2       1       1       2       1       1       2       1       1
       2       1       1       2       1       1       2       1       1       2
       1       1       2       1       1       2       1       1       2       1
       1       2       1       1       2       1       1       2       1       1
       2       1       1       2       1       1       2       1       1       2
       1       1       2       1       1
%FLAG NONBONDED_PARM_INDEX                                                      
%FORMAT(10I8)                                                                   
       1       2       4       7      11      16      22      29      37      46
      56      67      79      92       2       3       5       8      12      17
      23      30      38      47      57      68      80      93       4       5
       6       9      13      18      24      31      39      48      58      69
      81      94       7       8       9      10      14      19      25      32
      40      49      59      70      82      95      11      12      13      14
      15      20      26      33      41      50      60      71      83      96
      16      17      18      19      20      21      27      34      42      51
      61      72      84      97      22      23      24      25      26      27
      28      35      43      52      62      73      85      98      29      30
      31      32      33      34      35      36      44      53      63      74
      86      99      37      38      39      40      41      42      43      44
      45      54      64      75      87     100      46      47      48      49
      50      51      52      53      54      55      65      76      88     101
      56      57      58      59      60      61      62      63      64      65
      66      77      89     102      67      68      69      70      71      72
      73      74      75      76      77      78      90     103      79      80
      81      82      83      84      85      86      87      88      89      90
      91     104      92      93      94      95      96      97      98      99
     100     101     102     103     104     105
%FLAG RESIDUE_LABEL                                                             
%FORMAT(20a4)                                                                   
PYR CPH MNF MON MON MON MON MON MON MON MON MNL CPT CPH MNF MON MON MON MON MON 
MON MON MON MNL CPT CPH MNF MON MON MON MON MON MON MON MON MNL CPT CPH MNF MON 
MON MON MON MON MON MON MON MNL CPT WAT WAT WAT WAT WAT WAT WAT WAT WAT WAT WAT 
WAT WAT WAT WAT WAT WAT WAT WAT WAT WAT WAT WAT WAT WAT WAT WAT WAT WAT WAT WAT 
WAT WAT WAT WAT WAT WAT WAT WAT WAT WAT WAT WAT WAT WAT WAT WAT WAT WAT WAT WAT 
WAT WAT WAT WAT WAT WAT WAT WAT WAT WAT WAT WAT WAT WAT WAT WAT WAT WAT WAT WAT 
WAT WAT WAT WAT WAT WAT WAT WAT WAT WAT WAT WAT WAT WAT WAT WAT WAT WAT WAT WAT 
WAT WAT WAT WAT WAT WAT WAT WAT WAT WAT WAT WAT WAT WAT WAT WAT WAT WAT WAT WAT 
WAT WAT WAT WAT WAT WAT WAT WAT WAT WAT WAT WAT WAT WAT WAT WAT WAT WAT WAT WAT 
WAT WAT WAT WAT WAT WAT WAT WAT WAT WAT WAT WAT WAT WAT WAT WAT WAT WAT WAT WAT 
WAT WAT WAT WAT WAT WAT WAT WAT WAT WAT WAT WAT WAT WAT WAT WAT WAT WAT WAT WAT 
WAT WAT WAT WAT WAT WAT WAT WAT WAT WAT WAT WAT WAT WAT WAT WAT WAT WAT WAT WAT 
WAT WAT WAT WAT WAT WAT WAT WAT WAT WAT WAT WAT WAT WAT WAT WAT WAT WAT WAT WAT 
WAT WAT WAT WAT WAT WAT WAT WAT WAT WAT WAT WAT WAT WAT WAT WAT WAT WAT WAT WAT 
WAT WAT WAT WAT WAT WAT WAT WAT WAT WAT WAT WAT WAT WAT WAT WAT WAT WAT WAT WAT 
WAT WAT WAT WAT WAT WAT WAT WAT WAT WAT WAT WAT WAT WAT WAT WAT WAT WAT WAT WAT 
WAT WAT WAT WAT WAT WAT WAT WAT WAT WAT WAT WAT WAT WAT WAT WAT WAT WAT WAT WAT 
WAT WAT WAT WAT WAT WAT WAT WAT WAT WAT WAT WAT WAT WAT WAT WAT WAT WAT WAT WAT 
WAT WAT WAT WAT WAT WAT WAT WAT WAT WAT WAT WAT WAT WAT WAT WAT WAT WAT WAT WAT 
WAT WAT WAT WAT WAT WAT WAT WAT WAT WAT WAT WAT WAT WAT WAT WAT WAT WAT WAT WAT 
WAT WAT WAT WAT WAT WAT WAT WAT WAT WAT WAT WAT WAT WAT WAT WAT WAT WAT WAT WAT 
WAT WAT WAT WAT WAT WAT WAT WAT WAT WAT WAT WAT WAT WAT WAT WAT WAT WAT WAT WAT 
WAT WAT WAT WAT WAT WAT WAT WAT WAT WAT WAT WAT WAT WAT WAT WAT WAT WAT WAT WAT 
WAT WAT WAT WAT WAT WAT WAT WAT WAT WAT WAT WAT WAT WAT WAT WAT WAT WAT WAT WAT 
WAT WAT WAT WAT WAT WAT WAT WAT WAT WAT WAT WAT WAT WAT WAT WAT WAT WAT WAT WAT 
WAT WAT WAT WAT WAT WAT WAT WAT WAT WAT WAT WAT WAT WAT WAT WAT WAT WAT WAT WAT 
WAT WAT WAT WAT WAT WAT WAT WAT WAT WAT WAT WAT WAT WAT WAT WAT WAT WAT WAT WAT 
WAT WAT WAT WAT WAT WAT WAT WAT WAT WAT WAT WAT WAT WAT WAT WAT WAT WAT WAT WAT 
WAT WAT WAT WAT WAT WAT WAT WAT WAT WAT WAT WAT WAT WAT WAT WAT WAT WAT WAT WAT 
WAT WAT WAT WAT WAT WAT WAT WAT WAT WAT WAT WAT WAT WAT WAT WAT WAT WAT WAT WAT 
WAT WAT WAT WAT WAT WAT WAT WAT WAT WAT WAT WAT WAT WAT WAT WAT WAT WAT WAT WAT 
WAT WAT WAT WAT WAT WAT WAT WAT WAT WAT WAT WAT WAT WAT WAT WAT WAT WAT WAT WAT 
WAT WAT WAT WAT WAT WAT WAT WAT WAT WAT WAT WAT WAT WAT WAT WAT WAT WAT WAT WAT 
WAT WAT WAT WAT WAT WAT WAT WAT WAT WAT WAT WAT WAT WAT WAT WAT WAT WAT WAT WAT 
WAT WAT WAT WAT WAT WAT WAT WAT WAT WAT WAT WAT WAT WAT WAT WAT WAT WAT WAT WAT 
WAT WAT WAT WAT WAT WAT WAT WAT WAT WAT WAT WAT WAT WAT WAT WAT WAT WAT WAT WAT 
WAT WAT WAT WAT WAT WAT WAT WAT WAT WAT WAT WAT WAT WAT WAT WAT WAT WAT WAT WAT 
WAT WAT WAT WAT WAT WAT WAT WAT WAT WAT WAT WAT WAT WAT WAT WAT WAT WAT WAT WAT 
WAT WAT WAT WAT WAT WAT WAT WAT WAT WAT WAT WAT WAT WAT WAT WAT WAT WAT WAT WAT 
WAT WAT WAT WAT WAT WAT WAT WAT WAT WAT WAT WAT WAT WAT WAT WAT WAT WAT WAT WAT 
WAT WAT WAT WAT WAT WAT WAT WAT WAT WAT WAT WAT WAT WAT WAT WAT WAT WAT WAT WAT 
WAT WAT WAT WAT WAT WAT WAT WAT WAT WAT WAT WAT WAT WAT WAT WAT WAT WAT WAT WAT 
WAT WAT WAT WAT WAT WAT WAT WAT WAT WAT WAT WAT WAT WAT WAT WAT WAT WAT WAT WAT 
WAT WAT WAT WAT WAT WAT WAT WAT WAT WAT WAT WAT WAT WAT WAT WAT WAT WAT WAT WAT 
WAT WAT WAT WAT WAT WAT WAT WAT WAT WAT WAT WAT WAT WAT WAT WAT WAT WAT WAT WAT 
WAT WAT WAT WAT WAT WAT WAT WAT WAT WAT WAT WAT WAT WAT WAT WAT WAT WAT WAT WAT 
WAT WAT WAT WAT WAT WAT WAT WAT WAT WAT WAT WAT WAT WAT WAT WAT WAT WAT WAT WAT 
WAT WAT WAT WAT WAT WAT WAT WAT WAT WAT WAT WAT WAT WAT WAT WAT WAT WAT WAT WAT 
WAT WAT WAT WAT WAT WAT WAT WAT WAT WAT WAT WAT WAT WAT WAT WAT WAT WAT WAT WAT 
WAT WAT WAT WAT WAT WAT WAT WAT WAT WAT WAT WAT WAT WAT WAT WAT WAT WAT WAT WAT 
WAT WAT WAT WAT WAT WAT WAT WAT WAT WAT WAT WAT WAT WAT WAT WAT WAT WAT WAT WAT 
WAT WAT WAT WAT WAT WAT WAT WAT WAT WAT WAT WAT WAT WAT WAT WAT WAT WAT WAT WAT 
WAT WAT WAT WAT WAT WAT WAT WAT WAT WAT WAT WAT WAT WAT WAT WAT WAT WAT WAT WAT 
WAT WAT WAT WAT WAT WAT WAT WAT WAT WAT WAT WAT WAT WAT WAT WAT WAT WAT WAT WAT 
WAT WAT WAT WAT WAT WAT WAT WAT WAT WAT WAT WAT WAT WAT WAT WAT WAT WAT WAT WAT 
WAT WAT WAT WAT WAT WAT WAT WAT WAT WAT WAT WAT WAT WAT WAT WAT WAT WAT WAT WAT 
WAT WAT WAT WAT WAT WAT WAT WAT WAT WAT WAT WAT WAT WAT WAT WAT WAT WAT WAT WAT 
WAT WAT WAT WAT WAT WAT WAT WAT WAT WAT WAT WAT WAT WAT WAT WAT WAT WAT WAT WAT 
WAT WAT WAT WAT WAT WAT WAT WAT WAT WAT WAT WAT WAT WAT WAT WAT WAT WAT WAT WAT 
WAT WAT WAT WAT WAT WAT WAT WAT WAT WAT WAT WAT WAT WAT WAT WAT WAT WAT WAT WAT 
WAT WAT WAT WAT WAT WAT WAT WAT WAT WAT WAT WAT WAT WAT WAT WAT WAT WAT WAT WAT 
WAT WAT WAT WAT WAT WAT WAT WAT WAT WAT WAT WAT WAT WAT WAT WAT WAT WAT WAT WAT 
WAT WAT WAT WAT WAT WAT WAT WAT WAT WAT WAT WAT WAT WAT WAT WAT WAT WAT WAT WAT 
WAT WAT WAT WAT WAT WAT WAT WAT WAT WAT WAT WAT WAT WAT WAT WAT WAT WAT WAT WAT 
WAT WAT WAT WAT WAT WAT WAT WAT WAT WAT WAT WAT WAT WAT WAT WAT WAT WAT WAT WAT 
WAT WAT WAT WAT WAT WAT WAT WAT WAT WAT WAT WAT WAT WAT WAT WAT WAT WAT WAT WAT 
WAT WAT WAT WAT WAT WAT WAT WAT WAT WAT WAT WAT WAT WAT WAT WAT WAT WAT WAT WAT 
WAT WAT WAT WAT WAT WAT WAT WAT WAT WAT WAT WAT WAT WAT WAT WAT WAT WAT WAT WAT 
WAT WAT WAT WAT WAT WAT WAT WAT WAT WAT WAT WAT WAT WAT WAT WAT WAT WAT WAT WAT 
WAT WAT WAT WAT WAT WAT WAT WAT WAT WAT WAT WAT WAT WAT WAT WAT WAT WAT WAT WAT 
WAT WAT WAT WAT WAT WAT WAT WAT WAT WAT WAT WAT WAT WAT WAT WAT WAT WAT WAT WAT 
WAT WAT WAT WAT WAT WAT WAT WAT WAT WAT WAT WAT WAT WAT WAT WAT WAT WAT WAT WAT 
WAT WAT WAT WAT WAT WAT WAT WAT WAT WAT WAT WAT WAT WAT WAT WAT WAT WAT WAT WAT 
WAT WAT WAT WAT WAT WAT WAT WAT WAT WAT WAT WAT WAT WAT WAT WAT WAT WAT WAT WAT 
WAT WAT WAT WAT WAT WAT WAT WAT WAT WAT WAT WAT WAT WAT WAT WAT WAT WAT WAT WAT 
WAT WAT WAT WAT WAT WAT WAT WAT WAT WAT WAT WAT WAT WAT WAT WAT WAT WAT WAT WAT 
WAT WAT WAT WAT WAT WAT WAT WAT WAT WAT WAT WAT WAT WAT WAT WAT WAT WAT WAT WAT 
WAT WAT WAT WAT WAT WAT WAT WAT WAT WAT WAT WAT WAT WAT WAT WAT WAT WAT WAT WAT 
WAT WAT WAT WAT WAT WAT WAT WAT WAT WAT WAT WAT WAT WAT WAT WAT WAT WAT WAT WAT 
WAT WAT WAT WAT WAT WAT WAT WAT WAT WAT WAT WAT WAT WAT WAT WAT WAT WAT WAT WAT 
WAT WAT WAT WAT WAT WAT WAT WAT WAT WAT WAT WAT WAT WAT WAT WAT WAT WAT WAT WAT 
WAT WAT WAT WAT WAT WAT WAT WAT WAT WAT WAT WAT WAT WAT WAT WAT WAT WAT WAT WAT 
WAT WAT WAT WAT WAT WAT WAT WAT WAT WAT WAT WAT WAT WAT WAT WAT WAT WAT WAT WAT 
WAT WAT WAT WAT WAT WAT WAT WAT WAT WAT WAT WAT WAT WAT WAT WAT WAT WAT WAT WAT 
WAT WAT WAT WAT WAT WAT WAT WAT WAT WAT WAT WAT WAT WAT WAT WAT WAT WAT WAT WAT 
WAT WAT WAT WAT WAT WAT WAT WAT WAT WAT WAT WAT WAT WAT WAT WAT WAT WAT WAT WAT 
WAT WAT WAT WAT WAT WAT WAT WAT WAT WAT WAT WAT WAT WAT WAT WAT WAT WAT WAT WAT 
WAT WAT WAT WAT WAT WAT WAT WAT WAT WAT WAT WAT WAT WAT WAT WAT WAT WAT WAT WAT 
WAT WAT WAT WAT WAT WAT WAT WAT WAT WAT WAT WAT WAT WAT WAT WAT WAT WAT WAT WAT 
WAT WAT WAT WAT WAT WAT WAT WAT WAT WAT WAT WAT WAT WAT WAT WAT WAT WAT WAT WAT 
WAT WAT WAT WAT WAT WAT WAT WAT WAT WAT WAT WAT WAT WAT WAT WAT WAT WAT WAT WAT 
WAT WAT WAT WAT WAT WAT WAT WAT WAT WAT WAT WAT WAT WAT WAT WAT WAT WAT WAT WAT 
WAT WAT WAT WAT WAT WAT WAT WAT WAT WAT WAT WAT WAT WAT WAT WAT WAT WAT WAT WAT 
WAT WAT WAT WAT WAT WAT WAT WAT WAT WAT WAT WAT WAT WAT WAT WAT WAT WAT WAT WAT 
WAT WAT WAT WAT WAT WAT WAT WAT WAT WAT WAT WAT WAT WAT WAT WAT WAT WAT WAT WAT 
WAT WAT WAT WAT WAT WAT WAT WAT WAT WAT WAT WAT WAT WAT WAT WAT WAT WAT WAT WAT 
WAT WAT WAT WAT WAT WAT WAT WAT WAT WAT WAT WAT WAT WAT WAT WAT WAT WAT WAT WAT 
WAT WAT WAT WAT WAT WAT WAT WAT WAT WAT WAT WAT WAT WAT WAT WAT WAT WAT WAT WAT 
WAT WAT WAT WAT WAT WAT WAT WAT WAT WAT WAT WAT WAT WAT WAT WAT WAT WAT WAT WAT 
WAT WAT WAT WAT WAT WAT WAT WAT WAT WAT WAT WAT WAT WAT WAT WAT WAT WAT WAT WAT 
WAT WAT WAT WAT WAT WAT WAT WAT WAT WAT WAT WAT WAT WAT WAT WAT WAT WAT WAT WAT 
WAT WAT WAT WAT WAT WAT WAT WAT WAT WAT WAT WAT WAT WAT WAT WAT WAT WAT WAT WAT 
WAT WAT WAT WAT WAT WAT WAT WAT WAT WAT WAT WAT WAT WAT WAT WAT WAT WAT WAT WAT 
WAT WAT WAT WAT WAT WAT WAT WAT WAT WAT WAT WAT WAT WAT WAT WAT WAT WAT WAT WAT 
WAT WAT WAT WAT WAT WAT WAT WAT WAT WAT WAT WAT WAT WAT WAT WAT WAT WAT WAT WAT 
WAT WAT WAT WAT WAT WAT WAT WAT WAT WAT WAT WAT WAT WAT WAT WAT WAT WAT WAT WAT 
WAT WAT WAT WAT WAT WAT WAT WAT WAT WAT WAT WAT WAT WAT WAT WAT WAT WAT WAT WAT 
WAT WAT WAT WAT WAT WAT WAT WAT WAT WAT WAT WAT WAT WAT WAT WAT WAT WAT WAT WAT 
WAT WAT WAT WAT WAT WAT WAT WAT WAT WAT WAT WAT WAT WAT WAT WAT WAT WAT WAT WAT 
WAT WAT WAT WAT WAT WAT WAT WAT WAT WAT WAT WAT WAT WAT WAT WAT WAT WAT WAT WAT 
WAT WAT WAT WAT WAT WAT WAT WAT WAT WAT WAT WAT WAT WAT WAT WAT WAT WAT WAT WAT 
WAT WAT WAT WAT WAT WAT WAT WAT WAT WAT WAT WAT WAT WAT WAT WAT WAT WAT WAT WAT 
WAT WAT WAT WAT WAT WAT WAT WAT WAT WAT WAT WAT WAT WAT WAT WAT WAT WAT WAT WAT 
WAT WAT WAT WAT WAT WAT WAT WAT WAT WAT WAT WAT WAT WAT WAT WAT WAT WAT WAT WAT 
WAT WAT WAT WAT WAT WAT WAT WAT WAT WAT WAT WAT WAT WAT WAT WAT WAT WAT WAT WAT 
WAT WAT WAT WAT WAT WAT WAT WAT WAT WAT WAT WAT WAT WAT WAT WAT WAT WAT WAT WAT 
WAT WAT WAT WAT WAT WAT WAT WAT WAT WAT WAT WAT WAT WAT WAT WAT WAT WAT WAT WAT 
WAT WAT WAT WAT WAT WAT WAT WAT WAT WAT WAT WAT WAT WAT WAT WAT WAT WAT WAT WAT 
WAT WAT WAT WAT WAT WAT WAT WAT WAT WAT WAT WAT WAT WAT WAT WAT WAT WAT WAT WAT 
WAT WAT WAT WAT WAT WAT WAT WAT WAT WAT WAT WAT WAT WAT WAT WAT WAT WAT WAT WAT 
WAT WAT WAT WAT WAT WAT WAT WAT WAT WAT WAT WAT WAT WAT WAT WAT WAT WAT WAT WAT 
WAT WAT WAT WAT WAT WAT WAT WAT WAT WAT WAT WAT WAT WAT WAT WAT WAT WAT WAT WAT 
WAT WAT WAT WAT WAT WAT WAT WAT WAT WAT WAT WAT WAT WAT WAT WAT WAT WAT WAT WAT 
WAT WAT WAT WAT WAT WAT WAT WAT WAT WAT WAT WAT WAT WAT WAT WAT WAT WAT WAT WAT 
WAT WAT WAT WAT WAT WAT WAT WAT WAT WAT WAT WAT WAT WAT WAT WAT WAT WAT WAT WAT 
WAT WAT WAT WAT WAT WAT WAT WAT WAT WAT WAT WAT WAT WAT WAT WAT WAT WAT WAT WAT 
WAT WAT WAT WAT WAT WAT WAT WAT WAT WAT WAT WAT WAT WAT WAT WAT WAT WAT WAT WAT 
WAT WAT WAT WAT WAT WAT WAT WAT WAT WAT WAT WAT WAT WAT WAT WAT WAT WAT WAT WAT 
WAT WAT WAT WAT WAT WAT WAT WAT WAT WAT WAT WAT WAT WAT WAT WAT WAT WAT WAT WAT 
WAT WAT WAT WAT WAT WAT WAT WAT WAT WAT WAT WAT WAT WAT WAT WAT WAT WAT WAT WAT 
WAT WAT WAT WAT WAT WAT WAT WAT WAT WAT WAT WAT WAT WAT WAT WAT WAT WAT WAT WAT 
WAT WAT WAT WAT WAT WAT WAT WAT WAT WAT WAT WAT WAT WAT WAT WAT WAT WAT WAT WAT 
WAT WAT WAT WAT WAT WAT WAT WAT WAT WAT WAT WAT WAT WAT WAT WAT WAT WAT WAT WAT 
WAT WAT WAT WAT WAT WAT WAT WAT WAT WAT WAT WAT WAT WAT WAT WAT WAT WAT WAT WAT 
WAT WAT WAT WAT WAT WAT WAT WAT WAT WAT WAT WAT WAT WAT WAT WAT WAT WAT WAT WAT 
WAT WAT WAT WAT WAT WAT WAT WAT WAT WAT WAT WAT WAT WAT WAT WAT WAT WAT WAT WAT 
WAT WAT WAT WAT WAT WAT WAT WAT WAT WAT WAT WAT WAT WAT WAT WAT WAT WAT WAT WAT 
WAT WAT WAT WAT WAT WAT WAT WAT WAT WAT WAT WAT WAT WAT WAT WAT WAT WAT WAT WAT 
WAT WAT WAT WAT WAT WAT WAT WAT WAT WAT WAT WAT WAT WAT WAT WAT WAT WAT WAT WAT 
WAT WAT WAT WAT WAT WAT WAT WAT WAT WAT WAT WAT WAT WAT WAT WAT WAT WAT WAT WAT 
WAT WAT WAT WAT WAT WAT WAT WAT WAT WAT WAT WAT WAT WAT WAT WAT WAT WAT WAT WAT 
WAT WAT WAT WAT WAT WAT WAT WAT WAT WAT WAT WAT WAT WAT WAT WAT WAT WAT WAT WAT 
WAT WAT WAT WAT WAT WAT WAT WAT WAT WAT WAT WAT WAT WAT WAT WAT WAT WAT WAT WAT 
WAT WAT WAT WAT WAT WAT WAT WAT WAT WAT WAT WAT WAT WAT WAT WAT WAT WAT WAT WAT 
WAT WAT WAT WAT WAT WAT WAT WAT WAT WAT WAT WAT WAT WAT WAT WAT WAT WAT WAT WAT 
WAT WAT WAT WAT WAT WAT WAT WAT WAT WAT WAT WAT WAT WAT WAT WAT WAT WAT WAT WAT 
WAT WAT WAT WAT WAT WAT WAT WAT WAT WAT WAT WAT WAT WAT WAT WAT WAT WAT WAT WAT 
WAT WAT WAT WAT WAT WAT WAT WAT WAT WAT WAT WAT WAT WAT WAT WAT WAT WAT WAT WAT 
WAT WAT WAT WAT WAT WAT WAT WAT WAT WAT WAT WAT WAT WAT WAT WAT WAT WAT WAT WAT 
WAT WAT WAT WAT WAT WAT WAT WAT WAT WAT WAT WAT WAT WAT WAT WAT WAT WAT WAT WAT 
WAT WAT WAT WAT WAT WAT WAT WAT WAT WAT WAT WAT WAT WAT WAT WAT WAT WAT WAT WAT 
WAT WAT WAT WAT WAT WAT WAT WAT WAT WAT WAT WAT WAT WAT WAT WAT WAT WAT WAT WAT 
WAT WAT WAT WAT WAT WAT WAT WAT WAT WAT WAT WAT WAT WAT WAT WAT WAT WAT WAT WAT 
WAT WAT WAT WAT WAT WAT WAT WAT WAT WAT WAT WAT WAT WAT WAT WAT WAT WAT WAT WAT 
WAT WAT WAT WAT WAT WAT WAT WAT WAT WAT WAT WAT WAT WAT WAT WAT WAT WAT WAT WAT 
WAT WAT WAT WAT WAT WAT WAT WAT WAT WAT WAT WAT WAT WAT WAT WAT WAT WAT WAT WAT 
WAT WAT WAT WAT WAT WAT WAT WAT WAT WAT WAT WAT WAT WAT WAT WAT WAT WAT WAT WAT 
WAT WAT WAT WAT WAT WAT WAT WAT WAT WAT WAT WAT WAT WAT WAT WAT WAT WAT WAT WAT 
WAT WAT WAT WAT WAT WAT WAT WAT WAT WAT WAT WAT WAT WAT WAT WAT WAT WAT WAT WAT 
WAT WAT WAT WAT WAT WAT WAT WAT WAT WAT WAT WAT WAT WAT WAT WAT WAT WAT WAT WAT 
WAT WAT WAT WAT WAT WAT WAT WAT WAT WAT WAT WAT WAT WAT WAT WAT WAT WAT WAT WAT 
WAT WAT WAT WAT WAT WAT WAT WAT WAT WAT WAT WAT WAT WAT WAT WAT WAT WAT WAT WAT 
WAT WAT WAT WAT WAT WAT WAT WAT WAT WAT WAT WAT WAT WAT WAT WAT WAT WAT WAT WAT 
WAT WAT WAT WAT WAT WAT WAT WAT WAT WAT WAT WAT WAT WAT WAT WAT WAT WAT WAT WAT 
WAT WAT WAT WAT WAT WAT WAT WAT WAT WAT WAT WAT WAT WAT WAT WAT WAT WAT WAT WAT 
WAT WAT WAT WAT WAT WAT WAT WAT WAT WAT WAT WAT WAT WAT WAT WAT WAT WAT WAT WAT 
WAT WAT WAT WAT WAT WAT WAT WAT WAT WAT WAT WAT WAT WAT WAT WAT WAT WAT WAT WAT 
WAT WAT WAT WAT WAT WAT WAT WAT WAT WAT WAT WAT WAT WAT WAT WAT WAT WAT WAT WAT 
WAT WAT WAT WAT WAT WAT WAT WAT WAT WAT WAT WAT WAT WAT WAT WAT WAT WAT WAT WAT 
WAT WAT WAT WAT WAT WAT WAT WAT WAT WAT WAT WAT WAT WAT WAT WAT WAT WAT WAT WAT 
WAT WAT WAT WAT WAT WAT WAT WAT WAT WAT WAT WAT WAT WAT WAT WAT WAT WAT WAT WAT 
WAT WAT WAT WAT WAT WAT WAT WAT WAT WAT WAT WAT WAT WAT WAT WAT WAT WAT WAT WAT 
WAT WAT WAT WAT WAT WAT WAT WAT WAT WAT WAT WAT WAT WAT WAT WAT WAT WAT WAT WAT 
WAT WAT WAT WAT WAT WAT WAT WAT WAT WAT WAT WAT WAT WAT WAT WAT WAT WAT WAT WAT 
WAT WAT WAT WAT WAT WAT WAT WAT WAT WAT WAT WAT WAT WAT WAT WAT WAT WAT WAT WAT 
WAT WAT WAT WAT WAT WAT WAT WAT WAT WAT WAT WAT WAT WAT WAT WAT WAT WAT WAT WAT 
WAT WAT WAT WAT WAT WAT WAT WAT WAT WAT WAT WAT WAT WAT WAT WAT WAT WAT WAT WAT 
WAT WAT WAT WAT WAT WAT WAT WAT WAT WAT WAT WAT WAT WAT WAT WAT WAT WAT WAT WAT 
WAT WAT WAT WAT WAT WAT WAT WAT WAT WAT WAT WAT WAT WAT WAT WAT WAT WAT WAT WAT 
WAT WAT WAT WAT WAT WAT WAT WAT WAT WAT WAT WAT WAT WAT WAT WAT WAT WAT WAT WAT 
WAT WAT WAT WAT WAT WAT WAT WAT WAT WAT WAT WAT WAT WAT WAT WAT WAT WAT WAT WAT 
WAT WAT WAT WAT WAT WAT WAT WAT WAT WAT WAT WAT WAT WAT WAT WAT WAT WAT WAT WAT 
WAT WAT WAT WAT WAT WAT WAT WAT WAT WAT WAT WAT WAT WAT WAT WAT WAT WAT WAT WAT 
WAT WAT WAT WAT WAT WAT WAT WAT WAT WAT WAT WAT WAT WAT WAT WAT WAT WAT WAT WAT 
WAT WAT WAT WAT WAT WAT WAT WAT WAT WAT WAT WAT WAT WAT WAT WAT WAT WAT WAT WAT 
WAT WAT WAT WAT WAT WAT WAT WAT WAT WAT WAT WAT WAT WAT WAT WAT WAT WAT WAT WAT 
WAT WAT WAT WAT WAT WAT WAT WAT WAT WAT WAT WAT WAT WAT WAT WAT WAT WAT WAT WAT 
WAT WAT WAT WAT WAT WAT WAT WAT WAT WAT WAT WAT WAT WAT WAT WAT WAT WAT WAT WAT 
WAT WAT WAT WAT WAT WAT WAT WAT WAT WAT WAT WAT WAT WAT WAT WAT WAT WAT WAT WAT 
WAT WAT WAT WAT WAT WAT WAT WAT WAT WAT WAT WAT WAT WAT WAT WAT WAT WAT WAT WAT 
WAT WAT WAT WAT WAT WAT WAT WAT WAT WAT WAT WAT WAT WAT WAT WAT WAT WAT WAT WAT 
WAT WAT WAT WAT WAT WAT WAT WAT WAT WAT WAT WAT WAT WAT WAT WAT WAT WAT WAT WAT 
WAT WAT WAT WAT WAT WAT WAT WAT WAT WAT WAT WAT WAT WAT WAT WAT WAT WAT WAT WAT 
WAT WAT WAT WAT WAT WAT WAT WAT WAT WAT WAT WAT WAT WAT WAT WAT WAT WAT WAT WAT 
WAT WAT WAT WAT WAT WAT WAT WAT WAT WAT WAT WAT WAT WAT WAT WAT WAT WAT WAT WAT 
WAT WAT WAT WAT WAT WAT WAT WAT WAT WAT WAT WAT WAT WAT WAT WAT WAT WAT WAT WAT 
WAT WAT WAT WAT WAT WAT WAT WAT WAT WAT WAT WAT WAT WAT WAT WAT WAT WAT WAT WAT 
WAT WAT WAT WAT WAT WAT WAT WAT WAT WAT WAT WAT WAT WAT WAT WAT WAT WAT WAT WAT 
WAT WAT WAT WAT WAT WAT WAT WAT WAT WAT WAT WAT WAT WAT WAT WAT WAT WAT WAT WAT 
WAT WAT WAT WAT WAT WAT WAT WAT WAT WAT WAT WAT WAT WAT WAT WAT WAT WAT WAT WAT 
WAT WAT WAT WAT WAT WAT WAT WAT WAT WAT WAT WAT WAT WAT WAT WAT WAT WAT WAT WAT 
WAT WAT WAT WAT WAT WAT WAT WAT WAT WAT WAT WAT WAT WAT WAT WAT WAT WAT WAT WAT 
WAT WAT WAT WAT WAT WAT WAT WAT WAT WAT WAT WAT WAT WAT WAT WAT WAT WAT WAT WAT 
WAT WAT WAT WAT WAT WAT WAT WAT WAT WAT WAT WAT WAT WAT WAT WAT WAT WAT WAT WAT 
WAT WAT WAT WAT WAT WAT WAT WAT WAT WAT WAT WAT WAT WAT WAT WAT WAT WAT WAT WAT 
WAT WAT WAT WAT WAT WAT WAT WAT WAT WAT WAT WAT WAT WAT WAT WAT WAT WAT WAT WAT 
WAT WAT WAT WAT WAT WAT WAT WAT WAT WAT WAT WAT WAT WAT WAT WAT WAT WAT WAT WAT 
WAT WAT WAT WAT WAT WAT WAT WAT WAT WAT WAT WAT WAT WAT WAT WAT WAT WAT WAT WAT 
WAT WAT WAT WAT WAT WAT WAT WAT WAT WAT WAT WAT WAT WAT WAT WAT WAT WAT WAT WAT 
WAT WAT WAT WAT WAT WAT WAT WAT WAT WAT WAT WAT WAT WAT WAT WAT WAT WAT WAT WAT 
WAT WAT WAT WAT WAT WAT WAT WAT WAT WAT WAT WAT WAT WAT WAT WAT WAT WAT WAT WAT 
WAT WAT WAT WAT WAT WAT WAT WAT WAT WAT WAT WAT WAT WAT WAT WAT WAT WAT WAT WAT 
WAT WAT WAT WAT WAT WAT WAT WAT WAT WAT WAT WAT WAT WAT WAT WAT WAT WAT WAT WAT 
WAT WAT WAT WAT WAT WAT WAT WAT WAT WAT WAT WAT WAT WAT WAT WAT WAT WAT WAT WAT 
WAT WAT WAT WAT WAT WAT WAT WAT WAT WAT WAT WAT WAT WAT WAT WAT WAT WAT WAT WAT 
WAT WAT WAT WAT WAT WAT WAT WAT WAT WAT WAT WAT WAT WAT WAT WAT WAT WAT WAT WAT 
WAT WAT WAT WAT WAT WAT WAT WAT WAT WAT WAT WAT WAT WAT WAT WAT WAT WAT WAT WAT 
WAT WAT WAT WAT WAT WAT WAT WAT WAT WAT WAT WAT WAT WAT WAT WAT WAT WAT WAT WAT 
WAT WAT WAT WAT WAT WAT WAT WAT WAT WAT WAT WAT WAT WAT WAT WAT WAT WAT WAT WAT 
WAT WAT WAT WAT WAT WAT WAT WAT WAT WAT WAT WAT WAT WAT WAT WAT WAT WAT WAT WAT 
WAT WAT WAT WAT WAT WAT WAT WAT WAT WAT WAT WAT WAT WAT WAT WAT WAT WAT WAT WAT 
WAT WAT WAT WAT WAT WAT WAT WAT WAT WAT WAT WAT WAT WAT WAT WAT WAT WAT WAT WAT 
WAT WAT WAT WAT WAT WAT WAT WAT WAT WAT WAT WAT WAT WAT WAT WAT WAT WAT WAT WAT 
WAT WAT WAT WAT WAT WAT WAT WAT WAT WAT WAT WAT WAT WAT WAT WAT WAT WAT WAT WAT 
WAT WAT WAT WAT WAT WAT WAT WAT WAT WAT WAT WAT WAT WAT WAT WAT WAT WAT WAT WAT 
WAT WAT WAT WAT WAT WAT WAT WAT WAT WAT WAT WAT WAT WAT WAT WAT WAT WAT WAT WAT 
WAT WAT WAT WAT WAT WAT WAT WAT WAT WAT WAT WAT WAT WAT WAT WAT WAT WAT WAT WAT 
WAT WAT WAT WAT WAT WAT WAT WAT WAT WAT WAT WAT WAT WAT WAT WAT WAT WAT WAT WAT 
WAT WAT WAT WAT WAT WAT WAT WAT WAT WAT WAT WAT WAT WAT WAT WAT WAT WAT WAT WAT 
WAT WAT WAT WAT WAT WAT WAT WAT WAT WAT WAT WAT WAT WAT WAT WAT WAT WAT WAT WAT 
WAT WAT WAT WAT WAT WAT WAT WAT WAT WAT WAT WAT WAT WAT WAT WAT WAT WAT WAT WAT 
WAT WAT WAT WAT WAT WAT WAT WAT WAT WAT WAT WAT WAT WAT WAT WAT WAT WAT WAT WAT 
WAT WAT WAT WAT WAT WAT WAT WAT WAT WAT WAT WAT WAT WAT WAT WAT WAT WAT WAT WAT 
WAT WAT WAT WAT WAT WAT WAT WAT WAT WAT WAT WAT WAT WAT WAT WAT WAT WAT WAT WAT 
WAT WAT WAT WAT WAT WAT WAT WAT WAT WAT WAT WAT WAT WAT WAT WAT WAT WAT WAT WAT 
WAT WAT WAT WAT WAT WAT WAT WAT WAT WAT WAT WAT WAT WAT WAT WAT WAT WAT WAT WAT 
WAT WAT WAT WAT WAT WAT WAT WAT WAT WAT WAT WAT WAT WAT WAT WAT WAT WAT WAT WAT 
WAT WAT WAT WAT WAT WAT WAT WAT WAT WAT WAT WAT WAT WAT WAT WAT WAT WAT WAT WAT 
WAT WAT WAT WAT WAT WAT WAT WAT WAT WAT WAT WAT WAT WAT WAT WAT WAT WAT WAT WAT 
WAT WAT WAT WAT WAT WAT WAT WAT WAT WAT WAT WAT WAT WAT WAT WAT WAT WAT WAT WAT 
WAT WAT WAT WAT WAT WAT WAT WAT WAT WAT WAT WAT WAT WAT WAT WAT WAT WAT WAT WAT 
WAT WAT WAT WAT WAT WAT WAT WAT WAT WAT WAT WAT WAT WAT WAT WAT WAT WAT WAT WAT 
WAT WAT WAT WAT WAT WAT WAT WAT WAT WAT WAT WAT WAT WAT WAT WAT WAT WAT WAT WAT 
WAT WAT WAT WAT WAT WAT WAT WAT WAT WAT WAT WAT WAT WAT WAT WAT WAT WAT WAT WAT 
WAT WAT WAT WAT WAT WAT WAT WAT WAT WAT WAT WAT WAT WAT WAT WAT WAT WAT WAT WAT 
WAT WAT WAT WAT WAT WAT WAT WAT WAT WAT WAT WAT WAT WAT WAT WAT WAT WAT WAT WAT 
WAT WAT WAT WAT WAT WAT WAT WAT WAT WAT WAT WAT WAT WAT WAT WAT WAT WAT WAT WAT 
WAT WAT WAT WAT WAT WAT WAT WAT WAT WAT WAT WAT WAT WAT WAT WAT WAT WAT WAT WAT 
WAT WAT WAT WAT WAT WAT WAT WAT WAT WAT WAT WAT WAT WAT WAT WAT WAT WAT WAT WAT 
WAT WAT WAT WAT WAT WAT WAT WAT WAT WAT WAT WAT WAT WAT WAT WAT WAT WAT WAT WAT 
WAT WAT WAT WAT WAT WAT WAT WAT WAT WAT WAT WAT WAT WAT WAT WAT WAT WAT WAT WAT 
WAT WAT WAT WAT WAT WAT WAT WAT WAT WAT WAT WAT WAT WAT WAT WAT WAT WAT WAT WAT 
WAT WAT WAT WAT WAT WAT WAT WAT WAT WAT WAT WAT WAT WAT WAT WAT WAT WAT WAT WAT 
WAT WAT WAT WAT WAT WAT WAT WAT WAT WAT WAT WAT WAT WAT WAT WAT WAT WAT WAT WAT 
WAT WAT WAT WAT WAT WAT WAT WAT WAT WAT WAT WAT WAT WAT WAT WAT WAT WAT WAT WAT 
WAT WAT WAT WAT WAT WAT WAT WAT WAT WAT WAT WAT WAT WAT WAT WAT WAT WAT WAT WAT 
WAT WAT WAT WAT WAT WAT WAT WAT WAT WAT WAT WAT WAT WAT WAT WAT WAT WAT WAT WAT 
WAT WAT WAT WAT WAT WAT WAT WAT WAT WAT WAT WAT WAT WAT WAT WAT WAT WAT WAT WAT 
WAT WAT WAT WAT WAT WAT WAT WAT WAT WAT WAT WAT WAT WAT WAT WAT WAT WAT WAT WAT 
WAT WAT WAT WAT WAT WAT WAT WAT WAT WAT WAT WAT WAT WAT WAT WAT WAT WAT WAT WAT 
WAT WAT WAT WAT WAT WAT WAT WAT WAT WAT WAT WAT WAT WAT WAT WAT WAT WAT WAT WAT 
WAT WAT WAT WAT WAT WAT WAT WAT WAT WAT WAT WAT WAT WAT WAT WAT WAT WAT WAT WAT 
WAT WAT WAT WAT WAT WAT WAT WAT WAT WAT WAT WAT WAT WAT WAT WAT WAT WAT WAT WAT 
WAT WAT WAT WAT WAT WAT WAT WAT WAT WAT WAT WAT WAT WAT WAT WAT WAT WAT WAT WAT 
WAT WAT WAT WAT WAT WAT WAT WAT WAT WAT WAT WAT WAT WAT WAT WAT WAT WAT WAT WAT 
WAT WAT WAT WAT WAT WAT WAT WAT WAT WAT WAT WAT WAT WAT WAT WAT WAT WAT WAT WAT 
WAT WAT WAT WAT WAT WAT WAT WAT WAT WAT WAT WAT WAT WAT WAT WAT WAT WAT WAT WAT 
WAT WAT WAT WAT WAT WAT WAT WAT WAT WAT WAT WAT WAT WAT WAT WAT WAT WAT WAT WAT 
WAT WAT WAT WAT WAT WAT WAT WAT WAT WAT WAT WAT WAT WAT WAT WAT WAT WAT WAT WAT 
WAT WAT WAT WAT WAT WAT WAT WAT WAT WAT WAT WAT WAT WAT WAT WAT WAT WAT WAT WAT 
WAT WAT WAT WAT WAT WAT WAT WAT WAT WAT WAT WAT WAT WAT WAT WAT WAT WAT WAT WAT 
WAT WAT WAT WAT WAT WAT WAT WAT WAT WAT WAT WAT WAT WAT WAT WAT WAT WAT WAT WAT 
WAT WAT WAT WAT WAT WAT WAT WAT WAT WAT WAT WAT WAT WAT WAT WAT WAT WAT WAT WAT 
WAT WAT WAT WAT WAT WAT WAT WAT WAT WAT WAT WAT WAT WAT WAT WAT WAT WAT WAT WAT 
WAT WAT WAT WAT WAT WAT WAT WAT WAT WAT WAT WAT WAT WAT WAT WAT WAT WAT WAT WAT 
WAT WAT WAT WAT WAT WAT WAT WAT WAT WAT WAT WAT WAT WAT WAT WAT WAT WAT WAT WAT 
WAT WAT WAT WAT WAT WAT WAT WAT WAT WAT WAT WAT WAT WAT WAT WAT WAT WAT WAT WAT 
WAT WAT WAT WAT WAT WAT WAT WAT WAT WAT WAT WAT WAT WAT WAT WAT WAT WAT WAT WAT 
WAT WAT WAT WAT WAT WAT WAT WAT WAT WAT WAT WAT WAT WAT WAT WAT WAT WAT WAT WAT 
WAT WAT WAT WAT WAT WAT WAT WAT WAT WAT WAT WAT WAT WAT WAT WAT WAT WAT WAT WAT 
WAT WAT WAT WAT WAT WAT WAT WAT WAT WAT WAT WAT WAT WAT WAT WAT WAT WAT WAT WAT 
WAT WAT WAT WAT WAT WAT WAT WAT WAT WAT WAT WAT WAT WAT WAT WAT WAT WAT WAT WAT 
WAT WAT WAT WAT WAT WAT WAT WAT WAT WAT WAT WAT WAT WAT WAT WAT WAT WAT WAT WAT 
WAT WAT WAT WAT WAT WAT WAT WAT WAT WAT WAT WAT WAT WAT WAT WAT WAT WAT WAT WAT 
WAT WAT WAT WAT WAT WAT WAT WAT WAT WAT WAT WAT WAT WAT WAT WAT WAT WAT WAT WAT 
WAT WAT WAT WAT WAT WAT WAT WAT WAT WAT WAT WAT WAT WAT WAT WAT WAT WAT WAT WAT 
WAT WAT WAT WAT WAT WAT WAT WAT WAT WAT WAT WAT WAT WAT WAT WAT WAT WAT WAT WAT 
WAT WAT WAT WAT WAT WAT WAT WAT WAT WAT WAT WAT WAT WAT WAT WAT WAT WAT WAT WAT 
WAT WAT WAT WAT WAT WAT WAT WAT WAT WAT WAT WAT WAT WAT WAT WAT WAT WAT WAT WAT 
WAT WAT WAT WAT WAT WAT WAT WAT WAT WAT WAT WAT WAT WAT WAT WAT WAT WAT WAT WAT 
WAT WAT WAT WAT WAT WAT WAT WAT WAT WAT WAT WAT WAT WAT WAT WAT WAT WAT WAT WAT 
WAT WAT WAT WAT WAT WAT WAT WAT WAT WAT WAT WAT WAT WAT WAT WAT WAT WAT WAT WAT 
WAT WAT WAT WAT WAT WAT WAT WAT WAT WAT WAT WAT WAT WAT WAT WAT WAT WAT WAT WAT 
WAT WAT WAT WAT WAT WAT WAT WAT WAT WAT WAT WAT WAT WAT WAT WAT WAT WAT WAT WAT 
WAT WAT WAT WAT WAT WAT WAT WAT WAT WAT WAT WAT WAT WAT WAT WAT WAT WAT WAT WAT 
WAT WAT WAT WAT WAT WAT WAT WAT WAT WAT WAT WAT WAT WAT WAT WAT WAT WAT WAT WAT 
WAT WAT WAT WAT WAT WAT WAT WAT WAT WAT WAT WAT WAT WAT WAT WAT WAT WAT WAT WAT 
WAT WAT WAT WAT WAT WAT WAT WAT WAT WAT WAT WAT WAT WAT WAT WAT WAT WAT WAT WAT 
WAT WAT WAT WAT WAT WAT WAT WAT WAT WAT WAT WAT WAT WAT WAT WAT WAT WAT WAT WAT 
WAT WAT WAT WAT WAT WAT WAT WAT WAT WAT WAT WAT WAT WAT WAT WAT WAT WAT WAT WAT 
WAT WAT WAT WAT WAT WAT WAT WAT WAT WAT WAT WAT WAT WAT WAT WAT WAT WAT WAT WAT 
WAT WAT WAT WAT WAT WAT WAT WAT WAT WAT WAT WAT WAT WAT WAT WAT WAT WAT WAT WAT 
WAT WAT WAT WAT WAT WAT WAT WAT WAT WAT WAT WAT WAT WAT WAT WAT WAT WAT WAT WAT 
WAT WAT WAT WAT WAT WAT WAT WAT WAT WAT WAT WAT WAT WAT WAT WAT WAT WAT WAT WAT 
WAT WAT WAT WAT WAT WAT WAT WAT WAT WAT WAT WAT WAT WAT WAT WAT WAT WAT WAT WAT 
WAT WAT WAT WAT WAT WAT WAT WAT WAT WAT WAT WAT WAT WAT WAT WAT WAT WAT WAT WAT 
WAT WAT WAT WAT WAT WAT WAT WAT WAT WAT WAT WAT WAT WAT WAT WAT WAT WAT WAT WAT 
WAT WAT WAT WAT WAT WAT WAT WAT WAT WAT WAT WAT WAT WAT WAT WAT WAT WAT WAT WAT 
WAT WAT WAT WAT WAT WAT WAT WAT WAT WAT WAT WAT WAT WAT WAT WAT WAT WAT WAT WAT 
WAT WAT WAT WAT WAT WAT WAT WAT WAT WAT WAT WAT WAT WAT WAT WAT WAT WAT WAT WAT 
WAT WAT WAT WAT WAT WAT WAT WAT WAT WAT WAT WAT WAT WAT WAT WAT WAT WAT WAT WAT 
WAT WAT WAT WAT WAT WAT WAT WAT WAT WAT WAT WAT WAT WAT WAT WAT WAT WAT WAT WAT 
WAT WAT WAT WAT WAT WAT WAT WAT WAT WAT WAT WAT WAT WAT WAT WAT WAT WAT WAT WAT 
WAT WAT WAT WAT WAT WAT WAT WAT WAT WAT WAT WAT WAT WAT WAT WAT WAT WAT WAT WAT 
WAT WAT WAT WAT WAT WAT WAT WAT WAT WAT WAT WAT WAT WAT WAT WAT WAT WAT WAT WAT 
WAT WAT WAT WAT WAT WAT WAT WAT WAT WAT WAT WAT WAT WAT WAT WAT WAT WAT WAT WAT 
WAT WAT WAT WAT WAT WAT WAT WAT WAT WAT WAT WAT WAT WAT WAT WAT WAT WAT WAT WAT 
WAT WAT WAT WAT WAT WAT WAT WAT WAT WAT WAT WAT WAT WAT WAT WAT WAT WAT WAT WAT 
WAT WAT WAT WAT WAT WAT WAT WAT WAT WAT WAT WAT WAT WAT WAT WAT WAT WAT WAT WAT 
WAT WAT WAT WAT WAT WAT WAT WAT WAT WAT WAT WAT WAT WAT WAT WAT WAT WAT WAT WAT 
WAT WAT WAT WAT WAT WAT WAT WAT WAT WAT WAT WAT WAT WAT WAT WAT WAT WAT WAT WAT 
WAT WAT WAT WAT WAT WAT WAT WAT WAT WAT WAT WAT WAT WAT WAT WAT WAT WAT WAT WAT 
WAT WAT WAT WAT WAT WAT WAT WAT WAT WAT WAT WAT WAT WAT WAT WAT WAT WAT WAT WAT 
WAT WAT WAT WAT WAT WAT WAT WAT WAT WAT WAT WAT WAT WAT WAT WAT WAT WAT WAT WAT 
WAT WAT WAT WAT WAT WAT WAT WAT WAT WAT WAT WAT WAT WAT WAT WAT WAT WAT WAT WAT 
WAT WAT WAT WAT WAT WAT WAT WAT WAT WAT WAT WAT WAT WAT WAT WAT WAT WAT WAT WAT 
WAT WAT WAT WAT WAT WAT WAT WAT WAT WAT WAT WAT WAT WAT WAT WAT WAT WAT WAT WAT 
WAT WAT WAT WAT WAT WAT WAT WAT WAT WAT WAT WAT WAT WAT WAT WAT WAT WAT WAT WAT 
WAT WAT WAT WAT WAT WAT WAT WAT WAT WAT WAT WAT WAT WAT WAT WAT WAT WAT WAT WAT 
WAT WAT WAT WAT WAT WAT WAT WAT WAT WAT WAT WAT WAT WAT WAT WAT WAT WAT WAT WAT 
WAT WAT WAT WAT WAT WAT WAT WAT WAT WAT WAT WAT WAT WAT WAT WAT WAT WAT WAT WAT 
WAT WAT WAT WAT WAT WAT WAT WAT WAT WAT WAT WAT WAT WAT WAT WAT WAT WAT WAT WAT 
WAT WAT WAT WAT WAT WAT WAT WAT WAT WAT WAT WAT WAT WAT WAT WAT WAT WAT WAT WAT 
WAT WAT WAT WAT WAT WAT WAT WAT WAT WAT WAT WAT WAT WAT WAT WAT WAT WAT WAT WAT 
WAT WAT WAT WAT WAT WAT WAT WAT WAT WAT WAT WAT WAT WAT WAT WAT WAT WAT WAT WAT 
WAT WAT WAT WAT WAT WAT WAT WAT WAT WAT WAT WAT WAT WAT WAT WAT WAT WAT WAT WAT 
WAT WAT WAT WAT WAT WAT WAT WAT WAT WAT WAT WAT WAT WAT WAT WAT WAT WAT WAT WAT 
WAT WAT WAT WAT WAT WAT WAT WAT WAT WAT WAT WAT WAT WAT WAT WAT WAT WAT WAT WAT 
WAT WAT WAT WAT WAT WAT WAT WAT WAT WAT WAT WAT WAT WAT WAT WAT WAT WAT WAT WAT 
WAT WAT WAT WAT WAT WAT WAT WAT WAT WAT WAT WAT WAT WAT WAT WAT WAT WAT WAT WAT 
WAT WAT WAT WAT WAT WAT WAT WAT WAT WAT WAT WAT WAT WAT WAT WAT WAT WAT WAT WAT 
WAT WAT WAT WAT WAT WAT WAT WAT WAT WAT WAT WAT WAT WAT WAT WAT WAT WAT WAT WAT 
WAT WAT WAT WAT WAT WAT WAT WAT WAT WAT WAT WAT WAT WAT WAT WAT WAT WAT WAT WAT 
WAT WAT WAT WAT WAT WAT WAT WAT WAT WAT WAT WAT WAT WAT WAT WAT WAT WAT WAT WAT 
WAT WAT WAT WAT WAT WAT WAT WAT WAT WAT WAT WAT WAT WAT WAT WAT WAT WAT WAT WAT 
WAT WAT WAT WAT WAT WAT WAT WAT WAT WAT WAT WAT WAT WAT WAT WAT WAT WAT WAT WAT 
WAT WAT WAT WAT WAT WAT WAT WAT WAT WAT WAT WAT WAT WAT WAT WAT WAT WAT WAT WAT 
WAT WAT WAT WAT WAT WAT WAT WAT WAT WAT WAT WAT WAT WAT WAT WAT WAT WAT WAT WAT 
WAT WAT WAT WAT WAT WAT WAT WAT WAT WAT WAT WAT WAT WAT WAT WAT WAT WAT WAT WAT 
WAT WAT WAT WAT WAT WAT WAT WAT WAT WAT WAT WAT WAT WAT WAT WAT WAT WAT WAT WAT 
WAT WAT WAT WAT WAT WAT WAT WAT WAT WAT WAT WAT WAT WAT WAT WAT WAT WAT WAT WAT 
WAT WAT WAT WAT WAT WAT WAT WAT WAT WAT WAT WAT WAT WAT WAT WAT WAT WAT WAT WAT 
WAT WAT WAT WAT WAT WAT WAT WAT WAT WAT WAT WAT WAT WAT WAT WAT WAT WAT WAT WAT 
WAT WAT WAT WAT WAT WAT WAT WAT WAT WAT WAT WAT WAT WAT WAT WAT WAT WAT WAT WAT 
WAT WAT WAT WAT WAT WAT WAT WAT WAT WAT WAT WAT WAT WAT WAT WAT WAT WAT WAT WAT 
WAT WAT WAT WAT WAT WAT WAT WAT WAT WAT WAT WAT WAT WAT WAT WAT WAT WAT WAT WAT 
WAT WAT WAT WAT WAT WAT WAT WAT WAT WAT WAT WAT WAT WAT WAT WAT WAT WAT WAT WAT 
WAT WAT WAT WAT WAT WAT WAT WAT WAT WAT WAT WAT WAT WAT WAT WAT WAT WAT WAT WAT 
WAT WAT WAT WAT WAT WAT WAT WAT WAT WAT WAT WAT WAT WAT WAT WAT WAT WAT WAT WAT 
WAT WAT WAT WAT WAT WAT WAT WAT WAT WAT WAT WAT WAT WAT WAT WAT WAT WAT WAT WAT 
WAT WAT WAT WAT WAT WAT WAT WAT WAT WAT WAT WAT WAT WAT WAT WAT WAT WAT WAT WAT 
WAT WAT WAT WAT WAT WAT WAT WAT WAT WAT WAT WAT WAT WAT WAT WAT WAT WAT WAT WAT 
WAT WAT WAT WAT WAT WAT WAT WAT WAT WAT WAT WAT WAT WAT WAT WAT WAT WAT WAT WAT 
WAT WAT WAT WAT WAT WAT WAT WAT WAT WAT WAT WAT WAT WAT WAT WAT WAT WAT WAT WAT 
WAT WAT WAT WAT WAT WAT WAT WAT WAT WAT WAT WAT WAT WAT WAT WAT WAT WAT WAT WAT 
WAT WAT WAT WAT WAT WAT WAT WAT WAT WAT WAT WAT WAT WAT WAT WAT WAT WAT WAT WAT 
WAT WAT WAT WAT WAT WAT WAT WAT WAT WAT WAT WAT WAT WAT WAT WAT WAT WAT WAT WAT 
WAT WAT WAT WAT WAT WAT WAT WAT WAT WAT WAT WAT WAT WAT WAT WAT WAT WAT WAT WAT 
WAT WAT WAT WAT WAT WAT WAT WAT WAT WAT WAT WAT WAT WAT WAT WAT WAT WAT WAT WAT 
WAT WAT WAT WAT WAT WAT WAT WAT WAT WAT WAT WAT WAT WAT WAT WAT WAT WAT WAT WAT 
WAT WAT WAT WAT WAT WAT WAT WAT WAT WAT WAT WAT WAT WAT WAT WAT WAT WAT WAT WAT 
WAT WAT WAT WAT WAT WAT WAT WAT WAT WAT WAT WAT WAT WAT WAT WAT WAT WAT WAT WAT 
WAT WAT WAT WAT WAT WAT WAT WAT WAT WAT WAT WAT WAT WAT WAT WAT WAT WAT WAT WAT 
WAT WAT WAT WAT WAT WAT WAT WAT WAT WAT WAT WAT WAT WAT WAT WAT WAT WAT WAT WAT 
WAT WAT WAT WAT WAT WAT WAT WAT WAT WAT WAT WAT WAT WAT WAT WAT WAT WAT WAT WAT 
WAT WAT WAT WAT WAT WAT WAT WAT WAT WAT WAT WAT WAT WAT WAT WAT WAT WAT WAT WAT 
WAT WAT WAT WAT WAT WAT WAT WAT WAT WAT WAT WAT WAT WAT WAT WAT WAT WAT WAT WAT 
WAT WAT WAT WAT WAT WAT WAT WAT WAT WAT WAT WAT WAT WAT WAT WAT WAT WAT WAT WAT 
WAT WAT WAT WAT WAT WAT WAT WAT WAT WAT WAT WAT WAT WAT WAT WAT WAT WAT WAT WAT 
WAT WAT WAT WAT WAT WAT WAT WAT WAT WAT WAT WAT WAT WAT WAT WAT WAT WAT WAT WAT 
WAT WAT WAT WAT WAT WAT WAT WAT WAT WAT WAT WAT WAT WAT WAT WAT WAT WAT WAT WAT 
WAT WAT WAT WAT WAT WAT WAT WAT WAT WAT WAT WAT WAT WAT WAT WAT WAT WAT WAT WAT 
WAT WAT WAT WAT WAT WAT WAT WAT WAT WAT WAT WAT WAT WAT WAT WAT WAT WAT WAT WAT 
WAT WAT WAT WAT WAT WAT WAT WAT WAT WAT WAT WAT WAT WAT WAT WAT WAT WAT WAT WAT 
WAT WAT WAT WAT WAT WAT WAT WAT WAT WAT WAT WAT WAT WAT WAT WAT WAT WAT WAT WAT 
WAT WAT WAT WAT WAT WAT WAT WAT WAT WAT WAT WAT WAT WAT WAT WAT WAT WAT WAT WAT 
WAT WAT WAT WAT WAT WAT WAT WAT WAT WAT WAT WAT WAT WAT WAT WAT WAT WAT WAT WAT 
WAT WAT WAT WAT WAT WAT WAT WAT WAT WAT WAT WAT WAT WAT WAT WAT WAT WAT WAT WAT 
WAT WAT WAT WAT WAT WAT WAT WAT WAT WAT WAT WAT WAT WAT WAT WAT WAT WAT WAT WAT 
WAT WAT WAT WAT WAT WAT WAT WAT WAT WAT WAT WAT WAT WAT WAT WAT WAT WAT WAT WAT 
WAT WAT WAT WAT WAT WAT WAT WAT WAT WAT WAT WAT WAT WAT WAT WAT WAT WAT WAT WAT 
WAT WAT WAT WAT WAT WAT WAT WAT WAT WAT WAT WAT WAT WAT WAT WAT WAT WAT WAT WAT 
WAT WAT WAT WAT WAT WAT WAT WAT WAT WAT WAT WAT WAT WAT WAT WAT WAT WAT WAT WAT 
WAT WAT WAT WAT WAT WAT WAT WAT WAT WAT WAT WAT WAT WAT WAT WAT WAT WAT WAT WAT 
WAT WAT WAT WAT WAT WAT WAT WAT WAT WAT WAT WAT WAT WAT WAT WAT WAT WAT WAT WAT 
WAT WAT WAT WAT WAT WAT WAT WAT WAT WAT WAT WAT WAT WAT WAT WAT WAT WAT WAT WAT 
WAT WAT WAT WAT WAT WAT WAT WAT WAT WAT WAT WAT WAT WAT WAT WAT WAT WAT WAT WAT 
WAT WAT WAT WAT WAT WAT WAT WAT WAT WAT WAT WAT WAT WAT WAT WAT WAT WAT WAT WAT 
WAT WAT WAT WAT WAT WAT WAT WAT WAT WAT WAT WAT WAT WAT WAT WAT WAT WAT WAT WAT 
WAT WAT WAT WAT WAT WAT WAT WAT WAT WAT WAT WAT WAT WAT WAT WAT WAT WAT WAT WAT 
WAT WAT WAT WAT WAT WAT WAT WAT WAT WAT WAT WAT WAT WAT WAT WAT WAT WAT WAT WAT 
WAT WAT WAT WAT WAT WAT WAT WAT WAT WAT WAT WAT WAT WAT WAT WAT WAT WAT WAT WAT 
WAT WAT WAT WAT WAT WAT WAT WAT WAT WAT WAT WAT WAT WAT WAT WAT WAT WAT WAT WAT 
WAT WAT WAT WAT WAT WAT WAT WAT WAT WAT WAT WAT WAT WAT WAT WAT WAT WAT WAT WAT 
WAT WAT WAT WAT WAT WAT WAT WAT WAT WAT WAT WAT WAT WAT WAT WAT WAT WAT WAT WAT 
WAT WAT WAT WAT WAT WAT WAT WAT WAT WAT WAT WAT WAT WAT WAT WAT WAT WAT WAT WAT 
WAT WAT WAT WAT WAT WAT WAT WAT WAT WAT WAT WAT WAT WAT WAT WAT WAT WAT WAT WAT 
WAT WAT WAT WAT WAT WAT WAT WAT WAT WAT WAT WAT WAT WAT WAT WAT WAT WAT WAT WAT 
WAT WAT WAT WAT WAT WAT WAT WAT WAT WAT WAT WAT WAT WAT WAT WAT WAT WAT WAT WAT 
WAT WAT WAT WAT WAT WAT WAT WAT WAT WAT WAT WAT WAT WAT WAT WAT WAT WAT WAT WAT 
WAT WAT WAT WAT WAT WAT WAT WAT WAT WAT WAT WAT WAT WAT WAT WAT WAT WAT WAT WAT 
WAT WAT WAT WAT WAT WAT WAT WAT WAT WAT WAT WAT WAT WAT WAT WAT WAT WAT WAT WAT 
WAT WAT WAT WAT WAT WAT WAT WAT WAT WAT WAT WAT WAT WAT WAT WAT WAT WAT WAT WAT 
WAT WAT WAT WAT WAT WAT WAT WAT WAT WAT WAT WAT WAT WAT WAT WAT WAT WAT WAT WAT 
WAT WAT WAT WAT WAT WAT WAT WAT WAT WAT WAT WAT WAT WAT WAT WAT WAT WAT WAT WAT 
WAT WAT WAT WAT WAT WAT WAT WAT WAT WAT WAT WAT WAT WAT WAT WAT WAT WAT WAT WAT 
WAT WAT WAT WAT WAT WAT WAT WAT WAT WAT WAT WAT WAT WAT WAT WAT WAT WAT WAT WAT 
WAT WAT WAT WAT WAT WAT WAT WAT WAT WAT WAT WAT WAT WAT WAT WAT WAT WAT WAT WAT 
WAT WAT WAT WAT WAT WAT WAT WAT WAT WAT WAT WAT WAT WAT WAT WAT WAT WAT WAT WAT 
WAT WAT WAT WAT WAT WAT WAT WAT WAT WAT WAT WAT WAT WAT WAT WAT WAT WAT WAT WAT 
WAT WAT WAT WAT WAT WAT WAT WAT WAT WAT WAT WAT WAT WAT WAT WAT WAT WAT WAT WAT 
WAT WAT WAT WAT WAT WAT WAT WAT WAT WAT WAT WAT WAT WAT WAT WAT WAT WAT WAT WAT 
WAT WAT WAT WAT WAT WAT WAT WAT WAT WAT WAT WAT WAT WAT WAT WAT WAT WAT WAT WAT 
WAT WAT WAT WAT WAT WAT WAT WAT WAT WAT WAT WAT WAT WAT WAT WAT WAT WAT WAT WAT 
WAT WAT WAT WAT WAT WAT WAT WAT WAT WAT WAT WAT WAT WAT WAT WAT WAT WAT WAT WAT 
WAT WAT WAT WAT WAT WAT WAT WAT WAT WAT WAT WAT WAT WAT WAT WAT WAT WAT WAT WAT 
WAT WAT WAT WAT WAT WAT WAT WAT WAT WAT WAT WAT WAT WAT WAT WAT WAT WAT WAT WAT 
WAT WAT WAT WAT WAT WAT WAT WAT WAT WAT WAT WAT WAT WAT WAT WAT WAT WAT WAT WAT 
WAT WAT WAT WAT WAT WAT WAT WAT WAT WAT WAT WAT WAT WAT WAT WAT WAT WAT WAT WAT 
WAT WAT WAT WAT WAT WAT WAT WAT WAT WAT WAT WAT WAT WAT WAT WAT WAT WAT WAT WAT 
WAT WAT WAT WAT WAT WAT WAT WAT WAT WAT WAT WAT WAT WAT WAT WAT WAT WAT WAT WAT 
WAT WAT WAT WAT WAT WAT WAT WAT WAT WAT WAT WAT WAT WAT WAT WAT WAT WAT WAT WAT 
WAT WAT WAT WAT WAT WAT WAT WAT WAT WAT WAT WAT WAT WAT WAT WAT WAT WAT WAT WAT 
WAT WAT WAT WAT WAT WAT WAT WAT WAT WAT WAT WAT WAT WAT WAT WAT WAT WAT WAT WAT 
WAT WAT WAT WAT WAT WAT WAT WAT WAT WAT WAT WAT WAT WAT WAT WAT WAT WAT WAT WAT 
WAT WAT WAT WAT WAT WAT WAT WAT WAT WAT WAT WAT WAT WAT WAT WAT WAT WAT WAT WAT 
WAT WAT WAT WAT WAT WAT WAT WAT WAT WAT WAT WAT WAT WAT WAT WAT WAT WAT WAT WAT 
WAT WAT WAT WAT WAT WAT WAT WAT WAT WAT WAT WAT WAT WAT WAT WAT WAT WAT WAT WAT 
WAT WAT WAT WAT WAT WAT WAT WAT WAT WAT WAT WAT WAT WAT WAT WAT WAT WAT WAT WAT 
WAT WAT WAT WAT WAT WAT WAT WAT WAT WAT WAT WAT WAT WAT WAT WAT WAT WAT WAT WAT 
WAT WAT WAT WAT WAT WAT WAT WAT WAT WAT WAT WAT WAT WAT WAT WAT WAT WAT WAT WAT 
WAT WAT WAT WAT WAT WAT WAT WAT WAT WAT WAT WAT WAT WAT WAT WAT WAT WAT WAT WAT 
WAT WAT WAT WAT WAT WAT WAT WAT WAT WAT WAT WAT WAT WAT WAT WAT WAT WAT WAT WAT 
WAT WAT WAT WAT WAT WAT WAT WAT WAT WAT WAT WAT WAT WAT WAT WAT WAT WAT WAT WAT 
WAT WAT WAT WAT WAT WAT WAT WAT WAT WAT WAT WAT WAT WAT WAT WAT WAT WAT WAT WAT 
WAT WAT WAT WAT WAT WAT WAT WAT WAT WAT WAT WAT WAT WAT WAT WAT WAT WAT WAT WAT 
WAT WAT WAT WAT WAT WAT WAT WAT WAT WAT WAT WAT WAT WAT WAT WAT WAT WAT WAT WAT 
WAT WAT WAT WAT WAT WAT WAT WAT WAT WAT WAT WAT WAT WAT WAT WAT WAT WAT WAT WAT 
WAT WAT WAT WAT WAT WAT WAT WAT WAT WAT WAT WAT WAT WAT WAT WAT WAT WAT WAT WAT 
WAT WAT WAT WAT WAT WAT WAT WAT WAT WAT WAT WAT WAT WAT WAT WAT WAT WAT WAT WAT 
WAT WAT WAT WAT WAT WAT WAT WAT WAT WAT WAT WAT WAT WAT WAT WAT WAT WAT WAT WAT 
WAT WAT WAT WAT WAT WAT WAT WAT WAT WAT WAT WAT WAT WAT WAT WAT WAT WAT WAT WAT 
WAT WAT WAT WAT WAT WAT WAT WAT WAT WAT WAT WAT WAT WAT WAT WAT WAT WAT WAT WAT 
WAT WAT WAT WAT WAT WAT WAT WAT WAT WAT WAT WAT WAT WAT WAT WAT WAT WAT WAT WAT 
WAT WAT WAT WAT WAT WAT WAT WAT WAT WAT WAT WAT WAT WAT WAT WAT WAT WAT WAT WAT 
WAT WAT WAT WAT WAT WAT WAT WAT WAT WAT WAT WAT WAT WAT WAT WAT WAT WAT WAT WAT 
WAT WAT WAT WAT WAT WAT WAT WAT WAT WAT WAT WAT WAT WAT WAT WAT WAT WAT WAT WAT 
WAT WAT WAT WAT WAT WAT WAT WAT WAT WAT WAT WAT WAT WAT WAT WAT WAT WAT WAT WAT 
WAT WAT WAT WAT WAT WAT WAT WAT WAT WAT WAT WAT WAT WAT WAT WAT WAT WAT WAT WAT 
WAT WAT WAT WAT WAT WAT WAT WAT WAT WAT WAT WAT WAT WAT WAT WAT WAT WAT WAT WAT 
WAT WAT WAT WAT WAT WAT WAT WAT WAT WAT WAT WAT WAT WAT WAT WAT WAT WAT WAT WAT 
WAT WAT WAT WAT WAT WAT WAT WAT WAT WAT WAT WAT WAT WAT WAT WAT WAT WAT WAT WAT 
WAT WAT WAT WAT WAT WAT WAT WAT WAT WAT WAT WAT WAT WAT WAT WAT WAT WAT WAT WAT 
WAT WAT WAT WAT WAT WAT WAT WAT WAT WAT WAT WAT WAT WAT WAT WAT WAT WAT WAT WAT 
WAT WAT WAT WAT WAT WAT WAT WAT WAT WAT WAT WAT WAT WAT WAT WAT WAT WAT WAT WAT 
WAT WAT WAT WAT WAT WAT WAT WAT WAT WAT WAT WAT WAT WAT WAT WAT WAT WAT WAT WAT 
WAT WAT WAT WAT WAT WAT WAT WAT WAT WAT WAT WAT WAT WAT WAT WAT WAT WAT WAT WAT 
WAT WAT WAT WAT WAT WAT WAT WAT WAT WAT WAT WAT WAT WAT WAT WAT WAT WAT WAT WAT 
WAT WAT WAT WAT WAT WAT WAT WAT WAT WAT WAT WAT WAT WAT WAT WAT WAT WAT WAT WAT 
WAT WAT WAT WAT WAT WAT WAT WAT WAT WAT WAT WAT WAT WAT WAT WAT WAT WAT WAT WAT 
WAT WAT WAT WAT WAT WAT WAT WAT WAT WAT WAT WAT WAT WAT WAT WAT WAT WAT WAT WAT 
WAT WAT WAT WAT WAT WAT WAT WAT WAT WAT WAT WAT WAT WAT WAT WAT WAT WAT WAT WAT 
WAT WAT WAT WAT WAT WAT WAT WAT WAT WAT WAT WAT WAT WAT WAT WAT WAT WAT WAT WAT 
WAT WAT WAT WAT WAT WAT WAT WAT WAT WAT WAT WAT WAT WAT WAT WAT WAT WAT WAT WAT 
WAT WAT WAT WAT WAT WAT WAT WAT WAT WAT WAT WAT WAT WAT WAT WAT WAT WAT WAT WAT 
WAT WAT WAT WAT WAT WAT WAT WAT WAT WAT WAT WAT WAT WAT WAT WAT WAT WAT WAT WAT 
WAT WAT WAT WAT WAT WAT WAT WAT WAT WAT WAT WAT WAT WAT WAT WAT WAT WAT WAT WAT 
WAT WAT WAT WAT WAT WAT WAT WAT WAT WAT WAT WAT WAT WAT WAT WAT WAT WAT WAT WAT 
WAT WAT WAT WAT WAT WAT WAT WAT WAT WAT WAT WAT WAT WAT WAT WAT WAT WAT WAT WAT 
WAT WAT WAT WAT WAT WAT WAT WAT WAT WAT WAT WAT WAT WAT WAT WAT WAT WAT WAT WAT 
WAT WAT WAT WAT WAT WAT WAT WAT WAT WAT WAT WAT WAT WAT WAT WAT WAT WAT WAT WAT 
WAT WAT WAT WAT WAT WAT WAT WAT WAT WAT WAT WAT WAT WAT WAT WAT WAT WAT WAT WAT 
WAT WAT WAT WAT WAT WAT WAT WAT WAT WAT WAT WAT WAT WAT WAT WAT WAT WAT WAT WAT 
WAT WAT WAT WAT WAT WAT WAT WAT WAT WAT WAT WAT WAT WAT WAT WAT WAT WAT WAT WAT 
WAT WAT WAT WAT WAT WAT WAT WAT WAT WAT WAT WAT WAT WAT WAT WAT WAT WAT WAT WAT 
WAT WAT WAT WAT WAT WAT WAT WAT WAT WAT WAT WAT WAT WAT WAT WAT WAT WAT WAT WAT 
WAT WAT WAT WAT WAT WAT WAT WAT WAT WAT WAT WAT WAT WAT WAT WAT WAT WAT WAT WAT 
WAT WAT WAT WAT WAT WAT WAT WAT WAT WAT WAT WAT WAT WAT WAT WAT WAT WAT WAT WAT 
WAT WAT WAT WAT WAT WAT WAT WAT WAT WAT WAT WAT WAT WAT WAT WAT WAT WAT WAT WAT 
WAT WAT WAT WAT WAT WAT WAT WAT WAT WAT WAT WAT WAT WAT WAT WAT WAT WAT WAT WAT 
WAT WAT WAT WAT WAT WAT WAT WAT WAT WAT WAT WAT WAT WAT WAT WAT WAT WAT WAT WAT 
WAT WAT WAT WAT WAT WAT WAT WAT WAT WAT WAT WAT WAT WAT WAT WAT WAT WAT WAT WAT 
WAT WAT WAT WAT WAT WAT WAT WAT WAT WAT WAT WAT WAT WAT WAT WAT WAT WAT WAT WAT 
WAT WAT WAT WAT WAT WAT WAT WAT WAT WAT WAT WAT WAT WAT WAT WAT WAT WAT WAT WAT 
WAT WAT WAT WAT WAT WAT WAT WAT WAT WAT WAT WAT WAT WAT WAT WAT WAT WAT WAT WAT 
WAT WAT WAT WAT WAT WAT WAT WAT WAT WAT WAT WAT WAT WAT WAT WAT WAT WAT WAT WAT 
WAT WAT WAT WAT WAT WAT WAT WAT WAT WAT WAT WAT WAT WAT WAT WAT WAT WAT WAT WAT 
WAT WAT WAT WAT WAT WAT WAT WAT WAT WAT WAT WAT WAT WAT WAT WAT WAT WAT WAT WAT 
WAT WAT WAT WAT WAT WAT WAT WAT WAT WAT WAT WAT WAT WAT WAT WAT WAT WAT WAT WAT 
WAT WAT WAT WAT WAT WAT WAT WAT WAT WAT WAT WAT WAT WAT WAT WAT WAT WAT WAT WAT 
WAT WAT WAT WAT WAT WAT WAT WAT WAT WAT WAT WAT WAT WAT WAT WAT WAT WAT WAT WAT 
WAT WAT WAT WAT WAT WAT WAT WAT WAT WAT WAT WAT WAT WAT WAT WAT WAT WAT WAT WAT 
WAT WAT WAT WAT WAT WAT WAT WAT WAT WAT WAT WAT WAT WAT WAT WAT WAT WAT WAT WAT 
WAT WAT WAT WAT WAT WAT WAT WAT WAT WAT WAT WAT WAT WAT WAT WAT WAT WAT WAT WAT 
WAT WAT WAT WAT WAT WAT WAT WAT WAT WAT WAT WAT WAT WAT WAT WAT WAT WAT WAT WAT 
WAT WAT WAT WAT WAT WAT WAT WAT WAT WAT WAT WAT WAT WAT WAT WAT WAT WAT WAT WAT 
WAT WAT WAT WAT WAT WAT WAT WAT WAT WAT WAT WAT WAT WAT WAT WAT WAT WAT WAT WAT 
WAT WAT WAT WAT WAT WAT WAT WAT WAT WAT WAT WAT WAT WAT WAT WAT WAT WAT WAT WAT 
WAT WAT WAT WAT WAT WAT WAT WAT WAT WAT WAT WAT WAT WAT WAT WAT WAT WAT WAT WAT 
WAT WAT WAT WAT WAT WAT WAT WAT WAT WAT WAT WAT WAT WAT WAT WAT WAT WAT WAT WAT 
WAT WAT WAT WAT WAT WAT WAT WAT WAT WAT WAT WAT WAT WAT WAT WAT WAT WAT WAT WAT 
WAT WAT WAT WAT WAT WAT WAT WAT WAT WAT WAT WAT WAT WAT WAT WAT WAT WAT WAT WAT 
WAT WAT WAT WAT WAT WAT WAT WAT WAT WAT WAT WAT WAT WAT WAT WAT WAT WAT WAT WAT 
WAT WAT WAT WAT WAT WAT WAT WAT WAT WAT WAT WAT WAT WAT WAT WAT WAT WAT WAT WAT 
WAT WAT WAT WAT WAT WAT WAT WAT WAT WAT WAT WAT WAT WAT WAT WAT WAT WAT WAT WAT 
WAT WAT WAT WAT WAT WAT WAT WAT WAT WAT WAT WAT WAT WAT WAT WAT WAT WAT WAT WAT 
WAT WAT WAT WAT WAT WAT WAT WAT WAT WAT WAT WAT WAT WAT WAT WAT WAT WAT WAT WAT 
WAT WAT WAT WAT WAT WAT WAT WAT WAT WAT WAT WAT WAT WAT WAT WAT WAT WAT WAT WAT 
WAT WAT WAT WAT WAT WAT WAT WAT WAT WAT WAT WAT WAT WAT WAT WAT WAT WAT WAT WAT 
WAT WAT WAT WAT WAT WAT WAT WAT WAT WAT WAT WAT WAT WAT WAT WAT WAT WAT WAT WAT 
WAT WAT WAT WAT WAT WAT WAT WAT WAT WAT WAT WAT WAT WAT WAT WAT WAT WAT WAT WAT 
WAT WAT WAT WAT WAT WAT WAT WAT WAT WAT WAT WAT WAT WAT WAT WAT WAT WAT WAT WAT 
WAT WAT WAT WAT WAT WAT WAT WAT WAT WAT WAT WAT WAT WAT WAT WAT WAT WAT WAT WAT 
WAT WAT WAT WAT WAT WAT WAT WAT WAT WAT WAT WAT WAT WAT WAT WAT WAT WAT WAT WAT 
WAT WAT WAT WAT WAT WAT WAT WAT WAT WAT WAT WAT WAT WAT WAT WAT WAT WAT WAT WAT 
WAT WAT WAT WAT WAT WAT WAT WAT WAT WAT WAT WAT WAT WAT WAT WAT WAT WAT WAT WAT 
WAT WAT WAT WAT WAT WAT WAT WAT WAT WAT WAT WAT WAT WAT WAT WAT WAT WAT WAT WAT 
WAT WAT WAT WAT WAT WAT WAT WAT WAT WAT WAT WAT WAT WAT WAT WAT WAT WAT WAT WAT 
WAT WAT WAT WAT WAT WAT WAT WAT WAT WAT WAT WAT WAT WAT WAT WAT WAT WAT WAT WAT 
WAT WAT WAT WAT WAT WAT WAT WAT WAT WAT WAT WAT WAT WAT WAT WAT WAT WAT WAT WAT 
WAT WAT WAT WAT WAT WAT WAT WAT WAT WAT WAT WAT WAT WAT WAT WAT WAT WAT WAT WAT 
WAT WAT WAT WAT WAT WAT WAT WAT WAT WAT WAT WAT WAT WAT WAT WAT WAT WAT WAT WAT 
WAT WAT WAT WAT WAT WAT WAT WAT WAT WAT WAT WAT WAT WAT WAT WAT WAT WAT WAT WAT 
WAT WAT WAT WAT WAT WAT WAT WAT WAT WAT WAT WAT WAT WAT WAT WAT WAT WAT WAT WAT 
WAT WAT WAT WAT WAT WAT WAT WAT WAT WAT WAT WAT WAT WAT WAT WAT WAT WAT WAT WAT 
WAT WAT WAT WAT WAT WAT WAT WAT WAT WAT WAT WAT WAT WAT WAT WAT WAT WAT WAT WAT 
WAT WAT WAT WAT WAT WAT WAT WAT WAT WAT WAT WAT WAT WAT WAT WAT WAT WAT WAT WAT 
WAT WAT WAT WAT WAT WAT WAT WAT WAT WAT WAT WAT WAT WAT WAT WAT WAT WAT WAT WAT 
WAT WAT WAT WAT WAT WAT WAT WAT WAT WAT WAT WAT WAT WAT WAT WAT WAT WAT WAT WAT 
WAT WAT WAT WAT WAT WAT WAT WAT WAT WAT WAT WAT WAT WAT WAT WAT WAT WAT WAT WAT 
WAT WAT WAT WAT WAT WAT WAT WAT WAT WAT WAT WAT WAT WAT WAT WAT WAT WAT WAT WAT 
WAT WAT WAT WAT WAT WAT WAT WAT WAT WAT WAT WAT WAT WAT WAT WAT WAT WAT WAT WAT 
WAT WAT WAT WAT WAT WAT WAT WAT WAT WAT WAT WAT WAT WAT WAT WAT WAT WAT WAT WAT 
WAT WAT WAT WAT WAT WAT WAT WAT WAT WAT WAT WAT WAT WAT WAT WAT WAT WAT WAT WAT 
WAT WAT WAT WAT WAT WAT WAT WAT WAT WAT WAT WAT WAT WAT WAT WAT WAT WAT WAT WAT 
WAT WAT WAT WAT WAT WAT WAT WAT WAT WAT WAT WAT WAT WAT WAT WAT WAT WAT WAT WAT 
WAT WAT WAT WAT WAT WAT WAT WAT WAT WAT WAT WAT WAT WAT WAT WAT WAT WAT WAT WAT 
WAT WAT WAT WAT WAT WAT WAT WAT WAT WAT WAT WAT WAT WAT WAT WAT WAT WAT WAT WAT 
WAT WAT WAT WAT WAT WAT WAT WAT WAT WAT WAT WAT WAT WAT WAT WAT WAT WAT WAT WAT 
WAT WAT WAT WAT WAT WAT WAT WAT WAT WAT WAT WAT WAT WAT WAT WAT WAT WAT WAT WAT 
WAT WAT WAT WAT WAT WAT WAT WAT WAT WAT WAT WAT WAT WAT WAT WAT WAT WAT WAT WAT 
WAT WAT WAT WAT WAT WAT WAT WAT WAT WAT WAT WAT WAT WAT WAT WAT WAT WAT WAT WAT 
WAT WAT WAT WAT WAT WAT WAT WAT WAT WAT WAT WAT WAT WAT WAT WAT WAT WAT WAT WAT 
WAT WAT WAT WAT WAT WAT WAT WAT WAT WAT WAT WAT WAT WAT WAT WAT WAT WAT WAT WAT 
WAT WAT WAT WAT WAT WAT WAT WAT WAT WAT WAT WAT WAT WAT WAT WAT WAT WAT WAT WAT 
WAT WAT WAT WAT WAT WAT WAT WAT WAT WAT WAT WAT WAT WAT WAT WAT WAT WAT WAT WAT 
WAT WAT WAT WAT WAT WAT WAT WAT WAT WAT WAT WAT WAT WAT WAT WAT WAT WAT WAT WAT 
WAT WAT WAT WAT WAT WAT WAT WAT WAT WAT WAT WAT WAT WAT WAT WAT WAT WAT WAT WAT 
WAT WAT WAT WAT WAT WAT WAT WAT WAT WAT WAT WAT WAT WAT WAT WAT WAT WAT WAT WAT 
WAT WAT WAT WAT WAT WAT WAT WAT WAT WAT WAT WAT WAT WAT WAT WAT WAT WAT WAT WAT 
WAT WAT WAT WAT WAT WAT WAT WAT WAT WAT WAT WAT WAT WAT WAT WAT WAT WAT WAT WAT 
WAT WAT WAT WAT WAT WAT WAT WAT WAT WAT WAT WAT WAT WAT WAT WAT WAT WAT WAT WAT 
WAT WAT WAT WAT WAT WAT WAT WAT WAT WAT WAT WAT WAT WAT WAT WAT WAT WAT WAT WAT 
WAT WAT WAT WAT WAT WAT WAT WAT WAT WAT WAT WAT WAT WAT WAT WAT WAT WAT WAT WAT 
WAT WAT WAT WAT WAT WAT WAT WAT WAT WAT WAT WAT WAT WAT WAT WAT WAT WAT WAT WAT 
WAT WAT WAT WAT WAT WAT WAT WAT WAT WAT WAT WAT WAT WAT WAT WAT WAT WAT WAT WAT 
WAT WAT WAT WAT WAT WAT WAT WAT WAT WAT WAT WAT WAT WAT WAT WAT WAT WAT WAT WAT 
WAT WAT WAT WAT WAT WAT WAT WAT WAT WAT WAT WAT WAT WAT WAT WAT WAT WAT WAT WAT 
WAT WAT WAT WAT WAT WAT WAT WAT WAT WAT WAT WAT WAT WAT WAT WAT WAT WAT WAT WAT 
WAT WAT WAT WAT WAT WAT WAT WAT WAT WAT WAT WAT WAT WAT WAT WAT WAT WAT WAT WAT 
WAT WAT WAT WAT WAT WAT WAT WAT WAT WAT WAT WAT WAT WAT WAT WAT WAT WAT WAT WAT 
WAT WAT WAT WAT WAT WAT WAT WAT WAT WAT WAT WAT WAT WAT WAT WAT WAT WAT WAT WAT 
WAT WAT WAT WAT WAT WAT WAT WAT WAT WAT WAT WAT WAT WAT WAT WAT WAT WAT WAT WAT 
WAT WAT WAT WAT WAT WAT WAT WAT WAT WAT WAT WAT WAT WAT WAT WAT WAT WAT WAT WAT 
WAT WAT WAT WAT WAT WAT WAT WAT WAT WAT WAT WAT WAT WAT WAT WAT WAT WAT WAT WAT 
WAT WAT WAT WAT WAT WAT WAT WAT WAT WAT WAT WAT WAT WAT WAT WAT WAT WAT WAT WAT 
WAT WAT WAT WAT WAT WAT WAT WAT WAT WAT WAT WAT WAT WAT WAT WAT WAT WAT WAT WAT 
WAT WAT WAT WAT WAT WAT WAT WAT WAT WAT WAT WAT WAT WAT WAT WAT WAT WAT WAT WAT 
WAT WAT WAT WAT WAT WAT WAT WAT WAT WAT WAT WAT WAT WAT WAT WAT WAT WAT WAT WAT 
WAT WAT WAT WAT WAT WAT WAT WAT WAT WAT WAT WAT WAT WAT WAT WAT WAT WAT WAT WAT 
WAT WAT WAT WAT WAT WAT WAT WAT WAT WAT WAT WAT WAT WAT WAT WAT WAT WAT WAT WAT 
WAT WAT WAT WAT WAT WAT WAT WAT WAT WAT WAT WAT WAT WAT WAT WAT WAT WAT WAT WAT 
WAT WAT WAT WAT WAT WAT WAT WAT WAT WAT WAT WAT WAT WAT WAT WAT WAT WAT WAT WAT 
WAT WAT WAT WAT WAT WAT WAT WAT WAT WAT WAT WAT WAT WAT WAT WAT WAT WAT WAT WAT 
WAT WAT WAT WAT WAT WAT WAT WAT WAT WAT WAT WAT WAT WAT WAT WAT WAT WAT WAT WAT 
WAT WAT WAT WAT WAT WAT WAT WAT WAT WAT WAT WAT WAT WAT WAT WAT WAT WAT WAT WAT 
WAT WAT WAT WAT WAT WAT WAT WAT WAT WAT WAT WAT WAT WAT WAT WAT WAT WAT WAT WAT 
WAT WAT WAT WAT WAT WAT WAT WAT WAT WAT WAT WAT WAT WAT WAT WAT WAT WAT WAT WAT 
WAT WAT WAT WAT WAT WAT WAT WAT WAT WAT WAT WAT WAT WAT WAT WAT WAT WAT WAT WAT 
WAT WAT WAT WAT WAT WAT WAT WAT WAT WAT WAT WAT WAT WAT WAT WAT WAT WAT WAT WAT 
WAT WAT WAT WAT WAT WAT WAT WAT WAT WAT WAT WAT WAT WAT WAT WAT WAT WAT WAT WAT 
WAT WAT WAT WAT WAT WAT WAT WAT WAT WAT WAT WAT WAT WAT WAT WAT WAT WAT WAT WAT 
WAT WAT WAT WAT WAT WAT WAT WAT WAT WAT WAT WAT WAT WAT WAT WAT WAT WAT WAT WAT 
WAT WAT WAT WAT WAT WAT WAT WAT WAT WAT WAT WAT WAT WAT WAT WAT WAT WAT WAT WAT 
WAT WAT WAT WAT WAT WAT WAT WAT WAT WAT WAT WAT WAT WAT WAT WAT WAT WAT WAT WAT 
WAT WAT WAT WAT WAT WAT WAT WAT WAT WAT WAT WAT WAT WAT WAT WAT WAT WAT WAT WAT 
WAT WAT WAT WAT WAT WAT WAT WAT WAT WAT WAT WAT WAT WAT WAT WAT WAT WAT WAT WAT 
WAT WAT WAT WAT WAT WAT WAT WAT WAT WAT WAT WAT WAT WAT WAT WAT WAT WAT WAT WAT 
WAT WAT WAT WAT WAT WAT WAT WAT WAT WAT WAT WAT WAT WAT WAT WAT WAT WAT WAT WAT 
WAT WAT WAT WAT WAT WAT WAT WAT WAT WAT WAT WAT WAT WAT WAT WAT WAT WAT WAT WAT 
WAT WAT WAT WAT WAT WAT WAT WAT WAT WAT WAT WAT WAT WAT WAT WAT WAT WAT WAT WAT 
WAT WAT WAT WAT WAT WAT WAT WAT WAT WAT WAT WAT WAT WAT WAT WAT WAT WAT WAT WAT 
WAT WAT WAT WAT WAT WAT WAT WAT WAT WAT WAT WAT WAT WAT WAT WAT WAT WAT WAT WAT 
WAT WAT WAT WAT WAT WAT WAT WAT WAT WAT WAT WAT WAT WAT WAT WAT WAT WAT WAT WAT 
WAT WAT WAT WAT WAT WAT WAT WAT WAT WAT WAT WAT WAT WAT WAT WAT WAT WAT WAT WAT 
WAT WAT WAT WAT WAT WAT WAT WAT WAT WAT WAT WAT WAT WAT WAT WAT WAT WAT WAT WAT 
WAT WAT WAT WAT WAT WAT WAT WAT WAT WAT WAT WAT WAT WAT WAT WAT WAT WAT WAT WAT 
WAT WAT WAT WAT WAT WAT WAT WAT WAT WAT WAT WAT WAT WAT WAT WAT WAT WAT WAT WAT 
WAT WAT WAT WAT WAT WAT WAT WAT WAT WAT WAT WAT WAT WAT WAT WAT WAT WAT WAT WAT 
WAT WAT WAT WAT WAT WAT WAT WAT WAT WAT WAT WAT WAT WAT WAT WAT WAT WAT WAT WAT 
WAT WAT WAT WAT WAT WAT WAT WAT WAT WAT WAT WAT WAT WAT WAT WAT WAT WAT WAT WAT 
WAT WAT WAT WAT WAT WAT WAT WAT WAT WAT WAT WAT WAT WAT WAT WAT WAT WAT WAT WAT 
WAT WAT WAT WAT WAT WAT WAT WAT WAT WAT WAT WAT WAT WAT WAT WAT WAT WAT WAT WAT 
WAT WAT WAT WAT WAT WAT WAT WAT WAT WAT WAT WAT WAT WAT WAT WAT WAT WAT WAT WAT 
WAT WAT WAT WAT WAT WAT WAT WAT WAT WAT WAT WAT WAT WAT WAT WAT WAT WAT WAT WAT 
WAT WAT WAT WAT WAT WAT WAT WAT WAT WAT WAT WAT WAT WAT WAT WAT WAT WAT WAT WAT 
WAT WAT WAT WAT WAT WAT WAT WAT WAT WAT WAT WAT WAT WAT WAT WAT WAT WAT WAT WAT 
WAT WAT WAT WAT WAT WAT WAT WAT WAT WAT WAT WAT WAT WAT WAT WAT WAT WAT WAT WAT 
WAT WAT WAT WAT WAT WAT WAT WAT WAT WAT WAT WAT WAT WAT WAT WAT WAT WAT WAT WAT 
WAT WAT WAT WAT WAT WAT WAT WAT WAT WAT WAT WAT WAT WAT WAT WAT WAT WAT WAT WAT 
WAT WAT WAT WAT WAT WAT WAT WAT WAT WAT WAT WAT WAT WAT WAT WAT WAT WAT WAT WAT 
WAT WAT WAT WAT WAT WAT WAT WAT WAT WAT WAT WAT WAT WAT WAT WAT WAT WAT WAT WAT 
WAT WAT WAT WAT WAT WAT WAT WAT WAT WAT WAT WAT WAT WAT WAT WAT WAT WAT WAT WAT 
WAT WAT WAT WAT WAT WAT WAT WAT WAT WAT WAT WAT WAT WAT WAT WAT WAT WAT WAT WAT 
WAT WAT WAT WAT WAT WAT WAT WAT WAT WAT WAT WAT WAT WAT WAT WAT WAT WAT WAT WAT 
WAT WAT WAT WAT WAT WAT WAT WAT WAT WAT WAT WAT WAT WAT WAT WAT WAT WAT WAT WAT 
WAT WAT WAT WAT WAT WAT WAT WAT WAT WAT WAT WAT WAT WAT WAT WAT WAT WAT WAT WAT 
WAT WAT WAT WAT WAT WAT WAT WAT WAT WAT WAT WAT WAT WAT WAT WAT WAT WAT WAT WAT 
WAT WAT WAT WAT WAT WAT WAT WAT WAT WAT WAT WAT WAT WAT WAT WAT WAT WAT WAT WAT 
WAT WAT WAT WAT WAT WAT WAT WAT WAT WAT WAT WAT WAT WAT WAT WAT WAT WAT WAT WAT 
WAT WAT WAT WAT WAT WAT WAT WAT WAT WAT WAT WAT WAT WAT WAT WAT WAT WAT WAT WAT 
WAT WAT WAT WAT WAT WAT WAT WAT WAT WAT WAT WAT WAT WAT WAT WAT WAT WAT WAT WAT 
WAT WAT WAT WAT WAT WAT WAT WAT WAT WAT WAT WAT WAT WAT WAT WAT WAT WAT WAT WAT 
WAT WAT WAT WAT WAT WAT WAT WAT WAT WAT WAT WAT WAT WAT WAT WAT WAT WAT WAT WAT 
WAT WAT WAT WAT WAT WAT WAT WAT WAT WAT WAT WAT WAT WAT WAT WAT WAT WAT WAT WAT 
WAT WAT WAT WAT WAT WAT WAT WAT WAT WAT WAT WAT WAT WAT WAT WAT WAT WAT WAT WAT 
WAT WAT WAT WAT WAT WAT WAT WAT WAT WAT WAT WAT WAT WAT WAT WAT WAT WAT WAT WAT 
WAT WAT WAT WAT WAT WAT WAT WAT WAT WAT WAT WAT WAT WAT WAT WAT WAT WAT WAT WAT 
WAT WAT WAT WAT WAT WAT WAT WAT WAT WAT WAT WAT WAT WAT WAT WAT WAT WAT WAT WAT 
WAT WAT WAT WAT WAT WAT WAT WAT WAT WAT WAT WAT WAT WAT WAT WAT WAT WAT WAT WAT 
WAT WAT WAT WAT WAT WAT WAT WAT WAT WAT WAT WAT WAT WAT WAT WAT WAT WAT WAT WAT 
WAT WAT WAT WAT WAT WAT WAT WAT WAT WAT WAT WAT WAT WAT WAT WAT WAT WAT WAT WAT 
WAT WAT WAT WAT WAT WAT WAT WAT WAT WAT WAT WAT WAT WAT WAT WAT WAT WAT WAT WAT 
WAT WAT WAT WAT WAT WAT WAT WAT WAT WAT WAT WAT WAT WAT WAT WAT WAT WAT WAT WAT 
WAT WAT WAT WAT WAT WAT WAT WAT WAT WAT WAT WAT WAT WAT WAT WAT WAT WAT WAT WAT 
WAT WAT WAT WAT WAT WAT WAT WAT WAT WAT WAT WAT WAT WAT WAT WAT WAT WAT WAT WAT 
WAT WAT WAT WAT WAT WAT WAT WAT WAT WAT WAT WAT WAT WAT WAT WAT WAT WAT WAT WAT 
WAT WAT WAT WAT WAT WAT WAT WAT WAT WAT WAT WAT WAT WAT WAT WAT WAT WAT WAT WAT 
WAT WAT WAT WAT WAT WAT WAT WAT WAT WAT WAT WAT WAT WAT WAT WAT WAT WAT WAT WAT 
WAT WAT WAT WAT WAT WAT WAT WAT WAT WAT WAT WAT WAT WAT WAT WAT WAT WAT WAT WAT 
WAT WAT WAT WAT WAT WAT WAT WAT WAT WAT WAT WAT WAT WAT WAT WAT WAT WAT WAT WAT 
WAT WAT WAT WAT WAT WAT WAT WAT WAT WAT WAT WAT WAT WAT WAT WAT WAT WAT WAT WAT 
WAT WAT WAT WAT WAT WAT WAT WAT WAT WAT WAT WAT WAT WAT WAT WAT WAT WAT WAT WAT 
WAT WAT WAT WAT WAT WAT WAT WAT WAT WAT WAT WAT WAT WAT WAT WAT WAT WAT WAT WAT 
WAT WAT WAT WAT WAT WAT WAT WAT WAT WAT WAT WAT WAT WAT WAT WAT WAT WAT WAT WAT 
WAT WAT WAT WAT WAT WAT WAT WAT WAT WAT WAT WAT WAT WAT WAT WAT WAT WAT WAT WAT 
WAT WAT WAT WAT WAT WAT WAT WAT WAT WAT WAT WAT WAT WAT WAT WAT WAT WAT WAT WAT 
WAT WAT WAT WAT WAT WAT WAT WAT WAT WAT WAT WAT WAT WAT WAT WAT WAT WAT WAT WAT 
WAT WAT WAT WAT WAT WAT WAT WAT WAT WAT WAT WAT WAT WAT WAT WAT WAT WAT WAT WAT 
WAT WAT WAT WAT WAT WAT WAT WAT WAT WAT WAT WAT WAT WAT WAT WAT WAT WAT WAT WAT 
WAT WAT WAT WAT WAT WAT WAT WAT WAT WAT WAT WAT WAT WAT WAT WAT WAT WAT WAT WAT 
WAT WAT WAT WAT WAT WAT WAT WAT WAT WAT WAT WAT WAT WAT WAT WAT WAT WAT WAT WAT 
WAT WAT WAT WAT WAT WAT WAT WAT WAT WAT WAT WAT WAT WAT WAT WAT WAT WAT WAT WAT 
WAT WAT WAT WAT WAT WAT WAT WAT WAT WAT WAT WAT WAT WAT WAT WAT WAT WAT WAT WAT 
WAT WAT WAT WAT WAT WAT WAT WAT WAT WAT WAT WAT WAT WAT WAT WAT WAT WAT WAT WAT 
WAT WAT WAT WAT WAT WAT WAT WAT WAT WAT WAT WAT WAT WAT WAT WAT WAT WAT WAT WAT 
WAT WAT WAT WAT WAT WAT WAT WAT WAT WAT WAT WAT WAT WAT WAT WAT WAT WAT WAT WAT 
WAT WAT WAT WAT WAT WAT WAT WAT WAT WAT WAT WAT WAT WAT WAT WAT WAT WAT WAT WAT 
WAT WAT WAT WAT WAT WAT WAT WAT WAT WAT WAT WAT WAT WAT WAT WAT WAT WAT WAT WAT 
WAT WAT WAT WAT WAT WAT WAT WAT WAT WAT WAT WAT WAT WAT WAT WAT WAT WAT WAT WAT 
WAT WAT WAT WAT WAT WAT WAT WAT WAT WAT WAT WAT WAT WAT WAT WAT WAT WAT WAT WAT 
WAT WAT WAT WAT WAT WAT WAT WAT WAT WAT WAT WAT WAT WAT WAT WAT WAT WAT WAT WAT 
WAT WAT WAT WAT WAT WAT WAT WAT WAT WAT WAT WAT WAT WAT WAT WAT WAT WAT WAT WAT 
WAT WAT WAT WAT WAT WAT WAT WAT WAT WAT WAT WAT WAT WAT WAT WAT WAT WAT WAT WAT 
WAT WAT WAT WAT WAT WAT WAT WAT WAT WAT WAT WAT WAT WAT WAT WAT WAT WAT WAT WAT 
WAT WAT WAT WAT WAT WAT WAT WAT WAT WAT WAT WAT WAT WAT WAT WAT WAT WAT WAT WAT 
WAT WAT WAT WAT WAT WAT WAT WAT WAT WAT WAT WAT WAT WAT WAT WAT WAT WAT WAT WAT 
WAT WAT WAT WAT WAT WAT WAT WAT WAT WAT WAT WAT WAT WAT WAT WAT WAT WAT WAT WAT 
WAT WAT WAT WAT WAT WAT WAT WAT WAT WAT WAT WAT WAT WAT WAT WAT WAT WAT WAT WAT 
WAT WAT WAT WAT WAT WAT WAT WAT WAT WAT WAT WAT WAT WAT WAT WAT WAT WAT WAT WAT 
WAT WAT WAT WAT WAT WAT WAT WAT WAT WAT WAT WAT WAT WAT WAT WAT WAT WAT WAT WAT 
WAT WAT WAT WAT WAT WAT WAT WAT WAT WAT WAT WAT WAT WAT WAT WAT WAT WAT WAT WAT 
WAT WAT WAT WAT WAT WAT WAT WAT WAT WAT WAT WAT WAT WAT WAT WAT WAT WAT WAT WAT 
WAT WAT WAT WAT WAT WAT WAT WAT WAT WAT WAT WAT WAT WAT WAT WAT WAT WAT WAT WAT 
WAT WAT WAT WAT WAT WAT WAT WAT WAT WAT WAT WAT WAT WAT WAT WAT WAT WAT WAT WAT 
WAT WAT WAT WAT WAT WAT WAT WAT WAT WAT WAT WAT WAT WAT WAT WAT WAT WAT WAT WAT 
WAT WAT WAT WAT WAT WAT WAT WAT WAT WAT WAT WAT WAT WAT WAT WAT WAT WAT WAT WAT 
WAT WAT WAT WAT WAT WAT WAT WAT WAT WAT WAT WAT WAT WAT WAT WAT WAT WAT WAT WAT 
WAT WAT WAT WAT WAT WAT WAT WAT WAT WAT WAT WAT WAT WAT WAT WAT WAT WAT WAT WAT 
WAT WAT WAT WAT WAT WAT WAT WAT WAT WAT WAT WAT WAT WAT WAT WAT WAT WAT WAT WAT 
WAT WAT WAT WAT WAT WAT WAT WAT WAT WAT WAT WAT WAT WAT WAT WAT WAT WAT WAT WAT 
WAT WAT WAT WAT WAT WAT WAT WAT WAT WAT WAT WAT WAT WAT WAT WAT WAT WAT WAT WAT 
WAT WAT WAT WAT WAT WAT WAT WAT WAT WAT WAT WAT WAT WAT WAT WAT WAT WAT WAT WAT 
WAT WAT WAT WAT WAT WAT WAT WAT WAT WAT WAT WAT WAT WAT WAT WAT WAT WAT WAT WAT 
WAT WAT WAT WAT WAT WAT WAT WAT WAT WAT WAT WAT WAT WAT WAT WAT WAT WAT WAT WAT 
WAT WAT WAT WAT WAT WAT WAT WAT WAT WAT WAT WAT WAT WAT WAT WAT WAT WAT WAT WAT 
WAT WAT WAT WAT WAT WAT WAT WAT WAT WAT WAT WAT WAT WAT WAT WAT WAT WAT WAT WAT 
WAT WAT WAT WAT WAT WAT WAT WAT WAT WAT WAT WAT WAT WAT WAT WAT WAT WAT WAT WAT 
WAT WAT WAT WAT WAT WAT WAT WAT WAT WAT WAT WAT WAT WAT WAT WAT WAT WAT WAT WAT 
WAT WAT WAT WAT WAT WAT WAT WAT WAT WAT WAT WAT WAT WAT WAT WAT WAT WAT WAT WAT 
WAT WAT WAT WAT WAT WAT WAT WAT WAT WAT WAT WAT WAT WAT WAT WAT WAT WAT WAT WAT 
WAT WAT WAT WAT WAT WAT WAT WAT WAT WAT WAT WAT WAT WAT WAT WAT WAT WAT WAT WAT 
WAT WAT WAT WAT WAT WAT WAT WAT WAT WAT WAT WAT WAT WAT WAT WAT WAT WAT WAT WAT 
WAT WAT WAT WAT WAT WAT WAT WAT WAT WAT WAT WAT WAT WAT WAT WAT WAT WAT WAT WAT 
WAT WAT WAT WAT WAT WAT WAT WAT WAT WAT WAT WAT WAT WAT WAT WAT WAT WAT WAT WAT 
WAT WAT WAT WAT WAT WAT WAT WAT WAT WAT WAT WAT WAT WAT WAT WAT WAT WAT WAT WAT 
WAT WAT WAT WAT WAT WAT WAT WAT WAT WAT WAT WAT WAT WAT WAT WAT WAT WAT WAT WAT 
WAT WAT WAT WAT WAT WAT WAT WAT WAT WAT WAT WAT WAT WAT WAT WAT WAT WAT WAT WAT 
WAT WAT WAT WAT WAT WAT WAT WAT WAT WAT WAT WAT WAT WAT WAT WAT WAT WAT WAT WAT 
WAT WAT WAT WAT WAT WAT WAT WAT WAT WAT WAT WAT WAT WAT WAT WAT WAT WAT WAT WAT 
WAT WAT WAT WAT WAT WAT WAT WAT WAT WAT WAT WAT WAT WAT WAT WAT WAT WAT WAT WAT 
WAT WAT WAT WAT WAT WAT WAT WAT WAT WAT WAT WAT WAT WAT WAT WAT WAT WAT WAT WAT 
WAT WAT WAT WAT WAT WAT WAT WAT WAT WAT WAT WAT WAT WAT WAT WAT WAT WAT WAT WAT 
WAT WAT WAT WAT WAT WAT WAT WAT WAT WAT WAT WAT WAT WAT WAT WAT WAT WAT WAT WAT 
WAT WAT WAT WAT WAT WAT WAT WAT WAT WAT WAT WAT WAT WAT WAT WAT WAT WAT WAT WAT 
WAT WAT WAT WAT WAT WAT WAT WAT WAT WAT WAT WAT WAT WAT WAT WAT WAT WAT WAT WAT 
WAT WAT WAT WAT WAT WAT WAT WAT WAT WAT WAT WAT WAT WAT WAT WAT WAT WAT WAT WAT 
WAT WAT WAT WAT WAT WAT WAT WAT WAT WAT WAT WAT WAT WAT WAT WAT WAT WAT WAT WAT 
WAT WAT WAT WAT WAT WAT WAT WAT WAT WAT WAT WAT WAT WAT WAT WAT WAT WAT WAT WAT 
WAT WAT WAT WAT WAT WAT WAT WAT WAT WAT WAT WAT WAT WAT WAT WAT WAT WAT WAT WAT 
WAT WAT WAT WAT WAT WAT WAT WAT WAT WAT WAT WAT WAT WAT WAT WAT WAT WAT WAT WAT 
WAT WAT WAT WAT WAT WAT WAT WAT WAT WAT WAT WAT WAT WAT WAT WAT WAT WAT WAT WAT 
WAT WAT WAT WAT WAT WAT WAT WAT WAT WAT WAT WAT WAT WAT WAT WAT WAT WAT WAT WAT 
WAT WAT WAT WAT WAT WAT WAT WAT WAT WAT WAT WAT WAT WAT WAT WAT WAT WAT WAT WAT 
WAT WAT WAT WAT WAT WAT WAT WAT WAT WAT WAT WAT WAT WAT WAT WAT WAT WAT WAT WAT 
WAT WAT WAT WAT WAT WAT WAT WAT WAT WAT WAT WAT WAT WAT WAT WAT WAT WAT WAT WAT 
WAT WAT WAT WAT WAT WAT WAT WAT WAT WAT WAT WAT WAT WAT WAT WAT WAT WAT WAT WAT 
WAT WAT WAT WAT WAT WAT WAT WAT WAT WAT WAT WAT WAT WAT WAT WAT WAT WAT WAT WAT 
WAT WAT WAT WAT WAT WAT WAT WAT WAT WAT WAT WAT WAT WAT WAT WAT WAT WAT WAT WAT 
WAT WAT WAT WAT WAT WAT WAT WAT WAT WAT WAT WAT WAT WAT WAT WAT WAT WAT WAT WAT 
WAT WAT WAT WAT WAT WAT WAT WAT WAT WAT WAT WAT WAT WAT WAT WAT WAT WAT WAT WAT 
WAT WAT WAT WAT WAT WAT WAT WAT WAT WAT WAT WAT WAT WAT WAT WAT WAT WAT WAT WAT 
WAT WAT WAT WAT WAT WAT WAT WAT WAT WAT WAT WAT WAT WAT WAT WAT WAT WAT WAT WAT 
WAT WAT WAT WAT WAT WAT WAT WAT WAT WAT WAT WAT WAT WAT WAT WAT WAT WAT WAT WAT 
WAT WAT WAT WAT WAT WAT WAT WAT WAT WAT WAT WAT WAT WAT WAT WAT WAT WAT WAT WAT 
WAT WAT WAT WAT WAT WAT WAT WAT WAT WAT WAT WAT WAT WAT WAT WAT WAT WAT WAT WAT 
WAT WAT WAT WAT WAT WAT WAT WAT WAT WAT WAT WAT WAT WAT WAT WAT WAT WAT WAT WAT 
WAT WAT WAT WAT WAT WAT WAT WAT WAT WAT WAT WAT WAT WAT WAT WAT WAT WAT WAT WAT 
WAT WAT WAT WAT WAT WAT WAT WAT WAT WAT WAT WAT WAT WAT WAT WAT WAT WAT WAT WAT 
WAT WAT WAT WAT WAT WAT WAT WAT WAT WAT WAT WAT WAT WAT WAT WAT WAT WAT WAT WAT 
WAT WAT WAT WAT WAT WAT WAT WAT WAT WAT WAT WAT WAT WAT WAT WAT WAT WAT WAT WAT 
WAT WAT WAT WAT WAT WAT WAT WAT WAT WAT WAT WAT WAT WAT WAT WAT WAT WAT WAT WAT 
WAT WAT WAT WAT WAT WAT WAT WAT WAT WAT WAT WAT WAT WAT WAT WAT WAT WAT WAT WAT 
WAT WAT WAT WAT WAT WAT WAT WAT WAT WAT WAT WAT WAT WAT WAT WAT WAT WAT WAT WAT 
WAT WAT WAT WAT WAT WAT WAT WAT WAT WAT WAT WAT WAT WAT WAT WAT WAT WAT WAT WAT 
WAT WAT WAT WAT WAT WAT WAT WAT WAT WAT WAT WAT WAT WAT WAT WAT WAT WAT WAT WAT 
WAT WAT WAT WAT WAT WAT WAT WAT WAT WAT WAT WAT WAT WAT WAT WAT WAT WAT WAT WAT 
WAT WAT WAT WAT WAT WAT WAT WAT WAT WAT WAT WAT WAT WAT WAT WAT WAT WAT WAT WAT 
WAT WAT WAT WAT WAT WAT WAT WAT WAT WAT WAT WAT WAT WAT WAT WAT WAT WAT WAT WAT 
WAT WAT WAT WAT WAT WAT WAT WAT WAT WAT WAT WAT WAT WAT WAT WAT WAT WAT WAT WAT 
WAT WAT WAT WAT WAT WAT WAT WAT WAT WAT WAT WAT WAT WAT WAT WAT WAT WAT WAT WAT 
WAT WAT WAT WAT WAT WAT WAT WAT WAT WAT WAT WAT WAT WAT WAT WAT WAT WAT WAT WAT 
WAT WAT WAT WAT WAT WAT WAT WAT WAT WAT WAT WAT WAT WAT WAT WAT WAT WAT WAT WAT 
WAT WAT WAT WAT WAT WAT WAT WAT WAT WAT WAT WAT WAT WAT WAT WAT WAT WAT WAT WAT 
WAT WAT WAT WAT WAT WAT WAT WAT WAT WAT WAT WAT WAT WAT WAT WAT WAT WAT WAT WAT 
WAT WAT WAT WAT WAT WAT WAT WAT WAT WAT WAT WAT WAT WAT WAT WAT WAT WAT WAT WAT 
WAT WAT WAT WAT WAT WAT WAT WAT WAT WAT WAT WAT WAT WAT WAT WAT WAT WAT WAT WAT 
WAT WAT WAT WAT WAT WAT WAT WAT WAT WAT WAT WAT WAT WAT WAT WAT WAT WAT WAT WAT 
WAT WAT WAT WAT WAT WAT WAT WAT WAT WAT WAT WAT WAT WAT WAT WAT WAT WAT WAT WAT 
WAT WAT WAT WAT WAT WAT WAT WAT WAT WAT WAT WAT WAT WAT WAT WAT WAT WAT WAT WAT 
WAT WAT WAT WAT WAT WAT WAT WAT WAT WAT WAT WAT WAT WAT WAT WAT WAT WAT WAT WAT 
WAT WAT WAT WAT WAT WAT WAT WAT WAT WAT WAT WAT WAT WAT WAT WAT WAT WAT WAT WAT 
WAT WAT WAT WAT WAT WAT WAT WAT WAT WAT WAT WAT WAT WAT WAT WAT WAT WAT WAT WAT 
WAT WAT WAT WAT WAT WAT WAT WAT WAT WAT WAT WAT WAT WAT WAT WAT WAT WAT WAT WAT 
WAT WAT WAT WAT WAT WAT WAT WAT WAT WAT WAT WAT WAT WAT WAT WAT WAT WAT WAT WAT 
WAT WAT WAT WAT WAT WAT WAT WAT WAT WAT WAT WAT WAT WAT WAT WAT WAT WAT WAT WAT 
WAT WAT WAT WAT WAT WAT WAT WAT WAT WAT WAT WAT WAT WAT WAT WAT WAT WAT WAT WAT 
WAT WAT WAT WAT WAT WAT WAT WAT WAT WAT WAT WAT WAT WAT WAT WAT WAT WAT WAT WAT 
WAT WAT WAT WAT WAT WAT WAT WAT WAT WAT WAT WAT WAT WAT WAT WAT WAT WAT WAT WAT 
WAT WAT WAT WAT WAT WAT WAT WAT WAT WAT WAT WAT WAT WAT WAT WAT WAT WAT WAT WAT 
WAT WAT WAT WAT WAT WAT WAT WAT WAT WAT WAT WAT WAT WAT WAT WAT WAT WAT WAT WAT 
WAT WAT WAT WAT WAT WAT WAT WAT WAT WAT WAT WAT WAT WAT WAT WAT WAT WAT WAT WAT 
WAT WAT WAT WAT WAT WAT WAT WAT WAT WAT WAT WAT WAT WAT WAT WAT WAT WAT WAT WAT 
WAT WAT WAT WAT WAT WAT WAT WAT WAT WAT WAT WAT WAT WAT WAT WAT WAT WAT WAT WAT 
WAT WAT WAT WAT WAT WAT WAT WAT WAT WAT WAT WAT WAT WAT WAT WAT WAT WAT WAT WAT 
WAT WAT WAT WAT WAT WAT WAT WAT WAT WAT WAT WAT WAT WAT WAT WAT WAT WAT WAT WAT 
WAT WAT WAT WAT WAT WAT WAT WAT WAT WAT WAT WAT WAT WAT WAT WAT WAT WAT WAT WAT 
WAT WAT WAT WAT WAT WAT WAT WAT WAT WAT WAT WAT WAT WAT WAT WAT WAT WAT WAT WAT 
WAT WAT WAT WAT WAT WAT WAT WAT WAT WAT WAT WAT WAT WAT WAT WAT WAT WAT WAT WAT 
WAT WAT WAT WAT WAT WAT WAT WAT WAT WAT WAT WAT WAT WAT WAT WAT WAT WAT WAT WAT 
WAT WAT WAT WAT WAT WAT WAT WAT WAT WAT WAT WAT WAT WAT WAT WAT WAT WAT WAT WAT 
WAT WAT WAT WAT WAT WAT WAT WAT WAT WAT WAT WAT WAT WAT WAT WAT WAT WAT WAT WAT 
WAT WAT WAT WAT WAT WAT WAT WAT WAT WAT WAT WAT WAT WAT WAT WAT WAT WAT WAT WAT 
WAT WAT WAT WAT WAT WAT WAT WAT WAT WAT WAT WAT WAT WAT WAT WAT WAT WAT WAT WAT 
WAT WAT WAT WAT WAT WAT WAT WAT WAT WAT WAT WAT WAT WAT WAT WAT WAT WAT WAT WAT 
WAT WAT WAT WAT WAT WAT WAT WAT WAT WAT WAT WAT WAT WAT WAT WAT WAT WAT WAT WAT 
WAT WAT WAT WAT WAT WAT WAT WAT WAT WAT WAT WAT WAT WAT WAT WAT WAT WAT WAT WAT 
WAT WAT WAT WAT WAT WAT WAT WAT WAT WAT WAT WAT WAT WAT WAT WAT WAT WAT WAT WAT 
WAT WAT WAT WAT WAT WAT WAT WAT WAT WAT WAT WAT WAT WAT WAT WAT WAT WAT WAT WAT 
WAT WAT WAT WAT WAT WAT WAT WAT WAT WAT WAT WAT WAT WAT WAT WAT WAT WAT WAT WAT 
WAT WAT WAT WAT WAT WAT WAT WAT WAT WAT WAT WAT WAT WAT WAT WAT WAT WAT WAT WAT 
WAT WAT WAT WAT WAT WAT WAT WAT WAT WAT WAT WAT WAT WAT WAT WAT WAT WAT WAT WAT 
WAT WAT WAT WAT WAT WAT WAT WAT WAT WAT WAT WAT WAT WAT WAT WAT WAT WAT WAT WAT 
WAT WAT WAT WAT WAT WAT WAT WAT WAT WAT WAT WAT WAT WAT WAT WAT WAT WAT WAT WAT 
WAT WAT WAT WAT WAT WAT WAT WAT WAT WAT WAT WAT WAT WAT WAT WAT WAT WAT WAT WAT 
WAT WAT WAT WAT WAT WAT WAT WAT WAT WAT WAT WAT WAT WAT WAT WAT WAT WAT WAT WAT 
WAT WAT WAT WAT WAT WAT WAT WAT WAT WAT WAT WAT WAT WAT WAT WAT WAT WAT WAT WAT 
WAT WAT WAT WAT WAT WAT WAT WAT WAT WAT WAT WAT WAT WAT WAT WAT WAT WAT WAT WAT 
WAT WAT WAT WAT WAT WAT WAT WAT WAT WAT WAT WAT WAT WAT WAT WAT WAT WAT WAT WAT 
WAT WAT WAT WAT WAT WAT WAT WAT WAT WAT WAT WAT WAT WAT WAT WAT WAT WAT WAT WAT 
WAT WAT WAT WAT WAT WAT WAT WAT WAT WAT WAT WAT WAT WAT WAT WAT WAT WAT WAT WAT 
WAT WAT WAT WAT WAT WAT WAT WAT WAT WAT WAT WAT WAT WAT WAT WAT WAT WAT WAT WAT 
WAT WAT WAT WAT WAT WAT WAT WAT WAT WAT WAT WAT WAT WAT WAT WAT WAT WAT WAT WAT 
WAT WAT WAT WAT WAT WAT WAT WAT WAT WAT WAT WAT WAT WAT WAT WAT WAT WAT WAT WAT 
WAT WAT WAT WAT WAT WAT WAT WAT WAT WAT WAT WAT WAT WAT WAT WAT WAT WAT WAT WAT 
WAT WAT WAT WAT WAT WAT WAT WAT WAT WAT WAT WAT WAT WAT WAT WAT WAT WAT WAT WAT 
WAT WAT WAT WAT WAT WAT WAT WAT WAT WAT WAT WAT WAT WAT WAT WAT WAT WAT WAT WAT 
WAT WAT WAT WAT WAT WAT WAT WAT WAT WAT WAT WAT WAT WAT WAT WAT WAT WAT WAT WAT 
WAT WAT WAT WAT WAT WAT WAT WAT WAT WAT WAT WAT WAT WAT WAT WAT WAT WAT WAT WAT 
WAT WAT WAT WAT WAT WAT WAT WAT WAT WAT WAT WAT WAT WAT WAT WAT WAT WAT WAT WAT 
WAT WAT WAT WAT WAT WAT WAT WAT WAT WAT WAT WAT WAT WAT WAT WAT WAT WAT WAT WAT 
WAT WAT WAT WAT WAT WAT WAT WAT WAT WAT WAT WAT WAT WAT WAT WAT WAT WAT WAT WAT 
WAT WAT WAT WAT WAT WAT WAT WAT WAT WAT WAT WAT WAT WAT WAT WAT WAT WAT WAT WAT 
WAT WAT WAT WAT WAT WAT WAT WAT WAT WAT WAT WAT WAT WAT WAT WAT WAT WAT WAT WAT 
WAT WAT WAT WAT WAT WAT WAT WAT WAT WAT WAT WAT WAT WAT WAT WAT WAT WAT WAT WAT 
WAT WAT WAT WAT WAT WAT WAT WAT WAT WAT WAT WAT WAT WAT WAT WAT WAT WAT WAT WAT 
WAT WAT WAT WAT WAT WAT WAT WAT WAT WAT WAT WAT WAT WAT WAT WAT WAT WAT WAT WAT 
WAT WAT WAT WAT WAT WAT WAT WAT WAT WAT WAT WAT WAT WAT WAT WAT WAT WAT WAT WAT 
WAT WAT WAT WAT WAT WAT WAT WAT WAT WAT WAT WAT WAT WAT WAT WAT WAT WAT WAT WAT 
WAT WAT WAT WAT WAT WAT WAT WAT WAT WAT WAT WAT WAT WAT WAT WAT WAT WAT WAT WAT 
WAT WAT WAT WAT WAT WAT WAT WAT WAT WAT WAT WAT WAT WAT WAT WAT WAT WAT WAT WAT 
WAT WAT WAT WAT WAT WAT WAT WAT WAT WAT WAT WAT WAT WAT WAT WAT WAT WAT WAT WAT 
WAT WAT WAT WAT WAT WAT WAT WAT WAT WAT WAT WAT WAT WAT WAT WAT WAT WAT WAT WAT 
WAT WAT WAT WAT WAT WAT WAT WAT WAT WAT WAT WAT WAT WAT WAT WAT WAT WAT WAT WAT 
WAT WAT WAT WAT WAT WAT WAT WAT WAT WAT WAT WAT WAT WAT WAT WAT WAT WAT WAT WAT 
WAT WAT WAT WAT WAT WAT WAT WAT WAT WAT WAT WAT WAT WAT WAT WAT WAT WAT WAT WAT 
WAT WAT WAT WAT WAT WAT WAT WAT WAT WAT WAT WAT WAT WAT WAT WAT WAT WAT WAT WAT 
WAT WAT WAT WAT WAT WAT WAT WAT WAT WAT WAT WAT WAT WAT WAT WAT WAT WAT WAT WAT 
WAT WAT WAT WAT WAT WAT WAT WAT WAT WAT WAT WAT WAT WAT WAT WAT WAT WAT WAT WAT 
WAT WAT WAT WAT WAT WAT WAT WAT WAT WAT WAT WAT WAT WAT WAT WAT WAT WAT WAT WAT 
WAT WAT WAT WAT WAT WAT WAT WAT WAT WAT WAT WAT WAT WAT WAT WAT WAT WAT WAT WAT 
WAT WAT WAT WAT WAT WAT WAT WAT WAT WAT WAT WAT WAT WAT WAT WAT WAT WAT WAT WAT 
WAT WAT WAT WAT WAT WAT WAT WAT WAT WAT WAT WAT WAT WAT WAT WAT WAT WAT WAT WAT 
WAT WAT WAT WAT WAT WAT WAT WAT WAT WAT WAT WAT WAT WAT WAT WAT WAT WAT WAT WAT 
WAT WAT WAT WAT WAT WAT WAT WAT WAT WAT WAT WAT WAT WAT WAT WAT WAT WAT WAT WAT 
WAT WAT WAT WAT WAT WAT WAT WAT WAT WAT WAT WAT WAT WAT WAT WAT WAT WAT WAT WAT 
WAT WAT WAT WAT WAT WAT WAT WAT WAT WAT WAT WAT WAT WAT WAT WAT WAT WAT WAT WAT 
WAT WAT WAT WAT WAT WAT WAT WAT WAT WAT WAT WAT WAT WAT WAT WAT WAT WAT WAT WAT 
WAT WAT WAT WAT WAT WAT WAT WAT WAT WAT WAT WAT WAT WAT WAT WAT WAT WAT WAT WAT 
WAT WAT WAT WAT WAT WAT WAT WAT WAT WAT WAT WAT WAT WAT WAT WAT WAT WAT WAT WAT 
WAT WAT WAT WAT WAT WAT WAT WAT WAT WAT WAT WAT WAT WAT WAT WAT WAT WAT WAT WAT 
WAT WAT WAT WAT WAT WAT WAT WAT WAT WAT WAT WAT WAT WAT WAT WAT WAT WAT WAT WAT 
WAT WAT WAT WAT WAT WAT WAT WAT WAT WAT WAT WAT WAT WAT WAT WAT WAT WAT WAT WAT 
WAT WAT WAT WAT WAT WAT WAT WAT WAT WAT WAT WAT WAT WAT WAT WAT WAT WAT WAT WAT 
WAT WAT WAT WAT WAT WAT WAT WAT WAT WAT WAT WAT WAT WAT WAT WAT WAT WAT WAT WAT 
WAT WAT WAT WAT WAT WAT WAT WAT WAT WAT WAT WAT WAT WAT WAT WAT WAT WAT WAT WAT 
WAT WAT WAT WAT WAT WAT WAT WAT WAT WAT WAT WAT WAT WAT WAT WAT WAT WAT WAT WAT 
WAT WAT WAT WAT WAT WAT WAT WAT WAT WAT WAT WAT WAT WAT WAT WAT WAT WAT WAT WAT 
WAT WAT WAT WAT WAT WAT WAT WAT WAT WAT WAT WAT WAT WAT WAT WAT WAT WAT WAT WAT 
WAT WAT WAT WAT WAT WAT WAT WAT WAT WAT WAT WAT WAT WAT WAT WAT WAT WAT WAT WAT 
WAT WAT WAT WAT WAT WAT WAT WAT WAT WAT WAT WAT WAT WAT WAT WAT WAT WAT WAT WAT 
WAT WAT WAT WAT WAT WAT WAT WAT WAT WAT WAT WAT WAT WAT WAT WAT WAT WAT WAT WAT 
WAT WAT WAT WAT WAT WAT WAT WAT WAT WAT WAT WAT WAT WAT WAT WAT WAT WAT WAT WAT 
WAT WAT WAT WAT WAT WAT WAT WAT WAT WAT WAT WAT WAT WAT WAT WAT WAT WAT WAT WAT 
WAT WAT WAT WAT WAT WAT WAT WAT WAT WAT WAT WAT WAT WAT WAT WAT WAT WAT WAT WAT 
WAT WAT WAT WAT WAT WAT WAT WAT WAT WAT WAT WAT WAT WAT WAT WAT WAT WAT WAT WAT 
WAT WAT WAT WAT WAT WAT WAT WAT WAT WAT WAT WAT WAT WAT WAT WAT WAT WAT WAT WAT 
WAT WAT WAT WAT WAT WAT WAT WAT WAT WAT WAT WAT WAT WAT WAT WAT WAT WAT WAT WAT 
WAT WAT WAT WAT WAT WAT WAT WAT WAT WAT WAT WAT WAT WAT WAT WAT WAT WAT WAT WAT 
WAT WAT WAT WAT WAT WAT WAT WAT WAT WAT WAT WAT WAT WAT WAT WAT WAT WAT WAT WAT 
WAT WAT WAT WAT WAT WAT WAT WAT WAT WAT WAT WAT WAT WAT WAT WAT WAT WAT WAT WAT 
WAT WAT WAT WAT WAT WAT WAT WAT WAT WAT WAT WAT WAT WAT WAT WAT WAT WAT WAT WAT 
WAT WAT WAT WAT WAT WAT WAT WAT WAT WAT WAT WAT WAT WAT WAT WAT WAT WAT WAT WAT 
WAT WAT WAT WAT WAT WAT WAT WAT WAT WAT WAT WAT WAT WAT WAT WAT WAT WAT WAT WAT 
WAT WAT WAT WAT WAT WAT WAT WAT WAT WAT WAT WAT WAT WAT WAT WAT WAT WAT WAT WAT 
WAT WAT WAT WAT WAT WAT WAT WAT WAT WAT WAT WAT WAT WAT WAT WAT WAT WAT WAT WAT 
WAT WAT WAT WAT WAT WAT WAT WAT WAT WAT WAT WAT WAT WAT WAT WAT WAT WAT WAT WAT 
WAT WAT WAT WAT WAT WAT WAT WAT WAT WAT WAT WAT WAT WAT WAT WAT WAT WAT WAT WAT 
WAT WAT WAT WAT WAT WAT WAT WAT WAT WAT WAT WAT WAT WAT WAT WAT WAT WAT WAT WAT 
WAT WAT WAT WAT WAT WAT WAT WAT WAT WAT WAT WAT WAT WAT WAT WAT WAT WAT WAT WAT 
WAT WAT WAT WAT WAT WAT WAT WAT WAT WAT WAT WAT WAT WAT WAT WAT WAT WAT WAT WAT 
WAT WAT WAT WAT WAT WAT WAT WAT WAT WAT WAT WAT WAT WAT WAT WAT WAT WAT WAT WAT 
WAT WAT WAT WAT WAT WAT WAT WAT WAT WAT WAT WAT WAT WAT WAT WAT WAT WAT WAT WAT 
WAT WAT WAT WAT WAT WAT WAT WAT WAT WAT WAT WAT WAT WAT WAT WAT WAT WAT WAT WAT 
WAT WAT WAT WAT WAT WAT WAT WAT WAT WAT WAT WAT WAT WAT WAT WAT WAT WAT WAT WAT 
WAT WAT WAT WAT WAT WAT WAT WAT WAT WAT WAT WAT WAT WAT WAT WAT WAT WAT WAT WAT 
WAT WAT WAT WAT WAT WAT WAT WAT WAT WAT WAT WAT WAT WAT WAT WAT WAT WAT WAT WAT 
WAT WAT WAT WAT WAT WAT WAT WAT WAT WAT WAT WAT WAT WAT WAT WAT WAT WAT WAT WAT 
WAT WAT WAT WAT WAT WAT WAT WAT WAT WAT WAT WAT WAT WAT WAT WAT WAT WAT WAT WAT 
WAT WAT WAT WAT WAT WAT WAT WAT WAT WAT WAT WAT WAT WAT WAT WAT WAT WAT WAT WAT 
WAT WAT WAT WAT WAT WAT WAT WAT WAT WAT WAT WAT WAT WAT WAT WAT WAT WAT WAT WAT 
WAT WAT WAT WAT WAT WAT WAT WAT WAT WAT WAT WAT WAT WAT WAT WAT WAT WAT WAT WAT 
WAT WAT WAT WAT WAT WAT WAT WAT WAT WAT WAT WAT WAT WAT WAT WAT WAT WAT WAT WAT 
WAT WAT WAT WAT WAT WAT WAT WAT WAT WAT WAT WAT WAT WAT WAT WAT WAT WAT WAT WAT 
WAT WAT WAT WAT WAT WAT WAT WAT WAT WAT WAT WAT WAT WAT WAT WAT WAT WAT WAT WAT 
WAT WAT WAT WAT WAT WAT WAT WAT WAT WAT WAT WAT WAT WAT WAT WAT WAT WAT WAT WAT 
WAT WAT WAT WAT WAT WAT WAT WAT WAT WAT WAT WAT WAT WAT WAT WAT WAT WAT WAT WAT 
WAT WAT WAT WAT WAT WAT WAT WAT WAT WAT WAT WAT WAT WAT WAT WAT WAT WAT WAT WAT 
WAT WAT WAT WAT WAT WAT WAT WAT WAT WAT WAT WAT WAT WAT WAT WAT WAT WAT WAT WAT 
WAT WAT WAT WAT WAT WAT WAT WAT WAT WAT WAT WAT WAT WAT WAT WAT WAT WAT WAT WAT 
WAT WAT WAT WAT WAT WAT WAT WAT WAT WAT WAT WAT WAT WAT WAT WAT WAT WAT WAT WAT 
WAT WAT WAT WAT WAT WAT WAT WAT WAT WAT WAT WAT WAT WAT WAT WAT WAT WAT WAT WAT 
WAT WAT WAT WAT WAT WAT WAT WAT WAT WAT WAT WAT WAT WAT WAT WAT WAT WAT WAT WAT 
WAT WAT WAT WAT WAT WAT WAT WAT WAT WAT WAT WAT WAT WAT WAT WAT WAT WAT WAT WAT 
WAT WAT WAT WAT WAT WAT WAT WAT WAT WAT WAT WAT WAT WAT WAT WAT WAT WAT WAT WAT 
WAT WAT WAT WAT WAT WAT WAT WAT WAT WAT WAT WAT WAT WAT WAT WAT WAT WAT WAT WAT 
WAT WAT WAT WAT WAT WAT WAT WAT WAT WAT WAT WAT WAT WAT WAT WAT WAT WAT WAT WAT 
WAT WAT WAT WAT WAT WAT WAT WAT WAT WAT WAT WAT WAT WAT WAT WAT WAT WAT WAT WAT 
WAT WAT WAT WAT WAT WAT WAT WAT WAT WAT WAT WAT WAT WAT WAT WAT WAT WAT WAT WAT 
WAT WAT WAT WAT WAT WAT WAT WAT WAT WAT WAT WAT WAT WAT WAT WAT WAT WAT WAT WAT 
WAT WAT WAT WAT WAT WAT WAT WAT WAT WAT WAT WAT WAT WAT WAT WAT WAT WAT WAT WAT 
WAT WAT WAT WAT WAT WAT WAT WAT WAT WAT WAT WAT WAT WAT WAT WAT WAT WAT WAT WAT 
WAT WAT WAT WAT WAT WAT WAT WAT WAT WAT WAT WAT WAT WAT WAT WAT WAT WAT WAT WAT 
WAT WAT WAT WAT WAT WAT WAT WAT WAT WAT WAT WAT WAT WAT WAT WAT WAT WAT WAT WAT 
WAT WAT WAT WAT WAT WAT WAT WAT WAT WAT WAT WAT WAT WAT WAT WAT WAT WAT WAT WAT 
WAT WAT WAT WAT WAT WAT WAT WAT WAT WAT WAT WAT WAT WAT WAT WAT WAT WAT WAT WAT 
WAT WAT WAT WAT WAT WAT WAT WAT WAT WAT WAT WAT WAT WAT WAT WAT WAT WAT WAT WAT 
WAT WAT WAT WAT WAT WAT WAT WAT WAT WAT WAT WAT WAT WAT WAT WAT WAT WAT WAT WAT 
WAT WAT WAT WAT WAT WAT WAT WAT WAT WAT WAT WAT WAT WAT WAT WAT WAT WAT WAT WAT 
WAT WAT WAT WAT WAT WAT WAT WAT WAT WAT WAT WAT WAT WAT WAT WAT WAT WAT WAT WAT 
WAT WAT WAT WAT WAT WAT WAT WAT WAT WAT WAT WAT WAT WAT WAT WAT WAT WAT WAT WAT 
WAT WAT WAT WAT WAT WAT WAT WAT WAT WAT WAT WAT WAT WAT WAT WAT WAT WAT WAT WAT 
WAT WAT WAT WAT WAT WAT WAT WAT WAT WAT WAT WAT WAT WAT WAT WAT WAT WAT WAT WAT 
WAT WAT WAT WAT WAT WAT WAT WAT WAT WAT WAT WAT WAT WAT WAT WAT WAT WAT WAT WAT 
WAT WAT WAT WAT WAT WAT WAT WAT WAT WAT WAT WAT WAT WAT WAT WAT WAT WAT WAT WAT 
WAT WAT WAT WAT WAT WAT WAT WAT WAT WAT WAT WAT WAT WAT WAT WAT WAT WAT WAT WAT 
WAT WAT WAT WAT WAT WAT WAT WAT WAT WAT WAT WAT WAT WAT WAT WAT WAT WAT WAT WAT 
WAT WAT WAT WAT WAT WAT WAT WAT WAT WAT WAT WAT WAT WAT WAT WAT WAT WAT WAT WAT 
WAT WAT WAT WAT WAT WAT WAT WAT WAT WAT WAT WAT WAT WAT WAT WAT WAT WAT WAT WAT 
WAT WAT WAT WAT WAT WAT WAT WAT WAT WAT WAT WAT WAT WAT WAT WAT WAT WAT WAT WAT 
WAT WAT WAT WAT WAT WAT WAT WAT WAT WAT WAT WAT WAT WAT WAT WAT WAT WAT WAT WAT 
WAT WAT WAT WAT WAT WAT WAT WAT WAT WAT WAT WAT WAT WAT WAT WAT WAT WAT WAT WAT 
WAT WAT WAT WAT WAT WAT WAT WAT WAT WAT WAT WAT WAT WAT WAT WAT WAT WAT WAT WAT 
WAT WAT WAT WAT WAT WAT WAT WAT WAT WAT WAT WAT WAT WAT WAT WAT WAT WAT WAT WAT 
WAT WAT WAT WAT WAT WAT WAT WAT WAT WAT WAT WAT WAT WAT WAT WAT WAT WAT WAT WAT 
WAT WAT WAT WAT WAT WAT WAT WAT WAT WAT WAT WAT WAT WAT WAT WAT WAT WAT WAT WAT 
WAT WAT WAT WAT WAT WAT WAT WAT WAT WAT WAT WAT WAT WAT WAT WAT WAT WAT WAT WAT 
WAT WAT WAT WAT WAT WAT WAT WAT WAT WAT WAT WAT WAT WAT WAT WAT WAT WAT WAT WAT 
WAT WAT WAT WAT WAT WAT WAT WAT WAT WAT WAT WAT WAT WAT WAT WAT WAT WAT WAT WAT 
WAT WAT WAT WAT WAT WAT WAT WAT WAT WAT WAT WAT WAT WAT WAT WAT WAT WAT WAT WAT 
WAT WAT WAT WAT WAT WAT WAT WAT WAT WAT WAT WAT WAT WAT WAT WAT WAT WAT WAT WAT 
WAT WAT WAT WAT WAT WAT WAT WAT WAT WAT WAT WAT WAT WAT WAT WAT WAT WAT WAT WAT 
WAT WAT WAT WAT WAT WAT WAT WAT WAT WAT WAT WAT WAT WAT WAT WAT WAT WAT WAT WAT 
WAT WAT WAT WAT WAT WAT WAT WAT WAT WAT WAT WAT WAT WAT WAT WAT WAT WAT WAT WAT 
WAT WAT WAT WAT WAT WAT WAT WAT WAT WAT WAT WAT WAT WAT WAT WAT WAT WAT WAT WAT 
WAT WAT WAT WAT WAT WAT WAT WAT WAT WAT WAT WAT WAT WAT WAT WAT WAT WAT WAT WAT 
WAT WAT WAT WAT WAT WAT WAT WAT WAT WAT WAT WAT WAT WAT WAT WAT WAT WAT WAT WAT 
WAT WAT WAT WAT WAT WAT WAT WAT WAT WAT WAT WAT WAT WAT WAT WAT WAT WAT WAT WAT 
WAT WAT WAT WAT WAT WAT WAT WAT WAT WAT WAT WAT WAT WAT WAT WAT WAT WAT WAT WAT 
WAT WAT WAT WAT WAT WAT WAT WAT WAT WAT WAT WAT WAT WAT WAT WAT WAT WAT WAT WAT 
WAT WAT WAT WAT WAT WAT WAT WAT WAT WAT WAT WAT WAT WAT WAT WAT WAT WAT WAT WAT 
WAT WAT WAT WAT WAT WAT WAT WAT WAT WAT WAT WAT WAT WAT WAT WAT WAT WAT WAT WAT 
WAT WAT WAT WAT WAT WAT WAT WAT WAT WAT WAT WAT WAT WAT WAT WAT WAT WAT WAT WAT 
WAT WAT WAT WAT WAT WAT WAT WAT WAT WAT WAT WAT WAT WAT WAT WAT WAT WAT WAT WAT 
WAT WAT WAT WAT WAT WAT WAT WAT WAT WAT WAT WAT WAT WAT WAT WAT WAT WAT WAT WAT 
WAT WAT WAT WAT WAT WAT WAT WAT WAT WAT WAT WAT WAT WAT WAT WAT WAT WAT WAT WAT 
WAT WAT WAT WAT WAT WAT WAT WAT WAT WAT WAT WAT WAT WAT WAT WAT WAT WAT WAT WAT 
WAT WAT WAT WAT WAT WAT WAT WAT WAT WAT WAT WAT WAT WAT WAT WAT WAT WAT WAT WAT 
WAT WAT WAT WAT WAT WAT WAT WAT WAT WAT WAT WAT WAT WAT WAT WAT WAT WAT WAT WAT 
WAT WAT WAT WAT WAT WAT WAT WAT WAT WAT WAT WAT WAT WAT WAT WAT WAT WAT WAT WAT 
WAT WAT WAT WAT WAT WAT WAT WAT WAT WAT WAT WAT WAT WAT WAT WAT WAT WAT WAT WAT 
WAT WAT WAT WAT WAT WAT WAT WAT WAT WAT WAT WAT WAT WAT WAT WAT WAT WAT WAT WAT 
WAT WAT WAT WAT WAT WAT WAT WAT WAT WAT WAT WAT WAT WAT WAT WAT WAT WAT WAT WAT 
WAT WAT WAT WAT WAT WAT WAT WAT WAT WAT WAT WAT WAT WAT WAT WAT WAT WAT WAT WAT 
WAT WAT WAT WAT WAT WAT WAT WAT WAT WAT WAT WAT WAT WAT WAT WAT WAT WAT WAT WAT 
WAT WAT WAT WAT WAT WAT WAT WAT WAT WAT WAT WAT WAT WAT WAT WAT WAT WAT WAT WAT 
WAT WAT WAT WAT WAT WAT WAT WAT WAT WAT WAT WAT WAT WAT WAT WAT WAT WAT WAT WAT 
WAT WAT WAT WAT WAT WAT WAT WAT WAT WAT WAT WAT WAT WAT WAT WAT WAT WAT WAT WAT 
WAT WAT WAT WAT WAT WAT WAT WAT WAT WAT WAT WAT WAT WAT WAT WAT WAT WAT WAT WAT 
WAT WAT WAT WAT WAT WAT WAT WAT WAT WAT WAT WAT WAT WAT WAT WAT WAT WAT WAT WAT 
WAT WAT WAT WAT WAT WAT WAT WAT WAT WAT WAT WAT WAT WAT WAT WAT WAT WAT WAT WAT 
WAT WAT WAT WAT WAT WAT WAT WAT WAT WAT WAT WAT WAT WAT WAT WAT WAT WAT WAT WAT 
WAT WAT WAT WAT WAT WAT WAT WAT WAT WAT WAT WAT WAT WAT WAT WAT WAT WAT WAT WAT 
WAT WAT WAT WAT WAT WAT WAT WAT WAT WAT WAT WAT WAT WAT WAT WAT WAT WAT WAT WAT 
WAT WAT WAT WAT WAT WAT WAT WAT WAT WAT WAT WAT WAT WAT WAT WAT WAT WAT WAT WAT 
WAT WAT WAT WAT WAT WAT WAT WAT WAT WAT WAT WAT WAT WAT WAT WAT WAT WAT WAT WAT 
WAT WAT WAT WAT WAT WAT WAT WAT WAT WAT WAT WAT WAT WAT WAT WAT WAT WAT WAT WAT 
WAT WAT WAT WAT WAT WAT WAT WAT WAT WAT WAT WAT WAT WAT WAT WAT WAT WAT WAT WAT 
WAT WAT WAT WAT WAT WAT WAT WAT WAT WAT WAT WAT WAT WAT WAT WAT WAT WAT WAT WAT 
WAT WAT WAT WAT WAT WAT WAT WAT WAT WAT WAT WAT WAT WAT WAT WAT WAT WAT WAT WAT 
WAT WAT WAT WAT WAT WAT WAT WAT WAT WAT WAT WAT WAT WAT WAT WAT WAT WAT WAT WAT 
WAT WAT WAT WAT WAT WAT WAT WAT WAT WAT WAT WAT WAT WAT WAT WAT WAT WAT WAT WAT 
WAT WAT WAT WAT WAT WAT WAT WAT WAT WAT WAT WAT WAT WAT WAT WAT WAT WAT WAT WAT 
WAT WAT WAT WAT WAT WAT WAT WAT WAT WAT WAT WAT WAT WAT WAT WAT WAT WAT WAT WAT 
WAT WAT WAT WAT WAT WAT WAT WAT WAT WAT WAT WAT WAT WAT WAT WAT WAT WAT WAT WAT 
WAT WAT WAT WAT WAT WAT WAT WAT WAT WAT WAT WAT WAT WAT WAT WAT WAT WAT WAT WAT 
WAT WAT WAT WAT WAT WAT WAT WAT WAT WAT WAT WAT WAT WAT WAT WAT WAT WAT WAT WAT 
WAT WAT WAT WAT WAT WAT WAT WAT WAT WAT WAT WAT WAT WAT WAT WAT WAT WAT WAT WAT 
WAT WAT WAT WAT WAT WAT WAT WAT WAT WAT WAT WAT WAT WAT WAT WAT WAT WAT WAT WAT 
WAT WAT WAT WAT WAT WAT WAT WAT WAT WAT WAT WAT WAT WAT WAT WAT WAT WAT WAT WAT 
WAT WAT WAT WAT WAT WAT WAT WAT WAT WAT WAT WAT WAT WAT WAT WAT WAT WAT WAT WAT 
WAT WAT WAT WAT WAT WAT WAT WAT WAT WAT WAT WAT WAT WAT WAT WAT WAT WAT WAT WAT 
WAT WAT WAT WAT WAT WAT WAT WAT WAT WAT WAT WAT WAT WAT WAT WAT WAT WAT WAT WAT 
WAT WAT WAT WAT WAT WAT WAT WAT WAT WAT WAT WAT WAT WAT WAT WAT WAT WAT WAT WAT 
WAT WAT WAT WAT WAT WAT WAT WAT WAT WAT WAT WAT WAT WAT WAT WAT WAT WAT WAT WAT 
WAT WAT WAT WAT WAT WAT WAT WAT WAT WAT WAT WAT WAT WAT WAT WAT WAT WAT WAT WAT 
WAT WAT WAT WAT WAT WAT WAT WAT WAT WAT WAT WAT WAT WAT WAT WAT WAT WAT WAT WAT 
WAT WAT WAT WAT WAT WAT WAT WAT WAT WAT WAT WAT WAT WAT WAT WAT WAT WAT WAT WAT 
WAT WAT WAT WAT WAT WAT WAT WAT WAT WAT WAT WAT WAT WAT WAT WAT WAT WAT WAT WAT 
WAT WAT WAT WAT WAT WAT WAT WAT WAT WAT WAT WAT WAT WAT WAT WAT WAT WAT WAT WAT 
WAT WAT WAT WAT WAT WAT WAT WAT WAT WAT WAT WAT WAT WAT WAT WAT WAT WAT WAT WAT 
WAT WAT WAT WAT WAT WAT WAT WAT WAT WAT WAT WAT WAT WAT WAT WAT WAT WAT WAT WAT 
WAT WAT WAT WAT WAT WAT WAT WAT WAT WAT WAT WAT WAT WAT WAT WAT WAT WAT WAT WAT 
WAT WAT WAT WAT WAT WAT WAT WAT WAT WAT WAT WAT WAT WAT WAT WAT WAT WAT WAT WAT 
WAT WAT WAT WAT WAT WAT WAT WAT WAT WAT WAT WAT WAT WAT WAT WAT WAT WAT WAT WAT 
WAT WAT WAT WAT WAT WAT WAT WAT WAT WAT WAT WAT WAT WAT WAT WAT WAT WAT WAT WAT 
WAT WAT WAT WAT WAT WAT WAT WAT WAT WAT WAT WAT WAT WAT WAT WAT WAT WAT WAT WAT 
WAT WAT WAT WAT WAT WAT WAT WAT WAT WAT WAT WAT WAT WAT WAT WAT WAT WAT WAT WAT 
WAT WAT WAT WAT WAT WAT WAT WAT WAT WAT WAT WAT WAT WAT WAT WAT WAT WAT WAT WAT 
WAT WAT WAT WAT WAT WAT WAT WAT WAT WAT WAT WAT WAT WAT WAT WAT WAT WAT WAT WAT 
WAT WAT WAT WAT WAT WAT WAT WAT WAT WAT WAT WAT WAT WAT WAT WAT WAT WAT WAT WAT 
WAT WAT WAT WAT WAT WAT WAT WAT WAT WAT WAT WAT WAT WAT WAT WAT WAT WAT WAT WAT 
WAT WAT WAT WAT WAT WAT WAT WAT WAT WAT WAT WAT WAT WAT WAT WAT WAT WAT WAT WAT 
WAT WAT WAT WAT WAT WAT WAT WAT WAT WAT WAT WAT WAT WAT WAT WAT WAT WAT WAT WAT 
WAT WAT WAT WAT WAT WAT WAT WAT WAT WAT WAT WAT WAT WAT WAT WAT WAT WAT WAT WAT 
WAT WAT WAT WAT WAT WAT WAT WAT WAT WAT WAT WAT WAT WAT WAT WAT WAT WAT WAT WAT 
WAT WAT WAT WAT WAT WAT WAT WAT WAT WAT WAT WAT WAT WAT WAT WAT WAT WAT WAT WAT 
WAT WAT WAT WAT WAT WAT WAT WAT WAT WAT WAT WAT WAT WAT WAT WAT WAT WAT WAT WAT 
WAT WAT WAT WAT WAT WAT WAT WAT WAT WAT WAT WAT WAT WAT WAT WAT WAT WAT WAT WAT 
WAT WAT WAT WAT WAT WAT WAT WAT WAT WAT WAT WAT WAT WAT WAT WAT WAT WAT WAT WAT 
WAT WAT WAT WAT WAT WAT WAT WAT WAT WAT WAT WAT WAT WAT WAT WAT WAT WAT WAT WAT 
WAT WAT WAT WAT WAT WAT WAT WAT WAT WAT WAT WAT WAT WAT WAT WAT WAT WAT WAT WAT 
WAT WAT WAT WAT WAT WAT WAT WAT WAT WAT WAT WAT WAT WAT WAT WAT WAT WAT WAT WAT 
WAT WAT WAT WAT WAT WAT WAT WAT WAT WAT WAT WAT WAT WAT WAT WAT WAT WAT WAT WAT 
WAT WAT WAT WAT WAT WAT WAT WAT WAT WAT WAT WAT WAT WAT WAT WAT WAT WAT WAT WAT 
WAT WAT WAT WAT WAT WAT WAT WAT WAT WAT WAT WAT WAT WAT WAT WAT WAT WAT WAT WAT 
WAT WAT WAT WAT WAT WAT WAT WAT WAT WAT WAT WAT WAT WAT WAT WAT WAT WAT WAT WAT 
WAT WAT WAT WAT WAT WAT WAT WAT WAT WAT WAT WAT WAT WAT WAT WAT WAT WAT WAT WAT 
WAT WAT WAT WAT WAT WAT WAT WAT WAT WAT WAT WAT WAT WAT WAT WAT WAT WAT WAT WAT 
WAT WAT WAT WAT WAT WAT WAT WAT WAT WAT WAT WAT WAT WAT WAT WAT WAT WAT WAT WAT 
WAT WAT WAT WAT WAT WAT WAT WAT WAT WAT WAT WAT WAT WAT WAT WAT WAT WAT WAT WAT 
WAT WAT WAT WAT WAT WAT WAT WAT WAT WAT WAT WAT WAT WAT WAT WAT WAT WAT WAT WAT 
WAT WAT WAT WAT WAT WAT WAT WAT WAT WAT WAT WAT WAT WAT WAT WAT WAT WAT WAT WAT 
WAT WAT WAT WAT WAT WAT WAT WAT WAT WAT WAT WAT WAT WAT WAT WAT WAT WAT WAT WAT 
WAT WAT WAT WAT WAT WAT WAT WAT WAT WAT WAT WAT WAT WAT WAT WAT WAT WAT WAT WAT 
WAT WAT WAT WAT WAT WAT WAT WAT WAT WAT WAT WAT WAT WAT WAT WAT WAT WAT WAT WAT 
WAT WAT WAT WAT WAT WAT WAT WAT WAT WAT WAT WAT WAT WAT WAT WAT WAT WAT WAT WAT 
WAT WAT WAT WAT WAT WAT WAT WAT WAT WAT WAT WAT WAT WAT WAT WAT WAT WAT WAT WAT 
WAT WAT WAT WAT WAT WAT WAT WAT WAT WAT WAT WAT WAT WAT WAT WAT WAT WAT WAT WAT 
WAT WAT WAT WAT WAT WAT WAT WAT WAT WAT WAT WAT WAT WAT WAT WAT WAT WAT WAT WAT 
WAT WAT WAT WAT WAT WAT WAT WAT WAT WAT WAT WAT WAT WAT WAT WAT WAT WAT WAT WAT 
WAT WAT WAT WAT WAT WAT WAT WAT WAT WAT WAT WAT WAT WAT WAT WAT WAT WAT WAT WAT 
WAT WAT WAT WAT WAT WAT WAT WAT WAT WAT WAT WAT WAT WAT WAT WAT WAT WAT WAT WAT 
WAT WAT WAT WAT WAT WAT WAT WAT WAT WAT WAT WAT WAT WAT WAT WAT WAT WAT WAT WAT 
WAT WAT WAT WAT WAT WAT WAT WAT WAT WAT WAT WAT WAT WAT WAT WAT WAT WAT WAT WAT 
WAT WAT WAT WAT WAT WAT WAT WAT WAT WAT WAT WAT WAT WAT WAT WAT WAT WAT WAT WAT 
WAT WAT WAT WAT WAT WAT WAT WAT WAT WAT WAT WAT WAT WAT WAT WAT WAT WAT WAT WAT 
WAT WAT WAT WAT WAT WAT WAT WAT WAT WAT WAT WAT WAT WAT WAT WAT WAT WAT WAT WAT 
WAT WAT WAT WAT WAT WAT WAT WAT WAT WAT WAT WAT WAT WAT WAT WAT WAT WAT WAT WAT 
WAT WAT WAT WAT WAT WAT WAT WAT WAT WAT WAT WAT WAT WAT WAT WAT WAT WAT WAT WAT 
WAT WAT WAT WAT WAT WAT WAT WAT WAT WAT WAT WAT WAT WAT WAT WAT WAT WAT WAT WAT 
WAT WAT WAT WAT WAT WAT WAT WAT WAT WAT WAT WAT WAT WAT WAT WAT WAT WAT WAT WAT 
WAT WAT WAT WAT WAT WAT WAT WAT WAT WAT WAT WAT WAT WAT WAT WAT WAT WAT WAT WAT 
WAT WAT WAT WAT WAT WAT WAT WAT WAT WAT WAT WAT WAT WAT WAT WAT WAT WAT WAT WAT 
WAT WAT WAT WAT WAT WAT WAT WAT WAT WAT WAT WAT WAT WAT WAT WAT WAT WAT WAT WAT 
WAT WAT WAT WAT WAT WAT WAT WAT WAT WAT WAT WAT WAT WAT WAT WAT WAT WAT WAT WAT 
WAT WAT WAT WAT WAT WAT WAT WAT WAT WAT WAT WAT WAT WAT WAT WAT WAT WAT WAT WAT 
WAT WAT WAT WAT WAT WAT WAT WAT WAT WAT WAT WAT WAT WAT WAT WAT WAT WAT WAT WAT 
WAT WAT WAT WAT WAT WAT WAT WAT WAT WAT WAT WAT WAT WAT WAT WAT WAT WAT WAT WAT 
WAT WAT WAT WAT WAT WAT WAT WAT WAT WAT WAT WAT WAT WAT WAT WAT WAT WAT WAT WAT 
WAT WAT WAT WAT WAT WAT WAT WAT WAT WAT WAT WAT WAT WAT WAT WAT WAT WAT WAT WAT 
WAT WAT WAT WAT WAT WAT WAT WAT WAT WAT WAT WAT WAT WAT WAT WAT WAT WAT WAT WAT 
WAT WAT WAT WAT WAT WAT WAT WAT WAT WAT WAT WAT WAT WAT WAT WAT WAT WAT WAT WAT 
WAT WAT WAT WAT WAT WAT WAT WAT WAT WAT WAT WAT WAT WAT WAT WAT WAT WAT WAT WAT 
WAT WAT WAT WAT WAT WAT WAT WAT WAT WAT WAT WAT WAT WAT WAT WAT WAT WAT WAT WAT 
WAT WAT WAT WAT WAT WAT WAT WAT WAT WAT WAT WAT WAT WAT WAT WAT WAT WAT WAT WAT 
WAT WAT WAT WAT WAT WAT WAT WAT WAT WAT WAT WAT WAT WAT WAT WAT WAT WAT WAT WAT 
WAT WAT WAT WAT WAT WAT WAT WAT WAT WAT WAT WAT WAT WAT WAT WAT WAT WAT WAT WAT 
WAT WAT WAT WAT WAT WAT WAT WAT WAT WAT WAT WAT WAT WAT WAT WAT WAT WAT WAT WAT 
WAT WAT WAT WAT WAT WAT WAT WAT WAT WAT WAT WAT WAT WAT WAT WAT WAT WAT WAT WAT 
WAT WAT WAT WAT WAT WAT WAT WAT WAT WAT WAT WAT WAT WAT WAT WAT WAT WAT WAT WAT 
WAT WAT WAT WAT WAT WAT WAT WAT WAT WAT WAT WAT WAT WAT WAT WAT WAT WAT WAT WAT 
WAT WAT WAT WAT WAT WAT WAT WAT WAT WAT WAT WAT WAT WAT WAT WAT WAT WAT WAT WAT 
WAT WAT WAT WAT WAT WAT WAT WAT WAT WAT WAT WAT WAT WAT WAT WAT WAT WAT WAT WAT 
WAT WAT WAT WAT WAT WAT WAT WAT WAT WAT WAT WAT WAT WAT WAT WAT WAT WAT WAT WAT 
WAT WAT WAT WAT WAT WAT WAT WAT WAT WAT WAT WAT WAT WAT WAT WAT WAT WAT WAT WAT 
WAT WAT WAT WAT WAT WAT WAT WAT WAT WAT WAT WAT WAT WAT WAT WAT WAT WAT WAT WAT 
WAT WAT WAT WAT WAT WAT WAT WAT WAT WAT WAT WAT WAT WAT WAT WAT WAT WAT WAT WAT 
WAT WAT WAT WAT WAT WAT WAT WAT WAT WAT WAT WAT WAT WAT WAT WAT WAT WAT WAT WAT 
WAT WAT WAT WAT WAT WAT WAT WAT WAT WAT WAT WAT WAT WAT WAT WAT WAT WAT WAT WAT 
WAT WAT WAT WAT WAT WAT WAT WAT WAT WAT WAT WAT WAT WAT WAT WAT WAT WAT WAT WAT 
WAT WAT WAT WAT WAT WAT WAT WAT WAT WAT WAT WAT WAT WAT WAT WAT WAT WAT WAT WAT 
WAT WAT WAT WAT WAT WAT WAT WAT WAT WAT WAT WAT WAT WAT WAT WAT WAT WAT WAT WAT 
WAT WAT WAT WAT WAT WAT WAT WAT WAT WAT WAT WAT WAT WAT WAT WAT WAT WAT WAT WAT 
WAT WAT WAT WAT WAT WAT WAT WAT WAT WAT WAT WAT WAT WAT WAT WAT WAT WAT WAT WAT 
WAT WAT WAT WAT WAT WAT WAT WAT WAT WAT WAT WAT WAT WAT WAT WAT WAT WAT WAT WAT 
WAT WAT WAT WAT WAT WAT WAT WAT WAT WAT WAT WAT WAT WAT WAT WAT WAT WAT WAT WAT 
WAT WAT WAT WAT WAT WAT WAT WAT WAT WAT WAT WAT WAT WAT WAT WAT WAT WAT WAT WAT 
WAT WAT WAT WAT WAT WAT WAT WAT WAT WAT WAT WAT WAT WAT WAT WAT WAT WAT WAT WAT 
WAT WAT WAT WAT WAT WAT WAT WAT WAT WAT WAT WAT WAT WAT WAT WAT WAT WAT WAT WAT 
WAT WAT WAT WAT WAT WAT WAT WAT WAT WAT WAT WAT WAT WAT WAT WAT WAT WAT WAT WAT 
WAT WAT WAT WAT WAT WAT WAT WAT WAT WAT WAT WAT WAT WAT WAT WAT WAT WAT WAT WAT 
WAT WAT WAT WAT WAT WAT WAT WAT WAT WAT WAT WAT WAT WAT WAT WAT WAT WAT WAT WAT 
WAT WAT WAT WAT WAT WAT WAT WAT WAT WAT WAT WAT WAT WAT WAT WAT WAT WAT WAT WAT 
WAT WAT WAT WAT WAT WAT WAT WAT WAT WAT WAT WAT WAT WAT WAT WAT WAT WAT WAT WAT 
WAT WAT WAT WAT WAT WAT WAT WAT WAT WAT WAT WAT WAT WAT WAT WAT WAT WAT WAT WAT 
WAT WAT WAT WAT WAT WAT WAT WAT WAT WAT WAT WAT WAT WAT WAT WAT WAT WAT WAT WAT 
WAT WAT WAT WAT WAT WAT WAT WAT WAT WAT WAT WAT WAT WAT WAT WAT WAT WAT WAT WAT 
WAT WAT WAT WAT WAT WAT WAT WAT WAT WAT WAT WAT WAT WAT WAT WAT WAT WAT WAT WAT 
WAT WAT WAT WAT WAT WAT WAT WAT WAT WAT WAT WAT WAT WAT WAT WAT WAT WAT WAT WAT 
WAT WAT WAT WAT WAT WAT WAT WAT WAT WAT WAT WAT WAT WAT WAT WAT WAT WAT WAT WAT 
WAT WAT WAT WAT WAT WAT WAT WAT WAT WAT WAT WAT WAT WAT WAT WAT WAT WAT WAT WAT 
WAT WAT WAT WAT WAT WAT WAT WAT WAT WAT WAT WAT WAT WAT WAT WAT WAT WAT WAT WAT 
WAT WAT WAT WAT WAT WAT WAT WAT WAT WAT WAT WAT WAT WAT WAT WAT WAT WAT WAT WAT 
WAT WAT WAT WAT WAT WAT WAT WAT WAT WAT WAT WAT WAT WAT WAT WAT WAT WAT WAT WAT 
WAT WAT WAT WAT WAT WAT WAT WAT WAT WAT WAT WAT WAT WAT WAT WAT WAT WAT WAT WAT 
WAT WAT WAT WAT WAT WAT WAT WAT WAT WAT WAT WAT WAT WAT WAT WAT WAT WAT WAT WAT 
WAT WAT WAT WAT WAT WAT WAT WAT WAT WAT WAT WAT WAT WAT WAT WAT WAT WAT WAT WAT 
WAT WAT WAT WAT WAT WAT WAT WAT WAT WAT WAT WAT WAT WAT WAT WAT WAT WAT WAT WAT 
WAT WAT WAT WAT WAT WAT WAT WAT WAT WAT WAT WAT WAT WAT WAT WAT WAT WAT WAT WAT 
WAT WAT WAT WAT WAT WAT WAT WAT WAT WAT WAT WAT WAT WAT WAT WAT WAT WAT WAT WAT 
WAT WAT WAT WAT WAT WAT WAT WAT WAT WAT WAT WAT WAT WAT WAT WAT WAT WAT WAT WAT 
WAT WAT WAT WAT WAT WAT WAT WAT WAT WAT WAT WAT WAT WAT WAT WAT WAT WAT WAT WAT 
WAT WAT WAT WAT WAT WAT WAT WAT WAT WAT WAT WAT WAT WAT WAT WAT WAT WAT WAT WAT 
WAT WAT WAT WAT WAT WAT WAT WAT WAT WAT WAT WAT WAT WAT WAT WAT WAT WAT WAT WAT 
WAT WAT WAT WAT WAT WAT WAT WAT WAT WAT WAT WAT WAT WAT WAT WAT WAT WAT WAT WAT 
WAT WAT WAT WAT WAT WAT WAT WAT WAT WAT WAT WAT WAT WAT WAT WAT WAT WAT WAT WAT 
WAT WAT WAT WAT WAT WAT WAT WAT WAT WAT WAT WAT WAT WAT WAT WAT WAT WAT WAT WAT 
WAT WAT WAT WAT WAT WAT WAT WAT WAT WAT WAT WAT WAT WAT WAT WAT WAT WAT WAT WAT 
WAT WAT WAT WAT WAT WAT WAT WAT WAT WAT WAT WAT WAT WAT WAT WAT WAT WAT WAT WAT 
WAT WAT WAT WAT WAT WAT WAT WAT WAT WAT WAT WAT WAT WAT WAT WAT WAT WAT WAT WAT 
WAT WAT WAT WAT WAT WAT WAT WAT WAT WAT WAT WAT WAT WAT WAT WAT WAT WAT WAT WAT 
WAT WAT WAT WAT WAT WAT WAT WAT WAT WAT WAT WAT WAT WAT WAT WAT WAT WAT WAT WAT 
WAT WAT WAT WAT WAT WAT WAT WAT WAT WAT WAT WAT WAT WAT WAT WAT WAT WAT WAT WAT 
WAT WAT WAT WAT WAT WAT WAT WAT WAT WAT WAT WAT WAT WAT WAT WAT WAT WAT WAT WAT 
WAT WAT WAT WAT WAT WAT WAT WAT WAT WAT WAT WAT WAT WAT WAT WAT WAT WAT WAT WAT 
WAT WAT WAT WAT WAT WAT WAT WAT WAT WAT WAT WAT WAT WAT WAT WAT WAT WAT WAT WAT 
WAT WAT WAT WAT WAT WAT WAT WAT WAT WAT WAT WAT WAT WAT WAT WAT WAT WAT WAT WAT 
WAT WAT WAT WAT WAT WAT WAT WAT WAT WAT WAT WAT WAT WAT WAT WAT WAT WAT WAT WAT 
WAT WAT WAT WAT WAT WAT WAT WAT WAT WAT WAT WAT WAT WAT WAT WAT WAT WAT WAT WAT 
WAT WAT WAT WAT WAT WAT WAT WAT WAT WAT WAT WAT WAT WAT WAT WAT WAT WAT WAT WAT 
WAT WAT WAT WAT WAT WAT WAT WAT WAT WAT WAT WAT WAT WAT WAT WAT WAT WAT WAT WAT 
WAT WAT WAT WAT WAT WAT WAT WAT WAT WAT WAT WAT WAT WAT WAT WAT WAT WAT WAT WAT 
WAT WAT WAT WAT WAT WAT WAT WAT WAT WAT WAT WAT WAT WAT WAT WAT WAT WAT WAT WAT 
WAT WAT WAT WAT WAT WAT WAT WAT WAT WAT WAT WAT WAT WAT WAT WAT WAT WAT WAT WAT 
WAT WAT WAT WAT WAT WAT WAT WAT WAT WAT WAT WAT WAT WAT WAT WAT WAT WAT WAT WAT 
WAT WAT WAT WAT WAT WAT WAT WAT WAT WAT WAT WAT WAT WAT WAT WAT WAT WAT WAT WAT 
WAT WAT WAT WAT WAT WAT WAT WAT WAT WAT WAT WAT WAT WAT WAT WAT WAT WAT WAT WAT 
WAT WAT WAT WAT WAT WAT WAT WAT WAT WAT WAT WAT WAT WAT WAT WAT WAT WAT WAT WAT 
WAT WAT WAT WAT WAT WAT WAT WAT WAT WAT WAT WAT WAT WAT WAT WAT WAT WAT WAT WAT 
WAT WAT WAT WAT WAT WAT WAT WAT WAT WAT WAT WAT WAT WAT WAT WAT WAT WAT WAT WAT 
WAT WAT WAT WAT WAT WAT WAT WAT WAT WAT WAT WAT WAT WAT WAT WAT WAT WAT WAT WAT 
WAT WAT WAT WAT WAT WAT WAT WAT WAT WAT WAT WAT WAT WAT WAT WAT WAT WAT WAT WAT 
WAT WAT WAT WAT WAT WAT WAT WAT WAT WAT WAT WAT WAT WAT WAT WAT WAT WAT WAT WAT 
WAT WAT WAT WAT WAT WAT WAT WAT WAT WAT WAT WAT WAT WAT WAT WAT WAT WAT WAT WAT 
WAT WAT WAT WAT WAT WAT WAT WAT WAT WAT WAT WAT WAT WAT WAT WAT WAT WAT WAT WAT 
WAT WAT WAT WAT WAT WAT WAT WAT WAT WAT WAT WAT WAT WAT WAT WAT WAT WAT WAT WAT 
WAT WAT WAT WAT WAT WAT WAT WAT WAT WAT WAT WAT WAT WAT WAT WAT WAT WAT WAT WAT 
WAT WAT WAT WAT WAT WAT WAT WAT WAT WAT WAT WAT WAT WAT WAT WAT WAT WAT WAT WAT 
WAT WAT WAT WAT WAT WAT WAT WAT WAT WAT WAT WAT WAT WAT WAT WAT WAT WAT WAT WAT 
WAT WAT WAT WAT WAT WAT WAT WAT WAT WAT WAT WAT WAT WAT WAT WAT WAT WAT WAT WAT 
WAT WAT WAT WAT WAT WAT WAT WAT WAT WAT WAT WAT WAT WAT WAT WAT WAT WAT WAT WAT 
WAT WAT WAT WAT WAT WAT WAT WAT WAT WAT WAT WAT WAT WAT WAT WAT WAT WAT WAT WAT 
WAT WAT WAT WAT WAT WAT WAT WAT WAT WAT WAT WAT WAT WAT WAT WAT WAT WAT WAT WAT 
WAT WAT WAT WAT WAT WAT WAT WAT WAT WAT WAT WAT WAT WAT WAT WAT WAT WAT WAT WAT 
WAT WAT WAT WAT WAT WAT WAT WAT WAT WAT WAT WAT WAT WAT WAT WAT WAT WAT WAT WAT 
WAT WAT WAT WAT WAT WAT WAT WAT WAT WAT WAT WAT WAT WAT WAT WAT WAT WAT WAT WAT 
WAT WAT WAT WAT WAT WAT WAT WAT WAT WAT WAT WAT WAT WAT WAT WAT WAT WAT WAT WAT 
WAT WAT WAT WAT WAT WAT WAT WAT WAT WAT WAT WAT WAT WAT WAT WAT WAT WAT WAT WAT 
WAT WAT WAT WAT WAT WAT WAT WAT WAT WAT WAT WAT WAT WAT WAT WAT WAT WAT WAT WAT 
WAT WAT WAT WAT WAT WAT WAT WAT WAT WAT WAT WAT WAT WAT WAT WAT WAT WAT WAT WAT 
WAT WAT WAT WAT WAT WAT WAT WAT WAT WAT WAT WAT WAT WAT WAT WAT WAT WAT WAT WAT 
WAT WAT WAT WAT WAT WAT WAT WAT WAT WAT WAT WAT WAT WAT WAT WAT WAT WAT WAT WAT 
WAT WAT WAT WAT WAT WAT WAT WAT WAT WAT WAT WAT WAT WAT WAT WAT WAT WAT WAT WAT 
WAT WAT WAT WAT WAT WAT WAT WAT WAT WAT WAT WAT WAT WAT WAT WAT WAT WAT WAT WAT 
WAT WAT WAT WAT WAT WAT WAT WAT WAT WAT WAT WAT WAT WAT WAT WAT WAT WAT WAT WAT 
WAT WAT WAT WAT WAT WAT WAT WAT WAT WAT WAT WAT WAT WAT WAT WAT WAT WAT WAT WAT 
WAT WAT WAT WAT WAT WAT WAT WAT WAT WAT WAT WAT WAT WAT WAT WAT WAT WAT WAT WAT 
WAT WAT WAT WAT WAT WAT WAT WAT WAT WAT WAT WAT WAT WAT WAT WAT WAT WAT WAT WAT 
WAT WAT WAT WAT WAT WAT WAT WAT WAT WAT WAT WAT WAT WAT WAT WAT WAT WAT WAT WAT 
WAT WAT WAT WAT WAT WAT WAT WAT WAT WAT WAT WAT WAT WAT WAT WAT WAT WAT WAT WAT 
WAT WAT WAT WAT WAT WAT WAT WAT WAT WAT WAT WAT WAT WAT WAT WAT WAT WAT WAT WAT 
WAT WAT WAT WAT WAT WAT WAT WAT WAT WAT WAT WAT WAT WAT WAT WAT WAT WAT WAT WAT 
WAT WAT WAT WAT WAT WAT WAT WAT WAT WAT WAT WAT WAT WAT WAT WAT WAT WAT WAT WAT 
WAT WAT WAT WAT WAT WAT WAT WAT WAT WAT WAT WAT WAT WAT WAT WAT WAT WAT WAT WAT 
WAT WAT WAT WAT WAT WAT WAT WAT WAT WAT WAT WAT WAT WAT WAT WAT WAT WAT WAT WAT 
WAT WAT WAT WAT WAT WAT WAT WAT WAT WAT WAT WAT WAT WAT WAT WAT WAT WAT WAT WAT 
WAT WAT WAT WAT WAT WAT WAT WAT WAT WAT WAT WAT WAT WAT WAT WAT WAT WAT WAT WAT 
WAT WAT WAT WAT WAT WAT WAT WAT WAT WAT WAT WAT WAT WAT WAT WAT WAT WAT WAT WAT 
WAT WAT WAT WAT WAT WAT WAT WAT WAT WAT WAT WAT WAT WAT WAT WAT WAT WAT WAT WAT 
WAT WAT WAT WAT WAT WAT WAT WAT WAT WAT WAT WAT WAT WAT WAT WAT WAT WAT WAT WAT 
WAT WAT WAT WAT WAT WAT WAT WAT WAT WAT WAT WAT WAT WAT WAT WAT WAT WAT WAT WAT 
WAT WAT WAT WAT WAT WAT WAT WAT WAT WAT WAT WAT WAT WAT WAT WAT WAT WAT WAT WAT 
WAT WAT WAT WAT WAT WAT WAT WAT WAT WAT WAT WAT WAT WAT WAT WAT WAT WAT WAT WAT 
WAT WAT WAT WAT WAT WAT WAT WAT WAT WAT WAT WAT WAT WAT WAT WAT WAT WAT WAT WAT 
WAT WAT WAT WAT WAT WAT WAT WAT WAT WAT WAT WAT WAT WAT WAT WAT WAT WAT WAT WAT 
WAT WAT WAT WAT WAT WAT WAT WAT WAT WAT WAT WAT WAT WAT WAT WAT WAT WAT WAT WAT 
WAT WAT WAT WAT WAT WAT WAT WAT WAT WAT WAT WAT WAT WAT WAT WAT WAT WAT WAT WAT 
WAT WAT WAT WAT WAT WAT WAT WAT WAT WAT WAT WAT WAT WAT WAT WAT WAT WAT WAT WAT 
WAT WAT WAT WAT WAT WAT WAT WAT WAT WAT WAT WAT WAT WAT WAT WAT WAT WAT WAT WAT 
WAT WAT WAT WAT WAT WAT WAT WAT WAT WAT WAT WAT WAT WAT WAT WAT WAT WAT WAT WAT 
WAT WAT WAT WAT WAT WAT WAT WAT WAT WAT WAT WAT WAT WAT WAT WAT WAT WAT WAT WAT 
WAT WAT WAT WAT WAT WAT WAT WAT WAT WAT WAT WAT WAT WAT WAT WAT WAT WAT WAT WAT 
WAT WAT WAT WAT WAT WAT WAT WAT WAT WAT WAT WAT WAT WAT WAT WAT WAT WAT WAT WAT 
WAT WAT WAT WAT WAT WAT WAT WAT WAT WAT WAT WAT WAT WAT WAT WAT WAT WAT WAT WAT 
WAT WAT WAT WAT WAT WAT WAT WAT WAT WAT WAT WAT WAT WAT WAT WAT WAT WAT WAT WAT 
WAT WAT WAT WAT WAT WAT WAT WAT WAT WAT WAT WAT WAT WAT WAT WAT WAT WAT WAT WAT 
WAT WAT WAT WAT WAT WAT WAT WAT WAT WAT WAT WAT WAT WAT WAT WAT WAT WAT WAT WAT 
WAT WAT WAT WAT WAT WAT WAT WAT WAT WAT WAT WAT WAT WAT WAT WAT WAT WAT WAT WAT 
WAT WAT WAT WAT WAT WAT WAT WAT WAT WAT WAT WAT WAT WAT WAT WAT WAT WAT WAT WAT 
WAT WAT WAT WAT WAT WAT WAT WAT WAT WAT WAT WAT WAT WAT WAT WAT WAT WAT WAT WAT 
WAT WAT WAT WAT WAT WAT WAT WAT WAT WAT WAT WAT WAT WAT WAT WAT WAT WAT WAT WAT 
WAT WAT WAT WAT WAT WAT WAT WAT WAT WAT WAT WAT WAT WAT WAT WAT WAT WAT WAT WAT 
WAT WAT WAT WAT WAT WAT WAT WAT WAT WAT WAT WAT WAT WAT WAT WAT WAT WAT WAT WAT 
WAT WAT WAT WAT WAT WAT WAT WAT WAT WAT WAT WAT WAT WAT WAT WAT WAT WAT WAT WAT 
WAT WAT WAT WAT WAT WAT WAT WAT WAT WAT WAT WAT WAT WAT WAT WAT WAT WAT WAT WAT 
WAT WAT WAT WAT WAT WAT WAT WAT WAT WAT WAT WAT WAT WAT WAT WAT WAT WAT WAT WAT 
WAT WAT WAT WAT WAT WAT WAT WAT WAT WAT WAT WAT WAT WAT WAT WAT WAT WAT WAT WAT 
WAT WAT WAT WAT WAT WAT WAT WAT WAT WAT WAT WAT WAT WAT WAT WAT WAT WAT WAT WAT 
WAT WAT WAT WAT WAT WAT WAT WAT WAT WAT WAT WAT WAT WAT WAT WAT WAT WAT WAT WAT 
WAT WAT WAT WAT WAT WAT WAT WAT WAT WAT WAT WAT WAT WAT WAT WAT WAT WAT WAT WAT 
WAT WAT WAT WAT WAT WAT WAT WAT WAT WAT WAT WAT WAT WAT WAT WAT WAT WAT WAT WAT 
WAT WAT WAT WAT WAT WAT WAT WAT WAT WAT WAT WAT WAT WAT WAT WAT WAT WAT WAT WAT 
WAT WAT WAT WAT WAT WAT WAT WAT WAT WAT WAT WAT WAT WAT WAT WAT WAT WAT WAT WAT 
WAT WAT WAT WAT WAT WAT WAT WAT WAT WAT WAT WAT WAT WAT WAT WAT WAT WAT WAT WAT 
WAT WAT WAT WAT WAT WAT WAT WAT WAT WAT WAT WAT WAT WAT WAT WAT WAT WAT WAT WAT 
WAT WAT WAT WAT WAT WAT WAT WAT WAT WAT WAT WAT WAT WAT WAT WAT WAT WAT WAT WAT 
WAT WAT WAT WAT WAT WAT WAT WAT WAT WAT WAT WAT WAT WAT WAT WAT WAT WAT WAT WAT 
WAT WAT WAT WAT WAT WAT WAT WAT WAT WAT WAT WAT WAT WAT WAT WAT WAT WAT WAT WAT 
WAT WAT WAT WAT WAT WAT WAT WAT WAT WAT WAT WAT WAT WAT WAT WAT WAT WAT WAT WAT 
WAT WAT WAT WAT WAT WAT WAT WAT WAT WAT WAT WAT WAT WAT WAT WAT WAT WAT WAT WAT 
WAT WAT WAT WAT WAT WAT WAT WAT WAT WAT WAT WAT WAT WAT WAT WAT WAT WAT WAT WAT 
WAT WAT WAT WAT WAT WAT WAT WAT WAT WAT WAT WAT WAT WAT 
%FLAG RESIDUE_POINTER                                                           
%FORMAT(10I8)                                                                   
       1      27      30      85     140     195     250     305     360     415
     470     525     580     583     586     641     696     751     806     861
     916     971    1026    1081    1136    1139    1142    1197    1252    1307
    1362    1417    1472    1527    1582    1637    1692    1695    1698    1753
    1808    1863    1918    1973    2028    2083    2138    2193    2248    2251
    2254    2257    2260    2263    2266    2269    2272    2275    2278    2281
    2284    2287    2290    2293    2296    2299    2302    2305    2308    2311
    2314    2317    2320    2323    2326    2329    2332    2335    2338    2341
    2344    2347    2350    2353    2356    2359    2362    2365    2368    2371
    2374    2377    2380    2383    2386    2389    2392    2395    2398    2401
    2404    2407    2410    2413    2416    2419    2422    2425    2428    2431
    2434    2437    2440    2443    2446    2449    2452    2455    2458    2461
    2464    2467    2470    2473    2476    2479    2482    2485    2488    2491
    2494    2497    2500    2503    2506    2509    2512    2515    2518    2521
    2524    2527    2530    2533    2536    2539    2542    2545    2548    2551
    2554    2557    2560    2563    2566    2569    2572    2575    2578    2581
    2584    2587    2590    2593    2596    2599    2602    2605    2608    2611
    2614    2617    2620    2623    2626    2629    2632    2635    2638    2641
    2644    2647    2650    2653    2656    2659    2662    2665    2668    2671
    2674    2677    2680    2683    2686    2689    2692    2695    2698    2701
    2704    2707    2710    2713    2716    2719    2722    2725    2728    2731
    2734    2737    2740    2743    2746    2749    2752    2755    2758    2761
    2764    2767    2770    2773    2776    2779    2782    2785    2788    2791
    2794    2797    2800    2803    2806    2809    2812    2815    2818    2821
    2824    2827    2830    2833    2836    2839    2842    2845    2848    2851
    2854    2857    2860    2863    2866    2869    2872    2875    2878    2881
    2884    2887    2890    2893    2896    2899    2902    2905    2908    2911
    2914    2917    2920    2923    2926    2929    2932    2935    2938    2941
    2944    2947    2950    2953    2956    2959    2962    2965    2968    2971
    2974    2977    2980    2983    2986    2989    2992    2995    2998    3001
    3004    3007    3010    3013    3016    3019    3022    3025    3028    3031
    3034    3037    3040    3043    3046    3049    3052    3055    3058    3061
    3064    3067    3070    3073    3076    3079    3082    3085    3088    3091
    3094    3097    3100    3103    3106    3109    3112    3115    3118    3121
    3124    3127    3130    3133    3136    3139    3142    3145    3148    3151
    3154    3157    3160    3163    3166    3169    3172    3175    3178    3181
    3184    3187    3190    3193    3196    3199    3202    3205    3208    3211
    3214    3217    3220    3223    3226    3229    3232    3235    3238    3241
    3244    3247    3250    3253    3256    3259    3262    3265    3268    3271
    3274    3277    3280    3283    3286    3289    3292    3295    3298    3301
    3304    3307    3310    3313    3316    3319    3322    3325    3328    3331
    3334    3337    3340    3343    3346    3349    3352    3355    3358    3361
    3364    3367    3370    3373    3376    3379    3382    3385    3388    3391
    3394    3397    3400    3403    3406    3409    3412    3415    3418    3421
    3424    3427    3430    3433    3436    3439    3442    3445    3448    3451
    3454    3457    3460    3463    3466    3469    3472    3475    3478    3481
    3484    3487    3490    3493    3496    3499    3502    3505    3508    3511
    3514    3517    3520    3523    3526    3529    3532    3535    3538    3541
    3544    3547    3550    3553    3556    3559    3562    3565    3568    3571
    3574    3577    3580    3583    3586    3589    3592    3595    3598    3601
    3604    3607    3610    3613    3616    3619    3622    3625    3628    3631
    3634    3637    3640    3643    3646    3649    3652    3655    3658    3661
    3664    3667    3670    3673    3676    3679    3682    3685    3688    3691
    3694    3697    3700    3703    3706    3709    3712    3715    3718    3721
    3724    3727    3730    3733    3736    3739    3742    3745    3748    3751
    3754    3757    3760    3763    3766    3769    3772    3775    3778    3781
    3784    3787    3790    3793    3796    3799    3802    3805    3808    3811
    3814    3817    3820    3823    3826    3829    3832    3835    3838    3841
    3844    3847    3850    3853    3856    3859    3862    3865    3868    3871
    3874    3877    3880    3883    3886    3889    3892    3895    3898    3901
    3904    3907    3910    3913    3916    3919    3922    3925    3928    3931
    3934    3937    3940    3943    3946    3949    3952    3955    3958    3961
    3964    3967    3970    3973    3976    3979    3982    3985    3988    3991
    3994    3997    4000    4003    4006    4009    4012    4015    4018    4021
    4024    4027    4030    4033    4036    4039    4042    4045    4048    4051
    4054    4057    4060    4063    4066    4069    4072    4075    4078    4081
    4084    4087    4090    4093    4096    4099    4102    4105    4108    4111
    4114    4117    4120    4123    4126    4129    4132    4135    4138    4141
    4144    4147    4150    4153    4156    4159    4162    4165    4168    4171
    4174    4177    4180    4183    4186    4189    4192    4195    4198    4201
    4204    4207    4210    4213    4216    4219    4222    4225    4228    4231
    4234    4237    4240    4243    4246    4249    4252    4255    4258    4261
    4264    4267    4270    4273    4276    4279    4282    4285    4288    4291
    4294    4297    4300    4303    4306    4309    4312    4315    4318    4321
    4324    4327    4330    4333    4336    4339    4342    4345    4348    4351
    4354    4357    4360    4363    4366    4369    4372    4375    4378    4381
    4384    4387    4390    4393    4396    4399    4402    4405    4408    4411
    4414    4417    4420    4423    4426    4429    4432    4435    4438    4441
    4444    4447    4450    4453    4456    4459    4462    4465    4468    4471
    4474    4477    4480    4483    4486    4489    4492    4495    4498    4501
    4504    4507    4510    4513    4516    4519    4522    4525    4528    4531
    4534    4537    4540    4543    4546    4549    4552    4555    4558    4561
    4564    4567    4570    4573    4576    4579    4582    4585    4588    4591
    4594    4597    4600    4603    4606    4609    4612    4615    4618    4621
    4624    4627    4630    4633    4636    4639    4642    4645    4648    4651
    4654    4657    4660    4663    4666    4669    4672    4675    4678    4681
    4684    4687    4690    4693    4696    4699    4702    4705    4708    4711
    4714    4717    4720    4723    4726    4729    4732    4735    4738    4741
    4744    4747    4750    4753    4756    4759    4762    4765    4768    4771
    4774    4777    4780    4783    4786    4789    4792    4795    4798    4801
    4804    4807    4810    4813    4816    4819    4822    4825    4828    4831
    4834    4837    4840    4843    4846    4849    4852    4855    4858    4861
    4864    4867    4870    4873    4876    4879    4882    4885    4888    4891
    4894    4897    4900    4903    4906    4909    4912    4915    4918    4921
    4924    4927    4930    4933    4936    4939    4942    4945    4948    4951
    4954    4957    4960    4963    4966    4969    4972    4975    4978    4981
    4984    4987    4990    4993    4996    4999    5002    5005    5008    5011
    5014    5017    5020    5023    5026    5029    5032    5035    5038    5041
    5044    5047    5050    5053    5056    5059    5062    5065    5068    5071
    5074    5077    5080    5083    5086    5089    5092    5095    5098    5101
    5104    5107    5110    5113    5116    5119    5122    5125    5128    5131
    5134    5137    5140    5143    5146    5149    5152    5155    5158    5161
    5164    5167    5170    5173    5176    5179    5182    5185    5188    5191
    5194    5197    5200    5203    5206    5209    5212    5215    5218    5221
    5224    5227    5230    5233    5236    5239    5242    5245    5248    5251
    5254    5257    5260    5263    5266    5269    5272    5275    5278    5281
    5284    5287    5290    5293    5296    5299    5302    5305    5308    5311
    5314    5317    5320    5323    5326    5329    5332    5335    5338    5341
    5344    5347    5350    5353    5356    5359    5362    5365    5368    5371
    5374    5377    5380    5383    5386    5389    5392    5395    5398    5401
    5404    5407    5410    5413    5416    5419    5422    5425    5428    5431
    5434    5437    5440    5443    5446    5449    5452    5455    5458    5461
    5464    5467    5470    5473    5476    5479    5482    5485    5488    5491
    5494    5497    5500    5503    5506    5509    5512    5515    5518    5521
    5524    5527    5530    5533    5536    5539    5542    5545    5548    5551
    5554    5557    5560    5563    5566    5569    5572    5575    5578    5581
    5584    5587    5590    5593    5596    5599    5602    5605    5608    5611
    5614    5617    5620    5623    5626    5629    5632    5635    5638    5641
    5644    5647    5650    5653    5656    5659    5662    5665    5668    5671
    5674    5677    5680    5683    5686    5689    5692    5695    5698    5701
    5704    5707    5710    5713    5716    5719    5722    5725    5728    5731
    5734    5737    5740    5743    5746    5749    5752    5755    5758    5761
    5764    5767    5770    5773    5776    5779    5782    5785    5788    5791
    5794    5797    5800    5803    5806    5809    5812    5815    5818    5821
    5824    5827    5830    5833    5836    5839    5842    5845    5848    5851
    5854    5857    5860    5863    5866    5869    5872    5875    5878    5881
    5884    5887    5890    5893    5896    5899    5902    5905    5908    5911
    5914    5917    5920    5923    5926    5929    5932    5935    5938    5941
    5944    5947    5950    5953    5956    5959    5962    5965    5968    5971
    5974    5977    5980    5983    5986    5989    5992    5995    5998    6001
    6004    6007    6010    6013    6016    6019    6022    6025    6028    6031
    6034    6037    6040    6043    6046    6049    6052    6055    6058    6061
    6064    6067    6070    6073    6076    6079    6082    6085    6088    6091
    6094    6097    6100    6103    6106    6109    6112    6115    6118    6121
    6124    6127    6130    6133    6136    6139    6142    6145    6148    6151
    6154    6157    6160    6163    6166    6169    6172    6175    6178    6181
    6184    6187    6190    6193    6196    6199    6202    6205    6208    6211
    6214    6217    6220    6223    6226    6229    6232    6235    6238    6241
    6244    6247    6250    6253    6256    6259    6262    6265    6268    6271
    6274    6277    6280    6283    6286    6289    6292    6295    6298    6301
    6304    6307    6310    6313    6316    6319    6322    6325    6328    6331
    6334    6337    6340    6343    6346    6349    6352    6355    6358    6361
    6364    6367    6370    6373    6376    6379    6382    6385    6388    6391
    6394    6397    6400    6403    6406    6409    6412    6415    6418    6421
    6424    6427    6430    6433    6436    6439    6442    6445    6448    6451
    6454    6457    6460    6463    6466    6469    6472    6475    6478    6481
    6484    6487    6490    6493    6496    6499    6502    6505    6508    6511
    6514    6517    6520    6523    6526    6529    6532    6535    6538    6541
    6544    6547    6550    6553    6556    6559    6562    6565    6568    6571
    6574    6577    6580    6583    6586    6589    6592    6595    6598    6601
    6604    6607    6610    6613    6616    6619    6622    6625    6628    6631
    6634    6637    6640    6643    6646    6649    6652    6655    6658    6661
    6664    6667    6670    6673    6676    6679    6682    6685    6688    6691
    6694    6697    6700    6703    6706    6709    6712    6715    6718    6721
    6724    6727    6730    6733    6736    6739    6742    6745    6748    6751
    6754    6757    6760    6763    6766    6769    6772    6775    6778    6781
    6784    6787    6790    6793    6796    6799    6802    6805    6808    6811
    6814    6817    6820    6823    6826    6829    6832    6835    6838    6841
    6844    6847    6850    6853    6856    6859    6862    6865    6868    6871
    6874    6877    6880    6883    6886    6889    6892    6895    6898    6901
    6904    6907    6910    6913    6916    6919    6922    6925    6928    6931
    6934    6937    6940    6943    6946    6949    6952    6955    6958    6961
    6964    6967    6970    6973    6976    6979    6982    6985    6988    6991
    6994    6997    7000    7003    7006    7009    7012    7015    7018    7021
    7024    7027    7030    7033    7036    7039    7042    7045    7048    7051
    7054    7057    7060    7063    7066    7069    7072    7075    7078    7081
    7084    7087    7090    7093    7096    7099    7102    7105    7108    7111
    7114    7117    7120    7123    7126    7129    7132    7135    7138    7141
    7144    7147    7150    7153    7156    7159    7162    7165    7168    7171
    7174    7177    7180    7183    7186    7189    7192    7195    7198    7201
    7204    7207    7210    7213    7216    7219    7222    7225    7228    7231
    7234    7237    7240    7243    7246    7249    7252    7255    7258    7261
    7264    7267    7270    7273    7276    7279    7282    7285    7288    7291
    7294    7297    7300    7303    7306    7309    7312    7315    7318    7321
    7324    7327    7330    7333    7336    7339    7342    7345    7348    7351
    7354    7357    7360    7363    7366    7369    7372    7375    7378    7381
    7384    7387    7390    7393    7396    7399    7402    7405    7408    7411
    7414    7417    7420    7423    7426    7429    7432    7435    7438    7441
    7444    7447    7450    7453    7456    7459    7462    7465    7468    7471
    7474    7477    7480    7483    7486    7489    7492    7495    7498    7501
    7504    7507    7510    7513    7516    7519    7522    7525    7528    7531
    7534    7537    7540    7543    7546    7549    7552    7555    7558    7561
    7564    7567    7570    7573    7576    7579    7582    7585    7588    7591
    7594    7597    7600    7603    7606    7609    7612    7615    7618    7621
    7624    7627    7630    7633    7636    7639    7642    7645    7648    7651
    7654    7657    7660    7663    7666    7669    7672    7675    7678    7681
    7684    7687    7690    7693    7696    7699    7702    7705    7708    7711
    7714    7717    7720    7723    7726    7729    7732    7735    7738    7741
    7744    7747    7750    7753    7756    7759    7762    7765    7768    7771
    7774    7777    7780    7783    7786    7789    7792    7795    7798    7801
    7804    7807    7810    7813    7816    7819    7822    7825    7828    7831
    7834    7837    7840    7843    7846    7849    7852    7855    7858    7861
    7864    7867    7870    7873    7876    7879    7882    7885    7888    7891
    7894    7897    7900    7903    7906    7909    7912    7915    7918    7921
    7924    7927    7930    7933    7936    7939    7942    7945    7948    7951
    7954    7957    7960    7963    7966    7969    7972    7975    7978    7981
    7984    7987    7990    7993    7996    7999    8002    8005    8008    8011
    8014    8017    8020    8023    8026    8029    8032    8035    8038    8041
    8044    8047    8050    8053    8056    8059    8062    8065    8068    8071
    8074    8077    8080    8083    8086    8089    8092    8095    8098    8101
    8104    8107    8110    8113    8116    8119    8122    8125    8128    8131
    8134    8137    8140    8143    8146    8149    8152    8155    8158    8161
    8164    8167    8170    8173    8176    8179    8182    8185    8188    8191
    8194    8197    8200    8203    8206    8209    8212    8215    8218    8221
    8224    8227    8230    8233    8236    8239    8242    8245    8248    8251
    8254    8257    8260    8263    8266    8269    8272    8275    8278    8281
    8284    8287    8290    8293    8296    8299    8302    8305    8308    8311
    8314    8317    8320    8323    8326    8329    8332    8335    8338    8341
    8344    8347    8350    8353    8356    8359    8362    8365    8368    8371
    8374    8377    8380    8383    8386    8389    8392    8395    8398    8401
    8404    8407    8410    8413    8416    8419    8422    8425    8428    8431
    8434    8437    8440    8443    8446    8449    8452    8455    8458    8461
    8464    8467    8470    8473    8476    8479    8482    8485    8488    8491
    8494    8497    8500    8503    8506    8509    8512    8515    8518    8521
    8524    8527    8530    8533    8536    8539    8542    8545    8548    8551
    8554    8557    8560    8563    8566    8569    8572    8575    8578    8581
    8584    8587    8590    8593    8596    8599    8602    8605    8608    8611
    8614    8617    8620    8623    8626    8629    8632    8635    8638    8641
    8644    8647    8650    8653    8656    8659    8662    8665    8668    8671
    8674    8677    8680    8683    8686    8689    8692    8695    8698    8701
    8704    8707    8710    8713    8716    8719    8722    8725    8728    8731
    8734    8737    8740    8743    8746    8749    8752    8755    8758    8761
    8764    8767    8770    8773    8776    8779    8782    8785    8788    8791
    8794    8797    8800    8803    8806    8809    8812    8815    8818    8821
    8824    8827    8830    8833    8836    8839    8842    8845    8848    8851
    8854    8857    8860    8863    8866    8869    8872    8875    8878    8881
    8884    8887    8890    8893    8896    8899    8902    8905    8908    8911
    8914    8917    8920    8923    8926    8929    8932    8935    8938    8941
    8944    8947    8950    8953    8956    8959    8962    8965    8968    8971
    8974    8977    8980    8983    8986    8989    8992    8995    8998    9001
    9004    9007    9010    9013    9016    9019    9022    9025    9028    9031
    9034    9037    9040    9043    9046    9049    9052    9055    9058    9061
    9064    9067    9070    9073    9076    9079    9082    9085    9088    9091
    9094    9097    9100    9103    9106    9109    9112    9115    9118    9121
    9124    9127    9130    9133    9136    9139    9142    9145    9148    9151
    9154    9157    9160    9163    9166    9169    9172    9175    9178    9181
    9184    9187    9190    9193    9196    9199    9202    9205    9208    9211
    9214    9217    9220    9223    9226    9229    9232    9235    9238    9241
    9244    9247    9250    9253    9256    9259    9262    9265    9268    9271
    9274    9277    9280    9283    9286    9289    9292    9295    9298    9301
    9304    9307    9310    9313    9316    9319    9322    9325    9328    9331
    9334    9337    9340    9343    9346    9349    9352    9355    9358    9361
    9364    9367    9370    9373    9376    9379    9382    9385    9388    9391
    9394    9397    9400    9403    9406    9409    9412    9415    9418    9421
    9424    9427    9430    9433    9436    9439    9442    9445    9448    9451
    9454    9457    9460    9463    9466    9469    9472    9475    9478    9481
    9484    9487    9490    9493    9496    9499    9502    9505    9508    9511
    9514    9517    9520    9523    9526    9529    9532    9535    9538    9541
    9544    9547    9550    9553    9556    9559    9562    9565    9568    9571
    9574    9577    9580    9583    9586    9589    9592    9595    9598    9601
    9604    9607    9610    9613    9616    9619    9622    9625    9628    9631
    9634    9637    9640    9643    9646    9649    9652    9655    9658    9661
    9664    9667    9670    9673    9676    9679    9682    9685    9688    9691
    9694    9697    9700    9703    9706    9709    9712    9715    9718    9721
    9724    9727    9730    9733    9736    9739    9742    9745    9748    9751
    9754    9757    9760    9763    9766    9769    9772    9775    9778    9781
    9784    9787    9790    9793    9796    9799    9802    9805    9808    9811
    9814    9817    9820    9823    9826    9829    9832    9835    9838    9841
    9844    9847    9850    9853    9856    9859    9862    9865    9868    9871
    9874    9877    9880    9883    9886    9889    9892    9895    9898    9901
    9904    9907    9910    9913    9916    9919    9922    9925    9928    9931
    9934    9937    9940    9943    9946    9949    9952    9955    9958    9961
    9964    9967    9970    9973    9976    9979    9982    9985    9988    9991
    9994    9997   10000   10003   10006   10009   10012   10015   10018   10021
   10024   10027   10030   10033   10036   10039   10042   10045   10048   10051
   10054   10057   10060   10063   10066   10069   10072   10075   10078   10081
   10084   10087   10090   10093   10096   10099   10102   10105   10108   10111
   10114   10117   10120   10123   10126   10129   10132   10135   10138   10141
   10144   10147   10150   10153   10156   10159   10162   10165   10168   10171
   10174   10177   10180   10183   10186   10189   10192   10195   10198   10201
   10204   10207   10210   10213   10216   10219   10222   10225   10228   10231
   10234   10237   10240   10243   10246   10249   10252   10255   10258   10261
   10264   10267   10270   10273   10276   10279   10282   10285   10288   10291
   10294   10297   10300   10303   10306   10309   10312   10315   10318   10321
   10324   10327   10330   10333   10336   10339   10342   10345   10348   10351
   10354   10357   10360   10363   10366   10369   10372   10375   10378   10381
   10384   10387   10390   10393   10396   10399   10402   10405   10408   10411
   10414   10417   10420   10423   10426   10429   10432   10435   10438   10441
   10444   10447   10450   10453   10456   10459   10462   10465   10468   10471
   10474   10477   10480   10483   10486   10489   10492   10495   10498   10501
   10504   10507   10510   10513   10516   10519   10522   10525   10528   10531
   10534   10537   10540   10543   10546   10549   10552   10555   10558   10561
   10564   10567   10570   10573   10576   10579   10582   10585   10588   10591
   10594   10597   10600   10603   10606   10609   10612   10615   10618   10621
   10624   10627   10630   10633   10636   10639   10642   10645   10648   10651
   10654   10657   10660   10663   10666   10669   10672   10675   10678   10681
   10684   10687   10690   10693   10696   10699   10702   10705   10708   10711
   10714   10717   10720   10723   10726   10729   10732   10735   10738   10741
   10744   10747   10750   10753   10756   10759   10762   10765   10768   10771
   10774   10777   10780   10783   10786   10789   10792   10795   10798   10801
   10804   10807   10810   10813   10816   10819   10822   10825   10828   10831
   10834   10837   10840   10843   10846   10849   10852   10855   10858   10861
   10864   10867   10870   10873   10876   10879   10882   10885   10888   10891
   10894   10897   10900   10903   10906   10909   10912   10915   10918   10921
   10924   10927   10930   10933   10936   10939   10942   10945   10948   10951
   10954   10957   10960   10963   10966   10969   10972   10975   10978   10981
   10984   10987   10990   10993   10996   10999   11002   11005   11008   11011
   11014   11017   11020   11023   11026   11029   11032   11035   11038   11041
   11044   11047   11050   11053   11056   11059   11062   11065   11068   11071
   11074   11077   11080   11083   11086   11089   11092   11095   11098   11101
   11104   11107   11110   11113   11116   11119   11122   11125   11128   11131
   11134   11137   11140   11143   11146   11149   11152   11155   11158   11161
   11164   11167   11170   11173   11176   11179   11182   11185   11188   11191
   11194   11197   11200   11203   11206   11209   11212   11215   11218   11221
   11224   11227   11230   11233   11236   11239   11242   11245   11248   11251
   11254   11257   11260   11263   11266   11269   11272   11275   11278   11281
   11284   11287   11290   11293   11296   11299   11302   11305   11308   11311
   11314   11317   11320   11323   11326   11329   11332   11335   11338   11341
   11344   11347   11350   11353   11356   11359   11362   11365   11368   11371
   11374   11377   11380   11383   11386   11389   11392   11395   11398   11401
   11404   11407   11410   11413   11416   11419   11422   11425   11428   11431
   11434   11437   11440   11443   11446   11449   11452   11455   11458   11461
   11464   11467   11470   11473   11476   11479   11482   11485   11488   11491
   11494   11497   11500   11503   11506   11509   11512   11515   11518   11521
   11524   11527   11530   11533   11536   11539   11542   11545   11548   11551
   11554   11557   11560   11563   11566   11569   11572   11575   11578   11581
   11584   11587   11590   11593   11596   11599   11602   11605   11608   11611
   11614   11617   11620   11623   11626   11629   11632   11635   11638   11641
   11644   11647   11650   11653   11656   11659   11662   11665   11668   11671
   11674   11677   11680   11683   11686   11689   11692   11695   11698   11701
   11704   11707   11710   11713   11716   11719   11722   11725   11728   11731
   11734   11737   11740   11743   11746   11749   11752   11755   11758   11761
   11764   11767   11770   11773   11776   11779   11782   11785   11788   11791
   11794   11797   11800   11803   11806   11809   11812   11815   11818   11821
   11824   11827   11830   11833   11836   11839   11842   11845   11848   11851
   11854   11857   11860   11863   11866   11869   11872   11875   11878   11881
   11884   11887   11890   11893   11896   11899   11902   11905   11908   11911
   11914   11917   11920   11923   11926   11929   11932   11935   11938   11941
   11944   11947   11950   11953   11956   11959   11962   11965   11968   11971
   11974   11977   11980   11983   11986   11989   11992   11995   11998   12001
   12004   12007   12010   12013   12016   12019   12022   12025   12028   12031
   12034   12037   12040   12043   12046   12049   12052   12055   12058   12061
   12064   12067   12070   12073   12076   12079   12082   12085   12088   12091
   12094   12097   12100   12103   12106   12109   12112   12115   12118   12121
   12124   12127   12130   12133   12136   12139   12142   12145   12148   12151
   12154   12157   12160   12163   12166   12169   12172   12175   12178   12181
   12184   12187   12190   12193   12196   12199   12202   12205   12208   12211
   12214   12217   12220   12223   12226   12229   12232   12235   12238   12241
   12244   12247   12250   12253   12256   12259   12262   12265   12268   12271
   12274   12277   12280   12283   12286   12289   12292   12295   12298   12301
   12304   12307   12310   12313   12316   12319   12322   12325   12328   12331
   12334   12337   12340   12343   12346   12349   12352   12355   12358   12361
   12364   12367   12370   12373   12376   12379   12382   12385   12388   12391
   12394   12397   12400   12403   12406   12409   12412   12415   12418   12421
   12424   12427   12430   12433   12436   12439   12442   12445   12448   12451
   12454   12457   12460   12463   12466   12469   12472   12475   12478   12481
   12484   12487   12490   12493   12496   12499   12502   12505   12508   12511
   12514   12517   12520   12523   12526   12529   12532   12535   12538   12541
   12544   12547   12550   12553   12556   12559   12562   12565   12568   12571
   12574   12577   12580   12583   12586   12589   12592   12595   12598   12601
   12604   12607   12610   12613   12616   12619   12622   12625   12628   12631
   12634   12637   12640   12643   12646   12649   12652   12655   12658   12661
   12664   12667   12670   12673   12676   12679   12682   12685   12688   12691
   12694   12697   12700   12703   12706   12709   12712   12715   12718   12721
   12724   12727   12730   12733   12736   12739   12742   12745   12748   12751
   12754   12757   12760   12763   12766   12769   12772   12775   12778   12781
   12784   12787   12790   12793   12796   12799   12802   12805   12808   12811
   12814   12817   12820   12823   12826   12829   12832   12835   12838   12841
   12844   12847   12850   12853   12856   12859   12862   12865   12868   12871
   12874   12877   12880   12883   12886   12889   12892   12895   12898   12901
   12904   12907   12910   12913   12916   12919   12922   12925   12928   12931
   12934   12937   12940   12943   12946   12949   12952   12955   12958   12961
   12964   12967   12970   12973   12976   12979   12982   12985   12988   12991
   12994   12997   13000   13003   13006   13009   13012   13015   13018   13021
   13024   13027   13030   13033   13036   13039   13042   13045   13048   13051
   13054   13057   13060   13063   13066   13069   13072   13075   13078   13081
   13084   13087   13090   13093   13096   13099   13102   13105   13108   13111
   13114   13117   13120   13123   13126   13129   13132   13135   13138   13141
   13144   13147   13150   13153   13156   13159   13162   13165   13168   13171
   13174   13177   13180   13183   13186   13189   13192   13195   13198   13201
   13204   13207   13210   13213   13216   13219   13222   13225   13228   13231
   13234   13237   13240   13243   13246   13249   13252   13255   13258   13261
   13264   13267   13270   13273   13276   13279   13282   13285   13288   13291
   13294   13297   13300   13303   13306   13309   13312   13315   13318   13321
   13324   13327   13330   13333   13336   13339   13342   13345   13348   13351
   13354   13357   13360   13363   13366   13369   13372   13375   13378   13381
   13384   13387   13390   13393   13396   13399   13402   13405   13408   13411
   13414   13417   13420   13423   13426   13429   13432   13435   13438   13441
   13444   13447   13450   13453   13456   13459   13462   13465   13468   13471
   13474   13477   13480   13483   13486   13489   13492   13495   13498   13501
   13504   13507   13510   13513   13516   13519   13522   13525   13528   13531
   13534   13537   13540   13543   13546   13549   13552   13555   13558   13561
   13564   13567   13570   13573   13576   13579   13582   13585   13588   13591
   13594   13597   13600   13603   13606   13609   13612   13615   13618   13621
   13624   13627   13630   13633   13636   13639   13642   13645   13648   13651
   13654   13657   13660   13663   13666   13669   13672   13675   13678   13681
   13684   13687   13690   13693   13696   13699   13702   13705   13708   13711
   13714   13717   13720   13723   13726   13729   13732   13735   13738   13741
   13744   13747   13750   13753   13756   13759   13762   13765   13768   13771
   13774   13777   13780   13783   13786   13789   13792   13795   13798   13801
   13804   13807   13810   13813   13816   13819   13822   13825   13828   13831
   13834   13837   13840   13843   13846   13849   13852   13855   13858   13861
   13864   13867   13870   13873   13876   13879   13882   13885   13888   13891
   13894   13897   13900   13903   13906   13909   13912   13915   13918   13921
   13924   13927   13930   13933   13936   13939   13942   13945   13948   13951
   13954   13957   13960   13963   13966   13969   13972   13975   13978   13981
   13984   13987   13990   13993   13996   13999   14002   14005   14008   14011
   14014   14017   14020   14023   14026   14029   14032   14035   14038   14041
   14044   14047   14050   14053   14056   14059   14062   14065   14068   14071
   14074   14077   14080   14083   14086   14089   14092   14095   14098   14101
   14104   14107   14110   14113   14116   14119   14122   14125   14128   14131
   14134   14137   14140   14143   14146   14149   14152   14155   14158   14161
   14164   14167   14170   14173   14176   14179   14182   14185   14188   14191
   14194   14197   14200   14203   14206   14209   14212   14215   14218   14221
   14224   14227   14230   14233   14236   14239   14242   14245   14248   14251
   14254   14257   14260   14263   14266   14269   14272   14275   14278   14281
   14284   14287   14290   14293   14296   14299   14302   14305   14308   14311
   14314   14317   14320   14323   14326   14329   14332   14335   14338   14341
   14344   14347   14350   14353   14356   14359   14362   14365   14368   14371
   14374   14377   14380   14383   14386   14389   14392   14395   14398   14401
   14404   14407   14410   14413   14416   14419   14422   14425   14428   14431
   14434   14437   14440   14443   14446   14449   14452   14455   14458   14461
   14464   14467   14470   14473   14476   14479   14482   14485   14488   14491
   14494   14497   14500   14503   14506   14509   14512   14515   14518   14521
   14524   14527   14530   14533   14536   14539   14542   14545   14548   14551
   14554   14557   14560   14563   14566   14569   14572   14575   14578   14581
   14584   14587   14590   14593   14596   14599   14602   14605   14608   14611
   14614   14617   14620   14623   14626   14629   14632   14635   14638   14641
   14644   14647   14650   14653   14656   14659   14662   14665   14668   14671
   14674   14677   14680   14683   14686   14689   14692   14695   14698   14701
   14704   14707   14710   14713   14716   14719   14722   14725   14728   14731
   14734   14737   14740   14743   14746   14749   14752   14755   14758   14761
   14764   14767   14770   14773   14776   14779   14782   14785   14788   14791
   14794   14797   14800   14803   14806   14809   14812   14815   14818   14821
   14824   14827   14830   14833   14836   14839   14842   14845   14848   14851
   14854   14857   14860   14863   14866   14869   14872   14875   14878   14881
   14884   14887   14890   14893   14896   14899   14902   14905   14908   14911
   14914   14917   14920   14923   14926   14929   14932   14935   14938   14941
   14944   14947   14950   14953   14956   14959   14962   14965   14968   14971
   14974   14977   14980   14983   14986   14989   14992   14995   14998   15001
   15004   15007   15010   15013   15016   15019   15022   15025   15028   15031
   15034   15037   15040   15043   15046   15049   15052   15055   15058   15061
   15064   15067   15070   15073   15076   15079   15082   15085   15088   15091
   15094   15097   15100   15103   15106   15109   15112   15115   15118   15121
   15124   15127   15130   15133   15136   15139   15142   15145   15148   15151
   15154   15157   15160   15163   15166   15169   15172   15175   15178   15181
   15184   15187   15190   15193   15196   15199   15202   15205   15208   15211
   15214   15217   15220   15223   15226   15229   15232   15235   15238   15241
   15244   15247   15250   15253   15256   15259   15262   15265   15268   15271
   15274   15277   15280   15283   15286   15289   15292   15295   15298   15301
   15304   15307   15310   15313   15316   15319   15322   15325   15328   15331
   15334   15337   15340   15343   15346   15349   15352   15355   15358   15361
   15364   15367   15370   15373   15376   15379   15382   15385   15388   15391
   15394   15397   15400   15403   15406   15409   15412   15415   15418   15421
   15424   15427   15430   15433   15436   15439   15442   15445   15448   15451
   15454   15457   15460   15463   15466   15469   15472   15475   15478   15481
   15484   15487   15490   15493   15496   15499   15502   15505   15508   15511
   15514   15517   15520   15523   15526   15529   15532   15535   15538   15541
   15544   15547   15550   15553   15556   15559   15562   15565   15568   15571
   15574   15577   15580   15583   15586   15589   15592   15595   15598   15601
   15604   15607   15610   15613   15616   15619   15622   15625   15628   15631
   15634   15637   15640   15643   15646   15649   15652   15655   15658   15661
   15664   15667   15670   15673   15676   15679   15682   15685   15688   15691
   15694   15697   15700   15703   15706   15709   15712   15715   15718   15721
   15724   15727   15730   15733   15736   15739   15742   15745   15748   15751
   15754   15757   15760   15763   15766   15769   15772   15775   15778   15781
   15784   15787   15790   15793   15796   15799   15802   15805   15808   15811
   15814   15817   15820   15823   15826   15829   15832   15835   15838   15841
   15844   15847   15850   15853   15856   15859   15862   15865   15868   15871
   15874   15877   15880   15883   15886   15889   15892   15895   15898   15901
   15904   15907   15910   15913   15916   15919   15922   15925   15928   15931
   15934   15937   15940   15943   15946   15949   15952   15955   15958   15961
   15964   15967   15970   15973   15976   15979   15982   15985   15988   15991
   15994   15997   16000   16003   16006   16009   16012   16015   16018   16021
   16024   16027   16030   16033   16036   16039   16042   16045   16048   16051
   16054   16057   16060   16063   16066   16069   16072   16075   16078   16081
   16084   16087   16090   16093   16096   16099   16102   16105   16108   16111
   16114   16117   16120   16123   16126   16129   16132   16135   16138   16141
   16144   16147   16150   16153   16156   16159   16162   16165   16168   16171
   16174   16177   16180   16183   16186   16189   16192   16195   16198   16201
   16204   16207   16210   16213   16216   16219   16222   16225   16228   16231
   16234   16237   16240   16243   16246   16249   16252   16255   16258   16261
   16264   16267   16270   16273   16276   16279   16282   16285   16288   16291
   16294   16297   16300   16303   16306   16309   16312   16315   16318   16321
   16324   16327   16330   16333   16336   16339   16342   16345   16348   16351
   16354   16357   16360   16363   16366   16369   16372   16375   16378   16381
   16384   16387   16390   16393   16396   16399   16402   16405   16408   16411
   16414   16417   16420   16423   16426   16429   16432   16435   16438   16441
   16444   16447   16450   16453   16456   16459   16462   16465   16468   16471
   16474   16477   16480   16483   16486   16489   16492   16495   16498   16501
   16504   16507   16510   16513   16516   16519   16522   16525   16528   16531
   16534   16537   16540   16543   16546   16549   16552   16555   16558   16561
   16564   16567   16570   16573   16576   16579   16582   16585   16588   16591
   16594   16597   16600   16603   16606   16609   16612   16615   16618   16621
   16624   16627   16630   16633   16636   16639   16642   16645   16648   16651
   16654   16657   16660   16663   16666   16669   16672   16675   16678   16681
   16684   16687   16690   16693   16696   16699   16702   16705   16708   16711
   16714   16717   16720   16723   16726   16729   16732   16735   16738   16741
   16744   16747   16750   16753   16756   16759   16762   16765   16768   16771
   16774   16777   16780   16783   16786   16789   16792   16795   16798   16801
   16804   16807   16810   16813   16816   16819   16822   16825   16828   16831
   16834   16837   16840   16843   16846   16849   16852   16855   16858   16861
   16864   16867   16870   16873   16876   16879   16882   16885   16888   16891
   16894   16897   16900   16903   16906   16909   16912   16915   16918   16921
   16924   16927   16930   16933   16936   16939   16942   16945   16948   16951
   16954   16957   16960   16963   16966   16969   16972   16975   16978   16981
   16984   16987   16990   16993   16996   16999   17002   17005   17008   17011
   17014   17017   17020   17023   17026   17029   17032   17035   17038   17041
   17044   17047   17050   17053   17056   17059   17062   17065   17068   17071
   17074   17077   17080   17083   17086   17089   17092   17095   17098   17101
   17104   17107   17110   17113   17116   17119   17122   17125   17128   17131
   17134   17137   17140   17143   17146   17149   17152   17155   17158   17161
   17164   17167   17170   17173   17176   17179   17182   17185   17188   17191
   17194   17197   17200   17203   17206   17209   17212   17215   17218   17221
   17224   17227   17230   17233   17236   17239   17242   17245   17248   17251
   17254   17257   17260   17263   17266   17269   17272   17275   17278   17281
   17284   17287   17290   17293   17296   17299   17302   17305   17308   17311
   17314   17317   17320   17323   17326   17329   17332   17335   17338   17341
   17344   17347   17350   17353   17356   17359   17362   17365   17368   17371
   17374   17377   17380   17383   17386   17389   17392   17395   17398   17401
   17404   17407   17410   17413   17416   17419   17422   17425   17428   17431
   17434   17437   17440   17443   17446   17449   17452   17455   17458   17461
   17464   17467   17470   17473   17476   17479   17482   17485   17488   17491
   17494   17497   17500   17503   17506   17509   17512   17515   17518   17521
   17524   17527   17530   17533   17536   17539   17542   17545   17548   17551
   17554   17557   17560   17563   17566   17569   17572   17575   17578   17581
   17584   17587   17590   17593   17596   17599   17602   17605   17608   17611
   17614   17617   17620   17623   17626   17629   17632   17635   17638   17641
   17644   17647   17650   17653   17656   17659   17662   17665   17668   17671
   17674   17677   17680   17683   17686   17689   17692   17695   17698   17701
   17704   17707   17710   17713   17716   17719   17722   17725   17728   17731
   17734   17737   17740   17743   17746   17749   17752   17755   17758   17761
   17764   17767   17770   17773   17776   17779   17782   17785   17788   17791
   17794   17797   17800   17803   17806   17809   17812   17815   17818   17821
   17824   17827   17830   17833   17836   17839   17842   17845   17848   17851
   17854   17857   17860   17863   17866   17869   17872   17875   17878   17881
   17884   17887   17890   17893   17896   17899   17902   17905   17908   17911
   17914   17917   17920   17923   17926   17929   17932   17935   17938   17941
   17944   17947   17950   17953   17956   17959   17962   17965   17968   17971
   17974   17977   17980   17983   17986   17989   17992   17995   17998   18001
   18004   18007   18010   18013   18016   18019   18022   18025   18028   18031
   18034   18037   18040   18043   18046   18049   18052   18055   18058   18061
   18064   18067   18070   18073   18076   18079   18082   18085   18088   18091
   18094   18097   18100   18103   18106   18109   18112   18115   18118   18121
   18124   18127   18130   18133   18136   18139   18142   18145   18148   18151
   18154   18157   18160   18163   18166   18169   18172   18175   18178   18181
   18184   18187   18190   18193   18196   18199   18202   18205   18208   18211
   18214   18217   18220   18223   18226   18229   18232   18235   18238   18241
   18244   18247   18250   18253   18256   18259   18262   18265   18268   18271
   18274   18277   18280   18283   18286   18289   18292   18295   18298   18301
   18304   18307   18310   18313   18316   18319   18322   18325   18328   18331
   18334   18337   18340   18343   18346   18349   18352   18355   18358   18361
   18364   18367   18370   18373   18376   18379   18382   18385   18388   18391
   18394   18397   18400   18403   18406   18409   18412   18415   18418   18421
   18424   18427   18430   18433   18436   18439   18442   18445   18448   18451
   18454   18457   18460   18463   18466   18469   18472   18475   18478   18481
   18484   18487   18490   18493   18496   18499   18502   18505   18508   18511
   18514   18517   18520   18523   18526   18529   18532   18535   18538   18541
   18544   18547   18550   18553   18556   18559   18562   18565   18568   18571
   18574   18577   18580   18583   18586   18589   18592   18595   18598   18601
   18604   18607   18610   18613   18616   18619   18622   18625   18628   18631
   18634   18637   18640   18643   18646   18649   18652   18655   18658   18661
   18664   18667   18670   18673   18676   18679   18682   18685   18688   18691
   18694   18697   18700   18703   18706   18709   18712   18715   18718   18721
   18724   18727   18730   18733   18736   18739   18742   18745   18748   18751
   18754   18757   18760   18763   18766   18769   18772   18775   18778   18781
   18784   18787   18790   18793   18796   18799   18802   18805   18808   18811
   18814   18817   18820   18823   18826   18829   18832   18835   18838   18841
   18844   18847   18850   18853   18856   18859   18862   18865   18868   18871
   18874   18877   18880   18883   18886   18889   18892   18895   18898   18901
   18904   18907   18910   18913   18916   18919   18922   18925   18928   18931
   18934   18937   18940   18943   18946   18949   18952   18955   18958   18961
   18964   18967   18970   18973   18976   18979   18982   18985   18988   18991
   18994   18997   19000   19003   19006   19009   19012   19015   19018   19021
   19024   19027   19030   19033   19036   19039   19042   19045   19048   19051
   19054   19057   19060   19063   19066   19069   19072   19075   19078   19081
   19084   19087   19090   19093   19096   19099   19102   19105   19108   19111
   19114   19117   19120   19123   19126   19129   19132   19135   19138   19141
   19144   19147   19150   19153   19156   19159   19162   19165   19168   19171
   19174   19177   19180   19183   19186   19189   19192   19195   19198   19201
   19204   19207   19210   19213   19216   19219   19222   19225   19228   19231
   19234   19237   19240   19243   19246   19249   19252   19255   19258   19261
   19264   19267   19270   19273   19276   19279   19282   19285   19288   19291
   19294   19297   19300   19303   19306   19309   19312   19315   19318   19321
   19324   19327   19330   19333   19336   19339   19342   19345   19348   19351
   19354   19357   19360   19363   19366   19369   19372   19375   19378   19381
   19384   19387   19390   19393   19396   19399   19402   19405   19408   19411
   19414   19417   19420   19423   19426   19429   19432   19435   19438   19441
   19444   19447   19450   19453   19456   19459   19462   19465   19468   19471
   19474   19477   19480   19483   19486   19489   19492   19495   19498   19501
   19504   19507   19510   19513   19516   19519   19522   19525   19528   19531
   19534   19537   19540   19543   19546   19549   19552   19555   19558   19561
   19564   19567   19570   19573   19576   19579   19582   19585   19588   19591
   19594   19597   19600   19603   19606   19609   19612   19615   19618   19621
   19624   19627   19630   19633   19636   19639   19642   19645   19648   19651
   19654   19657   19660   19663   19666   19669   19672   19675   19678   19681
   19684   19687   19690   19693   19696   19699   19702   19705   19708   19711
   19714   19717   19720   19723   19726   19729   19732   19735   19738   19741
   19744   19747   19750   19753   19756   19759   19762   19765   19768   19771
   19774   19777   19780   19783   19786   19789   19792   19795   19798   19801
   19804   19807   19810   19813   19816   19819   19822   19825   19828   19831
   19834   19837   19840   19843   19846   19849   19852   19855   19858   19861
   19864   19867   19870   19873   19876   19879   19882   19885   19888   19891
   19894   19897   19900   19903   19906   19909   19912   19915   19918   19921
   19924   19927   19930   19933   19936   19939   19942   19945   19948   19951
   19954   19957   19960   19963   19966   19969   19972   19975   19978   19981
   19984   19987   19990   19993   19996   19999   20002   20005   20008   20011
   20014   20017   20020   20023   20026   20029   20032   20035   20038   20041
   20044   20047   20050   20053   20056   20059   20062   20065   20068   20071
   20074   20077   20080   20083   20086   20089   20092   20095   20098   20101
   20104   20107   20110   20113   20116   20119   20122   20125   20128   20131
   20134   20137   20140   20143   20146   20149   20152   20155   20158   20161
   20164   20167   20170   20173   20176   20179   20182   20185   20188   20191
   20194   20197   20200   20203   20206   20209   20212   20215   20218   20221
   20224   20227   20230   20233   20236   20239   20242   20245   20248   20251
   20254   20257   20260   20263   20266   20269   20272   20275   20278   20281
   20284   20287   20290   20293   20296   20299   20302   20305   20308   20311
   20314   20317   20320   20323   20326   20329   20332   20335   20338   20341
   20344   20347   20350   20353   20356   20359   20362   20365   20368   20371
   20374   20377   20380   20383   20386   20389   20392   20395   20398   20401
   20404   20407   20410   20413   20416   20419   20422   20425   20428   20431
   20434   20437   20440   20443   20446   20449   20452   20455   20458   20461
   20464   20467   20470   20473   20476   20479   20482   20485   20488   20491
   20494   20497   20500   20503   20506   20509   20512   20515   20518   20521
   20524   20527   20530   20533   20536   20539   20542   20545   20548   20551
   20554   20557   20560   20563   20566   20569   20572   20575   20578   20581
   20584   20587   20590   20593   20596   20599   20602   20605   20608   20611
   20614   20617   20620   20623   20626   20629   20632   20635   20638   20641
   20644   20647   20650   20653   20656   20659   20662   20665   20668   20671
   20674   20677   20680   20683   20686   20689   20692   20695   20698   20701
   20704   20707   20710   20713   20716   20719   20722   20725   20728   20731
   20734   20737   20740   20743   20746   20749   20752   20755   20758   20761
   20764   20767   20770   20773   20776   20779   20782   20785   20788   20791
   20794   20797   20800   20803   20806   20809   20812   20815   20818   20821
   20824   20827   20830   20833   20836   20839   20842   20845   20848   20851
   20854   20857   20860   20863   20866   20869   20872   20875   20878   20881
   20884   20887   20890   20893   20896   20899   20902   20905   20908   20911
   20914   20917   20920   20923   20926   20929   20932   20935   20938   20941
   20944   20947   20950   20953   20956   20959   20962   20965   20968   20971
   20974   20977   20980   20983   20986   20989   20992   20995   20998   21001
   21004   21007   21010   21013   21016   21019   21022   21025   21028   21031
   21034   21037   21040   21043   21046   21049   21052   21055   21058   21061
   21064   21067   21070   21073   21076   21079   21082   21085   21088   21091
   21094   21097   21100   21103   21106   21109   21112   21115   21118   21121
   21124   21127   21130   21133   21136   21139   21142   21145   21148   21151
   21154   21157   21160   21163   21166   21169   21172   21175   21178   21181
   21184   21187   21190   21193   21196   21199   21202   21205   21208   21211
   21214   21217   21220   21223   21226   21229   21232   21235   21238   21241
   21244   21247   21250   21253   21256   21259   21262   21265   21268   21271
   21274   21277   21280   21283   21286   21289   21292   21295   21298   21301
   21304   21307   21310   21313   21316   21319   21322   21325   21328   21331
   21334   21337   21340   21343   21346   21349   21352   21355   21358   21361
   21364   21367   21370   21373   21376   21379   21382   21385   21388   21391
   21394   21397   21400   21403   21406   21409   21412   21415   21418   21421
   21424   21427   21430   21433   21436   21439   21442   21445   21448   21451
   21454   21457   21460   21463   21466   21469   21472   21475   21478   21481
   21484   21487   21490   21493   21496   21499   21502   21505   21508   21511
   21514   21517   21520   21523   21526   21529   21532   21535   21538   21541
   21544   21547   21550   21553   21556   21559   21562   21565   21568   21571
   21574   21577   21580   21583   21586   21589   21592   21595   21598   21601
   21604   21607   21610   21613   21616   21619   21622   21625   21628   21631
   21634   21637   21640   21643   21646   21649   21652   21655   21658   21661
   21664   21667   21670   21673   21676   21679   21682   21685   21688   21691
   21694   21697   21700   21703   21706   21709   21712   21715   21718   21721
   21724   21727   21730   21733   21736   21739   21742   21745   21748   21751
   21754   21757   21760   21763   21766   21769   21772   21775   21778   21781
   21784   21787   21790   21793   21796   21799   21802   21805   21808   21811
   21814   21817   21820   21823   21826   21829   21832   21835   21838   21841
   21844   21847   21850   21853   21856   21859   21862   21865   21868   21871
   21874   21877   21880   21883   21886   21889   21892   21895   21898   21901
   21904   21907   21910   21913   21916   21919   21922   21925   21928   21931
   21934   21937   21940   21943   21946   21949   21952   21955   21958   21961
   21964   21967   21970   21973   21976   21979   21982   21985   21988   21991
   21994   21997   22000   22003   22006   22009   22012   22015   22018   22021
   22024   22027   22030   22033   22036   22039   22042   22045   22048   22051
   22054   22057   22060   22063   22066   22069   22072   22075   22078   22081
   22084   22087   22090   22093   22096   22099   22102   22105   22108   22111
   22114   22117   22120   22123   22126   22129   22132   22135   22138   22141
   22144   22147   22150   22153   22156   22159   22162   22165   22168   22171
   22174   22177   22180   22183   22186   22189   22192   22195   22198   22201
   22204   22207   22210   22213   22216   22219   22222   22225   22228   22231
   22234   22237   22240   22243   22246   22249   22252   22255   22258   22261
   22264   22267   22270   22273   22276   22279   22282   22285   22288   22291
   22294   22297   22300   22303   22306   22309   22312   22315   22318   22321
   22324   22327   22330   22333   22336   22339   22342   22345   22348   22351
   22354   22357   22360   22363   22366   22369   22372   22375   22378   22381
   22384   22387   22390   22393   22396   22399   22402   22405   22408   22411
   22414   22417   22420   22423   22426   22429   22432   22435   22438   22441
   22444   22447   22450   22453   22456   22459   22462   22465   22468   22471
   22474   22477   22480   22483   22486   22489   22492   22495   22498   22501
   22504   22507   22510   22513   22516   22519   22522   22525   22528   22531
   22534   22537   22540   22543   22546   22549   22552   22555   22558   22561
   22564   22567   22570   22573   22576   22579   22582   22585   22588   22591
   22594   22597   22600   22603   22606   22609   22612   22615   22618   22621
   22624   22627   22630   22633   22636   22639   22642   22645   22648   22651
   22654   22657   22660   22663   22666   22669   22672   22675   22678   22681
   22684   22687   22690   22693   22696   22699   22702   22705   22708   22711
   22714   22717   22720   22723   22726   22729   22732   22735   22738   22741
   22744   22747   22750   22753   22756   22759   22762   22765   22768   22771
   22774   22777   22780   22783   22786   22789   22792   22795   22798   22801
   22804   22807   22810   22813   22816   22819   22822   22825   22828   22831
   22834   22837   22840   22843   22846   22849   22852   22855   22858   22861
   22864   22867   22870   22873   22876   22879   22882   22885   22888   22891
   22894   22897   22900   22903   22906   22909   22912   22915   22918   22921
   22924   22927   22930   22933   22936   22939   22942   22945   22948   22951
   22954   22957   22960   22963   22966   22969   22972   22975   22978   22981
   22984   22987   22990   22993   22996   22999   23002   23005   23008   23011
   23014   23017   23020   23023   23026   23029   23032   23035   23038   23041
   23044   23047   23050   23053   23056   23059   23062   23065   23068   23071
   23074   23077   23080   23083   23086   23089   23092   23095   23098   23101
   23104   23107   23110   23113   23116   23119   23122   23125   23128   23131
   23134   23137   23140   23143   23146   23149   23152   23155   23158   23161
   23164   23167   23170   23173   23176   23179   23182   23185   23188   23191
   23194   23197   23200   23203   23206   23209   23212   23215   23218   23221
   23224   23227   23230   23233   23236   23239   23242   23245   23248   23251
   23254   23257   23260   23263   23266   23269   23272   23275   23278   23281
   23284   23287   23290   23293   23296   23299   23302   23305   23308   23311
   23314   23317   23320   23323   23326   23329   23332   23335   23338   23341
   23344   23347   23350   23353   23356   23359   23362   23365   23368   23371
   23374   23377   23380   23383   23386   23389   23392   23395   23398   23401
   23404   23407   23410   23413   23416   23419   23422   23425   23428   23431
   23434   23437   23440   23443   23446   23449   23452   23455   23458   23461
   23464   23467   23470   23473   23476   23479   23482   23485   23488   23491
   23494   23497   23500   23503   23506   23509   23512   23515   23518   23521
   23524   23527   23530   23533   23536   23539   23542   23545   23548   23551
   23554   23557   23560   23563   23566   23569   23572   23575   23578   23581
   23584   23587   23590   23593   23596   23599   23602   23605   23608   23611
   23614   23617   23620   23623   23626   23629   23632   23635   23638   23641
   23644   23647   23650   23653   23656   23659   23662   23665   23668   23671
   23674   23677   23680   23683   23686   23689   23692   23695   23698   23701
   23704   23707   23710   23713   23716   23719   23722   23725   23728   23731
   23734   23737   23740   23743   23746   23749   23752   23755   23758   23761
   23764   23767   23770   23773   23776   23779   23782   23785   23788   23791
   23794   23797   23800   23803   23806   23809   23812   23815   23818   23821
   23824   23827   23830   23833   23836   23839   23842   23845   23848   23851
   23854   23857   23860   23863   23866   23869   23872   23875   23878   23881
   23884   23887   23890   23893   23896   23899   23902   23905   23908   23911
   23914   23917   23920   23923   23926   23929   23932   23935   23938   23941
   23944   23947   23950   23953   23956   23959   23962   23965   23968   23971
   23974   23977   23980   23983   23986   23989   23992   23995   23998   24001
   24004   24007   24010   24013   24016   24019   24022   24025   24028   24031
   24034   24037   24040   24043   24046   24049   24052   24055   24058   24061
   24064   24067   24070   24073   24076   24079   24082   24085   24088   24091
   24094   24097   24100   24103   24106   24109   24112   24115   24118   24121
   24124   24127   24130   24133   24136   24139   24142   24145   24148   24151
   24154   24157   24160   24163   24166   24169   24172   24175   24178   24181
   24184   24187   24190   24193   24196   24199   24202   24205   24208   24211
   24214   24217   24220   24223   24226   24229   24232   24235   24238   24241
   24244   24247   24250   24253   24256   24259   24262   24265   24268   24271
   24274   24277   24280   24283   24286   24289   24292   24295   24298   24301
   24304   24307   24310   24313   24316   24319   24322   24325   24328   24331
   24334   24337   24340   24343   24346   24349   24352   24355   24358   24361
   24364   24367   24370   24373   24376   24379   24382   24385   24388   24391
   24394   24397   24400   24403   24406   24409   24412   24415   24418   24421
   24424   24427   24430   24433   24436   24439   24442   24445   24448   24451
   24454   24457   24460   24463   24466   24469   24472   24475   24478   24481
   24484   24487   24490   24493   24496   24499   24502   24505   24508   24511
   24514   24517   24520   24523   24526   24529   24532   24535   24538   24541
   24544   24547   24550   24553   24556   24559   24562   24565   24568   24571
   24574   24577   24580   24583   24586   24589   24592   24595   24598   24601
   24604   24607   24610   24613   24616   24619   24622   24625   24628   24631
   24634   24637   24640   24643   24646   24649   24652   24655   24658   24661
   24664   24667   24670   24673   24676   24679   24682   24685   24688   24691
   24694   24697   24700   24703   24706   24709   24712   24715   24718   24721
   24724   24727   24730   24733   24736   24739   24742   24745   24748   24751
   24754   24757   24760   24763   24766   24769   24772   24775   24778   24781
   24784   24787   24790   24793   24796   24799   24802   24805   24808   24811
   24814   24817   24820   24823   24826   24829   24832   24835   24838   24841
   24844   24847   24850   24853   24856   24859   24862   24865   24868   24871
   24874   24877   24880   24883   24886   24889   24892   24895   24898   24901
   24904   24907   24910   24913   24916   24919   24922   24925   24928   24931
   24934   24937   24940   24943   24946   24949   24952   24955   24958   24961
   24964   24967   24970   24973   24976   24979   24982   24985   24988   24991
   24994   24997   25000   25003   25006   25009   25012   25015   25018   25021
   25024   25027   25030   25033   25036   25039   25042   25045   25048   25051
   25054   25057   25060   25063   25066   25069   25072   25075   25078   25081
   25084   25087   25090   25093   25096   25099   25102   25105   25108   25111
   25114   25117   25120   25123   25126   25129   25132   25135   25138   25141
   25144   25147   25150   25153   25156   25159   25162   25165   25168   25171
   25174   25177   25180   25183   25186   25189   25192   25195   25198   25201
   25204   25207   25210   25213   25216   25219   25222   25225   25228   25231
   25234   25237   25240   25243   25246   25249   25252   25255   25258   25261
   25264   25267   25270   25273   25276   25279   25282   25285   25288   25291
   25294   25297   25300   25303   25306   25309   25312   25315   25318   25321
   25324   25327   25330   25333   25336   25339   25342   25345   25348   25351
   25354   25357   25360   25363   25366   25369   25372   25375   25378   25381
   25384   25387   25390   25393   25396   25399   25402   25405   25408   25411
   25414   25417   25420   25423   25426   25429   25432   25435   25438   25441
   25444   25447   25450   25453   25456   25459   25462   25465   25468   25471
   25474   25477   25480   25483   25486   25489   25492   25495   25498   25501
   25504   25507   25510   25513   25516   25519   25522   25525   25528   25531
   25534   25537   25540   25543   25546   25549   25552   25555   25558   25561
   25564   25567   25570   25573   25576   25579   25582   25585   25588   25591
   25594   25597   25600   25603   25606   25609   25612   25615   25618   25621
   25624   25627   25630   25633   25636   25639   25642   25645   25648   25651
   25654   25657   25660   25663   25666   25669   25672   25675   25678   25681
   25684   25687   25690   25693   25696   25699   25702   25705   25708   25711
   25714   25717   25720   25723   25726   25729   25732   25735   25738   25741
   25744   25747   25750   25753   25756   25759   25762   25765   25768   25771
   25774   25777   25780   25783   25786   25789   25792   25795   25798   25801
   25804   25807   25810   25813   25816   25819   25822   25825   25828   25831
   25834   25837   25840   25843   25846   25849   25852   25855   25858   25861
   25864   25867   25870   25873   25876   25879   25882   25885   25888   25891
   25894   25897   25900   25903   25906   25909   25912   25915   25918   25921
   25924   25927   25930   25933   25936   25939   25942   25945   25948   25951
   25954   25957   25960   25963   25966   25969   25972   25975   25978   25981
   25984   25987   25990   25993   25996   25999   26002   26005   26008   26011
   26014   26017   26020   26023   26026   26029   26032   26035   26038   26041
   26044   26047   26050   26053   26056   26059   26062   26065   26068   26071
   26074   26077   26080   26083   26086   26089   26092   26095   26098   26101
   26104   26107   26110   26113   26116   26119   26122   26125   26128   26131
   26134   26137   26140   26143   26146   26149   26152   26155   26158   26161
   26164   26167   26170   26173   26176   26179   26182   26185   26188   26191
   26194   26197   26200   26203   26206   26209   26212   26215   26218   26221
   26224   26227   26230   26233   26236   26239   26242   26245   26248   26251
   26254   26257   26260   26263   26266   26269   26272   26275   26278   26281
   26284   26287   26290   26293   26296   26299   26302   26305   26308   26311
   26314   26317   26320   26323   26326   26329   26332   26335   26338   26341
   26344   26347   26350   26353   26356   26359   26362   26365   26368   26371
   26374   26377   26380   26383   26386   26389   26392   26395   26398   26401
   26404   26407   26410   26413   26416   26419   26422   26425   26428   26431
   26434   26437   26440   26443   26446   26449   26452   26455   26458   26461
   26464   26467   26470   26473   26476   26479   26482   26485   26488   26491
   26494   26497   26500   26503   26506   26509   26512   26515   26518   26521
   26524   26527   26530   26533   26536   26539   26542   26545   26548   26551
   26554   26557   26560   26563   26566   26569   26572   26575   26578   26581
   26584   26587   26590   26593   26596   26599   26602   26605   26608   26611
   26614   26617   26620   26623   26626   26629   26632   26635   26638   26641
   26644   26647   26650   26653   26656   26659   26662   26665   26668   26671
   26674   26677   26680   26683   26686   26689   26692   26695   26698   26701
   26704   26707   26710   26713   26716   26719   26722   26725   26728   26731
   26734   26737   26740   26743   26746   26749   26752   26755   26758   26761
   26764   26767   26770   26773   26776   26779   26782   26785   26788   26791
   26794   26797   26800   26803   26806   26809   26812   26815   26818   26821
   26824   26827   26830   26833   26836   26839   26842   26845   26848   26851
   26854   26857   26860   26863   26866   26869   26872   26875   26878   26881
   26884   26887   26890   26893   26896   26899   26902   26905   26908   26911
   26914   26917   26920   26923   26926   26929   26932   26935   26938   26941
   26944   26947   26950   26953   26956   26959   26962   26965   26968   26971
   26974   26977   26980   26983   26986   26989   26992   26995   26998   27001
   27004   27007   27010   27013   27016   27019   27022   27025   27028   27031
   27034   27037   27040   27043   27046   27049   27052   27055   27058   27061
   27064   27067   27070   27073   27076   27079   27082   27085   27088   27091
   27094   27097   27100   27103   27106   27109   27112   27115   27118   27121
   27124   27127   27130   27133   27136   27139   27142   27145   27148   27151
   27154   27157   27160   27163   27166   27169   27172   27175   27178   27181
   27184   27187   27190   27193   27196   27199   27202   27205   27208   27211
   27214   27217   27220   27223   27226   27229   27232   27235   27238   27241
   27244   27247   27250   27253   27256   27259   27262   27265   27268   27271
   27274   27277   27280   27283   27286   27289   27292   27295   27298   27301
   27304   27307   27310   27313   27316   27319   27322   27325   27328   27331
   27334   27337   27340   27343   27346   27349   27352   27355   27358   27361
   27364   27367   27370   27373   27376   27379   27382   27385   27388   27391
   27394   27397   27400   27403   27406   27409   27412   27415   27418   27421
   27424   27427   27430   27433   27436   27439   27442   27445   27448   27451
   27454   27457   27460   27463   27466   27469   27472   27475   27478   27481
   27484   27487   27490   27493   27496   27499   27502   27505   27508   27511
   27514   27517   27520   27523   27526   27529   27532   27535   27538   27541
   27544   27547   27550   27553   27556   27559   27562   27565   27568   27571
   27574   27577   27580   27583   27586   27589   27592   27595   27598   27601
   27604   27607   27610   27613   27616   27619   27622   27625   27628   27631
   27634   27637   27640   27643   27646   27649   27652   27655   27658   27661
   27664   27667   27670   27673   27676   27679   27682   27685   27688   27691
   27694   27697   27700   27703   27706   27709   27712   27715   27718   27721
   27724   27727   27730   27733   27736   27739   27742   27745   27748   27751
   27754   27757   27760   27763   27766   27769   27772   27775   27778   27781
   27784   27787   27790   27793   27796   27799   27802   27805   27808   27811
   27814   27817   27820   27823   27826   27829   27832   27835   27838   27841
   27844   27847   27850   27853   27856   27859   27862   27865   27868   27871
   27874   27877   27880   27883   27886   27889   27892   27895   27898   27901
   27904   27907   27910   27913   27916   27919   27922   27925   27928   27931
   27934   27937   27940   27943   27946   27949   27952   27955   27958   27961
   27964   27967   27970   27973   27976   27979   27982   27985   27988   27991
   27994   27997   28000   28003   28006   28009   28012   28015   28018   28021
   28024   28027   28030   28033   28036   28039   28042   28045   28048   28051
   28054   28057   28060   28063   28066   28069   28072   28075   28078   28081
   28084   28087   28090   28093   28096   28099   28102   28105   28108   28111
   28114   28117   28120   28123   28126   28129   28132   28135   28138   28141
   28144   28147   28150   28153   28156   28159   28162   28165   28168   28171
   28174   28177   28180   28183   28186   28189   28192   28195   28198   28201
   28204   28207   28210   28213   28216   28219   28222   28225   28228   28231
   28234   28237   28240   28243   28246   28249   28252   28255   28258   28261
   28264   28267   28270   28273   28276   28279   28282   28285   28288   28291
   28294   28297   28300   28303   28306   28309   28312   28315   28318   28321
   28324   28327   28330   28333   28336   28339   28342   28345   28348   28351
   28354   28357   28360   28363   28366   28369   28372   28375   28378   28381
   28384   28387   28390   28393   28396   28399   28402   28405   28408   28411
   28414   28417   28420   28423   28426   28429   28432   28435   28438   28441
   28444   28447   28450   28453   28456   28459   28462   28465   28468   28471
   28474   28477   28480   28483   28486   28489   28492   28495   28498   28501
   28504   28507   28510   28513   28516   28519   28522   28525   28528   28531
   28534   28537   28540   28543   28546   28549   28552   28555   28558   28561
   28564   28567   28570   28573   28576   28579   28582   28585   28588   28591
   28594   28597   28600   28603   28606   28609   28612   28615   28618   28621
   28624   28627   28630   28633   28636   28639   28642   28645   28648   28651
   28654   28657   28660   28663   28666   28669   28672   28675   28678   28681
   28684   28687   28690   28693   28696   28699   28702   28705   28708   28711
   28714   28717   28720   28723   28726   28729   28732   28735   28738   28741
   28744   28747   28750   28753   28756   28759   28762   28765   28768   28771
   28774   28777   28780   28783   28786   28789   28792   28795   28798   28801
   28804   28807   28810   28813   28816   28819   28822   28825   28828   28831
   28834   28837   28840   28843   28846   28849   28852   28855   28858   28861
   28864   28867   28870   28873   28876   28879   28882   28885   28888   28891
   28894   28897   28900   28903   28906   28909   28912   28915   28918   28921
   28924   28927   28930   28933   28936   28939   28942   28945   28948   28951
   28954   28957   28960   28963   28966   28969   28972   28975   28978   28981
   28984   28987   28990   28993   28996   28999   29002   29005   29008   29011
   29014   29017   29020   29023   29026   29029   29032   29035   29038   29041
   29044   29047   29050   29053   29056   29059   29062   29065   29068   29071
   29074   29077   29080   29083   29086   29089   29092   29095   29098   29101
   29104   29107   29110   29113   29116   29119   29122   29125   29128   29131
   29134   29137   29140   29143   29146   29149   29152   29155   29158   29161
   29164   29167   29170   29173   29176   29179   29182   29185   29188   29191
   29194   29197   29200   29203   29206   29209   29212   29215   29218   29221
   29224   29227   29230   29233   29236   29239   29242   29245   29248   29251
   29254   29257   29260   29263   29266   29269   29272   29275   29278   29281
   29284   29287   29290   29293   29296   29299   29302   29305   29308   29311
   29314   29317   29320   29323   29326   29329   29332   29335   29338   29341
   29344   29347   29350   29353   29356   29359   29362   29365   29368   29371
   29374   29377   29380   29383   29386   29389   29392   29395   29398   29401
   29404   29407   29410   29413   29416   29419   29422   29425   29428   29431
   29434   29437   29440   29443   29446   29449   29452   29455   29458   29461
   29464   29467   29470   29473   29476   29479   29482   29485   29488   29491
   29494   29497   29500   29503   29506   29509   29512   29515   29518   29521
   29524   29527   29530   29533   29536   29539   29542   29545   29548   29551
   29554   29557   29560   29563   29566   29569   29572   29575   29578   29581
   29584   29587   29590   29593   29596   29599   29602   29605   29608   29611
   29614   29617   29620   29623   29626   29629   29632   29635   29638   29641
   29644   29647   29650   29653   29656   29659   29662   29665   29668   29671
   29674   29677   29680   29683   29686   29689   29692   29695   29698   29701
   29704   29707   29710   29713   29716   29719   29722   29725   29728   29731
   29734   29737   29740   29743   29746   29749   29752   29755   29758   29761
   29764   29767   29770   29773   29776   29779   29782   29785   29788   29791
   29794   29797   29800   29803   29806   29809   29812   29815   29818   29821
   29824   29827   29830   29833   29836   29839   29842   29845   29848   29851
   29854   29857   29860   29863   29866   29869   29872   29875   29878   29881
   29884   29887   29890   29893   29896   29899   29902   29905   29908   29911
   29914   29917   29920   29923   29926   29929   29932   29935   29938   29941
   29944   29947   29950   29953   29956   29959   29962   29965   29968   29971
   29974   29977   29980   29983   29986   29989   29992   29995   29998   30001
   30004   30007   30010   30013   30016   30019   30022   30025   30028   30031
   30034   30037   30040   30043   30046   30049   30052   30055   30058   30061
   30064   30067   30070   30073   30076   30079   30082   30085   30088   30091
   30094   30097   30100   30103   30106   30109   30112   30115   30118   30121
   30124   30127   30130   30133   30136   30139   30142   30145   30148   30151
   30154   30157   30160   30163   30166   30169   30172   30175   30178   30181
   30184   30187   30190   30193   30196   30199   30202   30205   30208   30211
   30214   30217   30220   30223   30226   30229   30232   30235   30238   30241
   30244   30247   30250   30253   30256   30259   30262   30265   30268   30271
   30274   30277   30280   30283   30286   30289   30292   30295   30298   30301
   30304   30307   30310   30313   30316   30319   30322   30325   30328   30331
   30334   30337   30340   30343   30346   30349   30352   30355   30358   30361
   30364   30367   30370   30373   30376   30379   30382   30385   30388   30391
   30394   30397   30400   30403   30406   30409   30412   30415   30418   30421
   30424   30427   30430   30433   30436   30439   30442   30445   30448   30451
   30454   30457   30460   30463   30466   30469   30472   30475   30478   30481
   30484   30487   30490   30493   30496   30499   30502   30505   30508   30511
   30514   30517   30520   30523   30526   30529   30532   30535   30538   30541
   30544   30547   30550   30553   30556   30559   30562   30565   30568   30571
   30574   30577   30580   30583   30586   30589   30592   30595   30598   30601
   30604   30607   30610   30613   30616   30619   30622   30625   30628   30631
   30634   30637   30640   30643   30646   30649   30652   30655   30658   30661
   30664   30667   30670   30673   30676   30679   30682   30685   30688   30691
   30694   30697   30700   30703   30706   30709   30712   30715   30718   30721
   30724   30727   30730   30733   30736   30739   30742   30745   30748   30751
   30754   30757   30760   30763   30766   30769   30772   30775   30778   30781
   30784   30787   30790   30793   30796   30799   30802   30805   30808   30811
   30814   30817   30820   30823   30826   30829   30832   30835   30838   30841
   30844   30847   30850   30853   30856   30859   30862   30865   30868   30871
   30874   30877   30880   30883   30886   30889   30892   30895   30898   30901
   30904   30907   30910   30913   30916   30919   30922   30925   30928   30931
   30934   30937   30940   30943   30946   30949   30952   30955   30958   30961
   30964   30967   30970   30973   30976   30979   30982   30985   30988   30991
   30994   30997   31000   31003   31006   31009   31012   31015   31018   31021
   31024   31027   31030   31033   31036   31039   31042   31045   31048   31051
   31054   31057   31060   31063   31066   31069   31072   31075   31078   31081
   31084   31087   31090   31093   31096   31099   31102   31105   31108   31111
   31114   31117   31120   31123   31126   31129   31132   31135   31138   31141
   31144   31147   31150   31153   31156   31159   31162   31165   31168   31171
   31174   31177   31180   31183   31186   31189   31192   31195   31198   31201
   31204   31207   31210   31213   31216   31219   31222   31225   31228   31231
   31234   31237   31240   31243   31246   31249   31252   31255   31258   31261
   31264   31267   31270   31273   31276   31279   31282   31285   31288   31291
   31294   31297   31300   31303   31306   31309   31312   31315   31318   31321
   31324   31327   31330   31333   31336   31339   31342   31345   31348   31351
   31354   31357   31360   31363   31366   31369   31372   31375   31378   31381
   31384   31387   31390   31393   31396   31399   31402   31405   31408   31411
   31414   31417   31420   31423   31426   31429   31432   31435   31438   31441
   31444   31447   31450   31453   31456   31459   31462   31465   31468   31471
   31474   31477   31480   31483   31486   31489   31492   31495   31498   31501
   31504   31507   31510   31513   31516   31519   31522   31525   31528   31531
   31534   31537   31540   31543   31546   31549   31552   31555   31558   31561
   31564   31567   31570   31573   31576   31579   31582   31585   31588   31591
   31594   31597   31600   31603   31606   31609   31612   31615   31618   31621
   31624   31627   31630   31633   31636   31639   31642   31645   31648   31651
   31654   31657   31660   31663   31666   31669   31672   31675   31678   31681
   31684   31687   31690   31693   31696   31699   31702   31705   31708   31711
   31714   31717   31720   31723   31726   31729   31732   31735   31738   31741
   31744   31747   31750   31753   31756   31759   31762   31765   31768   31771
   31774   31777   31780   31783   31786   31789   31792   31795   31798   31801
   31804   31807   31810   31813   31816   31819   31822   31825   31828   31831
   31834   31837   31840   31843   31846   31849   31852   31855   31858   31861
   31864   31867   31870   31873   31876   31879   31882   31885   31888   31891
   31894   31897   31900   31903   31906   31909   31912   31915   31918   31921
   31924   31927   31930   31933   31936   31939   31942   31945   31948   31951
   31954   31957   31960   31963   31966   31969   31972   31975   31978   31981
   31984   31987   31990   31993   31996   31999   32002   32005   32008   32011
   32014   32017   32020   32023   32026   32029   32032   32035   32038   32041
   32044   32047   32050   32053   32056   32059   32062   32065   32068   32071
   32074   32077   32080   32083   32086   32089   32092   32095   32098   32101
   32104   32107   32110   32113   32116   32119   32122   32125   32128   32131
   32134   32137   32140   32143   32146   32149   32152   32155   32158   32161
   32164   32167   32170   32173   32176   32179   32182   32185   32188   32191
   32194   32197   32200   32203   32206   32209   32212   32215   32218   32221
   32224   32227   32230   32233   32236   32239   32242   32245   32248   32251
   32254   32257   32260   32263   32266   32269   32272   32275   32278   32281
   32284   32287   32290   32293   32296   32299   32302   32305   32308   32311
   32314   32317   32320   32323   32326   32329   32332   32335   32338   32341
   32344   32347   32350   32353   32356   32359   32362   32365   32368   32371
   32374   32377   32380   32383   32386   32389   32392   32395   32398   32401
   32404   32407   32410   32413   32416   32419   32422   32425   32428   32431
   32434   32437   32440   32443   32446   32449   32452   32455   32458   32461
   32464   32467   32470   32473   32476   32479   32482   32485   32488   32491
   32494   32497   32500   32503   32506   32509   32512   32515   32518   32521
   32524   32527   32530   32533   32536   32539   32542   32545   32548   32551
   32554   32557   32560   32563   32566   32569   32572   32575   32578   32581
   32584   32587   32590   32593   32596   32599   32602   32605   32608   32611
   32614   32617   32620   32623   32626   32629   32632   32635   32638   32641
   32644   32647   32650   32653   32656   32659   32662   32665   32668   32671
   32674   32677   32680   32683   32686   32689   32692   32695   32698   32701
   32704   32707   32710   32713   32716   32719   32722   32725   32728   32731
   32734   32737   32740   32743   32746   32749   32752   32755   32758   32761
   32764   32767   32770   32773   32776   32779   32782   32785   32788   32791
   32794   32797   32800   32803   32806   32809   32812   32815   32818   32821
   32824   32827   32830   32833   32836   32839   32842   32845   32848   32851
   32854   32857   32860   32863   32866   32869   32872   32875   32878   32881
   32884   32887   32890   32893   32896   32899   32902   32905   32908   32911
   32914   32917   32920   32923   32926   32929   32932   32935   32938   32941
   32944   32947   32950   32953   32956   32959   32962   32965   32968   32971
   32974   32977   32980   32983   32986   32989   32992   32995   32998   33001
   33004   33007   33010   33013   33016   33019   33022   33025   33028   33031
   33034   33037   33040   33043   33046   33049   33052   33055   33058   33061
   33064   33067   33070   33073   33076   33079   33082   33085   33088   33091
   33094   33097   33100   33103   33106   33109   33112   33115   33118   33121
   33124   33127   33130   33133   33136   33139   33142   33145   33148   33151
   33154   33157   33160   33163   33166   33169   33172   33175   33178   33181
   33184   33187   33190   33193   33196   33199   33202   33205   33208   33211
   33214   33217   33220   33223   33226   33229   33232   33235   33238   33241
   33244   33247   33250   33253   33256   33259   33262   33265   33268   33271
   33274   33277   33280   33283   33286   33289   33292   33295   33298   33301
   33304   33307   33310   33313   33316   33319   33322   33325   33328   33331
   33334   33337   33340   33343   33346   33349   33352   33355   33358   33361
   33364   33367   33370   33373   33376   33379   33382   33385   33388   33391
   33394   33397   33400   33403   33406   33409   33412   33415   33418   33421
   33424   33427   33430   33433   33436   33439   33442   33445   33448   33451
   33454   33457   33460   33463   33466   33469   33472   33475   33478   33481
   33484   33487   33490   33493   33496   33499   33502   33505   33508   33511
   33514   33517   33520   33523   33526   33529   33532   33535   33538   33541
   33544   33547   33550   33553   33556   33559   33562   33565   33568   33571
   33574   33577   33580   33583   33586   33589   33592   33595   33598   33601
   33604   33607   33610   33613   33616   33619   33622   33625   33628   33631
   33634   33637   33640   33643   33646   33649   33652   33655   33658   33661
   33664   33667   33670   33673   33676   33679   33682   33685   33688   33691
   33694   33697   33700   33703   33706   33709   33712   33715   33718   33721
   33724   33727   33730   33733   33736   33739   33742   33745   33748   33751
   33754   33757   33760   33763   33766   33769   33772   33775   33778   33781
   33784   33787   33790   33793   33796   33799   33802   33805   33808   33811
   33814   33817   33820   33823   33826   33829   33832   33835   33838   33841
   33844   33847   33850   33853   33856   33859   33862   33865   33868   33871
   33874   33877   33880   33883   33886   33889   33892   33895   33898   33901
   33904   33907   33910   33913   33916   33919   33922   33925   33928   33931
   33934   33937   33940   33943   33946   33949   33952   33955   33958   33961
   33964   33967   33970   33973   33976   33979   33982   33985   33988   33991
   33994   33997   34000   34003   34006   34009   34012   34015   34018   34021
   34024   34027   34030   34033   34036   34039   34042   34045   34048   34051
   34054   34057   34060   34063   34066   34069   34072   34075   34078   34081
   34084   34087   34090   34093   34096   34099   34102   34105   34108   34111
   34114   34117   34120   34123   34126   34129   34132   34135   34138   34141
   34144   34147   34150   34153   34156   34159   34162   34165   34168   34171
   34174   34177   34180   34183   34186   34189   34192   34195   34198   34201
   34204   34207   34210   34213   34216   34219   34222   34225   34228   34231
   34234   34237   34240   34243   34246   34249   34252   34255   34258   34261
   34264   34267   34270   34273   34276   34279   34282   34285   34288   34291
   34294   34297   34300   34303   34306   34309   34312   34315   34318   34321
   34324   34327   34330   34333   34336   34339   34342   34345   34348   34351
   34354   34357   34360   34363   34366   34369   34372   34375   34378   34381
   34384   34387   34390   34393   34396   34399   34402   34405   34408   34411
   34414   34417   34420   34423   34426   34429   34432   34435   34438   34441
   34444   34447   34450   34453   34456   34459   34462   34465   34468   34471
   34474   34477   34480   34483   34486   34489   34492   34495   34498   34501
   34504   34507   34510   34513   34516   34519   34522   34525   34528   34531
   34534   34537   34540   34543   34546   34549   34552   34555   34558   34561
   34564   34567   34570   34573   34576   34579   34582   34585   34588   34591
   34594   34597   34600   34603   34606   34609   34612   34615   34618   34621
   34624   34627   34630   34633   34636   34639   34642   34645   34648   34651
   34654   34657   34660   34663   34666   34669   34672   34675   34678   34681
   34684   34687   34690   34693   34696   34699   34702   34705   34708   34711
   34714   34717   34720   34723   34726   34729   34732   34735   34738   34741
   34744   34747   34750   34753   34756   34759   34762   34765   34768   34771
   34774   34777   34780   34783   34786   34789   34792   34795   34798   34801
   34804   34807   34810   34813   34816   34819   34822   34825   34828   34831
   34834   34837   34840   34843   34846   34849   34852   34855   34858   34861
   34864   34867   34870   34873   34876   34879   34882   34885   34888   34891
   34894   34897   34900   34903   34906   34909   34912   34915   34918   34921
   34924   34927   34930   34933   34936   34939   34942   34945   34948   34951
   34954   34957   34960   34963   34966   34969   34972   34975   34978   34981
   34984   34987   34990   34993   34996   34999   35002   35005   35008   35011
   35014   35017   35020   35023   35026   35029   35032   35035   35038   35041
   35044   35047   35050   35053   35056   35059   35062   35065   35068   35071
   35074   35077   35080   35083   35086   35089   35092   35095   35098   35101
   35104   35107   35110   35113   35116   35119   35122   35125   35128   35131
   35134   35137   35140   35143   35146   35149   35152   35155   35158   35161
   35164   35167   35170   35173   35176   35179   35182   35185   35188   35191
   35194   35197   35200   35203   35206   35209   35212   35215   35218   35221
   35224   35227   35230   35233   35236   35239   35242   35245   35248   35251
   35254   35257   35260   35263   35266   35269   35272   35275   35278   35281
   35284   35287   35290   35293   35296   35299   35302   35305   35308   35311
   35314   35317   35320   35323   35326   35329   35332   35335   35338   35341
   35344   35347   35350   35353   35356   35359   35362   35365   35368   35371
   35374   35377   35380   35383   35386   35389   35392   35395   35398   35401
   35404   35407   35410   35413   35416   35419   35422   35425   35428   35431
   35434   35437   35440   35443   35446   35449   35452   35455   35458   35461
   35464   35467   35470   35473   35476   35479   35482   35485   35488   35491
   35494   35497   35500   35503   35506   35509   35512   35515   35518   35521
   35524   35527   35530   35533   35536   35539   35542   35545   35548   35551
   35554   35557   35560   35563   35566   35569   35572   35575   35578   35581
   35584   35587   35590   35593   35596   35599   35602   35605   35608   35611
   35614   35617   35620   35623   35626   35629   35632   35635   35638   35641
   35644   35647   35650   35653   35656   35659   35662   35665   35668   35671
   35674   35677   35680   35683   35686   35689   35692   35695   35698   35701
   35704   35707   35710   35713   35716   35719   35722   35725   35728   35731
   35734   35737   35740   35743   35746   35749   35752   35755   35758   35761
   35764   35767   35770   35773   35776   35779   35782   35785   35788   35791
   35794   35797   35800   35803   35806   35809   35812   35815   35818   35821
   35824   35827   35830   35833   35836   35839   35842   35845   35848   35851
   35854   35857   35860   35863   35866   35869   35872   35875   35878   35881
   35884   35887   35890   35893   35896   35899   35902   35905   35908   35911
   35914   35917   35920   35923   35926   35929   35932   35935   35938   35941
   35944   35947   35950   35953   35956   35959   35962   35965   35968   35971
   35974   35977   35980   35983   35986   35989   35992   35995   35998   36001
   36004   36007   36010   36013   36016   36019   36022   36025   36028   36031
   36034   36037   36040   36043   36046   36049   36052   36055   36058   36061
   36064   36067   36070   36073   36076   36079   36082   36085   36088   36091
   36094   36097   36100   36103   36106   36109   36112   36115   36118   36121
   36124   36127   36130   36133   36136   36139   36142   36145   36148   36151
   36154   36157   36160   36163   36166   36169   36172   36175   36178   36181
   36184   36187   36190   36193   36196   36199   36202   36205   36208   36211
   36214   36217   36220   36223   36226   36229   36232   36235   36238   36241
   36244   36247   36250   36253   36256   36259   36262   36265   36268   36271
   36274   36277   36280   36283   36286   36289   36292   36295   36298   36301
   36304   36307   36310   36313   36316   36319   36322   36325   36328   36331
   36334   36337   36340   36343   36346   36349   36352   36355   36358   36361
   36364   36367   36370   36373   36376   36379   36382   36385   36388   36391
   36394   36397   36400   36403   36406   36409   36412   36415   36418   36421
   36424   36427   36430   36433   36436   36439   36442   36445   36448   36451
   36454   36457   36460   36463   36466   36469   36472   36475   36478   36481
   36484   36487   36490   36493   36496   36499   36502   36505   36508   36511
   36514   36517   36520   36523   36526   36529   36532   36535   36538   36541
   36544   36547   36550   36553   36556   36559   36562   36565   36568   36571
   36574   36577   36580   36583   36586   36589   36592   36595   36598   36601
   36604   36607   36610   36613   36616   36619   36622   36625   36628   36631
   36634   36637   36640   36643   36646   36649   36652   36655   36658   36661
   36664   36667   36670   36673   36676   36679   36682   36685   36688   36691
   36694   36697   36700   36703   36706   36709   36712   36715   36718   36721
   36724   36727   36730   36733   36736   36739   36742   36745   36748   36751
   36754   36757   36760   36763   36766   36769   36772   36775   36778   36781
   36784   36787   36790   36793   36796   36799   36802   36805   36808   36811
   36814   36817   36820   36823   36826   36829   36832   36835   36838   36841
   36844   36847   36850   36853   36856   36859   36862   36865   36868   36871
   36874   36877   36880   36883   36886   36889   36892   36895   36898   36901
   36904   36907   36910   36913   36916   36919   36922   36925   36928   36931
   36934   36937   36940   36943   36946   36949   36952   36955   36958   36961
   36964   36967   36970   36973   36976   36979   36982   36985   36988   36991
   36994   36997   37000   37003   37006   37009   37012   37015   37018   37021
   37024   37027   37030   37033   37036   37039   37042   37045   37048   37051
   37054   37057   37060   37063   37066   37069   37072   37075   37078   37081
   37084   37087   37090   37093   37096   37099   37102   37105   37108   37111
   37114   37117   37120   37123   37126   37129   37132   37135   37138   37141
   37144   37147   37150   37153   37156   37159   37162   37165   37168   37171
   37174   37177   37180   37183   37186   37189   37192   37195   37198   37201
   37204   37207   37210   37213   37216   37219   37222   37225   37228   37231
   37234   37237   37240   37243   37246   37249   37252   37255   37258   37261
   37264   37267   37270   37273   37276   37279   37282   37285   37288   37291
   37294   37297   37300   37303   37306   37309   37312   37315   37318   37321
   37324   37327   37330   37333   37336   37339   37342   37345   37348   37351
   37354   37357   37360   37363   37366   37369   37372   37375   37378   37381
   37384   37387   37390   37393   37396   37399   37402   37405   37408   37411
   37414   37417   37420   37423   37426   37429   37432   37435   37438   37441
   37444   37447   37450   37453   37456   37459   37462   37465   37468   37471
   37474   37477   37480   37483   37486   37489   37492   37495   37498   37501
   37504   37507   37510   37513   37516   37519   37522   37525   37528   37531
   37534   37537   37540   37543   37546   37549   37552   37555   37558   37561
   37564   37567   37570   37573   37576   37579   37582   37585   37588   37591
   37594   37597   37600   37603   37606   37609   37612   37615   37618   37621
   37624   37627   37630   37633   37636   37639   37642   37645   37648   37651
   37654   37657   37660   37663   37666   37669   37672   37675   37678   37681
   37684   37687   37690   37693   37696   37699   37702   37705   37708   37711
   37714   37717   37720   37723   37726   37729   37732   37735   37738   37741
   37744   37747   37750   37753   37756   37759   37762   37765   37768   37771
   37774   37777   37780   37783   37786   37789   37792   37795   37798   37801
   37804   37807   37810   37813   37816   37819   37822   37825   37828   37831
   37834   37837   37840   37843   37846   37849   37852   37855   37858   37861
   37864   37867   37870   37873   37876   37879   37882   37885   37888   37891
   37894   37897   37900   37903   37906   37909   37912   37915   37918   37921
   37924   37927   37930   37933   37936   37939   37942   37945   37948   37951
   37954   37957   37960   37963   37966   37969   37972   37975   37978   37981
   37984   37987   37990   37993   37996   37999   38002   38005   38008   38011
   38014   38017   38020   38023   38026   38029   38032   38035   38038   38041
   38044   38047   38050   38053   38056   38059   38062   38065   38068   38071
   38074   38077   38080   38083   38086   38089   38092   38095   38098   38101
   38104   38107   38110   38113   38116   38119   38122   38125   38128   38131
   38134   38137   38140   38143   38146   38149   38152   38155   38158   38161
   38164   38167   38170   38173   38176   38179   38182   38185   38188   38191
   38194   38197   38200   38203   38206   38209   38212   38215   38218   38221
   38224   38227   38230   38233   38236   38239   38242   38245   38248   38251
   38254   38257   38260   38263   38266   38269   38272   38275   38278   38281
   38284   38287   38290   38293   38296   38299   38302   38305   38308   38311
   38314   38317   38320   38323   38326   38329   38332   38335   38338   38341
   38344   38347   38350   38353   38356   38359   38362   38365   38368   38371
   38374   38377   38380   38383   38386   38389   38392   38395   38398   38401
   38404   38407   38410   38413   38416   38419   38422   38425   38428   38431
   38434   38437   38440   38443   38446   38449   38452   38455   38458   38461
   38464   38467   38470   38473   38476   38479   38482   38485   38488   38491
   38494   38497   38500   38503   38506   38509   38512   38515   38518   38521
   38524   38527   38530   38533   38536   38539   38542   38545   38548   38551
   38554   38557   38560   38563   38566   38569   38572   38575   38578   38581
   38584   38587   38590   38593   38596   38599   38602   38605   38608   38611
   38614   38617   38620   38623   38626   38629   38632   38635   38638   38641
   38644   38647   38650   38653   38656   38659   38662   38665   38668   38671
   38674   38677   38680   38683   38686   38689   38692   38695   38698   38701
   38704   38707   38710   38713   38716   38719   38722   38725   38728   38731
   38734   38737   38740   38743   38746   38749   38752   38755   38758   38761
   38764   38767   38770   38773   38776   38779   38782   38785   38788   38791
   38794   38797   38800   38803   38806   38809   38812   38815   38818   38821
   38824   38827   38830   38833   38836   38839   38842   38845   38848   38851
   38854   38857   38860   38863   38866   38869   38872   38875   38878   38881
   38884   38887   38890   38893   38896   38899   38902   38905   38908   38911
   38914   38917   38920   38923   38926   38929   38932   38935   38938   38941
   38944   38947   38950   38953   38956   38959   38962   38965   38968   38971
   38974   38977   38980   38983   38986   38989   38992   38995   38998   39001
   39004   39007   39010   39013   39016   39019   39022   39025   39028   39031
   39034   39037   39040   39043   39046   39049   39052   39055   39058   39061
   39064   39067   39070   39073   39076   39079   39082   39085   39088   39091
   39094   39097   39100   39103   39106   39109   39112   39115   39118   39121
   39124   39127   39130   39133   39136   39139   39142   39145   39148   39151
   39154   39157   39160   39163   39166   39169   39172   39175   39178   39181
   39184   39187   39190   39193   39196   39199   39202   39205   39208   39211
   39214   39217   39220   39223   39226   39229   39232   39235   39238   39241
   39244   39247   39250   39253   39256   39259   39262   39265   39268   39271
   39274   39277   39280   39283   39286   39289   39292   39295   39298   39301
   39304   39307   39310   39313   39316   39319   39322   39325   39328   39331
   39334   39337   39340   39343   39346   39349   39352   39355   39358   39361
   39364   39367   39370   39373   39376   39379   39382   39385   39388   39391
   39394   39397   39400   39403   39406   39409   39412   39415   39418   39421
   39424   39427   39430   39433   39436   39439   39442   39445   39448   39451
   39454   39457   39460   39463   39466   39469   39472   39475   39478   39481
   39484   39487   39490   39493   39496   39499   39502   39505   39508   39511
   39514   39517   39520   39523   39526   39529   39532   39535   39538   39541
   39544   39547   39550   39553   39556   39559   39562   39565   39568   39571
   39574   39577   39580   39583   39586   39589   39592   39595   39598   39601
   39604   39607   39610   39613   39616   39619   39622   39625   39628   39631
   39634   39637   39640   39643   39646   39649   39652   39655   39658   39661
   39664   39667   39670   39673   39676   39679   39682   39685   39688   39691
   39694   39697   39700   39703   39706   39709   39712   39715   39718   39721
   39724   39727   39730   39733   39736   39739   39742   39745   39748   39751
   39754   39757   39760   39763   39766   39769   39772   39775   39778   39781
   39784   39787   39790   39793   39796   39799   39802   39805   39808   39811
   39814   39817   39820   39823   39826   39829   39832   39835   39838   39841
   39844   39847   39850   39853   39856   39859   39862   39865   39868   39871
   39874   39877   39880   39883   39886   39889   39892   39895   39898   39901
   39904   39907   39910   39913   39916   39919   39922   39925   39928   39931
   39934   39937   39940   39943   39946   39949   39952   39955   39958   39961
   39964   39967   39970   39973   39976   39979   39982   39985   39988   39991
   39994   39997   40000   40003   40006   40009   40012   40015   40018   40021
   40024   40027   40030   40033   40036   40039   40042   40045   40048   40051
   40054   40057   40060   40063   40066   40069   40072   40075   40078   40081
   40084   40087   40090   40093   40096   40099   40102   40105   40108   40111
   40114   40117   40120   40123   40126   40129   40132   40135   40138   40141
   40144   40147   40150   40153   40156   40159   40162   40165   40168   40171
   40174   40177   40180   40183   40186   40189   40192   40195   40198   40201
   40204   40207   40210   40213   40216   40219   40222   40225   40228   40231
   40234   40237   40240   40243   40246   40249   40252   40255   40258   40261
   40264   40267   40270   40273   40276   40279   40282   40285   40288   40291
   40294   40297   40300   40303   40306   40309   40312   40315   40318   40321
   40324   40327   40330   40333   40336   40339   40342   40345   40348   40351
   40354   40357   40360   40363   40366   40369   40372   40375   40378   40381
   40384   40387   40390   40393   40396   40399   40402   40405   40408   40411
   40414   40417   40420   40423   40426   40429   40432   40435   40438   40441
   40444   40447   40450   40453   40456   40459   40462   40465   40468   40471
   40474   40477   40480   40483   40486   40489   40492   40495   40498   40501
   40504   40507   40510   40513   40516   40519   40522   40525   40528   40531
   40534   40537   40540   40543   40546   40549   40552   40555   40558   40561
   40564   40567   40570   40573   40576   40579   40582   40585   40588   40591
   40594   40597   40600   40603   40606   40609   40612   40615   40618   40621
   40624   40627   40630   40633   40636   40639   40642   40645   40648   40651
   40654   40657   40660   40663   40666   40669   40672   40675   40678   40681
   40684   40687   40690   40693   40696   40699   40702   40705   40708   40711
   40714   40717   40720   40723   40726   40729   40732   40735   40738   40741
   40744   40747   40750   40753   40756   40759   40762   40765   40768   40771
   40774   40777   40780   40783   40786   40789   40792   40795   40798   40801
   40804   40807   40810   40813   40816   40819   40822   40825   40828   40831
   40834   40837   40840   40843   40846   40849   40852   40855   40858   40861
   40864   40867   40870   40873   40876   40879   40882   40885   40888   40891
   40894   40897   40900   40903   40906   40909   40912   40915   40918   40921
   40924   40927   40930   40933   40936   40939   40942   40945   40948   40951
   40954   40957   40960   40963   40966   40969   40972   40975   40978   40981
   40984   40987   40990   40993   40996   40999   41002   41005   41008   41011
   41014   41017   41020   41023   41026   41029   41032   41035   41038   41041
   41044   41047   41050   41053   41056   41059   41062   41065   41068   41071
   41074   41077   41080   41083   41086   41089   41092   41095   41098   41101
   41104   41107   41110   41113   41116   41119   41122   41125   41128   41131
   41134   41137   41140   41143   41146   41149   41152   41155   41158   41161
   41164   41167   41170   41173   41176   41179   41182   41185   41188   41191
   41194   41197   41200   41203   41206   41209   41212   41215   41218   41221
   41224   41227   41230   41233   41236   41239   41242   41245   41248   41251
   41254   41257   41260   41263   41266   41269   41272   41275   41278   41281
   41284   41287   41290   41293   41296   41299   41302   41305   41308   41311
   41314   41317   41320   41323   41326   41329   41332   41335   41338   41341
   41344   41347   41350   41353   41356   41359   41362   41365   41368   41371
   41374   41377   41380   41383   41386   41389   41392   41395   41398   41401
   41404   41407   41410   41413   41416   41419   41422   41425   41428   41431
   41434   41437   41440   41443   41446   41449   41452   41455   41458   41461
   41464   41467   41470   41473   41476   41479   41482   41485   41488   41491
   41494   41497   41500   41503   41506   41509   41512   41515   41518   41521
   41524   41527   41530   41533   41536   41539   41542   41545   41548   41551
   41554   41557   41560   41563   41566   41569   41572   41575   41578   41581
   41584   41587   41590   41593   41596   41599   41602   41605   41608   41611
   41614   41617   41620   41623   41626   41629   41632   41635   41638   41641
   41644   41647   41650   41653   41656   41659   41662   41665   41668   41671
   41674   41677   41680   41683   41686   41689   41692   41695   41698   41701
   41704   41707   41710   41713   41716   41719   41722   41725   41728   41731
   41734   41737   41740   41743   41746   41749   41752   41755   41758   41761
   41764   41767   41770   41773   41776   41779   41782   41785   41788   41791
   41794   41797   41800   41803   41806   41809   41812   41815   41818   41821
   41824   41827   41830   41833   41836   41839   41842   41845   41848   41851
   41854   41857   41860   41863   41866   41869   41872   41875   41878   41881
   41884   41887   41890   41893   41896   41899   41902   41905   41908   41911
   41914   41917   41920   41923   41926   41929   41932   41935   41938   41941
   41944   41947   41950   41953   41956   41959   41962   41965   41968   41971
   41974   41977   41980   41983   41986   41989   41992   41995   41998   42001
   42004   42007   42010   42013   42016   42019   42022   42025   42028   42031
   42034   42037   42040   42043   42046   42049   42052   42055   42058   42061
   42064   42067   42070   42073   42076   42079   42082   42085   42088   42091
   42094   42097   42100   42103   42106   42109   42112   42115   42118   42121
   42124   42127   42130   42133   42136   42139   42142   42145   42148   42151
   42154   42157   42160   42163   42166   42169   42172   42175   42178   42181
   42184   42187   42190   42193   42196   42199   42202   42205   42208   42211
   42214   42217   42220   42223   42226   42229   42232   42235   42238   42241
   42244   42247   42250   42253   42256   42259   42262   42265   42268   42271
   42274   42277   42280   42283   42286   42289   42292   42295   42298   42301
   42304   42307   42310   42313   42316   42319   42322   42325   42328   42331
   42334   42337   42340   42343   42346   42349   42352   42355   42358   42361
   42364   42367   42370   42373   42376   42379   42382   42385   42388   42391
   42394   42397   42400   42403   42406   42409   42412   42415   42418   42421
   42424   42427   42430   42433   42436   42439   42442   42445   42448   42451
   42454   42457   42460   42463   42466   42469   42472   42475   42478   42481
   42484   42487   42490   42493   42496   42499   42502   42505   42508   42511
   42514   42517   42520   42523   42526   42529   42532   42535   42538   42541
   42544   42547   42550   42553   42556   42559   42562   42565   42568   42571
   42574   42577   42580   42583   42586   42589   42592   42595   42598   42601
   42604   42607   42610   42613   42616   42619   42622   42625   42628   42631
   42634   42637   42640   42643   42646   42649   42652   42655   42658   42661
   42664   42667   42670   42673   42676   42679   42682   42685   42688   42691
   42694   42697   42700   42703   42706   42709   42712   42715   42718   42721
   42724   42727   42730   42733   42736   42739   42742   42745   42748   42751
   42754   42757   42760   42763   42766   42769   42772   42775   42778   42781
   42784   42787   42790   42793   42796   42799   42802   42805   42808   42811
   42814   42817   42820   42823   42826   42829   42832   42835   42838   42841
   42844   42847   42850   42853   42856   42859   42862   42865   42868   42871
   42874   42877   42880   42883   42886   42889   42892   42895   42898   42901
   42904   42907   42910   42913   42916   42919   42922   42925   42928   42931
   42934   42937   42940   42943   42946   42949   42952   42955   42958   42961
   42964   42967   42970   42973   42976   42979   42982   42985   42988   42991
   42994   42997   43000   43003   43006   43009   43012   43015   43018   43021
   43024   43027   43030   43033   43036   43039   43042   43045   43048   43051
   43054   43057   43060   43063   43066   43069   43072   43075   43078   43081
   43084   43087   43090   43093   43096   43099   43102   43105   43108   43111
   43114   43117   43120   43123   43126   43129   43132   43135   43138   43141
   43144   43147   43150   43153   43156   43159   43162   43165   43168   43171
   43174   43177   43180   43183   43186   43189   43192   43195   43198   43201
   43204   43207   43210   43213   43216   43219   43222   43225   43228   43231
   43234   43237   43240   43243   43246   43249   43252   43255   43258   43261
   43264   43267   43270   43273   43276   43279   43282   43285   43288   43291
   43294   43297   43300   43303   43306   43309   43312   43315   43318   43321
   43324   43327   43330   43333   43336   43339   43342   43345   43348   43351
   43354   43357   43360   43363   43366   43369   43372   43375   43378   43381
   43384   43387   43390   43393   43396   43399   43402   43405   43408   43411
   43414   43417   43420   43423   43426   43429   43432   43435   43438   43441
   43444   43447   43450   43453   43456   43459   43462   43465   43468   43471
   43474   43477   43480   43483   43486   43489   43492   43495   43498   43501
   43504   43507   43510   43513   43516   43519   43522   43525   43528   43531
   43534   43537   43540   43543   43546   43549   43552   43555   43558   43561
   43564   43567   43570   43573   43576   43579   43582   43585   43588   43591
   43594   43597   43600   43603   43606   43609   43612   43615   43618   43621
   43624   43627   43630   43633   43636   43639   43642   43645   43648   43651
   43654   43657   43660   43663   43666   43669   43672   43675   43678   43681
   43684   43687   43690   43693   43696   43699   43702   43705   43708   43711
   43714   43717   43720   43723   43726   43729   43732   43735   43738   43741
   43744   43747   43750   43753   43756   43759   43762   43765   43768   43771
   43774   43777   43780   43783   43786   43789   43792   43795   43798   43801
   43804   43807   43810   43813   43816   43819   43822   43825   43828   43831
   43834   43837   43840   43843   43846   43849   43852   43855   43858   43861
   43864   43867   43870   43873   43876   43879   43882   43885   43888   43891
   43894   43897   43900   43903   43906   43909   43912   43915   43918   43921
   43924   43927   43930   43933   43936   43939   43942   43945   43948   43951
   43954   43957   43960   43963   43966   43969   43972   43975   43978   43981
   43984   43987   43990   43993   43996   43999   44002   44005   44008   44011
   44014   44017   44020   44023   44026   44029   44032   44035   44038   44041
   44044   44047   44050   44053   44056   44059   44062   44065   44068   44071
   44074   44077   44080   44083   44086   44089   44092   44095   44098   44101
   44104   44107   44110   44113   44116   44119   44122   44125   44128   44131
   44134   44137   44140   44143   44146   44149   44152   44155   44158   44161
   44164   44167   44170   44173   44176   44179   44182   44185   44188   44191
   44194   44197   44200   44203   44206   44209   44212   44215   44218   44221
   44224   44227   44230   44233   44236   44239   44242   44245   44248   44251
   44254   44257   44260   44263   44266   44269   44272   44275   44278   44281
   44284   44287   44290   44293   44296   44299   44302   44305   44308   44311
   44314   44317   44320   44323   44326   44329   44332   44335   44338   44341
   44344   44347   44350   44353   44356   44359   44362   44365   44368   44371
   44374   44377   44380   44383   44386   44389   44392   44395   44398   44401
   44404   44407   44410   44413   44416   44419   44422   44425   44428   44431
   44434   44437   44440   44443   44446   44449   44452   44455   44458   44461
   44464   44467   44470   44473   44476   44479   44482   44485   44488   44491
   44494   44497   44500   44503   44506   44509   44512   44515   44518   44521
   44524   44527   44530   44533   44536   44539   44542   44545   44548   44551
   44554   44557   44560   44563   44566   44569   44572   44575   44578   44581
   44584   44587   44590   44593   44596   44599   44602   44605   44608   44611
   44614   44617   44620   44623   44626   44629   44632   44635   44638   44641
   44644   44647   44650   44653   44656   44659   44662   44665   44668   44671
   44674   44677   44680   44683   44686   44689   44692   44695   44698   44701
   44704   44707   44710   44713   44716   44719   44722   44725   44728   44731
   44734   44737   44740   44743   44746   44749   44752   44755   44758   44761
   44764   44767   44770   44773   44776   44779   44782   44785   44788   44791
   44794   44797   44800   44803   44806   44809   44812   44815   44818   44821
   44824   44827   44830   44833   44836   44839   44842   44845   44848   44851
   44854   44857   44860   44863   44866   44869   44872   44875   44878   44881
   44884   44887   44890   44893   44896   44899   44902   44905   44908   44911
   44914   44917   44920   44923   44926   44929   44932   44935   44938   44941
   44944   44947   44950   44953   44956   44959   44962   44965   44968   44971
   44974   44977   44980   44983   44986   44989   44992   44995   44998   45001
   45004   45007   45010   45013   45016   45019   45022   45025   45028   45031
   45034   45037   45040   45043   45046   45049   45052   45055   45058   45061
   45064   45067   45070   45073   45076   45079   45082   45085   45088   45091
   45094   45097   45100   45103   45106   45109   45112   45115   45118   45121
   45124   45127   45130   45133   45136   45139   45142   45145   45148   45151
   45154   45157   45160   45163   45166   45169   45172   45175   45178   45181
   45184   45187   45190   45193   45196   45199   45202   45205   45208   45211
   45214   45217   45220   45223   45226   45229   45232   45235   45238   45241
   45244   45247   45250   45253   45256   45259   45262   45265   45268   45271
   45274   45277   45280   45283   45286   45289   45292   45295   45298   45301
   45304   45307   45310   45313   45316   45319   45322   45325   45328   45331
   45334   45337   45340   45343   45346   45349   45352   45355   45358   45361
   45364   45367   45370   45373   45376   45379   45382   45385   45388   45391
   45394   45397   45400   45403   45406   45409   45412   45415   45418   45421
   45424   45427   45430   45433   45436   45439   45442   45445   45448   45451
   45454   45457   45460   45463   45466   45469   45472   45475   45478   45481
   45484   45487   45490   45493   45496   45499   45502   45505   45508   45511
   45514   45517   45520   45523   45526   45529   45532   45535   45538   45541
   45544   45547   45550   45553   45556   45559   45562   45565   45568   45571
   45574   45577   45580   45583   45586   45589   45592   45595   45598   45601
   45604   45607   45610   45613   45616   45619   45622   45625   45628   45631
   45634   45637   45640   45643   45646   45649   45652   45655   45658   45661
   45664   45667   45670   45673   45676   45679   45682   45685   45688   45691
   45694   45697   45700   45703   45706   45709   45712   45715   45718   45721
   45724   45727   45730   45733   45736   45739   45742   45745   45748   45751
   45754   45757   45760   45763   45766   45769   45772   45775   45778   45781
   45784   45787   45790   45793   45796   45799   45802   45805   45808   45811
   45814   45817   45820   45823   45826   45829   45832   45835   45838   45841
   45844   45847   45850   45853   45856   45859   45862   45865   45868   45871
   45874   45877   45880   45883   45886   45889   45892   45895   45898   45901
   45904   45907   45910   45913   45916   45919   45922   45925   45928   45931
   45934   45937   45940   45943   45946   45949   45952   45955   45958   45961
   45964   45967   45970   45973   45976   45979   45982   45985   45988   45991
   45994   45997   46000   46003   46006   46009   46012   46015   46018   46021
   46024   46027   46030   46033   46036   46039   46042   46045   46048   46051
   46054   46057   46060   46063   46066   46069   46072   46075   46078   46081
   46084   46087   46090   46093   46096   46099   46102   46105   46108   46111
   46114   46117   46120   46123   46126   46129   46132   46135   46138   46141
   46144   46147   46150   46153   46156   46159   46162   46165   46168   46171
   46174   46177   46180   46183   46186   46189   46192   46195   46198   46201
   46204   46207   46210   46213   46216   46219   46222   46225   46228   46231
   46234   46237   46240   46243   46246   46249   46252   46255   46258   46261
   46264   46267   46270   46273   46276   46279   46282   46285   46288   46291
   46294   46297   46300   46303   46306   46309   46312   46315   46318   46321
   46324   46327   46330   46333   46336   46339   46342   46345   46348   46351
   46354   46357   46360   46363   46366   46369   46372   46375   46378   46381
   46384   46387   46390   46393   46396   46399   46402   46405   46408   46411
   46414   46417   46420   46423   46426   46429   46432   46435   46438   46441
   46444   46447   46450   46453   46456   46459   46462   46465   46468   46471
   46474   46477   46480   46483   46486   46489   46492   46495   46498   46501
   46504   46507   46510   46513   46516   46519   46522   46525   46528   46531
   46534   46537   46540   46543   46546   46549   46552   46555   46558   46561
   46564   46567   46570   46573   46576   46579   46582   46585   46588   46591
   46594   46597   46600   46603   46606   46609   46612   46615   46618   46621
   46624   46627   46630   46633   46636   46639   46642   46645   46648   46651
   46654   46657   46660   46663   46666   46669   46672   46675   46678   46681
   46684   46687   46690   46693   46696   46699   46702   46705   46708   46711
   46714   46717   46720   46723   46726   46729   46732   46735   46738   46741
   46744   46747   46750   46753   46756   46759   46762   46765   46768   46771
   46774   46777   46780   46783   46786   46789   46792   46795   46798   46801
   46804   46807   46810   46813   46816   46819   46822   46825   46828   46831
   46834   46837   46840   46843   46846   46849   46852   46855   46858   46861
   46864   46867   46870   46873   46876   46879   46882   46885   46888   46891
   46894   46897   46900   46903   46906   46909   46912   46915   46918   46921
   46924   46927   46930   46933   46936   46939   46942   46945   46948   46951
   46954   46957   46960   46963   46966   46969   46972   46975   46978   46981
   46984   46987   46990   46993   46996   46999   47002   47005   47008   47011
   47014   47017   47020   47023   47026   47029   47032   47035   47038   47041
   47044   47047   47050   47053   47056   47059   47062   47065   47068   47071
   47074   47077   47080   47083   47086   47089   47092   47095   47098   47101
   47104   47107   47110   47113   47116   47119   47122   47125   47128   47131
   47134   47137   47140   47143   47146   47149   47152   47155   47158   47161
   47164   47167   47170   47173   47176   47179   47182   47185   47188   47191
   47194   47197   47200   47203   47206   47209   47212   47215   47218   47221
   47224   47227   47230   47233   47236   47239   47242   47245   47248   47251
   47254   47257   47260   47263   47266   47269   47272   47275   47278   47281
   47284   47287   47290   47293   47296   47299   47302   47305   47308   47311
   47314   47317   47320   47323   47326   47329   47332   47335   47338   47341
   47344   47347   47350   47353   47356   47359   47362   47365   47368   47371
   47374   47377   47380   47383   47386   47389   47392   47395   47398   47401
   47404   47407   47410   47413   47416   47419   47422   47425   47428   47431
   47434   47437   47440   47443   47446   47449   47452   47455   47458   47461
   47464   47467   47470   47473   47476   47479   47482   47485   47488   47491
   47494   47497   47500   47503   47506   47509   47512   47515   47518   47521
   47524   47527   47530   47533   47536   47539   47542   47545   47548   47551
   47554   47557   47560   47563   47566   47569   47572   47575   47578   47581
   47584   47587   47590   47593   47596   47599   47602   47605   47608   47611
   47614   47617   47620   47623   47626   47629   47632   47635   47638   47641
   47644   47647   47650   47653   47656   47659   47662   47665   47668   47671
   47674   47677   47680   47683   47686   47689   47692   47695   47698   47701
   47704   47707   47710   47713   47716   47719   47722   47725   47728   47731
   47734   47737   47740   47743   47746   47749   47752   47755   47758   47761
   47764   47767   47770   47773   47776   47779   47782   47785   47788   47791
   47794   47797   47800   47803   47806   47809   47812   47815   47818   47821
   47824   47827   47830   47833   47836   47839   47842   47845   47848   47851
   47854   47857   47860   47863   47866   47869   47872   47875   47878   47881
   47884   47887   47890   47893   47896   47899   47902   47905   47908   47911
   47914   47917   47920   47923   47926   47929   47932   47935   47938   47941
   47944   47947   47950   47953   47956   47959   47962   47965   47968   47971
   47974   47977   47980   47983   47986   47989   47992   47995   47998   48001
   48004   48007   48010   48013   48016   48019   48022   48025   48028   48031
   48034   48037   48040   48043   48046   48049   48052   48055   48058   48061
   48064   48067   48070   48073   48076   48079   48082   48085   48088   48091
   48094   48097   48100   48103   48106   48109   48112   48115   48118   48121
   48124   48127   48130   48133   48136   48139   48142   48145   48148   48151
   48154   48157   48160   48163   48166   48169   48172   48175   48178   48181
   48184   48187   48190   48193   48196   48199   48202   48205   48208   48211
   48214   48217   48220   48223   48226   48229   48232   48235   48238   48241
   48244   48247   48250   48253   48256   48259   48262   48265   48268   48271
   48274   48277   48280   48283   48286   48289   48292   48295   48298   48301
   48304   48307   48310   48313   48316   48319   48322   48325   48328   48331
   48334   48337   48340   48343   48346   48349   48352   48355   48358   48361
   48364   48367   48370   48373   48376   48379   48382   48385   48388   48391
   48394   48397   48400   48403   48406   48409   48412   48415   48418   48421
   48424   48427   48430   48433   48436   48439   48442   48445   48448   48451
   48454   48457   48460   48463   48466   48469   48472   48475   48478   48481
   48484   48487   48490   48493   48496   48499   48502   48505   48508   48511
   48514   48517   48520   48523   48526   48529   48532   48535   48538   48541
   48544   48547   48550   48553   48556   48559   48562   48565   48568   48571
   48574   48577   48580   48583   48586   48589   48592   48595   48598   48601
   48604   48607   48610   48613   48616   48619   48622   48625   48628   48631
   48634   48637   48640   48643   48646   48649   48652   48655   48658   48661
   48664   48667   48670   48673   48676   48679   48682   48685   48688   48691
   48694   48697   48700   48703   48706   48709   48712   48715   48718   48721
   48724   48727   48730   48733   48736   48739   48742   48745   48748   48751
   48754   48757   48760   48763   48766   48769   48772   48775   48778   48781
   48784   48787   48790   48793   48796   48799   48802   48805   48808   48811
   48814   48817   48820   48823   48826   48829   48832   48835   48838   48841
   48844   48847   48850   48853   48856   48859   48862   48865   48868   48871
   48874   48877   48880   48883   48886   48889   48892   48895   48898   48901
   48904   48907   48910   48913   48916   48919   48922   48925   48928   48931
   48934   48937   48940   48943   48946   48949   48952   48955   48958   48961
   48964   48967   48970   48973   48976   48979   48982   48985   48988   48991
   48994   48997   49000   49003   49006   49009   49012   49015   49018   49021
   49024   49027   49030   49033   49036   49039   49042   49045   49048   49051
   49054   49057   49060   49063   49066   49069   49072   49075   49078   49081
   49084   49087   49090   49093   49096   49099   49102   49105   49108   49111
   49114   49117   49120   49123   49126   49129   49132   49135   49138   49141
   49144   49147   49150   49153   49156   49159   49162   49165   49168   49171
   49174   49177   49180   49183   49186   49189   49192   49195   49198   49201
   49204   49207   49210   49213   49216   49219   49222   49225   49228   49231
   49234   49237   49240   49243   49246   49249   49252   49255   49258   49261
   49264   49267   49270   49273   49276   49279   49282   49285   49288   49291
   49294   49297   49300   49303   49306   49309   49312   49315   49318   49321
   49324   49327   49330   49333   49336   49339   49342   49345   49348   49351
   49354   49357   49360   49363   49366   49369   49372   49375   49378   49381
   49384   49387   49390   49393   49396   49399   49402   49405   49408   49411
   49414   49417   49420   49423   49426   49429   49432   49435   49438   49441
   49444   49447   49450   49453   49456   49459   49462   49465   49468   49471
   49474   49477   49480   49483   49486   49489   49492   49495   49498   49501
   49504   49507   49510   49513   49516   49519   49522   49525   49528   49531
   49534   49537   49540   49543   49546   49549   49552   49555   49558   49561
   49564   49567   49570   49573   49576   49579   49582   49585   49588   49591
   49594   49597   49600   49603   49606   49609   49612   49615   49618   49621
   49624   49627   49630   49633   49636   49639   49642   49645   49648   49651
   49654   49657   49660   49663   49666   49669   49672   49675   49678   49681
   49684   49687   49690   49693   49696   49699   49702   49705   49708   49711
   49714   49717   49720   49723   49726   49729   49732   49735   49738   49741
   49744   49747   49750   49753   49756   49759   49762   49765   49768   49771
   49774   49777   49780   49783   49786   49789   49792   49795   49798   49801
   49804   49807   49810   49813   49816   49819   49822   49825   49828   49831
   49834   49837   49840   49843   49846   49849   49852   49855   49858   49861
   49864   49867   49870   49873   49876   49879   49882   49885   49888   49891
   49894   49897   49900   49903   49906   49909   49912   49915   49918   49921
   49924   49927   49930   49933   49936   49939   49942   49945   49948   49951
   49954   49957   49960   49963   49966   49969   49972   49975   49978   49981
   49984   49987   49990   49993   49996   49999   50002   50005   50008   50011
   50014   50017   50020   50023   50026   50029   50032   50035   50038   50041
   50044   50047   50050   50053   50056   50059   50062   50065   50068   50071
   50074   50077   50080   50083   50086   50089   50092   50095   50098   50101
   50104   50107   50110   50113   50116   50119   50122   50125   50128   50131
   50134   50137   50140   50143   50146   50149   50152   50155   50158   50161
   50164   50167   50170   50173   50176   50179   50182   50185   50188   50191
   50194   50197   50200   50203   50206   50209   50212   50215   50218   50221
   50224   50227   50230   50233   50236   50239   50242   50245   50248   50251
   50254   50257   50260   50263   50266   50269   50272   50275   50278   50281
   50284   50287   50290   50293   50296   50299   50302   50305   50308   50311
   50314   50317   50320   50323   50326   50329   50332   50335   50338   50341
   50344   50347   50350   50353   50356   50359   50362   50365   50368   50371
   50374   50377   50380   50383   50386   50389   50392   50395   50398   50401
   50404   50407   50410   50413   50416   50419   50422   50425   50428   50431
   50434   50437   50440   50443   50446   50449   50452   50455   50458   50461
   50464   50467   50470   50473   50476   50479   50482   50485   50488   50491
   50494   50497   50500   50503   50506   50509   50512   50515   50518   50521
   50524   50527   50530   50533   50536   50539   50542   50545   50548   50551
   50554   50557   50560   50563   50566   50569   50572   50575   50578   50581
   50584   50587   50590   50593   50596   50599   50602   50605   50608   50611
   50614   50617   50620   50623   50626   50629   50632   50635   50638   50641
   50644   50647   50650   50653   50656   50659   50662   50665   50668   50671
   50674   50677   50680   50683   50686   50689   50692   50695   50698   50701
   50704   50707   50710   50713   50716   50719   50722   50725   50728   50731
   50734   50737   50740   50743   50746   50749   50752   50755   50758   50761
   50764   50767   50770   50773   50776   50779   50782   50785   50788   50791
   50794   50797   50800   50803   50806   50809   50812   50815   50818   50821
   50824   50827   50830   50833   50836   50839   50842   50845   50848   50851
   50854   50857   50860   50863   50866   50869   50872   50875   50878   50881
   50884   50887   50890   50893   50896   50899   50902   50905   50908   50911
   50914   50917   50920   50923   50926   50929   50932   50935   50938   50941
   50944   50947   50950   50953   50956   50959   50962   50965   50968   50971
   50974   50977   50980   50983   50986   50989   50992   50995   50998   51001
   51004   51007   51010   51013   51016   51019   51022   51025   51028   51031
   51034   51037   51040   51043   51046   51049   51052   51055   51058   51061
   51064   51067   51070   51073   51076   51079   51082   51085   51088   51091
   51094   51097   51100   51103   51106   51109   51112   51115   51118   51121
   51124   51127   51130   51133   51136   51139   51142   51145   51148   51151
   51154   51157   51160   51163   51166   51169   51172   51175   51178   51181
   51184   51187   51190   51193   51196   51199   51202   51205   51208   51211
   51214   51217   51220   51223   51226   51229   51232   51235   51238   51241
   51244   51247   51250   51253   51256   51259   51262   51265   51268   51271
   51274   51277   51280   51283   51286   51289   51292   51295   51298   51301
   51304   51307   51310   51313   51316   51319   51322   51325   51328   51331
   51334   51337   51340   51343   51346   51349   51352   51355   51358   51361
   51364   51367   51370   51373   51376   51379   51382   51385   51388   51391
   51394   51397   51400   51403   51406   51409   51412   51415   51418   51421
   51424   51427   51430   51433   51436   51439   51442   51445   51448   51451
   51454   51457   51460   51463   51466   51469   51472   51475   51478   51481
   51484   51487   51490   51493   51496   51499   51502   51505   51508   51511
   51514   51517   51520   51523   51526   51529   51532   51535   51538   51541
   51544   51547   51550   51553   51556   51559   51562   51565   51568   51571
   51574   51577   51580   51583   51586   51589   51592   51595   51598   51601
   51604   51607   51610   51613   51616   51619   51622   51625   51628   51631
   51634   51637   51640   51643   51646   51649   51652   51655   51658   51661
   51664   51667   51670   51673   51676   51679   51682   51685   51688   51691
   51694   51697   51700   51703   51706   51709   51712   51715   51718   51721
   51724   51727   51730   51733   51736   51739   51742   51745   51748   51751
   51754   51757   51760   51763   51766   51769   51772   51775   51778   51781
   51784   51787   51790   51793   51796   51799   51802   51805   51808   51811
   51814   51817   51820   51823   51826   51829   51832   51835   51838   51841
   51844   51847   51850   51853   51856   51859   51862   51865   51868   51871
   51874   51877   51880   51883   51886   51889   51892   51895   51898   51901
   51904   51907   51910   51913   51916   51919   51922   51925   51928   51931
   51934   51937   51940   51943   51946   51949   51952   51955   51958   51961
   51964   51967   51970   51973   51976   51979   51982   51985   51988   51991
   51994   51997   52000   52003   52006   52009   52012   52015   52018   52021
   52024   52027   52030   52033   52036   52039   52042   52045   52048   52051
   52054   52057   52060   52063   52066   52069   52072   52075   52078   52081
   52084   52087   52090   52093   52096   52099   52102   52105   52108   52111
   52114   52117   52120   52123   52126   52129   52132   52135   52138   52141
   52144   52147   52150   52153   52156   52159   52162   52165   52168   52171
   52174   52177   52180   52183   52186   52189   52192   52195   52198   52201
   52204   52207   52210   52213   52216   52219   52222   52225   52228   52231
   52234   52237   52240   52243   52246   52249   52252   52255   52258   52261
   52264   52267   52270   52273   52276   52279   52282   52285   52288   52291
   52294   52297   52300   52303   52306   52309   52312   52315   52318   52321
   52324   52327   52330   52333   52336   52339   52342   52345   52348   52351
   52354   52357   52360   52363   52366   52369   52372   52375   52378   52381
   52384   52387   52390   52393   52396   52399   52402   52405   52408   52411
   52414   52417   52420   52423   52426   52429   52432   52435   52438   52441
   52444   52447   52450   52453   52456   52459   52462   52465   52468   52471
   52474   52477   52480   52483   52486   52489   52492   52495   52498   52501
   52504   52507   52510   52513   52516   52519   52522   52525   52528   52531
   52534   52537   52540   52543   52546   52549   52552   52555   52558   52561
   52564   52567   52570   52573   52576   52579   52582   52585   52588   52591
   52594   52597   52600   52603   52606   52609   52612   52615   52618   52621
   52624   52627   52630   52633   52636   52639   52642   52645   52648   52651
   52654   52657   52660   52663   52666   52669   52672   52675   52678   52681
   52684   52687   52690   52693   52696   52699   52702   52705   52708   52711
   52714   52717   52720   52723   52726   52729   52732   52735   52738   52741
   52744   52747   52750   52753   52756   52759   52762   52765   52768   52771
   52774   52777   52780   52783   52786   52789   52792   52795   52798   52801
   52804   52807   52810   52813   52816   52819   52822   52825   52828   52831
   52834   52837   52840   52843   52846   52849   52852   52855   52858   52861
   52864   52867   52870   52873   52876   52879   52882   52885   52888   52891
   52894   52897   52900   52903   52906   52909   52912   52915   52918   52921
   52924   52927   52930   52933   52936   52939   52942   52945   52948   52951
   52954   52957   52960   52963   52966   52969   52972   52975   52978   52981
   52984   52987   52990   52993   52996   52999   53002   53005   53008   53011
   53014   53017   53020   53023   53026   53029   53032   53035   53038   53041
   53044   53047   53050   53053   53056   53059   53062   53065   53068   53071
   53074   53077   53080   53083   53086   53089   53092   53095   53098   53101
   53104   53107   53110   53113   53116   53119   53122   53125   53128   53131
   53134   53137   53140   53143   53146   53149   53152   53155   53158   53161
   53164   53167   53170   53173   53176   53179   53182   53185   53188   53191
   53194   53197   53200   53203   53206   53209   53212   53215   53218   53221
   53224   53227   53230   53233   53236   53239   53242   53245   53248   53251
   53254   53257   53260   53263   53266   53269   53272   53275   53278   53281
   53284   53287   53290   53293   53296   53299   53302   53305   53308   53311
   53314   53317   53320   53323   53326   53329   53332   53335   53338   53341
   53344   53347   53350   53353   53356   53359   53362   53365   53368   53371
   53374   53377   53380   53383   53386   53389   53392   53395   53398   53401
   53404   53407   53410   53413   53416   53419   53422   53425   53428   53431
   53434   53437   53440   53443   53446   53449   53452   53455   53458   53461
   53464   53467   53470   53473   53476   53479   53482   53485   53488   53491
   53494   53497   53500   53503   53506   53509   53512   53515   53518   53521
   53524   53527   53530   53533   53536   53539   53542   53545   53548   53551
   53554   53557   53560   53563   53566   53569   53572   53575   53578   53581
   53584   53587   53590   53593   53596   53599   53602   53605   53608   53611
   53614   53617   53620   53623   53626   53629   53632   53635   53638   53641
   53644   53647   53650   53653   53656   53659   53662   53665   53668   53671
   53674   53677   53680   53683   53686   53689   53692   53695   53698   53701
   53704   53707   53710   53713   53716   53719   53722   53725   53728   53731
   53734   53737   53740   53743   53746   53749   53752   53755   53758   53761
   53764   53767   53770   53773   53776   53779   53782   53785   53788   53791
   53794   53797   53800   53803   53806   53809   53812   53815   53818   53821
   53824   53827   53830   53833   53836   53839   53842   53845   53848   53851
   53854   53857   53860   53863   53866   53869   53872   53875   53878   53881
   53884   53887   53890   53893   53896   53899   53902   53905   53908   53911
   53914   53917   53920   53923   53926   53929   53932   53935   53938   53941
   53944   53947   53950   53953   53956   53959   53962   53965   53968   53971
   53974   53977   53980   53983   53986   53989   53992   53995   53998   54001
   54004   54007   54010   54013   54016   54019   54022   54025   54028   54031
   54034   54037   54040   54043   54046   54049   54052   54055   54058   54061
   54064   54067   54070   54073   54076   54079   54082   54085   54088   54091
   54094   54097   54100   54103   54106   54109   54112   54115   54118   54121
   54124   54127   54130   54133   54136   54139   54142   54145   54148   54151
   54154   54157   54160   54163   54166   54169   54172   54175   54178   54181
   54184   54187   54190   54193   54196   54199   54202   54205   54208   54211
   54214   54217   54220   54223   54226   54229   54232   54235   54238   54241
   54244   54247   54250   54253   54256   54259   54262   54265   54268   54271
   54274   54277   54280   54283   54286   54289   54292   54295   54298   54301
   54304   54307   54310   54313   54316   54319   54322   54325   54328   54331
   54334   54337   54340   54343   54346   54349   54352   54355   54358   54361
   54364   54367   54370   54373   54376   54379   54382   54385   54388   54391
   54394   54397   54400   54403   54406   54409   54412   54415   54418   54421
   54424   54427   54430   54433   54436   54439   54442   54445   54448   54451
   54454   54457   54460   54463   54466   54469   54472   54475   54478   54481
   54484   54487   54490   54493   54496   54499   54502   54505   54508   54511
   54514   54517   54520   54523   54526   54529   54532   54535   54538   54541
   54544   54547   54550   54553   54556   54559   54562   54565   54568   54571
   54574   54577   54580   54583   54586   54589   54592   54595   54598   54601
   54604   54607   54610   54613   54616   54619   54622   54625   54628   54631
   54634   54637   54640   54643   54646   54649   54652   54655   54658   54661
   54664   54667   54670   54673   54676   54679   54682   54685   54688   54691
   54694   54697   54700   54703   54706   54709   54712   54715   54718   54721
   54724   54727   54730   54733   54736   54739   54742   54745   54748   54751
   54754   54757   54760   54763   54766   54769   54772   54775   54778   54781
   54784   54787   54790   54793   54796   54799   54802   54805   54808   54811
   54814   54817   54820   54823   54826   54829   54832   54835   54838   54841
   54844   54847   54850   54853   54856   54859   54862   54865   54868   54871
   54874   54877   54880   54883   54886   54889   54892   54895   54898   54901
   54904   54907   54910   54913   54916   54919   54922   54925   54928   54931
   54934   54937   54940   54943   54946   54949   54952   54955   54958   54961
   54964   54967   54970   54973   54976   54979   54982   54985   54988   54991
   54994   54997   55000   55003   55006   55009   55012   55015   55018   55021
   55024   55027   55030   55033   55036   55039   55042   55045   55048   55051
   55054   55057   55060   55063   55066   55069   55072   55075   55078   55081
   55084   55087   55090   55093   55096   55099   55102   55105   55108   55111
   55114   55117   55120   55123   55126   55129   55132   55135   55138   55141
   55144   55147   55150   55153   55156   55159   55162   55165   55168   55171
   55174   55177   55180   55183   55186   55189   55192   55195   55198   55201
   55204   55207   55210   55213   55216   55219   55222   55225   55228   55231
   55234   55237   55240   55243   55246   55249   55252   55255   55258   55261
   55264   55267   55270   55273   55276   55279   55282   55285   55288   55291
   55294   55297   55300   55303   55306   55309   55312   55315   55318   55321
   55324   55327   55330   55333   55336   55339   55342   55345   55348   55351
   55354   55357   55360   55363   55366   55369   55372   55375   55378   55381
   55384   55387   55390   55393   55396   55399   55402   55405   55408   55411
   55414   55417   55420   55423   55426   55429   55432   55435   55438   55441
   55444   55447   55450   55453   55456   55459   55462   55465   55468   55471
   55474   55477   55480   55483   55486   55489   55492   55495   55498   55501
   55504   55507   55510   55513   55516   55519   55522   55525   55528   55531
   55534   55537   55540   55543   55546   55549   55552   55555   55558   55561
   55564   55567   55570   55573   55576   55579   55582   55585   55588   55591
   55594   55597   55600   55603   55606   55609   55612   55615   55618   55621
   55624   55627   55630   55633   55636   55639   55642   55645   55648   55651
   55654   55657   55660   55663   55666   55669   55672   55675   55678   55681
   55684   55687   55690   55693   55696   55699   55702   55705   55708   55711
   55714   55717   55720   55723   55726   55729   55732   55735   55738   55741
   55744   55747   55750   55753   55756   55759   55762   55765   55768   55771
   55774   55777   55780   55783   55786   55789   55792   55795   55798   55801
   55804   55807   55810   55813   55816   55819   55822   55825   55828   55831
   55834   55837   55840   55843   55846   55849   55852   55855   55858   55861
   55864   55867   55870   55873   55876   55879   55882   55885   55888   55891
   55894   55897   55900   55903   55906   55909   55912   55915   55918   55921
   55924   55927   55930   55933   55936   55939   55942   55945   55948   55951
   55954   55957   55960   55963   55966   55969   55972   55975   55978   55981
   55984   55987   55990   55993   55996   55999   56002   56005   56008   56011
   56014   56017   56020   56023   56026   56029   56032   56035   56038   56041
   56044   56047   56050   56053   56056   56059   56062   56065   56068   56071
   56074   56077   56080   56083   56086   56089   56092   56095   56098   56101
   56104   56107   56110   56113   56116   56119   56122   56125   56128   56131
   56134   56137   56140   56143   56146   56149   56152   56155   56158   56161
   56164   56167   56170   56173   56176   56179   56182   56185   56188   56191
   56194   56197   56200   56203   56206   56209   56212   56215   56218   56221
   56224   56227   56230   56233   56236   56239   56242   56245   56248   56251
   56254   56257   56260   56263   56266   56269   56272   56275   56278   56281
   56284   56287   56290   56293   56296   56299   56302   56305   56308   56311
   56314   56317   56320   56323   56326   56329   56332   56335   56338   56341
   56344   56347   56350   56353   56356   56359   56362   56365   56368   56371
   56374   56377   56380   56383   56386   56389   56392   56395   56398   56401
   56404   56407   56410   56413   56416   56419   56422   56425   56428   56431
   56434   56437   56440   56443   56446   56449   56452   56455   56458   56461
   56464   56467   56470   56473   56476   56479   56482   56485   56488   56491
   56494   56497   56500   56503   56506   56509   56512   56515   56518   56521
   56524   56527   56530   56533   56536   56539   56542   56545   56548   56551
   56554   56557   56560   56563   56566   56569   56572   56575   56578   56581
   56584   56587   56590   56593   56596   56599   56602   56605   56608   56611
   56614   56617   56620   56623   56626   56629   56632   56635   56638   56641
   56644   56647   56650   56653   56656   56659   56662   56665   56668   56671
   56674   56677   56680   56683   56686   56689   56692   56695   56698   56701
   56704   56707   56710   56713   56716   56719   56722   56725   56728   56731
   56734   56737   56740   56743   56746   56749   56752   56755   56758   56761
   56764   56767   56770   56773   56776   56779   56782   56785   56788   56791
   56794   56797   56800   56803   56806   56809   56812   56815   56818   56821
   56824   56827   56830   56833   56836   56839   56842   56845   56848   56851
   56854   56857   56860   56863   56866   56869   56872   56875   56878   56881
   56884   56887   56890   56893   56896   56899   56902   56905   56908   56911
   56914   56917   56920   56923   56926   56929   56932   56935   56938   56941
   56944   56947   56950   56953   56956   56959   56962   56965   56968   56971
   56974   56977   56980   56983   56986   56989   56992   56995   56998   57001
   57004   57007   57010   57013   57016   57019   57022   57025   57028   57031
   57034   57037   57040   57043   57046   57049   57052   57055   57058   57061
   57064   57067   57070   57073   57076   57079   57082   57085   57088   57091
   57094   57097   57100   57103   57106   57109   57112   57115   57118   57121
   57124   57127   57130   57133   57136   57139   57142   57145   57148   57151
   57154   57157   57160   57163   57166   57169   57172   57175   57178   57181
   57184   57187   57190   57193   57196   57199   57202   57205   57208   57211
   57214   57217   57220   57223   57226   57229   57232   57235   57238   57241
   57244   57247   57250   57253   57256   57259   57262   57265   57268   57271
   57274   57277   57280   57283   57286   57289   57292   57295   57298   57301
   57304   57307   57310   57313   57316   57319   57322   57325   57328   57331
   57334   57337   57340   57343   57346   57349   57352   57355   57358   57361
   57364   57367   57370   57373   57376   57379   57382   57385   57388   57391
   57394   57397   57400   57403   57406   57409   57412   57415   57418   57421
   57424   57427   57430   57433   57436   57439   57442   57445   57448   57451
   57454   57457   57460   57463   57466   57469   57472   57475   57478   57481
   57484   57487   57490   57493   57496   57499   57502   57505   57508   57511
   57514   57517   57520   57523   57526   57529   57532   57535   57538   57541
   57544   57547   57550   57553   57556   57559   57562   57565   57568   57571
   57574   57577   57580   57583   57586   57589   57592   57595   57598   57601
   57604   57607   57610   57613   57616   57619   57622   57625   57628   57631
   57634   57637   57640   57643   57646   57649   57652   57655   57658   57661
   57664   57667   57670   57673   57676   57679   57682   57685   57688   57691
   57694   57697   57700   57703   57706   57709   57712   57715   57718   57721
   57724   57727   57730   57733   57736   57739   57742   57745   57748   57751
   57754   57757   57760   57763   57766   57769   57772   57775   57778   57781
   57784   57787   57790   57793   57796   57799   57802   57805   57808   57811
   57814   57817   57820   57823   57826   57829   57832   57835   57838   57841
   57844   57847   57850   57853   57856   57859   57862   57865   57868   57871
   57874   57877   57880   57883   57886   57889   57892   57895   57898   57901
   57904   57907   57910   57913   57916   57919   57922   57925   57928   57931
   57934   57937   57940   57943   57946   57949   57952   57955   57958   57961
   57964   57967   57970   57973   57976   57979   57982   57985   57988   57991
   57994   57997   58000   58003   58006   58009   58012   58015   58018   58021
   58024   58027   58030   58033   58036   58039   58042   58045   58048   58051
   58054   58057   58060   58063   58066   58069   58072   58075   58078   58081
   58084   58087   58090   58093   58096   58099   58102   58105   58108   58111
   58114   58117   58120   58123   58126   58129   58132   58135   58138   58141
   58144   58147   58150   58153   58156   58159   58162   58165   58168   58171
   58174   58177   58180   58183   58186   58189   58192   58195   58198   58201
   58204   58207   58210   58213   58216   58219   58222   58225   58228   58231
   58234   58237   58240   58243   58246   58249   58252   58255   58258   58261
   58264   58267   58270   58273   58276   58279   58282   58285   58288   58291
   58294   58297   58300   58303   58306   58309   58312   58315   58318   58321
   58324   58327   58330   58333   58336   58339   58342   58345   58348   58351
   58354   58357   58360   58363   58366   58369   58372   58375   58378   58381
   58384   58387   58390   58393   58396   58399   58402   58405   58408   58411
   58414   58417   58420   58423   58426   58429   58432   58435   58438   58441
   58444   58447   58450   58453   58456   58459   58462   58465   58468   58471
   58474   58477   58480   58483   58486   58489   58492   58495   58498   58501
   58504   58507   58510   58513   58516   58519   58522   58525   58528   58531
   58534   58537   58540   58543   58546   58549   58552   58555   58558   58561
   58564   58567   58570   58573   58576   58579   58582   58585   58588   58591
   58594   58597   58600   58603   58606   58609   58612   58615   58618   58621
   58624   58627   58630   58633   58636   58639   58642   58645   58648   58651
   58654   58657   58660   58663   58666   58669   58672   58675   58678   58681
   58684   58687   58690   58693   58696   58699   58702   58705   58708   58711
   58714   58717   58720   58723   58726   58729   58732   58735   58738   58741
   58744   58747   58750   58753   58756   58759   58762   58765   58768   58771
   58774   58777   58780   58783   58786   58789   58792   58795   58798   58801
   58804   58807   58810   58813   58816   58819   58822   58825   58828   58831
   58834   58837   58840   58843   58846   58849   58852   58855   58858   58861
   58864   58867   58870   58873   58876   58879   58882   58885   58888   58891
   58894   58897   58900   58903   58906   58909   58912   58915   58918   58921
   58924   58927   58930   58933   58936   58939   58942   58945   58948   58951
   58954   58957   58960   58963   58966   58969   58972   58975   58978   58981
   58984   58987   58990   58993   58996   58999   59002   59005   59008   59011
   59014   59017   59020   59023   59026   59029   59032   59035   59038   59041
   59044   59047   59050   59053   59056   59059   59062   59065   59068   59071
   59074   59077   59080   59083   59086   59089   59092   59095   59098   59101
   59104   59107   59110   59113   59116   59119   59122   59125   59128   59131
   59134   59137   59140   59143   59146   59149   59152   59155   59158   59161
   59164   59167   59170   59173   59176   59179   59182   59185   59188   59191
   59194   59197   59200   59203   59206   59209   59212   59215   59218   59221
   59224   59227   59230   59233   59236   59239   59242   59245   59248   59251
   59254   59257   59260   59263   59266   59269   59272   59275   59278   59281
   59284   59287   59290   59293   59296   59299   59302   59305   59308   59311
   59314   59317   59320   59323   59326   59329   59332   59335   59338   59341
   59344   59347   59350   59353   59356   59359   59362   59365   59368   59371
   59374   59377   59380   59383   59386   59389   59392   59395   59398   59401
   59404   59407   59410   59413   59416   59419   59422   59425   59428   59431
   59434   59437   59440   59443   59446   59449   59452   59455   59458   59461
   59464   59467   59470   59473   59476   59479   59482   59485   59488   59491
   59494   59497   59500   59503   59506   59509   59512   59515   59518   59521
   59524   59527   59530   59533   59536   59539   59542   59545   59548   59551
   59554   59557   59560   59563   59566   59569   59572   59575   59578   59581
   59584   59587   59590   59593   59596   59599   59602   59605   59608   59611
   59614   59617   59620   59623   59626   59629   59632   59635   59638   59641
   59644   59647   59650   59653   59656   59659   59662   59665   59668   59671
   59674   59677   59680   59683   59686   59689   59692   59695   59698   59701
   59704   59707   59710   59713   59716   59719   59722   59725   59728   59731
   59734   59737   59740   59743   59746   59749   59752   59755   59758   59761
   59764   59767   59770   59773   59776   59779   59782   59785   59788   59791
   59794   59797   59800   59803   59806   59809   59812   59815   59818   59821
   59824   59827   59830   59833   59836   59839   59842   59845   59848   59851
   59854   59857   59860   59863   59866   59869   59872   59875   59878   59881
   59884   59887   59890   59893   59896   59899   59902   59905   59908   59911
   59914   59917   59920   59923   59926   59929   59932   59935   59938   59941
   59944   59947   59950   59953   59956   59959   59962   59965   59968   59971
   59974   59977   59980   59983   59986   59989   59992   59995   59998   60001
   60004   60007   60010   60013   60016   60019   60022   60025   60028   60031
   60034   60037   60040   60043   60046   60049   60052   60055   60058   60061
   60064   60067   60070   60073   60076   60079   60082   60085   60088   60091
   60094   60097   60100   60103   60106   60109   60112   60115   60118   60121
   60124   60127   60130   60133   60136   60139   60142   60145   60148   60151
   60154   60157   60160   60163   60166   60169   60172   60175   60178   60181
   60184   60187   60190   60193   60196   60199   60202   60205   60208   60211
   60214   60217   60220   60223   60226   60229   60232   60235   60238   60241
   60244   60247   60250   60253   60256   60259   60262   60265   60268   60271
   60274   60277   60280   60283   60286   60289   60292   60295   60298   60301
   60304   60307   60310   60313   60316   60319   60322   60325   60328   60331
   60334   60337   60340   60343   60346   60349   60352   60355   60358   60361
   60364   60367   60370   60373   60376   60379   60382   60385   60388   60391
   60394   60397   60400   60403   60406   60409   60412   60415   60418   60421
   60424   60427   60430   60433   60436   60439   60442   60445   60448   60451
   60454   60457   60460   60463   60466   60469   60472   60475   60478   60481
   60484   60487   60490   60493   60496   60499   60502   60505   60508   60511
   60514   60517   60520   60523   60526   60529   60532   60535   60538   60541
   60544   60547   60550   60553   60556   60559   60562   60565   60568   60571
   60574   60577   60580   60583   60586   60589   60592   60595   60598   60601
   60604   60607   60610   60613   60616   60619   60622   60625   60628   60631
   60634   60637   60640   60643   60646   60649   60652   60655   60658   60661
   60664   60667   60670   60673   60676   60679   60682   60685   60688   60691
   60694   60697   60700   60703   60706   60709   60712   60715   60718   60721
   60724   60727   60730   60733   60736   60739   60742   60745   60748   60751
   60754   60757   60760   60763   60766   60769   60772   60775   60778   60781
   60784   60787   60790   60793   60796   60799   60802   60805   60808   60811
   60814   60817   60820   60823   60826   60829   60832   60835   60838   60841
   60844   60847   60850   60853   60856   60859   60862   60865   60868   60871
   60874   60877   60880   60883   60886   60889   60892   60895   60898   60901
   60904   60907   60910   60913   60916   60919   60922   60925   60928   60931
   60934   60937   60940   60943   60946   60949   60952   60955   60958   60961
   60964   60967   60970   60973   60976   60979   60982   60985   60988   60991
   60994   60997   61000   61003   61006   61009   61012   61015   61018   61021
   61024   61027   61030   61033   61036   61039   61042   61045   61048   61051
   61054   61057   61060   61063   61066   61069   61072   61075   61078   61081
   61084   61087   61090   61093   61096   61099   61102   61105   61108   61111
   61114   61117   61120   61123   61126   61129   61132   61135   61138   61141
   61144   61147   61150   61153   61156   61159   61162   61165   61168   61171
   61174   61177   61180   61183   61186   61189   61192   61195   61198   61201
   61204   61207   61210   61213   61216   61219   61222   61225   61228   61231
   61234   61237   61240   61243   61246   61249   61252   61255   61258   61261
   61264   61267   61270   61273   61276   61279   61282   61285   61288   61291
   61294   61297   61300   61303   61306   61309   61312   61315   61318   61321
   61324   61327   61330   61333   61336   61339   61342   61345   61348   61351
   61354   61357   61360   61363   61366   61369   61372   61375   61378   61381
   61384   61387   61390   61393   61396   61399   61402   61405   61408   61411
   61414   61417   61420   61423   61426   61429   61432   61435   61438   61441
   61444   61447   61450   61453   61456   61459   61462   61465   61468   61471
   61474   61477   61480   61483   61486   61489   61492   61495   61498   61501
   61504   61507   61510   61513   61516   61519   61522   61525   61528   61531
   61534   61537   61540   61543   61546   61549   61552   61555   61558   61561
   61564   61567   61570   61573   61576   61579   61582   61585   61588   61591
   61594   61597   61600   61603   61606   61609   61612   61615   61618   61621
   61624   61627   61630   61633   61636   61639   61642   61645   61648   61651
   61654   61657   61660   61663   61666   61669   61672   61675   61678   61681
   61684   61687   61690   61693   61696   61699   61702   61705   61708   61711
   61714   61717   61720   61723   61726   61729   61732   61735   61738   61741
   61744   61747   61750   61753   61756   61759   61762   61765   61768   61771
   61774   61777   61780   61783   61786   61789   61792   61795   61798   61801
   61804   61807   61810   61813   61816   61819   61822   61825   61828   61831
   61834   61837   61840   61843   61846   61849   61852   61855   61858   61861
   61864   61867   61870   61873   61876   61879   61882   61885   61888   61891
   61894   61897   61900   61903   61906   61909   61912   61915   61918   61921
   61924   61927   61930   61933   61936   61939   61942   61945   61948   61951
   61954   61957   61960   61963   61966   61969   61972   61975   61978   61981
   61984   61987   61990   61993   61996   61999   62002   62005   62008   62011
   62014   62017   62020   62023   62026   62029   62032   62035   62038   62041
   62044   62047   62050   62053   62056   62059   62062   62065   62068   62071
   62074   62077   62080   62083   62086   62089   62092   62095   62098   62101
   62104   62107   62110   62113   62116   62119   62122   62125   62128   62131
   62134   62137   62140   62143   62146   62149   62152   62155   62158   62161
   62164   62167   62170   62173   62176   62179   62182   62185   62188   62191
   62194   62197   62200   62203   62206   62209   62212   62215   62218   62221
   62224   62227   62230   62233   62236   62239   62242   62245   62248   62251
   62254   62257   62260   62263   62266   62269   62272   62275   62278   62281
   62284   62287   62290   62293   62296   62299   62302   62305   62308   62311
   62314   62317   62320   62323   62326   62329   62332   62335   62338   62341
   62344   62347   62350   62353   62356   62359   62362   62365   62368   62371
   62374   62377   62380   62383   62386   62389   62392   62395   62398   62401
   62404   62407   62410   62413   62416   62419   62422   62425   62428   62431
   62434   62437   62440   62443   62446   62449   62452   62455   62458   62461
   62464   62467   62470   62473   62476   62479   62482   62485   62488   62491
   62494   62497   62500   62503   62506   62509   62512   62515   62518   62521
   62524   62527   62530   62533   62536   62539   62542   62545   62548   62551
   62554   62557   62560   62563   62566   62569   62572   62575   62578   62581
   62584   62587   62590   62593   62596   62599   62602   62605   62608   62611
   62614   62617   62620   62623   62626   62629   62632   62635   62638   62641
   62644   62647   62650   62653   62656   62659   62662   62665   62668   62671
   62674   62677   62680   62683   62686   62689   62692   62695   62698   62701
   62704   62707   62710   62713   62716   62719   62722   62725   62728   62731
   62734   62737   62740   62743   62746   62749   62752   62755   62758   62761
   62764   62767   62770   62773   62776   62779   62782   62785   62788   62791
   62794   62797   62800   62803   62806   62809   62812   62815   62818   62821
   62824   62827   62830   62833   62836   62839   62842   62845   62848   62851
   62854   62857   62860   62863   62866   62869   62872   62875   62878   62881
   62884   62887   62890   62893   62896   62899   62902   62905   62908   62911
   62914   62917   62920   62923   62926   62929   62932   62935   62938   62941
   62944   62947   62950   62953   62956   62959   62962   62965   62968   62971
   62974   62977   62980   62983   62986   62989   62992   62995   62998   63001
   63004   63007   63010   63013   63016   63019   63022   63025   63028   63031
   63034   63037   63040   63043   63046   63049   63052   63055   63058   63061
   63064   63067   63070   63073   63076   63079   63082   63085   63088   63091
   63094   63097   63100   63103   63106   63109   63112   63115   63118   63121
   63124   63127   63130   63133   63136   63139   63142   63145   63148   63151
   63154   63157   63160   63163   63166   63169   63172   63175   63178   63181
   63184   63187   63190   63193   63196   63199   63202   63205   63208   63211
   63214   63217   63220   63223   63226   63229   63232   63235   63238   63241
   63244   63247   63250   63253   63256   63259   63262   63265   63268   63271
   63274   63277   63280   63283   63286   63289   63292   63295   63298   63301
   63304   63307   63310   63313   63316   63319   63322   63325   63328   63331
   63334   63337   63340   63343   63346   63349   63352   63355   63358   63361
   63364   63367   63370   63373   63376   63379   63382   63385   63388   63391
   63394   63397   63400   63403   63406   63409   63412   63415   63418   63421
   63424   63427   63430   63433   63436   63439   63442   63445   63448   63451
   63454   63457   63460   63463   63466   63469   63472   63475   63478   63481
   63484   63487   63490   63493   63496   63499   63502   63505   63508   63511
   63514   63517   63520   63523   63526   63529   63532   63535   63538   63541
   63544   63547   63550   63553   63556   63559   63562   63565   63568   63571
   63574   63577   63580   63583   63586   63589   63592   63595   63598   63601
   63604   63607   63610   63613   63616   63619   63622   63625   63628   63631
   63634   63637   63640   63643   63646   63649   63652   63655   63658   63661
   63664   63667   63670   63673   63676   63679   63682   63685   63688   63691
   63694   63697   63700   63703   63706   63709   63712   63715   63718   63721
   63724   63727   63730   63733   63736   63739   63742   63745   63748   63751
   63754   63757   63760   63763   63766   63769   63772   63775   63778   63781
   63784   63787   63790   63793   63796   63799   63802   63805   63808   63811
   63814   63817   63820   63823   63826   63829   63832   63835   63838   63841
   63844   63847   63850   63853   63856   63859   63862   63865   63868   63871
   63874   63877   63880   63883   63886   63889   63892   63895   63898   63901
   63904   63907   63910   63913   63916   63919   63922   63925   63928   63931
   63934   63937   63940   63943   63946   63949   63952   63955   63958   63961
   63964   63967   63970   63973   63976   63979   63982   63985   63988   63991
   63994   63997   64000   64003   64006   64009   64012   64015   64018   64021
   64024   64027   64030   64033   64036   64039   64042   64045   64048   64051
   64054   64057   64060   64063   64066   64069   64072   64075   64078   64081
   64084   64087   64090   64093   64096   64099   64102   64105   64108   64111
   64114   64117   64120   64123   64126   64129   64132   64135   64138   64141
   64144   64147   64150   64153   64156   64159   64162   64165   64168   64171
   64174   64177   64180   64183   64186   64189   64192   64195   64198   64201
   64204   64207   64210   64213   64216   64219   64222   64225   64228   64231
   64234   64237   64240   64243   64246   64249   64252   64255   64258   64261
   64264   64267   64270   64273   64276   64279   64282   64285   64288   64291
   64294   64297   64300   64303   64306   64309   64312   64315   64318   64321
   64324   64327   64330   64333   64336   64339   64342   64345   64348   64351
   64354   64357   64360   64363   64366   64369   64372   64375   64378   64381
   64384   64387   64390   64393   64396   64399   64402   64405   64408   64411
   64414   64417   64420   64423   64426   64429   64432   64435   64438   64441
   64444   64447   64450   64453   64456   64459   64462   64465   64468   64471
   64474   64477   64480   64483   64486   64489   64492   64495   64498   64501
   64504   64507   64510   64513   64516   64519   64522   64525   64528   64531
   64534   64537   64540   64543   64546   64549   64552   64555   64558   64561
   64564   64567   64570   64573   64576   64579   64582   64585   64588   64591
   64594   64597   64600   64603   64606   64609   64612   64615   64618   64621
   64624   64627   64630   64633   64636   64639   64642   64645   64648   64651
   64654   64657   64660   64663   64666   64669   64672   64675   64678   64681
   64684   64687   64690   64693   64696   64699   64702   64705   64708   64711
   64714   64717   64720   64723   64726   64729   64732   64735   64738   64741
   64744   64747   64750   64753   64756   64759   64762   64765   64768   64771
   64774   64777   64780   64783   64786   64789   64792   64795   64798   64801
   64804   64807   64810   64813   64816   64819   64822   64825   64828   64831
   64834   64837   64840   64843   64846   64849   64852   64855   64858   64861
   64864   64867   64870   64873   64876   64879   64882   64885   64888   64891
   64894   64897   64900   64903   64906   64909   64912   64915   64918   64921
   64924   64927   64930   64933   64936   64939   64942   64945   64948   64951
   64954   64957   64960   64963   64966   64969   64972   64975   64978   64981
   64984   64987   64990   64993   64996   64999   65002   65005   65008   65011
   65014   65017   65020   65023   65026   65029   65032   65035   65038   65041
   65044   65047   65050   65053   65056   65059   65062   65065   65068   65071
   65074   65077   65080   65083   65086   65089   65092   65095   65098   65101
   65104   65107   65110   65113   65116   65119   65122   65125   65128   65131
   65134   65137   65140   65143   65146   65149   65152   65155   65158   65161
   65164   65167   65170   65173   65176   65179   65182   65185   65188   65191
   65194   65197   65200   65203   65206   65209   65212   65215   65218   65221
   65224   65227   65230   65233   65236   65239   65242   65245   65248   65251
   65254   65257   65260   65263   65266   65269   65272   65275   65278   65281
   65284   65287   65290   65293   65296   65299   65302   65305   65308   65311
   65314   65317   65320   65323   65326   65329   65332   65335   65338   65341
   65344   65347   65350   65353   65356   65359   65362   65365   65368   65371
   65374   65377   65380   65383   65386   65389   65392   65395   65398   65401
   65404   65407   65410   65413   65416   65419   65422   65425   65428   65431
   65434   65437   65440   65443   65446   65449   65452   65455   65458   65461
   65464   65467   65470   65473   65476   65479   65482   65485   65488   65491
   65494   65497   65500   65503   65506   65509   65512   65515   65518   65521
   65524   65527   65530   65533   65536   65539   65542   65545   65548   65551
   65554   65557   65560   65563   65566   65569   65572   65575   65578   65581
   65584   65587   65590   65593   65596   65599   65602   65605   65608   65611
   65614   65617   65620   65623   65626   65629   65632   65635   65638   65641
   65644   65647   65650   65653   65656   65659   65662   65665   65668   65671
   65674   65677   65680   65683   65686   65689   65692   65695   65698   65701
   65704   65707   65710   65713   65716   65719   65722   65725   65728   65731
   65734   65737   65740   65743   65746   65749   65752   65755   65758   65761
   65764   65767   65770   65773   65776   65779   65782   65785   65788   65791
   65794   65797   65800   65803   65806   65809   65812   65815   65818   65821
   65824   65827   65830   65833   65836   65839   65842   65845   65848   65851
   65854   65857   65860   65863   65866   65869   65872   65875   65878   65881
   65884   65887   65890   65893   65896   65899   65902   65905   65908   65911
   65914   65917   65920   65923   65926   65929   65932   65935   65938   65941
   65944   65947   65950   65953   65956   65959   65962   65965   65968   65971
   65974   65977   65980   65983   65986   65989   65992   65995   65998   66001
   66004   66007   66010   66013   66016   66019   66022   66025   66028   66031
   66034   66037   66040   66043   66046   66049   66052   66055   66058   66061
   66064   66067   66070   66073   66076   66079   66082   66085   66088   66091
   66094   66097   66100   66103   66106   66109   66112   66115   66118   66121
   66124   66127   66130   66133   66136   66139   66142   66145   66148   66151
   66154   66157   66160   66163   66166   66169   66172   66175   66178   66181
   66184   66187   66190   66193   66196   66199   66202   66205   66208   66211
   66214   66217   66220   66223   66226   66229   66232   66235   66238   66241
   66244   66247   66250   66253   66256   66259   66262   66265   66268   66271
   66274   66277   66280   66283   66286   66289   66292   66295   66298   66301
   66304   66307   66310   66313   66316   66319   66322   66325   66328   66331
   66334   66337   66340   66343   66346   66349   66352   66355   66358   66361
   66364   66367   66370   66373   66376   66379   66382   66385   66388   66391
   66394   66397   66400   66403   66406   66409   66412   66415   66418   66421
   66424   66427   66430   66433   66436   66439   66442   66445   66448   66451
   66454   66457   66460   66463   66466   66469   66472   66475   66478   66481
   66484   66487   66490   66493   66496   66499   66502   66505   66508   66511
   66514   66517   66520   66523   66526   66529   66532   66535   66538   66541
   66544   66547   66550   66553   66556   66559   66562   66565   66568   66571
   66574   66577   66580   66583   66586   66589   66592   66595   66598   66601
   66604   66607   66610   66613   66616   66619   66622   66625   66628   66631
   66634   66637   66640   66643   66646   66649   66652   66655   66658   66661
   66664   66667   66670   66673   66676   66679   66682   66685   66688   66691
   66694   66697   66700   66703   66706   66709   66712   66715   66718   66721
   66724   66727   66730   66733   66736   66739   66742   66745   66748   66751
   66754   66757   66760   66763   66766   66769   66772   66775   66778   66781
   66784   66787   66790   66793   66796   66799   66802   66805   66808   66811
   66814   66817   66820   66823   66826   66829   66832   66835   66838   66841
   66844   66847   66850   66853   66856   66859   66862   66865   66868   66871
   66874   66877   66880   66883   66886   66889   66892   66895   66898   66901
   66904   66907   66910   66913   66916   66919   66922   66925   66928   66931
   66934   66937   66940   66943   66946   66949   66952   66955   66958   66961
   66964   66967   66970   66973   66976   66979   66982   66985   66988   66991
   66994   66997   67000   67003   67006   67009   67012   67015   67018   67021
   67024   67027   67030   67033   67036   67039   67042   67045   67048   67051
   67054   67057   67060   67063   67066   67069   67072   67075   67078   67081
   67084   67087   67090   67093   67096   67099   67102   67105   67108   67111
   67114   67117   67120   67123   67126   67129   67132   67135   67138   67141
   67144   67147   67150   67153   67156   67159   67162   67165   67168   67171
   67174   67177   67180   67183   67186   67189   67192   67195   67198   67201
   67204   67207   67210   67213   67216   67219   67222   67225   67228   67231
   67234   67237   67240   67243   67246   67249   67252   67255   67258   67261
   67264   67267   67270   67273   67276   67279   67282   67285   67288   67291
   67294   67297   67300   67303   67306   67309   67312   67315   67318   67321
   67324   67327   67330   67333   67336   67339   67342   67345   67348   67351
   67354   67357   67360   67363   67366   67369   67372   67375   67378   67381
   67384   67387   67390   67393   67396   67399   67402   67405   67408   67411
   67414   67417   67420   67423   67426   67429   67432   67435   67438   67441
   67444   67447   67450   67453   67456   67459   67462   67465   67468   67471
   67474   67477   67480   67483   67486   67489   67492   67495   67498   67501
   67504   67507   67510   67513   67516   67519   67522   67525   67528   67531
   67534   67537   67540   67543   67546   67549   67552   67555   67558   67561
   67564   67567   67570   67573   67576   67579   67582   67585   67588   67591
   67594   67597   67600   67603   67606   67609   67612   67615   67618   67621
   67624   67627   67630   67633   67636   67639   67642   67645   67648   67651
   67654   67657   67660   67663   67666   67669   67672   67675   67678   67681
   67684   67687   67690   67693   67696   67699   67702   67705   67708   67711
   67714   67717   67720   67723   67726   67729   67732   67735   67738   67741
   67744   67747   67750   67753   67756   67759   67762   67765   67768   67771
   67774   67777   67780   67783   67786   67789   67792   67795   67798   67801
   67804   67807   67810   67813   67816   67819   67822   67825   67828   67831
   67834   67837   67840   67843   67846   67849   67852   67855   67858   67861
   67864   67867   67870   67873   67876   67879   67882   67885   67888   67891
   67894   67897   67900   67903   67906   67909   67912   67915   67918   67921
   67924   67927   67930   67933   67936   67939   67942   67945   67948   67951
   67954   67957   67960   67963   67966   67969   67972   67975   67978   67981
   67984   67987   67990   67993   67996   67999   68002   68005   68008   68011
   68014   68017   68020   68023   68026   68029   68032   68035   68038   68041
   68044   68047   68050   68053   68056   68059   68062   68065   68068   68071
   68074   68077   68080   68083   68086   68089   68092   68095   68098   68101
   68104   68107   68110   68113   68116   68119   68122   68125   68128   68131
   68134   68137   68140   68143   68146   68149   68152   68155   68158   68161
   68164   68167   68170   68173   68176   68179   68182   68185   68188   68191
   68194   68197   68200   68203   68206   68209   68212   68215   68218   68221
   68224   68227   68230   68233   68236   68239   68242   68245   68248   68251
   68254   68257   68260   68263   68266   68269   68272   68275   68278   68281
   68284   68287   68290   68293   68296   68299   68302   68305   68308   68311
   68314   68317   68320   68323   68326   68329   68332   68335   68338   68341
   68344   68347   68350   68353   68356   68359   68362   68365   68368   68371
   68374   68377   68380   68383   68386   68389   68392   68395   68398   68401
   68404   68407   68410   68413   68416   68419   68422   68425   68428   68431
   68434   68437   68440   68443   68446   68449   68452   68455   68458   68461
   68464   68467   68470   68473   68476   68479   68482   68485   68488   68491
   68494   68497   68500   68503   68506   68509   68512   68515   68518   68521
   68524   68527   68530   68533   68536   68539   68542   68545   68548   68551
   68554   68557   68560   68563   68566   68569   68572   68575   68578   68581
   68584   68587   68590   68593   68596   68599   68602   68605   68608   68611
   68614   68617   68620   68623   68626   68629   68632   68635   68638   68641
   68644   68647   68650   68653   68656   68659   68662   68665   68668   68671
   68674   68677   68680   68683   68686   68689   68692   68695   68698   68701
   68704   68707   68710   68713   68716   68719   68722   68725   68728   68731
   68734   68737   68740   68743   68746   68749   68752   68755   68758   68761
   68764   68767   68770   68773   68776   68779   68782   68785   68788   68791
   68794   68797   68800   68803   68806   68809   68812   68815   68818   68821
   68824   68827   68830   68833   68836   68839   68842   68845   68848   68851
   68854   68857   68860   68863   68866   68869   68872   68875   68878   68881
   68884   68887   68890   68893   68896   68899   68902   68905   68908   68911
   68914   68917   68920   68923   68926   68929   68932   68935   68938   68941
   68944   68947   68950   68953   68956   68959   68962   68965   68968   68971
   68974   68977   68980   68983   68986   68989   68992   68995   68998   69001
   69004   69007   69010   69013   69016   69019   69022   69025   69028   69031
   69034   69037   69040   69043   69046   69049   69052   69055   69058   69061
   69064   69067   69070   69073   69076   69079   69082   69085   69088   69091
   69094   69097   69100   69103   69106   69109   69112   69115   69118   69121
   69124   69127   69130   69133   69136   69139   69142   69145   69148   69151
   69154   69157   69160   69163   69166   69169   69172   69175   69178   69181
   69184   69187   69190   69193   69196   69199   69202   69205   69208   69211
   69214   69217   69220   69223   69226   69229   69232   69235   69238   69241
   69244   69247   69250   69253   69256   69259   69262   69265   69268   69271
   69274   69277   69280   69283   69286   69289   69292   69295   69298   69301
   69304   69307   69310   69313   69316   69319   69322   69325   69328   69331
   69334   69337   69340   69343   69346   69349   69352   69355   69358   69361
   69364   69367   69370   69373   69376   69379   69382   69385   69388   69391
   69394   69397   69400   69403   69406   69409   69412   69415   69418   69421
   69424   69427   69430   69433   69436   69439   69442   69445   69448   69451
   69454   69457   69460   69463   69466   69469   69472   69475   69478   69481
   69484   69487   69490   69493   69496   69499   69502   69505   69508   69511
   69514   69517   69520   69523   69526   69529   69532   69535   69538   69541
   69544   69547   69550   69553   69556   69559   69562   69565   69568   69571
   69574   69577   69580   69583   69586   69589   69592   69595   69598   69601
   69604   69607   69610   69613   69616   69619   69622   69625   69628   69631
   69634   69637   69640   69643   69646   69649   69652   69655   69658   69661
   69664   69667   69670   69673   69676   69679   69682   69685   69688   69691
   69694   69697   69700   69703   69706   69709   69712   69715   69718   69721
   69724   69727   69730   69733   69736   69739   69742   69745   69748   69751
   69754   69757   69760   69763   69766   69769   69772   69775   69778   69781
   69784   69787   69790   69793   69796   69799   69802   69805   69808   69811
   69814   69817   69820   69823   69826   69829   69832   69835   69838   69841
   69844   69847   69850   69853   69856   69859   69862   69865   69868   69871
   69874   69877   69880   69883   69886   69889   69892   69895   69898   69901
   69904   69907   69910   69913   69916   69919   69922   69925   69928   69931
   69934   69937   69940   69943   69946   69949   69952   69955   69958   69961
   69964   69967   69970   69973   69976   69979   69982   69985   69988   69991
   69994   69997   70000   70003   70006   70009   70012   70015   70018   70021
   70024   70027   70030   70033   70036   70039   70042   70045   70048   70051
   70054   70057   70060   70063   70066   70069   70072   70075   70078   70081
   70084   70087   70090   70093   70096   70099   70102   70105   70108   70111
   70114   70117   70120   70123   70126   70129   70132   70135   70138   70141
   70144   70147   70150   70153   70156   70159   70162   70165   70168   70171
   70174   70177   70180   70183   70186   70189   70192   70195   70198   70201
   70204   70207   70210   70213   70216   70219   70222   70225   70228   70231
   70234   70237   70240   70243   70246   70249   70252   70255   70258   70261
   70264   70267   70270   70273   70276   70279   70282   70285   70288   70291
   70294   70297   70300   70303   70306   70309   70312   70315   70318   70321
   70324   70327   70330   70333   70336   70339   70342   70345   70348   70351
   70354   70357   70360   70363   70366   70369   70372   70375   70378   70381
   70384   70387   70390   70393   70396   70399   70402   70405   70408   70411
   70414   70417   70420   70423   70426   70429   70432   70435   70438   70441
   70444   70447   70450   70453   70456   70459   70462   70465   70468   70471
   70474   70477   70480   70483   70486   70489   70492   70495   70498   70501
   70504   70507   70510   70513   70516   70519   70522   70525   70528   70531
   70534   70537   70540   70543   70546   70549   70552   70555   70558   70561
   70564   70567   70570   70573   70576   70579   70582   70585   70588   70591
   70594   70597   70600   70603   70606   70609   70612   70615   70618   70621
   70624   70627   70630   70633   70636   70639   70642   70645   70648   70651
   70654   70657   70660   70663   70666   70669   70672   70675   70678   70681
   70684   70687   70690   70693   70696   70699   70702   70705   70708   70711
   70714   70717   70720   70723   70726   70729   70732   70735   70738   70741
   70744   70747   70750   70753   70756   70759   70762   70765   70768   70771
   70774   70777   70780   70783   70786   70789   70792   70795   70798   70801
   70804   70807   70810   70813   70816   70819   70822   70825   70828   70831
   70834   70837   70840   70843   70846   70849   70852   70855   70858   70861
   70864   70867   70870   70873   70876   70879   70882   70885   70888   70891
   70894   70897   70900   70903   70906   70909   70912   70915   70918   70921
   70924   70927   70930   70933   70936   70939   70942   70945   70948   70951
   70954   70957   70960   70963   70966   70969   70972   70975   70978   70981
   70984   70987   70990   70993   70996   70999   71002   71005   71008   71011
   71014   71017   71020   71023   71026   71029   71032   71035   71038   71041
   71044   71047   71050   71053   71056   71059   71062   71065   71068   71071
   71074   71077   71080   71083   71086   71089   71092   71095   71098   71101
   71104   71107   71110   71113   71116   71119   71122   71125   71128   71131
   71134   71137   71140   71143   71146   71149   71152   71155   71158   71161
   71164   71167   71170   71173   71176   71179   71182   71185   71188   71191
   71194   71197   71200   71203   71206   71209   71212   71215   71218   71221
   71224   71227   71230   71233   71236   71239   71242   71245   71248   71251
   71254   71257   71260   71263   71266   71269   71272   71275   71278   71281
   71284   71287   71290   71293   71296   71299   71302   71305   71308   71311
   71314   71317   71320   71323   71326   71329   71332   71335   71338   71341
   71344   71347   71350   71353   71356   71359   71362   71365   71368   71371
   71374   71377   71380   71383   71386   71389   71392   71395   71398   71401
   71404   71407   71410   71413   71416   71419   71422   71425   71428   71431
   71434   71437   71440   71443   71446   71449   71452   71455   71458   71461
   71464   71467   71470   71473   71476   71479   71482   71485   71488   71491
   71494   71497   71500   71503   71506   71509   71512   71515   71518   71521
   71524   71527   71530   71533   71536   71539   71542   71545   71548   71551
   71554   71557   71560   71563   71566   71569   71572   71575   71578   71581
   71584   71587   71590   71593   71596   71599   71602   71605   71608   71611
   71614   71617   71620   71623   71626   71629   71632   71635   71638   71641
   71644   71647   71650   71653   71656   71659   71662   71665   71668   71671
   71674   71677   71680   71683   71686   71689   71692   71695   71698   71701
   71704   71707   71710   71713   71716   71719   71722   71725   71728   71731
   71734   71737   71740   71743   71746   71749   71752   71755   71758   71761
   71764   71767   71770   71773   71776   71779   71782   71785   71788   71791
   71794   71797   71800   71803   71806   71809   71812   71815   71818   71821
   71824   71827   71830   71833   71836   71839   71842   71845   71848   71851
   71854   71857   71860   71863   71866   71869   71872   71875   71878   71881
   71884   71887   71890   71893   71896   71899   71902   71905   71908   71911
   71914   71917   71920   71923   71926   71929   71932   71935   71938   71941
   71944   71947   71950   71953   71956   71959   71962   71965   71968   71971
   71974   71977   71980   71983   71986   71989   71992   71995   71998   72001
   72004   72007   72010   72013   72016   72019   72022   72025   72028   72031
   72034   72037   72040   72043   72046   72049   72052   72055   72058   72061
   72064   72067   72070   72073   72076   72079   72082   72085   72088   72091
   72094   72097   72100   72103   72106   72109   72112   72115   72118   72121
   72124   72127   72130   72133   72136   72139   72142   72145   72148   72151
   72154   72157   72160   72163   72166   72169   72172   72175   72178   72181
   72184   72187   72190   72193   72196   72199   72202   72205   72208   72211
   72214   72217   72220   72223   72226   72229   72232   72235   72238   72241
   72244   72247   72250   72253   72256   72259   72262   72265   72268   72271
   72274   72277   72280   72283   72286   72289   72292   72295   72298   72301
   72304   72307   72310   72313   72316   72319   72322   72325   72328   72331
   72334   72337   72340   72343   72346   72349   72352   72355   72358   72361
   72364   72367   72370   72373   72376   72379   72382   72385   72388   72391
   72394   72397   72400   72403   72406   72409   72412   72415   72418   72421
   72424   72427   72430   72433   72436   72439   72442   72445   72448   72451
   72454   72457   72460   72463   72466   72469   72472   72475   72478   72481
   72484   72487   72490   72493   72496   72499   72502   72505   72508   72511
   72514   72517   72520   72523   72526   72529   72532   72535   72538   72541
   72544   72547   72550   72553   72556   72559   72562   72565   72568   72571
   72574   72577   72580   72583   72586   72589   72592   72595   72598   72601
   72604   72607   72610   72613   72616   72619   72622   72625   72628   72631
   72634   72637   72640   72643   72646   72649   72652   72655   72658   72661
   72664   72667   72670   72673   72676   72679   72682   72685   72688   72691
   72694   72697   72700   72703   72706   72709   72712   72715   72718   72721
   72724   72727   72730   72733   72736   72739   72742   72745   72748   72751
   72754   72757   72760   72763   72766   72769   72772   72775   72778   72781
   72784   72787   72790   72793   72796   72799   72802   72805   72808   72811
   72814   72817   72820   72823   72826   72829   72832   72835   72838   72841
   72844   72847   72850   72853   72856   72859   72862   72865   72868   72871
   72874   72877   72880   72883   72886   72889   72892   72895   72898   72901
   72904   72907   72910   72913   72916   72919   72922   72925   72928   72931
   72934   72937   72940   72943   72946   72949   72952   72955   72958   72961
   72964   72967   72970   72973   72976   72979   72982   72985   72988   72991
   72994   72997   73000   73003   73006   73009   73012   73015   73018   73021
   73024   73027   73030   73033   73036   73039   73042   73045   73048   73051
   73054   73057   73060   73063   73066   73069   73072   73075   73078   73081
   73084   73087   73090   73093   73096   73099   73102   73105   73108   73111
   73114   73117   73120   73123   73126   73129   73132   73135   73138   73141
   73144   73147   73150   73153   73156   73159   73162   73165   73168   73171
   73174   73177   73180   73183   73186   73189   73192   73195   73198   73201
   73204   73207   73210   73213   73216   73219   73222   73225   73228   73231
   73234   73237   73240   73243   73246   73249   73252   73255   73258   73261
   73264   73267   73270   73273   73276   73279   73282   73285   73288   73291
   73294   73297   73300   73303   73306   73309   73312   73315   73318   73321
   73324   73327   73330   73333   73336   73339   73342   73345   73348   73351
   73354   73357   73360   73363   73366   73369   73372   73375   73378   73381
   73384   73387   73390   73393   73396   73399   73402   73405   73408   73411
   73414   73417   73420   73423   73426   73429   73432   73435   73438   73441
   73444   73447   73450   73453   73456   73459   73462   73465   73468   73471
   73474   73477   73480   73483   73486   73489   73492   73495   73498   73501
   73504   73507   73510   73513   73516   73519   73522   73525   73528   73531
   73534   73537   73540   73543   73546   73549   73552   73555   73558   73561
   73564   73567   73570   73573   73576   73579   73582   73585   73588   73591
   73594   73597   73600   73603   73606   73609   73612   73615   73618   73621
   73624   73627   73630   73633   73636   73639   73642   73645   73648   73651
   73654   73657   73660   73663   73666   73669   73672   73675   73678   73681
   73684   73687   73690   73693   73696   73699   73702   73705   73708   73711
   73714   73717   73720   73723   73726   73729   73732   73735   73738   73741
   73744   73747   73750   73753   73756   73759   73762   73765   73768   73771
   73774   73777   73780   73783   73786   73789   73792   73795   73798   73801
   73804   73807   73810   73813   73816   73819   73822   73825   73828   73831
   73834   73837   73840   73843   73846   73849   73852   73855   73858   73861
   73864   73867   73870   73873   73876   73879   73882   73885   73888   73891
   73894   73897   73900   73903   73906   73909   73912   73915   73918   73921
   73924   73927   73930   73933   73936   73939   73942   73945   73948   73951
   73954   73957   73960   73963   73966   73969   73972   73975   73978   73981
   73984   73987   73990   73993   73996   73999   74002   74005   74008   74011
   74014   74017   74020   74023   74026   74029   74032   74035   74038   74041
   74044   74047   74050   74053   74056   74059   74062   74065   74068   74071
   74074   74077   74080   74083   74086   74089   74092   74095   74098   74101
   74104   74107   74110   74113   74116   74119   74122   74125   74128   74131
   74134   74137   74140   74143   74146   74149   74152   74155   74158   74161
   74164   74167   74170   74173   74176   74179   74182   74185   74188   74191
   74194   74197   74200   74203   74206   74209   74212   74215   74218   74221
   74224   74227   74230   74233   74236   74239   74242   74245   74248   74251
   74254   74257   74260   74263   74266   74269   74272   74275   74278   74281
   74284   74287   74290   74293   74296   74299   74302   74305   74308   74311
   74314   74317   74320   74323   74326   74329   74332   74335   74338   74341
   74344   74347   74350   74353   74356   74359   74362   74365   74368   74371
   74374   74377   74380   74383   74386   74389   74392   74395   74398   74401
   74404   74407   74410   74413   74416   74419   74422   74425   74428   74431
   74434   74437   74440   74443   74446   74449   74452   74455   74458   74461
   74464   74467   74470   74473   74476   74479   74482   74485   74488   74491
   74494   74497   74500   74503   74506   74509   74512   74515   74518   74521
   74524   74527   74530   74533   74536   74539   74542   74545   74548   74551
   74554   74557   74560   74563   74566   74569   74572   74575   74578   74581
   74584   74587   74590   74593   74596   74599   74602   74605   74608   74611
   74614   74617   74620   74623   74626   74629   74632   74635   74638   74641
   74644   74647   74650   74653   74656   74659   74662   74665   74668   74671
   74674   74677   74680   74683   74686   74689   74692   74695   74698   74701
   74704   74707   74710   74713   74716   74719   74722   74725   74728   74731
   74734   74737   74740   74743   74746   74749   74752   74755   74758   74761
   74764   74767   74770   74773   74776   74779   74782   74785   74788   74791
   74794   74797   74800   74803   74806   74809   74812   74815   74818   74821
   74824   74827   74830   74833   74836   74839   74842   74845   74848   74851
   74854   74857   74860   74863
%FLAG BOND_FORCE_CONSTANT                                                       
%FORMAT(5E16.8)                                                                 
  3.54250000E+02  3.60690000E+02  3.57290000E+02  4.36000000E+02  5.90600000E+02
  5.35510000E+02  3.16700000E+02  3.30600000E+02  3.31700000E+02  3.00900000E+02
  3.08600000E+02  3.44220000E+02  2.85150000E+02  3.00900000E+02  2.82270000E+02
  3.45250000E+02  2.28890000E+02  3.17460000E+02  2.54460000E+02  3.30600000E+02
  3.26800000E+02  3.00900000E+02  3.13000000E+02  5.53000000E+02  5.53000000E+02
%FLAG BOND_EQUIL_VALUE                                                          
%FORMAT(5E16.8)                                                                 
  1.39860000E+00  1.08600000E+00  1.08820000E+00  1.33790000E+00  1.21900000E+00
  9.72500000E-01  1.42300000E+00  1.09700000E+00  1.09600000E+00  1.53800000E+00
  1.43200000E+00  1.09690000E+00  1.42420000E+00  1.53800000E+00  1.42730000E+00
  1.09620000E+00  1.53540000E+00  1.39670000E+00  1.46430000E+00  1.09700000E+00
  1.51000000E+00  1.53800000E+00  1.52400000E+00  9.57200000E-01  1.51360000E+00
%FLAG ANGLE_FORCE_CONSTANT                                                      
%FORMAT(5E16.8)                                                                 
  6.36700000E+01  4.49000000E+01  4.63700000E+01  3.46600000E+01  6.41000000E+01
  3.56400000E+01  3.58000000E+01  3.94000000E+01  5.09000000E+01  4.74000000E+01
  4.62000000E+01  4.64000000E+01  5.11000000E+01  6.75000000E+01  7.26000000E+01
  5.09000000E+01  6.80000000E+01  5.08000000E+01  5.62900000E+01  6.80000000E+01
  4.64000000E+01  6.51300000E+01  6.27000000E+01  4.64000000E+01  6.75000000E+01
  6.29000000E+01  6.29000000E+01  5.62000000E+01  6.27000000E+01  4.32700000E+01
  4.32800000E+01  7.74400000E+01  5.98700000E+01  7.72400000E+01  8.66800000E+01
  6.49500000E+01  4.80900000E+01  4.69000000E+01  4.70000000E+01  4.63000000E+01
  4.59000000E+01  6.34000000E+01  6.29000000E+01  6.33000000E+01  6.74000000E+01
  6.68000000E+01  7.71500000E+01
%FLAG ANGLE_EQUIL_VALUE                                                         
%FORMAT(5E16.8)                                                                 
  2.09474507E+00  2.09230160E+00  2.10120279E+00  2.03610198E+00  2.15775148E+00
  1.89455572E+00  1.88024401E+00  1.87762601E+00  1.92440086E+00  1.87204096E+00
  1.92370273E+00  1.91218355E+00  1.90991462E+00  1.92317913E+00  1.90904195E+00
  1.91253261E+00  1.88443280E+00  1.91602327E+00  1.92649525E+00  1.88443280E+00
  1.91218355E+00  1.87430989E+00  1.96314718E+00  1.91218355E+00  1.92317913E+00
  1.94621748E+00  1.94621748E+00  1.92579712E+00  1.96314718E+00  1.91427794E+00
  1.91270715E+00  1.87832415E+00  1.96576518E+00  2.07397564E+00  2.13925098E+00
  1.96838317E+00  1.89822091E+00  1.89839544E+00  1.92614619E+00  1.91637234E+00
  2.01899774E+00  1.94709015E+00  1.94621748E+00  1.93801443E+00  2.15024656E+00
  2.01027109E+00  2.18532769E+00
%FLAG DIHEDRAL_FORCE_CONSTANT                                                   
%FORMAT(5E16.8)                                                                 
  3.62500000E+00  6.65000000E+00  0.00000000E+00  1.15000000E+00  3.80000000E-01
  1.66666667E-01  1.55555556E-01  1.23000000E-01  1.20000000E-01  1.50000000E-01
  0.00000000E+00  2.50000000E-01  0.00000000E+00  1.60000000E-01  1.17500000E+00
  1.44000000E-01  3.83333333E-01  1.00000000E-01  3.83000000E-01  2.00000000E-01
  2.50000000E-01  1.80000000E-01  1.30000000E-01  2.26000000E+00  3.00000000E-02
  6.50000000E-01  5.20000000E-01  2.50000000E+00  1.00000000E-01  8.00000000E-01
  8.00000000E-02  7.00000000E-02  1.00000000E-01  1.50000000E+00  1.10000000E+00
  1.05000000E+01
%FLAG DIHEDRAL_PERIODICITY                                                      
%FORMAT(5E16.8)                                                                 
  2.00000000E+00  2.00000000E+00  2.00000000E+00  1.00000000E+00  3.00000000E+00
  3.00000000E+00  3.00000000E+00  3.00000000E+00  3.00000000E+00  3.00000000E+00
  2.00000000E+00  1.00000000E+00  3.00000000E+00  3.00000000E+00  2.00000000E+00
  3.00000000E+00  3.00000000E+00  2.00000000E+00  3.00000000E+00  1.00000000E+00
  2.00000000E+00  3.00000000E+00  3.00000000E+00  1.00000000E+00  3.00000000E+00
  4.00000000E+00  3.00000000E+00  2.00000000E+00  3.00000000E+00  1.00000000E+00
  3.00000000E+00  2.00000000E+00  4.00000000E+00  1.00000000E+00  2.00000000E+00
  2.00000000E+00
%FLAG DIHEDRAL_PHASE                                                            
%FORMAT(5E16.8)                                                                 
  3.14159400E+00  3.14159400E+00  0.00000000E+00  0.00000000E+00  3.14159400E+00
  0.00000000E+00  0.00000000E+00  0.00000000E+00  0.00000000E+00  0.00000000E+00
  3.14159400E+00  0.00000000E+00  0.00000000E+00  0.00000000E+00  0.00000000E+00
  0.00000000E+00  0.00000000E+00  3.14159400E+00  0.00000000E+00  3.14159400E+00
  3.14159400E+00  0.00000000E+00  0.00000000E+00  0.00000000E+00  3.14159400E+00
  3.14159400E+00  0.00000000E+00  3.14159400E+00  0.00000000E+00  0.00000000E+00
  3.14159400E+00  0.00000000E+00  0.00000000E+00  3.14159400E+00  3.14159400E+00
  3.14159400E+00
%FLAG SCEE_SCALE_FACTOR                                                         
%FORMAT(5E16.8)                                                                 
  1.20000000E+00  1.20000000E+00  1.20000000E+00  1.20000000E+00  1.20000000E+00
  1.20000000E+00  1.20000000E+00  1.20000000E+00  1.20000000E+00  1.20000000E+00
  1.20000000E+00  1.20000000E+00  1.20000000E+00  1.20000000E+00  1.20000000E+00
  1.20000000E+00  1.20000000E+00  1.20000000E+00  1.20000000E+00  1.20000000E+00
  1.20000000E+00  1.20000000E+00  1.20000000E+00  1.20000000E+00  1.20000000E+00
  1.20000000E+00  1.20000000E+00  1.20000000E+00  1.20000000E+00  1.20000000E+00
  1.20000000E+00  1.20000000E+00  1.20000000E+00  1.20000000E+00  0.00000000E+00
  0.00000000E+00
%FLAG SCNB_SCALE_FACTOR                                                         
%FORMAT(5E16.8)                                                                 
  2.00000000E+00  2.00000000E+00  2.00000000E+00  2.00000000E+00  2.00000000E+00
  2.00000000E+00  2.00000000E+00  2.00000000E+00  2.00000000E+00  2.00000000E+00
  2.00000000E+00  2.00000000E+00  2.00000000E+00  2.00000000E+00  2.00000000E+00
  2.00000000E+00  2.00000000E+00  2.00000000E+00  2.00000000E+00  2.00000000E+00
  2.00000000E+00  2.00000000E+00  2.00000000E+00  2.00000000E+00  2.00000000E+00
  2.00000000E+00  2.00000000E+00  2.00000000E+00  2.00000000E+00  2.00000000E+00
  2.00000000E+00  2.00000000E+00  2.00000000E+00  2.00000000E+00  0.00000000E+00
  0.00000000E+00
%FLAG SOLTY                                                                     
%FORMAT(5E16.8)                                                                 
  0.00000000E+00  0.00000000E+00  0.00000000E+00  0.00000000E+00  0.00000000E+00
  0.00000000E+00  0.00000000E+00  0.00000000E+00  0.00000000E+00  0.00000000E+00
  0.00000000E+00  0.00000000E+00  0.00000000E+00  0.00000000E+00  0.00000000E+00
  0.00000000E+00  0.00000000E+00
%FLAG LENNARD_JONES_ACOEF                                                       
%FORMAT(5E16.8)                                                                 
  6.96551276E+05  7.52549148E+04  6.90855956E+03  5.17507491E+05  5.27277400E+04
  3.76435470E+05  8.53193737E+05  9.38067954E+04  6.37913494E+05  1.04308023E+06
  8.12662403E+04  7.41026906E+03  5.68021765E+04  1.01372942E+05  7.94617769E+03
  7.01106848E+05  7.35931098E+04  5.15491878E+05  8.61458248E+05  7.93773615E+04
  7.02078680E+05  8.43969952E+05  9.27554496E+04  6.30925504E+05  1.03184851E+06
  1.00235148E+05  8.52084164E+05  1.02073671E+06  4.46121722E+05  4.65732396E+04
  3.27367585E+05  5.48478208E+05  5.02224902E+04  4.46307018E+05  5.42502534E+05
  2.83662575E+05  5.92438683E+05  6.30298721E+04  4.37717034E+05  7.26877088E+05
  6.80216136E+04  5.94682930E+05  7.18991463E+05  3.78207390E+05  5.03152404E+05
  5.63013422E+04  4.88692384E+03  3.86646725E+04  7.06006146E+04  5.22955465E+03
  5.45183252E+04  6.97998263E+04  3.44374471E+04  4.69084694E+04  3.39005767E+03
  2.25372434E+02  8.53132435E+00  1.15813907E+02  3.07630260E+02  8.80612241E+00
  1.89434762E+02  3.03553352E+02  1.16469347E+02  1.74176419E+02  4.36660257E+00
  1.10360882E-05  3.85565555E+04  3.17496391E+03  2.59855087E+04  4.86195279E+04
  3.39005767E+03  3.69926172E+04  4.80619274E+04  2.33261683E+04  3.19666529E+04
  2.16218723E+03  2.07292270E+00  1.35510742E+03  6.39146293E+05  6.66452723E+04
  4.68810254E+05  7.85890042E+05  7.18637611E+04  6.39277296E+05  7.77325489E+05
  4.06293937E+05  5.41786538E+05  4.92592636E+04  1.65622133E+02  3.33530397E+04
  5.81935564E+05  0.00000000E+00  0.00000000E+00  0.00000000E+00  0.00000000E+00
  0.00000000E+00  0.00000000E+00  0.00000000E+00  0.00000000E+00  0.00000000E+00
  0.00000000E+00  0.00000000E+00  0.00000000E+00  0.00000000E+00  0.00000000E+00
%FLAG LENNARD_JONES_BCOEF                                                       
%FORMAT(5E16.8)                                                                 
  5.24668528E+02  1.09570372E+02  2.10929191E+01  4.98871431E+02  1.01173582E+02
  4.69350655E+02  5.95658566E+02  1.25489661E+02  5.68167388E+02  6.75612247E+02
  1.21392023E+02  2.32899892E+01  1.11953944E+02  1.39078880E+02  2.57122925E+01
  5.97113873E+02  1.22913863E+02  5.64804067E+02  6.78964813E+02  1.36094315E+02
  6.77820248E+02  5.90251928E+02  1.24325688E+02  5.62969425E+02  6.69494459E+02
  1.37787728E+02  6.72777963E+02  6.63431737E+02  3.88758656E+02  7.98066064E+01
  3.67361018E+02  4.42179058E+02  8.83545880E+01  4.41089616E+02  4.38146883E+02
  2.87011518E+02  4.76608379E+02  9.87712192E+01  4.51916854E+02  5.41546250E+02
  1.09393126E+02  5.41675626E+02  5.36620538E+02  3.52573684E+02  4.32634597E+02
  1.01040256E+02  1.89134207E+01  9.23664132E+01  1.16065835E+02  2.08590256E+01
  1.12788003E+02  1.14981426E+02  7.31636661E+01  9.08431526E+01  1.67944276E+01
  4.40751799E+00  5.44840215E-01  3.48534600E+00  5.28230309E+00  5.90150328E-01
  4.58384710E+00  5.22789272E+00  2.93355636E+00  3.81654050E+00  4.15568027E-01
  4.55498033E-04  8.36149973E+01  1.52447987E+01  7.57220777E+01  9.63175726E+01
  1.67944276E+01  9.29071597E+01  9.54115851E+01  6.02145835E+01  7.49920368E+01
  1.34124560E+01  2.86326700E-01  1.06181419E+01  5.59732167E+02  1.14837052E+02
  5.28811054E+02  6.36687196E+02  1.27133996E+02  6.35011160E+02  6.30880403E+02
  4.13185639E+02  5.07604817E+02  1.05256926E+02  4.20798850E+00  8.66112759E+01
  5.94825035E+02  0.00000000E+00  0.00000000E+00  0.00000000E+00  0.00000000E+00
  0.00000000E+00  0.00000000E+00  0.00000000E+00  0.00000000E+00  0.00000000E+00
  0.00000000E+00  0.00000000E+00  0.00000000E+00  0.00000000E+00  0.00000000E+00
%FLAG BONDS_INC_HYDROGEN                                                        
%FORMAT(10I8)                                                                   
      39      75       2      33      72       2      30      69       2      24
      66       2      21      63       2      18      60       2      12      57
       2       9      54       2       3      51       2       0      48       2
      78      81       3      78      84       3     168     249       6     165
     246       8     162     243       6     159     240       9     153     237
       6     150     231      12     150     234      12     147     228       8
     144     225       6     141     222       8     138     219       8     132
     213      12     132     216      12     129     210      16     129     207
      16     126     204      16     126     201      16     123     195      12
     123     198      12     114     192       3     111     189      20     108
     186      20     108     183      20     105     180       3     102     177
      20      99     117      20      93      96      20     333     414       6
     330     411       8     327     408       6     324     405       9     318
     402       6     315     396      12     315     399      12     312     393
       8     309     390       6     306     387       8     303     384       8
     297     378      12     297     381      12     294     375      16     294
     372      16     291     369      16     291     366      16     288     360
      12     288     363      12     279     357       3     276     354      20
     273     351      20     273     348      20     270     345       3     267
     342      20     264     282      20     258     261      20     498     579
       6     495     576       8     492     573       6     489     570       9
     483     567       6     480     561      12     480     564      12     477
     558       8     474     555       6     471     552       8     468     549
       8     462     543      12     462     546      12     459     540      16
     459     537      16     456     534      16     456     531      16     453
     525      12     453     528      12     444     522       3     441     519
      20     438     516      20     438     513      20     435     510       3
     432     507      20     429     447      20     423     426      20     663
     744       6     660     741       8     657     738       6     654     735
       9     648     732       6     645     726      12     645     729      12
     642     723       8     639     720       6     636     717       8     633
     714       8     627     708      12     627     711      12     624     705
      16     624     702      16     621     699      16     621     696      16
     618     690      12     618     693      12     609     687       3     606
     684      20     603     681      20     603     678      20     600     675
       3     597     672      20     594     612      20     588     591      20
     828     909       6     825     906       8     822     903       6     819
     900       9     813     897       6     810     891      12     810     894
      12     807     888       8     804     885       6     801     882       8
     798     879       8     792     873      12     792     876      12     789
     870      16     789     867      16     786     864      16     786     861
      16     783     855      12     783     858      12     774     852       3
     771     849      20     768     846      20     768     843      20     765
     840       3     762     837      20     759     777      20     753     756
      20     993    1074       6     990    1071       8     987    1068       6
     984    1065       9     978    1062       6     975    1056      12     975
    1059      12     972    1053       8     969    1050       6     966    1047
       8     963    1044       8     957    1038      12     957    1041      12
     954    1035      16     954    1032      16     951    1029      16     951
    1026      16     948    1020      12     948    1023      12     939    1017
       3     936    1014      20     933    1011      20     933    1008      20
     930    1005       3     927    1002      20     924     942      20     918
     921      20    1158    1239       6    1155    1236       8    1152    1233
       6    1149    1230       9    1143    1227       6    1140    1221      12
    1140    1224      12    1137    1218       8    1134    1215       6    1131
    1212       8    1128    1209       8    1122    1203      12    1122    1206
      12    1119    1200      16    1119    1197      16    1116    1194      16
    1116    1191      16    1113    1185      12    1113    1188      12    1104
    1182       3    1101    1179      20    1098    1176      20    1098    1173
      20    1095    1170       3    1092    1167      20    1089    1107      20
    1083    1086      20    1323    1404       6    1320    1401       8    1317
    1398       6    1314    1395       9    1308    1392       6    1305    1386
      12    1305    1389      12    1302    1383       8    1299    1380       6
    1296    1377       8    1293    1374       8    1287    1368      12    1287
    1371      12    1284    1365      16    1284    1362      16    1281    1359
      16    1281    1356      16    1278    1350      12    1278    1353      12
    1269    1347       3    1266    1344      20    1263    1341      20    1263
    1338      20    1260    1335       3    1257    1332      20    1254    1272
      20    1248    1251      20    1488    1569       6    1485    1566       8
    1482    1563       6    1479    1560       9    1473    1557       6    1470
    1551      12    1470    1554      12    1467    1548       8    1464    1545
       6    1461    1542       8    1458    1539       8    1452    1533      12
    1452    1536      12    1449    1530      16    1449    1527      16    1446
    1524      16    1446    1521      16    1443    1515      12    1443    1518
      12    1434    1512       3    1431    1509      20    1428    1506      20
    1428    1503      20    1425    1500       3    1422    1497      20    1419
    1437      20    1413    1416      20    1653    1734       6    1650    1731
       8    1647    1728       6    1644    1725       9    1638    1722       6
    1635    1716      12    1635    1719      12    1632    1713       8    1629
    1710       6    1626    1707       8    1623    1704       8    1617    1698
      12    1617    1701      12    1614    1695      16    1614    1692      16
    1611    1689      16    1611    1686      16    1608    1680      12    1608
    1683      12    1599    1677       3    1596    1674      20    1593    1671
      20    1593    1668      20    1590    1665       3    1587    1662      20
    1584    1602      20    1578    1581      20    1737    1740       3    1737
    1743       3    1746    1749       3    1746    1752       3    1836    1917
       6    1833    1914       8    1830    1911       6    1827    1908       9
    1821    1905       6    1818    1899      12    1818    1902      12    1815
    1896       8    1812    1893       6    1809    1890       8    1806    1887
       8    1800    1881      12    1800    1884      12    1797    1878      16
    1797    1875      16    1794    1872      16    1794    1869      16    1791
    1863      12    1791    1866      12    1782    1860       3    1779    1857
      20    1776    1854      20    1776    1851      20    1773    1848       3
    1770    1845      20    1767    1785      20    1761    1764      20    2001
    2082       6    1998    2079       8    1995    2076       6    1992    2073
       9    1986    2070       6    1983    2064      12    1983    2067      12
    1980    2061       8    1977    2058       6    1974    2055       8    1971
    2052       8    1965    2046      12    1965    2049      12    1962    2043
      16    1962    2040      16    1959    2037      16    1959    2034      16
    1956    2028      12    1956    2031      12    1947    2025       3    1944
    2022      20    1941    2019      20    1941    2016      20    1938    2013
       3    1935    2010      20    1932    1950      20    1926    1929      20
    2166    2247       6    2163    2244       8    2160    2241       6    2157
    2238       9    2151    2235       6    2148    2229      12    2148    2232
      12    2145    2226       8    2142    2223       6    2139    2220       8
    2136    2217       8    2130    2211      12    2130    2214      12    2127
    2208      16    2127    2205      16    2124    2202      16    2124    2199
      16    2121    2193      12    2121    2196      12    2112    2190       3
    2109    2187      20    2106    2184      20    2106    2181      20    2103
    2178       3    2100    2175      20    2097    2115      20    2091    2094
      20    2331    2412       6    2328    2409       8    2325    2406       6
    2322    2403       9    2316    2400       6    2313    2394      12    2313
    2397      12    2310    2391       8    2307    2388       6    2304    2385
       8    2301    2382       8    2295    2376      12    2295    2379      12
    2292    2373      16    2292    2370      16    2289    2367      16    2289
    2364      16    2286    2358      12    2286    2361      12    2277    2355
       3    2274    2352      20    2271    2349      20    2271    2346      20
    2268    2343       3    2265    2340      20    2262    2280      20    2256
    2259      20    2496    2577       6    2493    2574       8    2490    2571
       6    2487    2568       9    2481    2565       6    2478    2559      12
    2478    2562      12    2475    2556       8    2472    2553       6    2469
    2550       8    2466    2547       8    2460    2541      12    2460    2544
      12    2457    2538      16    2457    2535      16    2454    2532      16
    2454    2529      16    2451    2523      12    2451    2526      12    2442
    2520       3    2439    2517      20    2436    2514      20    2436    2511
      20    2433    2508       3    2430    2505      20    2427    2445      20
    2421    2424      20    2661    2742       6    2658    2739       8    2655
    2736       6    2652    2733       9    2646    2730       6    2643    2724
      12    2643    2727      12    2640    2721       8    2637    2718       6
    2634    2715       8    2631    2712       8    2625    2706      12    2625
    2709      12    2622    2703      16    2622    2700      16    2619    2697
      16    2619    2694      16    2616    2688      12    2616    2691      12
    2607    2685       3    2604    2682      20    2601    2679      20    2601
    2676      20    2598    2673       3    2595    2670      20    2592    2610
      20    2586    2589      20    2826    2907       6    2823    2904       8
    2820    2901       6    2817    2898       9    2811    2895       6    2808
    2889      12    2808    2892      12    2805    2886       8    2802    2883
       6    2799    2880       8    2796    2877       8    2790    2871      12
    2790    2874      12    2787    2868      16    2787    2865      16    2784
    2862      16    2784    2859      16    2781    2853      12    2781    2856
      12    2772    2850       3    2769    2847      20    2766    2844      20
    2766    2841      20    2763    2838       3    2760    2835      20    2757
    2775      20    2751    2754      20    2991    3072       6    2988    3069
       8    2985    3066       6    2982    3063       9    2976    3060       6
    2973    3054      12    2973    3057      12    2970    3051       8    2967
    3048       6    2964    3045       8    2961    3042       8    2955    3036
      12    2955    3039      12    2952    3033      16    2952    3030      16
    2949    3027      16    2949    3024      16    2946    3018      12    2946
    3021      12    2937    3015       3    2934    3012      20    2931    3009
      20    2931    3006      20    2928    3003       3    2925    3000      20
    2922    2940      20    2916    2919      20    3156    3237       6    3153
    3234       8    3150    3231       6    3147    3228       9    3141    3225
       6    3138    3219      12    3138    3222      12    3135    3216       8
    3132    3213       6    3129    3210       8    3126    3207       8    3120
    3201      12    3120    3204      12    3117    3198      16    3117    3195
      16    3114    3192      16    3114    3189      16    3111    3183      12
    3111    3186      12    3102    3180       3    3099    3177      20    3096
    3174      20    3096    3171      20    3093    3168       3    3090    3165
      20    3087    3105      20    3081    3084      20    3321    3402       6
    3318    3399       8    3315    3396       6    3312    3393       9    3306
    3390       6    3303    3384      12    3303    3387      12    3300    3381
       8    3297    3378       6    3294    3375       8    3291    3372       8
    3285    3366      12    3285    3369      12    3282    3363      16    3282
    3360      16    3279    3357      16    3279    3354      16    3276    3348
      12    3276    3351      12    3267    3345       3    3264    3342      20
    3261    3339      20    3261    3336      20    3258    3333       3    3255
    3330      20    3252    3270      20    3246    3249      20    3405    3408
       3    3405    3411       3    3414    3417       3    3414    3420       3
    3504    3585       6    3501    3582       8    3498    3579       6    3495
    3576       9    3489    3573       6    3486    3567      12    3486    3570
      12    3483    3564       8    3480    3561       6    3477    3558       8
    3474    3555       8    3468    3549      12    3468    3552      12    3465
    3546      16    3465    3543      16    3462    3540      16    3462    3537
      16    3459    3531      12    3459    3534      12    3450    3528       3
    3447    3525      20    3444    3522      20    3444    3519      20    3441
    3516       3    3438    3513      20    3435    3453      20    3429    3432
      20    3669    3750       6    3666    3747       8    3663    3744       6
    3660    3741       9    3654    3738       6    3651    3732      12    3651
    3735      12    3648    3729       8    3645    3726       6    3642    3723
       8    3639    3720       8    3633    3714      12    3633    3717      12
    3630    3711      16    3630    3708      16    3627    3705      16    3627
    3702      16    3624    3696      12    3624    3699      12    3615    3693
       3    3612    3690      20    3609    3687      20    3609    3684      20
    3606    3681       3    3603    3678      20    3600    3618      20    3594
    3597      20    3834    3915       6    3831    3912       8    3828    3909
       6    3825    3906       9    3819    3903       6    3816    3897      12
    3816    3900      12    3813    3894       8    3810    3891       6    3807
    3888       8    3804    3885       8    3798    3879      12    3798    3882
      12    3795    3876      16    3795    3873      16    3792    3870      16
    3792    3867      16    3789    3861      12    3789    3864      12    3780
    3858       3    3777    3855      20    3774    3852      20    3774    3849
      20    3771    3846       3    3768    3843      20    3765    3783      20
    3759    3762      20    3999    4080       6    3996    4077       8    3993
    4074       6    3990    4071       9    3984    4068       6    3981    4062
      12    3981    4065      12    3978    4059       8    3975    4056       6
    3972    4053       8    3969    4050       8    3963    4044      12    3963
    4047      12    3960    4041      16    3960    4038      16    3957    4035
      16    3957    4032      16    3954    4026      12    3954    4029      12
    3945    4023       3    3942    4020      20    3939    4017      20    3939
    4014      20    3936    4011       3    3933    4008      20    3930    3948
      20    3924    3927      20    4164    4245       6    4161    4242       8
    4158    4239       6    4155    4236       9    4149    4233       6    4146
    4227      12    4146    4230      12    4143    4224       8    4140    4221
       6    4137    4218       8    4134    4215       8    4128    4209      12
    4128    4212      12    4125    4206      16    4125    4203      16    4122
    4200      16    4122    4197      16    4119    4191      12    4119    4194
      12    4110    4188       3    4107    4185      20    4104    4182      20
    4104    4179      20    4101    4176       3    4098    4173      20    4095
    4113      20    4089    4092      20    4329    4410       6    4326    4407
       8    4323    4404       6    4320    4401       9    4314    4398       6
    4311    4392      12    4311    4395      12    4308    4389       8    4305
    4386       6    4302    4383       8    4299    4380       8    4293    4374
      12    4293    4377      12    4290    4371      16    4290    4368      16
    4287    4365      16    4287    4362      16    4284    4356      12    4284
    4359      12    4275    4353       3    4272    4350      20    4269    4347
      20    4269    4344      20    4266    4341       3    4263    4338      20
    4260    4278      20    4254    4257      20    4494    4575       6    4491
    4572       8    4488    4569       6    4485    4566       9    4479    4563
       6    4476    4557      12    4476    4560      12    4473    4554       8
    4470    4551       6    4467    4548       8    4464    4545       8    4458
    4539      12    4458    4542      12    4455    4536      16    4455    4533
      16    4452    4530      16    4452    4527      16    4449    4521      12
    4449    4524      12    4440    4518       3    4437    4515      20    4434
    4512      20    4434    4509      20    4431    4506       3    4428    4503
      20    4425    4443      20    4419    4422      20    4659    4740       6
    4656    4737       8    4653    4734       6    4650    4731       9    4644
    4728       6    4641    4722      12    4641    4725      12    4638    4719
       8    4635    4716       6    4632    4713       8    4629    4710       8
    4623    4704      12    4623    4707      12    4620    4701      16    4620
    4698      16    4617    4695      16    4617    4692      16    4614    4686
      12    4614    4689      12    4605    4683       3    4602    4680      20
    4599    4677      20    4599    4674      20    4596    4671       3    4593
    4668      20    4590    4608      20    4584    4587      20    4824    4905
       6    4821    4902       8    4818    4899       6    4815    4896       9
    4809    4893       6    4806    4887      12    4806    4890      12    4803
    4884       8    4800    4881       6    4797    4878       8    4794    4875
       8    4788    4869      12    4788    4872      12    4785    4866      16
    4785    4863      16    4782    4860      16    4782    4857      16    4779
    4851      12    4779    4854      12    4770    4848       3    4767    4845
      20    4764    4842      20    4764    4839      20    4761    4836       3
    4758    4833      20    4755    4773      20    4749    4752      20    4989
    5070       6    4986    5067       8    4983    5064       6    4980    5061
       9    4974    5058       6    4971    5052      12    4971    5055      12
    4968    5049       8    4965    5046       6    4962    5043       8    4959
    5040       8    4953    5034      12    4953    5037      12    4950    5031
      16    4950    5028      16    4947    5025      16    4947    5022      16
    4944    5016      12    4944    5019      12    4935    5013       3    4932
    5010      20    4929    5007      20    4929    5004      20    4926    5001
       3    4923    4998      20    4920    4938      20    4914    4917      20
    5073    5076       3    5073    5079       3    5082    5085       3    5082
    5088       3    5172    5253       6    5169    5250       8    5166    5247
       6    5163    5244       9    5157    5241       6    5154    5235      12
    5154    5238      12    5151    5232       8    5148    5229       6    5145
    5226       8    5142    5223       8    5136    5217      12    5136    5220
      12    5133    5214      16    5133    5211      16    5130    5208      16
    5130    5205      16    5127    5199      12    5127    5202      12    5118
    5196       3    5115    5193      20    5112    5190      20    5112    5187
      20    5109    5184       3    5106    5181      20    5103    5121      20
    5097    5100      20    5337    5418       6    5334    5415       8    5331
    5412       6    5328    5409       9    5322    5406       6    5319    5400
      12    5319    5403      12    5316    5397       8    5313    5394       6
    5310    5391       8    5307    5388       8    5301    5382      12    5301
    5385      12    5298    5379      16    5298    5376      16    5295    5373
      16    5295    5370      16    5292    5364      12    5292    5367      12
    5283    5361       3    5280    5358      20    5277    5355      20    5277
    5352      20    5274    5349       3    5271    5346      20    5268    5286
      20    5262    5265      20    5502    5583       6    5499    5580       8
    5496    5577       6    5493    5574       9    5487    5571       6    5484
    5565      12    5484    5568      12    5481    5562       8    5478    5559
       6    5475    5556       8    5472    5553       8    5466    5547      12
    5466    5550      12    5463    5544      16    5463    5541      16    5460
    5538      16    5460    5535      16    5457    5529      12    5457    5532
      12    5448    5526       3    5445    5523      20    5442    5520      20
    5442    5517      20    5439    5514       3    5436    5511      20    5433
    5451      20    5427    5430      20    5667    5748       6    5664    5745
       8    5661    5742       6    5658    5739       9    5652    5736       6
    5649    5730      12    5649    5733      12    5646    5727       8    5643
    5724       6    5640    5721       8    5637    5718       8    5631    5712
      12    5631    5715      12    5628    5709      16    5628    5706      16
    5625    5703      16    5625    5700      16    5622    5694      12    5622
    5697      12    5613    5691       3    5610    5688      20    5607    5685
      20    5607    5682      20    5604    5679       3    5601    5676      20
    5598    5616      20    5592    5595      20    5832    5913       6    5829
    5910       8    5826    5907       6    5823    5904       9    5817    5901
       6    5814    5895      12    5814    5898      12    5811    5892       8
    5808    5889       6    5805    5886       8    5802    5883       8    5796
    5877      12    5796    5880      12    5793    5874      16    5793    5871
      16    5790    5868      16    5790    5865      16    5787    5859      12
    5787    5862      12    5778    5856       3    5775    5853      20    5772
    5850      20    5772    5847      20    5769    5844       3    5766    5841
      20    5763    5781      20    5757    5760      20    5997    6078       6
    5994    6075       8    5991    6072       6    5988    6069       9    5982
    6066       6    5979    6060      12    5979    6063      12    5976    6057
       8    5973    6054       6    5970    6051       8    5967    6048       8
    5961    6042      12    5961    6045      12    5958    6039      16    5958
    6036      16    5955    6033      16    5955    6030      16    5952    6024
      12    5952    6027      12    5943    6021       3    5940    6018      20
    5937    6015      20    5937    6012      20    5934    6009       3    5931
    6006      20    5928    5946      20    5922    5925      20    6162    6243
       6    6159    6240       8    6156    6237       6    6153    6234       9
    6147    6231       6    6144    6225      12    6144    6228      12    6141
    6222       8    6138    6219       6    6135    6216       8    6132    6213
       8    6126    6207      12    6126    6210      12    6123    6204      16
    6123    6201      16    6120    6198      16    6120    6195      16    6117
    6189      12    6117    6192      12    6108    6186       3    6105    6183
      20    6102    6180      20    6102    6177      20    6099    6174       3
    6096    6171      20    6093    6111      20    6087    6090      20    6327
    6408       6    6324    6405       8    6321    6402       6    6318    6399
       9    6312    6396       6    6309    6390      12    6309    6393      12
    6306    6387       8    6303    6384       6    6300    6381       8    6297
    6378       8    6291    6372      12    6291    6375      12    6288    6369
      16    6288    6366      16    6285    6363      16    6285    6360      16
    6282    6354      12    6282    6357      12    6273    6351       3    6270
    6348      20    6267    6345      20    6267    6342      20    6264    6339
       3    6261    6336      20    6258    6276      20    6252    6255      20
    6492    6573       6    6489    6570       8    6486    6567       6    6483
    6564       9    6477    6561       6    6474    6555      12    6474    6558
      12    6471    6552       8    6468    6549       6    6465    6546       8
    6462    6543       8    6456    6537      12    6456    6540      12    6453
    6534      16    6453    6531      16    6450    6528      16    6450    6525
      16    6447    6519      12    6447    6522      12    6438    6516       3
    6435    6513      20    6432    6510      20    6432    6507      20    6429
    6504       3    6426    6501      20    6423    6441      20    6417    6420
      20    6657    6738       6    6654    6735       8    6651    6732       6
    6648    6729       9    6642    6726       6    6639    6720      12    6639
    6723      12    6636    6717       8    6633    6714       6    6630    6711
       8    6627    6708       8    6621    6702      12    6621    6705      12
    6618    6699      16    6618    6696      16    6615    6693      16    6615
    6690      16    6612    6684      12    6612    6687      12    6603    6681
       3    6600    6678      20    6597    6675      20    6597    6672      20
    6594    6669       3    6591    6666      20    6588    6606      20    6582
    6585      20    6741    6744       3    6741    6747       3    6753    6750
      24    6756    6750      24    6756    6753      25    6762    6759      24
    6765    6759      24    6765    6762      25    6771    6768      24    6774
    6768      24    6774    6771      25    6780    6777      24    6783    6777
      24    6783    6780      25    6789    6786      24    6792    6786      24
    6792    6789      25    6798    6795      24    6801    6795      24    6801
    6798      25    6807    6804      24    6810    6804      24    6810    6807
      25    6816    6813      24    6819    6813      24    6819    6816      25
    6825    6822      24    6828    6822      24    6828    6825      25    6834
    6831      24    6837    6831      24    6837    6834      25    6843    6840
      24    6846    6840      24    6846    6843      25    6852    6849      24
    6855    6849      24    6855    6852      25    6861    6858      24    6864
    6858      24    6864    6861      25    6870    6867      24    6873    6867
      24    6873    6870      25    6879    6876      24    6882    6876      24
    6882    6879      25    6888    6885      24    6891    6885      24    6891
    6888      25    6897    6894      24    6900    6894      24    6900    6897
      25    6906    6903      24    6909    6903      24    6909    6906      25
    6915    6912      24    6918    6912      24    6918    6915      25    6924
    6921      24    6927    6921      24    6927    6924      25    6933    6930
      24    6936    6930      24    6936    6933      25    6942    6939      24
    6945    6939      24    6945    6942      25    6951    6948      24    6954
    6948      24    6954    6951      25    6960    6957      24    6963    6957
      24    6963    6960      25    6969    6966      24    6972    6966      24
    6972    6969      25    6978    6975      24    6981    6975      24    6981
    6978      25    6987    6984      24    6990    6984      24    6990    6987
      25    6996    6993      24    6999    6993      24    6999    6996      25
    7005    7002      24    7008    7002      24    7008    7005      25    7014
    7011      24    7017    7011      24    7017    7014      25    7023    7020
      24    7026    7020      24    7026    7023      25    7032    7029      24
    7035    7029      24    7035    7032      25    7041    7038      24    7044
    7038      24    7044    7041      25    7050    7047      24    7053    7047
      24    7053    7050      25    7059    7056      24    7062    7056      24
    7062    7059      25    7068    7065      24    7071    7065      24    7071
    7068      25    7077    7074      24    7080    7074      24    7080    7077
      25    7086    7083      24    7089    7083      24    7089    7086      25
    7095    7092      24    7098    7092      24    7098    7095      25    7104
    7101      24    7107    7101      24    7107    7104      25    7113    7110
      24    7116    7110      24    7116    7113      25    7122    7119      24
    7125    7119      24    7125    7122      25    7131    7128      24    7134
    7128      24    7134    7131      25    7140    7137      24    7143    7137
      24    7143    7140      25    7149    7146      24    7152    7146      24
    7152    7149      25    7158    7155      24    7161    7155      24    7161
    7158      25    7167    7164      24    7170    7164      24    7170    7167
      25    7176    7173      24    7179    7173      24    7179    7176      25
    7185    7182      24    7188    7182      24    7188    7185      25    7194
    7191      24    7197    7191      24    7197    7194      25    7203    7200
      24    7206    7200      24    7206    7203      25    7212    7209      24
    7215    7209      24    7215    7212      25    7221    7218      24    7224
    7218      24    7224    7221      25    7230    7227      24    7233    7227
      24    7233    7230      25    7239    7236      24    7242    7236      24
    7242    7239      25    7248    7245      24    7251    7245      24    7251
    7248      25    7257    7254      24    7260    7254      24    7260    7257
      25    7266    7263      24    7269    7263      24    7269    7266      25
    7275    7272      24    7278    7272      24    7278    7275      25    7284
    7281      24    7287    7281      24    7287    7284      25    7293    7290
      24    7296    7290      24    7296    7293      25    7302    7299      24
    7305    7299      24    7305    7302      25    7311    7308      24    7314
    7308      24    7314    7311      25    7320    7317      24    7323    7317
      24    7323    7320      25    7329    7326      24    7332    7326      24
    7332    7329      25    7338    7335      24    7341    7335      24    7341
    7338      25    7347    7344      24    7350    7344      24    7350    7347
      25    7356    7353      24    7359    7353      24    7359    7356      25
    7365    7362      24    7368    7362      24    7368    7365      25    7374
    7371      24    7377    7371      24    7377    7374      25    7383    7380
      24    7386    7380      24    7386    7383      25    7392    7389      24
    7395    7389      24    7395    7392      25    7401    7398      24    7404
    7398      24    7404    7401      25    7410    7407      24    7413    7407
      24    7413    7410      25    7419    7416      24    7422    7416      24
    7422    7419      25    7428    7425      24    7431    7425      24    7431
    7428      25    7437    7434      24    7440    7434      24    7440    7437
      25    7446    7443      24    7449    7443      24    7449    7446      25
    7455    7452      24    7458    7452      24    7458    7455      25    7464
    7461      24    7467    7461      24    7467    7464      25    7473    7470
      24    7476    7470      24    7476    7473      25    7482    7479      24
    7485    7479      24    7485    7482      25    7491    7488      24    7494
    7488      24    7494    7491      25    7500    7497      24    7503    7497
      24    7503    7500      25    7509    7506      24    7512    7506      24
    7512    7509      25    7518    7515      24    7521    7515      24    7521
    7518      25    7527    7524      24    7530    7524      24    7530    7527
      25    7536    7533      24    7539    7533      24    7539    7536      25
    7545    7542      24    7548    7542      24    7548    7545      25    7554
    7551      24    7557    7551      24    7557    7554      25    7563    7560
      24    7566    7560      24    7566    7563      25    7572    7569      24
    7575    7569      24    7575    7572      25    7581    7578      24    7584
    7578      24    7584    7581      25    7590    7587      24    7593    7587
      24    7593    7590      25    7599    7596      24    7602    7596      24
    7602    7599      25    7608    7605      24    7611    7605      24    7611
    7608      25    7617    7614      24    7620    7614      24    7620    7617
      25    7626    7623      24    7629    7623      24    7629    7626      25
    7635    7632      24    7638    7632      24    7638    7635      25    7644
    7641      24    7647    7641      24    7647    7644      25    7653    7650
      24    7656    7650      24    7656    7653      25    7662    7659      24
    7665    7659      24    7665    7662      25    7671    7668      24    7674
    7668      24    7674    7671      25    7680    7677      24    7683    7677
      24    7683    7680      25    7689    7686      24    7692    7686      24
    7692    7689      25    7698    7695      24    7701    7695      24    7701
    7698      25    7707    7704      24    7710    7704      24    7710    7707
      25    7716    7713      24    7719    7713      24    7719    7716      25
    7725    7722      24    7728    7722      24    7728    7725      25    7734
    7731      24    7737    7731      24    7737    7734      25    7743    7740
      24    7746    7740      24    7746    7743      25    7752    7749      24
    7755    7749      24    7755    7752      25    7761    7758      24    7764
    7758      24    7764    7761      25    7770    7767      24    7773    7767
      24    7773    7770      25    7779    7776      24    7782    7776      24
    7782    7779      25    7788    7785      24    7791    7785      24    7791
    7788      25    7797    7794      24    7800    7794      24    7800    7797
      25    7806    7803      24    7809    7803      24    7809    7806      25
    7815    7812      24    7818    7812      24    7818    7815      25    7824
    7821      24    7827    7821      24    7827    7824      25    7833    7830
      24    7836    7830      24    7836    7833      25    7842    7839      24
    7845    7839      24    7845    7842      25    7851    7848      24    7854
    7848      24    7854    7851      25    7860    7857      24    7863    7857
      24    7863    7860      25    7869    7866      24    7872    7866      24
    7872    7869      25    7878    7875      24    7881    7875      24    7881
    7878      25    7887    7884      24    7890    7884      24    7890    7887
      25    7896    7893      24    7899    7893      24    7899    7896      25
    7905    7902      24    7908    7902      24    7908    7905      25    7914
    7911      24    7917    7911      24    7917    7914      25    7923    7920
      24    7926    7920      24    7926    7923      25    7932    7929      24
    7935    7929      24    7935    7932      25    7941    7938      24    7944
    7938      24    7944    7941      25    7950    7947      24    7953    7947
      24    7953    7950      25    7959    7956      24    7962    7956      24
    7962    7959      25    7968    7965      24    7971    7965      24    7971
    7968      25    7977    7974      24    7980    7974      24    7980    7977
      25    7986    7983      24    7989    7983      24    7989    7986      25
    7995    7992      24    7998    7992      24    7998    7995      25    8004
    8001      24    8007    8001      24    8007    8004      25    8013    8010
      24    8016    8010      24    8016    8013      25    8022    8019      24
    8025    8019      24    8025    8022      25    8031    8028      24    8034
    8028      24    8034    8031      25    8040    8037      24    8043    8037
      24    8043    8040      25    8049    8046      24    8052    8046      24
    8052    8049      25    8058    8055      24    8061    8055      24    8061
    8058      25    8067    8064      24    8070    8064      24    8070    8067
      25    8076    8073      24    8079    8073      24    8079    8076      25
    8085    8082      24    8088    8082      24    8088    8085      25    8094
    8091      24    8097    8091      24    8097    8094      25    8103    8100
      24    8106    8100      24    8106    8103      25    8112    8109      24
    8115    8109      24    8115    8112      25    8121    8118      24    8124
    8118      24    8124    8121      25    8130    8127      24    8133    8127
      24    8133    8130      25    8139    8136      24    8142    8136      24
    8142    8139      25    8148    8145      24    8151    8145      24    8151
    8148      25    8157    8154      24    8160    8154      24    8160    8157
      25    8166    8163      24    8169    8163      24    8169    8166      25
    8175    8172      24    8178    8172      24    8178    8175      25    8184
    8181      24    8187    8181      24    8187    8184      25    8193    8190
      24    8196    8190      24    8196    8193      25    8202    8199      24
    8205    8199      24    8205    8202      25    8211    8208      24    8214
    8208      24    8214    8211      25    8220    8217      24    8223    8217
      24    8223    8220      25    8229    8226      24    8232    8226      24
    8232    8229      25    8238    8235      24    8241    8235      24    8241
    8238      25    8247    8244      24    8250    8244      24    8250    8247
      25    8256    8253      24    8259    8253      24    8259    8256      25
    8265    8262      24    8268    8262      24    8268    8265      25    8274
    8271      24    8277    8271      24    8277    8274      25    8283    8280
      24    8286    8280      24    8286    8283      25    8292    8289      24
    8295    8289      24    8295    8292      25    8301    8298      24    8304
    8298      24    8304    8301      25    8310    8307      24    8313    8307
      24    8313    8310      25    8319    8316      24    8322    8316      24
    8322    8319      25    8328    8325      24    8331    8325      24    8331
    8328      25    8337    8334      24    8340    8334      24    8340    8337
      25    8346    8343      24    8349    8343      24    8349    8346      25
    8355    8352      24    8358    8352      24    8358    8355      25    8364
    8361      24    8367    8361      24    8367    8364      25    8373    8370
      24    8376    8370      24    8376    8373      25    8382    8379      24
    8385    8379      24    8385    8382      25    8391    8388      24    8394
    8388      24    8394    8391      25    8400    8397      24    8403    8397
      24    8403    8400      25    8409    8406      24    8412    8406      24
    8412    8409      25    8418    8415      24    8421    8415      24    8421
    8418      25    8427    8424      24    8430    8424      24    8430    8427
      25    8436    8433      24    8439    8433      24    8439    8436      25
    8445    8442      24    8448    8442      24    8448    8445      25    8454
    8451      24    8457    8451      24    8457    8454      25    8463    8460
      24    8466    8460      24    8466    8463      25    8472    8469      24
    8475    8469      24    8475    8472      25    8481    8478      24    8484
    8478      24    8484    8481      25    8490    8487      24    8493    8487
      24    8493    8490      25    8499    8496      24    8502    8496      24
    8502    8499      25    8508    8505      24    8511    8505      24    8511
    8508      25    8517    8514      24    8520    8514      24    8520    8517
      25    8526    8523      24    8529    8523      24    8529    8526      25
    8535    8532      24    8538    8532      24    8538    8535      25    8544
    8541      24    8547    8541      24    8547    8544      25    8553    8550
      24    8556    8550      24    8556    8553      25    8562    8559      24
    8565    8559      24    8565    8562      25    8571    8568      24    8574
    8568      24    8574    8571      25    8580    8577      24    8583    8577
      24    8583    8580      25    8589    8586      24    8592    8586      24
    8592    8589      25    8598    8595      24    8601    8595      24    8601
    8598      25    8607    8604      24    8610    8604      24    8610    8607
      25    8616    8613      24    8619    8613      24    8619    8616      25
    8625    8622      24    8628    8622      24    8628    8625      25    8634
    8631      24    8637    8631      24    8637    8634      25    8643    8640
      24    8646    8640      24    8646    8643      25    8652    8649      24
    8655    8649      24    8655    8652      25    8661    8658      24    8664
    8658      24    8664    8661      25    8670    8667      24    8673    8667
      24    8673    8670      25    8679    8676      24    8682    8676      24
    8682    8679      25    8688    8685      24    8691    8685      24    8691
    8688      25    8697    8694      24    8700    8694      24    8700    8697
      25    8706    8703      24    8709    8703      24    8709    8706      25
    8715    8712      24    8718    8712      24    8718    8715      25    8724
    8721      24    8727    8721      24    8727    8724      25    8733    8730
      24    8736    8730      24    8736    8733      25    8742    8739      24
    8745    8739      24    8745    8742      25    8751    8748      24    8754
    8748      24    8754    8751      25    8760    8757      24    8763    8757
      24    8763    8760      25    8769    8766      24    8772    8766      24
    8772    8769      25    8778    8775      24    8781    8775      24    8781
    8778      25    8787    8784      24    8790    8784      24    8790    8787
      25    8796    8793      24    8799    8793      24    8799    8796      25
    8805    8802      24    8808    8802      24    8808    8805      25    8814
    8811      24    8817    8811      24    8817    8814      25    8823    8820
      24    8826    8820      24    8826    8823      25    8832    8829      24
    8835    8829      24    8835    8832      25    8841    8838      24    8844
    8838      24    8844    8841      25    8850    8847      24    8853    8847
      24    8853    8850      25    8859    8856      24    8862    8856      24
    8862    8859      25    8868    8865      24    8871    8865      24    8871
    8868      25    8877    8874      24    8880    8874      24    8880    8877
      25    8886    8883      24    8889    8883      24    8889    8886      25
    8895    8892      24    8898    8892      24    8898    8895      25    8904
    8901      24    8907    8901      24    8907    8904      25    8913    8910
      24    8916    8910      24    8916    8913      25    8922    8919      24
    8925    8919      24    8925    8922      25    8931    8928      24    8934
    8928      24    8934    8931      25    8940    8937      24    8943    8937
      24    8943    8940      25    8949    8946      24    8952    8946      24
    8952    8949      25    8958    8955      24    8961    8955      24    8961
    8958      25    8967    8964      24    8970    8964      24    8970    8967
      25    8976    8973      24    8979    8973      24    8979    8976      25
    8985    8982      24    8988    8982      24    8988    8985      25    8994
    8991      24    8997    8991      24    8997    8994      25    9003    9000
      24    9006    9000      24    9006    9003      25    9012    9009      24
    9015    9009      24    9015    9012      25    9021    9018      24    9024
    9018      24    9024    9021      25    9030    9027      24    9033    9027
      24    9033    9030      25    9039    9036      24    9042    9036      24
    9042    9039      25    9048    9045      24    9051    9045      24    9051
    9048      25    9057    9054      24    9060    9054      24    9060    9057
      25    9066    9063      24    9069    9063      24    9069    9066      25
    9075    9072      24    9078    9072      24    9078    9075      25    9084
    9081      24    9087    9081      24    9087    9084      25    9093    9090
      24    9096    9090      24    9096    9093      25    9102    9099      24
    9105    9099      24    9105    9102      25    9111    9108      24    9114
    9108      24    9114    9111      25    9120    9117      24    9123    9117
      24    9123    9120      25    9129    9126      24    9132    9126      24
    9132    9129      25    9138    9135      24    9141    9135      24    9141
    9138      25    9147    9144      24    9150    9144      24    9150    9147
      25    9156    9153      24    9159    9153      24    9159    9156      25
    9165    9162      24    9168    9162      24    9168    9165      25    9174
    9171      24    9177    9171      24    9177    9174      25    9183    9180
      24    9186    9180      24    9186    9183      25    9192    9189      24
    9195    9189      24    9195    9192      25    9201    9198      24    9204
    9198      24    9204    9201      25    9210    9207      24    9213    9207
      24    9213    9210      25    9219    9216      24    9222    9216      24
    9222    9219      25    9228    9225      24    9231    9225      24    9231
    9228      25    9237    9234      24    9240    9234      24    9240    9237
      25    9246    9243      24    9249    9243      24    9249    9246      25
    9255    9252      24    9258    9252      24    9258    9255      25    9264
    9261      24    9267    9261      24    9267    9264      25    9273    9270
      24    9276    9270      24    9276    9273      25    9282    9279      24
    9285    9279      24    9285    9282      25    9291    9288      24    9294
    9288      24    9294    9291      25    9300    9297      24    9303    9297
      24    9303    9300      25    9309    9306      24    9312    9306      24
    9312    9309      25    9318    9315      24    9321    9315      24    9321
    9318      25    9327    9324      24    9330    9324      24    9330    9327
      25    9336    9333      24    9339    9333      24    9339    9336      25
    9345    9342      24    9348    9342      24    9348    9345      25    9354
    9351      24    9357    9351      24    9357    9354      25    9363    9360
      24    9366    9360      24    9366    9363      25    9372    9369      24
    9375    9369      24    9375    9372      25    9381    9378      24    9384
    9378      24    9384    9381      25    9390    9387      24    9393    9387
      24    9393    9390      25    9399    9396      24    9402    9396      24
    9402    9399      25    9408    9405      24    9411    9405      24    9411
    9408      25    9417    9414      24    9420    9414      24    9420    9417
      25    9426    9423      24    9429    9423      24    9429    9426      25
    9435    9432      24    9438    9432      24    9438    9435      25    9444
    9441      24    9447    9441      24    9447    9444      25    9453    9450
      24    9456    9450      24    9456    9453      25    9462    9459      24
    9465    9459      24    9465    9462      25    9471    9468      24    9474
    9468      24    9474    9471      25    9480    9477      24    9483    9477
      24    9483    9480      25    9489    9486      24    9492    9486      24
    9492    9489      25    9498    9495      24    9501    9495      24    9501
    9498      25    9507    9504      24    9510    9504      24    9510    9507
      25    9516    9513      24    9519    9513      24    9519    9516      25
    9525    9522      24    9528    9522      24    9528    9525      25    9534
    9531      24    9537    9531      24    9537    9534      25    9543    9540
      24    9546    9540      24    9546    9543      25    9552    9549      24
    9555    9549      24    9555    9552      25    9561    9558      24    9564
    9558      24    9564    9561      25    9570    9567      24    9573    9567
      24    9573    9570      25    9579    9576      24    9582    9576      24
    9582    9579      25    9588    9585      24    9591    9585      24    9591
    9588      25    9597    9594      24    9600    9594      24    9600    9597
      25    9606    9603      24    9609    9603      24    9609    9606      25
    9615    9612      24    9618    9612      24    9618    9615      25    9624
    9621      24    9627    9621      24    9627    9624      25    9633    9630
      24    9636    9630      24    9636    9633      25    9642    9639      24
    9645    9639      24    9645    9642      25    9651    9648      24    9654
    9648      24    9654    9651      25    9660    9657      24    9663    9657
      24    9663    9660      25    9669    9666      24    9672    9666      24
    9672    9669      25    9678    9675      24    9681    9675      24    9681
    9678      25    9687    9684      24    9690    9684      24    9690    9687
      25    9696    9693      24    9699    9693      24    9699    9696      25
    9705    9702      24    9708    9702      24    9708    9705      25    9714
    9711      24    9717    9711      24    9717    9714      25    9723    9720
      24    9726    9720      24    9726    9723      25    9732    9729      24
    9735    9729      24    9735    9732      25    9741    9738      24    9744
    9738      24    9744    9741      25    9750    9747      24    9753    9747
      24    9753    9750      25    9759    9756      24    9762    9756      24
    9762    9759      25    9768    9765      24    9771    9765      24    9771
    9768      25    9777    9774      24    9780    9774      24    9780    9777
      25    9786    9783      24    9789    9783      24    9789    9786      25
    9795    9792      24    9798    9792      24    9798    9795      25    9804
    9801      24    9807    9801      24    9807    9804      25    9813    9810
      24    9816    9810      24    9816    9813      25    9822    9819      24
    9825    9819      24    9825    9822      25    9831    9828      24    9834
    9828      24    9834    9831      25    9840    9837      24    9843    9837
      24    9843    9840      25    9849    9846      24    9852    9846      24
    9852    9849      25    9858    9855      24    9861    9855      24    9861
    9858      25    9867    9864      24    9870    9864      24    9870    9867
      25    9876    9873      24    9879    9873      24    9879    9876      25
    9885    9882      24    9888    9882      24    9888    9885      25    9894
    9891      24    9897    9891      24    9897    9894      25    9903    9900
      24    9906    9900      24    9906    9903      25    9912    9909      24
    9915    9909      24    9915    9912      25    9921    9918      24    9924
    9918      24    9924    9921      25    9930    9927      24    9933    9927
      24    9933    9930      25    9939    9936      24    9942    9936      24
    9942    9939      25    9948    9945      24    9951    9945      24    9951
    9948      25    9957    9954      24    9960    9954      24    9960    9957
      25    9966    9963      24    9969    9963      24    9969    9966      25
    9975    9972      24    9978    9972      24    9978    9975      25    9984
    9981      24    9987    9981      24    9987    9984      25    9993    9990
      24    9996    9990      24    9996    9993      25   10002    9999      24
   10005    9999      24   10005   10002      25   10011   10008      24   10014
   10008      24   10014   10011      25   10020   10017      24   10023   10017
      24   10023   10020      25   10029   10026      24   10032   10026      24
   10032   10029      25   10038   10035      24   10041   10035      24   10041
   10038      25   10047   10044      24   10050   10044      24   10050   10047
      25   10056   10053      24   10059   10053      24   10059   10056      25
   10065   10062      24   10068   10062      24   10068   10065      25   10074
   10071      24   10077   10071      24   10077   10074      25   10083   10080
      24   10086   10080      24   10086   10083      25   10092   10089      24
   10095   10089      24   10095   10092      25   10101   10098      24   10104
   10098      24   10104   10101      25   10110   10107      24   10113   10107
      24   10113   10110      25   10119   10116      24   10122   10116      24
   10122   10119      25   10128   10125      24   10131   10125      24   10131
   10128      25   10137   10134      24   10140   10134      24   10140   10137
      25   10146   10143      24   10149   10143      24   10149   10146      25
   10155   10152      24   10158   10152      24   10158   10155      25   10164
   10161      24   10167   10161      24   10167   10164      25   10173   10170
      24   10176   10170      24   10176   10173      25   10182   10179      24
   10185   10179      24   10185   10182      25   10191   10188      24   10194
   10188      24   10194   10191      25   10200   10197      24   10203   10197
      24   10203   10200      25   10209   10206      24   10212   10206      24
   10212   10209      25   10218   10215      24   10221   10215      24   10221
   10218      25   10227   10224      24   10230   10224      24   10230   10227
      25   10236   10233      24   10239   10233      24   10239   10236      25
   10245   10242      24   10248   10242      24   10248   10245      25   10254
   10251      24   10257   10251      24   10257   10254      25   10263   10260
      24   10266   10260      24   10266   10263      25   10272   10269      24
   10275   10269      24   10275   10272      25   10281   10278      24   10284
   10278      24   10284   10281      25   10290   10287      24   10293   10287
      24   10293   10290      25   10299   10296      24   10302   10296      24
   10302   10299      25   10308   10305      24   10311   10305      24   10311
   10308      25   10317   10314      24   10320   10314      24   10320   10317
      25   10326   10323      24   10329   10323      24   10329   10326      25
   10335   10332      24   10338   10332      24   10338   10335      25   10344
   10341      24   10347   10341      24   10347   10344      25   10353   10350
      24   10356   10350      24   10356   10353      25   10362   10359      24
   10365   10359      24   10365   10362      25   10371   10368      24   10374
   10368      24   10374   10371      25   10380   10377      24   10383   10377
      24   10383   10380      25   10389   10386      24   10392   10386      24
   10392   10389      25   10398   10395      24   10401   10395      24   10401
   10398      25   10407   10404      24   10410   10404      24   10410   10407
      25   10416   10413      24   10419   10413      24   10419   10416      25
   10425   10422      24   10428   10422      24   10428   10425      25   10434
   10431      24   10437   10431      24   10437   10434      25   10443   10440
      24   10446   10440      24   10446   10443      25   10452   10449      24
   10455   10449      24   10455   10452      25   10461   10458      24   10464
   10458      24   10464   10461      25   10470   10467      24   10473   10467
      24   10473   10470      25   10479   10476      24   10482   10476      24
   10482   10479      25   10488   10485      24   10491   10485      24   10491
   10488      25   10497   10494      24   10500   10494      24   10500   10497
      25   10506   10503      24   10509   10503      24   10509   10506      25
   10515   10512      24   10518   10512      24   10518   10515      25   10524
   10521      24   10527   10521      24   10527   10524      25   10533   10530
      24   10536   10530      24   10536   10533      25   10542   10539      24
   10545   10539      24   10545   10542      25   10551   10548      24   10554
   10548      24   10554   10551      25   10560   10557      24   10563   10557
      24   10563   10560      25   10569   10566      24   10572   10566      24
   10572   10569      25   10578   10575      24   10581   10575      24   10581
   10578      25   10587   10584      24   10590   10584      24   10590   10587
      25   10596   10593      24   10599   10593      24   10599   10596      25
   10605   10602      24   10608   10602      24   10608   10605      25   10614
   10611      24   10617   10611      24   10617   10614      25   10623   10620
      24   10626   10620      24   10626   10623      25   10632   10629      24
   10635   10629      24   10635   10632      25   10641   10638      24   10644
   10638      24   10644   10641      25   10650   10647      24   10653   10647
      24   10653   10650      25   10659   10656      24   10662   10656      24
   10662   10659      25   10668   10665      24   10671   10665      24   10671
   10668      25   10677   10674      24   10680   10674      24   10680   10677
      25   10686   10683      24   10689   10683      24   10689   10686      25
   10695   10692      24   10698   10692      24   10698   10695      25   10704
   10701      24   10707   10701      24   10707   10704      25   10713   10710
      24   10716   10710      24   10716   10713      25   10722   10719      24
   10725   10719      24   10725   10722      25   10731   10728      24   10734
   10728      24   10734   10731      25   10740   10737      24   10743   10737
      24   10743   10740      25   10749   10746      24   10752   10746      24
   10752   10749      25   10758   10755      24   10761   10755      24   10761
   10758      25   10767   10764      24   10770   10764      24   10770   10767
      25   10776   10773      24   10779   10773      24   10779   10776      25
   10785   10782      24   10788   10782      24   10788   10785      25   10794
   10791      24   10797   10791      24   10797   10794      25   10803   10800
      24   10806   10800      24   10806   10803      25   10812   10809      24
   10815   10809      24   10815   10812      25   10821   10818      24   10824
   10818      24   10824   10821      25   10830   10827      24   10833   10827
      24   10833   10830      25   10839   10836      24   10842   10836      24
   10842   10839      25   10848   10845      24   10851   10845      24   10851
   10848      25   10857   10854      24   10860   10854      24   10860   10857
      25   10866   10863      24   10869   10863      24   10869   10866      25
   10875   10872      24   10878   10872      24   10878   10875      25   10884
   10881      24   10887   10881      24   10887   10884      25   10893   10890
      24   10896   10890      24   10896   10893      25   10902   10899      24
   10905   10899      24   10905   10902      25   10911   10908      24   10914
   10908      24   10914   10911      25   10920   10917      24   10923   10917
      24   10923   10920      25   10929   10926      24   10932   10926      24
   10932   10929      25   10938   10935      24   10941   10935      24   10941
   10938      25   10947   10944      24   10950   10944      24   10950   10947
      25   10956   10953      24   10959   10953      24   10959   10956      25
   10965   10962      24   10968   10962      24   10968   10965      25   10974
   10971      24   10977   10971      24   10977   10974      25   10983   10980
      24   10986   10980      24   10986   10983      25   10992   10989      24
   10995   10989      24   10995   10992      25   11001   10998      24   11004
   10998      24   11004   11001      25   11010   11007      24   11013   11007
      24   11013   11010      25   11019   11016      24   11022   11016      24
   11022   11019      25   11028   11025      24   11031   11025      24   11031
   11028      25   11037   11034      24   11040   11034      24   11040   11037
      25   11046   11043      24   11049   11043      24   11049   11046      25
   11055   11052      24   11058   11052      24   11058   11055      25   11064
   11061      24   11067   11061      24   11067   11064      25   11073   11070
      24   11076   11070      24   11076   11073      25   11082   11079      24
   11085   11079      24   11085   11082      25   11091   11088      24   11094
   11088      24   11094   11091      25   11100   11097      24   11103   11097
      24   11103   11100      25   11109   11106      24   11112   11106      24
   11112   11109      25   11118   11115      24   11121   11115      24   11121
   11118      25   11127   11124      24   11130   11124      24   11130   11127
      25   11136   11133      24   11139   11133      24   11139   11136      25
   11145   11142      24   11148   11142      24   11148   11145      25   11154
   11151      24   11157   11151      24   11157   11154      25   11163   11160
      24   11166   11160      24   11166   11163      25   11172   11169      24
   11175   11169      24   11175   11172      25   11181   11178      24   11184
   11178      24   11184   11181      25   11190   11187      24   11193   11187
      24   11193   11190      25   11199   11196      24   11202   11196      24
   11202   11199      25   11208   11205      24   11211   11205      24   11211
   11208      25   11217   11214      24   11220   11214      24   11220   11217
      25   11226   11223      24   11229   11223      24   11229   11226      25
   11235   11232      24   11238   11232      24   11238   11235      25   11244
   11241      24   11247   11241      24   11247   11244      25   11253   11250
      24   11256   11250      24   11256   11253      25   11262   11259      24
   11265   11259      24   11265   11262      25   11271   11268      24   11274
   11268      24   11274   11271      25   11280   11277      24   11283   11277
      24   11283   11280      25   11289   11286      24   11292   11286      24
   11292   11289      25   11298   11295      24   11301   11295      24   11301
   11298      25   11307   11304      24   11310   11304      24   11310   11307
      25   11316   11313      24   11319   11313      24   11319   11316      25
   11325   11322      24   11328   11322      24   11328   11325      25   11334
   11331      24   11337   11331      24   11337   11334      25   11343   11340
      24   11346   11340      24   11346   11343      25   11352   11349      24
   11355   11349      24   11355   11352      25   11361   11358      24   11364
   11358      24   11364   11361      25   11370   11367      24   11373   11367
      24   11373   11370      25   11379   11376      24   11382   11376      24
   11382   11379      25   11388   11385      24   11391   11385      24   11391
   11388      25   11397   11394      24   11400   11394      24   11400   11397
      25   11406   11403      24   11409   11403      24   11409   11406      25
   11415   11412      24   11418   11412      24   11418   11415      25   11424
   11421      24   11427   11421      24   11427   11424      25   11433   11430
      24   11436   11430      24   11436   11433      25   11442   11439      24
   11445   11439      24   11445   11442      25   11451   11448      24   11454
   11448      24   11454   11451      25   11460   11457      24   11463   11457
      24   11463   11460      25   11469   11466      24   11472   11466      24
   11472   11469      25   11478   11475      24   11481   11475      24   11481
   11478      25   11487   11484      24   11490   11484      24   11490   11487
      25   11496   11493      24   11499   11493      24   11499   11496      25
   11505   11502      24   11508   11502      24   11508   11505      25   11514
   11511      24   11517   11511      24   11517   11514      25   11523   11520
      24   11526   11520      24   11526   11523      25   11532   11529      24
   11535   11529      24   11535   11532      25   11541   11538      24   11544
   11538      24   11544   11541      25   11550   11547      24   11553   11547
      24   11553   11550      25   11559   11556      24   11562   11556      24
   11562   11559      25   11568   11565      24   11571   11565      24   11571
   11568      25   11577   11574      24   11580   11574      24   11580   11577
      25   11586   11583      24   11589   11583      24   11589   11586      25
   11595   11592      24   11598   11592      24   11598   11595      25   11604
   11601      24   11607   11601      24   11607   11604      25   11613   11610
      24   11616   11610      24   11616   11613      25   11622   11619      24
   11625   11619      24   11625   11622      25   11631   11628      24   11634
   11628      24   11634   11631      25   11640   11637      24   11643   11637
      24   11643   11640      25   11649   11646      24   11652   11646      24
   11652   11649      25   11658   11655      24   11661   11655      24   11661
   11658      25   11667   11664      24   11670   11664      24   11670   11667
      25   11676   11673      24   11679   11673      24   11679   11676      25
   11685   11682      24   11688   11682      24   11688   11685      25   11694
   11691      24   11697   11691      24   11697   11694      25   11703   11700
      24   11706   11700      24   11706   11703      25   11712   11709      24
   11715   11709      24   11715   11712      25   11721   11718      24   11724
   11718      24   11724   11721      25   11730   11727      24   11733   11727
      24   11733   11730      25   11739   11736      24   11742   11736      24
   11742   11739      25   11748   11745      24   11751   11745      24   11751
   11748      25   11757   11754      24   11760   11754      24   11760   11757
      25   11766   11763      24   11769   11763      24   11769   11766      25
   11775   11772      24   11778   11772      24   11778   11775      25   11784
   11781      24   11787   11781      24   11787   11784      25   11793   11790
      24   11796   11790      24   11796   11793      25   11802   11799      24
   11805   11799      24   11805   11802      25   11811   11808      24   11814
   11808      24   11814   11811      25   11820   11817      24   11823   11817
      24   11823   11820      25   11829   11826      24   11832   11826      24
   11832   11829      25   11838   11835      24   11841   11835      24   11841
   11838      25   11847   11844      24   11850   11844      24   11850   11847
      25   11856   11853      24   11859   11853      24   11859   11856      25
   11865   11862      24   11868   11862      24   11868   11865      25   11874
   11871      24   11877   11871      24   11877   11874      25   11883   11880
      24   11886   11880      24   11886   11883      25   11892   11889      24
   11895   11889      24   11895   11892      25   11901   11898      24   11904
   11898      24   11904   11901      25   11910   11907      24   11913   11907
      24   11913   11910      25   11919   11916      24   11922   11916      24
   11922   11919      25   11928   11925      24   11931   11925      24   11931
   11928      25   11937   11934      24   11940   11934      24   11940   11937
      25   11946   11943      24   11949   11943      24   11949   11946      25
   11955   11952      24   11958   11952      24   11958   11955      25   11964
   11961      24   11967   11961      24   11967   11964      25   11973   11970
      24   11976   11970      24   11976   11973      25   11982   11979      24
   11985   11979      24   11985   11982      25   11991   11988      24   11994
   11988      24   11994   11991      25   12000   11997      24   12003   11997
      24   12003   12000      25   12009   12006      24   12012   12006      24
   12012   12009      25   12018   12015      24   12021   12015      24   12021
   12018      25   12027   12024      24   12030   12024      24   12030   12027
      25   12036   12033      24   12039   12033      24   12039   12036      25
   12045   12042      24   12048   12042      24   12048   12045      25   12054
   12051      24   12057   12051      24   12057   12054      25   12063   12060
      24   12066   12060      24   12066   12063      25   12072   12069      24
   12075   12069      24   12075   12072      25   12081   12078      24   12084
   12078      24   12084   12081      25   12090   12087      24   12093   12087
      24   12093   12090      25   12099   12096      24   12102   12096      24
   12102   12099      25   12108   12105      24   12111   12105      24   12111
   12108      25   12117   12114      24   12120   12114      24   12120   12117
      25   12126   12123      24   12129   12123      24   12129   12126      25
   12135   12132      24   12138   12132      24   12138   12135      25   12144
   12141      24   12147   12141      24   12147   12144      25   12153   12150
      24   12156   12150      24   12156   12153      25   12162   12159      24
   12165   12159      24   12165   12162      25   12171   12168      24   12174
   12168      24   12174   12171      25   12180   12177      24   12183   12177
      24   12183   12180      25   12189   12186      24   12192   12186      24
   12192   12189      25   12198   12195      24   12201   12195      24   12201
   12198      25   12207   12204      24   12210   12204      24   12210   12207
      25   12216   12213      24   12219   12213      24   12219   12216      25
   12225   12222      24   12228   12222      24   12228   12225      25   12234
   12231      24   12237   12231      24   12237   12234      25   12243   12240
      24   12246   12240      24   12246   12243      25   12252   12249      24
   12255   12249      24   12255   12252      25   12261   12258      24   12264
   12258      24   12264   12261      25   12270   12267      24   12273   12267
      24   12273   12270      25   12279   12276      24   12282   12276      24
   12282   12279      25   12288   12285      24   12291   12285      24   12291
   12288      25   12297   12294      24   12300   12294      24   12300   12297
      25   12306   12303      24   12309   12303      24   12309   12306      25
   12315   12312      24   12318   12312      24   12318   12315      25   12324
   12321      24   12327   12321      24   12327   12324      25   12333   12330
      24   12336   12330      24   12336   12333      25   12342   12339      24
   12345   12339      24   12345   12342      25   12351   12348      24   12354
   12348      24   12354   12351      25   12360   12357      24   12363   12357
      24   12363   12360      25   12369   12366      24   12372   12366      24
   12372   12369      25   12378   12375      24   12381   12375      24   12381
   12378      25   12387   12384      24   12390   12384      24   12390   12387
      25   12396   12393      24   12399   12393      24   12399   12396      25
   12405   12402      24   12408   12402      24   12408   12405      25   12414
   12411      24   12417   12411      24   12417   12414      25   12423   12420
      24   12426   12420      24   12426   12423      25   12432   12429      24
   12435   12429      24   12435   12432      25   12441   12438      24   12444
   12438      24   12444   12441      25   12450   12447      24   12453   12447
      24   12453   12450      25   12459   12456      24   12462   12456      24
   12462   12459      25   12468   12465      24   12471   12465      24   12471
   12468      25   12477   12474      24   12480   12474      24   12480   12477
      25   12486   12483      24   12489   12483      24   12489   12486      25
   12495   12492      24   12498   12492      24   12498   12495      25   12504
   12501      24   12507   12501      24   12507   12504      25   12513   12510
      24   12516   12510      24   12516   12513      25   12522   12519      24
   12525   12519      24   12525   12522      25   12531   12528      24   12534
   12528      24   12534   12531      25   12540   12537      24   12543   12537
      24   12543   12540      25   12549   12546      24   12552   12546      24
   12552   12549      25   12558   12555      24   12561   12555      24   12561
   12558      25   12567   12564      24   12570   12564      24   12570   12567
      25   12576   12573      24   12579   12573      24   12579   12576      25
   12585   12582      24   12588   12582      24   12588   12585      25   12594
   12591      24   12597   12591      24   12597   12594      25   12603   12600
      24   12606   12600      24   12606   12603      25   12612   12609      24
   12615   12609      24   12615   12612      25   12621   12618      24   12624
   12618      24   12624   12621      25   12630   12627      24   12633   12627
      24   12633   12630      25   12639   12636      24   12642   12636      24
   12642   12639      25   12648   12645      24   12651   12645      24   12651
   12648      25   12657   12654      24   12660   12654      24   12660   12657
      25   12666   12663      24   12669   12663      24   12669   12666      25
   12675   12672      24   12678   12672      24   12678   12675      25   12684
   12681      24   12687   12681      24   12687   12684      25   12693   12690
      24   12696   12690      24   12696   12693      25   12702   12699      24
   12705   12699      24   12705   12702      25   12711   12708      24   12714
   12708      24   12714   12711      25   12720   12717      24   12723   12717
      24   12723   12720      25   12729   12726      24   12732   12726      24
   12732   12729      25   12738   12735      24   12741   12735      24   12741
   12738      25   12747   12744      24   12750   12744      24   12750   12747
      25   12756   12753      24   12759   12753      24   12759   12756      25
   12765   12762      24   12768   12762      24   12768   12765      25   12774
   12771      24   12777   12771      24   12777   12774      25   12783   12780
      24   12786   12780      24   12786   12783      25   12792   12789      24
   12795   12789      24   12795   12792      25   12801   12798      24   12804
   12798      24   12804   12801      25   12810   12807      24   12813   12807
      24   12813   12810      25   12819   12816      24   12822   12816      24
   12822   12819      25   12828   12825      24   12831   12825      24   12831
   12828      25   12837   12834      24   12840   12834      24   12840   12837
      25   12846   12843      24   12849   12843      24   12849   12846      25
   12855   12852      24   12858   12852      24   12858   12855      25   12864
   12861      24   12867   12861      24   12867   12864      25   12873   12870
      24   12876   12870      24   12876   12873      25   12882   12879      24
   12885   12879      24   12885   12882      25   12891   12888      24   12894
   12888      24   12894   12891      25   12900   12897      24   12903   12897
      24   12903   12900      25   12909   12906      24   12912   12906      24
   12912   12909      25   12918   12915      24   12921   12915      24   12921
   12918      25   12927   12924      24   12930   12924      24   12930   12927
      25   12936   12933      24   12939   12933      24   12939   12936      25
   12945   12942      24   12948   12942      24   12948   12945      25   12954
   12951      24   12957   12951      24   12957   12954      25   12963   12960
      24   12966   12960      24   12966   12963      25   12972   12969      24
   12975   12969      24   12975   12972      25   12981   12978      24   12984
   12978      24   12984   12981      25   12990   12987      24   12993   12987
      24   12993   12990      25   12999   12996      24   13002   12996      24
   13002   12999      25   13008   13005      24   13011   13005      24   13011
   13008      25   13017   13014      24   13020   13014      24   13020   13017
      25   13026   13023      24   13029   13023      24   13029   13026      25
   13035   13032      24   13038   13032      24   13038   13035      25   13044
   13041      24   13047   13041      24   13047   13044      25   13053   13050
      24   13056   13050      24   13056   13053      25   13062   13059      24
   13065   13059      24   13065   13062      25   13071   13068      24   13074
   13068      24   13074   13071      25   13080   13077      24   13083   13077
      24   13083   13080      25   13089   13086      24   13092   13086      24
   13092   13089      25   13098   13095      24   13101   13095      24   13101
   13098      25   13107   13104      24   13110   13104      24   13110   13107
      25   13116   13113      24   13119   13113      24   13119   13116      25
   13125   13122      24   13128   13122      24   13128   13125      25   13134
   13131      24   13137   13131      24   13137   13134      25   13143   13140
      24   13146   13140      24   13146   13143      25   13152   13149      24
   13155   13149      24   13155   13152      25   13161   13158      24   13164
   13158      24   13164   13161      25   13170   13167      24   13173   13167
      24   13173   13170      25   13179   13176      24   13182   13176      24
   13182   13179      25   13188   13185      24   13191   13185      24   13191
   13188      25   13197   13194      24   13200   13194      24   13200   13197
      25   13206   13203      24   13209   13203      24   13209   13206      25
   13215   13212      24   13218   13212      24   13218   13215      25   13224
   13221      24   13227   13221      24   13227   13224      25   13233   13230
      24   13236   13230      24   13236   13233      25   13242   13239      24
   13245   13239      24   13245   13242      25   13251   13248      24   13254
   13248      24   13254   13251      25   13260   13257      24   13263   13257
      24   13263   13260      25   13269   13266      24   13272   13266      24
   13272   13269      25   13278   13275      24   13281   13275      24   13281
   13278      25   13287   13284      24   13290   13284      24   13290   13287
      25   13296   13293      24   13299   13293      24   13299   13296      25
   13305   13302      24   13308   13302      24   13308   13305      25   13314
   13311      24   13317   13311      24   13317   13314      25   13323   13320
      24   13326   13320      24   13326   13323      25   13332   13329      24
   13335   13329      24   13335   13332      25   13341   13338      24   13344
   13338      24   13344   13341      25   13350   13347      24   13353   13347
      24   13353   13350      25   13359   13356      24   13362   13356      24
   13362   13359      25   13368   13365      24   13371   13365      24   13371
   13368      25   13377   13374      24   13380   13374      24   13380   13377
      25   13386   13383      24   13389   13383      24   13389   13386      25
   13395   13392      24   13398   13392      24   13398   13395      25   13404
   13401      24   13407   13401      24   13407   13404      25   13413   13410
      24   13416   13410      24   13416   13413      25   13422   13419      24
   13425   13419      24   13425   13422      25   13431   13428      24   13434
   13428      24   13434   13431      25   13440   13437      24   13443   13437
      24   13443   13440      25   13449   13446      24   13452   13446      24
   13452   13449      25   13458   13455      24   13461   13455      24   13461
   13458      25   13467   13464      24   13470   13464      24   13470   13467
      25   13476   13473      24   13479   13473      24   13479   13476      25
   13485   13482      24   13488   13482      24   13488   13485      25   13494
   13491      24   13497   13491      24   13497   13494      25   13503   13500
      24   13506   13500      24   13506   13503      25   13512   13509      24
   13515   13509      24   13515   13512      25   13521   13518      24   13524
   13518      24   13524   13521      25   13530   13527      24   13533   13527
      24   13533   13530      25   13539   13536      24   13542   13536      24
   13542   13539      25   13548   13545      24   13551   13545      24   13551
   13548      25   13557   13554      24   13560   13554      24   13560   13557
      25   13566   13563      24   13569   13563      24   13569   13566      25
   13575   13572      24   13578   13572      24   13578   13575      25   13584
   13581      24   13587   13581      24   13587   13584      25   13593   13590
      24   13596   13590      24   13596   13593      25   13602   13599      24
   13605   13599      24   13605   13602      25   13611   13608      24   13614
   13608      24   13614   13611      25   13620   13617      24   13623   13617
      24   13623   13620      25   13629   13626      24   13632   13626      24
   13632   13629      25   13638   13635      24   13641   13635      24   13641
   13638      25   13647   13644      24   13650   13644      24   13650   13647
      25   13656   13653      24   13659   13653      24   13659   13656      25
   13665   13662      24   13668   13662      24   13668   13665      25   13674
   13671      24   13677   13671      24   13677   13674      25   13683   13680
      24   13686   13680      24   13686   13683      25   13692   13689      24
   13695   13689      24   13695   13692      25   13701   13698      24   13704
   13698      24   13704   13701      25   13710   13707      24   13713   13707
      24   13713   13710      25   13719   13716      24   13722   13716      24
   13722   13719      25   13728   13725      24   13731   13725      24   13731
   13728      25   13737   13734      24   13740   13734      24   13740   13737
      25   13746   13743      24   13749   13743      24   13749   13746      25
   13755   13752      24   13758   13752      24   13758   13755      25   13764
   13761      24   13767   13761      24   13767   13764      25   13773   13770
      24   13776   13770      24   13776   13773      25   13782   13779      24
   13785   13779      24   13785   13782      25   13791   13788      24   13794
   13788      24   13794   13791      25   13800   13797      24   13803   13797
      24   13803   13800      25   13809   13806      24   13812   13806      24
   13812   13809      25   13818   13815      24   13821   13815      24   13821
   13818      25   13827   13824      24   13830   13824      24   13830   13827
      25   13836   13833      24   13839   13833      24   13839   13836      25
   13845   13842      24   13848   13842      24   13848   13845      25   13854
   13851      24   13857   13851      24   13857   13854      25   13863   13860
      24   13866   13860      24   13866   13863      25   13872   13869      24
   13875   13869      24   13875   13872      25   13881   13878      24   13884
   13878      24   13884   13881      25   13890   13887      24   13893   13887
      24   13893   13890      25   13899   13896      24   13902   13896      24
   13902   13899      25   13908   13905      24   13911   13905      24   13911
   13908      25   13917   13914      24   13920   13914      24   13920   13917
      25   13926   13923      24   13929   13923      24   13929   13926      25
   13935   13932      24   13938   13932      24   13938   13935      25   13944
   13941      24   13947   13941      24   13947   13944      25   13953   13950
      24   13956   13950      24   13956   13953      25   13962   13959      24
   13965   13959      24   13965   13962      25   13971   13968      24   13974
   13968      24   13974   13971      25   13980   13977      24   13983   13977
      24   13983   13980      25   13989   13986      24   13992   13986      24
   13992   13989      25   13998   13995      24   14001   13995      24   14001
   13998      25   14007   14004      24   14010   14004      24   14010   14007
      25   14016   14013      24   14019   14013      24   14019   14016      25
   14025   14022      24   14028   14022      24   14028   14025      25   14034
   14031      24   14037   14031      24   14037   14034      25   14043   14040
      24   14046   14040      24   14046   14043      25   14052   14049      24
   14055   14049      24   14055   14052      25   14061   14058      24   14064
   14058      24   14064   14061      25   14070   14067      24   14073   14067
      24   14073   14070      25   14079   14076      24   14082   14076      24
   14082   14079      25   14088   14085      24   14091   14085      24   14091
   14088      25   14097   14094      24   14100   14094      24   14100   14097
      25   14106   14103      24   14109   14103      24   14109   14106      25
   14115   14112      24   14118   14112      24   14118   14115      25   14124
   14121      24   14127   14121      24   14127   14124      25   14133   14130
      24   14136   14130      24   14136   14133      25   14142   14139      24
   14145   14139      24   14145   14142      25   14151   14148      24   14154
   14148      24   14154   14151      25   14160   14157      24   14163   14157
      24   14163   14160      25   14169   14166      24   14172   14166      24
   14172   14169      25   14178   14175      24   14181   14175      24   14181
   14178      25   14187   14184      24   14190   14184      24   14190   14187
      25   14196   14193      24   14199   14193      24   14199   14196      25
   14205   14202      24   14208   14202      24   14208   14205      25   14214
   14211      24   14217   14211      24   14217   14214      25   14223   14220
      24   14226   14220      24   14226   14223      25   14232   14229      24
   14235   14229      24   14235   14232      25   14241   14238      24   14244
   14238      24   14244   14241      25   14250   14247      24   14253   14247
      24   14253   14250      25   14259   14256      24   14262   14256      24
   14262   14259      25   14268   14265      24   14271   14265      24   14271
   14268      25   14277   14274      24   14280   14274      24   14280   14277
      25   14286   14283      24   14289   14283      24   14289   14286      25
   14295   14292      24   14298   14292      24   14298   14295      25   14304
   14301      24   14307   14301      24   14307   14304      25   14313   14310
      24   14316   14310      24   14316   14313      25   14322   14319      24
   14325   14319      24   14325   14322      25   14331   14328      24   14334
   14328      24   14334   14331      25   14340   14337      24   14343   14337
      24   14343   14340      25   14349   14346      24   14352   14346      24
   14352   14349      25   14358   14355      24   14361   14355      24   14361
   14358      25   14367   14364      24   14370   14364      24   14370   14367
      25   14376   14373      24   14379   14373      24   14379   14376      25
   14385   14382      24   14388   14382      24   14388   14385      25   14394
   14391      24   14397   14391      24   14397   14394      25   14403   14400
      24   14406   14400      24   14406   14403      25   14412   14409      24
   14415   14409      24   14415   14412      25   14421   14418      24   14424
   14418      24   14424   14421      25   14430   14427      24   14433   14427
      24   14433   14430      25   14439   14436      24   14442   14436      24
   14442   14439      25   14448   14445      24   14451   14445      24   14451
   14448      25   14457   14454      24   14460   14454      24   14460   14457
      25   14466   14463      24   14469   14463      24   14469   14466      25
   14475   14472      24   14478   14472      24   14478   14475      25   14484
   14481      24   14487   14481      24   14487   14484      25   14493   14490
      24   14496   14490      24   14496   14493      25   14502   14499      24
   14505   14499      24   14505   14502      25   14511   14508      24   14514
   14508      24   14514   14511      25   14520   14517      24   14523   14517
      24   14523   14520      25   14529   14526      24   14532   14526      24
   14532   14529      25   14538   14535      24   14541   14535      24   14541
   14538      25   14547   14544      24   14550   14544      24   14550   14547
      25   14556   14553      24   14559   14553      24   14559   14556      25
   14565   14562      24   14568   14562      24   14568   14565      25   14574
   14571      24   14577   14571      24   14577   14574      25   14583   14580
      24   14586   14580      24   14586   14583      25   14592   14589      24
   14595   14589      24   14595   14592      25   14601   14598      24   14604
   14598      24   14604   14601      25   14610   14607      24   14613   14607
      24   14613   14610      25   14619   14616      24   14622   14616      24
   14622   14619      25   14628   14625      24   14631   14625      24   14631
   14628      25   14637   14634      24   14640   14634      24   14640   14637
      25   14646   14643      24   14649   14643      24   14649   14646      25
   14655   14652      24   14658   14652      24   14658   14655      25   14664
   14661      24   14667   14661      24   14667   14664      25   14673   14670
      24   14676   14670      24   14676   14673      25   14682   14679      24
   14685   14679      24   14685   14682      25   14691   14688      24   14694
   14688      24   14694   14691      25   14700   14697      24   14703   14697
      24   14703   14700      25   14709   14706      24   14712   14706      24
   14712   14709      25   14718   14715      24   14721   14715      24   14721
   14718      25   14727   14724      24   14730   14724      24   14730   14727
      25   14736   14733      24   14739   14733      24   14739   14736      25
   14745   14742      24   14748   14742      24   14748   14745      25   14754
   14751      24   14757   14751      24   14757   14754      25   14763   14760
      24   14766   14760      24   14766   14763      25   14772   14769      24
   14775   14769      24   14775   14772      25   14781   14778      24   14784
   14778      24   14784   14781      25   14790   14787      24   14793   14787
      24   14793   14790      25   14799   14796      24   14802   14796      24
   14802   14799      25   14808   14805      24   14811   14805      24   14811
   14808      25   14817   14814      24   14820   14814      24   14820   14817
      25   14826   14823      24   14829   14823      24   14829   14826      25
   14835   14832      24   14838   14832      24   14838   14835      25   14844
   14841      24   14847   14841      24   14847   14844      25   14853   14850
      24   14856   14850      24   14856   14853      25   14862   14859      24
   14865   14859      24   14865   14862      25   14871   14868      24   14874
   14868      24   14874   14871      25   14880   14877      24   14883   14877
      24   14883   14880      25   14889   14886      24   14892   14886      24
   14892   14889      25   14898   14895      24   14901   14895      24   14901
   14898      25   14907   14904      24   14910   14904      24   14910   14907
      25   14916   14913      24   14919   14913      24   14919   14916      25
   14925   14922      24   14928   14922      24   14928   14925      25   14934
   14931      24   14937   14931      24   14937   14934      25   14943   14940
      24   14946   14940      24   14946   14943      25   14952   14949      24
   14955   14949      24   14955   14952      25   14961   14958      24   14964
   14958      24   14964   14961      25   14970   14967      24   14973   14967
      24   14973   14970      25   14979   14976      24   14982   14976      24
   14982   14979      25   14988   14985      24   14991   14985      24   14991
   14988      25   14997   14994      24   15000   14994      24   15000   14997
      25   15006   15003      24   15009   15003      24   15009   15006      25
   15015   15012      24   15018   15012      24   15018   15015      25   15024
   15021      24   15027   15021      24   15027   15024      25   15033   15030
      24   15036   15030      24   15036   15033      25   15042   15039      24
   15045   15039      24   15045   15042      25   15051   15048      24   15054
   15048      24   15054   15051      25   15060   15057      24   15063   15057
      24   15063   15060      25   15069   15066      24   15072   15066      24
   15072   15069      25   15078   15075      24   15081   15075      24   15081
   15078      25   15087   15084      24   15090   15084      24   15090   15087
      25   15096   15093      24   15099   15093      24   15099   15096      25
   15105   15102      24   15108   15102      24   15108   15105      25   15114
   15111      24   15117   15111      24   15117   15114      25   15123   15120
      24   15126   15120      24   15126   15123      25   15132   15129      24
   15135   15129      24   15135   15132      25   15141   15138      24   15144
   15138      24   15144   15141      25   15150   15147      24   15153   15147
      24   15153   15150      25   15159   15156      24   15162   15156      24
   15162   15159      25   15168   15165      24   15171   15165      24   15171
   15168      25   15177   15174      24   15180   15174      24   15180   15177
      25   15186   15183      24   15189   15183      24   15189   15186      25
   15195   15192      24   15198   15192      24   15198   15195      25   15204
   15201      24   15207   15201      24   15207   15204      25   15213   15210
      24   15216   15210      24   15216   15213      25   15222   15219      24
   15225   15219      24   15225   15222      25   15231   15228      24   15234
   15228      24   15234   15231      25   15240   15237      24   15243   15237
      24   15243   15240      25   15249   15246      24   15252   15246      24
   15252   15249      25   15258   15255      24   15261   15255      24   15261
   15258      25   15267   15264      24   15270   15264      24   15270   15267
      25   15276   15273      24   15279   15273      24   15279   15276      25
   15285   15282      24   15288   15282      24   15288   15285      25   15294
   15291      24   15297   15291      24   15297   15294      25   15303   15300
      24   15306   15300      24   15306   15303      25   15312   15309      24
   15315   15309      24   15315   15312      25   15321   15318      24   15324
   15318      24   15324   15321      25   15330   15327      24   15333   15327
      24   15333   15330      25   15339   15336      24   15342   15336      24
   15342   15339      25   15348   15345      24   15351   15345      24   15351
   15348      25   15357   15354      24   15360   15354      24   15360   15357
      25   15366   15363      24   15369   15363      24   15369   15366      25
   15375   15372      24   15378   15372      24   15378   15375      25   15384
   15381      24   15387   15381      24   15387   15384      25   15393   15390
      24   15396   15390      24   15396   15393      25   15402   15399      24
   15405   15399      24   15405   15402      25   15411   15408      24   15414
   15408      24   15414   15411      25   15420   15417      24   15423   15417
      24   15423   15420      25   15429   15426      24   15432   15426      24
   15432   15429      25   15438   15435      24   15441   15435      24   15441
   15438      25   15447   15444      24   15450   15444      24   15450   15447
      25   15456   15453      24   15459   15453      24   15459   15456      25
   15465   15462      24   15468   15462      24   15468   15465      25   15474
   15471      24   15477   15471      24   15477   15474      25   15483   15480
      24   15486   15480      24   15486   15483      25   15492   15489      24
   15495   15489      24   15495   15492      25   15501   15498      24   15504
   15498      24   15504   15501      25   15510   15507      24   15513   15507
      24   15513   15510      25   15519   15516      24   15522   15516      24
   15522   15519      25   15528   15525      24   15531   15525      24   15531
   15528      25   15537   15534      24   15540   15534      24   15540   15537
      25   15546   15543      24   15549   15543      24   15549   15546      25
   15555   15552      24   15558   15552      24   15558   15555      25   15564
   15561      24   15567   15561      24   15567   15564      25   15573   15570
      24   15576   15570      24   15576   15573      25   15582   15579      24
   15585   15579      24   15585   15582      25   15591   15588      24   15594
   15588      24   15594   15591      25   15600   15597      24   15603   15597
      24   15603   15600      25   15609   15606      24   15612   15606      24
   15612   15609      25   15618   15615      24   15621   15615      24   15621
   15618      25   15627   15624      24   15630   15624      24   15630   15627
      25   15636   15633      24   15639   15633      24   15639   15636      25
   15645   15642      24   15648   15642      24   15648   15645      25   15654
   15651      24   15657   15651      24   15657   15654      25   15663   15660
      24   15666   15660      24   15666   15663      25   15672   15669      24
   15675   15669      24   15675   15672      25   15681   15678      24   15684
   15678      24   15684   15681      25   15690   15687      24   15693   15687
      24   15693   15690      25   15699   15696      24   15702   15696      24
   15702   15699      25   15708   15705      24   15711   15705      24   15711
   15708      25   15717   15714      24   15720   15714      24   15720   15717
      25   15726   15723      24   15729   15723      24   15729   15726      25
   15735   15732      24   15738   15732      24   15738   15735      25   15744
   15741      24   15747   15741      24   15747   15744      25   15753   15750
      24   15756   15750      24   15756   15753      25   15762   15759      24
   15765   15759      24   15765   15762      25   15771   15768      24   15774
   15768      24   15774   15771      25   15780   15777      24   15783   15777
      24   15783   15780      25   15789   15786      24   15792   15786      24
   15792   15789      25   15798   15795      24   15801   15795      24   15801
   15798      25   15807   15804      24   15810   15804      24   15810   15807
      25   15816   15813      24   15819   15813      24   15819   15816      25
   15825   15822      24   15828   15822      24   15828   15825      25   15834
   15831      24   15837   15831      24   15837   15834      25   15843   15840
      24   15846   15840      24   15846   15843      25   15852   15849      24
   15855   15849      24   15855   15852      25   15861   15858      24   15864
   15858      24   15864   15861      25   15870   15867      24   15873   15867
      24   15873   15870      25   15879   15876      24   15882   15876      24
   15882   15879      25   15888   15885      24   15891   15885      24   15891
   15888      25   15897   15894      24   15900   15894      24   15900   15897
      25   15906   15903      24   15909   15903      24   15909   15906      25
   15915   15912      24   15918   15912      24   15918   15915      25   15924
   15921      24   15927   15921      24   15927   15924      25   15933   15930
      24   15936   15930      24   15936   15933      25   15942   15939      24
   15945   15939      24   15945   15942      25   15951   15948      24   15954
   15948      24   15954   15951      25   15960   15957      24   15963   15957
      24   15963   15960      25   15969   15966      24   15972   15966      24
   15972   15969      25   15978   15975      24   15981   15975      24   15981
   15978      25   15987   15984      24   15990   15984      24   15990   15987
      25   15996   15993      24   15999   15993      24   15999   15996      25
   16005   16002      24   16008   16002      24   16008   16005      25   16014
   16011      24   16017   16011      24   16017   16014      25   16023   16020
      24   16026   16020      24   16026   16023      25   16032   16029      24
   16035   16029      24   16035   16032      25   16041   16038      24   16044
   16038      24   16044   16041      25   16050   16047      24   16053   16047
      24   16053   16050      25   16059   16056      24   16062   16056      24
   16062   16059      25   16068   16065      24   16071   16065      24   16071
   16068      25   16077   16074      24   16080   16074      24   16080   16077
      25   16086   16083      24   16089   16083      24   16089   16086      25
   16095   16092      24   16098   16092      24   16098   16095      25   16104
   16101      24   16107   16101      24   16107   16104      25   16113   16110
      24   16116   16110      24   16116   16113      25   16122   16119      24
   16125   16119      24   16125   16122      25   16131   16128      24   16134
   16128      24   16134   16131      25   16140   16137      24   16143   16137
      24   16143   16140      25   16149   16146      24   16152   16146      24
   16152   16149      25   16158   16155      24   16161   16155      24   16161
   16158      25   16167   16164      24   16170   16164      24   16170   16167
      25   16176   16173      24   16179   16173      24   16179   16176      25
   16185   16182      24   16188   16182      24   16188   16185      25   16194
   16191      24   16197   16191      24   16197   16194      25   16203   16200
      24   16206   16200      24   16206   16203      25   16212   16209      24
   16215   16209      24   16215   16212      25   16221   16218      24   16224
   16218      24   16224   16221      25   16230   16227      24   16233   16227
      24   16233   16230      25   16239   16236      24   16242   16236      24
   16242   16239      25   16248   16245      24   16251   16245      24   16251
   16248      25   16257   16254      24   16260   16254      24   16260   16257
      25   16266   16263      24   16269   16263      24   16269   16266      25
   16275   16272      24   16278   16272      24   16278   16275      25   16284
   16281      24   16287   16281      24   16287   16284      25   16293   16290
      24   16296   16290      24   16296   16293      25   16302   16299      24
   16305   16299      24   16305   16302      25   16311   16308      24   16314
   16308      24   16314   16311      25   16320   16317      24   16323   16317
      24   16323   16320      25   16329   16326      24   16332   16326      24
   16332   16329      25   16338   16335      24   16341   16335      24   16341
   16338      25   16347   16344      24   16350   16344      24   16350   16347
      25   16356   16353      24   16359   16353      24   16359   16356      25
   16365   16362      24   16368   16362      24   16368   16365      25   16374
   16371      24   16377   16371      24   16377   16374      25   16383   16380
      24   16386   16380      24   16386   16383      25   16392   16389      24
   16395   16389      24   16395   16392      25   16401   16398      24   16404
   16398      24   16404   16401      25   16410   16407      24   16413   16407
      24   16413   16410      25   16419   16416      24   16422   16416      24
   16422   16419      25   16428   16425      24   16431   16425      24   16431
   16428      25   16437   16434      24   16440   16434      24   16440   16437
      25   16446   16443      24   16449   16443      24   16449   16446      25
   16455   16452      24   16458   16452      24   16458   16455      25   16464
   16461      24   16467   16461      24   16467   16464      25   16473   16470
      24   16476   16470      24   16476   16473      25   16482   16479      24
   16485   16479      24   16485   16482      25   16491   16488      24   16494
   16488      24   16494   16491      25   16500   16497      24   16503   16497
      24   16503   16500      25   16509   16506      24   16512   16506      24
   16512   16509      25   16518   16515      24   16521   16515      24   16521
   16518      25   16527   16524      24   16530   16524      24   16530   16527
      25   16536   16533      24   16539   16533      24   16539   16536      25
   16545   16542      24   16548   16542      24   16548   16545      25   16554
   16551      24   16557   16551      24   16557   16554      25   16563   16560
      24   16566   16560      24   16566   16563      25   16572   16569      24
   16575   16569      24   16575   16572      25   16581   16578      24   16584
   16578      24   16584   16581      25   16590   16587      24   16593   16587
      24   16593   16590      25   16599   16596      24   16602   16596      24
   16602   16599      25   16608   16605      24   16611   16605      24   16611
   16608      25   16617   16614      24   16620   16614      24   16620   16617
      25   16626   16623      24   16629   16623      24   16629   16626      25
   16635   16632      24   16638   16632      24   16638   16635      25   16644
   16641      24   16647   16641      24   16647   16644      25   16653   16650
      24   16656   16650      24   16656   16653      25   16662   16659      24
   16665   16659      24   16665   16662      25   16671   16668      24   16674
   16668      24   16674   16671      25   16680   16677      24   16683   16677
      24   16683   16680      25   16689   16686      24   16692   16686      24
   16692   16689      25   16698   16695      24   16701   16695      24   16701
   16698      25   16707   16704      24   16710   16704      24   16710   16707
      25   16716   16713      24   16719   16713      24   16719   16716      25
   16725   16722      24   16728   16722      24   16728   16725      25   16734
   16731      24   16737   16731      24   16737   16734      25   16743   16740
      24   16746   16740      24   16746   16743      25   16752   16749      24
   16755   16749      24   16755   16752      25   16761   16758      24   16764
   16758      24   16764   16761      25   16770   16767      24   16773   16767
      24   16773   16770      25   16779   16776      24   16782   16776      24
   16782   16779      25   16788   16785      24   16791   16785      24   16791
   16788      25   16797   16794      24   16800   16794      24   16800   16797
      25   16806   16803      24   16809   16803      24   16809   16806      25
   16815   16812      24   16818   16812      24   16818   16815      25   16824
   16821      24   16827   16821      24   16827   16824      25   16833   16830
      24   16836   16830      24   16836   16833      25   16842   16839      24
   16845   16839      24   16845   16842      25   16851   16848      24   16854
   16848      24   16854   16851      25   16860   16857      24   16863   16857
      24   16863   16860      25   16869   16866      24   16872   16866      24
   16872   16869      25   16878   16875      24   16881   16875      24   16881
   16878      25   16887   16884      24   16890   16884      24   16890   16887
      25   16896   16893      24   16899   16893      24   16899   16896      25
   16905   16902      24   16908   16902      24   16908   16905      25   16914
   16911      24   16917   16911      24   16917   16914      25   16923   16920
      24   16926   16920      24   16926   16923      25   16932   16929      24
   16935   16929      24   16935   16932      25   16941   16938      24   16944
   16938      24   16944   16941      25   16950   16947      24   16953   16947
      24   16953   16950      25   16959   16956      24   16962   16956      24
   16962   16959      25   16968   16965      24   16971   16965      24   16971
   16968      25   16977   16974      24   16980   16974      24   16980   16977
      25   16986   16983      24   16989   16983      24   16989   16986      25
   16995   16992      24   16998   16992      24   16998   16995      25   17004
   17001      24   17007   17001      24   17007   17004      25   17013   17010
      24   17016   17010      24   17016   17013      25   17022   17019      24
   17025   17019      24   17025   17022      25   17031   17028      24   17034
   17028      24   17034   17031      25   17040   17037      24   17043   17037
      24   17043   17040      25   17049   17046      24   17052   17046      24
   17052   17049      25   17058   17055      24   17061   17055      24   17061
   17058      25   17067   17064      24   17070   17064      24   17070   17067
      25   17076   17073      24   17079   17073      24   17079   17076      25
   17085   17082      24   17088   17082      24   17088   17085      25   17094
   17091      24   17097   17091      24   17097   17094      25   17103   17100
      24   17106   17100      24   17106   17103      25   17112   17109      24
   17115   17109      24   17115   17112      25   17121   17118      24   17124
   17118      24   17124   17121      25   17130   17127      24   17133   17127
      24   17133   17130      25   17139   17136      24   17142   17136      24
   17142   17139      25   17148   17145      24   17151   17145      24   17151
   17148      25   17157   17154      24   17160   17154      24   17160   17157
      25   17166   17163      24   17169   17163      24   17169   17166      25
   17175   17172      24   17178   17172      24   17178   17175      25   17184
   17181      24   17187   17181      24   17187   17184      25   17193   17190
      24   17196   17190      24   17196   17193      25   17202   17199      24
   17205   17199      24   17205   17202      25   17211   17208      24   17214
   17208      24   17214   17211      25   17220   17217      24   17223   17217
      24   17223   17220      25   17229   17226      24   17232   17226      24
   17232   17229      25   17238   17235      24   17241   17235      24   17241
   17238      25   17247   17244      24   17250   17244      24   17250   17247
      25   17256   17253      24   17259   17253      24   17259   17256      25
   17265   17262      24   17268   17262      24   17268   17265      25   17274
   17271      24   17277   17271      24   17277   17274      25   17283   17280
      24   17286   17280      24   17286   17283      25   17292   17289      24
   17295   17289      24   17295   17292      25   17301   17298      24   17304
   17298      24   17304   17301      25   17310   17307      24   17313   17307
      24   17313   17310      25   17319   17316      24   17322   17316      24
   17322   17319      25   17328   17325      24   17331   17325      24   17331
   17328      25   17337   17334      24   17340   17334      24   17340   17337
      25   17346   17343      24   17349   17343      24   17349   17346      25
   17355   17352      24   17358   17352      24   17358   17355      25   17364
   17361      24   17367   17361      24   17367   17364      25   17373   17370
      24   17376   17370      24   17376   17373      25   17382   17379      24
   17385   17379      24   17385   17382      25   17391   17388      24   17394
   17388      24   17394   17391      25   17400   17397      24   17403   17397
      24   17403   17400      25   17409   17406      24   17412   17406      24
   17412   17409      25   17418   17415      24   17421   17415      24   17421
   17418      25   17427   17424      24   17430   17424      24   17430   17427
      25   17436   17433      24   17439   17433      24   17439   17436      25
   17445   17442      24   17448   17442      24   17448   17445      25   17454
   17451      24   17457   17451      24   17457   17454      25   17463   17460
      24   17466   17460      24   17466   17463      25   17472   17469      24
   17475   17469      24   17475   17472      25   17481   17478      24   17484
   17478      24   17484   17481      25   17490   17487      24   17493   17487
      24   17493   17490      25   17499   17496      24   17502   17496      24
   17502   17499      25   17508   17505      24   17511   17505      24   17511
   17508      25   17517   17514      24   17520   17514      24   17520   17517
      25   17526   17523      24   17529   17523      24   17529   17526      25
   17535   17532      24   17538   17532      24   17538   17535      25   17544
   17541      24   17547   17541      24   17547   17544      25   17553   17550
      24   17556   17550      24   17556   17553      25   17562   17559      24
   17565   17559      24   17565   17562      25   17571   17568      24   17574
   17568      24   17574   17571      25   17580   17577      24   17583   17577
      24   17583   17580      25   17589   17586      24   17592   17586      24
   17592   17589      25   17598   17595      24   17601   17595      24   17601
   17598      25   17607   17604      24   17610   17604      24   17610   17607
      25   17616   17613      24   17619   17613      24   17619   17616      25
   17625   17622      24   17628   17622      24   17628   17625      25   17634
   17631      24   17637   17631      24   17637   17634      25   17643   17640
      24   17646   17640      24   17646   17643      25   17652   17649      24
   17655   17649      24   17655   17652      25   17661   17658      24   17664
   17658      24   17664   17661      25   17670   17667      24   17673   17667
      24   17673   17670      25   17679   17676      24   17682   17676      24
   17682   17679      25   17688   17685      24   17691   17685      24   17691
   17688      25   17697   17694      24   17700   17694      24   17700   17697
      25   17706   17703      24   17709   17703      24   17709   17706      25
   17715   17712      24   17718   17712      24   17718   17715      25   17724
   17721      24   17727   17721      24   17727   17724      25   17733   17730
      24   17736   17730      24   17736   17733      25   17742   17739      24
   17745   17739      24   17745   17742      25   17751   17748      24   17754
   17748      24   17754   17751      25   17760   17757      24   17763   17757
      24   17763   17760      25   17769   17766      24   17772   17766      24
   17772   17769      25   17778   17775      24   17781   17775      24   17781
   17778      25   17787   17784      24   17790   17784      24   17790   17787
      25   17796   17793      24   17799   17793      24   17799   17796      25
   17805   17802      24   17808   17802      24   17808   17805      25   17814
   17811      24   17817   17811      24   17817   17814      25   17823   17820
      24   17826   17820      24   17826   17823      25   17832   17829      24
   17835   17829      24   17835   17832      25   17841   17838      24   17844
   17838      24   17844   17841      25   17850   17847      24   17853   17847
      24   17853   17850      25   17859   17856      24   17862   17856      24
   17862   17859      25   17868   17865      24   17871   17865      24   17871
   17868      25   17877   17874      24   17880   17874      24   17880   17877
      25   17886   17883      24   17889   17883      24   17889   17886      25
   17895   17892      24   17898   17892      24   17898   17895      25   17904
   17901      24   17907   17901      24   17907   17904      25   17913   17910
      24   17916   17910      24   17916   17913      25   17922   17919      24
   17925   17919      24   17925   17922      25   17931   17928      24   17934
   17928      24   17934   17931      25   17940   17937      24   17943   17937
      24   17943   17940      25   17949   17946      24   17952   17946      24
   17952   17949      25   17958   17955      24   17961   17955      24   17961
   17958      25   17967   17964      24   17970   17964      24   17970   17967
      25   17976   17973      24   17979   17973      24   17979   17976      25
   17985   17982      24   17988   17982      24   17988   17985      25   17994
   17991      24   17997   17991      24   17997   17994      25   18003   18000
      24   18006   18000      24   18006   18003      25   18012   18009      24
   18015   18009      24   18015   18012      25   18021   18018      24   18024
   18018      24   18024   18021      25   18030   18027      24   18033   18027
      24   18033   18030      25   18039   18036      24   18042   18036      24
   18042   18039      25   18048   18045      24   18051   18045      24   18051
   18048      25   18057   18054      24   18060   18054      24   18060   18057
      25   18066   18063      24   18069   18063      24   18069   18066      25
   18075   18072      24   18078   18072      24   18078   18075      25   18084
   18081      24   18087   18081      24   18087   18084      25   18093   18090
      24   18096   18090      24   18096   18093      25   18102   18099      24
   18105   18099      24   18105   18102      25   18111   18108      24   18114
   18108      24   18114   18111      25   18120   18117      24   18123   18117
      24   18123   18120      25   18129   18126      24   18132   18126      24
   18132   18129      25   18138   18135      24   18141   18135      24   18141
   18138      25   18147   18144      24   18150   18144      24   18150   18147
      25   18156   18153      24   18159   18153      24   18159   18156      25
   18165   18162      24   18168   18162      24   18168   18165      25   18174
   18171      24   18177   18171      24   18177   18174      25   18183   18180
      24   18186   18180      24   18186   18183      25   18192   18189      24
   18195   18189      24   18195   18192      25   18201   18198      24   18204
   18198      24   18204   18201      25   18210   18207      24   18213   18207
      24   18213   18210      25   18219   18216      24   18222   18216      24
   18222   18219      25   18228   18225      24   18231   18225      24   18231
   18228      25   18237   18234      24   18240   18234      24   18240   18237
      25   18246   18243      24   18249   18243      24   18249   18246      25
   18255   18252      24   18258   18252      24   18258   18255      25   18264
   18261      24   18267   18261      24   18267   18264      25   18273   18270
      24   18276   18270      24   18276   18273      25   18282   18279      24
   18285   18279      24   18285   18282      25   18291   18288      24   18294
   18288      24   18294   18291      25   18300   18297      24   18303   18297
      24   18303   18300      25   18309   18306      24   18312   18306      24
   18312   18309      25   18318   18315      24   18321   18315      24   18321
   18318      25   18327   18324      24   18330   18324      24   18330   18327
      25   18336   18333      24   18339   18333      24   18339   18336      25
   18345   18342      24   18348   18342      24   18348   18345      25   18354
   18351      24   18357   18351      24   18357   18354      25   18363   18360
      24   18366   18360      24   18366   18363      25   18372   18369      24
   18375   18369      24   18375   18372      25   18381   18378      24   18384
   18378      24   18384   18381      25   18390   18387      24   18393   18387
      24   18393   18390      25   18399   18396      24   18402   18396      24
   18402   18399      25   18408   18405      24   18411   18405      24   18411
   18408      25   18417   18414      24   18420   18414      24   18420   18417
      25   18426   18423      24   18429   18423      24   18429   18426      25
   18435   18432      24   18438   18432      24   18438   18435      25   18444
   18441      24   18447   18441      24   18447   18444      25   18453   18450
      24   18456   18450      24   18456   18453      25   18462   18459      24
   18465   18459      24   18465   18462      25   18471   18468      24   18474
   18468      24   18474   18471      25   18480   18477      24   18483   18477
      24   18483   18480      25   18489   18486      24   18492   18486      24
   18492   18489      25   18498   18495      24   18501   18495      24   18501
   18498      25   18507   18504      24   18510   18504      24   18510   18507
      25   18516   18513      24   18519   18513      24   18519   18516      25
   18525   18522      24   18528   18522      24   18528   18525      25   18534
   18531      24   18537   18531      24   18537   18534      25   18543   18540
      24   18546   18540      24   18546   18543      25   18552   18549      24
   18555   18549      24   18555   18552      25   18561   18558      24   18564
   18558      24   18564   18561      25   18570   18567      24   18573   18567
      24   18573   18570      25   18579   18576      24   18582   18576      24
   18582   18579      25   18588   18585      24   18591   18585      24   18591
   18588      25   18597   18594      24   18600   18594      24   18600   18597
      25   18606   18603      24   18609   18603      24   18609   18606      25
   18615   18612      24   18618   18612      24   18618   18615      25   18624
   18621      24   18627   18621      24   18627   18624      25   18633   18630
      24   18636   18630      24   18636   18633      25   18642   18639      24
   18645   18639      24   18645   18642      25   18651   18648      24   18654
   18648      24   18654   18651      25   18660   18657      24   18663   18657
      24   18663   18660      25   18669   18666      24   18672   18666      24
   18672   18669      25   18678   18675      24   18681   18675      24   18681
   18678      25   18687   18684      24   18690   18684      24   18690   18687
      25   18696   18693      24   18699   18693      24   18699   18696      25
   18705   18702      24   18708   18702      24   18708   18705      25   18714
   18711      24   18717   18711      24   18717   18714      25   18723   18720
      24   18726   18720      24   18726   18723      25   18732   18729      24
   18735   18729      24   18735   18732      25   18741   18738      24   18744
   18738      24   18744   18741      25   18750   18747      24   18753   18747
      24   18753   18750      25   18759   18756      24   18762   18756      24
   18762   18759      25   18768   18765      24   18771   18765      24   18771
   18768      25   18777   18774      24   18780   18774      24   18780   18777
      25   18786   18783      24   18789   18783      24   18789   18786      25
   18795   18792      24   18798   18792      24   18798   18795      25   18804
   18801      24   18807   18801      24   18807   18804      25   18813   18810
      24   18816   18810      24   18816   18813      25   18822   18819      24
   18825   18819      24   18825   18822      25   18831   18828      24   18834
   18828      24   18834   18831      25   18840   18837      24   18843   18837
      24   18843   18840      25   18849   18846      24   18852   18846      24
   18852   18849      25   18858   18855      24   18861   18855      24   18861
   18858      25   18867   18864      24   18870   18864      24   18870   18867
      25   18876   18873      24   18879   18873      24   18879   18876      25
   18885   18882      24   18888   18882      24   18888   18885      25   18894
   18891      24   18897   18891      24   18897   18894      25   18903   18900
      24   18906   18900      24   18906   18903      25   18912   18909      24
   18915   18909      24   18915   18912      25   18921   18918      24   18924
   18918      24   18924   18921      25   18930   18927      24   18933   18927
      24   18933   18930      25   18939   18936      24   18942   18936      24
   18942   18939      25   18948   18945      24   18951   18945      24   18951
   18948      25   18957   18954      24   18960   18954      24   18960   18957
      25   18966   18963      24   18969   18963      24   18969   18966      25
   18975   18972      24   18978   18972      24   18978   18975      25   18984
   18981      24   18987   18981      24   18987   18984      25   18993   18990
      24   18996   18990      24   18996   18993      25   19002   18999      24
   19005   18999      24   19005   19002      25   19011   19008      24   19014
   19008      24   19014   19011      25   19020   19017      24   19023   19017
      24   19023   19020      25   19029   19026      24   19032   19026      24
   19032   19029      25   19038   19035      24   19041   19035      24   19041
   19038      25   19047   19044      24   19050   19044      24   19050   19047
      25   19056   19053      24   19059   19053      24   19059   19056      25
   19065   19062      24   19068   19062      24   19068   19065      25   19074
   19071      24   19077   19071      24   19077   19074      25   19083   19080
      24   19086   19080      24   19086   19083      25   19092   19089      24
   19095   19089      24   19095   19092      25   19101   19098      24   19104
   19098      24   19104   19101      25   19110   19107      24   19113   19107
      24   19113   19110      25   19119   19116      24   19122   19116      24
   19122   19119      25   19128   19125      24   19131   19125      24   19131
   19128      25   19137   19134      24   19140   19134      24   19140   19137
      25   19146   19143      24   19149   19143      24   19149   19146      25
   19155   19152      24   19158   19152      24   19158   19155      25   19164
   19161      24   19167   19161      24   19167   19164      25   19173   19170
      24   19176   19170      24   19176   19173      25   19182   19179      24
   19185   19179      24   19185   19182      25   19191   19188      24   19194
   19188      24   19194   19191      25   19200   19197      24   19203   19197
      24   19203   19200      25   19209   19206      24   19212   19206      24
   19212   19209      25   19218   19215      24   19221   19215      24   19221
   19218      25   19227   19224      24   19230   19224      24   19230   19227
      25   19236   19233      24   19239   19233      24   19239   19236      25
   19245   19242      24   19248   19242      24   19248   19245      25   19254
   19251      24   19257   19251      24   19257   19254      25   19263   19260
      24   19266   19260      24   19266   19263      25   19272   19269      24
   19275   19269      24   19275   19272      25   19281   19278      24   19284
   19278      24   19284   19281      25   19290   19287      24   19293   19287
      24   19293   19290      25   19299   19296      24   19302   19296      24
   19302   19299      25   19308   19305      24   19311   19305      24   19311
   19308      25   19317   19314      24   19320   19314      24   19320   19317
      25   19326   19323      24   19329   19323      24   19329   19326      25
   19335   19332      24   19338   19332      24   19338   19335      25   19344
   19341      24   19347   19341      24   19347   19344      25   19353   19350
      24   19356   19350      24   19356   19353      25   19362   19359      24
   19365   19359      24   19365   19362      25   19371   19368      24   19374
   19368      24   19374   19371      25   19380   19377      24   19383   19377
      24   19383   19380      25   19389   19386      24   19392   19386      24
   19392   19389      25   19398   19395      24   19401   19395      24   19401
   19398      25   19407   19404      24   19410   19404      24   19410   19407
      25   19416   19413      24   19419   19413      24   19419   19416      25
   19425   19422      24   19428   19422      24   19428   19425      25   19434
   19431      24   19437   19431      24   19437   19434      25   19443   19440
      24   19446   19440      24   19446   19443      25   19452   19449      24
   19455   19449      24   19455   19452      25   19461   19458      24   19464
   19458      24   19464   19461      25   19470   19467      24   19473   19467
      24   19473   19470      25   19479   19476      24   19482   19476      24
   19482   19479      25   19488   19485      24   19491   19485      24   19491
   19488      25   19497   19494      24   19500   19494      24   19500   19497
      25   19506   19503      24   19509   19503      24   19509   19506      25
   19515   19512      24   19518   19512      24   19518   19515      25   19524
   19521      24   19527   19521      24   19527   19524      25   19533   19530
      24   19536   19530      24   19536   19533      25   19542   19539      24
   19545   19539      24   19545   19542      25   19551   19548      24   19554
   19548      24   19554   19551      25   19560   19557      24   19563   19557
      24   19563   19560      25   19569   19566      24   19572   19566      24
   19572   19569      25   19578   19575      24   19581   19575      24   19581
   19578      25   19587   19584      24   19590   19584      24   19590   19587
      25   19596   19593      24   19599   19593      24   19599   19596      25
   19605   19602      24   19608   19602      24   19608   19605      25   19614
   19611      24   19617   19611      24   19617   19614      25   19623   19620
      24   19626   19620      24   19626   19623      25   19632   19629      24
   19635   19629      24   19635   19632      25   19641   19638      24   19644
   19638      24   19644   19641      25   19650   19647      24   19653   19647
      24   19653   19650      25   19659   19656      24   19662   19656      24
   19662   19659      25   19668   19665      24   19671   19665      24   19671
   19668      25   19677   19674      24   19680   19674      24   19680   19677
      25   19686   19683      24   19689   19683      24   19689   19686      25
   19695   19692      24   19698   19692      24   19698   19695      25   19704
   19701      24   19707   19701      24   19707   19704      25   19713   19710
      24   19716   19710      24   19716   19713      25   19722   19719      24
   19725   19719      24   19725   19722      25   19731   19728      24   19734
   19728      24   19734   19731      25   19740   19737      24   19743   19737
      24   19743   19740      25   19749   19746      24   19752   19746      24
   19752   19749      25   19758   19755      24   19761   19755      24   19761
   19758      25   19767   19764      24   19770   19764      24   19770   19767
      25   19776   19773      24   19779   19773      24   19779   19776      25
   19785   19782      24   19788   19782      24   19788   19785      25   19794
   19791      24   19797   19791      24   19797   19794      25   19803   19800
      24   19806   19800      24   19806   19803      25   19812   19809      24
   19815   19809      24   19815   19812      25   19821   19818      24   19824
   19818      24   19824   19821      25   19830   19827      24   19833   19827
      24   19833   19830      25   19839   19836      24   19842   19836      24
   19842   19839      25   19848   19845      24   19851   19845      24   19851
   19848      25   19857   19854      24   19860   19854      24   19860   19857
      25   19866   19863      24   19869   19863      24   19869   19866      25
   19875   19872      24   19878   19872      24   19878   19875      25   19884
   19881      24   19887   19881      24   19887   19884      25   19893   19890
      24   19896   19890      24   19896   19893      25   19902   19899      24
   19905   19899      24   19905   19902      25   19911   19908      24   19914
   19908      24   19914   19911      25   19920   19917      24   19923   19917
      24   19923   19920      25   19929   19926      24   19932   19926      24
   19932   19929      25   19938   19935      24   19941   19935      24   19941
   19938      25   19947   19944      24   19950   19944      24   19950   19947
      25   19956   19953      24   19959   19953      24   19959   19956      25
   19965   19962      24   19968   19962      24   19968   19965      25   19974
   19971      24   19977   19971      24   19977   19974      25   19983   19980
      24   19986   19980      24   19986   19983      25   19992   19989      24
   19995   19989      24   19995   19992      25   20001   19998      24   20004
   19998      24   20004   20001      25   20010   20007      24   20013   20007
      24   20013   20010      25   20019   20016      24   20022   20016      24
   20022   20019      25   20028   20025      24   20031   20025      24   20031
   20028      25   20037   20034      24   20040   20034      24   20040   20037
      25   20046   20043      24   20049   20043      24   20049   20046      25
   20055   20052      24   20058   20052      24   20058   20055      25   20064
   20061      24   20067   20061      24   20067   20064      25   20073   20070
      24   20076   20070      24   20076   20073      25   20082   20079      24
   20085   20079      24   20085   20082      25   20091   20088      24   20094
   20088      24   20094   20091      25   20100   20097      24   20103   20097
      24   20103   20100      25   20109   20106      24   20112   20106      24
   20112   20109      25   20118   20115      24   20121   20115      24   20121
   20118      25   20127   20124      24   20130   20124      24   20130   20127
      25   20136   20133      24   20139   20133      24   20139   20136      25
   20145   20142      24   20148   20142      24   20148   20145      25   20154
   20151      24   20157   20151      24   20157   20154      25   20163   20160
      24   20166   20160      24   20166   20163      25   20172   20169      24
   20175   20169      24   20175   20172      25   20181   20178      24   20184
   20178      24   20184   20181      25   20190   20187      24   20193   20187
      24   20193   20190      25   20199   20196      24   20202   20196      24
   20202   20199      25   20208   20205      24   20211   20205      24   20211
   20208      25   20217   20214      24   20220   20214      24   20220   20217
      25   20226   20223      24   20229   20223      24   20229   20226      25
   20235   20232      24   20238   20232      24   20238   20235      25   20244
   20241      24   20247   20241      24   20247   20244      25   20253   20250
      24   20256   20250      24   20256   20253      25   20262   20259      24
   20265   20259      24   20265   20262      25   20271   20268      24   20274
   20268      24   20274   20271      25   20280   20277      24   20283   20277
      24   20283   20280      25   20289   20286      24   20292   20286      24
   20292   20289      25   20298   20295      24   20301   20295      24   20301
   20298      25   20307   20304      24   20310   20304      24   20310   20307
      25   20316   20313      24   20319   20313      24   20319   20316      25
   20325   20322      24   20328   20322      24   20328   20325      25   20334
   20331      24   20337   20331      24   20337   20334      25   20343   20340
      24   20346   20340      24   20346   20343      25   20352   20349      24
   20355   20349      24   20355   20352      25   20361   20358      24   20364
   20358      24   20364   20361      25   20370   20367      24   20373   20367
      24   20373   20370      25   20379   20376      24   20382   20376      24
   20382   20379      25   20388   20385      24   20391   20385      24   20391
   20388      25   20397   20394      24   20400   20394      24   20400   20397
      25   20406   20403      24   20409   20403      24   20409   20406      25
   20415   20412      24   20418   20412      24   20418   20415      25   20424
   20421      24   20427   20421      24   20427   20424      25   20433   20430
      24   20436   20430      24   20436   20433      25   20442   20439      24
   20445   20439      24   20445   20442      25   20451   20448      24   20454
   20448      24   20454   20451      25   20460   20457      24   20463   20457
      24   20463   20460      25   20469   20466      24   20472   20466      24
   20472   20469      25   20478   20475      24   20481   20475      24   20481
   20478      25   20487   20484      24   20490   20484      24   20490   20487
      25   20496   20493      24   20499   20493      24   20499   20496      25
   20505   20502      24   20508   20502      24   20508   20505      25   20514
   20511      24   20517   20511      24   20517   20514      25   20523   20520
      24   20526   20520      24   20526   20523      25   20532   20529      24
   20535   20529      24   20535   20532      25   20541   20538      24   20544
   20538      24   20544   20541      25   20550   20547      24   20553   20547
      24   20553   20550      25   20559   20556      24   20562   20556      24
   20562   20559      25   20568   20565      24   20571   20565      24   20571
   20568      25   20577   20574      24   20580   20574      24   20580   20577
      25   20586   20583      24   20589   20583      24   20589   20586      25
   20595   20592      24   20598   20592      24   20598   20595      25   20604
   20601      24   20607   20601      24   20607   20604      25   20613   20610
      24   20616   20610      24   20616   20613      25   20622   20619      24
   20625   20619      24   20625   20622      25   20631   20628      24   20634
   20628      24   20634   20631      25   20640   20637      24   20643   20637
      24   20643   20640      25   20649   20646      24   20652   20646      24
   20652   20649      25   20658   20655      24   20661   20655      24   20661
   20658      25   20667   20664      24   20670   20664      24   20670   20667
      25   20676   20673      24   20679   20673      24   20679   20676      25
   20685   20682      24   20688   20682      24   20688   20685      25   20694
   20691      24   20697   20691      24   20697   20694      25   20703   20700
      24   20706   20700      24   20706   20703      25   20712   20709      24
   20715   20709      24   20715   20712      25   20721   20718      24   20724
   20718      24   20724   20721      25   20730   20727      24   20733   20727
      24   20733   20730      25   20739   20736      24   20742   20736      24
   20742   20739      25   20748   20745      24   20751   20745      24   20751
   20748      25   20757   20754      24   20760   20754      24   20760   20757
      25   20766   20763      24   20769   20763      24   20769   20766      25
   20775   20772      24   20778   20772      24   20778   20775      25   20784
   20781      24   20787   20781      24   20787   20784      25   20793   20790
      24   20796   20790      24   20796   20793      25   20802   20799      24
   20805   20799      24   20805   20802      25   20811   20808      24   20814
   20808      24   20814   20811      25   20820   20817      24   20823   20817
      24   20823   20820      25   20829   20826      24   20832   20826      24
   20832   20829      25   20838   20835      24   20841   20835      24   20841
   20838      25   20847   20844      24   20850   20844      24   20850   20847
      25   20856   20853      24   20859   20853      24   20859   20856      25
   20865   20862      24   20868   20862      24   20868   20865      25   20874
   20871      24   20877   20871      24   20877   20874      25   20883   20880
      24   20886   20880      24   20886   20883      25   20892   20889      24
   20895   20889      24   20895   20892      25   20901   20898      24   20904
   20898      24   20904   20901      25   20910   20907      24   20913   20907
      24   20913   20910      25   20919   20916      24   20922   20916      24
   20922   20919      25   20928   20925      24   20931   20925      24   20931
   20928      25   20937   20934      24   20940   20934      24   20940   20937
      25   20946   20943      24   20949   20943      24   20949   20946      25
   20955   20952      24   20958   20952      24   20958   20955      25   20964
   20961      24   20967   20961      24   20967   20964      25   20973   20970
      24   20976   20970      24   20976   20973      25   20982   20979      24
   20985   20979      24   20985   20982      25   20991   20988      24   20994
   20988      24   20994   20991      25   21000   20997      24   21003   20997
      24   21003   21000      25   21009   21006      24   21012   21006      24
   21012   21009      25   21018   21015      24   21021   21015      24   21021
   21018      25   21027   21024      24   21030   21024      24   21030   21027
      25   21036   21033      24   21039   21033      24   21039   21036      25
   21045   21042      24   21048   21042      24   21048   21045      25   21054
   21051      24   21057   21051      24   21057   21054      25   21063   21060
      24   21066   21060      24   21066   21063      25   21072   21069      24
   21075   21069      24   21075   21072      25   21081   21078      24   21084
   21078      24   21084   21081      25   21090   21087      24   21093   21087
      24   21093   21090      25   21099   21096      24   21102   21096      24
   21102   21099      25   21108   21105      24   21111   21105      24   21111
   21108      25   21117   21114      24   21120   21114      24   21120   21117
      25   21126   21123      24   21129   21123      24   21129   21126      25
   21135   21132      24   21138   21132      24   21138   21135      25   21144
   21141      24   21147   21141      24   21147   21144      25   21153   21150
      24   21156   21150      24   21156   21153      25   21162   21159      24
   21165   21159      24   21165   21162      25   21171   21168      24   21174
   21168      24   21174   21171      25   21180   21177      24   21183   21177
      24   21183   21180      25   21189   21186      24   21192   21186      24
   21192   21189      25   21198   21195      24   21201   21195      24   21201
   21198      25   21207   21204      24   21210   21204      24   21210   21207
      25   21216   21213      24   21219   21213      24   21219   21216      25
   21225   21222      24   21228   21222      24   21228   21225      25   21234
   21231      24   21237   21231      24   21237   21234      25   21243   21240
      24   21246   21240      24   21246   21243      25   21252   21249      24
   21255   21249      24   21255   21252      25   21261   21258      24   21264
   21258      24   21264   21261      25   21270   21267      24   21273   21267
      24   21273   21270      25   21279   21276      24   21282   21276      24
   21282   21279      25   21288   21285      24   21291   21285      24   21291
   21288      25   21297   21294      24   21300   21294      24   21300   21297
      25   21306   21303      24   21309   21303      24   21309   21306      25
   21315   21312      24   21318   21312      24   21318   21315      25   21324
   21321      24   21327   21321      24   21327   21324      25   21333   21330
      24   21336   21330      24   21336   21333      25   21342   21339      24
   21345   21339      24   21345   21342      25   21351   21348      24   21354
   21348      24   21354   21351      25   21360   21357      24   21363   21357
      24   21363   21360      25   21369   21366      24   21372   21366      24
   21372   21369      25   21378   21375      24   21381   21375      24   21381
   21378      25   21387   21384      24   21390   21384      24   21390   21387
      25   21396   21393      24   21399   21393      24   21399   21396      25
   21405   21402      24   21408   21402      24   21408   21405      25   21414
   21411      24   21417   21411      24   21417   21414      25   21423   21420
      24   21426   21420      24   21426   21423      25   21432   21429      24
   21435   21429      24   21435   21432      25   21441   21438      24   21444
   21438      24   21444   21441      25   21450   21447      24   21453   21447
      24   21453   21450      25   21459   21456      24   21462   21456      24
   21462   21459      25   21468   21465      24   21471   21465      24   21471
   21468      25   21477   21474      24   21480   21474      24   21480   21477
      25   21486   21483      24   21489   21483      24   21489   21486      25
   21495   21492      24   21498   21492      24   21498   21495      25   21504
   21501      24   21507   21501      24   21507   21504      25   21513   21510
      24   21516   21510      24   21516   21513      25   21522   21519      24
   21525   21519      24   21525   21522      25   21531   21528      24   21534
   21528      24   21534   21531      25   21540   21537      24   21543   21537
      24   21543   21540      25   21549   21546      24   21552   21546      24
   21552   21549      25   21558   21555      24   21561   21555      24   21561
   21558      25   21567   21564      24   21570   21564      24   21570   21567
      25   21576   21573      24   21579   21573      24   21579   21576      25
   21585   21582      24   21588   21582      24   21588   21585      25   21594
   21591      24   21597   21591      24   21597   21594      25   21603   21600
      24   21606   21600      24   21606   21603      25   21612   21609      24
   21615   21609      24   21615   21612      25   21621   21618      24   21624
   21618      24   21624   21621      25   21630   21627      24   21633   21627
      24   21633   21630      25   21639   21636      24   21642   21636      24
   21642   21639      25   21648   21645      24   21651   21645      24   21651
   21648      25   21657   21654      24   21660   21654      24   21660   21657
      25   21666   21663      24   21669   21663      24   21669   21666      25
   21675   21672      24   21678   21672      24   21678   21675      25   21684
   21681      24   21687   21681      24   21687   21684      25   21693   21690
      24   21696   21690      24   21696   21693      25   21702   21699      24
   21705   21699      24   21705   21702      25   21711   21708      24   21714
   21708      24   21714   21711      25   21720   21717      24   21723   21717
      24   21723   21720      25   21729   21726      24   21732   21726      24
   21732   21729      25   21738   21735      24   21741   21735      24   21741
   21738      25   21747   21744      24   21750   21744      24   21750   21747
      25   21756   21753      24   21759   21753      24   21759   21756      25
   21765   21762      24   21768   21762      24   21768   21765      25   21774
   21771      24   21777   21771      24   21777   21774      25   21783   21780
      24   21786   21780      24   21786   21783      25   21792   21789      24
   21795   21789      24   21795   21792      25   21801   21798      24   21804
   21798      24   21804   21801      25   21810   21807      24   21813   21807
      24   21813   21810      25   21819   21816      24   21822   21816      24
   21822   21819      25   21828   21825      24   21831   21825      24   21831
   21828      25   21837   21834      24   21840   21834      24   21840   21837
      25   21846   21843      24   21849   21843      24   21849   21846      25
   21855   21852      24   21858   21852      24   21858   21855      25   21864
   21861      24   21867   21861      24   21867   21864      25   21873   21870
      24   21876   21870      24   21876   21873      25   21882   21879      24
   21885   21879      24   21885   21882      25   21891   21888      24   21894
   21888      24   21894   21891      25   21900   21897      24   21903   21897
      24   21903   21900      25   21909   21906      24   21912   21906      24
   21912   21909      25   21918   21915      24   21921   21915      24   21921
   21918      25   21927   21924      24   21930   21924      24   21930   21927
      25   21936   21933      24   21939   21933      24   21939   21936      25
   21945   21942      24   21948   21942      24   21948   21945      25   21954
   21951      24   21957   21951      24   21957   21954      25   21963   21960
      24   21966   21960      24   21966   21963      25   21972   21969      24
   21975   21969      24   21975   21972      25   21981   21978      24   21984
   21978      24   21984   21981      25   21990   21987      24   21993   21987
      24   21993   21990      25   21999   21996      24   22002   21996      24
   22002   21999      25   22008   22005      24   22011   22005      24   22011
   22008      25   22017   22014      24   22020   22014      24   22020   22017
      25   22026   22023      24   22029   22023      24   22029   22026      25
   22035   22032      24   22038   22032      24   22038   22035      25   22044
   22041      24   22047   22041      24   22047   22044      25   22053   22050
      24   22056   22050      24   22056   22053      25   22062   22059      24
   22065   22059      24   22065   22062      25   22071   22068      24   22074
   22068      24   22074   22071      25   22080   22077      24   22083   22077
      24   22083   22080      25   22089   22086      24   22092   22086      24
   22092   22089      25   22098   22095      24   22101   22095      24   22101
   22098      25   22107   22104      24   22110   22104      24   22110   22107
      25   22116   22113      24   22119   22113      24   22119   22116      25
   22125   22122      24   22128   22122      24   22128   22125      25   22134
   22131      24   22137   22131      24   22137   22134      25   22143   22140
      24   22146   22140      24   22146   22143      25   22152   22149      24
   22155   22149      24   22155   22152      25   22161   22158      24   22164
   22158      24   22164   22161      25   22170   22167      24   22173   22167
      24   22173   22170      25   22179   22176      24   22182   22176      24
   22182   22179      25   22188   22185      24   22191   22185      24   22191
   22188      25   22197   22194      24   22200   22194      24   22200   22197
      25   22206   22203      24   22209   22203      24   22209   22206      25
   22215   22212      24   22218   22212      24   22218   22215      25   22224
   22221      24   22227   22221      24   22227   22224      25   22233   22230
      24   22236   22230      24   22236   22233      25   22242   22239      24
   22245   22239      24   22245   22242      25   22251   22248      24   22254
   22248      24   22254   22251      25   22260   22257      24   22263   22257
      24   22263   22260      25   22269   22266      24   22272   22266      24
   22272   22269      25   22278   22275      24   22281   22275      24   22281
   22278      25   22287   22284      24   22290   22284      24   22290   22287
      25   22296   22293      24   22299   22293      24   22299   22296      25
   22305   22302      24   22308   22302      24   22308   22305      25   22314
   22311      24   22317   22311      24   22317   22314      25   22323   22320
      24   22326   22320      24   22326   22323      25   22332   22329      24
   22335   22329      24   22335   22332      25   22341   22338      24   22344
   22338      24   22344   22341      25   22350   22347      24   22353   22347
      24   22353   22350      25   22359   22356      24   22362   22356      24
   22362   22359      25   22368   22365      24   22371   22365      24   22371
   22368      25   22377   22374      24   22380   22374      24   22380   22377
      25   22386   22383      24   22389   22383      24   22389   22386      25
   22395   22392      24   22398   22392      24   22398   22395      25   22404
   22401      24   22407   22401      24   22407   22404      25   22413   22410
      24   22416   22410      24   22416   22413      25   22422   22419      24
   22425   22419      24   22425   22422      25   22431   22428      24   22434
   22428      24   22434   22431      25   22440   22437      24   22443   22437
      24   22443   22440      25   22449   22446      24   22452   22446      24
   22452   22449      25   22458   22455      24   22461   22455      24   22461
   22458      25   22467   22464      24   22470   22464      24   22470   22467
      25   22476   22473      24   22479   22473      24   22479   22476      25
   22485   22482      24   22488   22482      24   22488   22485      25   22494
   22491      24   22497   22491      24   22497   22494      25   22503   22500
      24   22506   22500      24   22506   22503      25   22512   22509      24
   22515   22509      24   22515   22512      25   22521   22518      24   22524
   22518      24   22524   22521      25   22530   22527      24   22533   22527
      24   22533   22530      25   22539   22536      24   22542   22536      24
   22542   22539      25   22548   22545      24   22551   22545      24   22551
   22548      25   22557   22554      24   22560   22554      24   22560   22557
      25   22566   22563      24   22569   22563      24   22569   22566      25
   22575   22572      24   22578   22572      24   22578   22575      25   22584
   22581      24   22587   22581      24   22587   22584      25   22593   22590
      24   22596   22590      24   22596   22593      25   22602   22599      24
   22605   22599      24   22605   22602      25   22611   22608      24   22614
   22608      24   22614   22611      25   22620   22617      24   22623   22617
      24   22623   22620      25   22629   22626      24   22632   22626      24
   22632   22629      25   22638   22635      24   22641   22635      24   22641
   22638      25   22647   22644      24   22650   22644      24   22650   22647
      25   22656   22653      24   22659   22653      24   22659   22656      25
   22665   22662      24   22668   22662      24   22668   22665      25   22674
   22671      24   22677   22671      24   22677   22674      25   22683   22680
      24   22686   22680      24   22686   22683      25   22692   22689      24
   22695   22689      24   22695   22692      25   22701   22698      24   22704
   22698      24   22704   22701      25   22710   22707      24   22713   22707
      24   22713   22710      25   22719   22716      24   22722   22716      24
   22722   22719      25   22728   22725      24   22731   22725      24   22731
   22728      25   22737   22734      24   22740   22734      24   22740   22737
      25   22746   22743      24   22749   22743      24   22749   22746      25
   22755   22752      24   22758   22752      24   22758   22755      25   22764
   22761      24   22767   22761      24   22767   22764      25   22773   22770
      24   22776   22770      24   22776   22773      25   22782   22779      24
   22785   22779      24   22785   22782      25   22791   22788      24   22794
   22788      24   22794   22791      25   22800   22797      24   22803   22797
      24   22803   22800      25   22809   22806      24   22812   22806      24
   22812   22809      25   22818   22815      24   22821   22815      24   22821
   22818      25   22827   22824      24   22830   22824      24   22830   22827
      25   22836   22833      24   22839   22833      24   22839   22836      25
   22845   22842      24   22848   22842      24   22848   22845      25   22854
   22851      24   22857   22851      24   22857   22854      25   22863   22860
      24   22866   22860      24   22866   22863      25   22872   22869      24
   22875   22869      24   22875   22872      25   22881   22878      24   22884
   22878      24   22884   22881      25   22890   22887      24   22893   22887
      24   22893   22890      25   22899   22896      24   22902   22896      24
   22902   22899      25   22908   22905      24   22911   22905      24   22911
   22908      25   22917   22914      24   22920   22914      24   22920   22917
      25   22926   22923      24   22929   22923      24   22929   22926      25
   22935   22932      24   22938   22932      24   22938   22935      25   22944
   22941      24   22947   22941      24   22947   22944      25   22953   22950
      24   22956   22950      24   22956   22953      25   22962   22959      24
   22965   22959      24   22965   22962      25   22971   22968      24   22974
   22968      24   22974   22971      25   22980   22977      24   22983   22977
      24   22983   22980      25   22989   22986      24   22992   22986      24
   22992   22989      25   22998   22995      24   23001   22995      24   23001
   22998      25   23007   23004      24   23010   23004      24   23010   23007
      25   23016   23013      24   23019   23013      24   23019   23016      25
   23025   23022      24   23028   23022      24   23028   23025      25   23034
   23031      24   23037   23031      24   23037   23034      25   23043   23040
      24   23046   23040      24   23046   23043      25   23052   23049      24
   23055   23049      24   23055   23052      25   23061   23058      24   23064
   23058      24   23064   23061      25   23070   23067      24   23073   23067
      24   23073   23070      25   23079   23076      24   23082   23076      24
   23082   23079      25   23088   23085      24   23091   23085      24   23091
   23088      25   23097   23094      24   23100   23094      24   23100   23097
      25   23106   23103      24   23109   23103      24   23109   23106      25
   23115   23112      24   23118   23112      24   23118   23115      25   23124
   23121      24   23127   23121      24   23127   23124      25   23133   23130
      24   23136   23130      24   23136   23133      25   23142   23139      24
   23145   23139      24   23145   23142      25   23151   23148      24   23154
   23148      24   23154   23151      25   23160   23157      24   23163   23157
      24   23163   23160      25   23169   23166      24   23172   23166      24
   23172   23169      25   23178   23175      24   23181   23175      24   23181
   23178      25   23187   23184      24   23190   23184      24   23190   23187
      25   23196   23193      24   23199   23193      24   23199   23196      25
   23205   23202      24   23208   23202      24   23208   23205      25   23214
   23211      24   23217   23211      24   23217   23214      25   23223   23220
      24   23226   23220      24   23226   23223      25   23232   23229      24
   23235   23229      24   23235   23232      25   23241   23238      24   23244
   23238      24   23244   23241      25   23250   23247      24   23253   23247
      24   23253   23250      25   23259   23256      24   23262   23256      24
   23262   23259      25   23268   23265      24   23271   23265      24   23271
   23268      25   23277   23274      24   23280   23274      24   23280   23277
      25   23286   23283      24   23289   23283      24   23289   23286      25
   23295   23292      24   23298   23292      24   23298   23295      25   23304
   23301      24   23307   23301      24   23307   23304      25   23313   23310
      24   23316   23310      24   23316   23313      25   23322   23319      24
   23325   23319      24   23325   23322      25   23331   23328      24   23334
   23328      24   23334   23331      25   23340   23337      24   23343   23337
      24   23343   23340      25   23349   23346      24   23352   23346      24
   23352   23349      25   23358   23355      24   23361   23355      24   23361
   23358      25   23367   23364      24   23370   23364      24   23370   23367
      25   23376   23373      24   23379   23373      24   23379   23376      25
   23385   23382      24   23388   23382      24   23388   23385      25   23394
   23391      24   23397   23391      24   23397   23394      25   23403   23400
      24   23406   23400      24   23406   23403      25   23412   23409      24
   23415   23409      24   23415   23412      25   23421   23418      24   23424
   23418      24   23424   23421      25   23430   23427      24   23433   23427
      24   23433   23430      25   23439   23436      24   23442   23436      24
   23442   23439      25   23448   23445      24   23451   23445      24   23451
   23448      25   23457   23454      24   23460   23454      24   23460   23457
      25   23466   23463      24   23469   23463      24   23469   23466      25
   23475   23472      24   23478   23472      24   23478   23475      25   23484
   23481      24   23487   23481      24   23487   23484      25   23493   23490
      24   23496   23490      24   23496   23493      25   23502   23499      24
   23505   23499      24   23505   23502      25   23511   23508      24   23514
   23508      24   23514   23511      25   23520   23517      24   23523   23517
      24   23523   23520      25   23529   23526      24   23532   23526      24
   23532   23529      25   23538   23535      24   23541   23535      24   23541
   23538      25   23547   23544      24   23550   23544      24   23550   23547
      25   23556   23553      24   23559   23553      24   23559   23556      25
   23565   23562      24   23568   23562      24   23568   23565      25   23574
   23571      24   23577   23571      24   23577   23574      25   23583   23580
      24   23586   23580      24   23586   23583      25   23592   23589      24
   23595   23589      24   23595   23592      25   23601   23598      24   23604
   23598      24   23604   23601      25   23610   23607      24   23613   23607
      24   23613   23610      25   23619   23616      24   23622   23616      24
   23622   23619      25   23628   23625      24   23631   23625      24   23631
   23628      25   23637   23634      24   23640   23634      24   23640   23637
      25   23646   23643      24   23649   23643      24   23649   23646      25
   23655   23652      24   23658   23652      24   23658   23655      25   23664
   23661      24   23667   23661      24   23667   23664      25   23673   23670
      24   23676   23670      24   23676   23673      25   23682   23679      24
   23685   23679      24   23685   23682      25   23691   23688      24   23694
   23688      24   23694   23691      25   23700   23697      24   23703   23697
      24   23703   23700      25   23709   23706      24   23712   23706      24
   23712   23709      25   23718   23715      24   23721   23715      24   23721
   23718      25   23727   23724      24   23730   23724      24   23730   23727
      25   23736   23733      24   23739   23733      24   23739   23736      25
   23745   23742      24   23748   23742      24   23748   23745      25   23754
   23751      24   23757   23751      24   23757   23754      25   23763   23760
      24   23766   23760      24   23766   23763      25   23772   23769      24
   23775   23769      24   23775   23772      25   23781   23778      24   23784
   23778      24   23784   23781      25   23790   23787      24   23793   23787
      24   23793   23790      25   23799   23796      24   23802   23796      24
   23802   23799      25   23808   23805      24   23811   23805      24   23811
   23808      25   23817   23814      24   23820   23814      24   23820   23817
      25   23826   23823      24   23829   23823      24   23829   23826      25
   23835   23832      24   23838   23832      24   23838   23835      25   23844
   23841      24   23847   23841      24   23847   23844      25   23853   23850
      24   23856   23850      24   23856   23853      25   23862   23859      24
   23865   23859      24   23865   23862      25   23871   23868      24   23874
   23868      24   23874   23871      25   23880   23877      24   23883   23877
      24   23883   23880      25   23889   23886      24   23892   23886      24
   23892   23889      25   23898   23895      24   23901   23895      24   23901
   23898      25   23907   23904      24   23910   23904      24   23910   23907
      25   23916   23913      24   23919   23913      24   23919   23916      25
   23925   23922      24   23928   23922      24   23928   23925      25   23934
   23931      24   23937   23931      24   23937   23934      25   23943   23940
      24   23946   23940      24   23946   23943      25   23952   23949      24
   23955   23949      24   23955   23952      25   23961   23958      24   23964
   23958      24   23964   23961      25   23970   23967      24   23973   23967
      24   23973   23970      25   23979   23976      24   23982   23976      24
   23982   23979      25   23988   23985      24   23991   23985      24   23991
   23988      25   23997   23994      24   24000   23994      24   24000   23997
      25   24006   24003      24   24009   24003      24   24009   24006      25
   24015   24012      24   24018   24012      24   24018   24015      25   24024
   24021      24   24027   24021      24   24027   24024      25   24033   24030
      24   24036   24030      24   24036   24033      25   24042   24039      24
   24045   24039      24   24045   24042      25   24051   24048      24   24054
   24048      24   24054   24051      25   24060   24057      24   24063   24057
      24   24063   24060      25   24069   24066      24   24072   24066      24
   24072   24069      25   24078   24075      24   24081   24075      24   24081
   24078      25   24087   24084      24   24090   24084      24   24090   24087
      25   24096   24093      24   24099   24093      24   24099   24096      25
   24105   24102      24   24108   24102      24   24108   24105      25   24114
   24111      24   24117   24111      24   24117   24114      25   24123   24120
      24   24126   24120      24   24126   24123      25   24132   24129      24
   24135   24129      24   24135   24132      25   24141   24138      24   24144
   24138      24   24144   24141      25   24150   24147      24   24153   24147
      24   24153   24150      25   24159   24156      24   24162   24156      24
   24162   24159      25   24168   24165      24   24171   24165      24   24171
   24168      25   24177   24174      24   24180   24174      24   24180   24177
      25   24186   24183      24   24189   24183      24   24189   24186      25
   24195   24192      24   24198   24192      24   24198   24195      25   24204
   24201      24   24207   24201      24   24207   24204      25   24213   24210
      24   24216   24210      24   24216   24213      25   24222   24219      24
   24225   24219      24   24225   24222      25   24231   24228      24   24234
   24228      24   24234   24231      25   24240   24237      24   24243   24237
      24   24243   24240      25   24249   24246      24   24252   24246      24
   24252   24249      25   24258   24255      24   24261   24255      24   24261
   24258      25   24267   24264      24   24270   24264      24   24270   24267
      25   24276   24273      24   24279   24273      24   24279   24276      25
   24285   24282      24   24288   24282      24   24288   24285      25   24294
   24291      24   24297   24291      24   24297   24294      25   24303   24300
      24   24306   24300      24   24306   24303      25   24312   24309      24
   24315   24309      24   24315   24312      25   24321   24318      24   24324
   24318      24   24324   24321      25   24330   24327      24   24333   24327
      24   24333   24330      25   24339   24336      24   24342   24336      24
   24342   24339      25   24348   24345      24   24351   24345      24   24351
   24348      25   24357   24354      24   24360   24354      24   24360   24357
      25   24366   24363      24   24369   24363      24   24369   24366      25
   24375   24372      24   24378   24372      24   24378   24375      25   24384
   24381      24   24387   24381      24   24387   24384      25   24393   24390
      24   24396   24390      24   24396   24393      25   24402   24399      24
   24405   24399      24   24405   24402      25   24411   24408      24   24414
   24408      24   24414   24411      25   24420   24417      24   24423   24417
      24   24423   24420      25   24429   24426      24   24432   24426      24
   24432   24429      25   24438   24435      24   24441   24435      24   24441
   24438      25   24447   24444      24   24450   24444      24   24450   24447
      25   24456   24453      24   24459   24453      24   24459   24456      25
   24465   24462      24   24468   24462      24   24468   24465      25   24474
   24471      24   24477   24471      24   24477   24474      25   24483   24480
      24   24486   24480      24   24486   24483      25   24492   24489      24
   24495   24489      24   24495   24492      25   24501   24498      24   24504
   24498      24   24504   24501      25   24510   24507      24   24513   24507
      24   24513   24510      25   24519   24516      24   24522   24516      24
   24522   24519      25   24528   24525      24   24531   24525      24   24531
   24528      25   24537   24534      24   24540   24534      24   24540   24537
      25   24546   24543      24   24549   24543      24   24549   24546      25
   24555   24552      24   24558   24552      24   24558   24555      25   24564
   24561      24   24567   24561      24   24567   24564      25   24573   24570
      24   24576   24570      24   24576   24573      25   24582   24579      24
   24585   24579      24   24585   24582      25   24591   24588      24   24594
   24588      24   24594   24591      25   24600   24597      24   24603   24597
      24   24603   24600      25   24609   24606      24   24612   24606      24
   24612   24609      25   24618   24615      24   24621   24615      24   24621
   24618      25   24627   24624      24   24630   24624      24   24630   24627
      25   24636   24633      24   24639   24633      24   24639   24636      25
   24645   24642      24   24648   24642      24   24648   24645      25   24654
   24651      24   24657   24651      24   24657   24654      25   24663   24660
      24   24666   24660      24   24666   24663      25   24672   24669      24
   24675   24669      24   24675   24672      25   24681   24678      24   24684
   24678      24   24684   24681      25   24690   24687      24   24693   24687
      24   24693   24690      25   24699   24696      24   24702   24696      24
   24702   24699      25   24708   24705      24   24711   24705      24   24711
   24708      25   24717   24714      24   24720   24714      24   24720   24717
      25   24726   24723      24   24729   24723      24   24729   24726      25
   24735   24732      24   24738   24732      24   24738   24735      25   24744
   24741      24   24747   24741      24   24747   24744      25   24753   24750
      24   24756   24750      24   24756   24753      25   24762   24759      24
   24765   24759      24   24765   24762      25   24771   24768      24   24774
   24768      24   24774   24771      25   24780   24777      24   24783   24777
      24   24783   24780      25   24789   24786      24   24792   24786      24
   24792   24789      25   24798   24795      24   24801   24795      24   24801
   24798      25   24807   24804      24   24810   24804      24   24810   24807
      25   24816   24813      24   24819   24813      24   24819   24816      25
   24825   24822      24   24828   24822      24   24828   24825      25   24834
   24831      24   24837   24831      24   24837   24834      25   24843   24840
      24   24846   24840      24   24846   24843      25   24852   24849      24
   24855   24849      24   24855   24852      25   24861   24858      24   24864
   24858      24   24864   24861      25   24870   24867      24   24873   24867
      24   24873   24870      25   24879   24876      24   24882   24876      24
   24882   24879      25   24888   24885      24   24891   24885      24   24891
   24888      25   24897   24894      24   24900   24894      24   24900   24897
      25   24906   24903      24   24909   24903      24   24909   24906      25
   24915   24912      24   24918   24912      24   24918   24915      25   24924
   24921      24   24927   24921      24   24927   24924      25   24933   24930
      24   24936   24930      24   24936   24933      25   24942   24939      24
   24945   24939      24   24945   24942      25   24951   24948      24   24954
   24948      24   24954   24951      25   24960   24957      24   24963   24957
      24   24963   24960      25   24969   24966      24   24972   24966      24
   24972   24969      25   24978   24975      24   24981   24975      24   24981
   24978      25   24987   24984      24   24990   24984      24   24990   24987
      25   24996   24993      24   24999   24993      24   24999   24996      25
   25005   25002      24   25008   25002      24   25008   25005      25   25014
   25011      24   25017   25011      24   25017   25014      25   25023   25020
      24   25026   25020      24   25026   25023      25   25032   25029      24
   25035   25029      24   25035   25032      25   25041   25038      24   25044
   25038      24   25044   25041      25   25050   25047      24   25053   25047
      24   25053   25050      25   25059   25056      24   25062   25056      24
   25062   25059      25   25068   25065      24   25071   25065      24   25071
   25068      25   25077   25074      24   25080   25074      24   25080   25077
      25   25086   25083      24   25089   25083      24   25089   25086      25
   25095   25092      24   25098   25092      24   25098   25095      25   25104
   25101      24   25107   25101      24   25107   25104      25   25113   25110
      24   25116   25110      24   25116   25113      25   25122   25119      24
   25125   25119      24   25125   25122      25   25131   25128      24   25134
   25128      24   25134   25131      25   25140   25137      24   25143   25137
      24   25143   25140      25   25149   25146      24   25152   25146      24
   25152   25149      25   25158   25155      24   25161   25155      24   25161
   25158      25   25167   25164      24   25170   25164      24   25170   25167
      25   25176   25173      24   25179   25173      24   25179   25176      25
   25185   25182      24   25188   25182      24   25188   25185      25   25194
   25191      24   25197   25191      24   25197   25194      25   25203   25200
      24   25206   25200      24   25206   25203      25   25212   25209      24
   25215   25209      24   25215   25212      25   25221   25218      24   25224
   25218      24   25224   25221      25   25230   25227      24   25233   25227
      24   25233   25230      25   25239   25236      24   25242   25236      24
   25242   25239      25   25248   25245      24   25251   25245      24   25251
   25248      25   25257   25254      24   25260   25254      24   25260   25257
      25   25266   25263      24   25269   25263      24   25269   25266      25
   25275   25272      24   25278   25272      24   25278   25275      25   25284
   25281      24   25287   25281      24   25287   25284      25   25293   25290
      24   25296   25290      24   25296   25293      25   25302   25299      24
   25305   25299      24   25305   25302      25   25311   25308      24   25314
   25308      24   25314   25311      25   25320   25317      24   25323   25317
      24   25323   25320      25   25329   25326      24   25332   25326      24
   25332   25329      25   25338   25335      24   25341   25335      24   25341
   25338      25   25347   25344      24   25350   25344      24   25350   25347
      25   25356   25353      24   25359   25353      24   25359   25356      25
   25365   25362      24   25368   25362      24   25368   25365      25   25374
   25371      24   25377   25371      24   25377   25374      25   25383   25380
      24   25386   25380      24   25386   25383      25   25392   25389      24
   25395   25389      24   25395   25392      25   25401   25398      24   25404
   25398      24   25404   25401      25   25410   25407      24   25413   25407
      24   25413   25410      25   25419   25416      24   25422   25416      24
   25422   25419      25   25428   25425      24   25431   25425      24   25431
   25428      25   25437   25434      24   25440   25434      24   25440   25437
      25   25446   25443      24   25449   25443      24   25449   25446      25
   25455   25452      24   25458   25452      24   25458   25455      25   25464
   25461      24   25467   25461      24   25467   25464      25   25473   25470
      24   25476   25470      24   25476   25473      25   25482   25479      24
   25485   25479      24   25485   25482      25   25491   25488      24   25494
   25488      24   25494   25491      25   25500   25497      24   25503   25497
      24   25503   25500      25   25509   25506      24   25512   25506      24
   25512   25509      25   25518   25515      24   25521   25515      24   25521
   25518      25   25527   25524      24   25530   25524      24   25530   25527
      25   25536   25533      24   25539   25533      24   25539   25536      25
   25545   25542      24   25548   25542      24   25548   25545      25   25554
   25551      24   25557   25551      24   25557   25554      25   25563   25560
      24   25566   25560      24   25566   25563      25   25572   25569      24
   25575   25569      24   25575   25572      25   25581   25578      24   25584
   25578      24   25584   25581      25   25590   25587      24   25593   25587
      24   25593   25590      25   25599   25596      24   25602   25596      24
   25602   25599      25   25608   25605      24   25611   25605      24   25611
   25608      25   25617   25614      24   25620   25614      24   25620   25617
      25   25626   25623      24   25629   25623      24   25629   25626      25
   25635   25632      24   25638   25632      24   25638   25635      25   25644
   25641      24   25647   25641      24   25647   25644      25   25653   25650
      24   25656   25650      24   25656   25653      25   25662   25659      24
   25665   25659      24   25665   25662      25   25671   25668      24   25674
   25668      24   25674   25671      25   25680   25677      24   25683   25677
      24   25683   25680      25   25689   25686      24   25692   25686      24
   25692   25689      25   25698   25695      24   25701   25695      24   25701
   25698      25   25707   25704      24   25710   25704      24   25710   25707
      25   25716   25713      24   25719   25713      24   25719   25716      25
   25725   25722      24   25728   25722      24   25728   25725      25   25734
   25731      24   25737   25731      24   25737   25734      25   25743   25740
      24   25746   25740      24   25746   25743      25   25752   25749      24
   25755   25749      24   25755   25752      25   25761   25758      24   25764
   25758      24   25764   25761      25   25770   25767      24   25773   25767
      24   25773   25770      25   25779   25776      24   25782   25776      24
   25782   25779      25   25788   25785      24   25791   25785      24   25791
   25788      25   25797   25794      24   25800   25794      24   25800   25797
      25   25806   25803      24   25809   25803      24   25809   25806      25
   25815   25812      24   25818   25812      24   25818   25815      25   25824
   25821      24   25827   25821      24   25827   25824      25   25833   25830
      24   25836   25830      24   25836   25833      25   25842   25839      24
   25845   25839      24   25845   25842      25   25851   25848      24   25854
   25848      24   25854   25851      25   25860   25857      24   25863   25857
      24   25863   25860      25   25869   25866      24   25872   25866      24
   25872   25869      25   25878   25875      24   25881   25875      24   25881
   25878      25   25887   25884      24   25890   25884      24   25890   25887
      25   25896   25893      24   25899   25893      24   25899   25896      25
   25905   25902      24   25908   25902      24   25908   25905      25   25914
   25911      24   25917   25911      24   25917   25914      25   25923   25920
      24   25926   25920      24   25926   25923      25   25932   25929      24
   25935   25929      24   25935   25932      25   25941   25938      24   25944
   25938      24   25944   25941      25   25950   25947      24   25953   25947
      24   25953   25950      25   25959   25956      24   25962   25956      24
   25962   25959      25   25968   25965      24   25971   25965      24   25971
   25968      25   25977   25974      24   25980   25974      24   25980   25977
      25   25986   25983      24   25989   25983      24   25989   25986      25
   25995   25992      24   25998   25992      24   25998   25995      25   26004
   26001      24   26007   26001      24   26007   26004      25   26013   26010
      24   26016   26010      24   26016   26013      25   26022   26019      24
   26025   26019      24   26025   26022      25   26031   26028      24   26034
   26028      24   26034   26031      25   26040   26037      24   26043   26037
      24   26043   26040      25   26049   26046      24   26052   26046      24
   26052   26049      25   26058   26055      24   26061   26055      24   26061
   26058      25   26067   26064      24   26070   26064      24   26070   26067
      25   26076   26073      24   26079   26073      24   26079   26076      25
   26085   26082      24   26088   26082      24   26088   26085      25   26094
   26091      24   26097   26091      24   26097   26094      25   26103   26100
      24   26106   26100      24   26106   26103      25   26112   26109      24
   26115   26109      24   26115   26112      25   26121   26118      24   26124
   26118      24   26124   26121      25   26130   26127      24   26133   26127
      24   26133   26130      25   26139   26136      24   26142   26136      24
   26142   26139      25   26148   26145      24   26151   26145      24   26151
   26148      25   26157   26154      24   26160   26154      24   26160   26157
      25   26166   26163      24   26169   26163      24   26169   26166      25
   26175   26172      24   26178   26172      24   26178   26175      25   26184
   26181      24   26187   26181      24   26187   26184      25   26193   26190
      24   26196   26190      24   26196   26193      25   26202   26199      24
   26205   26199      24   26205   26202      25   26211   26208      24   26214
   26208      24   26214   26211      25   26220   26217      24   26223   26217
      24   26223   26220      25   26229   26226      24   26232   26226      24
   26232   26229      25   26238   26235      24   26241   26235      24   26241
   26238      25   26247   26244      24   26250   26244      24   26250   26247
      25   26256   26253      24   26259   26253      24   26259   26256      25
   26265   26262      24   26268   26262      24   26268   26265      25   26274
   26271      24   26277   26271      24   26277   26274      25   26283   26280
      24   26286   26280      24   26286   26283      25   26292   26289      24
   26295   26289      24   26295   26292      25   26301   26298      24   26304
   26298      24   26304   26301      25   26310   26307      24   26313   26307
      24   26313   26310      25   26319   26316      24   26322   26316      24
   26322   26319      25   26328   26325      24   26331   26325      24   26331
   26328      25   26337   26334      24   26340   26334      24   26340   26337
      25   26346   26343      24   26349   26343      24   26349   26346      25
   26355   26352      24   26358   26352      24   26358   26355      25   26364
   26361      24   26367   26361      24   26367   26364      25   26373   26370
      24   26376   26370      24   26376   26373      25   26382   26379      24
   26385   26379      24   26385   26382      25   26391   26388      24   26394
   26388      24   26394   26391      25   26400   26397      24   26403   26397
      24   26403   26400      25   26409   26406      24   26412   26406      24
   26412   26409      25   26418   26415      24   26421   26415      24   26421
   26418      25   26427   26424      24   26430   26424      24   26430   26427
      25   26436   26433      24   26439   26433      24   26439   26436      25
   26445   26442      24   26448   26442      24   26448   26445      25   26454
   26451      24   26457   26451      24   26457   26454      25   26463   26460
      24   26466   26460      24   26466   26463      25   26472   26469      24
   26475   26469      24   26475   26472      25   26481   26478      24   26484
   26478      24   26484   26481      25   26490   26487      24   26493   26487
      24   26493   26490      25   26499   26496      24   26502   26496      24
   26502   26499      25   26508   26505      24   26511   26505      24   26511
   26508      25   26517   26514      24   26520   26514      24   26520   26517
      25   26526   26523      24   26529   26523      24   26529   26526      25
   26535   26532      24   26538   26532      24   26538   26535      25   26544
   26541      24   26547   26541      24   26547   26544      25   26553   26550
      24   26556   26550      24   26556   26553      25   26562   26559      24
   26565   26559      24   26565   26562      25   26571   26568      24   26574
   26568      24   26574   26571      25   26580   26577      24   26583   26577
      24   26583   26580      25   26589   26586      24   26592   26586      24
   26592   26589      25   26598   26595      24   26601   26595      24   26601
   26598      25   26607   26604      24   26610   26604      24   26610   26607
      25   26616   26613      24   26619   26613      24   26619   26616      25
   26625   26622      24   26628   26622      24   26628   26625      25   26634
   26631      24   26637   26631      24   26637   26634      25   26643   26640
      24   26646   26640      24   26646   26643      25   26652   26649      24
   26655   26649      24   26655   26652      25   26661   26658      24   26664
   26658      24   26664   26661      25   26670   26667      24   26673   26667
      24   26673   26670      25   26679   26676      24   26682   26676      24
   26682   26679      25   26688   26685      24   26691   26685      24   26691
   26688      25   26697   26694      24   26700   26694      24   26700   26697
      25   26706   26703      24   26709   26703      24   26709   26706      25
   26715   26712      24   26718   26712      24   26718   26715      25   26724
   26721      24   26727   26721      24   26727   26724      25   26733   26730
      24   26736   26730      24   26736   26733      25   26742   26739      24
   26745   26739      24   26745   26742      25   26751   26748      24   26754
   26748      24   26754   26751      25   26760   26757      24   26763   26757
      24   26763   26760      25   26769   26766      24   26772   26766      24
   26772   26769      25   26778   26775      24   26781   26775      24   26781
   26778      25   26787   26784      24   26790   26784      24   26790   26787
      25   26796   26793      24   26799   26793      24   26799   26796      25
   26805   26802      24   26808   26802      24   26808   26805      25   26814
   26811      24   26817   26811      24   26817   26814      25   26823   26820
      24   26826   26820      24   26826   26823      25   26832   26829      24
   26835   26829      24   26835   26832      25   26841   26838      24   26844
   26838      24   26844   26841      25   26850   26847      24   26853   26847
      24   26853   26850      25   26859   26856      24   26862   26856      24
   26862   26859      25   26868   26865      24   26871   26865      24   26871
   26868      25   26877   26874      24   26880   26874      24   26880   26877
      25   26886   26883      24   26889   26883      24   26889   26886      25
   26895   26892      24   26898   26892      24   26898   26895      25   26904
   26901      24   26907   26901      24   26907   26904      25   26913   26910
      24   26916   26910      24   26916   26913      25   26922   26919      24
   26925   26919      24   26925   26922      25   26931   26928      24   26934
   26928      24   26934   26931      25   26940   26937      24   26943   26937
      24   26943   26940      25   26949   26946      24   26952   26946      24
   26952   26949      25   26958   26955      24   26961   26955      24   26961
   26958      25   26967   26964      24   26970   26964      24   26970   26967
      25   26976   26973      24   26979   26973      24   26979   26976      25
   26985   26982      24   26988   26982      24   26988   26985      25   26994
   26991      24   26997   26991      24   26997   26994      25   27003   27000
      24   27006   27000      24   27006   27003      25   27012   27009      24
   27015   27009      24   27015   27012      25   27021   27018      24   27024
   27018      24   27024   27021      25   27030   27027      24   27033   27027
      24   27033   27030      25   27039   27036      24   27042   27036      24
   27042   27039      25   27048   27045      24   27051   27045      24   27051
   27048      25   27057   27054      24   27060   27054      24   27060   27057
      25   27066   27063      24   27069   27063      24   27069   27066      25
   27075   27072      24   27078   27072      24   27078   27075      25   27084
   27081      24   27087   27081      24   27087   27084      25   27093   27090
      24   27096   27090      24   27096   27093      25   27102   27099      24
   27105   27099      24   27105   27102      25   27111   27108      24   27114
   27108      24   27114   27111      25   27120   27117      24   27123   27117
      24   27123   27120      25   27129   27126      24   27132   27126      24
   27132   27129      25   27138   27135      24   27141   27135      24   27141
   27138      25   27147   27144      24   27150   27144      24   27150   27147
      25   27156   27153      24   27159   27153      24   27159   27156      25
   27165   27162      24   27168   27162      24   27168   27165      25   27174
   27171      24   27177   27171      24   27177   27174      25   27183   27180
      24   27186   27180      24   27186   27183      25   27192   27189      24
   27195   27189      24   27195   27192      25   27201   27198      24   27204
   27198      24   27204   27201      25   27210   27207      24   27213   27207
      24   27213   27210      25   27219   27216      24   27222   27216      24
   27222   27219      25   27228   27225      24   27231   27225      24   27231
   27228      25   27237   27234      24   27240   27234      24   27240   27237
      25   27246   27243      24   27249   27243      24   27249   27246      25
   27255   27252      24   27258   27252      24   27258   27255      25   27264
   27261      24   27267   27261      24   27267   27264      25   27273   27270
      24   27276   27270      24   27276   27273      25   27282   27279      24
   27285   27279      24   27285   27282      25   27291   27288      24   27294
   27288      24   27294   27291      25   27300   27297      24   27303   27297
      24   27303   27300      25   27309   27306      24   27312   27306      24
   27312   27309      25   27318   27315      24   27321   27315      24   27321
   27318      25   27327   27324      24   27330   27324      24   27330   27327
      25   27336   27333      24   27339   27333      24   27339   27336      25
   27345   27342      24   27348   27342      24   27348   27345      25   27354
   27351      24   27357   27351      24   27357   27354      25   27363   27360
      24   27366   27360      24   27366   27363      25   27372   27369      24
   27375   27369      24   27375   27372      25   27381   27378      24   27384
   27378      24   27384   27381      25   27390   27387      24   27393   27387
      24   27393   27390      25   27399   27396      24   27402   27396      24
   27402   27399      25   27408   27405      24   27411   27405      24   27411
   27408      25   27417   27414      24   27420   27414      24   27420   27417
      25   27426   27423      24   27429   27423      24   27429   27426      25
   27435   27432      24   27438   27432      24   27438   27435      25   27444
   27441      24   27447   27441      24   27447   27444      25   27453   27450
      24   27456   27450      24   27456   27453      25   27462   27459      24
   27465   27459      24   27465   27462      25   27471   27468      24   27474
   27468      24   27474   27471      25   27480   27477      24   27483   27477
      24   27483   27480      25   27489   27486      24   27492   27486      24
   27492   27489      25   27498   27495      24   27501   27495      24   27501
   27498      25   27507   27504      24   27510   27504      24   27510   27507
      25   27516   27513      24   27519   27513      24   27519   27516      25
   27525   27522      24   27528   27522      24   27528   27525      25   27534
   27531      24   27537   27531      24   27537   27534      25   27543   27540
      24   27546   27540      24   27546   27543      25   27552   27549      24
   27555   27549      24   27555   27552      25   27561   27558      24   27564
   27558      24   27564   27561      25   27570   27567      24   27573   27567
      24   27573   27570      25   27579   27576      24   27582   27576      24
   27582   27579      25   27588   27585      24   27591   27585      24   27591
   27588      25   27597   27594      24   27600   27594      24   27600   27597
      25   27606   27603      24   27609   27603      24   27609   27606      25
   27615   27612      24   27618   27612      24   27618   27615      25   27624
   27621      24   27627   27621      24   27627   27624      25   27633   27630
      24   27636   27630      24   27636   27633      25   27642   27639      24
   27645   27639      24   27645   27642      25   27651   27648      24   27654
   27648      24   27654   27651      25   27660   27657      24   27663   27657
      24   27663   27660      25   27669   27666      24   27672   27666      24
   27672   27669      25   27678   27675      24   27681   27675      24   27681
   27678      25   27687   27684      24   27690   27684      24   27690   27687
      25   27696   27693      24   27699   27693      24   27699   27696      25
   27705   27702      24   27708   27702      24   27708   27705      25   27714
   27711      24   27717   27711      24   27717   27714      25   27723   27720
      24   27726   27720      24   27726   27723      25   27732   27729      24
   27735   27729      24   27735   27732      25   27741   27738      24   27744
   27738      24   27744   27741      25   27750   27747      24   27753   27747
      24   27753   27750      25   27759   27756      24   27762   27756      24
   27762   27759      25   27768   27765      24   27771   27765      24   27771
   27768      25   27777   27774      24   27780   27774      24   27780   27777
      25   27786   27783      24   27789   27783      24   27789   27786      25
   27795   27792      24   27798   27792      24   27798   27795      25   27804
   27801      24   27807   27801      24   27807   27804      25   27813   27810
      24   27816   27810      24   27816   27813      25   27822   27819      24
   27825   27819      24   27825   27822      25   27831   27828      24   27834
   27828      24   27834   27831      25   27840   27837      24   27843   27837
      24   27843   27840      25   27849   27846      24   27852   27846      24
   27852   27849      25   27858   27855      24   27861   27855      24   27861
   27858      25   27867   27864      24   27870   27864      24   27870   27867
      25   27876   27873      24   27879   27873      24   27879   27876      25
   27885   27882      24   27888   27882      24   27888   27885      25   27894
   27891      24   27897   27891      24   27897   27894      25   27903   27900
      24   27906   27900      24   27906   27903      25   27912   27909      24
   27915   27909      24   27915   27912      25   27921   27918      24   27924
   27918      24   27924   27921      25   27930   27927      24   27933   27927
      24   27933   27930      25   27939   27936      24   27942   27936      24
   27942   27939      25   27948   27945      24   27951   27945      24   27951
   27948      25   27957   27954      24   27960   27954      24   27960   27957
      25   27966   27963      24   27969   27963      24   27969   27966      25
   27975   27972      24   27978   27972      24   27978   27975      25   27984
   27981      24   27987   27981      24   27987   27984      25   27993   27990
      24   27996   27990      24   27996   27993      25   28002   27999      24
   28005   27999      24   28005   28002      25   28011   28008      24   28014
   28008      24   28014   28011      25   28020   28017      24   28023   28017
      24   28023   28020      25   28029   28026      24   28032   28026      24
   28032   28029      25   28038   28035      24   28041   28035      24   28041
   28038      25   28047   28044      24   28050   28044      24   28050   28047
      25   28056   28053      24   28059   28053      24   28059   28056      25
   28065   28062      24   28068   28062      24   28068   28065      25   28074
   28071      24   28077   28071      24   28077   28074      25   28083   28080
      24   28086   28080      24   28086   28083      25   28092   28089      24
   28095   28089      24   28095   28092      25   28101   28098      24   28104
   28098      24   28104   28101      25   28110   28107      24   28113   28107
      24   28113   28110      25   28119   28116      24   28122   28116      24
   28122   28119      25   28128   28125      24   28131   28125      24   28131
   28128      25   28137   28134      24   28140   28134      24   28140   28137
      25   28146   28143      24   28149   28143      24   28149   28146      25
   28155   28152      24   28158   28152      24   28158   28155      25   28164
   28161      24   28167   28161      24   28167   28164      25   28173   28170
      24   28176   28170      24   28176   28173      25   28182   28179      24
   28185   28179      24   28185   28182      25   28191   28188      24   28194
   28188      24   28194   28191      25   28200   28197      24   28203   28197
      24   28203   28200      25   28209   28206      24   28212   28206      24
   28212   28209      25   28218   28215      24   28221   28215      24   28221
   28218      25   28227   28224      24   28230   28224      24   28230   28227
      25   28236   28233      24   28239   28233      24   28239   28236      25
   28245   28242      24   28248   28242      24   28248   28245      25   28254
   28251      24   28257   28251      24   28257   28254      25   28263   28260
      24   28266   28260      24   28266   28263      25   28272   28269      24
   28275   28269      24   28275   28272      25   28281   28278      24   28284
   28278      24   28284   28281      25   28290   28287      24   28293   28287
      24   28293   28290      25   28299   28296      24   28302   28296      24
   28302   28299      25   28308   28305      24   28311   28305      24   28311
   28308      25   28317   28314      24   28320   28314      24   28320   28317
      25   28326   28323      24   28329   28323      24   28329   28326      25
   28335   28332      24   28338   28332      24   28338   28335      25   28344
   28341      24   28347   28341      24   28347   28344      25   28353   28350
      24   28356   28350      24   28356   28353      25   28362   28359      24
   28365   28359      24   28365   28362      25   28371   28368      24   28374
   28368      24   28374   28371      25   28380   28377      24   28383   28377
      24   28383   28380      25   28389   28386      24   28392   28386      24
   28392   28389      25   28398   28395      24   28401   28395      24   28401
   28398      25   28407   28404      24   28410   28404      24   28410   28407
      25   28416   28413      24   28419   28413      24   28419   28416      25
   28425   28422      24   28428   28422      24   28428   28425      25   28434
   28431      24   28437   28431      24   28437   28434      25   28443   28440
      24   28446   28440      24   28446   28443      25   28452   28449      24
   28455   28449      24   28455   28452      25   28461   28458      24   28464
   28458      24   28464   28461      25   28470   28467      24   28473   28467
      24   28473   28470      25   28479   28476      24   28482   28476      24
   28482   28479      25   28488   28485      24   28491   28485      24   28491
   28488      25   28497   28494      24   28500   28494      24   28500   28497
      25   28506   28503      24   28509   28503      24   28509   28506      25
   28515   28512      24   28518   28512      24   28518   28515      25   28524
   28521      24   28527   28521      24   28527   28524      25   28533   28530
      24   28536   28530      24   28536   28533      25   28542   28539      24
   28545   28539      24   28545   28542      25   28551   28548      24   28554
   28548      24   28554   28551      25   28560   28557      24   28563   28557
      24   28563   28560      25   28569   28566      24   28572   28566      24
   28572   28569      25   28578   28575      24   28581   28575      24   28581
   28578      25   28587   28584      24   28590   28584      24   28590   28587
      25   28596   28593      24   28599   28593      24   28599   28596      25
   28605   28602      24   28608   28602      24   28608   28605      25   28614
   28611      24   28617   28611      24   28617   28614      25   28623   28620
      24   28626   28620      24   28626   28623      25   28632   28629      24
   28635   28629      24   28635   28632      25   28641   28638      24   28644
   28638      24   28644   28641      25   28650   28647      24   28653   28647
      24   28653   28650      25   28659   28656      24   28662   28656      24
   28662   28659      25   28668   28665      24   28671   28665      24   28671
   28668      25   28677   28674      24   28680   28674      24   28680   28677
      25   28686   28683      24   28689   28683      24   28689   28686      25
   28695   28692      24   28698   28692      24   28698   28695      25   28704
   28701      24   28707   28701      24   28707   28704      25   28713   28710
      24   28716   28710      24   28716   28713      25   28722   28719      24
   28725   28719      24   28725   28722      25   28731   28728      24   28734
   28728      24   28734   28731      25   28740   28737      24   28743   28737
      24   28743   28740      25   28749   28746      24   28752   28746      24
   28752   28749      25   28758   28755      24   28761   28755      24   28761
   28758      25   28767   28764      24   28770   28764      24   28770   28767
      25   28776   28773      24   28779   28773      24   28779   28776      25
   28785   28782      24   28788   28782      24   28788   28785      25   28794
   28791      24   28797   28791      24   28797   28794      25   28803   28800
      24   28806   28800      24   28806   28803      25   28812   28809      24
   28815   28809      24   28815   28812      25   28821   28818      24   28824
   28818      24   28824   28821      25   28830   28827      24   28833   28827
      24   28833   28830      25   28839   28836      24   28842   28836      24
   28842   28839      25   28848   28845      24   28851   28845      24   28851
   28848      25   28857   28854      24   28860   28854      24   28860   28857
      25   28866   28863      24   28869   28863      24   28869   28866      25
   28875   28872      24   28878   28872      24   28878   28875      25   28884
   28881      24   28887   28881      24   28887   28884      25   28893   28890
      24   28896   28890      24   28896   28893      25   28902   28899      24
   28905   28899      24   28905   28902      25   28911   28908      24   28914
   28908      24   28914   28911      25   28920   28917      24   28923   28917
      24   28923   28920      25   28929   28926      24   28932   28926      24
   28932   28929      25   28938   28935      24   28941   28935      24   28941
   28938      25   28947   28944      24   28950   28944      24   28950   28947
      25   28956   28953      24   28959   28953      24   28959   28956      25
   28965   28962      24   28968   28962      24   28968   28965      25   28974
   28971      24   28977   28971      24   28977   28974      25   28983   28980
      24   28986   28980      24   28986   28983      25   28992   28989      24
   28995   28989      24   28995   28992      25   29001   28998      24   29004
   28998      24   29004   29001      25   29010   29007      24   29013   29007
      24   29013   29010      25   29019   29016      24   29022   29016      24
   29022   29019      25   29028   29025      24   29031   29025      24   29031
   29028      25   29037   29034      24   29040   29034      24   29040   29037
      25   29046   29043      24   29049   29043      24   29049   29046      25
   29055   29052      24   29058   29052      24   29058   29055      25   29064
   29061      24   29067   29061      24   29067   29064      25   29073   29070
      24   29076   29070      24   29076   29073      25   29082   29079      24
   29085   29079      24   29085   29082      25   29091   29088      24   29094
   29088      24   29094   29091      25   29100   29097      24   29103   29097
      24   29103   29100      25   29109   29106      24   29112   29106      24
   29112   29109      25   29118   29115      24   29121   29115      24   29121
   29118      25   29127   29124      24   29130   29124      24   29130   29127
      25   29136   29133      24   29139   29133      24   29139   29136      25
   29145   29142      24   29148   29142      24   29148   29145      25   29154
   29151      24   29157   29151      24   29157   29154      25   29163   29160
      24   29166   29160      24   29166   29163      25   29172   29169      24
   29175   29169      24   29175   29172      25   29181   29178      24   29184
   29178      24   29184   29181      25   29190   29187      24   29193   29187
      24   29193   29190      25   29199   29196      24   29202   29196      24
   29202   29199      25   29208   29205      24   29211   29205      24   29211
   29208      25   29217   29214      24   29220   29214      24   29220   29217
      25   29226   29223      24   29229   29223      24   29229   29226      25
   29235   29232      24   29238   29232      24   29238   29235      25   29244
   29241      24   29247   29241      24   29247   29244      25   29253   29250
      24   29256   29250      24   29256   29253      25   29262   29259      24
   29265   29259      24   29265   29262      25   29271   29268      24   29274
   29268      24   29274   29271      25   29280   29277      24   29283   29277
      24   29283   29280      25   29289   29286      24   29292   29286      24
   29292   29289      25   29298   29295      24   29301   29295      24   29301
   29298      25   29307   29304      24   29310   29304      24   29310   29307
      25   29316   29313      24   29319   29313      24   29319   29316      25
   29325   29322      24   29328   29322      24   29328   29325      25   29334
   29331      24   29337   29331      24   29337   29334      25   29343   29340
      24   29346   29340      24   29346   29343      25   29352   29349      24
   29355   29349      24   29355   29352      25   29361   29358      24   29364
   29358      24   29364   29361      25   29370   29367      24   29373   29367
      24   29373   29370      25   29379   29376      24   29382   29376      24
   29382   29379      25   29388   29385      24   29391   29385      24   29391
   29388      25   29397   29394      24   29400   29394      24   29400   29397
      25   29406   29403      24   29409   29403      24   29409   29406      25
   29415   29412      24   29418   29412      24   29418   29415      25   29424
   29421      24   29427   29421      24   29427   29424      25   29433   29430
      24   29436   29430      24   29436   29433      25   29442   29439      24
   29445   29439      24   29445   29442      25   29451   29448      24   29454
   29448      24   29454   29451      25   29460   29457      24   29463   29457
      24   29463   29460      25   29469   29466      24   29472   29466      24
   29472   29469      25   29478   29475      24   29481   29475      24   29481
   29478      25   29487   29484      24   29490   29484      24   29490   29487
      25   29496   29493      24   29499   29493      24   29499   29496      25
   29505   29502      24   29508   29502      24   29508   29505      25   29514
   29511      24   29517   29511      24   29517   29514      25   29523   29520
      24   29526   29520      24   29526   29523      25   29532   29529      24
   29535   29529      24   29535   29532      25   29541   29538      24   29544
   29538      24   29544   29541      25   29550   29547      24   29553   29547
      24   29553   29550      25   29559   29556      24   29562   29556      24
   29562   29559      25   29568   29565      24   29571   29565      24   29571
   29568      25   29577   29574      24   29580   29574      24   29580   29577
      25   29586   29583      24   29589   29583      24   29589   29586      25
   29595   29592      24   29598   29592      24   29598   29595      25   29604
   29601      24   29607   29601      24   29607   29604      25   29613   29610
      24   29616   29610      24   29616   29613      25   29622   29619      24
   29625   29619      24   29625   29622      25   29631   29628      24   29634
   29628      24   29634   29631      25   29640   29637      24   29643   29637
      24   29643   29640      25   29649   29646      24   29652   29646      24
   29652   29649      25   29658   29655      24   29661   29655      24   29661
   29658      25   29667   29664      24   29670   29664      24   29670   29667
      25   29676   29673      24   29679   29673      24   29679   29676      25
   29685   29682      24   29688   29682      24   29688   29685      25   29694
   29691      24   29697   29691      24   29697   29694      25   29703   29700
      24   29706   29700      24   29706   29703      25   29712   29709      24
   29715   29709      24   29715   29712      25   29721   29718      24   29724
   29718      24   29724   29721      25   29730   29727      24   29733   29727
      24   29733   29730      25   29739   29736      24   29742   29736      24
   29742   29739      25   29748   29745      24   29751   29745      24   29751
   29748      25   29757   29754      24   29760   29754      24   29760   29757
      25   29766   29763      24   29769   29763      24   29769   29766      25
   29775   29772      24   29778   29772      24   29778   29775      25   29784
   29781      24   29787   29781      24   29787   29784      25   29793   29790
      24   29796   29790      24   29796   29793      25   29802   29799      24
   29805   29799      24   29805   29802      25   29811   29808      24   29814
   29808      24   29814   29811      25   29820   29817      24   29823   29817
      24   29823   29820      25   29829   29826      24   29832   29826      24
   29832   29829      25   29838   29835      24   29841   29835      24   29841
   29838      25   29847   29844      24   29850   29844      24   29850   29847
      25   29856   29853      24   29859   29853      24   29859   29856      25
   29865   29862      24   29868   29862      24   29868   29865      25   29874
   29871      24   29877   29871      24   29877   29874      25   29883   29880
      24   29886   29880      24   29886   29883      25   29892   29889      24
   29895   29889      24   29895   29892      25   29901   29898      24   29904
   29898      24   29904   29901      25   29910   29907      24   29913   29907
      24   29913   29910      25   29919   29916      24   29922   29916      24
   29922   29919      25   29928   29925      24   29931   29925      24   29931
   29928      25   29937   29934      24   29940   29934      24   29940   29937
      25   29946   29943      24   29949   29943      24   29949   29946      25
   29955   29952      24   29958   29952      24   29958   29955      25   29964
   29961      24   29967   29961      24   29967   29964      25   29973   29970
      24   29976   29970      24   29976   29973      25   29982   29979      24
   29985   29979      24   29985   29982      25   29991   29988      24   29994
   29988      24   29994   29991      25   30000   29997      24   30003   29997
      24   30003   30000      25   30009   30006      24   30012   30006      24
   30012   30009      25   30018   30015      24   30021   30015      24   30021
   30018      25   30027   30024      24   30030   30024      24   30030   30027
      25   30036   30033      24   30039   30033      24   30039   30036      25
   30045   30042      24   30048   30042      24   30048   30045      25   30054
   30051      24   30057   30051      24   30057   30054      25   30063   30060
      24   30066   30060      24   30066   30063      25   30072   30069      24
   30075   30069      24   30075   30072      25   30081   30078      24   30084
   30078      24   30084   30081      25   30090   30087      24   30093   30087
      24   30093   30090      25   30099   30096      24   30102   30096      24
   30102   30099      25   30108   30105      24   30111   30105      24   30111
   30108      25   30117   30114      24   30120   30114      24   30120   30117
      25   30126   30123      24   30129   30123      24   30129   30126      25
   30135   30132      24   30138   30132      24   30138   30135      25   30144
   30141      24   30147   30141      24   30147   30144      25   30153   30150
      24   30156   30150      24   30156   30153      25   30162   30159      24
   30165   30159      24   30165   30162      25   30171   30168      24   30174
   30168      24   30174   30171      25   30180   30177      24   30183   30177
      24   30183   30180      25   30189   30186      24   30192   30186      24
   30192   30189      25   30198   30195      24   30201   30195      24   30201
   30198      25   30207   30204      24   30210   30204      24   30210   30207
      25   30216   30213      24   30219   30213      24   30219   30216      25
   30225   30222      24   30228   30222      24   30228   30225      25   30234
   30231      24   30237   30231      24   30237   30234      25   30243   30240
      24   30246   30240      24   30246   30243      25   30252   30249      24
   30255   30249      24   30255   30252      25   30261   30258      24   30264
   30258      24   30264   30261      25   30270   30267      24   30273   30267
      24   30273   30270      25   30279   30276      24   30282   30276      24
   30282   30279      25   30288   30285      24   30291   30285      24   30291
   30288      25   30297   30294      24   30300   30294      24   30300   30297
      25   30306   30303      24   30309   30303      24   30309   30306      25
   30315   30312      24   30318   30312      24   30318   30315      25   30324
   30321      24   30327   30321      24   30327   30324      25   30333   30330
      24   30336   30330      24   30336   30333      25   30342   30339      24
   30345   30339      24   30345   30342      25   30351   30348      24   30354
   30348      24   30354   30351      25   30360   30357      24   30363   30357
      24   30363   30360      25   30369   30366      24   30372   30366      24
   30372   30369      25   30378   30375      24   30381   30375      24   30381
   30378      25   30387   30384      24   30390   30384      24   30390   30387
      25   30396   30393      24   30399   30393      24   30399   30396      25
   30405   30402      24   30408   30402      24   30408   30405      25   30414
   30411      24   30417   30411      24   30417   30414      25   30423   30420
      24   30426   30420      24   30426   30423      25   30432   30429      24
   30435   30429      24   30435   30432      25   30441   30438      24   30444
   30438      24   30444   30441      25   30450   30447      24   30453   30447
      24   30453   30450      25   30459   30456      24   30462   30456      24
   30462   30459      25   30468   30465      24   30471   30465      24   30471
   30468      25   30477   30474      24   30480   30474      24   30480   30477
      25   30486   30483      24   30489   30483      24   30489   30486      25
   30495   30492      24   30498   30492      24   30498   30495      25   30504
   30501      24   30507   30501      24   30507   30504      25   30513   30510
      24   30516   30510      24   30516   30513      25   30522   30519      24
   30525   30519      24   30525   30522      25   30531   30528      24   30534
   30528      24   30534   30531      25   30540   30537      24   30543   30537
      24   30543   30540      25   30549   30546      24   30552   30546      24
   30552   30549      25   30558   30555      24   30561   30555      24   30561
   30558      25   30567   30564      24   30570   30564      24   30570   30567
      25   30576   30573      24   30579   30573      24   30579   30576      25
   30585   30582      24   30588   30582      24   30588   30585      25   30594
   30591      24   30597   30591      24   30597   30594      25   30603   30600
      24   30606   30600      24   30606   30603      25   30612   30609      24
   30615   30609      24   30615   30612      25   30621   30618      24   30624
   30618      24   30624   30621      25   30630   30627      24   30633   30627
      24   30633   30630      25   30639   30636      24   30642   30636      24
   30642   30639      25   30648   30645      24   30651   30645      24   30651
   30648      25   30657   30654      24   30660   30654      24   30660   30657
      25   30666   30663      24   30669   30663      24   30669   30666      25
   30675   30672      24   30678   30672      24   30678   30675      25   30684
   30681      24   30687   30681      24   30687   30684      25   30693   30690
      24   30696   30690      24   30696   30693      25   30702   30699      24
   30705   30699      24   30705   30702      25   30711   30708      24   30714
   30708      24   30714   30711      25   30720   30717      24   30723   30717
      24   30723   30720      25   30729   30726      24   30732   30726      24
   30732   30729      25   30738   30735      24   30741   30735      24   30741
   30738      25   30747   30744      24   30750   30744      24   30750   30747
      25   30756   30753      24   30759   30753      24   30759   30756      25
   30765   30762      24   30768   30762      24   30768   30765      25   30774
   30771      24   30777   30771      24   30777   30774      25   30783   30780
      24   30786   30780      24   30786   30783      25   30792   30789      24
   30795   30789      24   30795   30792      25   30801   30798      24   30804
   30798      24   30804   30801      25   30810   30807      24   30813   30807
      24   30813   30810      25   30819   30816      24   30822   30816      24
   30822   30819      25   30828   30825      24   30831   30825      24   30831
   30828      25   30837   30834      24   30840   30834      24   30840   30837
      25   30846   30843      24   30849   30843      24   30849   30846      25
   30855   30852      24   30858   30852      24   30858   30855      25   30864
   30861      24   30867   30861      24   30867   30864      25   30873   30870
      24   30876   30870      24   30876   30873      25   30882   30879      24
   30885   30879      24   30885   30882      25   30891   30888      24   30894
   30888      24   30894   30891      25   30900   30897      24   30903   30897
      24   30903   30900      25   30909   30906      24   30912   30906      24
   30912   30909      25   30918   30915      24   30921   30915      24   30921
   30918      25   30927   30924      24   30930   30924      24   30930   30927
      25   30936   30933      24   30939   30933      24   30939   30936      25
   30945   30942      24   30948   30942      24   30948   30945      25   30954
   30951      24   30957   30951      24   30957   30954      25   30963   30960
      24   30966   30960      24   30966   30963      25   30972   30969      24
   30975   30969      24   30975   30972      25   30981   30978      24   30984
   30978      24   30984   30981      25   30990   30987      24   30993   30987
      24   30993   30990      25   30999   30996      24   31002   30996      24
   31002   30999      25   31008   31005      24   31011   31005      24   31011
   31008      25   31017   31014      24   31020   31014      24   31020   31017
      25   31026   31023      24   31029   31023      24   31029   31026      25
   31035   31032      24   31038   31032      24   31038   31035      25   31044
   31041      24   31047   31041      24   31047   31044      25   31053   31050
      24   31056   31050      24   31056   31053      25   31062   31059      24
   31065   31059      24   31065   31062      25   31071   31068      24   31074
   31068      24   31074   31071      25   31080   31077      24   31083   31077
      24   31083   31080      25   31089   31086      24   31092   31086      24
   31092   31089      25   31098   31095      24   31101   31095      24   31101
   31098      25   31107   31104      24   31110   31104      24   31110   31107
      25   31116   31113      24   31119   31113      24   31119   31116      25
   31125   31122      24   31128   31122      24   31128   31125      25   31134
   31131      24   31137   31131      24   31137   31134      25   31143   31140
      24   31146   31140      24   31146   31143      25   31152   31149      24
   31155   31149      24   31155   31152      25   31161   31158      24   31164
   31158      24   31164   31161      25   31170   31167      24   31173   31167
      24   31173   31170      25   31179   31176      24   31182   31176      24
   31182   31179      25   31188   31185      24   31191   31185      24   31191
   31188      25   31197   31194      24   31200   31194      24   31200   31197
      25   31206   31203      24   31209   31203      24   31209   31206      25
   31215   31212      24   31218   31212      24   31218   31215      25   31224
   31221      24   31227   31221      24   31227   31224      25   31233   31230
      24   31236   31230      24   31236   31233      25   31242   31239      24
   31245   31239      24   31245   31242      25   31251   31248      24   31254
   31248      24   31254   31251      25   31260   31257      24   31263   31257
      24   31263   31260      25   31269   31266      24   31272   31266      24
   31272   31269      25   31278   31275      24   31281   31275      24   31281
   31278      25   31287   31284      24   31290   31284      24   31290   31287
      25   31296   31293      24   31299   31293      24   31299   31296      25
   31305   31302      24   31308   31302      24   31308   31305      25   31314
   31311      24   31317   31311      24   31317   31314      25   31323   31320
      24   31326   31320      24   31326   31323      25   31332   31329      24
   31335   31329      24   31335   31332      25   31341   31338      24   31344
   31338      24   31344   31341      25   31350   31347      24   31353   31347
      24   31353   31350      25   31359   31356      24   31362   31356      24
   31362   31359      25   31368   31365      24   31371   31365      24   31371
   31368      25   31377   31374      24   31380   31374      24   31380   31377
      25   31386   31383      24   31389   31383      24   31389   31386      25
   31395   31392      24   31398   31392      24   31398   31395      25   31404
   31401      24   31407   31401      24   31407   31404      25   31413   31410
      24   31416   31410      24   31416   31413      25   31422   31419      24
   31425   31419      24   31425   31422      25   31431   31428      24   31434
   31428      24   31434   31431      25   31440   31437      24   31443   31437
      24   31443   31440      25   31449   31446      24   31452   31446      24
   31452   31449      25   31458   31455      24   31461   31455      24   31461
   31458      25   31467   31464      24   31470   31464      24   31470   31467
      25   31476   31473      24   31479   31473      24   31479   31476      25
   31485   31482      24   31488   31482      24   31488   31485      25   31494
   31491      24   31497   31491      24   31497   31494      25   31503   31500
      24   31506   31500      24   31506   31503      25   31512   31509      24
   31515   31509      24   31515   31512      25   31521   31518      24   31524
   31518      24   31524   31521      25   31530   31527      24   31533   31527
      24   31533   31530      25   31539   31536      24   31542   31536      24
   31542   31539      25   31548   31545      24   31551   31545      24   31551
   31548      25   31557   31554      24   31560   31554      24   31560   31557
      25   31566   31563      24   31569   31563      24   31569   31566      25
   31575   31572      24   31578   31572      24   31578   31575      25   31584
   31581      24   31587   31581      24   31587   31584      25   31593   31590
      24   31596   31590      24   31596   31593      25   31602   31599      24
   31605   31599      24   31605   31602      25   31611   31608      24   31614
   31608      24   31614   31611      25   31620   31617      24   31623   31617
      24   31623   31620      25   31629   31626      24   31632   31626      24
   31632   31629      25   31638   31635      24   31641   31635      24   31641
   31638      25   31647   31644      24   31650   31644      24   31650   31647
      25   31656   31653      24   31659   31653      24   31659   31656      25
   31665   31662      24   31668   31662      24   31668   31665      25   31674
   31671      24   31677   31671      24   31677   31674      25   31683   31680
      24   31686   31680      24   31686   31683      25   31692   31689      24
   31695   31689      24   31695   31692      25   31701   31698      24   31704
   31698      24   31704   31701      25   31710   31707      24   31713   31707
      24   31713   31710      25   31719   31716      24   31722   31716      24
   31722   31719      25   31728   31725      24   31731   31725      24   31731
   31728      25   31737   31734      24   31740   31734      24   31740   31737
      25   31746   31743      24   31749   31743      24   31749   31746      25
   31755   31752      24   31758   31752      24   31758   31755      25   31764
   31761      24   31767   31761      24   31767   31764      25   31773   31770
      24   31776   31770      24   31776   31773      25   31782   31779      24
   31785   31779      24   31785   31782      25   31791   31788      24   31794
   31788      24   31794   31791      25   31800   31797      24   31803   31797
      24   31803   31800      25   31809   31806      24   31812   31806      24
   31812   31809      25   31818   31815      24   31821   31815      24   31821
   31818      25   31827   31824      24   31830   31824      24   31830   31827
      25   31836   31833      24   31839   31833      24   31839   31836      25
   31845   31842      24   31848   31842      24   31848   31845      25   31854
   31851      24   31857   31851      24   31857   31854      25   31863   31860
      24   31866   31860      24   31866   31863      25   31872   31869      24
   31875   31869      24   31875   31872      25   31881   31878      24   31884
   31878      24   31884   31881      25   31890   31887      24   31893   31887
      24   31893   31890      25   31899   31896      24   31902   31896      24
   31902   31899      25   31908   31905      24   31911   31905      24   31911
   31908      25   31917   31914      24   31920   31914      24   31920   31917
      25   31926   31923      24   31929   31923      24   31929   31926      25
   31935   31932      24   31938   31932      24   31938   31935      25   31944
   31941      24   31947   31941      24   31947   31944      25   31953   31950
      24   31956   31950      24   31956   31953      25   31962   31959      24
   31965   31959      24   31965   31962      25   31971   31968      24   31974
   31968      24   31974   31971      25   31980   31977      24   31983   31977
      24   31983   31980      25   31989   31986      24   31992   31986      24
   31992   31989      25   31998   31995      24   32001   31995      24   32001
   31998      25   32007   32004      24   32010   32004      24   32010   32007
      25   32016   32013      24   32019   32013      24   32019   32016      25
   32025   32022      24   32028   32022      24   32028   32025      25   32034
   32031      24   32037   32031      24   32037   32034      25   32043   32040
      24   32046   32040      24   32046   32043      25   32052   32049      24
   32055   32049      24   32055   32052      25   32061   32058      24   32064
   32058      24   32064   32061      25   32070   32067      24   32073   32067
      24   32073   32070      25   32079   32076      24   32082   32076      24
   32082   32079      25   32088   32085      24   32091   32085      24   32091
   32088      25   32097   32094      24   32100   32094      24   32100   32097
      25   32106   32103      24   32109   32103      24   32109   32106      25
   32115   32112      24   32118   32112      24   32118   32115      25   32124
   32121      24   32127   32121      24   32127   32124      25   32133   32130
      24   32136   32130      24   32136   32133      25   32142   32139      24
   32145   32139      24   32145   32142      25   32151   32148      24   32154
   32148      24   32154   32151      25   32160   32157      24   32163   32157
      24   32163   32160      25   32169   32166      24   32172   32166      24
   32172   32169      25   32178   32175      24   32181   32175      24   32181
   32178      25   32187   32184      24   32190   32184      24   32190   32187
      25   32196   32193      24   32199   32193      24   32199   32196      25
   32205   32202      24   32208   32202      24   32208   32205      25   32214
   32211      24   32217   32211      24   32217   32214      25   32223   32220
      24   32226   32220      24   32226   32223      25   32232   32229      24
   32235   32229      24   32235   32232      25   32241   32238      24   32244
   32238      24   32244   32241      25   32250   32247      24   32253   32247
      24   32253   32250      25   32259   32256      24   32262   32256      24
   32262   32259      25   32268   32265      24   32271   32265      24   32271
   32268      25   32277   32274      24   32280   32274      24   32280   32277
      25   32286   32283      24   32289   32283      24   32289   32286      25
   32295   32292      24   32298   32292      24   32298   32295      25   32304
   32301      24   32307   32301      24   32307   32304      25   32313   32310
      24   32316   32310      24   32316   32313      25   32322   32319      24
   32325   32319      24   32325   32322      25   32331   32328      24   32334
   32328      24   32334   32331      25   32340   32337      24   32343   32337
      24   32343   32340      25   32349   32346      24   32352   32346      24
   32352   32349      25   32358   32355      24   32361   32355      24   32361
   32358      25   32367   32364      24   32370   32364      24   32370   32367
      25   32376   32373      24   32379   32373      24   32379   32376      25
   32385   32382      24   32388   32382      24   32388   32385      25   32394
   32391      24   32397   32391      24   32397   32394      25   32403   32400
      24   32406   32400      24   32406   32403      25   32412   32409      24
   32415   32409      24   32415   32412      25   32421   32418      24   32424
   32418      24   32424   32421      25   32430   32427      24   32433   32427
      24   32433   32430      25   32439   32436      24   32442   32436      24
   32442   32439      25   32448   32445      24   32451   32445      24   32451
   32448      25   32457   32454      24   32460   32454      24   32460   32457
      25   32466   32463      24   32469   32463      24   32469   32466      25
   32475   32472      24   32478   32472      24   32478   32475      25   32484
   32481      24   32487   32481      24   32487   32484      25   32493   32490
      24   32496   32490      24   32496   32493      25   32502   32499      24
   32505   32499      24   32505   32502      25   32511   32508      24   32514
   32508      24   32514   32511      25   32520   32517      24   32523   32517
      24   32523   32520      25   32529   32526      24   32532   32526      24
   32532   32529      25   32538   32535      24   32541   32535      24   32541
   32538      25   32547   32544      24   32550   32544      24   32550   32547
      25   32556   32553      24   32559   32553      24   32559   32556      25
   32565   32562      24   32568   32562      24   32568   32565      25   32574
   32571      24   32577   32571      24   32577   32574      25   32583   32580
      24   32586   32580      24   32586   32583      25   32592   32589      24
   32595   32589      24   32595   32592      25   32601   32598      24   32604
   32598      24   32604   32601      25   32610   32607      24   32613   32607
      24   32613   32610      25   32619   32616      24   32622   32616      24
   32622   32619      25   32628   32625      24   32631   32625      24   32631
   32628      25   32637   32634      24   32640   32634      24   32640   32637
      25   32646   32643      24   32649   32643      24   32649   32646      25
   32655   32652      24   32658   32652      24   32658   32655      25   32664
   32661      24   32667   32661      24   32667   32664      25   32673   32670
      24   32676   32670      24   32676   32673      25   32682   32679      24
   32685   32679      24   32685   32682      25   32691   32688      24   32694
   32688      24   32694   32691      25   32700   32697      24   32703   32697
      24   32703   32700      25   32709   32706      24   32712   32706      24
   32712   32709      25   32718   32715      24   32721   32715      24   32721
   32718      25   32727   32724      24   32730   32724      24   32730   32727
      25   32736   32733      24   32739   32733      24   32739   32736      25
   32745   32742      24   32748   32742      24   32748   32745      25   32754
   32751      24   32757   32751      24   32757   32754      25   32763   32760
      24   32766   32760      24   32766   32763      25   32772   32769      24
   32775   32769      24   32775   32772      25   32781   32778      24   32784
   32778      24   32784   32781      25   32790   32787      24   32793   32787
      24   32793   32790      25   32799   32796      24   32802   32796      24
   32802   32799      25   32808   32805      24   32811   32805      24   32811
   32808      25   32817   32814      24   32820   32814      24   32820   32817
      25   32826   32823      24   32829   32823      24   32829   32826      25
   32835   32832      24   32838   32832      24   32838   32835      25   32844
   32841      24   32847   32841      24   32847   32844      25   32853   32850
      24   32856   32850      24   32856   32853      25   32862   32859      24
   32865   32859      24   32865   32862      25   32871   32868      24   32874
   32868      24   32874   32871      25   32880   32877      24   32883   32877
      24   32883   32880      25   32889   32886      24   32892   32886      24
   32892   32889      25   32898   32895      24   32901   32895      24   32901
   32898      25   32907   32904      24   32910   32904      24   32910   32907
      25   32916   32913      24   32919   32913      24   32919   32916      25
   32925   32922      24   32928   32922      24   32928   32925      25   32934
   32931      24   32937   32931      24   32937   32934      25   32943   32940
      24   32946   32940      24   32946   32943      25   32952   32949      24
   32955   32949      24   32955   32952      25   32961   32958      24   32964
   32958      24   32964   32961      25   32970   32967      24   32973   32967
      24   32973   32970      25   32979   32976      24   32982   32976      24
   32982   32979      25   32988   32985      24   32991   32985      24   32991
   32988      25   32997   32994      24   33000   32994      24   33000   32997
      25   33006   33003      24   33009   33003      24   33009   33006      25
   33015   33012      24   33018   33012      24   33018   33015      25   33024
   33021      24   33027   33021      24   33027   33024      25   33033   33030
      24   33036   33030      24   33036   33033      25   33042   33039      24
   33045   33039      24   33045   33042      25   33051   33048      24   33054
   33048      24   33054   33051      25   33060   33057      24   33063   33057
      24   33063   33060      25   33069   33066      24   33072   33066      24
   33072   33069      25   33078   33075      24   33081   33075      24   33081
   33078      25   33087   33084      24   33090   33084      24   33090   33087
      25   33096   33093      24   33099   33093      24   33099   33096      25
   33105   33102      24   33108   33102      24   33108   33105      25   33114
   33111      24   33117   33111      24   33117   33114      25   33123   33120
      24   33126   33120      24   33126   33123      25   33132   33129      24
   33135   33129      24   33135   33132      25   33141   33138      24   33144
   33138      24   33144   33141      25   33150   33147      24   33153   33147
      24   33153   33150      25   33159   33156      24   33162   33156      24
   33162   33159      25   33168   33165      24   33171   33165      24   33171
   33168      25   33177   33174      24   33180   33174      24   33180   33177
      25   33186   33183      24   33189   33183      24   33189   33186      25
   33195   33192      24   33198   33192      24   33198   33195      25   33204
   33201      24   33207   33201      24   33207   33204      25   33213   33210
      24   33216   33210      24   33216   33213      25   33222   33219      24
   33225   33219      24   33225   33222      25   33231   33228      24   33234
   33228      24   33234   33231      25   33240   33237      24   33243   33237
      24   33243   33240      25   33249   33246      24   33252   33246      24
   33252   33249      25   33258   33255      24   33261   33255      24   33261
   33258      25   33267   33264      24   33270   33264      24   33270   33267
      25   33276   33273      24   33279   33273      24   33279   33276      25
   33285   33282      24   33288   33282      24   33288   33285      25   33294
   33291      24   33297   33291      24   33297   33294      25   33303   33300
      24   33306   33300      24   33306   33303      25   33312   33309      24
   33315   33309      24   33315   33312      25   33321   33318      24   33324
   33318      24   33324   33321      25   33330   33327      24   33333   33327
      24   33333   33330      25   33339   33336      24   33342   33336      24
   33342   33339      25   33348   33345      24   33351   33345      24   33351
   33348      25   33357   33354      24   33360   33354      24   33360   33357
      25   33366   33363      24   33369   33363      24   33369   33366      25
   33375   33372      24   33378   33372      24   33378   33375      25   33384
   33381      24   33387   33381      24   33387   33384      25   33393   33390
      24   33396   33390      24   33396   33393      25   33402   33399      24
   33405   33399      24   33405   33402      25   33411   33408      24   33414
   33408      24   33414   33411      25   33420   33417      24   33423   33417
      24   33423   33420      25   33429   33426      24   33432   33426      24
   33432   33429      25   33438   33435      24   33441   33435      24   33441
   33438      25   33447   33444      24   33450   33444      24   33450   33447
      25   33456   33453      24   33459   33453      24   33459   33456      25
   33465   33462      24   33468   33462      24   33468   33465      25   33474
   33471      24   33477   33471      24   33477   33474      25   33483   33480
      24   33486   33480      24   33486   33483      25   33492   33489      24
   33495   33489      24   33495   33492      25   33501   33498      24   33504
   33498      24   33504   33501      25   33510   33507      24   33513   33507
      24   33513   33510      25   33519   33516      24   33522   33516      24
   33522   33519      25   33528   33525      24   33531   33525      24   33531
   33528      25   33537   33534      24   33540   33534      24   33540   33537
      25   33546   33543      24   33549   33543      24   33549   33546      25
   33555   33552      24   33558   33552      24   33558   33555      25   33564
   33561      24   33567   33561      24   33567   33564      25   33573   33570
      24   33576   33570      24   33576   33573      25   33582   33579      24
   33585   33579      24   33585   33582      25   33591   33588      24   33594
   33588      24   33594   33591      25   33600   33597      24   33603   33597
      24   33603   33600      25   33609   33606      24   33612   33606      24
   33612   33609      25   33618   33615      24   33621   33615      24   33621
   33618      25   33627   33624      24   33630   33624      24   33630   33627
      25   33636   33633      24   33639   33633      24   33639   33636      25
   33645   33642      24   33648   33642      24   33648   33645      25   33654
   33651      24   33657   33651      24   33657   33654      25   33663   33660
      24   33666   33660      24   33666   33663      25   33672   33669      24
   33675   33669      24   33675   33672      25   33681   33678      24   33684
   33678      24   33684   33681      25   33690   33687      24   33693   33687
      24   33693   33690      25   33699   33696      24   33702   33696      24
   33702   33699      25   33708   33705      24   33711   33705      24   33711
   33708      25   33717   33714      24   33720   33714      24   33720   33717
      25   33726   33723      24   33729   33723      24   33729   33726      25
   33735   33732      24   33738   33732      24   33738   33735      25   33744
   33741      24   33747   33741      24   33747   33744      25   33753   33750
      24   33756   33750      24   33756   33753      25   33762   33759      24
   33765   33759      24   33765   33762      25   33771   33768      24   33774
   33768      24   33774   33771      25   33780   33777      24   33783   33777
      24   33783   33780      25   33789   33786      24   33792   33786      24
   33792   33789      25   33798   33795      24   33801   33795      24   33801
   33798      25   33807   33804      24   33810   33804      24   33810   33807
      25   33816   33813      24   33819   33813      24   33819   33816      25
   33825   33822      24   33828   33822      24   33828   33825      25   33834
   33831      24   33837   33831      24   33837   33834      25   33843   33840
      24   33846   33840      24   33846   33843      25   33852   33849      24
   33855   33849      24   33855   33852      25   33861   33858      24   33864
   33858      24   33864   33861      25   33870   33867      24   33873   33867
      24   33873   33870      25   33879   33876      24   33882   33876      24
   33882   33879      25   33888   33885      24   33891   33885      24   33891
   33888      25   33897   33894      24   33900   33894      24   33900   33897
      25   33906   33903      24   33909   33903      24   33909   33906      25
   33915   33912      24   33918   33912      24   33918   33915      25   33924
   33921      24   33927   33921      24   33927   33924      25   33933   33930
      24   33936   33930      24   33936   33933      25   33942   33939      24
   33945   33939      24   33945   33942      25   33951   33948      24   33954
   33948      24   33954   33951      25   33960   33957      24   33963   33957
      24   33963   33960      25   33969   33966      24   33972   33966      24
   33972   33969      25   33978   33975      24   33981   33975      24   33981
   33978      25   33987   33984      24   33990   33984      24   33990   33987
      25   33996   33993      24   33999   33993      24   33999   33996      25
   34005   34002      24   34008   34002      24   34008   34005      25   34014
   34011      24   34017   34011      24   34017   34014      25   34023   34020
      24   34026   34020      24   34026   34023      25   34032   34029      24
   34035   34029      24   34035   34032      25   34041   34038      24   34044
   34038      24   34044   34041      25   34050   34047      24   34053   34047
      24   34053   34050      25   34059   34056      24   34062   34056      24
   34062   34059      25   34068   34065      24   34071   34065      24   34071
   34068      25   34077   34074      24   34080   34074      24   34080   34077
      25   34086   34083      24   34089   34083      24   34089   34086      25
   34095   34092      24   34098   34092      24   34098   34095      25   34104
   34101      24   34107   34101      24   34107   34104      25   34113   34110
      24   34116   34110      24   34116   34113      25   34122   34119      24
   34125   34119      24   34125   34122      25   34131   34128      24   34134
   34128      24   34134   34131      25   34140   34137      24   34143   34137
      24   34143   34140      25   34149   34146      24   34152   34146      24
   34152   34149      25   34158   34155      24   34161   34155      24   34161
   34158      25   34167   34164      24   34170   34164      24   34170   34167
      25   34176   34173      24   34179   34173      24   34179   34176      25
   34185   34182      24   34188   34182      24   34188   34185      25   34194
   34191      24   34197   34191      24   34197   34194      25   34203   34200
      24   34206   34200      24   34206   34203      25   34212   34209      24
   34215   34209      24   34215   34212      25   34221   34218      24   34224
   34218      24   34224   34221      25   34230   34227      24   34233   34227
      24   34233   34230      25   34239   34236      24   34242   34236      24
   34242   34239      25   34248   34245      24   34251   34245      24   34251
   34248      25   34257   34254      24   34260   34254      24   34260   34257
      25   34266   34263      24   34269   34263      24   34269   34266      25
   34275   34272      24   34278   34272      24   34278   34275      25   34284
   34281      24   34287   34281      24   34287   34284      25   34293   34290
      24   34296   34290      24   34296   34293      25   34302   34299      24
   34305   34299      24   34305   34302      25   34311   34308      24   34314
   34308      24   34314   34311      25   34320   34317      24   34323   34317
      24   34323   34320      25   34329   34326      24   34332   34326      24
   34332   34329      25   34338   34335      24   34341   34335      24   34341
   34338      25   34347   34344      24   34350   34344      24   34350   34347
      25   34356   34353      24   34359   34353      24   34359   34356      25
   34365   34362      24   34368   34362      24   34368   34365      25   34374
   34371      24   34377   34371      24   34377   34374      25   34383   34380
      24   34386   34380      24   34386   34383      25   34392   34389      24
   34395   34389      24   34395   34392      25   34401   34398      24   34404
   34398      24   34404   34401      25   34410   34407      24   34413   34407
      24   34413   34410      25   34419   34416      24   34422   34416      24
   34422   34419      25   34428   34425      24   34431   34425      24   34431
   34428      25   34437   34434      24   34440   34434      24   34440   34437
      25   34446   34443      24   34449   34443      24   34449   34446      25
   34455   34452      24   34458   34452      24   34458   34455      25   34464
   34461      24   34467   34461      24   34467   34464      25   34473   34470
      24   34476   34470      24   34476   34473      25   34482   34479      24
   34485   34479      24   34485   34482      25   34491   34488      24   34494
   34488      24   34494   34491      25   34500   34497      24   34503   34497
      24   34503   34500      25   34509   34506      24   34512   34506      24
   34512   34509      25   34518   34515      24   34521   34515      24   34521
   34518      25   34527   34524      24   34530   34524      24   34530   34527
      25   34536   34533      24   34539   34533      24   34539   34536      25
   34545   34542      24   34548   34542      24   34548   34545      25   34554
   34551      24   34557   34551      24   34557   34554      25   34563   34560
      24   34566   34560      24   34566   34563      25   34572   34569      24
   34575   34569      24   34575   34572      25   34581   34578      24   34584
   34578      24   34584   34581      25   34590   34587      24   34593   34587
      24   34593   34590      25   34599   34596      24   34602   34596      24
   34602   34599      25   34608   34605      24   34611   34605      24   34611
   34608      25   34617   34614      24   34620   34614      24   34620   34617
      25   34626   34623      24   34629   34623      24   34629   34626      25
   34635   34632      24   34638   34632      24   34638   34635      25   34644
   34641      24   34647   34641      24   34647   34644      25   34653   34650
      24   34656   34650      24   34656   34653      25   34662   34659      24
   34665   34659      24   34665   34662      25   34671   34668      24   34674
   34668      24   34674   34671      25   34680   34677      24   34683   34677
      24   34683   34680      25   34689   34686      24   34692   34686      24
   34692   34689      25   34698   34695      24   34701   34695      24   34701
   34698      25   34707   34704      24   34710   34704      24   34710   34707
      25   34716   34713      24   34719   34713      24   34719   34716      25
   34725   34722      24   34728   34722      24   34728   34725      25   34734
   34731      24   34737   34731      24   34737   34734      25   34743   34740
      24   34746   34740      24   34746   34743      25   34752   34749      24
   34755   34749      24   34755   34752      25   34761   34758      24   34764
   34758      24   34764   34761      25   34770   34767      24   34773   34767
      24   34773   34770      25   34779   34776      24   34782   34776      24
   34782   34779      25   34788   34785      24   34791   34785      24   34791
   34788      25   34797   34794      24   34800   34794      24   34800   34797
      25   34806   34803      24   34809   34803      24   34809   34806      25
   34815   34812      24   34818   34812      24   34818   34815      25   34824
   34821      24   34827   34821      24   34827   34824      25   34833   34830
      24   34836   34830      24   34836   34833      25   34842   34839      24
   34845   34839      24   34845   34842      25   34851   34848      24   34854
   34848      24   34854   34851      25   34860   34857      24   34863   34857
      24   34863   34860      25   34869   34866      24   34872   34866      24
   34872   34869      25   34878   34875      24   34881   34875      24   34881
   34878      25   34887   34884      24   34890   34884      24   34890   34887
      25   34896   34893      24   34899   34893      24   34899   34896      25
   34905   34902      24   34908   34902      24   34908   34905      25   34914
   34911      24   34917   34911      24   34917   34914      25   34923   34920
      24   34926   34920      24   34926   34923      25   34932   34929      24
   34935   34929      24   34935   34932      25   34941   34938      24   34944
   34938      24   34944   34941      25   34950   34947      24   34953   34947
      24   34953   34950      25   34959   34956      24   34962   34956      24
   34962   34959      25   34968   34965      24   34971   34965      24   34971
   34968      25   34977   34974      24   34980   34974      24   34980   34977
      25   34986   34983      24   34989   34983      24   34989   34986      25
   34995   34992      24   34998   34992      24   34998   34995      25   35004
   35001      24   35007   35001      24   35007   35004      25   35013   35010
      24   35016   35010      24   35016   35013      25   35022   35019      24
   35025   35019      24   35025   35022      25   35031   35028      24   35034
   35028      24   35034   35031      25   35040   35037      24   35043   35037
      24   35043   35040      25   35049   35046      24   35052   35046      24
   35052   35049      25   35058   35055      24   35061   35055      24   35061
   35058      25   35067   35064      24   35070   35064      24   35070   35067
      25   35076   35073      24   35079   35073      24   35079   35076      25
   35085   35082      24   35088   35082      24   35088   35085      25   35094
   35091      24   35097   35091      24   35097   35094      25   35103   35100
      24   35106   35100      24   35106   35103      25   35112   35109      24
   35115   35109      24   35115   35112      25   35121   35118      24   35124
   35118      24   35124   35121      25   35130   35127      24   35133   35127
      24   35133   35130      25   35139   35136      24   35142   35136      24
   35142   35139      25   35148   35145      24   35151   35145      24   35151
   35148      25   35157   35154      24   35160   35154      24   35160   35157
      25   35166   35163      24   35169   35163      24   35169   35166      25
   35175   35172      24   35178   35172      24   35178   35175      25   35184
   35181      24   35187   35181      24   35187   35184      25   35193   35190
      24   35196   35190      24   35196   35193      25   35202   35199      24
   35205   35199      24   35205   35202      25   35211   35208      24   35214
   35208      24   35214   35211      25   35220   35217      24   35223   35217
      24   35223   35220      25   35229   35226      24   35232   35226      24
   35232   35229      25   35238   35235      24   35241   35235      24   35241
   35238      25   35247   35244      24   35250   35244      24   35250   35247
      25   35256   35253      24   35259   35253      24   35259   35256      25
   35265   35262      24   35268   35262      24   35268   35265      25   35274
   35271      24   35277   35271      24   35277   35274      25   35283   35280
      24   35286   35280      24   35286   35283      25   35292   35289      24
   35295   35289      24   35295   35292      25   35301   35298      24   35304
   35298      24   35304   35301      25   35310   35307      24   35313   35307
      24   35313   35310      25   35319   35316      24   35322   35316      24
   35322   35319      25   35328   35325      24   35331   35325      24   35331
   35328      25   35337   35334      24   35340   35334      24   35340   35337
      25   35346   35343      24   35349   35343      24   35349   35346      25
   35355   35352      24   35358   35352      24   35358   35355      25   35364
   35361      24   35367   35361      24   35367   35364      25   35373   35370
      24   35376   35370      24   35376   35373      25   35382   35379      24
   35385   35379      24   35385   35382      25   35391   35388      24   35394
   35388      24   35394   35391      25   35400   35397      24   35403   35397
      24   35403   35400      25   35409   35406      24   35412   35406      24
   35412   35409      25   35418   35415      24   35421   35415      24   35421
   35418      25   35427   35424      24   35430   35424      24   35430   35427
      25   35436   35433      24   35439   35433      24   35439   35436      25
   35445   35442      24   35448   35442      24   35448   35445      25   35454
   35451      24   35457   35451      24   35457   35454      25   35463   35460
      24   35466   35460      24   35466   35463      25   35472   35469      24
   35475   35469      24   35475   35472      25   35481   35478      24   35484
   35478      24   35484   35481      25   35490   35487      24   35493   35487
      24   35493   35490      25   35499   35496      24   35502   35496      24
   35502   35499      25   35508   35505      24   35511   35505      24   35511
   35508      25   35517   35514      24   35520   35514      24   35520   35517
      25   35526   35523      24   35529   35523      24   35529   35526      25
   35535   35532      24   35538   35532      24   35538   35535      25   35544
   35541      24   35547   35541      24   35547   35544      25   35553   35550
      24   35556   35550      24   35556   35553      25   35562   35559      24
   35565   35559      24   35565   35562      25   35571   35568      24   35574
   35568      24   35574   35571      25   35580   35577      24   35583   35577
      24   35583   35580      25   35589   35586      24   35592   35586      24
   35592   35589      25   35598   35595      24   35601   35595      24   35601
   35598      25   35607   35604      24   35610   35604      24   35610   35607
      25   35616   35613      24   35619   35613      24   35619   35616      25
   35625   35622      24   35628   35622      24   35628   35625      25   35634
   35631      24   35637   35631      24   35637   35634      25   35643   35640
      24   35646   35640      24   35646   35643      25   35652   35649      24
   35655   35649      24   35655   35652      25   35661   35658      24   35664
   35658      24   35664   35661      25   35670   35667      24   35673   35667
      24   35673   35670      25   35679   35676      24   35682   35676      24
   35682   35679      25   35688   35685      24   35691   35685      24   35691
   35688      25   35697   35694      24   35700   35694      24   35700   35697
      25   35706   35703      24   35709   35703      24   35709   35706      25
   35715   35712      24   35718   35712      24   35718   35715      25   35724
   35721      24   35727   35721      24   35727   35724      25   35733   35730
      24   35736   35730      24   35736   35733      25   35742   35739      24
   35745   35739      24   35745   35742      25   35751   35748      24   35754
   35748      24   35754   35751      25   35760   35757      24   35763   35757
      24   35763   35760      25   35769   35766      24   35772   35766      24
   35772   35769      25   35778   35775      24   35781   35775      24   35781
   35778      25   35787   35784      24   35790   35784      24   35790   35787
      25   35796   35793      24   35799   35793      24   35799   35796      25
   35805   35802      24   35808   35802      24   35808   35805      25   35814
   35811      24   35817   35811      24   35817   35814      25   35823   35820
      24   35826   35820      24   35826   35823      25   35832   35829      24
   35835   35829      24   35835   35832      25   35841   35838      24   35844
   35838      24   35844   35841      25   35850   35847      24   35853   35847
      24   35853   35850      25   35859   35856      24   35862   35856      24
   35862   35859      25   35868   35865      24   35871   35865      24   35871
   35868      25   35877   35874      24   35880   35874      24   35880   35877
      25   35886   35883      24   35889   35883      24   35889   35886      25
   35895   35892      24   35898   35892      24   35898   35895      25   35904
   35901      24   35907   35901      24   35907   35904      25   35913   35910
      24   35916   35910      24   35916   35913      25   35922   35919      24
   35925   35919      24   35925   35922      25   35931   35928      24   35934
   35928      24   35934   35931      25   35940   35937      24   35943   35937
      24   35943   35940      25   35949   35946      24   35952   35946      24
   35952   35949      25   35958   35955      24   35961   35955      24   35961
   35958      25   35967   35964      24   35970   35964      24   35970   35967
      25   35976   35973      24   35979   35973      24   35979   35976      25
   35985   35982      24   35988   35982      24   35988   35985      25   35994
   35991      24   35997   35991      24   35997   35994      25   36003   36000
      24   36006   36000      24   36006   36003      25   36012   36009      24
   36015   36009      24   36015   36012      25   36021   36018      24   36024
   36018      24   36024   36021      25   36030   36027      24   36033   36027
      24   36033   36030      25   36039   36036      24   36042   36036      24
   36042   36039      25   36048   36045      24   36051   36045      24   36051
   36048      25   36057   36054      24   36060   36054      24   36060   36057
      25   36066   36063      24   36069   36063      24   36069   36066      25
   36075   36072      24   36078   36072      24   36078   36075      25   36084
   36081      24   36087   36081      24   36087   36084      25   36093   36090
      24   36096   36090      24   36096   36093      25   36102   36099      24
   36105   36099      24   36105   36102      25   36111   36108      24   36114
   36108      24   36114   36111      25   36120   36117      24   36123   36117
      24   36123   36120      25   36129   36126      24   36132   36126      24
   36132   36129      25   36138   36135      24   36141   36135      24   36141
   36138      25   36147   36144      24   36150   36144      24   36150   36147
      25   36156   36153      24   36159   36153      24   36159   36156      25
   36165   36162      24   36168   36162      24   36168   36165      25   36174
   36171      24   36177   36171      24   36177   36174      25   36183   36180
      24   36186   36180      24   36186   36183      25   36192   36189      24
   36195   36189      24   36195   36192      25   36201   36198      24   36204
   36198      24   36204   36201      25   36210   36207      24   36213   36207
      24   36213   36210      25   36219   36216      24   36222   36216      24
   36222   36219      25   36228   36225      24   36231   36225      24   36231
   36228      25   36237   36234      24   36240   36234      24   36240   36237
      25   36246   36243      24   36249   36243      24   36249   36246      25
   36255   36252      24   36258   36252      24   36258   36255      25   36264
   36261      24   36267   36261      24   36267   36264      25   36273   36270
      24   36276   36270      24   36276   36273      25   36282   36279      24
   36285   36279      24   36285   36282      25   36291   36288      24   36294
   36288      24   36294   36291      25   36300   36297      24   36303   36297
      24   36303   36300      25   36309   36306      24   36312   36306      24
   36312   36309      25   36318   36315      24   36321   36315      24   36321
   36318      25   36327   36324      24   36330   36324      24   36330   36327
      25   36336   36333      24   36339   36333      24   36339   36336      25
   36345   36342      24   36348   36342      24   36348   36345      25   36354
   36351      24   36357   36351      24   36357   36354      25   36363   36360
      24   36366   36360      24   36366   36363      25   36372   36369      24
   36375   36369      24   36375   36372      25   36381   36378      24   36384
   36378      24   36384   36381      25   36390   36387      24   36393   36387
      24   36393   36390      25   36399   36396      24   36402   36396      24
   36402   36399      25   36408   36405      24   36411   36405      24   36411
   36408      25   36417   36414      24   36420   36414      24   36420   36417
      25   36426   36423      24   36429   36423      24   36429   36426      25
   36435   36432      24   36438   36432      24   36438   36435      25   36444
   36441      24   36447   36441      24   36447   36444      25   36453   36450
      24   36456   36450      24   36456   36453      25   36462   36459      24
   36465   36459      24   36465   36462      25   36471   36468      24   36474
   36468      24   36474   36471      25   36480   36477      24   36483   36477
      24   36483   36480      25   36489   36486      24   36492   36486      24
   36492   36489      25   36498   36495      24   36501   36495      24   36501
   36498      25   36507   36504      24   36510   36504      24   36510   36507
      25   36516   36513      24   36519   36513      24   36519   36516      25
   36525   36522      24   36528   36522      24   36528   36525      25   36534
   36531      24   36537   36531      24   36537   36534      25   36543   36540
      24   36546   36540      24   36546   36543      25   36552   36549      24
   36555   36549      24   36555   36552      25   36561   36558      24   36564
   36558      24   36564   36561      25   36570   36567      24   36573   36567
      24   36573   36570      25   36579   36576      24   36582   36576      24
   36582   36579      25   36588   36585      24   36591   36585      24   36591
   36588      25   36597   36594      24   36600   36594      24   36600   36597
      25   36606   36603      24   36609   36603      24   36609   36606      25
   36615   36612      24   36618   36612      24   36618   36615      25   36624
   36621      24   36627   36621      24   36627   36624      25   36633   36630
      24   36636   36630      24   36636   36633      25   36642   36639      24
   36645   36639      24   36645   36642      25   36651   36648      24   36654
   36648      24   36654   36651      25   36660   36657      24   36663   36657
      24   36663   36660      25   36669   36666      24   36672   36666      24
   36672   36669      25   36678   36675      24   36681   36675      24   36681
   36678      25   36687   36684      24   36690   36684      24   36690   36687
      25   36696   36693      24   36699   36693      24   36699   36696      25
   36705   36702      24   36708   36702      24   36708   36705      25   36714
   36711      24   36717   36711      24   36717   36714      25   36723   36720
      24   36726   36720      24   36726   36723      25   36732   36729      24
   36735   36729      24   36735   36732      25   36741   36738      24   36744
   36738      24   36744   36741      25   36750   36747      24   36753   36747
      24   36753   36750      25   36759   36756      24   36762   36756      24
   36762   36759      25   36768   36765      24   36771   36765      24   36771
   36768      25   36777   36774      24   36780   36774      24   36780   36777
      25   36786   36783      24   36789   36783      24   36789   36786      25
   36795   36792      24   36798   36792      24   36798   36795      25   36804
   36801      24   36807   36801      24   36807   36804      25   36813   36810
      24   36816   36810      24   36816   36813      25   36822   36819      24
   36825   36819      24   36825   36822      25   36831   36828      24   36834
   36828      24   36834   36831      25   36840   36837      24   36843   36837
      24   36843   36840      25   36849   36846      24   36852   36846      24
   36852   36849      25   36858   36855      24   36861   36855      24   36861
   36858      25   36867   36864      24   36870   36864      24   36870   36867
      25   36876   36873      24   36879   36873      24   36879   36876      25
   36885   36882      24   36888   36882      24   36888   36885      25   36894
   36891      24   36897   36891      24   36897   36894      25   36903   36900
      24   36906   36900      24   36906   36903      25   36912   36909      24
   36915   36909      24   36915   36912      25   36921   36918      24   36924
   36918      24   36924   36921      25   36930   36927      24   36933   36927
      24   36933   36930      25   36939   36936      24   36942   36936      24
   36942   36939      25   36948   36945      24   36951   36945      24   36951
   36948      25   36957   36954      24   36960   36954      24   36960   36957
      25   36966   36963      24   36969   36963      24   36969   36966      25
   36975   36972      24   36978   36972      24   36978   36975      25   36984
   36981      24   36987   36981      24   36987   36984      25   36993   36990
      24   36996   36990      24   36996   36993      25   37002   36999      24
   37005   36999      24   37005   37002      25   37011   37008      24   37014
   37008      24   37014   37011      25   37020   37017      24   37023   37017
      24   37023   37020      25   37029   37026      24   37032   37026      24
   37032   37029      25   37038   37035      24   37041   37035      24   37041
   37038      25   37047   37044      24   37050   37044      24   37050   37047
      25   37056   37053      24   37059   37053      24   37059   37056      25
   37065   37062      24   37068   37062      24   37068   37065      25   37074
   37071      24   37077   37071      24   37077   37074      25   37083   37080
      24   37086   37080      24   37086   37083      25   37092   37089      24
   37095   37089      24   37095   37092      25   37101   37098      24   37104
   37098      24   37104   37101      25   37110   37107      24   37113   37107
      24   37113   37110      25   37119   37116      24   37122   37116      24
   37122   37119      25   37128   37125      24   37131   37125      24   37131
   37128      25   37137   37134      24   37140   37134      24   37140   37137
      25   37146   37143      24   37149   37143      24   37149   37146      25
   37155   37152      24   37158   37152      24   37158   37155      25   37164
   37161      24   37167   37161      24   37167   37164      25   37173   37170
      24   37176   37170      24   37176   37173      25   37182   37179      24
   37185   37179      24   37185   37182      25   37191   37188      24   37194
   37188      24   37194   37191      25   37200   37197      24   37203   37197
      24   37203   37200      25   37209   37206      24   37212   37206      24
   37212   37209      25   37218   37215      24   37221   37215      24   37221
   37218      25   37227   37224      24   37230   37224      24   37230   37227
      25   37236   37233      24   37239   37233      24   37239   37236      25
   37245   37242      24   37248   37242      24   37248   37245      25   37254
   37251      24   37257   37251      24   37257   37254      25   37263   37260
      24   37266   37260      24   37266   37263      25   37272   37269      24
   37275   37269      24   37275   37272      25   37281   37278      24   37284
   37278      24   37284   37281      25   37290   37287      24   37293   37287
      24   37293   37290      25   37299   37296      24   37302   37296      24
   37302   37299      25   37308   37305      24   37311   37305      24   37311
   37308      25   37317   37314      24   37320   37314      24   37320   37317
      25   37326   37323      24   37329   37323      24   37329   37326      25
   37335   37332      24   37338   37332      24   37338   37335      25   37344
   37341      24   37347   37341      24   37347   37344      25   37353   37350
      24   37356   37350      24   37356   37353      25   37362   37359      24
   37365   37359      24   37365   37362      25   37371   37368      24   37374
   37368      24   37374   37371      25   37380   37377      24   37383   37377
      24   37383   37380      25   37389   37386      24   37392   37386      24
   37392   37389      25   37398   37395      24   37401   37395      24   37401
   37398      25   37407   37404      24   37410   37404      24   37410   37407
      25   37416   37413      24   37419   37413      24   37419   37416      25
   37425   37422      24   37428   37422      24   37428   37425      25   37434
   37431      24   37437   37431      24   37437   37434      25   37443   37440
      24   37446   37440      24   37446   37443      25   37452   37449      24
   37455   37449      24   37455   37452      25   37461   37458      24   37464
   37458      24   37464   37461      25   37470   37467      24   37473   37467
      24   37473   37470      25   37479   37476      24   37482   37476      24
   37482   37479      25   37488   37485      24   37491   37485      24   37491
   37488      25   37497   37494      24   37500   37494      24   37500   37497
      25   37506   37503      24   37509   37503      24   37509   37506      25
   37515   37512      24   37518   37512      24   37518   37515      25   37524
   37521      24   37527   37521      24   37527   37524      25   37533   37530
      24   37536   37530      24   37536   37533      25   37542   37539      24
   37545   37539      24   37545   37542      25   37551   37548      24   37554
   37548      24   37554   37551      25   37560   37557      24   37563   37557
      24   37563   37560      25   37569   37566      24   37572   37566      24
   37572   37569      25   37578   37575      24   37581   37575      24   37581
   37578      25   37587   37584      24   37590   37584      24   37590   37587
      25   37596   37593      24   37599   37593      24   37599   37596      25
   37605   37602      24   37608   37602      24   37608   37605      25   37614
   37611      24   37617   37611      24   37617   37614      25   37623   37620
      24   37626   37620      24   37626   37623      25   37632   37629      24
   37635   37629      24   37635   37632      25   37641   37638      24   37644
   37638      24   37644   37641      25   37650   37647      24   37653   37647
      24   37653   37650      25   37659   37656      24   37662   37656      24
   37662   37659      25   37668   37665      24   37671   37665      24   37671
   37668      25   37677   37674      24   37680   37674      24   37680   37677
      25   37686   37683      24   37689   37683      24   37689   37686      25
   37695   37692      24   37698   37692      24   37698   37695      25   37704
   37701      24   37707   37701      24   37707   37704      25   37713   37710
      24   37716   37710      24   37716   37713      25   37722   37719      24
   37725   37719      24   37725   37722      25   37731   37728      24   37734
   37728      24   37734   37731      25   37740   37737      24   37743   37737
      24   37743   37740      25   37749   37746      24   37752   37746      24
   37752   37749      25   37758   37755      24   37761   37755      24   37761
   37758      25   37767   37764      24   37770   37764      24   37770   37767
      25   37776   37773      24   37779   37773      24   37779   37776      25
   37785   37782      24   37788   37782      24   37788   37785      25   37794
   37791      24   37797   37791      24   37797   37794      25   37803   37800
      24   37806   37800      24   37806   37803      25   37812   37809      24
   37815   37809      24   37815   37812      25   37821   37818      24   37824
   37818      24   37824   37821      25   37830   37827      24   37833   37827
      24   37833   37830      25   37839   37836      24   37842   37836      24
   37842   37839      25   37848   37845      24   37851   37845      24   37851
   37848      25   37857   37854      24   37860   37854      24   37860   37857
      25   37866   37863      24   37869   37863      24   37869   37866      25
   37875   37872      24   37878   37872      24   37878   37875      25   37884
   37881      24   37887   37881      24   37887   37884      25   37893   37890
      24   37896   37890      24   37896   37893      25   37902   37899      24
   37905   37899      24   37905   37902      25   37911   37908      24   37914
   37908      24   37914   37911      25   37920   37917      24   37923   37917
      24   37923   37920      25   37929   37926      24   37932   37926      24
   37932   37929      25   37938   37935      24   37941   37935      24   37941
   37938      25   37947   37944      24   37950   37944      24   37950   37947
      25   37956   37953      24   37959   37953      24   37959   37956      25
   37965   37962      24   37968   37962      24   37968   37965      25   37974
   37971      24   37977   37971      24   37977   37974      25   37983   37980
      24   37986   37980      24   37986   37983      25   37992   37989      24
   37995   37989      24   37995   37992      25   38001   37998      24   38004
   37998      24   38004   38001      25   38010   38007      24   38013   38007
      24   38013   38010      25   38019   38016      24   38022   38016      24
   38022   38019      25   38028   38025      24   38031   38025      24   38031
   38028      25   38037   38034      24   38040   38034      24   38040   38037
      25   38046   38043      24   38049   38043      24   38049   38046      25
   38055   38052      24   38058   38052      24   38058   38055      25   38064
   38061      24   38067   38061      24   38067   38064      25   38073   38070
      24   38076   38070      24   38076   38073      25   38082   38079      24
   38085   38079      24   38085   38082      25   38091   38088      24   38094
   38088      24   38094   38091      25   38100   38097      24   38103   38097
      24   38103   38100      25   38109   38106      24   38112   38106      24
   38112   38109      25   38118   38115      24   38121   38115      24   38121
   38118      25   38127   38124      24   38130   38124      24   38130   38127
      25   38136   38133      24   38139   38133      24   38139   38136      25
   38145   38142      24   38148   38142      24   38148   38145      25   38154
   38151      24   38157   38151      24   38157   38154      25   38163   38160
      24   38166   38160      24   38166   38163      25   38172   38169      24
   38175   38169      24   38175   38172      25   38181   38178      24   38184
   38178      24   38184   38181      25   38190   38187      24   38193   38187
      24   38193   38190      25   38199   38196      24   38202   38196      24
   38202   38199      25   38208   38205      24   38211   38205      24   38211
   38208      25   38217   38214      24   38220   38214      24   38220   38217
      25   38226   38223      24   38229   38223      24   38229   38226      25
   38235   38232      24   38238   38232      24   38238   38235      25   38244
   38241      24   38247   38241      24   38247   38244      25   38253   38250
      24   38256   38250      24   38256   38253      25   38262   38259      24
   38265   38259      24   38265   38262      25   38271   38268      24   38274
   38268      24   38274   38271      25   38280   38277      24   38283   38277
      24   38283   38280      25   38289   38286      24   38292   38286      24
   38292   38289      25   38298   38295      24   38301   38295      24   38301
   38298      25   38307   38304      24   38310   38304      24   38310   38307
      25   38316   38313      24   38319   38313      24   38319   38316      25
   38325   38322      24   38328   38322      24   38328   38325      25   38334
   38331      24   38337   38331      24   38337   38334      25   38343   38340
      24   38346   38340      24   38346   38343      25   38352   38349      24
   38355   38349      24   38355   38352      25   38361   38358      24   38364
   38358      24   38364   38361      25   38370   38367      24   38373   38367
      24   38373   38370      25   38379   38376      24   38382   38376      24
   38382   38379      25   38388   38385      24   38391   38385      24   38391
   38388      25   38397   38394      24   38400   38394      24   38400   38397
      25   38406   38403      24   38409   38403      24   38409   38406      25
   38415   38412      24   38418   38412      24   38418   38415      25   38424
   38421      24   38427   38421      24   38427   38424      25   38433   38430
      24   38436   38430      24   38436   38433      25   38442   38439      24
   38445   38439      24   38445   38442      25   38451   38448      24   38454
   38448      24   38454   38451      25   38460   38457      24   38463   38457
      24   38463   38460      25   38469   38466      24   38472   38466      24
   38472   38469      25   38478   38475      24   38481   38475      24   38481
   38478      25   38487   38484      24   38490   38484      24   38490   38487
      25   38496   38493      24   38499   38493      24   38499   38496      25
   38505   38502      24   38508   38502      24   38508   38505      25   38514
   38511      24   38517   38511      24   38517   38514      25   38523   38520
      24   38526   38520      24   38526   38523      25   38532   38529      24
   38535   38529      24   38535   38532      25   38541   38538      24   38544
   38538      24   38544   38541      25   38550   38547      24   38553   38547
      24   38553   38550      25   38559   38556      24   38562   38556      24
   38562   38559      25   38568   38565      24   38571   38565      24   38571
   38568      25   38577   38574      24   38580   38574      24   38580   38577
      25   38586   38583      24   38589   38583      24   38589   38586      25
   38595   38592      24   38598   38592      24   38598   38595      25   38604
   38601      24   38607   38601      24   38607   38604      25   38613   38610
      24   38616   38610      24   38616   38613      25   38622   38619      24
   38625   38619      24   38625   38622      25   38631   38628      24   38634
   38628      24   38634   38631      25   38640   38637      24   38643   38637
      24   38643   38640      25   38649   38646      24   38652   38646      24
   38652   38649      25   38658   38655      24   38661   38655      24   38661
   38658      25   38667   38664      24   38670   38664      24   38670   38667
      25   38676   38673      24   38679   38673      24   38679   38676      25
   38685   38682      24   38688   38682      24   38688   38685      25   38694
   38691      24   38697   38691      24   38697   38694      25   38703   38700
      24   38706   38700      24   38706   38703      25   38712   38709      24
   38715   38709      24   38715   38712      25   38721   38718      24   38724
   38718      24   38724   38721      25   38730   38727      24   38733   38727
      24   38733   38730      25   38739   38736      24   38742   38736      24
   38742   38739      25   38748   38745      24   38751   38745      24   38751
   38748      25   38757   38754      24   38760   38754      24   38760   38757
      25   38766   38763      24   38769   38763      24   38769   38766      25
   38775   38772      24   38778   38772      24   38778   38775      25   38784
   38781      24   38787   38781      24   38787   38784      25   38793   38790
      24   38796   38790      24   38796   38793      25   38802   38799      24
   38805   38799      24   38805   38802      25   38811   38808      24   38814
   38808      24   38814   38811      25   38820   38817      24   38823   38817
      24   38823   38820      25   38829   38826      24   38832   38826      24
   38832   38829      25   38838   38835      24   38841   38835      24   38841
   38838      25   38847   38844      24   38850   38844      24   38850   38847
      25   38856   38853      24   38859   38853      24   38859   38856      25
   38865   38862      24   38868   38862      24   38868   38865      25   38874
   38871      24   38877   38871      24   38877   38874      25   38883   38880
      24   38886   38880      24   38886   38883      25   38892   38889      24
   38895   38889      24   38895   38892      25   38901   38898      24   38904
   38898      24   38904   38901      25   38910   38907      24   38913   38907
      24   38913   38910      25   38919   38916      24   38922   38916      24
   38922   38919      25   38928   38925      24   38931   38925      24   38931
   38928      25   38937   38934      24   38940   38934      24   38940   38937
      25   38946   38943      24   38949   38943      24   38949   38946      25
   38955   38952      24   38958   38952      24   38958   38955      25   38964
   38961      24   38967   38961      24   38967   38964      25   38973   38970
      24   38976   38970      24   38976   38973      25   38982   38979      24
   38985   38979      24   38985   38982      25   38991   38988      24   38994
   38988      24   38994   38991      25   39000   38997      24   39003   38997
      24   39003   39000      25   39009   39006      24   39012   39006      24
   39012   39009      25   39018   39015      24   39021   39015      24   39021
   39018      25   39027   39024      24   39030   39024      24   39030   39027
      25   39036   39033      24   39039   39033      24   39039   39036      25
   39045   39042      24   39048   39042      24   39048   39045      25   39054
   39051      24   39057   39051      24   39057   39054      25   39063   39060
      24   39066   39060      24   39066   39063      25   39072   39069      24
   39075   39069      24   39075   39072      25   39081   39078      24   39084
   39078      24   39084   39081      25   39090   39087      24   39093   39087
      24   39093   39090      25   39099   39096      24   39102   39096      24
   39102   39099      25   39108   39105      24   39111   39105      24   39111
   39108      25   39117   39114      24   39120   39114      24   39120   39117
      25   39126   39123      24   39129   39123      24   39129   39126      25
   39135   39132      24   39138   39132      24   39138   39135      25   39144
   39141      24   39147   39141      24   39147   39144      25   39153   39150
      24   39156   39150      24   39156   39153      25   39162   39159      24
   39165   39159      24   39165   39162      25   39171   39168      24   39174
   39168      24   39174   39171      25   39180   39177      24   39183   39177
      24   39183   39180      25   39189   39186      24   39192   39186      24
   39192   39189      25   39198   39195      24   39201   39195      24   39201
   39198      25   39207   39204      24   39210   39204      24   39210   39207
      25   39216   39213      24   39219   39213      24   39219   39216      25
   39225   39222      24   39228   39222      24   39228   39225      25   39234
   39231      24   39237   39231      24   39237   39234      25   39243   39240
      24   39246   39240      24   39246   39243      25   39252   39249      24
   39255   39249      24   39255   39252      25   39261   39258      24   39264
   39258      24   39264   39261      25   39270   39267      24   39273   39267
      24   39273   39270      25   39279   39276      24   39282   39276      24
   39282   39279      25   39288   39285      24   39291   39285      24   39291
   39288      25   39297   39294      24   39300   39294      24   39300   39297
      25   39306   39303      24   39309   39303      24   39309   39306      25
   39315   39312      24   39318   39312      24   39318   39315      25   39324
   39321      24   39327   39321      24   39327   39324      25   39333   39330
      24   39336   39330      24   39336   39333      25   39342   39339      24
   39345   39339      24   39345   39342      25   39351   39348      24   39354
   39348      24   39354   39351      25   39360   39357      24   39363   39357
      24   39363   39360      25   39369   39366      24   39372   39366      24
   39372   39369      25   39378   39375      24   39381   39375      24   39381
   39378      25   39387   39384      24   39390   39384      24   39390   39387
      25   39396   39393      24   39399   39393      24   39399   39396      25
   39405   39402      24   39408   39402      24   39408   39405      25   39414
   39411      24   39417   39411      24   39417   39414      25   39423   39420
      24   39426   39420      24   39426   39423      25   39432   39429      24
   39435   39429      24   39435   39432      25   39441   39438      24   39444
   39438      24   39444   39441      25   39450   39447      24   39453   39447
      24   39453   39450      25   39459   39456      24   39462   39456      24
   39462   39459      25   39468   39465      24   39471   39465      24   39471
   39468      25   39477   39474      24   39480   39474      24   39480   39477
      25   39486   39483      24   39489   39483      24   39489   39486      25
   39495   39492      24   39498   39492      24   39498   39495      25   39504
   39501      24   39507   39501      24   39507   39504      25   39513   39510
      24   39516   39510      24   39516   39513      25   39522   39519      24
   39525   39519      24   39525   39522      25   39531   39528      24   39534
   39528      24   39534   39531      25   39540   39537      24   39543   39537
      24   39543   39540      25   39549   39546      24   39552   39546      24
   39552   39549      25   39558   39555      24   39561   39555      24   39561
   39558      25   39567   39564      24   39570   39564      24   39570   39567
      25   39576   39573      24   39579   39573      24   39579   39576      25
   39585   39582      24   39588   39582      24   39588   39585      25   39594
   39591      24   39597   39591      24   39597   39594      25   39603   39600
      24   39606   39600      24   39606   39603      25   39612   39609      24
   39615   39609      24   39615   39612      25   39621   39618      24   39624
   39618      24   39624   39621      25   39630   39627      24   39633   39627
      24   39633   39630      25   39639   39636      24   39642   39636      24
   39642   39639      25   39648   39645      24   39651   39645      24   39651
   39648      25   39657   39654      24   39660   39654      24   39660   39657
      25   39666   39663      24   39669   39663      24   39669   39666      25
   39675   39672      24   39678   39672      24   39678   39675      25   39684
   39681      24   39687   39681      24   39687   39684      25   39693   39690
      24   39696   39690      24   39696   39693      25   39702   39699      24
   39705   39699      24   39705   39702      25   39711   39708      24   39714
   39708      24   39714   39711      25   39720   39717      24   39723   39717
      24   39723   39720      25   39729   39726      24   39732   39726      24
   39732   39729      25   39738   39735      24   39741   39735      24   39741
   39738      25   39747   39744      24   39750   39744      24   39750   39747
      25   39756   39753      24   39759   39753      24   39759   39756      25
   39765   39762      24   39768   39762      24   39768   39765      25   39774
   39771      24   39777   39771      24   39777   39774      25   39783   39780
      24   39786   39780      24   39786   39783      25   39792   39789      24
   39795   39789      24   39795   39792      25   39801   39798      24   39804
   39798      24   39804   39801      25   39810   39807      24   39813   39807
      24   39813   39810      25   39819   39816      24   39822   39816      24
   39822   39819      25   39828   39825      24   39831   39825      24   39831
   39828      25   39837   39834      24   39840   39834      24   39840   39837
      25   39846   39843      24   39849   39843      24   39849   39846      25
   39855   39852      24   39858   39852      24   39858   39855      25   39864
   39861      24   39867   39861      24   39867   39864      25   39873   39870
      24   39876   39870      24   39876   39873      25   39882   39879      24
   39885   39879      24   39885   39882      25   39891   39888      24   39894
   39888      24   39894   39891      25   39900   39897      24   39903   39897
      24   39903   39900      25   39909   39906      24   39912   39906      24
   39912   39909      25   39918   39915      24   39921   39915      24   39921
   39918      25   39927   39924      24   39930   39924      24   39930   39927
      25   39936   39933      24   39939   39933      24   39939   39936      25
   39945   39942      24   39948   39942      24   39948   39945      25   39954
   39951      24   39957   39951      24   39957   39954      25   39963   39960
      24   39966   39960      24   39966   39963      25   39972   39969      24
   39975   39969      24   39975   39972      25   39981   39978      24   39984
   39978      24   39984   39981      25   39990   39987      24   39993   39987
      24   39993   39990      25   39999   39996      24   40002   39996      24
   40002   39999      25   40008   40005      24   40011   40005      24   40011
   40008      25   40017   40014      24   40020   40014      24   40020   40017
      25   40026   40023      24   40029   40023      24   40029   40026      25
   40035   40032      24   40038   40032      24   40038   40035      25   40044
   40041      24   40047   40041      24   40047   40044      25   40053   40050
      24   40056   40050      24   40056   40053      25   40062   40059      24
   40065   40059      24   40065   40062      25   40071   40068      24   40074
   40068      24   40074   40071      25   40080   40077      24   40083   40077
      24   40083   40080      25   40089   40086      24   40092   40086      24
   40092   40089      25   40098   40095      24   40101   40095      24   40101
   40098      25   40107   40104      24   40110   40104      24   40110   40107
      25   40116   40113      24   40119   40113      24   40119   40116      25
   40125   40122      24   40128   40122      24   40128   40125      25   40134
   40131      24   40137   40131      24   40137   40134      25   40143   40140
      24   40146   40140      24   40146   40143      25   40152   40149      24
   40155   40149      24   40155   40152      25   40161   40158      24   40164
   40158      24   40164   40161      25   40170   40167      24   40173   40167
      24   40173   40170      25   40179   40176      24   40182   40176      24
   40182   40179      25   40188   40185      24   40191   40185      24   40191
   40188      25   40197   40194      24   40200   40194      24   40200   40197
      25   40206   40203      24   40209   40203      24   40209   40206      25
   40215   40212      24   40218   40212      24   40218   40215      25   40224
   40221      24   40227   40221      24   40227   40224      25   40233   40230
      24   40236   40230      24   40236   40233      25   40242   40239      24
   40245   40239      24   40245   40242      25   40251   40248      24   40254
   40248      24   40254   40251      25   40260   40257      24   40263   40257
      24   40263   40260      25   40269   40266      24   40272   40266      24
   40272   40269      25   40278   40275      24   40281   40275      24   40281
   40278      25   40287   40284      24   40290   40284      24   40290   40287
      25   40296   40293      24   40299   40293      24   40299   40296      25
   40305   40302      24   40308   40302      24   40308   40305      25   40314
   40311      24   40317   40311      24   40317   40314      25   40323   40320
      24   40326   40320      24   40326   40323      25   40332   40329      24
   40335   40329      24   40335   40332      25   40341   40338      24   40344
   40338      24   40344   40341      25   40350   40347      24   40353   40347
      24   40353   40350      25   40359   40356      24   40362   40356      24
   40362   40359      25   40368   40365      24   40371   40365      24   40371
   40368      25   40377   40374      24   40380   40374      24   40380   40377
      25   40386   40383      24   40389   40383      24   40389   40386      25
   40395   40392      24   40398   40392      24   40398   40395      25   40404
   40401      24   40407   40401      24   40407   40404      25   40413   40410
      24   40416   40410      24   40416   40413      25   40422   40419      24
   40425   40419      24   40425   40422      25   40431   40428      24   40434
   40428      24   40434   40431      25   40440   40437      24   40443   40437
      24   40443   40440      25   40449   40446      24   40452   40446      24
   40452   40449      25   40458   40455      24   40461   40455      24   40461
   40458      25   40467   40464      24   40470   40464      24   40470   40467
      25   40476   40473      24   40479   40473      24   40479   40476      25
   40485   40482      24   40488   40482      24   40488   40485      25   40494
   40491      24   40497   40491      24   40497   40494      25   40503   40500
      24   40506   40500      24   40506   40503      25   40512   40509      24
   40515   40509      24   40515   40512      25   40521   40518      24   40524
   40518      24   40524   40521      25   40530   40527      24   40533   40527
      24   40533   40530      25   40539   40536      24   40542   40536      24
   40542   40539      25   40548   40545      24   40551   40545      24   40551
   40548      25   40557   40554      24   40560   40554      24   40560   40557
      25   40566   40563      24   40569   40563      24   40569   40566      25
   40575   40572      24   40578   40572      24   40578   40575      25   40584
   40581      24   40587   40581      24   40587   40584      25   40593   40590
      24   40596   40590      24   40596   40593      25   40602   40599      24
   40605   40599      24   40605   40602      25   40611   40608      24   40614
   40608      24   40614   40611      25   40620   40617      24   40623   40617
      24   40623   40620      25   40629   40626      24   40632   40626      24
   40632   40629      25   40638   40635      24   40641   40635      24   40641
   40638      25   40647   40644      24   40650   40644      24   40650   40647
      25   40656   40653      24   40659   40653      24   40659   40656      25
   40665   40662      24   40668   40662      24   40668   40665      25   40674
   40671      24   40677   40671      24   40677   40674      25   40683   40680
      24   40686   40680      24   40686   40683      25   40692   40689      24
   40695   40689      24   40695   40692      25   40701   40698      24   40704
   40698      24   40704   40701      25   40710   40707      24   40713   40707
      24   40713   40710      25   40719   40716      24   40722   40716      24
   40722   40719      25   40728   40725      24   40731   40725      24   40731
   40728      25   40737   40734      24   40740   40734      24   40740   40737
      25   40746   40743      24   40749   40743      24   40749   40746      25
   40755   40752      24   40758   40752      24   40758   40755      25   40764
   40761      24   40767   40761      24   40767   40764      25   40773   40770
      24   40776   40770      24   40776   40773      25   40782   40779      24
   40785   40779      24   40785   40782      25   40791   40788      24   40794
   40788      24   40794   40791      25   40800   40797      24   40803   40797
      24   40803   40800      25   40809   40806      24   40812   40806      24
   40812   40809      25   40818   40815      24   40821   40815      24   40821
   40818      25   40827   40824      24   40830   40824      24   40830   40827
      25   40836   40833      24   40839   40833      24   40839   40836      25
   40845   40842      24   40848   40842      24   40848   40845      25   40854
   40851      24   40857   40851      24   40857   40854      25   40863   40860
      24   40866   40860      24   40866   40863      25   40872   40869      24
   40875   40869      24   40875   40872      25   40881   40878      24   40884
   40878      24   40884   40881      25   40890   40887      24   40893   40887
      24   40893   40890      25   40899   40896      24   40902   40896      24
   40902   40899      25   40908   40905      24   40911   40905      24   40911
   40908      25   40917   40914      24   40920   40914      24   40920   40917
      25   40926   40923      24   40929   40923      24   40929   40926      25
   40935   40932      24   40938   40932      24   40938   40935      25   40944
   40941      24   40947   40941      24   40947   40944      25   40953   40950
      24   40956   40950      24   40956   40953      25   40962   40959      24
   40965   40959      24   40965   40962      25   40971   40968      24   40974
   40968      24   40974   40971      25   40980   40977      24   40983   40977
      24   40983   40980      25   40989   40986      24   40992   40986      24
   40992   40989      25   40998   40995      24   41001   40995      24   41001
   40998      25   41007   41004      24   41010   41004      24   41010   41007
      25   41016   41013      24   41019   41013      24   41019   41016      25
   41025   41022      24   41028   41022      24   41028   41025      25   41034
   41031      24   41037   41031      24   41037   41034      25   41043   41040
      24   41046   41040      24   41046   41043      25   41052   41049      24
   41055   41049      24   41055   41052      25   41061   41058      24   41064
   41058      24   41064   41061      25   41070   41067      24   41073   41067
      24   41073   41070      25   41079   41076      24   41082   41076      24
   41082   41079      25   41088   41085      24   41091   41085      24   41091
   41088      25   41097   41094      24   41100   41094      24   41100   41097
      25   41106   41103      24   41109   41103      24   41109   41106      25
   41115   41112      24   41118   41112      24   41118   41115      25   41124
   41121      24   41127   41121      24   41127   41124      25   41133   41130
      24   41136   41130      24   41136   41133      25   41142   41139      24
   41145   41139      24   41145   41142      25   41151   41148      24   41154
   41148      24   41154   41151      25   41160   41157      24   41163   41157
      24   41163   41160      25   41169   41166      24   41172   41166      24
   41172   41169      25   41178   41175      24   41181   41175      24   41181
   41178      25   41187   41184      24   41190   41184      24   41190   41187
      25   41196   41193      24   41199   41193      24   41199   41196      25
   41205   41202      24   41208   41202      24   41208   41205      25   41214
   41211      24   41217   41211      24   41217   41214      25   41223   41220
      24   41226   41220      24   41226   41223      25   41232   41229      24
   41235   41229      24   41235   41232      25   41241   41238      24   41244
   41238      24   41244   41241      25   41250   41247      24   41253   41247
      24   41253   41250      25   41259   41256      24   41262   41256      24
   41262   41259      25   41268   41265      24   41271   41265      24   41271
   41268      25   41277   41274      24   41280   41274      24   41280   41277
      25   41286   41283      24   41289   41283      24   41289   41286      25
   41295   41292      24   41298   41292      24   41298   41295      25   41304
   41301      24   41307   41301      24   41307   41304      25   41313   41310
      24   41316   41310      24   41316   41313      25   41322   41319      24
   41325   41319      24   41325   41322      25   41331   41328      24   41334
   41328      24   41334   41331      25   41340   41337      24   41343   41337
      24   41343   41340      25   41349   41346      24   41352   41346      24
   41352   41349      25   41358   41355      24   41361   41355      24   41361
   41358      25   41367   41364      24   41370   41364      24   41370   41367
      25   41376   41373      24   41379   41373      24   41379   41376      25
   41385   41382      24   41388   41382      24   41388   41385      25   41394
   41391      24   41397   41391      24   41397   41394      25   41403   41400
      24   41406   41400      24   41406   41403      25   41412   41409      24
   41415   41409      24   41415   41412      25   41421   41418      24   41424
   41418      24   41424   41421      25   41430   41427      24   41433   41427
      24   41433   41430      25   41439   41436      24   41442   41436      24
   41442   41439      25   41448   41445      24   41451   41445      24   41451
   41448      25   41457   41454      24   41460   41454      24   41460   41457
      25   41466   41463      24   41469   41463      24   41469   41466      25
   41475   41472      24   41478   41472      24   41478   41475      25   41484
   41481      24   41487   41481      24   41487   41484      25   41493   41490
      24   41496   41490      24   41496   41493      25   41502   41499      24
   41505   41499      24   41505   41502      25   41511   41508      24   41514
   41508      24   41514   41511      25   41520   41517      24   41523   41517
      24   41523   41520      25   41529   41526      24   41532   41526      24
   41532   41529      25   41538   41535      24   41541   41535      24   41541
   41538      25   41547   41544      24   41550   41544      24   41550   41547
      25   41556   41553      24   41559   41553      24   41559   41556      25
   41565   41562      24   41568   41562      24   41568   41565      25   41574
   41571      24   41577   41571      24   41577   41574      25   41583   41580
      24   41586   41580      24   41586   41583      25   41592   41589      24
   41595   41589      24   41595   41592      25   41601   41598      24   41604
   41598      24   41604   41601      25   41610   41607      24   41613   41607
      24   41613   41610      25   41619   41616      24   41622   41616      24
   41622   41619      25   41628   41625      24   41631   41625      24   41631
   41628      25   41637   41634      24   41640   41634      24   41640   41637
      25   41646   41643      24   41649   41643      24   41649   41646      25
   41655   41652      24   41658   41652      24   41658   41655      25   41664
   41661      24   41667   41661      24   41667   41664      25   41673   41670
      24   41676   41670      24   41676   41673      25   41682   41679      24
   41685   41679      24   41685   41682      25   41691   41688      24   41694
   41688      24   41694   41691      25   41700   41697      24   41703   41697
      24   41703   41700      25   41709   41706      24   41712   41706      24
   41712   41709      25   41718   41715      24   41721   41715      24   41721
   41718      25   41727   41724      24   41730   41724      24   41730   41727
      25   41736   41733      24   41739   41733      24   41739   41736      25
   41745   41742      24   41748   41742      24   41748   41745      25   41754
   41751      24   41757   41751      24   41757   41754      25   41763   41760
      24   41766   41760      24   41766   41763      25   41772   41769      24
   41775   41769      24   41775   41772      25   41781   41778      24   41784
   41778      24   41784   41781      25   41790   41787      24   41793   41787
      24   41793   41790      25   41799   41796      24   41802   41796      24
   41802   41799      25   41808   41805      24   41811   41805      24   41811
   41808      25   41817   41814      24   41820   41814      24   41820   41817
      25   41826   41823      24   41829   41823      24   41829   41826      25
   41835   41832      24   41838   41832      24   41838   41835      25   41844
   41841      24   41847   41841      24   41847   41844      25   41853   41850
      24   41856   41850      24   41856   41853      25   41862   41859      24
   41865   41859      24   41865   41862      25   41871   41868      24   41874
   41868      24   41874   41871      25   41880   41877      24   41883   41877
      24   41883   41880      25   41889   41886      24   41892   41886      24
   41892   41889      25   41898   41895      24   41901   41895      24   41901
   41898      25   41907   41904      24   41910   41904      24   41910   41907
      25   41916   41913      24   41919   41913      24   41919   41916      25
   41925   41922      24   41928   41922      24   41928   41925      25   41934
   41931      24   41937   41931      24   41937   41934      25   41943   41940
      24   41946   41940      24   41946   41943      25   41952   41949      24
   41955   41949      24   41955   41952      25   41961   41958      24   41964
   41958      24   41964   41961      25   41970   41967      24   41973   41967
      24   41973   41970      25   41979   41976      24   41982   41976      24
   41982   41979      25   41988   41985      24   41991   41985      24   41991
   41988      25   41997   41994      24   42000   41994      24   42000   41997
      25   42006   42003      24   42009   42003      24   42009   42006      25
   42015   42012      24   42018   42012      24   42018   42015      25   42024
   42021      24   42027   42021      24   42027   42024      25   42033   42030
      24   42036   42030      24   42036   42033      25   42042   42039      24
   42045   42039      24   42045   42042      25   42051   42048      24   42054
   42048      24   42054   42051      25   42060   42057      24   42063   42057
      24   42063   42060      25   42069   42066      24   42072   42066      24
   42072   42069      25   42078   42075      24   42081   42075      24   42081
   42078      25   42087   42084      24   42090   42084      24   42090   42087
      25   42096   42093      24   42099   42093      24   42099   42096      25
   42105   42102      24   42108   42102      24   42108   42105      25   42114
   42111      24   42117   42111      24   42117   42114      25   42123   42120
      24   42126   42120      24   42126   42123      25   42132   42129      24
   42135   42129      24   42135   42132      25   42141   42138      24   42144
   42138      24   42144   42141      25   42150   42147      24   42153   42147
      24   42153   42150      25   42159   42156      24   42162   42156      24
   42162   42159      25   42168   42165      24   42171   42165      24   42171
   42168      25   42177   42174      24   42180   42174      24   42180   42177
      25   42186   42183      24   42189   42183      24   42189   42186      25
   42195   42192      24   42198   42192      24   42198   42195      25   42204
   42201      24   42207   42201      24   42207   42204      25   42213   42210
      24   42216   42210      24   42216   42213      25   42222   42219      24
   42225   42219      24   42225   42222      25   42231   42228      24   42234
   42228      24   42234   42231      25   42240   42237      24   42243   42237
      24   42243   42240      25   42249   42246      24   42252   42246      24
   42252   42249      25   42258   42255      24   42261   42255      24   42261
   42258      25   42267   42264      24   42270   42264      24   42270   42267
      25   42276   42273      24   42279   42273      24   42279   42276      25
   42285   42282      24   42288   42282      24   42288   42285      25   42294
   42291      24   42297   42291      24   42297   42294      25   42303   42300
      24   42306   42300      24   42306   42303      25   42312   42309      24
   42315   42309      24   42315   42312      25   42321   42318      24   42324
   42318      24   42324   42321      25   42330   42327      24   42333   42327
      24   42333   42330      25   42339   42336      24   42342   42336      24
   42342   42339      25   42348   42345      24   42351   42345      24   42351
   42348      25   42357   42354      24   42360   42354      24   42360   42357
      25   42366   42363      24   42369   42363      24   42369   42366      25
   42375   42372      24   42378   42372      24   42378   42375      25   42384
   42381      24   42387   42381      24   42387   42384      25   42393   42390
      24   42396   42390      24   42396   42393      25   42402   42399      24
   42405   42399      24   42405   42402      25   42411   42408      24   42414
   42408      24   42414   42411      25   42420   42417      24   42423   42417
      24   42423   42420      25   42429   42426      24   42432   42426      24
   42432   42429      25   42438   42435      24   42441   42435      24   42441
   42438      25   42447   42444      24   42450   42444      24   42450   42447
      25   42456   42453      24   42459   42453      24   42459   42456      25
   42465   42462      24   42468   42462      24   42468   42465      25   42474
   42471      24   42477   42471      24   42477   42474      25   42483   42480
      24   42486   42480      24   42486   42483      25   42492   42489      24
   42495   42489      24   42495   42492      25   42501   42498      24   42504
   42498      24   42504   42501      25   42510   42507      24   42513   42507
      24   42513   42510      25   42519   42516      24   42522   42516      24
   42522   42519      25   42528   42525      24   42531   42525      24   42531
   42528      25   42537   42534      24   42540   42534      24   42540   42537
      25   42546   42543      24   42549   42543      24   42549   42546      25
   42555   42552      24   42558   42552      24   42558   42555      25   42564
   42561      24   42567   42561      24   42567   42564      25   42573   42570
      24   42576   42570      24   42576   42573      25   42582   42579      24
   42585   42579      24   42585   42582      25   42591   42588      24   42594
   42588      24   42594   42591      25   42600   42597      24   42603   42597
      24   42603   42600      25   42609   42606      24   42612   42606      24
   42612   42609      25   42618   42615      24   42621   42615      24   42621
   42618      25   42627   42624      24   42630   42624      24   42630   42627
      25   42636   42633      24   42639   42633      24   42639   42636      25
   42645   42642      24   42648   42642      24   42648   42645      25   42654
   42651      24   42657   42651      24   42657   42654      25   42663   42660
      24   42666   42660      24   42666   42663      25   42672   42669      24
   42675   42669      24   42675   42672      25   42681   42678      24   42684
   42678      24   42684   42681      25   42690   42687      24   42693   42687
      24   42693   42690      25   42699   42696      24   42702   42696      24
   42702   42699      25   42708   42705      24   42711   42705      24   42711
   42708      25   42717   42714      24   42720   42714      24   42720   42717
      25   42726   42723      24   42729   42723      24   42729   42726      25
   42735   42732      24   42738   42732      24   42738   42735      25   42744
   42741      24   42747   42741      24   42747   42744      25   42753   42750
      24   42756   42750      24   42756   42753      25   42762   42759      24
   42765   42759      24   42765   42762      25   42771   42768      24   42774
   42768      24   42774   42771      25   42780   42777      24   42783   42777
      24   42783   42780      25   42789   42786      24   42792   42786      24
   42792   42789      25   42798   42795      24   42801   42795      24   42801
   42798      25   42807   42804      24   42810   42804      24   42810   42807
      25   42816   42813      24   42819   42813      24   42819   42816      25
   42825   42822      24   42828   42822      24   42828   42825      25   42834
   42831      24   42837   42831      24   42837   42834      25   42843   42840
      24   42846   42840      24   42846   42843      25   42852   42849      24
   42855   42849      24   42855   42852      25   42861   42858      24   42864
   42858      24   42864   42861      25   42870   42867      24   42873   42867
      24   42873   42870      25   42879   42876      24   42882   42876      24
   42882   42879      25   42888   42885      24   42891   42885      24   42891
   42888      25   42897   42894      24   42900   42894      24   42900   42897
      25   42906   42903      24   42909   42903      24   42909   42906      25
   42915   42912      24   42918   42912      24   42918   42915      25   42924
   42921      24   42927   42921      24   42927   42924      25   42933   42930
      24   42936   42930      24   42936   42933      25   42942   42939      24
   42945   42939      24   42945   42942      25   42951   42948      24   42954
   42948      24   42954   42951      25   42960   42957      24   42963   42957
      24   42963   42960      25   42969   42966      24   42972   42966      24
   42972   42969      25   42978   42975      24   42981   42975      24   42981
   42978      25   42987   42984      24   42990   42984      24   42990   42987
      25   42996   42993      24   42999   42993      24   42999   42996      25
   43005   43002      24   43008   43002      24   43008   43005      25   43014
   43011      24   43017   43011      24   43017   43014      25   43023   43020
      24   43026   43020      24   43026   43023      25   43032   43029      24
   43035   43029      24   43035   43032      25   43041   43038      24   43044
   43038      24   43044   43041      25   43050   43047      24   43053   43047
      24   43053   43050      25   43059   43056      24   43062   43056      24
   43062   43059      25   43068   43065      24   43071   43065      24   43071
   43068      25   43077   43074      24   43080   43074      24   43080   43077
      25   43086   43083      24   43089   43083      24   43089   43086      25
   43095   43092      24   43098   43092      24   43098   43095      25   43104
   43101      24   43107   43101      24   43107   43104      25   43113   43110
      24   43116   43110      24   43116   43113      25   43122   43119      24
   43125   43119      24   43125   43122      25   43131   43128      24   43134
   43128      24   43134   43131      25   43140   43137      24   43143   43137
      24   43143   43140      25   43149   43146      24   43152   43146      24
   43152   43149      25   43158   43155      24   43161   43155      24   43161
   43158      25   43167   43164      24   43170   43164      24   43170   43167
      25   43176   43173      24   43179   43173      24   43179   43176      25
   43185   43182      24   43188   43182      24   43188   43185      25   43194
   43191      24   43197   43191      24   43197   43194      25   43203   43200
      24   43206   43200      24   43206   43203      25   43212   43209      24
   43215   43209      24   43215   43212      25   43221   43218      24   43224
   43218      24   43224   43221      25   43230   43227      24   43233   43227
      24   43233   43230      25   43239   43236      24   43242   43236      24
   43242   43239      25   43248   43245      24   43251   43245      24   43251
   43248      25   43257   43254      24   43260   43254      24   43260   43257
      25   43266   43263      24   43269   43263      24   43269   43266      25
   43275   43272      24   43278   43272      24   43278   43275      25   43284
   43281      24   43287   43281      24   43287   43284      25   43293   43290
      24   43296   43290      24   43296   43293      25   43302   43299      24
   43305   43299      24   43305   43302      25   43311   43308      24   43314
   43308      24   43314   43311      25   43320   43317      24   43323   43317
      24   43323   43320      25   43329   43326      24   43332   43326      24
   43332   43329      25   43338   43335      24   43341   43335      24   43341
   43338      25   43347   43344      24   43350   43344      24   43350   43347
      25   43356   43353      24   43359   43353      24   43359   43356      25
   43365   43362      24   43368   43362      24   43368   43365      25   43374
   43371      24   43377   43371      24   43377   43374      25   43383   43380
      24   43386   43380      24   43386   43383      25   43392   43389      24
   43395   43389      24   43395   43392      25   43401   43398      24   43404
   43398      24   43404   43401      25   43410   43407      24   43413   43407
      24   43413   43410      25   43419   43416      24   43422   43416      24
   43422   43419      25   43428   43425      24   43431   43425      24   43431
   43428      25   43437   43434      24   43440   43434      24   43440   43437
      25   43446   43443      24   43449   43443      24   43449   43446      25
   43455   43452      24   43458   43452      24   43458   43455      25   43464
   43461      24   43467   43461      24   43467   43464      25   43473   43470
      24   43476   43470      24   43476   43473      25   43482   43479      24
   43485   43479      24   43485   43482      25   43491   43488      24   43494
   43488      24   43494   43491      25   43500   43497      24   43503   43497
      24   43503   43500      25   43509   43506      24   43512   43506      24
   43512   43509      25   43518   43515      24   43521   43515      24   43521
   43518      25   43527   43524      24   43530   43524      24   43530   43527
      25   43536   43533      24   43539   43533      24   43539   43536      25
   43545   43542      24   43548   43542      24   43548   43545      25   43554
   43551      24   43557   43551      24   43557   43554      25   43563   43560
      24   43566   43560      24   43566   43563      25   43572   43569      24
   43575   43569      24   43575   43572      25   43581   43578      24   43584
   43578      24   43584   43581      25   43590   43587      24   43593   43587
      24   43593   43590      25   43599   43596      24   43602   43596      24
   43602   43599      25   43608   43605      24   43611   43605      24   43611
   43608      25   43617   43614      24   43620   43614      24   43620   43617
      25   43626   43623      24   43629   43623      24   43629   43626      25
   43635   43632      24   43638   43632      24   43638   43635      25   43644
   43641      24   43647   43641      24   43647   43644      25   43653   43650
      24   43656   43650      24   43656   43653      25   43662   43659      24
   43665   43659      24   43665   43662      25   43671   43668      24   43674
   43668      24   43674   43671      25   43680   43677      24   43683   43677
      24   43683   43680      25   43689   43686      24   43692   43686      24
   43692   43689      25   43698   43695      24   43701   43695      24   43701
   43698      25   43707   43704      24   43710   43704      24   43710   43707
      25   43716   43713      24   43719   43713      24   43719   43716      25
   43725   43722      24   43728   43722      24   43728   43725      25   43734
   43731      24   43737   43731      24   43737   43734      25   43743   43740
      24   43746   43740      24   43746   43743      25   43752   43749      24
   43755   43749      24   43755   43752      25   43761   43758      24   43764
   43758      24   43764   43761      25   43770   43767      24   43773   43767
      24   43773   43770      25   43779   43776      24   43782   43776      24
   43782   43779      25   43788   43785      24   43791   43785      24   43791
   43788      25   43797   43794      24   43800   43794      24   43800   43797
      25   43806   43803      24   43809   43803      24   43809   43806      25
   43815   43812      24   43818   43812      24   43818   43815      25   43824
   43821      24   43827   43821      24   43827   43824      25   43833   43830
      24   43836   43830      24   43836   43833      25   43842   43839      24
   43845   43839      24   43845   43842      25   43851   43848      24   43854
   43848      24   43854   43851      25   43860   43857      24   43863   43857
      24   43863   43860      25   43869   43866      24   43872   43866      24
   43872   43869      25   43878   43875      24   43881   43875      24   43881
   43878      25   43887   43884      24   43890   43884      24   43890   43887
      25   43896   43893      24   43899   43893      24   43899   43896      25
   43905   43902      24   43908   43902      24   43908   43905      25   43914
   43911      24   43917   43911      24   43917   43914      25   43923   43920
      24   43926   43920      24   43926   43923      25   43932   43929      24
   43935   43929      24   43935   43932      25   43941   43938      24   43944
   43938      24   43944   43941      25   43950   43947      24   43953   43947
      24   43953   43950      25   43959   43956      24   43962   43956      24
   43962   43959      25   43968   43965      24   43971   43965      24   43971
   43968      25   43977   43974      24   43980   43974      24   43980   43977
      25   43986   43983      24   43989   43983      24   43989   43986      25
   43995   43992      24   43998   43992      24   43998   43995      25   44004
   44001      24   44007   44001      24   44007   44004      25   44013   44010
      24   44016   44010      24   44016   44013      25   44022   44019      24
   44025   44019      24   44025   44022      25   44031   44028      24   44034
   44028      24   44034   44031      25   44040   44037      24   44043   44037
      24   44043   44040      25   44049   44046      24   44052   44046      24
   44052   44049      25   44058   44055      24   44061   44055      24   44061
   44058      25   44067   44064      24   44070   44064      24   44070   44067
      25   44076   44073      24   44079   44073      24   44079   44076      25
   44085   44082      24   44088   44082      24   44088   44085      25   44094
   44091      24   44097   44091      24   44097   44094      25   44103   44100
      24   44106   44100      24   44106   44103      25   44112   44109      24
   44115   44109      24   44115   44112      25   44121   44118      24   44124
   44118      24   44124   44121      25   44130   44127      24   44133   44127
      24   44133   44130      25   44139   44136      24   44142   44136      24
   44142   44139      25   44148   44145      24   44151   44145      24   44151
   44148      25   44157   44154      24   44160   44154      24   44160   44157
      25   44166   44163      24   44169   44163      24   44169   44166      25
   44175   44172      24   44178   44172      24   44178   44175      25   44184
   44181      24   44187   44181      24   44187   44184      25   44193   44190
      24   44196   44190      24   44196   44193      25   44202   44199      24
   44205   44199      24   44205   44202      25   44211   44208      24   44214
   44208      24   44214   44211      25   44220   44217      24   44223   44217
      24   44223   44220      25   44229   44226      24   44232   44226      24
   44232   44229      25   44238   44235      24   44241   44235      24   44241
   44238      25   44247   44244      24   44250   44244      24   44250   44247
      25   44256   44253      24   44259   44253      24   44259   44256      25
   44265   44262      24   44268   44262      24   44268   44265      25   44274
   44271      24   44277   44271      24   44277   44274      25   44283   44280
      24   44286   44280      24   44286   44283      25   44292   44289      24
   44295   44289      24   44295   44292      25   44301   44298      24   44304
   44298      24   44304   44301      25   44310   44307      24   44313   44307
      24   44313   44310      25   44319   44316      24   44322   44316      24
   44322   44319      25   44328   44325      24   44331   44325      24   44331
   44328      25   44337   44334      24   44340   44334      24   44340   44337
      25   44346   44343      24   44349   44343      24   44349   44346      25
   44355   44352      24   44358   44352      24   44358   44355      25   44364
   44361      24   44367   44361      24   44367   44364      25   44373   44370
      24   44376   44370      24   44376   44373      25   44382   44379      24
   44385   44379      24   44385   44382      25   44391   44388      24   44394
   44388      24   44394   44391      25   44400   44397      24   44403   44397
      24   44403   44400      25   44409   44406      24   44412   44406      24
   44412   44409      25   44418   44415      24   44421   44415      24   44421
   44418      25   44427   44424      24   44430   44424      24   44430   44427
      25   44436   44433      24   44439   44433      24   44439   44436      25
   44445   44442      24   44448   44442      24   44448   44445      25   44454
   44451      24   44457   44451      24   44457   44454      25   44463   44460
      24   44466   44460      24   44466   44463      25   44472   44469      24
   44475   44469      24   44475   44472      25   44481   44478      24   44484
   44478      24   44484   44481      25   44490   44487      24   44493   44487
      24   44493   44490      25   44499   44496      24   44502   44496      24
   44502   44499      25   44508   44505      24   44511   44505      24   44511
   44508      25   44517   44514      24   44520   44514      24   44520   44517
      25   44526   44523      24   44529   44523      24   44529   44526      25
   44535   44532      24   44538   44532      24   44538   44535      25   44544
   44541      24   44547   44541      24   44547   44544      25   44553   44550
      24   44556   44550      24   44556   44553      25   44562   44559      24
   44565   44559      24   44565   44562      25   44571   44568      24   44574
   44568      24   44574   44571      25   44580   44577      24   44583   44577
      24   44583   44580      25   44589   44586      24   44592   44586      24
   44592   44589      25   44598   44595      24   44601   44595      24   44601
   44598      25   44607   44604      24   44610   44604      24   44610   44607
      25   44616   44613      24   44619   44613      24   44619   44616      25
   44625   44622      24   44628   44622      24   44628   44625      25   44634
   44631      24   44637   44631      24   44637   44634      25   44643   44640
      24   44646   44640      24   44646   44643      25   44652   44649      24
   44655   44649      24   44655   44652      25   44661   44658      24   44664
   44658      24   44664   44661      25   44670   44667      24   44673   44667
      24   44673   44670      25   44679   44676      24   44682   44676      24
   44682   44679      25   44688   44685      24   44691   44685      24   44691
   44688      25   44697   44694      24   44700   44694      24   44700   44697
      25   44706   44703      24   44709   44703      24   44709   44706      25
   44715   44712      24   44718   44712      24   44718   44715      25   44724
   44721      24   44727   44721      24   44727   44724      25   44733   44730
      24   44736   44730      24   44736   44733      25   44742   44739      24
   44745   44739      24   44745   44742      25   44751   44748      24   44754
   44748      24   44754   44751      25   44760   44757      24   44763   44757
      24   44763   44760      25   44769   44766      24   44772   44766      24
   44772   44769      25   44778   44775      24   44781   44775      24   44781
   44778      25   44787   44784      24   44790   44784      24   44790   44787
      25   44796   44793      24   44799   44793      24   44799   44796      25
   44805   44802      24   44808   44802      24   44808   44805      25   44814
   44811      24   44817   44811      24   44817   44814      25   44823   44820
      24   44826   44820      24   44826   44823      25   44832   44829      24
   44835   44829      24   44835   44832      25   44841   44838      24   44844
   44838      24   44844   44841      25   44850   44847      24   44853   44847
      24   44853   44850      25   44859   44856      24   44862   44856      24
   44862   44859      25   44868   44865      24   44871   44865      24   44871
   44868      25   44877   44874      24   44880   44874      24   44880   44877
      25   44886   44883      24   44889   44883      24   44889   44886      25
   44895   44892      24   44898   44892      24   44898   44895      25   44904
   44901      24   44907   44901      24   44907   44904      25   44913   44910
      24   44916   44910      24   44916   44913      25   44922   44919      24
   44925   44919      24   44925   44922      25   44931   44928      24   44934
   44928      24   44934   44931      25   44940   44937      24   44943   44937
      24   44943   44940      25   44949   44946      24   44952   44946      24
   44952   44949      25   44958   44955      24   44961   44955      24   44961
   44958      25   44967   44964      24   44970   44964      24   44970   44967
      25   44976   44973      24   44979   44973      24   44979   44976      25
   44985   44982      24   44988   44982      24   44988   44985      25   44994
   44991      24   44997   44991      24   44997   44994      25   45003   45000
      24   45006   45000      24   45006   45003      25   45012   45009      24
   45015   45009      24   45015   45012      25   45021   45018      24   45024
   45018      24   45024   45021      25   45030   45027      24   45033   45027
      24   45033   45030      25   45039   45036      24   45042   45036      24
   45042   45039      25   45048   45045      24   45051   45045      24   45051
   45048      25   45057   45054      24   45060   45054      24   45060   45057
      25   45066   45063      24   45069   45063      24   45069   45066      25
   45075   45072      24   45078   45072      24   45078   45075      25   45084
   45081      24   45087   45081      24   45087   45084      25   45093   45090
      24   45096   45090      24   45096   45093      25   45102   45099      24
   45105   45099      24   45105   45102      25   45111   45108      24   45114
   45108      24   45114   45111      25   45120   45117      24   45123   45117
      24   45123   45120      25   45129   45126      24   45132   45126      24
   45132   45129      25   45138   45135      24   45141   45135      24   45141
   45138      25   45147   45144      24   45150   45144      24   45150   45147
      25   45156   45153      24   45159   45153      24   45159   45156      25
   45165   45162      24   45168   45162      24   45168   45165      25   45174
   45171      24   45177   45171      24   45177   45174      25   45183   45180
      24   45186   45180      24   45186   45183      25   45192   45189      24
   45195   45189      24   45195   45192      25   45201   45198      24   45204
   45198      24   45204   45201      25   45210   45207      24   45213   45207
      24   45213   45210      25   45219   45216      24   45222   45216      24
   45222   45219      25   45228   45225      24   45231   45225      24   45231
   45228      25   45237   45234      24   45240   45234      24   45240   45237
      25   45246   45243      24   45249   45243      24   45249   45246      25
   45255   45252      24   45258   45252      24   45258   45255      25   45264
   45261      24   45267   45261      24   45267   45264      25   45273   45270
      24   45276   45270      24   45276   45273      25   45282   45279      24
   45285   45279      24   45285   45282      25   45291   45288      24   45294
   45288      24   45294   45291      25   45300   45297      24   45303   45297
      24   45303   45300      25   45309   45306      24   45312   45306      24
   45312   45309      25   45318   45315      24   45321   45315      24   45321
   45318      25   45327   45324      24   45330   45324      24   45330   45327
      25   45336   45333      24   45339   45333      24   45339   45336      25
   45345   45342      24   45348   45342      24   45348   45345      25   45354
   45351      24   45357   45351      24   45357   45354      25   45363   45360
      24   45366   45360      24   45366   45363      25   45372   45369      24
   45375   45369      24   45375   45372      25   45381   45378      24   45384
   45378      24   45384   45381      25   45390   45387      24   45393   45387
      24   45393   45390      25   45399   45396      24   45402   45396      24
   45402   45399      25   45408   45405      24   45411   45405      24   45411
   45408      25   45417   45414      24   45420   45414      24   45420   45417
      25   45426   45423      24   45429   45423      24   45429   45426      25
   45435   45432      24   45438   45432      24   45438   45435      25   45444
   45441      24   45447   45441      24   45447   45444      25   45453   45450
      24   45456   45450      24   45456   45453      25   45462   45459      24
   45465   45459      24   45465   45462      25   45471   45468      24   45474
   45468      24   45474   45471      25   45480   45477      24   45483   45477
      24   45483   45480      25   45489   45486      24   45492   45486      24
   45492   45489      25   45498   45495      24   45501   45495      24   45501
   45498      25   45507   45504      24   45510   45504      24   45510   45507
      25   45516   45513      24   45519   45513      24   45519   45516      25
   45525   45522      24   45528   45522      24   45528   45525      25   45534
   45531      24   45537   45531      24   45537   45534      25   45543   45540
      24   45546   45540      24   45546   45543      25   45552   45549      24
   45555   45549      24   45555   45552      25   45561   45558      24   45564
   45558      24   45564   45561      25   45570   45567      24   45573   45567
      24   45573   45570      25   45579   45576      24   45582   45576      24
   45582   45579      25   45588   45585      24   45591   45585      24   45591
   45588      25   45597   45594      24   45600   45594      24   45600   45597
      25   45606   45603      24   45609   45603      24   45609   45606      25
   45615   45612      24   45618   45612      24   45618   45615      25   45624
   45621      24   45627   45621      24   45627   45624      25   45633   45630
      24   45636   45630      24   45636   45633      25   45642   45639      24
   45645   45639      24   45645   45642      25   45651   45648      24   45654
   45648      24   45654   45651      25   45660   45657      24   45663   45657
      24   45663   45660      25   45669   45666      24   45672   45666      24
   45672   45669      25   45678   45675      24   45681   45675      24   45681
   45678      25   45687   45684      24   45690   45684      24   45690   45687
      25   45696   45693      24   45699   45693      24   45699   45696      25
   45705   45702      24   45708   45702      24   45708   45705      25   45714
   45711      24   45717   45711      24   45717   45714      25   45723   45720
      24   45726   45720      24   45726   45723      25   45732   45729      24
   45735   45729      24   45735   45732      25   45741   45738      24   45744
   45738      24   45744   45741      25   45750   45747      24   45753   45747
      24   45753   45750      25   45759   45756      24   45762   45756      24
   45762   45759      25   45768   45765      24   45771   45765      24   45771
   45768      25   45777   45774      24   45780   45774      24   45780   45777
      25   45786   45783      24   45789   45783      24   45789   45786      25
   45795   45792      24   45798   45792      24   45798   45795      25   45804
   45801      24   45807   45801      24   45807   45804      25   45813   45810
      24   45816   45810      24   45816   45813      25   45822   45819      24
   45825   45819      24   45825   45822      25   45831   45828      24   45834
   45828      24   45834   45831      25   45840   45837      24   45843   45837
      24   45843   45840      25   45849   45846      24   45852   45846      24
   45852   45849      25   45858   45855      24   45861   45855      24   45861
   45858      25   45867   45864      24   45870   45864      24   45870   45867
      25   45876   45873      24   45879   45873      24   45879   45876      25
   45885   45882      24   45888   45882      24   45888   45885      25   45894
   45891      24   45897   45891      24   45897   45894      25   45903   45900
      24   45906   45900      24   45906   45903      25   45912   45909      24
   45915   45909      24   45915   45912      25   45921   45918      24   45924
   45918      24   45924   45921      25   45930   45927      24   45933   45927
      24   45933   45930      25   45939   45936      24   45942   45936      24
   45942   45939      25   45948   45945      24   45951   45945      24   45951
   45948      25   45957   45954      24   45960   45954      24   45960   45957
      25   45966   45963      24   45969   45963      24   45969   45966      25
   45975   45972      24   45978   45972      24   45978   45975      25   45984
   45981      24   45987   45981      24   45987   45984      25   45993   45990
      24   45996   45990      24   45996   45993      25   46002   45999      24
   46005   45999      24   46005   46002      25   46011   46008      24   46014
   46008      24   46014   46011      25   46020   46017      24   46023   46017
      24   46023   46020      25   46029   46026      24   46032   46026      24
   46032   46029      25   46038   46035      24   46041   46035      24   46041
   46038      25   46047   46044      24   46050   46044      24   46050   46047
      25   46056   46053      24   46059   46053      24   46059   46056      25
   46065   46062      24   46068   46062      24   46068   46065      25   46074
   46071      24   46077   46071      24   46077   46074      25   46083   46080
      24   46086   46080      24   46086   46083      25   46092   46089      24
   46095   46089      24   46095   46092      25   46101   46098      24   46104
   46098      24   46104   46101      25   46110   46107      24   46113   46107
      24   46113   46110      25   46119   46116      24   46122   46116      24
   46122   46119      25   46128   46125      24   46131   46125      24   46131
   46128      25   46137   46134      24   46140   46134      24   46140   46137
      25   46146   46143      24   46149   46143      24   46149   46146      25
   46155   46152      24   46158   46152      24   46158   46155      25   46164
   46161      24   46167   46161      24   46167   46164      25   46173   46170
      24   46176   46170      24   46176   46173      25   46182   46179      24
   46185   46179      24   46185   46182      25   46191   46188      24   46194
   46188      24   46194   46191      25   46200   46197      24   46203   46197
      24   46203   46200      25   46209   46206      24   46212   46206      24
   46212   46209      25   46218   46215      24   46221   46215      24   46221
   46218      25   46227   46224      24   46230   46224      24   46230   46227
      25   46236   46233      24   46239   46233      24   46239   46236      25
   46245   46242      24   46248   46242      24   46248   46245      25   46254
   46251      24   46257   46251      24   46257   46254      25   46263   46260
      24   46266   46260      24   46266   46263      25   46272   46269      24
   46275   46269      24   46275   46272      25   46281   46278      24   46284
   46278      24   46284   46281      25   46290   46287      24   46293   46287
      24   46293   46290      25   46299   46296      24   46302   46296      24
   46302   46299      25   46308   46305      24   46311   46305      24   46311
   46308      25   46317   46314      24   46320   46314      24   46320   46317
      25   46326   46323      24   46329   46323      24   46329   46326      25
   46335   46332      24   46338   46332      24   46338   46335      25   46344
   46341      24   46347   46341      24   46347   46344      25   46353   46350
      24   46356   46350      24   46356   46353      25   46362   46359      24
   46365   46359      24   46365   46362      25   46371   46368      24   46374
   46368      24   46374   46371      25   46380   46377      24   46383   46377
      24   46383   46380      25   46389   46386      24   46392   46386      24
   46392   46389      25   46398   46395      24   46401   46395      24   46401
   46398      25   46407   46404      24   46410   46404      24   46410   46407
      25   46416   46413      24   46419   46413      24   46419   46416      25
   46425   46422      24   46428   46422      24   46428   46425      25   46434
   46431      24   46437   46431      24   46437   46434      25   46443   46440
      24   46446   46440      24   46446   46443      25   46452   46449      24
   46455   46449      24   46455   46452      25   46461   46458      24   46464
   46458      24   46464   46461      25   46470   46467      24   46473   46467
      24   46473   46470      25   46479   46476      24   46482   46476      24
   46482   46479      25   46488   46485      24   46491   46485      24   46491
   46488      25   46497   46494      24   46500   46494      24   46500   46497
      25   46506   46503      24   46509   46503      24   46509   46506      25
   46515   46512      24   46518   46512      24   46518   46515      25   46524
   46521      24   46527   46521      24   46527   46524      25   46533   46530
      24   46536   46530      24   46536   46533      25   46542   46539      24
   46545   46539      24   46545   46542      25   46551   46548      24   46554
   46548      24   46554   46551      25   46560   46557      24   46563   46557
      24   46563   46560      25   46569   46566      24   46572   46566      24
   46572   46569      25   46578   46575      24   46581   46575      24   46581
   46578      25   46587   46584      24   46590   46584      24   46590   46587
      25   46596   46593      24   46599   46593      24   46599   46596      25
   46605   46602      24   46608   46602      24   46608   46605      25   46614
   46611      24   46617   46611      24   46617   46614      25   46623   46620
      24   46626   46620      24   46626   46623      25   46632   46629      24
   46635   46629      24   46635   46632      25   46641   46638      24   46644
   46638      24   46644   46641      25   46650   46647      24   46653   46647
      24   46653   46650      25   46659   46656      24   46662   46656      24
   46662   46659      25   46668   46665      24   46671   46665      24   46671
   46668      25   46677   46674      24   46680   46674      24   46680   46677
      25   46686   46683      24   46689   46683      24   46689   46686      25
   46695   46692      24   46698   46692      24   46698   46695      25   46704
   46701      24   46707   46701      24   46707   46704      25   46713   46710
      24   46716   46710      24   46716   46713      25   46722   46719      24
   46725   46719      24   46725   46722      25   46731   46728      24   46734
   46728      24   46734   46731      25   46740   46737      24   46743   46737
      24   46743   46740      25   46749   46746      24   46752   46746      24
   46752   46749      25   46758   46755      24   46761   46755      24   46761
   46758      25   46767   46764      24   46770   46764      24   46770   46767
      25   46776   46773      24   46779   46773      24   46779   46776      25
   46785   46782      24   46788   46782      24   46788   46785      25   46794
   46791      24   46797   46791      24   46797   46794      25   46803   46800
      24   46806   46800      24   46806   46803      25   46812   46809      24
   46815   46809      24   46815   46812      25   46821   46818      24   46824
   46818      24   46824   46821      25   46830   46827      24   46833   46827
      24   46833   46830      25   46839   46836      24   46842   46836      24
   46842   46839      25   46848   46845      24   46851   46845      24   46851
   46848      25   46857   46854      24   46860   46854      24   46860   46857
      25   46866   46863      24   46869   46863      24   46869   46866      25
   46875   46872      24   46878   46872      24   46878   46875      25   46884
   46881      24   46887   46881      24   46887   46884      25   46893   46890
      24   46896   46890      24   46896   46893      25   46902   46899      24
   46905   46899      24   46905   46902      25   46911   46908      24   46914
   46908      24   46914   46911      25   46920   46917      24   46923   46917
      24   46923   46920      25   46929   46926      24   46932   46926      24
   46932   46929      25   46938   46935      24   46941   46935      24   46941
   46938      25   46947   46944      24   46950   46944      24   46950   46947
      25   46956   46953      24   46959   46953      24   46959   46956      25
   46965   46962      24   46968   46962      24   46968   46965      25   46974
   46971      24   46977   46971      24   46977   46974      25   46983   46980
      24   46986   46980      24   46986   46983      25   46992   46989      24
   46995   46989      24   46995   46992      25   47001   46998      24   47004
   46998      24   47004   47001      25   47010   47007      24   47013   47007
      24   47013   47010      25   47019   47016      24   47022   47016      24
   47022   47019      25   47028   47025      24   47031   47025      24   47031
   47028      25   47037   47034      24   47040   47034      24   47040   47037
      25   47046   47043      24   47049   47043      24   47049   47046      25
   47055   47052      24   47058   47052      24   47058   47055      25   47064
   47061      24   47067   47061      24   47067   47064      25   47073   47070
      24   47076   47070      24   47076   47073      25   47082   47079      24
   47085   47079      24   47085   47082      25   47091   47088      24   47094
   47088      24   47094   47091      25   47100   47097      24   47103   47097
      24   47103   47100      25   47109   47106      24   47112   47106      24
   47112   47109      25   47118   47115      24   47121   47115      24   47121
   47118      25   47127   47124      24   47130   47124      24   47130   47127
      25   47136   47133      24   47139   47133      24   47139   47136      25
   47145   47142      24   47148   47142      24   47148   47145      25   47154
   47151      24   47157   47151      24   47157   47154      25   47163   47160
      24   47166   47160      24   47166   47163      25   47172   47169      24
   47175   47169      24   47175   47172      25   47181   47178      24   47184
   47178      24   47184   47181      25   47190   47187      24   47193   47187
      24   47193   47190      25   47199   47196      24   47202   47196      24
   47202   47199      25   47208   47205      24   47211   47205      24   47211
   47208      25   47217   47214      24   47220   47214      24   47220   47217
      25   47226   47223      24   47229   47223      24   47229   47226      25
   47235   47232      24   47238   47232      24   47238   47235      25   47244
   47241      24   47247   47241      24   47247   47244      25   47253   47250
      24   47256   47250      24   47256   47253      25   47262   47259      24
   47265   47259      24   47265   47262      25   47271   47268      24   47274
   47268      24   47274   47271      25   47280   47277      24   47283   47277
      24   47283   47280      25   47289   47286      24   47292   47286      24
   47292   47289      25   47298   47295      24   47301   47295      24   47301
   47298      25   47307   47304      24   47310   47304      24   47310   47307
      25   47316   47313      24   47319   47313      24   47319   47316      25
   47325   47322      24   47328   47322      24   47328   47325      25   47334
   47331      24   47337   47331      24   47337   47334      25   47343   47340
      24   47346   47340      24   47346   47343      25   47352   47349      24
   47355   47349      24   47355   47352      25   47361   47358      24   47364
   47358      24   47364   47361      25   47370   47367      24   47373   47367
      24   47373   47370      25   47379   47376      24   47382   47376      24
   47382   47379      25   47388   47385      24   47391   47385      24   47391
   47388      25   47397   47394      24   47400   47394      24   47400   47397
      25   47406   47403      24   47409   47403      24   47409   47406      25
   47415   47412      24   47418   47412      24   47418   47415      25   47424
   47421      24   47427   47421      24   47427   47424      25   47433   47430
      24   47436   47430      24   47436   47433      25   47442   47439      24
   47445   47439      24   47445   47442      25   47451   47448      24   47454
   47448      24   47454   47451      25   47460   47457      24   47463   47457
      24   47463   47460      25   47469   47466      24   47472   47466      24
   47472   47469      25   47478   47475      24   47481   47475      24   47481
   47478      25   47487   47484      24   47490   47484      24   47490   47487
      25   47496   47493      24   47499   47493      24   47499   47496      25
   47505   47502      24   47508   47502      24   47508   47505      25   47514
   47511      24   47517   47511      24   47517   47514      25   47523   47520
      24   47526   47520      24   47526   47523      25   47532   47529      24
   47535   47529      24   47535   47532      25   47541   47538      24   47544
   47538      24   47544   47541      25   47550   47547      24   47553   47547
      24   47553   47550      25   47559   47556      24   47562   47556      24
   47562   47559      25   47568   47565      24   47571   47565      24   47571
   47568      25   47577   47574      24   47580   47574      24   47580   47577
      25   47586   47583      24   47589   47583      24   47589   47586      25
   47595   47592      24   47598   47592      24   47598   47595      25   47604
   47601      24   47607   47601      24   47607   47604      25   47613   47610
      24   47616   47610      24   47616   47613      25   47622   47619      24
   47625   47619      24   47625   47622      25   47631   47628      24   47634
   47628      24   47634   47631      25   47640   47637      24   47643   47637
      24   47643   47640      25   47649   47646      24   47652   47646      24
   47652   47649      25   47658   47655      24   47661   47655      24   47661
   47658      25   47667   47664      24   47670   47664      24   47670   47667
      25   47676   47673      24   47679   47673      24   47679   47676      25
   47685   47682      24   47688   47682      24   47688   47685      25   47694
   47691      24   47697   47691      24   47697   47694      25   47703   47700
      24   47706   47700      24   47706   47703      25   47712   47709      24
   47715   47709      24   47715   47712      25   47721   47718      24   47724
   47718      24   47724   47721      25   47730   47727      24   47733   47727
      24   47733   47730      25   47739   47736      24   47742   47736      24
   47742   47739      25   47748   47745      24   47751   47745      24   47751
   47748      25   47757   47754      24   47760   47754      24   47760   47757
      25   47766   47763      24   47769   47763      24   47769   47766      25
   47775   47772      24   47778   47772      24   47778   47775      25   47784
   47781      24   47787   47781      24   47787   47784      25   47793   47790
      24   47796   47790      24   47796   47793      25   47802   47799      24
   47805   47799      24   47805   47802      25   47811   47808      24   47814
   47808      24   47814   47811      25   47820   47817      24   47823   47817
      24   47823   47820      25   47829   47826      24   47832   47826      24
   47832   47829      25   47838   47835      24   47841   47835      24   47841
   47838      25   47847   47844      24   47850   47844      24   47850   47847
      25   47856   47853      24   47859   47853      24   47859   47856      25
   47865   47862      24   47868   47862      24   47868   47865      25   47874
   47871      24   47877   47871      24   47877   47874      25   47883   47880
      24   47886   47880      24   47886   47883      25   47892   47889      24
   47895   47889      24   47895   47892      25   47901   47898      24   47904
   47898      24   47904   47901      25   47910   47907      24   47913   47907
      24   47913   47910      25   47919   47916      24   47922   47916      24
   47922   47919      25   47928   47925      24   47931   47925      24   47931
   47928      25   47937   47934      24   47940   47934      24   47940   47937
      25   47946   47943      24   47949   47943      24   47949   47946      25
   47955   47952      24   47958   47952      24   47958   47955      25   47964
   47961      24   47967   47961      24   47967   47964      25   47973   47970
      24   47976   47970      24   47976   47973      25   47982   47979      24
   47985   47979      24   47985   47982      25   47991   47988      24   47994
   47988      24   47994   47991      25   48000   47997      24   48003   47997
      24   48003   48000      25   48009   48006      24   48012   48006      24
   48012   48009      25   48018   48015      24   48021   48015      24   48021
   48018      25   48027   48024      24   48030   48024      24   48030   48027
      25   48036   48033      24   48039   48033      24   48039   48036      25
   48045   48042      24   48048   48042      24   48048   48045      25   48054
   48051      24   48057   48051      24   48057   48054      25   48063   48060
      24   48066   48060      24   48066   48063      25   48072   48069      24
   48075   48069      24   48075   48072      25   48081   48078      24   48084
   48078      24   48084   48081      25   48090   48087      24   48093   48087
      24   48093   48090      25   48099   48096      24   48102   48096      24
   48102   48099      25   48108   48105      24   48111   48105      24   48111
   48108      25   48117   48114      24   48120   48114      24   48120   48117
      25   48126   48123      24   48129   48123      24   48129   48126      25
   48135   48132      24   48138   48132      24   48138   48135      25   48144
   48141      24   48147   48141      24   48147   48144      25   48153   48150
      24   48156   48150      24   48156   48153      25   48162   48159      24
   48165   48159      24   48165   48162      25   48171   48168      24   48174
   48168      24   48174   48171      25   48180   48177      24   48183   48177
      24   48183   48180      25   48189   48186      24   48192   48186      24
   48192   48189      25   48198   48195      24   48201   48195      24   48201
   48198      25   48207   48204      24   48210   48204      24   48210   48207
      25   48216   48213      24   48219   48213      24   48219   48216      25
   48225   48222      24   48228   48222      24   48228   48225      25   48234
   48231      24   48237   48231      24   48237   48234      25   48243   48240
      24   48246   48240      24   48246   48243      25   48252   48249      24
   48255   48249      24   48255   48252      25   48261   48258      24   48264
   48258      24   48264   48261      25   48270   48267      24   48273   48267
      24   48273   48270      25   48279   48276      24   48282   48276      24
   48282   48279      25   48288   48285      24   48291   48285      24   48291
   48288      25   48297   48294      24   48300   48294      24   48300   48297
      25   48306   48303      24   48309   48303      24   48309   48306      25
   48315   48312      24   48318   48312      24   48318   48315      25   48324
   48321      24   48327   48321      24   48327   48324      25   48333   48330
      24   48336   48330      24   48336   48333      25   48342   48339      24
   48345   48339      24   48345   48342      25   48351   48348      24   48354
   48348      24   48354   48351      25   48360   48357      24   48363   48357
      24   48363   48360      25   48369   48366      24   48372   48366      24
   48372   48369      25   48378   48375      24   48381   48375      24   48381
   48378      25   48387   48384      24   48390   48384      24   48390   48387
      25   48396   48393      24   48399   48393      24   48399   48396      25
   48405   48402      24   48408   48402      24   48408   48405      25   48414
   48411      24   48417   48411      24   48417   48414      25   48423   48420
      24   48426   48420      24   48426   48423      25   48432   48429      24
   48435   48429      24   48435   48432      25   48441   48438      24   48444
   48438      24   48444   48441      25   48450   48447      24   48453   48447
      24   48453   48450      25   48459   48456      24   48462   48456      24
   48462   48459      25   48468   48465      24   48471   48465      24   48471
   48468      25   48477   48474      24   48480   48474      24   48480   48477
      25   48486   48483      24   48489   48483      24   48489   48486      25
   48495   48492      24   48498   48492      24   48498   48495      25   48504
   48501      24   48507   48501      24   48507   48504      25   48513   48510
      24   48516   48510      24   48516   48513      25   48522   48519      24
   48525   48519      24   48525   48522      25   48531   48528      24   48534
   48528      24   48534   48531      25   48540   48537      24   48543   48537
      24   48543   48540      25   48549   48546      24   48552   48546      24
   48552   48549      25   48558   48555      24   48561   48555      24   48561
   48558      25   48567   48564      24   48570   48564      24   48570   48567
      25   48576   48573      24   48579   48573      24   48579   48576      25
   48585   48582      24   48588   48582      24   48588   48585      25   48594
   48591      24   48597   48591      24   48597   48594      25   48603   48600
      24   48606   48600      24   48606   48603      25   48612   48609      24
   48615   48609      24   48615   48612      25   48621   48618      24   48624
   48618      24   48624   48621      25   48630   48627      24   48633   48627
      24   48633   48630      25   48639   48636      24   48642   48636      24
   48642   48639      25   48648   48645      24   48651   48645      24   48651
   48648      25   48657   48654      24   48660   48654      24   48660   48657
      25   48666   48663      24   48669   48663      24   48669   48666      25
   48675   48672      24   48678   48672      24   48678   48675      25   48684
   48681      24   48687   48681      24   48687   48684      25   48693   48690
      24   48696   48690      24   48696   48693      25   48702   48699      24
   48705   48699      24   48705   48702      25   48711   48708      24   48714
   48708      24   48714   48711      25   48720   48717      24   48723   48717
      24   48723   48720      25   48729   48726      24   48732   48726      24
   48732   48729      25   48738   48735      24   48741   48735      24   48741
   48738      25   48747   48744      24   48750   48744      24   48750   48747
      25   48756   48753      24   48759   48753      24   48759   48756      25
   48765   48762      24   48768   48762      24   48768   48765      25   48774
   48771      24   48777   48771      24   48777   48774      25   48783   48780
      24   48786   48780      24   48786   48783      25   48792   48789      24
   48795   48789      24   48795   48792      25   48801   48798      24   48804
   48798      24   48804   48801      25   48810   48807      24   48813   48807
      24   48813   48810      25   48819   48816      24   48822   48816      24
   48822   48819      25   48828   48825      24   48831   48825      24   48831
   48828      25   48837   48834      24   48840   48834      24   48840   48837
      25   48846   48843      24   48849   48843      24   48849   48846      25
   48855   48852      24   48858   48852      24   48858   48855      25   48864
   48861      24   48867   48861      24   48867   48864      25   48873   48870
      24   48876   48870      24   48876   48873      25   48882   48879      24
   48885   48879      24   48885   48882      25   48891   48888      24   48894
   48888      24   48894   48891      25   48900   48897      24   48903   48897
      24   48903   48900      25   48909   48906      24   48912   48906      24
   48912   48909      25   48918   48915      24   48921   48915      24   48921
   48918      25   48927   48924      24   48930   48924      24   48930   48927
      25   48936   48933      24   48939   48933      24   48939   48936      25
   48945   48942      24   48948   48942      24   48948   48945      25   48954
   48951      24   48957   48951      24   48957   48954      25   48963   48960
      24   48966   48960      24   48966   48963      25   48972   48969      24
   48975   48969      24   48975   48972      25   48981   48978      24   48984
   48978      24   48984   48981      25   48990   48987      24   48993   48987
      24   48993   48990      25   48999   48996      24   49002   48996      24
   49002   48999      25   49008   49005      24   49011   49005      24   49011
   49008      25   49017   49014      24   49020   49014      24   49020   49017
      25   49026   49023      24   49029   49023      24   49029   49026      25
   49035   49032      24   49038   49032      24   49038   49035      25   49044
   49041      24   49047   49041      24   49047   49044      25   49053   49050
      24   49056   49050      24   49056   49053      25   49062   49059      24
   49065   49059      24   49065   49062      25   49071   49068      24   49074
   49068      24   49074   49071      25   49080   49077      24   49083   49077
      24   49083   49080      25   49089   49086      24   49092   49086      24
   49092   49089      25   49098   49095      24   49101   49095      24   49101
   49098      25   49107   49104      24   49110   49104      24   49110   49107
      25   49116   49113      24   49119   49113      24   49119   49116      25
   49125   49122      24   49128   49122      24   49128   49125      25   49134
   49131      24   49137   49131      24   49137   49134      25   49143   49140
      24   49146   49140      24   49146   49143      25   49152   49149      24
   49155   49149      24   49155   49152      25   49161   49158      24   49164
   49158      24   49164   49161      25   49170   49167      24   49173   49167
      24   49173   49170      25   49179   49176      24   49182   49176      24
   49182   49179      25   49188   49185      24   49191   49185      24   49191
   49188      25   49197   49194      24   49200   49194      24   49200   49197
      25   49206   49203      24   49209   49203      24   49209   49206      25
   49215   49212      24   49218   49212      24   49218   49215      25   49224
   49221      24   49227   49221      24   49227   49224      25   49233   49230
      24   49236   49230      24   49236   49233      25   49242   49239      24
   49245   49239      24   49245   49242      25   49251   49248      24   49254
   49248      24   49254   49251      25   49260   49257      24   49263   49257
      24   49263   49260      25   49269   49266      24   49272   49266      24
   49272   49269      25   49278   49275      24   49281   49275      24   49281
   49278      25   49287   49284      24   49290   49284      24   49290   49287
      25   49296   49293      24   49299   49293      24   49299   49296      25
   49305   49302      24   49308   49302      24   49308   49305      25   49314
   49311      24   49317   49311      24   49317   49314      25   49323   49320
      24   49326   49320      24   49326   49323      25   49332   49329      24
   49335   49329      24   49335   49332      25   49341   49338      24   49344
   49338      24   49344   49341      25   49350   49347      24   49353   49347
      24   49353   49350      25   49359   49356      24   49362   49356      24
   49362   49359      25   49368   49365      24   49371   49365      24   49371
   49368      25   49377   49374      24   49380   49374      24   49380   49377
      25   49386   49383      24   49389   49383      24   49389   49386      25
   49395   49392      24   49398   49392      24   49398   49395      25   49404
   49401      24   49407   49401      24   49407   49404      25   49413   49410
      24   49416   49410      24   49416   49413      25   49422   49419      24
   49425   49419      24   49425   49422      25   49431   49428      24   49434
   49428      24   49434   49431      25   49440   49437      24   49443   49437
      24   49443   49440      25   49449   49446      24   49452   49446      24
   49452   49449      25   49458   49455      24   49461   49455      24   49461
   49458      25   49467   49464      24   49470   49464      24   49470   49467
      25   49476   49473      24   49479   49473      24   49479   49476      25
   49485   49482      24   49488   49482      24   49488   49485      25   49494
   49491      24   49497   49491      24   49497   49494      25   49503   49500
      24   49506   49500      24   49506   49503      25   49512   49509      24
   49515   49509      24   49515   49512      25   49521   49518      24   49524
   49518      24   49524   49521      25   49530   49527      24   49533   49527
      24   49533   49530      25   49539   49536      24   49542   49536      24
   49542   49539      25   49548   49545      24   49551   49545      24   49551
   49548      25   49557   49554      24   49560   49554      24   49560   49557
      25   49566   49563      24   49569   49563      24   49569   49566      25
   49575   49572      24   49578   49572      24   49578   49575      25   49584
   49581      24   49587   49581      24   49587   49584      25   49593   49590
      24   49596   49590      24   49596   49593      25   49602   49599      24
   49605   49599      24   49605   49602      25   49611   49608      24   49614
   49608      24   49614   49611      25   49620   49617      24   49623   49617
      24   49623   49620      25   49629   49626      24   49632   49626      24
   49632   49629      25   49638   49635      24   49641   49635      24   49641
   49638      25   49647   49644      24   49650   49644      24   49650   49647
      25   49656   49653      24   49659   49653      24   49659   49656      25
   49665   49662      24   49668   49662      24   49668   49665      25   49674
   49671      24   49677   49671      24   49677   49674      25   49683   49680
      24   49686   49680      24   49686   49683      25   49692   49689      24
   49695   49689      24   49695   49692      25   49701   49698      24   49704
   49698      24   49704   49701      25   49710   49707      24   49713   49707
      24   49713   49710      25   49719   49716      24   49722   49716      24
   49722   49719      25   49728   49725      24   49731   49725      24   49731
   49728      25   49737   49734      24   49740   49734      24   49740   49737
      25   49746   49743      24   49749   49743      24   49749   49746      25
   49755   49752      24   49758   49752      24   49758   49755      25   49764
   49761      24   49767   49761      24   49767   49764      25   49773   49770
      24   49776   49770      24   49776   49773      25   49782   49779      24
   49785   49779      24   49785   49782      25   49791   49788      24   49794
   49788      24   49794   49791      25   49800   49797      24   49803   49797
      24   49803   49800      25   49809   49806      24   49812   49806      24
   49812   49809      25   49818   49815      24   49821   49815      24   49821
   49818      25   49827   49824      24   49830   49824      24   49830   49827
      25   49836   49833      24   49839   49833      24   49839   49836      25
   49845   49842      24   49848   49842      24   49848   49845      25   49854
   49851      24   49857   49851      24   49857   49854      25   49863   49860
      24   49866   49860      24   49866   49863      25   49872   49869      24
   49875   49869      24   49875   49872      25   49881   49878      24   49884
   49878      24   49884   49881      25   49890   49887      24   49893   49887
      24   49893   49890      25   49899   49896      24   49902   49896      24
   49902   49899      25   49908   49905      24   49911   49905      24   49911
   49908      25   49917   49914      24   49920   49914      24   49920   49917
      25   49926   49923      24   49929   49923      24   49929   49926      25
   49935   49932      24   49938   49932      24   49938   49935      25   49944
   49941      24   49947   49941      24   49947   49944      25   49953   49950
      24   49956   49950      24   49956   49953      25   49962   49959      24
   49965   49959      24   49965   49962      25   49971   49968      24   49974
   49968      24   49974   49971      25   49980   49977      24   49983   49977
      24   49983   49980      25   49989   49986      24   49992   49986      24
   49992   49989      25   49998   49995      24   50001   49995      24   50001
   49998      25   50007   50004      24   50010   50004      24   50010   50007
      25   50016   50013      24   50019   50013      24   50019   50016      25
   50025   50022      24   50028   50022      24   50028   50025      25   50034
   50031      24   50037   50031      24   50037   50034      25   50043   50040
      24   50046   50040      24   50046   50043      25   50052   50049      24
   50055   50049      24   50055   50052      25   50061   50058      24   50064
   50058      24   50064   50061      25   50070   50067      24   50073   50067
      24   50073   50070      25   50079   50076      24   50082   50076      24
   50082   50079      25   50088   50085      24   50091   50085      24   50091
   50088      25   50097   50094      24   50100   50094      24   50100   50097
      25   50106   50103      24   50109   50103      24   50109   50106      25
   50115   50112      24   50118   50112      24   50118   50115      25   50124
   50121      24   50127   50121      24   50127   50124      25   50133   50130
      24   50136   50130      24   50136   50133      25   50142   50139      24
   50145   50139      24   50145   50142      25   50151   50148      24   50154
   50148      24   50154   50151      25   50160   50157      24   50163   50157
      24   50163   50160      25   50169   50166      24   50172   50166      24
   50172   50169      25   50178   50175      24   50181   50175      24   50181
   50178      25   50187   50184      24   50190   50184      24   50190   50187
      25   50196   50193      24   50199   50193      24   50199   50196      25
   50205   50202      24   50208   50202      24   50208   50205      25   50214
   50211      24   50217   50211      24   50217   50214      25   50223   50220
      24   50226   50220      24   50226   50223      25   50232   50229      24
   50235   50229      24   50235   50232      25   50241   50238      24   50244
   50238      24   50244   50241      25   50250   50247      24   50253   50247
      24   50253   50250      25   50259   50256      24   50262   50256      24
   50262   50259      25   50268   50265      24   50271   50265      24   50271
   50268      25   50277   50274      24   50280   50274      24   50280   50277
      25   50286   50283      24   50289   50283      24   50289   50286      25
   50295   50292      24   50298   50292      24   50298   50295      25   50304
   50301      24   50307   50301      24   50307   50304      25   50313   50310
      24   50316   50310      24   50316   50313      25   50322   50319      24
   50325   50319      24   50325   50322      25   50331   50328      24   50334
   50328      24   50334   50331      25   50340   50337      24   50343   50337
      24   50343   50340      25   50349   50346      24   50352   50346      24
   50352   50349      25   50358   50355      24   50361   50355      24   50361
   50358      25   50367   50364      24   50370   50364      24   50370   50367
      25   50376   50373      24   50379   50373      24   50379   50376      25
   50385   50382      24   50388   50382      24   50388   50385      25   50394
   50391      24   50397   50391      24   50397   50394      25   50403   50400
      24   50406   50400      24   50406   50403      25   50412   50409      24
   50415   50409      24   50415   50412      25   50421   50418      24   50424
   50418      24   50424   50421      25   50430   50427      24   50433   50427
      24   50433   50430      25   50439   50436      24   50442   50436      24
   50442   50439      25   50448   50445      24   50451   50445      24   50451
   50448      25   50457   50454      24   50460   50454      24   50460   50457
      25   50466   50463      24   50469   50463      24   50469   50466      25
   50475   50472      24   50478   50472      24   50478   50475      25   50484
   50481      24   50487   50481      24   50487   50484      25   50493   50490
      24   50496   50490      24   50496   50493      25   50502   50499      24
   50505   50499      24   50505   50502      25   50511   50508      24   50514
   50508      24   50514   50511      25   50520   50517      24   50523   50517
      24   50523   50520      25   50529   50526      24   50532   50526      24
   50532   50529      25   50538   50535      24   50541   50535      24   50541
   50538      25   50547   50544      24   50550   50544      24   50550   50547
      25   50556   50553      24   50559   50553      24   50559   50556      25
   50565   50562      24   50568   50562      24   50568   50565      25   50574
   50571      24   50577   50571      24   50577   50574      25   50583   50580
      24   50586   50580      24   50586   50583      25   50592   50589      24
   50595   50589      24   50595   50592      25   50601   50598      24   50604
   50598      24   50604   50601      25   50610   50607      24   50613   50607
      24   50613   50610      25   50619   50616      24   50622   50616      24
   50622   50619      25   50628   50625      24   50631   50625      24   50631
   50628      25   50637   50634      24   50640   50634      24   50640   50637
      25   50646   50643      24   50649   50643      24   50649   50646      25
   50655   50652      24   50658   50652      24   50658   50655      25   50664
   50661      24   50667   50661      24   50667   50664      25   50673   50670
      24   50676   50670      24   50676   50673      25   50682   50679      24
   50685   50679      24   50685   50682      25   50691   50688      24   50694
   50688      24   50694   50691      25   50700   50697      24   50703   50697
      24   50703   50700      25   50709   50706      24   50712   50706      24
   50712   50709      25   50718   50715      24   50721   50715      24   50721
   50718      25   50727   50724      24   50730   50724      24   50730   50727
      25   50736   50733      24   50739   50733      24   50739   50736      25
   50745   50742      24   50748   50742      24   50748   50745      25   50754
   50751      24   50757   50751      24   50757   50754      25   50763   50760
      24   50766   50760      24   50766   50763      25   50772   50769      24
   50775   50769      24   50775   50772      25   50781   50778      24   50784
   50778      24   50784   50781      25   50790   50787      24   50793   50787
      24   50793   50790      25   50799   50796      24   50802   50796      24
   50802   50799      25   50808   50805      24   50811   50805      24   50811
   50808      25   50817   50814      24   50820   50814      24   50820   50817
      25   50826   50823      24   50829   50823      24   50829   50826      25
   50835   50832      24   50838   50832      24   50838   50835      25   50844
   50841      24   50847   50841      24   50847   50844      25   50853   50850
      24   50856   50850      24   50856   50853      25   50862   50859      24
   50865   50859      24   50865   50862      25   50871   50868      24   50874
   50868      24   50874   50871      25   50880   50877      24   50883   50877
      24   50883   50880      25   50889   50886      24   50892   50886      24
   50892   50889      25   50898   50895      24   50901   50895      24   50901
   50898      25   50907   50904      24   50910   50904      24   50910   50907
      25   50916   50913      24   50919   50913      24   50919   50916      25
   50925   50922      24   50928   50922      24   50928   50925      25   50934
   50931      24   50937   50931      24   50937   50934      25   50943   50940
      24   50946   50940      24   50946   50943      25   50952   50949      24
   50955   50949      24   50955   50952      25   50961   50958      24   50964
   50958      24   50964   50961      25   50970   50967      24   50973   50967
      24   50973   50970      25   50979   50976      24   50982   50976      24
   50982   50979      25   50988   50985      24   50991   50985      24   50991
   50988      25   50997   50994      24   51000   50994      24   51000   50997
      25   51006   51003      24   51009   51003      24   51009   51006      25
   51015   51012      24   51018   51012      24   51018   51015      25   51024
   51021      24   51027   51021      24   51027   51024      25   51033   51030
      24   51036   51030      24   51036   51033      25   51042   51039      24
   51045   51039      24   51045   51042      25   51051   51048      24   51054
   51048      24   51054   51051      25   51060   51057      24   51063   51057
      24   51063   51060      25   51069   51066      24   51072   51066      24
   51072   51069      25   51078   51075      24   51081   51075      24   51081
   51078      25   51087   51084      24   51090   51084      24   51090   51087
      25   51096   51093      24   51099   51093      24   51099   51096      25
   51105   51102      24   51108   51102      24   51108   51105      25   51114
   51111      24   51117   51111      24   51117   51114      25   51123   51120
      24   51126   51120      24   51126   51123      25   51132   51129      24
   51135   51129      24   51135   51132      25   51141   51138      24   51144
   51138      24   51144   51141      25   51150   51147      24   51153   51147
      24   51153   51150      25   51159   51156      24   51162   51156      24
   51162   51159      25   51168   51165      24   51171   51165      24   51171
   51168      25   51177   51174      24   51180   51174      24   51180   51177
      25   51186   51183      24   51189   51183      24   51189   51186      25
   51195   51192      24   51198   51192      24   51198   51195      25   51204
   51201      24   51207   51201      24   51207   51204      25   51213   51210
      24   51216   51210      24   51216   51213      25   51222   51219      24
   51225   51219      24   51225   51222      25   51231   51228      24   51234
   51228      24   51234   51231      25   51240   51237      24   51243   51237
      24   51243   51240      25   51249   51246      24   51252   51246      24
   51252   51249      25   51258   51255      24   51261   51255      24   51261
   51258      25   51267   51264      24   51270   51264      24   51270   51267
      25   51276   51273      24   51279   51273      24   51279   51276      25
   51285   51282      24   51288   51282      24   51288   51285      25   51294
   51291      24   51297   51291      24   51297   51294      25   51303   51300
      24   51306   51300      24   51306   51303      25   51312   51309      24
   51315   51309      24   51315   51312      25   51321   51318      24   51324
   51318      24   51324   51321      25   51330   51327      24   51333   51327
      24   51333   51330      25   51339   51336      24   51342   51336      24
   51342   51339      25   51348   51345      24   51351   51345      24   51351
   51348      25   51357   51354      24   51360   51354      24   51360   51357
      25   51366   51363      24   51369   51363      24   51369   51366      25
   51375   51372      24   51378   51372      24   51378   51375      25   51384
   51381      24   51387   51381      24   51387   51384      25   51393   51390
      24   51396   51390      24   51396   51393      25   51402   51399      24
   51405   51399      24   51405   51402      25   51411   51408      24   51414
   51408      24   51414   51411      25   51420   51417      24   51423   51417
      24   51423   51420      25   51429   51426      24   51432   51426      24
   51432   51429      25   51438   51435      24   51441   51435      24   51441
   51438      25   51447   51444      24   51450   51444      24   51450   51447
      25   51456   51453      24   51459   51453      24   51459   51456      25
   51465   51462      24   51468   51462      24   51468   51465      25   51474
   51471      24   51477   51471      24   51477   51474      25   51483   51480
      24   51486   51480      24   51486   51483      25   51492   51489      24
   51495   51489      24   51495   51492      25   51501   51498      24   51504
   51498      24   51504   51501      25   51510   51507      24   51513   51507
      24   51513   51510      25   51519   51516      24   51522   51516      24
   51522   51519      25   51528   51525      24   51531   51525      24   51531
   51528      25   51537   51534      24   51540   51534      24   51540   51537
      25   51546   51543      24   51549   51543      24   51549   51546      25
   51555   51552      24   51558   51552      24   51558   51555      25   51564
   51561      24   51567   51561      24   51567   51564      25   51573   51570
      24   51576   51570      24   51576   51573      25   51582   51579      24
   51585   51579      24   51585   51582      25   51591   51588      24   51594
   51588      24   51594   51591      25   51600   51597      24   51603   51597
      24   51603   51600      25   51609   51606      24   51612   51606      24
   51612   51609      25   51618   51615      24   51621   51615      24   51621
   51618      25   51627   51624      24   51630   51624      24   51630   51627
      25   51636   51633      24   51639   51633      24   51639   51636      25
   51645   51642      24   51648   51642      24   51648   51645      25   51654
   51651      24   51657   51651      24   51657   51654      25   51663   51660
      24   51666   51660      24   51666   51663      25   51672   51669      24
   51675   51669      24   51675   51672      25   51681   51678      24   51684
   51678      24   51684   51681      25   51690   51687      24   51693   51687
      24   51693   51690      25   51699   51696      24   51702   51696      24
   51702   51699      25   51708   51705      24   51711   51705      24   51711
   51708      25   51717   51714      24   51720   51714      24   51720   51717
      25   51726   51723      24   51729   51723      24   51729   51726      25
   51735   51732      24   51738   51732      24   51738   51735      25   51744
   51741      24   51747   51741      24   51747   51744      25   51753   51750
      24   51756   51750      24   51756   51753      25   51762   51759      24
   51765   51759      24   51765   51762      25   51771   51768      24   51774
   51768      24   51774   51771      25   51780   51777      24   51783   51777
      24   51783   51780      25   51789   51786      24   51792   51786      24
   51792   51789      25   51798   51795      24   51801   51795      24   51801
   51798      25   51807   51804      24   51810   51804      24   51810   51807
      25   51816   51813      24   51819   51813      24   51819   51816      25
   51825   51822      24   51828   51822      24   51828   51825      25   51834
   51831      24   51837   51831      24   51837   51834      25   51843   51840
      24   51846   51840      24   51846   51843      25   51852   51849      24
   51855   51849      24   51855   51852      25   51861   51858      24   51864
   51858      24   51864   51861      25   51870   51867      24   51873   51867
      24   51873   51870      25   51879   51876      24   51882   51876      24
   51882   51879      25   51888   51885      24   51891   51885      24   51891
   51888      25   51897   51894      24   51900   51894      24   51900   51897
      25   51906   51903      24   51909   51903      24   51909   51906      25
   51915   51912      24   51918   51912      24   51918   51915      25   51924
   51921      24   51927   51921      24   51927   51924      25   51933   51930
      24   51936   51930      24   51936   51933      25   51942   51939      24
   51945   51939      24   51945   51942      25   51951   51948      24   51954
   51948      24   51954   51951      25   51960   51957      24   51963   51957
      24   51963   51960      25   51969   51966      24   51972   51966      24
   51972   51969      25   51978   51975      24   51981   51975      24   51981
   51978      25   51987   51984      24   51990   51984      24   51990   51987
      25   51996   51993      24   51999   51993      24   51999   51996      25
   52005   52002      24   52008   52002      24   52008   52005      25   52014
   52011      24   52017   52011      24   52017   52014      25   52023   52020
      24   52026   52020      24   52026   52023      25   52032   52029      24
   52035   52029      24   52035   52032      25   52041   52038      24   52044
   52038      24   52044   52041      25   52050   52047      24   52053   52047
      24   52053   52050      25   52059   52056      24   52062   52056      24
   52062   52059      25   52068   52065      24   52071   52065      24   52071
   52068      25   52077   52074      24   52080   52074      24   52080   52077
      25   52086   52083      24   52089   52083      24   52089   52086      25
   52095   52092      24   52098   52092      24   52098   52095      25   52104
   52101      24   52107   52101      24   52107   52104      25   52113   52110
      24   52116   52110      24   52116   52113      25   52122   52119      24
   52125   52119      24   52125   52122      25   52131   52128      24   52134
   52128      24   52134   52131      25   52140   52137      24   52143   52137
      24   52143   52140      25   52149   52146      24   52152   52146      24
   52152   52149      25   52158   52155      24   52161   52155      24   52161
   52158      25   52167   52164      24   52170   52164      24   52170   52167
      25   52176   52173      24   52179   52173      24   52179   52176      25
   52185   52182      24   52188   52182      24   52188   52185      25   52194
   52191      24   52197   52191      24   52197   52194      25   52203   52200
      24   52206   52200      24   52206   52203      25   52212   52209      24
   52215   52209      24   52215   52212      25   52221   52218      24   52224
   52218      24   52224   52221      25   52230   52227      24   52233   52227
      24   52233   52230      25   52239   52236      24   52242   52236      24
   52242   52239      25   52248   52245      24   52251   52245      24   52251
   52248      25   52257   52254      24   52260   52254      24   52260   52257
      25   52266   52263      24   52269   52263      24   52269   52266      25
   52275   52272      24   52278   52272      24   52278   52275      25   52284
   52281      24   52287   52281      24   52287   52284      25   52293   52290
      24   52296   52290      24   52296   52293      25   52302   52299      24
   52305   52299      24   52305   52302      25   52311   52308      24   52314
   52308      24   52314   52311      25   52320   52317      24   52323   52317
      24   52323   52320      25   52329   52326      24   52332   52326      24
   52332   52329      25   52338   52335      24   52341   52335      24   52341
   52338      25   52347   52344      24   52350   52344      24   52350   52347
      25   52356   52353      24   52359   52353      24   52359   52356      25
   52365   52362      24   52368   52362      24   52368   52365      25   52374
   52371      24   52377   52371      24   52377   52374      25   52383   52380
      24   52386   52380      24   52386   52383      25   52392   52389      24
   52395   52389      24   52395   52392      25   52401   52398      24   52404
   52398      24   52404   52401      25   52410   52407      24   52413   52407
      24   52413   52410      25   52419   52416      24   52422   52416      24
   52422   52419      25   52428   52425      24   52431   52425      24   52431
   52428      25   52437   52434      24   52440   52434      24   52440   52437
      25   52446   52443      24   52449   52443      24   52449   52446      25
   52455   52452      24   52458   52452      24   52458   52455      25   52464
   52461      24   52467   52461      24   52467   52464      25   52473   52470
      24   52476   52470      24   52476   52473      25   52482   52479      24
   52485   52479      24   52485   52482      25   52491   52488      24   52494
   52488      24   52494   52491      25   52500   52497      24   52503   52497
      24   52503   52500      25   52509   52506      24   52512   52506      24
   52512   52509      25   52518   52515      24   52521   52515      24   52521
   52518      25   52527   52524      24   52530   52524      24   52530   52527
      25   52536   52533      24   52539   52533      24   52539   52536      25
   52545   52542      24   52548   52542      24   52548   52545      25   52554
   52551      24   52557   52551      24   52557   52554      25   52563   52560
      24   52566   52560      24   52566   52563      25   52572   52569      24
   52575   52569      24   52575   52572      25   52581   52578      24   52584
   52578      24   52584   52581      25   52590   52587      24   52593   52587
      24   52593   52590      25   52599   52596      24   52602   52596      24
   52602   52599      25   52608   52605      24   52611   52605      24   52611
   52608      25   52617   52614      24   52620   52614      24   52620   52617
      25   52626   52623      24   52629   52623      24   52629   52626      25
   52635   52632      24   52638   52632      24   52638   52635      25   52644
   52641      24   52647   52641      24   52647   52644      25   52653   52650
      24   52656   52650      24   52656   52653      25   52662   52659      24
   52665   52659      24   52665   52662      25   52671   52668      24   52674
   52668      24   52674   52671      25   52680   52677      24   52683   52677
      24   52683   52680      25   52689   52686      24   52692   52686      24
   52692   52689      25   52698   52695      24   52701   52695      24   52701
   52698      25   52707   52704      24   52710   52704      24   52710   52707
      25   52716   52713      24   52719   52713      24   52719   52716      25
   52725   52722      24   52728   52722      24   52728   52725      25   52734
   52731      24   52737   52731      24   52737   52734      25   52743   52740
      24   52746   52740      24   52746   52743      25   52752   52749      24
   52755   52749      24   52755   52752      25   52761   52758      24   52764
   52758      24   52764   52761      25   52770   52767      24   52773   52767
      24   52773   52770      25   52779   52776      24   52782   52776      24
   52782   52779      25   52788   52785      24   52791   52785      24   52791
   52788      25   52797   52794      24   52800   52794      24   52800   52797
      25   52806   52803      24   52809   52803      24   52809   52806      25
   52815   52812      24   52818   52812      24   52818   52815      25   52824
   52821      24   52827   52821      24   52827   52824      25   52833   52830
      24   52836   52830      24   52836   52833      25   52842   52839      24
   52845   52839      24   52845   52842      25   52851   52848      24   52854
   52848      24   52854   52851      25   52860   52857      24   52863   52857
      24   52863   52860      25   52869   52866      24   52872   52866      24
   52872   52869      25   52878   52875      24   52881   52875      24   52881
   52878      25   52887   52884      24   52890   52884      24   52890   52887
      25   52896   52893      24   52899   52893      24   52899   52896      25
   52905   52902      24   52908   52902      24   52908   52905      25   52914
   52911      24   52917   52911      24   52917   52914      25   52923   52920
      24   52926   52920      24   52926   52923      25   52932   52929      24
   52935   52929      24   52935   52932      25   52941   52938      24   52944
   52938      24   52944   52941      25   52950   52947      24   52953   52947
      24   52953   52950      25   52959   52956      24   52962   52956      24
   52962   52959      25   52968   52965      24   52971   52965      24   52971
   52968      25   52977   52974      24   52980   52974      24   52980   52977
      25   52986   52983      24   52989   52983      24   52989   52986      25
   52995   52992      24   52998   52992      24   52998   52995      25   53004
   53001      24   53007   53001      24   53007   53004      25   53013   53010
      24   53016   53010      24   53016   53013      25   53022   53019      24
   53025   53019      24   53025   53022      25   53031   53028      24   53034
   53028      24   53034   53031      25   53040   53037      24   53043   53037
      24   53043   53040      25   53049   53046      24   53052   53046      24
   53052   53049      25   53058   53055      24   53061   53055      24   53061
   53058      25   53067   53064      24   53070   53064      24   53070   53067
      25   53076   53073      24   53079   53073      24   53079   53076      25
   53085   53082      24   53088   53082      24   53088   53085      25   53094
   53091      24   53097   53091      24   53097   53094      25   53103   53100
      24   53106   53100      24   53106   53103      25   53112   53109      24
   53115   53109      24   53115   53112      25   53121   53118      24   53124
   53118      24   53124   53121      25   53130   53127      24   53133   53127
      24   53133   53130      25   53139   53136      24   53142   53136      24
   53142   53139      25   53148   53145      24   53151   53145      24   53151
   53148      25   53157   53154      24   53160   53154      24   53160   53157
      25   53166   53163      24   53169   53163      24   53169   53166      25
   53175   53172      24   53178   53172      24   53178   53175      25   53184
   53181      24   53187   53181      24   53187   53184      25   53193   53190
      24   53196   53190      24   53196   53193      25   53202   53199      24
   53205   53199      24   53205   53202      25   53211   53208      24   53214
   53208      24   53214   53211      25   53220   53217      24   53223   53217
      24   53223   53220      25   53229   53226      24   53232   53226      24
   53232   53229      25   53238   53235      24   53241   53235      24   53241
   53238      25   53247   53244      24   53250   53244      24   53250   53247
      25   53256   53253      24   53259   53253      24   53259   53256      25
   53265   53262      24   53268   53262      24   53268   53265      25   53274
   53271      24   53277   53271      24   53277   53274      25   53283   53280
      24   53286   53280      24   53286   53283      25   53292   53289      24
   53295   53289      24   53295   53292      25   53301   53298      24   53304
   53298      24   53304   53301      25   53310   53307      24   53313   53307
      24   53313   53310      25   53319   53316      24   53322   53316      24
   53322   53319      25   53328   53325      24   53331   53325      24   53331
   53328      25   53337   53334      24   53340   53334      24   53340   53337
      25   53346   53343      24   53349   53343      24   53349   53346      25
   53355   53352      24   53358   53352      24   53358   53355      25   53364
   53361      24   53367   53361      24   53367   53364      25   53373   53370
      24   53376   53370      24   53376   53373      25   53382   53379      24
   53385   53379      24   53385   53382      25   53391   53388      24   53394
   53388      24   53394   53391      25   53400   53397      24   53403   53397
      24   53403   53400      25   53409   53406      24   53412   53406      24
   53412   53409      25   53418   53415      24   53421   53415      24   53421
   53418      25   53427   53424      24   53430   53424      24   53430   53427
      25   53436   53433      24   53439   53433      24   53439   53436      25
   53445   53442      24   53448   53442      24   53448   53445      25   53454
   53451      24   53457   53451      24   53457   53454      25   53463   53460
      24   53466   53460      24   53466   53463      25   53472   53469      24
   53475   53469      24   53475   53472      25   53481   53478      24   53484
   53478      24   53484   53481      25   53490   53487      24   53493   53487
      24   53493   53490      25   53499   53496      24   53502   53496      24
   53502   53499      25   53508   53505      24   53511   53505      24   53511
   53508      25   53517   53514      24   53520   53514      24   53520   53517
      25   53526   53523      24   53529   53523      24   53529   53526      25
   53535   53532      24   53538   53532      24   53538   53535      25   53544
   53541      24   53547   53541      24   53547   53544      25   53553   53550
      24   53556   53550      24   53556   53553      25   53562   53559      24
   53565   53559      24   53565   53562      25   53571   53568      24   53574
   53568      24   53574   53571      25   53580   53577      24   53583   53577
      24   53583   53580      25   53589   53586      24   53592   53586      24
   53592   53589      25   53598   53595      24   53601   53595      24   53601
   53598      25   53607   53604      24   53610   53604      24   53610   53607
      25   53616   53613      24   53619   53613      24   53619   53616      25
   53625   53622      24   53628   53622      24   53628   53625      25   53634
   53631      24   53637   53631      24   53637   53634      25   53643   53640
      24   53646   53640      24   53646   53643      25   53652   53649      24
   53655   53649      24   53655   53652      25   53661   53658      24   53664
   53658      24   53664   53661      25   53670   53667      24   53673   53667
      24   53673   53670      25   53679   53676      24   53682   53676      24
   53682   53679      25   53688   53685      24   53691   53685      24   53691
   53688      25   53697   53694      24   53700   53694      24   53700   53697
      25   53706   53703      24   53709   53703      24   53709   53706      25
   53715   53712      24   53718   53712      24   53718   53715      25   53724
   53721      24   53727   53721      24   53727   53724      25   53733   53730
      24   53736   53730      24   53736   53733      25   53742   53739      24
   53745   53739      24   53745   53742      25   53751   53748      24   53754
   53748      24   53754   53751      25   53760   53757      24   53763   53757
      24   53763   53760      25   53769   53766      24   53772   53766      24
   53772   53769      25   53778   53775      24   53781   53775      24   53781
   53778      25   53787   53784      24   53790   53784      24   53790   53787
      25   53796   53793      24   53799   53793      24   53799   53796      25
   53805   53802      24   53808   53802      24   53808   53805      25   53814
   53811      24   53817   53811      24   53817   53814      25   53823   53820
      24   53826   53820      24   53826   53823      25   53832   53829      24
   53835   53829      24   53835   53832      25   53841   53838      24   53844
   53838      24   53844   53841      25   53850   53847      24   53853   53847
      24   53853   53850      25   53859   53856      24   53862   53856      24
   53862   53859      25   53868   53865      24   53871   53865      24   53871
   53868      25   53877   53874      24   53880   53874      24   53880   53877
      25   53886   53883      24   53889   53883      24   53889   53886      25
   53895   53892      24   53898   53892      24   53898   53895      25   53904
   53901      24   53907   53901      24   53907   53904      25   53913   53910
      24   53916   53910      24   53916   53913      25   53922   53919      24
   53925   53919      24   53925   53922      25   53931   53928      24   53934
   53928      24   53934   53931      25   53940   53937      24   53943   53937
      24   53943   53940      25   53949   53946      24   53952   53946      24
   53952   53949      25   53958   53955      24   53961   53955      24   53961
   53958      25   53967   53964      24   53970   53964      24   53970   53967
      25   53976   53973      24   53979   53973      24   53979   53976      25
   53985   53982      24   53988   53982      24   53988   53985      25   53994
   53991      24   53997   53991      24   53997   53994      25   54003   54000
      24   54006   54000      24   54006   54003      25   54012   54009      24
   54015   54009      24   54015   54012      25   54021   54018      24   54024
   54018      24   54024   54021      25   54030   54027      24   54033   54027
      24   54033   54030      25   54039   54036      24   54042   54036      24
   54042   54039      25   54048   54045      24   54051   54045      24   54051
   54048      25   54057   54054      24   54060   54054      24   54060   54057
      25   54066   54063      24   54069   54063      24   54069   54066      25
   54075   54072      24   54078   54072      24   54078   54075      25   54084
   54081      24   54087   54081      24   54087   54084      25   54093   54090
      24   54096   54090      24   54096   54093      25   54102   54099      24
   54105   54099      24   54105   54102      25   54111   54108      24   54114
   54108      24   54114   54111      25   54120   54117      24   54123   54117
      24   54123   54120      25   54129   54126      24   54132   54126      24
   54132   54129      25   54138   54135      24   54141   54135      24   54141
   54138      25   54147   54144      24   54150   54144      24   54150   54147
      25   54156   54153      24   54159   54153      24   54159   54156      25
   54165   54162      24   54168   54162      24   54168   54165      25   54174
   54171      24   54177   54171      24   54177   54174      25   54183   54180
      24   54186   54180      24   54186   54183      25   54192   54189      24
   54195   54189      24   54195   54192      25   54201   54198      24   54204
   54198      24   54204   54201      25   54210   54207      24   54213   54207
      24   54213   54210      25   54219   54216      24   54222   54216      24
   54222   54219      25   54228   54225      24   54231   54225      24   54231
   54228      25   54237   54234      24   54240   54234      24   54240   54237
      25   54246   54243      24   54249   54243      24   54249   54246      25
   54255   54252      24   54258   54252      24   54258   54255      25   54264
   54261      24   54267   54261      24   54267   54264      25   54273   54270
      24   54276   54270      24   54276   54273      25   54282   54279      24
   54285   54279      24   54285   54282      25   54291   54288      24   54294
   54288      24   54294   54291      25   54300   54297      24   54303   54297
      24   54303   54300      25   54309   54306      24   54312   54306      24
   54312   54309      25   54318   54315      24   54321   54315      24   54321
   54318      25   54327   54324      24   54330   54324      24   54330   54327
      25   54336   54333      24   54339   54333      24   54339   54336      25
   54345   54342      24   54348   54342      24   54348   54345      25   54354
   54351      24   54357   54351      24   54357   54354      25   54363   54360
      24   54366   54360      24   54366   54363      25   54372   54369      24
   54375   54369      24   54375   54372      25   54381   54378      24   54384
   54378      24   54384   54381      25   54390   54387      24   54393   54387
      24   54393   54390      25   54399   54396      24   54402   54396      24
   54402   54399      25   54408   54405      24   54411   54405      24   54411
   54408      25   54417   54414      24   54420   54414      24   54420   54417
      25   54426   54423      24   54429   54423      24   54429   54426      25
   54435   54432      24   54438   54432      24   54438   54435      25   54444
   54441      24   54447   54441      24   54447   54444      25   54453   54450
      24   54456   54450      24   54456   54453      25   54462   54459      24
   54465   54459      24   54465   54462      25   54471   54468      24   54474
   54468      24   54474   54471      25   54480   54477      24   54483   54477
      24   54483   54480      25   54489   54486      24   54492   54486      24
   54492   54489      25   54498   54495      24   54501   54495      24   54501
   54498      25   54507   54504      24   54510   54504      24   54510   54507
      25   54516   54513      24   54519   54513      24   54519   54516      25
   54525   54522      24   54528   54522      24   54528   54525      25   54534
   54531      24   54537   54531      24   54537   54534      25   54543   54540
      24   54546   54540      24   54546   54543      25   54552   54549      24
   54555   54549      24   54555   54552      25   54561   54558      24   54564
   54558      24   54564   54561      25   54570   54567      24   54573   54567
      24   54573   54570      25   54579   54576      24   54582   54576      24
   54582   54579      25   54588   54585      24   54591   54585      24   54591
   54588      25   54597   54594      24   54600   54594      24   54600   54597
      25   54606   54603      24   54609   54603      24   54609   54606      25
   54615   54612      24   54618   54612      24   54618   54615      25   54624
   54621      24   54627   54621      24   54627   54624      25   54633   54630
      24   54636   54630      24   54636   54633      25   54642   54639      24
   54645   54639      24   54645   54642      25   54651   54648      24   54654
   54648      24   54654   54651      25   54660   54657      24   54663   54657
      24   54663   54660      25   54669   54666      24   54672   54666      24
   54672   54669      25   54678   54675      24   54681   54675      24   54681
   54678      25   54687   54684      24   54690   54684      24   54690   54687
      25   54696   54693      24   54699   54693      24   54699   54696      25
   54705   54702      24   54708   54702      24   54708   54705      25   54714
   54711      24   54717   54711      24   54717   54714      25   54723   54720
      24   54726   54720      24   54726   54723      25   54732   54729      24
   54735   54729      24   54735   54732      25   54741   54738      24   54744
   54738      24   54744   54741      25   54750   54747      24   54753   54747
      24   54753   54750      25   54759   54756      24   54762   54756      24
   54762   54759      25   54768   54765      24   54771   54765      24   54771
   54768      25   54777   54774      24   54780   54774      24   54780   54777
      25   54786   54783      24   54789   54783      24   54789   54786      25
   54795   54792      24   54798   54792      24   54798   54795      25   54804
   54801      24   54807   54801      24   54807   54804      25   54813   54810
      24   54816   54810      24   54816   54813      25   54822   54819      24
   54825   54819      24   54825   54822      25   54831   54828      24   54834
   54828      24   54834   54831      25   54840   54837      24   54843   54837
      24   54843   54840      25   54849   54846      24   54852   54846      24
   54852   54849      25   54858   54855      24   54861   54855      24   54861
   54858      25   54867   54864      24   54870   54864      24   54870   54867
      25   54876   54873      24   54879   54873      24   54879   54876      25
   54885   54882      24   54888   54882      24   54888   54885      25   54894
   54891      24   54897   54891      24   54897   54894      25   54903   54900
      24   54906   54900      24   54906   54903      25   54912   54909      24
   54915   54909      24   54915   54912      25   54921   54918      24   54924
   54918      24   54924   54921      25   54930   54927      24   54933   54927
      24   54933   54930      25   54939   54936      24   54942   54936      24
   54942   54939      25   54948   54945      24   54951   54945      24   54951
   54948      25   54957   54954      24   54960   54954      24   54960   54957
      25   54966   54963      24   54969   54963      24   54969   54966      25
   54975   54972      24   54978   54972      24   54978   54975      25   54984
   54981      24   54987   54981      24   54987   54984      25   54993   54990
      24   54996   54990      24   54996   54993      25   55002   54999      24
   55005   54999      24   55005   55002      25   55011   55008      24   55014
   55008      24   55014   55011      25   55020   55017      24   55023   55017
      24   55023   55020      25   55029   55026      24   55032   55026      24
   55032   55029      25   55038   55035      24   55041   55035      24   55041
   55038      25   55047   55044      24   55050   55044      24   55050   55047
      25   55056   55053      24   55059   55053      24   55059   55056      25
   55065   55062      24   55068   55062      24   55068   55065      25   55074
   55071      24   55077   55071      24   55077   55074      25   55083   55080
      24   55086   55080      24   55086   55083      25   55092   55089      24
   55095   55089      24   55095   55092      25   55101   55098      24   55104
   55098      24   55104   55101      25   55110   55107      24   55113   55107
      24   55113   55110      25   55119   55116      24   55122   55116      24
   55122   55119      25   55128   55125      24   55131   55125      24   55131
   55128      25   55137   55134      24   55140   55134      24   55140   55137
      25   55146   55143      24   55149   55143      24   55149   55146      25
   55155   55152      24   55158   55152      24   55158   55155      25   55164
   55161      24   55167   55161      24   55167   55164      25   55173   55170
      24   55176   55170      24   55176   55173      25   55182   55179      24
   55185   55179      24   55185   55182      25   55191   55188      24   55194
   55188      24   55194   55191      25   55200   55197      24   55203   55197
      24   55203   55200      25   55209   55206      24   55212   55206      24
   55212   55209      25   55218   55215      24   55221   55215      24   55221
   55218      25   55227   55224      24   55230   55224      24   55230   55227
      25   55236   55233      24   55239   55233      24   55239   55236      25
   55245   55242      24   55248   55242      24   55248   55245      25   55254
   55251      24   55257   55251      24   55257   55254      25   55263   55260
      24   55266   55260      24   55266   55263      25   55272   55269      24
   55275   55269      24   55275   55272      25   55281   55278      24   55284
   55278      24   55284   55281      25   55290   55287      24   55293   55287
      24   55293   55290      25   55299   55296      24   55302   55296      24
   55302   55299      25   55308   55305      24   55311   55305      24   55311
   55308      25   55317   55314      24   55320   55314      24   55320   55317
      25   55326   55323      24   55329   55323      24   55329   55326      25
   55335   55332      24   55338   55332      24   55338   55335      25   55344
   55341      24   55347   55341      24   55347   55344      25   55353   55350
      24   55356   55350      24   55356   55353      25   55362   55359      24
   55365   55359      24   55365   55362      25   55371   55368      24   55374
   55368      24   55374   55371      25   55380   55377      24   55383   55377
      24   55383   55380      25   55389   55386      24   55392   55386      24
   55392   55389      25   55398   55395      24   55401   55395      24   55401
   55398      25   55407   55404      24   55410   55404      24   55410   55407
      25   55416   55413      24   55419   55413      24   55419   55416      25
   55425   55422      24   55428   55422      24   55428   55425      25   55434
   55431      24   55437   55431      24   55437   55434      25   55443   55440
      24   55446   55440      24   55446   55443      25   55452   55449      24
   55455   55449      24   55455   55452      25   55461   55458      24   55464
   55458      24   55464   55461      25   55470   55467      24   55473   55467
      24   55473   55470      25   55479   55476      24   55482   55476      24
   55482   55479      25   55488   55485      24   55491   55485      24   55491
   55488      25   55497   55494      24   55500   55494      24   55500   55497
      25   55506   55503      24   55509   55503      24   55509   55506      25
   55515   55512      24   55518   55512      24   55518   55515      25   55524
   55521      24   55527   55521      24   55527   55524      25   55533   55530
      24   55536   55530      24   55536   55533      25   55542   55539      24
   55545   55539      24   55545   55542      25   55551   55548      24   55554
   55548      24   55554   55551      25   55560   55557      24   55563   55557
      24   55563   55560      25   55569   55566      24   55572   55566      24
   55572   55569      25   55578   55575      24   55581   55575      24   55581
   55578      25   55587   55584      24   55590   55584      24   55590   55587
      25   55596   55593      24   55599   55593      24   55599   55596      25
   55605   55602      24   55608   55602      24   55608   55605      25   55614
   55611      24   55617   55611      24   55617   55614      25   55623   55620
      24   55626   55620      24   55626   55623      25   55632   55629      24
   55635   55629      24   55635   55632      25   55641   55638      24   55644
   55638      24   55644   55641      25   55650   55647      24   55653   55647
      24   55653   55650      25   55659   55656      24   55662   55656      24
   55662   55659      25   55668   55665      24   55671   55665      24   55671
   55668      25   55677   55674      24   55680   55674      24   55680   55677
      25   55686   55683      24   55689   55683      24   55689   55686      25
   55695   55692      24   55698   55692      24   55698   55695      25   55704
   55701      24   55707   55701      24   55707   55704      25   55713   55710
      24   55716   55710      24   55716   55713      25   55722   55719      24
   55725   55719      24   55725   55722      25   55731   55728      24   55734
   55728      24   55734   55731      25   55740   55737      24   55743   55737
      24   55743   55740      25   55749   55746      24   55752   55746      24
   55752   55749      25   55758   55755      24   55761   55755      24   55761
   55758      25   55767   55764      24   55770   55764      24   55770   55767
      25   55776   55773      24   55779   55773      24   55779   55776      25
   55785   55782      24   55788   55782      24   55788   55785      25   55794
   55791      24   55797   55791      24   55797   55794      25   55803   55800
      24   55806   55800      24   55806   55803      25   55812   55809      24
   55815   55809      24   55815   55812      25   55821   55818      24   55824
   55818      24   55824   55821      25   55830   55827      24   55833   55827
      24   55833   55830      25   55839   55836      24   55842   55836      24
   55842   55839      25   55848   55845      24   55851   55845      24   55851
   55848      25   55857   55854      24   55860   55854      24   55860   55857
      25   55866   55863      24   55869   55863      24   55869   55866      25
   55875   55872      24   55878   55872      24   55878   55875      25   55884
   55881      24   55887   55881      24   55887   55884      25   55893   55890
      24   55896   55890      24   55896   55893      25   55902   55899      24
   55905   55899      24   55905   55902      25   55911   55908      24   55914
   55908      24   55914   55911      25   55920   55917      24   55923   55917
      24   55923   55920      25   55929   55926      24   55932   55926      24
   55932   55929      25   55938   55935      24   55941   55935      24   55941
   55938      25   55947   55944      24   55950   55944      24   55950   55947
      25   55956   55953      24   55959   55953      24   55959   55956      25
   55965   55962      24   55968   55962      24   55968   55965      25   55974
   55971      24   55977   55971      24   55977   55974      25   55983   55980
      24   55986   55980      24   55986   55983      25   55992   55989      24
   55995   55989      24   55995   55992      25   56001   55998      24   56004
   55998      24   56004   56001      25   56010   56007      24   56013   56007
      24   56013   56010      25   56019   56016      24   56022   56016      24
   56022   56019      25   56028   56025      24   56031   56025      24   56031
   56028      25   56037   56034      24   56040   56034      24   56040   56037
      25   56046   56043      24   56049   56043      24   56049   56046      25
   56055   56052      24   56058   56052      24   56058   56055      25   56064
   56061      24   56067   56061      24   56067   56064      25   56073   56070
      24   56076   56070      24   56076   56073      25   56082   56079      24
   56085   56079      24   56085   56082      25   56091   56088      24   56094
   56088      24   56094   56091      25   56100   56097      24   56103   56097
      24   56103   56100      25   56109   56106      24   56112   56106      24
   56112   56109      25   56118   56115      24   56121   56115      24   56121
   56118      25   56127   56124      24   56130   56124      24   56130   56127
      25   56136   56133      24   56139   56133      24   56139   56136      25
   56145   56142      24   56148   56142      24   56148   56145      25   56154
   56151      24   56157   56151      24   56157   56154      25   56163   56160
      24   56166   56160      24   56166   56163      25   56172   56169      24
   56175   56169      24   56175   56172      25   56181   56178      24   56184
   56178      24   56184   56181      25   56190   56187      24   56193   56187
      24   56193   56190      25   56199   56196      24   56202   56196      24
   56202   56199      25   56208   56205      24   56211   56205      24   56211
   56208      25   56217   56214      24   56220   56214      24   56220   56217
      25   56226   56223      24   56229   56223      24   56229   56226      25
   56235   56232      24   56238   56232      24   56238   56235      25   56244
   56241      24   56247   56241      24   56247   56244      25   56253   56250
      24   56256   56250      24   56256   56253      25   56262   56259      24
   56265   56259      24   56265   56262      25   56271   56268      24   56274
   56268      24   56274   56271      25   56280   56277      24   56283   56277
      24   56283   56280      25   56289   56286      24   56292   56286      24
   56292   56289      25   56298   56295      24   56301   56295      24   56301
   56298      25   56307   56304      24   56310   56304      24   56310   56307
      25   56316   56313      24   56319   56313      24   56319   56316      25
   56325   56322      24   56328   56322      24   56328   56325      25   56334
   56331      24   56337   56331      24   56337   56334      25   56343   56340
      24   56346   56340      24   56346   56343      25   56352   56349      24
   56355   56349      24   56355   56352      25   56361   56358      24   56364
   56358      24   56364   56361      25   56370   56367      24   56373   56367
      24   56373   56370      25   56379   56376      24   56382   56376      24
   56382   56379      25   56388   56385      24   56391   56385      24   56391
   56388      25   56397   56394      24   56400   56394      24   56400   56397
      25   56406   56403      24   56409   56403      24   56409   56406      25
   56415   56412      24   56418   56412      24   56418   56415      25   56424
   56421      24   56427   56421      24   56427   56424      25   56433   56430
      24   56436   56430      24   56436   56433      25   56442   56439      24
   56445   56439      24   56445   56442      25   56451   56448      24   56454
   56448      24   56454   56451      25   56460   56457      24   56463   56457
      24   56463   56460      25   56469   56466      24   56472   56466      24
   56472   56469      25   56478   56475      24   56481   56475      24   56481
   56478      25   56487   56484      24   56490   56484      24   56490   56487
      25   56496   56493      24   56499   56493      24   56499   56496      25
   56505   56502      24   56508   56502      24   56508   56505      25   56514
   56511      24   56517   56511      24   56517   56514      25   56523   56520
      24   56526   56520      24   56526   56523      25   56532   56529      24
   56535   56529      24   56535   56532      25   56541   56538      24   56544
   56538      24   56544   56541      25   56550   56547      24   56553   56547
      24   56553   56550      25   56559   56556      24   56562   56556      24
   56562   56559      25   56568   56565      24   56571   56565      24   56571
   56568      25   56577   56574      24   56580   56574      24   56580   56577
      25   56586   56583      24   56589   56583      24   56589   56586      25
   56595   56592      24   56598   56592      24   56598   56595      25   56604
   56601      24   56607   56601      24   56607   56604      25   56613   56610
      24   56616   56610      24   56616   56613      25   56622   56619      24
   56625   56619      24   56625   56622      25   56631   56628      24   56634
   56628      24   56634   56631      25   56640   56637      24   56643   56637
      24   56643   56640      25   56649   56646      24   56652   56646      24
   56652   56649      25   56658   56655      24   56661   56655      24   56661
   56658      25   56667   56664      24   56670   56664      24   56670   56667
      25   56676   56673      24   56679   56673      24   56679   56676      25
   56685   56682      24   56688   56682      24   56688   56685      25   56694
   56691      24   56697   56691      24   56697   56694      25   56703   56700
      24   56706   56700      24   56706   56703      25   56712   56709      24
   56715   56709      24   56715   56712      25   56721   56718      24   56724
   56718      24   56724   56721      25   56730   56727      24   56733   56727
      24   56733   56730      25   56739   56736      24   56742   56736      24
   56742   56739      25   56748   56745      24   56751   56745      24   56751
   56748      25   56757   56754      24   56760   56754      24   56760   56757
      25   56766   56763      24   56769   56763      24   56769   56766      25
   56775   56772      24   56778   56772      24   56778   56775      25   56784
   56781      24   56787   56781      24   56787   56784      25   56793   56790
      24   56796   56790      24   56796   56793      25   56802   56799      24
   56805   56799      24   56805   56802      25   56811   56808      24   56814
   56808      24   56814   56811      25   56820   56817      24   56823   56817
      24   56823   56820      25   56829   56826      24   56832   56826      24
   56832   56829      25   56838   56835      24   56841   56835      24   56841
   56838      25   56847   56844      24   56850   56844      24   56850   56847
      25   56856   56853      24   56859   56853      24   56859   56856      25
   56865   56862      24   56868   56862      24   56868   56865      25   56874
   56871      24   56877   56871      24   56877   56874      25   56883   56880
      24   56886   56880      24   56886   56883      25   56892   56889      24
   56895   56889      24   56895   56892      25   56901   56898      24   56904
   56898      24   56904   56901      25   56910   56907      24   56913   56907
      24   56913   56910      25   56919   56916      24   56922   56916      24
   56922   56919      25   56928   56925      24   56931   56925      24   56931
   56928      25   56937   56934      24   56940   56934      24   56940   56937
      25   56946   56943      24   56949   56943      24   56949   56946      25
   56955   56952      24   56958   56952      24   56958   56955      25   56964
   56961      24   56967   56961      24   56967   56964      25   56973   56970
      24   56976   56970      24   56976   56973      25   56982   56979      24
   56985   56979      24   56985   56982      25   56991   56988      24   56994
   56988      24   56994   56991      25   57000   56997      24   57003   56997
      24   57003   57000      25   57009   57006      24   57012   57006      24
   57012   57009      25   57018   57015      24   57021   57015      24   57021
   57018      25   57027   57024      24   57030   57024      24   57030   57027
      25   57036   57033      24   57039   57033      24   57039   57036      25
   57045   57042      24   57048   57042      24   57048   57045      25   57054
   57051      24   57057   57051      24   57057   57054      25   57063   57060
      24   57066   57060      24   57066   57063      25   57072   57069      24
   57075   57069      24   57075   57072      25   57081   57078      24   57084
   57078      24   57084   57081      25   57090   57087      24   57093   57087
      24   57093   57090      25   57099   57096      24   57102   57096      24
   57102   57099      25   57108   57105      24   57111   57105      24   57111
   57108      25   57117   57114      24   57120   57114      24   57120   57117
      25   57126   57123      24   57129   57123      24   57129   57126      25
   57135   57132      24   57138   57132      24   57138   57135      25   57144
   57141      24   57147   57141      24   57147   57144      25   57153   57150
      24   57156   57150      24   57156   57153      25   57162   57159      24
   57165   57159      24   57165   57162      25   57171   57168      24   57174
   57168      24   57174   57171      25   57180   57177      24   57183   57177
      24   57183   57180      25   57189   57186      24   57192   57186      24
   57192   57189      25   57198   57195      24   57201   57195      24   57201
   57198      25   57207   57204      24   57210   57204      24   57210   57207
      25   57216   57213      24   57219   57213      24   57219   57216      25
   57225   57222      24   57228   57222      24   57228   57225      25   57234
   57231      24   57237   57231      24   57237   57234      25   57243   57240
      24   57246   57240      24   57246   57243      25   57252   57249      24
   57255   57249      24   57255   57252      25   57261   57258      24   57264
   57258      24   57264   57261      25   57270   57267      24   57273   57267
      24   57273   57270      25   57279   57276      24   57282   57276      24
   57282   57279      25   57288   57285      24   57291   57285      24   57291
   57288      25   57297   57294      24   57300   57294      24   57300   57297
      25   57306   57303      24   57309   57303      24   57309   57306      25
   57315   57312      24   57318   57312      24   57318   57315      25   57324
   57321      24   57327   57321      24   57327   57324      25   57333   57330
      24   57336   57330      24   57336   57333      25   57342   57339      24
   57345   57339      24   57345   57342      25   57351   57348      24   57354
   57348      24   57354   57351      25   57360   57357      24   57363   57357
      24   57363   57360      25   57369   57366      24   57372   57366      24
   57372   57369      25   57378   57375      24   57381   57375      24   57381
   57378      25   57387   57384      24   57390   57384      24   57390   57387
      25   57396   57393      24   57399   57393      24   57399   57396      25
   57405   57402      24   57408   57402      24   57408   57405      25   57414
   57411      24   57417   57411      24   57417   57414      25   57423   57420
      24   57426   57420      24   57426   57423      25   57432   57429      24
   57435   57429      24   57435   57432      25   57441   57438      24   57444
   57438      24   57444   57441      25   57450   57447      24   57453   57447
      24   57453   57450      25   57459   57456      24   57462   57456      24
   57462   57459      25   57468   57465      24   57471   57465      24   57471
   57468      25   57477   57474      24   57480   57474      24   57480   57477
      25   57486   57483      24   57489   57483      24   57489   57486      25
   57495   57492      24   57498   57492      24   57498   57495      25   57504
   57501      24   57507   57501      24   57507   57504      25   57513   57510
      24   57516   57510      24   57516   57513      25   57522   57519      24
   57525   57519      24   57525   57522      25   57531   57528      24   57534
   57528      24   57534   57531      25   57540   57537      24   57543   57537
      24   57543   57540      25   57549   57546      24   57552   57546      24
   57552   57549      25   57558   57555      24   57561   57555      24   57561
   57558      25   57567   57564      24   57570   57564      24   57570   57567
      25   57576   57573      24   57579   57573      24   57579   57576      25
   57585   57582      24   57588   57582      24   57588   57585      25   57594
   57591      24   57597   57591      24   57597   57594      25   57603   57600
      24   57606   57600      24   57606   57603      25   57612   57609      24
   57615   57609      24   57615   57612      25   57621   57618      24   57624
   57618      24   57624   57621      25   57630   57627      24   57633   57627
      24   57633   57630      25   57639   57636      24   57642   57636      24
   57642   57639      25   57648   57645      24   57651   57645      24   57651
   57648      25   57657   57654      24   57660   57654      24   57660   57657
      25   57666   57663      24   57669   57663      24   57669   57666      25
   57675   57672      24   57678   57672      24   57678   57675      25   57684
   57681      24   57687   57681      24   57687   57684      25   57693   57690
      24   57696   57690      24   57696   57693      25   57702   57699      24
   57705   57699      24   57705   57702      25   57711   57708      24   57714
   57708      24   57714   57711      25   57720   57717      24   57723   57717
      24   57723   57720      25   57729   57726      24   57732   57726      24
   57732   57729      25   57738   57735      24   57741   57735      24   57741
   57738      25   57747   57744      24   57750   57744      24   57750   57747
      25   57756   57753      24   57759   57753      24   57759   57756      25
   57765   57762      24   57768   57762      24   57768   57765      25   57774
   57771      24   57777   57771      24   57777   57774      25   57783   57780
      24   57786   57780      24   57786   57783      25   57792   57789      24
   57795   57789      24   57795   57792      25   57801   57798      24   57804
   57798      24   57804   57801      25   57810   57807      24   57813   57807
      24   57813   57810      25   57819   57816      24   57822   57816      24
   57822   57819      25   57828   57825      24   57831   57825      24   57831
   57828      25   57837   57834      24   57840   57834      24   57840   57837
      25   57846   57843      24   57849   57843      24   57849   57846      25
   57855   57852      24   57858   57852      24   57858   57855      25   57864
   57861      24   57867   57861      24   57867   57864      25   57873   57870
      24   57876   57870      24   57876   57873      25   57882   57879      24
   57885   57879      24   57885   57882      25   57891   57888      24   57894
   57888      24   57894   57891      25   57900   57897      24   57903   57897
      24   57903   57900      25   57909   57906      24   57912   57906      24
   57912   57909      25   57918   57915      24   57921   57915      24   57921
   57918      25   57927   57924      24   57930   57924      24   57930   57927
      25   57936   57933      24   57939   57933      24   57939   57936      25
   57945   57942      24   57948   57942      24   57948   57945      25   57954
   57951      24   57957   57951      24   57957   57954      25   57963   57960
      24   57966   57960      24   57966   57963      25   57972   57969      24
   57975   57969      24   57975   57972      25   57981   57978      24   57984
   57978      24   57984   57981      25   57990   57987      24   57993   57987
      24   57993   57990      25   57999   57996      24   58002   57996      24
   58002   57999      25   58008   58005      24   58011   58005      24   58011
   58008      25   58017   58014      24   58020   58014      24   58020   58017
      25   58026   58023      24   58029   58023      24   58029   58026      25
   58035   58032      24   58038   58032      24   58038   58035      25   58044
   58041      24   58047   58041      24   58047   58044      25   58053   58050
      24   58056   58050      24   58056   58053      25   58062   58059      24
   58065   58059      24   58065   58062      25   58071   58068      24   58074
   58068      24   58074   58071      25   58080   58077      24   58083   58077
      24   58083   58080      25   58089   58086      24   58092   58086      24
   58092   58089      25   58098   58095      24   58101   58095      24   58101
   58098      25   58107   58104      24   58110   58104      24   58110   58107
      25   58116   58113      24   58119   58113      24   58119   58116      25
   58125   58122      24   58128   58122      24   58128   58125      25   58134
   58131      24   58137   58131      24   58137   58134      25   58143   58140
      24   58146   58140      24   58146   58143      25   58152   58149      24
   58155   58149      24   58155   58152      25   58161   58158      24   58164
   58158      24   58164   58161      25   58170   58167      24   58173   58167
      24   58173   58170      25   58179   58176      24   58182   58176      24
   58182   58179      25   58188   58185      24   58191   58185      24   58191
   58188      25   58197   58194      24   58200   58194      24   58200   58197
      25   58206   58203      24   58209   58203      24   58209   58206      25
   58215   58212      24   58218   58212      24   58218   58215      25   58224
   58221      24   58227   58221      24   58227   58224      25   58233   58230
      24   58236   58230      24   58236   58233      25   58242   58239      24
   58245   58239      24   58245   58242      25   58251   58248      24   58254
   58248      24   58254   58251      25   58260   58257      24   58263   58257
      24   58263   58260      25   58269   58266      24   58272   58266      24
   58272   58269      25   58278   58275      24   58281   58275      24   58281
   58278      25   58287   58284      24   58290   58284      24   58290   58287
      25   58296   58293      24   58299   58293      24   58299   58296      25
   58305   58302      24   58308   58302      24   58308   58305      25   58314
   58311      24   58317   58311      24   58317   58314      25   58323   58320
      24   58326   58320      24   58326   58323      25   58332   58329      24
   58335   58329      24   58335   58332      25   58341   58338      24   58344
   58338      24   58344   58341      25   58350   58347      24   58353   58347
      24   58353   58350      25   58359   58356      24   58362   58356      24
   58362   58359      25   58368   58365      24   58371   58365      24   58371
   58368      25   58377   58374      24   58380   58374      24   58380   58377
      25   58386   58383      24   58389   58383      24   58389   58386      25
   58395   58392      24   58398   58392      24   58398   58395      25   58404
   58401      24   58407   58401      24   58407   58404      25   58413   58410
      24   58416   58410      24   58416   58413      25   58422   58419      24
   58425   58419      24   58425   58422      25   58431   58428      24   58434
   58428      24   58434   58431      25   58440   58437      24   58443   58437
      24   58443   58440      25   58449   58446      24   58452   58446      24
   58452   58449      25   58458   58455      24   58461   58455      24   58461
   58458      25   58467   58464      24   58470   58464      24   58470   58467
      25   58476   58473      24   58479   58473      24   58479   58476      25
   58485   58482      24   58488   58482      24   58488   58485      25   58494
   58491      24   58497   58491      24   58497   58494      25   58503   58500
      24   58506   58500      24   58506   58503      25   58512   58509      24
   58515   58509      24   58515   58512      25   58521   58518      24   58524
   58518      24   58524   58521      25   58530   58527      24   58533   58527
      24   58533   58530      25   58539   58536      24   58542   58536      24
   58542   58539      25   58548   58545      24   58551   58545      24   58551
   58548      25   58557   58554      24   58560   58554      24   58560   58557
      25   58566   58563      24   58569   58563      24   58569   58566      25
   58575   58572      24   58578   58572      24   58578   58575      25   58584
   58581      24   58587   58581      24   58587   58584      25   58593   58590
      24   58596   58590      24   58596   58593      25   58602   58599      24
   58605   58599      24   58605   58602      25   58611   58608      24   58614
   58608      24   58614   58611      25   58620   58617      24   58623   58617
      24   58623   58620      25   58629   58626      24   58632   58626      24
   58632   58629      25   58638   58635      24   58641   58635      24   58641
   58638      25   58647   58644      24   58650   58644      24   58650   58647
      25   58656   58653      24   58659   58653      24   58659   58656      25
   58665   58662      24   58668   58662      24   58668   58665      25   58674
   58671      24   58677   58671      24   58677   58674      25   58683   58680
      24   58686   58680      24   58686   58683      25   58692   58689      24
   58695   58689      24   58695   58692      25   58701   58698      24   58704
   58698      24   58704   58701      25   58710   58707      24   58713   58707
      24   58713   58710      25   58719   58716      24   58722   58716      24
   58722   58719      25   58728   58725      24   58731   58725      24   58731
   58728      25   58737   58734      24   58740   58734      24   58740   58737
      25   58746   58743      24   58749   58743      24   58749   58746      25
   58755   58752      24   58758   58752      24   58758   58755      25   58764
   58761      24   58767   58761      24   58767   58764      25   58773   58770
      24   58776   58770      24   58776   58773      25   58782   58779      24
   58785   58779      24   58785   58782      25   58791   58788      24   58794
   58788      24   58794   58791      25   58800   58797      24   58803   58797
      24   58803   58800      25   58809   58806      24   58812   58806      24
   58812   58809      25   58818   58815      24   58821   58815      24   58821
   58818      25   58827   58824      24   58830   58824      24   58830   58827
      25   58836   58833      24   58839   58833      24   58839   58836      25
   58845   58842      24   58848   58842      24   58848   58845      25   58854
   58851      24   58857   58851      24   58857   58854      25   58863   58860
      24   58866   58860      24   58866   58863      25   58872   58869      24
   58875   58869      24   58875   58872      25   58881   58878      24   58884
   58878      24   58884   58881      25   58890   58887      24   58893   58887
      24   58893   58890      25   58899   58896      24   58902   58896      24
   58902   58899      25   58908   58905      24   58911   58905      24   58911
   58908      25   58917   58914      24   58920   58914      24   58920   58917
      25   58926   58923      24   58929   58923      24   58929   58926      25
   58935   58932      24   58938   58932      24   58938   58935      25   58944
   58941      24   58947   58941      24   58947   58944      25   58953   58950
      24   58956   58950      24   58956   58953      25   58962   58959      24
   58965   58959      24   58965   58962      25   58971   58968      24   58974
   58968      24   58974   58971      25   58980   58977      24   58983   58977
      24   58983   58980      25   58989   58986      24   58992   58986      24
   58992   58989      25   58998   58995      24   59001   58995      24   59001
   58998      25   59007   59004      24   59010   59004      24   59010   59007
      25   59016   59013      24   59019   59013      24   59019   59016      25
   59025   59022      24   59028   59022      24   59028   59025      25   59034
   59031      24   59037   59031      24   59037   59034      25   59043   59040
      24   59046   59040      24   59046   59043      25   59052   59049      24
   59055   59049      24   59055   59052      25   59061   59058      24   59064
   59058      24   59064   59061      25   59070   59067      24   59073   59067
      24   59073   59070      25   59079   59076      24   59082   59076      24
   59082   59079      25   59088   59085      24   59091   59085      24   59091
   59088      25   59097   59094      24   59100   59094      24   59100   59097
      25   59106   59103      24   59109   59103      24   59109   59106      25
   59115   59112      24   59118   59112      24   59118   59115      25   59124
   59121      24   59127   59121      24   59127   59124      25   59133   59130
      24   59136   59130      24   59136   59133      25   59142   59139      24
   59145   59139      24   59145   59142      25   59151   59148      24   59154
   59148      24   59154   59151      25   59160   59157      24   59163   59157
      24   59163   59160      25   59169   59166      24   59172   59166      24
   59172   59169      25   59178   59175      24   59181   59175      24   59181
   59178      25   59187   59184      24   59190   59184      24   59190   59187
      25   59196   59193      24   59199   59193      24   59199   59196      25
   59205   59202      24   59208   59202      24   59208   59205      25   59214
   59211      24   59217   59211      24   59217   59214      25   59223   59220
      24   59226   59220      24   59226   59223      25   59232   59229      24
   59235   59229      24   59235   59232      25   59241   59238      24   59244
   59238      24   59244   59241      25   59250   59247      24   59253   59247
      24   59253   59250      25   59259   59256      24   59262   59256      24
   59262   59259      25   59268   59265      24   59271   59265      24   59271
   59268      25   59277   59274      24   59280   59274      24   59280   59277
      25   59286   59283      24   59289   59283      24   59289   59286      25
   59295   59292      24   59298   59292      24   59298   59295      25   59304
   59301      24   59307   59301      24   59307   59304      25   59313   59310
      24   59316   59310      24   59316   59313      25   59322   59319      24
   59325   59319      24   59325   59322      25   59331   59328      24   59334
   59328      24   59334   59331      25   59340   59337      24   59343   59337
      24   59343   59340      25   59349   59346      24   59352   59346      24
   59352   59349      25   59358   59355      24   59361   59355      24   59361
   59358      25   59367   59364      24   59370   59364      24   59370   59367
      25   59376   59373      24   59379   59373      24   59379   59376      25
   59385   59382      24   59388   59382      24   59388   59385      25   59394
   59391      24   59397   59391      24   59397   59394      25   59403   59400
      24   59406   59400      24   59406   59403      25   59412   59409      24
   59415   59409      24   59415   59412      25   59421   59418      24   59424
   59418      24   59424   59421      25   59430   59427      24   59433   59427
      24   59433   59430      25   59439   59436      24   59442   59436      24
   59442   59439      25   59448   59445      24   59451   59445      24   59451
   59448      25   59457   59454      24   59460   59454      24   59460   59457
      25   59466   59463      24   59469   59463      24   59469   59466      25
   59475   59472      24   59478   59472      24   59478   59475      25   59484
   59481      24   59487   59481      24   59487   59484      25   59493   59490
      24   59496   59490      24   59496   59493      25   59502   59499      24
   59505   59499      24   59505   59502      25   59511   59508      24   59514
   59508      24   59514   59511      25   59520   59517      24   59523   59517
      24   59523   59520      25   59529   59526      24   59532   59526      24
   59532   59529      25   59538   59535      24   59541   59535      24   59541
   59538      25   59547   59544      24   59550   59544      24   59550   59547
      25   59556   59553      24   59559   59553      24   59559   59556      25
   59565   59562      24   59568   59562      24   59568   59565      25   59574
   59571      24   59577   59571      24   59577   59574      25   59583   59580
      24   59586   59580      24   59586   59583      25   59592   59589      24
   59595   59589      24   59595   59592      25   59601   59598      24   59604
   59598      24   59604   59601      25   59610   59607      24   59613   59607
      24   59613   59610      25   59619   59616      24   59622   59616      24
   59622   59619      25   59628   59625      24   59631   59625      24   59631
   59628      25   59637   59634      24   59640   59634      24   59640   59637
      25   59646   59643      24   59649   59643      24   59649   59646      25
   59655   59652      24   59658   59652      24   59658   59655      25   59664
   59661      24   59667   59661      24   59667   59664      25   59673   59670
      24   59676   59670      24   59676   59673      25   59682   59679      24
   59685   59679      24   59685   59682      25   59691   59688      24   59694
   59688      24   59694   59691      25   59700   59697      24   59703   59697
      24   59703   59700      25   59709   59706      24   59712   59706      24
   59712   59709      25   59718   59715      24   59721   59715      24   59721
   59718      25   59727   59724      24   59730   59724      24   59730   59727
      25   59736   59733      24   59739   59733      24   59739   59736      25
   59745   59742      24   59748   59742      24   59748   59745      25   59754
   59751      24   59757   59751      24   59757   59754      25   59763   59760
      24   59766   59760      24   59766   59763      25   59772   59769      24
   59775   59769      24   59775   59772      25   59781   59778      24   59784
   59778      24   59784   59781      25   59790   59787      24   59793   59787
      24   59793   59790      25   59799   59796      24   59802   59796      24
   59802   59799      25   59808   59805      24   59811   59805      24   59811
   59808      25   59817   59814      24   59820   59814      24   59820   59817
      25   59826   59823      24   59829   59823      24   59829   59826      25
   59835   59832      24   59838   59832      24   59838   59835      25   59844
   59841      24   59847   59841      24   59847   59844      25   59853   59850
      24   59856   59850      24   59856   59853      25   59862   59859      24
   59865   59859      24   59865   59862      25   59871   59868      24   59874
   59868      24   59874   59871      25   59880   59877      24   59883   59877
      24   59883   59880      25   59889   59886      24   59892   59886      24
   59892   59889      25   59898   59895      24   59901   59895      24   59901
   59898      25   59907   59904      24   59910   59904      24   59910   59907
      25   59916   59913      24   59919   59913      24   59919   59916      25
   59925   59922      24   59928   59922      24   59928   59925      25   59934
   59931      24   59937   59931      24   59937   59934      25   59943   59940
      24   59946   59940      24   59946   59943      25   59952   59949      24
   59955   59949      24   59955   59952      25   59961   59958      24   59964
   59958      24   59964   59961      25   59970   59967      24   59973   59967
      24   59973   59970      25   59979   59976      24   59982   59976      24
   59982   59979      25   59988   59985      24   59991   59985      24   59991
   59988      25   59997   59994      24   60000   59994      24   60000   59997
      25   60006   60003      24   60009   60003      24   60009   60006      25
   60015   60012      24   60018   60012      24   60018   60015      25   60024
   60021      24   60027   60021      24   60027   60024      25   60033   60030
      24   60036   60030      24   60036   60033      25   60042   60039      24
   60045   60039      24   60045   60042      25   60051   60048      24   60054
   60048      24   60054   60051      25   60060   60057      24   60063   60057
      24   60063   60060      25   60069   60066      24   60072   60066      24
   60072   60069      25   60078   60075      24   60081   60075      24   60081
   60078      25   60087   60084      24   60090   60084      24   60090   60087
      25   60096   60093      24   60099   60093      24   60099   60096      25
   60105   60102      24   60108   60102      24   60108   60105      25   60114
   60111      24   60117   60111      24   60117   60114      25   60123   60120
      24   60126   60120      24   60126   60123      25   60132   60129      24
   60135   60129      24   60135   60132      25   60141   60138      24   60144
   60138      24   60144   60141      25   60150   60147      24   60153   60147
      24   60153   60150      25   60159   60156      24   60162   60156      24
   60162   60159      25   60168   60165      24   60171   60165      24   60171
   60168      25   60177   60174      24   60180   60174      24   60180   60177
      25   60186   60183      24   60189   60183      24   60189   60186      25
   60195   60192      24   60198   60192      24   60198   60195      25   60204
   60201      24   60207   60201      24   60207   60204      25   60213   60210
      24   60216   60210      24   60216   60213      25   60222   60219      24
   60225   60219      24   60225   60222      25   60231   60228      24   60234
   60228      24   60234   60231      25   60240   60237      24   60243   60237
      24   60243   60240      25   60249   60246      24   60252   60246      24
   60252   60249      25   60258   60255      24   60261   60255      24   60261
   60258      25   60267   60264      24   60270   60264      24   60270   60267
      25   60276   60273      24   60279   60273      24   60279   60276      25
   60285   60282      24   60288   60282      24   60288   60285      25   60294
   60291      24   60297   60291      24   60297   60294      25   60303   60300
      24   60306   60300      24   60306   60303      25   60312   60309      24
   60315   60309      24   60315   60312      25   60321   60318      24   60324
   60318      24   60324   60321      25   60330   60327      24   60333   60327
      24   60333   60330      25   60339   60336      24   60342   60336      24
   60342   60339      25   60348   60345      24   60351   60345      24   60351
   60348      25   60357   60354      24   60360   60354      24   60360   60357
      25   60366   60363      24   60369   60363      24   60369   60366      25
   60375   60372      24   60378   60372      24   60378   60375      25   60384
   60381      24   60387   60381      24   60387   60384      25   60393   60390
      24   60396   60390      24   60396   60393      25   60402   60399      24
   60405   60399      24   60405   60402      25   60411   60408      24   60414
   60408      24   60414   60411      25   60420   60417      24   60423   60417
      24   60423   60420      25   60429   60426      24   60432   60426      24
   60432   60429      25   60438   60435      24   60441   60435      24   60441
   60438      25   60447   60444      24   60450   60444      24   60450   60447
      25   60456   60453      24   60459   60453      24   60459   60456      25
   60465   60462      24   60468   60462      24   60468   60465      25   60474
   60471      24   60477   60471      24   60477   60474      25   60483   60480
      24   60486   60480      24   60486   60483      25   60492   60489      24
   60495   60489      24   60495   60492      25   60501   60498      24   60504
   60498      24   60504   60501      25   60510   60507      24   60513   60507
      24   60513   60510      25   60519   60516      24   60522   60516      24
   60522   60519      25   60528   60525      24   60531   60525      24   60531
   60528      25   60537   60534      24   60540   60534      24   60540   60537
      25   60546   60543      24   60549   60543      24   60549   60546      25
   60555   60552      24   60558   60552      24   60558   60555      25   60564
   60561      24   60567   60561      24   60567   60564      25   60573   60570
      24   60576   60570      24   60576   60573      25   60582   60579      24
   60585   60579      24   60585   60582      25   60591   60588      24   60594
   60588      24   60594   60591      25   60600   60597      24   60603   60597
      24   60603   60600      25   60609   60606      24   60612   60606      24
   60612   60609      25   60618   60615      24   60621   60615      24   60621
   60618      25   60627   60624      24   60630   60624      24   60630   60627
      25   60636   60633      24   60639   60633      24   60639   60636      25
   60645   60642      24   60648   60642      24   60648   60645      25   60654
   60651      24   60657   60651      24   60657   60654      25   60663   60660
      24   60666   60660      24   60666   60663      25   60672   60669      24
   60675   60669      24   60675   60672      25   60681   60678      24   60684
   60678      24   60684   60681      25   60690   60687      24   60693   60687
      24   60693   60690      25   60699   60696      24   60702   60696      24
   60702   60699      25   60708   60705      24   60711   60705      24   60711
   60708      25   60717   60714      24   60720   60714      24   60720   60717
      25   60726   60723      24   60729   60723      24   60729   60726      25
   60735   60732      24   60738   60732      24   60738   60735      25   60744
   60741      24   60747   60741      24   60747   60744      25   60753   60750
      24   60756   60750      24   60756   60753      25   60762   60759      24
   60765   60759      24   60765   60762      25   60771   60768      24   60774
   60768      24   60774   60771      25   60780   60777      24   60783   60777
      24   60783   60780      25   60789   60786      24   60792   60786      24
   60792   60789      25   60798   60795      24   60801   60795      24   60801
   60798      25   60807   60804      24   60810   60804      24   60810   60807
      25   60816   60813      24   60819   60813      24   60819   60816      25
   60825   60822      24   60828   60822      24   60828   60825      25   60834
   60831      24   60837   60831      24   60837   60834      25   60843   60840
      24   60846   60840      24   60846   60843      25   60852   60849      24
   60855   60849      24   60855   60852      25   60861   60858      24   60864
   60858      24   60864   60861      25   60870   60867      24   60873   60867
      24   60873   60870      25   60879   60876      24   60882   60876      24
   60882   60879      25   60888   60885      24   60891   60885      24   60891
   60888      25   60897   60894      24   60900   60894      24   60900   60897
      25   60906   60903      24   60909   60903      24   60909   60906      25
   60915   60912      24   60918   60912      24   60918   60915      25   60924
   60921      24   60927   60921      24   60927   60924      25   60933   60930
      24   60936   60930      24   60936   60933      25   60942   60939      24
   60945   60939      24   60945   60942      25   60951   60948      24   60954
   60948      24   60954   60951      25   60960   60957      24   60963   60957
      24   60963   60960      25   60969   60966      24   60972   60966      24
   60972   60969      25   60978   60975      24   60981   60975      24   60981
   60978      25   60987   60984      24   60990   60984      24   60990   60987
      25   60996   60993      24   60999   60993      24   60999   60996      25
   61005   61002      24   61008   61002      24   61008   61005      25   61014
   61011      24   61017   61011      24   61017   61014      25   61023   61020
      24   61026   61020      24   61026   61023      25   61032   61029      24
   61035   61029      24   61035   61032      25   61041   61038      24   61044
   61038      24   61044   61041      25   61050   61047      24   61053   61047
      24   61053   61050      25   61059   61056      24   61062   61056      24
   61062   61059      25   61068   61065      24   61071   61065      24   61071
   61068      25   61077   61074      24   61080   61074      24   61080   61077
      25   61086   61083      24   61089   61083      24   61089   61086      25
   61095   61092      24   61098   61092      24   61098   61095      25   61104
   61101      24   61107   61101      24   61107   61104      25   61113   61110
      24   61116   61110      24   61116   61113      25   61122   61119      24
   61125   61119      24   61125   61122      25   61131   61128      24   61134
   61128      24   61134   61131      25   61140   61137      24   61143   61137
      24   61143   61140      25   61149   61146      24   61152   61146      24
   61152   61149      25   61158   61155      24   61161   61155      24   61161
   61158      25   61167   61164      24   61170   61164      24   61170   61167
      25   61176   61173      24   61179   61173      24   61179   61176      25
   61185   61182      24   61188   61182      24   61188   61185      25   61194
   61191      24   61197   61191      24   61197   61194      25   61203   61200
      24   61206   61200      24   61206   61203      25   61212   61209      24
   61215   61209      24   61215   61212      25   61221   61218      24   61224
   61218      24   61224   61221      25   61230   61227      24   61233   61227
      24   61233   61230      25   61239   61236      24   61242   61236      24
   61242   61239      25   61248   61245      24   61251   61245      24   61251
   61248      25   61257   61254      24   61260   61254      24   61260   61257
      25   61266   61263      24   61269   61263      24   61269   61266      25
   61275   61272      24   61278   61272      24   61278   61275      25   61284
   61281      24   61287   61281      24   61287   61284      25   61293   61290
      24   61296   61290      24   61296   61293      25   61302   61299      24
   61305   61299      24   61305   61302      25   61311   61308      24   61314
   61308      24   61314   61311      25   61320   61317      24   61323   61317
      24   61323   61320      25   61329   61326      24   61332   61326      24
   61332   61329      25   61338   61335      24   61341   61335      24   61341
   61338      25   61347   61344      24   61350   61344      24   61350   61347
      25   61356   61353      24   61359   61353      24   61359   61356      25
   61365   61362      24   61368   61362      24   61368   61365      25   61374
   61371      24   61377   61371      24   61377   61374      25   61383   61380
      24   61386   61380      24   61386   61383      25   61392   61389      24
   61395   61389      24   61395   61392      25   61401   61398      24   61404
   61398      24   61404   61401      25   61410   61407      24   61413   61407
      24   61413   61410      25   61419   61416      24   61422   61416      24
   61422   61419      25   61428   61425      24   61431   61425      24   61431
   61428      25   61437   61434      24   61440   61434      24   61440   61437
      25   61446   61443      24   61449   61443      24   61449   61446      25
   61455   61452      24   61458   61452      24   61458   61455      25   61464
   61461      24   61467   61461      24   61467   61464      25   61473   61470
      24   61476   61470      24   61476   61473      25   61482   61479      24
   61485   61479      24   61485   61482      25   61491   61488      24   61494
   61488      24   61494   61491      25   61500   61497      24   61503   61497
      24   61503   61500      25   61509   61506      24   61512   61506      24
   61512   61509      25   61518   61515      24   61521   61515      24   61521
   61518      25   61527   61524      24   61530   61524      24   61530   61527
      25   61536   61533      24   61539   61533      24   61539   61536      25
   61545   61542      24   61548   61542      24   61548   61545      25   61554
   61551      24   61557   61551      24   61557   61554      25   61563   61560
      24   61566   61560      24   61566   61563      25   61572   61569      24
   61575   61569      24   61575   61572      25   61581   61578      24   61584
   61578      24   61584   61581      25   61590   61587      24   61593   61587
      24   61593   61590      25   61599   61596      24   61602   61596      24
   61602   61599      25   61608   61605      24   61611   61605      24   61611
   61608      25   61617   61614      24   61620   61614      24   61620   61617
      25   61626   61623      24   61629   61623      24   61629   61626      25
   61635   61632      24   61638   61632      24   61638   61635      25   61644
   61641      24   61647   61641      24   61647   61644      25   61653   61650
      24   61656   61650      24   61656   61653      25   61662   61659      24
   61665   61659      24   61665   61662      25   61671   61668      24   61674
   61668      24   61674   61671      25   61680   61677      24   61683   61677
      24   61683   61680      25   61689   61686      24   61692   61686      24
   61692   61689      25   61698   61695      24   61701   61695      24   61701
   61698      25   61707   61704      24   61710   61704      24   61710   61707
      25   61716   61713      24   61719   61713      24   61719   61716      25
   61725   61722      24   61728   61722      24   61728   61725      25   61734
   61731      24   61737   61731      24   61737   61734      25   61743   61740
      24   61746   61740      24   61746   61743      25   61752   61749      24
   61755   61749      24   61755   61752      25   61761   61758      24   61764
   61758      24   61764   61761      25   61770   61767      24   61773   61767
      24   61773   61770      25   61779   61776      24   61782   61776      24
   61782   61779      25   61788   61785      24   61791   61785      24   61791
   61788      25   61797   61794      24   61800   61794      24   61800   61797
      25   61806   61803      24   61809   61803      24   61809   61806      25
   61815   61812      24   61818   61812      24   61818   61815      25   61824
   61821      24   61827   61821      24   61827   61824      25   61833   61830
      24   61836   61830      24   61836   61833      25   61842   61839      24
   61845   61839      24   61845   61842      25   61851   61848      24   61854
   61848      24   61854   61851      25   61860   61857      24   61863   61857
      24   61863   61860      25   61869   61866      24   61872   61866      24
   61872   61869      25   61878   61875      24   61881   61875      24   61881
   61878      25   61887   61884      24   61890   61884      24   61890   61887
      25   61896   61893      24   61899   61893      24   61899   61896      25
   61905   61902      24   61908   61902      24   61908   61905      25   61914
   61911      24   61917   61911      24   61917   61914      25   61923   61920
      24   61926   61920      24   61926   61923      25   61932   61929      24
   61935   61929      24   61935   61932      25   61941   61938      24   61944
   61938      24   61944   61941      25   61950   61947      24   61953   61947
      24   61953   61950      25   61959   61956      24   61962   61956      24
   61962   61959      25   61968   61965      24   61971   61965      24   61971
   61968      25   61977   61974      24   61980   61974      24   61980   61977
      25   61986   61983      24   61989   61983      24   61989   61986      25
   61995   61992      24   61998   61992      24   61998   61995      25   62004
   62001      24   62007   62001      24   62007   62004      25   62013   62010
      24   62016   62010      24   62016   62013      25   62022   62019      24
   62025   62019      24   62025   62022      25   62031   62028      24   62034
   62028      24   62034   62031      25   62040   62037      24   62043   62037
      24   62043   62040      25   62049   62046      24   62052   62046      24
   62052   62049      25   62058   62055      24   62061   62055      24   62061
   62058      25   62067   62064      24   62070   62064      24   62070   62067
      25   62076   62073      24   62079   62073      24   62079   62076      25
   62085   62082      24   62088   62082      24   62088   62085      25   62094
   62091      24   62097   62091      24   62097   62094      25   62103   62100
      24   62106   62100      24   62106   62103      25   62112   62109      24
   62115   62109      24   62115   62112      25   62121   62118      24   62124
   62118      24   62124   62121      25   62130   62127      24   62133   62127
      24   62133   62130      25   62139   62136      24   62142   62136      24
   62142   62139      25   62148   62145      24   62151   62145      24   62151
   62148      25   62157   62154      24   62160   62154      24   62160   62157
      25   62166   62163      24   62169   62163      24   62169   62166      25
   62175   62172      24   62178   62172      24   62178   62175      25   62184
   62181      24   62187   62181      24   62187   62184      25   62193   62190
      24   62196   62190      24   62196   62193      25   62202   62199      24
   62205   62199      24   62205   62202      25   62211   62208      24   62214
   62208      24   62214   62211      25   62220   62217      24   62223   62217
      24   62223   62220      25   62229   62226      24   62232   62226      24
   62232   62229      25   62238   62235      24   62241   62235      24   62241
   62238      25   62247   62244      24   62250   62244      24   62250   62247
      25   62256   62253      24   62259   62253      24   62259   62256      25
   62265   62262      24   62268   62262      24   62268   62265      25   62274
   62271      24   62277   62271      24   62277   62274      25   62283   62280
      24   62286   62280      24   62286   62283      25   62292   62289      24
   62295   62289      24   62295   62292      25   62301   62298      24   62304
   62298      24   62304   62301      25   62310   62307      24   62313   62307
      24   62313   62310      25   62319   62316      24   62322   62316      24
   62322   62319      25   62328   62325      24   62331   62325      24   62331
   62328      25   62337   62334      24   62340   62334      24   62340   62337
      25   62346   62343      24   62349   62343      24   62349   62346      25
   62355   62352      24   62358   62352      24   62358   62355      25   62364
   62361      24   62367   62361      24   62367   62364      25   62373   62370
      24   62376   62370      24   62376   62373      25   62382   62379      24
   62385   62379      24   62385   62382      25   62391   62388      24   62394
   62388      24   62394   62391      25   62400   62397      24   62403   62397
      24   62403   62400      25   62409   62406      24   62412   62406      24
   62412   62409      25   62418   62415      24   62421   62415      24   62421
   62418      25   62427   62424      24   62430   62424      24   62430   62427
      25   62436   62433      24   62439   62433      24   62439   62436      25
   62445   62442      24   62448   62442      24   62448   62445      25   62454
   62451      24   62457   62451      24   62457   62454      25   62463   62460
      24   62466   62460      24   62466   62463      25   62472   62469      24
   62475   62469      24   62475   62472      25   62481   62478      24   62484
   62478      24   62484   62481      25   62490   62487      24   62493   62487
      24   62493   62490      25   62499   62496      24   62502   62496      24
   62502   62499      25   62508   62505      24   62511   62505      24   62511
   62508      25   62517   62514      24   62520   62514      24   62520   62517
      25   62526   62523      24   62529   62523      24   62529   62526      25
   62535   62532      24   62538   62532      24   62538   62535      25   62544
   62541      24   62547   62541      24   62547   62544      25   62553   62550
      24   62556   62550      24   62556   62553      25   62562   62559      24
   62565   62559      24   62565   62562      25   62571   62568      24   62574
   62568      24   62574   62571      25   62580   62577      24   62583   62577
      24   62583   62580      25   62589   62586      24   62592   62586      24
   62592   62589      25   62598   62595      24   62601   62595      24   62601
   62598      25   62607   62604      24   62610   62604      24   62610   62607
      25   62616   62613      24   62619   62613      24   62619   62616      25
   62625   62622      24   62628   62622      24   62628   62625      25   62634
   62631      24   62637   62631      24   62637   62634      25   62643   62640
      24   62646   62640      24   62646   62643      25   62652   62649      24
   62655   62649      24   62655   62652      25   62661   62658      24   62664
   62658      24   62664   62661      25   62670   62667      24   62673   62667
      24   62673   62670      25   62679   62676      24   62682   62676      24
   62682   62679      25   62688   62685      24   62691   62685      24   62691
   62688      25   62697   62694      24   62700   62694      24   62700   62697
      25   62706   62703      24   62709   62703      24   62709   62706      25
   62715   62712      24   62718   62712      24   62718   62715      25   62724
   62721      24   62727   62721      24   62727   62724      25   62733   62730
      24   62736   62730      24   62736   62733      25   62742   62739      24
   62745   62739      24   62745   62742      25   62751   62748      24   62754
   62748      24   62754   62751      25   62760   62757      24   62763   62757
      24   62763   62760      25   62769   62766      24   62772   62766      24
   62772   62769      25   62778   62775      24   62781   62775      24   62781
   62778      25   62787   62784      24   62790   62784      24   62790   62787
      25   62796   62793      24   62799   62793      24   62799   62796      25
   62805   62802      24   62808   62802      24   62808   62805      25   62814
   62811      24   62817   62811      24   62817   62814      25   62823   62820
      24   62826   62820      24   62826   62823      25   62832   62829      24
   62835   62829      24   62835   62832      25   62841   62838      24   62844
   62838      24   62844   62841      25   62850   62847      24   62853   62847
      24   62853   62850      25   62859   62856      24   62862   62856      24
   62862   62859      25   62868   62865      24   62871   62865      24   62871
   62868      25   62877   62874      24   62880   62874      24   62880   62877
      25   62886   62883      24   62889   62883      24   62889   62886      25
   62895   62892      24   62898   62892      24   62898   62895      25   62904
   62901      24   62907   62901      24   62907   62904      25   62913   62910
      24   62916   62910      24   62916   62913      25   62922   62919      24
   62925   62919      24   62925   62922      25   62931   62928      24   62934
   62928      24   62934   62931      25   62940   62937      24   62943   62937
      24   62943   62940      25   62949   62946      24   62952   62946      24
   62952   62949      25   62958   62955      24   62961   62955      24   62961
   62958      25   62967   62964      24   62970   62964      24   62970   62967
      25   62976   62973      24   62979   62973      24   62979   62976      25
   62985   62982      24   62988   62982      24   62988   62985      25   62994
   62991      24   62997   62991      24   62997   62994      25   63003   63000
      24   63006   63000      24   63006   63003      25   63012   63009      24
   63015   63009      24   63015   63012      25   63021   63018      24   63024
   63018      24   63024   63021      25   63030   63027      24   63033   63027
      24   63033   63030      25   63039   63036      24   63042   63036      24
   63042   63039      25   63048   63045      24   63051   63045      24   63051
   63048      25   63057   63054      24   63060   63054      24   63060   63057
      25   63066   63063      24   63069   63063      24   63069   63066      25
   63075   63072      24   63078   63072      24   63078   63075      25   63084
   63081      24   63087   63081      24   63087   63084      25   63093   63090
      24   63096   63090      24   63096   63093      25   63102   63099      24
   63105   63099      24   63105   63102      25   63111   63108      24   63114
   63108      24   63114   63111      25   63120   63117      24   63123   63117
      24   63123   63120      25   63129   63126      24   63132   63126      24
   63132   63129      25   63138   63135      24   63141   63135      24   63141
   63138      25   63147   63144      24   63150   63144      24   63150   63147
      25   63156   63153      24   63159   63153      24   63159   63156      25
   63165   63162      24   63168   63162      24   63168   63165      25   63174
   63171      24   63177   63171      24   63177   63174      25   63183   63180
      24   63186   63180      24   63186   63183      25   63192   63189      24
   63195   63189      24   63195   63192      25   63201   63198      24   63204
   63198      24   63204   63201      25   63210   63207      24   63213   63207
      24   63213   63210      25   63219   63216      24   63222   63216      24
   63222   63219      25   63228   63225      24   63231   63225      24   63231
   63228      25   63237   63234      24   63240   63234      24   63240   63237
      25   63246   63243      24   63249   63243      24   63249   63246      25
   63255   63252      24   63258   63252      24   63258   63255      25   63264
   63261      24   63267   63261      24   63267   63264      25   63273   63270
      24   63276   63270      24   63276   63273      25   63282   63279      24
   63285   63279      24   63285   63282      25   63291   63288      24   63294
   63288      24   63294   63291      25   63300   63297      24   63303   63297
      24   63303   63300      25   63309   63306      24   63312   63306      24
   63312   63309      25   63318   63315      24   63321   63315      24   63321
   63318      25   63327   63324      24   63330   63324      24   63330   63327
      25   63336   63333      24   63339   63333      24   63339   63336      25
   63345   63342      24   63348   63342      24   63348   63345      25   63354
   63351      24   63357   63351      24   63357   63354      25   63363   63360
      24   63366   63360      24   63366   63363      25   63372   63369      24
   63375   63369      24   63375   63372      25   63381   63378      24   63384
   63378      24   63384   63381      25   63390   63387      24   63393   63387
      24   63393   63390      25   63399   63396      24   63402   63396      24
   63402   63399      25   63408   63405      24   63411   63405      24   63411
   63408      25   63417   63414      24   63420   63414      24   63420   63417
      25   63426   63423      24   63429   63423      24   63429   63426      25
   63435   63432      24   63438   63432      24   63438   63435      25   63444
   63441      24   63447   63441      24   63447   63444      25   63453   63450
      24   63456   63450      24   63456   63453      25   63462   63459      24
   63465   63459      24   63465   63462      25   63471   63468      24   63474
   63468      24   63474   63471      25   63480   63477      24   63483   63477
      24   63483   63480      25   63489   63486      24   63492   63486      24
   63492   63489      25   63498   63495      24   63501   63495      24   63501
   63498      25   63507   63504      24   63510   63504      24   63510   63507
      25   63516   63513      24   63519   63513      24   63519   63516      25
   63525   63522      24   63528   63522      24   63528   63525      25   63534
   63531      24   63537   63531      24   63537   63534      25   63543   63540
      24   63546   63540      24   63546   63543      25   63552   63549      24
   63555   63549      24   63555   63552      25   63561   63558      24   63564
   63558      24   63564   63561      25   63570   63567      24   63573   63567
      24   63573   63570      25   63579   63576      24   63582   63576      24
   63582   63579      25   63588   63585      24   63591   63585      24   63591
   63588      25   63597   63594      24   63600   63594      24   63600   63597
      25   63606   63603      24   63609   63603      24   63609   63606      25
   63615   63612      24   63618   63612      24   63618   63615      25   63624
   63621      24   63627   63621      24   63627   63624      25   63633   63630
      24   63636   63630      24   63636   63633      25   63642   63639      24
   63645   63639      24   63645   63642      25   63651   63648      24   63654
   63648      24   63654   63651      25   63660   63657      24   63663   63657
      24   63663   63660      25   63669   63666      24   63672   63666      24
   63672   63669      25   63678   63675      24   63681   63675      24   63681
   63678      25   63687   63684      24   63690   63684      24   63690   63687
      25   63696   63693      24   63699   63693      24   63699   63696      25
   63705   63702      24   63708   63702      24   63708   63705      25   63714
   63711      24   63717   63711      24   63717   63714      25   63723   63720
      24   63726   63720      24   63726   63723      25   63732   63729      24
   63735   63729      24   63735   63732      25   63741   63738      24   63744
   63738      24   63744   63741      25   63750   63747      24   63753   63747
      24   63753   63750      25   63759   63756      24   63762   63756      24
   63762   63759      25   63768   63765      24   63771   63765      24   63771
   63768      25   63777   63774      24   63780   63774      24   63780   63777
      25   63786   63783      24   63789   63783      24   63789   63786      25
   63795   63792      24   63798   63792      24   63798   63795      25   63804
   63801      24   63807   63801      24   63807   63804      25   63813   63810
      24   63816   63810      24   63816   63813      25   63822   63819      24
   63825   63819      24   63825   63822      25   63831   63828      24   63834
   63828      24   63834   63831      25   63840   63837      24   63843   63837
      24   63843   63840      25   63849   63846      24   63852   63846      24
   63852   63849      25   63858   63855      24   63861   63855      24   63861
   63858      25   63867   63864      24   63870   63864      24   63870   63867
      25   63876   63873      24   63879   63873      24   63879   63876      25
   63885   63882      24   63888   63882      24   63888   63885      25   63894
   63891      24   63897   63891      24   63897   63894      25   63903   63900
      24   63906   63900      24   63906   63903      25   63912   63909      24
   63915   63909      24   63915   63912      25   63921   63918      24   63924
   63918      24   63924   63921      25   63930   63927      24   63933   63927
      24   63933   63930      25   63939   63936      24   63942   63936      24
   63942   63939      25   63948   63945      24   63951   63945      24   63951
   63948      25   63957   63954      24   63960   63954      24   63960   63957
      25   63966   63963      24   63969   63963      24   63969   63966      25
   63975   63972      24   63978   63972      24   63978   63975      25   63984
   63981      24   63987   63981      24   63987   63984      25   63993   63990
      24   63996   63990      24   63996   63993      25   64002   63999      24
   64005   63999      24   64005   64002      25   64011   64008      24   64014
   64008      24   64014   64011      25   64020   64017      24   64023   64017
      24   64023   64020      25   64029   64026      24   64032   64026      24
   64032   64029      25   64038   64035      24   64041   64035      24   64041
   64038      25   64047   64044      24   64050   64044      24   64050   64047
      25   64056   64053      24   64059   64053      24   64059   64056      25
   64065   64062      24   64068   64062      24   64068   64065      25   64074
   64071      24   64077   64071      24   64077   64074      25   64083   64080
      24   64086   64080      24   64086   64083      25   64092   64089      24
   64095   64089      24   64095   64092      25   64101   64098      24   64104
   64098      24   64104   64101      25   64110   64107      24   64113   64107
      24   64113   64110      25   64119   64116      24   64122   64116      24
   64122   64119      25   64128   64125      24   64131   64125      24   64131
   64128      25   64137   64134      24   64140   64134      24   64140   64137
      25   64146   64143      24   64149   64143      24   64149   64146      25
   64155   64152      24   64158   64152      24   64158   64155      25   64164
   64161      24   64167   64161      24   64167   64164      25   64173   64170
      24   64176   64170      24   64176   64173      25   64182   64179      24
   64185   64179      24   64185   64182      25   64191   64188      24   64194
   64188      24   64194   64191      25   64200   64197      24   64203   64197
      24   64203   64200      25   64209   64206      24   64212   64206      24
   64212   64209      25   64218   64215      24   64221   64215      24   64221
   64218      25   64227   64224      24   64230   64224      24   64230   64227
      25   64236   64233      24   64239   64233      24   64239   64236      25
   64245   64242      24   64248   64242      24   64248   64245      25   64254
   64251      24   64257   64251      24   64257   64254      25   64263   64260
      24   64266   64260      24   64266   64263      25   64272   64269      24
   64275   64269      24   64275   64272      25   64281   64278      24   64284
   64278      24   64284   64281      25   64290   64287      24   64293   64287
      24   64293   64290      25   64299   64296      24   64302   64296      24
   64302   64299      25   64308   64305      24   64311   64305      24   64311
   64308      25   64317   64314      24   64320   64314      24   64320   64317
      25   64326   64323      24   64329   64323      24   64329   64326      25
   64335   64332      24   64338   64332      24   64338   64335      25   64344
   64341      24   64347   64341      24   64347   64344      25   64353   64350
      24   64356   64350      24   64356   64353      25   64362   64359      24
   64365   64359      24   64365   64362      25   64371   64368      24   64374
   64368      24   64374   64371      25   64380   64377      24   64383   64377
      24   64383   64380      25   64389   64386      24   64392   64386      24
   64392   64389      25   64398   64395      24   64401   64395      24   64401
   64398      25   64407   64404      24   64410   64404      24   64410   64407
      25   64416   64413      24   64419   64413      24   64419   64416      25
   64425   64422      24   64428   64422      24   64428   64425      25   64434
   64431      24   64437   64431      24   64437   64434      25   64443   64440
      24   64446   64440      24   64446   64443      25   64452   64449      24
   64455   64449      24   64455   64452      25   64461   64458      24   64464
   64458      24   64464   64461      25   64470   64467      24   64473   64467
      24   64473   64470      25   64479   64476      24   64482   64476      24
   64482   64479      25   64488   64485      24   64491   64485      24   64491
   64488      25   64497   64494      24   64500   64494      24   64500   64497
      25   64506   64503      24   64509   64503      24   64509   64506      25
   64515   64512      24   64518   64512      24   64518   64515      25   64524
   64521      24   64527   64521      24   64527   64524      25   64533   64530
      24   64536   64530      24   64536   64533      25   64542   64539      24
   64545   64539      24   64545   64542      25   64551   64548      24   64554
   64548      24   64554   64551      25   64560   64557      24   64563   64557
      24   64563   64560      25   64569   64566      24   64572   64566      24
   64572   64569      25   64578   64575      24   64581   64575      24   64581
   64578      25   64587   64584      24   64590   64584      24   64590   64587
      25   64596   64593      24   64599   64593      24   64599   64596      25
   64605   64602      24   64608   64602      24   64608   64605      25   64614
   64611      24   64617   64611      24   64617   64614      25   64623   64620
      24   64626   64620      24   64626   64623      25   64632   64629      24
   64635   64629      24   64635   64632      25   64641   64638      24   64644
   64638      24   64644   64641      25   64650   64647      24   64653   64647
      24   64653   64650      25   64659   64656      24   64662   64656      24
   64662   64659      25   64668   64665      24   64671   64665      24   64671
   64668      25   64677   64674      24   64680   64674      24   64680   64677
      25   64686   64683      24   64689   64683      24   64689   64686      25
   64695   64692      24   64698   64692      24   64698   64695      25   64704
   64701      24   64707   64701      24   64707   64704      25   64713   64710
      24   64716   64710      24   64716   64713      25   64722   64719      24
   64725   64719      24   64725   64722      25   64731   64728      24   64734
   64728      24   64734   64731      25   64740   64737      24   64743   64737
      24   64743   64740      25   64749   64746      24   64752   64746      24
   64752   64749      25   64758   64755      24   64761   64755      24   64761
   64758      25   64767   64764      24   64770   64764      24   64770   64767
      25   64776   64773      24   64779   64773      24   64779   64776      25
   64785   64782      24   64788   64782      24   64788   64785      25   64794
   64791      24   64797   64791      24   64797   64794      25   64803   64800
      24   64806   64800      24   64806   64803      25   64812   64809      24
   64815   64809      24   64815   64812      25   64821   64818      24   64824
   64818      24   64824   64821      25   64830   64827      24   64833   64827
      24   64833   64830      25   64839   64836      24   64842   64836      24
   64842   64839      25   64848   64845      24   64851   64845      24   64851
   64848      25   64857   64854      24   64860   64854      24   64860   64857
      25   64866   64863      24   64869   64863      24   64869   64866      25
   64875   64872      24   64878   64872      24   64878   64875      25   64884
   64881      24   64887   64881      24   64887   64884      25   64893   64890
      24   64896   64890      24   64896   64893      25   64902   64899      24
   64905   64899      24   64905   64902      25   64911   64908      24   64914
   64908      24   64914   64911      25   64920   64917      24   64923   64917
      24   64923   64920      25   64929   64926      24   64932   64926      24
   64932   64929      25   64938   64935      24   64941   64935      24   64941
   64938      25   64947   64944      24   64950   64944      24   64950   64947
      25   64956   64953      24   64959   64953      24   64959   64956      25
   64965   64962      24   64968   64962      24   64968   64965      25   64974
   64971      24   64977   64971      24   64977   64974      25   64983   64980
      24   64986   64980      24   64986   64983      25   64992   64989      24
   64995   64989      24   64995   64992      25   65001   64998      24   65004
   64998      24   65004   65001      25   65010   65007      24   65013   65007
      24   65013   65010      25   65019   65016      24   65022   65016      24
   65022   65019      25   65028   65025      24   65031   65025      24   65031
   65028      25   65037   65034      24   65040   65034      24   65040   65037
      25   65046   65043      24   65049   65043      24   65049   65046      25
   65055   65052      24   65058   65052      24   65058   65055      25   65064
   65061      24   65067   65061      24   65067   65064      25   65073   65070
      24   65076   65070      24   65076   65073      25   65082   65079      24
   65085   65079      24   65085   65082      25   65091   65088      24   65094
   65088      24   65094   65091      25   65100   65097      24   65103   65097
      24   65103   65100      25   65109   65106      24   65112   65106      24
   65112   65109      25   65118   65115      24   65121   65115      24   65121
   65118      25   65127   65124      24   65130   65124      24   65130   65127
      25   65136   65133      24   65139   65133      24   65139   65136      25
   65145   65142      24   65148   65142      24   65148   65145      25   65154
   65151      24   65157   65151      24   65157   65154      25   65163   65160
      24   65166   65160      24   65166   65163      25   65172   65169      24
   65175   65169      24   65175   65172      25   65181   65178      24   65184
   65178      24   65184   65181      25   65190   65187      24   65193   65187
      24   65193   65190      25   65199   65196      24   65202   65196      24
   65202   65199      25   65208   65205      24   65211   65205      24   65211
   65208      25   65217   65214      24   65220   65214      24   65220   65217
      25   65226   65223      24   65229   65223      24   65229   65226      25
   65235   65232      24   65238   65232      24   65238   65235      25   65244
   65241      24   65247   65241      24   65247   65244      25   65253   65250
      24   65256   65250      24   65256   65253      25   65262   65259      24
   65265   65259      24   65265   65262      25   65271   65268      24   65274
   65268      24   65274   65271      25   65280   65277      24   65283   65277
      24   65283   65280      25   65289   65286      24   65292   65286      24
   65292   65289      25   65298   65295      24   65301   65295      24   65301
   65298      25   65307   65304      24   65310   65304      24   65310   65307
      25   65316   65313      24   65319   65313      24   65319   65316      25
   65325   65322      24   65328   65322      24   65328   65325      25   65334
   65331      24   65337   65331      24   65337   65334      25   65343   65340
      24   65346   65340      24   65346   65343      25   65352   65349      24
   65355   65349      24   65355   65352      25   65361   65358      24   65364
   65358      24   65364   65361      25   65370   65367      24   65373   65367
      24   65373   65370      25   65379   65376      24   65382   65376      24
   65382   65379      25   65388   65385      24   65391   65385      24   65391
   65388      25   65397   65394      24   65400   65394      24   65400   65397
      25   65406   65403      24   65409   65403      24   65409   65406      25
   65415   65412      24   65418   65412      24   65418   65415      25   65424
   65421      24   65427   65421      24   65427   65424      25   65433   65430
      24   65436   65430      24   65436   65433      25   65442   65439      24
   65445   65439      24   65445   65442      25   65451   65448      24   65454
   65448      24   65454   65451      25   65460   65457      24   65463   65457
      24   65463   65460      25   65469   65466      24   65472   65466      24
   65472   65469      25   65478   65475      24   65481   65475      24   65481
   65478      25   65487   65484      24   65490   65484      24   65490   65487
      25   65496   65493      24   65499   65493      24   65499   65496      25
   65505   65502      24   65508   65502      24   65508   65505      25   65514
   65511      24   65517   65511      24   65517   65514      25   65523   65520
      24   65526   65520      24   65526   65523      25   65532   65529      24
   65535   65529      24   65535   65532      25   65541   65538      24   65544
   65538      24   65544   65541      25   65550   65547      24   65553   65547
      24   65553   65550      25   65559   65556      24   65562   65556      24
   65562   65559      25   65568   65565      24   65571   65565      24   65571
   65568      25   65577   65574      24   65580   65574      24   65580   65577
      25   65586   65583      24   65589   65583      24   65589   65586      25
   65595   65592      24   65598   65592      24   65598   65595      25   65604
   65601      24   65607   65601      24   65607   65604      25   65613   65610
      24   65616   65610      24   65616   65613      25   65622   65619      24
   65625   65619      24   65625   65622      25   65631   65628      24   65634
   65628      24   65634   65631      25   65640   65637      24   65643   65637
      24   65643   65640      25   65649   65646      24   65652   65646      24
   65652   65649      25   65658   65655      24   65661   65655      24   65661
   65658      25   65667   65664      24   65670   65664      24   65670   65667
      25   65676   65673      24   65679   65673      24   65679   65676      25
   65685   65682      24   65688   65682      24   65688   65685      25   65694
   65691      24   65697   65691      24   65697   65694      25   65703   65700
      24   65706   65700      24   65706   65703      25   65712   65709      24
   65715   65709      24   65715   65712      25   65721   65718      24   65724
   65718      24   65724   65721      25   65730   65727      24   65733   65727
      24   65733   65730      25   65739   65736      24   65742   65736      24
   65742   65739      25   65748   65745      24   65751   65745      24   65751
   65748      25   65757   65754      24   65760   65754      24   65760   65757
      25   65766   65763      24   65769   65763      24   65769   65766      25
   65775   65772      24   65778   65772      24   65778   65775      25   65784
   65781      24   65787   65781      24   65787   65784      25   65793   65790
      24   65796   65790      24   65796   65793      25   65802   65799      24
   65805   65799      24   65805   65802      25   65811   65808      24   65814
   65808      24   65814   65811      25   65820   65817      24   65823   65817
      24   65823   65820      25   65829   65826      24   65832   65826      24
   65832   65829      25   65838   65835      24   65841   65835      24   65841
   65838      25   65847   65844      24   65850   65844      24   65850   65847
      25   65856   65853      24   65859   65853      24   65859   65856      25
   65865   65862      24   65868   65862      24   65868   65865      25   65874
   65871      24   65877   65871      24   65877   65874      25   65883   65880
      24   65886   65880      24   65886   65883      25   65892   65889      24
   65895   65889      24   65895   65892      25   65901   65898      24   65904
   65898      24   65904   65901      25   65910   65907      24   65913   65907
      24   65913   65910      25   65919   65916      24   65922   65916      24
   65922   65919      25   65928   65925      24   65931   65925      24   65931
   65928      25   65937   65934      24   65940   65934      24   65940   65937
      25   65946   65943      24   65949   65943      24   65949   65946      25
   65955   65952      24   65958   65952      24   65958   65955      25   65964
   65961      24   65967   65961      24   65967   65964      25   65973   65970
      24   65976   65970      24   65976   65973      25   65982   65979      24
   65985   65979      24   65985   65982      25   65991   65988      24   65994
   65988      24   65994   65991      25   66000   65997      24   66003   65997
      24   66003   66000      25   66009   66006      24   66012   66006      24
   66012   66009      25   66018   66015      24   66021   66015      24   66021
   66018      25   66027   66024      24   66030   66024      24   66030   66027
      25   66036   66033      24   66039   66033      24   66039   66036      25
   66045   66042      24   66048   66042      24   66048   66045      25   66054
   66051      24   66057   66051      24   66057   66054      25   66063   66060
      24   66066   66060      24   66066   66063      25   66072   66069      24
   66075   66069      24   66075   66072      25   66081   66078      24   66084
   66078      24   66084   66081      25   66090   66087      24   66093   66087
      24   66093   66090      25   66099   66096      24   66102   66096      24
   66102   66099      25   66108   66105      24   66111   66105      24   66111
   66108      25   66117   66114      24   66120   66114      24   66120   66117
      25   66126   66123      24   66129   66123      24   66129   66126      25
   66135   66132      24   66138   66132      24   66138   66135      25   66144
   66141      24   66147   66141      24   66147   66144      25   66153   66150
      24   66156   66150      24   66156   66153      25   66162   66159      24
   66165   66159      24   66165   66162      25   66171   66168      24   66174
   66168      24   66174   66171      25   66180   66177      24   66183   66177
      24   66183   66180      25   66189   66186      24   66192   66186      24
   66192   66189      25   66198   66195      24   66201   66195      24   66201
   66198      25   66207   66204      24   66210   66204      24   66210   66207
      25   66216   66213      24   66219   66213      24   66219   66216      25
   66225   66222      24   66228   66222      24   66228   66225      25   66234
   66231      24   66237   66231      24   66237   66234      25   66243   66240
      24   66246   66240      24   66246   66243      25   66252   66249      24
   66255   66249      24   66255   66252      25   66261   66258      24   66264
   66258      24   66264   66261      25   66270   66267      24   66273   66267
      24   66273   66270      25   66279   66276      24   66282   66276      24
   66282   66279      25   66288   66285      24   66291   66285      24   66291
   66288      25   66297   66294      24   66300   66294      24   66300   66297
      25   66306   66303      24   66309   66303      24   66309   66306      25
   66315   66312      24   66318   66312      24   66318   66315      25   66324
   66321      24   66327   66321      24   66327   66324      25   66333   66330
      24   66336   66330      24   66336   66333      25   66342   66339      24
   66345   66339      24   66345   66342      25   66351   66348      24   66354
   66348      24   66354   66351      25   66360   66357      24   66363   66357
      24   66363   66360      25   66369   66366      24   66372   66366      24
   66372   66369      25   66378   66375      24   66381   66375      24   66381
   66378      25   66387   66384      24   66390   66384      24   66390   66387
      25   66396   66393      24   66399   66393      24   66399   66396      25
   66405   66402      24   66408   66402      24   66408   66405      25   66414
   66411      24   66417   66411      24   66417   66414      25   66423   66420
      24   66426   66420      24   66426   66423      25   66432   66429      24
   66435   66429      24   66435   66432      25   66441   66438      24   66444
   66438      24   66444   66441      25   66450   66447      24   66453   66447
      24   66453   66450      25   66459   66456      24   66462   66456      24
   66462   66459      25   66468   66465      24   66471   66465      24   66471
   66468      25   66477   66474      24   66480   66474      24   66480   66477
      25   66486   66483      24   66489   66483      24   66489   66486      25
   66495   66492      24   66498   66492      24   66498   66495      25   66504
   66501      24   66507   66501      24   66507   66504      25   66513   66510
      24   66516   66510      24   66516   66513      25   66522   66519      24
   66525   66519      24   66525   66522      25   66531   66528      24   66534
   66528      24   66534   66531      25   66540   66537      24   66543   66537
      24   66543   66540      25   66549   66546      24   66552   66546      24
   66552   66549      25   66558   66555      24   66561   66555      24   66561
   66558      25   66567   66564      24   66570   66564      24   66570   66567
      25   66576   66573      24   66579   66573      24   66579   66576      25
   66585   66582      24   66588   66582      24   66588   66585      25   66594
   66591      24   66597   66591      24   66597   66594      25   66603   66600
      24   66606   66600      24   66606   66603      25   66612   66609      24
   66615   66609      24   66615   66612      25   66621   66618      24   66624
   66618      24   66624   66621      25   66630   66627      24   66633   66627
      24   66633   66630      25   66639   66636      24   66642   66636      24
   66642   66639      25   66648   66645      24   66651   66645      24   66651
   66648      25   66657   66654      24   66660   66654      24   66660   66657
      25   66666   66663      24   66669   66663      24   66669   66666      25
   66675   66672      24   66678   66672      24   66678   66675      25   66684
   66681      24   66687   66681      24   66687   66684      25   66693   66690
      24   66696   66690      24   66696   66693      25   66702   66699      24
   66705   66699      24   66705   66702      25   66711   66708      24   66714
   66708      24   66714   66711      25   66720   66717      24   66723   66717
      24   66723   66720      25   66729   66726      24   66732   66726      24
   66732   66729      25   66738   66735      24   66741   66735      24   66741
   66738      25   66747   66744      24   66750   66744      24   66750   66747
      25   66756   66753      24   66759   66753      24   66759   66756      25
   66765   66762      24   66768   66762      24   66768   66765      25   66774
   66771      24   66777   66771      24   66777   66774      25   66783   66780
      24   66786   66780      24   66786   66783      25   66792   66789      24
   66795   66789      24   66795   66792      25   66801   66798      24   66804
   66798      24   66804   66801      25   66810   66807      24   66813   66807
      24   66813   66810      25   66819   66816      24   66822   66816      24
   66822   66819      25   66828   66825      24   66831   66825      24   66831
   66828      25   66837   66834      24   66840   66834      24   66840   66837
      25   66846   66843      24   66849   66843      24   66849   66846      25
   66855   66852      24   66858   66852      24   66858   66855      25   66864
   66861      24   66867   66861      24   66867   66864      25   66873   66870
      24   66876   66870      24   66876   66873      25   66882   66879      24
   66885   66879      24   66885   66882      25   66891   66888      24   66894
   66888      24   66894   66891      25   66900   66897      24   66903   66897
      24   66903   66900      25   66909   66906      24   66912   66906      24
   66912   66909      25   66918   66915      24   66921   66915      24   66921
   66918      25   66927   66924      24   66930   66924      24   66930   66927
      25   66936   66933      24   66939   66933      24   66939   66936      25
   66945   66942      24   66948   66942      24   66948   66945      25   66954
   66951      24   66957   66951      24   66957   66954      25   66963   66960
      24   66966   66960      24   66966   66963      25   66972   66969      24
   66975   66969      24   66975   66972      25   66981   66978      24   66984
   66978      24   66984   66981      25   66990   66987      24   66993   66987
      24   66993   66990      25   66999   66996      24   67002   66996      24
   67002   66999      25   67008   67005      24   67011   67005      24   67011
   67008      25   67017   67014      24   67020   67014      24   67020   67017
      25   67026   67023      24   67029   67023      24   67029   67026      25
   67035   67032      24   67038   67032      24   67038   67035      25   67044
   67041      24   67047   67041      24   67047   67044      25   67053   67050
      24   67056   67050      24   67056   67053      25   67062   67059      24
   67065   67059      24   67065   67062      25   67071   67068      24   67074
   67068      24   67074   67071      25   67080   67077      24   67083   67077
      24   67083   67080      25   67089   67086      24   67092   67086      24
   67092   67089      25   67098   67095      24   67101   67095      24   67101
   67098      25   67107   67104      24   67110   67104      24   67110   67107
      25   67116   67113      24   67119   67113      24   67119   67116      25
   67125   67122      24   67128   67122      24   67128   67125      25   67134
   67131      24   67137   67131      24   67137   67134      25   67143   67140
      24   67146   67140      24   67146   67143      25   67152   67149      24
   67155   67149      24   67155   67152      25   67161   67158      24   67164
   67158      24   67164   67161      25   67170   67167      24   67173   67167
      24   67173   67170      25   67179   67176      24   67182   67176      24
   67182   67179      25   67188   67185      24   67191   67185      24   67191
   67188      25   67197   67194      24   67200   67194      24   67200   67197
      25   67206   67203      24   67209   67203      24   67209   67206      25
   67215   67212      24   67218   67212      24   67218   67215      25   67224
   67221      24   67227   67221      24   67227   67224      25   67233   67230
      24   67236   67230      24   67236   67233      25   67242   67239      24
   67245   67239      24   67245   67242      25   67251   67248      24   67254
   67248      24   67254   67251      25   67260   67257      24   67263   67257
      24   67263   67260      25   67269   67266      24   67272   67266      24
   67272   67269      25   67278   67275      24   67281   67275      24   67281
   67278      25   67287   67284      24   67290   67284      24   67290   67287
      25   67296   67293      24   67299   67293      24   67299   67296      25
   67305   67302      24   67308   67302      24   67308   67305      25   67314
   67311      24   67317   67311      24   67317   67314      25   67323   67320
      24   67326   67320      24   67326   67323      25   67332   67329      24
   67335   67329      24   67335   67332      25   67341   67338      24   67344
   67338      24   67344   67341      25   67350   67347      24   67353   67347
      24   67353   67350      25   67359   67356      24   67362   67356      24
   67362   67359      25   67368   67365      24   67371   67365      24   67371
   67368      25   67377   67374      24   67380   67374      24   67380   67377
      25   67386   67383      24   67389   67383      24   67389   67386      25
   67395   67392      24   67398   67392      24   67398   67395      25   67404
   67401      24   67407   67401      24   67407   67404      25   67413   67410
      24   67416   67410      24   67416   67413      25   67422   67419      24
   67425   67419      24   67425   67422      25   67431   67428      24   67434
   67428      24   67434   67431      25   67440   67437      24   67443   67437
      24   67443   67440      25   67449   67446      24   67452   67446      24
   67452   67449      25   67458   67455      24   67461   67455      24   67461
   67458      25   67467   67464      24   67470   67464      24   67470   67467
      25   67476   67473      24   67479   67473      24   67479   67476      25
   67485   67482      24   67488   67482      24   67488   67485      25   67494
   67491      24   67497   67491      24   67497   67494      25   67503   67500
      24   67506   67500      24   67506   67503      25   67512   67509      24
   67515   67509      24   67515   67512      25   67521   67518      24   67524
   67518      24   67524   67521      25   67530   67527      24   67533   67527
      24   67533   67530      25   67539   67536      24   67542   67536      24
   67542   67539      25   67548   67545      24   67551   67545      24   67551
   67548      25   67557   67554      24   67560   67554      24   67560   67557
      25   67566   67563      24   67569   67563      24   67569   67566      25
   67575   67572      24   67578   67572      24   67578   67575      25   67584
   67581      24   67587   67581      24   67587   67584      25   67593   67590
      24   67596   67590      24   67596   67593      25   67602   67599      24
   67605   67599      24   67605   67602      25   67611   67608      24   67614
   67608      24   67614   67611      25   67620   67617      24   67623   67617
      24   67623   67620      25   67629   67626      24   67632   67626      24
   67632   67629      25   67638   67635      24   67641   67635      24   67641
   67638      25   67647   67644      24   67650   67644      24   67650   67647
      25   67656   67653      24   67659   67653      24   67659   67656      25
   67665   67662      24   67668   67662      24   67668   67665      25   67674
   67671      24   67677   67671      24   67677   67674      25   67683   67680
      24   67686   67680      24   67686   67683      25   67692   67689      24
   67695   67689      24   67695   67692      25   67701   67698      24   67704
   67698      24   67704   67701      25   67710   67707      24   67713   67707
      24   67713   67710      25   67719   67716      24   67722   67716      24
   67722   67719      25   67728   67725      24   67731   67725      24   67731
   67728      25   67737   67734      24   67740   67734      24   67740   67737
      25   67746   67743      24   67749   67743      24   67749   67746      25
   67755   67752      24   67758   67752      24   67758   67755      25   67764
   67761      24   67767   67761      24   67767   67764      25   67773   67770
      24   67776   67770      24   67776   67773      25   67782   67779      24
   67785   67779      24   67785   67782      25   67791   67788      24   67794
   67788      24   67794   67791      25   67800   67797      24   67803   67797
      24   67803   67800      25   67809   67806      24   67812   67806      24
   67812   67809      25   67818   67815      24   67821   67815      24   67821
   67818      25   67827   67824      24   67830   67824      24   67830   67827
      25   67836   67833      24   67839   67833      24   67839   67836      25
   67845   67842      24   67848   67842      24   67848   67845      25   67854
   67851      24   67857   67851      24   67857   67854      25   67863   67860
      24   67866   67860      24   67866   67863      25   67872   67869      24
   67875   67869      24   67875   67872      25   67881   67878      24   67884
   67878      24   67884   67881      25   67890   67887      24   67893   67887
      24   67893   67890      25   67899   67896      24   67902   67896      24
   67902   67899      25   67908   67905      24   67911   67905      24   67911
   67908      25   67917   67914      24   67920   67914      24   67920   67917
      25   67926   67923      24   67929   67923      24   67929   67926      25
   67935   67932      24   67938   67932      24   67938   67935      25   67944
   67941      24   67947   67941      24   67947   67944      25   67953   67950
      24   67956   67950      24   67956   67953      25   67962   67959      24
   67965   67959      24   67965   67962      25   67971   67968      24   67974
   67968      24   67974   67971      25   67980   67977      24   67983   67977
      24   67983   67980      25   67989   67986      24   67992   67986      24
   67992   67989      25   67998   67995      24   68001   67995      24   68001
   67998      25   68007   68004      24   68010   68004      24   68010   68007
      25   68016   68013      24   68019   68013      24   68019   68016      25
   68025   68022      24   68028   68022      24   68028   68025      25   68034
   68031      24   68037   68031      24   68037   68034      25   68043   68040
      24   68046   68040      24   68046   68043      25   68052   68049      24
   68055   68049      24   68055   68052      25   68061   68058      24   68064
   68058      24   68064   68061      25   68070   68067      24   68073   68067
      24   68073   68070      25   68079   68076      24   68082   68076      24
   68082   68079      25   68088   68085      24   68091   68085      24   68091
   68088      25   68097   68094      24   68100   68094      24   68100   68097
      25   68106   68103      24   68109   68103      24   68109   68106      25
   68115   68112      24   68118   68112      24   68118   68115      25   68124
   68121      24   68127   68121      24   68127   68124      25   68133   68130
      24   68136   68130      24   68136   68133      25   68142   68139      24
   68145   68139      24   68145   68142      25   68151   68148      24   68154
   68148      24   68154   68151      25   68160   68157      24   68163   68157
      24   68163   68160      25   68169   68166      24   68172   68166      24
   68172   68169      25   68178   68175      24   68181   68175      24   68181
   68178      25   68187   68184      24   68190   68184      24   68190   68187
      25   68196   68193      24   68199   68193      24   68199   68196      25
   68205   68202      24   68208   68202      24   68208   68205      25   68214
   68211      24   68217   68211      24   68217   68214      25   68223   68220
      24   68226   68220      24   68226   68223      25   68232   68229      24
   68235   68229      24   68235   68232      25   68241   68238      24   68244
   68238      24   68244   68241      25   68250   68247      24   68253   68247
      24   68253   68250      25   68259   68256      24   68262   68256      24
   68262   68259      25   68268   68265      24   68271   68265      24   68271
   68268      25   68277   68274      24   68280   68274      24   68280   68277
      25   68286   68283      24   68289   68283      24   68289   68286      25
   68295   68292      24   68298   68292      24   68298   68295      25   68304
   68301      24   68307   68301      24   68307   68304      25   68313   68310
      24   68316   68310      24   68316   68313      25   68322   68319      24
   68325   68319      24   68325   68322      25   68331   68328      24   68334
   68328      24   68334   68331      25   68340   68337      24   68343   68337
      24   68343   68340      25   68349   68346      24   68352   68346      24
   68352   68349      25   68358   68355      24   68361   68355      24   68361
   68358      25   68367   68364      24   68370   68364      24   68370   68367
      25   68376   68373      24   68379   68373      24   68379   68376      25
   68385   68382      24   68388   68382      24   68388   68385      25   68394
   68391      24   68397   68391      24   68397   68394      25   68403   68400
      24   68406   68400      24   68406   68403      25   68412   68409      24
   68415   68409      24   68415   68412      25   68421   68418      24   68424
   68418      24   68424   68421      25   68430   68427      24   68433   68427
      24   68433   68430      25   68439   68436      24   68442   68436      24
   68442   68439      25   68448   68445      24   68451   68445      24   68451
   68448      25   68457   68454      24   68460   68454      24   68460   68457
      25   68466   68463      24   68469   68463      24   68469   68466      25
   68475   68472      24   68478   68472      24   68478   68475      25   68484
   68481      24   68487   68481      24   68487   68484      25   68493   68490
      24   68496   68490      24   68496   68493      25   68502   68499      24
   68505   68499      24   68505   68502      25   68511   68508      24   68514
   68508      24   68514   68511      25   68520   68517      24   68523   68517
      24   68523   68520      25   68529   68526      24   68532   68526      24
   68532   68529      25   68538   68535      24   68541   68535      24   68541
   68538      25   68547   68544      24   68550   68544      24   68550   68547
      25   68556   68553      24   68559   68553      24   68559   68556      25
   68565   68562      24   68568   68562      24   68568   68565      25   68574
   68571      24   68577   68571      24   68577   68574      25   68583   68580
      24   68586   68580      24   68586   68583      25   68592   68589      24
   68595   68589      24   68595   68592      25   68601   68598      24   68604
   68598      24   68604   68601      25   68610   68607      24   68613   68607
      24   68613   68610      25   68619   68616      24   68622   68616      24
   68622   68619      25   68628   68625      24   68631   68625      24   68631
   68628      25   68637   68634      24   68640   68634      24   68640   68637
      25   68646   68643      24   68649   68643      24   68649   68646      25
   68655   68652      24   68658   68652      24   68658   68655      25   68664
   68661      24   68667   68661      24   68667   68664      25   68673   68670
      24   68676   68670      24   68676   68673      25   68682   68679      24
   68685   68679      24   68685   68682      25   68691   68688      24   68694
   68688      24   68694   68691      25   68700   68697      24   68703   68697
      24   68703   68700      25   68709   68706      24   68712   68706      24
   68712   68709      25   68718   68715      24   68721   68715      24   68721
   68718      25   68727   68724      24   68730   68724      24   68730   68727
      25   68736   68733      24   68739   68733      24   68739   68736      25
   68745   68742      24   68748   68742      24   68748   68745      25   68754
   68751      24   68757   68751      24   68757   68754      25   68763   68760
      24   68766   68760      24   68766   68763      25   68772   68769      24
   68775   68769      24   68775   68772      25   68781   68778      24   68784
   68778      24   68784   68781      25   68790   68787      24   68793   68787
      24   68793   68790      25   68799   68796      24   68802   68796      24
   68802   68799      25   68808   68805      24   68811   68805      24   68811
   68808      25   68817   68814      24   68820   68814      24   68820   68817
      25   68826   68823      24   68829   68823      24   68829   68826      25
   68835   68832      24   68838   68832      24   68838   68835      25   68844
   68841      24   68847   68841      24   68847   68844      25   68853   68850
      24   68856   68850      24   68856   68853      25   68862   68859      24
   68865   68859      24   68865   68862      25   68871   68868      24   68874
   68868      24   68874   68871      25   68880   68877      24   68883   68877
      24   68883   68880      25   68889   68886      24   68892   68886      24
   68892   68889      25   68898   68895      24   68901   68895      24   68901
   68898      25   68907   68904      24   68910   68904      24   68910   68907
      25   68916   68913      24   68919   68913      24   68919   68916      25
   68925   68922      24   68928   68922      24   68928   68925      25   68934
   68931      24   68937   68931      24   68937   68934      25   68943   68940
      24   68946   68940      24   68946   68943      25   68952   68949      24
   68955   68949      24   68955   68952      25   68961   68958      24   68964
   68958      24   68964   68961      25   68970   68967      24   68973   68967
      24   68973   68970      25   68979   68976      24   68982   68976      24
   68982   68979      25   68988   68985      24   68991   68985      24   68991
   68988      25   68997   68994      24   69000   68994      24   69000   68997
      25   69006   69003      24   69009   69003      24   69009   69006      25
   69015   69012      24   69018   69012      24   69018   69015      25   69024
   69021      24   69027   69021      24   69027   69024      25   69033   69030
      24   69036   69030      24   69036   69033      25   69042   69039      24
   69045   69039      24   69045   69042      25   69051   69048      24   69054
   69048      24   69054   69051      25   69060   69057      24   69063   69057
      24   69063   69060      25   69069   69066      24   69072   69066      24
   69072   69069      25   69078   69075      24   69081   69075      24   69081
   69078      25   69087   69084      24   69090   69084      24   69090   69087
      25   69096   69093      24   69099   69093      24   69099   69096      25
   69105   69102      24   69108   69102      24   69108   69105      25   69114
   69111      24   69117   69111      24   69117   69114      25   69123   69120
      24   69126   69120      24   69126   69123      25   69132   69129      24
   69135   69129      24   69135   69132      25   69141   69138      24   69144
   69138      24   69144   69141      25   69150   69147      24   69153   69147
      24   69153   69150      25   69159   69156      24   69162   69156      24
   69162   69159      25   69168   69165      24   69171   69165      24   69171
   69168      25   69177   69174      24   69180   69174      24   69180   69177
      25   69186   69183      24   69189   69183      24   69189   69186      25
   69195   69192      24   69198   69192      24   69198   69195      25   69204
   69201      24   69207   69201      24   69207   69204      25   69213   69210
      24   69216   69210      24   69216   69213      25   69222   69219      24
   69225   69219      24   69225   69222      25   69231   69228      24   69234
   69228      24   69234   69231      25   69240   69237      24   69243   69237
      24   69243   69240      25   69249   69246      24   69252   69246      24
   69252   69249      25   69258   69255      24   69261   69255      24   69261
   69258      25   69267   69264      24   69270   69264      24   69270   69267
      25   69276   69273      24   69279   69273      24   69279   69276      25
   69285   69282      24   69288   69282      24   69288   69285      25   69294
   69291      24   69297   69291      24   69297   69294      25   69303   69300
      24   69306   69300      24   69306   69303      25   69312   69309      24
   69315   69309      24   69315   69312      25   69321   69318      24   69324
   69318      24   69324   69321      25   69330   69327      24   69333   69327
      24   69333   69330      25   69339   69336      24   69342   69336      24
   69342   69339      25   69348   69345      24   69351   69345      24   69351
   69348      25   69357   69354      24   69360   69354      24   69360   69357
      25   69366   69363      24   69369   69363      24   69369   69366      25
   69375   69372      24   69378   69372      24   69378   69375      25   69384
   69381      24   69387   69381      24   69387   69384      25   69393   69390
      24   69396   69390      24   69396   69393      25   69402   69399      24
   69405   69399      24   69405   69402      25   69411   69408      24   69414
   69408      24   69414   69411      25   69420   69417      24   69423   69417
      24   69423   69420      25   69429   69426      24   69432   69426      24
   69432   69429      25   69438   69435      24   69441   69435      24   69441
   69438      25   69447   69444      24   69450   69444      24   69450   69447
      25   69456   69453      24   69459   69453      24   69459   69456      25
   69465   69462      24   69468   69462      24   69468   69465      25   69474
   69471      24   69477   69471      24   69477   69474      25   69483   69480
      24   69486   69480      24   69486   69483      25   69492   69489      24
   69495   69489      24   69495   69492      25   69501   69498      24   69504
   69498      24   69504   69501      25   69510   69507      24   69513   69507
      24   69513   69510      25   69519   69516      24   69522   69516      24
   69522   69519      25   69528   69525      24   69531   69525      24   69531
   69528      25   69537   69534      24   69540   69534      24   69540   69537
      25   69546   69543      24   69549   69543      24   69549   69546      25
   69555   69552      24   69558   69552      24   69558   69555      25   69564
   69561      24   69567   69561      24   69567   69564      25   69573   69570
      24   69576   69570      24   69576   69573      25   69582   69579      24
   69585   69579      24   69585   69582      25   69591   69588      24   69594
   69588      24   69594   69591      25   69600   69597      24   69603   69597
      24   69603   69600      25   69609   69606      24   69612   69606      24
   69612   69609      25   69618   69615      24   69621   69615      24   69621
   69618      25   69627   69624      24   69630   69624      24   69630   69627
      25   69636   69633      24   69639   69633      24   69639   69636      25
   69645   69642      24   69648   69642      24   69648   69645      25   69654
   69651      24   69657   69651      24   69657   69654      25   69663   69660
      24   69666   69660      24   69666   69663      25   69672   69669      24
   69675   69669      24   69675   69672      25   69681   69678      24   69684
   69678      24   69684   69681      25   69690   69687      24   69693   69687
      24   69693   69690      25   69699   69696      24   69702   69696      24
   69702   69699      25   69708   69705      24   69711   69705      24   69711
   69708      25   69717   69714      24   69720   69714      24   69720   69717
      25   69726   69723      24   69729   69723      24   69729   69726      25
   69735   69732      24   69738   69732      24   69738   69735      25   69744
   69741      24   69747   69741      24   69747   69744      25   69753   69750
      24   69756   69750      24   69756   69753      25   69762   69759      24
   69765   69759      24   69765   69762      25   69771   69768      24   69774
   69768      24   69774   69771      25   69780   69777      24   69783   69777
      24   69783   69780      25   69789   69786      24   69792   69786      24
   69792   69789      25   69798   69795      24   69801   69795      24   69801
   69798      25   69807   69804      24   69810   69804      24   69810   69807
      25   69816   69813      24   69819   69813      24   69819   69816      25
   69825   69822      24   69828   69822      24   69828   69825      25   69834
   69831      24   69837   69831      24   69837   69834      25   69843   69840
      24   69846   69840      24   69846   69843      25   69852   69849      24
   69855   69849      24   69855   69852      25   69861   69858      24   69864
   69858      24   69864   69861      25   69870   69867      24   69873   69867
      24   69873   69870      25   69879   69876      24   69882   69876      24
   69882   69879      25   69888   69885      24   69891   69885      24   69891
   69888      25   69897   69894      24   69900   69894      24   69900   69897
      25   69906   69903      24   69909   69903      24   69909   69906      25
   69915   69912      24   69918   69912      24   69918   69915      25   69924
   69921      24   69927   69921      24   69927   69924      25   69933   69930
      24   69936   69930      24   69936   69933      25   69942   69939      24
   69945   69939      24   69945   69942      25   69951   69948      24   69954
   69948      24   69954   69951      25   69960   69957      24   69963   69957
      24   69963   69960      25   69969   69966      24   69972   69966      24
   69972   69969      25   69978   69975      24   69981   69975      24   69981
   69978      25   69987   69984      24   69990   69984      24   69990   69987
      25   69996   69993      24   69999   69993      24   69999   69996      25
   70005   70002      24   70008   70002      24   70008   70005      25   70014
   70011      24   70017   70011      24   70017   70014      25   70023   70020
      24   70026   70020      24   70026   70023      25   70032   70029      24
   70035   70029      24   70035   70032      25   70041   70038      24   70044
   70038      24   70044   70041      25   70050   70047      24   70053   70047
      24   70053   70050      25   70059   70056      24   70062   70056      24
   70062   70059      25   70068   70065      24   70071   70065      24   70071
   70068      25   70077   70074      24   70080   70074      24   70080   70077
      25   70086   70083      24   70089   70083      24   70089   70086      25
   70095   70092      24   70098   70092      24   70098   70095      25   70104
   70101      24   70107   70101      24   70107   70104      25   70113   70110
      24   70116   70110      24   70116   70113      25   70122   70119      24
   70125   70119      24   70125   70122      25   70131   70128      24   70134
   70128      24   70134   70131      25   70140   70137      24   70143   70137
      24   70143   70140      25   70149   70146      24   70152   70146      24
   70152   70149      25   70158   70155      24   70161   70155      24   70161
   70158      25   70167   70164      24   70170   70164      24   70170   70167
      25   70176   70173      24   70179   70173      24   70179   70176      25
   70185   70182      24   70188   70182      24   70188   70185      25   70194
   70191      24   70197   70191      24   70197   70194      25   70203   70200
      24   70206   70200      24   70206   70203      25   70212   70209      24
   70215   70209      24   70215   70212      25   70221   70218      24   70224
   70218      24   70224   70221      25   70230   70227      24   70233   70227
      24   70233   70230      25   70239   70236      24   70242   70236      24
   70242   70239      25   70248   70245      24   70251   70245      24   70251
   70248      25   70257   70254      24   70260   70254      24   70260   70257
      25   70266   70263      24   70269   70263      24   70269   70266      25
   70275   70272      24   70278   70272      24   70278   70275      25   70284
   70281      24   70287   70281      24   70287   70284      25   70293   70290
      24   70296   70290      24   70296   70293      25   70302   70299      24
   70305   70299      24   70305   70302      25   70311   70308      24   70314
   70308      24   70314   70311      25   70320   70317      24   70323   70317
      24   70323   70320      25   70329   70326      24   70332   70326      24
   70332   70329      25   70338   70335      24   70341   70335      24   70341
   70338      25   70347   70344      24   70350   70344      24   70350   70347
      25   70356   70353      24   70359   70353      24   70359   70356      25
   70365   70362      24   70368   70362      24   70368   70365      25   70374
   70371      24   70377   70371      24   70377   70374      25   70383   70380
      24   70386   70380      24   70386   70383      25   70392   70389      24
   70395   70389      24   70395   70392      25   70401   70398      24   70404
   70398      24   70404   70401      25   70410   70407      24   70413   70407
      24   70413   70410      25   70419   70416      24   70422   70416      24
   70422   70419      25   70428   70425      24   70431   70425      24   70431
   70428      25   70437   70434      24   70440   70434      24   70440   70437
      25   70446   70443      24   70449   70443      24   70449   70446      25
   70455   70452      24   70458   70452      24   70458   70455      25   70464
   70461      24   70467   70461      24   70467   70464      25   70473   70470
      24   70476   70470      24   70476   70473      25   70482   70479      24
   70485   70479      24   70485   70482      25   70491   70488      24   70494
   70488      24   70494   70491      25   70500   70497      24   70503   70497
      24   70503   70500      25   70509   70506      24   70512   70506      24
   70512   70509      25   70518   70515      24   70521   70515      24   70521
   70518      25   70527   70524      24   70530   70524      24   70530   70527
      25   70536   70533      24   70539   70533      24   70539   70536      25
   70545   70542      24   70548   70542      24   70548   70545      25   70554
   70551      24   70557   70551      24   70557   70554      25   70563   70560
      24   70566   70560      24   70566   70563      25   70572   70569      24
   70575   70569      24   70575   70572      25   70581   70578      24   70584
   70578      24   70584   70581      25   70590   70587      24   70593   70587
      24   70593   70590      25   70599   70596      24   70602   70596      24
   70602   70599      25   70608   70605      24   70611   70605      24   70611
   70608      25   70617   70614      24   70620   70614      24   70620   70617
      25   70626   70623      24   70629   70623      24   70629   70626      25
   70635   70632      24   70638   70632      24   70638   70635      25   70644
   70641      24   70647   70641      24   70647   70644      25   70653   70650
      24   70656   70650      24   70656   70653      25   70662   70659      24
   70665   70659      24   70665   70662      25   70671   70668      24   70674
   70668      24   70674   70671      25   70680   70677      24   70683   70677
      24   70683   70680      25   70689   70686      24   70692   70686      24
   70692   70689      25   70698   70695      24   70701   70695      24   70701
   70698      25   70707   70704      24   70710   70704      24   70710   70707
      25   70716   70713      24   70719   70713      24   70719   70716      25
   70725   70722      24   70728   70722      24   70728   70725      25   70734
   70731      24   70737   70731      24   70737   70734      25   70743   70740
      24   70746   70740      24   70746   70743      25   70752   70749      24
   70755   70749      24   70755   70752      25   70761   70758      24   70764
   70758      24   70764   70761      25   70770   70767      24   70773   70767
      24   70773   70770      25   70779   70776      24   70782   70776      24
   70782   70779      25   70788   70785      24   70791   70785      24   70791
   70788      25   70797   70794      24   70800   70794      24   70800   70797
      25   70806   70803      24   70809   70803      24   70809   70806      25
   70815   70812      24   70818   70812      24   70818   70815      25   70824
   70821      24   70827   70821      24   70827   70824      25   70833   70830
      24   70836   70830      24   70836   70833      25   70842   70839      24
   70845   70839      24   70845   70842      25   70851   70848      24   70854
   70848      24   70854   70851      25   70860   70857      24   70863   70857
      24   70863   70860      25   70869   70866      24   70872   70866      24
   70872   70869      25   70878   70875      24   70881   70875      24   70881
   70878      25   70887   70884      24   70890   70884      24   70890   70887
      25   70896   70893      24   70899   70893      24   70899   70896      25
   70905   70902      24   70908   70902      24   70908   70905      25   70914
   70911      24   70917   70911      24   70917   70914      25   70923   70920
      24   70926   70920      24   70926   70923      25   70932   70929      24
   70935   70929      24   70935   70932      25   70941   70938      24   70944
   70938      24   70944   70941      25   70950   70947      24   70953   70947
      24   70953   70950      25   70959   70956      24   70962   70956      24
   70962   70959      25   70968   70965      24   70971   70965      24   70971
   70968      25   70977   70974      24   70980   70974      24   70980   70977
      25   70986   70983      24   70989   70983      24   70989   70986      25
   70995   70992      24   70998   70992      24   70998   70995      25   71004
   71001      24   71007   71001      24   71007   71004      25   71013   71010
      24   71016   71010      24   71016   71013      25   71022   71019      24
   71025   71019      24   71025   71022      25   71031   71028      24   71034
   71028      24   71034   71031      25   71040   71037      24   71043   71037
      24   71043   71040      25   71049   71046      24   71052   71046      24
   71052   71049      25   71058   71055      24   71061   71055      24   71061
   71058      25   71067   71064      24   71070   71064      24   71070   71067
      25   71076   71073      24   71079   71073      24   71079   71076      25
   71085   71082      24   71088   71082      24   71088   71085      25   71094
   71091      24   71097   71091      24   71097   71094      25   71103   71100
      24   71106   71100      24   71106   71103      25   71112   71109      24
   71115   71109      24   71115   71112      25   71121   71118      24   71124
   71118      24   71124   71121      25   71130   71127      24   71133   71127
      24   71133   71130      25   71139   71136      24   71142   71136      24
   71142   71139      25   71148   71145      24   71151   71145      24   71151
   71148      25   71157   71154      24   71160   71154      24   71160   71157
      25   71166   71163      24   71169   71163      24   71169   71166      25
   71175   71172      24   71178   71172      24   71178   71175      25   71184
   71181      24   71187   71181      24   71187   71184      25   71193   71190
      24   71196   71190      24   71196   71193      25   71202   71199      24
   71205   71199      24   71205   71202      25   71211   71208      24   71214
   71208      24   71214   71211      25   71220   71217      24   71223   71217
      24   71223   71220      25   71229   71226      24   71232   71226      24
   71232   71229      25   71238   71235      24   71241   71235      24   71241
   71238      25   71247   71244      24   71250   71244      24   71250   71247
      25   71256   71253      24   71259   71253      24   71259   71256      25
   71265   71262      24   71268   71262      24   71268   71265      25   71274
   71271      24   71277   71271      24   71277   71274      25   71283   71280
      24   71286   71280      24   71286   71283      25   71292   71289      24
   71295   71289      24   71295   71292      25   71301   71298      24   71304
   71298      24   71304   71301      25   71310   71307      24   71313   71307
      24   71313   71310      25   71319   71316      24   71322   71316      24
   71322   71319      25   71328   71325      24   71331   71325      24   71331
   71328      25   71337   71334      24   71340   71334      24   71340   71337
      25   71346   71343      24   71349   71343      24   71349   71346      25
   71355   71352      24   71358   71352      24   71358   71355      25   71364
   71361      24   71367   71361      24   71367   71364      25   71373   71370
      24   71376   71370      24   71376   71373      25   71382   71379      24
   71385   71379      24   71385   71382      25   71391   71388      24   71394
   71388      24   71394   71391      25   71400   71397      24   71403   71397
      24   71403   71400      25   71409   71406      24   71412   71406      24
   71412   71409      25   71418   71415      24   71421   71415      24   71421
   71418      25   71427   71424      24   71430   71424      24   71430   71427
      25   71436   71433      24   71439   71433      24   71439   71436      25
   71445   71442      24   71448   71442      24   71448   71445      25   71454
   71451      24   71457   71451      24   71457   71454      25   71463   71460
      24   71466   71460      24   71466   71463      25   71472   71469      24
   71475   71469      24   71475   71472      25   71481   71478      24   71484
   71478      24   71484   71481      25   71490   71487      24   71493   71487
      24   71493   71490      25   71499   71496      24   71502   71496      24
   71502   71499      25   71508   71505      24   71511   71505      24   71511
   71508      25   71517   71514      24   71520   71514      24   71520   71517
      25   71526   71523      24   71529   71523      24   71529   71526      25
   71535   71532      24   71538   71532      24   71538   71535      25   71544
   71541      24   71547   71541      24   71547   71544      25   71553   71550
      24   71556   71550      24   71556   71553      25   71562   71559      24
   71565   71559      24   71565   71562      25   71571   71568      24   71574
   71568      24   71574   71571      25   71580   71577      24   71583   71577
      24   71583   71580      25   71589   71586      24   71592   71586      24
   71592   71589      25   71598   71595      24   71601   71595      24   71601
   71598      25   71607   71604      24   71610   71604      24   71610   71607
      25   71616   71613      24   71619   71613      24   71619   71616      25
   71625   71622      24   71628   71622      24   71628   71625      25   71634
   71631      24   71637   71631      24   71637   71634      25   71643   71640
      24   71646   71640      24   71646   71643      25   71652   71649      24
   71655   71649      24   71655   71652      25   71661   71658      24   71664
   71658      24   71664   71661      25   71670   71667      24   71673   71667
      24   71673   71670      25   71679   71676      24   71682   71676      24
   71682   71679      25   71688   71685      24   71691   71685      24   71691
   71688      25   71697   71694      24   71700   71694      24   71700   71697
      25   71706   71703      24   71709   71703      24   71709   71706      25
   71715   71712      24   71718   71712      24   71718   71715      25   71724
   71721      24   71727   71721      24   71727   71724      25   71733   71730
      24   71736   71730      24   71736   71733      25   71742   71739      24
   71745   71739      24   71745   71742      25   71751   71748      24   71754
   71748      24   71754   71751      25   71760   71757      24   71763   71757
      24   71763   71760      25   71769   71766      24   71772   71766      24
   71772   71769      25   71778   71775      24   71781   71775      24   71781
   71778      25   71787   71784      24   71790   71784      24   71790   71787
      25   71796   71793      24   71799   71793      24   71799   71796      25
   71805   71802      24   71808   71802      24   71808   71805      25   71814
   71811      24   71817   71811      24   71817   71814      25   71823   71820
      24   71826   71820      24   71826   71823      25   71832   71829      24
   71835   71829      24   71835   71832      25   71841   71838      24   71844
   71838      24   71844   71841      25   71850   71847      24   71853   71847
      24   71853   71850      25   71859   71856      24   71862   71856      24
   71862   71859      25   71868   71865      24   71871   71865      24   71871
   71868      25   71877   71874      24   71880   71874      24   71880   71877
      25   71886   71883      24   71889   71883      24   71889   71886      25
   71895   71892      24   71898   71892      24   71898   71895      25   71904
   71901      24   71907   71901      24   71907   71904      25   71913   71910
      24   71916   71910      24   71916   71913      25   71922   71919      24
   71925   71919      24   71925   71922      25   71931   71928      24   71934
   71928      24   71934   71931      25   71940   71937      24   71943   71937
      24   71943   71940      25   71949   71946      24   71952   71946      24
   71952   71949      25   71958   71955      24   71961   71955      24   71961
   71958      25   71967   71964      24   71970   71964      24   71970   71967
      25   71976   71973      24   71979   71973      24   71979   71976      25
   71985   71982      24   71988   71982      24   71988   71985      25   71994
   71991      24   71997   71991      24   71997   71994      25   72003   72000
      24   72006   72000      24   72006   72003      25   72012   72009      24
   72015   72009      24   72015   72012      25   72021   72018      24   72024
   72018      24   72024   72021      25   72030   72027      24   72033   72027
      24   72033   72030      25   72039   72036      24   72042   72036      24
   72042   72039      25   72048   72045      24   72051   72045      24   72051
   72048      25   72057   72054      24   72060   72054      24   72060   72057
      25   72066   72063      24   72069   72063      24   72069   72066      25
   72075   72072      24   72078   72072      24   72078   72075      25   72084
   72081      24   72087   72081      24   72087   72084      25   72093   72090
      24   72096   72090      24   72096   72093      25   72102   72099      24
   72105   72099      24   72105   72102      25   72111   72108      24   72114
   72108      24   72114   72111      25   72120   72117      24   72123   72117
      24   72123   72120      25   72129   72126      24   72132   72126      24
   72132   72129      25   72138   72135      24   72141   72135      24   72141
   72138      25   72147   72144      24   72150   72144      24   72150   72147
      25   72156   72153      24   72159   72153      24   72159   72156      25
   72165   72162      24   72168   72162      24   72168   72165      25   72174
   72171      24   72177   72171      24   72177   72174      25   72183   72180
      24   72186   72180      24   72186   72183      25   72192   72189      24
   72195   72189      24   72195   72192      25   72201   72198      24   72204
   72198      24   72204   72201      25   72210   72207      24   72213   72207
      24   72213   72210      25   72219   72216      24   72222   72216      24
   72222   72219      25   72228   72225      24   72231   72225      24   72231
   72228      25   72237   72234      24   72240   72234      24   72240   72237
      25   72246   72243      24   72249   72243      24   72249   72246      25
   72255   72252      24   72258   72252      24   72258   72255      25   72264
   72261      24   72267   72261      24   72267   72264      25   72273   72270
      24   72276   72270      24   72276   72273      25   72282   72279      24
   72285   72279      24   72285   72282      25   72291   72288      24   72294
   72288      24   72294   72291      25   72300   72297      24   72303   72297
      24   72303   72300      25   72309   72306      24   72312   72306      24
   72312   72309      25   72318   72315      24   72321   72315      24   72321
   72318      25   72327   72324      24   72330   72324      24   72330   72327
      25   72336   72333      24   72339   72333      24   72339   72336      25
   72345   72342      24   72348   72342      24   72348   72345      25   72354
   72351      24   72357   72351      24   72357   72354      25   72363   72360
      24   72366   72360      24   72366   72363      25   72372   72369      24
   72375   72369      24   72375   72372      25   72381   72378      24   72384
   72378      24   72384   72381      25   72390   72387      24   72393   72387
      24   72393   72390      25   72399   72396      24   72402   72396      24
   72402   72399      25   72408   72405      24   72411   72405      24   72411
   72408      25   72417   72414      24   72420   72414      24   72420   72417
      25   72426   72423      24   72429   72423      24   72429   72426      25
   72435   72432      24   72438   72432      24   72438   72435      25   72444
   72441      24   72447   72441      24   72447   72444      25   72453   72450
      24   72456   72450      24   72456   72453      25   72462   72459      24
   72465   72459      24   72465   72462      25   72471   72468      24   72474
   72468      24   72474   72471      25   72480   72477      24   72483   72477
      24   72483   72480      25   72489   72486      24   72492   72486      24
   72492   72489      25   72498   72495      24   72501   72495      24   72501
   72498      25   72507   72504      24   72510   72504      24   72510   72507
      25   72516   72513      24   72519   72513      24   72519   72516      25
   72525   72522      24   72528   72522      24   72528   72525      25   72534
   72531      24   72537   72531      24   72537   72534      25   72543   72540
      24   72546   72540      24   72546   72543      25   72552   72549      24
   72555   72549      24   72555   72552      25   72561   72558      24   72564
   72558      24   72564   72561      25   72570   72567      24   72573   72567
      24   72573   72570      25   72579   72576      24   72582   72576      24
   72582   72579      25   72588   72585      24   72591   72585      24   72591
   72588      25   72597   72594      24   72600   72594      24   72600   72597
      25   72606   72603      24   72609   72603      24   72609   72606      25
   72615   72612      24   72618   72612      24   72618   72615      25   72624
   72621      24   72627   72621      24   72627   72624      25   72633   72630
      24   72636   72630      24   72636   72633      25   72642   72639      24
   72645   72639      24   72645   72642      25   72651   72648      24   72654
   72648      24   72654   72651      25   72660   72657      24   72663   72657
      24   72663   72660      25   72669   72666      24   72672   72666      24
   72672   72669      25   72678   72675      24   72681   72675      24   72681
   72678      25   72687   72684      24   72690   72684      24   72690   72687
      25   72696   72693      24   72699   72693      24   72699   72696      25
   72705   72702      24   72708   72702      24   72708   72705      25   72714
   72711      24   72717   72711      24   72717   72714      25   72723   72720
      24   72726   72720      24   72726   72723      25   72732   72729      24
   72735   72729      24   72735   72732      25   72741   72738      24   72744
   72738      24   72744   72741      25   72750   72747      24   72753   72747
      24   72753   72750      25   72759   72756      24   72762   72756      24
   72762   72759      25   72768   72765      24   72771   72765      24   72771
   72768      25   72777   72774      24   72780   72774      24   72780   72777
      25   72786   72783      24   72789   72783      24   72789   72786      25
   72795   72792      24   72798   72792      24   72798   72795      25   72804
   72801      24   72807   72801      24   72807   72804      25   72813   72810
      24   72816   72810      24   72816   72813      25   72822   72819      24
   72825   72819      24   72825   72822      25   72831   72828      24   72834
   72828      24   72834   72831      25   72840   72837      24   72843   72837
      24   72843   72840      25   72849   72846      24   72852   72846      24
   72852   72849      25   72858   72855      24   72861   72855      24   72861
   72858      25   72867   72864      24   72870   72864      24   72870   72867
      25   72876   72873      24   72879   72873      24   72879   72876      25
   72885   72882      24   72888   72882      24   72888   72885      25   72894
   72891      24   72897   72891      24   72897   72894      25   72903   72900
      24   72906   72900      24   72906   72903      25   72912   72909      24
   72915   72909      24   72915   72912      25   72921   72918      24   72924
   72918      24   72924   72921      25   72930   72927      24   72933   72927
      24   72933   72930      25   72939   72936      24   72942   72936      24
   72942   72939      25   72948   72945      24   72951   72945      24   72951
   72948      25   72957   72954      24   72960   72954      24   72960   72957
      25   72966   72963      24   72969   72963      24   72969   72966      25
   72975   72972      24   72978   72972      24   72978   72975      25   72984
   72981      24   72987   72981      24   72987   72984      25   72993   72990
      24   72996   72990      24   72996   72993      25   73002   72999      24
   73005   72999      24   73005   73002      25   73011   73008      24   73014
   73008      24   73014   73011      25   73020   73017      24   73023   73017
      24   73023   73020      25   73029   73026      24   73032   73026      24
   73032   73029      25   73038   73035      24   73041   73035      24   73041
   73038      25   73047   73044      24   73050   73044      24   73050   73047
      25   73056   73053      24   73059   73053      24   73059   73056      25
   73065   73062      24   73068   73062      24   73068   73065      25   73074
   73071      24   73077   73071      24   73077   73074      25   73083   73080
      24   73086   73080      24   73086   73083      25   73092   73089      24
   73095   73089      24   73095   73092      25   73101   73098      24   73104
   73098      24   73104   73101      25   73110   73107      24   73113   73107
      24   73113   73110      25   73119   73116      24   73122   73116      24
   73122   73119      25   73128   73125      24   73131   73125      24   73131
   73128      25   73137   73134      24   73140   73134      24   73140   73137
      25   73146   73143      24   73149   73143      24   73149   73146      25
   73155   73152      24   73158   73152      24   73158   73155      25   73164
   73161      24   73167   73161      24   73167   73164      25   73173   73170
      24   73176   73170      24   73176   73173      25   73182   73179      24
   73185   73179      24   73185   73182      25   73191   73188      24   73194
   73188      24   73194   73191      25   73200   73197      24   73203   73197
      24   73203   73200      25   73209   73206      24   73212   73206      24
   73212   73209      25   73218   73215      24   73221   73215      24   73221
   73218      25   73227   73224      24   73230   73224      24   73230   73227
      25   73236   73233      24   73239   73233      24   73239   73236      25
   73245   73242      24   73248   73242      24   73248   73245      25   73254
   73251      24   73257   73251      24   73257   73254      25   73263   73260
      24   73266   73260      24   73266   73263      25   73272   73269      24
   73275   73269      24   73275   73272      25   73281   73278      24   73284
   73278      24   73284   73281      25   73290   73287      24   73293   73287
      24   73293   73290      25   73299   73296      24   73302   73296      24
   73302   73299      25   73308   73305      24   73311   73305      24   73311
   73308      25   73317   73314      24   73320   73314      24   73320   73317
      25   73326   73323      24   73329   73323      24   73329   73326      25
   73335   73332      24   73338   73332      24   73338   73335      25   73344
   73341      24   73347   73341      24   73347   73344      25   73353   73350
      24   73356   73350      24   73356   73353      25   73362   73359      24
   73365   73359      24   73365   73362      25   73371   73368      24   73374
   73368      24   73374   73371      25   73380   73377      24   73383   73377
      24   73383   73380      25   73389   73386      24   73392   73386      24
   73392   73389      25   73398   73395      24   73401   73395      24   73401
   73398      25   73407   73404      24   73410   73404      24   73410   73407
      25   73416   73413      24   73419   73413      24   73419   73416      25
   73425   73422      24   73428   73422      24   73428   73425      25   73434
   73431      24   73437   73431      24   73437   73434      25   73443   73440
      24   73446   73440      24   73446   73443      25   73452   73449      24
   73455   73449      24   73455   73452      25   73461   73458      24   73464
   73458      24   73464   73461      25   73470   73467      24   73473   73467
      24   73473   73470      25   73479   73476      24   73482   73476      24
   73482   73479      25   73488   73485      24   73491   73485      24   73491
   73488      25   73497   73494      24   73500   73494      24   73500   73497
      25   73506   73503      24   73509   73503      24   73509   73506      25
   73515   73512      24   73518   73512      24   73518   73515      25   73524
   73521      24   73527   73521      24   73527   73524      25   73533   73530
      24   73536   73530      24   73536   73533      25   73542   73539      24
   73545   73539      24   73545   73542      25   73551   73548      24   73554
   73548      24   73554   73551      25   73560   73557      24   73563   73557
      24   73563   73560      25   73569   73566      24   73572   73566      24
   73572   73569      25   73578   73575      24   73581   73575      24   73581
   73578      25   73587   73584      24   73590   73584      24   73590   73587
      25   73596   73593      24   73599   73593      24   73599   73596      25
   73605   73602      24   73608   73602      24   73608   73605      25   73614
   73611      24   73617   73611      24   73617   73614      25   73623   73620
      24   73626   73620      24   73626   73623      25   73632   73629      24
   73635   73629      24   73635   73632      25   73641   73638      24   73644
   73638      24   73644   73641      25   73650   73647      24   73653   73647
      24   73653   73650      25   73659   73656      24   73662   73656      24
   73662   73659      25   73668   73665      24   73671   73665      24   73671
   73668      25   73677   73674      24   73680   73674      24   73680   73677
      25   73686   73683      24   73689   73683      24   73689   73686      25
   73695   73692      24   73698   73692      24   73698   73695      25   73704
   73701      24   73707   73701      24   73707   73704      25   73713   73710
      24   73716   73710      24   73716   73713      25   73722   73719      24
   73725   73719      24   73725   73722      25   73731   73728      24   73734
   73728      24   73734   73731      25   73740   73737      24   73743   73737
      24   73743   73740      25   73749   73746      24   73752   73746      24
   73752   73749      25   73758   73755      24   73761   73755      24   73761
   73758      25   73767   73764      24   73770   73764      24   73770   73767
      25   73776   73773      24   73779   73773      24   73779   73776      25
   73785   73782      24   73788   73782      24   73788   73785      25   73794
   73791      24   73797   73791      24   73797   73794      25   73803   73800
      24   73806   73800      24   73806   73803      25   73812   73809      24
   73815   73809      24   73815   73812      25   73821   73818      24   73824
   73818      24   73824   73821      25   73830   73827      24   73833   73827
      24   73833   73830      25   73839   73836      24   73842   73836      24
   73842   73839      25   73848   73845      24   73851   73845      24   73851
   73848      25   73857   73854      24   73860   73854      24   73860   73857
      25   73866   73863      24   73869   73863      24   73869   73866      25
   73875   73872      24   73878   73872      24   73878   73875      25   73884
   73881      24   73887   73881      24   73887   73884      25   73893   73890
      24   73896   73890      24   73896   73893      25   73902   73899      24
   73905   73899      24   73905   73902      25   73911   73908      24   73914
   73908      24   73914   73911      25   73920   73917      24   73923   73917
      24   73923   73920      25   73929   73926      24   73932   73926      24
   73932   73929      25   73938   73935      24   73941   73935      24   73941
   73938      25   73947   73944      24   73950   73944      24   73950   73947
      25   73956   73953      24   73959   73953      24   73959   73956      25
   73965   73962      24   73968   73962      24   73968   73965      25   73974
   73971      24   73977   73971      24   73977   73974      25   73983   73980
      24   73986   73980      24   73986   73983      25   73992   73989      24
   73995   73989      24   73995   73992      25   74001   73998      24   74004
   73998      24   74004   74001      25   74010   74007      24   74013   74007
      24   74013   74010      25   74019   74016      24   74022   74016      24
   74022   74019      25   74028   74025      24   74031   74025      24   74031
   74028      25   74037   74034      24   74040   74034      24   74040   74037
      25   74046   74043      24   74049   74043      24   74049   74046      25
   74055   74052      24   74058   74052      24   74058   74055      25   74064
   74061      24   74067   74061      24   74067   74064      25   74073   74070
      24   74076   74070      24   74076   74073      25   74082   74079      24
   74085   74079      24   74085   74082      25   74091   74088      24   74094
   74088      24   74094   74091      25   74100   74097      24   74103   74097
      24   74103   74100      25   74109   74106      24   74112   74106      24
   74112   74109      25   74118   74115      24   74121   74115      24   74121
   74118      25   74127   74124      24   74130   74124      24   74130   74127
      25   74136   74133      24   74139   74133      24   74139   74136      25
   74145   74142      24   74148   74142      24   74148   74145      25   74154
   74151      24   74157   74151      24   74157   74154      25   74163   74160
      24   74166   74160      24   74166   74163      25   74172   74169      24
   74175   74169      24   74175   74172      25   74181   74178      24   74184
   74178      24   74184   74181      25   74190   74187      24   74193   74187
      24   74193   74190      25   74199   74196      24   74202   74196      24
   74202   74199      25   74208   74205      24   74211   74205      24   74211
   74208      25   74217   74214      24   74220   74214      24   74220   74217
      25   74226   74223      24   74229   74223      24   74229   74226      25
   74235   74232      24   74238   74232      24   74238   74235      25   74244
   74241      24   74247   74241      24   74247   74244      25   74253   74250
      24   74256   74250      24   74256   74253      25   74262   74259      24
   74265   74259      24   74265   74262      25   74271   74268      24   74274
   74268      24   74274   74271      25   74280   74277      24   74283   74277
      24   74283   74280      25   74289   74286      24   74292   74286      24
   74292   74289      25   74298   74295      24   74301   74295      24   74301
   74298      25   74307   74304      24   74310   74304      24   74310   74307
      25   74316   74313      24   74319   74313      24   74319   74316      25
   74325   74322      24   74328   74322      24   74328   74325      25   74334
   74331      24   74337   74331      24   74337   74334      25   74343   74340
      24   74346   74340      24   74346   74343      25   74352   74349      24
   74355   74349      24   74355   74352      25   74361   74358      24   74364
   74358      24   74364   74361      25   74370   74367      24   74373   74367
      24   74373   74370      25   74379   74376      24   74382   74376      24
   74382   74379      25   74388   74385      24   74391   74385      24   74391
   74388      25   74397   74394      24   74400   74394      24   74400   74397
      25   74406   74403      24   74409   74403      24   74409   74406      25
   74415   74412      24   74418   74412      24   74418   74415      25   74424
   74421      24   74427   74421      24   74427   74424      25   74433   74430
      24   74436   74430      24   74436   74433      25   74442   74439      24
   74445   74439      24   74445   74442      25   74451   74448      24   74454
   74448      24   74454   74451      25   74460   74457      24   74463   74457
      24   74463   74460      25   74469   74466      24   74472   74466      24
   74472   74469      25   74478   74475      24   74481   74475      24   74481
   74478      25   74487   74484      24   74490   74484      24   74490   74487
      25   74496   74493      24   74499   74493      24   74499   74496      25
   74505   74502      24   74508   74502      24   74508   74505      25   74514
   74511      24   74517   74511      24   74517   74514      25   74523   74520
      24   74526   74520      24   74526   74523      25   74532   74529      24
   74535   74529      24   74535   74532      25   74541   74538      24   74544
   74538      24   74544   74541      25   74550   74547      24   74553   74547
      24   74553   74550      25   74559   74556      24   74562   74556      24
   74562   74559      25   74568   74565      24   74571   74565      24   74571
   74568      25   74577   74574      24   74580   74574      24   74580   74577
      25   74586   74583      24   74589   74583      24   74589   74586      25
   74595   74592      24   74598   74592      24   74598   74595      25   74604
   74601      24   74607   74601      24   74607   74604      25   74613   74610
      24   74616   74610      24   74616   74613      25   74622   74619      24
   74625   74619      24   74625   74622      25   74631   74628      24   74634
   74628      24   74634   74631      25   74640   74637      24   74643   74637
      24   74643   74640      25   74649   74646      24   74652   74646      24
   74652   74649      25   74658   74655      24   74661   74655      24   74661
   74658      25   74667   74664      24   74670   74664      24   74670   74667
      25   74676   74673      24   74679   74673      24   74679   74676      25
   74685   74682      24   74688   74682      24   74688   74685      25   74694
   74691      24   74697   74691      24   74697   74694      25   74703   74700
      24   74706   74700      24   74706   74703      25   74712   74709      24
   74715   74709      24   74715   74712      25   74721   74718      24   74724
   74718      24   74724   74721      25   74730   74727      24   74733   74727
      24   74733   74730      25   74739   74736      24   74742   74736      24
   74742   74739      25   74748   74745      24   74751   74745      24   74751
   74748      25   74757   74754      24   74760   74754      24   74760   74757
      25   74766   74763      24   74769   74763      24   74769   74766      25
   74775   74772      24   74778   74772      24   74778   74775      25   74784
   74781      24   74787   74781      24   74787   74784      25   74793   74790
      24   74796   74790      24   74796   74793      25   74802   74799      24
   74805   74799      24   74805   74802      25   74811   74808      24   74814
   74808      24   74814   74811      25   74820   74817      24   74823   74817
      24   74823   74820      25   74829   74826      24   74832   74826      24
   74832   74829      25   74838   74835      24   74841   74835      24   74841
   74838      25   74847   74844      24   74850   74844      24   74850   74847
      25   74856   74853      24   74859   74853      24   74859   74856      25
   74865   74862      24   74868   74862      24   74868   74865      25   74874
   74871      24   74877   74871      24   74877   74874      25   74883   74880
      24   74886   74880      24   74886   74883      25   74892   74889      24
   74895   74889      24   74895   74892      25   74901   74898      24   74904
   74898      24   74904   74901      25   74910   74907      24   74913   74907
      24   74913   74910      25   74919   74916      24   74922   74916      24
   74922   74919      25   74928   74925      24   74931   74925      24   74931
   74928      25   74937   74934      24   74940   74934      24   74940   74937
      25   74946   74943      24   74949   74943      24   74949   74946      25
   74955   74952      24   74958   74952      24   74958   74955      25   74964
   74961      24   74967   74961      24   74967   74964      25   74973   74970
      24   74976   74970      24   74976   74973      25   74982   74979      24
   74985   74979      24   74985   74982      25   74991   74988      24   74994
   74988      24   74994   74991      25   75000   74997      24   75003   74997
      24   75003   75000      25   75009   75006      24   75012   75006      24
   75012   75009      25   75018   75015      24   75021   75015      24   75021
   75018      25   75027   75024      24   75030   75024      24   75030   75027
      25   75036   75033      24   75039   75033      24   75039   75036      25
   75045   75042      24   75048   75042      24   75048   75045      25   75054
   75051      24   75057   75051      24   75057   75054      25   75063   75060
      24   75066   75060      24   75066   75063      25   75072   75069      24
   75075   75069      24   75075   75072      25   75081   75078      24   75084
   75078      24   75084   75081      25   75090   75087      24   75093   75087
      24   75093   75090      25   75099   75096      24   75102   75096      24
   75102   75099      25   75108   75105      24   75111   75105      24   75111
   75108      25   75117   75114      24   75120   75114      24   75120   75117
      25   75126   75123      24   75129   75123      24   75129   75126      25
   75135   75132      24   75138   75132      24   75138   75135      25   75144
   75141      24   75147   75141      24   75147   75144      25   75153   75150
      24   75156   75150      24   75156   75153      25   75162   75159      24
   75165   75159      24   75165   75162      25   75171   75168      24   75174
   75168      24   75174   75171      25   75180   75177      24   75183   75177
      24   75183   75180      25   75189   75186      24   75192   75186      24
   75192   75189      25   75198   75195      24   75201   75195      24   75201
   75198      25   75207   75204      24   75210   75204      24   75210   75207
      25   75216   75213      24   75219   75213      24   75219   75216      25
   75225   75222      24   75228   75222      24   75228   75225      25   75234
   75231      24   75237   75231      24   75237   75234      25   75243   75240
      24   75246   75240      24   75246   75243      25   75252   75249      24
   75255   75249      24   75255   75252      25   75261   75258      24   75264
   75258      24   75264   75261      25   75270   75267      24   75273   75267
      24   75273   75270      25   75279   75276      24   75282   75276      24
   75282   75279      25   75288   75285      24   75291   75285      24   75291
   75288      25   75297   75294      24   75300   75294      24   75300   75297
      25   75306   75303      24   75309   75303      24   75309   75306      25
   75315   75312      24   75318   75312      24   75318   75315      25   75324
   75321      24   75327   75321      24   75327   75324      25   75333   75330
      24   75336   75330      24   75336   75333      25   75342   75339      24
   75345   75339      24   75345   75342      25   75351   75348      24   75354
   75348      24   75354   75351      25   75360   75357      24   75363   75357
      24   75363   75360      25   75369   75366      24   75372   75366      24
   75372   75369      25   75378   75375      24   75381   75375      24   75381
   75378      25   75387   75384      24   75390   75384      24   75390   75387
      25   75396   75393      24   75399   75393      24   75399   75396      25
   75405   75402      24   75408   75402      24   75408   75405      25   75414
   75411      24   75417   75411      24   75417   75414      25   75423   75420
      24   75426   75420      24   75426   75423      25   75432   75429      24
   75435   75429      24   75435   75432      25   75441   75438      24   75444
   75438      24   75444   75441      25   75450   75447      24   75453   75447
      24   75453   75450      25   75459   75456      24   75462   75456      24
   75462   75459      25   75468   75465      24   75471   75465      24   75471
   75468      25   75477   75474      24   75480   75474      24   75480   75477
      25   75486   75483      24   75489   75483      24   75489   75486      25
   75495   75492      24   75498   75492      24   75498   75495      25   75504
   75501      24   75507   75501      24   75507   75504      25   75513   75510
      24   75516   75510      24   75516   75513      25   75522   75519      24
   75525   75519      24   75525   75522      25   75531   75528      24   75534
   75528      24   75534   75531      25   75540   75537      24   75543   75537
      24   75543   75540      25   75549   75546      24   75552   75546      24
   75552   75549      25   75558   75555      24   75561   75555      24   75561
   75558      25   75567   75564      24   75570   75564      24   75570   75567
      25   75576   75573      24   75579   75573      24   75579   75576      25
   75585   75582      24   75588   75582      24   75588   75585      25   75594
   75591      24   75597   75591      24   75597   75594      25   75603   75600
      24   75606   75600      24   75606   75603      25   75612   75609      24
   75615   75609      24   75615   75612      25   75621   75618      24   75624
   75618      24   75624   75621      25   75630   75627      24   75633   75627
      24   75633   75630      25   75639   75636      24   75642   75636      24
   75642   75639      25   75648   75645      24   75651   75645      24   75651
   75648      25   75657   75654      24   75660   75654      24   75660   75657
      25   75666   75663      24   75669   75663      24   75669   75666      25
   75675   75672      24   75678   75672      24   75678   75675      25   75684
   75681      24   75687   75681      24   75687   75684      25   75693   75690
      24   75696   75690      24   75696   75693      25   75702   75699      24
   75705   75699      24   75705   75702      25   75711   75708      24   75714
   75708      24   75714   75711      25   75720   75717      24   75723   75717
      24   75723   75720      25   75729   75726      24   75732   75726      24
   75732   75729      25   75738   75735      24   75741   75735      24   75741
   75738      25   75747   75744      24   75750   75744      24   75750   75747
      25   75756   75753      24   75759   75753      24   75759   75756      25
   75765   75762      24   75768   75762      24   75768   75765      25   75774
   75771      24   75777   75771      24   75777   75774      25   75783   75780
      24   75786   75780      24   75786   75783      25   75792   75789      24
   75795   75789      24   75795   75792      25   75801   75798      24   75804
   75798      24   75804   75801      25   75810   75807      24   75813   75807
      24   75813   75810      25   75819   75816      24   75822   75816      24
   75822   75819      25   75828   75825      24   75831   75825      24   75831
   75828      25   75837   75834      24   75840   75834      24   75840   75837
      25   75846   75843      24   75849   75843      24   75849   75846      25
   75855   75852      24   75858   75852      24   75858   75855      25   75864
   75861      24   75867   75861      24   75867   75864      25   75873   75870
      24   75876   75870      24   75876   75873      25   75882   75879      24
   75885   75879      24   75885   75882      25   75891   75888      24   75894
   75888      24   75894   75891      25   75900   75897      24   75903   75897
      24   75903   75900      25   75909   75906      24   75912   75906      24
   75912   75909      25   75918   75915      24   75921   75915      24   75921
   75918      25   75927   75924      24   75930   75924      24   75930   75927
      25   75936   75933      24   75939   75933      24   75939   75936      25
   75945   75942      24   75948   75942      24   75948   75945      25   75954
   75951      24   75957   75951      24   75957   75954      25   75963   75960
      24   75966   75960      24   75966   75963      25   75972   75969      24
   75975   75969      24   75975   75972      25   75981   75978      24   75984
   75978      24   75984   75981      25   75990   75987      24   75993   75987
      24   75993   75990      25   75999   75996      24   76002   75996      24
   76002   75999      25   76008   76005      24   76011   76005      24   76011
   76008      25   76017   76014      24   76020   76014      24   76020   76017
      25   76026   76023      24   76029   76023      24   76029   76026      25
   76035   76032      24   76038   76032      24   76038   76035      25   76044
   76041      24   76047   76041      24   76047   76044      25   76053   76050
      24   76056   76050      24   76056   76053      25   76062   76059      24
   76065   76059      24   76065   76062      25   76071   76068      24   76074
   76068      24   76074   76071      25   76080   76077      24   76083   76077
      24   76083   76080      25   76089   76086      24   76092   76086      24
   76092   76089      25   76098   76095      24   76101   76095      24   76101
   76098      25   76107   76104      24   76110   76104      24   76110   76107
      25   76116   76113      24   76119   76113      24   76119   76116      25
   76125   76122      24   76128   76122      24   76128   76125      25   76134
   76131      24   76137   76131      24   76137   76134      25   76143   76140
      24   76146   76140      24   76146   76143      25   76152   76149      24
   76155   76149      24   76155   76152      25   76161   76158      24   76164
   76158      24   76164   76161      25   76170   76167      24   76173   76167
      24   76173   76170      25   76179   76176      24   76182   76176      24
   76182   76179      25   76188   76185      24   76191   76185      24   76191
   76188      25   76197   76194      24   76200   76194      24   76200   76197
      25   76206   76203      24   76209   76203      24   76209   76206      25
   76215   76212      24   76218   76212      24   76218   76215      25   76224
   76221      24   76227   76221      24   76227   76224      25   76233   76230
      24   76236   76230      24   76236   76233      25   76242   76239      24
   76245   76239      24   76245   76242      25   76251   76248      24   76254
   76248      24   76254   76251      25   76260   76257      24   76263   76257
      24   76263   76260      25   76269   76266      24   76272   76266      24
   76272   76269      25   76278   76275      24   76281   76275      24   76281
   76278      25   76287   76284      24   76290   76284      24   76290   76287
      25   76296   76293      24   76299   76293      24   76299   76296      25
   76305   76302      24   76308   76302      24   76308   76305      25   76314
   76311      24   76317   76311      24   76317   76314      25   76323   76320
      24   76326   76320      24   76326   76323      25   76332   76329      24
   76335   76329      24   76335   76332      25   76341   76338      24   76344
   76338      24   76344   76341      25   76350   76347      24   76353   76347
      24   76353   76350      25   76359   76356      24   76362   76356      24
   76362   76359      25   76368   76365      24   76371   76365      24   76371
   76368      25   76377   76374      24   76380   76374      24   76380   76377
      25   76386   76383      24   76389   76383      24   76389   76386      25
   76395   76392      24   76398   76392      24   76398   76395      25   76404
   76401      24   76407   76401      24   76407   76404      25   76413   76410
      24   76416   76410      24   76416   76413      25   76422   76419      24
   76425   76419      24   76425   76422      25   76431   76428      24   76434
   76428      24   76434   76431      25   76440   76437      24   76443   76437
      24   76443   76440      25   76449   76446      24   76452   76446      24
   76452   76449      25   76458   76455      24   76461   76455      24   76461
   76458      25   76467   76464      24   76470   76464      24   76470   76467
      25   76476   76473      24   76479   76473      24   76479   76476      25
   76485   76482      24   76488   76482      24   76488   76485      25   76494
   76491      24   76497   76491      24   76497   76494      25   76503   76500
      24   76506   76500      24   76506   76503      25   76512   76509      24
   76515   76509      24   76515   76512      25   76521   76518      24   76524
   76518      24   76524   76521      25   76530   76527      24   76533   76527
      24   76533   76530      25   76539   76536      24   76542   76536      24
   76542   76539      25   76548   76545      24   76551   76545      24   76551
   76548      25   76557   76554      24   76560   76554      24   76560   76557
      25   76566   76563      24   76569   76563      24   76569   76566      25
   76575   76572      24   76578   76572      24   76578   76575      25   76584
   76581      24   76587   76581      24   76587   76584      25   76593   76590
      24   76596   76590      24   76596   76593      25   76602   76599      24
   76605   76599      24   76605   76602      25   76611   76608      24   76614
   76608      24   76614   76611      25   76620   76617      24   76623   76617
      24   76623   76620      25   76629   76626      24   76632   76626      24
   76632   76629      25   76638   76635      24   76641   76635      24   76641
   76638      25   76647   76644      24   76650   76644      24   76650   76647
      25   76656   76653      24   76659   76653      24   76659   76656      25
   76665   76662      24   76668   76662      24   76668   76665      25   76674
   76671      24   76677   76671      24   76677   76674      25   76683   76680
      24   76686   76680      24   76686   76683      25   76692   76689      24
   76695   76689      24   76695   76692      25   76701   76698      24   76704
   76698      24   76704   76701      25   76710   76707      24   76713   76707
      24   76713   76710      25   76719   76716      24   76722   76716      24
   76722   76719      25   76728   76725      24   76731   76725      24   76731
   76728      25   76737   76734      24   76740   76734      24   76740   76737
      25   76746   76743      24   76749   76743      24   76749   76746      25
   76755   76752      24   76758   76752      24   76758   76755      25   76764
   76761      24   76767   76761      24   76767   76764      25   76773   76770
      24   76776   76770      24   76776   76773      25   76782   76779      24
   76785   76779      24   76785   76782      25   76791   76788      24   76794
   76788      24   76794   76791      25   76800   76797      24   76803   76797
      24   76803   76800      25   76809   76806      24   76812   76806      24
   76812   76809      25   76818   76815      24   76821   76815      24   76821
   76818      25   76827   76824      24   76830   76824      24   76830   76827
      25   76836   76833      24   76839   76833      24   76839   76836      25
   76845   76842      24   76848   76842      24   76848   76845      25   76854
   76851      24   76857   76851      24   76857   76854      25   76863   76860
      24   76866   76860      24   76866   76863      25   76872   76869      24
   76875   76869      24   76875   76872      25   76881   76878      24   76884
   76878      24   76884   76881      25   76890   76887      24   76893   76887
      24   76893   76890      25   76899   76896      24   76902   76896      24
   76902   76899      25   76908   76905      24   76911   76905      24   76911
   76908      25   76917   76914      24   76920   76914      24   76920   76917
      25   76926   76923      24   76929   76923      24   76929   76926      25
   76935   76932      24   76938   76932      24   76938   76935      25   76944
   76941      24   76947   76941      24   76947   76944      25   76953   76950
      24   76956   76950      24   76956   76953      25   76962   76959      24
   76965   76959      24   76965   76962      25   76971   76968      24   76974
   76968      24   76974   76971      25   76980   76977      24   76983   76977
      24   76983   76980      25   76989   76986      24   76992   76986      24
   76992   76989      25   76998   76995      24   77001   76995      24   77001
   76998      25   77007   77004      24   77010   77004      24   77010   77007
      25   77016   77013      24   77019   77013      24   77019   77016      25
   77025   77022      24   77028   77022      24   77028   77025      25   77034
   77031      24   77037   77031      24   77037   77034      25   77043   77040
      24   77046   77040      24   77046   77043      25   77052   77049      24
   77055   77049      24   77055   77052      25   77061   77058      24   77064
   77058      24   77064   77061      25   77070   77067      24   77073   77067
      24   77073   77070      25   77079   77076      24   77082   77076      24
   77082   77079      25   77088   77085      24   77091   77085      24   77091
   77088      25   77097   77094      24   77100   77094      24   77100   77097
      25   77106   77103      24   77109   77103      24   77109   77106      25
   77115   77112      24   77118   77112      24   77118   77115      25   77124
   77121      24   77127   77121      24   77127   77124      25   77133   77130
      24   77136   77130      24   77136   77133      25   77142   77139      24
   77145   77139      24   77145   77142      25   77151   77148      24   77154
   77148      24   77154   77151      25   77160   77157      24   77163   77157
      24   77163   77160      25   77169   77166      24   77172   77166      24
   77172   77169      25   77178   77175      24   77181   77175      24   77181
   77178      25   77187   77184      24   77190   77184      24   77190   77187
      25   77196   77193      24   77199   77193      24   77199   77196      25
   77205   77202      24   77208   77202      24   77208   77205      25   77214
   77211      24   77217   77211      24   77217   77214      25   77223   77220
      24   77226   77220      24   77226   77223      25   77232   77229      24
   77235   77229      24   77235   77232      25   77241   77238      24   77244
   77238      24   77244   77241      25   77250   77247      24   77253   77247
      24   77253   77250      25   77259   77256      24   77262   77256      24
   77262   77259      25   77268   77265      24   77271   77265      24   77271
   77268      25   77277   77274      24   77280   77274      24   77280   77277
      25   77286   77283      24   77289   77283      24   77289   77286      25
   77295   77292      24   77298   77292      24   77298   77295      25   77304
   77301      24   77307   77301      24   77307   77304      25   77313   77310
      24   77316   77310      24   77316   77313      25   77322   77319      24
   77325   77319      24   77325   77322      25   77331   77328      24   77334
   77328      24   77334   77331      25   77340   77337      24   77343   77337
      24   77343   77340      25   77349   77346      24   77352   77346      24
   77352   77349      25   77358   77355      24   77361   77355      24   77361
   77358      25   77367   77364      24   77370   77364      24   77370   77367
      25   77376   77373      24   77379   77373      24   77379   77376      25
   77385   77382      24   77388   77382      24   77388   77385      25   77394
   77391      24   77397   77391      24   77397   77394      25   77403   77400
      24   77406   77400      24   77406   77403      25   77412   77409      24
   77415   77409      24   77415   77412      25   77421   77418      24   77424
   77418      24   77424   77421      25   77430   77427      24   77433   77427
      24   77433   77430      25   77439   77436      24   77442   77436      24
   77442   77439      25   77448   77445      24   77451   77445      24   77451
   77448      25   77457   77454      24   77460   77454      24   77460   77457
      25   77466   77463      24   77469   77463      24   77469   77466      25
   77475   77472      24   77478   77472      24   77478   77475      25   77484
   77481      24   77487   77481      24   77487   77484      25   77493   77490
      24   77496   77490      24   77496   77493      25   77502   77499      24
   77505   77499      24   77505   77502      25   77511   77508      24   77514
   77508      24   77514   77511      25   77520   77517      24   77523   77517
      24   77523   77520      25   77529   77526      24   77532   77526      24
   77532   77529      25   77538   77535      24   77541   77535      24   77541
   77538      25   77547   77544      24   77550   77544      24   77550   77547
      25   77556   77553      24   77559   77553      24   77559   77556      25
   77565   77562      24   77568   77562      24   77568   77565      25   77574
   77571      24   77577   77571      24   77577   77574      25   77583   77580
      24   77586   77580      24   77586   77583      25   77592   77589      24
   77595   77589      24   77595   77592      25   77601   77598      24   77604
   77598      24   77604   77601      25   77610   77607      24   77613   77607
      24   77613   77610      25   77619   77616      24   77622   77616      24
   77622   77619      25   77628   77625      24   77631   77625      24   77631
   77628      25   77637   77634      24   77640   77634      24   77640   77637
      25   77646   77643      24   77649   77643      24   77649   77646      25
   77655   77652      24   77658   77652      24   77658   77655      25   77664
   77661      24   77667   77661      24   77667   77664      25   77673   77670
      24   77676   77670      24   77676   77673      25   77682   77679      24
   77685   77679      24   77685   77682      25   77691   77688      24   77694
   77688      24   77694   77691      25   77700   77697      24   77703   77697
      24   77703   77700      25   77709   77706      24   77712   77706      24
   77712   77709      25   77718   77715      24   77721   77715      24   77721
   77718      25   77727   77724      24   77730   77724      24   77730   77727
      25   77736   77733      24   77739   77733      24   77739   77736      25
   77745   77742      24   77748   77742      24   77748   77745      25   77754
   77751      24   77757   77751      24   77757   77754      25   77763   77760
      24   77766   77760      24   77766   77763      25   77772   77769      24
   77775   77769      24   77775   77772      25   77781   77778      24   77784
   77778      24   77784   77781      25   77790   77787      24   77793   77787
      24   77793   77790      25   77799   77796      24   77802   77796      24
   77802   77799      25   77808   77805      24   77811   77805      24   77811
   77808      25   77817   77814      24   77820   77814      24   77820   77817
      25   77826   77823      24   77829   77823      24   77829   77826      25
   77835   77832      24   77838   77832      24   77838   77835      25   77844
   77841      24   77847   77841      24   77847   77844      25   77853   77850
      24   77856   77850      24   77856   77853      25   77862   77859      24
   77865   77859      24   77865   77862      25   77871   77868      24   77874
   77868      24   77874   77871      25   77880   77877      24   77883   77877
      24   77883   77880      25   77889   77886      24   77892   77886      24
   77892   77889      25   77898   77895      24   77901   77895      24   77901
   77898      25   77907   77904      24   77910   77904      24   77910   77907
      25   77916   77913      24   77919   77913      24   77919   77916      25
   77925   77922      24   77928   77922      24   77928   77925      25   77934
   77931      24   77937   77931      24   77937   77934      25   77943   77940
      24   77946   77940      24   77946   77943      25   77952   77949      24
   77955   77949      24   77955   77952      25   77961   77958      24   77964
   77958      24   77964   77961      25   77970   77967      24   77973   77967
      24   77973   77970      25   77979   77976      24   77982   77976      24
   77982   77979      25   77988   77985      24   77991   77985      24   77991
   77988      25   77997   77994      24   78000   77994      24   78000   77997
      25   78006   78003      24   78009   78003      24   78009   78006      25
   78015   78012      24   78018   78012      24   78018   78015      25   78024
   78021      24   78027   78021      24   78027   78024      25   78033   78030
      24   78036   78030      24   78036   78033      25   78042   78039      24
   78045   78039      24   78045   78042      25   78051   78048      24   78054
   78048      24   78054   78051      25   78060   78057      24   78063   78057
      24   78063   78060      25   78069   78066      24   78072   78066      24
   78072   78069      25   78078   78075      24   78081   78075      24   78081
   78078      25   78087   78084      24   78090   78084      24   78090   78087
      25   78096   78093      24   78099   78093      24   78099   78096      25
   78105   78102      24   78108   78102      24   78108   78105      25   78114
   78111      24   78117   78111      24   78117   78114      25   78123   78120
      24   78126   78120      24   78126   78123      25   78132   78129      24
   78135   78129      24   78135   78132      25   78141   78138      24   78144
   78138      24   78144   78141      25   78150   78147      24   78153   78147
      24   78153   78150      25   78159   78156      24   78162   78156      24
   78162   78159      25   78168   78165      24   78171   78165      24   78171
   78168      25   78177   78174      24   78180   78174      24   78180   78177
      25   78186   78183      24   78189   78183      24   78189   78186      25
   78195   78192      24   78198   78192      24   78198   78195      25   78204
   78201      24   78207   78201      24   78207   78204      25   78213   78210
      24   78216   78210      24   78216   78213      25   78222   78219      24
   78225   78219      24   78225   78222      25   78231   78228      24   78234
   78228      24   78234   78231      25   78240   78237      24   78243   78237
      24   78243   78240      25   78249   78246      24   78252   78246      24
   78252   78249      25   78258   78255      24   78261   78255      24   78261
   78258      25   78267   78264      24   78270   78264      24   78270   78267
      25   78276   78273      24   78279   78273      24   78279   78276      25
   78285   78282      24   78288   78282      24   78288   78285      25   78294
   78291      24   78297   78291      24   78297   78294      25   78303   78300
      24   78306   78300      24   78306   78303      25   78312   78309      24
   78315   78309      24   78315   78312      25   78321   78318      24   78324
   78318      24   78324   78321      25   78330   78327      24   78333   78327
      24   78333   78330      25   78339   78336      24   78342   78336      24
   78342   78339      25   78348   78345      24   78351   78345      24   78351
   78348      25   78357   78354      24   78360   78354      24   78360   78357
      25   78366   78363      24   78369   78363      24   78369   78366      25
   78375   78372      24   78378   78372      24   78378   78375      25   78384
   78381      24   78387   78381      24   78387   78384      25   78393   78390
      24   78396   78390      24   78396   78393      25   78402   78399      24
   78405   78399      24   78405   78402      25   78411   78408      24   78414
   78408      24   78414   78411      25   78420   78417      24   78423   78417
      24   78423   78420      25   78429   78426      24   78432   78426      24
   78432   78429      25   78438   78435      24   78441   78435      24   78441
   78438      25   78447   78444      24   78450   78444      24   78450   78447
      25   78456   78453      24   78459   78453      24   78459   78456      25
   78465   78462      24   78468   78462      24   78468   78465      25   78474
   78471      24   78477   78471      24   78477   78474      25   78483   78480
      24   78486   78480      24   78486   78483      25   78492   78489      24
   78495   78489      24   78495   78492      25   78501   78498      24   78504
   78498      24   78504   78501      25   78510   78507      24   78513   78507
      24   78513   78510      25   78519   78516      24   78522   78516      24
   78522   78519      25   78528   78525      24   78531   78525      24   78531
   78528      25   78537   78534      24   78540   78534      24   78540   78537
      25   78546   78543      24   78549   78543      24   78549   78546      25
   78555   78552      24   78558   78552      24   78558   78555      25   78564
   78561      24   78567   78561      24   78567   78564      25   78573   78570
      24   78576   78570      24   78576   78573      25   78582   78579      24
   78585   78579      24   78585   78582      25   78591   78588      24   78594
   78588      24   78594   78591      25   78600   78597      24   78603   78597
      24   78603   78600      25   78609   78606      24   78612   78606      24
   78612   78609      25   78618   78615      24   78621   78615      24   78621
   78618      25   78627   78624      24   78630   78624      24   78630   78627
      25   78636   78633      24   78639   78633      24   78639   78636      25
   78645   78642      24   78648   78642      24   78648   78645      25   78654
   78651      24   78657   78651      24   78657   78654      25   78663   78660
      24   78666   78660      24   78666   78663      25   78672   78669      24
   78675   78669      24   78675   78672      25   78681   78678      24   78684
   78678      24   78684   78681      25   78690   78687      24   78693   78687
      24   78693   78690      25   78699   78696      24   78702   78696      24
   78702   78699      25   78708   78705      24   78711   78705      24   78711
   78708      25   78717   78714      24   78720   78714      24   78720   78717
      25   78726   78723      24   78729   78723      24   78729   78726      25
   78735   78732      24   78738   78732      24   78738   78735      25   78744
   78741      24   78747   78741      24   78747   78744      25   78753   78750
      24   78756   78750      24   78756   78753      25   78762   78759      24
   78765   78759      24   78765   78762      25   78771   78768      24   78774
   78768      24   78774   78771      25   78780   78777      24   78783   78777
      24   78783   78780      25   78789   78786      24   78792   78786      24
   78792   78789      25   78798   78795      24   78801   78795      24   78801
   78798      25   78807   78804      24   78810   78804      24   78810   78807
      25   78816   78813      24   78819   78813      24   78819   78816      25
   78825   78822      24   78828   78822      24   78828   78825      25   78834
   78831      24   78837   78831      24   78837   78834      25   78843   78840
      24   78846   78840      24   78846   78843      25   78852   78849      24
   78855   78849      24   78855   78852      25   78861   78858      24   78864
   78858      24   78864   78861      25   78870   78867      24   78873   78867
      24   78873   78870      25   78879   78876      24   78882   78876      24
   78882   78879      25   78888   78885      24   78891   78885      24   78891
   78888      25   78897   78894      24   78900   78894      24   78900   78897
      25   78906   78903      24   78909   78903      24   78909   78906      25
   78915   78912      24   78918   78912      24   78918   78915      25   78924
   78921      24   78927   78921      24   78927   78924      25   78933   78930
      24   78936   78930      24   78936   78933      25   78942   78939      24
   78945   78939      24   78945   78942      25   78951   78948      24   78954
   78948      24   78954   78951      25   78960   78957      24   78963   78957
      24   78963   78960      25   78969   78966      24   78972   78966      24
   78972   78969      25   78978   78975      24   78981   78975      24   78981
   78978      25   78987   78984      24   78990   78984      24   78990   78987
      25   78996   78993      24   78999   78993      24   78999   78996      25
   79005   79002      24   79008   79002      24   79008   79005      25   79014
   79011      24   79017   79011      24   79017   79014      25   79023   79020
      24   79026   79020      24   79026   79023      25   79032   79029      24
   79035   79029      24   79035   79032      25   79041   79038      24   79044
   79038      24   79044   79041      25   79050   79047      24   79053   79047
      24   79053   79050      25   79059   79056      24   79062   79056      24
   79062   79059      25   79068   79065      24   79071   79065      24   79071
   79068      25   79077   79074      24   79080   79074      24   79080   79077
      25   79086   79083      24   79089   79083      24   79089   79086      25
   79095   79092      24   79098   79092      24   79098   79095      25   79104
   79101      24   79107   79101      24   79107   79104      25   79113   79110
      24   79116   79110      24   79116   79113      25   79122   79119      24
   79125   79119      24   79125   79122      25   79131   79128      24   79134
   79128      24   79134   79131      25   79140   79137      24   79143   79137
      24   79143   79140      25   79149   79146      24   79152   79146      24
   79152   79149      25   79158   79155      24   79161   79155      24   79161
   79158      25   79167   79164      24   79170   79164      24   79170   79167
      25   79176   79173      24   79179   79173      24   79179   79176      25
   79185   79182      24   79188   79182      24   79188   79185      25   79194
   79191      24   79197   79191      24   79197   79194      25   79203   79200
      24   79206   79200      24   79206   79203      25   79212   79209      24
   79215   79209      24   79215   79212      25   79221   79218      24   79224
   79218      24   79224   79221      25   79230   79227      24   79233   79227
      24   79233   79230      25   79239   79236      24   79242   79236      24
   79242   79239      25   79248   79245      24   79251   79245      24   79251
   79248      25   79257   79254      24   79260   79254      24   79260   79257
      25   79266   79263      24   79269   79263      24   79269   79266      25
   79275   79272      24   79278   79272      24   79278   79275      25   79284
   79281      24   79287   79281      24   79287   79284      25   79293   79290
      24   79296   79290      24   79296   79293      25   79302   79299      24
   79305   79299      24   79305   79302      25   79311   79308      24   79314
   79308      24   79314   79311      25   79320   79317      24   79323   79317
      24   79323   79320      25   79329   79326      24   79332   79326      24
   79332   79329      25   79338   79335      24   79341   79335      24   79341
   79338      25   79347   79344      24   79350   79344      24   79350   79347
      25   79356   79353      24   79359   79353      24   79359   79356      25
   79365   79362      24   79368   79362      24   79368   79365      25   79374
   79371      24   79377   79371      24   79377   79374      25   79383   79380
      24   79386   79380      24   79386   79383      25   79392   79389      24
   79395   79389      24   79395   79392      25   79401   79398      24   79404
   79398      24   79404   79401      25   79410   79407      24   79413   79407
      24   79413   79410      25   79419   79416      24   79422   79416      24
   79422   79419      25   79428   79425      24   79431   79425      24   79431
   79428      25   79437   79434      24   79440   79434      24   79440   79437
      25   79446   79443      24   79449   79443      24   79449   79446      25
   79455   79452      24   79458   79452      24   79458   79455      25   79464
   79461      24   79467   79461      24   79467   79464      25   79473   79470
      24   79476   79470      24   79476   79473      25   79482   79479      24
   79485   79479      24   79485   79482      25   79491   79488      24   79494
   79488      24   79494   79491      25   79500   79497      24   79503   79497
      24   79503   79500      25   79509   79506      24   79512   79506      24
   79512   79509      25   79518   79515      24   79521   79515      24   79521
   79518      25   79527   79524      24   79530   79524      24   79530   79527
      25   79536   79533      24   79539   79533      24   79539   79536      25
   79545   79542      24   79548   79542      24   79548   79545      25   79554
   79551      24   79557   79551      24   79557   79554      25   79563   79560
      24   79566   79560      24   79566   79563      25   79572   79569      24
   79575   79569      24   79575   79572      25   79581   79578      24   79584
   79578      24   79584   79581      25   79590   79587      24   79593   79587
      24   79593   79590      25   79599   79596      24   79602   79596      24
   79602   79599      25   79608   79605      24   79611   79605      24   79611
   79608      25   79617   79614      24   79620   79614      24   79620   79617
      25   79626   79623      24   79629   79623      24   79629   79626      25
   79635   79632      24   79638   79632      24   79638   79635      25   79644
   79641      24   79647   79641      24   79647   79644      25   79653   79650
      24   79656   79650      24   79656   79653      25   79662   79659      24
   79665   79659      24   79665   79662      25   79671   79668      24   79674
   79668      24   79674   79671      25   79680   79677      24   79683   79677
      24   79683   79680      25   79689   79686      24   79692   79686      24
   79692   79689      25   79698   79695      24   79701   79695      24   79701
   79698      25   79707   79704      24   79710   79704      24   79710   79707
      25   79716   79713      24   79719   79713      24   79719   79716      25
   79725   79722      24   79728   79722      24   79728   79725      25   79734
   79731      24   79737   79731      24   79737   79734      25   79743   79740
      24   79746   79740      24   79746   79743      25   79752   79749      24
   79755   79749      24   79755   79752      25   79761   79758      24   79764
   79758      24   79764   79761      25   79770   79767      24   79773   79767
      24   79773   79770      25   79779   79776      24   79782   79776      24
   79782   79779      25   79788   79785      24   79791   79785      24   79791
   79788      25   79797   79794      24   79800   79794      24   79800   79797
      25   79806   79803      24   79809   79803      24   79809   79806      25
   79815   79812      24   79818   79812      24   79818   79815      25   79824
   79821      24   79827   79821      24   79827   79824      25   79833   79830
      24   79836   79830      24   79836   79833      25   79842   79839      24
   79845   79839      24   79845   79842      25   79851   79848      24   79854
   79848      24   79854   79851      25   79860   79857      24   79863   79857
      24   79863   79860      25   79869   79866      24   79872   79866      24
   79872   79869      25   79878   79875      24   79881   79875      24   79881
   79878      25   79887   79884      24   79890   79884      24   79890   79887
      25   79896   79893      24   79899   79893      24   79899   79896      25
   79905   79902      24   79908   79902      24   79908   79905      25   79914
   79911      24   79917   79911      24   79917   79914      25   79923   79920
      24   79926   79920      24   79926   79923      25   79932   79929      24
   79935   79929      24   79935   79932      25   79941   79938      24   79944
   79938      24   79944   79941      25   79950   79947      24   79953   79947
      24   79953   79950      25   79959   79956      24   79962   79956      24
   79962   79959      25   79968   79965      24   79971   79965      24   79971
   79968      25   79977   79974      24   79980   79974      24   79980   79977
      25   79986   79983      24   79989   79983      24   79989   79986      25
   79995   79992      24   79998   79992      24   79998   79995      25   80004
   80001      24   80007   80001      24   80007   80004      25   80013   80010
      24   80016   80010      24   80016   80013      25   80022   80019      24
   80025   80019      24   80025   80022      25   80031   80028      24   80034
   80028      24   80034   80031      25   80040   80037      24   80043   80037
      24   80043   80040      25   80049   80046      24   80052   80046      24
   80052   80049      25   80058   80055      24   80061   80055      24   80061
   80058      25   80067   80064      24   80070   80064      24   80070   80067
      25   80076   80073      24   80079   80073      24   80079   80076      25
   80085   80082      24   80088   80082      24   80088   80085      25   80094
   80091      24   80097   80091      24   80097   80094      25   80103   80100
      24   80106   80100      24   80106   80103      25   80112   80109      24
   80115   80109      24   80115   80112      25   80121   80118      24   80124
   80118      24   80124   80121      25   80130   80127      24   80133   80127
      24   80133   80130      25   80139   80136      24   80142   80136      24
   80142   80139      25   80148   80145      24   80151   80145      24   80151
   80148      25   80157   80154      24   80160   80154      24   80160   80157
      25   80166   80163      24   80169   80163      24   80169   80166      25
   80175   80172      24   80178   80172      24   80178   80175      25   80184
   80181      24   80187   80181      24   80187   80184      25   80193   80190
      24   80196   80190      24   80196   80193      25   80202   80199      24
   80205   80199      24   80205   80202      25   80211   80208      24   80214
   80208      24   80214   80211      25   80220   80217      24   80223   80217
      24   80223   80220      25   80229   80226      24   80232   80226      24
   80232   80229      25   80238   80235      24   80241   80235      24   80241
   80238      25   80247   80244      24   80250   80244      24   80250   80247
      25   80256   80253      24   80259   80253      24   80259   80256      25
   80265   80262      24   80268   80262      24   80268   80265      25   80274
   80271      24   80277   80271      24   80277   80274      25   80283   80280
      24   80286   80280      24   80286   80283      25   80292   80289      24
   80295   80289      24   80295   80292      25   80301   80298      24   80304
   80298      24   80304   80301      25   80310   80307      24   80313   80307
      24   80313   80310      25   80319   80316      24   80322   80316      24
   80322   80319      25   80328   80325      24   80331   80325      24   80331
   80328      25   80337   80334      24   80340   80334      24   80340   80337
      25   80346   80343      24   80349   80343      24   80349   80346      25
   80355   80352      24   80358   80352      24   80358   80355      25   80364
   80361      24   80367   80361      24   80367   80364      25   80373   80370
      24   80376   80370      24   80376   80373      25   80382   80379      24
   80385   80379      24   80385   80382      25   80391   80388      24   80394
   80388      24   80394   80391      25   80400   80397      24   80403   80397
      24   80403   80400      25   80409   80406      24   80412   80406      24
   80412   80409      25   80418   80415      24   80421   80415      24   80421
   80418      25   80427   80424      24   80430   80424      24   80430   80427
      25   80436   80433      24   80439   80433      24   80439   80436      25
   80445   80442      24   80448   80442      24   80448   80445      25   80454
   80451      24   80457   80451      24   80457   80454      25   80463   80460
      24   80466   80460      24   80466   80463      25   80472   80469      24
   80475   80469      24   80475   80472      25   80481   80478      24   80484
   80478      24   80484   80481      25   80490   80487      24   80493   80487
      24   80493   80490      25   80499   80496      24   80502   80496      24
   80502   80499      25   80508   80505      24   80511   80505      24   80511
   80508      25   80517   80514      24   80520   80514      24   80520   80517
      25   80526   80523      24   80529   80523      24   80529   80526      25
   80535   80532      24   80538   80532      24   80538   80535      25   80544
   80541      24   80547   80541      24   80547   80544      25   80553   80550
      24   80556   80550      24   80556   80553      25   80562   80559      24
   80565   80559      24   80565   80562      25   80571   80568      24   80574
   80568      24   80574   80571      25   80580   80577      24   80583   80577
      24   80583   80580      25   80589   80586      24   80592   80586      24
   80592   80589      25   80598   80595      24   80601   80595      24   80601
   80598      25   80607   80604      24   80610   80604      24   80610   80607
      25   80616   80613      24   80619   80613      24   80619   80616      25
   80625   80622      24   80628   80622      24   80628   80625      25   80634
   80631      24   80637   80631      24   80637   80634      25   80643   80640
      24   80646   80640      24   80646   80643      25   80652   80649      24
   80655   80649      24   80655   80652      25   80661   80658      24   80664
   80658      24   80664   80661      25   80670   80667      24   80673   80667
      24   80673   80670      25   80679   80676      24   80682   80676      24
   80682   80679      25   80688   80685      24   80691   80685      24   80691
   80688      25   80697   80694      24   80700   80694      24   80700   80697
      25   80706   80703      24   80709   80703      24   80709   80706      25
   80715   80712      24   80718   80712      24   80718   80715      25   80724
   80721      24   80727   80721      24   80727   80724      25   80733   80730
      24   80736   80730      24   80736   80733      25   80742   80739      24
   80745   80739      24   80745   80742      25   80751   80748      24   80754
   80748      24   80754   80751      25   80760   80757      24   80763   80757
      24   80763   80760      25   80769   80766      24   80772   80766      24
   80772   80769      25   80778   80775      24   80781   80775      24   80781
   80778      25   80787   80784      24   80790   80784      24   80790   80787
      25   80796   80793      24   80799   80793      24   80799   80796      25
   80805   80802      24   80808   80802      24   80808   80805      25   80814
   80811      24   80817   80811      24   80817   80814      25   80823   80820
      24   80826   80820      24   80826   80823      25   80832   80829      24
   80835   80829      24   80835   80832      25   80841   80838      24   80844
   80838      24   80844   80841      25   80850   80847      24   80853   80847
      24   80853   80850      25   80859   80856      24   80862   80856      24
   80862   80859      25   80868   80865      24   80871   80865      24   80871
   80868      25   80877   80874      24   80880   80874      24   80880   80877
      25   80886   80883      24   80889   80883      24   80889   80886      25
   80895   80892      24   80898   80892      24   80898   80895      25   80904
   80901      24   80907   80901      24   80907   80904      25   80913   80910
      24   80916   80910      24   80916   80913      25   80922   80919      24
   80925   80919      24   80925   80922      25   80931   80928      24   80934
   80928      24   80934   80931      25   80940   80937      24   80943   80937
      24   80943   80940      25   80949   80946      24   80952   80946      24
   80952   80949      25   80958   80955      24   80961   80955      24   80961
   80958      25   80967   80964      24   80970   80964      24   80970   80967
      25   80976   80973      24   80979   80973      24   80979   80976      25
   80985   80982      24   80988   80982      24   80988   80985      25   80994
   80991      24   80997   80991      24   80997   80994      25   81003   81000
      24   81006   81000      24   81006   81003      25   81012   81009      24
   81015   81009      24   81015   81012      25   81021   81018      24   81024
   81018      24   81024   81021      25   81030   81027      24   81033   81027
      24   81033   81030      25   81039   81036      24   81042   81036      24
   81042   81039      25   81048   81045      24   81051   81045      24   81051
   81048      25   81057   81054      24   81060   81054      24   81060   81057
      25   81066   81063      24   81069   81063      24   81069   81066      25
   81075   81072      24   81078   81072      24   81078   81075      25   81084
   81081      24   81087   81081      24   81087   81084      25   81093   81090
      24   81096   81090      24   81096   81093      25   81102   81099      24
   81105   81099      24   81105   81102      25   81111   81108      24   81114
   81108      24   81114   81111      25   81120   81117      24   81123   81117
      24   81123   81120      25   81129   81126      24   81132   81126      24
   81132   81129      25   81138   81135      24   81141   81135      24   81141
   81138      25   81147   81144      24   81150   81144      24   81150   81147
      25   81156   81153      24   81159   81153      24   81159   81156      25
   81165   81162      24   81168   81162      24   81168   81165      25   81174
   81171      24   81177   81171      24   81177   81174      25   81183   81180
      24   81186   81180      24   81186   81183      25   81192   81189      24
   81195   81189      24   81195   81192      25   81201   81198      24   81204
   81198      24   81204   81201      25   81210   81207      24   81213   81207
      24   81213   81210      25   81219   81216      24   81222   81216      24
   81222   81219      25   81228   81225      24   81231   81225      24   81231
   81228      25   81237   81234      24   81240   81234      24   81240   81237
      25   81246   81243      24   81249   81243      24   81249   81246      25
   81255   81252      24   81258   81252      24   81258   81255      25   81264
   81261      24   81267   81261      24   81267   81264      25   81273   81270
      24   81276   81270      24   81276   81273      25   81282   81279      24
   81285   81279      24   81285   81282      25   81291   81288      24   81294
   81288      24   81294   81291      25   81300   81297      24   81303   81297
      24   81303   81300      25   81309   81306      24   81312   81306      24
   81312   81309      25   81318   81315      24   81321   81315      24   81321
   81318      25   81327   81324      24   81330   81324      24   81330   81327
      25   81336   81333      24   81339   81333      24   81339   81336      25
   81345   81342      24   81348   81342      24   81348   81345      25   81354
   81351      24   81357   81351      24   81357   81354      25   81363   81360
      24   81366   81360      24   81366   81363      25   81372   81369      24
   81375   81369      24   81375   81372      25   81381   81378      24   81384
   81378      24   81384   81381      25   81390   81387      24   81393   81387
      24   81393   81390      25   81399   81396      24   81402   81396      24
   81402   81399      25   81408   81405      24   81411   81405      24   81411
   81408      25   81417   81414      24   81420   81414      24   81420   81417
      25   81426   81423      24   81429   81423      24   81429   81426      25
   81435   81432      24   81438   81432      24   81438   81435      25   81444
   81441      24   81447   81441      24   81447   81444      25   81453   81450
      24   81456   81450      24   81456   81453      25   81462   81459      24
   81465   81459      24   81465   81462      25   81471   81468      24   81474
   81468      24   81474   81471      25   81480   81477      24   81483   81477
      24   81483   81480      25   81489   81486      24   81492   81486      24
   81492   81489      25   81498   81495      24   81501   81495      24   81501
   81498      25   81507   81504      24   81510   81504      24   81510   81507
      25   81516   81513      24   81519   81513      24   81519   81516      25
   81525   81522      24   81528   81522      24   81528   81525      25   81534
   81531      24   81537   81531      24   81537   81534      25   81543   81540
      24   81546   81540      24   81546   81543      25   81552   81549      24
   81555   81549      24   81555   81552      25   81561   81558      24   81564
   81558      24   81564   81561      25   81570   81567      24   81573   81567
      24   81573   81570      25   81579   81576      24   81582   81576      24
   81582   81579      25   81588   81585      24   81591   81585      24   81591
   81588      25   81597   81594      24   81600   81594      24   81600   81597
      25   81606   81603      24   81609   81603      24   81609   81606      25
   81615   81612      24   81618   81612      24   81618   81615      25   81624
   81621      24   81627   81621      24   81627   81624      25   81633   81630
      24   81636   81630      24   81636   81633      25   81642   81639      24
   81645   81639      24   81645   81642      25   81651   81648      24   81654
   81648      24   81654   81651      25   81660   81657      24   81663   81657
      24   81663   81660      25   81669   81666      24   81672   81666      24
   81672   81669      25   81678   81675      24   81681   81675      24   81681
   81678      25   81687   81684      24   81690   81684      24   81690   81687
      25   81696   81693      24   81699   81693      24   81699   81696      25
   81705   81702      24   81708   81702      24   81708   81705      25   81714
   81711      24   81717   81711      24   81717   81714      25   81723   81720
      24   81726   81720      24   81726   81723      25   81732   81729      24
   81735   81729      24   81735   81732      25   81741   81738      24   81744
   81738      24   81744   81741      25   81750   81747      24   81753   81747
      24   81753   81750      25   81759   81756      24   81762   81756      24
   81762   81759      25   81768   81765      24   81771   81765      24   81771
   81768      25   81777   81774      24   81780   81774      24   81780   81777
      25   81786   81783      24   81789   81783      24   81789   81786      25
   81795   81792      24   81798   81792      24   81798   81795      25   81804
   81801      24   81807   81801      24   81807   81804      25   81813   81810
      24   81816   81810      24   81816   81813      25   81822   81819      24
   81825   81819      24   81825   81822      25   81831   81828      24   81834
   81828      24   81834   81831      25   81840   81837      24   81843   81837
      24   81843   81840      25   81849   81846      24   81852   81846      24
   81852   81849      25   81858   81855      24   81861   81855      24   81861
   81858      25   81867   81864      24   81870   81864      24   81870   81867
      25   81876   81873      24   81879   81873      24   81879   81876      25
   81885   81882      24   81888   81882      24   81888   81885      25   81894
   81891      24   81897   81891      24   81897   81894      25   81903   81900
      24   81906   81900      24   81906   81903      25   81912   81909      24
   81915   81909      24   81915   81912      25   81921   81918      24   81924
   81918      24   81924   81921      25   81930   81927      24   81933   81927
      24   81933   81930      25   81939   81936      24   81942   81936      24
   81942   81939      25   81948   81945      24   81951   81945      24   81951
   81948      25   81957   81954      24   81960   81954      24   81960   81957
      25   81966   81963      24   81969   81963      24   81969   81966      25
   81975   81972      24   81978   81972      24   81978   81975      25   81984
   81981      24   81987   81981      24   81987   81984      25   81993   81990
      24   81996   81990      24   81996   81993      25   82002   81999      24
   82005   81999      24   82005   82002      25   82011   82008      24   82014
   82008      24   82014   82011      25   82020   82017      24   82023   82017
      24   82023   82020      25   82029   82026      24   82032   82026      24
   82032   82029      25   82038   82035      24   82041   82035      24   82041
   82038      25   82047   82044      24   82050   82044      24   82050   82047
      25   82056   82053      24   82059   82053      24   82059   82056      25
   82065   82062      24   82068   82062      24   82068   82065      25   82074
   82071      24   82077   82071      24   82077   82074      25   82083   82080
      24   82086   82080      24   82086   82083      25   82092   82089      24
   82095   82089      24   82095   82092      25   82101   82098      24   82104
   82098      24   82104   82101      25   82110   82107      24   82113   82107
      24   82113   82110      25   82119   82116      24   82122   82116      24
   82122   82119      25   82128   82125      24   82131   82125      24   82131
   82128      25   82137   82134      24   82140   82134      24   82140   82137
      25   82146   82143      24   82149   82143      24   82149   82146      25
   82155   82152      24   82158   82152      24   82158   82155      25   82164
   82161      24   82167   82161      24   82167   82164      25   82173   82170
      24   82176   82170      24   82176   82173      25   82182   82179      24
   82185   82179      24   82185   82182      25   82191   82188      24   82194
   82188      24   82194   82191      25   82200   82197      24   82203   82197
      24   82203   82200      25   82209   82206      24   82212   82206      24
   82212   82209      25   82218   82215      24   82221   82215      24   82221
   82218      25   82227   82224      24   82230   82224      24   82230   82227
      25   82236   82233      24   82239   82233      24   82239   82236      25
   82245   82242      24   82248   82242      24   82248   82245      25   82254
   82251      24   82257   82251      24   82257   82254      25   82263   82260
      24   82266   82260      24   82266   82263      25   82272   82269      24
   82275   82269      24   82275   82272      25   82281   82278      24   82284
   82278      24   82284   82281      25   82290   82287      24   82293   82287
      24   82293   82290      25   82299   82296      24   82302   82296      24
   82302   82299      25   82308   82305      24   82311   82305      24   82311
   82308      25   82317   82314      24   82320   82314      24   82320   82317
      25   82326   82323      24   82329   82323      24   82329   82326      25
   82335   82332      24   82338   82332      24   82338   82335      25   82344
   82341      24   82347   82341      24   82347   82344      25   82353   82350
      24   82356   82350      24   82356   82353      25   82362   82359      24
   82365   82359      24   82365   82362      25   82371   82368      24   82374
   82368      24   82374   82371      25   82380   82377      24   82383   82377
      24   82383   82380      25   82389   82386      24   82392   82386      24
   82392   82389      25   82398   82395      24   82401   82395      24   82401
   82398      25   82407   82404      24   82410   82404      24   82410   82407
      25   82416   82413      24   82419   82413      24   82419   82416      25
   82425   82422      24   82428   82422      24   82428   82425      25   82434
   82431      24   82437   82431      24   82437   82434      25   82443   82440
      24   82446   82440      24   82446   82443      25   82452   82449      24
   82455   82449      24   82455   82452      25   82461   82458      24   82464
   82458      24   82464   82461      25   82470   82467      24   82473   82467
      24   82473   82470      25   82479   82476      24   82482   82476      24
   82482   82479      25   82488   82485      24   82491   82485      24   82491
   82488      25   82497   82494      24   82500   82494      24   82500   82497
      25   82506   82503      24   82509   82503      24   82509   82506      25
   82515   82512      24   82518   82512      24   82518   82515      25   82524
   82521      24   82527   82521      24   82527   82524      25   82533   82530
      24   82536   82530      24   82536   82533      25   82542   82539      24
   82545   82539      24   82545   82542      25   82551   82548      24   82554
   82548      24   82554   82551      25   82560   82557      24   82563   82557
      24   82563   82560      25   82569   82566      24   82572   82566      24
   82572   82569      25   82578   82575      24   82581   82575      24   82581
   82578      25   82587   82584      24   82590   82584      24   82590   82587
      25   82596   82593      24   82599   82593      24   82599   82596      25
   82605   82602      24   82608   82602      24   82608   82605      25   82614
   82611      24   82617   82611      24   82617   82614      25   82623   82620
      24   82626   82620      24   82626   82623      25   82632   82629      24
   82635   82629      24   82635   82632      25   82641   82638      24   82644
   82638      24   82644   82641      25   82650   82647      24   82653   82647
      24   82653   82650      25   82659   82656      24   82662   82656      24
   82662   82659      25   82668   82665      24   82671   82665      24   82671
   82668      25   82677   82674      24   82680   82674      24   82680   82677
      25   82686   82683      24   82689   82683      24   82689   82686      25
   82695   82692      24   82698   82692      24   82698   82695      25   82704
   82701      24   82707   82701      24   82707   82704      25   82713   82710
      24   82716   82710      24   82716   82713      25   82722   82719      24
   82725   82719      24   82725   82722      25   82731   82728      24   82734
   82728      24   82734   82731      25   82740   82737      24   82743   82737
      24   82743   82740      25   82749   82746      24   82752   82746      24
   82752   82749      25   82758   82755      24   82761   82755      24   82761
   82758      25   82767   82764      24   82770   82764      24   82770   82767
      25   82776   82773      24   82779   82773      24   82779   82776      25
   82785   82782      24   82788   82782      24   82788   82785      25   82794
   82791      24   82797   82791      24   82797   82794      25   82803   82800
      24   82806   82800      24   82806   82803      25   82812   82809      24
   82815   82809      24   82815   82812      25   82821   82818      24   82824
   82818      24   82824   82821      25   82830   82827      24   82833   82827
      24   82833   82830      25   82839   82836      24   82842   82836      24
   82842   82839      25   82848   82845      24   82851   82845      24   82851
   82848      25   82857   82854      24   82860   82854      24   82860   82857
      25   82866   82863      24   82869   82863      24   82869   82866      25
   82875   82872      24   82878   82872      24   82878   82875      25   82884
   82881      24   82887   82881      24   82887   82884      25   82893   82890
      24   82896   82890      24   82896   82893      25   82902   82899      24
   82905   82899      24   82905   82902      25   82911   82908      24   82914
   82908      24   82914   82911      25   82920   82917      24   82923   82917
      24   82923   82920      25   82929   82926      24   82932   82926      24
   82932   82929      25   82938   82935      24   82941   82935      24   82941
   82938      25   82947   82944      24   82950   82944      24   82950   82947
      25   82956   82953      24   82959   82953      24   82959   82956      25
   82965   82962      24   82968   82962      24   82968   82965      25   82974
   82971      24   82977   82971      24   82977   82974      25   82983   82980
      24   82986   82980      24   82986   82983      25   82992   82989      24
   82995   82989      24   82995   82992      25   83001   82998      24   83004
   82998      24   83004   83001      25   83010   83007      24   83013   83007
      24   83013   83010      25   83019   83016      24   83022   83016      24
   83022   83019      25   83028   83025      24   83031   83025      24   83031
   83028      25   83037   83034      24   83040   83034      24   83040   83037
      25   83046   83043      24   83049   83043      24   83049   83046      25
   83055   83052      24   83058   83052      24   83058   83055      25   83064
   83061      24   83067   83061      24   83067   83064      25   83073   83070
      24   83076   83070      24   83076   83073      25   83082   83079      24
   83085   83079      24   83085   83082      25   83091   83088      24   83094
   83088      24   83094   83091      25   83100   83097      24   83103   83097
      24   83103   83100      25   83109   83106      24   83112   83106      24
   83112   83109      25   83118   83115      24   83121   83115      24   83121
   83118      25   83127   83124      24   83130   83124      24   83130   83127
      25   83136   83133      24   83139   83133      24   83139   83136      25
   83145   83142      24   83148   83142      24   83148   83145      25   83154
   83151      24   83157   83151      24   83157   83154      25   83163   83160
      24   83166   83160      24   83166   83163      25   83172   83169      24
   83175   83169      24   83175   83172      25   83181   83178      24   83184
   83178      24   83184   83181      25   83190   83187      24   83193   83187
      24   83193   83190      25   83199   83196      24   83202   83196      24
   83202   83199      25   83208   83205      24   83211   83205      24   83211
   83208      25   83217   83214      24   83220   83214      24   83220   83217
      25   83226   83223      24   83229   83223      24   83229   83226      25
   83235   83232      24   83238   83232      24   83238   83235      25   83244
   83241      24   83247   83241      24   83247   83244      25   83253   83250
      24   83256   83250      24   83256   83253      25   83262   83259      24
   83265   83259      24   83265   83262      25   83271   83268      24   83274
   83268      24   83274   83271      25   83280   83277      24   83283   83277
      24   83283   83280      25   83289   83286      24   83292   83286      24
   83292   83289      25   83298   83295      24   83301   83295      24   83301
   83298      25   83307   83304      24   83310   83304      24   83310   83307
      25   83316   83313      24   83319   83313      24   83319   83316      25
   83325   83322      24   83328   83322      24   83328   83325      25   83334
   83331      24   83337   83331      24   83337   83334      25   83343   83340
      24   83346   83340      24   83346   83343      25   83352   83349      24
   83355   83349      24   83355   83352      25   83361   83358      24   83364
   83358      24   83364   83361      25   83370   83367      24   83373   83367
      24   83373   83370      25   83379   83376      24   83382   83376      24
   83382   83379      25   83388   83385      24   83391   83385      24   83391
   83388      25   83397   83394      24   83400   83394      24   83400   83397
      25   83406   83403      24   83409   83403      24   83409   83406      25
   83415   83412      24   83418   83412      24   83418   83415      25   83424
   83421      24   83427   83421      24   83427   83424      25   83433   83430
      24   83436   83430      24   83436   83433      25   83442   83439      24
   83445   83439      24   83445   83442      25   83451   83448      24   83454
   83448      24   83454   83451      25   83460   83457      24   83463   83457
      24   83463   83460      25   83469   83466      24   83472   83466      24
   83472   83469      25   83478   83475      24   83481   83475      24   83481
   83478      25   83487   83484      24   83490   83484      24   83490   83487
      25   83496   83493      24   83499   83493      24   83499   83496      25
   83505   83502      24   83508   83502      24   83508   83505      25   83514
   83511      24   83517   83511      24   83517   83514      25   83523   83520
      24   83526   83520      24   83526   83523      25   83532   83529      24
   83535   83529      24   83535   83532      25   83541   83538      24   83544
   83538      24   83544   83541      25   83550   83547      24   83553   83547
      24   83553   83550      25   83559   83556      24   83562   83556      24
   83562   83559      25   83568   83565      24   83571   83565      24   83571
   83568      25   83577   83574      24   83580   83574      24   83580   83577
      25   83586   83583      24   83589   83583      24   83589   83586      25
   83595   83592      24   83598   83592      24   83598   83595      25   83604
   83601      24   83607   83601      24   83607   83604      25   83613   83610
      24   83616   83610      24   83616   83613      25   83622   83619      24
   83625   83619      24   83625   83622      25   83631   83628      24   83634
   83628      24   83634   83631      25   83640   83637      24   83643   83637
      24   83643   83640      25   83649   83646      24   83652   83646      24
   83652   83649      25   83658   83655      24   83661   83655      24   83661
   83658      25   83667   83664      24   83670   83664      24   83670   83667
      25   83676   83673      24   83679   83673      24   83679   83676      25
   83685   83682      24   83688   83682      24   83688   83685      25   83694
   83691      24   83697   83691      24   83697   83694      25   83703   83700
      24   83706   83700      24   83706   83703      25   83712   83709      24
   83715   83709      24   83715   83712      25   83721   83718      24   83724
   83718      24   83724   83721      25   83730   83727      24   83733   83727
      24   83733   83730      25   83739   83736      24   83742   83736      24
   83742   83739      25   83748   83745      24   83751   83745      24   83751
   83748      25   83757   83754      24   83760   83754      24   83760   83757
      25   83766   83763      24   83769   83763      24   83769   83766      25
   83775   83772      24   83778   83772      24   83778   83775      25   83784
   83781      24   83787   83781      24   83787   83784      25   83793   83790
      24   83796   83790      24   83796   83793      25   83802   83799      24
   83805   83799      24   83805   83802      25   83811   83808      24   83814
   83808      24   83814   83811      25   83820   83817      24   83823   83817
      24   83823   83820      25   83829   83826      24   83832   83826      24
   83832   83829      25   83838   83835      24   83841   83835      24   83841
   83838      25   83847   83844      24   83850   83844      24   83850   83847
      25   83856   83853      24   83859   83853      24   83859   83856      25
   83865   83862      24   83868   83862      24   83868   83865      25   83874
   83871      24   83877   83871      24   83877   83874      25   83883   83880
      24   83886   83880      24   83886   83883      25   83892   83889      24
   83895   83889      24   83895   83892      25   83901   83898      24   83904
   83898      24   83904   83901      25   83910   83907      24   83913   83907
      24   83913   83910      25   83919   83916      24   83922   83916      24
   83922   83919      25   83928   83925      24   83931   83925      24   83931
   83928      25   83937   83934      24   83940   83934      24   83940   83937
      25   83946   83943      24   83949   83943      24   83949   83946      25
   83955   83952      24   83958   83952      24   83958   83955      25   83964
   83961      24   83967   83961      24   83967   83964      25   83973   83970
      24   83976   83970      24   83976   83973      25   83982   83979      24
   83985   83979      24   83985   83982      25   83991   83988      24   83994
   83988      24   83994   83991      25   84000   83997      24   84003   83997
      24   84003   84000      25   84009   84006      24   84012   84006      24
   84012   84009      25   84018   84015      24   84021   84015      24   84021
   84018      25   84027   84024      24   84030   84024      24   84030   84027
      25   84036   84033      24   84039   84033      24   84039   84036      25
   84045   84042      24   84048   84042      24   84048   84045      25   84054
   84051      24   84057   84051      24   84057   84054      25   84063   84060
      24   84066   84060      24   84066   84063      25   84072   84069      24
   84075   84069      24   84075   84072      25   84081   84078      24   84084
   84078      24   84084   84081      25   84090   84087      24   84093   84087
      24   84093   84090      25   84099   84096      24   84102   84096      24
   84102   84099      25   84108   84105      24   84111   84105      24   84111
   84108      25   84117   84114      24   84120   84114      24   84120   84117
      25   84126   84123      24   84129   84123      24   84129   84126      25
   84135   84132      24   84138   84132      24   84138   84135      25   84144
   84141      24   84147   84141      24   84147   84144      25   84153   84150
      24   84156   84150      24   84156   84153      25   84162   84159      24
   84165   84159      24   84165   84162      25   84171   84168      24   84174
   84168      24   84174   84171      25   84180   84177      24   84183   84177
      24   84183   84180      25   84189   84186      24   84192   84186      24
   84192   84189      25   84198   84195      24   84201   84195      24   84201
   84198      25   84207   84204      24   84210   84204      24   84210   84207
      25   84216   84213      24   84219   84213      24   84219   84216      25
   84225   84222      24   84228   84222      24   84228   84225      25   84234
   84231      24   84237   84231      24   84237   84234      25   84243   84240
      24   84246   84240      24   84246   84243      25   84252   84249      24
   84255   84249      24   84255   84252      25   84261   84258      24   84264
   84258      24   84264   84261      25   84270   84267      24   84273   84267
      24   84273   84270      25   84279   84276      24   84282   84276      24
   84282   84279      25   84288   84285      24   84291   84285      24   84291
   84288      25   84297   84294      24   84300   84294      24   84300   84297
      25   84306   84303      24   84309   84303      24   84309   84306      25
   84315   84312      24   84318   84312      24   84318   84315      25   84324
   84321      24   84327   84321      24   84327   84324      25   84333   84330
      24   84336   84330      24   84336   84333      25   84342   84339      24
   84345   84339      24   84345   84342      25   84351   84348      24   84354
   84348      24   84354   84351      25   84360   84357      24   84363   84357
      24   84363   84360      25   84369   84366      24   84372   84366      24
   84372   84369      25   84378   84375      24   84381   84375      24   84381
   84378      25   84387   84384      24   84390   84384      24   84390   84387
      25   84396   84393      24   84399   84393      24   84399   84396      25
   84405   84402      24   84408   84402      24   84408   84405      25   84414
   84411      24   84417   84411      24   84417   84414      25   84423   84420
      24   84426   84420      24   84426   84423      25   84432   84429      24
   84435   84429      24   84435   84432      25   84441   84438      24   84444
   84438      24   84444   84441      25   84450   84447      24   84453   84447
      24   84453   84450      25   84459   84456      24   84462   84456      24
   84462   84459      25   84468   84465      24   84471   84465      24   84471
   84468      25   84477   84474      24   84480   84474      24   84480   84477
      25   84486   84483      24   84489   84483      24   84489   84486      25
   84495   84492      24   84498   84492      24   84498   84495      25   84504
   84501      24   84507   84501      24   84507   84504      25   84513   84510
      24   84516   84510      24   84516   84513      25   84522   84519      24
   84525   84519      24   84525   84522      25   84531   84528      24   84534
   84528      24   84534   84531      25   84540   84537      24   84543   84537
      24   84543   84540      25   84549   84546      24   84552   84546      24
   84552   84549      25   84558   84555      24   84561   84555      24   84561
   84558      25   84567   84564      24   84570   84564      24   84570   84567
      25   84576   84573      24   84579   84573      24   84579   84576      25
   84585   84582      24   84588   84582      24   84588   84585      25   84594
   84591      24   84597   84591      24   84597   84594      25   84603   84600
      24   84606   84600      24   84606   84603      25   84612   84609      24
   84615   84609      24   84615   84612      25   84621   84618      24   84624
   84618      24   84624   84621      25   84630   84627      24   84633   84627
      24   84633   84630      25   84639   84636      24   84642   84636      24
   84642   84639      25   84648   84645      24   84651   84645      24   84651
   84648      25   84657   84654      24   84660   84654      24   84660   84657
      25   84666   84663      24   84669   84663      24   84669   84666      25
   84675   84672      24   84678   84672      24   84678   84675      25   84684
   84681      24   84687   84681      24   84687   84684      25   84693   84690
      24   84696   84690      24   84696   84693      25   84702   84699      24
   84705   84699      24   84705   84702      25   84711   84708      24   84714
   84708      24   84714   84711      25   84720   84717      24   84723   84717
      24   84723   84720      25   84729   84726      24   84732   84726      24
   84732   84729      25   84738   84735      24   84741   84735      24   84741
   84738      25   84747   84744      24   84750   84744      24   84750   84747
      25   84756   84753      24   84759   84753      24   84759   84756      25
   84765   84762      24   84768   84762      24   84768   84765      25   84774
   84771      24   84777   84771      24   84777   84774      25   84783   84780
      24   84786   84780      24   84786   84783      25   84792   84789      24
   84795   84789      24   84795   84792      25   84801   84798      24   84804
   84798      24   84804   84801      25   84810   84807      24   84813   84807
      24   84813   84810      25   84819   84816      24   84822   84816      24
   84822   84819      25   84828   84825      24   84831   84825      24   84831
   84828      25   84837   84834      24   84840   84834      24   84840   84837
      25   84846   84843      24   84849   84843      24   84849   84846      25
   84855   84852      24   84858   84852      24   84858   84855      25   84864
   84861      24   84867   84861      24   84867   84864      25   84873   84870
      24   84876   84870      24   84876   84873      25   84882   84879      24
   84885   84879      24   84885   84882      25   84891   84888      24   84894
   84888      24   84894   84891      25   84900   84897      24   84903   84897
      24   84903   84900      25   84909   84906      24   84912   84906      24
   84912   84909      25   84918   84915      24   84921   84915      24   84921
   84918      25   84927   84924      24   84930   84924      24   84930   84927
      25   84936   84933      24   84939   84933      24   84939   84936      25
   84945   84942      24   84948   84942      24   84948   84945      25   84954
   84951      24   84957   84951      24   84957   84954      25   84963   84960
      24   84966   84960      24   84966   84963      25   84972   84969      24
   84975   84969      24   84975   84972      25   84981   84978      24   84984
   84978      24   84984   84981      25   84990   84987      24   84993   84987
      24   84993   84990      25   84999   84996      24   85002   84996      24
   85002   84999      25   85008   85005      24   85011   85005      24   85011
   85008      25   85017   85014      24   85020   85014      24   85020   85017
      25   85026   85023      24   85029   85023      24   85029   85026      25
   85035   85032      24   85038   85032      24   85038   85035      25   85044
   85041      24   85047   85041      24   85047   85044      25   85053   85050
      24   85056   85050      24   85056   85053      25   85062   85059      24
   85065   85059      24   85065   85062      25   85071   85068      24   85074
   85068      24   85074   85071      25   85080   85077      24   85083   85077
      24   85083   85080      25   85089   85086      24   85092   85086      24
   85092   85089      25   85098   85095      24   85101   85095      24   85101
   85098      25   85107   85104      24   85110   85104      24   85110   85107
      25   85116   85113      24   85119   85113      24   85119   85116      25
   85125   85122      24   85128   85122      24   85128   85125      25   85134
   85131      24   85137   85131      24   85137   85134      25   85143   85140
      24   85146   85140      24   85146   85143      25   85152   85149      24
   85155   85149      24   85155   85152      25   85161   85158      24   85164
   85158      24   85164   85161      25   85170   85167      24   85173   85167
      24   85173   85170      25   85179   85176      24   85182   85176      24
   85182   85179      25   85188   85185      24   85191   85185      24   85191
   85188      25   85197   85194      24   85200   85194      24   85200   85197
      25   85206   85203      24   85209   85203      24   85209   85206      25
   85215   85212      24   85218   85212      24   85218   85215      25   85224
   85221      24   85227   85221      24   85227   85224      25   85233   85230
      24   85236   85230      24   85236   85233      25   85242   85239      24
   85245   85239      24   85245   85242      25   85251   85248      24   85254
   85248      24   85254   85251      25   85260   85257      24   85263   85257
      24   85263   85260      25   85269   85266      24   85272   85266      24
   85272   85269      25   85278   85275      24   85281   85275      24   85281
   85278      25   85287   85284      24   85290   85284      24   85290   85287
      25   85296   85293      24   85299   85293      24   85299   85296      25
   85305   85302      24   85308   85302      24   85308   85305      25   85314
   85311      24   85317   85311      24   85317   85314      25   85323   85320
      24   85326   85320      24   85326   85323      25   85332   85329      24
   85335   85329      24   85335   85332      25   85341   85338      24   85344
   85338      24   85344   85341      25   85350   85347      24   85353   85347
      24   85353   85350      25   85359   85356      24   85362   85356      24
   85362   85359      25   85368   85365      24   85371   85365      24   85371
   85368      25   85377   85374      24   85380   85374      24   85380   85377
      25   85386   85383      24   85389   85383      24   85389   85386      25
   85395   85392      24   85398   85392      24   85398   85395      25   85404
   85401      24   85407   85401      24   85407   85404      25   85413   85410
      24   85416   85410      24   85416   85413      25   85422   85419      24
   85425   85419      24   85425   85422      25   85431   85428      24   85434
   85428      24   85434   85431      25   85440   85437      24   85443   85437
      24   85443   85440      25   85449   85446      24   85452   85446      24
   85452   85449      25   85458   85455      24   85461   85455      24   85461
   85458      25   85467   85464      24   85470   85464      24   85470   85467
      25   85476   85473      24   85479   85473      24   85479   85476      25
   85485   85482      24   85488   85482      24   85488   85485      25   85494
   85491      24   85497   85491      24   85497   85494      25   85503   85500
      24   85506   85500      24   85506   85503      25   85512   85509      24
   85515   85509      24   85515   85512      25   85521   85518      24   85524
   85518      24   85524   85521      25   85530   85527      24   85533   85527
      24   85533   85530      25   85539   85536      24   85542   85536      24
   85542   85539      25   85548   85545      24   85551   85545      24   85551
   85548      25   85557   85554      24   85560   85554      24   85560   85557
      25   85566   85563      24   85569   85563      24   85569   85566      25
   85575   85572      24   85578   85572      24   85578   85575      25   85584
   85581      24   85587   85581      24   85587   85584      25   85593   85590
      24   85596   85590      24   85596   85593      25   85602   85599      24
   85605   85599      24   85605   85602      25   85611   85608      24   85614
   85608      24   85614   85611      25   85620   85617      24   85623   85617
      24   85623   85620      25   85629   85626      24   85632   85626      24
   85632   85629      25   85638   85635      24   85641   85635      24   85641
   85638      25   85647   85644      24   85650   85644      24   85650   85647
      25   85656   85653      24   85659   85653      24   85659   85656      25
   85665   85662      24   85668   85662      24   85668   85665      25   85674
   85671      24   85677   85671      24   85677   85674      25   85683   85680
      24   85686   85680      24   85686   85683      25   85692   85689      24
   85695   85689      24   85695   85692      25   85701   85698      24   85704
   85698      24   85704   85701      25   85710   85707      24   85713   85707
      24   85713   85710      25   85719   85716      24   85722   85716      24
   85722   85719      25   85728   85725      24   85731   85725      24   85731
   85728      25   85737   85734      24   85740   85734      24   85740   85737
      25   85746   85743      24   85749   85743      24   85749   85746      25
   85755   85752      24   85758   85752      24   85758   85755      25   85764
   85761      24   85767   85761      24   85767   85764      25   85773   85770
      24   85776   85770      24   85776   85773      25   85782   85779      24
   85785   85779      24   85785   85782      25   85791   85788      24   85794
   85788      24   85794   85791      25   85800   85797      24   85803   85797
      24   85803   85800      25   85809   85806      24   85812   85806      24
   85812   85809      25   85818   85815      24   85821   85815      24   85821
   85818      25   85827   85824      24   85830   85824      24   85830   85827
      25   85836   85833      24   85839   85833      24   85839   85836      25
   85845   85842      24   85848   85842      24   85848   85845      25   85854
   85851      24   85857   85851      24   85857   85854      25   85863   85860
      24   85866   85860      24   85866   85863      25   85872   85869      24
   85875   85869      24   85875   85872      25   85881   85878      24   85884
   85878      24   85884   85881      25   85890   85887      24   85893   85887
      24   85893   85890      25   85899   85896      24   85902   85896      24
   85902   85899      25   85908   85905      24   85911   85905      24   85911
   85908      25   85917   85914      24   85920   85914      24   85920   85917
      25   85926   85923      24   85929   85923      24   85929   85926      25
   85935   85932      24   85938   85932      24   85938   85935      25   85944
   85941      24   85947   85941      24   85947   85944      25   85953   85950
      24   85956   85950      24   85956   85953      25   85962   85959      24
   85965   85959      24   85965   85962      25   85971   85968      24   85974
   85968      24   85974   85971      25   85980   85977      24   85983   85977
      24   85983   85980      25   85989   85986      24   85992   85986      24
   85992   85989      25   85998   85995      24   86001   85995      24   86001
   85998      25   86007   86004      24   86010   86004      24   86010   86007
      25   86016   86013      24   86019   86013      24   86019   86016      25
   86025   86022      24   86028   86022      24   86028   86025      25   86034
   86031      24   86037   86031      24   86037   86034      25   86043   86040
      24   86046   86040      24   86046   86043      25   86052   86049      24
   86055   86049      24   86055   86052      25   86061   86058      24   86064
   86058      24   86064   86061      25   86070   86067      24   86073   86067
      24   86073   86070      25   86079   86076      24   86082   86076      24
   86082   86079      25   86088   86085      24   86091   86085      24   86091
   86088      25   86097   86094      24   86100   86094      24   86100   86097
      25   86106   86103      24   86109   86103      24   86109   86106      25
   86115   86112      24   86118   86112      24   86118   86115      25   86124
   86121      24   86127   86121      24   86127   86124      25   86133   86130
      24   86136   86130      24   86136   86133      25   86142   86139      24
   86145   86139      24   86145   86142      25   86151   86148      24   86154
   86148      24   86154   86151      25   86160   86157      24   86163   86157
      24   86163   86160      25   86169   86166      24   86172   86166      24
   86172   86169      25   86178   86175      24   86181   86175      24   86181
   86178      25   86187   86184      24   86190   86184      24   86190   86187
      25   86196   86193      24   86199   86193      24   86199   86196      25
   86205   86202      24   86208   86202      24   86208   86205      25   86214
   86211      24   86217   86211      24   86217   86214      25   86223   86220
      24   86226   86220      24   86226   86223      25   86232   86229      24
   86235   86229      24   86235   86232      25   86241   86238      24   86244
   86238      24   86244   86241      25   86250   86247      24   86253   86247
      24   86253   86250      25   86259   86256      24   86262   86256      24
   86262   86259      25   86268   86265      24   86271   86265      24   86271
   86268      25   86277   86274      24   86280   86274      24   86280   86277
      25   86286   86283      24   86289   86283      24   86289   86286      25
   86295   86292      24   86298   86292      24   86298   86295      25   86304
   86301      24   86307   86301      24   86307   86304      25   86313   86310
      24   86316   86310      24   86316   86313      25   86322   86319      24
   86325   86319      24   86325   86322      25   86331   86328      24   86334
   86328      24   86334   86331      25   86340   86337      24   86343   86337
      24   86343   86340      25   86349   86346      24   86352   86346      24
   86352   86349      25   86358   86355      24   86361   86355      24   86361
   86358      25   86367   86364      24   86370   86364      24   86370   86367
      25   86376   86373      24   86379   86373      24   86379   86376      25
   86385   86382      24   86388   86382      24   86388   86385      25   86394
   86391      24   86397   86391      24   86397   86394      25   86403   86400
      24   86406   86400      24   86406   86403      25   86412   86409      24
   86415   86409      24   86415   86412      25   86421   86418      24   86424
   86418      24   86424   86421      25   86430   86427      24   86433   86427
      24   86433   86430      25   86439   86436      24   86442   86436      24
   86442   86439      25   86448   86445      24   86451   86445      24   86451
   86448      25   86457   86454      24   86460   86454      24   86460   86457
      25   86466   86463      24   86469   86463      24   86469   86466      25
   86475   86472      24   86478   86472      24   86478   86475      25   86484
   86481      24   86487   86481      24   86487   86484      25   86493   86490
      24   86496   86490      24   86496   86493      25   86502   86499      24
   86505   86499      24   86505   86502      25   86511   86508      24   86514
   86508      24   86514   86511      25   86520   86517      24   86523   86517
      24   86523   86520      25   86529   86526      24   86532   86526      24
   86532   86529      25   86538   86535      24   86541   86535      24   86541
   86538      25   86547   86544      24   86550   86544      24   86550   86547
      25   86556   86553      24   86559   86553      24   86559   86556      25
   86565   86562      24   86568   86562      24   86568   86565      25   86574
   86571      24   86577   86571      24   86577   86574      25   86583   86580
      24   86586   86580      24   86586   86583      25   86592   86589      24
   86595   86589      24   86595   86592      25   86601   86598      24   86604
   86598      24   86604   86601      25   86610   86607      24   86613   86607
      24   86613   86610      25   86619   86616      24   86622   86616      24
   86622   86619      25   86628   86625      24   86631   86625      24   86631
   86628      25   86637   86634      24   86640   86634      24   86640   86637
      25   86646   86643      24   86649   86643      24   86649   86646      25
   86655   86652      24   86658   86652      24   86658   86655      25   86664
   86661      24   86667   86661      24   86667   86664      25   86673   86670
      24   86676   86670      24   86676   86673      25   86682   86679      24
   86685   86679      24   86685   86682      25   86691   86688      24   86694
   86688      24   86694   86691      25   86700   86697      24   86703   86697
      24   86703   86700      25   86709   86706      24   86712   86706      24
   86712   86709      25   86718   86715      24   86721   86715      24   86721
   86718      25   86727   86724      24   86730   86724      24   86730   86727
      25   86736   86733      24   86739   86733      24   86739   86736      25
   86745   86742      24   86748   86742      24   86748   86745      25   86754
   86751      24   86757   86751      24   86757   86754      25   86763   86760
      24   86766   86760      24   86766   86763      25   86772   86769      24
   86775   86769      24   86775   86772      25   86781   86778      24   86784
   86778      24   86784   86781      25   86790   86787      24   86793   86787
      24   86793   86790      25   86799   86796      24   86802   86796      24
   86802   86799      25   86808   86805      24   86811   86805      24   86811
   86808      25   86817   86814      24   86820   86814      24   86820   86817
      25   86826   86823      24   86829   86823      24   86829   86826      25
   86835   86832      24   86838   86832      24   86838   86835      25   86844
   86841      24   86847   86841      24   86847   86844      25   86853   86850
      24   86856   86850      24   86856   86853      25   86862   86859      24
   86865   86859      24   86865   86862      25   86871   86868      24   86874
   86868      24   86874   86871      25   86880   86877      24   86883   86877
      24   86883   86880      25   86889   86886      24   86892   86886      24
   86892   86889      25   86898   86895      24   86901   86895      24   86901
   86898      25   86907   86904      24   86910   86904      24   86910   86907
      25   86916   86913      24   86919   86913      24   86919   86916      25
   86925   86922      24   86928   86922      24   86928   86925      25   86934
   86931      24   86937   86931      24   86937   86934      25   86943   86940
      24   86946   86940      24   86946   86943      25   86952   86949      24
   86955   86949      24   86955   86952      25   86961   86958      24   86964
   86958      24   86964   86961      25   86970   86967      24   86973   86967
      24   86973   86970      25   86979   86976      24   86982   86976      24
   86982   86979      25   86988   86985      24   86991   86985      24   86991
   86988      25   86997   86994      24   87000   86994      24   87000   86997
      25   87006   87003      24   87009   87003      24   87009   87006      25
   87015   87012      24   87018   87012      24   87018   87015      25   87024
   87021      24   87027   87021      24   87027   87024      25   87033   87030
      24   87036   87030      24   87036   87033      25   87042   87039      24
   87045   87039      24   87045   87042      25   87051   87048      24   87054
   87048      24   87054   87051      25   87060   87057      24   87063   87057
      24   87063   87060      25   87069   87066      24   87072   87066      24
   87072   87069      25   87078   87075      24   87081   87075      24   87081
   87078      25   87087   87084      24   87090   87084      24   87090   87087
      25   87096   87093      24   87099   87093      24   87099   87096      25
   87105   87102      24   87108   87102      24   87108   87105      25   87114
   87111      24   87117   87111      24   87117   87114      25   87123   87120
      24   87126   87120      24   87126   87123      25   87132   87129      24
   87135   87129      24   87135   87132      25   87141   87138      24   87144
   87138      24   87144   87141      25   87150   87147      24   87153   87147
      24   87153   87150      25   87159   87156      24   87162   87156      24
   87162   87159      25   87168   87165      24   87171   87165      24   87171
   87168      25   87177   87174      24   87180   87174      24   87180   87177
      25   87186   87183      24   87189   87183      24   87189   87186      25
   87195   87192      24   87198   87192      24   87198   87195      25   87204
   87201      24   87207   87201      24   87207   87204      25   87213   87210
      24   87216   87210      24   87216   87213      25   87222   87219      24
   87225   87219      24   87225   87222      25   87231   87228      24   87234
   87228      24   87234   87231      25   87240   87237      24   87243   87237
      24   87243   87240      25   87249   87246      24   87252   87246      24
   87252   87249      25   87258   87255      24   87261   87255      24   87261
   87258      25   87267   87264      24   87270   87264      24   87270   87267
      25   87276   87273      24   87279   87273      24   87279   87276      25
   87285   87282      24   87288   87282      24   87288   87285      25   87294
   87291      24   87297   87291      24   87297   87294      25   87303   87300
      24   87306   87300      24   87306   87303      25   87312   87309      24
   87315   87309      24   87315   87312      25   87321   87318      24   87324
   87318      24   87324   87321      25   87330   87327      24   87333   87327
      24   87333   87330      25   87339   87336      24   87342   87336      24
   87342   87339      25   87348   87345      24   87351   87345      24   87351
   87348      25   87357   87354      24   87360   87354      24   87360   87357
      25   87366   87363      24   87369   87363      24   87369   87366      25
   87375   87372      24   87378   87372      24   87378   87375      25   87384
   87381      24   87387   87381      24   87387   87384      25   87393   87390
      24   87396   87390      24   87396   87393      25   87402   87399      24
   87405   87399      24   87405   87402      25   87411   87408      24   87414
   87408      24   87414   87411      25   87420   87417      24   87423   87417
      24   87423   87420      25   87429   87426      24   87432   87426      24
   87432   87429      25   87438   87435      24   87441   87435      24   87441
   87438      25   87447   87444      24   87450   87444      24   87450   87447
      25   87456   87453      24   87459   87453      24   87459   87456      25
   87465   87462      24   87468   87462      24   87468   87465      25   87474
   87471      24   87477   87471      24   87477   87474      25   87483   87480
      24   87486   87480      24   87486   87483      25   87492   87489      24
   87495   87489      24   87495   87492      25   87501   87498      24   87504
   87498      24   87504   87501      25   87510   87507      24   87513   87507
      24   87513   87510      25   87519   87516      24   87522   87516      24
   87522   87519      25   87528   87525      24   87531   87525      24   87531
   87528      25   87537   87534      24   87540   87534      24   87540   87537
      25   87546   87543      24   87549   87543      24   87549   87546      25
   87555   87552      24   87558   87552      24   87558   87555      25   87564
   87561      24   87567   87561      24   87567   87564      25   87573   87570
      24   87576   87570      24   87576   87573      25   87582   87579      24
   87585   87579      24   87585   87582      25   87591   87588      24   87594
   87588      24   87594   87591      25   87600   87597      24   87603   87597
      24   87603   87600      25   87609   87606      24   87612   87606      24
   87612   87609      25   87618   87615      24   87621   87615      24   87621
   87618      25   87627   87624      24   87630   87624      24   87630   87627
      25   87636   87633      24   87639   87633      24   87639   87636      25
   87645   87642      24   87648   87642      24   87648   87645      25   87654
   87651      24   87657   87651      24   87657   87654      25   87663   87660
      24   87666   87660      24   87666   87663      25   87672   87669      24
   87675   87669      24   87675   87672      25   87681   87678      24   87684
   87678      24   87684   87681      25   87690   87687      24   87693   87687
      24   87693   87690      25   87699   87696      24   87702   87696      24
   87702   87699      25   87708   87705      24   87711   87705      24   87711
   87708      25   87717   87714      24   87720   87714      24   87720   87717
      25   87726   87723      24   87729   87723      24   87729   87726      25
   87735   87732      24   87738   87732      24   87738   87735      25   87744
   87741      24   87747   87741      24   87747   87744      25   87753   87750
      24   87756   87750      24   87756   87753      25   87762   87759      24
   87765   87759      24   87765   87762      25   87771   87768      24   87774
   87768      24   87774   87771      25   87780   87777      24   87783   87777
      24   87783   87780      25   87789   87786      24   87792   87786      24
   87792   87789      25   87798   87795      24   87801   87795      24   87801
   87798      25   87807   87804      24   87810   87804      24   87810   87807
      25   87816   87813      24   87819   87813      24   87819   87816      25
   87825   87822      24   87828   87822      24   87828   87825      25   87834
   87831      24   87837   87831      24   87837   87834      25   87843   87840
      24   87846   87840      24   87846   87843      25   87852   87849      24
   87855   87849      24   87855   87852      25   87861   87858      24   87864
   87858      24   87864   87861      25   87870   87867      24   87873   87867
      24   87873   87870      25   87879   87876      24   87882   87876      24
   87882   87879      25   87888   87885      24   87891   87885      24   87891
   87888      25   87897   87894      24   87900   87894      24   87900   87897
      25   87906   87903      24   87909   87903      24   87909   87906      25
   87915   87912      24   87918   87912      24   87918   87915      25   87924
   87921      24   87927   87921      24   87927   87924      25   87933   87930
      24   87936   87930      24   87936   87933      25   87942   87939      24
   87945   87939      24   87945   87942      25   87951   87948      24   87954
   87948      24   87954   87951      25   87960   87957      24   87963   87957
      24   87963   87960      25   87969   87966      24   87972   87966      24
   87972   87969      25   87978   87975      24   87981   87975      24   87981
   87978      25   87987   87984      24   87990   87984      24   87990   87987
      25   87996   87993      24   87999   87993      24   87999   87996      25
   88005   88002      24   88008   88002      24   88008   88005      25   88014
   88011      24   88017   88011      24   88017   88014      25   88023   88020
      24   88026   88020      24   88026   88023      25   88032   88029      24
   88035   88029      24   88035   88032      25   88041   88038      24   88044
   88038      24   88044   88041      25   88050   88047      24   88053   88047
      24   88053   88050      25   88059   88056      24   88062   88056      24
   88062   88059      25   88068   88065      24   88071   88065      24   88071
   88068      25   88077   88074      24   88080   88074      24   88080   88077
      25   88086   88083      24   88089   88083      24   88089   88086      25
   88095   88092      24   88098   88092      24   88098   88095      25   88104
   88101      24   88107   88101      24   88107   88104      25   88113   88110
      24   88116   88110      24   88116   88113      25   88122   88119      24
   88125   88119      24   88125   88122      25   88131   88128      24   88134
   88128      24   88134   88131      25   88140   88137      24   88143   88137
      24   88143   88140      25   88149   88146      24   88152   88146      24
   88152   88149      25   88158   88155      24   88161   88155      24   88161
   88158      25   88167   88164      24   88170   88164      24   88170   88167
      25   88176   88173      24   88179   88173      24   88179   88176      25
   88185   88182      24   88188   88182      24   88188   88185      25   88194
   88191      24   88197   88191      24   88197   88194      25   88203   88200
      24   88206   88200      24   88206   88203      25   88212   88209      24
   88215   88209      24   88215   88212      25   88221   88218      24   88224
   88218      24   88224   88221      25   88230   88227      24   88233   88227
      24   88233   88230      25   88239   88236      24   88242   88236      24
   88242   88239      25   88248   88245      24   88251   88245      24   88251
   88248      25   88257   88254      24   88260   88254      24   88260   88257
      25   88266   88263      24   88269   88263      24   88269   88266      25
   88275   88272      24   88278   88272      24   88278   88275      25   88284
   88281      24   88287   88281      24   88287   88284      25   88293   88290
      24   88296   88290      24   88296   88293      25   88302   88299      24
   88305   88299      24   88305   88302      25   88311   88308      24   88314
   88308      24   88314   88311      25   88320   88317      24   88323   88317
      24   88323   88320      25   88329   88326      24   88332   88326      24
   88332   88329      25   88338   88335      24   88341   88335      24   88341
   88338      25   88347   88344      24   88350   88344      24   88350   88347
      25   88356   88353      24   88359   88353      24   88359   88356      25
   88365   88362      24   88368   88362      24   88368   88365      25   88374
   88371      24   88377   88371      24   88377   88374      25   88383   88380
      24   88386   88380      24   88386   88383      25   88392   88389      24
   88395   88389      24   88395   88392      25   88401   88398      24   88404
   88398      24   88404   88401      25   88410   88407      24   88413   88407
      24   88413   88410      25   88419   88416      24   88422   88416      24
   88422   88419      25   88428   88425      24   88431   88425      24   88431
   88428      25   88437   88434      24   88440   88434      24   88440   88437
      25   88446   88443      24   88449   88443      24   88449   88446      25
   88455   88452      24   88458   88452      24   88458   88455      25   88464
   88461      24   88467   88461      24   88467   88464      25   88473   88470
      24   88476   88470      24   88476   88473      25   88482   88479      24
   88485   88479      24   88485   88482      25   88491   88488      24   88494
   88488      24   88494   88491      25   88500   88497      24   88503   88497
      24   88503   88500      25   88509   88506      24   88512   88506      24
   88512   88509      25   88518   88515      24   88521   88515      24   88521
   88518      25   88527   88524      24   88530   88524      24   88530   88527
      25   88536   88533      24   88539   88533      24   88539   88536      25
   88545   88542      24   88548   88542      24   88548   88545      25   88554
   88551      24   88557   88551      24   88557   88554      25   88563   88560
      24   88566   88560      24   88566   88563      25   88572   88569      24
   88575   88569      24   88575   88572      25   88581   88578      24   88584
   88578      24   88584   88581      25   88590   88587      24   88593   88587
      24   88593   88590      25   88599   88596      24   88602   88596      24
   88602   88599      25   88608   88605      24   88611   88605      24   88611
   88608      25   88617   88614      24   88620   88614      24   88620   88617
      25   88626   88623      24   88629   88623      24   88629   88626      25
   88635   88632      24   88638   88632      24   88638   88635      25   88644
   88641      24   88647   88641      24   88647   88644      25   88653   88650
      24   88656   88650      24   88656   88653      25   88662   88659      24
   88665   88659      24   88665   88662      25   88671   88668      24   88674
   88668      24   88674   88671      25   88680   88677      24   88683   88677
      24   88683   88680      25   88689   88686      24   88692   88686      24
   88692   88689      25   88698   88695      24   88701   88695      24   88701
   88698      25   88707   88704      24   88710   88704      24   88710   88707
      25   88716   88713      24   88719   88713      24   88719   88716      25
   88725   88722      24   88728   88722      24   88728   88725      25   88734
   88731      24   88737   88731      24   88737   88734      25   88743   88740
      24   88746   88740      24   88746   88743      25   88752   88749      24
   88755   88749      24   88755   88752      25   88761   88758      24   88764
   88758      24   88764   88761      25   88770   88767      24   88773   88767
      24   88773   88770      25   88779   88776      24   88782   88776      24
   88782   88779      25   88788   88785      24   88791   88785      24   88791
   88788      25   88797   88794      24   88800   88794      24   88800   88797
      25   88806   88803      24   88809   88803      24   88809   88806      25
   88815   88812      24   88818   88812      24   88818   88815      25   88824
   88821      24   88827   88821      24   88827   88824      25   88833   88830
      24   88836   88830      24   88836   88833      25   88842   88839      24
   88845   88839      24   88845   88842      25   88851   88848      24   88854
   88848      24   88854   88851      25   88860   88857      24   88863   88857
      24   88863   88860      25   88869   88866      24   88872   88866      24
   88872   88869      25   88878   88875      24   88881   88875      24   88881
   88878      25   88887   88884      24   88890   88884      24   88890   88887
      25   88896   88893      24   88899   88893      24   88899   88896      25
   88905   88902      24   88908   88902      24   88908   88905      25   88914
   88911      24   88917   88911      24   88917   88914      25   88923   88920
      24   88926   88920      24   88926   88923      25   88932   88929      24
   88935   88929      24   88935   88932      25   88941   88938      24   88944
   88938      24   88944   88941      25   88950   88947      24   88953   88947
      24   88953   88950      25   88959   88956      24   88962   88956      24
   88962   88959      25   88968   88965      24   88971   88965      24   88971
   88968      25   88977   88974      24   88980   88974      24   88980   88977
      25   88986   88983      24   88989   88983      24   88989   88986      25
   88995   88992      24   88998   88992      24   88998   88995      25   89004
   89001      24   89007   89001      24   89007   89004      25   89013   89010
      24   89016   89010      24   89016   89013      25   89022   89019      24
   89025   89019      24   89025   89022      25   89031   89028      24   89034
   89028      24   89034   89031      25   89040   89037      24   89043   89037
      24   89043   89040      25   89049   89046      24   89052   89046      24
   89052   89049      25   89058   89055      24   89061   89055      24   89061
   89058      25   89067   89064      24   89070   89064      24   89070   89067
      25   89076   89073      24   89079   89073      24   89079   89076      25
   89085   89082      24   89088   89082      24   89088   89085      25   89094
   89091      24   89097   89091      24   89097   89094      25   89103   89100
      24   89106   89100      24   89106   89103      25   89112   89109      24
   89115   89109      24   89115   89112      25   89121   89118      24   89124
   89118      24   89124   89121      25   89130   89127      24   89133   89127
      24   89133   89130      25   89139   89136      24   89142   89136      24
   89142   89139      25   89148   89145      24   89151   89145      24   89151
   89148      25   89157   89154      24   89160   89154      24   89160   89157
      25   89166   89163      24   89169   89163      24   89169   89166      25
   89175   89172      24   89178   89172      24   89178   89175      25   89184
   89181      24   89187   89181      24   89187   89184      25   89193   89190
      24   89196   89190      24   89196   89193      25   89202   89199      24
   89205   89199      24   89205   89202      25   89211   89208      24   89214
   89208      24   89214   89211      25   89220   89217      24   89223   89217
      24   89223   89220      25   89229   89226      24   89232   89226      24
   89232   89229      25   89238   89235      24   89241   89235      24   89241
   89238      25   89247   89244      24   89250   89244      24   89250   89247
      25   89256   89253      24   89259   89253      24   89259   89256      25
   89265   89262      24   89268   89262      24   89268   89265      25   89274
   89271      24   89277   89271      24   89277   89274      25   89283   89280
      24   89286   89280      24   89286   89283      25   89292   89289      24
   89295   89289      24   89295   89292      25   89301   89298      24   89304
   89298      24   89304   89301      25   89310   89307      24   89313   89307
      24   89313   89310      25   89319   89316      24   89322   89316      24
   89322   89319      25   89328   89325      24   89331   89325      24   89331
   89328      25   89337   89334      24   89340   89334      24   89340   89337
      25   89346   89343      24   89349   89343      24   89349   89346      25
   89355   89352      24   89358   89352      24   89358   89355      25   89364
   89361      24   89367   89361      24   89367   89364      25   89373   89370
      24   89376   89370      24   89376   89373      25   89382   89379      24
   89385   89379      24   89385   89382      25   89391   89388      24   89394
   89388      24   89394   89391      25   89400   89397      24   89403   89397
      24   89403   89400      25   89409   89406      24   89412   89406      24
   89412   89409      25   89418   89415      24   89421   89415      24   89421
   89418      25   89427   89424      24   89430   89424      24   89430   89427
      25   89436   89433      24   89439   89433      24   89439   89436      25
   89445   89442      24   89448   89442      24   89448   89445      25   89454
   89451      24   89457   89451      24   89457   89454      25   89463   89460
      24   89466   89460      24   89466   89463      25   89472   89469      24
   89475   89469      24   89475   89472      25   89481   89478      24   89484
   89478      24   89484   89481      25   89490   89487      24   89493   89487
      24   89493   89490      25   89499   89496      24   89502   89496      24
   89502   89499      25   89508   89505      24   89511   89505      24   89511
   89508      25   89517   89514      24   89520   89514      24   89520   89517
      25   89526   89523      24   89529   89523      24   89529   89526      25
   89535   89532      24   89538   89532      24   89538   89535      25   89544
   89541      24   89547   89541      24   89547   89544      25   89553   89550
      24   89556   89550      24   89556   89553      25   89562   89559      24
   89565   89559      24   89565   89562      25   89571   89568      24   89574
   89568      24   89574   89571      25   89580   89577      24   89583   89577
      24   89583   89580      25   89589   89586      24   89592   89586      24
   89592   89589      25   89598   89595      24   89601   89595      24   89601
   89598      25   89607   89604      24   89610   89604      24   89610   89607
      25   89616   89613      24   89619   89613      24   89619   89616      25
   89625   89622      24   89628   89622      24   89628   89625      25   89634
   89631      24   89637   89631      24   89637   89634      25   89643   89640
      24   89646   89640      24   89646   89643      25   89652   89649      24
   89655   89649      24   89655   89652      25   89661   89658      24   89664
   89658      24   89664   89661      25   89670   89667      24   89673   89667
      24   89673   89670      25   89679   89676      24   89682   89676      24
   89682   89679      25   89688   89685      24   89691   89685      24   89691
   89688      25   89697   89694      24   89700   89694      24   89700   89697
      25   89706   89703      24   89709   89703      24   89709   89706      25
   89715   89712      24   89718   89712      24   89718   89715      25   89724
   89721      24   89727   89721      24   89727   89724      25   89733   89730
      24   89736   89730      24   89736   89733      25   89742   89739      24
   89745   89739      24   89745   89742      25   89751   89748      24   89754
   89748      24   89754   89751      25   89760   89757      24   89763   89757
      24   89763   89760      25   89769   89766      24   89772   89766      24
   89772   89769      25   89778   89775      24   89781   89775      24   89781
   89778      25   89787   89784      24   89790   89784      24   89790   89787
      25   89796   89793      24   89799   89793      24   89799   89796      25
   89805   89802      24   89808   89802      24   89808   89805      25   89814
   89811      24   89817   89811      24   89817   89814      25   89823   89820
      24   89826   89820      24   89826   89823      25   89832   89829      24
   89835   89829      24   89835   89832      25   89841   89838      24   89844
   89838      24   89844   89841      25   89850   89847      24   89853   89847
      24   89853   89850      25   89859   89856      24   89862   89856      24
   89862   89859      25   89868   89865      24   89871   89865      24   89871
   89868      25   89877   89874      24   89880   89874      24   89880   89877
      25   89886   89883      24   89889   89883      24   89889   89886      25
   89895   89892      24   89898   89892      24   89898   89895      25   89904
   89901      24   89907   89901      24   89907   89904      25   89913   89910
      24   89916   89910      24   89916   89913      25   89922   89919      24
   89925   89919      24   89925   89922      25   89931   89928      24   89934
   89928      24   89934   89931      25   89940   89937      24   89943   89937
      24   89943   89940      25   89949   89946      24   89952   89946      24
   89952   89949      25   89958   89955      24   89961   89955      24   89961
   89958      25   89967   89964      24   89970   89964      24   89970   89967
      25   89976   89973      24   89979   89973      24   89979   89976      25
   89985   89982      24   89988   89982      24   89988   89985      25   89994
   89991      24   89997   89991      24   89997   89994      25   90003   90000
      24   90006   90000      24   90006   90003      25   90012   90009      24
   90015   90009      24   90015   90012      25   90021   90018      24   90024
   90018      24   90024   90021      25   90030   90027      24   90033   90027
      24   90033   90030      25   90039   90036      24   90042   90036      24
   90042   90039      25   90048   90045      24   90051   90045      24   90051
   90048      25   90057   90054      24   90060   90054      24   90060   90057
      25   90066   90063      24   90069   90063      24   90069   90066      25
   90075   90072      24   90078   90072      24   90078   90075      25   90084
   90081      24   90087   90081      24   90087   90084      25   90093   90090
      24   90096   90090      24   90096   90093      25   90102   90099      24
   90105   90099      24   90105   90102      25   90111   90108      24   90114
   90108      24   90114   90111      25   90120   90117      24   90123   90117
      24   90123   90120      25   90129   90126      24   90132   90126      24
   90132   90129      25   90138   90135      24   90141   90135      24   90141
   90138      25   90147   90144      24   90150   90144      24   90150   90147
      25   90156   90153      24   90159   90153      24   90159   90156      25
   90165   90162      24   90168   90162      24   90168   90165      25   90174
   90171      24   90177   90171      24   90177   90174      25   90183   90180
      24   90186   90180      24   90186   90183      25   90192   90189      24
   90195   90189      24   90195   90192      25   90201   90198      24   90204
   90198      24   90204   90201      25   90210   90207      24   90213   90207
      24   90213   90210      25   90219   90216      24   90222   90216      24
   90222   90219      25   90228   90225      24   90231   90225      24   90231
   90228      25   90237   90234      24   90240   90234      24   90240   90237
      25   90246   90243      24   90249   90243      24   90249   90246      25
   90255   90252      24   90258   90252      24   90258   90255      25   90264
   90261      24   90267   90261      24   90267   90264      25   90273   90270
      24   90276   90270      24   90276   90273      25   90282   90279      24
   90285   90279      24   90285   90282      25   90291   90288      24   90294
   90288      24   90294   90291      25   90300   90297      24   90303   90297
      24   90303   90300      25   90309   90306      24   90312   90306      24
   90312   90309      25   90318   90315      24   90321   90315      24   90321
   90318      25   90327   90324      24   90330   90324      24   90330   90327
      25   90336   90333      24   90339   90333      24   90339   90336      25
   90345   90342      24   90348   90342      24   90348   90345      25   90354
   90351      24   90357   90351      24   90357   90354      25   90363   90360
      24   90366   90360      24   90366   90363      25   90372   90369      24
   90375   90369      24   90375   90372      25   90381   90378      24   90384
   90378      24   90384   90381      25   90390   90387      24   90393   90387
      24   90393   90390      25   90399   90396      24   90402   90396      24
   90402   90399      25   90408   90405      24   90411   90405      24   90411
   90408      25   90417   90414      24   90420   90414      24   90420   90417
      25   90426   90423      24   90429   90423      24   90429   90426      25
   90435   90432      24   90438   90432      24   90438   90435      25   90444
   90441      24   90447   90441      24   90447   90444      25   90453   90450
      24   90456   90450      24   90456   90453      25   90462   90459      24
   90465   90459      24   90465   90462      25   90471   90468      24   90474
   90468      24   90474   90471      25   90480   90477      24   90483   90477
      24   90483   90480      25   90489   90486      24   90492   90486      24
   90492   90489      25   90498   90495      24   90501   90495      24   90501
   90498      25   90507   90504      24   90510   90504      24   90510   90507
      25   90516   90513      24   90519   90513      24   90519   90516      25
   90525   90522      24   90528   90522      24   90528   90525      25   90534
   90531      24   90537   90531      24   90537   90534      25   90543   90540
      24   90546   90540      24   90546   90543      25   90552   90549      24
   90555   90549      24   90555   90552      25   90561   90558      24   90564
   90558      24   90564   90561      25   90570   90567      24   90573   90567
      24   90573   90570      25   90579   90576      24   90582   90576      24
   90582   90579      25   90588   90585      24   90591   90585      24   90591
   90588      25   90597   90594      24   90600   90594      24   90600   90597
      25   90606   90603      24   90609   90603      24   90609   90606      25
   90615   90612      24   90618   90612      24   90618   90615      25   90624
   90621      24   90627   90621      24   90627   90624      25   90633   90630
      24   90636   90630      24   90636   90633      25   90642   90639      24
   90645   90639      24   90645   90642      25   90651   90648      24   90654
   90648      24   90654   90651      25   90660   90657      24   90663   90657
      24   90663   90660      25   90669   90666      24   90672   90666      24
   90672   90669      25   90678   90675      24   90681   90675      24   90681
   90678      25   90687   90684      24   90690   90684      24   90690   90687
      25   90696   90693      24   90699   90693      24   90699   90696      25
   90705   90702      24   90708   90702      24   90708   90705      25   90714
   90711      24   90717   90711      24   90717   90714      25   90723   90720
      24   90726   90720      24   90726   90723      25   90732   90729      24
   90735   90729      24   90735   90732      25   90741   90738      24   90744
   90738      24   90744   90741      25   90750   90747      24   90753   90747
      24   90753   90750      25   90759   90756      24   90762   90756      24
   90762   90759      25   90768   90765      24   90771   90765      24   90771
   90768      25   90777   90774      24   90780   90774      24   90780   90777
      25   90786   90783      24   90789   90783      24   90789   90786      25
   90795   90792      24   90798   90792      24   90798   90795      25   90804
   90801      24   90807   90801      24   90807   90804      25   90813   90810
      24   90816   90810      24   90816   90813      25   90822   90819      24
   90825   90819      24   90825   90822      25   90831   90828      24   90834
   90828      24   90834   90831      25   90840   90837      24   90843   90837
      24   90843   90840      25   90849   90846      24   90852   90846      24
   90852   90849      25   90858   90855      24   90861   90855      24   90861
   90858      25   90867   90864      24   90870   90864      24   90870   90867
      25   90876   90873      24   90879   90873      24   90879   90876      25
   90885   90882      24   90888   90882      24   90888   90885      25   90894
   90891      24   90897   90891      24   90897   90894      25   90903   90900
      24   90906   90900      24   90906   90903      25   90912   90909      24
   90915   90909      24   90915   90912      25   90921   90918      24   90924
   90918      24   90924   90921      25   90930   90927      24   90933   90927
      24   90933   90930      25   90939   90936      24   90942   90936      24
   90942   90939      25   90948   90945      24   90951   90945      24   90951
   90948      25   90957   90954      24   90960   90954      24   90960   90957
      25   90966   90963      24   90969   90963      24   90969   90966      25
   90975   90972      24   90978   90972      24   90978   90975      25   90984
   90981      24   90987   90981      24   90987   90984      25   90993   90990
      24   90996   90990      24   90996   90993      25   91002   90999      24
   91005   90999      24   91005   91002      25   91011   91008      24   91014
   91008      24   91014   91011      25   91020   91017      24   91023   91017
      24   91023   91020      25   91029   91026      24   91032   91026      24
   91032   91029      25   91038   91035      24   91041   91035      24   91041
   91038      25   91047   91044      24   91050   91044      24   91050   91047
      25   91056   91053      24   91059   91053      24   91059   91056      25
   91065   91062      24   91068   91062      24   91068   91065      25   91074
   91071      24   91077   91071      24   91077   91074      25   91083   91080
      24   91086   91080      24   91086   91083      25   91092   91089      24
   91095   91089      24   91095   91092      25   91101   91098      24   91104
   91098      24   91104   91101      25   91110   91107      24   91113   91107
      24   91113   91110      25   91119   91116      24   91122   91116      24
   91122   91119      25   91128   91125      24   91131   91125      24   91131
   91128      25   91137   91134      24   91140   91134      24   91140   91137
      25   91146   91143      24   91149   91143      24   91149   91146      25
   91155   91152      24   91158   91152      24   91158   91155      25   91164
   91161      24   91167   91161      24   91167   91164      25   91173   91170
      24   91176   91170      24   91176   91173      25   91182   91179      24
   91185   91179      24   91185   91182      25   91191   91188      24   91194
   91188      24   91194   91191      25   91200   91197      24   91203   91197
      24   91203   91200      25   91209   91206      24   91212   91206      24
   91212   91209      25   91218   91215      24   91221   91215      24   91221
   91218      25   91227   91224      24   91230   91224      24   91230   91227
      25   91236   91233      24   91239   91233      24   91239   91236      25
   91245   91242      24   91248   91242      24   91248   91245      25   91254
   91251      24   91257   91251      24   91257   91254      25   91263   91260
      24   91266   91260      24   91266   91263      25   91272   91269      24
   91275   91269      24   91275   91272      25   91281   91278      24   91284
   91278      24   91284   91281      25   91290   91287      24   91293   91287
      24   91293   91290      25   91299   91296      24   91302   91296      24
   91302   91299      25   91308   91305      24   91311   91305      24   91311
   91308      25   91317   91314      24   91320   91314      24   91320   91317
      25   91326   91323      24   91329   91323      24   91329   91326      25
   91335   91332      24   91338   91332      24   91338   91335      25   91344
   91341      24   91347   91341      24   91347   91344      25   91353   91350
      24   91356   91350      24   91356   91353      25   91362   91359      24
   91365   91359      24   91365   91362      25   91371   91368      24   91374
   91368      24   91374   91371      25   91380   91377      24   91383   91377
      24   91383   91380      25   91389   91386      24   91392   91386      24
   91392   91389      25   91398   91395      24   91401   91395      24   91401
   91398      25   91407   91404      24   91410   91404      24   91410   91407
      25   91416   91413      24   91419   91413      24   91419   91416      25
   91425   91422      24   91428   91422      24   91428   91425      25   91434
   91431      24   91437   91431      24   91437   91434      25   91443   91440
      24   91446   91440      24   91446   91443      25   91452   91449      24
   91455   91449      24   91455   91452      25   91461   91458      24   91464
   91458      24   91464   91461      25   91470   91467      24   91473   91467
      24   91473   91470      25   91479   91476      24   91482   91476      24
   91482   91479      25   91488   91485      24   91491   91485      24   91491
   91488      25   91497   91494      24   91500   91494      24   91500   91497
      25   91506   91503      24   91509   91503      24   91509   91506      25
   91515   91512      24   91518   91512      24   91518   91515      25   91524
   91521      24   91527   91521      24   91527   91524      25   91533   91530
      24   91536   91530      24   91536   91533      25   91542   91539      24
   91545   91539      24   91545   91542      25   91551   91548      24   91554
   91548      24   91554   91551      25   91560   91557      24   91563   91557
      24   91563   91560      25   91569   91566      24   91572   91566      24
   91572   91569      25   91578   91575      24   91581   91575      24   91581
   91578      25   91587   91584      24   91590   91584      24   91590   91587
      25   91596   91593      24   91599   91593      24   91599   91596      25
   91605   91602      24   91608   91602      24   91608   91605      25   91614
   91611      24   91617   91611      24   91617   91614      25   91623   91620
      24   91626   91620      24   91626   91623      25   91632   91629      24
   91635   91629      24   91635   91632      25   91641   91638      24   91644
   91638      24   91644   91641      25   91650   91647      24   91653   91647
      24   91653   91650      25   91659   91656      24   91662   91656      24
   91662   91659      25   91668   91665      24   91671   91665      24   91671
   91668      25   91677   91674      24   91680   91674      24   91680   91677
      25   91686   91683      24   91689   91683      24   91689   91686      25
   91695   91692      24   91698   91692      24   91698   91695      25   91704
   91701      24   91707   91701      24   91707   91704      25   91713   91710
      24   91716   91710      24   91716   91713      25   91722   91719      24
   91725   91719      24   91725   91722      25   91731   91728      24   91734
   91728      24   91734   91731      25   91740   91737      24   91743   91737
      24   91743   91740      25   91749   91746      24   91752   91746      24
   91752   91749      25   91758   91755      24   91761   91755      24   91761
   91758      25   91767   91764      24   91770   91764      24   91770   91767
      25   91776   91773      24   91779   91773      24   91779   91776      25
   91785   91782      24   91788   91782      24   91788   91785      25   91794
   91791      24   91797   91791      24   91797   91794      25   91803   91800
      24   91806   91800      24   91806   91803      25   91812   91809      24
   91815   91809      24   91815   91812      25   91821   91818      24   91824
   91818      24   91824   91821      25   91830   91827      24   91833   91827
      24   91833   91830      25   91839   91836      24   91842   91836      24
   91842   91839      25   91848   91845      24   91851   91845      24   91851
   91848      25   91857   91854      24   91860   91854      24   91860   91857
      25   91866   91863      24   91869   91863      24   91869   91866      25
   91875   91872      24   91878   91872      24   91878   91875      25   91884
   91881      24   91887   91881      24   91887   91884      25   91893   91890
      24   91896   91890      24   91896   91893      25   91902   91899      24
   91905   91899      24   91905   91902      25   91911   91908      24   91914
   91908      24   91914   91911      25   91920   91917      24   91923   91917
      24   91923   91920      25   91929   91926      24   91932   91926      24
   91932   91929      25   91938   91935      24   91941   91935      24   91941
   91938      25   91947   91944      24   91950   91944      24   91950   91947
      25   91956   91953      24   91959   91953      24   91959   91956      25
   91965   91962      24   91968   91962      24   91968   91965      25   91974
   91971      24   91977   91971      24   91977   91974      25   91983   91980
      24   91986   91980      24   91986   91983      25   91992   91989      24
   91995   91989      24   91995   91992      25   92001   91998      24   92004
   91998      24   92004   92001      25   92010   92007      24   92013   92007
      24   92013   92010      25   92019   92016      24   92022   92016      24
   92022   92019      25   92028   92025      24   92031   92025      24   92031
   92028      25   92037   92034      24   92040   92034      24   92040   92037
      25   92046   92043      24   92049   92043      24   92049   92046      25
   92055   92052      24   92058   92052      24   92058   92055      25   92064
   92061      24   92067   92061      24   92067   92064      25   92073   92070
      24   92076   92070      24   92076   92073      25   92082   92079      24
   92085   92079      24   92085   92082      25   92091   92088      24   92094
   92088      24   92094   92091      25   92100   92097      24   92103   92097
      24   92103   92100      25   92109   92106      24   92112   92106      24
   92112   92109      25   92118   92115      24   92121   92115      24   92121
   92118      25   92127   92124      24   92130   92124      24   92130   92127
      25   92136   92133      24   92139   92133      24   92139   92136      25
   92145   92142      24   92148   92142      24   92148   92145      25   92154
   92151      24   92157   92151      24   92157   92154      25   92163   92160
      24   92166   92160      24   92166   92163      25   92172   92169      24
   92175   92169      24   92175   92172      25   92181   92178      24   92184
   92178      24   92184   92181      25   92190   92187      24   92193   92187
      24   92193   92190      25   92199   92196      24   92202   92196      24
   92202   92199      25   92208   92205      24   92211   92205      24   92211
   92208      25   92217   92214      24   92220   92214      24   92220   92217
      25   92226   92223      24   92229   92223      24   92229   92226      25
   92235   92232      24   92238   92232      24   92238   92235      25   92244
   92241      24   92247   92241      24   92247   92244      25   92253   92250
      24   92256   92250      24   92256   92253      25   92262   92259      24
   92265   92259      24   92265   92262      25   92271   92268      24   92274
   92268      24   92274   92271      25   92280   92277      24   92283   92277
      24   92283   92280      25   92289   92286      24   92292   92286      24
   92292   92289      25   92298   92295      24   92301   92295      24   92301
   92298      25   92307   92304      24   92310   92304      24   92310   92307
      25   92316   92313      24   92319   92313      24   92319   92316      25
   92325   92322      24   92328   92322      24   92328   92325      25   92334
   92331      24   92337   92331      24   92337   92334      25   92343   92340
      24   92346   92340      24   92346   92343      25   92352   92349      24
   92355   92349      24   92355   92352      25   92361   92358      24   92364
   92358      24   92364   92361      25   92370   92367      24   92373   92367
      24   92373   92370      25   92379   92376      24   92382   92376      24
   92382   92379      25   92388   92385      24   92391   92385      24   92391
   92388      25   92397   92394      24   92400   92394      24   92400   92397
      25   92406   92403      24   92409   92403      24   92409   92406      25
   92415   92412      24   92418   92412      24   92418   92415      25   92424
   92421      24   92427   92421      24   92427   92424      25   92433   92430
      24   92436   92430      24   92436   92433      25   92442   92439      24
   92445   92439      24   92445   92442      25   92451   92448      24   92454
   92448      24   92454   92451      25   92460   92457      24   92463   92457
      24   92463   92460      25   92469   92466      24   92472   92466      24
   92472   92469      25   92478   92475      24   92481   92475      24   92481
   92478      25   92487   92484      24   92490   92484      24   92490   92487
      25   92496   92493      24   92499   92493      24   92499   92496      25
   92505   92502      24   92508   92502      24   92508   92505      25   92514
   92511      24   92517   92511      24   92517   92514      25   92523   92520
      24   92526   92520      24   92526   92523      25   92532   92529      24
   92535   92529      24   92535   92532      25   92541   92538      24   92544
   92538      24   92544   92541      25   92550   92547      24   92553   92547
      24   92553   92550      25   92559   92556      24   92562   92556      24
   92562   92559      25   92568   92565      24   92571   92565      24   92571
   92568      25   92577   92574      24   92580   92574      24   92580   92577
      25   92586   92583      24   92589   92583      24   92589   92586      25
   92595   92592      24   92598   92592      24   92598   92595      25   92604
   92601      24   92607   92601      24   92607   92604      25   92613   92610
      24   92616   92610      24   92616   92613      25   92622   92619      24
   92625   92619      24   92625   92622      25   92631   92628      24   92634
   92628      24   92634   92631      25   92640   92637      24   92643   92637
      24   92643   92640      25   92649   92646      24   92652   92646      24
   92652   92649      25   92658   92655      24   92661   92655      24   92661
   92658      25   92667   92664      24   92670   92664      24   92670   92667
      25   92676   92673      24   92679   92673      24   92679   92676      25
   92685   92682      24   92688   92682      24   92688   92685      25   92694
   92691      24   92697   92691      24   92697   92694      25   92703   92700
      24   92706   92700      24   92706   92703      25   92712   92709      24
   92715   92709      24   92715   92712      25   92721   92718      24   92724
   92718      24   92724   92721      25   92730   92727      24   92733   92727
      24   92733   92730      25   92739   92736      24   92742   92736      24
   92742   92739      25   92748   92745      24   92751   92745      24   92751
   92748      25   92757   92754      24   92760   92754      24   92760   92757
      25   92766   92763      24   92769   92763      24   92769   92766      25
   92775   92772      24   92778   92772      24   92778   92775      25   92784
   92781      24   92787   92781      24   92787   92784      25   92793   92790
      24   92796   92790      24   92796   92793      25   92802   92799      24
   92805   92799      24   92805   92802      25   92811   92808      24   92814
   92808      24   92814   92811      25   92820   92817      24   92823   92817
      24   92823   92820      25   92829   92826      24   92832   92826      24
   92832   92829      25   92838   92835      24   92841   92835      24   92841
   92838      25   92847   92844      24   92850   92844      24   92850   92847
      25   92856   92853      24   92859   92853      24   92859   92856      25
   92865   92862      24   92868   92862      24   92868   92865      25   92874
   92871      24   92877   92871      24   92877   92874      25   92883   92880
      24   92886   92880      24   92886   92883      25   92892   92889      24
   92895   92889      24   92895   92892      25   92901   92898      24   92904
   92898      24   92904   92901      25   92910   92907      24   92913   92907
      24   92913   92910      25   92919   92916      24   92922   92916      24
   92922   92919      25   92928   92925      24   92931   92925      24   92931
   92928      25   92937   92934      24   92940   92934      24   92940   92937
      25   92946   92943      24   92949   92943      24   92949   92946      25
   92955   92952      24   92958   92952      24   92958   92955      25   92964
   92961      24   92967   92961      24   92967   92964      25   92973   92970
      24   92976   92970      24   92976   92973      25   92982   92979      24
   92985   92979      24   92985   92982      25   92991   92988      24   92994
   92988      24   92994   92991      25   93000   92997      24   93003   92997
      24   93003   93000      25   93009   93006      24   93012   93006      24
   93012   93009      25   93018   93015      24   93021   93015      24   93021
   93018      25   93027   93024      24   93030   93024      24   93030   93027
      25   93036   93033      24   93039   93033      24   93039   93036      25
   93045   93042      24   93048   93042      24   93048   93045      25   93054
   93051      24   93057   93051      24   93057   93054      25   93063   93060
      24   93066   93060      24   93066   93063      25   93072   93069      24
   93075   93069      24   93075   93072      25   93081   93078      24   93084
   93078      24   93084   93081      25   93090   93087      24   93093   93087
      24   93093   93090      25   93099   93096      24   93102   93096      24
   93102   93099      25   93108   93105      24   93111   93105      24   93111
   93108      25   93117   93114      24   93120   93114      24   93120   93117
      25   93126   93123      24   93129   93123      24   93129   93126      25
   93135   93132      24   93138   93132      24   93138   93135      25   93144
   93141      24   93147   93141      24   93147   93144      25   93153   93150
      24   93156   93150      24   93156   93153      25   93162   93159      24
   93165   93159      24   93165   93162      25   93171   93168      24   93174
   93168      24   93174   93171      25   93180   93177      24   93183   93177
      24   93183   93180      25   93189   93186      24   93192   93186      24
   93192   93189      25   93198   93195      24   93201   93195      24   93201
   93198      25   93207   93204      24   93210   93204      24   93210   93207
      25   93216   93213      24   93219   93213      24   93219   93216      25
   93225   93222      24   93228   93222      24   93228   93225      25   93234
   93231      24   93237   93231      24   93237   93234      25   93243   93240
      24   93246   93240      24   93246   93243      25   93252   93249      24
   93255   93249      24   93255   93252      25   93261   93258      24   93264
   93258      24   93264   93261      25   93270   93267      24   93273   93267
      24   93273   93270      25   93279   93276      24   93282   93276      24
   93282   93279      25   93288   93285      24   93291   93285      24   93291
   93288      25   93297   93294      24   93300   93294      24   93300   93297
      25   93306   93303      24   93309   93303      24   93309   93306      25
   93315   93312      24   93318   93312      24   93318   93315      25   93324
   93321      24   93327   93321      24   93327   93324      25   93333   93330
      24   93336   93330      24   93336   93333      25   93342   93339      24
   93345   93339      24   93345   93342      25   93351   93348      24   93354
   93348      24   93354   93351      25   93360   93357      24   93363   93357
      24   93363   93360      25   93369   93366      24   93372   93366      24
   93372   93369      25   93378   93375      24   93381   93375      24   93381
   93378      25   93387   93384      24   93390   93384      24   93390   93387
      25   93396   93393      24   93399   93393      24   93399   93396      25
   93405   93402      24   93408   93402      24   93408   93405      25   93414
   93411      24   93417   93411      24   93417   93414      25   93423   93420
      24   93426   93420      24   93426   93423      25   93432   93429      24
   93435   93429      24   93435   93432      25   93441   93438      24   93444
   93438      24   93444   93441      25   93450   93447      24   93453   93447
      24   93453   93450      25   93459   93456      24   93462   93456      24
   93462   93459      25   93468   93465      24   93471   93465      24   93471
   93468      25   93477   93474      24   93480   93474      24   93480   93477
      25   93486   93483      24   93489   93483      24   93489   93486      25
   93495   93492      24   93498   93492      24   93498   93495      25   93504
   93501      24   93507   93501      24   93507   93504      25   93513   93510
      24   93516   93510      24   93516   93513      25   93522   93519      24
   93525   93519      24   93525   93522      25   93531   93528      24   93534
   93528      24   93534   93531      25   93540   93537      24   93543   93537
      24   93543   93540      25   93549   93546      24   93552   93546      24
   93552   93549      25   93558   93555      24   93561   93555      24   93561
   93558      25   93567   93564      24   93570   93564      24   93570   93567
      25   93576   93573      24   93579   93573      24   93579   93576      25
   93585   93582      24   93588   93582      24   93588   93585      25   93594
   93591      24   93597   93591      24   93597   93594      25   93603   93600
      24   93606   93600      24   93606   93603      25   93612   93609      24
   93615   93609      24   93615   93612      25   93621   93618      24   93624
   93618      24   93624   93621      25   93630   93627      24   93633   93627
      24   93633   93630      25   93639   93636      24   93642   93636      24
   93642   93639      25   93648   93645      24   93651   93645      24   93651
   93648      25   93657   93654      24   93660   93654      24   93660   93657
      25   93666   93663      24   93669   93663      24   93669   93666      25
   93675   93672      24   93678   93672      24   93678   93675      25   93684
   93681      24   93687   93681      24   93687   93684      25   93693   93690
      24   93696   93690      24   93696   93693      25   93702   93699      24
   93705   93699      24   93705   93702      25   93711   93708      24   93714
   93708      24   93714   93711      25   93720   93717      24   93723   93717
      24   93723   93720      25   93729   93726      24   93732   93726      24
   93732   93729      25   93738   93735      24   93741   93735      24   93741
   93738      25   93747   93744      24   93750   93744      24   93750   93747
      25   93756   93753      24   93759   93753      24   93759   93756      25
   93765   93762      24   93768   93762      24   93768   93765      25   93774
   93771      24   93777   93771      24   93777   93774      25   93783   93780
      24   93786   93780      24   93786   93783      25   93792   93789      24
   93795   93789      24   93795   93792      25   93801   93798      24   93804
   93798      24   93804   93801      25   93810   93807      24   93813   93807
      24   93813   93810      25   93819   93816      24   93822   93816      24
   93822   93819      25   93828   93825      24   93831   93825      24   93831
   93828      25   93837   93834      24   93840   93834      24   93840   93837
      25   93846   93843      24   93849   93843      24   93849   93846      25
   93855   93852      24   93858   93852      24   93858   93855      25   93864
   93861      24   93867   93861      24   93867   93864      25   93873   93870
      24   93876   93870      24   93876   93873      25   93882   93879      24
   93885   93879      24   93885   93882      25   93891   93888      24   93894
   93888      24   93894   93891      25   93900   93897      24   93903   93897
      24   93903   93900      25   93909   93906      24   93912   93906      24
   93912   93909      25   93918   93915      24   93921   93915      24   93921
   93918      25   93927   93924      24   93930   93924      24   93930   93927
      25   93936   93933      24   93939   93933      24   93939   93936      25
   93945   93942      24   93948   93942      24   93948   93945      25   93954
   93951      24   93957   93951      24   93957   93954      25   93963   93960
      24   93966   93960      24   93966   93963      25   93972   93969      24
   93975   93969      24   93975   93972      25   93981   93978      24   93984
   93978      24   93984   93981      25   93990   93987      24   93993   93987
      24   93993   93990      25   93999   93996      24   94002   93996      24
   94002   93999      25   94008   94005      24   94011   94005      24   94011
   94008      25   94017   94014      24   94020   94014      24   94020   94017
      25   94026   94023      24   94029   94023      24   94029   94026      25
   94035   94032      24   94038   94032      24   94038   94035      25   94044
   94041      24   94047   94041      24   94047   94044      25   94053   94050
      24   94056   94050      24   94056   94053      25   94062   94059      24
   94065   94059      24   94065   94062      25   94071   94068      24   94074
   94068      24   94074   94071      25   94080   94077      24   94083   94077
      24   94083   94080      25   94089   94086      24   94092   94086      24
   94092   94089      25   94098   94095      24   94101   94095      24   94101
   94098      25   94107   94104      24   94110   94104      24   94110   94107
      25   94116   94113      24   94119   94113      24   94119   94116      25
   94125   94122      24   94128   94122      24   94128   94125      25   94134
   94131      24   94137   94131      24   94137   94134      25   94143   94140
      24   94146   94140      24   94146   94143      25   94152   94149      24
   94155   94149      24   94155   94152      25   94161   94158      24   94164
   94158      24   94164   94161      25   94170   94167      24   94173   94167
      24   94173   94170      25   94179   94176      24   94182   94176      24
   94182   94179      25   94188   94185      24   94191   94185      24   94191
   94188      25   94197   94194      24   94200   94194      24   94200   94197
      25   94206   94203      24   94209   94203      24   94209   94206      25
   94215   94212      24   94218   94212      24   94218   94215      25   94224
   94221      24   94227   94221      24   94227   94224      25   94233   94230
      24   94236   94230      24   94236   94233      25   94242   94239      24
   94245   94239      24   94245   94242      25   94251   94248      24   94254
   94248      24   94254   94251      25   94260   94257      24   94263   94257
      24   94263   94260      25   94269   94266      24   94272   94266      24
   94272   94269      25   94278   94275      24   94281   94275      24   94281
   94278      25   94287   94284      24   94290   94284      24   94290   94287
      25   94296   94293      24   94299   94293      24   94299   94296      25
   94305   94302      24   94308   94302      24   94308   94305      25   94314
   94311      24   94317   94311      24   94317   94314      25   94323   94320
      24   94326   94320      24   94326   94323      25   94332   94329      24
   94335   94329      24   94335   94332      25   94341   94338      24   94344
   94338      24   94344   94341      25   94350   94347      24   94353   94347
      24   94353   94350      25   94359   94356      24   94362   94356      24
   94362   94359      25   94368   94365      24   94371   94365      24   94371
   94368      25   94377   94374      24   94380   94374      24   94380   94377
      25   94386   94383      24   94389   94383      24   94389   94386      25
   94395   94392      24   94398   94392      24   94398   94395      25   94404
   94401      24   94407   94401      24   94407   94404      25   94413   94410
      24   94416   94410      24   94416   94413      25   94422   94419      24
   94425   94419      24   94425   94422      25   94431   94428      24   94434
   94428      24   94434   94431      25   94440   94437      24   94443   94437
      24   94443   94440      25   94449   94446      24   94452   94446      24
   94452   94449      25   94458   94455      24   94461   94455      24   94461
   94458      25   94467   94464      24   94470   94464      24   94470   94467
      25   94476   94473      24   94479   94473      24   94479   94476      25
   94485   94482      24   94488   94482      24   94488   94485      25   94494
   94491      24   94497   94491      24   94497   94494      25   94503   94500
      24   94506   94500      24   94506   94503      25   94512   94509      24
   94515   94509      24   94515   94512      25   94521   94518      24   94524
   94518      24   94524   94521      25   94530   94527      24   94533   94527
      24   94533   94530      25   94539   94536      24   94542   94536      24
   94542   94539      25   94548   94545      24   94551   94545      24   94551
   94548      25   94557   94554      24   94560   94554      24   94560   94557
      25   94566   94563      24   94569   94563      24   94569   94566      25
   94575   94572      24   94578   94572      24   94578   94575      25   94584
   94581      24   94587   94581      24   94587   94584      25   94593   94590
      24   94596   94590      24   94596   94593      25   94602   94599      24
   94605   94599      24   94605   94602      25   94611   94608      24   94614
   94608      24   94614   94611      25   94620   94617      24   94623   94617
      24   94623   94620      25   94629   94626      24   94632   94626      24
   94632   94629      25   94638   94635      24   94641   94635      24   94641
   94638      25   94647   94644      24   94650   94644      24   94650   94647
      25   94656   94653      24   94659   94653      24   94659   94656      25
   94665   94662      24   94668   94662      24   94668   94665      25   94674
   94671      24   94677   94671      24   94677   94674      25   94683   94680
      24   94686   94680      24   94686   94683      25   94692   94689      24
   94695   94689      24   94695   94692      25   94701   94698      24   94704
   94698      24   94704   94701      25   94710   94707      24   94713   94707
      24   94713   94710      25   94719   94716      24   94722   94716      24
   94722   94719      25   94728   94725      24   94731   94725      24   94731
   94728      25   94737   94734      24   94740   94734      24   94740   94737
      25   94746   94743      24   94749   94743      24   94749   94746      25
   94755   94752      24   94758   94752      24   94758   94755      25   94764
   94761      24   94767   94761      24   94767   94764      25   94773   94770
      24   94776   94770      24   94776   94773      25   94782   94779      24
   94785   94779      24   94785   94782      25   94791   94788      24   94794
   94788      24   94794   94791      25   94800   94797      24   94803   94797
      24   94803   94800      25   94809   94806      24   94812   94806      24
   94812   94809      25   94818   94815      24   94821   94815      24   94821
   94818      25   94827   94824      24   94830   94824      24   94830   94827
      25   94836   94833      24   94839   94833      24   94839   94836      25
   94845   94842      24   94848   94842      24   94848   94845      25   94854
   94851      24   94857   94851      24   94857   94854      25   94863   94860
      24   94866   94860      24   94866   94863      25   94872   94869      24
   94875   94869      24   94875   94872      25   94881   94878      24   94884
   94878      24   94884   94881      25   94890   94887      24   94893   94887
      24   94893   94890      25   94899   94896      24   94902   94896      24
   94902   94899      25   94908   94905      24   94911   94905      24   94911
   94908      25   94917   94914      24   94920   94914      24   94920   94917
      25   94926   94923      24   94929   94923      24   94929   94926      25
   94935   94932      24   94938   94932      24   94938   94935      25   94944
   94941      24   94947   94941      24   94947   94944      25   94953   94950
      24   94956   94950      24   94956   94953      25   94962   94959      24
   94965   94959      24   94965   94962      25   94971   94968      24   94974
   94968      24   94974   94971      25   94980   94977      24   94983   94977
      24   94983   94980      25   94989   94986      24   94992   94986      24
   94992   94989      25   94998   94995      24   95001   94995      24   95001
   94998      25   95007   95004      24   95010   95004      24   95010   95007
      25   95016   95013      24   95019   95013      24   95019   95016      25
   95025   95022      24   95028   95022      24   95028   95025      25   95034
   95031      24   95037   95031      24   95037   95034      25   95043   95040
      24   95046   95040      24   95046   95043      25   95052   95049      24
   95055   95049      24   95055   95052      25   95061   95058      24   95064
   95058      24   95064   95061      25   95070   95067      24   95073   95067
      24   95073   95070      25   95079   95076      24   95082   95076      24
   95082   95079      25   95088   95085      24   95091   95085      24   95091
   95088      25   95097   95094      24   95100   95094      24   95100   95097
      25   95106   95103      24   95109   95103      24   95109   95106      25
   95115   95112      24   95118   95112      24   95118   95115      25   95124
   95121      24   95127   95121      24   95127   95124      25   95133   95130
      24   95136   95130      24   95136   95133      25   95142   95139      24
   95145   95139      24   95145   95142      25   95151   95148      24   95154
   95148      24   95154   95151      25   95160   95157      24   95163   95157
      24   95163   95160      25   95169   95166      24   95172   95166      24
   95172   95169      25   95178   95175      24   95181   95175      24   95181
   95178      25   95187   95184      24   95190   95184      24   95190   95187
      25   95196   95193      24   95199   95193      24   95199   95196      25
   95205   95202      24   95208   95202      24   95208   95205      25   95214
   95211      24   95217   95211      24   95217   95214      25   95223   95220
      24   95226   95220      24   95226   95223      25   95232   95229      24
   95235   95229      24   95235   95232      25   95241   95238      24   95244
   95238      24   95244   95241      25   95250   95247      24   95253   95247
      24   95253   95250      25   95259   95256      24   95262   95256      24
   95262   95259      25   95268   95265      24   95271   95265      24   95271
   95268      25   95277   95274      24   95280   95274      24   95280   95277
      25   95286   95283      24   95289   95283      24   95289   95286      25
   95295   95292      24   95298   95292      24   95298   95295      25   95304
   95301      24   95307   95301      24   95307   95304      25   95313   95310
      24   95316   95310      24   95316   95313      25   95322   95319      24
   95325   95319      24   95325   95322      25   95331   95328      24   95334
   95328      24   95334   95331      25   95340   95337      24   95343   95337
      24   95343   95340      25   95349   95346      24   95352   95346      24
   95352   95349      25   95358   95355      24   95361   95355      24   95361
   95358      25   95367   95364      24   95370   95364      24   95370   95367
      25   95376   95373      24   95379   95373      24   95379   95376      25
   95385   95382      24   95388   95382      24   95388   95385      25   95394
   95391      24   95397   95391      24   95397   95394      25   95403   95400
      24   95406   95400      24   95406   95403      25   95412   95409      24
   95415   95409      24   95415   95412      25   95421   95418      24   95424
   95418      24   95424   95421      25   95430   95427      24   95433   95427
      24   95433   95430      25   95439   95436      24   95442   95436      24
   95442   95439      25   95448   95445      24   95451   95445      24   95451
   95448      25   95457   95454      24   95460   95454      24   95460   95457
      25   95466   95463      24   95469   95463      24   95469   95466      25
   95475   95472      24   95478   95472      24   95478   95475      25   95484
   95481      24   95487   95481      24   95487   95484      25   95493   95490
      24   95496   95490      24   95496   95493      25   95502   95499      24
   95505   95499      24   95505   95502      25   95511   95508      24   95514
   95508      24   95514   95511      25   95520   95517      24   95523   95517
      24   95523   95520      25   95529   95526      24   95532   95526      24
   95532   95529      25   95538   95535      24   95541   95535      24   95541
   95538      25   95547   95544      24   95550   95544      24   95550   95547
      25   95556   95553      24   95559   95553      24   95559   95556      25
   95565   95562      24   95568   95562      24   95568   95565      25   95574
   95571      24   95577   95571      24   95577   95574      25   95583   95580
      24   95586   95580      24   95586   95583      25   95592   95589      24
   95595   95589      24   95595   95592      25   95601   95598      24   95604
   95598      24   95604   95601      25   95610   95607      24   95613   95607
      24   95613   95610      25   95619   95616      24   95622   95616      24
   95622   95619      25   95628   95625      24   95631   95625      24   95631
   95628      25   95637   95634      24   95640   95634      24   95640   95637
      25   95646   95643      24   95649   95643      24   95649   95646      25
   95655   95652      24   95658   95652      24   95658   95655      25   95664
   95661      24   95667   95661      24   95667   95664      25   95673   95670
      24   95676   95670      24   95676   95673      25   95682   95679      24
   95685   95679      24   95685   95682      25   95691   95688      24   95694
   95688      24   95694   95691      25   95700   95697      24   95703   95697
      24   95703   95700      25   95709   95706      24   95712   95706      24
   95712   95709      25   95718   95715      24   95721   95715      24   95721
   95718      25   95727   95724      24   95730   95724      24   95730   95727
      25   95736   95733      24   95739   95733      24   95739   95736      25
   95745   95742      24   95748   95742      24   95748   95745      25   95754
   95751      24   95757   95751      24   95757   95754      25   95763   95760
      24   95766   95760      24   95766   95763      25   95772   95769      24
   95775   95769      24   95775   95772      25   95781   95778      24   95784
   95778      24   95784   95781      25   95790   95787      24   95793   95787
      24   95793   95790      25   95799   95796      24   95802   95796      24
   95802   95799      25   95808   95805      24   95811   95805      24   95811
   95808      25   95817   95814      24   95820   95814      24   95820   95817
      25   95826   95823      24   95829   95823      24   95829   95826      25
   95835   95832      24   95838   95832      24   95838   95835      25   95844
   95841      24   95847   95841      24   95847   95844      25   95853   95850
      24   95856   95850      24   95856   95853      25   95862   95859      24
   95865   95859      24   95865   95862      25   95871   95868      24   95874
   95868      24   95874   95871      25   95880   95877      24   95883   95877
      24   95883   95880      25   95889   95886      24   95892   95886      24
   95892   95889      25   95898   95895      24   95901   95895      24   95901
   95898      25   95907   95904      24   95910   95904      24   95910   95907
      25   95916   95913      24   95919   95913      24   95919   95916      25
   95925   95922      24   95928   95922      24   95928   95925      25   95934
   95931      24   95937   95931      24   95937   95934      25   95943   95940
      24   95946   95940      24   95946   95943      25   95952   95949      24
   95955   95949      24   95955   95952      25   95961   95958      24   95964
   95958      24   95964   95961      25   95970   95967      24   95973   95967
      24   95973   95970      25   95979   95976      24   95982   95976      24
   95982   95979      25   95988   95985      24   95991   95985      24   95991
   95988      25   95997   95994      24   96000   95994      24   96000   95997
      25   96006   96003      24   96009   96003      24   96009   96006      25
   96015   96012      24   96018   96012      24   96018   96015      25   96024
   96021      24   96027   96021      24   96027   96024      25   96033   96030
      24   96036   96030      24   96036   96033      25   96042   96039      24
   96045   96039      24   96045   96042      25   96051   96048      24   96054
   96048      24   96054   96051      25   96060   96057      24   96063   96057
      24   96063   96060      25   96069   96066      24   96072   96066      24
   96072   96069      25   96078   96075      24   96081   96075      24   96081
   96078      25   96087   96084      24   96090   96084      24   96090   96087
      25   96096   96093      24   96099   96093      24   96099   96096      25
   96105   96102      24   96108   96102      24   96108   96105      25   96114
   96111      24   96117   96111      24   96117   96114      25   96123   96120
      24   96126   96120      24   96126   96123      25   96132   96129      24
   96135   96129      24   96135   96132      25   96141   96138      24   96144
   96138      24   96144   96141      25   96150   96147      24   96153   96147
      24   96153   96150      25   96159   96156      24   96162   96156      24
   96162   96159      25   96168   96165      24   96171   96165      24   96171
   96168      25   96177   96174      24   96180   96174      24   96180   96177
      25   96186   96183      24   96189   96183      24   96189   96186      25
   96195   96192      24   96198   96192      24   96198   96195      25   96204
   96201      24   96207   96201      24   96207   96204      25   96213   96210
      24   96216   96210      24   96216   96213      25   96222   96219      24
   96225   96219      24   96225   96222      25   96231   96228      24   96234
   96228      24   96234   96231      25   96240   96237      24   96243   96237
      24   96243   96240      25   96249   96246      24   96252   96246      24
   96252   96249      25   96258   96255      24   96261   96255      24   96261
   96258      25   96267   96264      24   96270   96264      24   96270   96267
      25   96276   96273      24   96279   96273      24   96279   96276      25
   96285   96282      24   96288   96282      24   96288   96285      25   96294
   96291      24   96297   96291      24   96297   96294      25   96303   96300
      24   96306   96300      24   96306   96303      25   96312   96309      24
   96315   96309      24   96315   96312      25   96321   96318      24   96324
   96318      24   96324   96321      25   96330   96327      24   96333   96327
      24   96333   96330      25   96339   96336      24   96342   96336      24
   96342   96339      25   96348   96345      24   96351   96345      24   96351
   96348      25   96357   96354      24   96360   96354      24   96360   96357
      25   96366   96363      24   96369   96363      24   96369   96366      25
   96375   96372      24   96378   96372      24   96378   96375      25   96384
   96381      24   96387   96381      24   96387   96384      25   96393   96390
      24   96396   96390      24   96396   96393      25   96402   96399      24
   96405   96399      24   96405   96402      25   96411   96408      24   96414
   96408      24   96414   96411      25   96420   96417      24   96423   96417
      24   96423   96420      25   96429   96426      24   96432   96426      24
   96432   96429      25   96438   96435      24   96441   96435      24   96441
   96438      25   96447   96444      24   96450   96444      24   96450   96447
      25   96456   96453      24   96459   96453      24   96459   96456      25
   96465   96462      24   96468   96462      24   96468   96465      25   96474
   96471      24   96477   96471      24   96477   96474      25   96483   96480
      24   96486   96480      24   96486   96483      25   96492   96489      24
   96495   96489      24   96495   96492      25   96501   96498      24   96504
   96498      24   96504   96501      25   96510   96507      24   96513   96507
      24   96513   96510      25   96519   96516      24   96522   96516      24
   96522   96519      25   96528   96525      24   96531   96525      24   96531
   96528      25   96537   96534      24   96540   96534      24   96540   96537
      25   96546   96543      24   96549   96543      24   96549   96546      25
   96555   96552      24   96558   96552      24   96558   96555      25   96564
   96561      24   96567   96561      24   96567   96564      25   96573   96570
      24   96576   96570      24   96576   96573      25   96582   96579      24
   96585   96579      24   96585   96582      25   96591   96588      24   96594
   96588      24   96594   96591      25   96600   96597      24   96603   96597
      24   96603   96600      25   96609   96606      24   96612   96606      24
   96612   96609      25   96618   96615      24   96621   96615      24   96621
   96618      25   96627   96624      24   96630   96624      24   96630   96627
      25   96636   96633      24   96639   96633      24   96639   96636      25
   96645   96642      24   96648   96642      24   96648   96645      25   96654
   96651      24   96657   96651      24   96657   96654      25   96663   96660
      24   96666   96660      24   96666   96663      25   96672   96669      24
   96675   96669      24   96675   96672      25   96681   96678      24   96684
   96678      24   96684   96681      25   96690   96687      24   96693   96687
      24   96693   96690      25   96699   96696      24   96702   96696      24
   96702   96699      25   96708   96705      24   96711   96705      24   96711
   96708      25   96717   96714      24   96720   96714      24   96720   96717
      25   96726   96723      24   96729   96723      24   96729   96726      25
   96735   96732      24   96738   96732      24   96738   96735      25   96744
   96741      24   96747   96741      24   96747   96744      25   96753   96750
      24   96756   96750      24   96756   96753      25   96762   96759      24
   96765   96759      24   96765   96762      25   96771   96768      24   96774
   96768      24   96774   96771      25   96780   96777      24   96783   96777
      24   96783   96780      25   96789   96786      24   96792   96786      24
   96792   96789      25   96798   96795      24   96801   96795      24   96801
   96798      25   96807   96804      24   96810   96804      24   96810   96807
      25   96816   96813      24   96819   96813      24   96819   96816      25
   96825   96822      24   96828   96822      24   96828   96825      25   96834
   96831      24   96837   96831      24   96837   96834      25   96843   96840
      24   96846   96840      24   96846   96843      25   96852   96849      24
   96855   96849      24   96855   96852      25   96861   96858      24   96864
   96858      24   96864   96861      25   96870   96867      24   96873   96867
      24   96873   96870      25   96879   96876      24   96882   96876      24
   96882   96879      25   96888   96885      24   96891   96885      24   96891
   96888      25   96897   96894      24   96900   96894      24   96900   96897
      25   96906   96903      24   96909   96903      24   96909   96906      25
   96915   96912      24   96918   96912      24   96918   96915      25   96924
   96921      24   96927   96921      24   96927   96924      25   96933   96930
      24   96936   96930      24   96936   96933      25   96942   96939      24
   96945   96939      24   96945   96942      25   96951   96948      24   96954
   96948      24   96954   96951      25   96960   96957      24   96963   96957
      24   96963   96960      25   96969   96966      24   96972   96966      24
   96972   96969      25   96978   96975      24   96981   96975      24   96981
   96978      25   96987   96984      24   96990   96984      24   96990   96987
      25   96996   96993      24   96999   96993      24   96999   96996      25
   97005   97002      24   97008   97002      24   97008   97005      25   97014
   97011      24   97017   97011      24   97017   97014      25   97023   97020
      24   97026   97020      24   97026   97023      25   97032   97029      24
   97035   97029      24   97035   97032      25   97041   97038      24   97044
   97038      24   97044   97041      25   97050   97047      24   97053   97047
      24   97053   97050      25   97059   97056      24   97062   97056      24
   97062   97059      25   97068   97065      24   97071   97065      24   97071
   97068      25   97077   97074      24   97080   97074      24   97080   97077
      25   97086   97083      24   97089   97083      24   97089   97086      25
   97095   97092      24   97098   97092      24   97098   97095      25   97104
   97101      24   97107   97101      24   97107   97104      25   97113   97110
      24   97116   97110      24   97116   97113      25   97122   97119      24
   97125   97119      24   97125   97122      25   97131   97128      24   97134
   97128      24   97134   97131      25   97140   97137      24   97143   97137
      24   97143   97140      25   97149   97146      24   97152   97146      24
   97152   97149      25   97158   97155      24   97161   97155      24   97161
   97158      25   97167   97164      24   97170   97164      24   97170   97167
      25   97176   97173      24   97179   97173      24   97179   97176      25
   97185   97182      24   97188   97182      24   97188   97185      25   97194
   97191      24   97197   97191      24   97197   97194      25   97203   97200
      24   97206   97200      24   97206   97203      25   97212   97209      24
   97215   97209      24   97215   97212      25   97221   97218      24   97224
   97218      24   97224   97221      25   97230   97227      24   97233   97227
      24   97233   97230      25   97239   97236      24   97242   97236      24
   97242   97239      25   97248   97245      24   97251   97245      24   97251
   97248      25   97257   97254      24   97260   97254      24   97260   97257
      25   97266   97263      24   97269   97263      24   97269   97266      25
   97275   97272      24   97278   97272      24   97278   97275      25   97284
   97281      24   97287   97281      24   97287   97284      25   97293   97290
      24   97296   97290      24   97296   97293      25   97302   97299      24
   97305   97299      24   97305   97302      25   97311   97308      24   97314
   97308      24   97314   97311      25   97320   97317      24   97323   97317
      24   97323   97320      25   97329   97326      24   97332   97326      24
   97332   97329      25   97338   97335      24   97341   97335      24   97341
   97338      25   97347   97344      24   97350   97344      24   97350   97347
      25   97356   97353      24   97359   97353      24   97359   97356      25
   97365   97362      24   97368   97362      24   97368   97365      25   97374
   97371      24   97377   97371      24   97377   97374      25   97383   97380
      24   97386   97380      24   97386   97383      25   97392   97389      24
   97395   97389      24   97395   97392      25   97401   97398      24   97404
   97398      24   97404   97401      25   97410   97407      24   97413   97407
      24   97413   97410      25   97419   97416      24   97422   97416      24
   97422   97419      25   97428   97425      24   97431   97425      24   97431
   97428      25   97437   97434      24   97440   97434      24   97440   97437
      25   97446   97443      24   97449   97443      24   97449   97446      25
   97455   97452      24   97458   97452      24   97458   97455      25   97464
   97461      24   97467   97461      24   97467   97464      25   97473   97470
      24   97476   97470      24   97476   97473      25   97482   97479      24
   97485   97479      24   97485   97482      25   97491   97488      24   97494
   97488      24   97494   97491      25   97500   97497      24   97503   97497
      24   97503   97500      25   97509   97506      24   97512   97506      24
   97512   97509      25   97518   97515      24   97521   97515      24   97521
   97518      25   97527   97524      24   97530   97524      24   97530   97527
      25   97536   97533      24   97539   97533      24   97539   97536      25
   97545   97542      24   97548   97542      24   97548   97545      25   97554
   97551      24   97557   97551      24   97557   97554      25   97563   97560
      24   97566   97560      24   97566   97563      25   97572   97569      24
   97575   97569      24   97575   97572      25   97581   97578      24   97584
   97578      24   97584   97581      25   97590   97587      24   97593   97587
      24   97593   97590      25   97599   97596      24   97602   97596      24
   97602   97599      25   97608   97605      24   97611   97605      24   97611
   97608      25   97617   97614      24   97620   97614      24   97620   97617
      25   97626   97623      24   97629   97623      24   97629   97626      25
   97635   97632      24   97638   97632      24   97638   97635      25   97644
   97641      24   97647   97641      24   97647   97644      25   97653   97650
      24   97656   97650      24   97656   97653      25   97662   97659      24
   97665   97659      24   97665   97662      25   97671   97668      24   97674
   97668      24   97674   97671      25   97680   97677      24   97683   97677
      24   97683   97680      25   97689   97686      24   97692   97686      24
   97692   97689      25   97698   97695      24   97701   97695      24   97701
   97698      25   97707   97704      24   97710   97704      24   97710   97707
      25   97716   97713      24   97719   97713      24   97719   97716      25
   97725   97722      24   97728   97722      24   97728   97725      25   97734
   97731      24   97737   97731      24   97737   97734      25   97743   97740
      24   97746   97740      24   97746   97743      25   97752   97749      24
   97755   97749      24   97755   97752      25   97761   97758      24   97764
   97758      24   97764   97761      25   97770   97767      24   97773   97767
      24   97773   97770      25   97779   97776      24   97782   97776      24
   97782   97779      25   97788   97785      24   97791   97785      24   97791
   97788      25   97797   97794      24   97800   97794      24   97800   97797
      25   97806   97803      24   97809   97803      24   97809   97806      25
   97815   97812      24   97818   97812      24   97818   97815      25   97824
   97821      24   97827   97821      24   97827   97824      25   97833   97830
      24   97836   97830      24   97836   97833      25   97842   97839      24
   97845   97839      24   97845   97842      25   97851   97848      24   97854
   97848      24   97854   97851      25   97860   97857      24   97863   97857
      24   97863   97860      25   97869   97866      24   97872   97866      24
   97872   97869      25   97878   97875      24   97881   97875      24   97881
   97878      25   97887   97884      24   97890   97884      24   97890   97887
      25   97896   97893      24   97899   97893      24   97899   97896      25
   97905   97902      24   97908   97902      24   97908   97905      25   97914
   97911      24   97917   97911      24   97917   97914      25   97923   97920
      24   97926   97920      24   97926   97923      25   97932   97929      24
   97935   97929      24   97935   97932      25   97941   97938      24   97944
   97938      24   97944   97941      25   97950   97947      24   97953   97947
      24   97953   97950      25   97959   97956      24   97962   97956      24
   97962   97959      25   97968   97965      24   97971   97965      24   97971
   97968      25   97977   97974      24   97980   97974      24   97980   97977
      25   97986   97983      24   97989   97983      24   97989   97986      25
   97995   97992      24   97998   97992      24   97998   97995      25   98004
   98001      24   98007   98001      24   98007   98004      25   98013   98010
      24   98016   98010      24   98016   98013      25   98022   98019      24
   98025   98019      24   98025   98022      25   98031   98028      24   98034
   98028      24   98034   98031      25   98040   98037      24   98043   98037
      24   98043   98040      25   98049   98046      24   98052   98046      24
   98052   98049      25   98058   98055      24   98061   98055      24   98061
   98058      25   98067   98064      24   98070   98064      24   98070   98067
      25   98076   98073      24   98079   98073      24   98079   98076      25
   98085   98082      24   98088   98082      24   98088   98085      25   98094
   98091      24   98097   98091      24   98097   98094      25   98103   98100
      24   98106   98100      24   98106   98103      25   98112   98109      24
   98115   98109      24   98115   98112      25   98121   98118      24   98124
   98118      24   98124   98121      25   98130   98127      24   98133   98127
      24   98133   98130      25   98139   98136      24   98142   98136      24
   98142   98139      25   98148   98145      24   98151   98145      24   98151
   98148      25   98157   98154      24   98160   98154      24   98160   98157
      25   98166   98163      24   98169   98163      24   98169   98166      25
   98175   98172      24   98178   98172      24   98178   98175      25   98184
   98181      24   98187   98181      24   98187   98184      25   98193   98190
      24   98196   98190      24   98196   98193      25   98202   98199      24
   98205   98199      24   98205   98202      25   98211   98208      24   98214
   98208      24   98214   98211      25   98220   98217      24   98223   98217
      24   98223   98220      25   98229   98226      24   98232   98226      24
   98232   98229      25   98238   98235      24   98241   98235      24   98241
   98238      25   98247   98244      24   98250   98244      24   98250   98247
      25   98256   98253      24   98259   98253      24   98259   98256      25
   98265   98262      24   98268   98262      24   98268   98265      25   98274
   98271      24   98277   98271      24   98277   98274      25   98283   98280
      24   98286   98280      24   98286   98283      25   98292   98289      24
   98295   98289      24   98295   98292      25   98301   98298      24   98304
   98298      24   98304   98301      25   98310   98307      24   98313   98307
      24   98313   98310      25   98319   98316      24   98322   98316      24
   98322   98319      25   98328   98325      24   98331   98325      24   98331
   98328      25   98337   98334      24   98340   98334      24   98340   98337
      25   98346   98343      24   98349   98343      24   98349   98346      25
   98355   98352      24   98358   98352      24   98358   98355      25   98364
   98361      24   98367   98361      24   98367   98364      25   98373   98370
      24   98376   98370      24   98376   98373      25   98382   98379      24
   98385   98379      24   98385   98382      25   98391   98388      24   98394
   98388      24   98394   98391      25   98400   98397      24   98403   98397
      24   98403   98400      25   98409   98406      24   98412   98406      24
   98412   98409      25   98418   98415      24   98421   98415      24   98421
   98418      25   98427   98424      24   98430   98424      24   98430   98427
      25   98436   98433      24   98439   98433      24   98439   98436      25
   98445   98442      24   98448   98442      24   98448   98445      25   98454
   98451      24   98457   98451      24   98457   98454      25   98463   98460
      24   98466   98460      24   98466   98463      25   98472   98469      24
   98475   98469      24   98475   98472      25   98481   98478      24   98484
   98478      24   98484   98481      25   98490   98487      24   98493   98487
      24   98493   98490      25   98499   98496      24   98502   98496      24
   98502   98499      25   98508   98505      24   98511   98505      24   98511
   98508      25   98517   98514      24   98520   98514      24   98520   98517
      25   98526   98523      24   98529   98523      24   98529   98526      25
   98535   98532      24   98538   98532      24   98538   98535      25   98544
   98541      24   98547   98541      24   98547   98544      25   98553   98550
      24   98556   98550      24   98556   98553      25   98562   98559      24
   98565   98559      24   98565   98562      25   98571   98568      24   98574
   98568      24   98574   98571      25   98580   98577      24   98583   98577
      24   98583   98580      25   98589   98586      24   98592   98586      24
   98592   98589      25   98598   98595      24   98601   98595      24   98601
   98598      25   98607   98604      24   98610   98604      24   98610   98607
      25   98616   98613      24   98619   98613      24   98619   98616      25
   98625   98622      24   98628   98622      24   98628   98625      25   98634
   98631      24   98637   98631      24   98637   98634      25   98643   98640
      24   98646   98640      24   98646   98643      25   98652   98649      24
   98655   98649      24   98655   98652      25   98661   98658      24   98664
   98658      24   98664   98661      25   98670   98667      24   98673   98667
      24   98673   98670      25   98679   98676      24   98682   98676      24
   98682   98679      25   98688   98685      24   98691   98685      24   98691
   98688      25   98697   98694      24   98700   98694      24   98700   98697
      25   98706   98703      24   98709   98703      24   98709   98706      25
   98715   98712      24   98718   98712      24   98718   98715      25   98724
   98721      24   98727   98721      24   98727   98724      25   98733   98730
      24   98736   98730      24   98736   98733      25   98742   98739      24
   98745   98739      24   98745   98742      25   98751   98748      24   98754
   98748      24   98754   98751      25   98760   98757      24   98763   98757
      24   98763   98760      25   98769   98766      24   98772   98766      24
   98772   98769      25   98778   98775      24   98781   98775      24   98781
   98778      25   98787   98784      24   98790   98784      24   98790   98787
      25   98796   98793      24   98799   98793      24   98799   98796      25
   98805   98802      24   98808   98802      24   98808   98805      25   98814
   98811      24   98817   98811      24   98817   98814      25   98823   98820
      24   98826   98820      24   98826   98823      25   98832   98829      24
   98835   98829      24   98835   98832      25   98841   98838      24   98844
   98838      24   98844   98841      25   98850   98847      24   98853   98847
      24   98853   98850      25   98859   98856      24   98862   98856      24
   98862   98859      25   98868   98865      24   98871   98865      24   98871
   98868      25   98877   98874      24   98880   98874      24   98880   98877
      25   98886   98883      24   98889   98883      24   98889   98886      25
   98895   98892      24   98898   98892      24   98898   98895      25   98904
   98901      24   98907   98901      24   98907   98904      25   98913   98910
      24   98916   98910      24   98916   98913      25   98922   98919      24
   98925   98919      24   98925   98922      25   98931   98928      24   98934
   98928      24   98934   98931      25   98940   98937      24   98943   98937
      24   98943   98940      25   98949   98946      24   98952   98946      24
   98952   98949      25   98958   98955      24   98961   98955      24   98961
   98958      25   98967   98964      24   98970   98964      24   98970   98967
      25   98976   98973      24   98979   98973      24   98979   98976      25
   98985   98982      24   98988   98982      24   98988   98985      25   98994
   98991      24   98997   98991      24   98997   98994      25   99003   99000
      24   99006   99000      24   99006   99003      25   99012   99009      24
   99015   99009      24   99015   99012      25   99021   99018      24   99024
   99018      24   99024   99021      25   99030   99027      24   99033   99027
      24   99033   99030      25   99039   99036      24   99042   99036      24
   99042   99039      25   99048   99045      24   99051   99045      24   99051
   99048      25   99057   99054      24   99060   99054      24   99060   99057
      25   99066   99063      24   99069   99063      24   99069   99066      25
   99075   99072      24   99078   99072      24   99078   99075      25   99084
   99081      24   99087   99081      24   99087   99084      25   99093   99090
      24   99096   99090      24   99096   99093      25   99102   99099      24
   99105   99099      24   99105   99102      25   99111   99108      24   99114
   99108      24   99114   99111      25   99120   99117      24   99123   99117
      24   99123   99120      25   99129   99126      24   99132   99126      24
   99132   99129      25   99138   99135      24   99141   99135      24   99141
   99138      25   99147   99144      24   99150   99144      24   99150   99147
      25   99156   99153      24   99159   99153      24   99159   99156      25
   99165   99162      24   99168   99162      24   99168   99165      25   99174
   99171      24   99177   99171      24   99177   99174      25   99183   99180
      24   99186   99180      24   99186   99183      25   99192   99189      24
   99195   99189      24   99195   99192      25   99201   99198      24   99204
   99198      24   99204   99201      25   99210   99207      24   99213   99207
      24   99213   99210      25   99219   99216      24   99222   99216      24
   99222   99219      25   99228   99225      24   99231   99225      24   99231
   99228      25   99237   99234      24   99240   99234      24   99240   99237
      25   99246   99243      24   99249   99243      24   99249   99246      25
   99255   99252      24   99258   99252      24   99258   99255      25   99264
   99261      24   99267   99261      24   99267   99264      25   99273   99270
      24   99276   99270      24   99276   99273      25   99282   99279      24
   99285   99279      24   99285   99282      25   99291   99288      24   99294
   99288      24   99294   99291      25   99300   99297      24   99303   99297
      24   99303   99300      25   99309   99306      24   99312   99306      24
   99312   99309      25   99318   99315      24   99321   99315      24   99321
   99318      25   99327   99324      24   99330   99324      24   99330   99327
      25   99336   99333      24   99339   99333      24   99339   99336      25
   99345   99342      24   99348   99342      24   99348   99345      25   99354
   99351      24   99357   99351      24   99357   99354      25   99363   99360
      24   99366   99360      24   99366   99363      25   99372   99369      24
   99375   99369      24   99375   99372      25   99381   99378      24   99384
   99378      24   99384   99381      25   99390   99387      24   99393   99387
      24   99393   99390      25   99399   99396      24   99402   99396      24
   99402   99399      25   99408   99405      24   99411   99405      24   99411
   99408      25   99417   99414      24   99420   99414      24   99420   99417
      25   99426   99423      24   99429   99423      24   99429   99426      25
   99435   99432      24   99438   99432      24   99438   99435      25   99444
   99441      24   99447   99441      24   99447   99444      25   99453   99450
      24   99456   99450      24   99456   99453      25   99462   99459      24
   99465   99459      24   99465   99462      25   99471   99468      24   99474
   99468      24   99474   99471      25   99480   99477      24   99483   99477
      24   99483   99480      25   99489   99486      24   99492   99486      24
   99492   99489      25   99498   99495      24   99501   99495      24   99501
   99498      25   99507   99504      24   99510   99504      24   99510   99507
      25   99516   99513      24   99519   99513      24   99519   99516      25
   99525   99522      24   99528   99522      24   99528   99525      25   99534
   99531      24   99537   99531      24   99537   99534      25   99543   99540
      24   99546   99540      24   99546   99543      25   99552   99549      24
   99555   99549      24   99555   99552      25   99561   99558      24   99564
   99558      24   99564   99561      25   99570   99567      24   99573   99567
      24   99573   99570      25   99579   99576      24   99582   99576      24
   99582   99579      25   99588   99585      24   99591   99585      24   99591
   99588      25   99597   99594      24   99600   99594      24   99600   99597
      25   99606   99603      24   99609   99603      24   99609   99606      25
   99615   99612      24   99618   99612      24   99618   99615      25   99624
   99621      24   99627   99621      24   99627   99624      25   99633   99630
      24   99636   99630      24   99636   99633      25   99642   99639      24
   99645   99639      24   99645   99642      25   99651   99648      24   99654
   99648      24   99654   99651      25   99660   99657      24   99663   99657
      24   99663   99660      25   99669   99666      24   99672   99666      24
   99672   99669      25   99678   99675      24   99681   99675      24   99681
   99678      25   99687   99684      24   99690   99684      24   99690   99687
      25   99696   99693      24   99699   99693      24   99699   99696      25
   99705   99702      24   99708   99702      24   99708   99705      25   99714
   99711      24   99717   99711      24   99717   99714      25   99723   99720
      24   99726   99720      24   99726   99723      25   99732   99729      24
   99735   99729      24   99735   99732      25   99741   99738      24   99744
   99738      24   99744   99741      25   99750   99747      24   99753   99747
      24   99753   99750      25   99759   99756      24   99762   99756      24
   99762   99759      25   99768   99765      24   99771   99765      24   99771
   99768      25   99777   99774      24   99780   99774      24   99780   99777
      25   99786   99783      24   99789   99783      24   99789   99786      25
   99795   99792      24   99798   99792      24   99798   99795      25   99804
   99801      24   99807   99801      24   99807   99804      25   99813   99810
      24   99816   99810      24   99816   99813      25   99822   99819      24
   99825   99819      24   99825   99822      25   99831   99828      24   99834
   99828      24   99834   99831      25   99840   99837      24   99843   99837
      24   99843   99840      25   99849   99846      24   99852   99846      24
   99852   99849      25   99858   99855      24   99861   99855      24   99861
   99858      25   99867   99864      24   99870   99864      24   99870   99867
      25   99876   99873      24   99879   99873      24   99879   99876      25
   99885   99882      24   99888   99882      24   99888   99885      25   99894
   99891      24   99897   99891      24   99897   99894      25   99903   99900
      24   99906   99900      24   99906   99903      25   99912   99909      24
   99915   99909      24   99915   99912      25   99921   99918      24   99924
   99918      24   99924   99921      25   99930   99927      24   99933   99927
      24   99933   99930      25   99939   99936      24   99942   99936      24
   99942   99939      25   99948   99945      24   99951   99945      24   99951
   99948      25   99957   99954      24   99960   99954      24   99960   99957
      25   99966   99963      24   99969   99963      24   99969   99966      25
   99975   99972      24   99978   99972      24   99978   99975      25   99984
   99981      24   99987   99981      24   99987   99984      25   99993   99990
      24   99996   99990      24   99996   99993      25  100002   99999      24
  100005   99999      24  100005  100002      25  100011  100008      24  100014
  100008      24  100014  100011      25  100020  100017      24  100023  100017
      24  100023  100020      25  100029  100026      24  100032  100026      24
  100032  100029      25  100038  100035      24  100041  100035      24  100041
  100038      25  100047  100044      24  100050  100044      24  100050  100047
      25  100056  100053      24  100059  100053      24  100059  100056      25
  100065  100062      24  100068  100062      24  100068  100065      25  100074
  100071      24  100077  100071      24  100077  100074      25  100083  100080
      24  100086  100080      24  100086  100083      25  100092  100089      24
  100095  100089      24  100095  100092      25  100101  100098      24  100104
  100098      24  100104  100101      25  100110  100107      24  100113  100107
      24  100113  100110      25  100119  100116      24  100122  100116      24
  100122  100119      25  100128  100125      24  100131  100125      24  100131
  100128      25  100137  100134      24  100140  100134      24  100140  100137
      25  100146  100143      24  100149  100143      24  100149  100146      25
  100155  100152      24  100158  100152      24  100158  100155      25  100164
  100161      24  100167  100161      24  100167  100164      25  100173  100170
      24  100176  100170      24  100176  100173      25  100182  100179      24
  100185  100179      24  100185  100182      25  100191  100188      24  100194
  100188      24  100194  100191      25  100200  100197      24  100203  100197
      24  100203  100200      25  100209  100206      24  100212  100206      24
  100212  100209      25  100218  100215      24  100221  100215      24  100221
  100218      25  100227  100224      24  100230  100224      24  100230  100227
      25  100236  100233      24  100239  100233      24  100239  100236      25
  100245  100242      24  100248  100242      24  100248  100245      25  100254
  100251      24  100257  100251      24  100257  100254      25  100263  100260
      24  100266  100260      24  100266  100263      25  100272  100269      24
  100275  100269      24  100275  100272      25  100281  100278      24  100284
  100278      24  100284  100281      25  100290  100287      24  100293  100287
      24  100293  100290      25  100299  100296      24  100302  100296      24
  100302  100299      25  100308  100305      24  100311  100305      24  100311
  100308      25  100317  100314      24  100320  100314      24  100320  100317
      25  100326  100323      24  100329  100323      24  100329  100326      25
  100335  100332      24  100338  100332      24  100338  100335      25  100344
  100341      24  100347  100341      24  100347  100344      25  100353  100350
      24  100356  100350      24  100356  100353      25  100362  100359      24
  100365  100359      24  100365  100362      25  100371  100368      24  100374
  100368      24  100374  100371      25  100380  100377      24  100383  100377
      24  100383  100380      25  100389  100386      24  100392  100386      24
  100392  100389      25  100398  100395      24  100401  100395      24  100401
  100398      25  100407  100404      24  100410  100404      24  100410  100407
      25  100416  100413      24  100419  100413      24  100419  100416      25
  100425  100422      24  100428  100422      24  100428  100425      25  100434
  100431      24  100437  100431      24  100437  100434      25  100443  100440
      24  100446  100440      24  100446  100443      25  100452  100449      24
  100455  100449      24  100455  100452      25  100461  100458      24  100464
  100458      24  100464  100461      25  100470  100467      24  100473  100467
      24  100473  100470      25  100479  100476      24  100482  100476      24
  100482  100479      25  100488  100485      24  100491  100485      24  100491
  100488      25  100497  100494      24  100500  100494      24  100500  100497
      25  100506  100503      24  100509  100503      24  100509  100506      25
  100515  100512      24  100518  100512      24  100518  100515      25  100524
  100521      24  100527  100521      24  100527  100524      25  100533  100530
      24  100536  100530      24  100536  100533      25  100542  100539      24
  100545  100539      24  100545  100542      25  100551  100548      24  100554
  100548      24  100554  100551      25  100560  100557      24  100563  100557
      24  100563  100560      25  100569  100566      24  100572  100566      24
  100572  100569      25  100578  100575      24  100581  100575      24  100581
  100578      25  100587  100584      24  100590  100584      24  100590  100587
      25  100596  100593      24  100599  100593      24  100599  100596      25
  100605  100602      24  100608  100602      24  100608  100605      25  100614
  100611      24  100617  100611      24  100617  100614      25  100623  100620
      24  100626  100620      24  100626  100623      25  100632  100629      24
  100635  100629      24  100635  100632      25  100641  100638      24  100644
  100638      24  100644  100641      25  100650  100647      24  100653  100647
      24  100653  100650      25  100659  100656      24  100662  100656      24
  100662  100659      25  100668  100665      24  100671  100665      24  100671
  100668      25  100677  100674      24  100680  100674      24  100680  100677
      25  100686  100683      24  100689  100683      24  100689  100686      25
  100695  100692      24  100698  100692      24  100698  100695      25  100704
  100701      24  100707  100701      24  100707  100704      25  100713  100710
      24  100716  100710      24  100716  100713      25  100722  100719      24
  100725  100719      24  100725  100722      25  100731  100728      24  100734
  100728      24  100734  100731      25  100740  100737      24  100743  100737
      24  100743  100740      25  100749  100746      24  100752  100746      24
  100752  100749      25  100758  100755      24  100761  100755      24  100761
  100758      25  100767  100764      24  100770  100764      24  100770  100767
      25  100776  100773      24  100779  100773      24  100779  100776      25
  100785  100782      24  100788  100782      24  100788  100785      25  100794
  100791      24  100797  100791      24  100797  100794      25  100803  100800
      24  100806  100800      24  100806  100803      25  100812  100809      24
  100815  100809      24  100815  100812      25  100821  100818      24  100824
  100818      24  100824  100821      25  100830  100827      24  100833  100827
      24  100833  100830      25  100839  100836      24  100842  100836      24
  100842  100839      25  100848  100845      24  100851  100845      24  100851
  100848      25  100857  100854      24  100860  100854      24  100860  100857
      25  100866  100863      24  100869  100863      24  100869  100866      25
  100875  100872      24  100878  100872      24  100878  100875      25  100884
  100881      24  100887  100881      24  100887  100884      25  100893  100890
      24  100896  100890      24  100896  100893      25  100902  100899      24
  100905  100899      24  100905  100902      25  100911  100908      24  100914
  100908      24  100914  100911      25  100920  100917      24  100923  100917
      24  100923  100920      25  100929  100926      24  100932  100926      24
  100932  100929      25  100938  100935      24  100941  100935      24  100941
  100938      25  100947  100944      24  100950  100944      24  100950  100947
      25  100956  100953      24  100959  100953      24  100959  100956      25
  100965  100962      24  100968  100962      24  100968  100965      25  100974
  100971      24  100977  100971      24  100977  100974      25  100983  100980
      24  100986  100980      24  100986  100983      25  100992  100989      24
  100995  100989      24  100995  100992      25  101001  100998      24  101004
  100998      24  101004  101001      25  101010  101007      24  101013  101007
      24  101013  101010      25  101019  101016      24  101022  101016      24
  101022  101019      25  101028  101025      24  101031  101025      24  101031
  101028      25  101037  101034      24  101040  101034      24  101040  101037
      25  101046  101043      24  101049  101043      24  101049  101046      25
  101055  101052      24  101058  101052      24  101058  101055      25  101064
  101061      24  101067  101061      24  101067  101064      25  101073  101070
      24  101076  101070      24  101076  101073      25  101082  101079      24
  101085  101079      24  101085  101082      25  101091  101088      24  101094
  101088      24  101094  101091      25  101100  101097      24  101103  101097
      24  101103  101100      25  101109  101106      24  101112  101106      24
  101112  101109      25  101118  101115      24  101121  101115      24  101121
  101118      25  101127  101124      24  101130  101124      24  101130  101127
      25  101136  101133      24  101139  101133      24  101139  101136      25
  101145  101142      24  101148  101142      24  101148  101145      25  101154
  101151      24  101157  101151      24  101157  101154      25  101163  101160
      24  101166  101160      24  101166  101163      25  101172  101169      24
  101175  101169      24  101175  101172      25  101181  101178      24  101184
  101178      24  101184  101181      25  101190  101187      24  101193  101187
      24  101193  101190      25  101199  101196      24  101202  101196      24
  101202  101199      25  101208  101205      24  101211  101205      24  101211
  101208      25  101217  101214      24  101220  101214      24  101220  101217
      25  101226  101223      24  101229  101223      24  101229  101226      25
  101235  101232      24  101238  101232      24  101238  101235      25  101244
  101241      24  101247  101241      24  101247  101244      25  101253  101250
      24  101256  101250      24  101256  101253      25  101262  101259      24
  101265  101259      24  101265  101262      25  101271  101268      24  101274
  101268      24  101274  101271      25  101280  101277      24  101283  101277
      24  101283  101280      25  101289  101286      24  101292  101286      24
  101292  101289      25  101298  101295      24  101301  101295      24  101301
  101298      25  101307  101304      24  101310  101304      24  101310  101307
      25  101316  101313      24  101319  101313      24  101319  101316      25
  101325  101322      24  101328  101322      24  101328  101325      25  101334
  101331      24  101337  101331      24  101337  101334      25  101343  101340
      24  101346  101340      24  101346  101343      25  101352  101349      24
  101355  101349      24  101355  101352      25  101361  101358      24  101364
  101358      24  101364  101361      25  101370  101367      24  101373  101367
      24  101373  101370      25  101379  101376      24  101382  101376      24
  101382  101379      25  101388  101385      24  101391  101385      24  101391
  101388      25  101397  101394      24  101400  101394      24  101400  101397
      25  101406  101403      24  101409  101403      24  101409  101406      25
  101415  101412      24  101418  101412      24  101418  101415      25  101424
  101421      24  101427  101421      24  101427  101424      25  101433  101430
      24  101436  101430      24  101436  101433      25  101442  101439      24
  101445  101439      24  101445  101442      25  101451  101448      24  101454
  101448      24  101454  101451      25  101460  101457      24  101463  101457
      24  101463  101460      25  101469  101466      24  101472  101466      24
  101472  101469      25  101478  101475      24  101481  101475      24  101481
  101478      25  101487  101484      24  101490  101484      24  101490  101487
      25  101496  101493      24  101499  101493      24  101499  101496      25
  101505  101502      24  101508  101502      24  101508  101505      25  101514
  101511      24  101517  101511      24  101517  101514      25  101523  101520
      24  101526  101520      24  101526  101523      25  101532  101529      24
  101535  101529      24  101535  101532      25  101541  101538      24  101544
  101538      24  101544  101541      25  101550  101547      24  101553  101547
      24  101553  101550      25  101559  101556      24  101562  101556      24
  101562  101559      25  101568  101565      24  101571  101565      24  101571
  101568      25  101577  101574      24  101580  101574      24  101580  101577
      25  101586  101583      24  101589  101583      24  101589  101586      25
  101595  101592      24  101598  101592      24  101598  101595      25  101604
  101601      24  101607  101601      24  101607  101604      25  101613  101610
      24  101616  101610      24  101616  101613      25  101622  101619      24
  101625  101619      24  101625  101622      25  101631  101628      24  101634
  101628      24  101634  101631      25  101640  101637      24  101643  101637
      24  101643  101640      25  101649  101646      24  101652  101646      24
  101652  101649      25  101658  101655      24  101661  101655      24  101661
  101658      25  101667  101664      24  101670  101664      24  101670  101667
      25  101676  101673      24  101679  101673      24  101679  101676      25
  101685  101682      24  101688  101682      24  101688  101685      25  101694
  101691      24  101697  101691      24  101697  101694      25  101703  101700
      24  101706  101700      24  101706  101703      25  101712  101709      24
  101715  101709      24  101715  101712      25  101721  101718      24  101724
  101718      24  101724  101721      25  101730  101727      24  101733  101727
      24  101733  101730      25  101739  101736      24  101742  101736      24
  101742  101739      25  101748  101745      24  101751  101745      24  101751
  101748      25  101757  101754      24  101760  101754      24  101760  101757
      25  101766  101763      24  101769  101763      24  101769  101766      25
  101775  101772      24  101778  101772      24  101778  101775      25  101784
  101781      24  101787  101781      24  101787  101784      25  101793  101790
      24  101796  101790      24  101796  101793      25  101802  101799      24
  101805  101799      24  101805  101802      25  101811  101808      24  101814
  101808      24  101814  101811      25  101820  101817      24  101823  101817
      24  101823  101820      25  101829  101826      24  101832  101826      24
  101832  101829      25  101838  101835      24  101841  101835      24  101841
  101838      25  101847  101844      24  101850  101844      24  101850  101847
      25  101856  101853      24  101859  101853      24  101859  101856      25
  101865  101862      24  101868  101862      24  101868  101865      25  101874
  101871      24  101877  101871      24  101877  101874      25  101883  101880
      24  101886  101880      24  101886  101883      25  101892  101889      24
  101895  101889      24  101895  101892      25  101901  101898      24  101904
  101898      24  101904  101901      25  101910  101907      24  101913  101907
      24  101913  101910      25  101919  101916      24  101922  101916      24
  101922  101919      25  101928  101925      24  101931  101925      24  101931
  101928      25  101937  101934      24  101940  101934      24  101940  101937
      25  101946  101943      24  101949  101943      24  101949  101946      25
  101955  101952      24  101958  101952      24  101958  101955      25  101964
  101961      24  101967  101961      24  101967  101964      25  101973  101970
      24  101976  101970      24  101976  101973      25  101982  101979      24
  101985  101979      24  101985  101982      25  101991  101988      24  101994
  101988      24  101994  101991      25  102000  101997      24  102003  101997
      24  102003  102000      25  102009  102006      24  102012  102006      24
  102012  102009      25  102018  102015      24  102021  102015      24  102021
  102018      25  102027  102024      24  102030  102024      24  102030  102027
      25  102036  102033      24  102039  102033      24  102039  102036      25
  102045  102042      24  102048  102042      24  102048  102045      25  102054
  102051      24  102057  102051      24  102057  102054      25  102063  102060
      24  102066  102060      24  102066  102063      25  102072  102069      24
  102075  102069      24  102075  102072      25  102081  102078      24  102084
  102078      24  102084  102081      25  102090  102087      24  102093  102087
      24  102093  102090      25  102099  102096      24  102102  102096      24
  102102  102099      25  102108  102105      24  102111  102105      24  102111
  102108      25  102117  102114      24  102120  102114      24  102120  102117
      25  102126  102123      24  102129  102123      24  102129  102126      25
  102135  102132      24  102138  102132      24  102138  102135      25  102144
  102141      24  102147  102141      24  102147  102144      25  102153  102150
      24  102156  102150      24  102156  102153      25  102162  102159      24
  102165  102159      24  102165  102162      25  102171  102168      24  102174
  102168      24  102174  102171      25  102180  102177      24  102183  102177
      24  102183  102180      25  102189  102186      24  102192  102186      24
  102192  102189      25  102198  102195      24  102201  102195      24  102201
  102198      25  102207  102204      24  102210  102204      24  102210  102207
      25  102216  102213      24  102219  102213      24  102219  102216      25
  102225  102222      24  102228  102222      24  102228  102225      25  102234
  102231      24  102237  102231      24  102237  102234      25  102243  102240
      24  102246  102240      24  102246  102243      25  102252  102249      24
  102255  102249      24  102255  102252      25  102261  102258      24  102264
  102258      24  102264  102261      25  102270  102267      24  102273  102267
      24  102273  102270      25  102279  102276      24  102282  102276      24
  102282  102279      25  102288  102285      24  102291  102285      24  102291
  102288      25  102297  102294      24  102300  102294      24  102300  102297
      25  102306  102303      24  102309  102303      24  102309  102306      25
  102315  102312      24  102318  102312      24  102318  102315      25  102324
  102321      24  102327  102321      24  102327  102324      25  102333  102330
      24  102336  102330      24  102336  102333      25  102342  102339      24
  102345  102339      24  102345  102342      25  102351  102348      24  102354
  102348      24  102354  102351      25  102360  102357      24  102363  102357
      24  102363  102360      25  102369  102366      24  102372  102366      24
  102372  102369      25  102378  102375      24  102381  102375      24  102381
  102378      25  102387  102384      24  102390  102384      24  102390  102387
      25  102396  102393      24  102399  102393      24  102399  102396      25
  102405  102402      24  102408  102402      24  102408  102405      25  102414
  102411      24  102417  102411      24  102417  102414      25  102423  102420
      24  102426  102420      24  102426  102423      25  102432  102429      24
  102435  102429      24  102435  102432      25  102441  102438      24  102444
  102438      24  102444  102441      25  102450  102447      24  102453  102447
      24  102453  102450      25  102459  102456      24  102462  102456      24
  102462  102459      25  102468  102465      24  102471  102465      24  102471
  102468      25  102477  102474      24  102480  102474      24  102480  102477
      25  102486  102483      24  102489  102483      24  102489  102486      25
  102495  102492      24  102498  102492      24  102498  102495      25  102504
  102501      24  102507  102501      24  102507  102504      25  102513  102510
      24  102516  102510      24  102516  102513      25  102522  102519      24
  102525  102519      24  102525  102522      25  102531  102528      24  102534
  102528      24  102534  102531      25  102540  102537      24  102543  102537
      24  102543  102540      25  102549  102546      24  102552  102546      24
  102552  102549      25  102558  102555      24  102561  102555      24  102561
  102558      25  102567  102564      24  102570  102564      24  102570  102567
      25  102576  102573      24  102579  102573      24  102579  102576      25
  102585  102582      24  102588  102582      24  102588  102585      25  102594
  102591      24  102597  102591      24  102597  102594      25  102603  102600
      24  102606  102600      24  102606  102603      25  102612  102609      24
  102615  102609      24  102615  102612      25  102621  102618      24  102624
  102618      24  102624  102621      25  102630  102627      24  102633  102627
      24  102633  102630      25  102639  102636      24  102642  102636      24
  102642  102639      25  102648  102645      24  102651  102645      24  102651
  102648      25  102657  102654      24  102660  102654      24  102660  102657
      25  102666  102663      24  102669  102663      24  102669  102666      25
  102675  102672      24  102678  102672      24  102678  102675      25  102684
  102681      24  102687  102681      24  102687  102684      25  102693  102690
      24  102696  102690      24  102696  102693      25  102702  102699      24
  102705  102699      24  102705  102702      25  102711  102708      24  102714
  102708      24  102714  102711      25  102720  102717      24  102723  102717
      24  102723  102720      25  102729  102726      24  102732  102726      24
  102732  102729      25  102738  102735      24  102741  102735      24  102741
  102738      25  102747  102744      24  102750  102744      24  102750  102747
      25  102756  102753      24  102759  102753      24  102759  102756      25
  102765  102762      24  102768  102762      24  102768  102765      25  102774
  102771      24  102777  102771      24  102777  102774      25  102783  102780
      24  102786  102780      24  102786  102783      25  102792  102789      24
  102795  102789      24  102795  102792      25  102801  102798      24  102804
  102798      24  102804  102801      25  102810  102807      24  102813  102807
      24  102813  102810      25  102819  102816      24  102822  102816      24
  102822  102819      25  102828  102825      24  102831  102825      24  102831
  102828      25  102837  102834      24  102840  102834      24  102840  102837
      25  102846  102843      24  102849  102843      24  102849  102846      25
  102855  102852      24  102858  102852      24  102858  102855      25  102864
  102861      24  102867  102861      24  102867  102864      25  102873  102870
      24  102876  102870      24  102876  102873      25  102882  102879      24
  102885  102879      24  102885  102882      25  102891  102888      24  102894
  102888      24  102894  102891      25  102900  102897      24  102903  102897
      24  102903  102900      25  102909  102906      24  102912  102906      24
  102912  102909      25  102918  102915      24  102921  102915      24  102921
  102918      25  102927  102924      24  102930  102924      24  102930  102927
      25  102936  102933      24  102939  102933      24  102939  102936      25
  102945  102942      24  102948  102942      24  102948  102945      25  102954
  102951      24  102957  102951      24  102957  102954      25  102963  102960
      24  102966  102960      24  102966  102963      25  102972  102969      24
  102975  102969      24  102975  102972      25  102981  102978      24  102984
  102978      24  102984  102981      25  102990  102987      24  102993  102987
      24  102993  102990      25  102999  102996      24  103002  102996      24
  103002  102999      25  103008  103005      24  103011  103005      24  103011
  103008      25  103017  103014      24  103020  103014      24  103020  103017
      25  103026  103023      24  103029  103023      24  103029  103026      25
  103035  103032      24  103038  103032      24  103038  103035      25  103044
  103041      24  103047  103041      24  103047  103044      25  103053  103050
      24  103056  103050      24  103056  103053      25  103062  103059      24
  103065  103059      24  103065  103062      25  103071  103068      24  103074
  103068      24  103074  103071      25  103080  103077      24  103083  103077
      24  103083  103080      25  103089  103086      24  103092  103086      24
  103092  103089      25  103098  103095      24  103101  103095      24  103101
  103098      25  103107  103104      24  103110  103104      24  103110  103107
      25  103116  103113      24  103119  103113      24  103119  103116      25
  103125  103122      24  103128  103122      24  103128  103125      25  103134
  103131      24  103137  103131      24  103137  103134      25  103143  103140
      24  103146  103140      24  103146  103143      25  103152  103149      24
  103155  103149      24  103155  103152      25  103161  103158      24  103164
  103158      24  103164  103161      25  103170  103167      24  103173  103167
      24  103173  103170      25  103179  103176      24  103182  103176      24
  103182  103179      25  103188  103185      24  103191  103185      24  103191
  103188      25  103197  103194      24  103200  103194      24  103200  103197
      25  103206  103203      24  103209  103203      24  103209  103206      25
  103215  103212      24  103218  103212      24  103218  103215      25  103224
  103221      24  103227  103221      24  103227  103224      25  103233  103230
      24  103236  103230      24  103236  103233      25  103242  103239      24
  103245  103239      24  103245  103242      25  103251  103248      24  103254
  103248      24  103254  103251      25  103260  103257      24  103263  103257
      24  103263  103260      25  103269  103266      24  103272  103266      24
  103272  103269      25  103278  103275      24  103281  103275      24  103281
  103278      25  103287  103284      24  103290  103284      24  103290  103287
      25  103296  103293      24  103299  103293      24  103299  103296      25
  103305  103302      24  103308  103302      24  103308  103305      25  103314
  103311      24  103317  103311      24  103317  103314      25  103323  103320
      24  103326  103320      24  103326  103323      25  103332  103329      24
  103335  103329      24  103335  103332      25  103341  103338      24  103344
  103338      24  103344  103341      25  103350  103347      24  103353  103347
      24  103353  103350      25  103359  103356      24  103362  103356      24
  103362  103359      25  103368  103365      24  103371  103365      24  103371
  103368      25  103377  103374      24  103380  103374      24  103380  103377
      25  103386  103383      24  103389  103383      24  103389  103386      25
  103395  103392      24  103398  103392      24  103398  103395      25  103404
  103401      24  103407  103401      24  103407  103404      25  103413  103410
      24  103416  103410      24  103416  103413      25  103422  103419      24
  103425  103419      24  103425  103422      25  103431  103428      24  103434
  103428      24  103434  103431      25  103440  103437      24  103443  103437
      24  103443  103440      25  103449  103446      24  103452  103446      24
  103452  103449      25  103458  103455      24  103461  103455      24  103461
  103458      25  103467  103464      24  103470  103464      24  103470  103467
      25  103476  103473      24  103479  103473      24  103479  103476      25
  103485  103482      24  103488  103482      24  103488  103485      25  103494
  103491      24  103497  103491      24  103497  103494      25  103503  103500
      24  103506  103500      24  103506  103503      25  103512  103509      24
  103515  103509      24  103515  103512      25  103521  103518      24  103524
  103518      24  103524  103521      25  103530  103527      24  103533  103527
      24  103533  103530      25  103539  103536      24  103542  103536      24
  103542  103539      25  103548  103545      24  103551  103545      24  103551
  103548      25  103557  103554      24  103560  103554      24  103560  103557
      25  103566  103563      24  103569  103563      24  103569  103566      25
  103575  103572      24  103578  103572      24  103578  103575      25  103584
  103581      24  103587  103581      24  103587  103584      25  103593  103590
      24  103596  103590      24  103596  103593      25  103602  103599      24
  103605  103599      24  103605  103602      25  103611  103608      24  103614
  103608      24  103614  103611      25  103620  103617      24  103623  103617
      24  103623  103620      25  103629  103626      24  103632  103626      24
  103632  103629      25  103638  103635      24  103641  103635      24  103641
  103638      25  103647  103644      24  103650  103644      24  103650  103647
      25  103656  103653      24  103659  103653      24  103659  103656      25
  103665  103662      24  103668  103662      24  103668  103665      25  103674
  103671      24  103677  103671      24  103677  103674      25  103683  103680
      24  103686  103680      24  103686  103683      25  103692  103689      24
  103695  103689      24  103695  103692      25  103701  103698      24  103704
  103698      24  103704  103701      25  103710  103707      24  103713  103707
      24  103713  103710      25  103719  103716      24  103722  103716      24
  103722  103719      25  103728  103725      24  103731  103725      24  103731
  103728      25  103737  103734      24  103740  103734      24  103740  103737
      25  103746  103743      24  103749  103743      24  103749  103746      25
  103755  103752      24  103758  103752      24  103758  103755      25  103764
  103761      24  103767  103761      24  103767  103764      25  103773  103770
      24  103776  103770      24  103776  103773      25  103782  103779      24
  103785  103779      24  103785  103782      25  103791  103788      24  103794
  103788      24  103794  103791      25  103800  103797      24  103803  103797
      24  103803  103800      25  103809  103806      24  103812  103806      24
  103812  103809      25  103818  103815      24  103821  103815      24  103821
  103818      25  103827  103824      24  103830  103824      24  103830  103827
      25  103836  103833      24  103839  103833      24  103839  103836      25
  103845  103842      24  103848  103842      24  103848  103845      25  103854
  103851      24  103857  103851      24  103857  103854      25  103863  103860
      24  103866  103860      24  103866  103863      25  103872  103869      24
  103875  103869      24  103875  103872      25  103881  103878      24  103884
  103878      24  103884  103881      25  103890  103887      24  103893  103887
      24  103893  103890      25  103899  103896      24  103902  103896      24
  103902  103899      25  103908  103905      24  103911  103905      24  103911
  103908      25  103917  103914      24  103920  103914      24  103920  103917
      25  103926  103923      24  103929  103923      24  103929  103926      25
  103935  103932      24  103938  103932      24  103938  103935      25  103944
  103941      24  103947  103941      24  103947  103944      25  103953  103950
      24  103956  103950      24  103956  103953      25  103962  103959      24
  103965  103959      24  103965  103962      25  103971  103968      24  103974
  103968      24  103974  103971      25  103980  103977      24  103983  103977
      24  103983  103980      25  103989  103986      24  103992  103986      24
  103992  103989      25  103998  103995      24  104001  103995      24  104001
  103998      25  104007  104004      24  104010  104004      24  104010  104007
      25  104016  104013      24  104019  104013      24  104019  104016      25
  104025  104022      24  104028  104022      24  104028  104025      25  104034
  104031      24  104037  104031      24  104037  104034      25  104043  104040
      24  104046  104040      24  104046  104043      25  104052  104049      24
  104055  104049      24  104055  104052      25  104061  104058      24  104064
  104058      24  104064  104061      25  104070  104067      24  104073  104067
      24  104073  104070      25  104079  104076      24  104082  104076      24
  104082  104079      25  104088  104085      24  104091  104085      24  104091
  104088      25  104097  104094      24  104100  104094      24  104100  104097
      25  104106  104103      24  104109  104103      24  104109  104106      25
  104115  104112      24  104118  104112      24  104118  104115      25  104124
  104121      24  104127  104121      24  104127  104124      25  104133  104130
      24  104136  104130      24  104136  104133      25  104142  104139      24
  104145  104139      24  104145  104142      25  104151  104148      24  104154
  104148      24  104154  104151      25  104160  104157      24  104163  104157
      24  104163  104160      25  104169  104166      24  104172  104166      24
  104172  104169      25  104178  104175      24  104181  104175      24  104181
  104178      25  104187  104184      24  104190  104184      24  104190  104187
      25  104196  104193      24  104199  104193      24  104199  104196      25
  104205  104202      24  104208  104202      24  104208  104205      25  104214
  104211      24  104217  104211      24  104217  104214      25  104223  104220
      24  104226  104220      24  104226  104223      25  104232  104229      24
  104235  104229      24  104235  104232      25  104241  104238      24  104244
  104238      24  104244  104241      25  104250  104247      24  104253  104247
      24  104253  104250      25  104259  104256      24  104262  104256      24
  104262  104259      25  104268  104265      24  104271  104265      24  104271
  104268      25  104277  104274      24  104280  104274      24  104280  104277
      25  104286  104283      24  104289  104283      24  104289  104286      25
  104295  104292      24  104298  104292      24  104298  104295      25  104304
  104301      24  104307  104301      24  104307  104304      25  104313  104310
      24  104316  104310      24  104316  104313      25  104322  104319      24
  104325  104319      24  104325  104322      25  104331  104328      24  104334
  104328      24  104334  104331      25  104340  104337      24  104343  104337
      24  104343  104340      25  104349  104346      24  104352  104346      24
  104352  104349      25  104358  104355      24  104361  104355      24  104361
  104358      25  104367  104364      24  104370  104364      24  104370  104367
      25  104376  104373      24  104379  104373      24  104379  104376      25
  104385  104382      24  104388  104382      24  104388  104385      25  104394
  104391      24  104397  104391      24  104397  104394      25  104403  104400
      24  104406  104400      24  104406  104403      25  104412  104409      24
  104415  104409      24  104415  104412      25  104421  104418      24  104424
  104418      24  104424  104421      25  104430  104427      24  104433  104427
      24  104433  104430      25  104439  104436      24  104442  104436      24
  104442  104439      25  104448  104445      24  104451  104445      24  104451
  104448      25  104457  104454      24  104460  104454      24  104460  104457
      25  104466  104463      24  104469  104463      24  104469  104466      25
  104475  104472      24  104478  104472      24  104478  104475      25  104484
  104481      24  104487  104481      24  104487  104484      25  104493  104490
      24  104496  104490      24  104496  104493      25  104502  104499      24
  104505  104499      24  104505  104502      25  104511  104508      24  104514
  104508      24  104514  104511      25  104520  104517      24  104523  104517
      24  104523  104520      25  104529  104526      24  104532  104526      24
  104532  104529      25  104538  104535      24  104541  104535      24  104541
  104538      25  104547  104544      24  104550  104544      24  104550  104547
      25  104556  104553      24  104559  104553      24  104559  104556      25
  104565  104562      24  104568  104562      24  104568  104565      25  104574
  104571      24  104577  104571      24  104577  104574      25  104583  104580
      24  104586  104580      24  104586  104583      25  104592  104589      24
  104595  104589      24  104595  104592      25  104601  104598      24  104604
  104598      24  104604  104601      25  104610  104607      24  104613  104607
      24  104613  104610      25  104619  104616      24  104622  104616      24
  104622  104619      25  104628  104625      24  104631  104625      24  104631
  104628      25  104637  104634      24  104640  104634      24  104640  104637
      25  104646  104643      24  104649  104643      24  104649  104646      25
  104655  104652      24  104658  104652      24  104658  104655      25  104664
  104661      24  104667  104661      24  104667  104664      25  104673  104670
      24  104676  104670      24  104676  104673      25  104682  104679      24
  104685  104679      24  104685  104682      25  104691  104688      24  104694
  104688      24  104694  104691      25  104700  104697      24  104703  104697
      24  104703  104700      25  104709  104706      24  104712  104706      24
  104712  104709      25  104718  104715      24  104721  104715      24  104721
  104718      25  104727  104724      24  104730  104724      24  104730  104727
      25  104736  104733      24  104739  104733      24  104739  104736      25
  104745  104742      24  104748  104742      24  104748  104745      25  104754
  104751      24  104757  104751      24  104757  104754      25  104763  104760
      24  104766  104760      24  104766  104763      25  104772  104769      24
  104775  104769      24  104775  104772      25  104781  104778      24  104784
  104778      24  104784  104781      25  104790  104787      24  104793  104787
      24  104793  104790      25  104799  104796      24  104802  104796      24
  104802  104799      25  104808  104805      24  104811  104805      24  104811
  104808      25  104817  104814      24  104820  104814      24  104820  104817
      25  104826  104823      24  104829  104823      24  104829  104826      25
  104835  104832      24  104838  104832      24  104838  104835      25  104844
  104841      24  104847  104841      24  104847  104844      25  104853  104850
      24  104856  104850      24  104856  104853      25  104862  104859      24
  104865  104859      24  104865  104862      25  104871  104868      24  104874
  104868      24  104874  104871      25  104880  104877      24  104883  104877
      24  104883  104880      25  104889  104886      24  104892  104886      24
  104892  104889      25  104898  104895      24  104901  104895      24  104901
  104898      25  104907  104904      24  104910  104904      24  104910  104907
      25  104916  104913      24  104919  104913      24  104919  104916      25
  104925  104922      24  104928  104922      24  104928  104925      25  104934
  104931      24  104937  104931      24  104937  104934      25  104943  104940
      24  104946  104940      24  104946  104943      25  104952  104949      24
  104955  104949      24  104955  104952      25  104961  104958      24  104964
  104958      24  104964  104961      25  104970  104967      24  104973  104967
      24  104973  104970      25  104979  104976      24  104982  104976      24
  104982  104979      25  104988  104985      24  104991  104985      24  104991
  104988      25  104997  104994      24  105000  104994      24  105000  104997
      25  105006  105003      24  105009  105003      24  105009  105006      25
  105015  105012      24  105018  105012      24  105018  105015      25  105024
  105021      24  105027  105021      24  105027  105024      25  105033  105030
      24  105036  105030      24  105036  105033      25  105042  105039      24
  105045  105039      24  105045  105042      25  105051  105048      24  105054
  105048      24  105054  105051      25  105060  105057      24  105063  105057
      24  105063  105060      25  105069  105066      24  105072  105066      24
  105072  105069      25  105078  105075      24  105081  105075      24  105081
  105078      25  105087  105084      24  105090  105084      24  105090  105087
      25  105096  105093      24  105099  105093      24  105099  105096      25
  105105  105102      24  105108  105102      24  105108  105105      25  105114
  105111      24  105117  105111      24  105117  105114      25  105123  105120
      24  105126  105120      24  105126  105123      25  105132  105129      24
  105135  105129      24  105135  105132      25  105141  105138      24  105144
  105138      24  105144  105141      25  105150  105147      24  105153  105147
      24  105153  105150      25  105159  105156      24  105162  105156      24
  105162  105159      25  105168  105165      24  105171  105165      24  105171
  105168      25  105177  105174      24  105180  105174      24  105180  105177
      25  105186  105183      24  105189  105183      24  105189  105186      25
  105195  105192      24  105198  105192      24  105198  105195      25  105204
  105201      24  105207  105201      24  105207  105204      25  105213  105210
      24  105216  105210      24  105216  105213      25  105222  105219      24
  105225  105219      24  105225  105222      25  105231  105228      24  105234
  105228      24  105234  105231      25  105240  105237      24  105243  105237
      24  105243  105240      25  105249  105246      24  105252  105246      24
  105252  105249      25  105258  105255      24  105261  105255      24  105261
  105258      25  105267  105264      24  105270  105264      24  105270  105267
      25  105276  105273      24  105279  105273      24  105279  105276      25
  105285  105282      24  105288  105282      24  105288  105285      25  105294
  105291      24  105297  105291      24  105297  105294      25  105303  105300
      24  105306  105300      24  105306  105303      25  105312  105309      24
  105315  105309      24  105315  105312      25  105321  105318      24  105324
  105318      24  105324  105321      25  105330  105327      24  105333  105327
      24  105333  105330      25  105339  105336      24  105342  105336      24
  105342  105339      25  105348  105345      24  105351  105345      24  105351
  105348      25  105357  105354      24  105360  105354      24  105360  105357
      25  105366  105363      24  105369  105363      24  105369  105366      25
  105375  105372      24  105378  105372      24  105378  105375      25  105384
  105381      24  105387  105381      24  105387  105384      25  105393  105390
      24  105396  105390      24  105396  105393      25  105402  105399      24
  105405  105399      24  105405  105402      25  105411  105408      24  105414
  105408      24  105414  105411      25  105420  105417      24  105423  105417
      24  105423  105420      25  105429  105426      24  105432  105426      24
  105432  105429      25  105438  105435      24  105441  105435      24  105441
  105438      25  105447  105444      24  105450  105444      24  105450  105447
      25  105456  105453      24  105459  105453      24  105459  105456      25
  105465  105462      24  105468  105462      24  105468  105465      25  105474
  105471      24  105477  105471      24  105477  105474      25  105483  105480
      24  105486  105480      24  105486  105483      25  105492  105489      24
  105495  105489      24  105495  105492      25  105501  105498      24  105504
  105498      24  105504  105501      25  105510  105507      24  105513  105507
      24  105513  105510      25  105519  105516      24  105522  105516      24
  105522  105519      25  105528  105525      24  105531  105525      24  105531
  105528      25  105537  105534      24  105540  105534      24  105540  105537
      25  105546  105543      24  105549  105543      24  105549  105546      25
  105555  105552      24  105558  105552      24  105558  105555      25  105564
  105561      24  105567  105561      24  105567  105564      25  105573  105570
      24  105576  105570      24  105576  105573      25  105582  105579      24
  105585  105579      24  105585  105582      25  105591  105588      24  105594
  105588      24  105594  105591      25  105600  105597      24  105603  105597
      24  105603  105600      25  105609  105606      24  105612  105606      24
  105612  105609      25  105618  105615      24  105621  105615      24  105621
  105618      25  105627  105624      24  105630  105624      24  105630  105627
      25  105636  105633      24  105639  105633      24  105639  105636      25
  105645  105642      24  105648  105642      24  105648  105645      25  105654
  105651      24  105657  105651      24  105657  105654      25  105663  105660
      24  105666  105660      24  105666  105663      25  105672  105669      24
  105675  105669      24  105675  105672      25  105681  105678      24  105684
  105678      24  105684  105681      25  105690  105687      24  105693  105687
      24  105693  105690      25  105699  105696      24  105702  105696      24
  105702  105699      25  105708  105705      24  105711  105705      24  105711
  105708      25  105717  105714      24  105720  105714      24  105720  105717
      25  105726  105723      24  105729  105723      24  105729  105726      25
  105735  105732      24  105738  105732      24  105738  105735      25  105744
  105741      24  105747  105741      24  105747  105744      25  105753  105750
      24  105756  105750      24  105756  105753      25  105762  105759      24
  105765  105759      24  105765  105762      25  105771  105768      24  105774
  105768      24  105774  105771      25  105780  105777      24  105783  105777
      24  105783  105780      25  105789  105786      24  105792  105786      24
  105792  105789      25  105798  105795      24  105801  105795      24  105801
  105798      25  105807  105804      24  105810  105804      24  105810  105807
      25  105816  105813      24  105819  105813      24  105819  105816      25
  105825  105822      24  105828  105822      24  105828  105825      25  105834
  105831      24  105837  105831      24  105837  105834      25  105843  105840
      24  105846  105840      24  105846  105843      25  105852  105849      24
  105855  105849      24  105855  105852      25  105861  105858      24  105864
  105858      24  105864  105861      25  105870  105867      24  105873  105867
      24  105873  105870      25  105879  105876      24  105882  105876      24
  105882  105879      25  105888  105885      24  105891  105885      24  105891
  105888      25  105897  105894      24  105900  105894      24  105900  105897
      25  105906  105903      24  105909  105903      24  105909  105906      25
  105915  105912      24  105918  105912      24  105918  105915      25  105924
  105921      24  105927  105921      24  105927  105924      25  105933  105930
      24  105936  105930      24  105936  105933      25  105942  105939      24
  105945  105939      24  105945  105942      25  105951  105948      24  105954
  105948      24  105954  105951      25  105960  105957      24  105963  105957
      24  105963  105960      25  105969  105966      24  105972  105966      24
  105972  105969      25  105978  105975      24  105981  105975      24  105981
  105978      25  105987  105984      24  105990  105984      24  105990  105987
      25  105996  105993      24  105999  105993      24  105999  105996      25
  106005  106002      24  106008  106002      24  106008  106005      25  106014
  106011      24  106017  106011      24  106017  106014      25  106023  106020
      24  106026  106020      24  106026  106023      25  106032  106029      24
  106035  106029      24  106035  106032      25  106041  106038      24  106044
  106038      24  106044  106041      25  106050  106047      24  106053  106047
      24  106053  106050      25  106059  106056      24  106062  106056      24
  106062  106059      25  106068  106065      24  106071  106065      24  106071
  106068      25  106077  106074      24  106080  106074      24  106080  106077
      25  106086  106083      24  106089  106083      24  106089  106086      25
  106095  106092      24  106098  106092      24  106098  106095      25  106104
  106101      24  106107  106101      24  106107  106104      25  106113  106110
      24  106116  106110      24  106116  106113      25  106122  106119      24
  106125  106119      24  106125  106122      25  106131  106128      24  106134
  106128      24  106134  106131      25  106140  106137      24  106143  106137
      24  106143  106140      25  106149  106146      24  106152  106146      24
  106152  106149      25  106158  106155      24  106161  106155      24  106161
  106158      25  106167  106164      24  106170  106164      24  106170  106167
      25  106176  106173      24  106179  106173      24  106179  106176      25
  106185  106182      24  106188  106182      24  106188  106185      25  106194
  106191      24  106197  106191      24  106197  106194      25  106203  106200
      24  106206  106200      24  106206  106203      25  106212  106209      24
  106215  106209      24  106215  106212      25  106221  106218      24  106224
  106218      24  106224  106221      25  106230  106227      24  106233  106227
      24  106233  106230      25  106239  106236      24  106242  106236      24
  106242  106239      25  106248  106245      24  106251  106245      24  106251
  106248      25  106257  106254      24  106260  106254      24  106260  106257
      25  106266  106263      24  106269  106263      24  106269  106266      25
  106275  106272      24  106278  106272      24  106278  106275      25  106284
  106281      24  106287  106281      24  106287  106284      25  106293  106290
      24  106296  106290      24  106296  106293      25  106302  106299      24
  106305  106299      24  106305  106302      25  106311  106308      24  106314
  106308      24  106314  106311      25  106320  106317      24  106323  106317
      24  106323  106320      25  106329  106326      24  106332  106326      24
  106332  106329      25  106338  106335      24  106341  106335      24  106341
  106338      25  106347  106344      24  106350  106344      24  106350  106347
      25  106356  106353      24  106359  106353      24  106359  106356      25
  106365  106362      24  106368  106362      24  106368  106365      25  106374
  106371      24  106377  106371      24  106377  106374      25  106383  106380
      24  106386  106380      24  106386  106383      25  106392  106389      24
  106395  106389      24  106395  106392      25  106401  106398      24  106404
  106398      24  106404  106401      25  106410  106407      24  106413  106407
      24  106413  106410      25  106419  106416      24  106422  106416      24
  106422  106419      25  106428  106425      24  106431  106425      24  106431
  106428      25  106437  106434      24  106440  106434      24  106440  106437
      25  106446  106443      24  106449  106443      24  106449  106446      25
  106455  106452      24  106458  106452      24  106458  106455      25  106464
  106461      24  106467  106461      24  106467  106464      25  106473  106470
      24  106476  106470      24  106476  106473      25  106482  106479      24
  106485  106479      24  106485  106482      25  106491  106488      24  106494
  106488      24  106494  106491      25  106500  106497      24  106503  106497
      24  106503  106500      25  106509  106506      24  106512  106506      24
  106512  106509      25  106518  106515      24  106521  106515      24  106521
  106518      25  106527  106524      24  106530  106524      24  106530  106527
      25  106536  106533      24  106539  106533      24  106539  106536      25
  106545  106542      24  106548  106542      24  106548  106545      25  106554
  106551      24  106557  106551      24  106557  106554      25  106563  106560
      24  106566  106560      24  106566  106563      25  106572  106569      24
  106575  106569      24  106575  106572      25  106581  106578      24  106584
  106578      24  106584  106581      25  106590  106587      24  106593  106587
      24  106593  106590      25  106599  106596      24  106602  106596      24
  106602  106599      25  106608  106605      24  106611  106605      24  106611
  106608      25  106617  106614      24  106620  106614      24  106620  106617
      25  106626  106623      24  106629  106623      24  106629  106626      25
  106635  106632      24  106638  106632      24  106638  106635      25  106644
  106641      24  106647  106641      24  106647  106644      25  106653  106650
      24  106656  106650      24  106656  106653      25  106662  106659      24
  106665  106659      24  106665  106662      25  106671  106668      24  106674
  106668      24  106674  106671      25  106680  106677      24  106683  106677
      24  106683  106680      25  106689  106686      24  106692  106686      24
  106692  106689      25  106698  106695      24  106701  106695      24  106701
  106698      25  106707  106704      24  106710  106704      24  106710  106707
      25  106716  106713      24  106719  106713      24  106719  106716      25
  106725  106722      24  106728  106722      24  106728  106725      25  106734
  106731      24  106737  106731      24  106737  106734      25  106743  106740
      24  106746  106740      24  106746  106743      25  106752  106749      24
  106755  106749      24  106755  106752      25  106761  106758      24  106764
  106758      24  106764  106761      25  106770  106767      24  106773  106767
      24  106773  106770      25  106779  106776      24  106782  106776      24
  106782  106779      25  106788  106785      24  106791  106785      24  106791
  106788      25  106797  106794      24  106800  106794      24  106800  106797
      25  106806  106803      24  106809  106803      24  106809  106806      25
  106815  106812      24  106818  106812      24  106818  106815      25  106824
  106821      24  106827  106821      24  106827  106824      25  106833  106830
      24  106836  106830      24  106836  106833      25  106842  106839      24
  106845  106839      24  106845  106842      25  106851  106848      24  106854
  106848      24  106854  106851      25  106860  106857      24  106863  106857
      24  106863  106860      25  106869  106866      24  106872  106866      24
  106872  106869      25  106878  106875      24  106881  106875      24  106881
  106878      25  106887  106884      24  106890  106884      24  106890  106887
      25  106896  106893      24  106899  106893      24  106899  106896      25
  106905  106902      24  106908  106902      24  106908  106905      25  106914
  106911      24  106917  106911      24  106917  106914      25  106923  106920
      24  106926  106920      24  106926  106923      25  106932  106929      24
  106935  106929      24  106935  106932      25  106941  106938      24  106944
  106938      24  106944  106941      25  106950  106947      24  106953  106947
      24  106953  106950      25  106959  106956      24  106962  106956      24
  106962  106959      25  106968  106965      24  106971  106965      24  106971
  106968      25  106977  106974      24  106980  106974      24  106980  106977
      25  106986  106983      24  106989  106983      24  106989  106986      25
  106995  106992      24  106998  106992      24  106998  106995      25  107004
  107001      24  107007  107001      24  107007  107004      25  107013  107010
      24  107016  107010      24  107016  107013      25  107022  107019      24
  107025  107019      24  107025  107022      25  107031  107028      24  107034
  107028      24  107034  107031      25  107040  107037      24  107043  107037
      24  107043  107040      25  107049  107046      24  107052  107046      24
  107052  107049      25  107058  107055      24  107061  107055      24  107061
  107058      25  107067  107064      24  107070  107064      24  107070  107067
      25  107076  107073      24  107079  107073      24  107079  107076      25
  107085  107082      24  107088  107082      24  107088  107085      25  107094
  107091      24  107097  107091      24  107097  107094      25  107103  107100
      24  107106  107100      24  107106  107103      25  107112  107109      24
  107115  107109      24  107115  107112      25  107121  107118      24  107124
  107118      24  107124  107121      25  107130  107127      24  107133  107127
      24  107133  107130      25  107139  107136      24  107142  107136      24
  107142  107139      25  107148  107145      24  107151  107145      24  107151
  107148      25  107157  107154      24  107160  107154      24  107160  107157
      25  107166  107163      24  107169  107163      24  107169  107166      25
  107175  107172      24  107178  107172      24  107178  107175      25  107184
  107181      24  107187  107181      24  107187  107184      25  107193  107190
      24  107196  107190      24  107196  107193      25  107202  107199      24
  107205  107199      24  107205  107202      25  107211  107208      24  107214
  107208      24  107214  107211      25  107220  107217      24  107223  107217
      24  107223  107220      25  107229  107226      24  107232  107226      24
  107232  107229      25  107238  107235      24  107241  107235      24  107241
  107238      25  107247  107244      24  107250  107244      24  107250  107247
      25  107256  107253      24  107259  107253      24  107259  107256      25
  107265  107262      24  107268  107262      24  107268  107265      25  107274
  107271      24  107277  107271      24  107277  107274      25  107283  107280
      24  107286  107280      24  107286  107283      25  107292  107289      24
  107295  107289      24  107295  107292      25  107301  107298      24  107304
  107298      24  107304  107301      25  107310  107307      24  107313  107307
      24  107313  107310      25  107319  107316      24  107322  107316      24
  107322  107319      25  107328  107325      24  107331  107325      24  107331
  107328      25  107337  107334      24  107340  107334      24  107340  107337
      25  107346  107343      24  107349  107343      24  107349  107346      25
  107355  107352      24  107358  107352      24  107358  107355      25  107364
  107361      24  107367  107361      24  107367  107364      25  107373  107370
      24  107376  107370      24  107376  107373      25  107382  107379      24
  107385  107379      24  107385  107382      25  107391  107388      24  107394
  107388      24  107394  107391      25  107400  107397      24  107403  107397
      24  107403  107400      25  107409  107406      24  107412  107406      24
  107412  107409      25  107418  107415      24  107421  107415      24  107421
  107418      25  107427  107424      24  107430  107424      24  107430  107427
      25  107436  107433      24  107439  107433      24  107439  107436      25
  107445  107442      24  107448  107442      24  107448  107445      25  107454
  107451      24  107457  107451      24  107457  107454      25  107463  107460
      24  107466  107460      24  107466  107463      25  107472  107469      24
  107475  107469      24  107475  107472      25  107481  107478      24  107484
  107478      24  107484  107481      25  107490  107487      24  107493  107487
      24  107493  107490      25  107499  107496      24  107502  107496      24
  107502  107499      25  107508  107505      24  107511  107505      24  107511
  107508      25  107517  107514      24  107520  107514      24  107520  107517
      25  107526  107523      24  107529  107523      24  107529  107526      25
  107535  107532      24  107538  107532      24  107538  107535      25  107544
  107541      24  107547  107541      24  107547  107544      25  107553  107550
      24  107556  107550      24  107556  107553      25  107562  107559      24
  107565  107559      24  107565  107562      25  107571  107568      24  107574
  107568      24  107574  107571      25  107580  107577      24  107583  107577
      24  107583  107580      25  107589  107586      24  107592  107586      24
  107592  107589      25  107598  107595      24  107601  107595      24  107601
  107598      25  107607  107604      24  107610  107604      24  107610  107607
      25  107616  107613      24  107619  107613      24  107619  107616      25
  107625  107622      24  107628  107622      24  107628  107625      25  107634
  107631      24  107637  107631      24  107637  107634      25  107643  107640
      24  107646  107640      24  107646  107643      25  107652  107649      24
  107655  107649      24  107655  107652      25  107661  107658      24  107664
  107658      24  107664  107661      25  107670  107667      24  107673  107667
      24  107673  107670      25  107679  107676      24  107682  107676      24
  107682  107679      25  107688  107685      24  107691  107685      24  107691
  107688      25  107697  107694      24  107700  107694      24  107700  107697
      25  107706  107703      24  107709  107703      24  107709  107706      25
  107715  107712      24  107718  107712      24  107718  107715      25  107724
  107721      24  107727  107721      24  107727  107724      25  107733  107730
      24  107736  107730      24  107736  107733      25  107742  107739      24
  107745  107739      24  107745  107742      25  107751  107748      24  107754
  107748      24  107754  107751      25  107760  107757      24  107763  107757
      24  107763  107760      25  107769  107766      24  107772  107766      24
  107772  107769      25  107778  107775      24  107781  107775      24  107781
  107778      25  107787  107784      24  107790  107784      24  107790  107787
      25  107796  107793      24  107799  107793      24  107799  107796      25
  107805  107802      24  107808  107802      24  107808  107805      25  107814
  107811      24  107817  107811      24  107817  107814      25  107823  107820
      24  107826  107820      24  107826  107823      25  107832  107829      24
  107835  107829      24  107835  107832      25  107841  107838      24  107844
  107838      24  107844  107841      25  107850  107847      24  107853  107847
      24  107853  107850      25  107859  107856      24  107862  107856      24
  107862  107859      25  107868  107865      24  107871  107865      24  107871
  107868      25  107877  107874      24  107880  107874      24  107880  107877
      25  107886  107883      24  107889  107883      24  107889  107886      25
  107895  107892      24  107898  107892      24  107898  107895      25  107904
  107901      24  107907  107901      24  107907  107904      25  107913  107910
      24  107916  107910      24  107916  107913      25  107922  107919      24
  107925  107919      24  107925  107922      25  107931  107928      24  107934
  107928      24  107934  107931      25  107940  107937      24  107943  107937
      24  107943  107940      25  107949  107946      24  107952  107946      24
  107952  107949      25  107958  107955      24  107961  107955      24  107961
  107958      25  107967  107964      24  107970  107964      24  107970  107967
      25  107976  107973      24  107979  107973      24  107979  107976      25
  107985  107982      24  107988  107982      24  107988  107985      25  107994
  107991      24  107997  107991      24  107997  107994      25  108003  108000
      24  108006  108000      24  108006  108003      25  108012  108009      24
  108015  108009      24  108015  108012      25  108021  108018      24  108024
  108018      24  108024  108021      25  108030  108027      24  108033  108027
      24  108033  108030      25  108039  108036      24  108042  108036      24
  108042  108039      25  108048  108045      24  108051  108045      24  108051
  108048      25  108057  108054      24  108060  108054      24  108060  108057
      25  108066  108063      24  108069  108063      24  108069  108066      25
  108075  108072      24  108078  108072      24  108078  108075      25  108084
  108081      24  108087  108081      24  108087  108084      25  108093  108090
      24  108096  108090      24  108096  108093      25  108102  108099      24
  108105  108099      24  108105  108102      25  108111  108108      24  108114
  108108      24  108114  108111      25  108120  108117      24  108123  108117
      24  108123  108120      25  108129  108126      24  108132  108126      24
  108132  108129      25  108138  108135      24  108141  108135      24  108141
  108138      25  108147  108144      24  108150  108144      24  108150  108147
      25  108156  108153      24  108159  108153      24  108159  108156      25
  108165  108162      24  108168  108162      24  108168  108165      25  108174
  108171      24  108177  108171      24  108177  108174      25  108183  108180
      24  108186  108180      24  108186  108183      25  108192  108189      24
  108195  108189      24  108195  108192      25  108201  108198      24  108204
  108198      24  108204  108201      25  108210  108207      24  108213  108207
      24  108213  108210      25  108219  108216      24  108222  108216      24
  108222  108219      25  108228  108225      24  108231  108225      24  108231
  108228      25  108237  108234      24  108240  108234      24  108240  108237
      25  108246  108243      24  108249  108243      24  108249  108246      25
  108255  108252      24  108258  108252      24  108258  108255      25  108264
  108261      24  108267  108261      24  108267  108264      25  108273  108270
      24  108276  108270      24  108276  108273      25  108282  108279      24
  108285  108279      24  108285  108282      25  108291  108288      24  108294
  108288      24  108294  108291      25  108300  108297      24  108303  108297
      24  108303  108300      25  108309  108306      24  108312  108306      24
  108312  108309      25  108318  108315      24  108321  108315      24  108321
  108318      25  108327  108324      24  108330  108324      24  108330  108327
      25  108336  108333      24  108339  108333      24  108339  108336      25
  108345  108342      24  108348  108342      24  108348  108345      25  108354
  108351      24  108357  108351      24  108357  108354      25  108363  108360
      24  108366  108360      24  108366  108363      25  108372  108369      24
  108375  108369      24  108375  108372      25  108381  108378      24  108384
  108378      24  108384  108381      25  108390  108387      24  108393  108387
      24  108393  108390      25  108399  108396      24  108402  108396      24
  108402  108399      25  108408  108405      24  108411  108405      24  108411
  108408      25  108417  108414      24  108420  108414      24  108420  108417
      25  108426  108423      24  108429  108423      24  108429  108426      25
  108435  108432      24  108438  108432      24  108438  108435      25  108444
  108441      24  108447  108441      24  108447  108444      25  108453  108450
      24  108456  108450      24  108456  108453      25  108462  108459      24
  108465  108459      24  108465  108462      25  108471  108468      24  108474
  108468      24  108474  108471      25  108480  108477      24  108483  108477
      24  108483  108480      25  108489  108486      24  108492  108486      24
  108492  108489      25  108498  108495      24  108501  108495      24  108501
  108498      25  108507  108504      24  108510  108504      24  108510  108507
      25  108516  108513      24  108519  108513      24  108519  108516      25
  108525  108522      24  108528  108522      24  108528  108525      25  108534
  108531      24  108537  108531      24  108537  108534      25  108543  108540
      24  108546  108540      24  108546  108543      25  108552  108549      24
  108555  108549      24  108555  108552      25  108561  108558      24  108564
  108558      24  108564  108561      25  108570  108567      24  108573  108567
      24  108573  108570      25  108579  108576      24  108582  108576      24
  108582  108579      25  108588  108585      24  108591  108585      24  108591
  108588      25  108597  108594      24  108600  108594      24  108600  108597
      25  108606  108603      24  108609  108603      24  108609  108606      25
  108615  108612      24  108618  108612      24  108618  108615      25  108624
  108621      24  108627  108621      24  108627  108624      25  108633  108630
      24  108636  108630      24  108636  108633      25  108642  108639      24
  108645  108639      24  108645  108642      25  108651  108648      24  108654
  108648      24  108654  108651      25  108660  108657      24  108663  108657
      24  108663  108660      25  108669  108666      24  108672  108666      24
  108672  108669      25  108678  108675      24  108681  108675      24  108681
  108678      25  108687  108684      24  108690  108684      24  108690  108687
      25  108696  108693      24  108699  108693      24  108699  108696      25
  108705  108702      24  108708  108702      24  108708  108705      25  108714
  108711      24  108717  108711      24  108717  108714      25  108723  108720
      24  108726  108720      24  108726  108723      25  108732  108729      24
  108735  108729      24  108735  108732      25  108741  108738      24  108744
  108738      24  108744  108741      25  108750  108747      24  108753  108747
      24  108753  108750      25  108759  108756      24  108762  108756      24
  108762  108759      25  108768  108765      24  108771  108765      24  108771
  108768      25  108777  108774      24  108780  108774      24  108780  108777
      25  108786  108783      24  108789  108783      24  108789  108786      25
  108795  108792      24  108798  108792      24  108798  108795      25  108804
  108801      24  108807  108801      24  108807  108804      25  108813  108810
      24  108816  108810      24  108816  108813      25  108822  108819      24
  108825  108819      24  108825  108822      25  108831  108828      24  108834
  108828      24  108834  108831      25  108840  108837      24  108843  108837
      24  108843  108840      25  108849  108846      24  108852  108846      24
  108852  108849      25  108858  108855      24  108861  108855      24  108861
  108858      25  108867  108864      24  108870  108864      24  108870  108867
      25  108876  108873      24  108879  108873      24  108879  108876      25
  108885  108882      24  108888  108882      24  108888  108885      25  108894
  108891      24  108897  108891      24  108897  108894      25  108903  108900
      24  108906  108900      24  108906  108903      25  108912  108909      24
  108915  108909      24  108915  108912      25  108921  108918      24  108924
  108918      24  108924  108921      25  108930  108927      24  108933  108927
      24  108933  108930      25  108939  108936      24  108942  108936      24
  108942  108939      25  108948  108945      24  108951  108945      24  108951
  108948      25  108957  108954      24  108960  108954      24  108960  108957
      25  108966  108963      24  108969  108963      24  108969  108966      25
  108975  108972      24  108978  108972      24  108978  108975      25  108984
  108981      24  108987  108981      24  108987  108984      25  108993  108990
      24  108996  108990      24  108996  108993      25  109002  108999      24
  109005  108999      24  109005  109002      25  109011  109008      24  109014
  109008      24  109014  109011      25  109020  109017      24  109023  109017
      24  109023  109020      25  109029  109026      24  109032  109026      24
  109032  109029      25  109038  109035      24  109041  109035      24  109041
  109038      25  109047  109044      24  109050  109044      24  109050  109047
      25  109056  109053      24  109059  109053      24  109059  109056      25
  109065  109062      24  109068  109062      24  109068  109065      25  109074
  109071      24  109077  109071      24  109077  109074      25  109083  109080
      24  109086  109080      24  109086  109083      25  109092  109089      24
  109095  109089      24  109095  109092      25  109101  109098      24  109104
  109098      24  109104  109101      25  109110  109107      24  109113  109107
      24  109113  109110      25  109119  109116      24  109122  109116      24
  109122  109119      25  109128  109125      24  109131  109125      24  109131
  109128      25  109137  109134      24  109140  109134      24  109140  109137
      25  109146  109143      24  109149  109143      24  109149  109146      25
  109155  109152      24  109158  109152      24  109158  109155      25  109164
  109161      24  109167  109161      24  109167  109164      25  109173  109170
      24  109176  109170      24  109176  109173      25  109182  109179      24
  109185  109179      24  109185  109182      25  109191  109188      24  109194
  109188      24  109194  109191      25  109200  109197      24  109203  109197
      24  109203  109200      25  109209  109206      24  109212  109206      24
  109212  109209      25  109218  109215      24  109221  109215      24  109221
  109218      25  109227  109224      24  109230  109224      24  109230  109227
      25  109236  109233      24  109239  109233      24  109239  109236      25
  109245  109242      24  109248  109242      24  109248  109245      25  109254
  109251      24  109257  109251      24  109257  109254      25  109263  109260
      24  109266  109260      24  109266  109263      25  109272  109269      24
  109275  109269      24  109275  109272      25  109281  109278      24  109284
  109278      24  109284  109281      25  109290  109287      24  109293  109287
      24  109293  109290      25  109299  109296      24  109302  109296      24
  109302  109299      25  109308  109305      24  109311  109305      24  109311
  109308      25  109317  109314      24  109320  109314      24  109320  109317
      25  109326  109323      24  109329  109323      24  109329  109326      25
  109335  109332      24  109338  109332      24  109338  109335      25  109344
  109341      24  109347  109341      24  109347  109344      25  109353  109350
      24  109356  109350      24  109356  109353      25  109362  109359      24
  109365  109359      24  109365  109362      25  109371  109368      24  109374
  109368      24  109374  109371      25  109380  109377      24  109383  109377
      24  109383  109380      25  109389  109386      24  109392  109386      24
  109392  109389      25  109398  109395      24  109401  109395      24  109401
  109398      25  109407  109404      24  109410  109404      24  109410  109407
      25  109416  109413      24  109419  109413      24  109419  109416      25
  109425  109422      24  109428  109422      24  109428  109425      25  109434
  109431      24  109437  109431      24  109437  109434      25  109443  109440
      24  109446  109440      24  109446  109443      25  109452  109449      24
  109455  109449      24  109455  109452      25  109461  109458      24  109464
  109458      24  109464  109461      25  109470  109467      24  109473  109467
      24  109473  109470      25  109479  109476      24  109482  109476      24
  109482  109479      25  109488  109485      24  109491  109485      24  109491
  109488      25  109497  109494      24  109500  109494      24  109500  109497
      25  109506  109503      24  109509  109503      24  109509  109506      25
  109515  109512      24  109518  109512      24  109518  109515      25  109524
  109521      24  109527  109521      24  109527  109524      25  109533  109530
      24  109536  109530      24  109536  109533      25  109542  109539      24
  109545  109539      24  109545  109542      25  109551  109548      24  109554
  109548      24  109554  109551      25  109560  109557      24  109563  109557
      24  109563  109560      25  109569  109566      24  109572  109566      24
  109572  109569      25  109578  109575      24  109581  109575      24  109581
  109578      25  109587  109584      24  109590  109584      24  109590  109587
      25  109596  109593      24  109599  109593      24  109599  109596      25
  109605  109602      24  109608  109602      24  109608  109605      25  109614
  109611      24  109617  109611      24  109617  109614      25  109623  109620
      24  109626  109620      24  109626  109623      25  109632  109629      24
  109635  109629      24  109635  109632      25  109641  109638      24  109644
  109638      24  109644  109641      25  109650  109647      24  109653  109647
      24  109653  109650      25  109659  109656      24  109662  109656      24
  109662  109659      25  109668  109665      24  109671  109665      24  109671
  109668      25  109677  109674      24  109680  109674      24  109680  109677
      25  109686  109683      24  109689  109683      24  109689  109686      25
  109695  109692      24  109698  109692      24  109698  109695      25  109704
  109701      24  109707  109701      24  109707  109704      25  109713  109710
      24  109716  109710      24  109716  109713      25  109722  109719      24
  109725  109719      24  109725  109722      25  109731  109728      24  109734
  109728      24  109734  109731      25  109740  109737      24  109743  109737
      24  109743  109740      25  109749  109746      24  109752  109746      24
  109752  109749      25  109758  109755      24  109761  109755      24  109761
  109758      25  109767  109764      24  109770  109764      24  109770  109767
      25  109776  109773      24  109779  109773      24  109779  109776      25
  109785  109782      24  109788  109782      24  109788  109785      25  109794
  109791      24  109797  109791      24  109797  109794      25  109803  109800
      24  109806  109800      24  109806  109803      25  109812  109809      24
  109815  109809      24  109815  109812      25  109821  109818      24  109824
  109818      24  109824  109821      25  109830  109827      24  109833  109827
      24  109833  109830      25  109839  109836      24  109842  109836      24
  109842  109839      25  109848  109845      24  109851  109845      24  109851
  109848      25  109857  109854      24  109860  109854      24  109860  109857
      25  109866  109863      24  109869  109863      24  109869  109866      25
  109875  109872      24  109878  109872      24  109878  109875      25  109884
  109881      24  109887  109881      24  109887  109884      25  109893  109890
      24  109896  109890      24  109896  109893      25  109902  109899      24
  109905  109899      24  109905  109902      25  109911  109908      24  109914
  109908      24  109914  109911      25  109920  109917      24  109923  109917
      24  109923  109920      25  109929  109926      24  109932  109926      24
  109932  109929      25  109938  109935      24  109941  109935      24  109941
  109938      25  109947  109944      24  109950  109944      24  109950  109947
      25  109956  109953      24  109959  109953      24  109959  109956      25
  109965  109962      24  109968  109962      24  109968  109965      25  109974
  109971      24  109977  109971      24  109977  109974      25  109983  109980
      24  109986  109980      24  109986  109983      25  109992  109989      24
  109995  109989      24  109995  109992      25  110001  109998      24  110004
  109998      24  110004  110001      25  110010  110007      24  110013  110007
      24  110013  110010      25  110019  110016      24  110022  110016      24
  110022  110019      25  110028  110025      24  110031  110025      24  110031
  110028      25  110037  110034      24  110040  110034      24  110040  110037
      25  110046  110043      24  110049  110043      24  110049  110046      25
  110055  110052      24  110058  110052      24  110058  110055      25  110064
  110061      24  110067  110061      24  110067  110064      25  110073  110070
      24  110076  110070      24  110076  110073      25  110082  110079      24
  110085  110079      24  110085  110082      25  110091  110088      24  110094
  110088      24  110094  110091      25  110100  110097      24  110103  110097
      24  110103  110100      25  110109  110106      24  110112  110106      24
  110112  110109      25  110118  110115      24  110121  110115      24  110121
  110118      25  110127  110124      24  110130  110124      24  110130  110127
      25  110136  110133      24  110139  110133      24  110139  110136      25
  110145  110142      24  110148  110142      24  110148  110145      25  110154
  110151      24  110157  110151      24  110157  110154      25  110163  110160
      24  110166  110160      24  110166  110163      25  110172  110169      24
  110175  110169      24  110175  110172      25  110181  110178      24  110184
  110178      24  110184  110181      25  110190  110187      24  110193  110187
      24  110193  110190      25  110199  110196      24  110202  110196      24
  110202  110199      25  110208  110205      24  110211  110205      24  110211
  110208      25  110217  110214      24  110220  110214      24  110220  110217
      25  110226  110223      24  110229  110223      24  110229  110226      25
  110235  110232      24  110238  110232      24  110238  110235      25  110244
  110241      24  110247  110241      24  110247  110244      25  110253  110250
      24  110256  110250      24  110256  110253      25  110262  110259      24
  110265  110259      24  110265  110262      25  110271  110268      24  110274
  110268      24  110274  110271      25  110280  110277      24  110283  110277
      24  110283  110280      25  110289  110286      24  110292  110286      24
  110292  110289      25  110298  110295      24  110301  110295      24  110301
  110298      25  110307  110304      24  110310  110304      24  110310  110307
      25  110316  110313      24  110319  110313      24  110319  110316      25
  110325  110322      24  110328  110322      24  110328  110325      25  110334
  110331      24  110337  110331      24  110337  110334      25  110343  110340
      24  110346  110340      24  110346  110343      25  110352  110349      24
  110355  110349      24  110355  110352      25  110361  110358      24  110364
  110358      24  110364  110361      25  110370  110367      24  110373  110367
      24  110373  110370      25  110379  110376      24  110382  110376      24
  110382  110379      25  110388  110385      24  110391  110385      24  110391
  110388      25  110397  110394      24  110400  110394      24  110400  110397
      25  110406  110403      24  110409  110403      24  110409  110406      25
  110415  110412      24  110418  110412      24  110418  110415      25  110424
  110421      24  110427  110421      24  110427  110424      25  110433  110430
      24  110436  110430      24  110436  110433      25  110442  110439      24
  110445  110439      24  110445  110442      25  110451  110448      24  110454
  110448      24  110454  110451      25  110460  110457      24  110463  110457
      24  110463  110460      25  110469  110466      24  110472  110466      24
  110472  110469      25  110478  110475      24  110481  110475      24  110481
  110478      25  110487  110484      24  110490  110484      24  110490  110487
      25  110496  110493      24  110499  110493      24  110499  110496      25
  110505  110502      24  110508  110502      24  110508  110505      25  110514
  110511      24  110517  110511      24  110517  110514      25  110523  110520
      24  110526  110520      24  110526  110523      25  110532  110529      24
  110535  110529      24  110535  110532      25  110541  110538      24  110544
  110538      24  110544  110541      25  110550  110547      24  110553  110547
      24  110553  110550      25  110559  110556      24  110562  110556      24
  110562  110559      25  110568  110565      24  110571  110565      24  110571
  110568      25  110577  110574      24  110580  110574      24  110580  110577
      25  110586  110583      24  110589  110583      24  110589  110586      25
  110595  110592      24  110598  110592      24  110598  110595      25  110604
  110601      24  110607  110601      24  110607  110604      25  110613  110610
      24  110616  110610      24  110616  110613      25  110622  110619      24
  110625  110619      24  110625  110622      25  110631  110628      24  110634
  110628      24  110634  110631      25  110640  110637      24  110643  110637
      24  110643  110640      25  110649  110646      24  110652  110646      24
  110652  110649      25  110658  110655      24  110661  110655      24  110661
  110658      25  110667  110664      24  110670  110664      24  110670  110667
      25  110676  110673      24  110679  110673      24  110679  110676      25
  110685  110682      24  110688  110682      24  110688  110685      25  110694
  110691      24  110697  110691      24  110697  110694      25  110703  110700
      24  110706  110700      24  110706  110703      25  110712  110709      24
  110715  110709      24  110715  110712      25  110721  110718      24  110724
  110718      24  110724  110721      25  110730  110727      24  110733  110727
      24  110733  110730      25  110739  110736      24  110742  110736      24
  110742  110739      25  110748  110745      24  110751  110745      24  110751
  110748      25  110757  110754      24  110760  110754      24  110760  110757
      25  110766  110763      24  110769  110763      24  110769  110766      25
  110775  110772      24  110778  110772      24  110778  110775      25  110784
  110781      24  110787  110781      24  110787  110784      25  110793  110790
      24  110796  110790      24  110796  110793      25  110802  110799      24
  110805  110799      24  110805  110802      25  110811  110808      24  110814
  110808      24  110814  110811      25  110820  110817      24  110823  110817
      24  110823  110820      25  110829  110826      24  110832  110826      24
  110832  110829      25  110838  110835      24  110841  110835      24  110841
  110838      25  110847  110844      24  110850  110844      24  110850  110847
      25  110856  110853      24  110859  110853      24  110859  110856      25
  110865  110862      24  110868  110862      24  110868  110865      25  110874
  110871      24  110877  110871      24  110877  110874      25  110883  110880
      24  110886  110880      24  110886  110883      25  110892  110889      24
  110895  110889      24  110895  110892      25  110901  110898      24  110904
  110898      24  110904  110901      25  110910  110907      24  110913  110907
      24  110913  110910      25  110919  110916      24  110922  110916      24
  110922  110919      25  110928  110925      24  110931  110925      24  110931
  110928      25  110937  110934      24  110940  110934      24  110940  110937
      25  110946  110943      24  110949  110943      24  110949  110946      25
  110955  110952      24  110958  110952      24  110958  110955      25  110964
  110961      24  110967  110961      24  110967  110964      25  110973  110970
      24  110976  110970      24  110976  110973      25  110982  110979      24
  110985  110979      24  110985  110982      25  110991  110988      24  110994
  110988      24  110994  110991      25  111000  110997      24  111003  110997
      24  111003  111000      25  111009  111006      24  111012  111006      24
  111012  111009      25  111018  111015      24  111021  111015      24  111021
  111018      25  111027  111024      24  111030  111024      24  111030  111027
      25  111036  111033      24  111039  111033      24  111039  111036      25
  111045  111042      24  111048  111042      24  111048  111045      25  111054
  111051      24  111057  111051      24  111057  111054      25  111063  111060
      24  111066  111060      24  111066  111063      25  111072  111069      24
  111075  111069      24  111075  111072      25  111081  111078      24  111084
  111078      24  111084  111081      25  111090  111087      24  111093  111087
      24  111093  111090      25  111099  111096      24  111102  111096      24
  111102  111099      25  111108  111105      24  111111  111105      24  111111
  111108      25  111117  111114      24  111120  111114      24  111120  111117
      25  111126  111123      24  111129  111123      24  111129  111126      25
  111135  111132      24  111138  111132      24  111138  111135      25  111144
  111141      24  111147  111141      24  111147  111144      25  111153  111150
      24  111156  111150      24  111156  111153      25  111162  111159      24
  111165  111159      24  111165  111162      25  111171  111168      24  111174
  111168      24  111174  111171      25  111180  111177      24  111183  111177
      24  111183  111180      25  111189  111186      24  111192  111186      24
  111192  111189      25  111198  111195      24  111201  111195      24  111201
  111198      25  111207  111204      24  111210  111204      24  111210  111207
      25  111216  111213      24  111219  111213      24  111219  111216      25
  111225  111222      24  111228  111222      24  111228  111225      25  111234
  111231      24  111237  111231      24  111237  111234      25  111243  111240
      24  111246  111240      24  111246  111243      25  111252  111249      24
  111255  111249      24  111255  111252      25  111261  111258      24  111264
  111258      24  111264  111261      25  111270  111267      24  111273  111267
      24  111273  111270      25  111279  111276      24  111282  111276      24
  111282  111279      25  111288  111285      24  111291  111285      24  111291
  111288      25  111297  111294      24  111300  111294      24  111300  111297
      25  111306  111303      24  111309  111303      24  111309  111306      25
  111315  111312      24  111318  111312      24  111318  111315      25  111324
  111321      24  111327  111321      24  111327  111324      25  111333  111330
      24  111336  111330      24  111336  111333      25  111342  111339      24
  111345  111339      24  111345  111342      25  111351  111348      24  111354
  111348      24  111354  111351      25  111360  111357      24  111363  111357
      24  111363  111360      25  111369  111366      24  111372  111366      24
  111372  111369      25  111378  111375      24  111381  111375      24  111381
  111378      25  111387  111384      24  111390  111384      24  111390  111387
      25  111396  111393      24  111399  111393      24  111399  111396      25
  111405  111402      24  111408  111402      24  111408  111405      25  111414
  111411      24  111417  111411      24  111417  111414      25  111423  111420
      24  111426  111420      24  111426  111423      25  111432  111429      24
  111435  111429      24  111435  111432      25  111441  111438      24  111444
  111438      24  111444  111441      25  111450  111447      24  111453  111447
      24  111453  111450      25  111459  111456      24  111462  111456      24
  111462  111459      25  111468  111465      24  111471  111465      24  111471
  111468      25  111477  111474      24  111480  111474      24  111480  111477
      25  111486  111483      24  111489  111483      24  111489  111486      25
  111495  111492      24  111498  111492      24  111498  111495      25  111504
  111501      24  111507  111501      24  111507  111504      25  111513  111510
      24  111516  111510      24  111516  111513      25  111522  111519      24
  111525  111519      24  111525  111522      25  111531  111528      24  111534
  111528      24  111534  111531      25  111540  111537      24  111543  111537
      24  111543  111540      25  111549  111546      24  111552  111546      24
  111552  111549      25  111558  111555      24  111561  111555      24  111561
  111558      25  111567  111564      24  111570  111564      24  111570  111567
      25  111576  111573      24  111579  111573      24  111579  111576      25
  111585  111582      24  111588  111582      24  111588  111585      25  111594
  111591      24  111597  111591      24  111597  111594      25  111603  111600
      24  111606  111600      24  111606  111603      25  111612  111609      24
  111615  111609      24  111615  111612      25  111621  111618      24  111624
  111618      24  111624  111621      25  111630  111627      24  111633  111627
      24  111633  111630      25  111639  111636      24  111642  111636      24
  111642  111639      25  111648  111645      24  111651  111645      24  111651
  111648      25  111657  111654      24  111660  111654      24  111660  111657
      25  111666  111663      24  111669  111663      24  111669  111666      25
  111675  111672      24  111678  111672      24  111678  111675      25  111684
  111681      24  111687  111681      24  111687  111684      25  111693  111690
      24  111696  111690      24  111696  111693      25  111702  111699      24
  111705  111699      24  111705  111702      25  111711  111708      24  111714
  111708      24  111714  111711      25  111720  111717      24  111723  111717
      24  111723  111720      25  111729  111726      24  111732  111726      24
  111732  111729      25  111738  111735      24  111741  111735      24  111741
  111738      25  111747  111744      24  111750  111744      24  111750  111747
      25  111756  111753      24  111759  111753      24  111759  111756      25
  111765  111762      24  111768  111762      24  111768  111765      25  111774
  111771      24  111777  111771      24  111777  111774      25  111783  111780
      24  111786  111780      24  111786  111783      25  111792  111789      24
  111795  111789      24  111795  111792      25  111801  111798      24  111804
  111798      24  111804  111801      25  111810  111807      24  111813  111807
      24  111813  111810      25  111819  111816      24  111822  111816      24
  111822  111819      25  111828  111825      24  111831  111825      24  111831
  111828      25  111837  111834      24  111840  111834      24  111840  111837
      25  111846  111843      24  111849  111843      24  111849  111846      25
  111855  111852      24  111858  111852      24  111858  111855      25  111864
  111861      24  111867  111861      24  111867  111864      25  111873  111870
      24  111876  111870      24  111876  111873      25  111882  111879      24
  111885  111879      24  111885  111882      25  111891  111888      24  111894
  111888      24  111894  111891      25  111900  111897      24  111903  111897
      24  111903  111900      25  111909  111906      24  111912  111906      24
  111912  111909      25  111918  111915      24  111921  111915      24  111921
  111918      25  111927  111924      24  111930  111924      24  111930  111927
      25  111936  111933      24  111939  111933      24  111939  111936      25
  111945  111942      24  111948  111942      24  111948  111945      25  111954
  111951      24  111957  111951      24  111957  111954      25  111963  111960
      24  111966  111960      24  111966  111963      25  111972  111969      24
  111975  111969      24  111975  111972      25  111981  111978      24  111984
  111978      24  111984  111981      25  111990  111987      24  111993  111987
      24  111993  111990      25  111999  111996      24  112002  111996      24
  112002  111999      25  112008  112005      24  112011  112005      24  112011
  112008      25  112017  112014      24  112020  112014      24  112020  112017
      25  112026  112023      24  112029  112023      24  112029  112026      25
  112035  112032      24  112038  112032      24  112038  112035      25  112044
  112041      24  112047  112041      24  112047  112044      25  112053  112050
      24  112056  112050      24  112056  112053      25  112062  112059      24
  112065  112059      24  112065  112062      25  112071  112068      24  112074
  112068      24  112074  112071      25  112080  112077      24  112083  112077
      24  112083  112080      25  112089  112086      24  112092  112086      24
  112092  112089      25  112098  112095      24  112101  112095      24  112101
  112098      25  112107  112104      24  112110  112104      24  112110  112107
      25  112116  112113      24  112119  112113      24  112119  112116      25
  112125  112122      24  112128  112122      24  112128  112125      25  112134
  112131      24  112137  112131      24  112137  112134      25  112143  112140
      24  112146  112140      24  112146  112143      25  112152  112149      24
  112155  112149      24  112155  112152      25  112161  112158      24  112164
  112158      24  112164  112161      25  112170  112167      24  112173  112167
      24  112173  112170      25  112179  112176      24  112182  112176      24
  112182  112179      25  112188  112185      24  112191  112185      24  112191
  112188      25  112197  112194      24  112200  112194      24  112200  112197
      25  112206  112203      24  112209  112203      24  112209  112206      25
  112215  112212      24  112218  112212      24  112218  112215      25  112224
  112221      24  112227  112221      24  112227  112224      25  112233  112230
      24  112236  112230      24  112236  112233      25  112242  112239      24
  112245  112239      24  112245  112242      25  112251  112248      24  112254
  112248      24  112254  112251      25  112260  112257      24  112263  112257
      24  112263  112260      25  112269  112266      24  112272  112266      24
  112272  112269      25  112278  112275      24  112281  112275      24  112281
  112278      25  112287  112284      24  112290  112284      24  112290  112287
      25  112296  112293      24  112299  112293      24  112299  112296      25
  112305  112302      24  112308  112302      24  112308  112305      25  112314
  112311      24  112317  112311      24  112317  112314      25  112323  112320
      24  112326  112320      24  112326  112323      25  112332  112329      24
  112335  112329      24  112335  112332      25  112341  112338      24  112344
  112338      24  112344  112341      25  112350  112347      24  112353  112347
      24  112353  112350      25  112359  112356      24  112362  112356      24
  112362  112359      25  112368  112365      24  112371  112365      24  112371
  112368      25  112377  112374      24  112380  112374      24  112380  112377
      25  112386  112383      24  112389  112383      24  112389  112386      25
  112395  112392      24  112398  112392      24  112398  112395      25  112404
  112401      24  112407  112401      24  112407  112404      25  112413  112410
      24  112416  112410      24  112416  112413      25  112422  112419      24
  112425  112419      24  112425  112422      25  112431  112428      24  112434
  112428      24  112434  112431      25  112440  112437      24  112443  112437
      24  112443  112440      25  112449  112446      24  112452  112446      24
  112452  112449      25  112458  112455      24  112461  112455      24  112461
  112458      25  112467  112464      24  112470  112464      24  112470  112467
      25  112476  112473      24  112479  112473      24  112479  112476      25
  112485  112482      24  112488  112482      24  112488  112485      25  112494
  112491      24  112497  112491      24  112497  112494      25  112503  112500
      24  112506  112500      24  112506  112503      25  112512  112509      24
  112515  112509      24  112515  112512      25  112521  112518      24  112524
  112518      24  112524  112521      25  112530  112527      24  112533  112527
      24  112533  112530      25  112539  112536      24  112542  112536      24
  112542  112539      25  112548  112545      24  112551  112545      24  112551
  112548      25  112557  112554      24  112560  112554      24  112560  112557
      25  112566  112563      24  112569  112563      24  112569  112566      25
  112575  112572      24  112578  112572      24  112578  112575      25  112584
  112581      24  112587  112581      24  112587  112584      25  112593  112590
      24  112596  112590      24  112596  112593      25  112602  112599      24
  112605  112599      24  112605  112602      25  112611  112608      24  112614
  112608      24  112614  112611      25  112620  112617      24  112623  112617
      24  112623  112620      25  112629  112626      24  112632  112626      24
  112632  112629      25  112638  112635      24  112641  112635      24  112641
  112638      25  112647  112644      24  112650  112644      24  112650  112647
      25  112656  112653      24  112659  112653      24  112659  112656      25
  112665  112662      24  112668  112662      24  112668  112665      25  112674
  112671      24  112677  112671      24  112677  112674      25  112683  112680
      24  112686  112680      24  112686  112683      25  112692  112689      24
  112695  112689      24  112695  112692      25  112701  112698      24  112704
  112698      24  112704  112701      25  112710  112707      24  112713  112707
      24  112713  112710      25  112719  112716      24  112722  112716      24
  112722  112719      25  112728  112725      24  112731  112725      24  112731
  112728      25  112737  112734      24  112740  112734      24  112740  112737
      25  112746  112743      24  112749  112743      24  112749  112746      25
  112755  112752      24  112758  112752      24  112758  112755      25  112764
  112761      24  112767  112761      24  112767  112764      25  112773  112770
      24  112776  112770      24  112776  112773      25  112782  112779      24
  112785  112779      24  112785  112782      25  112791  112788      24  112794
  112788      24  112794  112791      25  112800  112797      24  112803  112797
      24  112803  112800      25  112809  112806      24  112812  112806      24
  112812  112809      25  112818  112815      24  112821  112815      24  112821
  112818      25  112827  112824      24  112830  112824      24  112830  112827
      25  112836  112833      24  112839  112833      24  112839  112836      25
  112845  112842      24  112848  112842      24  112848  112845      25  112854
  112851      24  112857  112851      24  112857  112854      25  112863  112860
      24  112866  112860      24  112866  112863      25  112872  112869      24
  112875  112869      24  112875  112872      25  112881  112878      24  112884
  112878      24  112884  112881      25  112890  112887      24  112893  112887
      24  112893  112890      25  112899  112896      24  112902  112896      24
  112902  112899      25  112908  112905      24  112911  112905      24  112911
  112908      25  112917  112914      24  112920  112914      24  112920  112917
      25  112926  112923      24  112929  112923      24  112929  112926      25
  112935  112932      24  112938  112932      24  112938  112935      25  112944
  112941      24  112947  112941      24  112947  112944      25  112953  112950
      24  112956  112950      24  112956  112953      25  112962  112959      24
  112965  112959      24  112965  112962      25  112971  112968      24  112974
  112968      24  112974  112971      25  112980  112977      24  112983  112977
      24  112983  112980      25  112989  112986      24  112992  112986      24
  112992  112989      25  112998  112995      24  113001  112995      24  113001
  112998      25  113007  113004      24  113010  113004      24  113010  113007
      25  113016  113013      24  113019  113013      24  113019  113016      25
  113025  113022      24  113028  113022      24  113028  113025      25  113034
  113031      24  113037  113031      24  113037  113034      25  113043  113040
      24  113046  113040      24  113046  113043      25  113052  113049      24
  113055  113049      24  113055  113052      25  113061  113058      24  113064
  113058      24  113064  113061      25  113070  113067      24  113073  113067
      24  113073  113070      25  113079  113076      24  113082  113076      24
  113082  113079      25  113088  113085      24  113091  113085      24  113091
  113088      25  113097  113094      24  113100  113094      24  113100  113097
      25  113106  113103      24  113109  113103      24  113109  113106      25
  113115  113112      24  113118  113112      24  113118  113115      25  113124
  113121      24  113127  113121      24  113127  113124      25  113133  113130
      24  113136  113130      24  113136  113133      25  113142  113139      24
  113145  113139      24  113145  113142      25  113151  113148      24  113154
  113148      24  113154  113151      25  113160  113157      24  113163  113157
      24  113163  113160      25  113169  113166      24  113172  113166      24
  113172  113169      25  113178  113175      24  113181  113175      24  113181
  113178      25  113187  113184      24  113190  113184      24  113190  113187
      25  113196  113193      24  113199  113193      24  113199  113196      25
  113205  113202      24  113208  113202      24  113208  113205      25  113214
  113211      24  113217  113211      24  113217  113214      25  113223  113220
      24  113226  113220      24  113226  113223      25  113232  113229      24
  113235  113229      24  113235  113232      25  113241  113238      24  113244
  113238      24  113244  113241      25  113250  113247      24  113253  113247
      24  113253  113250      25  113259  113256      24  113262  113256      24
  113262  113259      25  113268  113265      24  113271  113265      24  113271
  113268      25  113277  113274      24  113280  113274      24  113280  113277
      25  113286  113283      24  113289  113283      24  113289  113286      25
  113295  113292      24  113298  113292      24  113298  113295      25  113304
  113301      24  113307  113301      24  113307  113304      25  113313  113310
      24  113316  113310      24  113316  113313      25  113322  113319      24
  113325  113319      24  113325  113322      25  113331  113328      24  113334
  113328      24  113334  113331      25  113340  113337      24  113343  113337
      24  113343  113340      25  113349  113346      24  113352  113346      24
  113352  113349      25  113358  113355      24  113361  113355      24  113361
  113358      25  113367  113364      24  113370  113364      24  113370  113367
      25  113376  113373      24  113379  113373      24  113379  113376      25
  113385  113382      24  113388  113382      24  113388  113385      25  113394
  113391      24  113397  113391      24  113397  113394      25  113403  113400
      24  113406  113400      24  113406  113403      25  113412  113409      24
  113415  113409      24  113415  113412      25  113421  113418      24  113424
  113418      24  113424  113421      25  113430  113427      24  113433  113427
      24  113433  113430      25  113439  113436      24  113442  113436      24
  113442  113439      25  113448  113445      24  113451  113445      24  113451
  113448      25  113457  113454      24  113460  113454      24  113460  113457
      25  113466  113463      24  113469  113463      24  113469  113466      25
  113475  113472      24  113478  113472      24  113478  113475      25  113484
  113481      24  113487  113481      24  113487  113484      25  113493  113490
      24  113496  113490      24  113496  113493      25  113502  113499      24
  113505  113499      24  113505  113502      25  113511  113508      24  113514
  113508      24  113514  113511      25  113520  113517      24  113523  113517
      24  113523  113520      25  113529  113526      24  113532  113526      24
  113532  113529      25  113538  113535      24  113541  113535      24  113541
  113538      25  113547  113544      24  113550  113544      24  113550  113547
      25  113556  113553      24  113559  113553      24  113559  113556      25
  113565  113562      24  113568  113562      24  113568  113565      25  113574
  113571      24  113577  113571      24  113577  113574      25  113583  113580
      24  113586  113580      24  113586  113583      25  113592  113589      24
  113595  113589      24  113595  113592      25  113601  113598      24  113604
  113598      24  113604  113601      25  113610  113607      24  113613  113607
      24  113613  113610      25  113619  113616      24  113622  113616      24
  113622  113619      25  113628  113625      24  113631  113625      24  113631
  113628      25  113637  113634      24  113640  113634      24  113640  113637
      25  113646  113643      24  113649  113643      24  113649  113646      25
  113655  113652      24  113658  113652      24  113658  113655      25  113664
  113661      24  113667  113661      24  113667  113664      25  113673  113670
      24  113676  113670      24  113676  113673      25  113682  113679      24
  113685  113679      24  113685  113682      25  113691  113688      24  113694
  113688      24  113694  113691      25  113700  113697      24  113703  113697
      24  113703  113700      25  113709  113706      24  113712  113706      24
  113712  113709      25  113718  113715      24  113721  113715      24  113721
  113718      25  113727  113724      24  113730  113724      24  113730  113727
      25  113736  113733      24  113739  113733      24  113739  113736      25
  113745  113742      24  113748  113742      24  113748  113745      25  113754
  113751      24  113757  113751      24  113757  113754      25  113763  113760
      24  113766  113760      24  113766  113763      25  113772  113769      24
  113775  113769      24  113775  113772      25  113781  113778      24  113784
  113778      24  113784  113781      25  113790  113787      24  113793  113787
      24  113793  113790      25  113799  113796      24  113802  113796      24
  113802  113799      25  113808  113805      24  113811  113805      24  113811
  113808      25  113817  113814      24  113820  113814      24  113820  113817
      25  113826  113823      24  113829  113823      24  113829  113826      25
  113835  113832      24  113838  113832      24  113838  113835      25  113844
  113841      24  113847  113841      24  113847  113844      25  113853  113850
      24  113856  113850      24  113856  113853      25  113862  113859      24
  113865  113859      24  113865  113862      25  113871  113868      24  113874
  113868      24  113874  113871      25  113880  113877      24  113883  113877
      24  113883  113880      25  113889  113886      24  113892  113886      24
  113892  113889      25  113898  113895      24  113901  113895      24  113901
  113898      25  113907  113904      24  113910  113904      24  113910  113907
      25  113916  113913      24  113919  113913      24  113919  113916      25
  113925  113922      24  113928  113922      24  113928  113925      25  113934
  113931      24  113937  113931      24  113937  113934      25  113943  113940
      24  113946  113940      24  113946  113943      25  113952  113949      24
  113955  113949      24  113955  113952      25  113961  113958      24  113964
  113958      24  113964  113961      25  113970  113967      24  113973  113967
      24  113973  113970      25  113979  113976      24  113982  113976      24
  113982  113979      25  113988  113985      24  113991  113985      24  113991
  113988      25  113997  113994      24  114000  113994      24  114000  113997
      25  114006  114003      24  114009  114003      24  114009  114006      25
  114015  114012      24  114018  114012      24  114018  114015      25  114024
  114021      24  114027  114021      24  114027  114024      25  114033  114030
      24  114036  114030      24  114036  114033      25  114042  114039      24
  114045  114039      24  114045  114042      25  114051  114048      24  114054
  114048      24  114054  114051      25  114060  114057      24  114063  114057
      24  114063  114060      25  114069  114066      24  114072  114066      24
  114072  114069      25  114078  114075      24  114081  114075      24  114081
  114078      25  114087  114084      24  114090  114084      24  114090  114087
      25  114096  114093      24  114099  114093      24  114099  114096      25
  114105  114102      24  114108  114102      24  114108  114105      25  114114
  114111      24  114117  114111      24  114117  114114      25  114123  114120
      24  114126  114120      24  114126  114123      25  114132  114129      24
  114135  114129      24  114135  114132      25  114141  114138      24  114144
  114138      24  114144  114141      25  114150  114147      24  114153  114147
      24  114153  114150      25  114159  114156      24  114162  114156      24
  114162  114159      25  114168  114165      24  114171  114165      24  114171
  114168      25  114177  114174      24  114180  114174      24  114180  114177
      25  114186  114183      24  114189  114183      24  114189  114186      25
  114195  114192      24  114198  114192      24  114198  114195      25  114204
  114201      24  114207  114201      24  114207  114204      25  114213  114210
      24  114216  114210      24  114216  114213      25  114222  114219      24
  114225  114219      24  114225  114222      25  114231  114228      24  114234
  114228      24  114234  114231      25  114240  114237      24  114243  114237
      24  114243  114240      25  114249  114246      24  114252  114246      24
  114252  114249      25  114258  114255      24  114261  114255      24  114261
  114258      25  114267  114264      24  114270  114264      24  114270  114267
      25  114276  114273      24  114279  114273      24  114279  114276      25
  114285  114282      24  114288  114282      24  114288  114285      25  114294
  114291      24  114297  114291      24  114297  114294      25  114303  114300
      24  114306  114300      24  114306  114303      25  114312  114309      24
  114315  114309      24  114315  114312      25  114321  114318      24  114324
  114318      24  114324  114321      25  114330  114327      24  114333  114327
      24  114333  114330      25  114339  114336      24  114342  114336      24
  114342  114339      25  114348  114345      24  114351  114345      24  114351
  114348      25  114357  114354      24  114360  114354      24  114360  114357
      25  114366  114363      24  114369  114363      24  114369  114366      25
  114375  114372      24  114378  114372      24  114378  114375      25  114384
  114381      24  114387  114381      24  114387  114384      25  114393  114390
      24  114396  114390      24  114396  114393      25  114402  114399      24
  114405  114399      24  114405  114402      25  114411  114408      24  114414
  114408      24  114414  114411      25  114420  114417      24  114423  114417
      24  114423  114420      25  114429  114426      24  114432  114426      24
  114432  114429      25  114438  114435      24  114441  114435      24  114441
  114438      25  114447  114444      24  114450  114444      24  114450  114447
      25  114456  114453      24  114459  114453      24  114459  114456      25
  114465  114462      24  114468  114462      24  114468  114465      25  114474
  114471      24  114477  114471      24  114477  114474      25  114483  114480
      24  114486  114480      24  114486  114483      25  114492  114489      24
  114495  114489      24  114495  114492      25  114501  114498      24  114504
  114498      24  114504  114501      25  114510  114507      24  114513  114507
      24  114513  114510      25  114519  114516      24  114522  114516      24
  114522  114519      25  114528  114525      24  114531  114525      24  114531
  114528      25  114537  114534      24  114540  114534      24  114540  114537
      25  114546  114543      24  114549  114543      24  114549  114546      25
  114555  114552      24  114558  114552      24  114558  114555      25  114564
  114561      24  114567  114561      24  114567  114564      25  114573  114570
      24  114576  114570      24  114576  114573      25  114582  114579      24
  114585  114579      24  114585  114582      25  114591  114588      24  114594
  114588      24  114594  114591      25  114600  114597      24  114603  114597
      24  114603  114600      25  114609  114606      24  114612  114606      24
  114612  114609      25  114618  114615      24  114621  114615      24  114621
  114618      25  114627  114624      24  114630  114624      24  114630  114627
      25  114636  114633      24  114639  114633      24  114639  114636      25
  114645  114642      24  114648  114642      24  114648  114645      25  114654
  114651      24  114657  114651      24  114657  114654      25  114663  114660
      24  114666  114660      24  114666  114663      25  114672  114669      24
  114675  114669      24  114675  114672      25  114681  114678      24  114684
  114678      24  114684  114681      25  114690  114687      24  114693  114687
      24  114693  114690      25  114699  114696      24  114702  114696      24
  114702  114699      25  114708  114705      24  114711  114705      24  114711
  114708      25  114717  114714      24  114720  114714      24  114720  114717
      25  114726  114723      24  114729  114723      24  114729  114726      25
  114735  114732      24  114738  114732      24  114738  114735      25  114744
  114741      24  114747  114741      24  114747  114744      25  114753  114750
      24  114756  114750      24  114756  114753      25  114762  114759      24
  114765  114759      24  114765  114762      25  114771  114768      24  114774
  114768      24  114774  114771      25  114780  114777      24  114783  114777
      24  114783  114780      25  114789  114786      24  114792  114786      24
  114792  114789      25  114798  114795      24  114801  114795      24  114801
  114798      25  114807  114804      24  114810  114804      24  114810  114807
      25  114816  114813      24  114819  114813      24  114819  114816      25
  114825  114822      24  114828  114822      24  114828  114825      25  114834
  114831      24  114837  114831      24  114837  114834      25  114843  114840
      24  114846  114840      24  114846  114843      25  114852  114849      24
  114855  114849      24  114855  114852      25  114861  114858      24  114864
  114858      24  114864  114861      25  114870  114867      24  114873  114867
      24  114873  114870      25  114879  114876      24  114882  114876      24
  114882  114879      25  114888  114885      24  114891  114885      24  114891
  114888      25  114897  114894      24  114900  114894      24  114900  114897
      25  114906  114903      24  114909  114903      24  114909  114906      25
  114915  114912      24  114918  114912      24  114918  114915      25  114924
  114921      24  114927  114921      24  114927  114924      25  114933  114930
      24  114936  114930      24  114936  114933      25  114942  114939      24
  114945  114939      24  114945  114942      25  114951  114948      24  114954
  114948      24  114954  114951      25  114960  114957      24  114963  114957
      24  114963  114960      25  114969  114966      24  114972  114966      24
  114972  114969      25  114978  114975      24  114981  114975      24  114981
  114978      25  114987  114984      24  114990  114984      24  114990  114987
      25  114996  114993      24  114999  114993      24  114999  114996      25
  115005  115002      24  115008  115002      24  115008  115005      25  115014
  115011      24  115017  115011      24  115017  115014      25  115023  115020
      24  115026  115020      24  115026  115023      25  115032  115029      24
  115035  115029      24  115035  115032      25  115041  115038      24  115044
  115038      24  115044  115041      25  115050  115047      24  115053  115047
      24  115053  115050      25  115059  115056      24  115062  115056      24
  115062  115059      25  115068  115065      24  115071  115065      24  115071
  115068      25  115077  115074      24  115080  115074      24  115080  115077
      25  115086  115083      24  115089  115083      24  115089  115086      25
  115095  115092      24  115098  115092      24  115098  115095      25  115104
  115101      24  115107  115101      24  115107  115104      25  115113  115110
      24  115116  115110      24  115116  115113      25  115122  115119      24
  115125  115119      24  115125  115122      25  115131  115128      24  115134
  115128      24  115134  115131      25  115140  115137      24  115143  115137
      24  115143  115140      25  115149  115146      24  115152  115146      24
  115152  115149      25  115158  115155      24  115161  115155      24  115161
  115158      25  115167  115164      24  115170  115164      24  115170  115167
      25  115176  115173      24  115179  115173      24  115179  115176      25
  115185  115182      24  115188  115182      24  115188  115185      25  115194
  115191      24  115197  115191      24  115197  115194      25  115203  115200
      24  115206  115200      24  115206  115203      25  115212  115209      24
  115215  115209      24  115215  115212      25  115221  115218      24  115224
  115218      24  115224  115221      25  115230  115227      24  115233  115227
      24  115233  115230      25  115239  115236      24  115242  115236      24
  115242  115239      25  115248  115245      24  115251  115245      24  115251
  115248      25  115257  115254      24  115260  115254      24  115260  115257
      25  115266  115263      24  115269  115263      24  115269  115266      25
  115275  115272      24  115278  115272      24  115278  115275      25  115284
  115281      24  115287  115281      24  115287  115284      25  115293  115290
      24  115296  115290      24  115296  115293      25  115302  115299      24
  115305  115299      24  115305  115302      25  115311  115308      24  115314
  115308      24  115314  115311      25  115320  115317      24  115323  115317
      24  115323  115320      25  115329  115326      24  115332  115326      24
  115332  115329      25  115338  115335      24  115341  115335      24  115341
  115338      25  115347  115344      24  115350  115344      24  115350  115347
      25  115356  115353      24  115359  115353      24  115359  115356      25
  115365  115362      24  115368  115362      24  115368  115365      25  115374
  115371      24  115377  115371      24  115377  115374      25  115383  115380
      24  115386  115380      24  115386  115383      25  115392  115389      24
  115395  115389      24  115395  115392      25  115401  115398      24  115404
  115398      24  115404  115401      25  115410  115407      24  115413  115407
      24  115413  115410      25  115419  115416      24  115422  115416      24
  115422  115419      25  115428  115425      24  115431  115425      24  115431
  115428      25  115437  115434      24  115440  115434      24  115440  115437
      25  115446  115443      24  115449  115443      24  115449  115446      25
  115455  115452      24  115458  115452      24  115458  115455      25  115464
  115461      24  115467  115461      24  115467  115464      25  115473  115470
      24  115476  115470      24  115476  115473      25  115482  115479      24
  115485  115479      24  115485  115482      25  115491  115488      24  115494
  115488      24  115494  115491      25  115500  115497      24  115503  115497
      24  115503  115500      25  115509  115506      24  115512  115506      24
  115512  115509      25  115518  115515      24  115521  115515      24  115521
  115518      25  115527  115524      24  115530  115524      24  115530  115527
      25  115536  115533      24  115539  115533      24  115539  115536      25
  115545  115542      24  115548  115542      24  115548  115545      25  115554
  115551      24  115557  115551      24  115557  115554      25  115563  115560
      24  115566  115560      24  115566  115563      25  115572  115569      24
  115575  115569      24  115575  115572      25  115581  115578      24  115584
  115578      24  115584  115581      25  115590  115587      24  115593  115587
      24  115593  115590      25  115599  115596      24  115602  115596      24
  115602  115599      25  115608  115605      24  115611  115605      24  115611
  115608      25  115617  115614      24  115620  115614      24  115620  115617
      25  115626  115623      24  115629  115623      24  115629  115626      25
  115635  115632      24  115638  115632      24  115638  115635      25  115644
  115641      24  115647  115641      24  115647  115644      25  115653  115650
      24  115656  115650      24  115656  115653      25  115662  115659      24
  115665  115659      24  115665  115662      25  115671  115668      24  115674
  115668      24  115674  115671      25  115680  115677      24  115683  115677
      24  115683  115680      25  115689  115686      24  115692  115686      24
  115692  115689      25  115698  115695      24  115701  115695      24  115701
  115698      25  115707  115704      24  115710  115704      24  115710  115707
      25  115716  115713      24  115719  115713      24  115719  115716      25
  115725  115722      24  115728  115722      24  115728  115725      25  115734
  115731      24  115737  115731      24  115737  115734      25  115743  115740
      24  115746  115740      24  115746  115743      25  115752  115749      24
  115755  115749      24  115755  115752      25  115761  115758      24  115764
  115758      24  115764  115761      25  115770  115767      24  115773  115767
      24  115773  115770      25  115779  115776      24  115782  115776      24
  115782  115779      25  115788  115785      24  115791  115785      24  115791
  115788      25  115797  115794      24  115800  115794      24  115800  115797
      25  115806  115803      24  115809  115803      24  115809  115806      25
  115815  115812      24  115818  115812      24  115818  115815      25  115824
  115821      24  115827  115821      24  115827  115824      25  115833  115830
      24  115836  115830      24  115836  115833      25  115842  115839      24
  115845  115839      24  115845  115842      25  115851  115848      24  115854
  115848      24  115854  115851      25  115860  115857      24  115863  115857
      24  115863  115860      25  115869  115866      24  115872  115866      24
  115872  115869      25  115878  115875      24  115881  115875      24  115881
  115878      25  115887  115884      24  115890  115884      24  115890  115887
      25  115896  115893      24  115899  115893      24  115899  115896      25
  115905  115902      24  115908  115902      24  115908  115905      25  115914
  115911      24  115917  115911      24  115917  115914      25  115923  115920
      24  115926  115920      24  115926  115923      25  115932  115929      24
  115935  115929      24  115935  115932      25  115941  115938      24  115944
  115938      24  115944  115941      25  115950  115947      24  115953  115947
      24  115953  115950      25  115959  115956      24  115962  115956      24
  115962  115959      25  115968  115965      24  115971  115965      24  115971
  115968      25  115977  115974      24  115980  115974      24  115980  115977
      25  115986  115983      24  115989  115983      24  115989  115986      25
  115995  115992      24  115998  115992      24  115998  115995      25  116004
  116001      24  116007  116001      24  116007  116004      25  116013  116010
      24  116016  116010      24  116016  116013      25  116022  116019      24
  116025  116019      24  116025  116022      25  116031  116028      24  116034
  116028      24  116034  116031      25  116040  116037      24  116043  116037
      24  116043  116040      25  116049  116046      24  116052  116046      24
  116052  116049      25  116058  116055      24  116061  116055      24  116061
  116058      25  116067  116064      24  116070  116064      24  116070  116067
      25  116076  116073      24  116079  116073      24  116079  116076      25
  116085  116082      24  116088  116082      24  116088  116085      25  116094
  116091      24  116097  116091      24  116097  116094      25  116103  116100
      24  116106  116100      24  116106  116103      25  116112  116109      24
  116115  116109      24  116115  116112      25  116121  116118      24  116124
  116118      24  116124  116121      25  116130  116127      24  116133  116127
      24  116133  116130      25  116139  116136      24  116142  116136      24
  116142  116139      25  116148  116145      24  116151  116145      24  116151
  116148      25  116157  116154      24  116160  116154      24  116160  116157
      25  116166  116163      24  116169  116163      24  116169  116166      25
  116175  116172      24  116178  116172      24  116178  116175      25  116184
  116181      24  116187  116181      24  116187  116184      25  116193  116190
      24  116196  116190      24  116196  116193      25  116202  116199      24
  116205  116199      24  116205  116202      25  116211  116208      24  116214
  116208      24  116214  116211      25  116220  116217      24  116223  116217
      24  116223  116220      25  116229  116226      24  116232  116226      24
  116232  116229      25  116238  116235      24  116241  116235      24  116241
  116238      25  116247  116244      24  116250  116244      24  116250  116247
      25  116256  116253      24  116259  116253      24  116259  116256      25
  116265  116262      24  116268  116262      24  116268  116265      25  116274
  116271      24  116277  116271      24  116277  116274      25  116283  116280
      24  116286  116280      24  116286  116283      25  116292  116289      24
  116295  116289      24  116295  116292      25  116301  116298      24  116304
  116298      24  116304  116301      25  116310  116307      24  116313  116307
      24  116313  116310      25  116319  116316      24  116322  116316      24
  116322  116319      25  116328  116325      24  116331  116325      24  116331
  116328      25  116337  116334      24  116340  116334      24  116340  116337
      25  116346  116343      24  116349  116343      24  116349  116346      25
  116355  116352      24  116358  116352      24  116358  116355      25  116364
  116361      24  116367  116361      24  116367  116364      25  116373  116370
      24  116376  116370      24  116376  116373      25  116382  116379      24
  116385  116379      24  116385  116382      25  116391  116388      24  116394
  116388      24  116394  116391      25  116400  116397      24  116403  116397
      24  116403  116400      25  116409  116406      24  116412  116406      24
  116412  116409      25  116418  116415      24  116421  116415      24  116421
  116418      25  116427  116424      24  116430  116424      24  116430  116427
      25  116436  116433      24  116439  116433      24  116439  116436      25
  116445  116442      24  116448  116442      24  116448  116445      25  116454
  116451      24  116457  116451      24  116457  116454      25  116463  116460
      24  116466  116460      24  116466  116463      25  116472  116469      24
  116475  116469      24  116475  116472      25  116481  116478      24  116484
  116478      24  116484  116481      25  116490  116487      24  116493  116487
      24  116493  116490      25  116499  116496      24  116502  116496      24
  116502  116499      25  116508  116505      24  116511  116505      24  116511
  116508      25  116517  116514      24  116520  116514      24  116520  116517
      25  116526  116523      24  116529  116523      24  116529  116526      25
  116535  116532      24  116538  116532      24  116538  116535      25  116544
  116541      24  116547  116541      24  116547  116544      25  116553  116550
      24  116556  116550      24  116556  116553      25  116562  116559      24
  116565  116559      24  116565  116562      25  116571  116568      24  116574
  116568      24  116574  116571      25  116580  116577      24  116583  116577
      24  116583  116580      25  116589  116586      24  116592  116586      24
  116592  116589      25  116598  116595      24  116601  116595      24  116601
  116598      25  116607  116604      24  116610  116604      24  116610  116607
      25  116616  116613      24  116619  116613      24  116619  116616      25
  116625  116622      24  116628  116622      24  116628  116625      25  116634
  116631      24  116637  116631      24  116637  116634      25  116643  116640
      24  116646  116640      24  116646  116643      25  116652  116649      24
  116655  116649      24  116655  116652      25  116661  116658      24  116664
  116658      24  116664  116661      25  116670  116667      24  116673  116667
      24  116673  116670      25  116679  116676      24  116682  116676      24
  116682  116679      25  116688  116685      24  116691  116685      24  116691
  116688      25  116697  116694      24  116700  116694      24  116700  116697
      25  116706  116703      24  116709  116703      24  116709  116706      25
  116715  116712      24  116718  116712      24  116718  116715      25  116724
  116721      24  116727  116721      24  116727  116724      25  116733  116730
      24  116736  116730      24  116736  116733      25  116742  116739      24
  116745  116739      24  116745  116742      25  116751  116748      24  116754
  116748      24  116754  116751      25  116760  116757      24  116763  116757
      24  116763  116760      25  116769  116766      24  116772  116766      24
  116772  116769      25  116778  116775      24  116781  116775      24  116781
  116778      25  116787  116784      24  116790  116784      24  116790  116787
      25  116796  116793      24  116799  116793      24  116799  116796      25
  116805  116802      24  116808  116802      24  116808  116805      25  116814
  116811      24  116817  116811      24  116817  116814      25  116823  116820
      24  116826  116820      24  116826  116823      25  116832  116829      24
  116835  116829      24  116835  116832      25  116841  116838      24  116844
  116838      24  116844  116841      25  116850  116847      24  116853  116847
      24  116853  116850      25  116859  116856      24  116862  116856      24
  116862  116859      25  116868  116865      24  116871  116865      24  116871
  116868      25  116877  116874      24  116880  116874      24  116880  116877
      25  116886  116883      24  116889  116883      24  116889  116886      25
  116895  116892      24  116898  116892      24  116898  116895      25  116904
  116901      24  116907  116901      24  116907  116904      25  116913  116910
      24  116916  116910      24  116916  116913      25  116922  116919      24
  116925  116919      24  116925  116922      25  116931  116928      24  116934
  116928      24  116934  116931      25  116940  116937      24  116943  116937
      24  116943  116940      25  116949  116946      24  116952  116946      24
  116952  116949      25  116958  116955      24  116961  116955      24  116961
  116958      25  116967  116964      24  116970  116964      24  116970  116967
      25  116976  116973      24  116979  116973      24  116979  116976      25
  116985  116982      24  116988  116982      24  116988  116985      25  116994
  116991      24  116997  116991      24  116997  116994      25  117003  117000
      24  117006  117000      24  117006  117003      25  117012  117009      24
  117015  117009      24  117015  117012      25  117021  117018      24  117024
  117018      24  117024  117021      25  117030  117027      24  117033  117027
      24  117033  117030      25  117039  117036      24  117042  117036      24
  117042  117039      25  117048  117045      24  117051  117045      24  117051
  117048      25  117057  117054      24  117060  117054      24  117060  117057
      25  117066  117063      24  117069  117063      24  117069  117066      25
  117075  117072      24  117078  117072      24  117078  117075      25  117084
  117081      24  117087  117081      24  117087  117084      25  117093  117090
      24  117096  117090      24  117096  117093      25  117102  117099      24
  117105  117099      24  117105  117102      25  117111  117108      24  117114
  117108      24  117114  117111      25  117120  117117      24  117123  117117
      24  117123  117120      25  117129  117126      24  117132  117126      24
  117132  117129      25  117138  117135      24  117141  117135      24  117141
  117138      25  117147  117144      24  117150  117144      24  117150  117147
      25  117156  117153      24  117159  117153      24  117159  117156      25
  117165  117162      24  117168  117162      24  117168  117165      25  117174
  117171      24  117177  117171      24  117177  117174      25  117183  117180
      24  117186  117180      24  117186  117183      25  117192  117189      24
  117195  117189      24  117195  117192      25  117201  117198      24  117204
  117198      24  117204  117201      25  117210  117207      24  117213  117207
      24  117213  117210      25  117219  117216      24  117222  117216      24
  117222  117219      25  117228  117225      24  117231  117225      24  117231
  117228      25  117237  117234      24  117240  117234      24  117240  117237
      25  117246  117243      24  117249  117243      24  117249  117246      25
  117255  117252      24  117258  117252      24  117258  117255      25  117264
  117261      24  117267  117261      24  117267  117264      25  117273  117270
      24  117276  117270      24  117276  117273      25  117282  117279      24
  117285  117279      24  117285  117282      25  117291  117288      24  117294
  117288      24  117294  117291      25  117300  117297      24  117303  117297
      24  117303  117300      25  117309  117306      24  117312  117306      24
  117312  117309      25  117318  117315      24  117321  117315      24  117321
  117318      25  117327  117324      24  117330  117324      24  117330  117327
      25  117336  117333      24  117339  117333      24  117339  117336      25
  117345  117342      24  117348  117342      24  117348  117345      25  117354
  117351      24  117357  117351      24  117357  117354      25  117363  117360
      24  117366  117360      24  117366  117363      25  117372  117369      24
  117375  117369      24  117375  117372      25  117381  117378      24  117384
  117378      24  117384  117381      25  117390  117387      24  117393  117387
      24  117393  117390      25  117399  117396      24  117402  117396      24
  117402  117399      25  117408  117405      24  117411  117405      24  117411
  117408      25  117417  117414      24  117420  117414      24  117420  117417
      25  117426  117423      24  117429  117423      24  117429  117426      25
  117435  117432      24  117438  117432      24  117438  117435      25  117444
  117441      24  117447  117441      24  117447  117444      25  117453  117450
      24  117456  117450      24  117456  117453      25  117462  117459      24
  117465  117459      24  117465  117462      25  117471  117468      24  117474
  117468      24  117474  117471      25  117480  117477      24  117483  117477
      24  117483  117480      25  117489  117486      24  117492  117486      24
  117492  117489      25  117498  117495      24  117501  117495      24  117501
  117498      25  117507  117504      24  117510  117504      24  117510  117507
      25  117516  117513      24  117519  117513      24  117519  117516      25
  117525  117522      24  117528  117522      24  117528  117525      25  117534
  117531      24  117537  117531      24  117537  117534      25  117543  117540
      24  117546  117540      24  117546  117543      25  117552  117549      24
  117555  117549      24  117555  117552      25  117561  117558      24  117564
  117558      24  117564  117561      25  117570  117567      24  117573  117567
      24  117573  117570      25  117579  117576      24  117582  117576      24
  117582  117579      25  117588  117585      24  117591  117585      24  117591
  117588      25  117597  117594      24  117600  117594      24  117600  117597
      25  117606  117603      24  117609  117603      24  117609  117606      25
  117615  117612      24  117618  117612      24  117618  117615      25  117624
  117621      24  117627  117621      24  117627  117624      25  117633  117630
      24  117636  117630      24  117636  117633      25  117642  117639      24
  117645  117639      24  117645  117642      25  117651  117648      24  117654
  117648      24  117654  117651      25  117660  117657      24  117663  117657
      24  117663  117660      25  117669  117666      24  117672  117666      24
  117672  117669      25  117678  117675      24  117681  117675      24  117681
  117678      25  117687  117684      24  117690  117684      24  117690  117687
      25  117696  117693      24  117699  117693      24  117699  117696      25
  117705  117702      24  117708  117702      24  117708  117705      25  117714
  117711      24  117717  117711      24  117717  117714      25  117723  117720
      24  117726  117720      24  117726  117723      25  117732  117729      24
  117735  117729      24  117735  117732      25  117741  117738      24  117744
  117738      24  117744  117741      25  117750  117747      24  117753  117747
      24  117753  117750      25  117759  117756      24  117762  117756      24
  117762  117759      25  117768  117765      24  117771  117765      24  117771
  117768      25  117777  117774      24  117780  117774      24  117780  117777
      25  117786  117783      24  117789  117783      24  117789  117786      25
  117795  117792      24  117798  117792      24  117798  117795      25  117804
  117801      24  117807  117801      24  117807  117804      25  117813  117810
      24  117816  117810      24  117816  117813      25  117822  117819      24
  117825  117819      24  117825  117822      25  117831  117828      24  117834
  117828      24  117834  117831      25  117840  117837      24  117843  117837
      24  117843  117840      25  117849  117846      24  117852  117846      24
  117852  117849      25  117858  117855      24  117861  117855      24  117861
  117858      25  117867  117864      24  117870  117864      24  117870  117867
      25  117876  117873      24  117879  117873      24  117879  117876      25
  117885  117882      24  117888  117882      24  117888  117885      25  117894
  117891      24  117897  117891      24  117897  117894      25  117903  117900
      24  117906  117900      24  117906  117903      25  117912  117909      24
  117915  117909      24  117915  117912      25  117921  117918      24  117924
  117918      24  117924  117921      25  117930  117927      24  117933  117927
      24  117933  117930      25  117939  117936      24  117942  117936      24
  117942  117939      25  117948  117945      24  117951  117945      24  117951
  117948      25  117957  117954      24  117960  117954      24  117960  117957
      25  117966  117963      24  117969  117963      24  117969  117966      25
  117975  117972      24  117978  117972      24  117978  117975      25  117984
  117981      24  117987  117981      24  117987  117984      25  117993  117990
      24  117996  117990      24  117996  117993      25  118002  117999      24
  118005  117999      24  118005  118002      25  118011  118008      24  118014
  118008      24  118014  118011      25  118020  118017      24  118023  118017
      24  118023  118020      25  118029  118026      24  118032  118026      24
  118032  118029      25  118038  118035      24  118041  118035      24  118041
  118038      25  118047  118044      24  118050  118044      24  118050  118047
      25  118056  118053      24  118059  118053      24  118059  118056      25
  118065  118062      24  118068  118062      24  118068  118065      25  118074
  118071      24  118077  118071      24  118077  118074      25  118083  118080
      24  118086  118080      24  118086  118083      25  118092  118089      24
  118095  118089      24  118095  118092      25  118101  118098      24  118104
  118098      24  118104  118101      25  118110  118107      24  118113  118107
      24  118113  118110      25  118119  118116      24  118122  118116      24
  118122  118119      25  118128  118125      24  118131  118125      24  118131
  118128      25  118137  118134      24  118140  118134      24  118140  118137
      25  118146  118143      24  118149  118143      24  118149  118146      25
  118155  118152      24  118158  118152      24  118158  118155      25  118164
  118161      24  118167  118161      24  118167  118164      25  118173  118170
      24  118176  118170      24  118176  118173      25  118182  118179      24
  118185  118179      24  118185  118182      25  118191  118188      24  118194
  118188      24  118194  118191      25  118200  118197      24  118203  118197
      24  118203  118200      25  118209  118206      24  118212  118206      24
  118212  118209      25  118218  118215      24  118221  118215      24  118221
  118218      25  118227  118224      24  118230  118224      24  118230  118227
      25  118236  118233      24  118239  118233      24  118239  118236      25
  118245  118242      24  118248  118242      24  118248  118245      25  118254
  118251      24  118257  118251      24  118257  118254      25  118263  118260
      24  118266  118260      24  118266  118263      25  118272  118269      24
  118275  118269      24  118275  118272      25  118281  118278      24  118284
  118278      24  118284  118281      25  118290  118287      24  118293  118287
      24  118293  118290      25  118299  118296      24  118302  118296      24
  118302  118299      25  118308  118305      24  118311  118305      24  118311
  118308      25  118317  118314      24  118320  118314      24  118320  118317
      25  118326  118323      24  118329  118323      24  118329  118326      25
  118335  118332      24  118338  118332      24  118338  118335      25  118344
  118341      24  118347  118341      24  118347  118344      25  118353  118350
      24  118356  118350      24  118356  118353      25  118362  118359      24
  118365  118359      24  118365  118362      25  118371  118368      24  118374
  118368      24  118374  118371      25  118380  118377      24  118383  118377
      24  118383  118380      25  118389  118386      24  118392  118386      24
  118392  118389      25  118398  118395      24  118401  118395      24  118401
  118398      25  118407  118404      24  118410  118404      24  118410  118407
      25  118416  118413      24  118419  118413      24  118419  118416      25
  118425  118422      24  118428  118422      24  118428  118425      25  118434
  118431      24  118437  118431      24  118437  118434      25  118443  118440
      24  118446  118440      24  118446  118443      25  118452  118449      24
  118455  118449      24  118455  118452      25  118461  118458      24  118464
  118458      24  118464  118461      25  118470  118467      24  118473  118467
      24  118473  118470      25  118479  118476      24  118482  118476      24
  118482  118479      25  118488  118485      24  118491  118485      24  118491
  118488      25  118497  118494      24  118500  118494      24  118500  118497
      25  118506  118503      24  118509  118503      24  118509  118506      25
  118515  118512      24  118518  118512      24  118518  118515      25  118524
  118521      24  118527  118521      24  118527  118524      25  118533  118530
      24  118536  118530      24  118536  118533      25  118542  118539      24
  118545  118539      24  118545  118542      25  118551  118548      24  118554
  118548      24  118554  118551      25  118560  118557      24  118563  118557
      24  118563  118560      25  118569  118566      24  118572  118566      24
  118572  118569      25  118578  118575      24  118581  118575      24  118581
  118578      25  118587  118584      24  118590  118584      24  118590  118587
      25  118596  118593      24  118599  118593      24  118599  118596      25
  118605  118602      24  118608  118602      24  118608  118605      25  118614
  118611      24  118617  118611      24  118617  118614      25  118623  118620
      24  118626  118620      24  118626  118623      25  118632  118629      24
  118635  118629      24  118635  118632      25  118641  118638      24  118644
  118638      24  118644  118641      25  118650  118647      24  118653  118647
      24  118653  118650      25  118659  118656      24  118662  118656      24
  118662  118659      25  118668  118665      24  118671  118665      24  118671
  118668      25  118677  118674      24  118680  118674      24  118680  118677
      25  118686  118683      24  118689  118683      24  118689  118686      25
  118695  118692      24  118698  118692      24  118698  118695      25  118704
  118701      24  118707  118701      24  118707  118704      25  118713  118710
      24  118716  118710      24  118716  118713      25  118722  118719      24
  118725  118719      24  118725  118722      25  118731  118728      24  118734
  118728      24  118734  118731      25  118740  118737      24  118743  118737
      24  118743  118740      25  118749  118746      24  118752  118746      24
  118752  118749      25  118758  118755      24  118761  118755      24  118761
  118758      25  118767  118764      24  118770  118764      24  118770  118767
      25  118776  118773      24  118779  118773      24  118779  118776      25
  118785  118782      24  118788  118782      24  118788  118785      25  118794
  118791      24  118797  118791      24  118797  118794      25  118803  118800
      24  118806  118800      24  118806  118803      25  118812  118809      24
  118815  118809      24  118815  118812      25  118821  118818      24  118824
  118818      24  118824  118821      25  118830  118827      24  118833  118827
      24  118833  118830      25  118839  118836      24  118842  118836      24
  118842  118839      25  118848  118845      24  118851  118845      24  118851
  118848      25  118857  118854      24  118860  118854      24  118860  118857
      25  118866  118863      24  118869  118863      24  118869  118866      25
  118875  118872      24  118878  118872      24  118878  118875      25  118884
  118881      24  118887  118881      24  118887  118884      25  118893  118890
      24  118896  118890      24  118896  118893      25  118902  118899      24
  118905  118899      24  118905  118902      25  118911  118908      24  118914
  118908      24  118914  118911      25  118920  118917      24  118923  118917
      24  118923  118920      25  118929  118926      24  118932  118926      24
  118932  118929      25  118938  118935      24  118941  118935      24  118941
  118938      25  118947  118944      24  118950  118944      24  118950  118947
      25  118956  118953      24  118959  118953      24  118959  118956      25
  118965  118962      24  118968  118962      24  118968  118965      25  118974
  118971      24  118977  118971      24  118977  118974      25  118983  118980
      24  118986  118980      24  118986  118983      25  118992  118989      24
  118995  118989      24  118995  118992      25  119001  118998      24  119004
  118998      24  119004  119001      25  119010  119007      24  119013  119007
      24  119013  119010      25  119019  119016      24  119022  119016      24
  119022  119019      25  119028  119025      24  119031  119025      24  119031
  119028      25  119037  119034      24  119040  119034      24  119040  119037
      25  119046  119043      24  119049  119043      24  119049  119046      25
  119055  119052      24  119058  119052      24  119058  119055      25  119064
  119061      24  119067  119061      24  119067  119064      25  119073  119070
      24  119076  119070      24  119076  119073      25  119082  119079      24
  119085  119079      24  119085  119082      25  119091  119088      24  119094
  119088      24  119094  119091      25  119100  119097      24  119103  119097
      24  119103  119100      25  119109  119106      24  119112  119106      24
  119112  119109      25  119118  119115      24  119121  119115      24  119121
  119118      25  119127  119124      24  119130  119124      24  119130  119127
      25  119136  119133      24  119139  119133      24  119139  119136      25
  119145  119142      24  119148  119142      24  119148  119145      25  119154
  119151      24  119157  119151      24  119157  119154      25  119163  119160
      24  119166  119160      24  119166  119163      25  119172  119169      24
  119175  119169      24  119175  119172      25  119181  119178      24  119184
  119178      24  119184  119181      25  119190  119187      24  119193  119187
      24  119193  119190      25  119199  119196      24  119202  119196      24
  119202  119199      25  119208  119205      24  119211  119205      24  119211
  119208      25  119217  119214      24  119220  119214      24  119220  119217
      25  119226  119223      24  119229  119223      24  119229  119226      25
  119235  119232      24  119238  119232      24  119238  119235      25  119244
  119241      24  119247  119241      24  119247  119244      25  119253  119250
      24  119256  119250      24  119256  119253      25  119262  119259      24
  119265  119259      24  119265  119262      25  119271  119268      24  119274
  119268      24  119274  119271      25  119280  119277      24  119283  119277
      24  119283  119280      25  119289  119286      24  119292  119286      24
  119292  119289      25  119298  119295      24  119301  119295      24  119301
  119298      25  119307  119304      24  119310  119304      24  119310  119307
      25  119316  119313      24  119319  119313      24  119319  119316      25
  119325  119322      24  119328  119322      24  119328  119325      25  119334
  119331      24  119337  119331      24  119337  119334      25  119343  119340
      24  119346  119340      24  119346  119343      25  119352  119349      24
  119355  119349      24  119355  119352      25  119361  119358      24  119364
  119358      24  119364  119361      25  119370  119367      24  119373  119367
      24  119373  119370      25  119379  119376      24  119382  119376      24
  119382  119379      25  119388  119385      24  119391  119385      24  119391
  119388      25  119397  119394      24  119400  119394      24  119400  119397
      25  119406  119403      24  119409  119403      24  119409  119406      25
  119415  119412      24  119418  119412      24  119418  119415      25  119424
  119421      24  119427  119421      24  119427  119424      25  119433  119430
      24  119436  119430      24  119436  119433      25  119442  119439      24
  119445  119439      24  119445  119442      25  119451  119448      24  119454
  119448      24  119454  119451      25  119460  119457      24  119463  119457
      24  119463  119460      25  119469  119466      24  119472  119466      24
  119472  119469      25  119478  119475      24  119481  119475      24  119481
  119478      25  119487  119484      24  119490  119484      24  119490  119487
      25  119496  119493      24  119499  119493      24  119499  119496      25
  119505  119502      24  119508  119502      24  119508  119505      25  119514
  119511      24  119517  119511      24  119517  119514      25  119523  119520
      24  119526  119520      24  119526  119523      25  119532  119529      24
  119535  119529      24  119535  119532      25  119541  119538      24  119544
  119538      24  119544  119541      25  119550  119547      24  119553  119547
      24  119553  119550      25  119559  119556      24  119562  119556      24
  119562  119559      25  119568  119565      24  119571  119565      24  119571
  119568      25  119577  119574      24  119580  119574      24  119580  119577
      25  119586  119583      24  119589  119583      24  119589  119586      25
  119595  119592      24  119598  119592      24  119598  119595      25  119604
  119601      24  119607  119601      24  119607  119604      25  119613  119610
      24  119616  119610      24  119616  119613      25  119622  119619      24
  119625  119619      24  119625  119622      25  119631  119628      24  119634
  119628      24  119634  119631      25  119640  119637      24  119643  119637
      24  119643  119640      25  119649  119646      24  119652  119646      24
  119652  119649      25  119658  119655      24  119661  119655      24  119661
  119658      25  119667  119664      24  119670  119664      24  119670  119667
      25  119676  119673      24  119679  119673      24  119679  119676      25
  119685  119682      24  119688  119682      24  119688  119685      25  119694
  119691      24  119697  119691      24  119697  119694      25  119703  119700
      24  119706  119700      24  119706  119703      25  119712  119709      24
  119715  119709      24  119715  119712      25  119721  119718      24  119724
  119718      24  119724  119721      25  119730  119727      24  119733  119727
      24  119733  119730      25  119739  119736      24  119742  119736      24
  119742  119739      25  119748  119745      24  119751  119745      24  119751
  119748      25  119757  119754      24  119760  119754      24  119760  119757
      25  119766  119763      24  119769  119763      24  119769  119766      25
  119775  119772      24  119778  119772      24  119778  119775      25  119784
  119781      24  119787  119781      24  119787  119784      25  119793  119790
      24  119796  119790      24  119796  119793      25  119802  119799      24
  119805  119799      24  119805  119802      25  119811  119808      24  119814
  119808      24  119814  119811      25  119820  119817      24  119823  119817
      24  119823  119820      25  119829  119826      24  119832  119826      24
  119832  119829      25  119838  119835      24  119841  119835      24  119841
  119838      25  119847  119844      24  119850  119844      24  119850  119847
      25  119856  119853      24  119859  119853      24  119859  119856      25
  119865  119862      24  119868  119862      24  119868  119865      25  119874
  119871      24  119877  119871      24  119877  119874      25  119883  119880
      24  119886  119880      24  119886  119883      25  119892  119889      24
  119895  119889      24  119895  119892      25  119901  119898      24  119904
  119898      24  119904  119901      25  119910  119907      24  119913  119907
      24  119913  119910      25  119919  119916      24  119922  119916      24
  119922  119919      25  119928  119925      24  119931  119925      24  119931
  119928      25  119937  119934      24  119940  119934      24  119940  119937
      25  119946  119943      24  119949  119943      24  119949  119946      25
  119955  119952      24  119958  119952      24  119958  119955      25  119964
  119961      24  119967  119961      24  119967  119964      25  119973  119970
      24  119976  119970      24  119976  119973      25  119982  119979      24
  119985  119979      24  119985  119982      25  119991  119988      24  119994
  119988      24  119994  119991      25  120000  119997      24  120003  119997
      24  120003  120000      25  120009  120006      24  120012  120006      24
  120012  120009      25  120018  120015      24  120021  120015      24  120021
  120018      25  120027  120024      24  120030  120024      24  120030  120027
      25  120036  120033      24  120039  120033      24  120039  120036      25
  120045  120042      24  120048  120042      24  120048  120045      25  120054
  120051      24  120057  120051      24  120057  120054      25  120063  120060
      24  120066  120060      24  120066  120063      25  120072  120069      24
  120075  120069      24  120075  120072      25  120081  120078      24  120084
  120078      24  120084  120081      25  120090  120087      24  120093  120087
      24  120093  120090      25  120099  120096      24  120102  120096      24
  120102  120099      25  120108  120105      24  120111  120105      24  120111
  120108      25  120117  120114      24  120120  120114      24  120120  120117
      25  120126  120123      24  120129  120123      24  120129  120126      25
  120135  120132      24  120138  120132      24  120138  120135      25  120144
  120141      24  120147  120141      24  120147  120144      25  120153  120150
      24  120156  120150      24  120156  120153      25  120162  120159      24
  120165  120159      24  120165  120162      25  120171  120168      24  120174
  120168      24  120174  120171      25  120180  120177      24  120183  120177
      24  120183  120180      25  120189  120186      24  120192  120186      24
  120192  120189      25  120198  120195      24  120201  120195      24  120201
  120198      25  120207  120204      24  120210  120204      24  120210  120207
      25  120216  120213      24  120219  120213      24  120219  120216      25
  120225  120222      24  120228  120222      24  120228  120225      25  120234
  120231      24  120237  120231      24  120237  120234      25  120243  120240
      24  120246  120240      24  120246  120243      25  120252  120249      24
  120255  120249      24  120255  120252      25  120261  120258      24  120264
  120258      24  120264  120261      25  120270  120267      24  120273  120267
      24  120273  120270      25  120279  120276      24  120282  120276      24
  120282  120279      25  120288  120285      24  120291  120285      24  120291
  120288      25  120297  120294      24  120300  120294      24  120300  120297
      25  120306  120303      24  120309  120303      24  120309  120306      25
  120315  120312      24  120318  120312      24  120318  120315      25  120324
  120321      24  120327  120321      24  120327  120324      25  120333  120330
      24  120336  120330      24  120336  120333      25  120342  120339      24
  120345  120339      24  120345  120342      25  120351  120348      24  120354
  120348      24  120354  120351      25  120360  120357      24  120363  120357
      24  120363  120360      25  120369  120366      24  120372  120366      24
  120372  120369      25  120378  120375      24  120381  120375      24  120381
  120378      25  120387  120384      24  120390  120384      24  120390  120387
      25  120396  120393      24  120399  120393      24  120399  120396      25
  120405  120402      24  120408  120402      24  120408  120405      25  120414
  120411      24  120417  120411      24  120417  120414      25  120423  120420
      24  120426  120420      24  120426  120423      25  120432  120429      24
  120435  120429      24  120435  120432      25  120441  120438      24  120444
  120438      24  120444  120441      25  120450  120447      24  120453  120447
      24  120453  120450      25  120459  120456      24  120462  120456      24
  120462  120459      25  120468  120465      24  120471  120465      24  120471
  120468      25  120477  120474      24  120480  120474      24  120480  120477
      25  120486  120483      24  120489  120483      24  120489  120486      25
  120495  120492      24  120498  120492      24  120498  120495      25  120504
  120501      24  120507  120501      24  120507  120504      25  120513  120510
      24  120516  120510      24  120516  120513      25  120522  120519      24
  120525  120519      24  120525  120522      25  120531  120528      24  120534
  120528      24  120534  120531      25  120540  120537      24  120543  120537
      24  120543  120540      25  120549  120546      24  120552  120546      24
  120552  120549      25  120558  120555      24  120561  120555      24  120561
  120558      25  120567  120564      24  120570  120564      24  120570  120567
      25  120576  120573      24  120579  120573      24  120579  120576      25
  120585  120582      24  120588  120582      24  120588  120585      25  120594
  120591      24  120597  120591      24  120597  120594      25  120603  120600
      24  120606  120600      24  120606  120603      25  120612  120609      24
  120615  120609      24  120615  120612      25  120621  120618      24  120624
  120618      24  120624  120621      25  120630  120627      24  120633  120627
      24  120633  120630      25  120639  120636      24  120642  120636      24
  120642  120639      25  120648  120645      24  120651  120645      24  120651
  120648      25  120657  120654      24  120660  120654      24  120660  120657
      25  120666  120663      24  120669  120663      24  120669  120666      25
  120675  120672      24  120678  120672      24  120678  120675      25  120684
  120681      24  120687  120681      24  120687  120684      25  120693  120690
      24  120696  120690      24  120696  120693      25  120702  120699      24
  120705  120699      24  120705  120702      25  120711  120708      24  120714
  120708      24  120714  120711      25  120720  120717      24  120723  120717
      24  120723  120720      25  120729  120726      24  120732  120726      24
  120732  120729      25  120738  120735      24  120741  120735      24  120741
  120738      25  120747  120744      24  120750  120744      24  120750  120747
      25  120756  120753      24  120759  120753      24  120759  120756      25
  120765  120762      24  120768  120762      24  120768  120765      25  120774
  120771      24  120777  120771      24  120777  120774      25  120783  120780
      24  120786  120780      24  120786  120783      25  120792  120789      24
  120795  120789      24  120795  120792      25  120801  120798      24  120804
  120798      24  120804  120801      25  120810  120807      24  120813  120807
      24  120813  120810      25  120819  120816      24  120822  120816      24
  120822  120819      25  120828  120825      24  120831  120825      24  120831
  120828      25  120837  120834      24  120840  120834      24  120840  120837
      25  120846  120843      24  120849  120843      24  120849  120846      25
  120855  120852      24  120858  120852      24  120858  120855      25  120864
  120861      24  120867  120861      24  120867  120864      25  120873  120870
      24  120876  120870      24  120876  120873      25  120882  120879      24
  120885  120879      24  120885  120882      25  120891  120888      24  120894
  120888      24  120894  120891      25  120900  120897      24  120903  120897
      24  120903  120900      25  120909  120906      24  120912  120906      24
  120912  120909      25  120918  120915      24  120921  120915      24  120921
  120918      25  120927  120924      24  120930  120924      24  120930  120927
      25  120936  120933      24  120939  120933      24  120939  120936      25
  120945  120942      24  120948  120942      24  120948  120945      25  120954
  120951      24  120957  120951      24  120957  120954      25  120963  120960
      24  120966  120960      24  120966  120963      25  120972  120969      24
  120975  120969      24  120975  120972      25  120981  120978      24  120984
  120978      24  120984  120981      25  120990  120987      24  120993  120987
      24  120993  120990      25  120999  120996      24  121002  120996      24
  121002  120999      25  121008  121005      24  121011  121005      24  121011
  121008      25  121017  121014      24  121020  121014      24  121020  121017
      25  121026  121023      24  121029  121023      24  121029  121026      25
  121035  121032      24  121038  121032      24  121038  121035      25  121044
  121041      24  121047  121041      24  121047  121044      25  121053  121050
      24  121056  121050      24  121056  121053      25  121062  121059      24
  121065  121059      24  121065  121062      25  121071  121068      24  121074
  121068      24  121074  121071      25  121080  121077      24  121083  121077
      24  121083  121080      25  121089  121086      24  121092  121086      24
  121092  121089      25  121098  121095      24  121101  121095      24  121101
  121098      25  121107  121104      24  121110  121104      24  121110  121107
      25  121116  121113      24  121119  121113      24  121119  121116      25
  121125  121122      24  121128  121122      24  121128  121125      25  121134
  121131      24  121137  121131      24  121137  121134      25  121143  121140
      24  121146  121140      24  121146  121143      25  121152  121149      24
  121155  121149      24  121155  121152      25  121161  121158      24  121164
  121158      24  121164  121161      25  121170  121167      24  121173  121167
      24  121173  121170      25  121179  121176      24  121182  121176      24
  121182  121179      25  121188  121185      24  121191  121185      24  121191
  121188      25  121197  121194      24  121200  121194      24  121200  121197
      25  121206  121203      24  121209  121203      24  121209  121206      25
  121215  121212      24  121218  121212      24  121218  121215      25  121224
  121221      24  121227  121221      24  121227  121224      25  121233  121230
      24  121236  121230      24  121236  121233      25  121242  121239      24
  121245  121239      24  121245  121242      25  121251  121248      24  121254
  121248      24  121254  121251      25  121260  121257      24  121263  121257
      24  121263  121260      25  121269  121266      24  121272  121266      24
  121272  121269      25  121278  121275      24  121281  121275      24  121281
  121278      25  121287  121284      24  121290  121284      24  121290  121287
      25  121296  121293      24  121299  121293      24  121299  121296      25
  121305  121302      24  121308  121302      24  121308  121305      25  121314
  121311      24  121317  121311      24  121317  121314      25  121323  121320
      24  121326  121320      24  121326  121323      25  121332  121329      24
  121335  121329      24  121335  121332      25  121341  121338      24  121344
  121338      24  121344  121341      25  121350  121347      24  121353  121347
      24  121353  121350      25  121359  121356      24  121362  121356      24
  121362  121359      25  121368  121365      24  121371  121365      24  121371
  121368      25  121377  121374      24  121380  121374      24  121380  121377
      25  121386  121383      24  121389  121383      24  121389  121386      25
  121395  121392      24  121398  121392      24  121398  121395      25  121404
  121401      24  121407  121401      24  121407  121404      25  121413  121410
      24  121416  121410      24  121416  121413      25  121422  121419      24
  121425  121419      24  121425  121422      25  121431  121428      24  121434
  121428      24  121434  121431      25  121440  121437      24  121443  121437
      24  121443  121440      25  121449  121446      24  121452  121446      24
  121452  121449      25  121458  121455      24  121461  121455      24  121461
  121458      25  121467  121464      24  121470  121464      24  121470  121467
      25  121476  121473      24  121479  121473      24  121479  121476      25
  121485  121482      24  121488  121482      24  121488  121485      25  121494
  121491      24  121497  121491      24  121497  121494      25  121503  121500
      24  121506  121500      24  121506  121503      25  121512  121509      24
  121515  121509      24  121515  121512      25  121521  121518      24  121524
  121518      24  121524  121521      25  121530  121527      24  121533  121527
      24  121533  121530      25  121539  121536      24  121542  121536      24
  121542  121539      25  121548  121545      24  121551  121545      24  121551
  121548      25  121557  121554      24  121560  121554      24  121560  121557
      25  121566  121563      24  121569  121563      24  121569  121566      25
  121575  121572      24  121578  121572      24  121578  121575      25  121584
  121581      24  121587  121581      24  121587  121584      25  121593  121590
      24  121596  121590      24  121596  121593      25  121602  121599      24
  121605  121599      24  121605  121602      25  121611  121608      24  121614
  121608      24  121614  121611      25  121620  121617      24  121623  121617
      24  121623  121620      25  121629  121626      24  121632  121626      24
  121632  121629      25  121638  121635      24  121641  121635      24  121641
  121638      25  121647  121644      24  121650  121644      24  121650  121647
      25  121656  121653      24  121659  121653      24  121659  121656      25
  121665  121662      24  121668  121662      24  121668  121665      25  121674
  121671      24  121677  121671      24  121677  121674      25  121683  121680
      24  121686  121680      24  121686  121683      25  121692  121689      24
  121695  121689      24  121695  121692      25  121701  121698      24  121704
  121698      24  121704  121701      25  121710  121707      24  121713  121707
      24  121713  121710      25  121719  121716      24  121722  121716      24
  121722  121719      25  121728  121725      24  121731  121725      24  121731
  121728      25  121737  121734      24  121740  121734      24  121740  121737
      25  121746  121743      24  121749  121743      24  121749  121746      25
  121755  121752      24  121758  121752      24  121758  121755      25  121764
  121761      24  121767  121761      24  121767  121764      25  121773  121770
      24  121776  121770      24  121776  121773      25  121782  121779      24
  121785  121779      24  121785  121782      25  121791  121788      24  121794
  121788      24  121794  121791      25  121800  121797      24  121803  121797
      24  121803  121800      25  121809  121806      24  121812  121806      24
  121812  121809      25  121818  121815      24  121821  121815      24  121821
  121818      25  121827  121824      24  121830  121824      24  121830  121827
      25  121836  121833      24  121839  121833      24  121839  121836      25
  121845  121842      24  121848  121842      24  121848  121845      25  121854
  121851      24  121857  121851      24  121857  121854      25  121863  121860
      24  121866  121860      24  121866  121863      25  121872  121869      24
  121875  121869      24  121875  121872      25  121881  121878      24  121884
  121878      24  121884  121881      25  121890  121887      24  121893  121887
      24  121893  121890      25  121899  121896      24  121902  121896      24
  121902  121899      25  121908  121905      24  121911  121905      24  121911
  121908      25  121917  121914      24  121920  121914      24  121920  121917
      25  121926  121923      24  121929  121923      24  121929  121926      25
  121935  121932      24  121938  121932      24  121938  121935      25  121944
  121941      24  121947  121941      24  121947  121944      25  121953  121950
      24  121956  121950      24  121956  121953      25  121962  121959      24
  121965  121959      24  121965  121962      25  121971  121968      24  121974
  121968      24  121974  121971      25  121980  121977      24  121983  121977
      24  121983  121980      25  121989  121986      24  121992  121986      24
  121992  121989      25  121998  121995      24  122001  121995      24  122001
  121998      25  122007  122004      24  122010  122004      24  122010  122007
      25  122016  122013      24  122019  122013      24  122019  122016      25
  122025  122022      24  122028  122022      24  122028  122025      25  122034
  122031      24  122037  122031      24  122037  122034      25  122043  122040
      24  122046  122040      24  122046  122043      25  122052  122049      24
  122055  122049      24  122055  122052      25  122061  122058      24  122064
  122058      24  122064  122061      25  122070  122067      24  122073  122067
      24  122073  122070      25  122079  122076      24  122082  122076      24
  122082  122079      25  122088  122085      24  122091  122085      24  122091
  122088      25  122097  122094      24  122100  122094      24  122100  122097
      25  122106  122103      24  122109  122103      24  122109  122106      25
  122115  122112      24  122118  122112      24  122118  122115      25  122124
  122121      24  122127  122121      24  122127  122124      25  122133  122130
      24  122136  122130      24  122136  122133      25  122142  122139      24
  122145  122139      24  122145  122142      25  122151  122148      24  122154
  122148      24  122154  122151      25  122160  122157      24  122163  122157
      24  122163  122160      25  122169  122166      24  122172  122166      24
  122172  122169      25  122178  122175      24  122181  122175      24  122181
  122178      25  122187  122184      24  122190  122184      24  122190  122187
      25  122196  122193      24  122199  122193      24  122199  122196      25
  122205  122202      24  122208  122202      24  122208  122205      25  122214
  122211      24  122217  122211      24  122217  122214      25  122223  122220
      24  122226  122220      24  122226  122223      25  122232  122229      24
  122235  122229      24  122235  122232      25  122241  122238      24  122244
  122238      24  122244  122241      25  122250  122247      24  122253  122247
      24  122253  122250      25  122259  122256      24  122262  122256      24
  122262  122259      25  122268  122265      24  122271  122265      24  122271
  122268      25  122277  122274      24  122280  122274      24  122280  122277
      25  122286  122283      24  122289  122283      24  122289  122286      25
  122295  122292      24  122298  122292      24  122298  122295      25  122304
  122301      24  122307  122301      24  122307  122304      25  122313  122310
      24  122316  122310      24  122316  122313      25  122322  122319      24
  122325  122319      24  122325  122322      25  122331  122328      24  122334
  122328      24  122334  122331      25  122340  122337      24  122343  122337
      24  122343  122340      25  122349  122346      24  122352  122346      24
  122352  122349      25  122358  122355      24  122361  122355      24  122361
  122358      25  122367  122364      24  122370  122364      24  122370  122367
      25  122376  122373      24  122379  122373      24  122379  122376      25
  122385  122382      24  122388  122382      24  122388  122385      25  122394
  122391      24  122397  122391      24  122397  122394      25  122403  122400
      24  122406  122400      24  122406  122403      25  122412  122409      24
  122415  122409      24  122415  122412      25  122421  122418      24  122424
  122418      24  122424  122421      25  122430  122427      24  122433  122427
      24  122433  122430      25  122439  122436      24  122442  122436      24
  122442  122439      25  122448  122445      24  122451  122445      24  122451
  122448      25  122457  122454      24  122460  122454      24  122460  122457
      25  122466  122463      24  122469  122463      24  122469  122466      25
  122475  122472      24  122478  122472      24  122478  122475      25  122484
  122481      24  122487  122481      24  122487  122484      25  122493  122490
      24  122496  122490      24  122496  122493      25  122502  122499      24
  122505  122499      24  122505  122502      25  122511  122508      24  122514
  122508      24  122514  122511      25  122520  122517      24  122523  122517
      24  122523  122520      25  122529  122526      24  122532  122526      24
  122532  122529      25  122538  122535      24  122541  122535      24  122541
  122538      25  122547  122544      24  122550  122544      24  122550  122547
      25  122556  122553      24  122559  122553      24  122559  122556      25
  122565  122562      24  122568  122562      24  122568  122565      25  122574
  122571      24  122577  122571      24  122577  122574      25  122583  122580
      24  122586  122580      24  122586  122583      25  122592  122589      24
  122595  122589      24  122595  122592      25  122601  122598      24  122604
  122598      24  122604  122601      25  122610  122607      24  122613  122607
      24  122613  122610      25  122619  122616      24  122622  122616      24
  122622  122619      25  122628  122625      24  122631  122625      24  122631
  122628      25  122637  122634      24  122640  122634      24  122640  122637
      25  122646  122643      24  122649  122643      24  122649  122646      25
  122655  122652      24  122658  122652      24  122658  122655      25  122664
  122661      24  122667  122661      24  122667  122664      25  122673  122670
      24  122676  122670      24  122676  122673      25  122682  122679      24
  122685  122679      24  122685  122682      25  122691  122688      24  122694
  122688      24  122694  122691      25  122700  122697      24  122703  122697
      24  122703  122700      25  122709  122706      24  122712  122706      24
  122712  122709      25  122718  122715      24  122721  122715      24  122721
  122718      25  122727  122724      24  122730  122724      24  122730  122727
      25  122736  122733      24  122739  122733      24  122739  122736      25
  122745  122742      24  122748  122742      24  122748  122745      25  122754
  122751      24  122757  122751      24  122757  122754      25  122763  122760
      24  122766  122760      24  122766  122763      25  122772  122769      24
  122775  122769      24  122775  122772      25  122781  122778      24  122784
  122778      24  122784  122781      25  122790  122787      24  122793  122787
      24  122793  122790      25  122799  122796      24  122802  122796      24
  122802  122799      25  122808  122805      24  122811  122805      24  122811
  122808      25  122817  122814      24  122820  122814      24  122820  122817
      25  122826  122823      24  122829  122823      24  122829  122826      25
  122835  122832      24  122838  122832      24  122838  122835      25  122844
  122841      24  122847  122841      24  122847  122844      25  122853  122850
      24  122856  122850      24  122856  122853      25  122862  122859      24
  122865  122859      24  122865  122862      25  122871  122868      24  122874
  122868      24  122874  122871      25  122880  122877      24  122883  122877
      24  122883  122880      25  122889  122886      24  122892  122886      24
  122892  122889      25  122898  122895      24  122901  122895      24  122901
  122898      25  122907  122904      24  122910  122904      24  122910  122907
      25  122916  122913      24  122919  122913      24  122919  122916      25
  122925  122922      24  122928  122922      24  122928  122925      25  122934
  122931      24  122937  122931      24  122937  122934      25  122943  122940
      24  122946  122940      24  122946  122943      25  122952  122949      24
  122955  122949      24  122955  122952      25  122961  122958      24  122964
  122958      24  122964  122961      25  122970  122967      24  122973  122967
      24  122973  122970      25  122979  122976      24  122982  122976      24
  122982  122979      25  122988  122985      24  122991  122985      24  122991
  122988      25  122997  122994      24  123000  122994      24  123000  122997
      25  123006  123003      24  123009  123003      24  123009  123006      25
  123015  123012      24  123018  123012      24  123018  123015      25  123024
  123021      24  123027  123021      24  123027  123024      25  123033  123030
      24  123036  123030      24  123036  123033      25  123042  123039      24
  123045  123039      24  123045  123042      25  123051  123048      24  123054
  123048      24  123054  123051      25  123060  123057      24  123063  123057
      24  123063  123060      25  123069  123066      24  123072  123066      24
  123072  123069      25  123078  123075      24  123081  123075      24  123081
  123078      25  123087  123084      24  123090  123084      24  123090  123087
      25  123096  123093      24  123099  123093      24  123099  123096      25
  123105  123102      24  123108  123102      24  123108  123105      25  123114
  123111      24  123117  123111      24  123117  123114      25  123123  123120
      24  123126  123120      24  123126  123123      25  123132  123129      24
  123135  123129      24  123135  123132      25  123141  123138      24  123144
  123138      24  123144  123141      25  123150  123147      24  123153  123147
      24  123153  123150      25  123159  123156      24  123162  123156      24
  123162  123159      25  123168  123165      24  123171  123165      24  123171
  123168      25  123177  123174      24  123180  123174      24  123180  123177
      25  123186  123183      24  123189  123183      24  123189  123186      25
  123195  123192      24  123198  123192      24  123198  123195      25  123204
  123201      24  123207  123201      24  123207  123204      25  123213  123210
      24  123216  123210      24  123216  123213      25  123222  123219      24
  123225  123219      24  123225  123222      25  123231  123228      24  123234
  123228      24  123234  123231      25  123240  123237      24  123243  123237
      24  123243  123240      25  123249  123246      24  123252  123246      24
  123252  123249      25  123258  123255      24  123261  123255      24  123261
  123258      25  123267  123264      24  123270  123264      24  123270  123267
      25  123276  123273      24  123279  123273      24  123279  123276      25
  123285  123282      24  123288  123282      24  123288  123285      25  123294
  123291      24  123297  123291      24  123297  123294      25  123303  123300
      24  123306  123300      24  123306  123303      25  123312  123309      24
  123315  123309      24  123315  123312      25  123321  123318      24  123324
  123318      24  123324  123321      25  123330  123327      24  123333  123327
      24  123333  123330      25  123339  123336      24  123342  123336      24
  123342  123339      25  123348  123345      24  123351  123345      24  123351
  123348      25  123357  123354      24  123360  123354      24  123360  123357
      25  123366  123363      24  123369  123363      24  123369  123366      25
  123375  123372      24  123378  123372      24  123378  123375      25  123384
  123381      24  123387  123381      24  123387  123384      25  123393  123390
      24  123396  123390      24  123396  123393      25  123402  123399      24
  123405  123399      24  123405  123402      25  123411  123408      24  123414
  123408      24  123414  123411      25  123420  123417      24  123423  123417
      24  123423  123420      25  123429  123426      24  123432  123426      24
  123432  123429      25  123438  123435      24  123441  123435      24  123441
  123438      25  123447  123444      24  123450  123444      24  123450  123447
      25  123456  123453      24  123459  123453      24  123459  123456      25
  123465  123462      24  123468  123462      24  123468  123465      25  123474
  123471      24  123477  123471      24  123477  123474      25  123483  123480
      24  123486  123480      24  123486  123483      25  123492  123489      24
  123495  123489      24  123495  123492      25  123501  123498      24  123504
  123498      24  123504  123501      25  123510  123507      24  123513  123507
      24  123513  123510      25  123519  123516      24  123522  123516      24
  123522  123519      25  123528  123525      24  123531  123525      24  123531
  123528      25  123537  123534      24  123540  123534      24  123540  123537
      25  123546  123543      24  123549  123543      24  123549  123546      25
  123555  123552      24  123558  123552      24  123558  123555      25  123564
  123561      24  123567  123561      24  123567  123564      25  123573  123570
      24  123576  123570      24  123576  123573      25  123582  123579      24
  123585  123579      24  123585  123582      25  123591  123588      24  123594
  123588      24  123594  123591      25  123600  123597      24  123603  123597
      24  123603  123600      25  123609  123606      24  123612  123606      24
  123612  123609      25  123618  123615      24  123621  123615      24  123621
  123618      25  123627  123624      24  123630  123624      24  123630  123627
      25  123636  123633      24  123639  123633      24  123639  123636      25
  123645  123642      24  123648  123642      24  123648  123645      25  123654
  123651      24  123657  123651      24  123657  123654      25  123663  123660
      24  123666  123660      24  123666  123663      25  123672  123669      24
  123675  123669      24  123675  123672      25  123681  123678      24  123684
  123678      24  123684  123681      25  123690  123687      24  123693  123687
      24  123693  123690      25  123699  123696      24  123702  123696      24
  123702  123699      25  123708  123705      24  123711  123705      24  123711
  123708      25  123717  123714      24  123720  123714      24  123720  123717
      25  123726  123723      24  123729  123723      24  123729  123726      25
  123735  123732      24  123738  123732      24  123738  123735      25  123744
  123741      24  123747  123741      24  123747  123744      25  123753  123750
      24  123756  123750      24  123756  123753      25  123762  123759      24
  123765  123759      24  123765  123762      25  123771  123768      24  123774
  123768      24  123774  123771      25  123780  123777      24  123783  123777
      24  123783  123780      25  123789  123786      24  123792  123786      24
  123792  123789      25  123798  123795      24  123801  123795      24  123801
  123798      25  123807  123804      24  123810  123804      24  123810  123807
      25  123816  123813      24  123819  123813      24  123819  123816      25
  123825  123822      24  123828  123822      24  123828  123825      25  123834
  123831      24  123837  123831      24  123837  123834      25  123843  123840
      24  123846  123840      24  123846  123843      25  123852  123849      24
  123855  123849      24  123855  123852      25  123861  123858      24  123864
  123858      24  123864  123861      25  123870  123867      24  123873  123867
      24  123873  123870      25  123879  123876      24  123882  123876      24
  123882  123879      25  123888  123885      24  123891  123885      24  123891
  123888      25  123897  123894      24  123900  123894      24  123900  123897
      25  123906  123903      24  123909  123903      24  123909  123906      25
  123915  123912      24  123918  123912      24  123918  123915      25  123924
  123921      24  123927  123921      24  123927  123924      25  123933  123930
      24  123936  123930      24  123936  123933      25  123942  123939      24
  123945  123939      24  123945  123942      25  123951  123948      24  123954
  123948      24  123954  123951      25  123960  123957      24  123963  123957
      24  123963  123960      25  123969  123966      24  123972  123966      24
  123972  123969      25  123978  123975      24  123981  123975      24  123981
  123978      25  123987  123984      24  123990  123984      24  123990  123987
      25  123996  123993      24  123999  123993      24  123999  123996      25
  124005  124002      24  124008  124002      24  124008  124005      25  124014
  124011      24  124017  124011      24  124017  124014      25  124023  124020
      24  124026  124020      24  124026  124023      25  124032  124029      24
  124035  124029      24  124035  124032      25  124041  124038      24  124044
  124038      24  124044  124041      25  124050  124047      24  124053  124047
      24  124053  124050      25  124059  124056      24  124062  124056      24
  124062  124059      25  124068  124065      24  124071  124065      24  124071
  124068      25  124077  124074      24  124080  124074      24  124080  124077
      25  124086  124083      24  124089  124083      24  124089  124086      25
  124095  124092      24  124098  124092      24  124098  124095      25  124104
  124101      24  124107  124101      24  124107  124104      25  124113  124110
      24  124116  124110      24  124116  124113      25  124122  124119      24
  124125  124119      24  124125  124122      25  124131  124128      24  124134
  124128      24  124134  124131      25  124140  124137      24  124143  124137
      24  124143  124140      25  124149  124146      24  124152  124146      24
  124152  124149      25  124158  124155      24  124161  124155      24  124161
  124158      25  124167  124164      24  124170  124164      24  124170  124167
      25  124176  124173      24  124179  124173      24  124179  124176      25
  124185  124182      24  124188  124182      24  124188  124185      25  124194
  124191      24  124197  124191      24  124197  124194      25  124203  124200
      24  124206  124200      24  124206  124203      25  124212  124209      24
  124215  124209      24  124215  124212      25  124221  124218      24  124224
  124218      24  124224  124221      25  124230  124227      24  124233  124227
      24  124233  124230      25  124239  124236      24  124242  124236      24
  124242  124239      25  124248  124245      24  124251  124245      24  124251
  124248      25  124257  124254      24  124260  124254      24  124260  124257
      25  124266  124263      24  124269  124263      24  124269  124266      25
  124275  124272      24  124278  124272      24  124278  124275      25  124284
  124281      24  124287  124281      24  124287  124284      25  124293  124290
      24  124296  124290      24  124296  124293      25  124302  124299      24
  124305  124299      24  124305  124302      25  124311  124308      24  124314
  124308      24  124314  124311      25  124320  124317      24  124323  124317
      24  124323  124320      25  124329  124326      24  124332  124326      24
  124332  124329      25  124338  124335      24  124341  124335      24  124341
  124338      25  124347  124344      24  124350  124344      24  124350  124347
      25  124356  124353      24  124359  124353      24  124359  124356      25
  124365  124362      24  124368  124362      24  124368  124365      25  124374
  124371      24  124377  124371      24  124377  124374      25  124383  124380
      24  124386  124380      24  124386  124383      25  124392  124389      24
  124395  124389      24  124395  124392      25  124401  124398      24  124404
  124398      24  124404  124401      25  124410  124407      24  124413  124407
      24  124413  124410      25  124419  124416      24  124422  124416      24
  124422  124419      25  124428  124425      24  124431  124425      24  124431
  124428      25  124437  124434      24  124440  124434      24  124440  124437
      25  124446  124443      24  124449  124443      24  124449  124446      25
  124455  124452      24  124458  124452      24  124458  124455      25  124464
  124461      24  124467  124461      24  124467  124464      25  124473  124470
      24  124476  124470      24  124476  124473      25  124482  124479      24
  124485  124479      24  124485  124482      25  124491  124488      24  124494
  124488      24  124494  124491      25  124500  124497      24  124503  124497
      24  124503  124500      25  124509  124506      24  124512  124506      24
  124512  124509      25  124518  124515      24  124521  124515      24  124521
  124518      25  124527  124524      24  124530  124524      24  124530  124527
      25  124536  124533      24  124539  124533      24  124539  124536      25
  124545  124542      24  124548  124542      24  124548  124545      25  124554
  124551      24  124557  124551      24  124557  124554      25  124563  124560
      24  124566  124560      24  124566  124563      25  124572  124569      24
  124575  124569      24  124575  124572      25  124581  124578      24  124584
  124578      24  124584  124581      25  124590  124587      24  124593  124587
      24  124593  124590      25  124599  124596      24  124602  124596      24
  124602  124599      25  124608  124605      24  124611  124605      24  124611
  124608      25  124617  124614      24  124620  124614      24  124620  124617
      25  124626  124623      24  124629  124623      24  124629  124626      25
  124635  124632      24  124638  124632      24  124638  124635      25  124644
  124641      24  124647  124641      24  124647  124644      25  124653  124650
      24  124656  124650      24  124656  124653      25  124662  124659      24
  124665  124659      24  124665  124662      25  124671  124668      24  124674
  124668      24  124674  124671      25  124680  124677      24  124683  124677
      24  124683  124680      25  124689  124686      24  124692  124686      24
  124692  124689      25  124698  124695      24  124701  124695      24  124701
  124698      25  124707  124704      24  124710  124704      24  124710  124707
      25  124716  124713      24  124719  124713      24  124719  124716      25
  124725  124722      24  124728  124722      24  124728  124725      25  124734
  124731      24  124737  124731      24  124737  124734      25  124743  124740
      24  124746  124740      24  124746  124743      25  124752  124749      24
  124755  124749      24  124755  124752      25  124761  124758      24  124764
  124758      24  124764  124761      25  124770  124767      24  124773  124767
      24  124773  124770      25  124779  124776      24  124782  124776      24
  124782  124779      25  124788  124785      24  124791  124785      24  124791
  124788      25  124797  124794      24  124800  124794      24  124800  124797
      25  124806  124803      24  124809  124803      24  124809  124806      25
  124815  124812      24  124818  124812      24  124818  124815      25  124824
  124821      24  124827  124821      24  124827  124824      25  124833  124830
      24  124836  124830      24  124836  124833      25  124842  124839      24
  124845  124839      24  124845  124842      25  124851  124848      24  124854
  124848      24  124854  124851      25  124860  124857      24  124863  124857
      24  124863  124860      25  124869  124866      24  124872  124866      24
  124872  124869      25  124878  124875      24  124881  124875      24  124881
  124878      25  124887  124884      24  124890  124884      24  124890  124887
      25  124896  124893      24  124899  124893      24  124899  124896      25
  124905  124902      24  124908  124902      24  124908  124905      25  124914
  124911      24  124917  124911      24  124917  124914      25  124923  124920
      24  124926  124920      24  124926  124923      25  124932  124929      24
  124935  124929      24  124935  124932      25  124941  124938      24  124944
  124938      24  124944  124941      25  124950  124947      24  124953  124947
      24  124953  124950      25  124959  124956      24  124962  124956      24
  124962  124959      25  124968  124965      24  124971  124965      24  124971
  124968      25  124977  124974      24  124980  124974      24  124980  124977
      25  124986  124983      24  124989  124983      24  124989  124986      25
  124995  124992      24  124998  124992      24  124998  124995      25  125004
  125001      24  125007  125001      24  125007  125004      25  125013  125010
      24  125016  125010      24  125016  125013      25  125022  125019      24
  125025  125019      24  125025  125022      25  125031  125028      24  125034
  125028      24  125034  125031      25  125040  125037      24  125043  125037
      24  125043  125040      25  125049  125046      24  125052  125046      24
  125052  125049      25  125058  125055      24  125061  125055      24  125061
  125058      25  125067  125064      24  125070  125064      24  125070  125067
      25  125076  125073      24  125079  125073      24  125079  125076      25
  125085  125082      24  125088  125082      24  125088  125085      25  125094
  125091      24  125097  125091      24  125097  125094      25  125103  125100
      24  125106  125100      24  125106  125103      25  125112  125109      24
  125115  125109      24  125115  125112      25  125121  125118      24  125124
  125118      24  125124  125121      25  125130  125127      24  125133  125127
      24  125133  125130      25  125139  125136      24  125142  125136      24
  125142  125139      25  125148  125145      24  125151  125145      24  125151
  125148      25  125157  125154      24  125160  125154      24  125160  125157
      25  125166  125163      24  125169  125163      24  125169  125166      25
  125175  125172      24  125178  125172      24  125178  125175      25  125184
  125181      24  125187  125181      24  125187  125184      25  125193  125190
      24  125196  125190      24  125196  125193      25  125202  125199      24
  125205  125199      24  125205  125202      25  125211  125208      24  125214
  125208      24  125214  125211      25  125220  125217      24  125223  125217
      24  125223  125220      25  125229  125226      24  125232  125226      24
  125232  125229      25  125238  125235      24  125241  125235      24  125241
  125238      25  125247  125244      24  125250  125244      24  125250  125247
      25  125256  125253      24  125259  125253      24  125259  125256      25
  125265  125262      24  125268  125262      24  125268  125265      25  125274
  125271      24  125277  125271      24  125277  125274      25  125283  125280
      24  125286  125280      24  125286  125283      25  125292  125289      24
  125295  125289      24  125295  125292      25  125301  125298      24  125304
  125298      24  125304  125301      25  125310  125307      24  125313  125307
      24  125313  125310      25  125319  125316      24  125322  125316      24
  125322  125319      25  125328  125325      24  125331  125325      24  125331
  125328      25  125337  125334      24  125340  125334      24  125340  125337
      25  125346  125343      24  125349  125343      24  125349  125346      25
  125355  125352      24  125358  125352      24  125358  125355      25  125364
  125361      24  125367  125361      24  125367  125364      25  125373  125370
      24  125376  125370      24  125376  125373      25  125382  125379      24
  125385  125379      24  125385  125382      25  125391  125388      24  125394
  125388      24  125394  125391      25  125400  125397      24  125403  125397
      24  125403  125400      25  125409  125406      24  125412  125406      24
  125412  125409      25  125418  125415      24  125421  125415      24  125421
  125418      25  125427  125424      24  125430  125424      24  125430  125427
      25  125436  125433      24  125439  125433      24  125439  125436      25
  125445  125442      24  125448  125442      24  125448  125445      25  125454
  125451      24  125457  125451      24  125457  125454      25  125463  125460
      24  125466  125460      24  125466  125463      25  125472  125469      24
  125475  125469      24  125475  125472      25  125481  125478      24  125484
  125478      24  125484  125481      25  125490  125487      24  125493  125487
      24  125493  125490      25  125499  125496      24  125502  125496      24
  125502  125499      25  125508  125505      24  125511  125505      24  125511
  125508      25  125517  125514      24  125520  125514      24  125520  125517
      25  125526  125523      24  125529  125523      24  125529  125526      25
  125535  125532      24  125538  125532      24  125538  125535      25  125544
  125541      24  125547  125541      24  125547  125544      25  125553  125550
      24  125556  125550      24  125556  125553      25  125562  125559      24
  125565  125559      24  125565  125562      25  125571  125568      24  125574
  125568      24  125574  125571      25  125580  125577      24  125583  125577
      24  125583  125580      25  125589  125586      24  125592  125586      24
  125592  125589      25  125598  125595      24  125601  125595      24  125601
  125598      25  125607  125604      24  125610  125604      24  125610  125607
      25  125616  125613      24  125619  125613      24  125619  125616      25
  125625  125622      24  125628  125622      24  125628  125625      25  125634
  125631      24  125637  125631      24  125637  125634      25  125643  125640
      24  125646  125640      24  125646  125643      25  125652  125649      24
  125655  125649      24  125655  125652      25  125661  125658      24  125664
  125658      24  125664  125661      25  125670  125667      24  125673  125667
      24  125673  125670      25  125679  125676      24  125682  125676      24
  125682  125679      25  125688  125685      24  125691  125685      24  125691
  125688      25  125697  125694      24  125700  125694      24  125700  125697
      25  125706  125703      24  125709  125703      24  125709  125706      25
  125715  125712      24  125718  125712      24  125718  125715      25  125724
  125721      24  125727  125721      24  125727  125724      25  125733  125730
      24  125736  125730      24  125736  125733      25  125742  125739      24
  125745  125739      24  125745  125742      25  125751  125748      24  125754
  125748      24  125754  125751      25  125760  125757      24  125763  125757
      24  125763  125760      25  125769  125766      24  125772  125766      24
  125772  125769      25  125778  125775      24  125781  125775      24  125781
  125778      25  125787  125784      24  125790  125784      24  125790  125787
      25  125796  125793      24  125799  125793      24  125799  125796      25
  125805  125802      24  125808  125802      24  125808  125805      25  125814
  125811      24  125817  125811      24  125817  125814      25  125823  125820
      24  125826  125820      24  125826  125823      25  125832  125829      24
  125835  125829      24  125835  125832      25  125841  125838      24  125844
  125838      24  125844  125841      25  125850  125847      24  125853  125847
      24  125853  125850      25  125859  125856      24  125862  125856      24
  125862  125859      25  125868  125865      24  125871  125865      24  125871
  125868      25  125877  125874      24  125880  125874      24  125880  125877
      25  125886  125883      24  125889  125883      24  125889  125886      25
  125895  125892      24  125898  125892      24  125898  125895      25  125904
  125901      24  125907  125901      24  125907  125904      25  125913  125910
      24  125916  125910      24  125916  125913      25  125922  125919      24
  125925  125919      24  125925  125922      25  125931  125928      24  125934
  125928      24  125934  125931      25  125940  125937      24  125943  125937
      24  125943  125940      25  125949  125946      24  125952  125946      24
  125952  125949      25  125958  125955      24  125961  125955      24  125961
  125958      25  125967  125964      24  125970  125964      24  125970  125967
      25  125976  125973      24  125979  125973      24  125979  125976      25
  125985  125982      24  125988  125982      24  125988  125985      25  125994
  125991      24  125997  125991      24  125997  125994      25  126003  126000
      24  126006  126000      24  126006  126003      25  126012  126009      24
  126015  126009      24  126015  126012      25  126021  126018      24  126024
  126018      24  126024  126021      25  126030  126027      24  126033  126027
      24  126033  126030      25  126039  126036      24  126042  126036      24
  126042  126039      25  126048  126045      24  126051  126045      24  126051
  126048      25  126057  126054      24  126060  126054      24  126060  126057
      25  126066  126063      24  126069  126063      24  126069  126066      25
  126075  126072      24  126078  126072      24  126078  126075      25  126084
  126081      24  126087  126081      24  126087  126084      25  126093  126090
      24  126096  126090      24  126096  126093      25  126102  126099      24
  126105  126099      24  126105  126102      25  126111  126108      24  126114
  126108      24  126114  126111      25  126120  126117      24  126123  126117
      24  126123  126120      25  126129  126126      24  126132  126126      24
  126132  126129      25  126138  126135      24  126141  126135      24  126141
  126138      25  126147  126144      24  126150  126144      24  126150  126147
      25  126156  126153      24  126159  126153      24  126159  126156      25
  126165  126162      24  126168  126162      24  126168  126165      25  126174
  126171      24  126177  126171      24  126177  126174      25  126183  126180
      24  126186  126180      24  126186  126183      25  126192  126189      24
  126195  126189      24  126195  126192      25  126201  126198      24  126204
  126198      24  126204  126201      25  126210  126207      24  126213  126207
      24  126213  126210      25  126219  126216      24  126222  126216      24
  126222  126219      25  126228  126225      24  126231  126225      24  126231
  126228      25  126237  126234      24  126240  126234      24  126240  126237
      25  126246  126243      24  126249  126243      24  126249  126246      25
  126255  126252      24  126258  126252      24  126258  126255      25  126264
  126261      24  126267  126261      24  126267  126264      25  126273  126270
      24  126276  126270      24  126276  126273      25  126282  126279      24
  126285  126279      24  126285  126282      25  126291  126288      24  126294
  126288      24  126294  126291      25  126300  126297      24  126303  126297
      24  126303  126300      25  126309  126306      24  126312  126306      24
  126312  126309      25  126318  126315      24  126321  126315      24  126321
  126318      25  126327  126324      24  126330  126324      24  126330  126327
      25  126336  126333      24  126339  126333      24  126339  126336      25
  126345  126342      24  126348  126342      24  126348  126345      25  126354
  126351      24  126357  126351      24  126357  126354      25  126363  126360
      24  126366  126360      24  126366  126363      25  126372  126369      24
  126375  126369      24  126375  126372      25  126381  126378      24  126384
  126378      24  126384  126381      25  126390  126387      24  126393  126387
      24  126393  126390      25  126399  126396      24  126402  126396      24
  126402  126399      25  126408  126405      24  126411  126405      24  126411
  126408      25  126417  126414      24  126420  126414      24  126420  126417
      25  126426  126423      24  126429  126423      24  126429  126426      25
  126435  126432      24  126438  126432      24  126438  126435      25  126444
  126441      24  126447  126441      24  126447  126444      25  126453  126450
      24  126456  126450      24  126456  126453      25  126462  126459      24
  126465  126459      24  126465  126462      25  126471  126468      24  126474
  126468      24  126474  126471      25  126480  126477      24  126483  126477
      24  126483  126480      25  126489  126486      24  126492  126486      24
  126492  126489      25  126498  126495      24  126501  126495      24  126501
  126498      25  126507  126504      24  126510  126504      24  126510  126507
      25  126516  126513      24  126519  126513      24  126519  126516      25
  126525  126522      24  126528  126522      24  126528  126525      25  126534
  126531      24  126537  126531      24  126537  126534      25  126543  126540
      24  126546  126540      24  126546  126543      25  126552  126549      24
  126555  126549      24  126555  126552      25  126561  126558      24  126564
  126558      24  126564  126561      25  126570  126567      24  126573  126567
      24  126573  126570      25  126579  126576      24  126582  126576      24
  126582  126579      25  126588  126585      24  126591  126585      24  126591
  126588      25  126597  126594      24  126600  126594      24  126600  126597
      25  126606  126603      24  126609  126603      24  126609  126606      25
  126615  126612      24  126618  126612      24  126618  126615      25  126624
  126621      24  126627  126621      24  126627  126624      25  126633  126630
      24  126636  126630      24  126636  126633      25  126642  126639      24
  126645  126639      24  126645  126642      25  126651  126648      24  126654
  126648      24  126654  126651      25  126660  126657      24  126663  126657
      24  126663  126660      25  126669  126666      24  126672  126666      24
  126672  126669      25  126678  126675      24  126681  126675      24  126681
  126678      25  126687  126684      24  126690  126684      24  126690  126687
      25  126696  126693      24  126699  126693      24  126699  126696      25
  126705  126702      24  126708  126702      24  126708  126705      25  126714
  126711      24  126717  126711      24  126717  126714      25  126723  126720
      24  126726  126720      24  126726  126723      25  126732  126729      24
  126735  126729      24  126735  126732      25  126741  126738      24  126744
  126738      24  126744  126741      25  126750  126747      24  126753  126747
      24  126753  126750      25  126759  126756      24  126762  126756      24
  126762  126759      25  126768  126765      24  126771  126765      24  126771
  126768      25  126777  126774      24  126780  126774      24  126780  126777
      25  126786  126783      24  126789  126783      24  126789  126786      25
  126795  126792      24  126798  126792      24  126798  126795      25  126804
  126801      24  126807  126801      24  126807  126804      25  126813  126810
      24  126816  126810      24  126816  126813      25  126822  126819      24
  126825  126819      24  126825  126822      25  126831  126828      24  126834
  126828      24  126834  126831      25  126840  126837      24  126843  126837
      24  126843  126840      25  126849  126846      24  126852  126846      24
  126852  126849      25  126858  126855      24  126861  126855      24  126861
  126858      25  126867  126864      24  126870  126864      24  126870  126867
      25  126876  126873      24  126879  126873      24  126879  126876      25
  126885  126882      24  126888  126882      24  126888  126885      25  126894
  126891      24  126897  126891      24  126897  126894      25  126903  126900
      24  126906  126900      24  126906  126903      25  126912  126909      24
  126915  126909      24  126915  126912      25  126921  126918      24  126924
  126918      24  126924  126921      25  126930  126927      24  126933  126927
      24  126933  126930      25  126939  126936      24  126942  126936      24
  126942  126939      25  126948  126945      24  126951  126945      24  126951
  126948      25  126957  126954      24  126960  126954      24  126960  126957
      25  126966  126963      24  126969  126963      24  126969  126966      25
  126975  126972      24  126978  126972      24  126978  126975      25  126984
  126981      24  126987  126981      24  126987  126984      25  126993  126990
      24  126996  126990      24  126996  126993      25  127002  126999      24
  127005  126999      24  127005  127002      25  127011  127008      24  127014
  127008      24  127014  127011      25  127020  127017      24  127023  127017
      24  127023  127020      25  127029  127026      24  127032  127026      24
  127032  127029      25  127038  127035      24  127041  127035      24  127041
  127038      25  127047  127044      24  127050  127044      24  127050  127047
      25  127056  127053      24  127059  127053      24  127059  127056      25
  127065  127062      24  127068  127062      24  127068  127065      25  127074
  127071      24  127077  127071      24  127077  127074      25  127083  127080
      24  127086  127080      24  127086  127083      25  127092  127089      24
  127095  127089      24  127095  127092      25  127101  127098      24  127104
  127098      24  127104  127101      25  127110  127107      24  127113  127107
      24  127113  127110      25  127119  127116      24  127122  127116      24
  127122  127119      25  127128  127125      24  127131  127125      24  127131
  127128      25  127137  127134      24  127140  127134      24  127140  127137
      25  127146  127143      24  127149  127143      24  127149  127146      25
  127155  127152      24  127158  127152      24  127158  127155      25  127164
  127161      24  127167  127161      24  127167  127164      25  127173  127170
      24  127176  127170      24  127176  127173      25  127182  127179      24
  127185  127179      24  127185  127182      25  127191  127188      24  127194
  127188      24  127194  127191      25  127200  127197      24  127203  127197
      24  127203  127200      25  127209  127206      24  127212  127206      24
  127212  127209      25  127218  127215      24  127221  127215      24  127221
  127218      25  127227  127224      24  127230  127224      24  127230  127227
      25  127236  127233      24  127239  127233      24  127239  127236      25
  127245  127242      24  127248  127242      24  127248  127245      25  127254
  127251      24  127257  127251      24  127257  127254      25  127263  127260
      24  127266  127260      24  127266  127263      25  127272  127269      24
  127275  127269      24  127275  127272      25  127281  127278      24  127284
  127278      24  127284  127281      25  127290  127287      24  127293  127287
      24  127293  127290      25  127299  127296      24  127302  127296      24
  127302  127299      25  127308  127305      24  127311  127305      24  127311
  127308      25  127317  127314      24  127320  127314      24  127320  127317
      25  127326  127323      24  127329  127323      24  127329  127326      25
  127335  127332      24  127338  127332      24  127338  127335      25  127344
  127341      24  127347  127341      24  127347  127344      25  127353  127350
      24  127356  127350      24  127356  127353      25  127362  127359      24
  127365  127359      24  127365  127362      25  127371  127368      24  127374
  127368      24  127374  127371      25  127380  127377      24  127383  127377
      24  127383  127380      25  127389  127386      24  127392  127386      24
  127392  127389      25  127398  127395      24  127401  127395      24  127401
  127398      25  127407  127404      24  127410  127404      24  127410  127407
      25  127416  127413      24  127419  127413      24  127419  127416      25
  127425  127422      24  127428  127422      24  127428  127425      25  127434
  127431      24  127437  127431      24  127437  127434      25  127443  127440
      24  127446  127440      24  127446  127443      25  127452  127449      24
  127455  127449      24  127455  127452      25  127461  127458      24  127464
  127458      24  127464  127461      25  127470  127467      24  127473  127467
      24  127473  127470      25  127479  127476      24  127482  127476      24
  127482  127479      25  127488  127485      24  127491  127485      24  127491
  127488      25  127497  127494      24  127500  127494      24  127500  127497
      25  127506  127503      24  127509  127503      24  127509  127506      25
  127515  127512      24  127518  127512      24  127518  127515      25  127524
  127521      24  127527  127521      24  127527  127524      25  127533  127530
      24  127536  127530      24  127536  127533      25  127542  127539      24
  127545  127539      24  127545  127542      25  127551  127548      24  127554
  127548      24  127554  127551      25  127560  127557      24  127563  127557
      24  127563  127560      25  127569  127566      24  127572  127566      24
  127572  127569      25  127578  127575      24  127581  127575      24  127581
  127578      25  127587  127584      24  127590  127584      24  127590  127587
      25  127596  127593      24  127599  127593      24  127599  127596      25
  127605  127602      24  127608  127602      24  127608  127605      25  127614
  127611      24  127617  127611      24  127617  127614      25  127623  127620
      24  127626  127620      24  127626  127623      25  127632  127629      24
  127635  127629      24  127635  127632      25  127641  127638      24  127644
  127638      24  127644  127641      25  127650  127647      24  127653  127647
      24  127653  127650      25  127659  127656      24  127662  127656      24
  127662  127659      25  127668  127665      24  127671  127665      24  127671
  127668      25  127677  127674      24  127680  127674      24  127680  127677
      25  127686  127683      24  127689  127683      24  127689  127686      25
  127695  127692      24  127698  127692      24  127698  127695      25  127704
  127701      24  127707  127701      24  127707  127704      25  127713  127710
      24  127716  127710      24  127716  127713      25  127722  127719      24
  127725  127719      24  127725  127722      25  127731  127728      24  127734
  127728      24  127734  127731      25  127740  127737      24  127743  127737
      24  127743  127740      25  127749  127746      24  127752  127746      24
  127752  127749      25  127758  127755      24  127761  127755      24  127761
  127758      25  127767  127764      24  127770  127764      24  127770  127767
      25  127776  127773      24  127779  127773      24  127779  127776      25
  127785  127782      24  127788  127782      24  127788  127785      25  127794
  127791      24  127797  127791      24  127797  127794      25  127803  127800
      24  127806  127800      24  127806  127803      25  127812  127809      24
  127815  127809      24  127815  127812      25  127821  127818      24  127824
  127818      24  127824  127821      25  127830  127827      24  127833  127827
      24  127833  127830      25  127839  127836      24  127842  127836      24
  127842  127839      25  127848  127845      24  127851  127845      24  127851
  127848      25  127857  127854      24  127860  127854      24  127860  127857
      25  127866  127863      24  127869  127863      24  127869  127866      25
  127875  127872      24  127878  127872      24  127878  127875      25  127884
  127881      24  127887  127881      24  127887  127884      25  127893  127890
      24  127896  127890      24  127896  127893      25  127902  127899      24
  127905  127899      24  127905  127902      25  127911  127908      24  127914
  127908      24  127914  127911      25  127920  127917      24  127923  127917
      24  127923  127920      25  127929  127926      24  127932  127926      24
  127932  127929      25  127938  127935      24  127941  127935      24  127941
  127938      25  127947  127944      24  127950  127944      24  127950  127947
      25  127956  127953      24  127959  127953      24  127959  127956      25
  127965  127962      24  127968  127962      24  127968  127965      25  127974
  127971      24  127977  127971      24  127977  127974      25  127983  127980
      24  127986  127980      24  127986  127983      25  127992  127989      24
  127995  127989      24  127995  127992      25  128001  127998      24  128004
  127998      24  128004  128001      25  128010  128007      24  128013  128007
      24  128013  128010      25  128019  128016      24  128022  128016      24
  128022  128019      25  128028  128025      24  128031  128025      24  128031
  128028      25  128037  128034      24  128040  128034      24  128040  128037
      25  128046  128043      24  128049  128043      24  128049  128046      25
  128055  128052      24  128058  128052      24  128058  128055      25  128064
  128061      24  128067  128061      24  128067  128064      25  128073  128070
      24  128076  128070      24  128076  128073      25  128082  128079      24
  128085  128079      24  128085  128082      25  128091  128088      24  128094
  128088      24  128094  128091      25  128100  128097      24  128103  128097
      24  128103  128100      25  128109  128106      24  128112  128106      24
  128112  128109      25  128118  128115      24  128121  128115      24  128121
  128118      25  128127  128124      24  128130  128124      24  128130  128127
      25  128136  128133      24  128139  128133      24  128139  128136      25
  128145  128142      24  128148  128142      24  128148  128145      25  128154
  128151      24  128157  128151      24  128157  128154      25  128163  128160
      24  128166  128160      24  128166  128163      25  128172  128169      24
  128175  128169      24  128175  128172      25  128181  128178      24  128184
  128178      24  128184  128181      25  128190  128187      24  128193  128187
      24  128193  128190      25  128199  128196      24  128202  128196      24
  128202  128199      25  128208  128205      24  128211  128205      24  128211
  128208      25  128217  128214      24  128220  128214      24  128220  128217
      25  128226  128223      24  128229  128223      24  128229  128226      25
  128235  128232      24  128238  128232      24  128238  128235      25  128244
  128241      24  128247  128241      24  128247  128244      25  128253  128250
      24  128256  128250      24  128256  128253      25  128262  128259      24
  128265  128259      24  128265  128262      25  128271  128268      24  128274
  128268      24  128274  128271      25  128280  128277      24  128283  128277
      24  128283  128280      25  128289  128286      24  128292  128286      24
  128292  128289      25  128298  128295      24  128301  128295      24  128301
  128298      25  128307  128304      24  128310  128304      24  128310  128307
      25  128316  128313      24  128319  128313      24  128319  128316      25
  128325  128322      24  128328  128322      24  128328  128325      25  128334
  128331      24  128337  128331      24  128337  128334      25  128343  128340
      24  128346  128340      24  128346  128343      25  128352  128349      24
  128355  128349      24  128355  128352      25  128361  128358      24  128364
  128358      24  128364  128361      25  128370  128367      24  128373  128367
      24  128373  128370      25  128379  128376      24  128382  128376      24
  128382  128379      25  128388  128385      24  128391  128385      24  128391
  128388      25  128397  128394      24  128400  128394      24  128400  128397
      25  128406  128403      24  128409  128403      24  128409  128406      25
  128415  128412      24  128418  128412      24  128418  128415      25  128424
  128421      24  128427  128421      24  128427  128424      25  128433  128430
      24  128436  128430      24  128436  128433      25  128442  128439      24
  128445  128439      24  128445  128442      25  128451  128448      24  128454
  128448      24  128454  128451      25  128460  128457      24  128463  128457
      24  128463  128460      25  128469  128466      24  128472  128466      24
  128472  128469      25  128478  128475      24  128481  128475      24  128481
  128478      25  128487  128484      24  128490  128484      24  128490  128487
      25  128496  128493      24  128499  128493      24  128499  128496      25
  128505  128502      24  128508  128502      24  128508  128505      25  128514
  128511      24  128517  128511      24  128517  128514      25  128523  128520
      24  128526  128520      24  128526  128523      25  128532  128529      24
  128535  128529      24  128535  128532      25  128541  128538      24  128544
  128538      24  128544  128541      25  128550  128547      24  128553  128547
      24  128553  128550      25  128559  128556      24  128562  128556      24
  128562  128559      25  128568  128565      24  128571  128565      24  128571
  128568      25  128577  128574      24  128580  128574      24  128580  128577
      25  128586  128583      24  128589  128583      24  128589  128586      25
  128595  128592      24  128598  128592      24  128598  128595      25  128604
  128601      24  128607  128601      24  128607  128604      25  128613  128610
      24  128616  128610      24  128616  128613      25  128622  128619      24
  128625  128619      24  128625  128622      25  128631  128628      24  128634
  128628      24  128634  128631      25  128640  128637      24  128643  128637
      24  128643  128640      25  128649  128646      24  128652  128646      24
  128652  128649      25  128658  128655      24  128661  128655      24  128661
  128658      25  128667  128664      24  128670  128664      24  128670  128667
      25  128676  128673      24  128679  128673      24  128679  128676      25
  128685  128682      24  128688  128682      24  128688  128685      25  128694
  128691      24  128697  128691      24  128697  128694      25  128703  128700
      24  128706  128700      24  128706  128703      25  128712  128709      24
  128715  128709      24  128715  128712      25  128721  128718      24  128724
  128718      24  128724  128721      25  128730  128727      24  128733  128727
      24  128733  128730      25  128739  128736      24  128742  128736      24
  128742  128739      25  128748  128745      24  128751  128745      24  128751
  128748      25  128757  128754      24  128760  128754      24  128760  128757
      25  128766  128763      24  128769  128763      24  128769  128766      25
  128775  128772      24  128778  128772      24  128778  128775      25  128784
  128781      24  128787  128781      24  128787  128784      25  128793  128790
      24  128796  128790      24  128796  128793      25  128802  128799      24
  128805  128799      24  128805  128802      25  128811  128808      24  128814
  128808      24  128814  128811      25  128820  128817      24  128823  128817
      24  128823  128820      25  128829  128826      24  128832  128826      24
  128832  128829      25  128838  128835      24  128841  128835      24  128841
  128838      25  128847  128844      24  128850  128844      24  128850  128847
      25  128856  128853      24  128859  128853      24  128859  128856      25
  128865  128862      24  128868  128862      24  128868  128865      25  128874
  128871      24  128877  128871      24  128877  128874      25  128883  128880
      24  128886  128880      24  128886  128883      25  128892  128889      24
  128895  128889      24  128895  128892      25  128901  128898      24  128904
  128898      24  128904  128901      25  128910  128907      24  128913  128907
      24  128913  128910      25  128919  128916      24  128922  128916      24
  128922  128919      25  128928  128925      24  128931  128925      24  128931
  128928      25  128937  128934      24  128940  128934      24  128940  128937
      25  128946  128943      24  128949  128943      24  128949  128946      25
  128955  128952      24  128958  128952      24  128958  128955      25  128964
  128961      24  128967  128961      24  128967  128964      25  128973  128970
      24  128976  128970      24  128976  128973      25  128982  128979      24
  128985  128979      24  128985  128982      25  128991  128988      24  128994
  128988      24  128994  128991      25  129000  128997      24  129003  128997
      24  129003  129000      25  129009  129006      24  129012  129006      24
  129012  129009      25  129018  129015      24  129021  129015      24  129021
  129018      25  129027  129024      24  129030  129024      24  129030  129027
      25  129036  129033      24  129039  129033      24  129039  129036      25
  129045  129042      24  129048  129042      24  129048  129045      25  129054
  129051      24  129057  129051      24  129057  129054      25  129063  129060
      24  129066  129060      24  129066  129063      25  129072  129069      24
  129075  129069      24  129075  129072      25  129081  129078      24  129084
  129078      24  129084  129081      25  129090  129087      24  129093  129087
      24  129093  129090      25  129099  129096      24  129102  129096      24
  129102  129099      25  129108  129105      24  129111  129105      24  129111
  129108      25  129117  129114      24  129120  129114      24  129120  129117
      25  129126  129123      24  129129  129123      24  129129  129126      25
  129135  129132      24  129138  129132      24  129138  129135      25  129144
  129141      24  129147  129141      24  129147  129144      25  129153  129150
      24  129156  129150      24  129156  129153      25  129162  129159      24
  129165  129159      24  129165  129162      25  129171  129168      24  129174
  129168      24  129174  129171      25  129180  129177      24  129183  129177
      24  129183  129180      25  129189  129186      24  129192  129186      24
  129192  129189      25  129198  129195      24  129201  129195      24  129201
  129198      25  129207  129204      24  129210  129204      24  129210  129207
      25  129216  129213      24  129219  129213      24  129219  129216      25
  129225  129222      24  129228  129222      24  129228  129225      25  129234
  129231      24  129237  129231      24  129237  129234      25  129243  129240
      24  129246  129240      24  129246  129243      25  129252  129249      24
  129255  129249      24  129255  129252      25  129261  129258      24  129264
  129258      24  129264  129261      25  129270  129267      24  129273  129267
      24  129273  129270      25  129279  129276      24  129282  129276      24
  129282  129279      25  129288  129285      24  129291  129285      24  129291
  129288      25  129297  129294      24  129300  129294      24  129300  129297
      25  129306  129303      24  129309  129303      24  129309  129306      25
  129315  129312      24  129318  129312      24  129318  129315      25  129324
  129321      24  129327  129321      24  129327  129324      25  129333  129330
      24  129336  129330      24  129336  129333      25  129342  129339      24
  129345  129339      24  129345  129342      25  129351  129348      24  129354
  129348      24  129354  129351      25  129360  129357      24  129363  129357
      24  129363  129360      25  129369  129366      24  129372  129366      24
  129372  129369      25  129378  129375      24  129381  129375      24  129381
  129378      25  129387  129384      24  129390  129384      24  129390  129387
      25  129396  129393      24  129399  129393      24  129399  129396      25
  129405  129402      24  129408  129402      24  129408  129405      25  129414
  129411      24  129417  129411      24  129417  129414      25  129423  129420
      24  129426  129420      24  129426  129423      25  129432  129429      24
  129435  129429      24  129435  129432      25  129441  129438      24  129444
  129438      24  129444  129441      25  129450  129447      24  129453  129447
      24  129453  129450      25  129459  129456      24  129462  129456      24
  129462  129459      25  129468  129465      24  129471  129465      24  129471
  129468      25  129477  129474      24  129480  129474      24  129480  129477
      25  129486  129483      24  129489  129483      24  129489  129486      25
  129495  129492      24  129498  129492      24  129498  129495      25  129504
  129501      24  129507  129501      24  129507  129504      25  129513  129510
      24  129516  129510      24  129516  129513      25  129522  129519      24
  129525  129519      24  129525  129522      25  129531  129528      24  129534
  129528      24  129534  129531      25  129540  129537      24  129543  129537
      24  129543  129540      25  129549  129546      24  129552  129546      24
  129552  129549      25  129558  129555      24  129561  129555      24  129561
  129558      25  129567  129564      24  129570  129564      24  129570  129567
      25  129576  129573      24  129579  129573      24  129579  129576      25
  129585  129582      24  129588  129582      24  129588  129585      25  129594
  129591      24  129597  129591      24  129597  129594      25  129603  129600
      24  129606  129600      24  129606  129603      25  129612  129609      24
  129615  129609      24  129615  129612      25  129621  129618      24  129624
  129618      24  129624  129621      25  129630  129627      24  129633  129627
      24  129633  129630      25  129639  129636      24  129642  129636      24
  129642  129639      25  129648  129645      24  129651  129645      24  129651
  129648      25  129657  129654      24  129660  129654      24  129660  129657
      25  129666  129663      24  129669  129663      24  129669  129666      25
  129675  129672      24  129678  129672      24  129678  129675      25  129684
  129681      24  129687  129681      24  129687  129684      25  129693  129690
      24  129696  129690      24  129696  129693      25  129702  129699      24
  129705  129699      24  129705  129702      25  129711  129708      24  129714
  129708      24  129714  129711      25  129720  129717      24  129723  129717
      24  129723  129720      25  129729  129726      24  129732  129726      24
  129732  129729      25  129738  129735      24  129741  129735      24  129741
  129738      25  129747  129744      24  129750  129744      24  129750  129747
      25  129756  129753      24  129759  129753      24  129759  129756      25
  129765  129762      24  129768  129762      24  129768  129765      25  129774
  129771      24  129777  129771      24  129777  129774      25  129783  129780
      24  129786  129780      24  129786  129783      25  129792  129789      24
  129795  129789      24  129795  129792      25  129801  129798      24  129804
  129798      24  129804  129801      25  129810  129807      24  129813  129807
      24  129813  129810      25  129819  129816      24  129822  129816      24
  129822  129819      25  129828  129825      24  129831  129825      24  129831
  129828      25  129837  129834      24  129840  129834      24  129840  129837
      25  129846  129843      24  129849  129843      24  129849  129846      25
  129855  129852      24  129858  129852      24  129858  129855      25  129864
  129861      24  129867  129861      24  129867  129864      25  129873  129870
      24  129876  129870      24  129876  129873      25  129882  129879      24
  129885  129879      24  129885  129882      25  129891  129888      24  129894
  129888      24  129894  129891      25  129900  129897      24  129903  129897
      24  129903  129900      25  129909  129906      24  129912  129906      24
  129912  129909      25  129918  129915      24  129921  129915      24  129921
  129918      25  129927  129924      24  129930  129924      24  129930  129927
      25  129936  129933      24  129939  129933      24  129939  129936      25
  129945  129942      24  129948  129942      24  129948  129945      25  129954
  129951      24  129957  129951      24  129957  129954      25  129963  129960
      24  129966  129960      24  129966  129963      25  129972  129969      24
  129975  129969      24  129975  129972      25  129981  129978      24  129984
  129978      24  129984  129981      25  129990  129987      24  129993  129987
      24  129993  129990      25  129999  129996      24  130002  129996      24
  130002  129999      25  130008  130005      24  130011  130005      24  130011
  130008      25  130017  130014      24  130020  130014      24  130020  130017
      25  130026  130023      24  130029  130023      24  130029  130026      25
  130035  130032      24  130038  130032      24  130038  130035      25  130044
  130041      24  130047  130041      24  130047  130044      25  130053  130050
      24  130056  130050      24  130056  130053      25  130062  130059      24
  130065  130059      24  130065  130062      25  130071  130068      24  130074
  130068      24  130074  130071      25  130080  130077      24  130083  130077
      24  130083  130080      25  130089  130086      24  130092  130086      24
  130092  130089      25  130098  130095      24  130101  130095      24  130101
  130098      25  130107  130104      24  130110  130104      24  130110  130107
      25  130116  130113      24  130119  130113      24  130119  130116      25
  130125  130122      24  130128  130122      24  130128  130125      25  130134
  130131      24  130137  130131      24  130137  130134      25  130143  130140
      24  130146  130140      24  130146  130143      25  130152  130149      24
  130155  130149      24  130155  130152      25  130161  130158      24  130164
  130158      24  130164  130161      25  130170  130167      24  130173  130167
      24  130173  130170      25  130179  130176      24  130182  130176      24
  130182  130179      25  130188  130185      24  130191  130185      24  130191
  130188      25  130197  130194      24  130200  130194      24  130200  130197
      25  130206  130203      24  130209  130203      24  130209  130206      25
  130215  130212      24  130218  130212      24  130218  130215      25  130224
  130221      24  130227  130221      24  130227  130224      25  130233  130230
      24  130236  130230      24  130236  130233      25  130242  130239      24
  130245  130239      24  130245  130242      25  130251  130248      24  130254
  130248      24  130254  130251      25  130260  130257      24  130263  130257
      24  130263  130260      25  130269  130266      24  130272  130266      24
  130272  130269      25  130278  130275      24  130281  130275      24  130281
  130278      25  130287  130284      24  130290  130284      24  130290  130287
      25  130296  130293      24  130299  130293      24  130299  130296      25
  130305  130302      24  130308  130302      24  130308  130305      25  130314
  130311      24  130317  130311      24  130317  130314      25  130323  130320
      24  130326  130320      24  130326  130323      25  130332  130329      24
  130335  130329      24  130335  130332      25  130341  130338      24  130344
  130338      24  130344  130341      25  130350  130347      24  130353  130347
      24  130353  130350      25  130359  130356      24  130362  130356      24
  130362  130359      25  130368  130365      24  130371  130365      24  130371
  130368      25  130377  130374      24  130380  130374      24  130380  130377
      25  130386  130383      24  130389  130383      24  130389  130386      25
  130395  130392      24  130398  130392      24  130398  130395      25  130404
  130401      24  130407  130401      24  130407  130404      25  130413  130410
      24  130416  130410      24  130416  130413      25  130422  130419      24
  130425  130419      24  130425  130422      25  130431  130428      24  130434
  130428      24  130434  130431      25  130440  130437      24  130443  130437
      24  130443  130440      25  130449  130446      24  130452  130446      24
  130452  130449      25  130458  130455      24  130461  130455      24  130461
  130458      25  130467  130464      24  130470  130464      24  130470  130467
      25  130476  130473      24  130479  130473      24  130479  130476      25
  130485  130482      24  130488  130482      24  130488  130485      25  130494
  130491      24  130497  130491      24  130497  130494      25  130503  130500
      24  130506  130500      24  130506  130503      25  130512  130509      24
  130515  130509      24  130515  130512      25  130521  130518      24  130524
  130518      24  130524  130521      25  130530  130527      24  130533  130527
      24  130533  130530      25  130539  130536      24  130542  130536      24
  130542  130539      25  130548  130545      24  130551  130545      24  130551
  130548      25  130557  130554      24  130560  130554      24  130560  130557
      25  130566  130563      24  130569  130563      24  130569  130566      25
  130575  130572      24  130578  130572      24  130578  130575      25  130584
  130581      24  130587  130581      24  130587  130584      25  130593  130590
      24  130596  130590      24  130596  130593      25  130602  130599      24
  130605  130599      24  130605  130602      25  130611  130608      24  130614
  130608      24  130614  130611      25  130620  130617      24  130623  130617
      24  130623  130620      25  130629  130626      24  130632  130626      24
  130632  130629      25  130638  130635      24  130641  130635      24  130641
  130638      25  130647  130644      24  130650  130644      24  130650  130647
      25  130656  130653      24  130659  130653      24  130659  130656      25
  130665  130662      24  130668  130662      24  130668  130665      25  130674
  130671      24  130677  130671      24  130677  130674      25  130683  130680
      24  130686  130680      24  130686  130683      25  130692  130689      24
  130695  130689      24  130695  130692      25  130701  130698      24  130704
  130698      24  130704  130701      25  130710  130707      24  130713  130707
      24  130713  130710      25  130719  130716      24  130722  130716      24
  130722  130719      25  130728  130725      24  130731  130725      24  130731
  130728      25  130737  130734      24  130740  130734      24  130740  130737
      25  130746  130743      24  130749  130743      24  130749  130746      25
  130755  130752      24  130758  130752      24  130758  130755      25  130764
  130761      24  130767  130761      24  130767  130764      25  130773  130770
      24  130776  130770      24  130776  130773      25  130782  130779      24
  130785  130779      24  130785  130782      25  130791  130788      24  130794
  130788      24  130794  130791      25  130800  130797      24  130803  130797
      24  130803  130800      25  130809  130806      24  130812  130806      24
  130812  130809      25  130818  130815      24  130821  130815      24  130821
  130818      25  130827  130824      24  130830  130824      24  130830  130827
      25  130836  130833      24  130839  130833      24  130839  130836      25
  130845  130842      24  130848  130842      24  130848  130845      25  130854
  130851      24  130857  130851      24  130857  130854      25  130863  130860
      24  130866  130860      24  130866  130863      25  130872  130869      24
  130875  130869      24  130875  130872      25  130881  130878      24  130884
  130878      24  130884  130881      25  130890  130887      24  130893  130887
      24  130893  130890      25  130899  130896      24  130902  130896      24
  130902  130899      25  130908  130905      24  130911  130905      24  130911
  130908      25  130917  130914      24  130920  130914      24  130920  130917
      25  130926  130923      24  130929  130923      24  130929  130926      25
  130935  130932      24  130938  130932      24  130938  130935      25  130944
  130941      24  130947  130941      24  130947  130944      25  130953  130950
      24  130956  130950      24  130956  130953      25  130962  130959      24
  130965  130959      24  130965  130962      25  130971  130968      24  130974
  130968      24  130974  130971      25  130980  130977      24  130983  130977
      24  130983  130980      25  130989  130986      24  130992  130986      24
  130992  130989      25  130998  130995      24  131001  130995      24  131001
  130998      25  131007  131004      24  131010  131004      24  131010  131007
      25  131016  131013      24  131019  131013      24  131019  131016      25
  131025  131022      24  131028  131022      24  131028  131025      25  131034
  131031      24  131037  131031      24  131037  131034      25  131043  131040
      24  131046  131040      24  131046  131043      25  131052  131049      24
  131055  131049      24  131055  131052      25  131061  131058      24  131064
  131058      24  131064  131061      25  131070  131067      24  131073  131067
      24  131073  131070      25  131079  131076      24  131082  131076      24
  131082  131079      25  131088  131085      24  131091  131085      24  131091
  131088      25  131097  131094      24  131100  131094      24  131100  131097
      25  131106  131103      24  131109  131103      24  131109  131106      25
  131115  131112      24  131118  131112      24  131118  131115      25  131124
  131121      24  131127  131121      24  131127  131124      25  131133  131130
      24  131136  131130      24  131136  131133      25  131142  131139      24
  131145  131139      24  131145  131142      25  131151  131148      24  131154
  131148      24  131154  131151      25  131160  131157      24  131163  131157
      24  131163  131160      25  131169  131166      24  131172  131166      24
  131172  131169      25  131178  131175      24  131181  131175      24  131181
  131178      25  131187  131184      24  131190  131184      24  131190  131187
      25  131196  131193      24  131199  131193      24  131199  131196      25
  131205  131202      24  131208  131202      24  131208  131205      25  131214
  131211      24  131217  131211      24  131217  131214      25  131223  131220
      24  131226  131220      24  131226  131223      25  131232  131229      24
  131235  131229      24  131235  131232      25  131241  131238      24  131244
  131238      24  131244  131241      25  131250  131247      24  131253  131247
      24  131253  131250      25  131259  131256      24  131262  131256      24
  131262  131259      25  131268  131265      24  131271  131265      24  131271
  131268      25  131277  131274      24  131280  131274      24  131280  131277
      25  131286  131283      24  131289  131283      24  131289  131286      25
  131295  131292      24  131298  131292      24  131298  131295      25  131304
  131301      24  131307  131301      24  131307  131304      25  131313  131310
      24  131316  131310      24  131316  131313      25  131322  131319      24
  131325  131319      24  131325  131322      25  131331  131328      24  131334
  131328      24  131334  131331      25  131340  131337      24  131343  131337
      24  131343  131340      25  131349  131346      24  131352  131346      24
  131352  131349      25  131358  131355      24  131361  131355      24  131361
  131358      25  131367  131364      24  131370  131364      24  131370  131367
      25  131376  131373      24  131379  131373      24  131379  131376      25
  131385  131382      24  131388  131382      24  131388  131385      25  131394
  131391      24  131397  131391      24  131397  131394      25  131403  131400
      24  131406  131400      24  131406  131403      25  131412  131409      24
  131415  131409      24  131415  131412      25  131421  131418      24  131424
  131418      24  131424  131421      25  131430  131427      24  131433  131427
      24  131433  131430      25  131439  131436      24  131442  131436      24
  131442  131439      25  131448  131445      24  131451  131445      24  131451
  131448      25  131457  131454      24  131460  131454      24  131460  131457
      25  131466  131463      24  131469  131463      24  131469  131466      25
  131475  131472      24  131478  131472      24  131478  131475      25  131484
  131481      24  131487  131481      24  131487  131484      25  131493  131490
      24  131496  131490      24  131496  131493      25  131502  131499      24
  131505  131499      24  131505  131502      25  131511  131508      24  131514
  131508      24  131514  131511      25  131520  131517      24  131523  131517
      24  131523  131520      25  131529  131526      24  131532  131526      24
  131532  131529      25  131538  131535      24  131541  131535      24  131541
  131538      25  131547  131544      24  131550  131544      24  131550  131547
      25  131556  131553      24  131559  131553      24  131559  131556      25
  131565  131562      24  131568  131562      24  131568  131565      25  131574
  131571      24  131577  131571      24  131577  131574      25  131583  131580
      24  131586  131580      24  131586  131583      25  131592  131589      24
  131595  131589      24  131595  131592      25  131601  131598      24  131604
  131598      24  131604  131601      25  131610  131607      24  131613  131607
      24  131613  131610      25  131619  131616      24  131622  131616      24
  131622  131619      25  131628  131625      24  131631  131625      24  131631
  131628      25  131637  131634      24  131640  131634      24  131640  131637
      25  131646  131643      24  131649  131643      24  131649  131646      25
  131655  131652      24  131658  131652      24  131658  131655      25  131664
  131661      24  131667  131661      24  131667  131664      25  131673  131670
      24  131676  131670      24  131676  131673      25  131682  131679      24
  131685  131679      24  131685  131682      25  131691  131688      24  131694
  131688      24  131694  131691      25  131700  131697      24  131703  131697
      24  131703  131700      25  131709  131706      24  131712  131706      24
  131712  131709      25  131718  131715      24  131721  131715      24  131721
  131718      25  131727  131724      24  131730  131724      24  131730  131727
      25  131736  131733      24  131739  131733      24  131739  131736      25
  131745  131742      24  131748  131742      24  131748  131745      25  131754
  131751      24  131757  131751      24  131757  131754      25  131763  131760
      24  131766  131760      24  131766  131763      25  131772  131769      24
  131775  131769      24  131775  131772      25  131781  131778      24  131784
  131778      24  131784  131781      25  131790  131787      24  131793  131787
      24  131793  131790      25  131799  131796      24  131802  131796      24
  131802  131799      25  131808  131805      24  131811  131805      24  131811
  131808      25  131817  131814      24  131820  131814      24  131820  131817
      25  131826  131823      24  131829  131823      24  131829  131826      25
  131835  131832      24  131838  131832      24  131838  131835      25  131844
  131841      24  131847  131841      24  131847  131844      25  131853  131850
      24  131856  131850      24  131856  131853      25  131862  131859      24
  131865  131859      24  131865  131862      25  131871  131868      24  131874
  131868      24  131874  131871      25  131880  131877      24  131883  131877
      24  131883  131880      25  131889  131886      24  131892  131886      24
  131892  131889      25  131898  131895      24  131901  131895      24  131901
  131898      25  131907  131904      24  131910  131904      24  131910  131907
      25  131916  131913      24  131919  131913      24  131919  131916      25
  131925  131922      24  131928  131922      24  131928  131925      25  131934
  131931      24  131937  131931      24  131937  131934      25  131943  131940
      24  131946  131940      24  131946  131943      25  131952  131949      24
  131955  131949      24  131955  131952      25  131961  131958      24  131964
  131958      24  131964  131961      25  131970  131967      24  131973  131967
      24  131973  131970      25  131979  131976      24  131982  131976      24
  131982  131979      25  131988  131985      24  131991  131985      24  131991
  131988      25  131997  131994      24  132000  131994      24  132000  131997
      25  132006  132003      24  132009  132003      24  132009  132006      25
  132015  132012      24  132018  132012      24  132018  132015      25  132024
  132021      24  132027  132021      24  132027  132024      25  132033  132030
      24  132036  132030      24  132036  132033      25  132042  132039      24
  132045  132039      24  132045  132042      25  132051  132048      24  132054
  132048      24  132054  132051      25  132060  132057      24  132063  132057
      24  132063  132060      25  132069  132066      24  132072  132066      24
  132072  132069      25  132078  132075      24  132081  132075      24  132081
  132078      25  132087  132084      24  132090  132084      24  132090  132087
      25  132096  132093      24  132099  132093      24  132099  132096      25
  132105  132102      24  132108  132102      24  132108  132105      25  132114
  132111      24  132117  132111      24  132117  132114      25  132123  132120
      24  132126  132120      24  132126  132123      25  132132  132129      24
  132135  132129      24  132135  132132      25  132141  132138      24  132144
  132138      24  132144  132141      25  132150  132147      24  132153  132147
      24  132153  132150      25  132159  132156      24  132162  132156      24
  132162  132159      25  132168  132165      24  132171  132165      24  132171
  132168      25  132177  132174      24  132180  132174      24  132180  132177
      25  132186  132183      24  132189  132183      24  132189  132186      25
  132195  132192      24  132198  132192      24  132198  132195      25  132204
  132201      24  132207  132201      24  132207  132204      25  132213  132210
      24  132216  132210      24  132216  132213      25  132222  132219      24
  132225  132219      24  132225  132222      25  132231  132228      24  132234
  132228      24  132234  132231      25  132240  132237      24  132243  132237
      24  132243  132240      25  132249  132246      24  132252  132246      24
  132252  132249      25  132258  132255      24  132261  132255      24  132261
  132258      25  132267  132264      24  132270  132264      24  132270  132267
      25  132276  132273      24  132279  132273      24  132279  132276      25
  132285  132282      24  132288  132282      24  132288  132285      25  132294
  132291      24  132297  132291      24  132297  132294      25  132303  132300
      24  132306  132300      24  132306  132303      25  132312  132309      24
  132315  132309      24  132315  132312      25  132321  132318      24  132324
  132318      24  132324  132321      25  132330  132327      24  132333  132327
      24  132333  132330      25  132339  132336      24  132342  132336      24
  132342  132339      25  132348  132345      24  132351  132345      24  132351
  132348      25  132357  132354      24  132360  132354      24  132360  132357
      25  132366  132363      24  132369  132363      24  132369  132366      25
  132375  132372      24  132378  132372      24  132378  132375      25  132384
  132381      24  132387  132381      24  132387  132384      25  132393  132390
      24  132396  132390      24  132396  132393      25  132402  132399      24
  132405  132399      24  132405  132402      25  132411  132408      24  132414
  132408      24  132414  132411      25  132420  132417      24  132423  132417
      24  132423  132420      25  132429  132426      24  132432  132426      24
  132432  132429      25  132438  132435      24  132441  132435      24  132441
  132438      25  132447  132444      24  132450  132444      24  132450  132447
      25  132456  132453      24  132459  132453      24  132459  132456      25
  132465  132462      24  132468  132462      24  132468  132465      25  132474
  132471      24  132477  132471      24  132477  132474      25  132483  132480
      24  132486  132480      24  132486  132483      25  132492  132489      24
  132495  132489      24  132495  132492      25  132501  132498      24  132504
  132498      24  132504  132501      25  132510  132507      24  132513  132507
      24  132513  132510      25  132519  132516      24  132522  132516      24
  132522  132519      25  132528  132525      24  132531  132525      24  132531
  132528      25  132537  132534      24  132540  132534      24  132540  132537
      25  132546  132543      24  132549  132543      24  132549  132546      25
  132555  132552      24  132558  132552      24  132558  132555      25  132564
  132561      24  132567  132561      24  132567  132564      25  132573  132570
      24  132576  132570      24  132576  132573      25  132582  132579      24
  132585  132579      24  132585  132582      25  132591  132588      24  132594
  132588      24  132594  132591      25  132600  132597      24  132603  132597
      24  132603  132600      25  132609  132606      24  132612  132606      24
  132612  132609      25  132618  132615      24  132621  132615      24  132621
  132618      25  132627  132624      24  132630  132624      24  132630  132627
      25  132636  132633      24  132639  132633      24  132639  132636      25
  132645  132642      24  132648  132642      24  132648  132645      25  132654
  132651      24  132657  132651      24  132657  132654      25  132663  132660
      24  132666  132660      24  132666  132663      25  132672  132669      24
  132675  132669      24  132675  132672      25  132681  132678      24  132684
  132678      24  132684  132681      25  132690  132687      24  132693  132687
      24  132693  132690      25  132699  132696      24  132702  132696      24
  132702  132699      25  132708  132705      24  132711  132705      24  132711
  132708      25  132717  132714      24  132720  132714      24  132720  132717
      25  132726  132723      24  132729  132723      24  132729  132726      25
  132735  132732      24  132738  132732      24  132738  132735      25  132744
  132741      24  132747  132741      24  132747  132744      25  132753  132750
      24  132756  132750      24  132756  132753      25  132762  132759      24
  132765  132759      24  132765  132762      25  132771  132768      24  132774
  132768      24  132774  132771      25  132780  132777      24  132783  132777
      24  132783  132780      25  132789  132786      24  132792  132786      24
  132792  132789      25  132798  132795      24  132801  132795      24  132801
  132798      25  132807  132804      24  132810  132804      24  132810  132807
      25  132816  132813      24  132819  132813      24  132819  132816      25
  132825  132822      24  132828  132822      24  132828  132825      25  132834
  132831      24  132837  132831      24  132837  132834      25  132843  132840
      24  132846  132840      24  132846  132843      25  132852  132849      24
  132855  132849      24  132855  132852      25  132861  132858      24  132864
  132858      24  132864  132861      25  132870  132867      24  132873  132867
      24  132873  132870      25  132879  132876      24  132882  132876      24
  132882  132879      25  132888  132885      24  132891  132885      24  132891
  132888      25  132897  132894      24  132900  132894      24  132900  132897
      25  132906  132903      24  132909  132903      24  132909  132906      25
  132915  132912      24  132918  132912      24  132918  132915      25  132924
  132921      24  132927  132921      24  132927  132924      25  132933  132930
      24  132936  132930      24  132936  132933      25  132942  132939      24
  132945  132939      24  132945  132942      25  132951  132948      24  132954
  132948      24  132954  132951      25  132960  132957      24  132963  132957
      24  132963  132960      25  132969  132966      24  132972  132966      24
  132972  132969      25  132978  132975      24  132981  132975      24  132981
  132978      25  132987  132984      24  132990  132984      24  132990  132987
      25  132996  132993      24  132999  132993      24  132999  132996      25
  133005  133002      24  133008  133002      24  133008  133005      25  133014
  133011      24  133017  133011      24  133017  133014      25  133023  133020
      24  133026  133020      24  133026  133023      25  133032  133029      24
  133035  133029      24  133035  133032      25  133041  133038      24  133044
  133038      24  133044  133041      25  133050  133047      24  133053  133047
      24  133053  133050      25  133059  133056      24  133062  133056      24
  133062  133059      25  133068  133065      24  133071  133065      24  133071
  133068      25  133077  133074      24  133080  133074      24  133080  133077
      25  133086  133083      24  133089  133083      24  133089  133086      25
  133095  133092      24  133098  133092      24  133098  133095      25  133104
  133101      24  133107  133101      24  133107  133104      25  133113  133110
      24  133116  133110      24  133116  133113      25  133122  133119      24
  133125  133119      24  133125  133122      25  133131  133128      24  133134
  133128      24  133134  133131      25  133140  133137      24  133143  133137
      24  133143  133140      25  133149  133146      24  133152  133146      24
  133152  133149      25  133158  133155      24  133161  133155      24  133161
  133158      25  133167  133164      24  133170  133164      24  133170  133167
      25  133176  133173      24  133179  133173      24  133179  133176      25
  133185  133182      24  133188  133182      24  133188  133185      25  133194
  133191      24  133197  133191      24  133197  133194      25  133203  133200
      24  133206  133200      24  133206  133203      25  133212  133209      24
  133215  133209      24  133215  133212      25  133221  133218      24  133224
  133218      24  133224  133221      25  133230  133227      24  133233  133227
      24  133233  133230      25  133239  133236      24  133242  133236      24
  133242  133239      25  133248  133245      24  133251  133245      24  133251
  133248      25  133257  133254      24  133260  133254      24  133260  133257
      25  133266  133263      24  133269  133263      24  133269  133266      25
  133275  133272      24  133278  133272      24  133278  133275      25  133284
  133281      24  133287  133281      24  133287  133284      25  133293  133290
      24  133296  133290      24  133296  133293      25  133302  133299      24
  133305  133299      24  133305  133302      25  133311  133308      24  133314
  133308      24  133314  133311      25  133320  133317      24  133323  133317
      24  133323  133320      25  133329  133326      24  133332  133326      24
  133332  133329      25  133338  133335      24  133341  133335      24  133341
  133338      25  133347  133344      24  133350  133344      24  133350  133347
      25  133356  133353      24  133359  133353      24  133359  133356      25
  133365  133362      24  133368  133362      24  133368  133365      25  133374
  133371      24  133377  133371      24  133377  133374      25  133383  133380
      24  133386  133380      24  133386  133383      25  133392  133389      24
  133395  133389      24  133395  133392      25  133401  133398      24  133404
  133398      24  133404  133401      25  133410  133407      24  133413  133407
      24  133413  133410      25  133419  133416      24  133422  133416      24
  133422  133419      25  133428  133425      24  133431  133425      24  133431
  133428      25  133437  133434      24  133440  133434      24  133440  133437
      25  133446  133443      24  133449  133443      24  133449  133446      25
  133455  133452      24  133458  133452      24  133458  133455      25  133464
  133461      24  133467  133461      24  133467  133464      25  133473  133470
      24  133476  133470      24  133476  133473      25  133482  133479      24
  133485  133479      24  133485  133482      25  133491  133488      24  133494
  133488      24  133494  133491      25  133500  133497      24  133503  133497
      24  133503  133500      25  133509  133506      24  133512  133506      24
  133512  133509      25  133518  133515      24  133521  133515      24  133521
  133518      25  133527  133524      24  133530  133524      24  133530  133527
      25  133536  133533      24  133539  133533      24  133539  133536      25
  133545  133542      24  133548  133542      24  133548  133545      25  133554
  133551      24  133557  133551      24  133557  133554      25  133563  133560
      24  133566  133560      24  133566  133563      25  133572  133569      24
  133575  133569      24  133575  133572      25  133581  133578      24  133584
  133578      24  133584  133581      25  133590  133587      24  133593  133587
      24  133593  133590      25  133599  133596      24  133602  133596      24
  133602  133599      25  133608  133605      24  133611  133605      24  133611
  133608      25  133617  133614      24  133620  133614      24  133620  133617
      25  133626  133623      24  133629  133623      24  133629  133626      25
  133635  133632      24  133638  133632      24  133638  133635      25  133644
  133641      24  133647  133641      24  133647  133644      25  133653  133650
      24  133656  133650      24  133656  133653      25  133662  133659      24
  133665  133659      24  133665  133662      25  133671  133668      24  133674
  133668      24  133674  133671      25  133680  133677      24  133683  133677
      24  133683  133680      25  133689  133686      24  133692  133686      24
  133692  133689      25  133698  133695      24  133701  133695      24  133701
  133698      25  133707  133704      24  133710  133704      24  133710  133707
      25  133716  133713      24  133719  133713      24  133719  133716      25
  133725  133722      24  133728  133722      24  133728  133725      25  133734
  133731      24  133737  133731      24  133737  133734      25  133743  133740
      24  133746  133740      24  133746  133743      25  133752  133749      24
  133755  133749      24  133755  133752      25  133761  133758      24  133764
  133758      24  133764  133761      25  133770  133767      24  133773  133767
      24  133773  133770      25  133779  133776      24  133782  133776      24
  133782  133779      25  133788  133785      24  133791  133785      24  133791
  133788      25  133797  133794      24  133800  133794      24  133800  133797
      25  133806  133803      24  133809  133803      24  133809  133806      25
  133815  133812      24  133818  133812      24  133818  133815      25  133824
  133821      24  133827  133821      24  133827  133824      25  133833  133830
      24  133836  133830      24  133836  133833      25  133842  133839      24
  133845  133839      24  133845  133842      25  133851  133848      24  133854
  133848      24  133854  133851      25  133860  133857      24  133863  133857
      24  133863  133860      25  133869  133866      24  133872  133866      24
  133872  133869      25  133878  133875      24  133881  133875      24  133881
  133878      25  133887  133884      24  133890  133884      24  133890  133887
      25  133896  133893      24  133899  133893      24  133899  133896      25
  133905  133902      24  133908  133902      24  133908  133905      25  133914
  133911      24  133917  133911      24  133917  133914      25  133923  133920
      24  133926  133920      24  133926  133923      25  133932  133929      24
  133935  133929      24  133935  133932      25  133941  133938      24  133944
  133938      24  133944  133941      25  133950  133947      24  133953  133947
      24  133953  133950      25  133959  133956      24  133962  133956      24
  133962  133959      25  133968  133965      24  133971  133965      24  133971
  133968      25  133977  133974      24  133980  133974      24  133980  133977
      25  133986  133983      24  133989  133983      24  133989  133986      25
  133995  133992      24  133998  133992      24  133998  133995      25  134004
  134001      24  134007  134001      24  134007  134004      25  134013  134010
      24  134016  134010      24  134016  134013      25  134022  134019      24
  134025  134019      24  134025  134022      25  134031  134028      24  134034
  134028      24  134034  134031      25  134040  134037      24  134043  134037
      24  134043  134040      25  134049  134046      24  134052  134046      24
  134052  134049      25  134058  134055      24  134061  134055      24  134061
  134058      25  134067  134064      24  134070  134064      24  134070  134067
      25  134076  134073      24  134079  134073      24  134079  134076      25
  134085  134082      24  134088  134082      24  134088  134085      25  134094
  134091      24  134097  134091      24  134097  134094      25  134103  134100
      24  134106  134100      24  134106  134103      25  134112  134109      24
  134115  134109      24  134115  134112      25  134121  134118      24  134124
  134118      24  134124  134121      25  134130  134127      24  134133  134127
      24  134133  134130      25  134139  134136      24  134142  134136      24
  134142  134139      25  134148  134145      24  134151  134145      24  134151
  134148      25  134157  134154      24  134160  134154      24  134160  134157
      25  134166  134163      24  134169  134163      24  134169  134166      25
  134175  134172      24  134178  134172      24  134178  134175      25  134184
  134181      24  134187  134181      24  134187  134184      25  134193  134190
      24  134196  134190      24  134196  134193      25  134202  134199      24
  134205  134199      24  134205  134202      25  134211  134208      24  134214
  134208      24  134214  134211      25  134220  134217      24  134223  134217
      24  134223  134220      25  134229  134226      24  134232  134226      24
  134232  134229      25  134238  134235      24  134241  134235      24  134241
  134238      25  134247  134244      24  134250  134244      24  134250  134247
      25  134256  134253      24  134259  134253      24  134259  134256      25
  134265  134262      24  134268  134262      24  134268  134265      25  134274
  134271      24  134277  134271      24  134277  134274      25  134283  134280
      24  134286  134280      24  134286  134283      25  134292  134289      24
  134295  134289      24  134295  134292      25  134301  134298      24  134304
  134298      24  134304  134301      25  134310  134307      24  134313  134307
      24  134313  134310      25  134319  134316      24  134322  134316      24
  134322  134319      25  134328  134325      24  134331  134325      24  134331
  134328      25  134337  134334      24  134340  134334      24  134340  134337
      25  134346  134343      24  134349  134343      24  134349  134346      25
  134355  134352      24  134358  134352      24  134358  134355      25  134364
  134361      24  134367  134361      24  134367  134364      25  134373  134370
      24  134376  134370      24  134376  134373      25  134382  134379      24
  134385  134379      24  134385  134382      25  134391  134388      24  134394
  134388      24  134394  134391      25  134400  134397      24  134403  134397
      24  134403  134400      25  134409  134406      24  134412  134406      24
  134412  134409      25  134418  134415      24  134421  134415      24  134421
  134418      25  134427  134424      24  134430  134424      24  134430  134427
      25  134436  134433      24  134439  134433      24  134439  134436      25
  134445  134442      24  134448  134442      24  134448  134445      25  134454
  134451      24  134457  134451      24  134457  134454      25  134463  134460
      24  134466  134460      24  134466  134463      25  134472  134469      24
  134475  134469      24  134475  134472      25  134481  134478      24  134484
  134478      24  134484  134481      25  134490  134487      24  134493  134487
      24  134493  134490      25  134499  134496      24  134502  134496      24
  134502  134499      25  134508  134505      24  134511  134505      24  134511
  134508      25  134517  134514      24  134520  134514      24  134520  134517
      25  134526  134523      24  134529  134523      24  134529  134526      25
  134535  134532      24  134538  134532      24  134538  134535      25  134544
  134541      24  134547  134541      24  134547  134544      25  134553  134550
      24  134556  134550      24  134556  134553      25  134562  134559      24
  134565  134559      24  134565  134562      25  134571  134568      24  134574
  134568      24  134574  134571      25  134580  134577      24  134583  134577
      24  134583  134580      25  134589  134586      24  134592  134586      24
  134592  134589      25  134598  134595      24  134601  134595      24  134601
  134598      25  134607  134604      24  134610  134604      24  134610  134607
      25  134616  134613      24  134619  134613      24  134619  134616      25
  134625  134622      24  134628  134622      24  134628  134625      25  134634
  134631      24  134637  134631      24  134637  134634      25  134643  134640
      24  134646  134640      24  134646  134643      25  134652  134649      24
  134655  134649      24  134655  134652      25  134661  134658      24  134664
  134658      24  134664  134661      25  134670  134667      24  134673  134667
      24  134673  134670      25  134679  134676      24  134682  134676      24
  134682  134679      25  134688  134685      24  134691  134685      24  134691
  134688      25  134697  134694      24  134700  134694      24  134700  134697
      25  134706  134703      24  134709  134703      24  134709  134706      25
  134715  134712      24  134718  134712      24  134718  134715      25  134724
  134721      24  134727  134721      24  134727  134724      25  134733  134730
      24  134736  134730      24  134736  134733      25  134742  134739      24
  134745  134739      24  134745  134742      25  134751  134748      24  134754
  134748      24  134754  134751      25  134760  134757      24  134763  134757
      24  134763  134760      25  134769  134766      24  134772  134766      24
  134772  134769      25  134778  134775      24  134781  134775      24  134781
  134778      25  134787  134784      24  134790  134784      24  134790  134787
      25  134796  134793      24  134799  134793      24  134799  134796      25
  134805  134802      24  134808  134802      24  134808  134805      25  134814
  134811      24  134817  134811      24  134817  134814      25  134823  134820
      24  134826  134820      24  134826  134823      25  134832  134829      24
  134835  134829      24  134835  134832      25  134841  134838      24  134844
  134838      24  134844  134841      25  134850  134847      24  134853  134847
      24  134853  134850      25  134859  134856      24  134862  134856      24
  134862  134859      25  134868  134865      24  134871  134865      24  134871
  134868      25  134877  134874      24  134880  134874      24  134880  134877
      25  134886  134883      24  134889  134883      24  134889  134886      25
  134895  134892      24  134898  134892      24  134898  134895      25  134904
  134901      24  134907  134901      24  134907  134904      25  134913  134910
      24  134916  134910      24  134916  134913      25  134922  134919      24
  134925  134919      24  134925  134922      25  134931  134928      24  134934
  134928      24  134934  134931      25  134940  134937      24  134943  134937
      24  134943  134940      25  134949  134946      24  134952  134946      24
  134952  134949      25  134958  134955      24  134961  134955      24  134961
  134958      25  134967  134964      24  134970  134964      24  134970  134967
      25  134976  134973      24  134979  134973      24  134979  134976      25
  134985  134982      24  134988  134982      24  134988  134985      25  134994
  134991      24  134997  134991      24  134997  134994      25  135003  135000
      24  135006  135000      24  135006  135003      25  135012  135009      24
  135015  135009      24  135015  135012      25  135021  135018      24  135024
  135018      24  135024  135021      25  135030  135027      24  135033  135027
      24  135033  135030      25  135039  135036      24  135042  135036      24
  135042  135039      25  135048  135045      24  135051  135045      24  135051
  135048      25  135057  135054      24  135060  135054      24  135060  135057
      25  135066  135063      24  135069  135063      24  135069  135066      25
  135075  135072      24  135078  135072      24  135078  135075      25  135084
  135081      24  135087  135081      24  135087  135084      25  135093  135090
      24  135096  135090      24  135096  135093      25  135102  135099      24
  135105  135099      24  135105  135102      25  135111  135108      24  135114
  135108      24  135114  135111      25  135120  135117      24  135123  135117
      24  135123  135120      25  135129  135126      24  135132  135126      24
  135132  135129      25  135138  135135      24  135141  135135      24  135141
  135138      25  135147  135144      24  135150  135144      24  135150  135147
      25  135156  135153      24  135159  135153      24  135159  135156      25
  135165  135162      24  135168  135162      24  135168  135165      25  135174
  135171      24  135177  135171      24  135177  135174      25  135183  135180
      24  135186  135180      24  135186  135183      25  135192  135189      24
  135195  135189      24  135195  135192      25  135201  135198      24  135204
  135198      24  135204  135201      25  135210  135207      24  135213  135207
      24  135213  135210      25  135219  135216      24  135222  135216      24
  135222  135219      25  135228  135225      24  135231  135225      24  135231
  135228      25  135237  135234      24  135240  135234      24  135240  135237
      25  135246  135243      24  135249  135243      24  135249  135246      25
  135255  135252      24  135258  135252      24  135258  135255      25  135264
  135261      24  135267  135261      24  135267  135264      25  135273  135270
      24  135276  135270      24  135276  135273      25  135282  135279      24
  135285  135279      24  135285  135282      25  135291  135288      24  135294
  135288      24  135294  135291      25  135300  135297      24  135303  135297
      24  135303  135300      25  135309  135306      24  135312  135306      24
  135312  135309      25  135318  135315      24  135321  135315      24  135321
  135318      25  135327  135324      24  135330  135324      24  135330  135327
      25  135336  135333      24  135339  135333      24  135339  135336      25
  135345  135342      24  135348  135342      24  135348  135345      25  135354
  135351      24  135357  135351      24  135357  135354      25  135363  135360
      24  135366  135360      24  135366  135363      25  135372  135369      24
  135375  135369      24  135375  135372      25  135381  135378      24  135384
  135378      24  135384  135381      25  135390  135387      24  135393  135387
      24  135393  135390      25  135399  135396      24  135402  135396      24
  135402  135399      25  135408  135405      24  135411  135405      24  135411
  135408      25  135417  135414      24  135420  135414      24  135420  135417
      25  135426  135423      24  135429  135423      24  135429  135426      25
  135435  135432      24  135438  135432      24  135438  135435      25  135444
  135441      24  135447  135441      24  135447  135444      25  135453  135450
      24  135456  135450      24  135456  135453      25  135462  135459      24
  135465  135459      24  135465  135462      25  135471  135468      24  135474
  135468      24  135474  135471      25  135480  135477      24  135483  135477
      24  135483  135480      25  135489  135486      24  135492  135486      24
  135492  135489      25  135498  135495      24  135501  135495      24  135501
  135498      25  135507  135504      24  135510  135504      24  135510  135507
      25  135516  135513      24  135519  135513      24  135519  135516      25
  135525  135522      24  135528  135522      24  135528  135525      25  135534
  135531      24  135537  135531      24  135537  135534      25  135543  135540
      24  135546  135540      24  135546  135543      25  135552  135549      24
  135555  135549      24  135555  135552      25  135561  135558      24  135564
  135558      24  135564  135561      25  135570  135567      24  135573  135567
      24  135573  135570      25  135579  135576      24  135582  135576      24
  135582  135579      25  135588  135585      24  135591  135585      24  135591
  135588      25  135597  135594      24  135600  135594      24  135600  135597
      25  135606  135603      24  135609  135603      24  135609  135606      25
  135615  135612      24  135618  135612      24  135618  135615      25  135624
  135621      24  135627  135621      24  135627  135624      25  135633  135630
      24  135636  135630      24  135636  135633      25  135642  135639      24
  135645  135639      24  135645  135642      25  135651  135648      24  135654
  135648      24  135654  135651      25  135660  135657      24  135663  135657
      24  135663  135660      25  135669  135666      24  135672  135666      24
  135672  135669      25  135678  135675      24  135681  135675      24  135681
  135678      25  135687  135684      24  135690  135684      24  135690  135687
      25  135696  135693      24  135699  135693      24  135699  135696      25
  135705  135702      24  135708  135702      24  135708  135705      25  135714
  135711      24  135717  135711      24  135717  135714      25  135723  135720
      24  135726  135720      24  135726  135723      25  135732  135729      24
  135735  135729      24  135735  135732      25  135741  135738      24  135744
  135738      24  135744  135741      25  135750  135747      24  135753  135747
      24  135753  135750      25  135759  135756      24  135762  135756      24
  135762  135759      25  135768  135765      24  135771  135765      24  135771
  135768      25  135777  135774      24  135780  135774      24  135780  135777
      25  135786  135783      24  135789  135783      24  135789  135786      25
  135795  135792      24  135798  135792      24  135798  135795      25  135804
  135801      24  135807  135801      24  135807  135804      25  135813  135810
      24  135816  135810      24  135816  135813      25  135822  135819      24
  135825  135819      24  135825  135822      25  135831  135828      24  135834
  135828      24  135834  135831      25  135840  135837      24  135843  135837
      24  135843  135840      25  135849  135846      24  135852  135846      24
  135852  135849      25  135858  135855      24  135861  135855      24  135861
  135858      25  135867  135864      24  135870  135864      24  135870  135867
      25  135876  135873      24  135879  135873      24  135879  135876      25
  135885  135882      24  135888  135882      24  135888  135885      25  135894
  135891      24  135897  135891      24  135897  135894      25  135903  135900
      24  135906  135900      24  135906  135903      25  135912  135909      24
  135915  135909      24  135915  135912      25  135921  135918      24  135924
  135918      24  135924  135921      25  135930  135927      24  135933  135927
      24  135933  135930      25  135939  135936      24  135942  135936      24
  135942  135939      25  135948  135945      24  135951  135945      24  135951
  135948      25  135957  135954      24  135960  135954      24  135960  135957
      25  135966  135963      24  135969  135963      24  135969  135966      25
  135975  135972      24  135978  135972      24  135978  135975      25  135984
  135981      24  135987  135981      24  135987  135984      25  135993  135990
      24  135996  135990      24  135996  135993      25  136002  135999      24
  136005  135999      24  136005  136002      25  136011  136008      24  136014
  136008      24  136014  136011      25  136020  136017      24  136023  136017
      24  136023  136020      25  136029  136026      24  136032  136026      24
  136032  136029      25  136038  136035      24  136041  136035      24  136041
  136038      25  136047  136044      24  136050  136044      24  136050  136047
      25  136056  136053      24  136059  136053      24  136059  136056      25
  136065  136062      24  136068  136062      24  136068  136065      25  136074
  136071      24  136077  136071      24  136077  136074      25  136083  136080
      24  136086  136080      24  136086  136083      25  136092  136089      24
  136095  136089      24  136095  136092      25  136101  136098      24  136104
  136098      24  136104  136101      25  136110  136107      24  136113  136107
      24  136113  136110      25  136119  136116      24  136122  136116      24
  136122  136119      25  136128  136125      24  136131  136125      24  136131
  136128      25  136137  136134      24  136140  136134      24  136140  136137
      25  136146  136143      24  136149  136143      24  136149  136146      25
  136155  136152      24  136158  136152      24  136158  136155      25  136164
  136161      24  136167  136161      24  136167  136164      25  136173  136170
      24  136176  136170      24  136176  136173      25  136182  136179      24
  136185  136179      24  136185  136182      25  136191  136188      24  136194
  136188      24  136194  136191      25  136200  136197      24  136203  136197
      24  136203  136200      25  136209  136206      24  136212  136206      24
  136212  136209      25  136218  136215      24  136221  136215      24  136221
  136218      25  136227  136224      24  136230  136224      24  136230  136227
      25  136236  136233      24  136239  136233      24  136239  136236      25
  136245  136242      24  136248  136242      24  136248  136245      25  136254
  136251      24  136257  136251      24  136257  136254      25  136263  136260
      24  136266  136260      24  136266  136263      25  136272  136269      24
  136275  136269      24  136275  136272      25  136281  136278      24  136284
  136278      24  136284  136281      25  136290  136287      24  136293  136287
      24  136293  136290      25  136299  136296      24  136302  136296      24
  136302  136299      25  136308  136305      24  136311  136305      24  136311
  136308      25  136317  136314      24  136320  136314      24  136320  136317
      25  136326  136323      24  136329  136323      24  136329  136326      25
  136335  136332      24  136338  136332      24  136338  136335      25  136344
  136341      24  136347  136341      24  136347  136344      25  136353  136350
      24  136356  136350      24  136356  136353      25  136362  136359      24
  136365  136359      24  136365  136362      25  136371  136368      24  136374
  136368      24  136374  136371      25  136380  136377      24  136383  136377
      24  136383  136380      25  136389  136386      24  136392  136386      24
  136392  136389      25  136398  136395      24  136401  136395      24  136401
  136398      25  136407  136404      24  136410  136404      24  136410  136407
      25  136416  136413      24  136419  136413      24  136419  136416      25
  136425  136422      24  136428  136422      24  136428  136425      25  136434
  136431      24  136437  136431      24  136437  136434      25  136443  136440
      24  136446  136440      24  136446  136443      25  136452  136449      24
  136455  136449      24  136455  136452      25  136461  136458      24  136464
  136458      24  136464  136461      25  136470  136467      24  136473  136467
      24  136473  136470      25  136479  136476      24  136482  136476      24
  136482  136479      25  136488  136485      24  136491  136485      24  136491
  136488      25  136497  136494      24  136500  136494      24  136500  136497
      25  136506  136503      24  136509  136503      24  136509  136506      25
  136515  136512      24  136518  136512      24  136518  136515      25  136524
  136521      24  136527  136521      24  136527  136524      25  136533  136530
      24  136536  136530      24  136536  136533      25  136542  136539      24
  136545  136539      24  136545  136542      25  136551  136548      24  136554
  136548      24  136554  136551      25  136560  136557      24  136563  136557
      24  136563  136560      25  136569  136566      24  136572  136566      24
  136572  136569      25  136578  136575      24  136581  136575      24  136581
  136578      25  136587  136584      24  136590  136584      24  136590  136587
      25  136596  136593      24  136599  136593      24  136599  136596      25
  136605  136602      24  136608  136602      24  136608  136605      25  136614
  136611      24  136617  136611      24  136617  136614      25  136623  136620
      24  136626  136620      24  136626  136623      25  136632  136629      24
  136635  136629      24  136635  136632      25  136641  136638      24  136644
  136638      24  136644  136641      25  136650  136647      24  136653  136647
      24  136653  136650      25  136659  136656      24  136662  136656      24
  136662  136659      25  136668  136665      24  136671  136665      24  136671
  136668      25  136677  136674      24  136680  136674      24  136680  136677
      25  136686  136683      24  136689  136683      24  136689  136686      25
  136695  136692      24  136698  136692      24  136698  136695      25  136704
  136701      24  136707  136701      24  136707  136704      25  136713  136710
      24  136716  136710      24  136716  136713      25  136722  136719      24
  136725  136719      24  136725  136722      25  136731  136728      24  136734
  136728      24  136734  136731      25  136740  136737      24  136743  136737
      24  136743  136740      25  136749  136746      24  136752  136746      24
  136752  136749      25  136758  136755      24  136761  136755      24  136761
  136758      25  136767  136764      24  136770  136764      24  136770  136767
      25  136776  136773      24  136779  136773      24  136779  136776      25
  136785  136782      24  136788  136782      24  136788  136785      25  136794
  136791      24  136797  136791      24  136797  136794      25  136803  136800
      24  136806  136800      24  136806  136803      25  136812  136809      24
  136815  136809      24  136815  136812      25  136821  136818      24  136824
  136818      24  136824  136821      25  136830  136827      24  136833  136827
      24  136833  136830      25  136839  136836      24  136842  136836      24
  136842  136839      25  136848  136845      24  136851  136845      24  136851
  136848      25  136857  136854      24  136860  136854      24  136860  136857
      25  136866  136863      24  136869  136863      24  136869  136866      25
  136875  136872      24  136878  136872      24  136878  136875      25  136884
  136881      24  136887  136881      24  136887  136884      25  136893  136890
      24  136896  136890      24  136896  136893      25  136902  136899      24
  136905  136899      24  136905  136902      25  136911  136908      24  136914
  136908      24  136914  136911      25  136920  136917      24  136923  136917
      24  136923  136920      25  136929  136926      24  136932  136926      24
  136932  136929      25  136938  136935      24  136941  136935      24  136941
  136938      25  136947  136944      24  136950  136944      24  136950  136947
      25  136956  136953      24  136959  136953      24  136959  136956      25
  136965  136962      24  136968  136962      24  136968  136965      25  136974
  136971      24  136977  136971      24  136977  136974      25  136983  136980
      24  136986  136980      24  136986  136983      25  136992  136989      24
  136995  136989      24  136995  136992      25  137001  136998      24  137004
  136998      24  137004  137001      25  137010  137007      24  137013  137007
      24  137013  137010      25  137019  137016      24  137022  137016      24
  137022  137019      25  137028  137025      24  137031  137025      24  137031
  137028      25  137037  137034      24  137040  137034      24  137040  137037
      25  137046  137043      24  137049  137043      24  137049  137046      25
  137055  137052      24  137058  137052      24  137058  137055      25  137064
  137061      24  137067  137061      24  137067  137064      25  137073  137070
      24  137076  137070      24  137076  137073      25  137082  137079      24
  137085  137079      24  137085  137082      25  137091  137088      24  137094
  137088      24  137094  137091      25  137100  137097      24  137103  137097
      24  137103  137100      25  137109  137106      24  137112  137106      24
  137112  137109      25  137118  137115      24  137121  137115      24  137121
  137118      25  137127  137124      24  137130  137124      24  137130  137127
      25  137136  137133      24  137139  137133      24  137139  137136      25
  137145  137142      24  137148  137142      24  137148  137145      25  137154
  137151      24  137157  137151      24  137157  137154      25  137163  137160
      24  137166  137160      24  137166  137163      25  137172  137169      24
  137175  137169      24  137175  137172      25  137181  137178      24  137184
  137178      24  137184  137181      25  137190  137187      24  137193  137187
      24  137193  137190      25  137199  137196      24  137202  137196      24
  137202  137199      25  137208  137205      24  137211  137205      24  137211
  137208      25  137217  137214      24  137220  137214      24  137220  137217
      25  137226  137223      24  137229  137223      24  137229  137226      25
  137235  137232      24  137238  137232      24  137238  137235      25  137244
  137241      24  137247  137241      24  137247  137244      25  137253  137250
      24  137256  137250      24  137256  137253      25  137262  137259      24
  137265  137259      24  137265  137262      25  137271  137268      24  137274
  137268      24  137274  137271      25  137280  137277      24  137283  137277
      24  137283  137280      25  137289  137286      24  137292  137286      24
  137292  137289      25  137298  137295      24  137301  137295      24  137301
  137298      25  137307  137304      24  137310  137304      24  137310  137307
      25  137316  137313      24  137319  137313      24  137319  137316      25
  137325  137322      24  137328  137322      24  137328  137325      25  137334
  137331      24  137337  137331      24  137337  137334      25  137343  137340
      24  137346  137340      24  137346  137343      25  137352  137349      24
  137355  137349      24  137355  137352      25  137361  137358      24  137364
  137358      24  137364  137361      25  137370  137367      24  137373  137367
      24  137373  137370      25  137379  137376      24  137382  137376      24
  137382  137379      25  137388  137385      24  137391  137385      24  137391
  137388      25  137397  137394      24  137400  137394      24  137400  137397
      25  137406  137403      24  137409  137403      24  137409  137406      25
  137415  137412      24  137418  137412      24  137418  137415      25  137424
  137421      24  137427  137421      24  137427  137424      25  137433  137430
      24  137436  137430      24  137436  137433      25  137442  137439      24
  137445  137439      24  137445  137442      25  137451  137448      24  137454
  137448      24  137454  137451      25  137460  137457      24  137463  137457
      24  137463  137460      25  137469  137466      24  137472  137466      24
  137472  137469      25  137478  137475      24  137481  137475      24  137481
  137478      25  137487  137484      24  137490  137484      24  137490  137487
      25  137496  137493      24  137499  137493      24  137499  137496      25
  137505  137502      24  137508  137502      24  137508  137505      25  137514
  137511      24  137517  137511      24  137517  137514      25  137523  137520
      24  137526  137520      24  137526  137523      25  137532  137529      24
  137535  137529      24  137535  137532      25  137541  137538      24  137544
  137538      24  137544  137541      25  137550  137547      24  137553  137547
      24  137553  137550      25  137559  137556      24  137562  137556      24
  137562  137559      25  137568  137565      24  137571  137565      24  137571
  137568      25  137577  137574      24  137580  137574      24  137580  137577
      25  137586  137583      24  137589  137583      24  137589  137586      25
  137595  137592      24  137598  137592      24  137598  137595      25  137604
  137601      24  137607  137601      24  137607  137604      25  137613  137610
      24  137616  137610      24  137616  137613      25  137622  137619      24
  137625  137619      24  137625  137622      25  137631  137628      24  137634
  137628      24  137634  137631      25  137640  137637      24  137643  137637
      24  137643  137640      25  137649  137646      24  137652  137646      24
  137652  137649      25  137658  137655      24  137661  137655      24  137661
  137658      25  137667  137664      24  137670  137664      24  137670  137667
      25  137676  137673      24  137679  137673      24  137679  137676      25
  137685  137682      24  137688  137682      24  137688  137685      25  137694
  137691      24  137697  137691      24  137697  137694      25  137703  137700
      24  137706  137700      24  137706  137703      25  137712  137709      24
  137715  137709      24  137715  137712      25  137721  137718      24  137724
  137718      24  137724  137721      25  137730  137727      24  137733  137727
      24  137733  137730      25  137739  137736      24  137742  137736      24
  137742  137739      25  137748  137745      24  137751  137745      24  137751
  137748      25  137757  137754      24  137760  137754      24  137760  137757
      25  137766  137763      24  137769  137763      24  137769  137766      25
  137775  137772      24  137778  137772      24  137778  137775      25  137784
  137781      24  137787  137781      24  137787  137784      25  137793  137790
      24  137796  137790      24  137796  137793      25  137802  137799      24
  137805  137799      24  137805  137802      25  137811  137808      24  137814
  137808      24  137814  137811      25  137820  137817      24  137823  137817
      24  137823  137820      25  137829  137826      24  137832  137826      24
  137832  137829      25  137838  137835      24  137841  137835      24  137841
  137838      25  137847  137844      24  137850  137844      24  137850  137847
      25  137856  137853      24  137859  137853      24  137859  137856      25
  137865  137862      24  137868  137862      24  137868  137865      25  137874
  137871      24  137877  137871      24  137877  137874      25  137883  137880
      24  137886  137880      24  137886  137883      25  137892  137889      24
  137895  137889      24  137895  137892      25  137901  137898      24  137904
  137898      24  137904  137901      25  137910  137907      24  137913  137907
      24  137913  137910      25  137919  137916      24  137922  137916      24
  137922  137919      25  137928  137925      24  137931  137925      24  137931
  137928      25  137937  137934      24  137940  137934      24  137940  137937
      25  137946  137943      24  137949  137943      24  137949  137946      25
  137955  137952      24  137958  137952      24  137958  137955      25  137964
  137961      24  137967  137961      24  137967  137964      25  137973  137970
      24  137976  137970      24  137976  137973      25  137982  137979      24
  137985  137979      24  137985  137982      25  137991  137988      24  137994
  137988      24  137994  137991      25  138000  137997      24  138003  137997
      24  138003  138000      25  138009  138006      24  138012  138006      24
  138012  138009      25  138018  138015      24  138021  138015      24  138021
  138018      25  138027  138024      24  138030  138024      24  138030  138027
      25  138036  138033      24  138039  138033      24  138039  138036      25
  138045  138042      24  138048  138042      24  138048  138045      25  138054
  138051      24  138057  138051      24  138057  138054      25  138063  138060
      24  138066  138060      24  138066  138063      25  138072  138069      24
  138075  138069      24  138075  138072      25  138081  138078      24  138084
  138078      24  138084  138081      25  138090  138087      24  138093  138087
      24  138093  138090      25  138099  138096      24  138102  138096      24
  138102  138099      25  138108  138105      24  138111  138105      24  138111
  138108      25  138117  138114      24  138120  138114      24  138120  138117
      25  138126  138123      24  138129  138123      24  138129  138126      25
  138135  138132      24  138138  138132      24  138138  138135      25  138144
  138141      24  138147  138141      24  138147  138144      25  138153  138150
      24  138156  138150      24  138156  138153      25  138162  138159      24
  138165  138159      24  138165  138162      25  138171  138168      24  138174
  138168      24  138174  138171      25  138180  138177      24  138183  138177
      24  138183  138180      25  138189  138186      24  138192  138186      24
  138192  138189      25  138198  138195      24  138201  138195      24  138201
  138198      25  138207  138204      24  138210  138204      24  138210  138207
      25  138216  138213      24  138219  138213      24  138219  138216      25
  138225  138222      24  138228  138222      24  138228  138225      25  138234
  138231      24  138237  138231      24  138237  138234      25  138243  138240
      24  138246  138240      24  138246  138243      25  138252  138249      24
  138255  138249      24  138255  138252      25  138261  138258      24  138264
  138258      24  138264  138261      25  138270  138267      24  138273  138267
      24  138273  138270      25  138279  138276      24  138282  138276      24
  138282  138279      25  138288  138285      24  138291  138285      24  138291
  138288      25  138297  138294      24  138300  138294      24  138300  138297
      25  138306  138303      24  138309  138303      24  138309  138306      25
  138315  138312      24  138318  138312      24  138318  138315      25  138324
  138321      24  138327  138321      24  138327  138324      25  138333  138330
      24  138336  138330      24  138336  138333      25  138342  138339      24
  138345  138339      24  138345  138342      25  138351  138348      24  138354
  138348      24  138354  138351      25  138360  138357      24  138363  138357
      24  138363  138360      25  138369  138366      24  138372  138366      24
  138372  138369      25  138378  138375      24  138381  138375      24  138381
  138378      25  138387  138384      24  138390  138384      24  138390  138387
      25  138396  138393      24  138399  138393      24  138399  138396      25
  138405  138402      24  138408  138402      24  138408  138405      25  138414
  138411      24  138417  138411      24  138417  138414      25  138423  138420
      24  138426  138420      24  138426  138423      25  138432  138429      24
  138435  138429      24  138435  138432      25  138441  138438      24  138444
  138438      24  138444  138441      25  138450  138447      24  138453  138447
      24  138453  138450      25  138459  138456      24  138462  138456      24
  138462  138459      25  138468  138465      24  138471  138465      24  138471
  138468      25  138477  138474      24  138480  138474      24  138480  138477
      25  138486  138483      24  138489  138483      24  138489  138486      25
  138495  138492      24  138498  138492      24  138498  138495      25  138504
  138501      24  138507  138501      24  138507  138504      25  138513  138510
      24  138516  138510      24  138516  138513      25  138522  138519      24
  138525  138519      24  138525  138522      25  138531  138528      24  138534
  138528      24  138534  138531      25  138540  138537      24  138543  138537
      24  138543  138540      25  138549  138546      24  138552  138546      24
  138552  138549      25  138558  138555      24  138561  138555      24  138561
  138558      25  138567  138564      24  138570  138564      24  138570  138567
      25  138576  138573      24  138579  138573      24  138579  138576      25
  138585  138582      24  138588  138582      24  138588  138585      25  138594
  138591      24  138597  138591      24  138597  138594      25  138603  138600
      24  138606  138600      24  138606  138603      25  138612  138609      24
  138615  138609      24  138615  138612      25  138621  138618      24  138624
  138618      24  138624  138621      25  138630  138627      24  138633  138627
      24  138633  138630      25  138639  138636      24  138642  138636      24
  138642  138639      25  138648  138645      24  138651  138645      24  138651
  138648      25  138657  138654      24  138660  138654      24  138660  138657
      25  138666  138663      24  138669  138663      24  138669  138666      25
  138675  138672      24  138678  138672      24  138678  138675      25  138684
  138681      24  138687  138681      24  138687  138684      25  138693  138690
      24  138696  138690      24  138696  138693      25  138702  138699      24
  138705  138699      24  138705  138702      25  138711  138708      24  138714
  138708      24  138714  138711      25  138720  138717      24  138723  138717
      24  138723  138720      25  138729  138726      24  138732  138726      24
  138732  138729      25  138738  138735      24  138741  138735      24  138741
  138738      25  138747  138744      24  138750  138744      24  138750  138747
      25  138756  138753      24  138759  138753      24  138759  138756      25
  138765  138762      24  138768  138762      24  138768  138765      25  138774
  138771      24  138777  138771      24  138777  138774      25  138783  138780
      24  138786  138780      24  138786  138783      25  138792  138789      24
  138795  138789      24  138795  138792      25  138801  138798      24  138804
  138798      24  138804  138801      25  138810  138807      24  138813  138807
      24  138813  138810      25  138819  138816      24  138822  138816      24
  138822  138819      25  138828  138825      24  138831  138825      24  138831
  138828      25  138837  138834      24  138840  138834      24  138840  138837
      25  138846  138843      24  138849  138843      24  138849  138846      25
  138855  138852      24  138858  138852      24  138858  138855      25  138864
  138861      24  138867  138861      24  138867  138864      25  138873  138870
      24  138876  138870      24  138876  138873      25  138882  138879      24
  138885  138879      24  138885  138882      25  138891  138888      24  138894
  138888      24  138894  138891      25  138900  138897      24  138903  138897
      24  138903  138900      25  138909  138906      24  138912  138906      24
  138912  138909      25  138918  138915      24  138921  138915      24  138921
  138918      25  138927  138924      24  138930  138924      24  138930  138927
      25  138936  138933      24  138939  138933      24  138939  138936      25
  138945  138942      24  138948  138942      24  138948  138945      25  138954
  138951      24  138957  138951      24  138957  138954      25  138963  138960
      24  138966  138960      24  138966  138963      25  138972  138969      24
  138975  138969      24  138975  138972      25  138981  138978      24  138984
  138978      24  138984  138981      25  138990  138987      24  138993  138987
      24  138993  138990      25  138999  138996      24  139002  138996      24
  139002  138999      25  139008  139005      24  139011  139005      24  139011
  139008      25  139017  139014      24  139020  139014      24  139020  139017
      25  139026  139023      24  139029  139023      24  139029  139026      25
  139035  139032      24  139038  139032      24  139038  139035      25  139044
  139041      24  139047  139041      24  139047  139044      25  139053  139050
      24  139056  139050      24  139056  139053      25  139062  139059      24
  139065  139059      24  139065  139062      25  139071  139068      24  139074
  139068      24  139074  139071      25  139080  139077      24  139083  139077
      24  139083  139080      25  139089  139086      24  139092  139086      24
  139092  139089      25  139098  139095      24  139101  139095      24  139101
  139098      25  139107  139104      24  139110  139104      24  139110  139107
      25  139116  139113      24  139119  139113      24  139119  139116      25
  139125  139122      24  139128  139122      24  139128  139125      25  139134
  139131      24  139137  139131      24  139137  139134      25  139143  139140
      24  139146  139140      24  139146  139143      25  139152  139149      24
  139155  139149      24  139155  139152      25  139161  139158      24  139164
  139158      24  139164  139161      25  139170  139167      24  139173  139167
      24  139173  139170      25  139179  139176      24  139182  139176      24
  139182  139179      25  139188  139185      24  139191  139185      24  139191
  139188      25  139197  139194      24  139200  139194      24  139200  139197
      25  139206  139203      24  139209  139203      24  139209  139206      25
  139215  139212      24  139218  139212      24  139218  139215      25  139224
  139221      24  139227  139221      24  139227  139224      25  139233  139230
      24  139236  139230      24  139236  139233      25  139242  139239      24
  139245  139239      24  139245  139242      25  139251  139248      24  139254
  139248      24  139254  139251      25  139260  139257      24  139263  139257
      24  139263  139260      25  139269  139266      24  139272  139266      24
  139272  139269      25  139278  139275      24  139281  139275      24  139281
  139278      25  139287  139284      24  139290  139284      24  139290  139287
      25  139296  139293      24  139299  139293      24  139299  139296      25
  139305  139302      24  139308  139302      24  139308  139305      25  139314
  139311      24  139317  139311      24  139317  139314      25  139323  139320
      24  139326  139320      24  139326  139323      25  139332  139329      24
  139335  139329      24  139335  139332      25  139341  139338      24  139344
  139338      24  139344  139341      25  139350  139347      24  139353  139347
      24  139353  139350      25  139359  139356      24  139362  139356      24
  139362  139359      25  139368  139365      24  139371  139365      24  139371
  139368      25  139377  139374      24  139380  139374      24  139380  139377
      25  139386  139383      24  139389  139383      24  139389  139386      25
  139395  139392      24  139398  139392      24  139398  139395      25  139404
  139401      24  139407  139401      24  139407  139404      25  139413  139410
      24  139416  139410      24  139416  139413      25  139422  139419      24
  139425  139419      24  139425  139422      25  139431  139428      24  139434
  139428      24  139434  139431      25  139440  139437      24  139443  139437
      24  139443  139440      25  139449  139446      24  139452  139446      24
  139452  139449      25  139458  139455      24  139461  139455      24  139461
  139458      25  139467  139464      24  139470  139464      24  139470  139467
      25  139476  139473      24  139479  139473      24  139479  139476      25
  139485  139482      24  139488  139482      24  139488  139485      25  139494
  139491      24  139497  139491      24  139497  139494      25  139503  139500
      24  139506  139500      24  139506  139503      25  139512  139509      24
  139515  139509      24  139515  139512      25  139521  139518      24  139524
  139518      24  139524  139521      25  139530  139527      24  139533  139527
      24  139533  139530      25  139539  139536      24  139542  139536      24
  139542  139539      25  139548  139545      24  139551  139545      24  139551
  139548      25  139557  139554      24  139560  139554      24  139560  139557
      25  139566  139563      24  139569  139563      24  139569  139566      25
  139575  139572      24  139578  139572      24  139578  139575      25  139584
  139581      24  139587  139581      24  139587  139584      25  139593  139590
      24  139596  139590      24  139596  139593      25  139602  139599      24
  139605  139599      24  139605  139602      25  139611  139608      24  139614
  139608      24  139614  139611      25  139620  139617      24  139623  139617
      24  139623  139620      25  139629  139626      24  139632  139626      24
  139632  139629      25  139638  139635      24  139641  139635      24  139641
  139638      25  139647  139644      24  139650  139644      24  139650  139647
      25  139656  139653      24  139659  139653      24  139659  139656      25
  139665  139662      24  139668  139662      24  139668  139665      25  139674
  139671      24  139677  139671      24  139677  139674      25  139683  139680
      24  139686  139680      24  139686  139683      25  139692  139689      24
  139695  139689      24  139695  139692      25  139701  139698      24  139704
  139698      24  139704  139701      25  139710  139707      24  139713  139707
      24  139713  139710      25  139719  139716      24  139722  139716      24
  139722  139719      25  139728  139725      24  139731  139725      24  139731
  139728      25  139737  139734      24  139740  139734      24  139740  139737
      25  139746  139743      24  139749  139743      24  139749  139746      25
  139755  139752      24  139758  139752      24  139758  139755      25  139764
  139761      24  139767  139761      24  139767  139764      25  139773  139770
      24  139776  139770      24  139776  139773      25  139782  139779      24
  139785  139779      24  139785  139782      25  139791  139788      24  139794
  139788      24  139794  139791      25  139800  139797      24  139803  139797
      24  139803  139800      25  139809  139806      24  139812  139806      24
  139812  139809      25  139818  139815      24  139821  139815      24  139821
  139818      25  139827  139824      24  139830  139824      24  139830  139827
      25  139836  139833      24  139839  139833      24  139839  139836      25
  139845  139842      24  139848  139842      24  139848  139845      25  139854
  139851      24  139857  139851      24  139857  139854      25  139863  139860
      24  139866  139860      24  139866  139863      25  139872  139869      24
  139875  139869      24  139875  139872      25  139881  139878      24  139884
  139878      24  139884  139881      25  139890  139887      24  139893  139887
      24  139893  139890      25  139899  139896      24  139902  139896      24
  139902  139899      25  139908  139905      24  139911  139905      24  139911
  139908      25  139917  139914      24  139920  139914      24  139920  139917
      25  139926  139923      24  139929  139923      24  139929  139926      25
  139935  139932      24  139938  139932      24  139938  139935      25  139944
  139941      24  139947  139941      24  139947  139944      25  139953  139950
      24  139956  139950      24  139956  139953      25  139962  139959      24
  139965  139959      24  139965  139962      25  139971  139968      24  139974
  139968      24  139974  139971      25  139980  139977      24  139983  139977
      24  139983  139980      25  139989  139986      24  139992  139986      24
  139992  139989      25  139998  139995      24  140001  139995      24  140001
  139998      25  140007  140004      24  140010  140004      24  140010  140007
      25  140016  140013      24  140019  140013      24  140019  140016      25
  140025  140022      24  140028  140022      24  140028  140025      25  140034
  140031      24  140037  140031      24  140037  140034      25  140043  140040
      24  140046  140040      24  140046  140043      25  140052  140049      24
  140055  140049      24  140055  140052      25  140061  140058      24  140064
  140058      24  140064  140061      25  140070  140067      24  140073  140067
      24  140073  140070      25  140079  140076      24  140082  140076      24
  140082  140079      25  140088  140085      24  140091  140085      24  140091
  140088      25  140097  140094      24  140100  140094      24  140100  140097
      25  140106  140103      24  140109  140103      24  140109  140106      25
  140115  140112      24  140118  140112      24  140118  140115      25  140124
  140121      24  140127  140121      24  140127  140124      25  140133  140130
      24  140136  140130      24  140136  140133      25  140142  140139      24
  140145  140139      24  140145  140142      25  140151  140148      24  140154
  140148      24  140154  140151      25  140160  140157      24  140163  140157
      24  140163  140160      25  140169  140166      24  140172  140166      24
  140172  140169      25  140178  140175      24  140181  140175      24  140181
  140178      25  140187  140184      24  140190  140184      24  140190  140187
      25  140196  140193      24  140199  140193      24  140199  140196      25
  140205  140202      24  140208  140202      24  140208  140205      25  140214
  140211      24  140217  140211      24  140217  140214      25  140223  140220
      24  140226  140220      24  140226  140223      25  140232  140229      24
  140235  140229      24  140235  140232      25  140241  140238      24  140244
  140238      24  140244  140241      25  140250  140247      24  140253  140247
      24  140253  140250      25  140259  140256      24  140262  140256      24
  140262  140259      25  140268  140265      24  140271  140265      24  140271
  140268      25  140277  140274      24  140280  140274      24  140280  140277
      25  140286  140283      24  140289  140283      24  140289  140286      25
  140295  140292      24  140298  140292      24  140298  140295      25  140304
  140301      24  140307  140301      24  140307  140304      25  140313  140310
      24  140316  140310      24  140316  140313      25  140322  140319      24
  140325  140319      24  140325  140322      25  140331  140328      24  140334
  140328      24  140334  140331      25  140340  140337      24  140343  140337
      24  140343  140340      25  140349  140346      24  140352  140346      24
  140352  140349      25  140358  140355      24  140361  140355      24  140361
  140358      25  140367  140364      24  140370  140364      24  140370  140367
      25  140376  140373      24  140379  140373      24  140379  140376      25
  140385  140382      24  140388  140382      24  140388  140385      25  140394
  140391      24  140397  140391      24  140397  140394      25  140403  140400
      24  140406  140400      24  140406  140403      25  140412  140409      24
  140415  140409      24  140415  140412      25  140421  140418      24  140424
  140418      24  140424  140421      25  140430  140427      24  140433  140427
      24  140433  140430      25  140439  140436      24  140442  140436      24
  140442  140439      25  140448  140445      24  140451  140445      24  140451
  140448      25  140457  140454      24  140460  140454      24  140460  140457
      25  140466  140463      24  140469  140463      24  140469  140466      25
  140475  140472      24  140478  140472      24  140478  140475      25  140484
  140481      24  140487  140481      24  140487  140484      25  140493  140490
      24  140496  140490      24  140496  140493      25  140502  140499      24
  140505  140499      24  140505  140502      25  140511  140508      24  140514
  140508      24  140514  140511      25  140520  140517      24  140523  140517
      24  140523  140520      25  140529  140526      24  140532  140526      24
  140532  140529      25  140538  140535      24  140541  140535      24  140541
  140538      25  140547  140544      24  140550  140544      24  140550  140547
      25  140556  140553      24  140559  140553      24  140559  140556      25
  140565  140562      24  140568  140562      24  140568  140565      25  140574
  140571      24  140577  140571      24  140577  140574      25  140583  140580
      24  140586  140580      24  140586  140583      25  140592  140589      24
  140595  140589      24  140595  140592      25  140601  140598      24  140604
  140598      24  140604  140601      25  140610  140607      24  140613  140607
      24  140613  140610      25  140619  140616      24  140622  140616      24
  140622  140619      25  140628  140625      24  140631  140625      24  140631
  140628      25  140637  140634      24  140640  140634      24  140640  140637
      25  140646  140643      24  140649  140643      24  140649  140646      25
  140655  140652      24  140658  140652      24  140658  140655      25  140664
  140661      24  140667  140661      24  140667  140664      25  140673  140670
      24  140676  140670      24  140676  140673      25  140682  140679      24
  140685  140679      24  140685  140682      25  140691  140688      24  140694
  140688      24  140694  140691      25  140700  140697      24  140703  140697
      24  140703  140700      25  140709  140706      24  140712  140706      24
  140712  140709      25  140718  140715      24  140721  140715      24  140721
  140718      25  140727  140724      24  140730  140724      24  140730  140727
      25  140736  140733      24  140739  140733      24  140739  140736      25
  140745  140742      24  140748  140742      24  140748  140745      25  140754
  140751      24  140757  140751      24  140757  140754      25  140763  140760
      24  140766  140760      24  140766  140763      25  140772  140769      24
  140775  140769      24  140775  140772      25  140781  140778      24  140784
  140778      24  140784  140781      25  140790  140787      24  140793  140787
      24  140793  140790      25  140799  140796      24  140802  140796      24
  140802  140799      25  140808  140805      24  140811  140805      24  140811
  140808      25  140817  140814      24  140820  140814      24  140820  140817
      25  140826  140823      24  140829  140823      24  140829  140826      25
  140835  140832      24  140838  140832      24  140838  140835      25  140844
  140841      24  140847  140841      24  140847  140844      25  140853  140850
      24  140856  140850      24  140856  140853      25  140862  140859      24
  140865  140859      24  140865  140862      25  140871  140868      24  140874
  140868      24  140874  140871      25  140880  140877      24  140883  140877
      24  140883  140880      25  140889  140886      24  140892  140886      24
  140892  140889      25  140898  140895      24  140901  140895      24  140901
  140898      25  140907  140904      24  140910  140904      24  140910  140907
      25  140916  140913      24  140919  140913      24  140919  140916      25
  140925  140922      24  140928  140922      24  140928  140925      25  140934
  140931      24  140937  140931      24  140937  140934      25  140943  140940
      24  140946  140940      24  140946  140943      25  140952  140949      24
  140955  140949      24  140955  140952      25  140961  140958      24  140964
  140958      24  140964  140961      25  140970  140967      24  140973  140967
      24  140973  140970      25  140979  140976      24  140982  140976      24
  140982  140979      25  140988  140985      24  140991  140985      24  140991
  140988      25  140997  140994      24  141000  140994      24  141000  140997
      25  141006  141003      24  141009  141003      24  141009  141006      25
  141015  141012      24  141018  141012      24  141018  141015      25  141024
  141021      24  141027  141021      24  141027  141024      25  141033  141030
      24  141036  141030      24  141036  141033      25  141042  141039      24
  141045  141039      24  141045  141042      25  141051  141048      24  141054
  141048      24  141054  141051      25  141060  141057      24  141063  141057
      24  141063  141060      25  141069  141066      24  141072  141066      24
  141072  141069      25  141078  141075      24  141081  141075      24  141081
  141078      25  141087  141084      24  141090  141084      24  141090  141087
      25  141096  141093      24  141099  141093      24  141099  141096      25
  141105  141102      24  141108  141102      24  141108  141105      25  141114
  141111      24  141117  141111      24  141117  141114      25  141123  141120
      24  141126  141120      24  141126  141123      25  141132  141129      24
  141135  141129      24  141135  141132      25  141141  141138      24  141144
  141138      24  141144  141141      25  141150  141147      24  141153  141147
      24  141153  141150      25  141159  141156      24  141162  141156      24
  141162  141159      25  141168  141165      24  141171  141165      24  141171
  141168      25  141177  141174      24  141180  141174      24  141180  141177
      25  141186  141183      24  141189  141183      24  141189  141186      25
  141195  141192      24  141198  141192      24  141198  141195      25  141204
  141201      24  141207  141201      24  141207  141204      25  141213  141210
      24  141216  141210      24  141216  141213      25  141222  141219      24
  141225  141219      24  141225  141222      25  141231  141228      24  141234
  141228      24  141234  141231      25  141240  141237      24  141243  141237
      24  141243  141240      25  141249  141246      24  141252  141246      24
  141252  141249      25  141258  141255      24  141261  141255      24  141261
  141258      25  141267  141264      24  141270  141264      24  141270  141267
      25  141276  141273      24  141279  141273      24  141279  141276      25
  141285  141282      24  141288  141282      24  141288  141285      25  141294
  141291      24  141297  141291      24  141297  141294      25  141303  141300
      24  141306  141300      24  141306  141303      25  141312  141309      24
  141315  141309      24  141315  141312      25  141321  141318      24  141324
  141318      24  141324  141321      25  141330  141327      24  141333  141327
      24  141333  141330      25  141339  141336      24  141342  141336      24
  141342  141339      25  141348  141345      24  141351  141345      24  141351
  141348      25  141357  141354      24  141360  141354      24  141360  141357
      25  141366  141363      24  141369  141363      24  141369  141366      25
  141375  141372      24  141378  141372      24  141378  141375      25  141384
  141381      24  141387  141381      24  141387  141384      25  141393  141390
      24  141396  141390      24  141396  141393      25  141402  141399      24
  141405  141399      24  141405  141402      25  141411  141408      24  141414
  141408      24  141414  141411      25  141420  141417      24  141423  141417
      24  141423  141420      25  141429  141426      24  141432  141426      24
  141432  141429      25  141438  141435      24  141441  141435      24  141441
  141438      25  141447  141444      24  141450  141444      24  141450  141447
      25  141456  141453      24  141459  141453      24  141459  141456      25
  141465  141462      24  141468  141462      24  141468  141465      25  141474
  141471      24  141477  141471      24  141477  141474      25  141483  141480
      24  141486  141480      24  141486  141483      25  141492  141489      24
  141495  141489      24  141495  141492      25  141501  141498      24  141504
  141498      24  141504  141501      25  141510  141507      24  141513  141507
      24  141513  141510      25  141519  141516      24  141522  141516      24
  141522  141519      25  141528  141525      24  141531  141525      24  141531
  141528      25  141537  141534      24  141540  141534      24  141540  141537
      25  141546  141543      24  141549  141543      24  141549  141546      25
  141555  141552      24  141558  141552      24  141558  141555      25  141564
  141561      24  141567  141561      24  141567  141564      25  141573  141570
      24  141576  141570      24  141576  141573      25  141582  141579      24
  141585  141579      24  141585  141582      25  141591  141588      24  141594
  141588      24  141594  141591      25  141600  141597      24  141603  141597
      24  141603  141600      25  141609  141606      24  141612  141606      24
  141612  141609      25  141618  141615      24  141621  141615      24  141621
  141618      25  141627  141624      24  141630  141624      24  141630  141627
      25  141636  141633      24  141639  141633      24  141639  141636      25
  141645  141642      24  141648  141642      24  141648  141645      25  141654
  141651      24  141657  141651      24  141657  141654      25  141663  141660
      24  141666  141660      24  141666  141663      25  141672  141669      24
  141675  141669      24  141675  141672      25  141681  141678      24  141684
  141678      24  141684  141681      25  141690  141687      24  141693  141687
      24  141693  141690      25  141699  141696      24  141702  141696      24
  141702  141699      25  141708  141705      24  141711  141705      24  141711
  141708      25  141717  141714      24  141720  141714      24  141720  141717
      25  141726  141723      24  141729  141723      24  141729  141726      25
  141735  141732      24  141738  141732      24  141738  141735      25  141744
  141741      24  141747  141741      24  141747  141744      25  141753  141750
      24  141756  141750      24  141756  141753      25  141762  141759      24
  141765  141759      24  141765  141762      25  141771  141768      24  141774
  141768      24  141774  141771      25  141780  141777      24  141783  141777
      24  141783  141780      25  141789  141786      24  141792  141786      24
  141792  141789      25  141798  141795      24  141801  141795      24  141801
  141798      25  141807  141804      24  141810  141804      24  141810  141807
      25  141816  141813      24  141819  141813      24  141819  141816      25
  141825  141822      24  141828  141822      24  141828  141825      25  141834
  141831      24  141837  141831      24  141837  141834      25  141843  141840
      24  141846  141840      24  141846  141843      25  141852  141849      24
  141855  141849      24  141855  141852      25  141861  141858      24  141864
  141858      24  141864  141861      25  141870  141867      24  141873  141867
      24  141873  141870      25  141879  141876      24  141882  141876      24
  141882  141879      25  141888  141885      24  141891  141885      24  141891
  141888      25  141897  141894      24  141900  141894      24  141900  141897
      25  141906  141903      24  141909  141903      24  141909  141906      25
  141915  141912      24  141918  141912      24  141918  141915      25  141924
  141921      24  141927  141921      24  141927  141924      25  141933  141930
      24  141936  141930      24  141936  141933      25  141942  141939      24
  141945  141939      24  141945  141942      25  141951  141948      24  141954
  141948      24  141954  141951      25  141960  141957      24  141963  141957
      24  141963  141960      25  141969  141966      24  141972  141966      24
  141972  141969      25  141978  141975      24  141981  141975      24  141981
  141978      25  141987  141984      24  141990  141984      24  141990  141987
      25  141996  141993      24  141999  141993      24  141999  141996      25
  142005  142002      24  142008  142002      24  142008  142005      25  142014
  142011      24  142017  142011      24  142017  142014      25  142023  142020
      24  142026  142020      24  142026  142023      25  142032  142029      24
  142035  142029      24  142035  142032      25  142041  142038      24  142044
  142038      24  142044  142041      25  142050  142047      24  142053  142047
      24  142053  142050      25  142059  142056      24  142062  142056      24
  142062  142059      25  142068  142065      24  142071  142065      24  142071
  142068      25  142077  142074      24  142080  142074      24  142080  142077
      25  142086  142083      24  142089  142083      24  142089  142086      25
  142095  142092      24  142098  142092      24  142098  142095      25  142104
  142101      24  142107  142101      24  142107  142104      25  142113  142110
      24  142116  142110      24  142116  142113      25  142122  142119      24
  142125  142119      24  142125  142122      25  142131  142128      24  142134
  142128      24  142134  142131      25  142140  142137      24  142143  142137
      24  142143  142140      25  142149  142146      24  142152  142146      24
  142152  142149      25  142158  142155      24  142161  142155      24  142161
  142158      25  142167  142164      24  142170  142164      24  142170  142167
      25  142176  142173      24  142179  142173      24  142179  142176      25
  142185  142182      24  142188  142182      24  142188  142185      25  142194
  142191      24  142197  142191      24  142197  142194      25  142203  142200
      24  142206  142200      24  142206  142203      25  142212  142209      24
  142215  142209      24  142215  142212      25  142221  142218      24  142224
  142218      24  142224  142221      25  142230  142227      24  142233  142227
      24  142233  142230      25  142239  142236      24  142242  142236      24
  142242  142239      25  142248  142245      24  142251  142245      24  142251
  142248      25  142257  142254      24  142260  142254      24  142260  142257
      25  142266  142263      24  142269  142263      24  142269  142266      25
  142275  142272      24  142278  142272      24  142278  142275      25  142284
  142281      24  142287  142281      24  142287  142284      25  142293  142290
      24  142296  142290      24  142296  142293      25  142302  142299      24
  142305  142299      24  142305  142302      25  142311  142308      24  142314
  142308      24  142314  142311      25  142320  142317      24  142323  142317
      24  142323  142320      25  142329  142326      24  142332  142326      24
  142332  142329      25  142338  142335      24  142341  142335      24  142341
  142338      25  142347  142344      24  142350  142344      24  142350  142347
      25  142356  142353      24  142359  142353      24  142359  142356      25
  142365  142362      24  142368  142362      24  142368  142365      25  142374
  142371      24  142377  142371      24  142377  142374      25  142383  142380
      24  142386  142380      24  142386  142383      25  142392  142389      24
  142395  142389      24  142395  142392      25  142401  142398      24  142404
  142398      24  142404  142401      25  142410  142407      24  142413  142407
      24  142413  142410      25  142419  142416      24  142422  142416      24
  142422  142419      25  142428  142425      24  142431  142425      24  142431
  142428      25  142437  142434      24  142440  142434      24  142440  142437
      25  142446  142443      24  142449  142443      24  142449  142446      25
  142455  142452      24  142458  142452      24  142458  142455      25  142464
  142461      24  142467  142461      24  142467  142464      25  142473  142470
      24  142476  142470      24  142476  142473      25  142482  142479      24
  142485  142479      24  142485  142482      25  142491  142488      24  142494
  142488      24  142494  142491      25  142500  142497      24  142503  142497
      24  142503  142500      25  142509  142506      24  142512  142506      24
  142512  142509      25  142518  142515      24  142521  142515      24  142521
  142518      25  142527  142524      24  142530  142524      24  142530  142527
      25  142536  142533      24  142539  142533      24  142539  142536      25
  142545  142542      24  142548  142542      24  142548  142545      25  142554
  142551      24  142557  142551      24  142557  142554      25  142563  142560
      24  142566  142560      24  142566  142563      25  142572  142569      24
  142575  142569      24  142575  142572      25  142581  142578      24  142584
  142578      24  142584  142581      25  142590  142587      24  142593  142587
      24  142593  142590      25  142599  142596      24  142602  142596      24
  142602  142599      25  142608  142605      24  142611  142605      24  142611
  142608      25  142617  142614      24  142620  142614      24  142620  142617
      25  142626  142623      24  142629  142623      24  142629  142626      25
  142635  142632      24  142638  142632      24  142638  142635      25  142644
  142641      24  142647  142641      24  142647  142644      25  142653  142650
      24  142656  142650      24  142656  142653      25  142662  142659      24
  142665  142659      24  142665  142662      25  142671  142668      24  142674
  142668      24  142674  142671      25  142680  142677      24  142683  142677
      24  142683  142680      25  142689  142686      24  142692  142686      24
  142692  142689      25  142698  142695      24  142701  142695      24  142701
  142698      25  142707  142704      24  142710  142704      24  142710  142707
      25  142716  142713      24  142719  142713      24  142719  142716      25
  142725  142722      24  142728  142722      24  142728  142725      25  142734
  142731      24  142737  142731      24  142737  142734      25  142743  142740
      24  142746  142740      24  142746  142743      25  142752  142749      24
  142755  142749      24  142755  142752      25  142761  142758      24  142764
  142758      24  142764  142761      25  142770  142767      24  142773  142767
      24  142773  142770      25  142779  142776      24  142782  142776      24
  142782  142779      25  142788  142785      24  142791  142785      24  142791
  142788      25  142797  142794      24  142800  142794      24  142800  142797
      25  142806  142803      24  142809  142803      24  142809  142806      25
  142815  142812      24  142818  142812      24  142818  142815      25  142824
  142821      24  142827  142821      24  142827  142824      25  142833  142830
      24  142836  142830      24  142836  142833      25  142842  142839      24
  142845  142839      24  142845  142842      25  142851  142848      24  142854
  142848      24  142854  142851      25  142860  142857      24  142863  142857
      24  142863  142860      25  142869  142866      24  142872  142866      24
  142872  142869      25  142878  142875      24  142881  142875      24  142881
  142878      25  142887  142884      24  142890  142884      24  142890  142887
      25  142896  142893      24  142899  142893      24  142899  142896      25
  142905  142902      24  142908  142902      24  142908  142905      25  142914
  142911      24  142917  142911      24  142917  142914      25  142923  142920
      24  142926  142920      24  142926  142923      25  142932  142929      24
  142935  142929      24  142935  142932      25  142941  142938      24  142944
  142938      24  142944  142941      25  142950  142947      24  142953  142947
      24  142953  142950      25  142959  142956      24  142962  142956      24
  142962  142959      25  142968  142965      24  142971  142965      24  142971
  142968      25  142977  142974      24  142980  142974      24  142980  142977
      25  142986  142983      24  142989  142983      24  142989  142986      25
  142995  142992      24  142998  142992      24  142998  142995      25  143004
  143001      24  143007  143001      24  143007  143004      25  143013  143010
      24  143016  143010      24  143016  143013      25  143022  143019      24
  143025  143019      24  143025  143022      25  143031  143028      24  143034
  143028      24  143034  143031      25  143040  143037      24  143043  143037
      24  143043  143040      25  143049  143046      24  143052  143046      24
  143052  143049      25  143058  143055      24  143061  143055      24  143061
  143058      25  143067  143064      24  143070  143064      24  143070  143067
      25  143076  143073      24  143079  143073      24  143079  143076      25
  143085  143082      24  143088  143082      24  143088  143085      25  143094
  143091      24  143097  143091      24  143097  143094      25  143103  143100
      24  143106  143100      24  143106  143103      25  143112  143109      24
  143115  143109      24  143115  143112      25  143121  143118      24  143124
  143118      24  143124  143121      25  143130  143127      24  143133  143127
      24  143133  143130      25  143139  143136      24  143142  143136      24
  143142  143139      25  143148  143145      24  143151  143145      24  143151
  143148      25  143157  143154      24  143160  143154      24  143160  143157
      25  143166  143163      24  143169  143163      24  143169  143166      25
  143175  143172      24  143178  143172      24  143178  143175      25  143184
  143181      24  143187  143181      24  143187  143184      25  143193  143190
      24  143196  143190      24  143196  143193      25  143202  143199      24
  143205  143199      24  143205  143202      25  143211  143208      24  143214
  143208      24  143214  143211      25  143220  143217      24  143223  143217
      24  143223  143220      25  143229  143226      24  143232  143226      24
  143232  143229      25  143238  143235      24  143241  143235      24  143241
  143238      25  143247  143244      24  143250  143244      24  143250  143247
      25  143256  143253      24  143259  143253      24  143259  143256      25
  143265  143262      24  143268  143262      24  143268  143265      25  143274
  143271      24  143277  143271      24  143277  143274      25  143283  143280
      24  143286  143280      24  143286  143283      25  143292  143289      24
  143295  143289      24  143295  143292      25  143301  143298      24  143304
  143298      24  143304  143301      25  143310  143307      24  143313  143307
      24  143313  143310      25  143319  143316      24  143322  143316      24
  143322  143319      25  143328  143325      24  143331  143325      24  143331
  143328      25  143337  143334      24  143340  143334      24  143340  143337
      25  143346  143343      24  143349  143343      24  143349  143346      25
  143355  143352      24  143358  143352      24  143358  143355      25  143364
  143361      24  143367  143361      24  143367  143364      25  143373  143370
      24  143376  143370      24  143376  143373      25  143382  143379      24
  143385  143379      24  143385  143382      25  143391  143388      24  143394
  143388      24  143394  143391      25  143400  143397      24  143403  143397
      24  143403  143400      25  143409  143406      24  143412  143406      24
  143412  143409      25  143418  143415      24  143421  143415      24  143421
  143418      25  143427  143424      24  143430  143424      24  143430  143427
      25  143436  143433      24  143439  143433      24  143439  143436      25
  143445  143442      24  143448  143442      24  143448  143445      25  143454
  143451      24  143457  143451      24  143457  143454      25  143463  143460
      24  143466  143460      24  143466  143463      25  143472  143469      24
  143475  143469      24  143475  143472      25  143481  143478      24  143484
  143478      24  143484  143481      25  143490  143487      24  143493  143487
      24  143493  143490      25  143499  143496      24  143502  143496      24
  143502  143499      25  143508  143505      24  143511  143505      24  143511
  143508      25  143517  143514      24  143520  143514      24  143520  143517
      25  143526  143523      24  143529  143523      24  143529  143526      25
  143535  143532      24  143538  143532      24  143538  143535      25  143544
  143541      24  143547  143541      24  143547  143544      25  143553  143550
      24  143556  143550      24  143556  143553      25  143562  143559      24
  143565  143559      24  143565  143562      25  143571  143568      24  143574
  143568      24  143574  143571      25  143580  143577      24  143583  143577
      24  143583  143580      25  143589  143586      24  143592  143586      24
  143592  143589      25  143598  143595      24  143601  143595      24  143601
  143598      25  143607  143604      24  143610  143604      24  143610  143607
      25  143616  143613      24  143619  143613      24  143619  143616      25
  143625  143622      24  143628  143622      24  143628  143625      25  143634
  143631      24  143637  143631      24  143637  143634      25  143643  143640
      24  143646  143640      24  143646  143643      25  143652  143649      24
  143655  143649      24  143655  143652      25  143661  143658      24  143664
  143658      24  143664  143661      25  143670  143667      24  143673  143667
      24  143673  143670      25  143679  143676      24  143682  143676      24
  143682  143679      25  143688  143685      24  143691  143685      24  143691
  143688      25  143697  143694      24  143700  143694      24  143700  143697
      25  143706  143703      24  143709  143703      24  143709  143706      25
  143715  143712      24  143718  143712      24  143718  143715      25  143724
  143721      24  143727  143721      24  143727  143724      25  143733  143730
      24  143736  143730      24  143736  143733      25  143742  143739      24
  143745  143739      24  143745  143742      25  143751  143748      24  143754
  143748      24  143754  143751      25  143760  143757      24  143763  143757
      24  143763  143760      25  143769  143766      24  143772  143766      24
  143772  143769      25  143778  143775      24  143781  143775      24  143781
  143778      25  143787  143784      24  143790  143784      24  143790  143787
      25  143796  143793      24  143799  143793      24  143799  143796      25
  143805  143802      24  143808  143802      24  143808  143805      25  143814
  143811      24  143817  143811      24  143817  143814      25  143823  143820
      24  143826  143820      24  143826  143823      25  143832  143829      24
  143835  143829      24  143835  143832      25  143841  143838      24  143844
  143838      24  143844  143841      25  143850  143847      24  143853  143847
      24  143853  143850      25  143859  143856      24  143862  143856      24
  143862  143859      25  143868  143865      24  143871  143865      24  143871
  143868      25  143877  143874      24  143880  143874      24  143880  143877
      25  143886  143883      24  143889  143883      24  143889  143886      25
  143895  143892      24  143898  143892      24  143898  143895      25  143904
  143901      24  143907  143901      24  143907  143904      25  143913  143910
      24  143916  143910      24  143916  143913      25  143922  143919      24
  143925  143919      24  143925  143922      25  143931  143928      24  143934
  143928      24  143934  143931      25  143940  143937      24  143943  143937
      24  143943  143940      25  143949  143946      24  143952  143946      24
  143952  143949      25  143958  143955      24  143961  143955      24  143961
  143958      25  143967  143964      24  143970  143964      24  143970  143967
      25  143976  143973      24  143979  143973      24  143979  143976      25
  143985  143982      24  143988  143982      24  143988  143985      25  143994
  143991      24  143997  143991      24  143997  143994      25  144003  144000
      24  144006  144000      24  144006  144003      25  144012  144009      24
  144015  144009      24  144015  144012      25  144021  144018      24  144024
  144018      24  144024  144021      25  144030  144027      24  144033  144027
      24  144033  144030      25  144039  144036      24  144042  144036      24
  144042  144039      25  144048  144045      24  144051  144045      24  144051
  144048      25  144057  144054      24  144060  144054      24  144060  144057
      25  144066  144063      24  144069  144063      24  144069  144066      25
  144075  144072      24  144078  144072      24  144078  144075      25  144084
  144081      24  144087  144081      24  144087  144084      25  144093  144090
      24  144096  144090      24  144096  144093      25  144102  144099      24
  144105  144099      24  144105  144102      25  144111  144108      24  144114
  144108      24  144114  144111      25  144120  144117      24  144123  144117
      24  144123  144120      25  144129  144126      24  144132  144126      24
  144132  144129      25  144138  144135      24  144141  144135      24  144141
  144138      25  144147  144144      24  144150  144144      24  144150  144147
      25  144156  144153      24  144159  144153      24  144159  144156      25
  144165  144162      24  144168  144162      24  144168  144165      25  144174
  144171      24  144177  144171      24  144177  144174      25  144183  144180
      24  144186  144180      24  144186  144183      25  144192  144189      24
  144195  144189      24  144195  144192      25  144201  144198      24  144204
  144198      24  144204  144201      25  144210  144207      24  144213  144207
      24  144213  144210      25  144219  144216      24  144222  144216      24
  144222  144219      25  144228  144225      24  144231  144225      24  144231
  144228      25  144237  144234      24  144240  144234      24  144240  144237
      25  144246  144243      24  144249  144243      24  144249  144246      25
  144255  144252      24  144258  144252      24  144258  144255      25  144264
  144261      24  144267  144261      24  144267  144264      25  144273  144270
      24  144276  144270      24  144276  144273      25  144282  144279      24
  144285  144279      24  144285  144282      25  144291  144288      24  144294
  144288      24  144294  144291      25  144300  144297      24  144303  144297
      24  144303  144300      25  144309  144306      24  144312  144306      24
  144312  144309      25  144318  144315      24  144321  144315      24  144321
  144318      25  144327  144324      24  144330  144324      24  144330  144327
      25  144336  144333      24  144339  144333      24  144339  144336      25
  144345  144342      24  144348  144342      24  144348  144345      25  144354
  144351      24  144357  144351      24  144357  144354      25  144363  144360
      24  144366  144360      24  144366  144363      25  144372  144369      24
  144375  144369      24  144375  144372      25  144381  144378      24  144384
  144378      24  144384  144381      25  144390  144387      24  144393  144387
      24  144393  144390      25  144399  144396      24  144402  144396      24
  144402  144399      25  144408  144405      24  144411  144405      24  144411
  144408      25  144417  144414      24  144420  144414      24  144420  144417
      25  144426  144423      24  144429  144423      24  144429  144426      25
  144435  144432      24  144438  144432      24  144438  144435      25  144444
  144441      24  144447  144441      24  144447  144444      25  144453  144450
      24  144456  144450      24  144456  144453      25  144462  144459      24
  144465  144459      24  144465  144462      25  144471  144468      24  144474
  144468      24  144474  144471      25  144480  144477      24  144483  144477
      24  144483  144480      25  144489  144486      24  144492  144486      24
  144492  144489      25  144498  144495      24  144501  144495      24  144501
  144498      25  144507  144504      24  144510  144504      24  144510  144507
      25  144516  144513      24  144519  144513      24  144519  144516      25
  144525  144522      24  144528  144522      24  144528  144525      25  144534
  144531      24  144537  144531      24  144537  144534      25  144543  144540
      24  144546  144540      24  144546  144543      25  144552  144549      24
  144555  144549      24  144555  144552      25  144561  144558      24  144564
  144558      24  144564  144561      25  144570  144567      24  144573  144567
      24  144573  144570      25  144579  144576      24  144582  144576      24
  144582  144579      25  144588  144585      24  144591  144585      24  144591
  144588      25  144597  144594      24  144600  144594      24  144600  144597
      25  144606  144603      24  144609  144603      24  144609  144606      25
  144615  144612      24  144618  144612      24  144618  144615      25  144624
  144621      24  144627  144621      24  144627  144624      25  144633  144630
      24  144636  144630      24  144636  144633      25  144642  144639      24
  144645  144639      24  144645  144642      25  144651  144648      24  144654
  144648      24  144654  144651      25  144660  144657      24  144663  144657
      24  144663  144660      25  144669  144666      24  144672  144666      24
  144672  144669      25  144678  144675      24  144681  144675      24  144681
  144678      25  144687  144684      24  144690  144684      24  144690  144687
      25  144696  144693      24  144699  144693      24  144699  144696      25
  144705  144702      24  144708  144702      24  144708  144705      25  144714
  144711      24  144717  144711      24  144717  144714      25  144723  144720
      24  144726  144720      24  144726  144723      25  144732  144729      24
  144735  144729      24  144735  144732      25  144741  144738      24  144744
  144738      24  144744  144741      25  144750  144747      24  144753  144747
      24  144753  144750      25  144759  144756      24  144762  144756      24
  144762  144759      25  144768  144765      24  144771  144765      24  144771
  144768      25  144777  144774      24  144780  144774      24  144780  144777
      25  144786  144783      24  144789  144783      24  144789  144786      25
  144795  144792      24  144798  144792      24  144798  144795      25  144804
  144801      24  144807  144801      24  144807  144804      25  144813  144810
      24  144816  144810      24  144816  144813      25  144822  144819      24
  144825  144819      24  144825  144822      25  144831  144828      24  144834
  144828      24  144834  144831      25  144840  144837      24  144843  144837
      24  144843  144840      25  144849  144846      24  144852  144846      24
  144852  144849      25  144858  144855      24  144861  144855      24  144861
  144858      25  144867  144864      24  144870  144864      24  144870  144867
      25  144876  144873      24  144879  144873      24  144879  144876      25
  144885  144882      24  144888  144882      24  144888  144885      25  144894
  144891      24  144897  144891      24  144897  144894      25  144903  144900
      24  144906  144900      24  144906  144903      25  144912  144909      24
  144915  144909      24  144915  144912      25  144921  144918      24  144924
  144918      24  144924  144921      25  144930  144927      24  144933  144927
      24  144933  144930      25  144939  144936      24  144942  144936      24
  144942  144939      25  144948  144945      24  144951  144945      24  144951
  144948      25  144957  144954      24  144960  144954      24  144960  144957
      25  144966  144963      24  144969  144963      24  144969  144966      25
  144975  144972      24  144978  144972      24  144978  144975      25  144984
  144981      24  144987  144981      24  144987  144984      25  144993  144990
      24  144996  144990      24  144996  144993      25  145002  144999      24
  145005  144999      24  145005  145002      25  145011  145008      24  145014
  145008      24  145014  145011      25  145020  145017      24  145023  145017
      24  145023  145020      25  145029  145026      24  145032  145026      24
  145032  145029      25  145038  145035      24  145041  145035      24  145041
  145038      25  145047  145044      24  145050  145044      24  145050  145047
      25  145056  145053      24  145059  145053      24  145059  145056      25
  145065  145062      24  145068  145062      24  145068  145065      25  145074
  145071      24  145077  145071      24  145077  145074      25  145083  145080
      24  145086  145080      24  145086  145083      25  145092  145089      24
  145095  145089      24  145095  145092      25  145101  145098      24  145104
  145098      24  145104  145101      25  145110  145107      24  145113  145107
      24  145113  145110      25  145119  145116      24  145122  145116      24
  145122  145119      25  145128  145125      24  145131  145125      24  145131
  145128      25  145137  145134      24  145140  145134      24  145140  145137
      25  145146  145143      24  145149  145143      24  145149  145146      25
  145155  145152      24  145158  145152      24  145158  145155      25  145164
  145161      24  145167  145161      24  145167  145164      25  145173  145170
      24  145176  145170      24  145176  145173      25  145182  145179      24
  145185  145179      24  145185  145182      25  145191  145188      24  145194
  145188      24  145194  145191      25  145200  145197      24  145203  145197
      24  145203  145200      25  145209  145206      24  145212  145206      24
  145212  145209      25  145218  145215      24  145221  145215      24  145221
  145218      25  145227  145224      24  145230  145224      24  145230  145227
      25  145236  145233      24  145239  145233      24  145239  145236      25
  145245  145242      24  145248  145242      24  145248  145245      25  145254
  145251      24  145257  145251      24  145257  145254      25  145263  145260
      24  145266  145260      24  145266  145263      25  145272  145269      24
  145275  145269      24  145275  145272      25  145281  145278      24  145284
  145278      24  145284  145281      25  145290  145287      24  145293  145287
      24  145293  145290      25  145299  145296      24  145302  145296      24
  145302  145299      25  145308  145305      24  145311  145305      24  145311
  145308      25  145317  145314      24  145320  145314      24  145320  145317
      25  145326  145323      24  145329  145323      24  145329  145326      25
  145335  145332      24  145338  145332      24  145338  145335      25  145344
  145341      24  145347  145341      24  145347  145344      25  145353  145350
      24  145356  145350      24  145356  145353      25  145362  145359      24
  145365  145359      24  145365  145362      25  145371  145368      24  145374
  145368      24  145374  145371      25  145380  145377      24  145383  145377
      24  145383  145380      25  145389  145386      24  145392  145386      24
  145392  145389      25  145398  145395      24  145401  145395      24  145401
  145398      25  145407  145404      24  145410  145404      24  145410  145407
      25  145416  145413      24  145419  145413      24  145419  145416      25
  145425  145422      24  145428  145422      24  145428  145425      25  145434
  145431      24  145437  145431      24  145437  145434      25  145443  145440
      24  145446  145440      24  145446  145443      25  145452  145449      24
  145455  145449      24  145455  145452      25  145461  145458      24  145464
  145458      24  145464  145461      25  145470  145467      24  145473  145467
      24  145473  145470      25  145479  145476      24  145482  145476      24
  145482  145479      25  145488  145485      24  145491  145485      24  145491
  145488      25  145497  145494      24  145500  145494      24  145500  145497
      25  145506  145503      24  145509  145503      24  145509  145506      25
  145515  145512      24  145518  145512      24  145518  145515      25  145524
  145521      24  145527  145521      24  145527  145524      25  145533  145530
      24  145536  145530      24  145536  145533      25  145542  145539      24
  145545  145539      24  145545  145542      25  145551  145548      24  145554
  145548      24  145554  145551      25  145560  145557      24  145563  145557
      24  145563  145560      25  145569  145566      24  145572  145566      24
  145572  145569      25  145578  145575      24  145581  145575      24  145581
  145578      25  145587  145584      24  145590  145584      24  145590  145587
      25  145596  145593      24  145599  145593      24  145599  145596      25
  145605  145602      24  145608  145602      24  145608  145605      25  145614
  145611      24  145617  145611      24  145617  145614      25  145623  145620
      24  145626  145620      24  145626  145623      25  145632  145629      24
  145635  145629      24  145635  145632      25  145641  145638      24  145644
  145638      24  145644  145641      25  145650  145647      24  145653  145647
      24  145653  145650      25  145659  145656      24  145662  145656      24
  145662  145659      25  145668  145665      24  145671  145665      24  145671
  145668      25  145677  145674      24  145680  145674      24  145680  145677
      25  145686  145683      24  145689  145683      24  145689  145686      25
  145695  145692      24  145698  145692      24  145698  145695      25  145704
  145701      24  145707  145701      24  145707  145704      25  145713  145710
      24  145716  145710      24  145716  145713      25  145722  145719      24
  145725  145719      24  145725  145722      25  145731  145728      24  145734
  145728      24  145734  145731      25  145740  145737      24  145743  145737
      24  145743  145740      25  145749  145746      24  145752  145746      24
  145752  145749      25  145758  145755      24  145761  145755      24  145761
  145758      25  145767  145764      24  145770  145764      24  145770  145767
      25  145776  145773      24  145779  145773      24  145779  145776      25
  145785  145782      24  145788  145782      24  145788  145785      25  145794
  145791      24  145797  145791      24  145797  145794      25  145803  145800
      24  145806  145800      24  145806  145803      25  145812  145809      24
  145815  145809      24  145815  145812      25  145821  145818      24  145824
  145818      24  145824  145821      25  145830  145827      24  145833  145827
      24  145833  145830      25  145839  145836      24  145842  145836      24
  145842  145839      25  145848  145845      24  145851  145845      24  145851
  145848      25  145857  145854      24  145860  145854      24  145860  145857
      25  145866  145863      24  145869  145863      24  145869  145866      25
  145875  145872      24  145878  145872      24  145878  145875      25  145884
  145881      24  145887  145881      24  145887  145884      25  145893  145890
      24  145896  145890      24  145896  145893      25  145902  145899      24
  145905  145899      24  145905  145902      25  145911  145908      24  145914
  145908      24  145914  145911      25  145920  145917      24  145923  145917
      24  145923  145920      25  145929  145926      24  145932  145926      24
  145932  145929      25  145938  145935      24  145941  145935      24  145941
  145938      25  145947  145944      24  145950  145944      24  145950  145947
      25  145956  145953      24  145959  145953      24  145959  145956      25
  145965  145962      24  145968  145962      24  145968  145965      25  145974
  145971      24  145977  145971      24  145977  145974      25  145983  145980
      24  145986  145980      24  145986  145983      25  145992  145989      24
  145995  145989      24  145995  145992      25  146001  145998      24  146004
  145998      24  146004  146001      25  146010  146007      24  146013  146007
      24  146013  146010      25  146019  146016      24  146022  146016      24
  146022  146019      25  146028  146025      24  146031  146025      24  146031
  146028      25  146037  146034      24  146040  146034      24  146040  146037
      25  146046  146043      24  146049  146043      24  146049  146046      25
  146055  146052      24  146058  146052      24  146058  146055      25  146064
  146061      24  146067  146061      24  146067  146064      25  146073  146070
      24  146076  146070      24  146076  146073      25  146082  146079      24
  146085  146079      24  146085  146082      25  146091  146088      24  146094
  146088      24  146094  146091      25  146100  146097      24  146103  146097
      24  146103  146100      25  146109  146106      24  146112  146106      24
  146112  146109      25  146118  146115      24  146121  146115      24  146121
  146118      25  146127  146124      24  146130  146124      24  146130  146127
      25  146136  146133      24  146139  146133      24  146139  146136      25
  146145  146142      24  146148  146142      24  146148  146145      25  146154
  146151      24  146157  146151      24  146157  146154      25  146163  146160
      24  146166  146160      24  146166  146163      25  146172  146169      24
  146175  146169      24  146175  146172      25  146181  146178      24  146184
  146178      24  146184  146181      25  146190  146187      24  146193  146187
      24  146193  146190      25  146199  146196      24  146202  146196      24
  146202  146199      25  146208  146205      24  146211  146205      24  146211
  146208      25  146217  146214      24  146220  146214      24  146220  146217
      25  146226  146223      24  146229  146223      24  146229  146226      25
  146235  146232      24  146238  146232      24  146238  146235      25  146244
  146241      24  146247  146241      24  146247  146244      25  146253  146250
      24  146256  146250      24  146256  146253      25  146262  146259      24
  146265  146259      24  146265  146262      25  146271  146268      24  146274
  146268      24  146274  146271      25  146280  146277      24  146283  146277
      24  146283  146280      25  146289  146286      24  146292  146286      24
  146292  146289      25  146298  146295      24  146301  146295      24  146301
  146298      25  146307  146304      24  146310  146304      24  146310  146307
      25  146316  146313      24  146319  146313      24  146319  146316      25
  146325  146322      24  146328  146322      24  146328  146325      25  146334
  146331      24  146337  146331      24  146337  146334      25  146343  146340
      24  146346  146340      24  146346  146343      25  146352  146349      24
  146355  146349      24  146355  146352      25  146361  146358      24  146364
  146358      24  146364  146361      25  146370  146367      24  146373  146367
      24  146373  146370      25  146379  146376      24  146382  146376      24
  146382  146379      25  146388  146385      24  146391  146385      24  146391
  146388      25  146397  146394      24  146400  146394      24  146400  146397
      25  146406  146403      24  146409  146403      24  146409  146406      25
  146415  146412      24  146418  146412      24  146418  146415      25  146424
  146421      24  146427  146421      24  146427  146424      25  146433  146430
      24  146436  146430      24  146436  146433      25  146442  146439      24
  146445  146439      24  146445  146442      25  146451  146448      24  146454
  146448      24  146454  146451      25  146460  146457      24  146463  146457
      24  146463  146460      25  146469  146466      24  146472  146466      24
  146472  146469      25  146478  146475      24  146481  146475      24  146481
  146478      25  146487  146484      24  146490  146484      24  146490  146487
      25  146496  146493      24  146499  146493      24  146499  146496      25
  146505  146502      24  146508  146502      24  146508  146505      25  146514
  146511      24  146517  146511      24  146517  146514      25  146523  146520
      24  146526  146520      24  146526  146523      25  146532  146529      24
  146535  146529      24  146535  146532      25  146541  146538      24  146544
  146538      24  146544  146541      25  146550  146547      24  146553  146547
      24  146553  146550      25  146559  146556      24  146562  146556      24
  146562  146559      25  146568  146565      24  146571  146565      24  146571
  146568      25  146577  146574      24  146580  146574      24  146580  146577
      25  146586  146583      24  146589  146583      24  146589  146586      25
  146595  146592      24  146598  146592      24  146598  146595      25  146604
  146601      24  146607  146601      24  146607  146604      25  146613  146610
      24  146616  146610      24  146616  146613      25  146622  146619      24
  146625  146619      24  146625  146622      25  146631  146628      24  146634
  146628      24  146634  146631      25  146640  146637      24  146643  146637
      24  146643  146640      25  146649  146646      24  146652  146646      24
  146652  146649      25  146658  146655      24  146661  146655      24  146661
  146658      25  146667  146664      24  146670  146664      24  146670  146667
      25  146676  146673      24  146679  146673      24  146679  146676      25
  146685  146682      24  146688  146682      24  146688  146685      25  146694
  146691      24  146697  146691      24  146697  146694      25  146703  146700
      24  146706  146700      24  146706  146703      25  146712  146709      24
  146715  146709      24  146715  146712      25  146721  146718      24  146724
  146718      24  146724  146721      25  146730  146727      24  146733  146727
      24  146733  146730      25  146739  146736      24  146742  146736      24
  146742  146739      25  146748  146745      24  146751  146745      24  146751
  146748      25  146757  146754      24  146760  146754      24  146760  146757
      25  146766  146763      24  146769  146763      24  146769  146766      25
  146775  146772      24  146778  146772      24  146778  146775      25  146784
  146781      24  146787  146781      24  146787  146784      25  146793  146790
      24  146796  146790      24  146796  146793      25  146802  146799      24
  146805  146799      24  146805  146802      25  146811  146808      24  146814
  146808      24  146814  146811      25  146820  146817      24  146823  146817
      24  146823  146820      25  146829  146826      24  146832  146826      24
  146832  146829      25  146838  146835      24  146841  146835      24  146841
  146838      25  146847  146844      24  146850  146844      24  146850  146847
      25  146856  146853      24  146859  146853      24  146859  146856      25
  146865  146862      24  146868  146862      24  146868  146865      25  146874
  146871      24  146877  146871      24  146877  146874      25  146883  146880
      24  146886  146880      24  146886  146883      25  146892  146889      24
  146895  146889      24  146895  146892      25  146901  146898      24  146904
  146898      24  146904  146901      25  146910  146907      24  146913  146907
      24  146913  146910      25  146919  146916      24  146922  146916      24
  146922  146919      25  146928  146925      24  146931  146925      24  146931
  146928      25  146937  146934      24  146940  146934      24  146940  146937
      25  146946  146943      24  146949  146943      24  146949  146946      25
  146955  146952      24  146958  146952      24  146958  146955      25  146964
  146961      24  146967  146961      24  146967  146964      25  146973  146970
      24  146976  146970      24  146976  146973      25  146982  146979      24
  146985  146979      24  146985  146982      25  146991  146988      24  146994
  146988      24  146994  146991      25  147000  146997      24  147003  146997
      24  147003  147000      25  147009  147006      24  147012  147006      24
  147012  147009      25  147018  147015      24  147021  147015      24  147021
  147018      25  147027  147024      24  147030  147024      24  147030  147027
      25  147036  147033      24  147039  147033      24  147039  147036      25
  147045  147042      24  147048  147042      24  147048  147045      25  147054
  147051      24  147057  147051      24  147057  147054      25  147063  147060
      24  147066  147060      24  147066  147063      25  147072  147069      24
  147075  147069      24  147075  147072      25  147081  147078      24  147084
  147078      24  147084  147081      25  147090  147087      24  147093  147087
      24  147093  147090      25  147099  147096      24  147102  147096      24
  147102  147099      25  147108  147105      24  147111  147105      24  147111
  147108      25  147117  147114      24  147120  147114      24  147120  147117
      25  147126  147123      24  147129  147123      24  147129  147126      25
  147135  147132      24  147138  147132      24  147138  147135      25  147144
  147141      24  147147  147141      24  147147  147144      25  147153  147150
      24  147156  147150      24  147156  147153      25  147162  147159      24
  147165  147159      24  147165  147162      25  147171  147168      24  147174
  147168      24  147174  147171      25  147180  147177      24  147183  147177
      24  147183  147180      25  147189  147186      24  147192  147186      24
  147192  147189      25  147198  147195      24  147201  147195      24  147201
  147198      25  147207  147204      24  147210  147204      24  147210  147207
      25  147216  147213      24  147219  147213      24  147219  147216      25
  147225  147222      24  147228  147222      24  147228  147225      25  147234
  147231      24  147237  147231      24  147237  147234      25  147243  147240
      24  147246  147240      24  147246  147243      25  147252  147249      24
  147255  147249      24  147255  147252      25  147261  147258      24  147264
  147258      24  147264  147261      25  147270  147267      24  147273  147267
      24  147273  147270      25  147279  147276      24  147282  147276      24
  147282  147279      25  147288  147285      24  147291  147285      24  147291
  147288      25  147297  147294      24  147300  147294      24  147300  147297
      25  147306  147303      24  147309  147303      24  147309  147306      25
  147315  147312      24  147318  147312      24  147318  147315      25  147324
  147321      24  147327  147321      24  147327  147324      25  147333  147330
      24  147336  147330      24  147336  147333      25  147342  147339      24
  147345  147339      24  147345  147342      25  147351  147348      24  147354
  147348      24  147354  147351      25  147360  147357      24  147363  147357
      24  147363  147360      25  147369  147366      24  147372  147366      24
  147372  147369      25  147378  147375      24  147381  147375      24  147381
  147378      25  147387  147384      24  147390  147384      24  147390  147387
      25  147396  147393      24  147399  147393      24  147399  147396      25
  147405  147402      24  147408  147402      24  147408  147405      25  147414
  147411      24  147417  147411      24  147417  147414      25  147423  147420
      24  147426  147420      24  147426  147423      25  147432  147429      24
  147435  147429      24  147435  147432      25  147441  147438      24  147444
  147438      24  147444  147441      25  147450  147447      24  147453  147447
      24  147453  147450      25  147459  147456      24  147462  147456      24
  147462  147459      25  147468  147465      24  147471  147465      24  147471
  147468      25  147477  147474      24  147480  147474      24  147480  147477
      25  147486  147483      24  147489  147483      24  147489  147486      25
  147495  147492      24  147498  147492      24  147498  147495      25  147504
  147501      24  147507  147501      24  147507  147504      25  147513  147510
      24  147516  147510      24  147516  147513      25  147522  147519      24
  147525  147519      24  147525  147522      25  147531  147528      24  147534
  147528      24  147534  147531      25  147540  147537      24  147543  147537
      24  147543  147540      25  147549  147546      24  147552  147546      24
  147552  147549      25  147558  147555      24  147561  147555      24  147561
  147558      25  147567  147564      24  147570  147564      24  147570  147567
      25  147576  147573      24  147579  147573      24  147579  147576      25
  147585  147582      24  147588  147582      24  147588  147585      25  147594
  147591      24  147597  147591      24  147597  147594      25  147603  147600
      24  147606  147600      24  147606  147603      25  147612  147609      24
  147615  147609      24  147615  147612      25  147621  147618      24  147624
  147618      24  147624  147621      25  147630  147627      24  147633  147627
      24  147633  147630      25  147639  147636      24  147642  147636      24
  147642  147639      25  147648  147645      24  147651  147645      24  147651
  147648      25  147657  147654      24  147660  147654      24  147660  147657
      25  147666  147663      24  147669  147663      24  147669  147666      25
  147675  147672      24  147678  147672      24  147678  147675      25  147684
  147681      24  147687  147681      24  147687  147684      25  147693  147690
      24  147696  147690      24  147696  147693      25  147702  147699      24
  147705  147699      24  147705  147702      25  147711  147708      24  147714
  147708      24  147714  147711      25  147720  147717      24  147723  147717
      24  147723  147720      25  147729  147726      24  147732  147726      24
  147732  147729      25  147738  147735      24  147741  147735      24  147741
  147738      25  147747  147744      24  147750  147744      24  147750  147747
      25  147756  147753      24  147759  147753      24  147759  147756      25
  147765  147762      24  147768  147762      24  147768  147765      25  147774
  147771      24  147777  147771      24  147777  147774      25  147783  147780
      24  147786  147780      24  147786  147783      25  147792  147789      24
  147795  147789      24  147795  147792      25  147801  147798      24  147804
  147798      24  147804  147801      25  147810  147807      24  147813  147807
      24  147813  147810      25  147819  147816      24  147822  147816      24
  147822  147819      25  147828  147825      24  147831  147825      24  147831
  147828      25  147837  147834      24  147840  147834      24  147840  147837
      25  147846  147843      24  147849  147843      24  147849  147846      25
  147855  147852      24  147858  147852      24  147858  147855      25  147864
  147861      24  147867  147861      24  147867  147864      25  147873  147870
      24  147876  147870      24  147876  147873      25  147882  147879      24
  147885  147879      24  147885  147882      25  147891  147888      24  147894
  147888      24  147894  147891      25  147900  147897      24  147903  147897
      24  147903  147900      25  147909  147906      24  147912  147906      24
  147912  147909      25  147918  147915      24  147921  147915      24  147921
  147918      25  147927  147924      24  147930  147924      24  147930  147927
      25  147936  147933      24  147939  147933      24  147939  147936      25
  147945  147942      24  147948  147942      24  147948  147945      25  147954
  147951      24  147957  147951      24  147957  147954      25  147963  147960
      24  147966  147960      24  147966  147963      25  147972  147969      24
  147975  147969      24  147975  147972      25  147981  147978      24  147984
  147978      24  147984  147981      25  147990  147987      24  147993  147987
      24  147993  147990      25  147999  147996      24  148002  147996      24
  148002  147999      25  148008  148005      24  148011  148005      24  148011
  148008      25  148017  148014      24  148020  148014      24  148020  148017
      25  148026  148023      24  148029  148023      24  148029  148026      25
  148035  148032      24  148038  148032      24  148038  148035      25  148044
  148041      24  148047  148041      24  148047  148044      25  148053  148050
      24  148056  148050      24  148056  148053      25  148062  148059      24
  148065  148059      24  148065  148062      25  148071  148068      24  148074
  148068      24  148074  148071      25  148080  148077      24  148083  148077
      24  148083  148080      25  148089  148086      24  148092  148086      24
  148092  148089      25  148098  148095      24  148101  148095      24  148101
  148098      25  148107  148104      24  148110  148104      24  148110  148107
      25  148116  148113      24  148119  148113      24  148119  148116      25
  148125  148122      24  148128  148122      24  148128  148125      25  148134
  148131      24  148137  148131      24  148137  148134      25  148143  148140
      24  148146  148140      24  148146  148143      25  148152  148149      24
  148155  148149      24  148155  148152      25  148161  148158      24  148164
  148158      24  148164  148161      25  148170  148167      24  148173  148167
      24  148173  148170      25  148179  148176      24  148182  148176      24
  148182  148179      25  148188  148185      24  148191  148185      24  148191
  148188      25  148197  148194      24  148200  148194      24  148200  148197
      25  148206  148203      24  148209  148203      24  148209  148206      25
  148215  148212      24  148218  148212      24  148218  148215      25  148224
  148221      24  148227  148221      24  148227  148224      25  148233  148230
      24  148236  148230      24  148236  148233      25  148242  148239      24
  148245  148239      24  148245  148242      25  148251  148248      24  148254
  148248      24  148254  148251      25  148260  148257      24  148263  148257
      24  148263  148260      25  148269  148266      24  148272  148266      24
  148272  148269      25  148278  148275      24  148281  148275      24  148281
  148278      25  148287  148284      24  148290  148284      24  148290  148287
      25  148296  148293      24  148299  148293      24  148299  148296      25
  148305  148302      24  148308  148302      24  148308  148305      25  148314
  148311      24  148317  148311      24  148317  148314      25  148323  148320
      24  148326  148320      24  148326  148323      25  148332  148329      24
  148335  148329      24  148335  148332      25  148341  148338      24  148344
  148338      24  148344  148341      25  148350  148347      24  148353  148347
      24  148353  148350      25  148359  148356      24  148362  148356      24
  148362  148359      25  148368  148365      24  148371  148365      24  148371
  148368      25  148377  148374      24  148380  148374      24  148380  148377
      25  148386  148383      24  148389  148383      24  148389  148386      25
  148395  148392      24  148398  148392      24  148398  148395      25  148404
  148401      24  148407  148401      24  148407  148404      25  148413  148410
      24  148416  148410      24  148416  148413      25  148422  148419      24
  148425  148419      24  148425  148422      25  148431  148428      24  148434
  148428      24  148434  148431      25  148440  148437      24  148443  148437
      24  148443  148440      25  148449  148446      24  148452  148446      24
  148452  148449      25  148458  148455      24  148461  148455      24  148461
  148458      25  148467  148464      24  148470  148464      24  148470  148467
      25  148476  148473      24  148479  148473      24  148479  148476      25
  148485  148482      24  148488  148482      24  148488  148485      25  148494
  148491      24  148497  148491      24  148497  148494      25  148503  148500
      24  148506  148500      24  148506  148503      25  148512  148509      24
  148515  148509      24  148515  148512      25  148521  148518      24  148524
  148518      24  148524  148521      25  148530  148527      24  148533  148527
      24  148533  148530      25  148539  148536      24  148542  148536      24
  148542  148539      25  148548  148545      24  148551  148545      24  148551
  148548      25  148557  148554      24  148560  148554      24  148560  148557
      25  148566  148563      24  148569  148563      24  148569  148566      25
  148575  148572      24  148578  148572      24  148578  148575      25  148584
  148581      24  148587  148581      24  148587  148584      25  148593  148590
      24  148596  148590      24  148596  148593      25  148602  148599      24
  148605  148599      24  148605  148602      25  148611  148608      24  148614
  148608      24  148614  148611      25  148620  148617      24  148623  148617
      24  148623  148620      25  148629  148626      24  148632  148626      24
  148632  148629      25  148638  148635      24  148641  148635      24  148641
  148638      25  148647  148644      24  148650  148644      24  148650  148647
      25  148656  148653      24  148659  148653      24  148659  148656      25
  148665  148662      24  148668  148662      24  148668  148665      25  148674
  148671      24  148677  148671      24  148677  148674      25  148683  148680
      24  148686  148680      24  148686  148683      25  148692  148689      24
  148695  148689      24  148695  148692      25  148701  148698      24  148704
  148698      24  148704  148701      25  148710  148707      24  148713  148707
      24  148713  148710      25  148719  148716      24  148722  148716      24
  148722  148719      25  148728  148725      24  148731  148725      24  148731
  148728      25  148737  148734      24  148740  148734      24  148740  148737
      25  148746  148743      24  148749  148743      24  148749  148746      25
  148755  148752      24  148758  148752      24  148758  148755      25  148764
  148761      24  148767  148761      24  148767  148764      25  148773  148770
      24  148776  148770      24  148776  148773      25  148782  148779      24
  148785  148779      24  148785  148782      25  148791  148788      24  148794
  148788      24  148794  148791      25  148800  148797      24  148803  148797
      24  148803  148800      25  148809  148806      24  148812  148806      24
  148812  148809      25  148818  148815      24  148821  148815      24  148821
  148818      25  148827  148824      24  148830  148824      24  148830  148827
      25  148836  148833      24  148839  148833      24  148839  148836      25
  148845  148842      24  148848  148842      24  148848  148845      25  148854
  148851      24  148857  148851      24  148857  148854      25  148863  148860
      24  148866  148860      24  148866  148863      25  148872  148869      24
  148875  148869      24  148875  148872      25  148881  148878      24  148884
  148878      24  148884  148881      25  148890  148887      24  148893  148887
      24  148893  148890      25  148899  148896      24  148902  148896      24
  148902  148899      25  148908  148905      24  148911  148905      24  148911
  148908      25  148917  148914      24  148920  148914      24  148920  148917
      25  148926  148923      24  148929  148923      24  148929  148926      25
  148935  148932      24  148938  148932      24  148938  148935      25  148944
  148941      24  148947  148941      24  148947  148944      25  148953  148950
      24  148956  148950      24  148956  148953      25  148962  148959      24
  148965  148959      24  148965  148962      25  148971  148968      24  148974
  148968      24  148974  148971      25  148980  148977      24  148983  148977
      24  148983  148980      25  148989  148986      24  148992  148986      24
  148992  148989      25  148998  148995      24  149001  148995      24  149001
  148998      25  149007  149004      24  149010  149004      24  149010  149007
      25  149016  149013      24  149019  149013      24  149019  149016      25
  149025  149022      24  149028  149022      24  149028  149025      25  149034
  149031      24  149037  149031      24  149037  149034      25  149043  149040
      24  149046  149040      24  149046  149043      25  149052  149049      24
  149055  149049      24  149055  149052      25  149061  149058      24  149064
  149058      24  149064  149061      25  149070  149067      24  149073  149067
      24  149073  149070      25  149079  149076      24  149082  149076      24
  149082  149079      25  149088  149085      24  149091  149085      24  149091
  149088      25  149097  149094      24  149100  149094      24  149100  149097
      25  149106  149103      24  149109  149103      24  149109  149106      25
  149115  149112      24  149118  149112      24  149118  149115      25  149124
  149121      24  149127  149121      24  149127  149124      25  149133  149130
      24  149136  149130      24  149136  149133      25  149142  149139      24
  149145  149139      24  149145  149142      25  149151  149148      24  149154
  149148      24  149154  149151      25  149160  149157      24  149163  149157
      24  149163  149160      25  149169  149166      24  149172  149166      24
  149172  149169      25  149178  149175      24  149181  149175      24  149181
  149178      25  149187  149184      24  149190  149184      24  149190  149187
      25  149196  149193      24  149199  149193      24  149199  149196      25
  149205  149202      24  149208  149202      24  149208  149205      25  149214
  149211      24  149217  149211      24  149217  149214      25  149223  149220
      24  149226  149220      24  149226  149223      25  149232  149229      24
  149235  149229      24  149235  149232      25  149241  149238      24  149244
  149238      24  149244  149241      25  149250  149247      24  149253  149247
      24  149253  149250      25  149259  149256      24  149262  149256      24
  149262  149259      25  149268  149265      24  149271  149265      24  149271
  149268      25  149277  149274      24  149280  149274      24  149280  149277
      25  149286  149283      24  149289  149283      24  149289  149286      25
  149295  149292      24  149298  149292      24  149298  149295      25  149304
  149301      24  149307  149301      24  149307  149304      25  149313  149310
      24  149316  149310      24  149316  149313      25  149322  149319      24
  149325  149319      24  149325  149322      25  149331  149328      24  149334
  149328      24  149334  149331      25  149340  149337      24  149343  149337
      24  149343  149340      25  149349  149346      24  149352  149346      24
  149352  149349      25  149358  149355      24  149361  149355      24  149361
  149358      25  149367  149364      24  149370  149364      24  149370  149367
      25  149376  149373      24  149379  149373      24  149379  149376      25
  149385  149382      24  149388  149382      24  149388  149385      25  149394
  149391      24  149397  149391      24  149397  149394      25  149403  149400
      24  149406  149400      24  149406  149403      25  149412  149409      24
  149415  149409      24  149415  149412      25  149421  149418      24  149424
  149418      24  149424  149421      25  149430  149427      24  149433  149427
      24  149433  149430      25  149439  149436      24  149442  149436      24
  149442  149439      25  149448  149445      24  149451  149445      24  149451
  149448      25  149457  149454      24  149460  149454      24  149460  149457
      25  149466  149463      24  149469  149463      24  149469  149466      25
  149475  149472      24  149478  149472      24  149478  149475      25  149484
  149481      24  149487  149481      24  149487  149484      25  149493  149490
      24  149496  149490      24  149496  149493      25  149502  149499      24
  149505  149499      24  149505  149502      25  149511  149508      24  149514
  149508      24  149514  149511      25  149520  149517      24  149523  149517
      24  149523  149520      25  149529  149526      24  149532  149526      24
  149532  149529      25  149538  149535      24  149541  149535      24  149541
  149538      25  149547  149544      24  149550  149544      24  149550  149547
      25  149556  149553      24  149559  149553      24  149559  149556      25
  149565  149562      24  149568  149562      24  149568  149565      25  149574
  149571      24  149577  149571      24  149577  149574      25  149583  149580
      24  149586  149580      24  149586  149583      25  149592  149589      24
  149595  149589      24  149595  149592      25  149601  149598      24  149604
  149598      24  149604  149601      25  149610  149607      24  149613  149607
      24  149613  149610      25  149619  149616      24  149622  149616      24
  149622  149619      25  149628  149625      24  149631  149625      24  149631
  149628      25  149637  149634      24  149640  149634      24  149640  149637
      25  149646  149643      24  149649  149643      24  149649  149646      25
  149655  149652      24  149658  149652      24  149658  149655      25  149664
  149661      24  149667  149661      24  149667  149664      25  149673  149670
      24  149676  149670      24  149676  149673      25  149682  149679      24
  149685  149679      24  149685  149682      25  149691  149688      24  149694
  149688      24  149694  149691      25  149700  149697      24  149703  149697
      24  149703  149700      25  149709  149706      24  149712  149706      24
  149712  149709      25  149718  149715      24  149721  149715      24  149721
  149718      25  149727  149724      24  149730  149724      24  149730  149727
      25  149736  149733      24  149739  149733      24  149739  149736      25
  149745  149742      24  149748  149742      24  149748  149745      25  149754
  149751      24  149757  149751      24  149757  149754      25  149763  149760
      24  149766  149760      24  149766  149763      25  149772  149769      24
  149775  149769      24  149775  149772      25  149781  149778      24  149784
  149778      24  149784  149781      25  149790  149787      24  149793  149787
      24  149793  149790      25  149799  149796      24  149802  149796      24
  149802  149799      25  149808  149805      24  149811  149805      24  149811
  149808      25  149817  149814      24  149820  149814      24  149820  149817
      25  149826  149823      24  149829  149823      24  149829  149826      25
  149835  149832      24  149838  149832      24  149838  149835      25  149844
  149841      24  149847  149841      24  149847  149844      25  149853  149850
      24  149856  149850      24  149856  149853      25  149862  149859      24
  149865  149859      24  149865  149862      25  149871  149868      24  149874
  149868      24  149874  149871      25  149880  149877      24  149883  149877
      24  149883  149880      25  149889  149886      24  149892  149886      24
  149892  149889      25  149898  149895      24  149901  149895      24  149901
  149898      25  149907  149904      24  149910  149904      24  149910  149907
      25  149916  149913      24  149919  149913      24  149919  149916      25
  149925  149922      24  149928  149922      24  149928  149925      25  149934
  149931      24  149937  149931      24  149937  149934      25  149943  149940
      24  149946  149940      24  149946  149943      25  149952  149949      24
  149955  149949      24  149955  149952      25  149961  149958      24  149964
  149958      24  149964  149961      25  149970  149967      24  149973  149967
      24  149973  149970      25  149979  149976      24  149982  149976      24
  149982  149979      25  149988  149985      24  149991  149985      24  149991
  149988      25  149997  149994      24  150000  149994      24  150000  149997
      25  150006  150003      24  150009  150003      24  150009  150006      25
  150015  150012      24  150018  150012      24  150018  150015      25  150024
  150021      24  150027  150021      24  150027  150024      25  150033  150030
      24  150036  150030      24  150036  150033      25  150042  150039      24
  150045  150039      24  150045  150042      25  150051  150048      24  150054
  150048      24  150054  150051      25  150060  150057      24  150063  150057
      24  150063  150060      25  150069  150066      24  150072  150066      24
  150072  150069      25  150078  150075      24  150081  150075      24  150081
  150078      25  150087  150084      24  150090  150084      24  150090  150087
      25  150096  150093      24  150099  150093      24  150099  150096      25
  150105  150102      24  150108  150102      24  150108  150105      25  150114
  150111      24  150117  150111      24  150117  150114      25  150123  150120
      24  150126  150120      24  150126  150123      25  150132  150129      24
  150135  150129      24  150135  150132      25  150141  150138      24  150144
  150138      24  150144  150141      25  150150  150147      24  150153  150147
      24  150153  150150      25  150159  150156      24  150162  150156      24
  150162  150159      25  150168  150165      24  150171  150165      24  150171
  150168      25  150177  150174      24  150180  150174      24  150180  150177
      25  150186  150183      24  150189  150183      24  150189  150186      25
  150195  150192      24  150198  150192      24  150198  150195      25  150204
  150201      24  150207  150201      24  150207  150204      25  150213  150210
      24  150216  150210      24  150216  150213      25  150222  150219      24
  150225  150219      24  150225  150222      25  150231  150228      24  150234
  150228      24  150234  150231      25  150240  150237      24  150243  150237
      24  150243  150240      25  150249  150246      24  150252  150246      24
  150252  150249      25  150258  150255      24  150261  150255      24  150261
  150258      25  150267  150264      24  150270  150264      24  150270  150267
      25  150276  150273      24  150279  150273      24  150279  150276      25
  150285  150282      24  150288  150282      24  150288  150285      25  150294
  150291      24  150297  150291      24  150297  150294      25  150303  150300
      24  150306  150300      24  150306  150303      25  150312  150309      24
  150315  150309      24  150315  150312      25  150321  150318      24  150324
  150318      24  150324  150321      25  150330  150327      24  150333  150327
      24  150333  150330      25  150339  150336      24  150342  150336      24
  150342  150339      25  150348  150345      24  150351  150345      24  150351
  150348      25  150357  150354      24  150360  150354      24  150360  150357
      25  150366  150363      24  150369  150363      24  150369  150366      25
  150375  150372      24  150378  150372      24  150378  150375      25  150384
  150381      24  150387  150381      24  150387  150384      25  150393  150390
      24  150396  150390      24  150396  150393      25  150402  150399      24
  150405  150399      24  150405  150402      25  150411  150408      24  150414
  150408      24  150414  150411      25  150420  150417      24  150423  150417
      24  150423  150420      25  150429  150426      24  150432  150426      24
  150432  150429      25  150438  150435      24  150441  150435      24  150441
  150438      25  150447  150444      24  150450  150444      24  150450  150447
      25  150456  150453      24  150459  150453      24  150459  150456      25
  150465  150462      24  150468  150462      24  150468  150465      25  150474
  150471      24  150477  150471      24  150477  150474      25  150483  150480
      24  150486  150480      24  150486  150483      25  150492  150489      24
  150495  150489      24  150495  150492      25  150501  150498      24  150504
  150498      24  150504  150501      25  150510  150507      24  150513  150507
      24  150513  150510      25  150519  150516      24  150522  150516      24
  150522  150519      25  150528  150525      24  150531  150525      24  150531
  150528      25  150537  150534      24  150540  150534      24  150540  150537
      25  150546  150543      24  150549  150543      24  150549  150546      25
  150555  150552      24  150558  150552      24  150558  150555      25  150564
  150561      24  150567  150561      24  150567  150564      25  150573  150570
      24  150576  150570      24  150576  150573      25  150582  150579      24
  150585  150579      24  150585  150582      25  150591  150588      24  150594
  150588      24  150594  150591      25  150600  150597      24  150603  150597
      24  150603  150600      25  150609  150606      24  150612  150606      24
  150612  150609      25  150618  150615      24  150621  150615      24  150621
  150618      25  150627  150624      24  150630  150624      24  150630  150627
      25  150636  150633      24  150639  150633      24  150639  150636      25
  150645  150642      24  150648  150642      24  150648  150645      25  150654
  150651      24  150657  150651      24  150657  150654      25  150663  150660
      24  150666  150660      24  150666  150663      25  150672  150669      24
  150675  150669      24  150675  150672      25  150681  150678      24  150684
  150678      24  150684  150681      25  150690  150687      24  150693  150687
      24  150693  150690      25  150699  150696      24  150702  150696      24
  150702  150699      25  150708  150705      24  150711  150705      24  150711
  150708      25  150717  150714      24  150720  150714      24  150720  150717
      25  150726  150723      24  150729  150723      24  150729  150726      25
  150735  150732      24  150738  150732      24  150738  150735      25  150744
  150741      24  150747  150741      24  150747  150744      25  150753  150750
      24  150756  150750      24  150756  150753      25  150762  150759      24
  150765  150759      24  150765  150762      25  150771  150768      24  150774
  150768      24  150774  150771      25  150780  150777      24  150783  150777
      24  150783  150780      25  150789  150786      24  150792  150786      24
  150792  150789      25  150798  150795      24  150801  150795      24  150801
  150798      25  150807  150804      24  150810  150804      24  150810  150807
      25  150816  150813      24  150819  150813      24  150819  150816      25
  150825  150822      24  150828  150822      24  150828  150825      25  150834
  150831      24  150837  150831      24  150837  150834      25  150843  150840
      24  150846  150840      24  150846  150843      25  150852  150849      24
  150855  150849      24  150855  150852      25  150861  150858      24  150864
  150858      24  150864  150861      25  150870  150867      24  150873  150867
      24  150873  150870      25  150879  150876      24  150882  150876      24
  150882  150879      25  150888  150885      24  150891  150885      24  150891
  150888      25  150897  150894      24  150900  150894      24  150900  150897
      25  150906  150903      24  150909  150903      24  150909  150906      25
  150915  150912      24  150918  150912      24  150918  150915      25  150924
  150921      24  150927  150921      24  150927  150924      25  150933  150930
      24  150936  150930      24  150936  150933      25  150942  150939      24
  150945  150939      24  150945  150942      25  150951  150948      24  150954
  150948      24  150954  150951      25  150960  150957      24  150963  150957
      24  150963  150960      25  150969  150966      24  150972  150966      24
  150972  150969      25  150978  150975      24  150981  150975      24  150981
  150978      25  150987  150984      24  150990  150984      24  150990  150987
      25  150996  150993      24  150999  150993      24  150999  150996      25
  151005  151002      24  151008  151002      24  151008  151005      25  151014
  151011      24  151017  151011      24  151017  151014      25  151023  151020
      24  151026  151020      24  151026  151023      25  151032  151029      24
  151035  151029      24  151035  151032      25  151041  151038      24  151044
  151038      24  151044  151041      25  151050  151047      24  151053  151047
      24  151053  151050      25  151059  151056      24  151062  151056      24
  151062  151059      25  151068  151065      24  151071  151065      24  151071
  151068      25  151077  151074      24  151080  151074      24  151080  151077
      25  151086  151083      24  151089  151083      24  151089  151086      25
  151095  151092      24  151098  151092      24  151098  151095      25  151104
  151101      24  151107  151101      24  151107  151104      25  151113  151110
      24  151116  151110      24  151116  151113      25  151122  151119      24
  151125  151119      24  151125  151122      25  151131  151128      24  151134
  151128      24  151134  151131      25  151140  151137      24  151143  151137
      24  151143  151140      25  151149  151146      24  151152  151146      24
  151152  151149      25  151158  151155      24  151161  151155      24  151161
  151158      25  151167  151164      24  151170  151164      24  151170  151167
      25  151176  151173      24  151179  151173      24  151179  151176      25
  151185  151182      24  151188  151182      24  151188  151185      25  151194
  151191      24  151197  151191      24  151197  151194      25  151203  151200
      24  151206  151200      24  151206  151203      25  151212  151209      24
  151215  151209      24  151215  151212      25  151221  151218      24  151224
  151218      24  151224  151221      25  151230  151227      24  151233  151227
      24  151233  151230      25  151239  151236      24  151242  151236      24
  151242  151239      25  151248  151245      24  151251  151245      24  151251
  151248      25  151257  151254      24  151260  151254      24  151260  151257
      25  151266  151263      24  151269  151263      24  151269  151266      25
  151275  151272      24  151278  151272      24  151278  151275      25  151284
  151281      24  151287  151281      24  151287  151284      25  151293  151290
      24  151296  151290      24  151296  151293      25  151302  151299      24
  151305  151299      24  151305  151302      25  151311  151308      24  151314
  151308      24  151314  151311      25  151320  151317      24  151323  151317
      24  151323  151320      25  151329  151326      24  151332  151326      24
  151332  151329      25  151338  151335      24  151341  151335      24  151341
  151338      25  151347  151344      24  151350  151344      24  151350  151347
      25  151356  151353      24  151359  151353      24  151359  151356      25
  151365  151362      24  151368  151362      24  151368  151365      25  151374
  151371      24  151377  151371      24  151377  151374      25  151383  151380
      24  151386  151380      24  151386  151383      25  151392  151389      24
  151395  151389      24  151395  151392      25  151401  151398      24  151404
  151398      24  151404  151401      25  151410  151407      24  151413  151407
      24  151413  151410      25  151419  151416      24  151422  151416      24
  151422  151419      25  151428  151425      24  151431  151425      24  151431
  151428      25  151437  151434      24  151440  151434      24  151440  151437
      25  151446  151443      24  151449  151443      24  151449  151446      25
  151455  151452      24  151458  151452      24  151458  151455      25  151464
  151461      24  151467  151461      24  151467  151464      25  151473  151470
      24  151476  151470      24  151476  151473      25  151482  151479      24
  151485  151479      24  151485  151482      25  151491  151488      24  151494
  151488      24  151494  151491      25  151500  151497      24  151503  151497
      24  151503  151500      25  151509  151506      24  151512  151506      24
  151512  151509      25  151518  151515      24  151521  151515      24  151521
  151518      25  151527  151524      24  151530  151524      24  151530  151527
      25  151536  151533      24  151539  151533      24  151539  151536      25
  151545  151542      24  151548  151542      24  151548  151545      25  151554
  151551      24  151557  151551      24  151557  151554      25  151563  151560
      24  151566  151560      24  151566  151563      25  151572  151569      24
  151575  151569      24  151575  151572      25  151581  151578      24  151584
  151578      24  151584  151581      25  151590  151587      24  151593  151587
      24  151593  151590      25  151599  151596      24  151602  151596      24
  151602  151599      25  151608  151605      24  151611  151605      24  151611
  151608      25  151617  151614      24  151620  151614      24  151620  151617
      25  151626  151623      24  151629  151623      24  151629  151626      25
  151635  151632      24  151638  151632      24  151638  151635      25  151644
  151641      24  151647  151641      24  151647  151644      25  151653  151650
      24  151656  151650      24  151656  151653      25  151662  151659      24
  151665  151659      24  151665  151662      25  151671  151668      24  151674
  151668      24  151674  151671      25  151680  151677      24  151683  151677
      24  151683  151680      25  151689  151686      24  151692  151686      24
  151692  151689      25  151698  151695      24  151701  151695      24  151701
  151698      25  151707  151704      24  151710  151704      24  151710  151707
      25  151716  151713      24  151719  151713      24  151719  151716      25
  151725  151722      24  151728  151722      24  151728  151725      25  151734
  151731      24  151737  151731      24  151737  151734      25  151743  151740
      24  151746  151740      24  151746  151743      25  151752  151749      24
  151755  151749      24  151755  151752      25  151761  151758      24  151764
  151758      24  151764  151761      25  151770  151767      24  151773  151767
      24  151773  151770      25  151779  151776      24  151782  151776      24
  151782  151779      25  151788  151785      24  151791  151785      24  151791
  151788      25  151797  151794      24  151800  151794      24  151800  151797
      25  151806  151803      24  151809  151803      24  151809  151806      25
  151815  151812      24  151818  151812      24  151818  151815      25  151824
  151821      24  151827  151821      24  151827  151824      25  151833  151830
      24  151836  151830      24  151836  151833      25  151842  151839      24
  151845  151839      24  151845  151842      25  151851  151848      24  151854
  151848      24  151854  151851      25  151860  151857      24  151863  151857
      24  151863  151860      25  151869  151866      24  151872  151866      24
  151872  151869      25  151878  151875      24  151881  151875      24  151881
  151878      25  151887  151884      24  151890  151884      24  151890  151887
      25  151896  151893      24  151899  151893      24  151899  151896      25
  151905  151902      24  151908  151902      24  151908  151905      25  151914
  151911      24  151917  151911      24  151917  151914      25  151923  151920
      24  151926  151920      24  151926  151923      25  151932  151929      24
  151935  151929      24  151935  151932      25  151941  151938      24  151944
  151938      24  151944  151941      25  151950  151947      24  151953  151947
      24  151953  151950      25  151959  151956      24  151962  151956      24
  151962  151959      25  151968  151965      24  151971  151965      24  151971
  151968      25  151977  151974      24  151980  151974      24  151980  151977
      25  151986  151983      24  151989  151983      24  151989  151986      25
  151995  151992      24  151998  151992      24  151998  151995      25  152004
  152001      24  152007  152001      24  152007  152004      25  152013  152010
      24  152016  152010      24  152016  152013      25  152022  152019      24
  152025  152019      24  152025  152022      25  152031  152028      24  152034
  152028      24  152034  152031      25  152040  152037      24  152043  152037
      24  152043  152040      25  152049  152046      24  152052  152046      24
  152052  152049      25  152058  152055      24  152061  152055      24  152061
  152058      25  152067  152064      24  152070  152064      24  152070  152067
      25  152076  152073      24  152079  152073      24  152079  152076      25
  152085  152082      24  152088  152082      24  152088  152085      25  152094
  152091      24  152097  152091      24  152097  152094      25  152103  152100
      24  152106  152100      24  152106  152103      25  152112  152109      24
  152115  152109      24  152115  152112      25  152121  152118      24  152124
  152118      24  152124  152121      25  152130  152127      24  152133  152127
      24  152133  152130      25  152139  152136      24  152142  152136      24
  152142  152139      25  152148  152145      24  152151  152145      24  152151
  152148      25  152157  152154      24  152160  152154      24  152160  152157
      25  152166  152163      24  152169  152163      24  152169  152166      25
  152175  152172      24  152178  152172      24  152178  152175      25  152184
  152181      24  152187  152181      24  152187  152184      25  152193  152190
      24  152196  152190      24  152196  152193      25  152202  152199      24
  152205  152199      24  152205  152202      25  152211  152208      24  152214
  152208      24  152214  152211      25  152220  152217      24  152223  152217
      24  152223  152220      25  152229  152226      24  152232  152226      24
  152232  152229      25  152238  152235      24  152241  152235      24  152241
  152238      25  152247  152244      24  152250  152244      24  152250  152247
      25  152256  152253      24  152259  152253      24  152259  152256      25
  152265  152262      24  152268  152262      24  152268  152265      25  152274
  152271      24  152277  152271      24  152277  152274      25  152283  152280
      24  152286  152280      24  152286  152283      25  152292  152289      24
  152295  152289      24  152295  152292      25  152301  152298      24  152304
  152298      24  152304  152301      25  152310  152307      24  152313  152307
      24  152313  152310      25  152319  152316      24  152322  152316      24
  152322  152319      25  152328  152325      24  152331  152325      24  152331
  152328      25  152337  152334      24  152340  152334      24  152340  152337
      25  152346  152343      24  152349  152343      24  152349  152346      25
  152355  152352      24  152358  152352      24  152358  152355      25  152364
  152361      24  152367  152361      24  152367  152364      25  152373  152370
      24  152376  152370      24  152376  152373      25  152382  152379      24
  152385  152379      24  152385  152382      25  152391  152388      24  152394
  152388      24  152394  152391      25  152400  152397      24  152403  152397
      24  152403  152400      25  152409  152406      24  152412  152406      24
  152412  152409      25  152418  152415      24  152421  152415      24  152421
  152418      25  152427  152424      24  152430  152424      24  152430  152427
      25  152436  152433      24  152439  152433      24  152439  152436      25
  152445  152442      24  152448  152442      24  152448  152445      25  152454
  152451      24  152457  152451      24  152457  152454      25  152463  152460
      24  152466  152460      24  152466  152463      25  152472  152469      24
  152475  152469      24  152475  152472      25  152481  152478      24  152484
  152478      24  152484  152481      25  152490  152487      24  152493  152487
      24  152493  152490      25  152499  152496      24  152502  152496      24
  152502  152499      25  152508  152505      24  152511  152505      24  152511
  152508      25  152517  152514      24  152520  152514      24  152520  152517
      25  152526  152523      24  152529  152523      24  152529  152526      25
  152535  152532      24  152538  152532      24  152538  152535      25  152544
  152541      24  152547  152541      24  152547  152544      25  152553  152550
      24  152556  152550      24  152556  152553      25  152562  152559      24
  152565  152559      24  152565  152562      25  152571  152568      24  152574
  152568      24  152574  152571      25  152580  152577      24  152583  152577
      24  152583  152580      25  152589  152586      24  152592  152586      24
  152592  152589      25  152598  152595      24  152601  152595      24  152601
  152598      25  152607  152604      24  152610  152604      24  152610  152607
      25  152616  152613      24  152619  152613      24  152619  152616      25
  152625  152622      24  152628  152622      24  152628  152625      25  152634
  152631      24  152637  152631      24  152637  152634      25  152643  152640
      24  152646  152640      24  152646  152643      25  152652  152649      24
  152655  152649      24  152655  152652      25  152661  152658      24  152664
  152658      24  152664  152661      25  152670  152667      24  152673  152667
      24  152673  152670      25  152679  152676      24  152682  152676      24
  152682  152679      25  152688  152685      24  152691  152685      24  152691
  152688      25  152697  152694      24  152700  152694      24  152700  152697
      25  152706  152703      24  152709  152703      24  152709  152706      25
  152715  152712      24  152718  152712      24  152718  152715      25  152724
  152721      24  152727  152721      24  152727  152724      25  152733  152730
      24  152736  152730      24  152736  152733      25  152742  152739      24
  152745  152739      24  152745  152742      25  152751  152748      24  152754
  152748      24  152754  152751      25  152760  152757      24  152763  152757
      24  152763  152760      25  152769  152766      24  152772  152766      24
  152772  152769      25  152778  152775      24  152781  152775      24  152781
  152778      25  152787  152784      24  152790  152784      24  152790  152787
      25  152796  152793      24  152799  152793      24  152799  152796      25
  152805  152802      24  152808  152802      24  152808  152805      25  152814
  152811      24  152817  152811      24  152817  152814      25  152823  152820
      24  152826  152820      24  152826  152823      25  152832  152829      24
  152835  152829      24  152835  152832      25  152841  152838      24  152844
  152838      24  152844  152841      25  152850  152847      24  152853  152847
      24  152853  152850      25  152859  152856      24  152862  152856      24
  152862  152859      25  152868  152865      24  152871  152865      24  152871
  152868      25  152877  152874      24  152880  152874      24  152880  152877
      25  152886  152883      24  152889  152883      24  152889  152886      25
  152895  152892      24  152898  152892      24  152898  152895      25  152904
  152901      24  152907  152901      24  152907  152904      25  152913  152910
      24  152916  152910      24  152916  152913      25  152922  152919      24
  152925  152919      24  152925  152922      25  152931  152928      24  152934
  152928      24  152934  152931      25  152940  152937      24  152943  152937
      24  152943  152940      25  152949  152946      24  152952  152946      24
  152952  152949      25  152958  152955      24  152961  152955      24  152961
  152958      25  152967  152964      24  152970  152964      24  152970  152967
      25  152976  152973      24  152979  152973      24  152979  152976      25
  152985  152982      24  152988  152982      24  152988  152985      25  152994
  152991      24  152997  152991      24  152997  152994      25  153003  153000
      24  153006  153000      24  153006  153003      25  153012  153009      24
  153015  153009      24  153015  153012      25  153021  153018      24  153024
  153018      24  153024  153021      25  153030  153027      24  153033  153027
      24  153033  153030      25  153039  153036      24  153042  153036      24
  153042  153039      25  153048  153045      24  153051  153045      24  153051
  153048      25  153057  153054      24  153060  153054      24  153060  153057
      25  153066  153063      24  153069  153063      24  153069  153066      25
  153075  153072      24  153078  153072      24  153078  153075      25  153084
  153081      24  153087  153081      24  153087  153084      25  153093  153090
      24  153096  153090      24  153096  153093      25  153102  153099      24
  153105  153099      24  153105  153102      25  153111  153108      24  153114
  153108      24  153114  153111      25  153120  153117      24  153123  153117
      24  153123  153120      25  153129  153126      24  153132  153126      24
  153132  153129      25  153138  153135      24  153141  153135      24  153141
  153138      25  153147  153144      24  153150  153144      24  153150  153147
      25  153156  153153      24  153159  153153      24  153159  153156      25
  153165  153162      24  153168  153162      24  153168  153165      25  153174
  153171      24  153177  153171      24  153177  153174      25  153183  153180
      24  153186  153180      24  153186  153183      25  153192  153189      24
  153195  153189      24  153195  153192      25  153201  153198      24  153204
  153198      24  153204  153201      25  153210  153207      24  153213  153207
      24  153213  153210      25  153219  153216      24  153222  153216      24
  153222  153219      25  153228  153225      24  153231  153225      24  153231
  153228      25  153237  153234      24  153240  153234      24  153240  153237
      25  153246  153243      24  153249  153243      24  153249  153246      25
  153255  153252      24  153258  153252      24  153258  153255      25  153264
  153261      24  153267  153261      24  153267  153264      25  153273  153270
      24  153276  153270      24  153276  153273      25  153282  153279      24
  153285  153279      24  153285  153282      25  153291  153288      24  153294
  153288      24  153294  153291      25  153300  153297      24  153303  153297
      24  153303  153300      25  153309  153306      24  153312  153306      24
  153312  153309      25  153318  153315      24  153321  153315      24  153321
  153318      25  153327  153324      24  153330  153324      24  153330  153327
      25  153336  153333      24  153339  153333      24  153339  153336      25
  153345  153342      24  153348  153342      24  153348  153345      25  153354
  153351      24  153357  153351      24  153357  153354      25  153363  153360
      24  153366  153360      24  153366  153363      25  153372  153369      24
  153375  153369      24  153375  153372      25  153381  153378      24  153384
  153378      24  153384  153381      25  153390  153387      24  153393  153387
      24  153393  153390      25  153399  153396      24  153402  153396      24
  153402  153399      25  153408  153405      24  153411  153405      24  153411
  153408      25  153417  153414      24  153420  153414      24  153420  153417
      25  153426  153423      24  153429  153423      24  153429  153426      25
  153435  153432      24  153438  153432      24  153438  153435      25  153444
  153441      24  153447  153441      24  153447  153444      25  153453  153450
      24  153456  153450      24  153456  153453      25  153462  153459      24
  153465  153459      24  153465  153462      25  153471  153468      24  153474
  153468      24  153474  153471      25  153480  153477      24  153483  153477
      24  153483  153480      25  153489  153486      24  153492  153486      24
  153492  153489      25  153498  153495      24  153501  153495      24  153501
  153498      25  153507  153504      24  153510  153504      24  153510  153507
      25  153516  153513      24  153519  153513      24  153519  153516      25
  153525  153522      24  153528  153522      24  153528  153525      25  153534
  153531      24  153537  153531      24  153537  153534      25  153543  153540
      24  153546  153540      24  153546  153543      25  153552  153549      24
  153555  153549      24  153555  153552      25  153561  153558      24  153564
  153558      24  153564  153561      25  153570  153567      24  153573  153567
      24  153573  153570      25  153579  153576      24  153582  153576      24
  153582  153579      25  153588  153585      24  153591  153585      24  153591
  153588      25  153597  153594      24  153600  153594      24  153600  153597
      25  153606  153603      24  153609  153603      24  153609  153606      25
  153615  153612      24  153618  153612      24  153618  153615      25  153624
  153621      24  153627  153621      24  153627  153624      25  153633  153630
      24  153636  153630      24  153636  153633      25  153642  153639      24
  153645  153639      24  153645  153642      25  153651  153648      24  153654
  153648      24  153654  153651      25  153660  153657      24  153663  153657
      24  153663  153660      25  153669  153666      24  153672  153666      24
  153672  153669      25  153678  153675      24  153681  153675      24  153681
  153678      25  153687  153684      24  153690  153684      24  153690  153687
      25  153696  153693      24  153699  153693      24  153699  153696      25
  153705  153702      24  153708  153702      24  153708  153705      25  153714
  153711      24  153717  153711      24  153717  153714      25  153723  153720
      24  153726  153720      24  153726  153723      25  153732  153729      24
  153735  153729      24  153735  153732      25  153741  153738      24  153744
  153738      24  153744  153741      25  153750  153747      24  153753  153747
      24  153753  153750      25  153759  153756      24  153762  153756      24
  153762  153759      25  153768  153765      24  153771  153765      24  153771
  153768      25  153777  153774      24  153780  153774      24  153780  153777
      25  153786  153783      24  153789  153783      24  153789  153786      25
  153795  153792      24  153798  153792      24  153798  153795      25  153804
  153801      24  153807  153801      24  153807  153804      25  153813  153810
      24  153816  153810      24  153816  153813      25  153822  153819      24
  153825  153819      24  153825  153822      25  153831  153828      24  153834
  153828      24  153834  153831      25  153840  153837      24  153843  153837
      24  153843  153840      25  153849  153846      24  153852  153846      24
  153852  153849      25  153858  153855      24  153861  153855      24  153861
  153858      25  153867  153864      24  153870  153864      24  153870  153867
      25  153876  153873      24  153879  153873      24  153879  153876      25
  153885  153882      24  153888  153882      24  153888  153885      25  153894
  153891      24  153897  153891      24  153897  153894      25  153903  153900
      24  153906  153900      24  153906  153903      25  153912  153909      24
  153915  153909      24  153915  153912      25  153921  153918      24  153924
  153918      24  153924  153921      25  153930  153927      24  153933  153927
      24  153933  153930      25  153939  153936      24  153942  153936      24
  153942  153939      25  153948  153945      24  153951  153945      24  153951
  153948      25  153957  153954      24  153960  153954      24  153960  153957
      25  153966  153963      24  153969  153963      24  153969  153966      25
  153975  153972      24  153978  153972      24  153978  153975      25  153984
  153981      24  153987  153981      24  153987  153984      25  153993  153990
      24  153996  153990      24  153996  153993      25  154002  153999      24
  154005  153999      24  154005  154002      25  154011  154008      24  154014
  154008      24  154014  154011      25  154020  154017      24  154023  154017
      24  154023  154020      25  154029  154026      24  154032  154026      24
  154032  154029      25  154038  154035      24  154041  154035      24  154041
  154038      25  154047  154044      24  154050  154044      24  154050  154047
      25  154056  154053      24  154059  154053      24  154059  154056      25
  154065  154062      24  154068  154062      24  154068  154065      25  154074
  154071      24  154077  154071      24  154077  154074      25  154083  154080
      24  154086  154080      24  154086  154083      25  154092  154089      24
  154095  154089      24  154095  154092      25  154101  154098      24  154104
  154098      24  154104  154101      25  154110  154107      24  154113  154107
      24  154113  154110      25  154119  154116      24  154122  154116      24
  154122  154119      25  154128  154125      24  154131  154125      24  154131
  154128      25  154137  154134      24  154140  154134      24  154140  154137
      25  154146  154143      24  154149  154143      24  154149  154146      25
  154155  154152      24  154158  154152      24  154158  154155      25  154164
  154161      24  154167  154161      24  154167  154164      25  154173  154170
      24  154176  154170      24  154176  154173      25  154182  154179      24
  154185  154179      24  154185  154182      25  154191  154188      24  154194
  154188      24  154194  154191      25  154200  154197      24  154203  154197
      24  154203  154200      25  154209  154206      24  154212  154206      24
  154212  154209      25  154218  154215      24  154221  154215      24  154221
  154218      25  154227  154224      24  154230  154224      24  154230  154227
      25  154236  154233      24  154239  154233      24  154239  154236      25
  154245  154242      24  154248  154242      24  154248  154245      25  154254
  154251      24  154257  154251      24  154257  154254      25  154263  154260
      24  154266  154260      24  154266  154263      25  154272  154269      24
  154275  154269      24  154275  154272      25  154281  154278      24  154284
  154278      24  154284  154281      25  154290  154287      24  154293  154287
      24  154293  154290      25  154299  154296      24  154302  154296      24
  154302  154299      25  154308  154305      24  154311  154305      24  154311
  154308      25  154317  154314      24  154320  154314      24  154320  154317
      25  154326  154323      24  154329  154323      24  154329  154326      25
  154335  154332      24  154338  154332      24  154338  154335      25  154344
  154341      24  154347  154341      24  154347  154344      25  154353  154350
      24  154356  154350      24  154356  154353      25  154362  154359      24
  154365  154359      24  154365  154362      25  154371  154368      24  154374
  154368      24  154374  154371      25  154380  154377      24  154383  154377
      24  154383  154380      25  154389  154386      24  154392  154386      24
  154392  154389      25  154398  154395      24  154401  154395      24  154401
  154398      25  154407  154404      24  154410  154404      24  154410  154407
      25  154416  154413      24  154419  154413      24  154419  154416      25
  154425  154422      24  154428  154422      24  154428  154425      25  154434
  154431      24  154437  154431      24  154437  154434      25  154443  154440
      24  154446  154440      24  154446  154443      25  154452  154449      24
  154455  154449      24  154455  154452      25  154461  154458      24  154464
  154458      24  154464  154461      25  154470  154467      24  154473  154467
      24  154473  154470      25  154479  154476      24  154482  154476      24
  154482  154479      25  154488  154485      24  154491  154485      24  154491
  154488      25  154497  154494      24  154500  154494      24  154500  154497
      25  154506  154503      24  154509  154503      24  154509  154506      25
  154515  154512      24  154518  154512      24  154518  154515      25  154524
  154521      24  154527  154521      24  154527  154524      25  154533  154530
      24  154536  154530      24  154536  154533      25  154542  154539      24
  154545  154539      24  154545  154542      25  154551  154548      24  154554
  154548      24  154554  154551      25  154560  154557      24  154563  154557
      24  154563  154560      25  154569  154566      24  154572  154566      24
  154572  154569      25  154578  154575      24  154581  154575      24  154581
  154578      25  154587  154584      24  154590  154584      24  154590  154587
      25  154596  154593      24  154599  154593      24  154599  154596      25
  154605  154602      24  154608  154602      24  154608  154605      25  154614
  154611      24  154617  154611      24  154617  154614      25  154623  154620
      24  154626  154620      24  154626  154623      25  154632  154629      24
  154635  154629      24  154635  154632      25  154641  154638      24  154644
  154638      24  154644  154641      25  154650  154647      24  154653  154647
      24  154653  154650      25  154659  154656      24  154662  154656      24
  154662  154659      25  154668  154665      24  154671  154665      24  154671
  154668      25  154677  154674      24  154680  154674      24  154680  154677
      25  154686  154683      24  154689  154683      24  154689  154686      25
  154695  154692      24  154698  154692      24  154698  154695      25  154704
  154701      24  154707  154701      24  154707  154704      25  154713  154710
      24  154716  154710      24  154716  154713      25  154722  154719      24
  154725  154719      24  154725  154722      25  154731  154728      24  154734
  154728      24  154734  154731      25  154740  154737      24  154743  154737
      24  154743  154740      25  154749  154746      24  154752  154746      24
  154752  154749      25  154758  154755      24  154761  154755      24  154761
  154758      25  154767  154764      24  154770  154764      24  154770  154767
      25  154776  154773      24  154779  154773      24  154779  154776      25
  154785  154782      24  154788  154782      24  154788  154785      25  154794
  154791      24  154797  154791      24  154797  154794      25  154803  154800
      24  154806  154800      24  154806  154803      25  154812  154809      24
  154815  154809      24  154815  154812      25  154821  154818      24  154824
  154818      24  154824  154821      25  154830  154827      24  154833  154827
      24  154833  154830      25  154839  154836      24  154842  154836      24
  154842  154839      25  154848  154845      24  154851  154845      24  154851
  154848      25  154857  154854      24  154860  154854      24  154860  154857
      25  154866  154863      24  154869  154863      24  154869  154866      25
  154875  154872      24  154878  154872      24  154878  154875      25  154884
  154881      24  154887  154881      24  154887  154884      25  154893  154890
      24  154896  154890      24  154896  154893      25  154902  154899      24
  154905  154899      24  154905  154902      25  154911  154908      24  154914
  154908      24  154914  154911      25  154920  154917      24  154923  154917
      24  154923  154920      25  154929  154926      24  154932  154926      24
  154932  154929      25  154938  154935      24  154941  154935      24  154941
  154938      25  154947  154944      24  154950  154944      24  154950  154947
      25  154956  154953      24  154959  154953      24  154959  154956      25
  154965  154962      24  154968  154962      24  154968  154965      25  154974
  154971      24  154977  154971      24  154977  154974      25  154983  154980
      24  154986  154980      24  154986  154983      25  154992  154989      24
  154995  154989      24  154995  154992      25  155001  154998      24  155004
  154998      24  155004  155001      25  155010  155007      24  155013  155007
      24  155013  155010      25  155019  155016      24  155022  155016      24
  155022  155019      25  155028  155025      24  155031  155025      24  155031
  155028      25  155037  155034      24  155040  155034      24  155040  155037
      25  155046  155043      24  155049  155043      24  155049  155046      25
  155055  155052      24  155058  155052      24  155058  155055      25  155064
  155061      24  155067  155061      24  155067  155064      25  155073  155070
      24  155076  155070      24  155076  155073      25  155082  155079      24
  155085  155079      24  155085  155082      25  155091  155088      24  155094
  155088      24  155094  155091      25  155100  155097      24  155103  155097
      24  155103  155100      25  155109  155106      24  155112  155106      24
  155112  155109      25  155118  155115      24  155121  155115      24  155121
  155118      25  155127  155124      24  155130  155124      24  155130  155127
      25  155136  155133      24  155139  155133      24  155139  155136      25
  155145  155142      24  155148  155142      24  155148  155145      25  155154
  155151      24  155157  155151      24  155157  155154      25  155163  155160
      24  155166  155160      24  155166  155163      25  155172  155169      24
  155175  155169      24  155175  155172      25  155181  155178      24  155184
  155178      24  155184  155181      25  155190  155187      24  155193  155187
      24  155193  155190      25  155199  155196      24  155202  155196      24
  155202  155199      25  155208  155205      24  155211  155205      24  155211
  155208      25  155217  155214      24  155220  155214      24  155220  155217
      25  155226  155223      24  155229  155223      24  155229  155226      25
  155235  155232      24  155238  155232      24  155238  155235      25  155244
  155241      24  155247  155241      24  155247  155244      25  155253  155250
      24  155256  155250      24  155256  155253      25  155262  155259      24
  155265  155259      24  155265  155262      25  155271  155268      24  155274
  155268      24  155274  155271      25  155280  155277      24  155283  155277
      24  155283  155280      25  155289  155286      24  155292  155286      24
  155292  155289      25  155298  155295      24  155301  155295      24  155301
  155298      25  155307  155304      24  155310  155304      24  155310  155307
      25  155316  155313      24  155319  155313      24  155319  155316      25
  155325  155322      24  155328  155322      24  155328  155325      25  155334
  155331      24  155337  155331      24  155337  155334      25  155343  155340
      24  155346  155340      24  155346  155343      25  155352  155349      24
  155355  155349      24  155355  155352      25  155361  155358      24  155364
  155358      24  155364  155361      25  155370  155367      24  155373  155367
      24  155373  155370      25  155379  155376      24  155382  155376      24
  155382  155379      25  155388  155385      24  155391  155385      24  155391
  155388      25  155397  155394      24  155400  155394      24  155400  155397
      25  155406  155403      24  155409  155403      24  155409  155406      25
  155415  155412      24  155418  155412      24  155418  155415      25  155424
  155421      24  155427  155421      24  155427  155424      25  155433  155430
      24  155436  155430      24  155436  155433      25  155442  155439      24
  155445  155439      24  155445  155442      25  155451  155448      24  155454
  155448      24  155454  155451      25  155460  155457      24  155463  155457
      24  155463  155460      25  155469  155466      24  155472  155466      24
  155472  155469      25  155478  155475      24  155481  155475      24  155481
  155478      25  155487  155484      24  155490  155484      24  155490  155487
      25  155496  155493      24  155499  155493      24  155499  155496      25
  155505  155502      24  155508  155502      24  155508  155505      25  155514
  155511      24  155517  155511      24  155517  155514      25  155523  155520
      24  155526  155520      24  155526  155523      25  155532  155529      24
  155535  155529      24  155535  155532      25  155541  155538      24  155544
  155538      24  155544  155541      25  155550  155547      24  155553  155547
      24  155553  155550      25  155559  155556      24  155562  155556      24
  155562  155559      25  155568  155565      24  155571  155565      24  155571
  155568      25  155577  155574      24  155580  155574      24  155580  155577
      25  155586  155583      24  155589  155583      24  155589  155586      25
  155595  155592      24  155598  155592      24  155598  155595      25  155604
  155601      24  155607  155601      24  155607  155604      25  155613  155610
      24  155616  155610      24  155616  155613      25  155622  155619      24
  155625  155619      24  155625  155622      25  155631  155628      24  155634
  155628      24  155634  155631      25  155640  155637      24  155643  155637
      24  155643  155640      25  155649  155646      24  155652  155646      24
  155652  155649      25  155658  155655      24  155661  155655      24  155661
  155658      25  155667  155664      24  155670  155664      24  155670  155667
      25  155676  155673      24  155679  155673      24  155679  155676      25
  155685  155682      24  155688  155682      24  155688  155685      25  155694
  155691      24  155697  155691      24  155697  155694      25  155703  155700
      24  155706  155700      24  155706  155703      25  155712  155709      24
  155715  155709      24  155715  155712      25  155721  155718      24  155724
  155718      24  155724  155721      25  155730  155727      24  155733  155727
      24  155733  155730      25  155739  155736      24  155742  155736      24
  155742  155739      25  155748  155745      24  155751  155745      24  155751
  155748      25  155757  155754      24  155760  155754      24  155760  155757
      25  155766  155763      24  155769  155763      24  155769  155766      25
  155775  155772      24  155778  155772      24  155778  155775      25  155784
  155781      24  155787  155781      24  155787  155784      25  155793  155790
      24  155796  155790      24  155796  155793      25  155802  155799      24
  155805  155799      24  155805  155802      25  155811  155808      24  155814
  155808      24  155814  155811      25  155820  155817      24  155823  155817
      24  155823  155820      25  155829  155826      24  155832  155826      24
  155832  155829      25  155838  155835      24  155841  155835      24  155841
  155838      25  155847  155844      24  155850  155844      24  155850  155847
      25  155856  155853      24  155859  155853      24  155859  155856      25
  155865  155862      24  155868  155862      24  155868  155865      25  155874
  155871      24  155877  155871      24  155877  155874      25  155883  155880
      24  155886  155880      24  155886  155883      25  155892  155889      24
  155895  155889      24  155895  155892      25  155901  155898      24  155904
  155898      24  155904  155901      25  155910  155907      24  155913  155907
      24  155913  155910      25  155919  155916      24  155922  155916      24
  155922  155919      25  155928  155925      24  155931  155925      24  155931
  155928      25  155937  155934      24  155940  155934      24  155940  155937
      25  155946  155943      24  155949  155943      24  155949  155946      25
  155955  155952      24  155958  155952      24  155958  155955      25  155964
  155961      24  155967  155961      24  155967  155964      25  155973  155970
      24  155976  155970      24  155976  155973      25  155982  155979      24
  155985  155979      24  155985  155982      25  155991  155988      24  155994
  155988      24  155994  155991      25  156000  155997      24  156003  155997
      24  156003  156000      25  156009  156006      24  156012  156006      24
  156012  156009      25  156018  156015      24  156021  156015      24  156021
  156018      25  156027  156024      24  156030  156024      24  156030  156027
      25  156036  156033      24  156039  156033      24  156039  156036      25
  156045  156042      24  156048  156042      24  156048  156045      25  156054
  156051      24  156057  156051      24  156057  156054      25  156063  156060
      24  156066  156060      24  156066  156063      25  156072  156069      24
  156075  156069      24  156075  156072      25  156081  156078      24  156084
  156078      24  156084  156081      25  156090  156087      24  156093  156087
      24  156093  156090      25  156099  156096      24  156102  156096      24
  156102  156099      25  156108  156105      24  156111  156105      24  156111
  156108      25  156117  156114      24  156120  156114      24  156120  156117
      25  156126  156123      24  156129  156123      24  156129  156126      25
  156135  156132      24  156138  156132      24  156138  156135      25  156144
  156141      24  156147  156141      24  156147  156144      25  156153  156150
      24  156156  156150      24  156156  156153      25  156162  156159      24
  156165  156159      24  156165  156162      25  156171  156168      24  156174
  156168      24  156174  156171      25  156180  156177      24  156183  156177
      24  156183  156180      25  156189  156186      24  156192  156186      24
  156192  156189      25  156198  156195      24  156201  156195      24  156201
  156198      25  156207  156204      24  156210  156204      24  156210  156207
      25  156216  156213      24  156219  156213      24  156219  156216      25
  156225  156222      24  156228  156222      24  156228  156225      25  156234
  156231      24  156237  156231      24  156237  156234      25  156243  156240
      24  156246  156240      24  156246  156243      25  156252  156249      24
  156255  156249      24  156255  156252      25  156261  156258      24  156264
  156258      24  156264  156261      25  156270  156267      24  156273  156267
      24  156273  156270      25  156279  156276      24  156282  156276      24
  156282  156279      25  156288  156285      24  156291  156285      24  156291
  156288      25  156297  156294      24  156300  156294      24  156300  156297
      25  156306  156303      24  156309  156303      24  156309  156306      25
  156315  156312      24  156318  156312      24  156318  156315      25  156324
  156321      24  156327  156321      24  156327  156324      25  156333  156330
      24  156336  156330      24  156336  156333      25  156342  156339      24
  156345  156339      24  156345  156342      25  156351  156348      24  156354
  156348      24  156354  156351      25  156360  156357      24  156363  156357
      24  156363  156360      25  156369  156366      24  156372  156366      24
  156372  156369      25  156378  156375      24  156381  156375      24  156381
  156378      25  156387  156384      24  156390  156384      24  156390  156387
      25  156396  156393      24  156399  156393      24  156399  156396      25
  156405  156402      24  156408  156402      24  156408  156405      25  156414
  156411      24  156417  156411      24  156417  156414      25  156423  156420
      24  156426  156420      24  156426  156423      25  156432  156429      24
  156435  156429      24  156435  156432      25  156441  156438      24  156444
  156438      24  156444  156441      25  156450  156447      24  156453  156447
      24  156453  156450      25  156459  156456      24  156462  156456      24
  156462  156459      25  156468  156465      24  156471  156465      24  156471
  156468      25  156477  156474      24  156480  156474      24  156480  156477
      25  156486  156483      24  156489  156483      24  156489  156486      25
  156495  156492      24  156498  156492      24  156498  156495      25  156504
  156501      24  156507  156501      24  156507  156504      25  156513  156510
      24  156516  156510      24  156516  156513      25  156522  156519      24
  156525  156519      24  156525  156522      25  156531  156528      24  156534
  156528      24  156534  156531      25  156540  156537      24  156543  156537
      24  156543  156540      25  156549  156546      24  156552  156546      24
  156552  156549      25  156558  156555      24  156561  156555      24  156561
  156558      25  156567  156564      24  156570  156564      24  156570  156567
      25  156576  156573      24  156579  156573      24  156579  156576      25
  156585  156582      24  156588  156582      24  156588  156585      25  156594
  156591      24  156597  156591      24  156597  156594      25  156603  156600
      24  156606  156600      24  156606  156603      25  156612  156609      24
  156615  156609      24  156615  156612      25  156621  156618      24  156624
  156618      24  156624  156621      25  156630  156627      24  156633  156627
      24  156633  156630      25  156639  156636      24  156642  156636      24
  156642  156639      25  156648  156645      24  156651  156645      24  156651
  156648      25  156657  156654      24  156660  156654      24  156660  156657
      25  156666  156663      24  156669  156663      24  156669  156666      25
  156675  156672      24  156678  156672      24  156678  156675      25  156684
  156681      24  156687  156681      24  156687  156684      25  156693  156690
      24  156696  156690      24  156696  156693      25  156702  156699      24
  156705  156699      24  156705  156702      25  156711  156708      24  156714
  156708      24  156714  156711      25  156720  156717      24  156723  156717
      24  156723  156720      25  156729  156726      24  156732  156726      24
  156732  156729      25  156738  156735      24  156741  156735      24  156741
  156738      25  156747  156744      24  156750  156744      24  156750  156747
      25  156756  156753      24  156759  156753      24  156759  156756      25
  156765  156762      24  156768  156762      24  156768  156765      25  156774
  156771      24  156777  156771      24  156777  156774      25  156783  156780
      24  156786  156780      24  156786  156783      25  156792  156789      24
  156795  156789      24  156795  156792      25  156801  156798      24  156804
  156798      24  156804  156801      25  156810  156807      24  156813  156807
      24  156813  156810      25  156819  156816      24  156822  156816      24
  156822  156819      25  156828  156825      24  156831  156825      24  156831
  156828      25  156837  156834      24  156840  156834      24  156840  156837
      25  156846  156843      24  156849  156843      24  156849  156846      25
  156855  156852      24  156858  156852      24  156858  156855      25  156864
  156861      24  156867  156861      24  156867  156864      25  156873  156870
      24  156876  156870      24  156876  156873      25  156882  156879      24
  156885  156879      24  156885  156882      25  156891  156888      24  156894
  156888      24  156894  156891      25  156900  156897      24  156903  156897
      24  156903  156900      25  156909  156906      24  156912  156906      24
  156912  156909      25  156918  156915      24  156921  156915      24  156921
  156918      25  156927  156924      24  156930  156924      24  156930  156927
      25  156936  156933      24  156939  156933      24  156939  156936      25
  156945  156942      24  156948  156942      24  156948  156945      25  156954
  156951      24  156957  156951      24  156957  156954      25  156963  156960
      24  156966  156960      24  156966  156963      25  156972  156969      24
  156975  156969      24  156975  156972      25  156981  156978      24  156984
  156978      24  156984  156981      25  156990  156987      24  156993  156987
      24  156993  156990      25  156999  156996      24  157002  156996      24
  157002  156999      25  157008  157005      24  157011  157005      24  157011
  157008      25  157017  157014      24  157020  157014      24  157020  157017
      25  157026  157023      24  157029  157023      24  157029  157026      25
  157035  157032      24  157038  157032      24  157038  157035      25  157044
  157041      24  157047  157041      24  157047  157044      25  157053  157050
      24  157056  157050      24  157056  157053      25  157062  157059      24
  157065  157059      24  157065  157062      25  157071  157068      24  157074
  157068      24  157074  157071      25  157080  157077      24  157083  157077
      24  157083  157080      25  157089  157086      24  157092  157086      24
  157092  157089      25  157098  157095      24  157101  157095      24  157101
  157098      25  157107  157104      24  157110  157104      24  157110  157107
      25  157116  157113      24  157119  157113      24  157119  157116      25
  157125  157122      24  157128  157122      24  157128  157125      25  157134
  157131      24  157137  157131      24  157137  157134      25  157143  157140
      24  157146  157140      24  157146  157143      25  157152  157149      24
  157155  157149      24  157155  157152      25  157161  157158      24  157164
  157158      24  157164  157161      25  157170  157167      24  157173  157167
      24  157173  157170      25  157179  157176      24  157182  157176      24
  157182  157179      25  157188  157185      24  157191  157185      24  157191
  157188      25  157197  157194      24  157200  157194      24  157200  157197
      25  157206  157203      24  157209  157203      24  157209  157206      25
  157215  157212      24  157218  157212      24  157218  157215      25  157224
  157221      24  157227  157221      24  157227  157224      25  157233  157230
      24  157236  157230      24  157236  157233      25  157242  157239      24
  157245  157239      24  157245  157242      25  157251  157248      24  157254
  157248      24  157254  157251      25  157260  157257      24  157263  157257
      24  157263  157260      25  157269  157266      24  157272  157266      24
  157272  157269      25  157278  157275      24  157281  157275      24  157281
  157278      25  157287  157284      24  157290  157284      24  157290  157287
      25  157296  157293      24  157299  157293      24  157299  157296      25
  157305  157302      24  157308  157302      24  157308  157305      25  157314
  157311      24  157317  157311      24  157317  157314      25  157323  157320
      24  157326  157320      24  157326  157323      25  157332  157329      24
  157335  157329      24  157335  157332      25  157341  157338      24  157344
  157338      24  157344  157341      25  157350  157347      24  157353  157347
      24  157353  157350      25  157359  157356      24  157362  157356      24
  157362  157359      25  157368  157365      24  157371  157365      24  157371
  157368      25  157377  157374      24  157380  157374      24  157380  157377
      25  157386  157383      24  157389  157383      24  157389  157386      25
  157395  157392      24  157398  157392      24  157398  157395      25  157404
  157401      24  157407  157401      24  157407  157404      25  157413  157410
      24  157416  157410      24  157416  157413      25  157422  157419      24
  157425  157419      24  157425  157422      25  157431  157428      24  157434
  157428      24  157434  157431      25  157440  157437      24  157443  157437
      24  157443  157440      25  157449  157446      24  157452  157446      24
  157452  157449      25  157458  157455      24  157461  157455      24  157461
  157458      25  157467  157464      24  157470  157464      24  157470  157467
      25  157476  157473      24  157479  157473      24  157479  157476      25
  157485  157482      24  157488  157482      24  157488  157485      25  157494
  157491      24  157497  157491      24  157497  157494      25  157503  157500
      24  157506  157500      24  157506  157503      25  157512  157509      24
  157515  157509      24  157515  157512      25  157521  157518      24  157524
  157518      24  157524  157521      25  157530  157527      24  157533  157527
      24  157533  157530      25  157539  157536      24  157542  157536      24
  157542  157539      25  157548  157545      24  157551  157545      24  157551
  157548      25  157557  157554      24  157560  157554      24  157560  157557
      25  157566  157563      24  157569  157563      24  157569  157566      25
  157575  157572      24  157578  157572      24  157578  157575      25  157584
  157581      24  157587  157581      24  157587  157584      25  157593  157590
      24  157596  157590      24  157596  157593      25  157602  157599      24
  157605  157599      24  157605  157602      25  157611  157608      24  157614
  157608      24  157614  157611      25  157620  157617      24  157623  157617
      24  157623  157620      25  157629  157626      24  157632  157626      24
  157632  157629      25  157638  157635      24  157641  157635      24  157641
  157638      25  157647  157644      24  157650  157644      24  157650  157647
      25  157656  157653      24  157659  157653      24  157659  157656      25
  157665  157662      24  157668  157662      24  157668  157665      25  157674
  157671      24  157677  157671      24  157677  157674      25  157683  157680
      24  157686  157680      24  157686  157683      25  157692  157689      24
  157695  157689      24  157695  157692      25  157701  157698      24  157704
  157698      24  157704  157701      25  157710  157707      24  157713  157707
      24  157713  157710      25  157719  157716      24  157722  157716      24
  157722  157719      25  157728  157725      24  157731  157725      24  157731
  157728      25  157737  157734      24  157740  157734      24  157740  157737
      25  157746  157743      24  157749  157743      24  157749  157746      25
  157755  157752      24  157758  157752      24  157758  157755      25  157764
  157761      24  157767  157761      24  157767  157764      25  157773  157770
      24  157776  157770      24  157776  157773      25  157782  157779      24
  157785  157779      24  157785  157782      25  157791  157788      24  157794
  157788      24  157794  157791      25  157800  157797      24  157803  157797
      24  157803  157800      25  157809  157806      24  157812  157806      24
  157812  157809      25  157818  157815      24  157821  157815      24  157821
  157818      25  157827  157824      24  157830  157824      24  157830  157827
      25  157836  157833      24  157839  157833      24  157839  157836      25
  157845  157842      24  157848  157842      24  157848  157845      25  157854
  157851      24  157857  157851      24  157857  157854      25  157863  157860
      24  157866  157860      24  157866  157863      25  157872  157869      24
  157875  157869      24  157875  157872      25  157881  157878      24  157884
  157878      24  157884  157881      25  157890  157887      24  157893  157887
      24  157893  157890      25  157899  157896      24  157902  157896      24
  157902  157899      25  157908  157905      24  157911  157905      24  157911
  157908      25  157917  157914      24  157920  157914      24  157920  157917
      25  157926  157923      24  157929  157923      24  157929  157926      25
  157935  157932      24  157938  157932      24  157938  157935      25  157944
  157941      24  157947  157941      24  157947  157944      25  157953  157950
      24  157956  157950      24  157956  157953      25  157962  157959      24
  157965  157959      24  157965  157962      25  157971  157968      24  157974
  157968      24  157974  157971      25  157980  157977      24  157983  157977
      24  157983  157980      25  157989  157986      24  157992  157986      24
  157992  157989      25  157998  157995      24  158001  157995      24  158001
  157998      25  158007  158004      24  158010  158004      24  158010  158007
      25  158016  158013      24  158019  158013      24  158019  158016      25
  158025  158022      24  158028  158022      24  158028  158025      25  158034
  158031      24  158037  158031      24  158037  158034      25  158043  158040
      24  158046  158040      24  158046  158043      25  158052  158049      24
  158055  158049      24  158055  158052      25  158061  158058      24  158064
  158058      24  158064  158061      25  158070  158067      24  158073  158067
      24  158073  158070      25  158079  158076      24  158082  158076      24
  158082  158079      25  158088  158085      24  158091  158085      24  158091
  158088      25  158097  158094      24  158100  158094      24  158100  158097
      25  158106  158103      24  158109  158103      24  158109  158106      25
  158115  158112      24  158118  158112      24  158118  158115      25  158124
  158121      24  158127  158121      24  158127  158124      25  158133  158130
      24  158136  158130      24  158136  158133      25  158142  158139      24
  158145  158139      24  158145  158142      25  158151  158148      24  158154
  158148      24  158154  158151      25  158160  158157      24  158163  158157
      24  158163  158160      25  158169  158166      24  158172  158166      24
  158172  158169      25  158178  158175      24  158181  158175      24  158181
  158178      25  158187  158184      24  158190  158184      24  158190  158187
      25  158196  158193      24  158199  158193      24  158199  158196      25
  158205  158202      24  158208  158202      24  158208  158205      25  158214
  158211      24  158217  158211      24  158217  158214      25  158223  158220
      24  158226  158220      24  158226  158223      25  158232  158229      24
  158235  158229      24  158235  158232      25  158241  158238      24  158244
  158238      24  158244  158241      25  158250  158247      24  158253  158247
      24  158253  158250      25  158259  158256      24  158262  158256      24
  158262  158259      25  158268  158265      24  158271  158265      24  158271
  158268      25  158277  158274      24  158280  158274      24  158280  158277
      25  158286  158283      24  158289  158283      24  158289  158286      25
  158295  158292      24  158298  158292      24  158298  158295      25  158304
  158301      24  158307  158301      24  158307  158304      25  158313  158310
      24  158316  158310      24  158316  158313      25  158322  158319      24
  158325  158319      24  158325  158322      25  158331  158328      24  158334
  158328      24  158334  158331      25  158340  158337      24  158343  158337
      24  158343  158340      25  158349  158346      24  158352  158346      24
  158352  158349      25  158358  158355      24  158361  158355      24  158361
  158358      25  158367  158364      24  158370  158364      24  158370  158367
      25  158376  158373      24  158379  158373      24  158379  158376      25
  158385  158382      24  158388  158382      24  158388  158385      25  158394
  158391      24  158397  158391      24  158397  158394      25  158403  158400
      24  158406  158400      24  158406  158403      25  158412  158409      24
  158415  158409      24  158415  158412      25  158421  158418      24  158424
  158418      24  158424  158421      25  158430  158427      24  158433  158427
      24  158433  158430      25  158439  158436      24  158442  158436      24
  158442  158439      25  158448  158445      24  158451  158445      24  158451
  158448      25  158457  158454      24  158460  158454      24  158460  158457
      25  158466  158463      24  158469  158463      24  158469  158466      25
  158475  158472      24  158478  158472      24  158478  158475      25  158484
  158481      24  158487  158481      24  158487  158484      25  158493  158490
      24  158496  158490      24  158496  158493      25  158502  158499      24
  158505  158499      24  158505  158502      25  158511  158508      24  158514
  158508      24  158514  158511      25  158520  158517      24  158523  158517
      24  158523  158520      25  158529  158526      24  158532  158526      24
  158532  158529      25  158538  158535      24  158541  158535      24  158541
  158538      25  158547  158544      24  158550  158544      24  158550  158547
      25  158556  158553      24  158559  158553      24  158559  158556      25
  158565  158562      24  158568  158562      24  158568  158565      25  158574
  158571      24  158577  158571      24  158577  158574      25  158583  158580
      24  158586  158580      24  158586  158583      25  158592  158589      24
  158595  158589      24  158595  158592      25  158601  158598      24  158604
  158598      24  158604  158601      25  158610  158607      24  158613  158607
      24  158613  158610      25  158619  158616      24  158622  158616      24
  158622  158619      25  158628  158625      24  158631  158625      24  158631
  158628      25  158637  158634      24  158640  158634      24  158640  158637
      25  158646  158643      24  158649  158643      24  158649  158646      25
  158655  158652      24  158658  158652      24  158658  158655      25  158664
  158661      24  158667  158661      24  158667  158664      25  158673  158670
      24  158676  158670      24  158676  158673      25  158682  158679      24
  158685  158679      24  158685  158682      25  158691  158688      24  158694
  158688      24  158694  158691      25  158700  158697      24  158703  158697
      24  158703  158700      25  158709  158706      24  158712  158706      24
  158712  158709      25  158718  158715      24  158721  158715      24  158721
  158718      25  158727  158724      24  158730  158724      24  158730  158727
      25  158736  158733      24  158739  158733      24  158739  158736      25
  158745  158742      24  158748  158742      24  158748  158745      25  158754
  158751      24  158757  158751      24  158757  158754      25  158763  158760
      24  158766  158760      24  158766  158763      25  158772  158769      24
  158775  158769      24  158775  158772      25  158781  158778      24  158784
  158778      24  158784  158781      25  158790  158787      24  158793  158787
      24  158793  158790      25  158799  158796      24  158802  158796      24
  158802  158799      25  158808  158805      24  158811  158805      24  158811
  158808      25  158817  158814      24  158820  158814      24  158820  158817
      25  158826  158823      24  158829  158823      24  158829  158826      25
  158835  158832      24  158838  158832      24  158838  158835      25  158844
  158841      24  158847  158841      24  158847  158844      25  158853  158850
      24  158856  158850      24  158856  158853      25  158862  158859      24
  158865  158859      24  158865  158862      25  158871  158868      24  158874
  158868      24  158874  158871      25  158880  158877      24  158883  158877
      24  158883  158880      25  158889  158886      24  158892  158886      24
  158892  158889      25  158898  158895      24  158901  158895      24  158901
  158898      25  158907  158904      24  158910  158904      24  158910  158907
      25  158916  158913      24  158919  158913      24  158919  158916      25
  158925  158922      24  158928  158922      24  158928  158925      25  158934
  158931      24  158937  158931      24  158937  158934      25  158943  158940
      24  158946  158940      24  158946  158943      25  158952  158949      24
  158955  158949      24  158955  158952      25  158961  158958      24  158964
  158958      24  158964  158961      25  158970  158967      24  158973  158967
      24  158973  158970      25  158979  158976      24  158982  158976      24
  158982  158979      25  158988  158985      24  158991  158985      24  158991
  158988      25  158997  158994      24  159000  158994      24  159000  158997
      25  159006  159003      24  159009  159003      24  159009  159006      25
  159015  159012      24  159018  159012      24  159018  159015      25  159024
  159021      24  159027  159021      24  159027  159024      25  159033  159030
      24  159036  159030      24  159036  159033      25  159042  159039      24
  159045  159039      24  159045  159042      25  159051  159048      24  159054
  159048      24  159054  159051      25  159060  159057      24  159063  159057
      24  159063  159060      25  159069  159066      24  159072  159066      24
  159072  159069      25  159078  159075      24  159081  159075      24  159081
  159078      25  159087  159084      24  159090  159084      24  159090  159087
      25  159096  159093      24  159099  159093      24  159099  159096      25
  159105  159102      24  159108  159102      24  159108  159105      25  159114
  159111      24  159117  159111      24  159117  159114      25  159123  159120
      24  159126  159120      24  159126  159123      25  159132  159129      24
  159135  159129      24  159135  159132      25  159141  159138      24  159144
  159138      24  159144  159141      25  159150  159147      24  159153  159147
      24  159153  159150      25  159159  159156      24  159162  159156      24
  159162  159159      25  159168  159165      24  159171  159165      24  159171
  159168      25  159177  159174      24  159180  159174      24  159180  159177
      25  159186  159183      24  159189  159183      24  159189  159186      25
  159195  159192      24  159198  159192      24  159198  159195      25  159204
  159201      24  159207  159201      24  159207  159204      25  159213  159210
      24  159216  159210      24  159216  159213      25  159222  159219      24
  159225  159219      24  159225  159222      25  159231  159228      24  159234
  159228      24  159234  159231      25  159240  159237      24  159243  159237
      24  159243  159240      25  159249  159246      24  159252  159246      24
  159252  159249      25  159258  159255      24  159261  159255      24  159261
  159258      25  159267  159264      24  159270  159264      24  159270  159267
      25  159276  159273      24  159279  159273      24  159279  159276      25
  159285  159282      24  159288  159282      24  159288  159285      25  159294
  159291      24  159297  159291      24  159297  159294      25  159303  159300
      24  159306  159300      24  159306  159303      25  159312  159309      24
  159315  159309      24  159315  159312      25  159321  159318      24  159324
  159318      24  159324  159321      25  159330  159327      24  159333  159327
      24  159333  159330      25  159339  159336      24  159342  159336      24
  159342  159339      25  159348  159345      24  159351  159345      24  159351
  159348      25  159357  159354      24  159360  159354      24  159360  159357
      25  159366  159363      24  159369  159363      24  159369  159366      25
  159375  159372      24  159378  159372      24  159378  159375      25  159384
  159381      24  159387  159381      24  159387  159384      25  159393  159390
      24  159396  159390      24  159396  159393      25  159402  159399      24
  159405  159399      24  159405  159402      25  159411  159408      24  159414
  159408      24  159414  159411      25  159420  159417      24  159423  159417
      24  159423  159420      25  159429  159426      24  159432  159426      24
  159432  159429      25  159438  159435      24  159441  159435      24  159441
  159438      25  159447  159444      24  159450  159444      24  159450  159447
      25  159456  159453      24  159459  159453      24  159459  159456      25
  159465  159462      24  159468  159462      24  159468  159465      25  159474
  159471      24  159477  159471      24  159477  159474      25  159483  159480
      24  159486  159480      24  159486  159483      25  159492  159489      24
  159495  159489      24  159495  159492      25  159501  159498      24  159504
  159498      24  159504  159501      25  159510  159507      24  159513  159507
      24  159513  159510      25  159519  159516      24  159522  159516      24
  159522  159519      25  159528  159525      24  159531  159525      24  159531
  159528      25  159537  159534      24  159540  159534      24  159540  159537
      25  159546  159543      24  159549  159543      24  159549  159546      25
  159555  159552      24  159558  159552      24  159558  159555      25  159564
  159561      24  159567  159561      24  159567  159564      25  159573  159570
      24  159576  159570      24  159576  159573      25  159582  159579      24
  159585  159579      24  159585  159582      25  159591  159588      24  159594
  159588      24  159594  159591      25  159600  159597      24  159603  159597
      24  159603  159600      25  159609  159606      24  159612  159606      24
  159612  159609      25  159618  159615      24  159621  159615      24  159621
  159618      25  159627  159624      24  159630  159624      24  159630  159627
      25  159636  159633      24  159639  159633      24  159639  159636      25
  159645  159642      24  159648  159642      24  159648  159645      25  159654
  159651      24  159657  159651      24  159657  159654      25  159663  159660
      24  159666  159660      24  159666  159663      25  159672  159669      24
  159675  159669      24  159675  159672      25  159681  159678      24  159684
  159678      24  159684  159681      25  159690  159687      24  159693  159687
      24  159693  159690      25  159699  159696      24  159702  159696      24
  159702  159699      25  159708  159705      24  159711  159705      24  159711
  159708      25  159717  159714      24  159720  159714      24  159720  159717
      25  159726  159723      24  159729  159723      24  159729  159726      25
  159735  159732      24  159738  159732      24  159738  159735      25  159744
  159741      24  159747  159741      24  159747  159744      25  159753  159750
      24  159756  159750      24  159756  159753      25  159762  159759      24
  159765  159759      24  159765  159762      25  159771  159768      24  159774
  159768      24  159774  159771      25  159780  159777      24  159783  159777
      24  159783  159780      25  159789  159786      24  159792  159786      24
  159792  159789      25  159798  159795      24  159801  159795      24  159801
  159798      25  159807  159804      24  159810  159804      24  159810  159807
      25  159816  159813      24  159819  159813      24  159819  159816      25
  159825  159822      24  159828  159822      24  159828  159825      25  159834
  159831      24  159837  159831      24  159837  159834      25  159843  159840
      24  159846  159840      24  159846  159843      25  159852  159849      24
  159855  159849      24  159855  159852      25  159861  159858      24  159864
  159858      24  159864  159861      25  159870  159867      24  159873  159867
      24  159873  159870      25  159879  159876      24  159882  159876      24
  159882  159879      25  159888  159885      24  159891  159885      24  159891
  159888      25  159897  159894      24  159900  159894      24  159900  159897
      25  159906  159903      24  159909  159903      24  159909  159906      25
  159915  159912      24  159918  159912      24  159918  159915      25  159924
  159921      24  159927  159921      24  159927  159924      25  159933  159930
      24  159936  159930      24  159936  159933      25  159942  159939      24
  159945  159939      24  159945  159942      25  159951  159948      24  159954
  159948      24  159954  159951      25  159960  159957      24  159963  159957
      24  159963  159960      25  159969  159966      24  159972  159966      24
  159972  159969      25  159978  159975      24  159981  159975      24  159981
  159978      25  159987  159984      24  159990  159984      24  159990  159987
      25  159996  159993      24  159999  159993      24  159999  159996      25
  160005  160002      24  160008  160002      24  160008  160005      25  160014
  160011      24  160017  160011      24  160017  160014      25  160023  160020
      24  160026  160020      24  160026  160023      25  160032  160029      24
  160035  160029      24  160035  160032      25  160041  160038      24  160044
  160038      24  160044  160041      25  160050  160047      24  160053  160047
      24  160053  160050      25  160059  160056      24  160062  160056      24
  160062  160059      25  160068  160065      24  160071  160065      24  160071
  160068      25  160077  160074      24  160080  160074      24  160080  160077
      25  160086  160083      24  160089  160083      24  160089  160086      25
  160095  160092      24  160098  160092      24  160098  160095      25  160104
  160101      24  160107  160101      24  160107  160104      25  160113  160110
      24  160116  160110      24  160116  160113      25  160122  160119      24
  160125  160119      24  160125  160122      25  160131  160128      24  160134
  160128      24  160134  160131      25  160140  160137      24  160143  160137
      24  160143  160140      25  160149  160146      24  160152  160146      24
  160152  160149      25  160158  160155      24  160161  160155      24  160161
  160158      25  160167  160164      24  160170  160164      24  160170  160167
      25  160176  160173      24  160179  160173      24  160179  160176      25
  160185  160182      24  160188  160182      24  160188  160185      25  160194
  160191      24  160197  160191      24  160197  160194      25  160203  160200
      24  160206  160200      24  160206  160203      25  160212  160209      24
  160215  160209      24  160215  160212      25  160221  160218      24  160224
  160218      24  160224  160221      25  160230  160227      24  160233  160227
      24  160233  160230      25  160239  160236      24  160242  160236      24
  160242  160239      25  160248  160245      24  160251  160245      24  160251
  160248      25  160257  160254      24  160260  160254      24  160260  160257
      25  160266  160263      24  160269  160263      24  160269  160266      25
  160275  160272      24  160278  160272      24  160278  160275      25  160284
  160281      24  160287  160281      24  160287  160284      25  160293  160290
      24  160296  160290      24  160296  160293      25  160302  160299      24
  160305  160299      24  160305  160302      25  160311  160308      24  160314
  160308      24  160314  160311      25  160320  160317      24  160323  160317
      24  160323  160320      25  160329  160326      24  160332  160326      24
  160332  160329      25  160338  160335      24  160341  160335      24  160341
  160338      25  160347  160344      24  160350  160344      24  160350  160347
      25  160356  160353      24  160359  160353      24  160359  160356      25
  160365  160362      24  160368  160362      24  160368  160365      25  160374
  160371      24  160377  160371      24  160377  160374      25  160383  160380
      24  160386  160380      24  160386  160383      25  160392  160389      24
  160395  160389      24  160395  160392      25  160401  160398      24  160404
  160398      24  160404  160401      25  160410  160407      24  160413  160407
      24  160413  160410      25  160419  160416      24  160422  160416      24
  160422  160419      25  160428  160425      24  160431  160425      24  160431
  160428      25  160437  160434      24  160440  160434      24  160440  160437
      25  160446  160443      24  160449  160443      24  160449  160446      25
  160455  160452      24  160458  160452      24  160458  160455      25  160464
  160461      24  160467  160461      24  160467  160464      25  160473  160470
      24  160476  160470      24  160476  160473      25  160482  160479      24
  160485  160479      24  160485  160482      25  160491  160488      24  160494
  160488      24  160494  160491      25  160500  160497      24  160503  160497
      24  160503  160500      25  160509  160506      24  160512  160506      24
  160512  160509      25  160518  160515      24  160521  160515      24  160521
  160518      25  160527  160524      24  160530  160524      24  160530  160527
      25  160536  160533      24  160539  160533      24  160539  160536      25
  160545  160542      24  160548  160542      24  160548  160545      25  160554
  160551      24  160557  160551      24  160557  160554      25  160563  160560
      24  160566  160560      24  160566  160563      25  160572  160569      24
  160575  160569      24  160575  160572      25  160581  160578      24  160584
  160578      24  160584  160581      25  160590  160587      24  160593  160587
      24  160593  160590      25  160599  160596      24  160602  160596      24
  160602  160599      25  160608  160605      24  160611  160605      24  160611
  160608      25  160617  160614      24  160620  160614      24  160620  160617
      25  160626  160623      24  160629  160623      24  160629  160626      25
  160635  160632      24  160638  160632      24  160638  160635      25  160644
  160641      24  160647  160641      24  160647  160644      25  160653  160650
      24  160656  160650      24  160656  160653      25  160662  160659      24
  160665  160659      24  160665  160662      25  160671  160668      24  160674
  160668      24  160674  160671      25  160680  160677      24  160683  160677
      24  160683  160680      25  160689  160686      24  160692  160686      24
  160692  160689      25  160698  160695      24  160701  160695      24  160701
  160698      25  160707  160704      24  160710  160704      24  160710  160707
      25  160716  160713      24  160719  160713      24  160719  160716      25
  160725  160722      24  160728  160722      24  160728  160725      25  160734
  160731      24  160737  160731      24  160737  160734      25  160743  160740
      24  160746  160740      24  160746  160743      25  160752  160749      24
  160755  160749      24  160755  160752      25  160761  160758      24  160764
  160758      24  160764  160761      25  160770  160767      24  160773  160767
      24  160773  160770      25  160779  160776      24  160782  160776      24
  160782  160779      25  160788  160785      24  160791  160785      24  160791
  160788      25  160797  160794      24  160800  160794      24  160800  160797
      25  160806  160803      24  160809  160803      24  160809  160806      25
  160815  160812      24  160818  160812      24  160818  160815      25  160824
  160821      24  160827  160821      24  160827  160824      25  160833  160830
      24  160836  160830      24  160836  160833      25  160842  160839      24
  160845  160839      24  160845  160842      25  160851  160848      24  160854
  160848      24  160854  160851      25  160860  160857      24  160863  160857
      24  160863  160860      25  160869  160866      24  160872  160866      24
  160872  160869      25  160878  160875      24  160881  160875      24  160881
  160878      25  160887  160884      24  160890  160884      24  160890  160887
      25  160896  160893      24  160899  160893      24  160899  160896      25
  160905  160902      24  160908  160902      24  160908  160905      25  160914
  160911      24  160917  160911      24  160917  160914      25  160923  160920
      24  160926  160920      24  160926  160923      25  160932  160929      24
  160935  160929      24  160935  160932      25  160941  160938      24  160944
  160938      24  160944  160941      25  160950  160947      24  160953  160947
      24  160953  160950      25  160959  160956      24  160962  160956      24
  160962  160959      25  160968  160965      24  160971  160965      24  160971
  160968      25  160977  160974      24  160980  160974      24  160980  160977
      25  160986  160983      24  160989  160983      24  160989  160986      25
  160995  160992      24  160998  160992      24  160998  160995      25  161004
  161001      24  161007  161001      24  161007  161004      25  161013  161010
      24  161016  161010      24  161016  161013      25  161022  161019      24
  161025  161019      24  161025  161022      25  161031  161028      24  161034
  161028      24  161034  161031      25  161040  161037      24  161043  161037
      24  161043  161040      25  161049  161046      24  161052  161046      24
  161052  161049      25  161058  161055      24  161061  161055      24  161061
  161058      25  161067  161064      24  161070  161064      24  161070  161067
      25  161076  161073      24  161079  161073      24  161079  161076      25
  161085  161082      24  161088  161082      24  161088  161085      25  161094
  161091      24  161097  161091      24  161097  161094      25  161103  161100
      24  161106  161100      24  161106  161103      25  161112  161109      24
  161115  161109      24  161115  161112      25  161121  161118      24  161124
  161118      24  161124  161121      25  161130  161127      24  161133  161127
      24  161133  161130      25  161139  161136      24  161142  161136      24
  161142  161139      25  161148  161145      24  161151  161145      24  161151
  161148      25  161157  161154      24  161160  161154      24  161160  161157
      25  161166  161163      24  161169  161163      24  161169  161166      25
  161175  161172      24  161178  161172      24  161178  161175      25  161184
  161181      24  161187  161181      24  161187  161184      25  161193  161190
      24  161196  161190      24  161196  161193      25  161202  161199      24
  161205  161199      24  161205  161202      25  161211  161208      24  161214
  161208      24  161214  161211      25  161220  161217      24  161223  161217
      24  161223  161220      25  161229  161226      24  161232  161226      24
  161232  161229      25  161238  161235      24  161241  161235      24  161241
  161238      25  161247  161244      24  161250  161244      24  161250  161247
      25  161256  161253      24  161259  161253      24  161259  161256      25
  161265  161262      24  161268  161262      24  161268  161265      25  161274
  161271      24  161277  161271      24  161277  161274      25  161283  161280
      24  161286  161280      24  161286  161283      25  161292  161289      24
  161295  161289      24  161295  161292      25  161301  161298      24  161304
  161298      24  161304  161301      25  161310  161307      24  161313  161307
      24  161313  161310      25  161319  161316      24  161322  161316      24
  161322  161319      25  161328  161325      24  161331  161325      24  161331
  161328      25  161337  161334      24  161340  161334      24  161340  161337
      25  161346  161343      24  161349  161343      24  161349  161346      25
  161355  161352      24  161358  161352      24  161358  161355      25  161364
  161361      24  161367  161361      24  161367  161364      25  161373  161370
      24  161376  161370      24  161376  161373      25  161382  161379      24
  161385  161379      24  161385  161382      25  161391  161388      24  161394
  161388      24  161394  161391      25  161400  161397      24  161403  161397
      24  161403  161400      25  161409  161406      24  161412  161406      24
  161412  161409      25  161418  161415      24  161421  161415      24  161421
  161418      25  161427  161424      24  161430  161424      24  161430  161427
      25  161436  161433      24  161439  161433      24  161439  161436      25
  161445  161442      24  161448  161442      24  161448  161445      25  161454
  161451      24  161457  161451      24  161457  161454      25  161463  161460
      24  161466  161460      24  161466  161463      25  161472  161469      24
  161475  161469      24  161475  161472      25  161481  161478      24  161484
  161478      24  161484  161481      25  161490  161487      24  161493  161487
      24  161493  161490      25  161499  161496      24  161502  161496      24
  161502  161499      25  161508  161505      24  161511  161505      24  161511
  161508      25  161517  161514      24  161520  161514      24  161520  161517
      25  161526  161523      24  161529  161523      24  161529  161526      25
  161535  161532      24  161538  161532      24  161538  161535      25  161544
  161541      24  161547  161541      24  161547  161544      25  161553  161550
      24  161556  161550      24  161556  161553      25  161562  161559      24
  161565  161559      24  161565  161562      25  161571  161568      24  161574
  161568      24  161574  161571      25  161580  161577      24  161583  161577
      24  161583  161580      25  161589  161586      24  161592  161586      24
  161592  161589      25  161598  161595      24  161601  161595      24  161601
  161598      25  161607  161604      24  161610  161604      24  161610  161607
      25  161616  161613      24  161619  161613      24  161619  161616      25
  161625  161622      24  161628  161622      24  161628  161625      25  161634
  161631      24  161637  161631      24  161637  161634      25  161643  161640
      24  161646  161640      24  161646  161643      25  161652  161649      24
  161655  161649      24  161655  161652      25  161661  161658      24  161664
  161658      24  161664  161661      25  161670  161667      24  161673  161667
      24  161673  161670      25  161679  161676      24  161682  161676      24
  161682  161679      25  161688  161685      24  161691  161685      24  161691
  161688      25  161697  161694      24  161700  161694      24  161700  161697
      25  161706  161703      24  161709  161703      24  161709  161706      25
  161715  161712      24  161718  161712      24  161718  161715      25  161724
  161721      24  161727  161721      24  161727  161724      25  161733  161730
      24  161736  161730      24  161736  161733      25  161742  161739      24
  161745  161739      24  161745  161742      25  161751  161748      24  161754
  161748      24  161754  161751      25  161760  161757      24  161763  161757
      24  161763  161760      25  161769  161766      24  161772  161766      24
  161772  161769      25  161778  161775      24  161781  161775      24  161781
  161778      25  161787  161784      24  161790  161784      24  161790  161787
      25  161796  161793      24  161799  161793      24  161799  161796      25
  161805  161802      24  161808  161802      24  161808  161805      25  161814
  161811      24  161817  161811      24  161817  161814      25  161823  161820
      24  161826  161820      24  161826  161823      25  161832  161829      24
  161835  161829      24  161835  161832      25  161841  161838      24  161844
  161838      24  161844  161841      25  161850  161847      24  161853  161847
      24  161853  161850      25  161859  161856      24  161862  161856      24
  161862  161859      25  161868  161865      24  161871  161865      24  161871
  161868      25  161877  161874      24  161880  161874      24  161880  161877
      25  161886  161883      24  161889  161883      24  161889  161886      25
  161895  161892      24  161898  161892      24  161898  161895      25  161904
  161901      24  161907  161901      24  161907  161904      25  161913  161910
      24  161916  161910      24  161916  161913      25  161922  161919      24
  161925  161919      24  161925  161922      25  161931  161928      24  161934
  161928      24  161934  161931      25  161940  161937      24  161943  161937
      24  161943  161940      25  161949  161946      24  161952  161946      24
  161952  161949      25  161958  161955      24  161961  161955      24  161961
  161958      25  161967  161964      24  161970  161964      24  161970  161967
      25  161976  161973      24  161979  161973      24  161979  161976      25
  161985  161982      24  161988  161982      24  161988  161985      25  161994
  161991      24  161997  161991      24  161997  161994      25  162003  162000
      24  162006  162000      24  162006  162003      25  162012  162009      24
  162015  162009      24  162015  162012      25  162021  162018      24  162024
  162018      24  162024  162021      25  162030  162027      24  162033  162027
      24  162033  162030      25  162039  162036      24  162042  162036      24
  162042  162039      25  162048  162045      24  162051  162045      24  162051
  162048      25  162057  162054      24  162060  162054      24  162060  162057
      25  162066  162063      24  162069  162063      24  162069  162066      25
  162075  162072      24  162078  162072      24  162078  162075      25  162084
  162081      24  162087  162081      24  162087  162084      25  162093  162090
      24  162096  162090      24  162096  162093      25  162102  162099      24
  162105  162099      24  162105  162102      25  162111  162108      24  162114
  162108      24  162114  162111      25  162120  162117      24  162123  162117
      24  162123  162120      25  162129  162126      24  162132  162126      24
  162132  162129      25  162138  162135      24  162141  162135      24  162141
  162138      25  162147  162144      24  162150  162144      24  162150  162147
      25  162156  162153      24  162159  162153      24  162159  162156      25
  162165  162162      24  162168  162162      24  162168  162165      25  162174
  162171      24  162177  162171      24  162177  162174      25  162183  162180
      24  162186  162180      24  162186  162183      25  162192  162189      24
  162195  162189      24  162195  162192      25  162201  162198      24  162204
  162198      24  162204  162201      25  162210  162207      24  162213  162207
      24  162213  162210      25  162219  162216      24  162222  162216      24
  162222  162219      25  162228  162225      24  162231  162225      24  162231
  162228      25  162237  162234      24  162240  162234      24  162240  162237
      25  162246  162243      24  162249  162243      24  162249  162246      25
  162255  162252      24  162258  162252      24  162258  162255      25  162264
  162261      24  162267  162261      24  162267  162264      25  162273  162270
      24  162276  162270      24  162276  162273      25  162282  162279      24
  162285  162279      24  162285  162282      25  162291  162288      24  162294
  162288      24  162294  162291      25  162300  162297      24  162303  162297
      24  162303  162300      25  162309  162306      24  162312  162306      24
  162312  162309      25  162318  162315      24  162321  162315      24  162321
  162318      25  162327  162324      24  162330  162324      24  162330  162327
      25  162336  162333      24  162339  162333      24  162339  162336      25
  162345  162342      24  162348  162342      24  162348  162345      25  162354
  162351      24  162357  162351      24  162357  162354      25  162363  162360
      24  162366  162360      24  162366  162363      25  162372  162369      24
  162375  162369      24  162375  162372      25  162381  162378      24  162384
  162378      24  162384  162381      25  162390  162387      24  162393  162387
      24  162393  162390      25  162399  162396      24  162402  162396      24
  162402  162399      25  162408  162405      24  162411  162405      24  162411
  162408      25  162417  162414      24  162420  162414      24  162420  162417
      25  162426  162423      24  162429  162423      24  162429  162426      25
  162435  162432      24  162438  162432      24  162438  162435      25  162444
  162441      24  162447  162441      24  162447  162444      25  162453  162450
      24  162456  162450      24  162456  162453      25  162462  162459      24
  162465  162459      24  162465  162462      25  162471  162468      24  162474
  162468      24  162474  162471      25  162480  162477      24  162483  162477
      24  162483  162480      25  162489  162486      24  162492  162486      24
  162492  162489      25  162498  162495      24  162501  162495      24  162501
  162498      25  162507  162504      24  162510  162504      24  162510  162507
      25  162516  162513      24  162519  162513      24  162519  162516      25
  162525  162522      24  162528  162522      24  162528  162525      25  162534
  162531      24  162537  162531      24  162537  162534      25  162543  162540
      24  162546  162540      24  162546  162543      25  162552  162549      24
  162555  162549      24  162555  162552      25  162561  162558      24  162564
  162558      24  162564  162561      25  162570  162567      24  162573  162567
      24  162573  162570      25  162579  162576      24  162582  162576      24
  162582  162579      25  162588  162585      24  162591  162585      24  162591
  162588      25  162597  162594      24  162600  162594      24  162600  162597
      25  162606  162603      24  162609  162603      24  162609  162606      25
  162615  162612      24  162618  162612      24  162618  162615      25  162624
  162621      24  162627  162621      24  162627  162624      25  162633  162630
      24  162636  162630      24  162636  162633      25  162642  162639      24
  162645  162639      24  162645  162642      25  162651  162648      24  162654
  162648      24  162654  162651      25  162660  162657      24  162663  162657
      24  162663  162660      25  162669  162666      24  162672  162666      24
  162672  162669      25  162678  162675      24  162681  162675      24  162681
  162678      25  162687  162684      24  162690  162684      24  162690  162687
      25  162696  162693      24  162699  162693      24  162699  162696      25
  162705  162702      24  162708  162702      24  162708  162705      25  162714
  162711      24  162717  162711      24  162717  162714      25  162723  162720
      24  162726  162720      24  162726  162723      25  162732  162729      24
  162735  162729      24  162735  162732      25  162741  162738      24  162744
  162738      24  162744  162741      25  162750  162747      24  162753  162747
      24  162753  162750      25  162759  162756      24  162762  162756      24
  162762  162759      25  162768  162765      24  162771  162765      24  162771
  162768      25  162777  162774      24  162780  162774      24  162780  162777
      25  162786  162783      24  162789  162783      24  162789  162786      25
  162795  162792      24  162798  162792      24  162798  162795      25  162804
  162801      24  162807  162801      24  162807  162804      25  162813  162810
      24  162816  162810      24  162816  162813      25  162822  162819      24
  162825  162819      24  162825  162822      25  162831  162828      24  162834
  162828      24  162834  162831      25  162840  162837      24  162843  162837
      24  162843  162840      25  162849  162846      24  162852  162846      24
  162852  162849      25  162858  162855      24  162861  162855      24  162861
  162858      25  162867  162864      24  162870  162864      24  162870  162867
      25  162876  162873      24  162879  162873      24  162879  162876      25
  162885  162882      24  162888  162882      24  162888  162885      25  162894
  162891      24  162897  162891      24  162897  162894      25  162903  162900
      24  162906  162900      24  162906  162903      25  162912  162909      24
  162915  162909      24  162915  162912      25  162921  162918      24  162924
  162918      24  162924  162921      25  162930  162927      24  162933  162927
      24  162933  162930      25  162939  162936      24  162942  162936      24
  162942  162939      25  162948  162945      24  162951  162945      24  162951
  162948      25  162957  162954      24  162960  162954      24  162960  162957
      25  162966  162963      24  162969  162963      24  162969  162966      25
  162975  162972      24  162978  162972      24  162978  162975      25  162984
  162981      24  162987  162981      24  162987  162984      25  162993  162990
      24  162996  162990      24  162996  162993      25  163002  162999      24
  163005  162999      24  163005  163002      25  163011  163008      24  163014
  163008      24  163014  163011      25  163020  163017      24  163023  163017
      24  163023  163020      25  163029  163026      24  163032  163026      24
  163032  163029      25  163038  163035      24  163041  163035      24  163041
  163038      25  163047  163044      24  163050  163044      24  163050  163047
      25  163056  163053      24  163059  163053      24  163059  163056      25
  163065  163062      24  163068  163062      24  163068  163065      25  163074
  163071      24  163077  163071      24  163077  163074      25  163083  163080
      24  163086  163080      24  163086  163083      25  163092  163089      24
  163095  163089      24  163095  163092      25  163101  163098      24  163104
  163098      24  163104  163101      25  163110  163107      24  163113  163107
      24  163113  163110      25  163119  163116      24  163122  163116      24
  163122  163119      25  163128  163125      24  163131  163125      24  163131
  163128      25  163137  163134      24  163140  163134      24  163140  163137
      25  163146  163143      24  163149  163143      24  163149  163146      25
  163155  163152      24  163158  163152      24  163158  163155      25  163164
  163161      24  163167  163161      24  163167  163164      25  163173  163170
      24  163176  163170      24  163176  163173      25  163182  163179      24
  163185  163179      24  163185  163182      25  163191  163188      24  163194
  163188      24  163194  163191      25  163200  163197      24  163203  163197
      24  163203  163200      25  163209  163206      24  163212  163206      24
  163212  163209      25  163218  163215      24  163221  163215      24  163221
  163218      25  163227  163224      24  163230  163224      24  163230  163227
      25  163236  163233      24  163239  163233      24  163239  163236      25
  163245  163242      24  163248  163242      24  163248  163245      25  163254
  163251      24  163257  163251      24  163257  163254      25  163263  163260
      24  163266  163260      24  163266  163263      25  163272  163269      24
  163275  163269      24  163275  163272      25  163281  163278      24  163284
  163278      24  163284  163281      25  163290  163287      24  163293  163287
      24  163293  163290      25  163299  163296      24  163302  163296      24
  163302  163299      25  163308  163305      24  163311  163305      24  163311
  163308      25  163317  163314      24  163320  163314      24  163320  163317
      25  163326  163323      24  163329  163323      24  163329  163326      25
  163335  163332      24  163338  163332      24  163338  163335      25  163344
  163341      24  163347  163341      24  163347  163344      25  163353  163350
      24  163356  163350      24  163356  163353      25  163362  163359      24
  163365  163359      24  163365  163362      25  163371  163368      24  163374
  163368      24  163374  163371      25  163380  163377      24  163383  163377
      24  163383  163380      25  163389  163386      24  163392  163386      24
  163392  163389      25  163398  163395      24  163401  163395      24  163401
  163398      25  163407  163404      24  163410  163404      24  163410  163407
      25  163416  163413      24  163419  163413      24  163419  163416      25
  163425  163422      24  163428  163422      24  163428  163425      25  163434
  163431      24  163437  163431      24  163437  163434      25  163443  163440
      24  163446  163440      24  163446  163443      25  163452  163449      24
  163455  163449      24  163455  163452      25  163461  163458      24  163464
  163458      24  163464  163461      25  163470  163467      24  163473  163467
      24  163473  163470      25  163479  163476      24  163482  163476      24
  163482  163479      25  163488  163485      24  163491  163485      24  163491
  163488      25  163497  163494      24  163500  163494      24  163500  163497
      25  163506  163503      24  163509  163503      24  163509  163506      25
  163515  163512      24  163518  163512      24  163518  163515      25  163524
  163521      24  163527  163521      24  163527  163524      25  163533  163530
      24  163536  163530      24  163536  163533      25  163542  163539      24
  163545  163539      24  163545  163542      25  163551  163548      24  163554
  163548      24  163554  163551      25  163560  163557      24  163563  163557
      24  163563  163560      25  163569  163566      24  163572  163566      24
  163572  163569      25  163578  163575      24  163581  163575      24  163581
  163578      25  163587  163584      24  163590  163584      24  163590  163587
      25  163596  163593      24  163599  163593      24  163599  163596      25
  163605  163602      24  163608  163602      24  163608  163605      25  163614
  163611      24  163617  163611      24  163617  163614      25  163623  163620
      24  163626  163620      24  163626  163623      25  163632  163629      24
  163635  163629      24  163635  163632      25  163641  163638      24  163644
  163638      24  163644  163641      25  163650  163647      24  163653  163647
      24  163653  163650      25  163659  163656      24  163662  163656      24
  163662  163659      25  163668  163665      24  163671  163665      24  163671
  163668      25  163677  163674      24  163680  163674      24  163680  163677
      25  163686  163683      24  163689  163683      24  163689  163686      25
  163695  163692      24  163698  163692      24  163698  163695      25  163704
  163701      24  163707  163701      24  163707  163704      25  163713  163710
      24  163716  163710      24  163716  163713      25  163722  163719      24
  163725  163719      24  163725  163722      25  163731  163728      24  163734
  163728      24  163734  163731      25  163740  163737      24  163743  163737
      24  163743  163740      25  163749  163746      24  163752  163746      24
  163752  163749      25  163758  163755      24  163761  163755      24  163761
  163758      25  163767  163764      24  163770  163764      24  163770  163767
      25  163776  163773      24  163779  163773      24  163779  163776      25
  163785  163782      24  163788  163782      24  163788  163785      25  163794
  163791      24  163797  163791      24  163797  163794      25  163803  163800
      24  163806  163800      24  163806  163803      25  163812  163809      24
  163815  163809      24  163815  163812      25  163821  163818      24  163824
  163818      24  163824  163821      25  163830  163827      24  163833  163827
      24  163833  163830      25  163839  163836      24  163842  163836      24
  163842  163839      25  163848  163845      24  163851  163845      24  163851
  163848      25  163857  163854      24  163860  163854      24  163860  163857
      25  163866  163863      24  163869  163863      24  163869  163866      25
  163875  163872      24  163878  163872      24  163878  163875      25  163884
  163881      24  163887  163881      24  163887  163884      25  163893  163890
      24  163896  163890      24  163896  163893      25  163902  163899      24
  163905  163899      24  163905  163902      25  163911  163908      24  163914
  163908      24  163914  163911      25  163920  163917      24  163923  163917
      24  163923  163920      25  163929  163926      24  163932  163926      24
  163932  163929      25  163938  163935      24  163941  163935      24  163941
  163938      25  163947  163944      24  163950  163944      24  163950  163947
      25  163956  163953      24  163959  163953      24  163959  163956      25
  163965  163962      24  163968  163962      24  163968  163965      25  163974
  163971      24  163977  163971      24  163977  163974      25  163983  163980
      24  163986  163980      24  163986  163983      25  163992  163989      24
  163995  163989      24  163995  163992      25  164001  163998      24  164004
  163998      24  164004  164001      25  164010  164007      24  164013  164007
      24  164013  164010      25  164019  164016      24  164022  164016      24
  164022  164019      25  164028  164025      24  164031  164025      24  164031
  164028      25  164037  164034      24  164040  164034      24  164040  164037
      25  164046  164043      24  164049  164043      24  164049  164046      25
  164055  164052      24  164058  164052      24  164058  164055      25  164064
  164061      24  164067  164061      24  164067  164064      25  164073  164070
      24  164076  164070      24  164076  164073      25  164082  164079      24
  164085  164079      24  164085  164082      25  164091  164088      24  164094
  164088      24  164094  164091      25  164100  164097      24  164103  164097
      24  164103  164100      25  164109  164106      24  164112  164106      24
  164112  164109      25  164118  164115      24  164121  164115      24  164121
  164118      25  164127  164124      24  164130  164124      24  164130  164127
      25  164136  164133      24  164139  164133      24  164139  164136      25
  164145  164142      24  164148  164142      24  164148  164145      25  164154
  164151      24  164157  164151      24  164157  164154      25  164163  164160
      24  164166  164160      24  164166  164163      25  164172  164169      24
  164175  164169      24  164175  164172      25  164181  164178      24  164184
  164178      24  164184  164181      25  164190  164187      24  164193  164187
      24  164193  164190      25  164199  164196      24  164202  164196      24
  164202  164199      25  164208  164205      24  164211  164205      24  164211
  164208      25  164217  164214      24  164220  164214      24  164220  164217
      25  164226  164223      24  164229  164223      24  164229  164226      25
  164235  164232      24  164238  164232      24  164238  164235      25  164244
  164241      24  164247  164241      24  164247  164244      25  164253  164250
      24  164256  164250      24  164256  164253      25  164262  164259      24
  164265  164259      24  164265  164262      25  164271  164268      24  164274
  164268      24  164274  164271      25  164280  164277      24  164283  164277
      24  164283  164280      25  164289  164286      24  164292  164286      24
  164292  164289      25  164298  164295      24  164301  164295      24  164301
  164298      25  164307  164304      24  164310  164304      24  164310  164307
      25  164316  164313      24  164319  164313      24  164319  164316      25
  164325  164322      24  164328  164322      24  164328  164325      25  164334
  164331      24  164337  164331      24  164337  164334      25  164343  164340
      24  164346  164340      24  164346  164343      25  164352  164349      24
  164355  164349      24  164355  164352      25  164361  164358      24  164364
  164358      24  164364  164361      25  164370  164367      24  164373  164367
      24  164373  164370      25  164379  164376      24  164382  164376      24
  164382  164379      25  164388  164385      24  164391  164385      24  164391
  164388      25  164397  164394      24  164400  164394      24  164400  164397
      25  164406  164403      24  164409  164403      24  164409  164406      25
  164415  164412      24  164418  164412      24  164418  164415      25  164424
  164421      24  164427  164421      24  164427  164424      25  164433  164430
      24  164436  164430      24  164436  164433      25  164442  164439      24
  164445  164439      24  164445  164442      25  164451  164448      24  164454
  164448      24  164454  164451      25  164460  164457      24  164463  164457
      24  164463  164460      25  164469  164466      24  164472  164466      24
  164472  164469      25  164478  164475      24  164481  164475      24  164481
  164478      25  164487  164484      24  164490  164484      24  164490  164487
      25  164496  164493      24  164499  164493      24  164499  164496      25
  164505  164502      24  164508  164502      24  164508  164505      25  164514
  164511      24  164517  164511      24  164517  164514      25  164523  164520
      24  164526  164520      24  164526  164523      25  164532  164529      24
  164535  164529      24  164535  164532      25  164541  164538      24  164544
  164538      24  164544  164541      25  164550  164547      24  164553  164547
      24  164553  164550      25  164559  164556      24  164562  164556      24
  164562  164559      25  164568  164565      24  164571  164565      24  164571
  164568      25  164577  164574      24  164580  164574      24  164580  164577
      25  164586  164583      24  164589  164583      24  164589  164586      25
  164595  164592      24  164598  164592      24  164598  164595      25  164604
  164601      24  164607  164601      24  164607  164604      25  164613  164610
      24  164616  164610      24  164616  164613      25  164622  164619      24
  164625  164619      24  164625  164622      25  164631  164628      24  164634
  164628      24  164634  164631      25  164640  164637      24  164643  164637
      24  164643  164640      25  164649  164646      24  164652  164646      24
  164652  164649      25  164658  164655      24  164661  164655      24  164661
  164658      25  164667  164664      24  164670  164664      24  164670  164667
      25  164676  164673      24  164679  164673      24  164679  164676      25
  164685  164682      24  164688  164682      24  164688  164685      25  164694
  164691      24  164697  164691      24  164697  164694      25  164703  164700
      24  164706  164700      24  164706  164703      25  164712  164709      24
  164715  164709      24  164715  164712      25  164721  164718      24  164724
  164718      24  164724  164721      25  164730  164727      24  164733  164727
      24  164733  164730      25  164739  164736      24  164742  164736      24
  164742  164739      25  164748  164745      24  164751  164745      24  164751
  164748      25  164757  164754      24  164760  164754      24  164760  164757
      25  164766  164763      24  164769  164763      24  164769  164766      25
  164775  164772      24  164778  164772      24  164778  164775      25  164784
  164781      24  164787  164781      24  164787  164784      25  164793  164790
      24  164796  164790      24  164796  164793      25  164802  164799      24
  164805  164799      24  164805  164802      25  164811  164808      24  164814
  164808      24  164814  164811      25  164820  164817      24  164823  164817
      24  164823  164820      25  164829  164826      24  164832  164826      24
  164832  164829      25  164838  164835      24  164841  164835      24  164841
  164838      25  164847  164844      24  164850  164844      24  164850  164847
      25  164856  164853      24  164859  164853      24  164859  164856      25
  164865  164862      24  164868  164862      24  164868  164865      25  164874
  164871      24  164877  164871      24  164877  164874      25  164883  164880
      24  164886  164880      24  164886  164883      25  164892  164889      24
  164895  164889      24  164895  164892      25  164901  164898      24  164904
  164898      24  164904  164901      25  164910  164907      24  164913  164907
      24  164913  164910      25  164919  164916      24  164922  164916      24
  164922  164919      25  164928  164925      24  164931  164925      24  164931
  164928      25  164937  164934      24  164940  164934      24  164940  164937
      25  164946  164943      24  164949  164943      24  164949  164946      25
  164955  164952      24  164958  164952      24  164958  164955      25  164964
  164961      24  164967  164961      24  164967  164964      25  164973  164970
      24  164976  164970      24  164976  164973      25  164982  164979      24
  164985  164979      24  164985  164982      25  164991  164988      24  164994
  164988      24  164994  164991      25  165000  164997      24  165003  164997
      24  165003  165000      25  165009  165006      24  165012  165006      24
  165012  165009      25  165018  165015      24  165021  165015      24  165021
  165018      25  165027  165024      24  165030  165024      24  165030  165027
      25  165036  165033      24  165039  165033      24  165039  165036      25
  165045  165042      24  165048  165042      24  165048  165045      25  165054
  165051      24  165057  165051      24  165057  165054      25  165063  165060
      24  165066  165060      24  165066  165063      25  165072  165069      24
  165075  165069      24  165075  165072      25  165081  165078      24  165084
  165078      24  165084  165081      25  165090  165087      24  165093  165087
      24  165093  165090      25  165099  165096      24  165102  165096      24
  165102  165099      25  165108  165105      24  165111  165105      24  165111
  165108      25  165117  165114      24  165120  165114      24  165120  165117
      25  165126  165123      24  165129  165123      24  165129  165126      25
  165135  165132      24  165138  165132      24  165138  165135      25  165144
  165141      24  165147  165141      24  165147  165144      25  165153  165150
      24  165156  165150      24  165156  165153      25  165162  165159      24
  165165  165159      24  165165  165162      25  165171  165168      24  165174
  165168      24  165174  165171      25  165180  165177      24  165183  165177
      24  165183  165180      25  165189  165186      24  165192  165186      24
  165192  165189      25  165198  165195      24  165201  165195      24  165201
  165198      25  165207  165204      24  165210  165204      24  165210  165207
      25  165216  165213      24  165219  165213      24  165219  165216      25
  165225  165222      24  165228  165222      24  165228  165225      25  165234
  165231      24  165237  165231      24  165237  165234      25  165243  165240
      24  165246  165240      24  165246  165243      25  165252  165249      24
  165255  165249      24  165255  165252      25  165261  165258      24  165264
  165258      24  165264  165261      25  165270  165267      24  165273  165267
      24  165273  165270      25  165279  165276      24  165282  165276      24
  165282  165279      25  165288  165285      24  165291  165285      24  165291
  165288      25  165297  165294      24  165300  165294      24  165300  165297
      25  165306  165303      24  165309  165303      24  165309  165306      25
  165315  165312      24  165318  165312      24  165318  165315      25  165324
  165321      24  165327  165321      24  165327  165324      25  165333  165330
      24  165336  165330      24  165336  165333      25  165342  165339      24
  165345  165339      24  165345  165342      25  165351  165348      24  165354
  165348      24  165354  165351      25  165360  165357      24  165363  165357
      24  165363  165360      25  165369  165366      24  165372  165366      24
  165372  165369      25  165378  165375      24  165381  165375      24  165381
  165378      25  165387  165384      24  165390  165384      24  165390  165387
      25  165396  165393      24  165399  165393      24  165399  165396      25
  165405  165402      24  165408  165402      24  165408  165405      25  165414
  165411      24  165417  165411      24  165417  165414      25  165423  165420
      24  165426  165420      24  165426  165423      25  165432  165429      24
  165435  165429      24  165435  165432      25  165441  165438      24  165444
  165438      24  165444  165441      25  165450  165447      24  165453  165447
      24  165453  165450      25  165459  165456      24  165462  165456      24
  165462  165459      25  165468  165465      24  165471  165465      24  165471
  165468      25  165477  165474      24  165480  165474      24  165480  165477
      25  165486  165483      24  165489  165483      24  165489  165486      25
  165495  165492      24  165498  165492      24  165498  165495      25  165504
  165501      24  165507  165501      24  165507  165504      25  165513  165510
      24  165516  165510      24  165516  165513      25  165522  165519      24
  165525  165519      24  165525  165522      25  165531  165528      24  165534
  165528      24  165534  165531      25  165540  165537      24  165543  165537
      24  165543  165540      25  165549  165546      24  165552  165546      24
  165552  165549      25  165558  165555      24  165561  165555      24  165561
  165558      25  165567  165564      24  165570  165564      24  165570  165567
      25  165576  165573      24  165579  165573      24  165579  165576      25
  165585  165582      24  165588  165582      24  165588  165585      25  165594
  165591      24  165597  165591      24  165597  165594      25  165603  165600
      24  165606  165600      24  165606  165603      25  165612  165609      24
  165615  165609      24  165615  165612      25  165621  165618      24  165624
  165618      24  165624  165621      25  165630  165627      24  165633  165627
      24  165633  165630      25  165639  165636      24  165642  165636      24
  165642  165639      25  165648  165645      24  165651  165645      24  165651
  165648      25  165657  165654      24  165660  165654      24  165660  165657
      25  165666  165663      24  165669  165663      24  165669  165666      25
  165675  165672      24  165678  165672      24  165678  165675      25  165684
  165681      24  165687  165681      24  165687  165684      25  165693  165690
      24  165696  165690      24  165696  165693      25  165702  165699      24
  165705  165699      24  165705  165702      25  165711  165708      24  165714
  165708      24  165714  165711      25  165720  165717      24  165723  165717
      24  165723  165720      25  165729  165726      24  165732  165726      24
  165732  165729      25  165738  165735      24  165741  165735      24  165741
  165738      25  165747  165744      24  165750  165744      24  165750  165747
      25  165756  165753      24  165759  165753      24  165759  165756      25
  165765  165762      24  165768  165762      24  165768  165765      25  165774
  165771      24  165777  165771      24  165777  165774      25  165783  165780
      24  165786  165780      24  165786  165783      25  165792  165789      24
  165795  165789      24  165795  165792      25  165801  165798      24  165804
  165798      24  165804  165801      25  165810  165807      24  165813  165807
      24  165813  165810      25  165819  165816      24  165822  165816      24
  165822  165819      25  165828  165825      24  165831  165825      24  165831
  165828      25  165837  165834      24  165840  165834      24  165840  165837
      25  165846  165843      24  165849  165843      24  165849  165846      25
  165855  165852      24  165858  165852      24  165858  165855      25  165864
  165861      24  165867  165861      24  165867  165864      25  165873  165870
      24  165876  165870      24  165876  165873      25  165882  165879      24
  165885  165879      24  165885  165882      25  165891  165888      24  165894
  165888      24  165894  165891      25  165900  165897      24  165903  165897
      24  165903  165900      25  165909  165906      24  165912  165906      24
  165912  165909      25  165918  165915      24  165921  165915      24  165921
  165918      25  165927  165924      24  165930  165924      24  165930  165927
      25  165936  165933      24  165939  165933      24  165939  165936      25
  165945  165942      24  165948  165942      24  165948  165945      25  165954
  165951      24  165957  165951      24  165957  165954      25  165963  165960
      24  165966  165960      24  165966  165963      25  165972  165969      24
  165975  165969      24  165975  165972      25  165981  165978      24  165984
  165978      24  165984  165981      25  165990  165987      24  165993  165987
      24  165993  165990      25  165999  165996      24  166002  165996      24
  166002  165999      25  166008  166005      24  166011  166005      24  166011
  166008      25  166017  166014      24  166020  166014      24  166020  166017
      25  166026  166023      24  166029  166023      24  166029  166026      25
  166035  166032      24  166038  166032      24  166038  166035      25  166044
  166041      24  166047  166041      24  166047  166044      25  166053  166050
      24  166056  166050      24  166056  166053      25  166062  166059      24
  166065  166059      24  166065  166062      25  166071  166068      24  166074
  166068      24  166074  166071      25  166080  166077      24  166083  166077
      24  166083  166080      25  166089  166086      24  166092  166086      24
  166092  166089      25  166098  166095      24  166101  166095      24  166101
  166098      25  166107  166104      24  166110  166104      24  166110  166107
      25  166116  166113      24  166119  166113      24  166119  166116      25
  166125  166122      24  166128  166122      24  166128  166125      25  166134
  166131      24  166137  166131      24  166137  166134      25  166143  166140
      24  166146  166140      24  166146  166143      25  166152  166149      24
  166155  166149      24  166155  166152      25  166161  166158      24  166164
  166158      24  166164  166161      25  166170  166167      24  166173  166167
      24  166173  166170      25  166179  166176      24  166182  166176      24
  166182  166179      25  166188  166185      24  166191  166185      24  166191
  166188      25  166197  166194      24  166200  166194      24  166200  166197
      25  166206  166203      24  166209  166203      24  166209  166206      25
  166215  166212      24  166218  166212      24  166218  166215      25  166224
  166221      24  166227  166221      24  166227  166224      25  166233  166230
      24  166236  166230      24  166236  166233      25  166242  166239      24
  166245  166239      24  166245  166242      25  166251  166248      24  166254
  166248      24  166254  166251      25  166260  166257      24  166263  166257
      24  166263  166260      25  166269  166266      24  166272  166266      24
  166272  166269      25  166278  166275      24  166281  166275      24  166281
  166278      25  166287  166284      24  166290  166284      24  166290  166287
      25  166296  166293      24  166299  166293      24  166299  166296      25
  166305  166302      24  166308  166302      24  166308  166305      25  166314
  166311      24  166317  166311      24  166317  166314      25  166323  166320
      24  166326  166320      24  166326  166323      25  166332  166329      24
  166335  166329      24  166335  166332      25  166341  166338      24  166344
  166338      24  166344  166341      25  166350  166347      24  166353  166347
      24  166353  166350      25  166359  166356      24  166362  166356      24
  166362  166359      25  166368  166365      24  166371  166365      24  166371
  166368      25  166377  166374      24  166380  166374      24  166380  166377
      25  166386  166383      24  166389  166383      24  166389  166386      25
  166395  166392      24  166398  166392      24  166398  166395      25  166404
  166401      24  166407  166401      24  166407  166404      25  166413  166410
      24  166416  166410      24  166416  166413      25  166422  166419      24
  166425  166419      24  166425  166422      25  166431  166428      24  166434
  166428      24  166434  166431      25  166440  166437      24  166443  166437
      24  166443  166440      25  166449  166446      24  166452  166446      24
  166452  166449      25  166458  166455      24  166461  166455      24  166461
  166458      25  166467  166464      24  166470  166464      24  166470  166467
      25  166476  166473      24  166479  166473      24  166479  166476      25
  166485  166482      24  166488  166482      24  166488  166485      25  166494
  166491      24  166497  166491      24  166497  166494      25  166503  166500
      24  166506  166500      24  166506  166503      25  166512  166509      24
  166515  166509      24  166515  166512      25  166521  166518      24  166524
  166518      24  166524  166521      25  166530  166527      24  166533  166527
      24  166533  166530      25  166539  166536      24  166542  166536      24
  166542  166539      25  166548  166545      24  166551  166545      24  166551
  166548      25  166557  166554      24  166560  166554      24  166560  166557
      25  166566  166563      24  166569  166563      24  166569  166566      25
  166575  166572      24  166578  166572      24  166578  166575      25  166584
  166581      24  166587  166581      24  166587  166584      25  166593  166590
      24  166596  166590      24  166596  166593      25  166602  166599      24
  166605  166599      24  166605  166602      25  166611  166608      24  166614
  166608      24  166614  166611      25  166620  166617      24  166623  166617
      24  166623  166620      25  166629  166626      24  166632  166626      24
  166632  166629      25  166638  166635      24  166641  166635      24  166641
  166638      25  166647  166644      24  166650  166644      24  166650  166647
      25  166656  166653      24  166659  166653      24  166659  166656      25
  166665  166662      24  166668  166662      24  166668  166665      25  166674
  166671      24  166677  166671      24  166677  166674      25  166683  166680
      24  166686  166680      24  166686  166683      25  166692  166689      24
  166695  166689      24  166695  166692      25  166701  166698      24  166704
  166698      24  166704  166701      25  166710  166707      24  166713  166707
      24  166713  166710      25  166719  166716      24  166722  166716      24
  166722  166719      25  166728  166725      24  166731  166725      24  166731
  166728      25  166737  166734      24  166740  166734      24  166740  166737
      25  166746  166743      24  166749  166743      24  166749  166746      25
  166755  166752      24  166758  166752      24  166758  166755      25  166764
  166761      24  166767  166761      24  166767  166764      25  166773  166770
      24  166776  166770      24  166776  166773      25  166782  166779      24
  166785  166779      24  166785  166782      25  166791  166788      24  166794
  166788      24  166794  166791      25  166800  166797      24  166803  166797
      24  166803  166800      25  166809  166806      24  166812  166806      24
  166812  166809      25  166818  166815      24  166821  166815      24  166821
  166818      25  166827  166824      24  166830  166824      24  166830  166827
      25  166836  166833      24  166839  166833      24  166839  166836      25
  166845  166842      24  166848  166842      24  166848  166845      25  166854
  166851      24  166857  166851      24  166857  166854      25  166863  166860
      24  166866  166860      24  166866  166863      25  166872  166869      24
  166875  166869      24  166875  166872      25  166881  166878      24  166884
  166878      24  166884  166881      25  166890  166887      24  166893  166887
      24  166893  166890      25  166899  166896      24  166902  166896      24
  166902  166899      25  166908  166905      24  166911  166905      24  166911
  166908      25  166917  166914      24  166920  166914      24  166920  166917
      25  166926  166923      24  166929  166923      24  166929  166926      25
  166935  166932      24  166938  166932      24  166938  166935      25  166944
  166941      24  166947  166941      24  166947  166944      25  166953  166950
      24  166956  166950      24  166956  166953      25  166962  166959      24
  166965  166959      24  166965  166962      25  166971  166968      24  166974
  166968      24  166974  166971      25  166980  166977      24  166983  166977
      24  166983  166980      25  166989  166986      24  166992  166986      24
  166992  166989      25  166998  166995      24  167001  166995      24  167001
  166998      25  167007  167004      24  167010  167004      24  167010  167007
      25  167016  167013      24  167019  167013      24  167019  167016      25
  167025  167022      24  167028  167022      24  167028  167025      25  167034
  167031      24  167037  167031      24  167037  167034      25  167043  167040
      24  167046  167040      24  167046  167043      25  167052  167049      24
  167055  167049      24  167055  167052      25  167061  167058      24  167064
  167058      24  167064  167061      25  167070  167067      24  167073  167067
      24  167073  167070      25  167079  167076      24  167082  167076      24
  167082  167079      25  167088  167085      24  167091  167085      24  167091
  167088      25  167097  167094      24  167100  167094      24  167100  167097
      25  167106  167103      24  167109  167103      24  167109  167106      25
  167115  167112      24  167118  167112      24  167118  167115      25  167124
  167121      24  167127  167121      24  167127  167124      25  167133  167130
      24  167136  167130      24  167136  167133      25  167142  167139      24
  167145  167139      24  167145  167142      25  167151  167148      24  167154
  167148      24  167154  167151      25  167160  167157      24  167163  167157
      24  167163  167160      25  167169  167166      24  167172  167166      24
  167172  167169      25  167178  167175      24  167181  167175      24  167181
  167178      25  167187  167184      24  167190  167184      24  167190  167187
      25  167196  167193      24  167199  167193      24  167199  167196      25
  167205  167202      24  167208  167202      24  167208  167205      25  167214
  167211      24  167217  167211      24  167217  167214      25  167223  167220
      24  167226  167220      24  167226  167223      25  167232  167229      24
  167235  167229      24  167235  167232      25  167241  167238      24  167244
  167238      24  167244  167241      25  167250  167247      24  167253  167247
      24  167253  167250      25  167259  167256      24  167262  167256      24
  167262  167259      25  167268  167265      24  167271  167265      24  167271
  167268      25  167277  167274      24  167280  167274      24  167280  167277
      25  167286  167283      24  167289  167283      24  167289  167286      25
  167295  167292      24  167298  167292      24  167298  167295      25  167304
  167301      24  167307  167301      24  167307  167304      25  167313  167310
      24  167316  167310      24  167316  167313      25  167322  167319      24
  167325  167319      24  167325  167322      25  167331  167328      24  167334
  167328      24  167334  167331      25  167340  167337      24  167343  167337
      24  167343  167340      25  167349  167346      24  167352  167346      24
  167352  167349      25  167358  167355      24  167361  167355      24  167361
  167358      25  167367  167364      24  167370  167364      24  167370  167367
      25  167376  167373      24  167379  167373      24  167379  167376      25
  167385  167382      24  167388  167382      24  167388  167385      25  167394
  167391      24  167397  167391      24  167397  167394      25  167403  167400
      24  167406  167400      24  167406  167403      25  167412  167409      24
  167415  167409      24  167415  167412      25  167421  167418      24  167424
  167418      24  167424  167421      25  167430  167427      24  167433  167427
      24  167433  167430      25  167439  167436      24  167442  167436      24
  167442  167439      25  167448  167445      24  167451  167445      24  167451
  167448      25  167457  167454      24  167460  167454      24  167460  167457
      25  167466  167463      24  167469  167463      24  167469  167466      25
  167475  167472      24  167478  167472      24  167478  167475      25  167484
  167481      24  167487  167481      24  167487  167484      25  167493  167490
      24  167496  167490      24  167496  167493      25  167502  167499      24
  167505  167499      24  167505  167502      25  167511  167508      24  167514
  167508      24  167514  167511      25  167520  167517      24  167523  167517
      24  167523  167520      25  167529  167526      24  167532  167526      24
  167532  167529      25  167538  167535      24  167541  167535      24  167541
  167538      25  167547  167544      24  167550  167544      24  167550  167547
      25  167556  167553      24  167559  167553      24  167559  167556      25
  167565  167562      24  167568  167562      24  167568  167565      25  167574
  167571      24  167577  167571      24  167577  167574      25  167583  167580
      24  167586  167580      24  167586  167583      25  167592  167589      24
  167595  167589      24  167595  167592      25  167601  167598      24  167604
  167598      24  167604  167601      25  167610  167607      24  167613  167607
      24  167613  167610      25  167619  167616      24  167622  167616      24
  167622  167619      25  167628  167625      24  167631  167625      24  167631
  167628      25  167637  167634      24  167640  167634      24  167640  167637
      25  167646  167643      24  167649  167643      24  167649  167646      25
  167655  167652      24  167658  167652      24  167658  167655      25  167664
  167661      24  167667  167661      24  167667  167664      25  167673  167670
      24  167676  167670      24  167676  167673      25  167682  167679      24
  167685  167679      24  167685  167682      25  167691  167688      24  167694
  167688      24  167694  167691      25  167700  167697      24  167703  167697
      24  167703  167700      25  167709  167706      24  167712  167706      24
  167712  167709      25  167718  167715      24  167721  167715      24  167721
  167718      25  167727  167724      24  167730  167724      24  167730  167727
      25  167736  167733      24  167739  167733      24  167739  167736      25
  167745  167742      24  167748  167742      24  167748  167745      25  167754
  167751      24  167757  167751      24  167757  167754      25  167763  167760
      24  167766  167760      24  167766  167763      25  167772  167769      24
  167775  167769      24  167775  167772      25  167781  167778      24  167784
  167778      24  167784  167781      25  167790  167787      24  167793  167787
      24  167793  167790      25  167799  167796      24  167802  167796      24
  167802  167799      25  167808  167805      24  167811  167805      24  167811
  167808      25  167817  167814      24  167820  167814      24  167820  167817
      25  167826  167823      24  167829  167823      24  167829  167826      25
  167835  167832      24  167838  167832      24  167838  167835      25  167844
  167841      24  167847  167841      24  167847  167844      25  167853  167850
      24  167856  167850      24  167856  167853      25  167862  167859      24
  167865  167859      24  167865  167862      25  167871  167868      24  167874
  167868      24  167874  167871      25  167880  167877      24  167883  167877
      24  167883  167880      25  167889  167886      24  167892  167886      24
  167892  167889      25  167898  167895      24  167901  167895      24  167901
  167898      25  167907  167904      24  167910  167904      24  167910  167907
      25  167916  167913      24  167919  167913      24  167919  167916      25
  167925  167922      24  167928  167922      24  167928  167925      25  167934
  167931      24  167937  167931      24  167937  167934      25  167943  167940
      24  167946  167940      24  167946  167943      25  167952  167949      24
  167955  167949      24  167955  167952      25  167961  167958      24  167964
  167958      24  167964  167961      25  167970  167967      24  167973  167967
      24  167973  167970      25  167979  167976      24  167982  167976      24
  167982  167979      25  167988  167985      24  167991  167985      24  167991
  167988      25  167997  167994      24  168000  167994      24  168000  167997
      25  168006  168003      24  168009  168003      24  168009  168006      25
  168015  168012      24  168018  168012      24  168018  168015      25  168024
  168021      24  168027  168021      24  168027  168024      25  168033  168030
      24  168036  168030      24  168036  168033      25  168042  168039      24
  168045  168039      24  168045  168042      25  168051  168048      24  168054
  168048      24  168054  168051      25  168060  168057      24  168063  168057
      24  168063  168060      25  168069  168066      24  168072  168066      24
  168072  168069      25  168078  168075      24  168081  168075      24  168081
  168078      25  168087  168084      24  168090  168084      24  168090  168087
      25  168096  168093      24  168099  168093      24  168099  168096      25
  168105  168102      24  168108  168102      24  168108  168105      25  168114
  168111      24  168117  168111      24  168117  168114      25  168123  168120
      24  168126  168120      24  168126  168123      25  168132  168129      24
  168135  168129      24  168135  168132      25  168141  168138      24  168144
  168138      24  168144  168141      25  168150  168147      24  168153  168147
      24  168153  168150      25  168159  168156      24  168162  168156      24
  168162  168159      25  168168  168165      24  168171  168165      24  168171
  168168      25  168177  168174      24  168180  168174      24  168180  168177
      25  168186  168183      24  168189  168183      24  168189  168186      25
  168195  168192      24  168198  168192      24  168198  168195      25  168204
  168201      24  168207  168201      24  168207  168204      25  168213  168210
      24  168216  168210      24  168216  168213      25  168222  168219      24
  168225  168219      24  168225  168222      25  168231  168228      24  168234
  168228      24  168234  168231      25  168240  168237      24  168243  168237
      24  168243  168240      25  168249  168246      24  168252  168246      24
  168252  168249      25  168258  168255      24  168261  168255      24  168261
  168258      25  168267  168264      24  168270  168264      24  168270  168267
      25  168276  168273      24  168279  168273      24  168279  168276      25
  168285  168282      24  168288  168282      24  168288  168285      25  168294
  168291      24  168297  168291      24  168297  168294      25  168303  168300
      24  168306  168300      24  168306  168303      25  168312  168309      24
  168315  168309      24  168315  168312      25  168321  168318      24  168324
  168318      24  168324  168321      25  168330  168327      24  168333  168327
      24  168333  168330      25  168339  168336      24  168342  168336      24
  168342  168339      25  168348  168345      24  168351  168345      24  168351
  168348      25  168357  168354      24  168360  168354      24  168360  168357
      25  168366  168363      24  168369  168363      24  168369  168366      25
  168375  168372      24  168378  168372      24  168378  168375      25  168384
  168381      24  168387  168381      24  168387  168384      25  168393  168390
      24  168396  168390      24  168396  168393      25  168402  168399      24
  168405  168399      24  168405  168402      25  168411  168408      24  168414
  168408      24  168414  168411      25  168420  168417      24  168423  168417
      24  168423  168420      25  168429  168426      24  168432  168426      24
  168432  168429      25  168438  168435      24  168441  168435      24  168441
  168438      25  168447  168444      24  168450  168444      24  168450  168447
      25  168456  168453      24  168459  168453      24  168459  168456      25
  168465  168462      24  168468  168462      24  168468  168465      25  168474
  168471      24  168477  168471      24  168477  168474      25  168483  168480
      24  168486  168480      24  168486  168483      25  168492  168489      24
  168495  168489      24  168495  168492      25  168501  168498      24  168504
  168498      24  168504  168501      25  168510  168507      24  168513  168507
      24  168513  168510      25  168519  168516      24  168522  168516      24
  168522  168519      25  168528  168525      24  168531  168525      24  168531
  168528      25  168537  168534      24  168540  168534      24  168540  168537
      25  168546  168543      24  168549  168543      24  168549  168546      25
  168555  168552      24  168558  168552      24  168558  168555      25  168564
  168561      24  168567  168561      24  168567  168564      25  168573  168570
      24  168576  168570      24  168576  168573      25  168582  168579      24
  168585  168579      24  168585  168582      25  168591  168588      24  168594
  168588      24  168594  168591      25  168600  168597      24  168603  168597
      24  168603  168600      25  168609  168606      24  168612  168606      24
  168612  168609      25  168618  168615      24  168621  168615      24  168621
  168618      25  168627  168624      24  168630  168624      24  168630  168627
      25  168636  168633      24  168639  168633      24  168639  168636      25
  168645  168642      24  168648  168642      24  168648  168645      25  168654
  168651      24  168657  168651      24  168657  168654      25  168663  168660
      24  168666  168660      24  168666  168663      25  168672  168669      24
  168675  168669      24  168675  168672      25  168681  168678      24  168684
  168678      24  168684  168681      25  168690  168687      24  168693  168687
      24  168693  168690      25  168699  168696      24  168702  168696      24
  168702  168699      25  168708  168705      24  168711  168705      24  168711
  168708      25  168717  168714      24  168720  168714      24  168720  168717
      25  168726  168723      24  168729  168723      24  168729  168726      25
  168735  168732      24  168738  168732      24  168738  168735      25  168744
  168741      24  168747  168741      24  168747  168744      25  168753  168750
      24  168756  168750      24  168756  168753      25  168762  168759      24
  168765  168759      24  168765  168762      25  168771  168768      24  168774
  168768      24  168774  168771      25  168780  168777      24  168783  168777
      24  168783  168780      25  168789  168786      24  168792  168786      24
  168792  168789      25  168798  168795      24  168801  168795      24  168801
  168798      25  168807  168804      24  168810  168804      24  168810  168807
      25  168816  168813      24  168819  168813      24  168819  168816      25
  168825  168822      24  168828  168822      24  168828  168825      25  168834
  168831      24  168837  168831      24  168837  168834      25  168843  168840
      24  168846  168840      24  168846  168843      25  168852  168849      24
  168855  168849      24  168855  168852      25  168861  168858      24  168864
  168858      24  168864  168861      25  168870  168867      24  168873  168867
      24  168873  168870      25  168879  168876      24  168882  168876      24
  168882  168879      25  168888  168885      24  168891  168885      24  168891
  168888      25  168897  168894      24  168900  168894      24  168900  168897
      25  168906  168903      24  168909  168903      24  168909  168906      25
  168915  168912      24  168918  168912      24  168918  168915      25  168924
  168921      24  168927  168921      24  168927  168924      25  168933  168930
      24  168936  168930      24  168936  168933      25  168942  168939      24
  168945  168939      24  168945  168942      25  168951  168948      24  168954
  168948      24  168954  168951      25  168960  168957      24  168963  168957
      24  168963  168960      25  168969  168966      24  168972  168966      24
  168972  168969      25  168978  168975      24  168981  168975      24  168981
  168978      25  168987  168984      24  168990  168984      24  168990  168987
      25  168996  168993      24  168999  168993      24  168999  168996      25
  169005  169002      24  169008  169002      24  169008  169005      25  169014
  169011      24  169017  169011      24  169017  169014      25  169023  169020
      24  169026  169020      24  169026  169023      25  169032  169029      24
  169035  169029      24  169035  169032      25  169041  169038      24  169044
  169038      24  169044  169041      25  169050  169047      24  169053  169047
      24  169053  169050      25  169059  169056      24  169062  169056      24
  169062  169059      25  169068  169065      24  169071  169065      24  169071
  169068      25  169077  169074      24  169080  169074      24  169080  169077
      25  169086  169083      24  169089  169083      24  169089  169086      25
  169095  169092      24  169098  169092      24  169098  169095      25  169104
  169101      24  169107  169101      24  169107  169104      25  169113  169110
      24  169116  169110      24  169116  169113      25  169122  169119      24
  169125  169119      24  169125  169122      25  169131  169128      24  169134
  169128      24  169134  169131      25  169140  169137      24  169143  169137
      24  169143  169140      25  169149  169146      24  169152  169146      24
  169152  169149      25  169158  169155      24  169161  169155      24  169161
  169158      25  169167  169164      24  169170  169164      24  169170  169167
      25  169176  169173      24  169179  169173      24  169179  169176      25
  169185  169182      24  169188  169182      24  169188  169185      25  169194
  169191      24  169197  169191      24  169197  169194      25  169203  169200
      24  169206  169200      24  169206  169203      25  169212  169209      24
  169215  169209      24  169215  169212      25  169221  169218      24  169224
  169218      24  169224  169221      25  169230  169227      24  169233  169227
      24  169233  169230      25  169239  169236      24  169242  169236      24
  169242  169239      25  169248  169245      24  169251  169245      24  169251
  169248      25  169257  169254      24  169260  169254      24  169260  169257
      25  169266  169263      24  169269  169263      24  169269  169266      25
  169275  169272      24  169278  169272      24  169278  169275      25  169284
  169281      24  169287  169281      24  169287  169284      25  169293  169290
      24  169296  169290      24  169296  169293      25  169302  169299      24
  169305  169299      24  169305  169302      25  169311  169308      24  169314
  169308      24  169314  169311      25  169320  169317      24  169323  169317
      24  169323  169320      25  169329  169326      24  169332  169326      24
  169332  169329      25  169338  169335      24  169341  169335      24  169341
  169338      25  169347  169344      24  169350  169344      24  169350  169347
      25  169356  169353      24  169359  169353      24  169359  169356      25
  169365  169362      24  169368  169362      24  169368  169365      25  169374
  169371      24  169377  169371      24  169377  169374      25  169383  169380
      24  169386  169380      24  169386  169383      25  169392  169389      24
  169395  169389      24  169395  169392      25  169401  169398      24  169404
  169398      24  169404  169401      25  169410  169407      24  169413  169407
      24  169413  169410      25  169419  169416      24  169422  169416      24
  169422  169419      25  169428  169425      24  169431  169425      24  169431
  169428      25  169437  169434      24  169440  169434      24  169440  169437
      25  169446  169443      24  169449  169443      24  169449  169446      25
  169455  169452      24  169458  169452      24  169458  169455      25  169464
  169461      24  169467  169461      24  169467  169464      25  169473  169470
      24  169476  169470      24  169476  169473      25  169482  169479      24
  169485  169479      24  169485  169482      25  169491  169488      24  169494
  169488      24  169494  169491      25  169500  169497      24  169503  169497
      24  169503  169500      25  169509  169506      24  169512  169506      24
  169512  169509      25  169518  169515      24  169521  169515      24  169521
  169518      25  169527  169524      24  169530  169524      24  169530  169527
      25  169536  169533      24  169539  169533      24  169539  169536      25
  169545  169542      24  169548  169542      24  169548  169545      25  169554
  169551      24  169557  169551      24  169557  169554      25  169563  169560
      24  169566  169560      24  169566  169563      25  169572  169569      24
  169575  169569      24  169575  169572      25  169581  169578      24  169584
  169578      24  169584  169581      25  169590  169587      24  169593  169587
      24  169593  169590      25  169599  169596      24  169602  169596      24
  169602  169599      25  169608  169605      24  169611  169605      24  169611
  169608      25  169617  169614      24  169620  169614      24  169620  169617
      25  169626  169623      24  169629  169623      24  169629  169626      25
  169635  169632      24  169638  169632      24  169638  169635      25  169644
  169641      24  169647  169641      24  169647  169644      25  169653  169650
      24  169656  169650      24  169656  169653      25  169662  169659      24
  169665  169659      24  169665  169662      25  169671  169668      24  169674
  169668      24  169674  169671      25  169680  169677      24  169683  169677
      24  169683  169680      25  169689  169686      24  169692  169686      24
  169692  169689      25  169698  169695      24  169701  169695      24  169701
  169698      25  169707  169704      24  169710  169704      24  169710  169707
      25  169716  169713      24  169719  169713      24  169719  169716      25
  169725  169722      24  169728  169722      24  169728  169725      25  169734
  169731      24  169737  169731      24  169737  169734      25  169743  169740
      24  169746  169740      24  169746  169743      25  169752  169749      24
  169755  169749      24  169755  169752      25  169761  169758      24  169764
  169758      24  169764  169761      25  169770  169767      24  169773  169767
      24  169773  169770      25  169779  169776      24  169782  169776      24
  169782  169779      25  169788  169785      24  169791  169785      24  169791
  169788      25  169797  169794      24  169800  169794      24  169800  169797
      25  169806  169803      24  169809  169803      24  169809  169806      25
  169815  169812      24  169818  169812      24  169818  169815      25  169824
  169821      24  169827  169821      24  169827  169824      25  169833  169830
      24  169836  169830      24  169836  169833      25  169842  169839      24
  169845  169839      24  169845  169842      25  169851  169848      24  169854
  169848      24  169854  169851      25  169860  169857      24  169863  169857
      24  169863  169860      25  169869  169866      24  169872  169866      24
  169872  169869      25  169878  169875      24  169881  169875      24  169881
  169878      25  169887  169884      24  169890  169884      24  169890  169887
      25  169896  169893      24  169899  169893      24  169899  169896      25
  169905  169902      24  169908  169902      24  169908  169905      25  169914
  169911      24  169917  169911      24  169917  169914      25  169923  169920
      24  169926  169920      24  169926  169923      25  169932  169929      24
  169935  169929      24  169935  169932      25  169941  169938      24  169944
  169938      24  169944  169941      25  169950  169947      24  169953  169947
      24  169953  169950      25  169959  169956      24  169962  169956      24
  169962  169959      25  169968  169965      24  169971  169965      24  169971
  169968      25  169977  169974      24  169980  169974      24  169980  169977
      25  169986  169983      24  169989  169983      24  169989  169986      25
  169995  169992      24  169998  169992      24  169998  169995      25  170004
  170001      24  170007  170001      24  170007  170004      25  170013  170010
      24  170016  170010      24  170016  170013      25  170022  170019      24
  170025  170019      24  170025  170022      25  170031  170028      24  170034
  170028      24  170034  170031      25  170040  170037      24  170043  170037
      24  170043  170040      25  170049  170046      24  170052  170046      24
  170052  170049      25  170058  170055      24  170061  170055      24  170061
  170058      25  170067  170064      24  170070  170064      24  170070  170067
      25  170076  170073      24  170079  170073      24  170079  170076      25
  170085  170082      24  170088  170082      24  170088  170085      25  170094
  170091      24  170097  170091      24  170097  170094      25  170103  170100
      24  170106  170100      24  170106  170103      25  170112  170109      24
  170115  170109      24  170115  170112      25  170121  170118      24  170124
  170118      24  170124  170121      25  170130  170127      24  170133  170127
      24  170133  170130      25  170139  170136      24  170142  170136      24
  170142  170139      25  170148  170145      24  170151  170145      24  170151
  170148      25  170157  170154      24  170160  170154      24  170160  170157
      25  170166  170163      24  170169  170163      24  170169  170166      25
  170175  170172      24  170178  170172      24  170178  170175      25  170184
  170181      24  170187  170181      24  170187  170184      25  170193  170190
      24  170196  170190      24  170196  170193      25  170202  170199      24
  170205  170199      24  170205  170202      25  170211  170208      24  170214
  170208      24  170214  170211      25  170220  170217      24  170223  170217
      24  170223  170220      25  170229  170226      24  170232  170226      24
  170232  170229      25  170238  170235      24  170241  170235      24  170241
  170238      25  170247  170244      24  170250  170244      24  170250  170247
      25  170256  170253      24  170259  170253      24  170259  170256      25
  170265  170262      24  170268  170262      24  170268  170265      25  170274
  170271      24  170277  170271      24  170277  170274      25  170283  170280
      24  170286  170280      24  170286  170283      25  170292  170289      24
  170295  170289      24  170295  170292      25  170301  170298      24  170304
  170298      24  170304  170301      25  170310  170307      24  170313  170307
      24  170313  170310      25  170319  170316      24  170322  170316      24
  170322  170319      25  170328  170325      24  170331  170325      24  170331
  170328      25  170337  170334      24  170340  170334      24  170340  170337
      25  170346  170343      24  170349  170343      24  170349  170346      25
  170355  170352      24  170358  170352      24  170358  170355      25  170364
  170361      24  170367  170361      24  170367  170364      25  170373  170370
      24  170376  170370      24  170376  170373      25  170382  170379      24
  170385  170379      24  170385  170382      25  170391  170388      24  170394
  170388      24  170394  170391      25  170400  170397      24  170403  170397
      24  170403  170400      25  170409  170406      24  170412  170406      24
  170412  170409      25  170418  170415      24  170421  170415      24  170421
  170418      25  170427  170424      24  170430  170424      24  170430  170427
      25  170436  170433      24  170439  170433      24  170439  170436      25
  170445  170442      24  170448  170442      24  170448  170445      25  170454
  170451      24  170457  170451      24  170457  170454      25  170463  170460
      24  170466  170460      24  170466  170463      25  170472  170469      24
  170475  170469      24  170475  170472      25  170481  170478      24  170484
  170478      24  170484  170481      25  170490  170487      24  170493  170487
      24  170493  170490      25  170499  170496      24  170502  170496      24
  170502  170499      25  170508  170505      24  170511  170505      24  170511
  170508      25  170517  170514      24  170520  170514      24  170520  170517
      25  170526  170523      24  170529  170523      24  170529  170526      25
  170535  170532      24  170538  170532      24  170538  170535      25  170544
  170541      24  170547  170541      24  170547  170544      25  170553  170550
      24  170556  170550      24  170556  170553      25  170562  170559      24
  170565  170559      24  170565  170562      25  170571  170568      24  170574
  170568      24  170574  170571      25  170580  170577      24  170583  170577
      24  170583  170580      25  170589  170586      24  170592  170586      24
  170592  170589      25  170598  170595      24  170601  170595      24  170601
  170598      25  170607  170604      24  170610  170604      24  170610  170607
      25  170616  170613      24  170619  170613      24  170619  170616      25
  170625  170622      24  170628  170622      24  170628  170625      25  170634
  170631      24  170637  170631      24  170637  170634      25  170643  170640
      24  170646  170640      24  170646  170643      25  170652  170649      24
  170655  170649      24  170655  170652      25  170661  170658      24  170664
  170658      24  170664  170661      25  170670  170667      24  170673  170667
      24  170673  170670      25  170679  170676      24  170682  170676      24
  170682  170679      25  170688  170685      24  170691  170685      24  170691
  170688      25  170697  170694      24  170700  170694      24  170700  170697
      25  170706  170703      24  170709  170703      24  170709  170706      25
  170715  170712      24  170718  170712      24  170718  170715      25  170724
  170721      24  170727  170721      24  170727  170724      25  170733  170730
      24  170736  170730      24  170736  170733      25  170742  170739      24
  170745  170739      24  170745  170742      25  170751  170748      24  170754
  170748      24  170754  170751      25  170760  170757      24  170763  170757
      24  170763  170760      25  170769  170766      24  170772  170766      24
  170772  170769      25  170778  170775      24  170781  170775      24  170781
  170778      25  170787  170784      24  170790  170784      24  170790  170787
      25  170796  170793      24  170799  170793      24  170799  170796      25
  170805  170802      24  170808  170802      24  170808  170805      25  170814
  170811      24  170817  170811      24  170817  170814      25  170823  170820
      24  170826  170820      24  170826  170823      25  170832  170829      24
  170835  170829      24  170835  170832      25  170841  170838      24  170844
  170838      24  170844  170841      25  170850  170847      24  170853  170847
      24  170853  170850      25  170859  170856      24  170862  170856      24
  170862  170859      25  170868  170865      24  170871  170865      24  170871
  170868      25  170877  170874      24  170880  170874      24  170880  170877
      25  170886  170883      24  170889  170883      24  170889  170886      25
  170895  170892      24  170898  170892      24  170898  170895      25  170904
  170901      24  170907  170901      24  170907  170904      25  170913  170910
      24  170916  170910      24  170916  170913      25  170922  170919      24
  170925  170919      24  170925  170922      25  170931  170928      24  170934
  170928      24  170934  170931      25  170940  170937      24  170943  170937
      24  170943  170940      25  170949  170946      24  170952  170946      24
  170952  170949      25  170958  170955      24  170961  170955      24  170961
  170958      25  170967  170964      24  170970  170964      24  170970  170967
      25  170976  170973      24  170979  170973      24  170979  170976      25
  170985  170982      24  170988  170982      24  170988  170985      25  170994
  170991      24  170997  170991      24  170997  170994      25  171003  171000
      24  171006  171000      24  171006  171003      25  171012  171009      24
  171015  171009      24  171015  171012      25  171021  171018      24  171024
  171018      24  171024  171021      25  171030  171027      24  171033  171027
      24  171033  171030      25  171039  171036      24  171042  171036      24
  171042  171039      25  171048  171045      24  171051  171045      24  171051
  171048      25  171057  171054      24  171060  171054      24  171060  171057
      25  171066  171063      24  171069  171063      24  171069  171066      25
  171075  171072      24  171078  171072      24  171078  171075      25  171084
  171081      24  171087  171081      24  171087  171084      25  171093  171090
      24  171096  171090      24  171096  171093      25  171102  171099      24
  171105  171099      24  171105  171102      25  171111  171108      24  171114
  171108      24  171114  171111      25  171120  171117      24  171123  171117
      24  171123  171120      25  171129  171126      24  171132  171126      24
  171132  171129      25  171138  171135      24  171141  171135      24  171141
  171138      25  171147  171144      24  171150  171144      24  171150  171147
      25  171156  171153      24  171159  171153      24  171159  171156      25
  171165  171162      24  171168  171162      24  171168  171165      25  171174
  171171      24  171177  171171      24  171177  171174      25  171183  171180
      24  171186  171180      24  171186  171183      25  171192  171189      24
  171195  171189      24  171195  171192      25  171201  171198      24  171204
  171198      24  171204  171201      25  171210  171207      24  171213  171207
      24  171213  171210      25  171219  171216      24  171222  171216      24
  171222  171219      25  171228  171225      24  171231  171225      24  171231
  171228      25  171237  171234      24  171240  171234      24  171240  171237
      25  171246  171243      24  171249  171243      24  171249  171246      25
  171255  171252      24  171258  171252      24  171258  171255      25  171264
  171261      24  171267  171261      24  171267  171264      25  171273  171270
      24  171276  171270      24  171276  171273      25  171282  171279      24
  171285  171279      24  171285  171282      25  171291  171288      24  171294
  171288      24  171294  171291      25  171300  171297      24  171303  171297
      24  171303  171300      25  171309  171306      24  171312  171306      24
  171312  171309      25  171318  171315      24  171321  171315      24  171321
  171318      25  171327  171324      24  171330  171324      24  171330  171327
      25  171336  171333      24  171339  171333      24  171339  171336      25
  171345  171342      24  171348  171342      24  171348  171345      25  171354
  171351      24  171357  171351      24  171357  171354      25  171363  171360
      24  171366  171360      24  171366  171363      25  171372  171369      24
  171375  171369      24  171375  171372      25  171381  171378      24  171384
  171378      24  171384  171381      25  171390  171387      24  171393  171387
      24  171393  171390      25  171399  171396      24  171402  171396      24
  171402  171399      25  171408  171405      24  171411  171405      24  171411
  171408      25  171417  171414      24  171420  171414      24  171420  171417
      25  171426  171423      24  171429  171423      24  171429  171426      25
  171435  171432      24  171438  171432      24  171438  171435      25  171444
  171441      24  171447  171441      24  171447  171444      25  171453  171450
      24  171456  171450      24  171456  171453      25  171462  171459      24
  171465  171459      24  171465  171462      25  171471  171468      24  171474
  171468      24  171474  171471      25  171480  171477      24  171483  171477
      24  171483  171480      25  171489  171486      24  171492  171486      24
  171492  171489      25  171498  171495      24  171501  171495      24  171501
  171498      25  171507  171504      24  171510  171504      24  171510  171507
      25  171516  171513      24  171519  171513      24  171519  171516      25
  171525  171522      24  171528  171522      24  171528  171525      25  171534
  171531      24  171537  171531      24  171537  171534      25  171543  171540
      24  171546  171540      24  171546  171543      25  171552  171549      24
  171555  171549      24  171555  171552      25  171561  171558      24  171564
  171558      24  171564  171561      25  171570  171567      24  171573  171567
      24  171573  171570      25  171579  171576      24  171582  171576      24
  171582  171579      25  171588  171585      24  171591  171585      24  171591
  171588      25  171597  171594      24  171600  171594      24  171600  171597
      25  171606  171603      24  171609  171603      24  171609  171606      25
  171615  171612      24  171618  171612      24  171618  171615      25  171624
  171621      24  171627  171621      24  171627  171624      25  171633  171630
      24  171636  171630      24  171636  171633      25  171642  171639      24
  171645  171639      24  171645  171642      25  171651  171648      24  171654
  171648      24  171654  171651      25  171660  171657      24  171663  171657
      24  171663  171660      25  171669  171666      24  171672  171666      24
  171672  171669      25  171678  171675      24  171681  171675      24  171681
  171678      25  171687  171684      24  171690  171684      24  171690  171687
      25  171696  171693      24  171699  171693      24  171699  171696      25
  171705  171702      24  171708  171702      24  171708  171705      25  171714
  171711      24  171717  171711      24  171717  171714      25  171723  171720
      24  171726  171720      24  171726  171723      25  171732  171729      24
  171735  171729      24  171735  171732      25  171741  171738      24  171744
  171738      24  171744  171741      25  171750  171747      24  171753  171747
      24  171753  171750      25  171759  171756      24  171762  171756      24
  171762  171759      25  171768  171765      24  171771  171765      24  171771
  171768      25  171777  171774      24  171780  171774      24  171780  171777
      25  171786  171783      24  171789  171783      24  171789  171786      25
  171795  171792      24  171798  171792      24  171798  171795      25  171804
  171801      24  171807  171801      24  171807  171804      25  171813  171810
      24  171816  171810      24  171816  171813      25  171822  171819      24
  171825  171819      24  171825  171822      25  171831  171828      24  171834
  171828      24  171834  171831      25  171840  171837      24  171843  171837
      24  171843  171840      25  171849  171846      24  171852  171846      24
  171852  171849      25  171858  171855      24  171861  171855      24  171861
  171858      25  171867  171864      24  171870  171864      24  171870  171867
      25  171876  171873      24  171879  171873      24  171879  171876      25
  171885  171882      24  171888  171882      24  171888  171885      25  171894
  171891      24  171897  171891      24  171897  171894      25  171903  171900
      24  171906  171900      24  171906  171903      25  171912  171909      24
  171915  171909      24  171915  171912      25  171921  171918      24  171924
  171918      24  171924  171921      25  171930  171927      24  171933  171927
      24  171933  171930      25  171939  171936      24  171942  171936      24
  171942  171939      25  171948  171945      24  171951  171945      24  171951
  171948      25  171957  171954      24  171960  171954      24  171960  171957
      25  171966  171963      24  171969  171963      24  171969  171966      25
  171975  171972      24  171978  171972      24  171978  171975      25  171984
  171981      24  171987  171981      24  171987  171984      25  171993  171990
      24  171996  171990      24  171996  171993      25  172002  171999      24
  172005  171999      24  172005  172002      25  172011  172008      24  172014
  172008      24  172014  172011      25  172020  172017      24  172023  172017
      24  172023  172020      25  172029  172026      24  172032  172026      24
  172032  172029      25  172038  172035      24  172041  172035      24  172041
  172038      25  172047  172044      24  172050  172044      24  172050  172047
      25  172056  172053      24  172059  172053      24  172059  172056      25
  172065  172062      24  172068  172062      24  172068  172065      25  172074
  172071      24  172077  172071      24  172077  172074      25  172083  172080
      24  172086  172080      24  172086  172083      25  172092  172089      24
  172095  172089      24  172095  172092      25  172101  172098      24  172104
  172098      24  172104  172101      25  172110  172107      24  172113  172107
      24  172113  172110      25  172119  172116      24  172122  172116      24
  172122  172119      25  172128  172125      24  172131  172125      24  172131
  172128      25  172137  172134      24  172140  172134      24  172140  172137
      25  172146  172143      24  172149  172143      24  172149  172146      25
  172155  172152      24  172158  172152      24  172158  172155      25  172164
  172161      24  172167  172161      24  172167  172164      25  172173  172170
      24  172176  172170      24  172176  172173      25  172182  172179      24
  172185  172179      24  172185  172182      25  172191  172188      24  172194
  172188      24  172194  172191      25  172200  172197      24  172203  172197
      24  172203  172200      25  172209  172206      24  172212  172206      24
  172212  172209      25  172218  172215      24  172221  172215      24  172221
  172218      25  172227  172224      24  172230  172224      24  172230  172227
      25  172236  172233      24  172239  172233      24  172239  172236      25
  172245  172242      24  172248  172242      24  172248  172245      25  172254
  172251      24  172257  172251      24  172257  172254      25  172263  172260
      24  172266  172260      24  172266  172263      25  172272  172269      24
  172275  172269      24  172275  172272      25  172281  172278      24  172284
  172278      24  172284  172281      25  172290  172287      24  172293  172287
      24  172293  172290      25  172299  172296      24  172302  172296      24
  172302  172299      25  172308  172305      24  172311  172305      24  172311
  172308      25  172317  172314      24  172320  172314      24  172320  172317
      25  172326  172323      24  172329  172323      24  172329  172326      25
  172335  172332      24  172338  172332      24  172338  172335      25  172344
  172341      24  172347  172341      24  172347  172344      25  172353  172350
      24  172356  172350      24  172356  172353      25  172362  172359      24
  172365  172359      24  172365  172362      25  172371  172368      24  172374
  172368      24  172374  172371      25  172380  172377      24  172383  172377
      24  172383  172380      25  172389  172386      24  172392  172386      24
  172392  172389      25  172398  172395      24  172401  172395      24  172401
  172398      25  172407  172404      24  172410  172404      24  172410  172407
      25  172416  172413      24  172419  172413      24  172419  172416      25
  172425  172422      24  172428  172422      24  172428  172425      25  172434
  172431      24  172437  172431      24  172437  172434      25  172443  172440
      24  172446  172440      24  172446  172443      25  172452  172449      24
  172455  172449      24  172455  172452      25  172461  172458      24  172464
  172458      24  172464  172461      25  172470  172467      24  172473  172467
      24  172473  172470      25  172479  172476      24  172482  172476      24
  172482  172479      25  172488  172485      24  172491  172485      24  172491
  172488      25  172497  172494      24  172500  172494      24  172500  172497
      25  172506  172503      24  172509  172503      24  172509  172506      25
  172515  172512      24  172518  172512      24  172518  172515      25  172524
  172521      24  172527  172521      24  172527  172524      25  172533  172530
      24  172536  172530      24  172536  172533      25  172542  172539      24
  172545  172539      24  172545  172542      25  172551  172548      24  172554
  172548      24  172554  172551      25  172560  172557      24  172563  172557
      24  172563  172560      25  172569  172566      24  172572  172566      24
  172572  172569      25  172578  172575      24  172581  172575      24  172581
  172578      25  172587  172584      24  172590  172584      24  172590  172587
      25  172596  172593      24  172599  172593      24  172599  172596      25
  172605  172602      24  172608  172602      24  172608  172605      25  172614
  172611      24  172617  172611      24  172617  172614      25  172623  172620
      24  172626  172620      24  172626  172623      25  172632  172629      24
  172635  172629      24  172635  172632      25  172641  172638      24  172644
  172638      24  172644  172641      25  172650  172647      24  172653  172647
      24  172653  172650      25  172659  172656      24  172662  172656      24
  172662  172659      25  172668  172665      24  172671  172665      24  172671
  172668      25  172677  172674      24  172680  172674      24  172680  172677
      25  172686  172683      24  172689  172683      24  172689  172686      25
  172695  172692      24  172698  172692      24  172698  172695      25  172704
  172701      24  172707  172701      24  172707  172704      25  172713  172710
      24  172716  172710      24  172716  172713      25  172722  172719      24
  172725  172719      24  172725  172722      25  172731  172728      24  172734
  172728      24  172734  172731      25  172740  172737      24  172743  172737
      24  172743  172740      25  172749  172746      24  172752  172746      24
  172752  172749      25  172758  172755      24  172761  172755      24  172761
  172758      25  172767  172764      24  172770  172764      24  172770  172767
      25  172776  172773      24  172779  172773      24  172779  172776      25
  172785  172782      24  172788  172782      24  172788  172785      25  172794
  172791      24  172797  172791      24  172797  172794      25  172803  172800
      24  172806  172800      24  172806  172803      25  172812  172809      24
  172815  172809      24  172815  172812      25  172821  172818      24  172824
  172818      24  172824  172821      25  172830  172827      24  172833  172827
      24  172833  172830      25  172839  172836      24  172842  172836      24
  172842  172839      25  172848  172845      24  172851  172845      24  172851
  172848      25  172857  172854      24  172860  172854      24  172860  172857
      25  172866  172863      24  172869  172863      24  172869  172866      25
  172875  172872      24  172878  172872      24  172878  172875      25  172884
  172881      24  172887  172881      24  172887  172884      25  172893  172890
      24  172896  172890      24  172896  172893      25  172902  172899      24
  172905  172899      24  172905  172902      25  172911  172908      24  172914
  172908      24  172914  172911      25  172920  172917      24  172923  172917
      24  172923  172920      25  172929  172926      24  172932  172926      24
  172932  172929      25  172938  172935      24  172941  172935      24  172941
  172938      25  172947  172944      24  172950  172944      24  172950  172947
      25  172956  172953      24  172959  172953      24  172959  172956      25
  172965  172962      24  172968  172962      24  172968  172965      25  172974
  172971      24  172977  172971      24  172977  172974      25  172983  172980
      24  172986  172980      24  172986  172983      25  172992  172989      24
  172995  172989      24  172995  172992      25  173001  172998      24  173004
  172998      24  173004  173001      25  173010  173007      24  173013  173007
      24  173013  173010      25  173019  173016      24  173022  173016      24
  173022  173019      25  173028  173025      24  173031  173025      24  173031
  173028      25  173037  173034      24  173040  173034      24  173040  173037
      25  173046  173043      24  173049  173043      24  173049  173046      25
  173055  173052      24  173058  173052      24  173058  173055      25  173064
  173061      24  173067  173061      24  173067  173064      25  173073  173070
      24  173076  173070      24  173076  173073      25  173082  173079      24
  173085  173079      24  173085  173082      25  173091  173088      24  173094
  173088      24  173094  173091      25  173100  173097      24  173103  173097
      24  173103  173100      25  173109  173106      24  173112  173106      24
  173112  173109      25  173118  173115      24  173121  173115      24  173121
  173118      25  173127  173124      24  173130  173124      24  173130  173127
      25  173136  173133      24  173139  173133      24  173139  173136      25
  173145  173142      24  173148  173142      24  173148  173145      25  173154
  173151      24  173157  173151      24  173157  173154      25  173163  173160
      24  173166  173160      24  173166  173163      25  173172  173169      24
  173175  173169      24  173175  173172      25  173181  173178      24  173184
  173178      24  173184  173181      25  173190  173187      24  173193  173187
      24  173193  173190      25  173199  173196      24  173202  173196      24
  173202  173199      25  173208  173205      24  173211  173205      24  173211
  173208      25  173217  173214      24  173220  173214      24  173220  173217
      25  173226  173223      24  173229  173223      24  173229  173226      25
  173235  173232      24  173238  173232      24  173238  173235      25  173244
  173241      24  173247  173241      24  173247  173244      25  173253  173250
      24  173256  173250      24  173256  173253      25  173262  173259      24
  173265  173259      24  173265  173262      25  173271  173268      24  173274
  173268      24  173274  173271      25  173280  173277      24  173283  173277
      24  173283  173280      25  173289  173286      24  173292  173286      24
  173292  173289      25  173298  173295      24  173301  173295      24  173301
  173298      25  173307  173304      24  173310  173304      24  173310  173307
      25  173316  173313      24  173319  173313      24  173319  173316      25
  173325  173322      24  173328  173322      24  173328  173325      25  173334
  173331      24  173337  173331      24  173337  173334      25  173343  173340
      24  173346  173340      24  173346  173343      25  173352  173349      24
  173355  173349      24  173355  173352      25  173361  173358      24  173364
  173358      24  173364  173361      25  173370  173367      24  173373  173367
      24  173373  173370      25  173379  173376      24  173382  173376      24
  173382  173379      25  173388  173385      24  173391  173385      24  173391
  173388      25  173397  173394      24  173400  173394      24  173400  173397
      25  173406  173403      24  173409  173403      24  173409  173406      25
  173415  173412      24  173418  173412      24  173418  173415      25  173424
  173421      24  173427  173421      24  173427  173424      25  173433  173430
      24  173436  173430      24  173436  173433      25  173442  173439      24
  173445  173439      24  173445  173442      25  173451  173448      24  173454
  173448      24  173454  173451      25  173460  173457      24  173463  173457
      24  173463  173460      25  173469  173466      24  173472  173466      24
  173472  173469      25  173478  173475      24  173481  173475      24  173481
  173478      25  173487  173484      24  173490  173484      24  173490  173487
      25  173496  173493      24  173499  173493      24  173499  173496      25
  173505  173502      24  173508  173502      24  173508  173505      25  173514
  173511      24  173517  173511      24  173517  173514      25  173523  173520
      24  173526  173520      24  173526  173523      25  173532  173529      24
  173535  173529      24  173535  173532      25  173541  173538      24  173544
  173538      24  173544  173541      25  173550  173547      24  173553  173547
      24  173553  173550      25  173559  173556      24  173562  173556      24
  173562  173559      25  173568  173565      24  173571  173565      24  173571
  173568      25  173577  173574      24  173580  173574      24  173580  173577
      25  173586  173583      24  173589  173583      24  173589  173586      25
  173595  173592      24  173598  173592      24  173598  173595      25  173604
  173601      24  173607  173601      24  173607  173604      25  173613  173610
      24  173616  173610      24  173616  173613      25  173622  173619      24
  173625  173619      24  173625  173622      25  173631  173628      24  173634
  173628      24  173634  173631      25  173640  173637      24  173643  173637
      24  173643  173640      25  173649  173646      24  173652  173646      24
  173652  173649      25  173658  173655      24  173661  173655      24  173661
  173658      25  173667  173664      24  173670  173664      24  173670  173667
      25  173676  173673      24  173679  173673      24  173679  173676      25
  173685  173682      24  173688  173682      24  173688  173685      25  173694
  173691      24  173697  173691      24  173697  173694      25  173703  173700
      24  173706  173700      24  173706  173703      25  173712  173709      24
  173715  173709      24  173715  173712      25  173721  173718      24  173724
  173718      24  173724  173721      25  173730  173727      24  173733  173727
      24  173733  173730      25  173739  173736      24  173742  173736      24
  173742  173739      25  173748  173745      24  173751  173745      24  173751
  173748      25  173757  173754      24  173760  173754      24  173760  173757
      25  173766  173763      24  173769  173763      24  173769  173766      25
  173775  173772      24  173778  173772      24  173778  173775      25  173784
  173781      24  173787  173781      24  173787  173784      25  173793  173790
      24  173796  173790      24  173796  173793      25  173802  173799      24
  173805  173799      24  173805  173802      25  173811  173808      24  173814
  173808      24  173814  173811      25  173820  173817      24  173823  173817
      24  173823  173820      25  173829  173826      24  173832  173826      24
  173832  173829      25  173838  173835      24  173841  173835      24  173841
  173838      25  173847  173844      24  173850  173844      24  173850  173847
      25  173856  173853      24  173859  173853      24  173859  173856      25
  173865  173862      24  173868  173862      24  173868  173865      25  173874
  173871      24  173877  173871      24  173877  173874      25  173883  173880
      24  173886  173880      24  173886  173883      25  173892  173889      24
  173895  173889      24  173895  173892      25  173901  173898      24  173904
  173898      24  173904  173901      25  173910  173907      24  173913  173907
      24  173913  173910      25  173919  173916      24  173922  173916      24
  173922  173919      25  173928  173925      24  173931  173925      24  173931
  173928      25  173937  173934      24  173940  173934      24  173940  173937
      25  173946  173943      24  173949  173943      24  173949  173946      25
  173955  173952      24  173958  173952      24  173958  173955      25  173964
  173961      24  173967  173961      24  173967  173964      25  173973  173970
      24  173976  173970      24  173976  173973      25  173982  173979      24
  173985  173979      24  173985  173982      25  173991  173988      24  173994
  173988      24  173994  173991      25  174000  173997      24  174003  173997
      24  174003  174000      25  174009  174006      24  174012  174006      24
  174012  174009      25  174018  174015      24  174021  174015      24  174021
  174018      25  174027  174024      24  174030  174024      24  174030  174027
      25  174036  174033      24  174039  174033      24  174039  174036      25
  174045  174042      24  174048  174042      24  174048  174045      25  174054
  174051      24  174057  174051      24  174057  174054      25  174063  174060
      24  174066  174060      24  174066  174063      25  174072  174069      24
  174075  174069      24  174075  174072      25  174081  174078      24  174084
  174078      24  174084  174081      25  174090  174087      24  174093  174087
      24  174093  174090      25  174099  174096      24  174102  174096      24
  174102  174099      25  174108  174105      24  174111  174105      24  174111
  174108      25  174117  174114      24  174120  174114      24  174120  174117
      25  174126  174123      24  174129  174123      24  174129  174126      25
  174135  174132      24  174138  174132      24  174138  174135      25  174144
  174141      24  174147  174141      24  174147  174144      25  174153  174150
      24  174156  174150      24  174156  174153      25  174162  174159      24
  174165  174159      24  174165  174162      25  174171  174168      24  174174
  174168      24  174174  174171      25  174180  174177      24  174183  174177
      24  174183  174180      25  174189  174186      24  174192  174186      24
  174192  174189      25  174198  174195      24  174201  174195      24  174201
  174198      25  174207  174204      24  174210  174204      24  174210  174207
      25  174216  174213      24  174219  174213      24  174219  174216      25
  174225  174222      24  174228  174222      24  174228  174225      25  174234
  174231      24  174237  174231      24  174237  174234      25  174243  174240
      24  174246  174240      24  174246  174243      25  174252  174249      24
  174255  174249      24  174255  174252      25  174261  174258      24  174264
  174258      24  174264  174261      25  174270  174267      24  174273  174267
      24  174273  174270      25  174279  174276      24  174282  174276      24
  174282  174279      25  174288  174285      24  174291  174285      24  174291
  174288      25  174297  174294      24  174300  174294      24  174300  174297
      25  174306  174303      24  174309  174303      24  174309  174306      25
  174315  174312      24  174318  174312      24  174318  174315      25  174324
  174321      24  174327  174321      24  174327  174324      25  174333  174330
      24  174336  174330      24  174336  174333      25  174342  174339      24
  174345  174339      24  174345  174342      25  174351  174348      24  174354
  174348      24  174354  174351      25  174360  174357      24  174363  174357
      24  174363  174360      25  174369  174366      24  174372  174366      24
  174372  174369      25  174378  174375      24  174381  174375      24  174381
  174378      25  174387  174384      24  174390  174384      24  174390  174387
      25  174396  174393      24  174399  174393      24  174399  174396      25
  174405  174402      24  174408  174402      24  174408  174405      25  174414
  174411      24  174417  174411      24  174417  174414      25  174423  174420
      24  174426  174420      24  174426  174423      25  174432  174429      24
  174435  174429      24  174435  174432      25  174441  174438      24  174444
  174438      24  174444  174441      25  174450  174447      24  174453  174447
      24  174453  174450      25  174459  174456      24  174462  174456      24
  174462  174459      25  174468  174465      24  174471  174465      24  174471
  174468      25  174477  174474      24  174480  174474      24  174480  174477
      25  174486  174483      24  174489  174483      24  174489  174486      25
  174495  174492      24  174498  174492      24  174498  174495      25  174504
  174501      24  174507  174501      24  174507  174504      25  174513  174510
      24  174516  174510      24  174516  174513      25  174522  174519      24
  174525  174519      24  174525  174522      25  174531  174528      24  174534
  174528      24  174534  174531      25  174540  174537      24  174543  174537
      24  174543  174540      25  174549  174546      24  174552  174546      24
  174552  174549      25  174558  174555      24  174561  174555      24  174561
  174558      25  174567  174564      24  174570  174564      24  174570  174567
      25  174576  174573      24  174579  174573      24  174579  174576      25
  174585  174582      24  174588  174582      24  174588  174585      25  174594
  174591      24  174597  174591      24  174597  174594      25  174603  174600
      24  174606  174600      24  174606  174603      25  174612  174609      24
  174615  174609      24  174615  174612      25  174621  174618      24  174624
  174618      24  174624  174621      25  174630  174627      24  174633  174627
      24  174633  174630      25  174639  174636      24  174642  174636      24
  174642  174639      25  174648  174645      24  174651  174645      24  174651
  174648      25  174657  174654      24  174660  174654      24  174660  174657
      25  174666  174663      24  174669  174663      24  174669  174666      25
  174675  174672      24  174678  174672      24  174678  174675      25  174684
  174681      24  174687  174681      24  174687  174684      25  174693  174690
      24  174696  174690      24  174696  174693      25  174702  174699      24
  174705  174699      24  174705  174702      25  174711  174708      24  174714
  174708      24  174714  174711      25  174720  174717      24  174723  174717
      24  174723  174720      25  174729  174726      24  174732  174726      24
  174732  174729      25  174738  174735      24  174741  174735      24  174741
  174738      25  174747  174744      24  174750  174744      24  174750  174747
      25  174756  174753      24  174759  174753      24  174759  174756      25
  174765  174762      24  174768  174762      24  174768  174765      25  174774
  174771      24  174777  174771      24  174777  174774      25  174783  174780
      24  174786  174780      24  174786  174783      25  174792  174789      24
  174795  174789      24  174795  174792      25  174801  174798      24  174804
  174798      24  174804  174801      25  174810  174807      24  174813  174807
      24  174813  174810      25  174819  174816      24  174822  174816      24
  174822  174819      25  174828  174825      24  174831  174825      24  174831
  174828      25  174837  174834      24  174840  174834      24  174840  174837
      25  174846  174843      24  174849  174843      24  174849  174846      25
  174855  174852      24  174858  174852      24  174858  174855      25  174864
  174861      24  174867  174861      24  174867  174864      25  174873  174870
      24  174876  174870      24  174876  174873      25  174882  174879      24
  174885  174879      24  174885  174882      25  174891  174888      24  174894
  174888      24  174894  174891      25  174900  174897      24  174903  174897
      24  174903  174900      25  174909  174906      24  174912  174906      24
  174912  174909      25  174918  174915      24  174921  174915      24  174921
  174918      25  174927  174924      24  174930  174924      24  174930  174927
      25  174936  174933      24  174939  174933      24  174939  174936      25
  174945  174942      24  174948  174942      24  174948  174945      25  174954
  174951      24  174957  174951      24  174957  174954      25  174963  174960
      24  174966  174960      24  174966  174963      25  174972  174969      24
  174975  174969      24  174975  174972      25  174981  174978      24  174984
  174978      24  174984  174981      25  174990  174987      24  174993  174987
      24  174993  174990      25  174999  174996      24  175002  174996      24
  175002  174999      25  175008  175005      24  175011  175005      24  175011
  175008      25  175017  175014      24  175020  175014      24  175020  175017
      25  175026  175023      24  175029  175023      24  175029  175026      25
  175035  175032      24  175038  175032      24  175038  175035      25  175044
  175041      24  175047  175041      24  175047  175044      25  175053  175050
      24  175056  175050      24  175056  175053      25  175062  175059      24
  175065  175059      24  175065  175062      25  175071  175068      24  175074
  175068      24  175074  175071      25  175080  175077      24  175083  175077
      24  175083  175080      25  175089  175086      24  175092  175086      24
  175092  175089      25  175098  175095      24  175101  175095      24  175101
  175098      25  175107  175104      24  175110  175104      24  175110  175107
      25  175116  175113      24  175119  175113      24  175119  175116      25
  175125  175122      24  175128  175122      24  175128  175125      25  175134
  175131      24  175137  175131      24  175137  175134      25  175143  175140
      24  175146  175140      24  175146  175143      25  175152  175149      24
  175155  175149      24  175155  175152      25  175161  175158      24  175164
  175158      24  175164  175161      25  175170  175167      24  175173  175167
      24  175173  175170      25  175179  175176      24  175182  175176      24
  175182  175179      25  175188  175185      24  175191  175185      24  175191
  175188      25  175197  175194      24  175200  175194      24  175200  175197
      25  175206  175203      24  175209  175203      24  175209  175206      25
  175215  175212      24  175218  175212      24  175218  175215      25  175224
  175221      24  175227  175221      24  175227  175224      25  175233  175230
      24  175236  175230      24  175236  175233      25  175242  175239      24
  175245  175239      24  175245  175242      25  175251  175248      24  175254
  175248      24  175254  175251      25  175260  175257      24  175263  175257
      24  175263  175260      25  175269  175266      24  175272  175266      24
  175272  175269      25  175278  175275      24  175281  175275      24  175281
  175278      25  175287  175284      24  175290  175284      24  175290  175287
      25  175296  175293      24  175299  175293      24  175299  175296      25
  175305  175302      24  175308  175302      24  175308  175305      25  175314
  175311      24  175317  175311      24  175317  175314      25  175323  175320
      24  175326  175320      24  175326  175323      25  175332  175329      24
  175335  175329      24  175335  175332      25  175341  175338      24  175344
  175338      24  175344  175341      25  175350  175347      24  175353  175347
      24  175353  175350      25  175359  175356      24  175362  175356      24
  175362  175359      25  175368  175365      24  175371  175365      24  175371
  175368      25  175377  175374      24  175380  175374      24  175380  175377
      25  175386  175383      24  175389  175383      24  175389  175386      25
  175395  175392      24  175398  175392      24  175398  175395      25  175404
  175401      24  175407  175401      24  175407  175404      25  175413  175410
      24  175416  175410      24  175416  175413      25  175422  175419      24
  175425  175419      24  175425  175422      25  175431  175428      24  175434
  175428      24  175434  175431      25  175440  175437      24  175443  175437
      24  175443  175440      25  175449  175446      24  175452  175446      24
  175452  175449      25  175458  175455      24  175461  175455      24  175461
  175458      25  175467  175464      24  175470  175464      24  175470  175467
      25  175476  175473      24  175479  175473      24  175479  175476      25
  175485  175482      24  175488  175482      24  175488  175485      25  175494
  175491      24  175497  175491      24  175497  175494      25  175503  175500
      24  175506  175500      24  175506  175503      25  175512  175509      24
  175515  175509      24  175515  175512      25  175521  175518      24  175524
  175518      24  175524  175521      25  175530  175527      24  175533  175527
      24  175533  175530      25  175539  175536      24  175542  175536      24
  175542  175539      25  175548  175545      24  175551  175545      24  175551
  175548      25  175557  175554      24  175560  175554      24  175560  175557
      25  175566  175563      24  175569  175563      24  175569  175566      25
  175575  175572      24  175578  175572      24  175578  175575      25  175584
  175581      24  175587  175581      24  175587  175584      25  175593  175590
      24  175596  175590      24  175596  175593      25  175602  175599      24
  175605  175599      24  175605  175602      25  175611  175608      24  175614
  175608      24  175614  175611      25  175620  175617      24  175623  175617
      24  175623  175620      25  175629  175626      24  175632  175626      24
  175632  175629      25  175638  175635      24  175641  175635      24  175641
  175638      25  175647  175644      24  175650  175644      24  175650  175647
      25  175656  175653      24  175659  175653      24  175659  175656      25
  175665  175662      24  175668  175662      24  175668  175665      25  175674
  175671      24  175677  175671      24  175677  175674      25  175683  175680
      24  175686  175680      24  175686  175683      25  175692  175689      24
  175695  175689      24  175695  175692      25  175701  175698      24  175704
  175698      24  175704  175701      25  175710  175707      24  175713  175707
      24  175713  175710      25  175719  175716      24  175722  175716      24
  175722  175719      25  175728  175725      24  175731  175725      24  175731
  175728      25  175737  175734      24  175740  175734      24  175740  175737
      25  175746  175743      24  175749  175743      24  175749  175746      25
  175755  175752      24  175758  175752      24  175758  175755      25  175764
  175761      24  175767  175761      24  175767  175764      25  175773  175770
      24  175776  175770      24  175776  175773      25  175782  175779      24
  175785  175779      24  175785  175782      25  175791  175788      24  175794
  175788      24  175794  175791      25  175800  175797      24  175803  175797
      24  175803  175800      25  175809  175806      24  175812  175806      24
  175812  175809      25  175818  175815      24  175821  175815      24  175821
  175818      25  175827  175824      24  175830  175824      24  175830  175827
      25  175836  175833      24  175839  175833      24  175839  175836      25
  175845  175842      24  175848  175842      24  175848  175845      25  175854
  175851      24  175857  175851      24  175857  175854      25  175863  175860
      24  175866  175860      24  175866  175863      25  175872  175869      24
  175875  175869      24  175875  175872      25  175881  175878      24  175884
  175878      24  175884  175881      25  175890  175887      24  175893  175887
      24  175893  175890      25  175899  175896      24  175902  175896      24
  175902  175899      25  175908  175905      24  175911  175905      24  175911
  175908      25  175917  175914      24  175920  175914      24  175920  175917
      25  175926  175923      24  175929  175923      24  175929  175926      25
  175935  175932      24  175938  175932      24  175938  175935      25  175944
  175941      24  175947  175941      24  175947  175944      25  175953  175950
      24  175956  175950      24  175956  175953      25  175962  175959      24
  175965  175959      24  175965  175962      25  175971  175968      24  175974
  175968      24  175974  175971      25  175980  175977      24  175983  175977
      24  175983  175980      25  175989  175986      24  175992  175986      24
  175992  175989      25  175998  175995      24  176001  175995      24  176001
  175998      25  176007  176004      24  176010  176004      24  176010  176007
      25  176016  176013      24  176019  176013      24  176019  176016      25
  176025  176022      24  176028  176022      24  176028  176025      25  176034
  176031      24  176037  176031      24  176037  176034      25  176043  176040
      24  176046  176040      24  176046  176043      25  176052  176049      24
  176055  176049      24  176055  176052      25  176061  176058      24  176064
  176058      24  176064  176061      25  176070  176067      24  176073  176067
      24  176073  176070      25  176079  176076      24  176082  176076      24
  176082  176079      25  176088  176085      24  176091  176085      24  176091
  176088      25  176097  176094      24  176100  176094      24  176100  176097
      25  176106  176103      24  176109  176103      24  176109  176106      25
  176115  176112      24  176118  176112      24  176118  176115      25  176124
  176121      24  176127  176121      24  176127  176124      25  176133  176130
      24  176136  176130      24  176136  176133      25  176142  176139      24
  176145  176139      24  176145  176142      25  176151  176148      24  176154
  176148      24  176154  176151      25  176160  176157      24  176163  176157
      24  176163  176160      25  176169  176166      24  176172  176166      24
  176172  176169      25  176178  176175      24  176181  176175      24  176181
  176178      25  176187  176184      24  176190  176184      24  176190  176187
      25  176196  176193      24  176199  176193      24  176199  176196      25
  176205  176202      24  176208  176202      24  176208  176205      25  176214
  176211      24  176217  176211      24  176217  176214      25  176223  176220
      24  176226  176220      24  176226  176223      25  176232  176229      24
  176235  176229      24  176235  176232      25  176241  176238      24  176244
  176238      24  176244  176241      25  176250  176247      24  176253  176247
      24  176253  176250      25  176259  176256      24  176262  176256      24
  176262  176259      25  176268  176265      24  176271  176265      24  176271
  176268      25  176277  176274      24  176280  176274      24  176280  176277
      25  176286  176283      24  176289  176283      24  176289  176286      25
  176295  176292      24  176298  176292      24  176298  176295      25  176304
  176301      24  176307  176301      24  176307  176304      25  176313  176310
      24  176316  176310      24  176316  176313      25  176322  176319      24
  176325  176319      24  176325  176322      25  176331  176328      24  176334
  176328      24  176334  176331      25  176340  176337      24  176343  176337
      24  176343  176340      25  176349  176346      24  176352  176346      24
  176352  176349      25  176358  176355      24  176361  176355      24  176361
  176358      25  176367  176364      24  176370  176364      24  176370  176367
      25  176376  176373      24  176379  176373      24  176379  176376      25
  176385  176382      24  176388  176382      24  176388  176385      25  176394
  176391      24  176397  176391      24  176397  176394      25  176403  176400
      24  176406  176400      24  176406  176403      25  176412  176409      24
  176415  176409      24  176415  176412      25  176421  176418      24  176424
  176418      24  176424  176421      25  176430  176427      24  176433  176427
      24  176433  176430      25  176439  176436      24  176442  176436      24
  176442  176439      25  176448  176445      24  176451  176445      24  176451
  176448      25  176457  176454      24  176460  176454      24  176460  176457
      25  176466  176463      24  176469  176463      24  176469  176466      25
  176475  176472      24  176478  176472      24  176478  176475      25  176484
  176481      24  176487  176481      24  176487  176484      25  176493  176490
      24  176496  176490      24  176496  176493      25  176502  176499      24
  176505  176499      24  176505  176502      25  176511  176508      24  176514
  176508      24  176514  176511      25  176520  176517      24  176523  176517
      24  176523  176520      25  176529  176526      24  176532  176526      24
  176532  176529      25  176538  176535      24  176541  176535      24  176541
  176538      25  176547  176544      24  176550  176544      24  176550  176547
      25  176556  176553      24  176559  176553      24  176559  176556      25
  176565  176562      24  176568  176562      24  176568  176565      25  176574
  176571      24  176577  176571      24  176577  176574      25  176583  176580
      24  176586  176580      24  176586  176583      25  176592  176589      24
  176595  176589      24  176595  176592      25  176601  176598      24  176604
  176598      24  176604  176601      25  176610  176607      24  176613  176607
      24  176613  176610      25  176619  176616      24  176622  176616      24
  176622  176619      25  176628  176625      24  176631  176625      24  176631
  176628      25  176637  176634      24  176640  176634      24  176640  176637
      25  176646  176643      24  176649  176643      24  176649  176646      25
  176655  176652      24  176658  176652      24  176658  176655      25  176664
  176661      24  176667  176661      24  176667  176664      25  176673  176670
      24  176676  176670      24  176676  176673      25  176682  176679      24
  176685  176679      24  176685  176682      25  176691  176688      24  176694
  176688      24  176694  176691      25  176700  176697      24  176703  176697
      24  176703  176700      25  176709  176706      24  176712  176706      24
  176712  176709      25  176718  176715      24  176721  176715      24  176721
  176718      25  176727  176724      24  176730  176724      24  176730  176727
      25  176736  176733      24  176739  176733      24  176739  176736      25
  176745  176742      24  176748  176742      24  176748  176745      25  176754
  176751      24  176757  176751      24  176757  176754      25  176763  176760
      24  176766  176760      24  176766  176763      25  176772  176769      24
  176775  176769      24  176775  176772      25  176781  176778      24  176784
  176778      24  176784  176781      25  176790  176787      24  176793  176787
      24  176793  176790      25  176799  176796      24  176802  176796      24
  176802  176799      25  176808  176805      24  176811  176805      24  176811
  176808      25  176817  176814      24  176820  176814      24  176820  176817
      25  176826  176823      24  176829  176823      24  176829  176826      25
  176835  176832      24  176838  176832      24  176838  176835      25  176844
  176841      24  176847  176841      24  176847  176844      25  176853  176850
      24  176856  176850      24  176856  176853      25  176862  176859      24
  176865  176859      24  176865  176862      25  176871  176868      24  176874
  176868      24  176874  176871      25  176880  176877      24  176883  176877
      24  176883  176880      25  176889  176886      24  176892  176886      24
  176892  176889      25  176898  176895      24  176901  176895      24  176901
  176898      25  176907  176904      24  176910  176904      24  176910  176907
      25  176916  176913      24  176919  176913      24  176919  176916      25
  176925  176922      24  176928  176922      24  176928  176925      25  176934
  176931      24  176937  176931      24  176937  176934      25  176943  176940
      24  176946  176940      24  176946  176943      25  176952  176949      24
  176955  176949      24  176955  176952      25  176961  176958      24  176964
  176958      24  176964  176961      25  176970  176967      24  176973  176967
      24  176973  176970      25  176979  176976      24  176982  176976      24
  176982  176979      25  176988  176985      24  176991  176985      24  176991
  176988      25  176997  176994      24  177000  176994      24  177000  176997
      25  177006  177003      24  177009  177003      24  177009  177006      25
  177015  177012      24  177018  177012      24  177018  177015      25  177024
  177021      24  177027  177021      24  177027  177024      25  177033  177030
      24  177036  177030      24  177036  177033      25  177042  177039      24
  177045  177039      24  177045  177042      25  177051  177048      24  177054
  177048      24  177054  177051      25  177060  177057      24  177063  177057
      24  177063  177060      25  177069  177066      24  177072  177066      24
  177072  177069      25  177078  177075      24  177081  177075      24  177081
  177078      25  177087  177084      24  177090  177084      24  177090  177087
      25  177096  177093      24  177099  177093      24  177099  177096      25
  177105  177102      24  177108  177102      24  177108  177105      25  177114
  177111      24  177117  177111      24  177117  177114      25  177123  177120
      24  177126  177120      24  177126  177123      25  177132  177129      24
  177135  177129      24  177135  177132      25  177141  177138      24  177144
  177138      24  177144  177141      25  177150  177147      24  177153  177147
      24  177153  177150      25  177159  177156      24  177162  177156      24
  177162  177159      25  177168  177165      24  177171  177165      24  177171
  177168      25  177177  177174      24  177180  177174      24  177180  177177
      25  177186  177183      24  177189  177183      24  177189  177186      25
  177195  177192      24  177198  177192      24  177198  177195      25  177204
  177201      24  177207  177201      24  177207  177204      25  177213  177210
      24  177216  177210      24  177216  177213      25  177222  177219      24
  177225  177219      24  177225  177222      25  177231  177228      24  177234
  177228      24  177234  177231      25  177240  177237      24  177243  177237
      24  177243  177240      25  177249  177246      24  177252  177246      24
  177252  177249      25  177258  177255      24  177261  177255      24  177261
  177258      25  177267  177264      24  177270  177264      24  177270  177267
      25  177276  177273      24  177279  177273      24  177279  177276      25
  177285  177282      24  177288  177282      24  177288  177285      25  177294
  177291      24  177297  177291      24  177297  177294      25  177303  177300
      24  177306  177300      24  177306  177303      25  177312  177309      24
  177315  177309      24  177315  177312      25  177321  177318      24  177324
  177318      24  177324  177321      25  177330  177327      24  177333  177327
      24  177333  177330      25  177339  177336      24  177342  177336      24
  177342  177339      25  177348  177345      24  177351  177345      24  177351
  177348      25  177357  177354      24  177360  177354      24  177360  177357
      25  177366  177363      24  177369  177363      24  177369  177366      25
  177375  177372      24  177378  177372      24  177378  177375      25  177384
  177381      24  177387  177381      24  177387  177384      25  177393  177390
      24  177396  177390      24  177396  177393      25  177402  177399      24
  177405  177399      24  177405  177402      25  177411  177408      24  177414
  177408      24  177414  177411      25  177420  177417      24  177423  177417
      24  177423  177420      25  177429  177426      24  177432  177426      24
  177432  177429      25  177438  177435      24  177441  177435      24  177441
  177438      25  177447  177444      24  177450  177444      24  177450  177447
      25  177456  177453      24  177459  177453      24  177459  177456      25
  177465  177462      24  177468  177462      24  177468  177465      25  177474
  177471      24  177477  177471      24  177477  177474      25  177483  177480
      24  177486  177480      24  177486  177483      25  177492  177489      24
  177495  177489      24  177495  177492      25  177501  177498      24  177504
  177498      24  177504  177501      25  177510  177507      24  177513  177507
      24  177513  177510      25  177519  177516      24  177522  177516      24
  177522  177519      25  177528  177525      24  177531  177525      24  177531
  177528      25  177537  177534      24  177540  177534      24  177540  177537
      25  177546  177543      24  177549  177543      24  177549  177546      25
  177555  177552      24  177558  177552      24  177558  177555      25  177564
  177561      24  177567  177561      24  177567  177564      25  177573  177570
      24  177576  177570      24  177576  177573      25  177582  177579      24
  177585  177579      24  177585  177582      25  177591  177588      24  177594
  177588      24  177594  177591      25  177600  177597      24  177603  177597
      24  177603  177600      25  177609  177606      24  177612  177606      24
  177612  177609      25  177618  177615      24  177621  177615      24  177621
  177618      25  177627  177624      24  177630  177624      24  177630  177627
      25  177636  177633      24  177639  177633      24  177639  177636      25
  177645  177642      24  177648  177642      24  177648  177645      25  177654
  177651      24  177657  177651      24  177657  177654      25  177663  177660
      24  177666  177660      24  177666  177663      25  177672  177669      24
  177675  177669      24  177675  177672      25  177681  177678      24  177684
  177678      24  177684  177681      25  177690  177687      24  177693  177687
      24  177693  177690      25  177699  177696      24  177702  177696      24
  177702  177699      25  177708  177705      24  177711  177705      24  177711
  177708      25  177717  177714      24  177720  177714      24  177720  177717
      25  177726  177723      24  177729  177723      24  177729  177726      25
  177735  177732      24  177738  177732      24  177738  177735      25  177744
  177741      24  177747  177741      24  177747  177744      25  177753  177750
      24  177756  177750      24  177756  177753      25  177762  177759      24
  177765  177759      24  177765  177762      25  177771  177768      24  177774
  177768      24  177774  177771      25  177780  177777      24  177783  177777
      24  177783  177780      25  177789  177786      24  177792  177786      24
  177792  177789      25  177798  177795      24  177801  177795      24  177801
  177798      25  177807  177804      24  177810  177804      24  177810  177807
      25  177816  177813      24  177819  177813      24  177819  177816      25
  177825  177822      24  177828  177822      24  177828  177825      25  177834
  177831      24  177837  177831      24  177837  177834      25  177843  177840
      24  177846  177840      24  177846  177843      25  177852  177849      24
  177855  177849      24  177855  177852      25  177861  177858      24  177864
  177858      24  177864  177861      25  177870  177867      24  177873  177867
      24  177873  177870      25  177879  177876      24  177882  177876      24
  177882  177879      25  177888  177885      24  177891  177885      24  177891
  177888      25  177897  177894      24  177900  177894      24  177900  177897
      25  177906  177903      24  177909  177903      24  177909  177906      25
  177915  177912      24  177918  177912      24  177918  177915      25  177924
  177921      24  177927  177921      24  177927  177924      25  177933  177930
      24  177936  177930      24  177936  177933      25  177942  177939      24
  177945  177939      24  177945  177942      25  177951  177948      24  177954
  177948      24  177954  177951      25  177960  177957      24  177963  177957
      24  177963  177960      25  177969  177966      24  177972  177966      24
  177972  177969      25  177978  177975      24  177981  177975      24  177981
  177978      25  177987  177984      24  177990  177984      24  177990  177987
      25  177996  177993      24  177999  177993      24  177999  177996      25
  178005  178002      24  178008  178002      24  178008  178005      25  178014
  178011      24  178017  178011      24  178017  178014      25  178023  178020
      24  178026  178020      24  178026  178023      25  178032  178029      24
  178035  178029      24  178035  178032      25  178041  178038      24  178044
  178038      24  178044  178041      25  178050  178047      24  178053  178047
      24  178053  178050      25  178059  178056      24  178062  178056      24
  178062  178059      25  178068  178065      24  178071  178065      24  178071
  178068      25  178077  178074      24  178080  178074      24  178080  178077
      25  178086  178083      24  178089  178083      24  178089  178086      25
  178095  178092      24  178098  178092      24  178098  178095      25  178104
  178101      24  178107  178101      24  178107  178104      25  178113  178110
      24  178116  178110      24  178116  178113      25  178122  178119      24
  178125  178119      24  178125  178122      25  178131  178128      24  178134
  178128      24  178134  178131      25  178140  178137      24  178143  178137
      24  178143  178140      25  178149  178146      24  178152  178146      24
  178152  178149      25  178158  178155      24  178161  178155      24  178161
  178158      25  178167  178164      24  178170  178164      24  178170  178167
      25  178176  178173      24  178179  178173      24  178179  178176      25
  178185  178182      24  178188  178182      24  178188  178185      25  178194
  178191      24  178197  178191      24  178197  178194      25  178203  178200
      24  178206  178200      24  178206  178203      25  178212  178209      24
  178215  178209      24  178215  178212      25  178221  178218      24  178224
  178218      24  178224  178221      25  178230  178227      24  178233  178227
      24  178233  178230      25  178239  178236      24  178242  178236      24
  178242  178239      25  178248  178245      24  178251  178245      24  178251
  178248      25  178257  178254      24  178260  178254      24  178260  178257
      25  178266  178263      24  178269  178263      24  178269  178266      25
  178275  178272      24  178278  178272      24  178278  178275      25  178284
  178281      24  178287  178281      24  178287  178284      25  178293  178290
      24  178296  178290      24  178296  178293      25  178302  178299      24
  178305  178299      24  178305  178302      25  178311  178308      24  178314
  178308      24  178314  178311      25  178320  178317      24  178323  178317
      24  178323  178320      25  178329  178326      24  178332  178326      24
  178332  178329      25  178338  178335      24  178341  178335      24  178341
  178338      25  178347  178344      24  178350  178344      24  178350  178347
      25  178356  178353      24  178359  178353      24  178359  178356      25
  178365  178362      24  178368  178362      24  178368  178365      25  178374
  178371      24  178377  178371      24  178377  178374      25  178383  178380
      24  178386  178380      24  178386  178383      25  178392  178389      24
  178395  178389      24  178395  178392      25  178401  178398      24  178404
  178398      24  178404  178401      25  178410  178407      24  178413  178407
      24  178413  178410      25  178419  178416      24  178422  178416      24
  178422  178419      25  178428  178425      24  178431  178425      24  178431
  178428      25  178437  178434      24  178440  178434      24  178440  178437
      25  178446  178443      24  178449  178443      24  178449  178446      25
  178455  178452      24  178458  178452      24  178458  178455      25  178464
  178461      24  178467  178461      24  178467  178464      25  178473  178470
      24  178476  178470      24  178476  178473      25  178482  178479      24
  178485  178479      24  178485  178482      25  178491  178488      24  178494
  178488      24  178494  178491      25  178500  178497      24  178503  178497
      24  178503  178500      25  178509  178506      24  178512  178506      24
  178512  178509      25  178518  178515      24  178521  178515      24  178521
  178518      25  178527  178524      24  178530  178524      24  178530  178527
      25  178536  178533      24  178539  178533      24  178539  178536      25
  178545  178542      24  178548  178542      24  178548  178545      25  178554
  178551      24  178557  178551      24  178557  178554      25  178563  178560
      24  178566  178560      24  178566  178563      25  178572  178569      24
  178575  178569      24  178575  178572      25  178581  178578      24  178584
  178578      24  178584  178581      25  178590  178587      24  178593  178587
      24  178593  178590      25  178599  178596      24  178602  178596      24
  178602  178599      25  178608  178605      24  178611  178605      24  178611
  178608      25  178617  178614      24  178620  178614      24  178620  178617
      25  178626  178623      24  178629  178623      24  178629  178626      25
  178635  178632      24  178638  178632      24  178638  178635      25  178644
  178641      24  178647  178641      24  178647  178644      25  178653  178650
      24  178656  178650      24  178656  178653      25  178662  178659      24
  178665  178659      24  178665  178662      25  178671  178668      24  178674
  178668      24  178674  178671      25  178680  178677      24  178683  178677
      24  178683  178680      25  178689  178686      24  178692  178686      24
  178692  178689      25  178698  178695      24  178701  178695      24  178701
  178698      25  178707  178704      24  178710  178704      24  178710  178707
      25  178716  178713      24  178719  178713      24  178719  178716      25
  178725  178722      24  178728  178722      24  178728  178725      25  178734
  178731      24  178737  178731      24  178737  178734      25  178743  178740
      24  178746  178740      24  178746  178743      25  178752  178749      24
  178755  178749      24  178755  178752      25  178761  178758      24  178764
  178758      24  178764  178761      25  178770  178767      24  178773  178767
      24  178773  178770      25  178779  178776      24  178782  178776      24
  178782  178779      25  178788  178785      24  178791  178785      24  178791
  178788      25  178797  178794      24  178800  178794      24  178800  178797
      25  178806  178803      24  178809  178803      24  178809  178806      25
  178815  178812      24  178818  178812      24  178818  178815      25  178824
  178821      24  178827  178821      24  178827  178824      25  178833  178830
      24  178836  178830      24  178836  178833      25  178842  178839      24
  178845  178839      24  178845  178842      25  178851  178848      24  178854
  178848      24  178854  178851      25  178860  178857      24  178863  178857
      24  178863  178860      25  178869  178866      24  178872  178866      24
  178872  178869      25  178878  178875      24  178881  178875      24  178881
  178878      25  178887  178884      24  178890  178884      24  178890  178887
      25  178896  178893      24  178899  178893      24  178899  178896      25
  178905  178902      24  178908  178902      24  178908  178905      25  178914
  178911      24  178917  178911      24  178917  178914      25  178923  178920
      24  178926  178920      24  178926  178923      25  178932  178929      24
  178935  178929      24  178935  178932      25  178941  178938      24  178944
  178938      24  178944  178941      25  178950  178947      24  178953  178947
      24  178953  178950      25  178959  178956      24  178962  178956      24
  178962  178959      25  178968  178965      24  178971  178965      24  178971
  178968      25  178977  178974      24  178980  178974      24  178980  178977
      25  178986  178983      24  178989  178983      24  178989  178986      25
  178995  178992      24  178998  178992      24  178998  178995      25  179004
  179001      24  179007  179001      24  179007  179004      25  179013  179010
      24  179016  179010      24  179016  179013      25  179022  179019      24
  179025  179019      24  179025  179022      25  179031  179028      24  179034
  179028      24  179034  179031      25  179040  179037      24  179043  179037
      24  179043  179040      25  179049  179046      24  179052  179046      24
  179052  179049      25  179058  179055      24  179061  179055      24  179061
  179058      25  179067  179064      24  179070  179064      24  179070  179067
      25  179076  179073      24  179079  179073      24  179079  179076      25
  179085  179082      24  179088  179082      24  179088  179085      25  179094
  179091      24  179097  179091      24  179097  179094      25  179103  179100
      24  179106  179100      24  179106  179103      25  179112  179109      24
  179115  179109      24  179115  179112      25  179121  179118      24  179124
  179118      24  179124  179121      25  179130  179127      24  179133  179127
      24  179133  179130      25  179139  179136      24  179142  179136      24
  179142  179139      25  179148  179145      24  179151  179145      24  179151
  179148      25  179157  179154      24  179160  179154      24  179160  179157
      25  179166  179163      24  179169  179163      24  179169  179166      25
  179175  179172      24  179178  179172      24  179178  179175      25  179184
  179181      24  179187  179181      24  179187  179184      25  179193  179190
      24  179196  179190      24  179196  179193      25  179202  179199      24
  179205  179199      24  179205  179202      25  179211  179208      24  179214
  179208      24  179214  179211      25  179220  179217      24  179223  179217
      24  179223  179220      25  179229  179226      24  179232  179226      24
  179232  179229      25  179238  179235      24  179241  179235      24  179241
  179238      25  179247  179244      24  179250  179244      24  179250  179247
      25  179256  179253      24  179259  179253      24  179259  179256      25
  179265  179262      24  179268  179262      24  179268  179265      25  179274
  179271      24  179277  179271      24  179277  179274      25  179283  179280
      24  179286  179280      24  179286  179283      25  179292  179289      24
  179295  179289      24  179295  179292      25  179301  179298      24  179304
  179298      24  179304  179301      25  179310  179307      24  179313  179307
      24  179313  179310      25  179319  179316      24  179322  179316      24
  179322  179319      25  179328  179325      24  179331  179325      24  179331
  179328      25  179337  179334      24  179340  179334      24  179340  179337
      25  179346  179343      24  179349  179343      24  179349  179346      25
  179355  179352      24  179358  179352      24  179358  179355      25  179364
  179361      24  179367  179361      24  179367  179364      25  179373  179370
      24  179376  179370      24  179376  179373      25  179382  179379      24
  179385  179379      24  179385  179382      25  179391  179388      24  179394
  179388      24  179394  179391      25  179400  179397      24  179403  179397
      24  179403  179400      25  179409  179406      24  179412  179406      24
  179412  179409      25  179418  179415      24  179421  179415      24  179421
  179418      25  179427  179424      24  179430  179424      24  179430  179427
      25  179436  179433      24  179439  179433      24  179439  179436      25
  179445  179442      24  179448  179442      24  179448  179445      25  179454
  179451      24  179457  179451      24  179457  179454      25  179463  179460
      24  179466  179460      24  179466  179463      25  179472  179469      24
  179475  179469      24  179475  179472      25  179481  179478      24  179484
  179478      24  179484  179481      25  179490  179487      24  179493  179487
      24  179493  179490      25  179499  179496      24  179502  179496      24
  179502  179499      25  179508  179505      24  179511  179505      24  179511
  179508      25  179517  179514      24  179520  179514      24  179520  179517
      25  179526  179523      24  179529  179523      24  179529  179526      25
  179535  179532      24  179538  179532      24  179538  179535      25  179544
  179541      24  179547  179541      24  179547  179544      25  179553  179550
      24  179556  179550      24  179556  179553      25  179562  179559      24
  179565  179559      24  179565  179562      25  179571  179568      24  179574
  179568      24  179574  179571      25  179580  179577      24  179583  179577
      24  179583  179580      25  179589  179586      24  179592  179586      24
  179592  179589      25  179598  179595      24  179601  179595      24  179601
  179598      25  179607  179604      24  179610  179604      24  179610  179607
      25  179616  179613      24  179619  179613      24  179619  179616      25
  179625  179622      24  179628  179622      24  179628  179625      25  179634
  179631      24  179637  179631      24  179637  179634      25  179643  179640
      24  179646  179640      24  179646  179643      25  179652  179649      24
  179655  179649      24  179655  179652      25  179661  179658      24  179664
  179658      24  179664  179661      25  179670  179667      24  179673  179667
      24  179673  179670      25  179679  179676      24  179682  179676      24
  179682  179679      25  179688  179685      24  179691  179685      24  179691
  179688      25  179697  179694      24  179700  179694      24  179700  179697
      25  179706  179703      24  179709  179703      24  179709  179706      25
  179715  179712      24  179718  179712      24  179718  179715      25  179724
  179721      24  179727  179721      24  179727  179724      25  179733  179730
      24  179736  179730      24  179736  179733      25  179742  179739      24
  179745  179739      24  179745  179742      25  179751  179748      24  179754
  179748      24  179754  179751      25  179760  179757      24  179763  179757
      24  179763  179760      25  179769  179766      24  179772  179766      24
  179772  179769      25  179778  179775      24  179781  179775      24  179781
  179778      25  179787  179784      24  179790  179784      24  179790  179787
      25  179796  179793      24  179799  179793      24  179799  179796      25
  179805  179802      24  179808  179802      24  179808  179805      25  179814
  179811      24  179817  179811      24  179817  179814      25  179823  179820
      24  179826  179820      24  179826  179823      25  179832  179829      24
  179835  179829      24  179835  179832      25  179841  179838      24  179844
  179838      24  179844  179841      25  179850  179847      24  179853  179847
      24  179853  179850      25  179859  179856      24  179862  179856      24
  179862  179859      25  179868  179865      24  179871  179865      24  179871
  179868      25  179877  179874      24  179880  179874      24  179880  179877
      25  179886  179883      24  179889  179883      24  179889  179886      25
  179895  179892      24  179898  179892      24  179898  179895      25  179904
  179901      24  179907  179901      24  179907  179904      25  179913  179910
      24  179916  179910      24  179916  179913      25  179922  179919      24
  179925  179919      24  179925  179922      25  179931  179928      24  179934
  179928      24  179934  179931      25  179940  179937      24  179943  179937
      24  179943  179940      25  179949  179946      24  179952  179946      24
  179952  179949      25  179958  179955      24  179961  179955      24  179961
  179958      25  179967  179964      24  179970  179964      24  179970  179967
      25  179976  179973      24  179979  179973      24  179979  179976      25
  179985  179982      24  179988  179982      24  179988  179985      25  179994
  179991      24  179997  179991      24  179997  179994      25  180003  180000
      24  180006  180000      24  180006  180003      25  180012  180009      24
  180015  180009      24  180015  180012      25  180021  180018      24  180024
  180018      24  180024  180021      25  180030  180027      24  180033  180027
      24  180033  180030      25  180039  180036      24  180042  180036      24
  180042  180039      25  180048  180045      24  180051  180045      24  180051
  180048      25  180057  180054      24  180060  180054      24  180060  180057
      25  180066  180063      24  180069  180063      24  180069  180066      25
  180075  180072      24  180078  180072      24  180078  180075      25  180084
  180081      24  180087  180081      24  180087  180084      25  180093  180090
      24  180096  180090      24  180096  180093      25  180102  180099      24
  180105  180099      24  180105  180102      25  180111  180108      24  180114
  180108      24  180114  180111      25  180120  180117      24  180123  180117
      24  180123  180120      25  180129  180126      24  180132  180126      24
  180132  180129      25  180138  180135      24  180141  180135      24  180141
  180138      25  180147  180144      24  180150  180144      24  180150  180147
      25  180156  180153      24  180159  180153      24  180159  180156      25
  180165  180162      24  180168  180162      24  180168  180165      25  180174
  180171      24  180177  180171      24  180177  180174      25  180183  180180
      24  180186  180180      24  180186  180183      25  180192  180189      24
  180195  180189      24  180195  180192      25  180201  180198      24  180204
  180198      24  180204  180201      25  180210  180207      24  180213  180207
      24  180213  180210      25  180219  180216      24  180222  180216      24
  180222  180219      25  180228  180225      24  180231  180225      24  180231
  180228      25  180237  180234      24  180240  180234      24  180240  180237
      25  180246  180243      24  180249  180243      24  180249  180246      25
  180255  180252      24  180258  180252      24  180258  180255      25  180264
  180261      24  180267  180261      24  180267  180264      25  180273  180270
      24  180276  180270      24  180276  180273      25  180282  180279      24
  180285  180279      24  180285  180282      25  180291  180288      24  180294
  180288      24  180294  180291      25  180300  180297      24  180303  180297
      24  180303  180300      25  180309  180306      24  180312  180306      24
  180312  180309      25  180318  180315      24  180321  180315      24  180321
  180318      25  180327  180324      24  180330  180324      24  180330  180327
      25  180336  180333      24  180339  180333      24  180339  180336      25
  180345  180342      24  180348  180342      24  180348  180345      25  180354
  180351      24  180357  180351      24  180357  180354      25  180363  180360
      24  180366  180360      24  180366  180363      25  180372  180369      24
  180375  180369      24  180375  180372      25  180381  180378      24  180384
  180378      24  180384  180381      25  180390  180387      24  180393  180387
      24  180393  180390      25  180399  180396      24  180402  180396      24
  180402  180399      25  180408  180405      24  180411  180405      24  180411
  180408      25  180417  180414      24  180420  180414      24  180420  180417
      25  180426  180423      24  180429  180423      24  180429  180426      25
  180435  180432      24  180438  180432      24  180438  180435      25  180444
  180441      24  180447  180441      24  180447  180444      25  180453  180450
      24  180456  180450      24  180456  180453      25  180462  180459      24
  180465  180459      24  180465  180462      25  180471  180468      24  180474
  180468      24  180474  180471      25  180480  180477      24  180483  180477
      24  180483  180480      25  180489  180486      24  180492  180486      24
  180492  180489      25  180498  180495      24  180501  180495      24  180501
  180498      25  180507  180504      24  180510  180504      24  180510  180507
      25  180516  180513      24  180519  180513      24  180519  180516      25
  180525  180522      24  180528  180522      24  180528  180525      25  180534
  180531      24  180537  180531      24  180537  180534      25  180543  180540
      24  180546  180540      24  180546  180543      25  180552  180549      24
  180555  180549      24  180555  180552      25  180561  180558      24  180564
  180558      24  180564  180561      25  180570  180567      24  180573  180567
      24  180573  180570      25  180579  180576      24  180582  180576      24
  180582  180579      25  180588  180585      24  180591  180585      24  180591
  180588      25  180597  180594      24  180600  180594      24  180600  180597
      25  180606  180603      24  180609  180603      24  180609  180606      25
  180615  180612      24  180618  180612      24  180618  180615      25  180624
  180621      24  180627  180621      24  180627  180624      25  180633  180630
      24  180636  180630      24  180636  180633      25  180642  180639      24
  180645  180639      24  180645  180642      25  180651  180648      24  180654
  180648      24  180654  180651      25  180660  180657      24  180663  180657
      24  180663  180660      25  180669  180666      24  180672  180666      24
  180672  180669      25  180678  180675      24  180681  180675      24  180681
  180678      25  180687  180684      24  180690  180684      24  180690  180687
      25  180696  180693      24  180699  180693      24  180699  180696      25
  180705  180702      24  180708  180702      24  180708  180705      25  180714
  180711      24  180717  180711      24  180717  180714      25  180723  180720
      24  180726  180720      24  180726  180723      25  180732  180729      24
  180735  180729      24  180735  180732      25  180741  180738      24  180744
  180738      24  180744  180741      25  180750  180747      24  180753  180747
      24  180753  180750      25  180759  180756      24  180762  180756      24
  180762  180759      25  180768  180765      24  180771  180765      24  180771
  180768      25  180777  180774      24  180780  180774      24  180780  180777
      25  180786  180783      24  180789  180783      24  180789  180786      25
  180795  180792      24  180798  180792      24  180798  180795      25  180804
  180801      24  180807  180801      24  180807  180804      25  180813  180810
      24  180816  180810      24  180816  180813      25  180822  180819      24
  180825  180819      24  180825  180822      25  180831  180828      24  180834
  180828      24  180834  180831      25  180840  180837      24  180843  180837
      24  180843  180840      25  180849  180846      24  180852  180846      24
  180852  180849      25  180858  180855      24  180861  180855      24  180861
  180858      25  180867  180864      24  180870  180864      24  180870  180867
      25  180876  180873      24  180879  180873      24  180879  180876      25
  180885  180882      24  180888  180882      24  180888  180885      25  180894
  180891      24  180897  180891      24  180897  180894      25  180903  180900
      24  180906  180900      24  180906  180903      25  180912  180909      24
  180915  180909      24  180915  180912      25  180921  180918      24  180924
  180918      24  180924  180921      25  180930  180927      24  180933  180927
      24  180933  180930      25  180939  180936      24  180942  180936      24
  180942  180939      25  180948  180945      24  180951  180945      24  180951
  180948      25  180957  180954      24  180960  180954      24  180960  180957
      25  180966  180963      24  180969  180963      24  180969  180966      25
  180975  180972      24  180978  180972      24  180978  180975      25  180984
  180981      24  180987  180981      24  180987  180984      25  180993  180990
      24  180996  180990      24  180996  180993      25  181002  180999      24
  181005  180999      24  181005  181002      25  181011  181008      24  181014
  181008      24  181014  181011      25  181020  181017      24  181023  181017
      24  181023  181020      25  181029  181026      24  181032  181026      24
  181032  181029      25  181038  181035      24  181041  181035      24  181041
  181038      25  181047  181044      24  181050  181044      24  181050  181047
      25  181056  181053      24  181059  181053      24  181059  181056      25
  181065  181062      24  181068  181062      24  181068  181065      25  181074
  181071      24  181077  181071      24  181077  181074      25  181083  181080
      24  181086  181080      24  181086  181083      25  181092  181089      24
  181095  181089      24  181095  181092      25  181101  181098      24  181104
  181098      24  181104  181101      25  181110  181107      24  181113  181107
      24  181113  181110      25  181119  181116      24  181122  181116      24
  181122  181119      25  181128  181125      24  181131  181125      24  181131
  181128      25  181137  181134      24  181140  181134      24  181140  181137
      25  181146  181143      24  181149  181143      24  181149  181146      25
  181155  181152      24  181158  181152      24  181158  181155      25  181164
  181161      24  181167  181161      24  181167  181164      25  181173  181170
      24  181176  181170      24  181176  181173      25  181182  181179      24
  181185  181179      24  181185  181182      25  181191  181188      24  181194
  181188      24  181194  181191      25  181200  181197      24  181203  181197
      24  181203  181200      25  181209  181206      24  181212  181206      24
  181212  181209      25  181218  181215      24  181221  181215      24  181221
  181218      25  181227  181224      24  181230  181224      24  181230  181227
      25  181236  181233      24  181239  181233      24  181239  181236      25
  181245  181242      24  181248  181242      24  181248  181245      25  181254
  181251      24  181257  181251      24  181257  181254      25  181263  181260
      24  181266  181260      24  181266  181263      25  181272  181269      24
  181275  181269      24  181275  181272      25  181281  181278      24  181284
  181278      24  181284  181281      25  181290  181287      24  181293  181287
      24  181293  181290      25  181299  181296      24  181302  181296      24
  181302  181299      25  181308  181305      24  181311  181305      24  181311
  181308      25  181317  181314      24  181320  181314      24  181320  181317
      25  181326  181323      24  181329  181323      24  181329  181326      25
  181335  181332      24  181338  181332      24  181338  181335      25  181344
  181341      24  181347  181341      24  181347  181344      25  181353  181350
      24  181356  181350      24  181356  181353      25  181362  181359      24
  181365  181359      24  181365  181362      25  181371  181368      24  181374
  181368      24  181374  181371      25  181380  181377      24  181383  181377
      24  181383  181380      25  181389  181386      24  181392  181386      24
  181392  181389      25  181398  181395      24  181401  181395      24  181401
  181398      25  181407  181404      24  181410  181404      24  181410  181407
      25  181416  181413      24  181419  181413      24  181419  181416      25
  181425  181422      24  181428  181422      24  181428  181425      25  181434
  181431      24  181437  181431      24  181437  181434      25  181443  181440
      24  181446  181440      24  181446  181443      25  181452  181449      24
  181455  181449      24  181455  181452      25  181461  181458      24  181464
  181458      24  181464  181461      25  181470  181467      24  181473  181467
      24  181473  181470      25  181479  181476      24  181482  181476      24
  181482  181479      25  181488  181485      24  181491  181485      24  181491
  181488      25  181497  181494      24  181500  181494      24  181500  181497
      25  181506  181503      24  181509  181503      24  181509  181506      25
  181515  181512      24  181518  181512      24  181518  181515      25  181524
  181521      24  181527  181521      24  181527  181524      25  181533  181530
      24  181536  181530      24  181536  181533      25  181542  181539      24
  181545  181539      24  181545  181542      25  181551  181548      24  181554
  181548      24  181554  181551      25  181560  181557      24  181563  181557
      24  181563  181560      25  181569  181566      24  181572  181566      24
  181572  181569      25  181578  181575      24  181581  181575      24  181581
  181578      25  181587  181584      24  181590  181584      24  181590  181587
      25  181596  181593      24  181599  181593      24  181599  181596      25
  181605  181602      24  181608  181602      24  181608  181605      25  181614
  181611      24  181617  181611      24  181617  181614      25  181623  181620
      24  181626  181620      24  181626  181623      25  181632  181629      24
  181635  181629      24  181635  181632      25  181641  181638      24  181644
  181638      24  181644  181641      25  181650  181647      24  181653  181647
      24  181653  181650      25  181659  181656      24  181662  181656      24
  181662  181659      25  181668  181665      24  181671  181665      24  181671
  181668      25  181677  181674      24  181680  181674      24  181680  181677
      25  181686  181683      24  181689  181683      24  181689  181686      25
  181695  181692      24  181698  181692      24  181698  181695      25  181704
  181701      24  181707  181701      24  181707  181704      25  181713  181710
      24  181716  181710      24  181716  181713      25  181722  181719      24
  181725  181719      24  181725  181722      25  181731  181728      24  181734
  181728      24  181734  181731      25  181740  181737      24  181743  181737
      24  181743  181740      25  181749  181746      24  181752  181746      24
  181752  181749      25  181758  181755      24  181761  181755      24  181761
  181758      25  181767  181764      24  181770  181764      24  181770  181767
      25  181776  181773      24  181779  181773      24  181779  181776      25
  181785  181782      24  181788  181782      24  181788  181785      25  181794
  181791      24  181797  181791      24  181797  181794      25  181803  181800
      24  181806  181800      24  181806  181803      25  181812  181809      24
  181815  181809      24  181815  181812      25  181821  181818      24  181824
  181818      24  181824  181821      25  181830  181827      24  181833  181827
      24  181833  181830      25  181839  181836      24  181842  181836      24
  181842  181839      25  181848  181845      24  181851  181845      24  181851
  181848      25  181857  181854      24  181860  181854      24  181860  181857
      25  181866  181863      24  181869  181863      24  181869  181866      25
  181875  181872      24  181878  181872      24  181878  181875      25  181884
  181881      24  181887  181881      24  181887  181884      25  181893  181890
      24  181896  181890      24  181896  181893      25  181902  181899      24
  181905  181899      24  181905  181902      25  181911  181908      24  181914
  181908      24  181914  181911      25  181920  181917      24  181923  181917
      24  181923  181920      25  181929  181926      24  181932  181926      24
  181932  181929      25  181938  181935      24  181941  181935      24  181941
  181938      25  181947  181944      24  181950  181944      24  181950  181947
      25  181956  181953      24  181959  181953      24  181959  181956      25
  181965  181962      24  181968  181962      24  181968  181965      25  181974
  181971      24  181977  181971      24  181977  181974      25  181983  181980
      24  181986  181980      24  181986  181983      25  181992  181989      24
  181995  181989      24  181995  181992      25  182001  181998      24  182004
  181998      24  182004  182001      25  182010  182007      24  182013  182007
      24  182013  182010      25  182019  182016      24  182022  182016      24
  182022  182019      25  182028  182025      24  182031  182025      24  182031
  182028      25  182037  182034      24  182040  182034      24  182040  182037
      25  182046  182043      24  182049  182043      24  182049  182046      25
  182055  182052      24  182058  182052      24  182058  182055      25  182064
  182061      24  182067  182061      24  182067  182064      25  182073  182070
      24  182076  182070      24  182076  182073      25  182082  182079      24
  182085  182079      24  182085  182082      25  182091  182088      24  182094
  182088      24  182094  182091      25  182100  182097      24  182103  182097
      24  182103  182100      25  182109  182106      24  182112  182106      24
  182112  182109      25  182118  182115      24  182121  182115      24  182121
  182118      25  182127  182124      24  182130  182124      24  182130  182127
      25  182136  182133      24  182139  182133      24  182139  182136      25
  182145  182142      24  182148  182142      24  182148  182145      25  182154
  182151      24  182157  182151      24  182157  182154      25  182163  182160
      24  182166  182160      24  182166  182163      25  182172  182169      24
  182175  182169      24  182175  182172      25  182181  182178      24  182184
  182178      24  182184  182181      25  182190  182187      24  182193  182187
      24  182193  182190      25  182199  182196      24  182202  182196      24
  182202  182199      25  182208  182205      24  182211  182205      24  182211
  182208      25  182217  182214      24  182220  182214      24  182220  182217
      25  182226  182223      24  182229  182223      24  182229  182226      25
  182235  182232      24  182238  182232      24  182238  182235      25  182244
  182241      24  182247  182241      24  182247  182244      25  182253  182250
      24  182256  182250      24  182256  182253      25  182262  182259      24
  182265  182259      24  182265  182262      25  182271  182268      24  182274
  182268      24  182274  182271      25  182280  182277      24  182283  182277
      24  182283  182280      25  182289  182286      24  182292  182286      24
  182292  182289      25  182298  182295      24  182301  182295      24  182301
  182298      25  182307  182304      24  182310  182304      24  182310  182307
      25  182316  182313      24  182319  182313      24  182319  182316      25
  182325  182322      24  182328  182322      24  182328  182325      25  182334
  182331      24  182337  182331      24  182337  182334      25  182343  182340
      24  182346  182340      24  182346  182343      25  182352  182349      24
  182355  182349      24  182355  182352      25  182361  182358      24  182364
  182358      24  182364  182361      25  182370  182367      24  182373  182367
      24  182373  182370      25  182379  182376      24  182382  182376      24
  182382  182379      25  182388  182385      24  182391  182385      24  182391
  182388      25  182397  182394      24  182400  182394      24  182400  182397
      25  182406  182403      24  182409  182403      24  182409  182406      25
  182415  182412      24  182418  182412      24  182418  182415      25  182424
  182421      24  182427  182421      24  182427  182424      25  182433  182430
      24  182436  182430      24  182436  182433      25  182442  182439      24
  182445  182439      24  182445  182442      25  182451  182448      24  182454
  182448      24  182454  182451      25  182460  182457      24  182463  182457
      24  182463  182460      25  182469  182466      24  182472  182466      24
  182472  182469      25  182478  182475      24  182481  182475      24  182481
  182478      25  182487  182484      24  182490  182484      24  182490  182487
      25  182496  182493      24  182499  182493      24  182499  182496      25
  182505  182502      24  182508  182502      24  182508  182505      25  182514
  182511      24  182517  182511      24  182517  182514      25  182523  182520
      24  182526  182520      24  182526  182523      25  182532  182529      24
  182535  182529      24  182535  182532      25  182541  182538      24  182544
  182538      24  182544  182541      25  182550  182547      24  182553  182547
      24  182553  182550      25  182559  182556      24  182562  182556      24
  182562  182559      25  182568  182565      24  182571  182565      24  182571
  182568      25  182577  182574      24  182580  182574      24  182580  182577
      25  182586  182583      24  182589  182583      24  182589  182586      25
  182595  182592      24  182598  182592      24  182598  182595      25  182604
  182601      24  182607  182601      24  182607  182604      25  182613  182610
      24  182616  182610      24  182616  182613      25  182622  182619      24
  182625  182619      24  182625  182622      25  182631  182628      24  182634
  182628      24  182634  182631      25  182640  182637      24  182643  182637
      24  182643  182640      25  182649  182646      24  182652  182646      24
  182652  182649      25  182658  182655      24  182661  182655      24  182661
  182658      25  182667  182664      24  182670  182664      24  182670  182667
      25  182676  182673      24  182679  182673      24  182679  182676      25
  182685  182682      24  182688  182682      24  182688  182685      25  182694
  182691      24  182697  182691      24  182697  182694      25  182703  182700
      24  182706  182700      24  182706  182703      25  182712  182709      24
  182715  182709      24  182715  182712      25  182721  182718      24  182724
  182718      24  182724  182721      25  182730  182727      24  182733  182727
      24  182733  182730      25  182739  182736      24  182742  182736      24
  182742  182739      25  182748  182745      24  182751  182745      24  182751
  182748      25  182757  182754      24  182760  182754      24  182760  182757
      25  182766  182763      24  182769  182763      24  182769  182766      25
  182775  182772      24  182778  182772      24  182778  182775      25  182784
  182781      24  182787  182781      24  182787  182784      25  182793  182790
      24  182796  182790      24  182796  182793      25  182802  182799      24
  182805  182799      24  182805  182802      25  182811  182808      24  182814
  182808      24  182814  182811      25  182820  182817      24  182823  182817
      24  182823  182820      25  182829  182826      24  182832  182826      24
  182832  182829      25  182838  182835      24  182841  182835      24  182841
  182838      25  182847  182844      24  182850  182844      24  182850  182847
      25  182856  182853      24  182859  182853      24  182859  182856      25
  182865  182862      24  182868  182862      24  182868  182865      25  182874
  182871      24  182877  182871      24  182877  182874      25  182883  182880
      24  182886  182880      24  182886  182883      25  182892  182889      24
  182895  182889      24  182895  182892      25  182901  182898      24  182904
  182898      24  182904  182901      25  182910  182907      24  182913  182907
      24  182913  182910      25  182919  182916      24  182922  182916      24
  182922  182919      25  182928  182925      24  182931  182925      24  182931
  182928      25  182937  182934      24  182940  182934      24  182940  182937
      25  182946  182943      24  182949  182943      24  182949  182946      25
  182955  182952      24  182958  182952      24  182958  182955      25  182964
  182961      24  182967  182961      24  182967  182964      25  182973  182970
      24  182976  182970      24  182976  182973      25  182982  182979      24
  182985  182979      24  182985  182982      25  182991  182988      24  182994
  182988      24  182994  182991      25  183000  182997      24  183003  182997
      24  183003  183000      25  183009  183006      24  183012  183006      24
  183012  183009      25  183018  183015      24  183021  183015      24  183021
  183018      25  183027  183024      24  183030  183024      24  183030  183027
      25  183036  183033      24  183039  183033      24  183039  183036      25
  183045  183042      24  183048  183042      24  183048  183045      25  183054
  183051      24  183057  183051      24  183057  183054      25  183063  183060
      24  183066  183060      24  183066  183063      25  183072  183069      24
  183075  183069      24  183075  183072      25  183081  183078      24  183084
  183078      24  183084  183081      25  183090  183087      24  183093  183087
      24  183093  183090      25  183099  183096      24  183102  183096      24
  183102  183099      25  183108  183105      24  183111  183105      24  183111
  183108      25  183117  183114      24  183120  183114      24  183120  183117
      25  183126  183123      24  183129  183123      24  183129  183126      25
  183135  183132      24  183138  183132      24  183138  183135      25  183144
  183141      24  183147  183141      24  183147  183144      25  183153  183150
      24  183156  183150      24  183156  183153      25  183162  183159      24
  183165  183159      24  183165  183162      25  183171  183168      24  183174
  183168      24  183174  183171      25  183180  183177      24  183183  183177
      24  183183  183180      25  183189  183186      24  183192  183186      24
  183192  183189      25  183198  183195      24  183201  183195      24  183201
  183198      25  183207  183204      24  183210  183204      24  183210  183207
      25  183216  183213      24  183219  183213      24  183219  183216      25
  183225  183222      24  183228  183222      24  183228  183225      25  183234
  183231      24  183237  183231      24  183237  183234      25  183243  183240
      24  183246  183240      24  183246  183243      25  183252  183249      24
  183255  183249      24  183255  183252      25  183261  183258      24  183264
  183258      24  183264  183261      25  183270  183267      24  183273  183267
      24  183273  183270      25  183279  183276      24  183282  183276      24
  183282  183279      25  183288  183285      24  183291  183285      24  183291
  183288      25  183297  183294      24  183300  183294      24  183300  183297
      25  183306  183303      24  183309  183303      24  183309  183306      25
  183315  183312      24  183318  183312      24  183318  183315      25  183324
  183321      24  183327  183321      24  183327  183324      25  183333  183330
      24  183336  183330      24  183336  183333      25  183342  183339      24
  183345  183339      24  183345  183342      25  183351  183348      24  183354
  183348      24  183354  183351      25  183360  183357      24  183363  183357
      24  183363  183360      25  183369  183366      24  183372  183366      24
  183372  183369      25  183378  183375      24  183381  183375      24  183381
  183378      25  183387  183384      24  183390  183384      24  183390  183387
      25  183396  183393      24  183399  183393      24  183399  183396      25
  183405  183402      24  183408  183402      24  183408  183405      25  183414
  183411      24  183417  183411      24  183417  183414      25  183423  183420
      24  183426  183420      24  183426  183423      25  183432  183429      24
  183435  183429      24  183435  183432      25  183441  183438      24  183444
  183438      24  183444  183441      25  183450  183447      24  183453  183447
      24  183453  183450      25  183459  183456      24  183462  183456      24
  183462  183459      25  183468  183465      24  183471  183465      24  183471
  183468      25  183477  183474      24  183480  183474      24  183480  183477
      25  183486  183483      24  183489  183483      24  183489  183486      25
  183495  183492      24  183498  183492      24  183498  183495      25  183504
  183501      24  183507  183501      24  183507  183504      25  183513  183510
      24  183516  183510      24  183516  183513      25  183522  183519      24
  183525  183519      24  183525  183522      25  183531  183528      24  183534
  183528      24  183534  183531      25  183540  183537      24  183543  183537
      24  183543  183540      25  183549  183546      24  183552  183546      24
  183552  183549      25  183558  183555      24  183561  183555      24  183561
  183558      25  183567  183564      24  183570  183564      24  183570  183567
      25  183576  183573      24  183579  183573      24  183579  183576      25
  183585  183582      24  183588  183582      24  183588  183585      25  183594
  183591      24  183597  183591      24  183597  183594      25  183603  183600
      24  183606  183600      24  183606  183603      25  183612  183609      24
  183615  183609      24  183615  183612      25  183621  183618      24  183624
  183618      24  183624  183621      25  183630  183627      24  183633  183627
      24  183633  183630      25  183639  183636      24  183642  183636      24
  183642  183639      25  183648  183645      24  183651  183645      24  183651
  183648      25  183657  183654      24  183660  183654      24  183660  183657
      25  183666  183663      24  183669  183663      24  183669  183666      25
  183675  183672      24  183678  183672      24  183678  183675      25  183684
  183681      24  183687  183681      24  183687  183684      25  183693  183690
      24  183696  183690      24  183696  183693      25  183702  183699      24
  183705  183699      24  183705  183702      25  183711  183708      24  183714
  183708      24  183714  183711      25  183720  183717      24  183723  183717
      24  183723  183720      25  183729  183726      24  183732  183726      24
  183732  183729      25  183738  183735      24  183741  183735      24  183741
  183738      25  183747  183744      24  183750  183744      24  183750  183747
      25  183756  183753      24  183759  183753      24  183759  183756      25
  183765  183762      24  183768  183762      24  183768  183765      25  183774
  183771      24  183777  183771      24  183777  183774      25  183783  183780
      24  183786  183780      24  183786  183783      25  183792  183789      24
  183795  183789      24  183795  183792      25  183801  183798      24  183804
  183798      24  183804  183801      25  183810  183807      24  183813  183807
      24  183813  183810      25  183819  183816      24  183822  183816      24
  183822  183819      25  183828  183825      24  183831  183825      24  183831
  183828      25  183837  183834      24  183840  183834      24  183840  183837
      25  183846  183843      24  183849  183843      24  183849  183846      25
  183855  183852      24  183858  183852      24  183858  183855      25  183864
  183861      24  183867  183861      24  183867  183864      25  183873  183870
      24  183876  183870      24  183876  183873      25  183882  183879      24
  183885  183879      24  183885  183882      25  183891  183888      24  183894
  183888      24  183894  183891      25  183900  183897      24  183903  183897
      24  183903  183900      25  183909  183906      24  183912  183906      24
  183912  183909      25  183918  183915      24  183921  183915      24  183921
  183918      25  183927  183924      24  183930  183924      24  183930  183927
      25  183936  183933      24  183939  183933      24  183939  183936      25
  183945  183942      24  183948  183942      24  183948  183945      25  183954
  183951      24  183957  183951      24  183957  183954      25  183963  183960
      24  183966  183960      24  183966  183963      25  183972  183969      24
  183975  183969      24  183975  183972      25  183981  183978      24  183984
  183978      24  183984  183981      25  183990  183987      24  183993  183987
      24  183993  183990      25  183999  183996      24  184002  183996      24
  184002  183999      25  184008  184005      24  184011  184005      24  184011
  184008      25  184017  184014      24  184020  184014      24  184020  184017
      25  184026  184023      24  184029  184023      24  184029  184026      25
  184035  184032      24  184038  184032      24  184038  184035      25  184044
  184041      24  184047  184041      24  184047  184044      25  184053  184050
      24  184056  184050      24  184056  184053      25  184062  184059      24
  184065  184059      24  184065  184062      25  184071  184068      24  184074
  184068      24  184074  184071      25  184080  184077      24  184083  184077
      24  184083  184080      25  184089  184086      24  184092  184086      24
  184092  184089      25  184098  184095      24  184101  184095      24  184101
  184098      25  184107  184104      24  184110  184104      24  184110  184107
      25  184116  184113      24  184119  184113      24  184119  184116      25
  184125  184122      24  184128  184122      24  184128  184125      25  184134
  184131      24  184137  184131      24  184137  184134      25  184143  184140
      24  184146  184140      24  184146  184143      25  184152  184149      24
  184155  184149      24  184155  184152      25  184161  184158      24  184164
  184158      24  184164  184161      25  184170  184167      24  184173  184167
      24  184173  184170      25  184179  184176      24  184182  184176      24
  184182  184179      25  184188  184185      24  184191  184185      24  184191
  184188      25  184197  184194      24  184200  184194      24  184200  184197
      25  184206  184203      24  184209  184203      24  184209  184206      25
  184215  184212      24  184218  184212      24  184218  184215      25  184224
  184221      24  184227  184221      24  184227  184224      25  184233  184230
      24  184236  184230      24  184236  184233      25  184242  184239      24
  184245  184239      24  184245  184242      25  184251  184248      24  184254
  184248      24  184254  184251      25  184260  184257      24  184263  184257
      24  184263  184260      25  184269  184266      24  184272  184266      24
  184272  184269      25  184278  184275      24  184281  184275      24  184281
  184278      25  184287  184284      24  184290  184284      24  184290  184287
      25  184296  184293      24  184299  184293      24  184299  184296      25
  184305  184302      24  184308  184302      24  184308  184305      25  184314
  184311      24  184317  184311      24  184317  184314      25  184323  184320
      24  184326  184320      24  184326  184323      25  184332  184329      24
  184335  184329      24  184335  184332      25  184341  184338      24  184344
  184338      24  184344  184341      25  184350  184347      24  184353  184347
      24  184353  184350      25  184359  184356      24  184362  184356      24
  184362  184359      25  184368  184365      24  184371  184365      24  184371
  184368      25  184377  184374      24  184380  184374      24  184380  184377
      25  184386  184383      24  184389  184383      24  184389  184386      25
  184395  184392      24  184398  184392      24  184398  184395      25  184404
  184401      24  184407  184401      24  184407  184404      25  184413  184410
      24  184416  184410      24  184416  184413      25  184422  184419      24
  184425  184419      24  184425  184422      25  184431  184428      24  184434
  184428      24  184434  184431      25  184440  184437      24  184443  184437
      24  184443  184440      25  184449  184446      24  184452  184446      24
  184452  184449      25  184458  184455      24  184461  184455      24  184461
  184458      25  184467  184464      24  184470  184464      24  184470  184467
      25  184476  184473      24  184479  184473      24  184479  184476      25
  184485  184482      24  184488  184482      24  184488  184485      25  184494
  184491      24  184497  184491      24  184497  184494      25  184503  184500
      24  184506  184500      24  184506  184503      25  184512  184509      24
  184515  184509      24  184515  184512      25  184521  184518      24  184524
  184518      24  184524  184521      25  184530  184527      24  184533  184527
      24  184533  184530      25  184539  184536      24  184542  184536      24
  184542  184539      25  184548  184545      24  184551  184545      24  184551
  184548      25  184557  184554      24  184560  184554      24  184560  184557
      25  184566  184563      24  184569  184563      24  184569  184566      25
  184575  184572      24  184578  184572      24  184578  184575      25  184584
  184581      24  184587  184581      24  184587  184584      25  184593  184590
      24  184596  184590      24  184596  184593      25  184602  184599      24
  184605  184599      24  184605  184602      25  184611  184608      24  184614
  184608      24  184614  184611      25  184620  184617      24  184623  184617
      24  184623  184620      25  184629  184626      24  184632  184626      24
  184632  184629      25  184638  184635      24  184641  184635      24  184641
  184638      25  184647  184644      24  184650  184644      24  184650  184647
      25  184656  184653      24  184659  184653      24  184659  184656      25
  184665  184662      24  184668  184662      24  184668  184665      25  184674
  184671      24  184677  184671      24  184677  184674      25  184683  184680
      24  184686  184680      24  184686  184683      25  184692  184689      24
  184695  184689      24  184695  184692      25  184701  184698      24  184704
  184698      24  184704  184701      25  184710  184707      24  184713  184707
      24  184713  184710      25  184719  184716      24  184722  184716      24
  184722  184719      25  184728  184725      24  184731  184725      24  184731
  184728      25  184737  184734      24  184740  184734      24  184740  184737
      25  184746  184743      24  184749  184743      24  184749  184746      25
  184755  184752      24  184758  184752      24  184758  184755      25  184764
  184761      24  184767  184761      24  184767  184764      25  184773  184770
      24  184776  184770      24  184776  184773      25  184782  184779      24
  184785  184779      24  184785  184782      25  184791  184788      24  184794
  184788      24  184794  184791      25  184800  184797      24  184803  184797
      24  184803  184800      25  184809  184806      24  184812  184806      24
  184812  184809      25  184818  184815      24  184821  184815      24  184821
  184818      25  184827  184824      24  184830  184824      24  184830  184827
      25  184836  184833      24  184839  184833      24  184839  184836      25
  184845  184842      24  184848  184842      24  184848  184845      25  184854
  184851      24  184857  184851      24  184857  184854      25  184863  184860
      24  184866  184860      24  184866  184863      25  184872  184869      24
  184875  184869      24  184875  184872      25  184881  184878      24  184884
  184878      24  184884  184881      25  184890  184887      24  184893  184887
      24  184893  184890      25  184899  184896      24  184902  184896      24
  184902  184899      25  184908  184905      24  184911  184905      24  184911
  184908      25  184917  184914      24  184920  184914      24  184920  184917
      25  184926  184923      24  184929  184923      24  184929  184926      25
  184935  184932      24  184938  184932      24  184938  184935      25  184944
  184941      24  184947  184941      24  184947  184944      25  184953  184950
      24  184956  184950      24  184956  184953      25  184962  184959      24
  184965  184959      24  184965  184962      25  184971  184968      24  184974
  184968      24  184974  184971      25  184980  184977      24  184983  184977
      24  184983  184980      25  184989  184986      24  184992  184986      24
  184992  184989      25  184998  184995      24  185001  184995      24  185001
  184998      25  185007  185004      24  185010  185004      24  185010  185007
      25  185016  185013      24  185019  185013      24  185019  185016      25
  185025  185022      24  185028  185022      24  185028  185025      25  185034
  185031      24  185037  185031      24  185037  185034      25  185043  185040
      24  185046  185040      24  185046  185043      25  185052  185049      24
  185055  185049      24  185055  185052      25  185061  185058      24  185064
  185058      24  185064  185061      25  185070  185067      24  185073  185067
      24  185073  185070      25  185079  185076      24  185082  185076      24
  185082  185079      25  185088  185085      24  185091  185085      24  185091
  185088      25  185097  185094      24  185100  185094      24  185100  185097
      25  185106  185103      24  185109  185103      24  185109  185106      25
  185115  185112      24  185118  185112      24  185118  185115      25  185124
  185121      24  185127  185121      24  185127  185124      25  185133  185130
      24  185136  185130      24  185136  185133      25  185142  185139      24
  185145  185139      24  185145  185142      25  185151  185148      24  185154
  185148      24  185154  185151      25  185160  185157      24  185163  185157
      24  185163  185160      25  185169  185166      24  185172  185166      24
  185172  185169      25  185178  185175      24  185181  185175      24  185181
  185178      25  185187  185184      24  185190  185184      24  185190  185187
      25  185196  185193      24  185199  185193      24  185199  185196      25
  185205  185202      24  185208  185202      24  185208  185205      25  185214
  185211      24  185217  185211      24  185217  185214      25  185223  185220
      24  185226  185220      24  185226  185223      25  185232  185229      24
  185235  185229      24  185235  185232      25  185241  185238      24  185244
  185238      24  185244  185241      25  185250  185247      24  185253  185247
      24  185253  185250      25  185259  185256      24  185262  185256      24
  185262  185259      25  185268  185265      24  185271  185265      24  185271
  185268      25  185277  185274      24  185280  185274      24  185280  185277
      25  185286  185283      24  185289  185283      24  185289  185286      25
  185295  185292      24  185298  185292      24  185298  185295      25  185304
  185301      24  185307  185301      24  185307  185304      25  185313  185310
      24  185316  185310      24  185316  185313      25  185322  185319      24
  185325  185319      24  185325  185322      25  185331  185328      24  185334
  185328      24  185334  185331      25  185340  185337      24  185343  185337
      24  185343  185340      25  185349  185346      24  185352  185346      24
  185352  185349      25  185358  185355      24  185361  185355      24  185361
  185358      25  185367  185364      24  185370  185364      24  185370  185367
      25  185376  185373      24  185379  185373      24  185379  185376      25
  185385  185382      24  185388  185382      24  185388  185385      25  185394
  185391      24  185397  185391      24  185397  185394      25  185403  185400
      24  185406  185400      24  185406  185403      25  185412  185409      24
  185415  185409      24  185415  185412      25  185421  185418      24  185424
  185418      24  185424  185421      25  185430  185427      24  185433  185427
      24  185433  185430      25  185439  185436      24  185442  185436      24
  185442  185439      25  185448  185445      24  185451  185445      24  185451
  185448      25  185457  185454      24  185460  185454      24  185460  185457
      25  185466  185463      24  185469  185463      24  185469  185466      25
  185475  185472      24  185478  185472      24  185478  185475      25  185484
  185481      24  185487  185481      24  185487  185484      25  185493  185490
      24  185496  185490      24  185496  185493      25  185502  185499      24
  185505  185499      24  185505  185502      25  185511  185508      24  185514
  185508      24  185514  185511      25  185520  185517      24  185523  185517
      24  185523  185520      25  185529  185526      24  185532  185526      24
  185532  185529      25  185538  185535      24  185541  185535      24  185541
  185538      25  185547  185544      24  185550  185544      24  185550  185547
      25  185556  185553      24  185559  185553      24  185559  185556      25
  185565  185562      24  185568  185562      24  185568  185565      25  185574
  185571      24  185577  185571      24  185577  185574      25  185583  185580
      24  185586  185580      24  185586  185583      25  185592  185589      24
  185595  185589      24  185595  185592      25  185601  185598      24  185604
  185598      24  185604  185601      25  185610  185607      24  185613  185607
      24  185613  185610      25  185619  185616      24  185622  185616      24
  185622  185619      25  185628  185625      24  185631  185625      24  185631
  185628      25  185637  185634      24  185640  185634      24  185640  185637
      25  185646  185643      24  185649  185643      24  185649  185646      25
  185655  185652      24  185658  185652      24  185658  185655      25  185664
  185661      24  185667  185661      24  185667  185664      25  185673  185670
      24  185676  185670      24  185676  185673      25  185682  185679      24
  185685  185679      24  185685  185682      25  185691  185688      24  185694
  185688      24  185694  185691      25  185700  185697      24  185703  185697
      24  185703  185700      25  185709  185706      24  185712  185706      24
  185712  185709      25  185718  185715      24  185721  185715      24  185721
  185718      25  185727  185724      24  185730  185724      24  185730  185727
      25  185736  185733      24  185739  185733      24  185739  185736      25
  185745  185742      24  185748  185742      24  185748  185745      25  185754
  185751      24  185757  185751      24  185757  185754      25  185763  185760
      24  185766  185760      24  185766  185763      25  185772  185769      24
  185775  185769      24  185775  185772      25  185781  185778      24  185784
  185778      24  185784  185781      25  185790  185787      24  185793  185787
      24  185793  185790      25  185799  185796      24  185802  185796      24
  185802  185799      25  185808  185805      24  185811  185805      24  185811
  185808      25  185817  185814      24  185820  185814      24  185820  185817
      25  185826  185823      24  185829  185823      24  185829  185826      25
  185835  185832      24  185838  185832      24  185838  185835      25  185844
  185841      24  185847  185841      24  185847  185844      25  185853  185850
      24  185856  185850      24  185856  185853      25  185862  185859      24
  185865  185859      24  185865  185862      25  185871  185868      24  185874
  185868      24  185874  185871      25  185880  185877      24  185883  185877
      24  185883  185880      25  185889  185886      24  185892  185886      24
  185892  185889      25  185898  185895      24  185901  185895      24  185901
  185898      25  185907  185904      24  185910  185904      24  185910  185907
      25  185916  185913      24  185919  185913      24  185919  185916      25
  185925  185922      24  185928  185922      24  185928  185925      25  185934
  185931      24  185937  185931      24  185937  185934      25  185943  185940
      24  185946  185940      24  185946  185943      25  185952  185949      24
  185955  185949      24  185955  185952      25  185961  185958      24  185964
  185958      24  185964  185961      25  185970  185967      24  185973  185967
      24  185973  185970      25  185979  185976      24  185982  185976      24
  185982  185979      25  185988  185985      24  185991  185985      24  185991
  185988      25  185997  185994      24  186000  185994      24  186000  185997
      25  186006  186003      24  186009  186003      24  186009  186006      25
  186015  186012      24  186018  186012      24  186018  186015      25  186024
  186021      24  186027  186021      24  186027  186024      25  186033  186030
      24  186036  186030      24  186036  186033      25  186042  186039      24
  186045  186039      24  186045  186042      25  186051  186048      24  186054
  186048      24  186054  186051      25  186060  186057      24  186063  186057
      24  186063  186060      25  186069  186066      24  186072  186066      24
  186072  186069      25  186078  186075      24  186081  186075      24  186081
  186078      25  186087  186084      24  186090  186084      24  186090  186087
      25  186096  186093      24  186099  186093      24  186099  186096      25
  186105  186102      24  186108  186102      24  186108  186105      25  186114
  186111      24  186117  186111      24  186117  186114      25  186123  186120
      24  186126  186120      24  186126  186123      25  186132  186129      24
  186135  186129      24  186135  186132      25  186141  186138      24  186144
  186138      24  186144  186141      25  186150  186147      24  186153  186147
      24  186153  186150      25  186159  186156      24  186162  186156      24
  186162  186159      25  186168  186165      24  186171  186165      24  186171
  186168      25  186177  186174      24  186180  186174      24  186180  186177
      25  186186  186183      24  186189  186183      24  186189  186186      25
  186195  186192      24  186198  186192      24  186198  186195      25  186204
  186201      24  186207  186201      24  186207  186204      25  186213  186210
      24  186216  186210      24  186216  186213      25  186222  186219      24
  186225  186219      24  186225  186222      25  186231  186228      24  186234
  186228      24  186234  186231      25  186240  186237      24  186243  186237
      24  186243  186240      25  186249  186246      24  186252  186246      24
  186252  186249      25  186258  186255      24  186261  186255      24  186261
  186258      25  186267  186264      24  186270  186264      24  186270  186267
      25  186276  186273      24  186279  186273      24  186279  186276      25
  186285  186282      24  186288  186282      24  186288  186285      25  186294
  186291      24  186297  186291      24  186297  186294      25  186303  186300
      24  186306  186300      24  186306  186303      25  186312  186309      24
  186315  186309      24  186315  186312      25  186321  186318      24  186324
  186318      24  186324  186321      25  186330  186327      24  186333  186327
      24  186333  186330      25  186339  186336      24  186342  186336      24
  186342  186339      25  186348  186345      24  186351  186345      24  186351
  186348      25  186357  186354      24  186360  186354      24  186360  186357
      25  186366  186363      24  186369  186363      24  186369  186366      25
  186375  186372      24  186378  186372      24  186378  186375      25  186384
  186381      24  186387  186381      24  186387  186384      25  186393  186390
      24  186396  186390      24  186396  186393      25  186402  186399      24
  186405  186399      24  186405  186402      25  186411  186408      24  186414
  186408      24  186414  186411      25  186420  186417      24  186423  186417
      24  186423  186420      25  186429  186426      24  186432  186426      24
  186432  186429      25  186438  186435      24  186441  186435      24  186441
  186438      25  186447  186444      24  186450  186444      24  186450  186447
      25  186456  186453      24  186459  186453      24  186459  186456      25
  186465  186462      24  186468  186462      24  186468  186465      25  186474
  186471      24  186477  186471      24  186477  186474      25  186483  186480
      24  186486  186480      24  186486  186483      25  186492  186489      24
  186495  186489      24  186495  186492      25  186501  186498      24  186504
  186498      24  186504  186501      25  186510  186507      24  186513  186507
      24  186513  186510      25  186519  186516      24  186522  186516      24
  186522  186519      25  186528  186525      24  186531  186525      24  186531
  186528      25  186537  186534      24  186540  186534      24  186540  186537
      25  186546  186543      24  186549  186543      24  186549  186546      25
  186555  186552      24  186558  186552      24  186558  186555      25  186564
  186561      24  186567  186561      24  186567  186564      25  186573  186570
      24  186576  186570      24  186576  186573      25  186582  186579      24
  186585  186579      24  186585  186582      25  186591  186588      24  186594
  186588      24  186594  186591      25  186600  186597      24  186603  186597
      24  186603  186600      25  186609  186606      24  186612  186606      24
  186612  186609      25  186618  186615      24  186621  186615      24  186621
  186618      25  186627  186624      24  186630  186624      24  186630  186627
      25  186636  186633      24  186639  186633      24  186639  186636      25
  186645  186642      24  186648  186642      24  186648  186645      25  186654
  186651      24  186657  186651      24  186657  186654      25  186663  186660
      24  186666  186660      24  186666  186663      25  186672  186669      24
  186675  186669      24  186675  186672      25  186681  186678      24  186684
  186678      24  186684  186681      25  186690  186687      24  186693  186687
      24  186693  186690      25  186699  186696      24  186702  186696      24
  186702  186699      25  186708  186705      24  186711  186705      24  186711
  186708      25  186717  186714      24  186720  186714      24  186720  186717
      25  186726  186723      24  186729  186723      24  186729  186726      25
  186735  186732      24  186738  186732      24  186738  186735      25  186744
  186741      24  186747  186741      24  186747  186744      25  186753  186750
      24  186756  186750      24  186756  186753      25  186762  186759      24
  186765  186759      24  186765  186762      25  186771  186768      24  186774
  186768      24  186774  186771      25  186780  186777      24  186783  186777
      24  186783  186780      25  186789  186786      24  186792  186786      24
  186792  186789      25  186798  186795      24  186801  186795      24  186801
  186798      25  186807  186804      24  186810  186804      24  186810  186807
      25  186816  186813      24  186819  186813      24  186819  186816      25
  186825  186822      24  186828  186822      24  186828  186825      25  186834
  186831      24  186837  186831      24  186837  186834      25  186843  186840
      24  186846  186840      24  186846  186843      25  186852  186849      24
  186855  186849      24  186855  186852      25  186861  186858      24  186864
  186858      24  186864  186861      25  186870  186867      24  186873  186867
      24  186873  186870      25  186879  186876      24  186882  186876      24
  186882  186879      25  186888  186885      24  186891  186885      24  186891
  186888      25  186897  186894      24  186900  186894      24  186900  186897
      25  186906  186903      24  186909  186903      24  186909  186906      25
  186915  186912      24  186918  186912      24  186918  186915      25  186924
  186921      24  186927  186921      24  186927  186924      25  186933  186930
      24  186936  186930      24  186936  186933      25  186942  186939      24
  186945  186939      24  186945  186942      25  186951  186948      24  186954
  186948      24  186954  186951      25  186960  186957      24  186963  186957
      24  186963  186960      25  186969  186966      24  186972  186966      24
  186972  186969      25  186978  186975      24  186981  186975      24  186981
  186978      25  186987  186984      24  186990  186984      24  186990  186987
      25  186996  186993      24  186999  186993      24  186999  186996      25
  187005  187002      24  187008  187002      24  187008  187005      25  187014
  187011      24  187017  187011      24  187017  187014      25  187023  187020
      24  187026  187020      24  187026  187023      25  187032  187029      24
  187035  187029      24  187035  187032      25  187041  187038      24  187044
  187038      24  187044  187041      25  187050  187047      24  187053  187047
      24  187053  187050      25  187059  187056      24  187062  187056      24
  187062  187059      25  187068  187065      24  187071  187065      24  187071
  187068      25  187077  187074      24  187080  187074      24  187080  187077
      25  187086  187083      24  187089  187083      24  187089  187086      25
  187095  187092      24  187098  187092      24  187098  187095      25  187104
  187101      24  187107  187101      24  187107  187104      25  187113  187110
      24  187116  187110      24  187116  187113      25  187122  187119      24
  187125  187119      24  187125  187122      25  187131  187128      24  187134
  187128      24  187134  187131      25  187140  187137      24  187143  187137
      24  187143  187140      25  187149  187146      24  187152  187146      24
  187152  187149      25  187158  187155      24  187161  187155      24  187161
  187158      25  187167  187164      24  187170  187164      24  187170  187167
      25  187176  187173      24  187179  187173      24  187179  187176      25
  187185  187182      24  187188  187182      24  187188  187185      25  187194
  187191      24  187197  187191      24  187197  187194      25  187203  187200
      24  187206  187200      24  187206  187203      25  187212  187209      24
  187215  187209      24  187215  187212      25  187221  187218      24  187224
  187218      24  187224  187221      25  187230  187227      24  187233  187227
      24  187233  187230      25  187239  187236      24  187242  187236      24
  187242  187239      25  187248  187245      24  187251  187245      24  187251
  187248      25  187257  187254      24  187260  187254      24  187260  187257
      25  187266  187263      24  187269  187263      24  187269  187266      25
  187275  187272      24  187278  187272      24  187278  187275      25  187284
  187281      24  187287  187281      24  187287  187284      25  187293  187290
      24  187296  187290      24  187296  187293      25  187302  187299      24
  187305  187299      24  187305  187302      25  187311  187308      24  187314
  187308      24  187314  187311      25  187320  187317      24  187323  187317
      24  187323  187320      25  187329  187326      24  187332  187326      24
  187332  187329      25  187338  187335      24  187341  187335      24  187341
  187338      25  187347  187344      24  187350  187344      24  187350  187347
      25  187356  187353      24  187359  187353      24  187359  187356      25
  187365  187362      24  187368  187362      24  187368  187365      25  187374
  187371      24  187377  187371      24  187377  187374      25  187383  187380
      24  187386  187380      24  187386  187383      25  187392  187389      24
  187395  187389      24  187395  187392      25  187401  187398      24  187404
  187398      24  187404  187401      25  187410  187407      24  187413  187407
      24  187413  187410      25  187419  187416      24  187422  187416      24
  187422  187419      25  187428  187425      24  187431  187425      24  187431
  187428      25  187437  187434      24  187440  187434      24  187440  187437
      25  187446  187443      24  187449  187443      24  187449  187446      25
  187455  187452      24  187458  187452      24  187458  187455      25  187464
  187461      24  187467  187461      24  187467  187464      25  187473  187470
      24  187476  187470      24  187476  187473      25  187482  187479      24
  187485  187479      24  187485  187482      25  187491  187488      24  187494
  187488      24  187494  187491      25  187500  187497      24  187503  187497
      24  187503  187500      25  187509  187506      24  187512  187506      24
  187512  187509      25  187518  187515      24  187521  187515      24  187521
  187518      25  187527  187524      24  187530  187524      24  187530  187527
      25  187536  187533      24  187539  187533      24  187539  187536      25
  187545  187542      24  187548  187542      24  187548  187545      25  187554
  187551      24  187557  187551      24  187557  187554      25  187563  187560
      24  187566  187560      24  187566  187563      25  187572  187569      24
  187575  187569      24  187575  187572      25  187581  187578      24  187584
  187578      24  187584  187581      25  187590  187587      24  187593  187587
      24  187593  187590      25  187599  187596      24  187602  187596      24
  187602  187599      25  187608  187605      24  187611  187605      24  187611
  187608      25  187617  187614      24  187620  187614      24  187620  187617
      25  187626  187623      24  187629  187623      24  187629  187626      25
  187635  187632      24  187638  187632      24  187638  187635      25  187644
  187641      24  187647  187641      24  187647  187644      25  187653  187650
      24  187656  187650      24  187656  187653      25  187662  187659      24
  187665  187659      24  187665  187662      25  187671  187668      24  187674
  187668      24  187674  187671      25  187680  187677      24  187683  187677
      24  187683  187680      25  187689  187686      24  187692  187686      24
  187692  187689      25  187698  187695      24  187701  187695      24  187701
  187698      25  187707  187704      24  187710  187704      24  187710  187707
      25  187716  187713      24  187719  187713      24  187719  187716      25
  187725  187722      24  187728  187722      24  187728  187725      25  187734
  187731      24  187737  187731      24  187737  187734      25  187743  187740
      24  187746  187740      24  187746  187743      25  187752  187749      24
  187755  187749      24  187755  187752      25  187761  187758      24  187764
  187758      24  187764  187761      25  187770  187767      24  187773  187767
      24  187773  187770      25  187779  187776      24  187782  187776      24
  187782  187779      25  187788  187785      24  187791  187785      24  187791
  187788      25  187797  187794      24  187800  187794      24  187800  187797
      25  187806  187803      24  187809  187803      24  187809  187806      25
  187815  187812      24  187818  187812      24  187818  187815      25  187824
  187821      24  187827  187821      24  187827  187824      25  187833  187830
      24  187836  187830      24  187836  187833      25  187842  187839      24
  187845  187839      24  187845  187842      25  187851  187848      24  187854
  187848      24  187854  187851      25  187860  187857      24  187863  187857
      24  187863  187860      25  187869  187866      24  187872  187866      24
  187872  187869      25  187878  187875      24  187881  187875      24  187881
  187878      25  187887  187884      24  187890  187884      24  187890  187887
      25  187896  187893      24  187899  187893      24  187899  187896      25
  187905  187902      24  187908  187902      24  187908  187905      25  187914
  187911      24  187917  187911      24  187917  187914      25  187923  187920
      24  187926  187920      24  187926  187923      25  187932  187929      24
  187935  187929      24  187935  187932      25  187941  187938      24  187944
  187938      24  187944  187941      25  187950  187947      24  187953  187947
      24  187953  187950      25  187959  187956      24  187962  187956      24
  187962  187959      25  187968  187965      24  187971  187965      24  187971
  187968      25  187977  187974      24  187980  187974      24  187980  187977
      25  187986  187983      24  187989  187983      24  187989  187986      25
  187995  187992      24  187998  187992      24  187998  187995      25  188004
  188001      24  188007  188001      24  188007  188004      25  188013  188010
      24  188016  188010      24  188016  188013      25  188022  188019      24
  188025  188019      24  188025  188022      25  188031  188028      24  188034
  188028      24  188034  188031      25  188040  188037      24  188043  188037
      24  188043  188040      25  188049  188046      24  188052  188046      24
  188052  188049      25  188058  188055      24  188061  188055      24  188061
  188058      25  188067  188064      24  188070  188064      24  188070  188067
      25  188076  188073      24  188079  188073      24  188079  188076      25
  188085  188082      24  188088  188082      24  188088  188085      25  188094
  188091      24  188097  188091      24  188097  188094      25  188103  188100
      24  188106  188100      24  188106  188103      25  188112  188109      24
  188115  188109      24  188115  188112      25  188121  188118      24  188124
  188118      24  188124  188121      25  188130  188127      24  188133  188127
      24  188133  188130      25  188139  188136      24  188142  188136      24
  188142  188139      25  188148  188145      24  188151  188145      24  188151
  188148      25  188157  188154      24  188160  188154      24  188160  188157
      25  188166  188163      24  188169  188163      24  188169  188166      25
  188175  188172      24  188178  188172      24  188178  188175      25  188184
  188181      24  188187  188181      24  188187  188184      25  188193  188190
      24  188196  188190      24  188196  188193      25  188202  188199      24
  188205  188199      24  188205  188202      25  188211  188208      24  188214
  188208      24  188214  188211      25  188220  188217      24  188223  188217
      24  188223  188220      25  188229  188226      24  188232  188226      24
  188232  188229      25  188238  188235      24  188241  188235      24  188241
  188238      25  188247  188244      24  188250  188244      24  188250  188247
      25  188256  188253      24  188259  188253      24  188259  188256      25
  188265  188262      24  188268  188262      24  188268  188265      25  188274
  188271      24  188277  188271      24  188277  188274      25  188283  188280
      24  188286  188280      24  188286  188283      25  188292  188289      24
  188295  188289      24  188295  188292      25  188301  188298      24  188304
  188298      24  188304  188301      25  188310  188307      24  188313  188307
      24  188313  188310      25  188319  188316      24  188322  188316      24
  188322  188319      25  188328  188325      24  188331  188325      24  188331
  188328      25  188337  188334      24  188340  188334      24  188340  188337
      25  188346  188343      24  188349  188343      24  188349  188346      25
  188355  188352      24  188358  188352      24  188358  188355      25  188364
  188361      24  188367  188361      24  188367  188364      25  188373  188370
      24  188376  188370      24  188376  188373      25  188382  188379      24
  188385  188379      24  188385  188382      25  188391  188388      24  188394
  188388      24  188394  188391      25  188400  188397      24  188403  188397
      24  188403  188400      25  188409  188406      24  188412  188406      24
  188412  188409      25  188418  188415      24  188421  188415      24  188421
  188418      25  188427  188424      24  188430  188424      24  188430  188427
      25  188436  188433      24  188439  188433      24  188439  188436      25
  188445  188442      24  188448  188442      24  188448  188445      25  188454
  188451      24  188457  188451      24  188457  188454      25  188463  188460
      24  188466  188460      24  188466  188463      25  188472  188469      24
  188475  188469      24  188475  188472      25  188481  188478      24  188484
  188478      24  188484  188481      25  188490  188487      24  188493  188487
      24  188493  188490      25  188499  188496      24  188502  188496      24
  188502  188499      25  188508  188505      24  188511  188505      24  188511
  188508      25  188517  188514      24  188520  188514      24  188520  188517
      25  188526  188523      24  188529  188523      24  188529  188526      25
  188535  188532      24  188538  188532      24  188538  188535      25  188544
  188541      24  188547  188541      24  188547  188544      25  188553  188550
      24  188556  188550      24  188556  188553      25  188562  188559      24
  188565  188559      24  188565  188562      25  188571  188568      24  188574
  188568      24  188574  188571      25  188580  188577      24  188583  188577
      24  188583  188580      25  188589  188586      24  188592  188586      24
  188592  188589      25  188598  188595      24  188601  188595      24  188601
  188598      25  188607  188604      24  188610  188604      24  188610  188607
      25  188616  188613      24  188619  188613      24  188619  188616      25
  188625  188622      24  188628  188622      24  188628  188625      25  188634
  188631      24  188637  188631      24  188637  188634      25  188643  188640
      24  188646  188640      24  188646  188643      25  188652  188649      24
  188655  188649      24  188655  188652      25  188661  188658      24  188664
  188658      24  188664  188661      25  188670  188667      24  188673  188667
      24  188673  188670      25  188679  188676      24  188682  188676      24
  188682  188679      25  188688  188685      24  188691  188685      24  188691
  188688      25  188697  188694      24  188700  188694      24  188700  188697
      25  188706  188703      24  188709  188703      24  188709  188706      25
  188715  188712      24  188718  188712      24  188718  188715      25  188724
  188721      24  188727  188721      24  188727  188724      25  188733  188730
      24  188736  188730      24  188736  188733      25  188742  188739      24
  188745  188739      24  188745  188742      25  188751  188748      24  188754
  188748      24  188754  188751      25  188760  188757      24  188763  188757
      24  188763  188760      25  188769  188766      24  188772  188766      24
  188772  188769      25  188778  188775      24  188781  188775      24  188781
  188778      25  188787  188784      24  188790  188784      24  188790  188787
      25  188796  188793      24  188799  188793      24  188799  188796      25
  188805  188802      24  188808  188802      24  188808  188805      25  188814
  188811      24  188817  188811      24  188817  188814      25  188823  188820
      24  188826  188820      24  188826  188823      25  188832  188829      24
  188835  188829      24  188835  188832      25  188841  188838      24  188844
  188838      24  188844  188841      25  188850  188847      24  188853  188847
      24  188853  188850      25  188859  188856      24  188862  188856      24
  188862  188859      25  188868  188865      24  188871  188865      24  188871
  188868      25  188877  188874      24  188880  188874      24  188880  188877
      25  188886  188883      24  188889  188883      24  188889  188886      25
  188895  188892      24  188898  188892      24  188898  188895      25  188904
  188901      24  188907  188901      24  188907  188904      25  188913  188910
      24  188916  188910      24  188916  188913      25  188922  188919      24
  188925  188919      24  188925  188922      25  188931  188928      24  188934
  188928      24  188934  188931      25  188940  188937      24  188943  188937
      24  188943  188940      25  188949  188946      24  188952  188946      24
  188952  188949      25  188958  188955      24  188961  188955      24  188961
  188958      25  188967  188964      24  188970  188964      24  188970  188967
      25  188976  188973      24  188979  188973      24  188979  188976      25
  188985  188982      24  188988  188982      24  188988  188985      25  188994
  188991      24  188997  188991      24  188997  188994      25  189003  189000
      24  189006  189000      24  189006  189003      25  189012  189009      24
  189015  189009      24  189015  189012      25  189021  189018      24  189024
  189018      24  189024  189021      25  189030  189027      24  189033  189027
      24  189033  189030      25  189039  189036      24  189042  189036      24
  189042  189039      25  189048  189045      24  189051  189045      24  189051
  189048      25  189057  189054      24  189060  189054      24  189060  189057
      25  189066  189063      24  189069  189063      24  189069  189066      25
  189075  189072      24  189078  189072      24  189078  189075      25  189084
  189081      24  189087  189081      24  189087  189084      25  189093  189090
      24  189096  189090      24  189096  189093      25  189102  189099      24
  189105  189099      24  189105  189102      25  189111  189108      24  189114
  189108      24  189114  189111      25  189120  189117      24  189123  189117
      24  189123  189120      25  189129  189126      24  189132  189126      24
  189132  189129      25  189138  189135      24  189141  189135      24  189141
  189138      25  189147  189144      24  189150  189144      24  189150  189147
      25  189156  189153      24  189159  189153      24  189159  189156      25
  189165  189162      24  189168  189162      24  189168  189165      25  189174
  189171      24  189177  189171      24  189177  189174      25  189183  189180
      24  189186  189180      24  189186  189183      25  189192  189189      24
  189195  189189      24  189195  189192      25  189201  189198      24  189204
  189198      24  189204  189201      25  189210  189207      24  189213  189207
      24  189213  189210      25  189219  189216      24  189222  189216      24
  189222  189219      25  189228  189225      24  189231  189225      24  189231
  189228      25  189237  189234      24  189240  189234      24  189240  189237
      25  189246  189243      24  189249  189243      24  189249  189246      25
  189255  189252      24  189258  189252      24  189258  189255      25  189264
  189261      24  189267  189261      24  189267  189264      25  189273  189270
      24  189276  189270      24  189276  189273      25  189282  189279      24
  189285  189279      24  189285  189282      25  189291  189288      24  189294
  189288      24  189294  189291      25  189300  189297      24  189303  189297
      24  189303  189300      25  189309  189306      24  189312  189306      24
  189312  189309      25  189318  189315      24  189321  189315      24  189321
  189318      25  189327  189324      24  189330  189324      24  189330  189327
      25  189336  189333      24  189339  189333      24  189339  189336      25
  189345  189342      24  189348  189342      24  189348  189345      25  189354
  189351      24  189357  189351      24  189357  189354      25  189363  189360
      24  189366  189360      24  189366  189363      25  189372  189369      24
  189375  189369      24  189375  189372      25  189381  189378      24  189384
  189378      24  189384  189381      25  189390  189387      24  189393  189387
      24  189393  189390      25  189399  189396      24  189402  189396      24
  189402  189399      25  189408  189405      24  189411  189405      24  189411
  189408      25  189417  189414      24  189420  189414      24  189420  189417
      25  189426  189423      24  189429  189423      24  189429  189426      25
  189435  189432      24  189438  189432      24  189438  189435      25  189444
  189441      24  189447  189441      24  189447  189444      25  189453  189450
      24  189456  189450      24  189456  189453      25  189462  189459      24
  189465  189459      24  189465  189462      25  189471  189468      24  189474
  189468      24  189474  189471      25  189480  189477      24  189483  189477
      24  189483  189480      25  189489  189486      24  189492  189486      24
  189492  189489      25  189498  189495      24  189501  189495      24  189501
  189498      25  189507  189504      24  189510  189504      24  189510  189507
      25  189516  189513      24  189519  189513      24  189519  189516      25
  189525  189522      24  189528  189522      24  189528  189525      25  189534
  189531      24  189537  189531      24  189537  189534      25  189543  189540
      24  189546  189540      24  189546  189543      25  189552  189549      24
  189555  189549      24  189555  189552      25  189561  189558      24  189564
  189558      24  189564  189561      25  189570  189567      24  189573  189567
      24  189573  189570      25  189579  189576      24  189582  189576      24
  189582  189579      25  189588  189585      24  189591  189585      24  189591
  189588      25  189597  189594      24  189600  189594      24  189600  189597
      25  189606  189603      24  189609  189603      24  189609  189606      25
  189615  189612      24  189618  189612      24  189618  189615      25  189624
  189621      24  189627  189621      24  189627  189624      25  189633  189630
      24  189636  189630      24  189636  189633      25  189642  189639      24
  189645  189639      24  189645  189642      25  189651  189648      24  189654
  189648      24  189654  189651      25  189660  189657      24  189663  189657
      24  189663  189660      25  189669  189666      24  189672  189666      24
  189672  189669      25  189678  189675      24  189681  189675      24  189681
  189678      25  189687  189684      24  189690  189684      24  189690  189687
      25  189696  189693      24  189699  189693      24  189699  189696      25
  189705  189702      24  189708  189702      24  189708  189705      25  189714
  189711      24  189717  189711      24  189717  189714      25  189723  189720
      24  189726  189720      24  189726  189723      25  189732  189729      24
  189735  189729      24  189735  189732      25  189741  189738      24  189744
  189738      24  189744  189741      25  189750  189747      24  189753  189747
      24  189753  189750      25  189759  189756      24  189762  189756      24
  189762  189759      25  189768  189765      24  189771  189765      24  189771
  189768      25  189777  189774      24  189780  189774      24  189780  189777
      25  189786  189783      24  189789  189783      24  189789  189786      25
  189795  189792      24  189798  189792      24  189798  189795      25  189804
  189801      24  189807  189801      24  189807  189804      25  189813  189810
      24  189816  189810      24  189816  189813      25  189822  189819      24
  189825  189819      24  189825  189822      25  189831  189828      24  189834
  189828      24  189834  189831      25  189840  189837      24  189843  189837
      24  189843  189840      25  189849  189846      24  189852  189846      24
  189852  189849      25  189858  189855      24  189861  189855      24  189861
  189858      25  189867  189864      24  189870  189864      24  189870  189867
      25  189876  189873      24  189879  189873      24  189879  189876      25
  189885  189882      24  189888  189882      24  189888  189885      25  189894
  189891      24  189897  189891      24  189897  189894      25  189903  189900
      24  189906  189900      24  189906  189903      25  189912  189909      24
  189915  189909      24  189915  189912      25  189921  189918      24  189924
  189918      24  189924  189921      25  189930  189927      24  189933  189927
      24  189933  189930      25  189939  189936      24  189942  189936      24
  189942  189939      25  189948  189945      24  189951  189945      24  189951
  189948      25  189957  189954      24  189960  189954      24  189960  189957
      25  189966  189963      24  189969  189963      24  189969  189966      25
  189975  189972      24  189978  189972      24  189978  189975      25  189984
  189981      24  189987  189981      24  189987  189984      25  189993  189990
      24  189996  189990      24  189996  189993      25  190002  189999      24
  190005  189999      24  190005  190002      25  190011  190008      24  190014
  190008      24  190014  190011      25  190020  190017      24  190023  190017
      24  190023  190020      25  190029  190026      24  190032  190026      24
  190032  190029      25  190038  190035      24  190041  190035      24  190041
  190038      25  190047  190044      24  190050  190044      24  190050  190047
      25  190056  190053      24  190059  190053      24  190059  190056      25
  190065  190062      24  190068  190062      24  190068  190065      25  190074
  190071      24  190077  190071      24  190077  190074      25  190083  190080
      24  190086  190080      24  190086  190083      25  190092  190089      24
  190095  190089      24  190095  190092      25  190101  190098      24  190104
  190098      24  190104  190101      25  190110  190107      24  190113  190107
      24  190113  190110      25  190119  190116      24  190122  190116      24
  190122  190119      25  190128  190125      24  190131  190125      24  190131
  190128      25  190137  190134      24  190140  190134      24  190140  190137
      25  190146  190143      24  190149  190143      24  190149  190146      25
  190155  190152      24  190158  190152      24  190158  190155      25  190164
  190161      24  190167  190161      24  190167  190164      25  190173  190170
      24  190176  190170      24  190176  190173      25  190182  190179      24
  190185  190179      24  190185  190182      25  190191  190188      24  190194
  190188      24  190194  190191      25  190200  190197      24  190203  190197
      24  190203  190200      25  190209  190206      24  190212  190206      24
  190212  190209      25  190218  190215      24  190221  190215      24  190221
  190218      25  190227  190224      24  190230  190224      24  190230  190227
      25  190236  190233      24  190239  190233      24  190239  190236      25
  190245  190242      24  190248  190242      24  190248  190245      25  190254
  190251      24  190257  190251      24  190257  190254      25  190263  190260
      24  190266  190260      24  190266  190263      25  190272  190269      24
  190275  190269      24  190275  190272      25  190281  190278      24  190284
  190278      24  190284  190281      25  190290  190287      24  190293  190287
      24  190293  190290      25  190299  190296      24  190302  190296      24
  190302  190299      25  190308  190305      24  190311  190305      24  190311
  190308      25  190317  190314      24  190320  190314      24  190320  190317
      25  190326  190323      24  190329  190323      24  190329  190326      25
  190335  190332      24  190338  190332      24  190338  190335      25  190344
  190341      24  190347  190341      24  190347  190344      25  190353  190350
      24  190356  190350      24  190356  190353      25  190362  190359      24
  190365  190359      24  190365  190362      25  190371  190368      24  190374
  190368      24  190374  190371      25  190380  190377      24  190383  190377
      24  190383  190380      25  190389  190386      24  190392  190386      24
  190392  190389      25  190398  190395      24  190401  190395      24  190401
  190398      25  190407  190404      24  190410  190404      24  190410  190407
      25  190416  190413      24  190419  190413      24  190419  190416      25
  190425  190422      24  190428  190422      24  190428  190425      25  190434
  190431      24  190437  190431      24  190437  190434      25  190443  190440
      24  190446  190440      24  190446  190443      25  190452  190449      24
  190455  190449      24  190455  190452      25  190461  190458      24  190464
  190458      24  190464  190461      25  190470  190467      24  190473  190467
      24  190473  190470      25  190479  190476      24  190482  190476      24
  190482  190479      25  190488  190485      24  190491  190485      24  190491
  190488      25  190497  190494      24  190500  190494      24  190500  190497
      25  190506  190503      24  190509  190503      24  190509  190506      25
  190515  190512      24  190518  190512      24  190518  190515      25  190524
  190521      24  190527  190521      24  190527  190524      25  190533  190530
      24  190536  190530      24  190536  190533      25  190542  190539      24
  190545  190539      24  190545  190542      25  190551  190548      24  190554
  190548      24  190554  190551      25  190560  190557      24  190563  190557
      24  190563  190560      25  190569  190566      24  190572  190566      24
  190572  190569      25  190578  190575      24  190581  190575      24  190581
  190578      25  190587  190584      24  190590  190584      24  190590  190587
      25  190596  190593      24  190599  190593      24  190599  190596      25
  190605  190602      24  190608  190602      24  190608  190605      25  190614
  190611      24  190617  190611      24  190617  190614      25  190623  190620
      24  190626  190620      24  190626  190623      25  190632  190629      24
  190635  190629      24  190635  190632      25  190641  190638      24  190644
  190638      24  190644  190641      25  190650  190647      24  190653  190647
      24  190653  190650      25  190659  190656      24  190662  190656      24
  190662  190659      25  190668  190665      24  190671  190665      24  190671
  190668      25  190677  190674      24  190680  190674      24  190680  190677
      25  190686  190683      24  190689  190683      24  190689  190686      25
  190695  190692      24  190698  190692      24  190698  190695      25  190704
  190701      24  190707  190701      24  190707  190704      25  190713  190710
      24  190716  190710      24  190716  190713      25  190722  190719      24
  190725  190719      24  190725  190722      25  190731  190728      24  190734
  190728      24  190734  190731      25  190740  190737      24  190743  190737
      24  190743  190740      25  190749  190746      24  190752  190746      24
  190752  190749      25  190758  190755      24  190761  190755      24  190761
  190758      25  190767  190764      24  190770  190764      24  190770  190767
      25  190776  190773      24  190779  190773      24  190779  190776      25
  190785  190782      24  190788  190782      24  190788  190785      25  190794
  190791      24  190797  190791      24  190797  190794      25  190803  190800
      24  190806  190800      24  190806  190803      25  190812  190809      24
  190815  190809      24  190815  190812      25  190821  190818      24  190824
  190818      24  190824  190821      25  190830  190827      24  190833  190827
      24  190833  190830      25  190839  190836      24  190842  190836      24
  190842  190839      25  190848  190845      24  190851  190845      24  190851
  190848      25  190857  190854      24  190860  190854      24  190860  190857
      25  190866  190863      24  190869  190863      24  190869  190866      25
  190875  190872      24  190878  190872      24  190878  190875      25  190884
  190881      24  190887  190881      24  190887  190884      25  190893  190890
      24  190896  190890      24  190896  190893      25  190902  190899      24
  190905  190899      24  190905  190902      25  190911  190908      24  190914
  190908      24  190914  190911      25  190920  190917      24  190923  190917
      24  190923  190920      25  190929  190926      24  190932  190926      24
  190932  190929      25  190938  190935      24  190941  190935      24  190941
  190938      25  190947  190944      24  190950  190944      24  190950  190947
      25  190956  190953      24  190959  190953      24  190959  190956      25
  190965  190962      24  190968  190962      24  190968  190965      25  190974
  190971      24  190977  190971      24  190977  190974      25  190983  190980
      24  190986  190980      24  190986  190983      25  190992  190989      24
  190995  190989      24  190995  190992      25  191001  190998      24  191004
  190998      24  191004  191001      25  191010  191007      24  191013  191007
      24  191013  191010      25  191019  191016      24  191022  191016      24
  191022  191019      25  191028  191025      24  191031  191025      24  191031
  191028      25  191037  191034      24  191040  191034      24  191040  191037
      25  191046  191043      24  191049  191043      24  191049  191046      25
  191055  191052      24  191058  191052      24  191058  191055      25  191064
  191061      24  191067  191061      24  191067  191064      25  191073  191070
      24  191076  191070      24  191076  191073      25  191082  191079      24
  191085  191079      24  191085  191082      25  191091  191088      24  191094
  191088      24  191094  191091      25  191100  191097      24  191103  191097
      24  191103  191100      25  191109  191106      24  191112  191106      24
  191112  191109      25  191118  191115      24  191121  191115      24  191121
  191118      25  191127  191124      24  191130  191124      24  191130  191127
      25  191136  191133      24  191139  191133      24  191139  191136      25
  191145  191142      24  191148  191142      24  191148  191145      25  191154
  191151      24  191157  191151      24  191157  191154      25  191163  191160
      24  191166  191160      24  191166  191163      25  191172  191169      24
  191175  191169      24  191175  191172      25  191181  191178      24  191184
  191178      24  191184  191181      25  191190  191187      24  191193  191187
      24  191193  191190      25  191199  191196      24  191202  191196      24
  191202  191199      25  191208  191205      24  191211  191205      24  191211
  191208      25  191217  191214      24  191220  191214      24  191220  191217
      25  191226  191223      24  191229  191223      24  191229  191226      25
  191235  191232      24  191238  191232      24  191238  191235      25  191244
  191241      24  191247  191241      24  191247  191244      25  191253  191250
      24  191256  191250      24  191256  191253      25  191262  191259      24
  191265  191259      24  191265  191262      25  191271  191268      24  191274
  191268      24  191274  191271      25  191280  191277      24  191283  191277
      24  191283  191280      25  191289  191286      24  191292  191286      24
  191292  191289      25  191298  191295      24  191301  191295      24  191301
  191298      25  191307  191304      24  191310  191304      24  191310  191307
      25  191316  191313      24  191319  191313      24  191319  191316      25
  191325  191322      24  191328  191322      24  191328  191325      25  191334
  191331      24  191337  191331      24  191337  191334      25  191343  191340
      24  191346  191340      24  191346  191343      25  191352  191349      24
  191355  191349      24  191355  191352      25  191361  191358      24  191364
  191358      24  191364  191361      25  191370  191367      24  191373  191367
      24  191373  191370      25  191379  191376      24  191382  191376      24
  191382  191379      25  191388  191385      24  191391  191385      24  191391
  191388      25  191397  191394      24  191400  191394      24  191400  191397
      25  191406  191403      24  191409  191403      24  191409  191406      25
  191415  191412      24  191418  191412      24  191418  191415      25  191424
  191421      24  191427  191421      24  191427  191424      25  191433  191430
      24  191436  191430      24  191436  191433      25  191442  191439      24
  191445  191439      24  191445  191442      25  191451  191448      24  191454
  191448      24  191454  191451      25  191460  191457      24  191463  191457
      24  191463  191460      25  191469  191466      24  191472  191466      24
  191472  191469      25  191478  191475      24  191481  191475      24  191481
  191478      25  191487  191484      24  191490  191484      24  191490  191487
      25  191496  191493      24  191499  191493      24  191499  191496      25
  191505  191502      24  191508  191502      24  191508  191505      25  191514
  191511      24  191517  191511      24  191517  191514      25  191523  191520
      24  191526  191520      24  191526  191523      25  191532  191529      24
  191535  191529      24  191535  191532      25  191541  191538      24  191544
  191538      24  191544  191541      25  191550  191547      24  191553  191547
      24  191553  191550      25  191559  191556      24  191562  191556      24
  191562  191559      25  191568  191565      24  191571  191565      24  191571
  191568      25  191577  191574      24  191580  191574      24  191580  191577
      25  191586  191583      24  191589  191583      24  191589  191586      25
  191595  191592      24  191598  191592      24  191598  191595      25  191604
  191601      24  191607  191601      24  191607  191604      25  191613  191610
      24  191616  191610      24  191616  191613      25  191622  191619      24
  191625  191619      24  191625  191622      25  191631  191628      24  191634
  191628      24  191634  191631      25  191640  191637      24  191643  191637
      24  191643  191640      25  191649  191646      24  191652  191646      24
  191652  191649      25  191658  191655      24  191661  191655      24  191661
  191658      25  191667  191664      24  191670  191664      24  191670  191667
      25  191676  191673      24  191679  191673      24  191679  191676      25
  191685  191682      24  191688  191682      24  191688  191685      25  191694
  191691      24  191697  191691      24  191697  191694      25  191703  191700
      24  191706  191700      24  191706  191703      25  191712  191709      24
  191715  191709      24  191715  191712      25  191721  191718      24  191724
  191718      24  191724  191721      25  191730  191727      24  191733  191727
      24  191733  191730      25  191739  191736      24  191742  191736      24
  191742  191739      25  191748  191745      24  191751  191745      24  191751
  191748      25  191757  191754      24  191760  191754      24  191760  191757
      25  191766  191763      24  191769  191763      24  191769  191766      25
  191775  191772      24  191778  191772      24  191778  191775      25  191784
  191781      24  191787  191781      24  191787  191784      25  191793  191790
      24  191796  191790      24  191796  191793      25  191802  191799      24
  191805  191799      24  191805  191802      25  191811  191808      24  191814
  191808      24  191814  191811      25  191820  191817      24  191823  191817
      24  191823  191820      25  191829  191826      24  191832  191826      24
  191832  191829      25  191838  191835      24  191841  191835      24  191841
  191838      25  191847  191844      24  191850  191844      24  191850  191847
      25  191856  191853      24  191859  191853      24  191859  191856      25
  191865  191862      24  191868  191862      24  191868  191865      25  191874
  191871      24  191877  191871      24  191877  191874      25  191883  191880
      24  191886  191880      24  191886  191883      25  191892  191889      24
  191895  191889      24  191895  191892      25  191901  191898      24  191904
  191898      24  191904  191901      25  191910  191907      24  191913  191907
      24  191913  191910      25  191919  191916      24  191922  191916      24
  191922  191919      25  191928  191925      24  191931  191925      24  191931
  191928      25  191937  191934      24  191940  191934      24  191940  191937
      25  191946  191943      24  191949  191943      24  191949  191946      25
  191955  191952      24  191958  191952      24  191958  191955      25  191964
  191961      24  191967  191961      24  191967  191964      25  191973  191970
      24  191976  191970      24  191976  191973      25  191982  191979      24
  191985  191979      24  191985  191982      25  191991  191988      24  191994
  191988      24  191994  191991      25  192000  191997      24  192003  191997
      24  192003  192000      25  192009  192006      24  192012  192006      24
  192012  192009      25  192018  192015      24  192021  192015      24  192021
  192018      25  192027  192024      24  192030  192024      24  192030  192027
      25  192036  192033      24  192039  192033      24  192039  192036      25
  192045  192042      24  192048  192042      24  192048  192045      25  192054
  192051      24  192057  192051      24  192057  192054      25  192063  192060
      24  192066  192060      24  192066  192063      25  192072  192069      24
  192075  192069      24  192075  192072      25  192081  192078      24  192084
  192078      24  192084  192081      25  192090  192087      24  192093  192087
      24  192093  192090      25  192099  192096      24  192102  192096      24
  192102  192099      25  192108  192105      24  192111  192105      24  192111
  192108      25  192117  192114      24  192120  192114      24  192120  192117
      25  192126  192123      24  192129  192123      24  192129  192126      25
  192135  192132      24  192138  192132      24  192138  192135      25  192144
  192141      24  192147  192141      24  192147  192144      25  192153  192150
      24  192156  192150      24  192156  192153      25  192162  192159      24
  192165  192159      24  192165  192162      25  192171  192168      24  192174
  192168      24  192174  192171      25  192180  192177      24  192183  192177
      24  192183  192180      25  192189  192186      24  192192  192186      24
  192192  192189      25  192198  192195      24  192201  192195      24  192201
  192198      25  192207  192204      24  192210  192204      24  192210  192207
      25  192216  192213      24  192219  192213      24  192219  192216      25
  192225  192222      24  192228  192222      24  192228  192225      25  192234
  192231      24  192237  192231      24  192237  192234      25  192243  192240
      24  192246  192240      24  192246  192243      25  192252  192249      24
  192255  192249      24  192255  192252      25  192261  192258      24  192264
  192258      24  192264  192261      25  192270  192267      24  192273  192267
      24  192273  192270      25  192279  192276      24  192282  192276      24
  192282  192279      25  192288  192285      24  192291  192285      24  192291
  192288      25  192297  192294      24  192300  192294      24  192300  192297
      25  192306  192303      24  192309  192303      24  192309  192306      25
  192315  192312      24  192318  192312      24  192318  192315      25  192324
  192321      24  192327  192321      24  192327  192324      25  192333  192330
      24  192336  192330      24  192336  192333      25  192342  192339      24
  192345  192339      24  192345  192342      25  192351  192348      24  192354
  192348      24  192354  192351      25  192360  192357      24  192363  192357
      24  192363  192360      25  192369  192366      24  192372  192366      24
  192372  192369      25  192378  192375      24  192381  192375      24  192381
  192378      25  192387  192384      24  192390  192384      24  192390  192387
      25  192396  192393      24  192399  192393      24  192399  192396      25
  192405  192402      24  192408  192402      24  192408  192405      25  192414
  192411      24  192417  192411      24  192417  192414      25  192423  192420
      24  192426  192420      24  192426  192423      25  192432  192429      24
  192435  192429      24  192435  192432      25  192441  192438      24  192444
  192438      24  192444  192441      25  192450  192447      24  192453  192447
      24  192453  192450      25  192459  192456      24  192462  192456      24
  192462  192459      25  192468  192465      24  192471  192465      24  192471
  192468      25  192477  192474      24  192480  192474      24  192480  192477
      25  192486  192483      24  192489  192483      24  192489  192486      25
  192495  192492      24  192498  192492      24  192498  192495      25  192504
  192501      24  192507  192501      24  192507  192504      25  192513  192510
      24  192516  192510      24  192516  192513      25  192522  192519      24
  192525  192519      24  192525  192522      25  192531  192528      24  192534
  192528      24  192534  192531      25  192540  192537      24  192543  192537
      24  192543  192540      25  192549  192546      24  192552  192546      24
  192552  192549      25  192558  192555      24  192561  192555      24  192561
  192558      25  192567  192564      24  192570  192564      24  192570  192567
      25  192576  192573      24  192579  192573      24  192579  192576      25
  192585  192582      24  192588  192582      24  192588  192585      25  192594
  192591      24  192597  192591      24  192597  192594      25  192603  192600
      24  192606  192600      24  192606  192603      25  192612  192609      24
  192615  192609      24  192615  192612      25  192621  192618      24  192624
  192618      24  192624  192621      25  192630  192627      24  192633  192627
      24  192633  192630      25  192639  192636      24  192642  192636      24
  192642  192639      25  192648  192645      24  192651  192645      24  192651
  192648      25  192657  192654      24  192660  192654      24  192660  192657
      25  192666  192663      24  192669  192663      24  192669  192666      25
  192675  192672      24  192678  192672      24  192678  192675      25  192684
  192681      24  192687  192681      24  192687  192684      25  192693  192690
      24  192696  192690      24  192696  192693      25  192702  192699      24
  192705  192699      24  192705  192702      25  192711  192708      24  192714
  192708      24  192714  192711      25  192720  192717      24  192723  192717
      24  192723  192720      25  192729  192726      24  192732  192726      24
  192732  192729      25  192738  192735      24  192741  192735      24  192741
  192738      25  192747  192744      24  192750  192744      24  192750  192747
      25  192756  192753      24  192759  192753      24  192759  192756      25
  192765  192762      24  192768  192762      24  192768  192765      25  192774
  192771      24  192777  192771      24  192777  192774      25  192783  192780
      24  192786  192780      24  192786  192783      25  192792  192789      24
  192795  192789      24  192795  192792      25  192801  192798      24  192804
  192798      24  192804  192801      25  192810  192807      24  192813  192807
      24  192813  192810      25  192819  192816      24  192822  192816      24
  192822  192819      25  192828  192825      24  192831  192825      24  192831
  192828      25  192837  192834      24  192840  192834      24  192840  192837
      25  192846  192843      24  192849  192843      24  192849  192846      25
  192855  192852      24  192858  192852      24  192858  192855      25  192864
  192861      24  192867  192861      24  192867  192864      25  192873  192870
      24  192876  192870      24  192876  192873      25  192882  192879      24
  192885  192879      24  192885  192882      25  192891  192888      24  192894
  192888      24  192894  192891      25  192900  192897      24  192903  192897
      24  192903  192900      25  192909  192906      24  192912  192906      24
  192912  192909      25  192918  192915      24  192921  192915      24  192921
  192918      25  192927  192924      24  192930  192924      24  192930  192927
      25  192936  192933      24  192939  192933      24  192939  192936      25
  192945  192942      24  192948  192942      24  192948  192945      25  192954
  192951      24  192957  192951      24  192957  192954      25  192963  192960
      24  192966  192960      24  192966  192963      25  192972  192969      24
  192975  192969      24  192975  192972      25  192981  192978      24  192984
  192978      24  192984  192981      25  192990  192987      24  192993  192987
      24  192993  192990      25  192999  192996      24  193002  192996      24
  193002  192999      25  193008  193005      24  193011  193005      24  193011
  193008      25  193017  193014      24  193020  193014      24  193020  193017
      25  193026  193023      24  193029  193023      24  193029  193026      25
  193035  193032      24  193038  193032      24  193038  193035      25  193044
  193041      24  193047  193041      24  193047  193044      25  193053  193050
      24  193056  193050      24  193056  193053      25  193062  193059      24
  193065  193059      24  193065  193062      25  193071  193068      24  193074
  193068      24  193074  193071      25  193080  193077      24  193083  193077
      24  193083  193080      25  193089  193086      24  193092  193086      24
  193092  193089      25  193098  193095      24  193101  193095      24  193101
  193098      25  193107  193104      24  193110  193104      24  193110  193107
      25  193116  193113      24  193119  193113      24  193119  193116      25
  193125  193122      24  193128  193122      24  193128  193125      25  193134
  193131      24  193137  193131      24  193137  193134      25  193143  193140
      24  193146  193140      24  193146  193143      25  193152  193149      24
  193155  193149      24  193155  193152      25  193161  193158      24  193164
  193158      24  193164  193161      25  193170  193167      24  193173  193167
      24  193173  193170      25  193179  193176      24  193182  193176      24
  193182  193179      25  193188  193185      24  193191  193185      24  193191
  193188      25  193197  193194      24  193200  193194      24  193200  193197
      25  193206  193203      24  193209  193203      24  193209  193206      25
  193215  193212      24  193218  193212      24  193218  193215      25  193224
  193221      24  193227  193221      24  193227  193224      25  193233  193230
      24  193236  193230      24  193236  193233      25  193242  193239      24
  193245  193239      24  193245  193242      25  193251  193248      24  193254
  193248      24  193254  193251      25  193260  193257      24  193263  193257
      24  193263  193260      25  193269  193266      24  193272  193266      24
  193272  193269      25  193278  193275      24  193281  193275      24  193281
  193278      25  193287  193284      24  193290  193284      24  193290  193287
      25  193296  193293      24  193299  193293      24  193299  193296      25
  193305  193302      24  193308  193302      24  193308  193305      25  193314
  193311      24  193317  193311      24  193317  193314      25  193323  193320
      24  193326  193320      24  193326  193323      25  193332  193329      24
  193335  193329      24  193335  193332      25  193341  193338      24  193344
  193338      24  193344  193341      25  193350  193347      24  193353  193347
      24  193353  193350      25  193359  193356      24  193362  193356      24
  193362  193359      25  193368  193365      24  193371  193365      24  193371
  193368      25  193377  193374      24  193380  193374      24  193380  193377
      25  193386  193383      24  193389  193383      24  193389  193386      25
  193395  193392      24  193398  193392      24  193398  193395      25  193404
  193401      24  193407  193401      24  193407  193404      25  193413  193410
      24  193416  193410      24  193416  193413      25  193422  193419      24
  193425  193419      24  193425  193422      25  193431  193428      24  193434
  193428      24  193434  193431      25  193440  193437      24  193443  193437
      24  193443  193440      25  193449  193446      24  193452  193446      24
  193452  193449      25  193458  193455      24  193461  193455      24  193461
  193458      25  193467  193464      24  193470  193464      24  193470  193467
      25  193476  193473      24  193479  193473      24  193479  193476      25
  193485  193482      24  193488  193482      24  193488  193485      25  193494
  193491      24  193497  193491      24  193497  193494      25  193503  193500
      24  193506  193500      24  193506  193503      25  193512  193509      24
  193515  193509      24  193515  193512      25  193521  193518      24  193524
  193518      24  193524  193521      25  193530  193527      24  193533  193527
      24  193533  193530      25  193539  193536      24  193542  193536      24
  193542  193539      25  193548  193545      24  193551  193545      24  193551
  193548      25  193557  193554      24  193560  193554      24  193560  193557
      25  193566  193563      24  193569  193563      24  193569  193566      25
  193575  193572      24  193578  193572      24  193578  193575      25  193584
  193581      24  193587  193581      24  193587  193584      25  193593  193590
      24  193596  193590      24  193596  193593      25  193602  193599      24
  193605  193599      24  193605  193602      25  193611  193608      24  193614
  193608      24  193614  193611      25  193620  193617      24  193623  193617
      24  193623  193620      25  193629  193626      24  193632  193626      24
  193632  193629      25  193638  193635      24  193641  193635      24  193641
  193638      25  193647  193644      24  193650  193644      24  193650  193647
      25  193656  193653      24  193659  193653      24  193659  193656      25
  193665  193662      24  193668  193662      24  193668  193665      25  193674
  193671      24  193677  193671      24  193677  193674      25  193683  193680
      24  193686  193680      24  193686  193683      25  193692  193689      24
  193695  193689      24  193695  193692      25  193701  193698      24  193704
  193698      24  193704  193701      25  193710  193707      24  193713  193707
      24  193713  193710      25  193719  193716      24  193722  193716      24
  193722  193719      25  193728  193725      24  193731  193725      24  193731
  193728      25  193737  193734      24  193740  193734      24  193740  193737
      25  193746  193743      24  193749  193743      24  193749  193746      25
  193755  193752      24  193758  193752      24  193758  193755      25  193764
  193761      24  193767  193761      24  193767  193764      25  193773  193770
      24  193776  193770      24  193776  193773      25  193782  193779      24
  193785  193779      24  193785  193782      25  193791  193788      24  193794
  193788      24  193794  193791      25  193800  193797      24  193803  193797
      24  193803  193800      25  193809  193806      24  193812  193806      24
  193812  193809      25  193818  193815      24  193821  193815      24  193821
  193818      25  193827  193824      24  193830  193824      24  193830  193827
      25  193836  193833      24  193839  193833      24  193839  193836      25
  193845  193842      24  193848  193842      24  193848  193845      25  193854
  193851      24  193857  193851      24  193857  193854      25  193863  193860
      24  193866  193860      24  193866  193863      25  193872  193869      24
  193875  193869      24  193875  193872      25  193881  193878      24  193884
  193878      24  193884  193881      25  193890  193887      24  193893  193887
      24  193893  193890      25  193899  193896      24  193902  193896      24
  193902  193899      25  193908  193905      24  193911  193905      24  193911
  193908      25  193917  193914      24  193920  193914      24  193920  193917
      25  193926  193923      24  193929  193923      24  193929  193926      25
  193935  193932      24  193938  193932      24  193938  193935      25  193944
  193941      24  193947  193941      24  193947  193944      25  193953  193950
      24  193956  193950      24  193956  193953      25  193962  193959      24
  193965  193959      24  193965  193962      25  193971  193968      24  193974
  193968      24  193974  193971      25  193980  193977      24  193983  193977
      24  193983  193980      25  193989  193986      24  193992  193986      24
  193992  193989      25  193998  193995      24  194001  193995      24  194001
  193998      25  194007  194004      24  194010  194004      24  194010  194007
      25  194016  194013      24  194019  194013      24  194019  194016      25
  194025  194022      24  194028  194022      24  194028  194025      25  194034
  194031      24  194037  194031      24  194037  194034      25  194043  194040
      24  194046  194040      24  194046  194043      25  194052  194049      24
  194055  194049      24  194055  194052      25  194061  194058      24  194064
  194058      24  194064  194061      25  194070  194067      24  194073  194067
      24  194073  194070      25  194079  194076      24  194082  194076      24
  194082  194079      25  194088  194085      24  194091  194085      24  194091
  194088      25  194097  194094      24  194100  194094      24  194100  194097
      25  194106  194103      24  194109  194103      24  194109  194106      25
  194115  194112      24  194118  194112      24  194118  194115      25  194124
  194121      24  194127  194121      24  194127  194124      25  194133  194130
      24  194136  194130      24  194136  194133      25  194142  194139      24
  194145  194139      24  194145  194142      25  194151  194148      24  194154
  194148      24  194154  194151      25  194160  194157      24  194163  194157
      24  194163  194160      25  194169  194166      24  194172  194166      24
  194172  194169      25  194178  194175      24  194181  194175      24  194181
  194178      25  194187  194184      24  194190  194184      24  194190  194187
      25  194196  194193      24  194199  194193      24  194199  194196      25
  194205  194202      24  194208  194202      24  194208  194205      25  194214
  194211      24  194217  194211      24  194217  194214      25  194223  194220
      24  194226  194220      24  194226  194223      25  194232  194229      24
  194235  194229      24  194235  194232      25  194241  194238      24  194244
  194238      24  194244  194241      25  194250  194247      24  194253  194247
      24  194253  194250      25  194259  194256      24  194262  194256      24
  194262  194259      25  194268  194265      24  194271  194265      24  194271
  194268      25  194277  194274      24  194280  194274      24  194280  194277
      25  194286  194283      24  194289  194283      24  194289  194286      25
  194295  194292      24  194298  194292      24  194298  194295      25  194304
  194301      24  194307  194301      24  194307  194304      25  194313  194310
      24  194316  194310      24  194316  194313      25  194322  194319      24
  194325  194319      24  194325  194322      25  194331  194328      24  194334
  194328      24  194334  194331      25  194340  194337      24  194343  194337
      24  194343  194340      25  194349  194346      24  194352  194346      24
  194352  194349      25  194358  194355      24  194361  194355      24  194361
  194358      25  194367  194364      24  194370  194364      24  194370  194367
      25  194376  194373      24  194379  194373      24  194379  194376      25
  194385  194382      24  194388  194382      24  194388  194385      25  194394
  194391      24  194397  194391      24  194397  194394      25  194403  194400
      24  194406  194400      24  194406  194403      25  194412  194409      24
  194415  194409      24  194415  194412      25  194421  194418      24  194424
  194418      24  194424  194421      25  194430  194427      24  194433  194427
      24  194433  194430      25  194439  194436      24  194442  194436      24
  194442  194439      25  194448  194445      24  194451  194445      24  194451
  194448      25  194457  194454      24  194460  194454      24  194460  194457
      25  194466  194463      24  194469  194463      24  194469  194466      25
  194475  194472      24  194478  194472      24  194478  194475      25  194484
  194481      24  194487  194481      24  194487  194484      25  194493  194490
      24  194496  194490      24  194496  194493      25  194502  194499      24
  194505  194499      24  194505  194502      25  194511  194508      24  194514
  194508      24  194514  194511      25  194520  194517      24  194523  194517
      24  194523  194520      25  194529  194526      24  194532  194526      24
  194532  194529      25  194538  194535      24  194541  194535      24  194541
  194538      25  194547  194544      24  194550  194544      24  194550  194547
      25  194556  194553      24  194559  194553      24  194559  194556      25
  194565  194562      24  194568  194562      24  194568  194565      25  194574
  194571      24  194577  194571      24  194577  194574      25  194583  194580
      24  194586  194580      24  194586  194583      25  194592  194589      24
  194595  194589      24  194595  194592      25  194601  194598      24  194604
  194598      24  194604  194601      25  194610  194607      24  194613  194607
      24  194613  194610      25  194619  194616      24  194622  194616      24
  194622  194619      25  194628  194625      24  194631  194625      24  194631
  194628      25  194637  194634      24  194640  194634      24  194640  194637
      25  194646  194643      24  194649  194643      24  194649  194646      25
  194655  194652      24  194658  194652      24  194658  194655      25  194664
  194661      24  194667  194661      24  194667  194664      25  194673  194670
      24  194676  194670      24  194676  194673      25  194682  194679      24
  194685  194679      24  194685  194682      25  194691  194688      24  194694
  194688      24  194694  194691      25  194700  194697      24  194703  194697
      24  194703  194700      25  194709  194706      24  194712  194706      24
  194712  194709      25  194718  194715      24  194721  194715      24  194721
  194718      25  194727  194724      24  194730  194724      24  194730  194727
      25  194736  194733      24  194739  194733      24  194739  194736      25
  194745  194742      24  194748  194742      24  194748  194745      25  194754
  194751      24  194757  194751      24  194757  194754      25  194763  194760
      24  194766  194760      24  194766  194763      25  194772  194769      24
  194775  194769      24  194775  194772      25  194781  194778      24  194784
  194778      24  194784  194781      25  194790  194787      24  194793  194787
      24  194793  194790      25  194799  194796      24  194802  194796      24
  194802  194799      25  194808  194805      24  194811  194805      24  194811
  194808      25  194817  194814      24  194820  194814      24  194820  194817
      25  194826  194823      24  194829  194823      24  194829  194826      25
  194835  194832      24  194838  194832      24  194838  194835      25  194844
  194841      24  194847  194841      24  194847  194844      25  194853  194850
      24  194856  194850      24  194856  194853      25  194862  194859      24
  194865  194859      24  194865  194862      25  194871  194868      24  194874
  194868      24  194874  194871      25  194880  194877      24  194883  194877
      24  194883  194880      25  194889  194886      24  194892  194886      24
  194892  194889      25  194898  194895      24  194901  194895      24  194901
  194898      25  194907  194904      24  194910  194904      24  194910  194907
      25  194916  194913      24  194919  194913      24  194919  194916      25
  194925  194922      24  194928  194922      24  194928  194925      25  194934
  194931      24  194937  194931      24  194937  194934      25  194943  194940
      24  194946  194940      24  194946  194943      25  194952  194949      24
  194955  194949      24  194955  194952      25  194961  194958      24  194964
  194958      24  194964  194961      25  194970  194967      24  194973  194967
      24  194973  194970      25  194979  194976      24  194982  194976      24
  194982  194979      25  194988  194985      24  194991  194985      24  194991
  194988      25  194997  194994      24  195000  194994      24  195000  194997
      25  195006  195003      24  195009  195003      24  195009  195006      25
  195015  195012      24  195018  195012      24  195018  195015      25  195024
  195021      24  195027  195021      24  195027  195024      25  195033  195030
      24  195036  195030      24  195036  195033      25  195042  195039      24
  195045  195039      24  195045  195042      25  195051  195048      24  195054
  195048      24  195054  195051      25  195060  195057      24  195063  195057
      24  195063  195060      25  195069  195066      24  195072  195066      24
  195072  195069      25  195078  195075      24  195081  195075      24  195081
  195078      25  195087  195084      24  195090  195084      24  195090  195087
      25  195096  195093      24  195099  195093      24  195099  195096      25
  195105  195102      24  195108  195102      24  195108  195105      25  195114
  195111      24  195117  195111      24  195117  195114      25  195123  195120
      24  195126  195120      24  195126  195123      25  195132  195129      24
  195135  195129      24  195135  195132      25  195141  195138      24  195144
  195138      24  195144  195141      25  195150  195147      24  195153  195147
      24  195153  195150      25  195159  195156      24  195162  195156      24
  195162  195159      25  195168  195165      24  195171  195165      24  195171
  195168      25  195177  195174      24  195180  195174      24  195180  195177
      25  195186  195183      24  195189  195183      24  195189  195186      25
  195195  195192      24  195198  195192      24  195198  195195      25  195204
  195201      24  195207  195201      24  195207  195204      25  195213  195210
      24  195216  195210      24  195216  195213      25  195222  195219      24
  195225  195219      24  195225  195222      25  195231  195228      24  195234
  195228      24  195234  195231      25  195240  195237      24  195243  195237
      24  195243  195240      25  195249  195246      24  195252  195246      24
  195252  195249      25  195258  195255      24  195261  195255      24  195261
  195258      25  195267  195264      24  195270  195264      24  195270  195267
      25  195276  195273      24  195279  195273      24  195279  195276      25
  195285  195282      24  195288  195282      24  195288  195285      25  195294
  195291      24  195297  195291      24  195297  195294      25  195303  195300
      24  195306  195300      24  195306  195303      25  195312  195309      24
  195315  195309      24  195315  195312      25  195321  195318      24  195324
  195318      24  195324  195321      25  195330  195327      24  195333  195327
      24  195333  195330      25  195339  195336      24  195342  195336      24
  195342  195339      25  195348  195345      24  195351  195345      24  195351
  195348      25  195357  195354      24  195360  195354      24  195360  195357
      25  195366  195363      24  195369  195363      24  195369  195366      25
  195375  195372      24  195378  195372      24  195378  195375      25  195384
  195381      24  195387  195381      24  195387  195384      25  195393  195390
      24  195396  195390      24  195396  195393      25  195402  195399      24
  195405  195399      24  195405  195402      25  195411  195408      24  195414
  195408      24  195414  195411      25  195420  195417      24  195423  195417
      24  195423  195420      25  195429  195426      24  195432  195426      24
  195432  195429      25  195438  195435      24  195441  195435      24  195441
  195438      25  195447  195444      24  195450  195444      24  195450  195447
      25  195456  195453      24  195459  195453      24  195459  195456      25
  195465  195462      24  195468  195462      24  195468  195465      25  195474
  195471      24  195477  195471      24  195477  195474      25  195483  195480
      24  195486  195480      24  195486  195483      25  195492  195489      24
  195495  195489      24  195495  195492      25  195501  195498      24  195504
  195498      24  195504  195501      25  195510  195507      24  195513  195507
      24  195513  195510      25  195519  195516      24  195522  195516      24
  195522  195519      25  195528  195525      24  195531  195525      24  195531
  195528      25  195537  195534      24  195540  195534      24  195540  195537
      25  195546  195543      24  195549  195543      24  195549  195546      25
  195555  195552      24  195558  195552      24  195558  195555      25  195564
  195561      24  195567  195561      24  195567  195564      25  195573  195570
      24  195576  195570      24  195576  195573      25  195582  195579      24
  195585  195579      24  195585  195582      25  195591  195588      24  195594
  195588      24  195594  195591      25  195600  195597      24  195603  195597
      24  195603  195600      25  195609  195606      24  195612  195606      24
  195612  195609      25  195618  195615      24  195621  195615      24  195621
  195618      25  195627  195624      24  195630  195624      24  195630  195627
      25  195636  195633      24  195639  195633      24  195639  195636      25
  195645  195642      24  195648  195642      24  195648  195645      25  195654
  195651      24  195657  195651      24  195657  195654      25  195663  195660
      24  195666  195660      24  195666  195663      25  195672  195669      24
  195675  195669      24  195675  195672      25  195681  195678      24  195684
  195678      24  195684  195681      25  195690  195687      24  195693  195687
      24  195693  195690      25  195699  195696      24  195702  195696      24
  195702  195699      25  195708  195705      24  195711  195705      24  195711
  195708      25  195717  195714      24  195720  195714      24  195720  195717
      25  195726  195723      24  195729  195723      24  195729  195726      25
  195735  195732      24  195738  195732      24  195738  195735      25  195744
  195741      24  195747  195741      24  195747  195744      25  195753  195750
      24  195756  195750      24  195756  195753      25  195762  195759      24
  195765  195759      24  195765  195762      25  195771  195768      24  195774
  195768      24  195774  195771      25  195780  195777      24  195783  195777
      24  195783  195780      25  195789  195786      24  195792  195786      24
  195792  195789      25  195798  195795      24  195801  195795      24  195801
  195798      25  195807  195804      24  195810  195804      24  195810  195807
      25  195816  195813      24  195819  195813      24  195819  195816      25
  195825  195822      24  195828  195822      24  195828  195825      25  195834
  195831      24  195837  195831      24  195837  195834      25  195843  195840
      24  195846  195840      24  195846  195843      25  195852  195849      24
  195855  195849      24  195855  195852      25  195861  195858      24  195864
  195858      24  195864  195861      25  195870  195867      24  195873  195867
      24  195873  195870      25  195879  195876      24  195882  195876      24
  195882  195879      25  195888  195885      24  195891  195885      24  195891
  195888      25  195897  195894      24  195900  195894      24  195900  195897
      25  195906  195903      24  195909  195903      24  195909  195906      25
  195915  195912      24  195918  195912      24  195918  195915      25  195924
  195921      24  195927  195921      24  195927  195924      25  195933  195930
      24  195936  195930      24  195936  195933      25  195942  195939      24
  195945  195939      24  195945  195942      25  195951  195948      24  195954
  195948      24  195954  195951      25  195960  195957      24  195963  195957
      24  195963  195960      25  195969  195966      24  195972  195966      24
  195972  195969      25  195978  195975      24  195981  195975      24  195981
  195978      25  195987  195984      24  195990  195984      24  195990  195987
      25  195996  195993      24  195999  195993      24  195999  195996      25
  196005  196002      24  196008  196002      24  196008  196005      25  196014
  196011      24  196017  196011      24  196017  196014      25  196023  196020
      24  196026  196020      24  196026  196023      25  196032  196029      24
  196035  196029      24  196035  196032      25  196041  196038      24  196044
  196038      24  196044  196041      25  196050  196047      24  196053  196047
      24  196053  196050      25  196059  196056      24  196062  196056      24
  196062  196059      25  196068  196065      24  196071  196065      24  196071
  196068      25  196077  196074      24  196080  196074      24  196080  196077
      25  196086  196083      24  196089  196083      24  196089  196086      25
  196095  196092      24  196098  196092      24  196098  196095      25  196104
  196101      24  196107  196101      24  196107  196104      25  196113  196110
      24  196116  196110      24  196116  196113      25  196122  196119      24
  196125  196119      24  196125  196122      25  196131  196128      24  196134
  196128      24  196134  196131      25  196140  196137      24  196143  196137
      24  196143  196140      25  196149  196146      24  196152  196146      24
  196152  196149      25  196158  196155      24  196161  196155      24  196161
  196158      25  196167  196164      24  196170  196164      24  196170  196167
      25  196176  196173      24  196179  196173      24  196179  196176      25
  196185  196182      24  196188  196182      24  196188  196185      25  196194
  196191      24  196197  196191      24  196197  196194      25  196203  196200
      24  196206  196200      24  196206  196203      25  196212  196209      24
  196215  196209      24  196215  196212      25  196221  196218      24  196224
  196218      24  196224  196221      25  196230  196227      24  196233  196227
      24  196233  196230      25  196239  196236      24  196242  196236      24
  196242  196239      25  196248  196245      24  196251  196245      24  196251
  196248      25  196257  196254      24  196260  196254      24  196260  196257
      25  196266  196263      24  196269  196263      24  196269  196266      25
  196275  196272      24  196278  196272      24  196278  196275      25  196284
  196281      24  196287  196281      24  196287  196284      25  196293  196290
      24  196296  196290      24  196296  196293      25  196302  196299      24
  196305  196299      24  196305  196302      25  196311  196308      24  196314
  196308      24  196314  196311      25  196320  196317      24  196323  196317
      24  196323  196320      25  196329  196326      24  196332  196326      24
  196332  196329      25  196338  196335      24  196341  196335      24  196341
  196338      25  196347  196344      24  196350  196344      24  196350  196347
      25  196356  196353      24  196359  196353      24  196359  196356      25
  196365  196362      24  196368  196362      24  196368  196365      25  196374
  196371      24  196377  196371      24  196377  196374      25  196383  196380
      24  196386  196380      24  196386  196383      25  196392  196389      24
  196395  196389      24  196395  196392      25  196401  196398      24  196404
  196398      24  196404  196401      25  196410  196407      24  196413  196407
      24  196413  196410      25  196419  196416      24  196422  196416      24
  196422  196419      25  196428  196425      24  196431  196425      24  196431
  196428      25  196437  196434      24  196440  196434      24  196440  196437
      25  196446  196443      24  196449  196443      24  196449  196446      25
  196455  196452      24  196458  196452      24  196458  196455      25  196464
  196461      24  196467  196461      24  196467  196464      25  196473  196470
      24  196476  196470      24  196476  196473      25  196482  196479      24
  196485  196479      24  196485  196482      25  196491  196488      24  196494
  196488      24  196494  196491      25  196500  196497      24  196503  196497
      24  196503  196500      25  196509  196506      24  196512  196506      24
  196512  196509      25  196518  196515      24  196521  196515      24  196521
  196518      25  196527  196524      24  196530  196524      24  196530  196527
      25  196536  196533      24  196539  196533      24  196539  196536      25
  196545  196542      24  196548  196542      24  196548  196545      25  196554
  196551      24  196557  196551      24  196557  196554      25  196563  196560
      24  196566  196560      24  196566  196563      25  196572  196569      24
  196575  196569      24  196575  196572      25  196581  196578      24  196584
  196578      24  196584  196581      25  196590  196587      24  196593  196587
      24  196593  196590      25  196599  196596      24  196602  196596      24
  196602  196599      25  196608  196605      24  196611  196605      24  196611
  196608      25  196617  196614      24  196620  196614      24  196620  196617
      25  196626  196623      24  196629  196623      24  196629  196626      25
  196635  196632      24  196638  196632      24  196638  196635      25  196644
  196641      24  196647  196641      24  196647  196644      25  196653  196650
      24  196656  196650      24  196656  196653      25  196662  196659      24
  196665  196659      24  196665  196662      25  196671  196668      24  196674
  196668      24  196674  196671      25  196680  196677      24  196683  196677
      24  196683  196680      25  196689  196686      24  196692  196686      24
  196692  196689      25  196698  196695      24  196701  196695      24  196701
  196698      25  196707  196704      24  196710  196704      24  196710  196707
      25  196716  196713      24  196719  196713      24  196719  196716      25
  196725  196722      24  196728  196722      24  196728  196725      25  196734
  196731      24  196737  196731      24  196737  196734      25  196743  196740
      24  196746  196740      24  196746  196743      25  196752  196749      24
  196755  196749      24  196755  196752      25  196761  196758      24  196764
  196758      24  196764  196761      25  196770  196767      24  196773  196767
      24  196773  196770      25  196779  196776      24  196782  196776      24
  196782  196779      25  196788  196785      24  196791  196785      24  196791
  196788      25  196797  196794      24  196800  196794      24  196800  196797
      25  196806  196803      24  196809  196803      24  196809  196806      25
  196815  196812      24  196818  196812      24  196818  196815      25  196824
  196821      24  196827  196821      24  196827  196824      25  196833  196830
      24  196836  196830      24  196836  196833      25  196842  196839      24
  196845  196839      24  196845  196842      25  196851  196848      24  196854
  196848      24  196854  196851      25  196860  196857      24  196863  196857
      24  196863  196860      25  196869  196866      24  196872  196866      24
  196872  196869      25  196878  196875      24  196881  196875      24  196881
  196878      25  196887  196884      24  196890  196884      24  196890  196887
      25  196896  196893      24  196899  196893      24  196899  196896      25
  196905  196902      24  196908  196902      24  196908  196905      25  196914
  196911      24  196917  196911      24  196917  196914      25  196923  196920
      24  196926  196920      24  196926  196923      25  196932  196929      24
  196935  196929      24  196935  196932      25  196941  196938      24  196944
  196938      24  196944  196941      25  196950  196947      24  196953  196947
      24  196953  196950      25  196959  196956      24  196962  196956      24
  196962  196959      25  196968  196965      24  196971  196965      24  196971
  196968      25  196977  196974      24  196980  196974      24  196980  196977
      25  196986  196983      24  196989  196983      24  196989  196986      25
  196995  196992      24  196998  196992      24  196998  196995      25  197004
  197001      24  197007  197001      24  197007  197004      25  197013  197010
      24  197016  197010      24  197016  197013      25  197022  197019      24
  197025  197019      24  197025  197022      25  197031  197028      24  197034
  197028      24  197034  197031      25  197040  197037      24  197043  197037
      24  197043  197040      25  197049  197046      24  197052  197046      24
  197052  197049      25  197058  197055      24  197061  197055      24  197061
  197058      25  197067  197064      24  197070  197064      24  197070  197067
      25  197076  197073      24  197079  197073      24  197079  197076      25
  197085  197082      24  197088  197082      24  197088  197085      25  197094
  197091      24  197097  197091      24  197097  197094      25  197103  197100
      24  197106  197100      24  197106  197103      25  197112  197109      24
  197115  197109      24  197115  197112      25  197121  197118      24  197124
  197118      24  197124  197121      25  197130  197127      24  197133  197127
      24  197133  197130      25  197139  197136      24  197142  197136      24
  197142  197139      25  197148  197145      24  197151  197145      24  197151
  197148      25  197157  197154      24  197160  197154      24  197160  197157
      25  197166  197163      24  197169  197163      24  197169  197166      25
  197175  197172      24  197178  197172      24  197178  197175      25  197184
  197181      24  197187  197181      24  197187  197184      25  197193  197190
      24  197196  197190      24  197196  197193      25  197202  197199      24
  197205  197199      24  197205  197202      25  197211  197208      24  197214
  197208      24  197214  197211      25  197220  197217      24  197223  197217
      24  197223  197220      25  197229  197226      24  197232  197226      24
  197232  197229      25  197238  197235      24  197241  197235      24  197241
  197238      25  197247  197244      24  197250  197244      24  197250  197247
      25  197256  197253      24  197259  197253      24  197259  197256      25
  197265  197262      24  197268  197262      24  197268  197265      25  197274
  197271      24  197277  197271      24  197277  197274      25  197283  197280
      24  197286  197280      24  197286  197283      25  197292  197289      24
  197295  197289      24  197295  197292      25  197301  197298      24  197304
  197298      24  197304  197301      25  197310  197307      24  197313  197307
      24  197313  197310      25  197319  197316      24  197322  197316      24
  197322  197319      25  197328  197325      24  197331  197325      24  197331
  197328      25  197337  197334      24  197340  197334      24  197340  197337
      25  197346  197343      24  197349  197343      24  197349  197346      25
  197355  197352      24  197358  197352      24  197358  197355      25  197364
  197361      24  197367  197361      24  197367  197364      25  197373  197370
      24  197376  197370      24  197376  197373      25  197382  197379      24
  197385  197379      24  197385  197382      25  197391  197388      24  197394
  197388      24  197394  197391      25  197400  197397      24  197403  197397
      24  197403  197400      25  197409  197406      24  197412  197406      24
  197412  197409      25  197418  197415      24  197421  197415      24  197421
  197418      25  197427  197424      24  197430  197424      24  197430  197427
      25  197436  197433      24  197439  197433      24  197439  197436      25
  197445  197442      24  197448  197442      24  197448  197445      25  197454
  197451      24  197457  197451      24  197457  197454      25  197463  197460
      24  197466  197460      24  197466  197463      25  197472  197469      24
  197475  197469      24  197475  197472      25  197481  197478      24  197484
  197478      24  197484  197481      25  197490  197487      24  197493  197487
      24  197493  197490      25  197499  197496      24  197502  197496      24
  197502  197499      25  197508  197505      24  197511  197505      24  197511
  197508      25  197517  197514      24  197520  197514      24  197520  197517
      25  197526  197523      24  197529  197523      24  197529  197526      25
  197535  197532      24  197538  197532      24  197538  197535      25  197544
  197541      24  197547  197541      24  197547  197544      25  197553  197550
      24  197556  197550      24  197556  197553      25  197562  197559      24
  197565  197559      24  197565  197562      25  197571  197568      24  197574
  197568      24  197574  197571      25  197580  197577      24  197583  197577
      24  197583  197580      25  197589  197586      24  197592  197586      24
  197592  197589      25  197598  197595      24  197601  197595      24  197601
  197598      25  197607  197604      24  197610  197604      24  197610  197607
      25  197616  197613      24  197619  197613      24  197619  197616      25
  197625  197622      24  197628  197622      24  197628  197625      25  197634
  197631      24  197637  197631      24  197637  197634      25  197643  197640
      24  197646  197640      24  197646  197643      25  197652  197649      24
  197655  197649      24  197655  197652      25  197661  197658      24  197664
  197658      24  197664  197661      25  197670  197667      24  197673  197667
      24  197673  197670      25  197679  197676      24  197682  197676      24
  197682  197679      25  197688  197685      24  197691  197685      24  197691
  197688      25  197697  197694      24  197700  197694      24  197700  197697
      25  197706  197703      24  197709  197703      24  197709  197706      25
  197715  197712      24  197718  197712      24  197718  197715      25  197724
  197721      24  197727  197721      24  197727  197724      25  197733  197730
      24  197736  197730      24  197736  197733      25  197742  197739      24
  197745  197739      24  197745  197742      25  197751  197748      24  197754
  197748      24  197754  197751      25  197760  197757      24  197763  197757
      24  197763  197760      25  197769  197766      24  197772  197766      24
  197772  197769      25  197778  197775      24  197781  197775      24  197781
  197778      25  197787  197784      24  197790  197784      24  197790  197787
      25  197796  197793      24  197799  197793      24  197799  197796      25
  197805  197802      24  197808  197802      24  197808  197805      25  197814
  197811      24  197817  197811      24  197817  197814      25  197823  197820
      24  197826  197820      24  197826  197823      25  197832  197829      24
  197835  197829      24  197835  197832      25  197841  197838      24  197844
  197838      24  197844  197841      25  197850  197847      24  197853  197847
      24  197853  197850      25  197859  197856      24  197862  197856      24
  197862  197859      25  197868  197865      24  197871  197865      24  197871
  197868      25  197877  197874      24  197880  197874      24  197880  197877
      25  197886  197883      24  197889  197883      24  197889  197886      25
  197895  197892      24  197898  197892      24  197898  197895      25  197904
  197901      24  197907  197901      24  197907  197904      25  197913  197910
      24  197916  197910      24  197916  197913      25  197922  197919      24
  197925  197919      24  197925  197922      25  197931  197928      24  197934
  197928      24  197934  197931      25  197940  197937      24  197943  197937
      24  197943  197940      25  197949  197946      24  197952  197946      24
  197952  197949      25  197958  197955      24  197961  197955      24  197961
  197958      25  197967  197964      24  197970  197964      24  197970  197967
      25  197976  197973      24  197979  197973      24  197979  197976      25
  197985  197982      24  197988  197982      24  197988  197985      25  197994
  197991      24  197997  197991      24  197997  197994      25  198003  198000
      24  198006  198000      24  198006  198003      25  198012  198009      24
  198015  198009      24  198015  198012      25  198021  198018      24  198024
  198018      24  198024  198021      25  198030  198027      24  198033  198027
      24  198033  198030      25  198039  198036      24  198042  198036      24
  198042  198039      25  198048  198045      24  198051  198045      24  198051
  198048      25  198057  198054      24  198060  198054      24  198060  198057
      25  198066  198063      24  198069  198063      24  198069  198066      25
  198075  198072      24  198078  198072      24  198078  198075      25  198084
  198081      24  198087  198081      24  198087  198084      25  198093  198090
      24  198096  198090      24  198096  198093      25  198102  198099      24
  198105  198099      24  198105  198102      25  198111  198108      24  198114
  198108      24  198114  198111      25  198120  198117      24  198123  198117
      24  198123  198120      25  198129  198126      24  198132  198126      24
  198132  198129      25  198138  198135      24  198141  198135      24  198141
  198138      25  198147  198144      24  198150  198144      24  198150  198147
      25  198156  198153      24  198159  198153      24  198159  198156      25
  198165  198162      24  198168  198162      24  198168  198165      25  198174
  198171      24  198177  198171      24  198177  198174      25  198183  198180
      24  198186  198180      24  198186  198183      25  198192  198189      24
  198195  198189      24  198195  198192      25  198201  198198      24  198204
  198198      24  198204  198201      25  198210  198207      24  198213  198207
      24  198213  198210      25  198219  198216      24  198222  198216      24
  198222  198219      25  198228  198225      24  198231  198225      24  198231
  198228      25  198237  198234      24  198240  198234      24  198240  198237
      25  198246  198243      24  198249  198243      24  198249  198246      25
  198255  198252      24  198258  198252      24  198258  198255      25  198264
  198261      24  198267  198261      24  198267  198264      25  198273  198270
      24  198276  198270      24  198276  198273      25  198282  198279      24
  198285  198279      24  198285  198282      25  198291  198288      24  198294
  198288      24  198294  198291      25  198300  198297      24  198303  198297
      24  198303  198300      25  198309  198306      24  198312  198306      24
  198312  198309      25  198318  198315      24  198321  198315      24  198321
  198318      25  198327  198324      24  198330  198324      24  198330  198327
      25  198336  198333      24  198339  198333      24  198339  198336      25
  198345  198342      24  198348  198342      24  198348  198345      25  198354
  198351      24  198357  198351      24  198357  198354      25  198363  198360
      24  198366  198360      24  198366  198363      25  198372  198369      24
  198375  198369      24  198375  198372      25  198381  198378      24  198384
  198378      24  198384  198381      25  198390  198387      24  198393  198387
      24  198393  198390      25  198399  198396      24  198402  198396      24
  198402  198399      25  198408  198405      24  198411  198405      24  198411
  198408      25  198417  198414      24  198420  198414      24  198420  198417
      25  198426  198423      24  198429  198423      24  198429  198426      25
  198435  198432      24  198438  198432      24  198438  198435      25  198444
  198441      24  198447  198441      24  198447  198444      25  198453  198450
      24  198456  198450      24  198456  198453      25  198462  198459      24
  198465  198459      24  198465  198462      25  198471  198468      24  198474
  198468      24  198474  198471      25  198480  198477      24  198483  198477
      24  198483  198480      25  198489  198486      24  198492  198486      24
  198492  198489      25  198498  198495      24  198501  198495      24  198501
  198498      25  198507  198504      24  198510  198504      24  198510  198507
      25  198516  198513      24  198519  198513      24  198519  198516      25
  198525  198522      24  198528  198522      24  198528  198525      25  198534
  198531      24  198537  198531      24  198537  198534      25  198543  198540
      24  198546  198540      24  198546  198543      25  198552  198549      24
  198555  198549      24  198555  198552      25  198561  198558      24  198564
  198558      24  198564  198561      25  198570  198567      24  198573  198567
      24  198573  198570      25  198579  198576      24  198582  198576      24
  198582  198579      25  198588  198585      24  198591  198585      24  198591
  198588      25  198597  198594      24  198600  198594      24  198600  198597
      25  198606  198603      24  198609  198603      24  198609  198606      25
  198615  198612      24  198618  198612      24  198618  198615      25  198624
  198621      24  198627  198621      24  198627  198624      25  198633  198630
      24  198636  198630      24  198636  198633      25  198642  198639      24
  198645  198639      24  198645  198642      25  198651  198648      24  198654
  198648      24  198654  198651      25  198660  198657      24  198663  198657
      24  198663  198660      25  198669  198666      24  198672  198666      24
  198672  198669      25  198678  198675      24  198681  198675      24  198681
  198678      25  198687  198684      24  198690  198684      24  198690  198687
      25  198696  198693      24  198699  198693      24  198699  198696      25
  198705  198702      24  198708  198702      24  198708  198705      25  198714
  198711      24  198717  198711      24  198717  198714      25  198723  198720
      24  198726  198720      24  198726  198723      25  198732  198729      24
  198735  198729      24  198735  198732      25  198741  198738      24  198744
  198738      24  198744  198741      25  198750  198747      24  198753  198747
      24  198753  198750      25  198759  198756      24  198762  198756      24
  198762  198759      25  198768  198765      24  198771  198765      24  198771
  198768      25  198777  198774      24  198780  198774      24  198780  198777
      25  198786  198783      24  198789  198783      24  198789  198786      25
  198795  198792      24  198798  198792      24  198798  198795      25  198804
  198801      24  198807  198801      24  198807  198804      25  198813  198810
      24  198816  198810      24  198816  198813      25  198822  198819      24
  198825  198819      24  198825  198822      25  198831  198828      24  198834
  198828      24  198834  198831      25  198840  198837      24  198843  198837
      24  198843  198840      25  198849  198846      24  198852  198846      24
  198852  198849      25  198858  198855      24  198861  198855      24  198861
  198858      25  198867  198864      24  198870  198864      24  198870  198867
      25  198876  198873      24  198879  198873      24  198879  198876      25
  198885  198882      24  198888  198882      24  198888  198885      25  198894
  198891      24  198897  198891      24  198897  198894      25  198903  198900
      24  198906  198900      24  198906  198903      25  198912  198909      24
  198915  198909      24  198915  198912      25  198921  198918      24  198924
  198918      24  198924  198921      25  198930  198927      24  198933  198927
      24  198933  198930      25  198939  198936      24  198942  198936      24
  198942  198939      25  198948  198945      24  198951  198945      24  198951
  198948      25  198957  198954      24  198960  198954      24  198960  198957
      25  198966  198963      24  198969  198963      24  198969  198966      25
  198975  198972      24  198978  198972      24  198978  198975      25  198984
  198981      24  198987  198981      24  198987  198984      25  198993  198990
      24  198996  198990      24  198996  198993      25  199002  198999      24
  199005  198999      24  199005  199002      25  199011  199008      24  199014
  199008      24  199014  199011      25  199020  199017      24  199023  199017
      24  199023  199020      25  199029  199026      24  199032  199026      24
  199032  199029      25  199038  199035      24  199041  199035      24  199041
  199038      25  199047  199044      24  199050  199044      24  199050  199047
      25  199056  199053      24  199059  199053      24  199059  199056      25
  199065  199062      24  199068  199062      24  199068  199065      25  199074
  199071      24  199077  199071      24  199077  199074      25  199083  199080
      24  199086  199080      24  199086  199083      25  199092  199089      24
  199095  199089      24  199095  199092      25  199101  199098      24  199104
  199098      24  199104  199101      25  199110  199107      24  199113  199107
      24  199113  199110      25  199119  199116      24  199122  199116      24
  199122  199119      25  199128  199125      24  199131  199125      24  199131
  199128      25  199137  199134      24  199140  199134      24  199140  199137
      25  199146  199143      24  199149  199143      24  199149  199146      25
  199155  199152      24  199158  199152      24  199158  199155      25  199164
  199161      24  199167  199161      24  199167  199164      25  199173  199170
      24  199176  199170      24  199176  199173      25  199182  199179      24
  199185  199179      24  199185  199182      25  199191  199188      24  199194
  199188      24  199194  199191      25  199200  199197      24  199203  199197
      24  199203  199200      25  199209  199206      24  199212  199206      24
  199212  199209      25  199218  199215      24  199221  199215      24  199221
  199218      25  199227  199224      24  199230  199224      24  199230  199227
      25  199236  199233      24  199239  199233      24  199239  199236      25
  199245  199242      24  199248  199242      24  199248  199245      25  199254
  199251      24  199257  199251      24  199257  199254      25  199263  199260
      24  199266  199260      24  199266  199263      25  199272  199269      24
  199275  199269      24  199275  199272      25  199281  199278      24  199284
  199278      24  199284  199281      25  199290  199287      24  199293  199287
      24  199293  199290      25  199299  199296      24  199302  199296      24
  199302  199299      25  199308  199305      24  199311  199305      24  199311
  199308      25  199317  199314      24  199320  199314      24  199320  199317
      25  199326  199323      24  199329  199323      24  199329  199326      25
  199335  199332      24  199338  199332      24  199338  199335      25  199344
  199341      24  199347  199341      24  199347  199344      25  199353  199350
      24  199356  199350      24  199356  199353      25  199362  199359      24
  199365  199359      24  199365  199362      25  199371  199368      24  199374
  199368      24  199374  199371      25  199380  199377      24  199383  199377
      24  199383  199380      25  199389  199386      24  199392  199386      24
  199392  199389      25  199398  199395      24  199401  199395      24  199401
  199398      25  199407  199404      24  199410  199404      24  199410  199407
      25  199416  199413      24  199419  199413      24  199419  199416      25
  199425  199422      24  199428  199422      24  199428  199425      25  199434
  199431      24  199437  199431      24  199437  199434      25  199443  199440
      24  199446  199440      24  199446  199443      25  199452  199449      24
  199455  199449      24  199455  199452      25  199461  199458      24  199464
  199458      24  199464  199461      25  199470  199467      24  199473  199467
      24  199473  199470      25  199479  199476      24  199482  199476      24
  199482  199479      25  199488  199485      24  199491  199485      24  199491
  199488      25  199497  199494      24  199500  199494      24  199500  199497
      25  199506  199503      24  199509  199503      24  199509  199506      25
  199515  199512      24  199518  199512      24  199518  199515      25  199524
  199521      24  199527  199521      24  199527  199524      25  199533  199530
      24  199536  199530      24  199536  199533      25  199542  199539      24
  199545  199539      24  199545  199542      25  199551  199548      24  199554
  199548      24  199554  199551      25  199560  199557      24  199563  199557
      24  199563  199560      25  199569  199566      24  199572  199566      24
  199572  199569      25  199578  199575      24  199581  199575      24  199581
  199578      25  199587  199584      24  199590  199584      24  199590  199587
      25  199596  199593      24  199599  199593      24  199599  199596      25
  199605  199602      24  199608  199602      24  199608  199605      25  199614
  199611      24  199617  199611      24  199617  199614      25  199623  199620
      24  199626  199620      24  199626  199623      25  199632  199629      24
  199635  199629      24  199635  199632      25  199641  199638      24  199644
  199638      24  199644  199641      25  199650  199647      24  199653  199647
      24  199653  199650      25  199659  199656      24  199662  199656      24
  199662  199659      25  199668  199665      24  199671  199665      24  199671
  199668      25  199677  199674      24  199680  199674      24  199680  199677
      25  199686  199683      24  199689  199683      24  199689  199686      25
  199695  199692      24  199698  199692      24  199698  199695      25  199704
  199701      24  199707  199701      24  199707  199704      25  199713  199710
      24  199716  199710      24  199716  199713      25  199722  199719      24
  199725  199719      24  199725  199722      25  199731  199728      24  199734
  199728      24  199734  199731      25  199740  199737      24  199743  199737
      24  199743  199740      25  199749  199746      24  199752  199746      24
  199752  199749      25  199758  199755      24  199761  199755      24  199761
  199758      25  199767  199764      24  199770  199764      24  199770  199767
      25  199776  199773      24  199779  199773      24  199779  199776      25
  199785  199782      24  199788  199782      24  199788  199785      25  199794
  199791      24  199797  199791      24  199797  199794      25  199803  199800
      24  199806  199800      24  199806  199803      25  199812  199809      24
  199815  199809      24  199815  199812      25  199821  199818      24  199824
  199818      24  199824  199821      25  199830  199827      24  199833  199827
      24  199833  199830      25  199839  199836      24  199842  199836      24
  199842  199839      25  199848  199845      24  199851  199845      24  199851
  199848      25  199857  199854      24  199860  199854      24  199860  199857
      25  199866  199863      24  199869  199863      24  199869  199866      25
  199875  199872      24  199878  199872      24  199878  199875      25  199884
  199881      24  199887  199881      24  199887  199884      25  199893  199890
      24  199896  199890      24  199896  199893      25  199902  199899      24
  199905  199899      24  199905  199902      25  199911  199908      24  199914
  199908      24  199914  199911      25  199920  199917      24  199923  199917
      24  199923  199920      25  199929  199926      24  199932  199926      24
  199932  199929      25  199938  199935      24  199941  199935      24  199941
  199938      25  199947  199944      24  199950  199944      24  199950  199947
      25  199956  199953      24  199959  199953      24  199959  199956      25
  199965  199962      24  199968  199962      24  199968  199965      25  199974
  199971      24  199977  199971      24  199977  199974      25  199983  199980
      24  199986  199980      24  199986  199983      25  199992  199989      24
  199995  199989      24  199995  199992      25  200001  199998      24  200004
  199998      24  200004  200001      25  200010  200007      24  200013  200007
      24  200013  200010      25  200019  200016      24  200022  200016      24
  200022  200019      25  200028  200025      24  200031  200025      24  200031
  200028      25  200037  200034      24  200040  200034      24  200040  200037
      25  200046  200043      24  200049  200043      24  200049  200046      25
  200055  200052      24  200058  200052      24  200058  200055      25  200064
  200061      24  200067  200061      24  200067  200064      25  200073  200070
      24  200076  200070      24  200076  200073      25  200082  200079      24
  200085  200079      24  200085  200082      25  200091  200088      24  200094
  200088      24  200094  200091      25  200100  200097      24  200103  200097
      24  200103  200100      25  200109  200106      24  200112  200106      24
  200112  200109      25  200118  200115      24  200121  200115      24  200121
  200118      25  200127  200124      24  200130  200124      24  200130  200127
      25  200136  200133      24  200139  200133      24  200139  200136      25
  200145  200142      24  200148  200142      24  200148  200145      25  200154
  200151      24  200157  200151      24  200157  200154      25  200163  200160
      24  200166  200160      24  200166  200163      25  200172  200169      24
  200175  200169      24  200175  200172      25  200181  200178      24  200184
  200178      24  200184  200181      25  200190  200187      24  200193  200187
      24  200193  200190      25  200199  200196      24  200202  200196      24
  200202  200199      25  200208  200205      24  200211  200205      24  200211
  200208      25  200217  200214      24  200220  200214      24  200220  200217
      25  200226  200223      24  200229  200223      24  200229  200226      25
  200235  200232      24  200238  200232      24  200238  200235      25  200244
  200241      24  200247  200241      24  200247  200244      25  200253  200250
      24  200256  200250      24  200256  200253      25  200262  200259      24
  200265  200259      24  200265  200262      25  200271  200268      24  200274
  200268      24  200274  200271      25  200280  200277      24  200283  200277
      24  200283  200280      25  200289  200286      24  200292  200286      24
  200292  200289      25  200298  200295      24  200301  200295      24  200301
  200298      25  200307  200304      24  200310  200304      24  200310  200307
      25  200316  200313      24  200319  200313      24  200319  200316      25
  200325  200322      24  200328  200322      24  200328  200325      25  200334
  200331      24  200337  200331      24  200337  200334      25  200343  200340
      24  200346  200340      24  200346  200343      25  200352  200349      24
  200355  200349      24  200355  200352      25  200361  200358      24  200364
  200358      24  200364  200361      25  200370  200367      24  200373  200367
      24  200373  200370      25  200379  200376      24  200382  200376      24
  200382  200379      25  200388  200385      24  200391  200385      24  200391
  200388      25  200397  200394      24  200400  200394      24  200400  200397
      25  200406  200403      24  200409  200403      24  200409  200406      25
  200415  200412      24  200418  200412      24  200418  200415      25  200424
  200421      24  200427  200421      24  200427  200424      25  200433  200430
      24  200436  200430      24  200436  200433      25  200442  200439      24
  200445  200439      24  200445  200442      25  200451  200448      24  200454
  200448      24  200454  200451      25  200460  200457      24  200463  200457
      24  200463  200460      25  200469  200466      24  200472  200466      24
  200472  200469      25  200478  200475      24  200481  200475      24  200481
  200478      25  200487  200484      24  200490  200484      24  200490  200487
      25  200496  200493      24  200499  200493      24  200499  200496      25
  200505  200502      24  200508  200502      24  200508  200505      25  200514
  200511      24  200517  200511      24  200517  200514      25  200523  200520
      24  200526  200520      24  200526  200523      25  200532  200529      24
  200535  200529      24  200535  200532      25  200541  200538      24  200544
  200538      24  200544  200541      25  200550  200547      24  200553  200547
      24  200553  200550      25  200559  200556      24  200562  200556      24
  200562  200559      25  200568  200565      24  200571  200565      24  200571
  200568      25  200577  200574      24  200580  200574      24  200580  200577
      25  200586  200583      24  200589  200583      24  200589  200586      25
  200595  200592      24  200598  200592      24  200598  200595      25  200604
  200601      24  200607  200601      24  200607  200604      25  200613  200610
      24  200616  200610      24  200616  200613      25  200622  200619      24
  200625  200619      24  200625  200622      25  200631  200628      24  200634
  200628      24  200634  200631      25  200640  200637      24  200643  200637
      24  200643  200640      25  200649  200646      24  200652  200646      24
  200652  200649      25  200658  200655      24  200661  200655      24  200661
  200658      25  200667  200664      24  200670  200664      24  200670  200667
      25  200676  200673      24  200679  200673      24  200679  200676      25
  200685  200682      24  200688  200682      24  200688  200685      25  200694
  200691      24  200697  200691      24  200697  200694      25  200703  200700
      24  200706  200700      24  200706  200703      25  200712  200709      24
  200715  200709      24  200715  200712      25  200721  200718      24  200724
  200718      24  200724  200721      25  200730  200727      24  200733  200727
      24  200733  200730      25  200739  200736      24  200742  200736      24
  200742  200739      25  200748  200745      24  200751  200745      24  200751
  200748      25  200757  200754      24  200760  200754      24  200760  200757
      25  200766  200763      24  200769  200763      24  200769  200766      25
  200775  200772      24  200778  200772      24  200778  200775      25  200784
  200781      24  200787  200781      24  200787  200784      25  200793  200790
      24  200796  200790      24  200796  200793      25  200802  200799      24
  200805  200799      24  200805  200802      25  200811  200808      24  200814
  200808      24  200814  200811      25  200820  200817      24  200823  200817
      24  200823  200820      25  200829  200826      24  200832  200826      24
  200832  200829      25  200838  200835      24  200841  200835      24  200841
  200838      25  200847  200844      24  200850  200844      24  200850  200847
      25  200856  200853      24  200859  200853      24  200859  200856      25
  200865  200862      24  200868  200862      24  200868  200865      25  200874
  200871      24  200877  200871      24  200877  200874      25  200883  200880
      24  200886  200880      24  200886  200883      25  200892  200889      24
  200895  200889      24  200895  200892      25  200901  200898      24  200904
  200898      24  200904  200901      25  200910  200907      24  200913  200907
      24  200913  200910      25  200919  200916      24  200922  200916      24
  200922  200919      25  200928  200925      24  200931  200925      24  200931
  200928      25  200937  200934      24  200940  200934      24  200940  200937
      25  200946  200943      24  200949  200943      24  200949  200946      25
  200955  200952      24  200958  200952      24  200958  200955      25  200964
  200961      24  200967  200961      24  200967  200964      25  200973  200970
      24  200976  200970      24  200976  200973      25  200982  200979      24
  200985  200979      24  200985  200982      25  200991  200988      24  200994
  200988      24  200994  200991      25  201000  200997      24  201003  200997
      24  201003  201000      25  201009  201006      24  201012  201006      24
  201012  201009      25  201018  201015      24  201021  201015      24  201021
  201018      25  201027  201024      24  201030  201024      24  201030  201027
      25  201036  201033      24  201039  201033      24  201039  201036      25
  201045  201042      24  201048  201042      24  201048  201045      25  201054
  201051      24  201057  201051      24  201057  201054      25  201063  201060
      24  201066  201060      24  201066  201063      25  201072  201069      24
  201075  201069      24  201075  201072      25  201081  201078      24  201084
  201078      24  201084  201081      25  201090  201087      24  201093  201087
      24  201093  201090      25  201099  201096      24  201102  201096      24
  201102  201099      25  201108  201105      24  201111  201105      24  201111
  201108      25  201117  201114      24  201120  201114      24  201120  201117
      25  201126  201123      24  201129  201123      24  201129  201126      25
  201135  201132      24  201138  201132      24  201138  201135      25  201144
  201141      24  201147  201141      24  201147  201144      25  201153  201150
      24  201156  201150      24  201156  201153      25  201162  201159      24
  201165  201159      24  201165  201162      25  201171  201168      24  201174
  201168      24  201174  201171      25  201180  201177      24  201183  201177
      24  201183  201180      25  201189  201186      24  201192  201186      24
  201192  201189      25  201198  201195      24  201201  201195      24  201201
  201198      25  201207  201204      24  201210  201204      24  201210  201207
      25  201216  201213      24  201219  201213      24  201219  201216      25
  201225  201222      24  201228  201222      24  201228  201225      25  201234
  201231      24  201237  201231      24  201237  201234      25  201243  201240
      24  201246  201240      24  201246  201243      25  201252  201249      24
  201255  201249      24  201255  201252      25  201261  201258      24  201264
  201258      24  201264  201261      25  201270  201267      24  201273  201267
      24  201273  201270      25  201279  201276      24  201282  201276      24
  201282  201279      25  201288  201285      24  201291  201285      24  201291
  201288      25  201297  201294      24  201300  201294      24  201300  201297
      25  201306  201303      24  201309  201303      24  201309  201306      25
  201315  201312      24  201318  201312      24  201318  201315      25  201324
  201321      24  201327  201321      24  201327  201324      25  201333  201330
      24  201336  201330      24  201336  201333      25  201342  201339      24
  201345  201339      24  201345  201342      25  201351  201348      24  201354
  201348      24  201354  201351      25  201360  201357      24  201363  201357
      24  201363  201360      25  201369  201366      24  201372  201366      24
  201372  201369      25  201378  201375      24  201381  201375      24  201381
  201378      25  201387  201384      24  201390  201384      24  201390  201387
      25  201396  201393      24  201399  201393      24  201399  201396      25
  201405  201402      24  201408  201402      24  201408  201405      25  201414
  201411      24  201417  201411      24  201417  201414      25  201423  201420
      24  201426  201420      24  201426  201423      25  201432  201429      24
  201435  201429      24  201435  201432      25  201441  201438      24  201444
  201438      24  201444  201441      25  201450  201447      24  201453  201447
      24  201453  201450      25  201459  201456      24  201462  201456      24
  201462  201459      25  201468  201465      24  201471  201465      24  201471
  201468      25  201477  201474      24  201480  201474      24  201480  201477
      25  201486  201483      24  201489  201483      24  201489  201486      25
  201495  201492      24  201498  201492      24  201498  201495      25  201504
  201501      24  201507  201501      24  201507  201504      25  201513  201510
      24  201516  201510      24  201516  201513      25  201522  201519      24
  201525  201519      24  201525  201522      25  201531  201528      24  201534
  201528      24  201534  201531      25  201540  201537      24  201543  201537
      24  201543  201540      25  201549  201546      24  201552  201546      24
  201552  201549      25  201558  201555      24  201561  201555      24  201561
  201558      25  201567  201564      24  201570  201564      24  201570  201567
      25  201576  201573      24  201579  201573      24  201579  201576      25
  201585  201582      24  201588  201582      24  201588  201585      25  201594
  201591      24  201597  201591      24  201597  201594      25  201603  201600
      24  201606  201600      24  201606  201603      25  201612  201609      24
  201615  201609      24  201615  201612      25  201621  201618      24  201624
  201618      24  201624  201621      25  201630  201627      24  201633  201627
      24  201633  201630      25  201639  201636      24  201642  201636      24
  201642  201639      25  201648  201645      24  201651  201645      24  201651
  201648      25  201657  201654      24  201660  201654      24  201660  201657
      25  201666  201663      24  201669  201663      24  201669  201666      25
  201675  201672      24  201678  201672      24  201678  201675      25  201684
  201681      24  201687  201681      24  201687  201684      25  201693  201690
      24  201696  201690      24  201696  201693      25  201702  201699      24
  201705  201699      24  201705  201702      25  201711  201708      24  201714
  201708      24  201714  201711      25  201720  201717      24  201723  201717
      24  201723  201720      25  201729  201726      24  201732  201726      24
  201732  201729      25  201738  201735      24  201741  201735      24  201741
  201738      25  201747  201744      24  201750  201744      24  201750  201747
      25  201756  201753      24  201759  201753      24  201759  201756      25
  201765  201762      24  201768  201762      24  201768  201765      25  201774
  201771      24  201777  201771      24  201777  201774      25  201783  201780
      24  201786  201780      24  201786  201783      25  201792  201789      24
  201795  201789      24  201795  201792      25  201801  201798      24  201804
  201798      24  201804  201801      25  201810  201807      24  201813  201807
      24  201813  201810      25  201819  201816      24  201822  201816      24
  201822  201819      25  201828  201825      24  201831  201825      24  201831
  201828      25  201837  201834      24  201840  201834      24  201840  201837
      25  201846  201843      24  201849  201843      24  201849  201846      25
  201855  201852      24  201858  201852      24  201858  201855      25  201864
  201861      24  201867  201861      24  201867  201864      25  201873  201870
      24  201876  201870      24  201876  201873      25  201882  201879      24
  201885  201879      24  201885  201882      25  201891  201888      24  201894
  201888      24  201894  201891      25  201900  201897      24  201903  201897
      24  201903  201900      25  201909  201906      24  201912  201906      24
  201912  201909      25  201918  201915      24  201921  201915      24  201921
  201918      25  201927  201924      24  201930  201924      24  201930  201927
      25  201936  201933      24  201939  201933      24  201939  201936      25
  201945  201942      24  201948  201942      24  201948  201945      25  201954
  201951      24  201957  201951      24  201957  201954      25  201963  201960
      24  201966  201960      24  201966  201963      25  201972  201969      24
  201975  201969      24  201975  201972      25  201981  201978      24  201984
  201978      24  201984  201981      25  201990  201987      24  201993  201987
      24  201993  201990      25  201999  201996      24  202002  201996      24
  202002  201999      25  202008  202005      24  202011  202005      24  202011
  202008      25  202017  202014      24  202020  202014      24  202020  202017
      25  202026  202023      24  202029  202023      24  202029  202026      25
  202035  202032      24  202038  202032      24  202038  202035      25  202044
  202041      24  202047  202041      24  202047  202044      25  202053  202050
      24  202056  202050      24  202056  202053      25  202062  202059      24
  202065  202059      24  202065  202062      25  202071  202068      24  202074
  202068      24  202074  202071      25  202080  202077      24  202083  202077
      24  202083  202080      25  202089  202086      24  202092  202086      24
  202092  202089      25  202098  202095      24  202101  202095      24  202101
  202098      25  202107  202104      24  202110  202104      24  202110  202107
      25  202116  202113      24  202119  202113      24  202119  202116      25
  202125  202122      24  202128  202122      24  202128  202125      25  202134
  202131      24  202137  202131      24  202137  202134      25  202143  202140
      24  202146  202140      24  202146  202143      25  202152  202149      24
  202155  202149      24  202155  202152      25  202161  202158      24  202164
  202158      24  202164  202161      25  202170  202167      24  202173  202167
      24  202173  202170      25  202179  202176      24  202182  202176      24
  202182  202179      25  202188  202185      24  202191  202185      24  202191
  202188      25  202197  202194      24  202200  202194      24  202200  202197
      25  202206  202203      24  202209  202203      24  202209  202206      25
  202215  202212      24  202218  202212      24  202218  202215      25  202224
  202221      24  202227  202221      24  202227  202224      25  202233  202230
      24  202236  202230      24  202236  202233      25  202242  202239      24
  202245  202239      24  202245  202242      25  202251  202248      24  202254
  202248      24  202254  202251      25  202260  202257      24  202263  202257
      24  202263  202260      25  202269  202266      24  202272  202266      24
  202272  202269      25  202278  202275      24  202281  202275      24  202281
  202278      25  202287  202284      24  202290  202284      24  202290  202287
      25  202296  202293      24  202299  202293      24  202299  202296      25
  202305  202302      24  202308  202302      24  202308  202305      25  202314
  202311      24  202317  202311      24  202317  202314      25  202323  202320
      24  202326  202320      24  202326  202323      25  202332  202329      24
  202335  202329      24  202335  202332      25  202341  202338      24  202344
  202338      24  202344  202341      25  202350  202347      24  202353  202347
      24  202353  202350      25  202359  202356      24  202362  202356      24
  202362  202359      25  202368  202365      24  202371  202365      24  202371
  202368      25  202377  202374      24  202380  202374      24  202380  202377
      25  202386  202383      24  202389  202383      24  202389  202386      25
  202395  202392      24  202398  202392      24  202398  202395      25  202404
  202401      24  202407  202401      24  202407  202404      25  202413  202410
      24  202416  202410      24  202416  202413      25  202422  202419      24
  202425  202419      24  202425  202422      25  202431  202428      24  202434
  202428      24  202434  202431      25  202440  202437      24  202443  202437
      24  202443  202440      25  202449  202446      24  202452  202446      24
  202452  202449      25  202458  202455      24  202461  202455      24  202461
  202458      25  202467  202464      24  202470  202464      24  202470  202467
      25  202476  202473      24  202479  202473      24  202479  202476      25
  202485  202482      24  202488  202482      24  202488  202485      25  202494
  202491      24  202497  202491      24  202497  202494      25  202503  202500
      24  202506  202500      24  202506  202503      25  202512  202509      24
  202515  202509      24  202515  202512      25  202521  202518      24  202524
  202518      24  202524  202521      25  202530  202527      24  202533  202527
      24  202533  202530      25  202539  202536      24  202542  202536      24
  202542  202539      25  202548  202545      24  202551  202545      24  202551
  202548      25  202557  202554      24  202560  202554      24  202560  202557
      25  202566  202563      24  202569  202563      24  202569  202566      25
  202575  202572      24  202578  202572      24  202578  202575      25  202584
  202581      24  202587  202581      24  202587  202584      25  202593  202590
      24  202596  202590      24  202596  202593      25  202602  202599      24
  202605  202599      24  202605  202602      25  202611  202608      24  202614
  202608      24  202614  202611      25  202620  202617      24  202623  202617
      24  202623  202620      25  202629  202626      24  202632  202626      24
  202632  202629      25  202638  202635      24  202641  202635      24  202641
  202638      25  202647  202644      24  202650  202644      24  202650  202647
      25  202656  202653      24  202659  202653      24  202659  202656      25
  202665  202662      24  202668  202662      24  202668  202665      25  202674
  202671      24  202677  202671      24  202677  202674      25  202683  202680
      24  202686  202680      24  202686  202683      25  202692  202689      24
  202695  202689      24  202695  202692      25  202701  202698      24  202704
  202698      24  202704  202701      25  202710  202707      24  202713  202707
      24  202713  202710      25  202719  202716      24  202722  202716      24
  202722  202719      25  202728  202725      24  202731  202725      24  202731
  202728      25  202737  202734      24  202740  202734      24  202740  202737
      25  202746  202743      24  202749  202743      24  202749  202746      25
  202755  202752      24  202758  202752      24  202758  202755      25  202764
  202761      24  202767  202761      24  202767  202764      25  202773  202770
      24  202776  202770      24  202776  202773      25  202782  202779      24
  202785  202779      24  202785  202782      25  202791  202788      24  202794
  202788      24  202794  202791      25  202800  202797      24  202803  202797
      24  202803  202800      25  202809  202806      24  202812  202806      24
  202812  202809      25  202818  202815      24  202821  202815      24  202821
  202818      25  202827  202824      24  202830  202824      24  202830  202827
      25  202836  202833      24  202839  202833      24  202839  202836      25
  202845  202842      24  202848  202842      24  202848  202845      25  202854
  202851      24  202857  202851      24  202857  202854      25  202863  202860
      24  202866  202860      24  202866  202863      25  202872  202869      24
  202875  202869      24  202875  202872      25  202881  202878      24  202884
  202878      24  202884  202881      25  202890  202887      24  202893  202887
      24  202893  202890      25  202899  202896      24  202902  202896      24
  202902  202899      25  202908  202905      24  202911  202905      24  202911
  202908      25  202917  202914      24  202920  202914      24  202920  202917
      25  202926  202923      24  202929  202923      24  202929  202926      25
  202935  202932      24  202938  202932      24  202938  202935      25  202944
  202941      24  202947  202941      24  202947  202944      25  202953  202950
      24  202956  202950      24  202956  202953      25  202962  202959      24
  202965  202959      24  202965  202962      25  202971  202968      24  202974
  202968      24  202974  202971      25  202980  202977      24  202983  202977
      24  202983  202980      25  202989  202986      24  202992  202986      24
  202992  202989      25  202998  202995      24  203001  202995      24  203001
  202998      25  203007  203004      24  203010  203004      24  203010  203007
      25  203016  203013      24  203019  203013      24  203019  203016      25
  203025  203022      24  203028  203022      24  203028  203025      25  203034
  203031      24  203037  203031      24  203037  203034      25  203043  203040
      24  203046  203040      24  203046  203043      25  203052  203049      24
  203055  203049      24  203055  203052      25  203061  203058      24  203064
  203058      24  203064  203061      25  203070  203067      24  203073  203067
      24  203073  203070      25  203079  203076      24  203082  203076      24
  203082  203079      25  203088  203085      24  203091  203085      24  203091
  203088      25  203097  203094      24  203100  203094      24  203100  203097
      25  203106  203103      24  203109  203103      24  203109  203106      25
  203115  203112      24  203118  203112      24  203118  203115      25  203124
  203121      24  203127  203121      24  203127  203124      25  203133  203130
      24  203136  203130      24  203136  203133      25  203142  203139      24
  203145  203139      24  203145  203142      25  203151  203148      24  203154
  203148      24  203154  203151      25  203160  203157      24  203163  203157
      24  203163  203160      25  203169  203166      24  203172  203166      24
  203172  203169      25  203178  203175      24  203181  203175      24  203181
  203178      25  203187  203184      24  203190  203184      24  203190  203187
      25  203196  203193      24  203199  203193      24  203199  203196      25
  203205  203202      24  203208  203202      24  203208  203205      25  203214
  203211      24  203217  203211      24  203217  203214      25  203223  203220
      24  203226  203220      24  203226  203223      25  203232  203229      24
  203235  203229      24  203235  203232      25  203241  203238      24  203244
  203238      24  203244  203241      25  203250  203247      24  203253  203247
      24  203253  203250      25  203259  203256      24  203262  203256      24
  203262  203259      25  203268  203265      24  203271  203265      24  203271
  203268      25  203277  203274      24  203280  203274      24  203280  203277
      25  203286  203283      24  203289  203283      24  203289  203286      25
  203295  203292      24  203298  203292      24  203298  203295      25  203304
  203301      24  203307  203301      24  203307  203304      25  203313  203310
      24  203316  203310      24  203316  203313      25  203322  203319      24
  203325  203319      24  203325  203322      25  203331  203328      24  203334
  203328      24  203334  203331      25  203340  203337      24  203343  203337
      24  203343  203340      25  203349  203346      24  203352  203346      24
  203352  203349      25  203358  203355      24  203361  203355      24  203361
  203358      25  203367  203364      24  203370  203364      24  203370  203367
      25  203376  203373      24  203379  203373      24  203379  203376      25
  203385  203382      24  203388  203382      24  203388  203385      25  203394
  203391      24  203397  203391      24  203397  203394      25  203403  203400
      24  203406  203400      24  203406  203403      25  203412  203409      24
  203415  203409      24  203415  203412      25  203421  203418      24  203424
  203418      24  203424  203421      25  203430  203427      24  203433  203427
      24  203433  203430      25  203439  203436      24  203442  203436      24
  203442  203439      25  203448  203445      24  203451  203445      24  203451
  203448      25  203457  203454      24  203460  203454      24  203460  203457
      25  203466  203463      24  203469  203463      24  203469  203466      25
  203475  203472      24  203478  203472      24  203478  203475      25  203484
  203481      24  203487  203481      24  203487  203484      25  203493  203490
      24  203496  203490      24  203496  203493      25  203502  203499      24
  203505  203499      24  203505  203502      25  203511  203508      24  203514
  203508      24  203514  203511      25  203520  203517      24  203523  203517
      24  203523  203520      25  203529  203526      24  203532  203526      24
  203532  203529      25  203538  203535      24  203541  203535      24  203541
  203538      25  203547  203544      24  203550  203544      24  203550  203547
      25  203556  203553      24  203559  203553      24  203559  203556      25
  203565  203562      24  203568  203562      24  203568  203565      25  203574
  203571      24  203577  203571      24  203577  203574      25  203583  203580
      24  203586  203580      24  203586  203583      25  203592  203589      24
  203595  203589      24  203595  203592      25  203601  203598      24  203604
  203598      24  203604  203601      25  203610  203607      24  203613  203607
      24  203613  203610      25  203619  203616      24  203622  203616      24
  203622  203619      25  203628  203625      24  203631  203625      24  203631
  203628      25  203637  203634      24  203640  203634      24  203640  203637
      25  203646  203643      24  203649  203643      24  203649  203646      25
  203655  203652      24  203658  203652      24  203658  203655      25  203664
  203661      24  203667  203661      24  203667  203664      25  203673  203670
      24  203676  203670      24  203676  203673      25  203682  203679      24
  203685  203679      24  203685  203682      25  203691  203688      24  203694
  203688      24  203694  203691      25  203700  203697      24  203703  203697
      24  203703  203700      25  203709  203706      24  203712  203706      24
  203712  203709      25  203718  203715      24  203721  203715      24  203721
  203718      25  203727  203724      24  203730  203724      24  203730  203727
      25  203736  203733      24  203739  203733      24  203739  203736      25
  203745  203742      24  203748  203742      24  203748  203745      25  203754
  203751      24  203757  203751      24  203757  203754      25  203763  203760
      24  203766  203760      24  203766  203763      25  203772  203769      24
  203775  203769      24  203775  203772      25  203781  203778      24  203784
  203778      24  203784  203781      25  203790  203787      24  203793  203787
      24  203793  203790      25  203799  203796      24  203802  203796      24
  203802  203799      25  203808  203805      24  203811  203805      24  203811
  203808      25  203817  203814      24  203820  203814      24  203820  203817
      25  203826  203823      24  203829  203823      24  203829  203826      25
  203835  203832      24  203838  203832      24  203838  203835      25  203844
  203841      24  203847  203841      24  203847  203844      25  203853  203850
      24  203856  203850      24  203856  203853      25  203862  203859      24
  203865  203859      24  203865  203862      25  203871  203868      24  203874
  203868      24  203874  203871      25  203880  203877      24  203883  203877
      24  203883  203880      25  203889  203886      24  203892  203886      24
  203892  203889      25  203898  203895      24  203901  203895      24  203901
  203898      25  203907  203904      24  203910  203904      24  203910  203907
      25  203916  203913      24  203919  203913      24  203919  203916      25
  203925  203922      24  203928  203922      24  203928  203925      25  203934
  203931      24  203937  203931      24  203937  203934      25  203943  203940
      24  203946  203940      24  203946  203943      25  203952  203949      24
  203955  203949      24  203955  203952      25  203961  203958      24  203964
  203958      24  203964  203961      25  203970  203967      24  203973  203967
      24  203973  203970      25  203979  203976      24  203982  203976      24
  203982  203979      25  203988  203985      24  203991  203985      24  203991
  203988      25  203997  203994      24  204000  203994      24  204000  203997
      25  204006  204003      24  204009  204003      24  204009  204006      25
  204015  204012      24  204018  204012      24  204018  204015      25  204024
  204021      24  204027  204021      24  204027  204024      25  204033  204030
      24  204036  204030      24  204036  204033      25  204042  204039      24
  204045  204039      24  204045  204042      25  204051  204048      24  204054
  204048      24  204054  204051      25  204060  204057      24  204063  204057
      24  204063  204060      25  204069  204066      24  204072  204066      24
  204072  204069      25  204078  204075      24  204081  204075      24  204081
  204078      25  204087  204084      24  204090  204084      24  204090  204087
      25  204096  204093      24  204099  204093      24  204099  204096      25
  204105  204102      24  204108  204102      24  204108  204105      25  204114
  204111      24  204117  204111      24  204117  204114      25  204123  204120
      24  204126  204120      24  204126  204123      25  204132  204129      24
  204135  204129      24  204135  204132      25  204141  204138      24  204144
  204138      24  204144  204141      25  204150  204147      24  204153  204147
      24  204153  204150      25  204159  204156      24  204162  204156      24
  204162  204159      25  204168  204165      24  204171  204165      24  204171
  204168      25  204177  204174      24  204180  204174      24  204180  204177
      25  204186  204183      24  204189  204183      24  204189  204186      25
  204195  204192      24  204198  204192      24  204198  204195      25  204204
  204201      24  204207  204201      24  204207  204204      25  204213  204210
      24  204216  204210      24  204216  204213      25  204222  204219      24
  204225  204219      24  204225  204222      25  204231  204228      24  204234
  204228      24  204234  204231      25  204240  204237      24  204243  204237
      24  204243  204240      25  204249  204246      24  204252  204246      24
  204252  204249      25  204258  204255      24  204261  204255      24  204261
  204258      25  204267  204264      24  204270  204264      24  204270  204267
      25  204276  204273      24  204279  204273      24  204279  204276      25
  204285  204282      24  204288  204282      24  204288  204285      25  204294
  204291      24  204297  204291      24  204297  204294      25  204303  204300
      24  204306  204300      24  204306  204303      25  204312  204309      24
  204315  204309      24  204315  204312      25  204321  204318      24  204324
  204318      24  204324  204321      25  204330  204327      24  204333  204327
      24  204333  204330      25  204339  204336      24  204342  204336      24
  204342  204339      25  204348  204345      24  204351  204345      24  204351
  204348      25  204357  204354      24  204360  204354      24  204360  204357
      25  204366  204363      24  204369  204363      24  204369  204366      25
  204375  204372      24  204378  204372      24  204378  204375      25  204384
  204381      24  204387  204381      24  204387  204384      25  204393  204390
      24  204396  204390      24  204396  204393      25  204402  204399      24
  204405  204399      24  204405  204402      25  204411  204408      24  204414
  204408      24  204414  204411      25  204420  204417      24  204423  204417
      24  204423  204420      25  204429  204426      24  204432  204426      24
  204432  204429      25  204438  204435      24  204441  204435      24  204441
  204438      25  204447  204444      24  204450  204444      24  204450  204447
      25  204456  204453      24  204459  204453      24  204459  204456      25
  204465  204462      24  204468  204462      24  204468  204465      25  204474
  204471      24  204477  204471      24  204477  204474      25  204483  204480
      24  204486  204480      24  204486  204483      25  204492  204489      24
  204495  204489      24  204495  204492      25  204501  204498      24  204504
  204498      24  204504  204501      25  204510  204507      24  204513  204507
      24  204513  204510      25  204519  204516      24  204522  204516      24
  204522  204519      25  204528  204525      24  204531  204525      24  204531
  204528      25  204537  204534      24  204540  204534      24  204540  204537
      25  204546  204543      24  204549  204543      24  204549  204546      25
  204555  204552      24  204558  204552      24  204558  204555      25  204564
  204561      24  204567  204561      24  204567  204564      25  204573  204570
      24  204576  204570      24  204576  204573      25  204582  204579      24
  204585  204579      24  204585  204582      25  204591  204588      24  204594
  204588      24  204594  204591      25  204600  204597      24  204603  204597
      24  204603  204600      25  204609  204606      24  204612  204606      24
  204612  204609      25  204618  204615      24  204621  204615      24  204621
  204618      25  204627  204624      24  204630  204624      24  204630  204627
      25  204636  204633      24  204639  204633      24  204639  204636      25
  204645  204642      24  204648  204642      24  204648  204645      25  204654
  204651      24  204657  204651      24  204657  204654      25  204663  204660
      24  204666  204660      24  204666  204663      25  204672  204669      24
  204675  204669      24  204675  204672      25  204681  204678      24  204684
  204678      24  204684  204681      25  204690  204687      24  204693  204687
      24  204693  204690      25  204699  204696      24  204702  204696      24
  204702  204699      25  204708  204705      24  204711  204705      24  204711
  204708      25  204717  204714      24  204720  204714      24  204720  204717
      25  204726  204723      24  204729  204723      24  204729  204726      25
  204735  204732      24  204738  204732      24  204738  204735      25  204744
  204741      24  204747  204741      24  204747  204744      25  204753  204750
      24  204756  204750      24  204756  204753      25  204762  204759      24
  204765  204759      24  204765  204762      25  204771  204768      24  204774
  204768      24  204774  204771      25  204780  204777      24  204783  204777
      24  204783  204780      25  204789  204786      24  204792  204786      24
  204792  204789      25  204798  204795      24  204801  204795      24  204801
  204798      25  204807  204804      24  204810  204804      24  204810  204807
      25  204816  204813      24  204819  204813      24  204819  204816      25
  204825  204822      24  204828  204822      24  204828  204825      25  204834
  204831      24  204837  204831      24  204837  204834      25  204843  204840
      24  204846  204840      24  204846  204843      25  204852  204849      24
  204855  204849      24  204855  204852      25  204861  204858      24  204864
  204858      24  204864  204861      25  204870  204867      24  204873  204867
      24  204873  204870      25  204879  204876      24  204882  204876      24
  204882  204879      25  204888  204885      24  204891  204885      24  204891
  204888      25  204897  204894      24  204900  204894      24  204900  204897
      25  204906  204903      24  204909  204903      24  204909  204906      25
  204915  204912      24  204918  204912      24  204918  204915      25  204924
  204921      24  204927  204921      24  204927  204924      25  204933  204930
      24  204936  204930      24  204936  204933      25  204942  204939      24
  204945  204939      24  204945  204942      25  204951  204948      24  204954
  204948      24  204954  204951      25  204960  204957      24  204963  204957
      24  204963  204960      25  204969  204966      24  204972  204966      24
  204972  204969      25  204978  204975      24  204981  204975      24  204981
  204978      25  204987  204984      24  204990  204984      24  204990  204987
      25  204996  204993      24  204999  204993      24  204999  204996      25
  205005  205002      24  205008  205002      24  205008  205005      25  205014
  205011      24  205017  205011      24  205017  205014      25  205023  205020
      24  205026  205020      24  205026  205023      25  205032  205029      24
  205035  205029      24  205035  205032      25  205041  205038      24  205044
  205038      24  205044  205041      25  205050  205047      24  205053  205047
      24  205053  205050      25  205059  205056      24  205062  205056      24
  205062  205059      25  205068  205065      24  205071  205065      24  205071
  205068      25  205077  205074      24  205080  205074      24  205080  205077
      25  205086  205083      24  205089  205083      24  205089  205086      25
  205095  205092      24  205098  205092      24  205098  205095      25  205104
  205101      24  205107  205101      24  205107  205104      25  205113  205110
      24  205116  205110      24  205116  205113      25  205122  205119      24
  205125  205119      24  205125  205122      25  205131  205128      24  205134
  205128      24  205134  205131      25  205140  205137      24  205143  205137
      24  205143  205140      25  205149  205146      24  205152  205146      24
  205152  205149      25  205158  205155      24  205161  205155      24  205161
  205158      25  205167  205164      24  205170  205164      24  205170  205167
      25  205176  205173      24  205179  205173      24  205179  205176      25
  205185  205182      24  205188  205182      24  205188  205185      25  205194
  205191      24  205197  205191      24  205197  205194      25  205203  205200
      24  205206  205200      24  205206  205203      25  205212  205209      24
  205215  205209      24  205215  205212      25  205221  205218      24  205224
  205218      24  205224  205221      25  205230  205227      24  205233  205227
      24  205233  205230      25  205239  205236      24  205242  205236      24
  205242  205239      25  205248  205245      24  205251  205245      24  205251
  205248      25  205257  205254      24  205260  205254      24  205260  205257
      25  205266  205263      24  205269  205263      24  205269  205266      25
  205275  205272      24  205278  205272      24  205278  205275      25  205284
  205281      24  205287  205281      24  205287  205284      25  205293  205290
      24  205296  205290      24  205296  205293      25  205302  205299      24
  205305  205299      24  205305  205302      25  205311  205308      24  205314
  205308      24  205314  205311      25  205320  205317      24  205323  205317
      24  205323  205320      25  205329  205326      24  205332  205326      24
  205332  205329      25  205338  205335      24  205341  205335      24  205341
  205338      25  205347  205344      24  205350  205344      24  205350  205347
      25  205356  205353      24  205359  205353      24  205359  205356      25
  205365  205362      24  205368  205362      24  205368  205365      25  205374
  205371      24  205377  205371      24  205377  205374      25  205383  205380
      24  205386  205380      24  205386  205383      25  205392  205389      24
  205395  205389      24  205395  205392      25  205401  205398      24  205404
  205398      24  205404  205401      25  205410  205407      24  205413  205407
      24  205413  205410      25  205419  205416      24  205422  205416      24
  205422  205419      25  205428  205425      24  205431  205425      24  205431
  205428      25  205437  205434      24  205440  205434      24  205440  205437
      25  205446  205443      24  205449  205443      24  205449  205446      25
  205455  205452      24  205458  205452      24  205458  205455      25  205464
  205461      24  205467  205461      24  205467  205464      25  205473  205470
      24  205476  205470      24  205476  205473      25  205482  205479      24
  205485  205479      24  205485  205482      25  205491  205488      24  205494
  205488      24  205494  205491      25  205500  205497      24  205503  205497
      24  205503  205500      25  205509  205506      24  205512  205506      24
  205512  205509      25  205518  205515      24  205521  205515      24  205521
  205518      25  205527  205524      24  205530  205524      24  205530  205527
      25  205536  205533      24  205539  205533      24  205539  205536      25
  205545  205542      24  205548  205542      24  205548  205545      25  205554
  205551      24  205557  205551      24  205557  205554      25  205563  205560
      24  205566  205560      24  205566  205563      25  205572  205569      24
  205575  205569      24  205575  205572      25  205581  205578      24  205584
  205578      24  205584  205581      25  205590  205587      24  205593  205587
      24  205593  205590      25  205599  205596      24  205602  205596      24
  205602  205599      25  205608  205605      24  205611  205605      24  205611
  205608      25  205617  205614      24  205620  205614      24  205620  205617
      25  205626  205623      24  205629  205623      24  205629  205626      25
  205635  205632      24  205638  205632      24  205638  205635      25  205644
  205641      24  205647  205641      24  205647  205644      25  205653  205650
      24  205656  205650      24  205656  205653      25  205662  205659      24
  205665  205659      24  205665  205662      25  205671  205668      24  205674
  205668      24  205674  205671      25  205680  205677      24  205683  205677
      24  205683  205680      25  205689  205686      24  205692  205686      24
  205692  205689      25  205698  205695      24  205701  205695      24  205701
  205698      25  205707  205704      24  205710  205704      24  205710  205707
      25  205716  205713      24  205719  205713      24  205719  205716      25
  205725  205722      24  205728  205722      24  205728  205725      25  205734
  205731      24  205737  205731      24  205737  205734      25  205743  205740
      24  205746  205740      24  205746  205743      25  205752  205749      24
  205755  205749      24  205755  205752      25  205761  205758      24  205764
  205758      24  205764  205761      25  205770  205767      24  205773  205767
      24  205773  205770      25  205779  205776      24  205782  205776      24
  205782  205779      25  205788  205785      24  205791  205785      24  205791
  205788      25  205797  205794      24  205800  205794      24  205800  205797
      25  205806  205803      24  205809  205803      24  205809  205806      25
  205815  205812      24  205818  205812      24  205818  205815      25  205824
  205821      24  205827  205821      24  205827  205824      25  205833  205830
      24  205836  205830      24  205836  205833      25  205842  205839      24
  205845  205839      24  205845  205842      25  205851  205848      24  205854
  205848      24  205854  205851      25  205860  205857      24  205863  205857
      24  205863  205860      25  205869  205866      24  205872  205866      24
  205872  205869      25  205878  205875      24  205881  205875      24  205881
  205878      25  205887  205884      24  205890  205884      24  205890  205887
      25  205896  205893      24  205899  205893      24  205899  205896      25
  205905  205902      24  205908  205902      24  205908  205905      25  205914
  205911      24  205917  205911      24  205917  205914      25  205923  205920
      24  205926  205920      24  205926  205923      25  205932  205929      24
  205935  205929      24  205935  205932      25  205941  205938      24  205944
  205938      24  205944  205941      25  205950  205947      24  205953  205947
      24  205953  205950      25  205959  205956      24  205962  205956      24
  205962  205959      25  205968  205965      24  205971  205965      24  205971
  205968      25  205977  205974      24  205980  205974      24  205980  205977
      25  205986  205983      24  205989  205983      24  205989  205986      25
  205995  205992      24  205998  205992      24  205998  205995      25  206004
  206001      24  206007  206001      24  206007  206004      25  206013  206010
      24  206016  206010      24  206016  206013      25  206022  206019      24
  206025  206019      24  206025  206022      25  206031  206028      24  206034
  206028      24  206034  206031      25  206040  206037      24  206043  206037
      24  206043  206040      25  206049  206046      24  206052  206046      24
  206052  206049      25  206058  206055      24  206061  206055      24  206061
  206058      25  206067  206064      24  206070  206064      24  206070  206067
      25  206076  206073      24  206079  206073      24  206079  206076      25
  206085  206082      24  206088  206082      24  206088  206085      25  206094
  206091      24  206097  206091      24  206097  206094      25  206103  206100
      24  206106  206100      24  206106  206103      25  206112  206109      24
  206115  206109      24  206115  206112      25  206121  206118      24  206124
  206118      24  206124  206121      25  206130  206127      24  206133  206127
      24  206133  206130      25  206139  206136      24  206142  206136      24
  206142  206139      25  206148  206145      24  206151  206145      24  206151
  206148      25  206157  206154      24  206160  206154      24  206160  206157
      25  206166  206163      24  206169  206163      24  206169  206166      25
  206175  206172      24  206178  206172      24  206178  206175      25  206184
  206181      24  206187  206181      24  206187  206184      25  206193  206190
      24  206196  206190      24  206196  206193      25  206202  206199      24
  206205  206199      24  206205  206202      25  206211  206208      24  206214
  206208      24  206214  206211      25  206220  206217      24  206223  206217
      24  206223  206220      25  206229  206226      24  206232  206226      24
  206232  206229      25  206238  206235      24  206241  206235      24  206241
  206238      25  206247  206244      24  206250  206244      24  206250  206247
      25  206256  206253      24  206259  206253      24  206259  206256      25
  206265  206262      24  206268  206262      24  206268  206265      25  206274
  206271      24  206277  206271      24  206277  206274      25  206283  206280
      24  206286  206280      24  206286  206283      25  206292  206289      24
  206295  206289      24  206295  206292      25  206301  206298      24  206304
  206298      24  206304  206301      25  206310  206307      24  206313  206307
      24  206313  206310      25  206319  206316      24  206322  206316      24
  206322  206319      25  206328  206325      24  206331  206325      24  206331
  206328      25  206337  206334      24  206340  206334      24  206340  206337
      25  206346  206343      24  206349  206343      24  206349  206346      25
  206355  206352      24  206358  206352      24  206358  206355      25  206364
  206361      24  206367  206361      24  206367  206364      25  206373  206370
      24  206376  206370      24  206376  206373      25  206382  206379      24
  206385  206379      24  206385  206382      25  206391  206388      24  206394
  206388      24  206394  206391      25  206400  206397      24  206403  206397
      24  206403  206400      25  206409  206406      24  206412  206406      24
  206412  206409      25  206418  206415      24  206421  206415      24  206421
  206418      25  206427  206424      24  206430  206424      24  206430  206427
      25  206436  206433      24  206439  206433      24  206439  206436      25
  206445  206442      24  206448  206442      24  206448  206445      25  206454
  206451      24  206457  206451      24  206457  206454      25  206463  206460
      24  206466  206460      24  206466  206463      25  206472  206469      24
  206475  206469      24  206475  206472      25  206481  206478      24  206484
  206478      24  206484  206481      25  206490  206487      24  206493  206487
      24  206493  206490      25  206499  206496      24  206502  206496      24
  206502  206499      25  206508  206505      24  206511  206505      24  206511
  206508      25  206517  206514      24  206520  206514      24  206520  206517
      25  206526  206523      24  206529  206523      24  206529  206526      25
  206535  206532      24  206538  206532      24  206538  206535      25  206544
  206541      24  206547  206541      24  206547  206544      25  206553  206550
      24  206556  206550      24  206556  206553      25  206562  206559      24
  206565  206559      24  206565  206562      25  206571  206568      24  206574
  206568      24  206574  206571      25  206580  206577      24  206583  206577
      24  206583  206580      25  206589  206586      24  206592  206586      24
  206592  206589      25  206598  206595      24  206601  206595      24  206601
  206598      25  206607  206604      24  206610  206604      24  206610  206607
      25  206616  206613      24  206619  206613      24  206619  206616      25
  206625  206622      24  206628  206622      24  206628  206625      25  206634
  206631      24  206637  206631      24  206637  206634      25  206643  206640
      24  206646  206640      24  206646  206643      25  206652  206649      24
  206655  206649      24  206655  206652      25  206661  206658      24  206664
  206658      24  206664  206661      25  206670  206667      24  206673  206667
      24  206673  206670      25  206679  206676      24  206682  206676      24
  206682  206679      25  206688  206685      24  206691  206685      24  206691
  206688      25  206697  206694      24  206700  206694      24  206700  206697
      25  206706  206703      24  206709  206703      24  206709  206706      25
  206715  206712      24  206718  206712      24  206718  206715      25  206724
  206721      24  206727  206721      24  206727  206724      25  206733  206730
      24  206736  206730      24  206736  206733      25  206742  206739      24
  206745  206739      24  206745  206742      25  206751  206748      24  206754
  206748      24  206754  206751      25  206760  206757      24  206763  206757
      24  206763  206760      25  206769  206766      24  206772  206766      24
  206772  206769      25  206778  206775      24  206781  206775      24  206781
  206778      25  206787  206784      24  206790  206784      24  206790  206787
      25  206796  206793      24  206799  206793      24  206799  206796      25
  206805  206802      24  206808  206802      24  206808  206805      25  206814
  206811      24  206817  206811      24  206817  206814      25  206823  206820
      24  206826  206820      24  206826  206823      25  206832  206829      24
  206835  206829      24  206835  206832      25  206841  206838      24  206844
  206838      24  206844  206841      25  206850  206847      24  206853  206847
      24  206853  206850      25  206859  206856      24  206862  206856      24
  206862  206859      25  206868  206865      24  206871  206865      24  206871
  206868      25  206877  206874      24  206880  206874      24  206880  206877
      25  206886  206883      24  206889  206883      24  206889  206886      25
  206895  206892      24  206898  206892      24  206898  206895      25  206904
  206901      24  206907  206901      24  206907  206904      25  206913  206910
      24  206916  206910      24  206916  206913      25  206922  206919      24
  206925  206919      24  206925  206922      25  206931  206928      24  206934
  206928      24  206934  206931      25  206940  206937      24  206943  206937
      24  206943  206940      25  206949  206946      24  206952  206946      24
  206952  206949      25  206958  206955      24  206961  206955      24  206961
  206958      25  206967  206964      24  206970  206964      24  206970  206967
      25  206976  206973      24  206979  206973      24  206979  206976      25
  206985  206982      24  206988  206982      24  206988  206985      25  206994
  206991      24  206997  206991      24  206997  206994      25  207003  207000
      24  207006  207000      24  207006  207003      25  207012  207009      24
  207015  207009      24  207015  207012      25  207021  207018      24  207024
  207018      24  207024  207021      25  207030  207027      24  207033  207027
      24  207033  207030      25  207039  207036      24  207042  207036      24
  207042  207039      25  207048  207045      24  207051  207045      24  207051
  207048      25  207057  207054      24  207060  207054      24  207060  207057
      25  207066  207063      24  207069  207063      24  207069  207066      25
  207075  207072      24  207078  207072      24  207078  207075      25  207084
  207081      24  207087  207081      24  207087  207084      25  207093  207090
      24  207096  207090      24  207096  207093      25  207102  207099      24
  207105  207099      24  207105  207102      25  207111  207108      24  207114
  207108      24  207114  207111      25  207120  207117      24  207123  207117
      24  207123  207120      25  207129  207126      24  207132  207126      24
  207132  207129      25  207138  207135      24  207141  207135      24  207141
  207138      25  207147  207144      24  207150  207144      24  207150  207147
      25  207156  207153      24  207159  207153      24  207159  207156      25
  207165  207162      24  207168  207162      24  207168  207165      25  207174
  207171      24  207177  207171      24  207177  207174      25  207183  207180
      24  207186  207180      24  207186  207183      25  207192  207189      24
  207195  207189      24  207195  207192      25  207201  207198      24  207204
  207198      24  207204  207201      25  207210  207207      24  207213  207207
      24  207213  207210      25  207219  207216      24  207222  207216      24
  207222  207219      25  207228  207225      24  207231  207225      24  207231
  207228      25  207237  207234      24  207240  207234      24  207240  207237
      25  207246  207243      24  207249  207243      24  207249  207246      25
  207255  207252      24  207258  207252      24  207258  207255      25  207264
  207261      24  207267  207261      24  207267  207264      25  207273  207270
      24  207276  207270      24  207276  207273      25  207282  207279      24
  207285  207279      24  207285  207282      25  207291  207288      24  207294
  207288      24  207294  207291      25  207300  207297      24  207303  207297
      24  207303  207300      25  207309  207306      24  207312  207306      24
  207312  207309      25  207318  207315      24  207321  207315      24  207321
  207318      25  207327  207324      24  207330  207324      24  207330  207327
      25  207336  207333      24  207339  207333      24  207339  207336      25
  207345  207342      24  207348  207342      24  207348  207345      25  207354
  207351      24  207357  207351      24  207357  207354      25  207363  207360
      24  207366  207360      24  207366  207363      25  207372  207369      24
  207375  207369      24  207375  207372      25  207381  207378      24  207384
  207378      24  207384  207381      25  207390  207387      24  207393  207387
      24  207393  207390      25  207399  207396      24  207402  207396      24
  207402  207399      25  207408  207405      24  207411  207405      24  207411
  207408      25  207417  207414      24  207420  207414      24  207420  207417
      25  207426  207423      24  207429  207423      24  207429  207426      25
  207435  207432      24  207438  207432      24  207438  207435      25  207444
  207441      24  207447  207441      24  207447  207444      25  207453  207450
      24  207456  207450      24  207456  207453      25  207462  207459      24
  207465  207459      24  207465  207462      25  207471  207468      24  207474
  207468      24  207474  207471      25  207480  207477      24  207483  207477
      24  207483  207480      25  207489  207486      24  207492  207486      24
  207492  207489      25  207498  207495      24  207501  207495      24  207501
  207498      25  207507  207504      24  207510  207504      24  207510  207507
      25  207516  207513      24  207519  207513      24  207519  207516      25
  207525  207522      24  207528  207522      24  207528  207525      25  207534
  207531      24  207537  207531      24  207537  207534      25  207543  207540
      24  207546  207540      24  207546  207543      25  207552  207549      24
  207555  207549      24  207555  207552      25  207561  207558      24  207564
  207558      24  207564  207561      25  207570  207567      24  207573  207567
      24  207573  207570      25  207579  207576      24  207582  207576      24
  207582  207579      25  207588  207585      24  207591  207585      24  207591
  207588      25  207597  207594      24  207600  207594      24  207600  207597
      25  207606  207603      24  207609  207603      24  207609  207606      25
  207615  207612      24  207618  207612      24  207618  207615      25  207624
  207621      24  207627  207621      24  207627  207624      25  207633  207630
      24  207636  207630      24  207636  207633      25  207642  207639      24
  207645  207639      24  207645  207642      25  207651  207648      24  207654
  207648      24  207654  207651      25  207660  207657      24  207663  207657
      24  207663  207660      25  207669  207666      24  207672  207666      24
  207672  207669      25  207678  207675      24  207681  207675      24  207681
  207678      25  207687  207684      24  207690  207684      24  207690  207687
      25  207696  207693      24  207699  207693      24  207699  207696      25
  207705  207702      24  207708  207702      24  207708  207705      25  207714
  207711      24  207717  207711      24  207717  207714      25  207723  207720
      24  207726  207720      24  207726  207723      25  207732  207729      24
  207735  207729      24  207735  207732      25  207741  207738      24  207744
  207738      24  207744  207741      25  207750  207747      24  207753  207747
      24  207753  207750      25  207759  207756      24  207762  207756      24
  207762  207759      25  207768  207765      24  207771  207765      24  207771
  207768      25  207777  207774      24  207780  207774      24  207780  207777
      25  207786  207783      24  207789  207783      24  207789  207786      25
  207795  207792      24  207798  207792      24  207798  207795      25  207804
  207801      24  207807  207801      24  207807  207804      25  207813  207810
      24  207816  207810      24  207816  207813      25  207822  207819      24
  207825  207819      24  207825  207822      25  207831  207828      24  207834
  207828      24  207834  207831      25  207840  207837      24  207843  207837
      24  207843  207840      25  207849  207846      24  207852  207846      24
  207852  207849      25  207858  207855      24  207861  207855      24  207861
  207858      25  207867  207864      24  207870  207864      24  207870  207867
      25  207876  207873      24  207879  207873      24  207879  207876      25
  207885  207882      24  207888  207882      24  207888  207885      25  207894
  207891      24  207897  207891      24  207897  207894      25  207903  207900
      24  207906  207900      24  207906  207903      25  207912  207909      24
  207915  207909      24  207915  207912      25  207921  207918      24  207924
  207918      24  207924  207921      25  207930  207927      24  207933  207927
      24  207933  207930      25  207939  207936      24  207942  207936      24
  207942  207939      25  207948  207945      24  207951  207945      24  207951
  207948      25  207957  207954      24  207960  207954      24  207960  207957
      25  207966  207963      24  207969  207963      24  207969  207966      25
  207975  207972      24  207978  207972      24  207978  207975      25  207984
  207981      24  207987  207981      24  207987  207984      25  207993  207990
      24  207996  207990      24  207996  207993      25  208002  207999      24
  208005  207999      24  208005  208002      25  208011  208008      24  208014
  208008      24  208014  208011      25  208020  208017      24  208023  208017
      24  208023  208020      25  208029  208026      24  208032  208026      24
  208032  208029      25  208038  208035      24  208041  208035      24  208041
  208038      25  208047  208044      24  208050  208044      24  208050  208047
      25  208056  208053      24  208059  208053      24  208059  208056      25
  208065  208062      24  208068  208062      24  208068  208065      25  208074
  208071      24  208077  208071      24  208077  208074      25  208083  208080
      24  208086  208080      24  208086  208083      25  208092  208089      24
  208095  208089      24  208095  208092      25  208101  208098      24  208104
  208098      24  208104  208101      25  208110  208107      24  208113  208107
      24  208113  208110      25  208119  208116      24  208122  208116      24
  208122  208119      25  208128  208125      24  208131  208125      24  208131
  208128      25  208137  208134      24  208140  208134      24  208140  208137
      25  208146  208143      24  208149  208143      24  208149  208146      25
  208155  208152      24  208158  208152      24  208158  208155      25  208164
  208161      24  208167  208161      24  208167  208164      25  208173  208170
      24  208176  208170      24  208176  208173      25  208182  208179      24
  208185  208179      24  208185  208182      25  208191  208188      24  208194
  208188      24  208194  208191      25  208200  208197      24  208203  208197
      24  208203  208200      25  208209  208206      24  208212  208206      24
  208212  208209      25  208218  208215      24  208221  208215      24  208221
  208218      25  208227  208224      24  208230  208224      24  208230  208227
      25  208236  208233      24  208239  208233      24  208239  208236      25
  208245  208242      24  208248  208242      24  208248  208245      25  208254
  208251      24  208257  208251      24  208257  208254      25  208263  208260
      24  208266  208260      24  208266  208263      25  208272  208269      24
  208275  208269      24  208275  208272      25  208281  208278      24  208284
  208278      24  208284  208281      25  208290  208287      24  208293  208287
      24  208293  208290      25  208299  208296      24  208302  208296      24
  208302  208299      25  208308  208305      24  208311  208305      24  208311
  208308      25  208317  208314      24  208320  208314      24  208320  208317
      25  208326  208323      24  208329  208323      24  208329  208326      25
  208335  208332      24  208338  208332      24  208338  208335      25  208344
  208341      24  208347  208341      24  208347  208344      25  208353  208350
      24  208356  208350      24  208356  208353      25  208362  208359      24
  208365  208359      24  208365  208362      25  208371  208368      24  208374
  208368      24  208374  208371      25  208380  208377      24  208383  208377
      24  208383  208380      25  208389  208386      24  208392  208386      24
  208392  208389      25  208398  208395      24  208401  208395      24  208401
  208398      25  208407  208404      24  208410  208404      24  208410  208407
      25  208416  208413      24  208419  208413      24  208419  208416      25
  208425  208422      24  208428  208422      24  208428  208425      25  208434
  208431      24  208437  208431      24  208437  208434      25  208443  208440
      24  208446  208440      24  208446  208443      25  208452  208449      24
  208455  208449      24  208455  208452      25  208461  208458      24  208464
  208458      24  208464  208461      25  208470  208467      24  208473  208467
      24  208473  208470      25  208479  208476      24  208482  208476      24
  208482  208479      25  208488  208485      24  208491  208485      24  208491
  208488      25  208497  208494      24  208500  208494      24  208500  208497
      25  208506  208503      24  208509  208503      24  208509  208506      25
  208515  208512      24  208518  208512      24  208518  208515      25  208524
  208521      24  208527  208521      24  208527  208524      25  208533  208530
      24  208536  208530      24  208536  208533      25  208542  208539      24
  208545  208539      24  208545  208542      25  208551  208548      24  208554
  208548      24  208554  208551      25  208560  208557      24  208563  208557
      24  208563  208560      25  208569  208566      24  208572  208566      24
  208572  208569      25  208578  208575      24  208581  208575      24  208581
  208578      25  208587  208584      24  208590  208584      24  208590  208587
      25  208596  208593      24  208599  208593      24  208599  208596      25
  208605  208602      24  208608  208602      24  208608  208605      25  208614
  208611      24  208617  208611      24  208617  208614      25  208623  208620
      24  208626  208620      24  208626  208623      25  208632  208629      24
  208635  208629      24  208635  208632      25  208641  208638      24  208644
  208638      24  208644  208641      25  208650  208647      24  208653  208647
      24  208653  208650      25  208659  208656      24  208662  208656      24
  208662  208659      25  208668  208665      24  208671  208665      24  208671
  208668      25  208677  208674      24  208680  208674      24  208680  208677
      25  208686  208683      24  208689  208683      24  208689  208686      25
  208695  208692      24  208698  208692      24  208698  208695      25  208704
  208701      24  208707  208701      24  208707  208704      25  208713  208710
      24  208716  208710      24  208716  208713      25  208722  208719      24
  208725  208719      24  208725  208722      25  208731  208728      24  208734
  208728      24  208734  208731      25  208740  208737      24  208743  208737
      24  208743  208740      25  208749  208746      24  208752  208746      24
  208752  208749      25  208758  208755      24  208761  208755      24  208761
  208758      25  208767  208764      24  208770  208764      24  208770  208767
      25  208776  208773      24  208779  208773      24  208779  208776      25
  208785  208782      24  208788  208782      24  208788  208785      25  208794
  208791      24  208797  208791      24  208797  208794      25  208803  208800
      24  208806  208800      24  208806  208803      25  208812  208809      24
  208815  208809      24  208815  208812      25  208821  208818      24  208824
  208818      24  208824  208821      25  208830  208827      24  208833  208827
      24  208833  208830      25  208839  208836      24  208842  208836      24
  208842  208839      25  208848  208845      24  208851  208845      24  208851
  208848      25  208857  208854      24  208860  208854      24  208860  208857
      25  208866  208863      24  208869  208863      24  208869  208866      25
  208875  208872      24  208878  208872      24  208878  208875      25  208884
  208881      24  208887  208881      24  208887  208884      25  208893  208890
      24  208896  208890      24  208896  208893      25  208902  208899      24
  208905  208899      24  208905  208902      25  208911  208908      24  208914
  208908      24  208914  208911      25  208920  208917      24  208923  208917
      24  208923  208920      25  208929  208926      24  208932  208926      24
  208932  208929      25  208938  208935      24  208941  208935      24  208941
  208938      25  208947  208944      24  208950  208944      24  208950  208947
      25  208956  208953      24  208959  208953      24  208959  208956      25
  208965  208962      24  208968  208962      24  208968  208965      25  208974
  208971      24  208977  208971      24  208977  208974      25  208983  208980
      24  208986  208980      24  208986  208983      25  208992  208989      24
  208995  208989      24  208995  208992      25  209001  208998      24  209004
  208998      24  209004  209001      25  209010  209007      24  209013  209007
      24  209013  209010      25  209019  209016      24  209022  209016      24
  209022  209019      25  209028  209025      24  209031  209025      24  209031
  209028      25  209037  209034      24  209040  209034      24  209040  209037
      25  209046  209043      24  209049  209043      24  209049  209046      25
  209055  209052      24  209058  209052      24  209058  209055      25  209064
  209061      24  209067  209061      24  209067  209064      25  209073  209070
      24  209076  209070      24  209076  209073      25  209082  209079      24
  209085  209079      24  209085  209082      25  209091  209088      24  209094
  209088      24  209094  209091      25  209100  209097      24  209103  209097
      24  209103  209100      25  209109  209106      24  209112  209106      24
  209112  209109      25  209118  209115      24  209121  209115      24  209121
  209118      25  209127  209124      24  209130  209124      24  209130  209127
      25  209136  209133      24  209139  209133      24  209139  209136      25
  209145  209142      24  209148  209142      24  209148  209145      25  209154
  209151      24  209157  209151      24  209157  209154      25  209163  209160
      24  209166  209160      24  209166  209163      25  209172  209169      24
  209175  209169      24  209175  209172      25  209181  209178      24  209184
  209178      24  209184  209181      25  209190  209187      24  209193  209187
      24  209193  209190      25  209199  209196      24  209202  209196      24
  209202  209199      25  209208  209205      24  209211  209205      24  209211
  209208      25  209217  209214      24  209220  209214      24  209220  209217
      25  209226  209223      24  209229  209223      24  209229  209226      25
  209235  209232      24  209238  209232      24  209238  209235      25  209244
  209241      24  209247  209241      24  209247  209244      25  209253  209250
      24  209256  209250      24  209256  209253      25  209262  209259      24
  209265  209259      24  209265  209262      25  209271  209268      24  209274
  209268      24  209274  209271      25  209280  209277      24  209283  209277
      24  209283  209280      25  209289  209286      24  209292  209286      24
  209292  209289      25  209298  209295      24  209301  209295      24  209301
  209298      25  209307  209304      24  209310  209304      24  209310  209307
      25  209316  209313      24  209319  209313      24  209319  209316      25
  209325  209322      24  209328  209322      24  209328  209325      25  209334
  209331      24  209337  209331      24  209337  209334      25  209343  209340
      24  209346  209340      24  209346  209343      25  209352  209349      24
  209355  209349      24  209355  209352      25  209361  209358      24  209364
  209358      24  209364  209361      25  209370  209367      24  209373  209367
      24  209373  209370      25  209379  209376      24  209382  209376      24
  209382  209379      25  209388  209385      24  209391  209385      24  209391
  209388      25  209397  209394      24  209400  209394      24  209400  209397
      25  209406  209403      24  209409  209403      24  209409  209406      25
  209415  209412      24  209418  209412      24  209418  209415      25  209424
  209421      24  209427  209421      24  209427  209424      25  209433  209430
      24  209436  209430      24  209436  209433      25  209442  209439      24
  209445  209439      24  209445  209442      25  209451  209448      24  209454
  209448      24  209454  209451      25  209460  209457      24  209463  209457
      24  209463  209460      25  209469  209466      24  209472  209466      24
  209472  209469      25  209478  209475      24  209481  209475      24  209481
  209478      25  209487  209484      24  209490  209484      24  209490  209487
      25  209496  209493      24  209499  209493      24  209499  209496      25
  209505  209502      24  209508  209502      24  209508  209505      25  209514
  209511      24  209517  209511      24  209517  209514      25  209523  209520
      24  209526  209520      24  209526  209523      25  209532  209529      24
  209535  209529      24  209535  209532      25  209541  209538      24  209544
  209538      24  209544  209541      25  209550  209547      24  209553  209547
      24  209553  209550      25  209559  209556      24  209562  209556      24
  209562  209559      25  209568  209565      24  209571  209565      24  209571
  209568      25  209577  209574      24  209580  209574      24  209580  209577
      25  209586  209583      24  209589  209583      24  209589  209586      25
  209595  209592      24  209598  209592      24  209598  209595      25  209604
  209601      24  209607  209601      24  209607  209604      25  209613  209610
      24  209616  209610      24  209616  209613      25  209622  209619      24
  209625  209619      24  209625  209622      25  209631  209628      24  209634
  209628      24  209634  209631      25  209640  209637      24  209643  209637
      24  209643  209640      25  209649  209646      24  209652  209646      24
  209652  209649      25  209658  209655      24  209661  209655      24  209661
  209658      25  209667  209664      24  209670  209664      24  209670  209667
      25  209676  209673      24  209679  209673      24  209679  209676      25
  209685  209682      24  209688  209682      24  209688  209685      25  209694
  209691      24  209697  209691      24  209697  209694      25  209703  209700
      24  209706  209700      24  209706  209703      25  209712  209709      24
  209715  209709      24  209715  209712      25  209721  209718      24  209724
  209718      24  209724  209721      25  209730  209727      24  209733  209727
      24  209733  209730      25  209739  209736      24  209742  209736      24
  209742  209739      25  209748  209745      24  209751  209745      24  209751
  209748      25  209757  209754      24  209760  209754      24  209760  209757
      25  209766  209763      24  209769  209763      24  209769  209766      25
  209775  209772      24  209778  209772      24  209778  209775      25  209784
  209781      24  209787  209781      24  209787  209784      25  209793  209790
      24  209796  209790      24  209796  209793      25  209802  209799      24
  209805  209799      24  209805  209802      25  209811  209808      24  209814
  209808      24  209814  209811      25  209820  209817      24  209823  209817
      24  209823  209820      25  209829  209826      24  209832  209826      24
  209832  209829      25  209838  209835      24  209841  209835      24  209841
  209838      25  209847  209844      24  209850  209844      24  209850  209847
      25  209856  209853      24  209859  209853      24  209859  209856      25
  209865  209862      24  209868  209862      24  209868  209865      25  209874
  209871      24  209877  209871      24  209877  209874      25  209883  209880
      24  209886  209880      24  209886  209883      25  209892  209889      24
  209895  209889      24  209895  209892      25  209901  209898      24  209904
  209898      24  209904  209901      25  209910  209907      24  209913  209907
      24  209913  209910      25  209919  209916      24  209922  209916      24
  209922  209919      25  209928  209925      24  209931  209925      24  209931
  209928      25  209937  209934      24  209940  209934      24  209940  209937
      25  209946  209943      24  209949  209943      24  209949  209946      25
  209955  209952      24  209958  209952      24  209958  209955      25  209964
  209961      24  209967  209961      24  209967  209964      25  209973  209970
      24  209976  209970      24  209976  209973      25  209982  209979      24
  209985  209979      24  209985  209982      25  209991  209988      24  209994
  209988      24  209994  209991      25  210000  209997      24  210003  209997
      24  210003  210000      25  210009  210006      24  210012  210006      24
  210012  210009      25  210018  210015      24  210021  210015      24  210021
  210018      25  210027  210024      24  210030  210024      24  210030  210027
      25  210036  210033      24  210039  210033      24  210039  210036      25
  210045  210042      24  210048  210042      24  210048  210045      25  210054
  210051      24  210057  210051      24  210057  210054      25  210063  210060
      24  210066  210060      24  210066  210063      25  210072  210069      24
  210075  210069      24  210075  210072      25  210081  210078      24  210084
  210078      24  210084  210081      25  210090  210087      24  210093  210087
      24  210093  210090      25  210099  210096      24  210102  210096      24
  210102  210099      25  210108  210105      24  210111  210105      24  210111
  210108      25  210117  210114      24  210120  210114      24  210120  210117
      25  210126  210123      24  210129  210123      24  210129  210126      25
  210135  210132      24  210138  210132      24  210138  210135      25  210144
  210141      24  210147  210141      24  210147  210144      25  210153  210150
      24  210156  210150      24  210156  210153      25  210162  210159      24
  210165  210159      24  210165  210162      25  210171  210168      24  210174
  210168      24  210174  210171      25  210180  210177      24  210183  210177
      24  210183  210180      25  210189  210186      24  210192  210186      24
  210192  210189      25  210198  210195      24  210201  210195      24  210201
  210198      25  210207  210204      24  210210  210204      24  210210  210207
      25  210216  210213      24  210219  210213      24  210219  210216      25
  210225  210222      24  210228  210222      24  210228  210225      25  210234
  210231      24  210237  210231      24  210237  210234      25  210243  210240
      24  210246  210240      24  210246  210243      25  210252  210249      24
  210255  210249      24  210255  210252      25  210261  210258      24  210264
  210258      24  210264  210261      25  210270  210267      24  210273  210267
      24  210273  210270      25  210279  210276      24  210282  210276      24
  210282  210279      25  210288  210285      24  210291  210285      24  210291
  210288      25  210297  210294      24  210300  210294      24  210300  210297
      25  210306  210303      24  210309  210303      24  210309  210306      25
  210315  210312      24  210318  210312      24  210318  210315      25  210324
  210321      24  210327  210321      24  210327  210324      25  210333  210330
      24  210336  210330      24  210336  210333      25  210342  210339      24
  210345  210339      24  210345  210342      25  210351  210348      24  210354
  210348      24  210354  210351      25  210360  210357      24  210363  210357
      24  210363  210360      25  210369  210366      24  210372  210366      24
  210372  210369      25  210378  210375      24  210381  210375      24  210381
  210378      25  210387  210384      24  210390  210384      24  210390  210387
      25  210396  210393      24  210399  210393      24  210399  210396      25
  210405  210402      24  210408  210402      24  210408  210405      25  210414
  210411      24  210417  210411      24  210417  210414      25  210423  210420
      24  210426  210420      24  210426  210423      25  210432  210429      24
  210435  210429      24  210435  210432      25  210441  210438      24  210444
  210438      24  210444  210441      25  210450  210447      24  210453  210447
      24  210453  210450      25  210459  210456      24  210462  210456      24
  210462  210459      25  210468  210465      24  210471  210465      24  210471
  210468      25  210477  210474      24  210480  210474      24  210480  210477
      25  210486  210483      24  210489  210483      24  210489  210486      25
  210495  210492      24  210498  210492      24  210498  210495      25  210504
  210501      24  210507  210501      24  210507  210504      25  210513  210510
      24  210516  210510      24  210516  210513      25  210522  210519      24
  210525  210519      24  210525  210522      25  210531  210528      24  210534
  210528      24  210534  210531      25  210540  210537      24  210543  210537
      24  210543  210540      25  210549  210546      24  210552  210546      24
  210552  210549      25  210558  210555      24  210561  210555      24  210561
  210558      25  210567  210564      24  210570  210564      24  210570  210567
      25  210576  210573      24  210579  210573      24  210579  210576      25
  210585  210582      24  210588  210582      24  210588  210585      25  210594
  210591      24  210597  210591      24  210597  210594      25  210603  210600
      24  210606  210600      24  210606  210603      25  210612  210609      24
  210615  210609      24  210615  210612      25  210621  210618      24  210624
  210618      24  210624  210621      25  210630  210627      24  210633  210627
      24  210633  210630      25  210639  210636      24  210642  210636      24
  210642  210639      25  210648  210645      24  210651  210645      24  210651
  210648      25  210657  210654      24  210660  210654      24  210660  210657
      25  210666  210663      24  210669  210663      24  210669  210666      25
  210675  210672      24  210678  210672      24  210678  210675      25  210684
  210681      24  210687  210681      24  210687  210684      25  210693  210690
      24  210696  210690      24  210696  210693      25  210702  210699      24
  210705  210699      24  210705  210702      25  210711  210708      24  210714
  210708      24  210714  210711      25  210720  210717      24  210723  210717
      24  210723  210720      25  210729  210726      24  210732  210726      24
  210732  210729      25  210738  210735      24  210741  210735      24  210741
  210738      25  210747  210744      24  210750  210744      24  210750  210747
      25  210756  210753      24  210759  210753      24  210759  210756      25
  210765  210762      24  210768  210762      24  210768  210765      25  210774
  210771      24  210777  210771      24  210777  210774      25  210783  210780
      24  210786  210780      24  210786  210783      25  210792  210789      24
  210795  210789      24  210795  210792      25  210801  210798      24  210804
  210798      24  210804  210801      25  210810  210807      24  210813  210807
      24  210813  210810      25  210819  210816      24  210822  210816      24
  210822  210819      25  210828  210825      24  210831  210825      24  210831
  210828      25  210837  210834      24  210840  210834      24  210840  210837
      25  210846  210843      24  210849  210843      24  210849  210846      25
  210855  210852      24  210858  210852      24  210858  210855      25  210864
  210861      24  210867  210861      24  210867  210864      25  210873  210870
      24  210876  210870      24  210876  210873      25  210882  210879      24
  210885  210879      24  210885  210882      25  210891  210888      24  210894
  210888      24  210894  210891      25  210900  210897      24  210903  210897
      24  210903  210900      25  210909  210906      24  210912  210906      24
  210912  210909      25  210918  210915      24  210921  210915      24  210921
  210918      25  210927  210924      24  210930  210924      24  210930  210927
      25  210936  210933      24  210939  210933      24  210939  210936      25
  210945  210942      24  210948  210942      24  210948  210945      25  210954
  210951      24  210957  210951      24  210957  210954      25  210963  210960
      24  210966  210960      24  210966  210963      25  210972  210969      24
  210975  210969      24  210975  210972      25  210981  210978      24  210984
  210978      24  210984  210981      25  210990  210987      24  210993  210987
      24  210993  210990      25  210999  210996      24  211002  210996      24
  211002  210999      25  211008  211005      24  211011  211005      24  211011
  211008      25  211017  211014      24  211020  211014      24  211020  211017
      25  211026  211023      24  211029  211023      24  211029  211026      25
  211035  211032      24  211038  211032      24  211038  211035      25  211044
  211041      24  211047  211041      24  211047  211044      25  211053  211050
      24  211056  211050      24  211056  211053      25  211062  211059      24
  211065  211059      24  211065  211062      25  211071  211068      24  211074
  211068      24  211074  211071      25  211080  211077      24  211083  211077
      24  211083  211080      25  211089  211086      24  211092  211086      24
  211092  211089      25  211098  211095      24  211101  211095      24  211101
  211098      25  211107  211104      24  211110  211104      24  211110  211107
      25  211116  211113      24  211119  211113      24  211119  211116      25
  211125  211122      24  211128  211122      24  211128  211125      25  211134
  211131      24  211137  211131      24  211137  211134      25  211143  211140
      24  211146  211140      24  211146  211143      25  211152  211149      24
  211155  211149      24  211155  211152      25  211161  211158      24  211164
  211158      24  211164  211161      25  211170  211167      24  211173  211167
      24  211173  211170      25  211179  211176      24  211182  211176      24
  211182  211179      25  211188  211185      24  211191  211185      24  211191
  211188      25  211197  211194      24  211200  211194      24  211200  211197
      25  211206  211203      24  211209  211203      24  211209  211206      25
  211215  211212      24  211218  211212      24  211218  211215      25  211224
  211221      24  211227  211221      24  211227  211224      25  211233  211230
      24  211236  211230      24  211236  211233      25  211242  211239      24
  211245  211239      24  211245  211242      25  211251  211248      24  211254
  211248      24  211254  211251      25  211260  211257      24  211263  211257
      24  211263  211260      25  211269  211266      24  211272  211266      24
  211272  211269      25  211278  211275      24  211281  211275      24  211281
  211278      25  211287  211284      24  211290  211284      24  211290  211287
      25  211296  211293      24  211299  211293      24  211299  211296      25
  211305  211302      24  211308  211302      24  211308  211305      25  211314
  211311      24  211317  211311      24  211317  211314      25  211323  211320
      24  211326  211320      24  211326  211323      25  211332  211329      24
  211335  211329      24  211335  211332      25  211341  211338      24  211344
  211338      24  211344  211341      25  211350  211347      24  211353  211347
      24  211353  211350      25  211359  211356      24  211362  211356      24
  211362  211359      25  211368  211365      24  211371  211365      24  211371
  211368      25  211377  211374      24  211380  211374      24  211380  211377
      25  211386  211383      24  211389  211383      24  211389  211386      25
  211395  211392      24  211398  211392      24  211398  211395      25  211404
  211401      24  211407  211401      24  211407  211404      25  211413  211410
      24  211416  211410      24  211416  211413      25  211422  211419      24
  211425  211419      24  211425  211422      25  211431  211428      24  211434
  211428      24  211434  211431      25  211440  211437      24  211443  211437
      24  211443  211440      25  211449  211446      24  211452  211446      24
  211452  211449      25  211458  211455      24  211461  211455      24  211461
  211458      25  211467  211464      24  211470  211464      24  211470  211467
      25  211476  211473      24  211479  211473      24  211479  211476      25
  211485  211482      24  211488  211482      24  211488  211485      25  211494
  211491      24  211497  211491      24  211497  211494      25  211503  211500
      24  211506  211500      24  211506  211503      25  211512  211509      24
  211515  211509      24  211515  211512      25  211521  211518      24  211524
  211518      24  211524  211521      25  211530  211527      24  211533  211527
      24  211533  211530      25  211539  211536      24  211542  211536      24
  211542  211539      25  211548  211545      24  211551  211545      24  211551
  211548      25  211557  211554      24  211560  211554      24  211560  211557
      25  211566  211563      24  211569  211563      24  211569  211566      25
  211575  211572      24  211578  211572      24  211578  211575      25  211584
  211581      24  211587  211581      24  211587  211584      25  211593  211590
      24  211596  211590      24  211596  211593      25  211602  211599      24
  211605  211599      24  211605  211602      25  211611  211608      24  211614
  211608      24  211614  211611      25  211620  211617      24  211623  211617
      24  211623  211620      25  211629  211626      24  211632  211626      24
  211632  211629      25  211638  211635      24  211641  211635      24  211641
  211638      25  211647  211644      24  211650  211644      24  211650  211647
      25  211656  211653      24  211659  211653      24  211659  211656      25
  211665  211662      24  211668  211662      24  211668  211665      25  211674
  211671      24  211677  211671      24  211677  211674      25  211683  211680
      24  211686  211680      24  211686  211683      25  211692  211689      24
  211695  211689      24  211695  211692      25  211701  211698      24  211704
  211698      24  211704  211701      25  211710  211707      24  211713  211707
      24  211713  211710      25  211719  211716      24  211722  211716      24
  211722  211719      25  211728  211725      24  211731  211725      24  211731
  211728      25  211737  211734      24  211740  211734      24  211740  211737
      25  211746  211743      24  211749  211743      24  211749  211746      25
  211755  211752      24  211758  211752      24  211758  211755      25  211764
  211761      24  211767  211761      24  211767  211764      25  211773  211770
      24  211776  211770      24  211776  211773      25  211782  211779      24
  211785  211779      24  211785  211782      25  211791  211788      24  211794
  211788      24  211794  211791      25  211800  211797      24  211803  211797
      24  211803  211800      25  211809  211806      24  211812  211806      24
  211812  211809      25  211818  211815      24  211821  211815      24  211821
  211818      25  211827  211824      24  211830  211824      24  211830  211827
      25  211836  211833      24  211839  211833      24  211839  211836      25
  211845  211842      24  211848  211842      24  211848  211845      25  211854
  211851      24  211857  211851      24  211857  211854      25  211863  211860
      24  211866  211860      24  211866  211863      25  211872  211869      24
  211875  211869      24  211875  211872      25  211881  211878      24  211884
  211878      24  211884  211881      25  211890  211887      24  211893  211887
      24  211893  211890      25  211899  211896      24  211902  211896      24
  211902  211899      25  211908  211905      24  211911  211905      24  211911
  211908      25  211917  211914      24  211920  211914      24  211920  211917
      25  211926  211923      24  211929  211923      24  211929  211926      25
  211935  211932      24  211938  211932      24  211938  211935      25  211944
  211941      24  211947  211941      24  211947  211944      25  211953  211950
      24  211956  211950      24  211956  211953      25  211962  211959      24
  211965  211959      24  211965  211962      25  211971  211968      24  211974
  211968      24  211974  211971      25  211980  211977      24  211983  211977
      24  211983  211980      25  211989  211986      24  211992  211986      24
  211992  211989      25  211998  211995      24  212001  211995      24  212001
  211998      25  212007  212004      24  212010  212004      24  212010  212007
      25  212016  212013      24  212019  212013      24  212019  212016      25
  212025  212022      24  212028  212022      24  212028  212025      25  212034
  212031      24  212037  212031      24  212037  212034      25  212043  212040
      24  212046  212040      24  212046  212043      25  212052  212049      24
  212055  212049      24  212055  212052      25  212061  212058      24  212064
  212058      24  212064  212061      25  212070  212067      24  212073  212067
      24  212073  212070      25  212079  212076      24  212082  212076      24
  212082  212079      25  212088  212085      24  212091  212085      24  212091
  212088      25  212097  212094      24  212100  212094      24  212100  212097
      25  212106  212103      24  212109  212103      24  212109  212106      25
  212115  212112      24  212118  212112      24  212118  212115      25  212124
  212121      24  212127  212121      24  212127  212124      25  212133  212130
      24  212136  212130      24  212136  212133      25  212142  212139      24
  212145  212139      24  212145  212142      25  212151  212148      24  212154
  212148      24  212154  212151      25  212160  212157      24  212163  212157
      24  212163  212160      25  212169  212166      24  212172  212166      24
  212172  212169      25  212178  212175      24  212181  212175      24  212181
  212178      25  212187  212184      24  212190  212184      24  212190  212187
      25  212196  212193      24  212199  212193      24  212199  212196      25
  212205  212202      24  212208  212202      24  212208  212205      25  212214
  212211      24  212217  212211      24  212217  212214      25  212223  212220
      24  212226  212220      24  212226  212223      25  212232  212229      24
  212235  212229      24  212235  212232      25  212241  212238      24  212244
  212238      24  212244  212241      25  212250  212247      24  212253  212247
      24  212253  212250      25  212259  212256      24  212262  212256      24
  212262  212259      25  212268  212265      24  212271  212265      24  212271
  212268      25  212277  212274      24  212280  212274      24  212280  212277
      25  212286  212283      24  212289  212283      24  212289  212286      25
  212295  212292      24  212298  212292      24  212298  212295      25  212304
  212301      24  212307  212301      24  212307  212304      25  212313  212310
      24  212316  212310      24  212316  212313      25  212322  212319      24
  212325  212319      24  212325  212322      25  212331  212328      24  212334
  212328      24  212334  212331      25  212340  212337      24  212343  212337
      24  212343  212340      25  212349  212346      24  212352  212346      24
  212352  212349      25  212358  212355      24  212361  212355      24  212361
  212358      25  212367  212364      24  212370  212364      24  212370  212367
      25  212376  212373      24  212379  212373      24  212379  212376      25
  212385  212382      24  212388  212382      24  212388  212385      25  212394
  212391      24  212397  212391      24  212397  212394      25  212403  212400
      24  212406  212400      24  212406  212403      25  212412  212409      24
  212415  212409      24  212415  212412      25  212421  212418      24  212424
  212418      24  212424  212421      25  212430  212427      24  212433  212427
      24  212433  212430      25  212439  212436      24  212442  212436      24
  212442  212439      25  212448  212445      24  212451  212445      24  212451
  212448      25  212457  212454      24  212460  212454      24  212460  212457
      25  212466  212463      24  212469  212463      24  212469  212466      25
  212475  212472      24  212478  212472      24  212478  212475      25  212484
  212481      24  212487  212481      24  212487  212484      25  212493  212490
      24  212496  212490      24  212496  212493      25  212502  212499      24
  212505  212499      24  212505  212502      25  212511  212508      24  212514
  212508      24  212514  212511      25  212520  212517      24  212523  212517
      24  212523  212520      25  212529  212526      24  212532  212526      24
  212532  212529      25  212538  212535      24  212541  212535      24  212541
  212538      25  212547  212544      24  212550  212544      24  212550  212547
      25  212556  212553      24  212559  212553      24  212559  212556      25
  212565  212562      24  212568  212562      24  212568  212565      25  212574
  212571      24  212577  212571      24  212577  212574      25  212583  212580
      24  212586  212580      24  212586  212583      25  212592  212589      24
  212595  212589      24  212595  212592      25  212601  212598      24  212604
  212598      24  212604  212601      25  212610  212607      24  212613  212607
      24  212613  212610      25  212619  212616      24  212622  212616      24
  212622  212619      25  212628  212625      24  212631  212625      24  212631
  212628      25  212637  212634      24  212640  212634      24  212640  212637
      25  212646  212643      24  212649  212643      24  212649  212646      25
  212655  212652      24  212658  212652      24  212658  212655      25  212664
  212661      24  212667  212661      24  212667  212664      25  212673  212670
      24  212676  212670      24  212676  212673      25  212682  212679      24
  212685  212679      24  212685  212682      25  212691  212688      24  212694
  212688      24  212694  212691      25  212700  212697      24  212703  212697
      24  212703  212700      25  212709  212706      24  212712  212706      24
  212712  212709      25  212718  212715      24  212721  212715      24  212721
  212718      25  212727  212724      24  212730  212724      24  212730  212727
      25  212736  212733      24  212739  212733      24  212739  212736      25
  212745  212742      24  212748  212742      24  212748  212745      25  212754
  212751      24  212757  212751      24  212757  212754      25  212763  212760
      24  212766  212760      24  212766  212763      25  212772  212769      24
  212775  212769      24  212775  212772      25  212781  212778      24  212784
  212778      24  212784  212781      25  212790  212787      24  212793  212787
      24  212793  212790      25  212799  212796      24  212802  212796      24
  212802  212799      25  212808  212805      24  212811  212805      24  212811
  212808      25  212817  212814      24  212820  212814      24  212820  212817
      25  212826  212823      24  212829  212823      24  212829  212826      25
  212835  212832      24  212838  212832      24  212838  212835      25  212844
  212841      24  212847  212841      24  212847  212844      25  212853  212850
      24  212856  212850      24  212856  212853      25  212862  212859      24
  212865  212859      24  212865  212862      25  212871  212868      24  212874
  212868      24  212874  212871      25  212880  212877      24  212883  212877
      24  212883  212880      25  212889  212886      24  212892  212886      24
  212892  212889      25  212898  212895      24  212901  212895      24  212901
  212898      25  212907  212904      24  212910  212904      24  212910  212907
      25  212916  212913      24  212919  212913      24  212919  212916      25
  212925  212922      24  212928  212922      24  212928  212925      25  212934
  212931      24  212937  212931      24  212937  212934      25  212943  212940
      24  212946  212940      24  212946  212943      25  212952  212949      24
  212955  212949      24  212955  212952      25  212961  212958      24  212964
  212958      24  212964  212961      25  212970  212967      24  212973  212967
      24  212973  212970      25  212979  212976      24  212982  212976      24
  212982  212979      25  212988  212985      24  212991  212985      24  212991
  212988      25  212997  212994      24  213000  212994      24  213000  212997
      25  213006  213003      24  213009  213003      24  213009  213006      25
  213015  213012      24  213018  213012      24  213018  213015      25  213024
  213021      24  213027  213021      24  213027  213024      25  213033  213030
      24  213036  213030      24  213036  213033      25  213042  213039      24
  213045  213039      24  213045  213042      25  213051  213048      24  213054
  213048      24  213054  213051      25  213060  213057      24  213063  213057
      24  213063  213060      25  213069  213066      24  213072  213066      24
  213072  213069      25  213078  213075      24  213081  213075      24  213081
  213078      25  213087  213084      24  213090  213084      24  213090  213087
      25  213096  213093      24  213099  213093      24  213099  213096      25
  213105  213102      24  213108  213102      24  213108  213105      25  213114
  213111      24  213117  213111      24  213117  213114      25  213123  213120
      24  213126  213120      24  213126  213123      25  213132  213129      24
  213135  213129      24  213135  213132      25  213141  213138      24  213144
  213138      24  213144  213141      25  213150  213147      24  213153  213147
      24  213153  213150      25  213159  213156      24  213162  213156      24
  213162  213159      25  213168  213165      24  213171  213165      24  213171
  213168      25  213177  213174      24  213180  213174      24  213180  213177
      25  213186  213183      24  213189  213183      24  213189  213186      25
  213195  213192      24  213198  213192      24  213198  213195      25  213204
  213201      24  213207  213201      24  213207  213204      25  213213  213210
      24  213216  213210      24  213216  213213      25  213222  213219      24
  213225  213219      24  213225  213222      25  213231  213228      24  213234
  213228      24  213234  213231      25  213240  213237      24  213243  213237
      24  213243  213240      25  213249  213246      24  213252  213246      24
  213252  213249      25  213258  213255      24  213261  213255      24  213261
  213258      25  213267  213264      24  213270  213264      24  213270  213267
      25  213276  213273      24  213279  213273      24  213279  213276      25
  213285  213282      24  213288  213282      24  213288  213285      25  213294
  213291      24  213297  213291      24  213297  213294      25  213303  213300
      24  213306  213300      24  213306  213303      25  213312  213309      24
  213315  213309      24  213315  213312      25  213321  213318      24  213324
  213318      24  213324  213321      25  213330  213327      24  213333  213327
      24  213333  213330      25  213339  213336      24  213342  213336      24
  213342  213339      25  213348  213345      24  213351  213345      24  213351
  213348      25  213357  213354      24  213360  213354      24  213360  213357
      25  213366  213363      24  213369  213363      24  213369  213366      25
  213375  213372      24  213378  213372      24  213378  213375      25  213384
  213381      24  213387  213381      24  213387  213384      25  213393  213390
      24  213396  213390      24  213396  213393      25  213402  213399      24
  213405  213399      24  213405  213402      25  213411  213408      24  213414
  213408      24  213414  213411      25  213420  213417      24  213423  213417
      24  213423  213420      25  213429  213426      24  213432  213426      24
  213432  213429      25  213438  213435      24  213441  213435      24  213441
  213438      25  213447  213444      24  213450  213444      24  213450  213447
      25  213456  213453      24  213459  213453      24  213459  213456      25
  213465  213462      24  213468  213462      24  213468  213465      25  213474
  213471      24  213477  213471      24  213477  213474      25  213483  213480
      24  213486  213480      24  213486  213483      25  213492  213489      24
  213495  213489      24  213495  213492      25  213501  213498      24  213504
  213498      24  213504  213501      25  213510  213507      24  213513  213507
      24  213513  213510      25  213519  213516      24  213522  213516      24
  213522  213519      25  213528  213525      24  213531  213525      24  213531
  213528      25  213537  213534      24  213540  213534      24  213540  213537
      25  213546  213543      24  213549  213543      24  213549  213546      25
  213555  213552      24  213558  213552      24  213558  213555      25  213564
  213561      24  213567  213561      24  213567  213564      25  213573  213570
      24  213576  213570      24  213576  213573      25  213582  213579      24
  213585  213579      24  213585  213582      25  213591  213588      24  213594
  213588      24  213594  213591      25  213600  213597      24  213603  213597
      24  213603  213600      25  213609  213606      24  213612  213606      24
  213612  213609      25  213618  213615      24  213621  213615      24  213621
  213618      25  213627  213624      24  213630  213624      24  213630  213627
      25  213636  213633      24  213639  213633      24  213639  213636      25
  213645  213642      24  213648  213642      24  213648  213645      25  213654
  213651      24  213657  213651      24  213657  213654      25  213663  213660
      24  213666  213660      24  213666  213663      25  213672  213669      24
  213675  213669      24  213675  213672      25  213681  213678      24  213684
  213678      24  213684  213681      25  213690  213687      24  213693  213687
      24  213693  213690      25  213699  213696      24  213702  213696      24
  213702  213699      25  213708  213705      24  213711  213705      24  213711
  213708      25  213717  213714      24  213720  213714      24  213720  213717
      25  213726  213723      24  213729  213723      24  213729  213726      25
  213735  213732      24  213738  213732      24  213738  213735      25  213744
  213741      24  213747  213741      24  213747  213744      25  213753  213750
      24  213756  213750      24  213756  213753      25  213762  213759      24
  213765  213759      24  213765  213762      25  213771  213768      24  213774
  213768      24  213774  213771      25  213780  213777      24  213783  213777
      24  213783  213780      25  213789  213786      24  213792  213786      24
  213792  213789      25  213798  213795      24  213801  213795      24  213801
  213798      25  213807  213804      24  213810  213804      24  213810  213807
      25  213816  213813      24  213819  213813      24  213819  213816      25
  213825  213822      24  213828  213822      24  213828  213825      25  213834
  213831      24  213837  213831      24  213837  213834      25  213843  213840
      24  213846  213840      24  213846  213843      25  213852  213849      24
  213855  213849      24  213855  213852      25  213861  213858      24  213864
  213858      24  213864  213861      25  213870  213867      24  213873  213867
      24  213873  213870      25  213879  213876      24  213882  213876      24
  213882  213879      25  213888  213885      24  213891  213885      24  213891
  213888      25  213897  213894      24  213900  213894      24  213900  213897
      25  213906  213903      24  213909  213903      24  213909  213906      25
  213915  213912      24  213918  213912      24  213918  213915      25  213924
  213921      24  213927  213921      24  213927  213924      25  213933  213930
      24  213936  213930      24  213936  213933      25  213942  213939      24
  213945  213939      24  213945  213942      25  213951  213948      24  213954
  213948      24  213954  213951      25  213960  213957      24  213963  213957
      24  213963  213960      25  213969  213966      24  213972  213966      24
  213972  213969      25  213978  213975      24  213981  213975      24  213981
  213978      25  213987  213984      24  213990  213984      24  213990  213987
      25  213996  213993      24  213999  213993      24  213999  213996      25
  214005  214002      24  214008  214002      24  214008  214005      25  214014
  214011      24  214017  214011      24  214017  214014      25  214023  214020
      24  214026  214020      24  214026  214023      25  214032  214029      24
  214035  214029      24  214035  214032      25  214041  214038      24  214044
  214038      24  214044  214041      25  214050  214047      24  214053  214047
      24  214053  214050      25  214059  214056      24  214062  214056      24
  214062  214059      25  214068  214065      24  214071  214065      24  214071
  214068      25  214077  214074      24  214080  214074      24  214080  214077
      25  214086  214083      24  214089  214083      24  214089  214086      25
  214095  214092      24  214098  214092      24  214098  214095      25  214104
  214101      24  214107  214101      24  214107  214104      25  214113  214110
      24  214116  214110      24  214116  214113      25  214122  214119      24
  214125  214119      24  214125  214122      25  214131  214128      24  214134
  214128      24  214134  214131      25  214140  214137      24  214143  214137
      24  214143  214140      25  214149  214146      24  214152  214146      24
  214152  214149      25  214158  214155      24  214161  214155      24  214161
  214158      25  214167  214164      24  214170  214164      24  214170  214167
      25  214176  214173      24  214179  214173      24  214179  214176      25
  214185  214182      24  214188  214182      24  214188  214185      25  214194
  214191      24  214197  214191      24  214197  214194      25  214203  214200
      24  214206  214200      24  214206  214203      25  214212  214209      24
  214215  214209      24  214215  214212      25  214221  214218      24  214224
  214218      24  214224  214221      25  214230  214227      24  214233  214227
      24  214233  214230      25  214239  214236      24  214242  214236      24
  214242  214239      25  214248  214245      24  214251  214245      24  214251
  214248      25  214257  214254      24  214260  214254      24  214260  214257
      25  214266  214263      24  214269  214263      24  214269  214266      25
  214275  214272      24  214278  214272      24  214278  214275      25  214284
  214281      24  214287  214281      24  214287  214284      25  214293  214290
      24  214296  214290      24  214296  214293      25  214302  214299      24
  214305  214299      24  214305  214302      25  214311  214308      24  214314
  214308      24  214314  214311      25  214320  214317      24  214323  214317
      24  214323  214320      25  214329  214326      24  214332  214326      24
  214332  214329      25  214338  214335      24  214341  214335      24  214341
  214338      25  214347  214344      24  214350  214344      24  214350  214347
      25  214356  214353      24  214359  214353      24  214359  214356      25
  214365  214362      24  214368  214362      24  214368  214365      25  214374
  214371      24  214377  214371      24  214377  214374      25  214383  214380
      24  214386  214380      24  214386  214383      25  214392  214389      24
  214395  214389      24  214395  214392      25  214401  214398      24  214404
  214398      24  214404  214401      25  214410  214407      24  214413  214407
      24  214413  214410      25  214419  214416      24  214422  214416      24
  214422  214419      25  214428  214425      24  214431  214425      24  214431
  214428      25  214437  214434      24  214440  214434      24  214440  214437
      25  214446  214443      24  214449  214443      24  214449  214446      25
  214455  214452      24  214458  214452      24  214458  214455      25  214464
  214461      24  214467  214461      24  214467  214464      25  214473  214470
      24  214476  214470      24  214476  214473      25  214482  214479      24
  214485  214479      24  214485  214482      25  214491  214488      24  214494
  214488      24  214494  214491      25  214500  214497      24  214503  214497
      24  214503  214500      25  214509  214506      24  214512  214506      24
  214512  214509      25  214518  214515      24  214521  214515      24  214521
  214518      25  214527  214524      24  214530  214524      24  214530  214527
      25  214536  214533      24  214539  214533      24  214539  214536      25
  214545  214542      24  214548  214542      24  214548  214545      25  214554
  214551      24  214557  214551      24  214557  214554      25  214563  214560
      24  214566  214560      24  214566  214563      25  214572  214569      24
  214575  214569      24  214575  214572      25  214581  214578      24  214584
  214578      24  214584  214581      25  214590  214587      24  214593  214587
      24  214593  214590      25  214599  214596      24  214602  214596      24
  214602  214599      25  214608  214605      24  214611  214605      24  214611
  214608      25  214617  214614      24  214620  214614      24  214620  214617
      25  214626  214623      24  214629  214623      24  214629  214626      25
  214635  214632      24  214638  214632      24  214638  214635      25  214644
  214641      24  214647  214641      24  214647  214644      25  214653  214650
      24  214656  214650      24  214656  214653      25  214662  214659      24
  214665  214659      24  214665  214662      25  214671  214668      24  214674
  214668      24  214674  214671      25  214680  214677      24  214683  214677
      24  214683  214680      25  214689  214686      24  214692  214686      24
  214692  214689      25  214698  214695      24  214701  214695      24  214701
  214698      25  214707  214704      24  214710  214704      24  214710  214707
      25  214716  214713      24  214719  214713      24  214719  214716      25
  214725  214722      24  214728  214722      24  214728  214725      25  214734
  214731      24  214737  214731      24  214737  214734      25  214743  214740
      24  214746  214740      24  214746  214743      25  214752  214749      24
  214755  214749      24  214755  214752      25  214761  214758      24  214764
  214758      24  214764  214761      25  214770  214767      24  214773  214767
      24  214773  214770      25  214779  214776      24  214782  214776      24
  214782  214779      25  214788  214785      24  214791  214785      24  214791
  214788      25  214797  214794      24  214800  214794      24  214800  214797
      25  214806  214803      24  214809  214803      24  214809  214806      25
  214815  214812      24  214818  214812      24  214818  214815      25  214824
  214821      24  214827  214821      24  214827  214824      25  214833  214830
      24  214836  214830      24  214836  214833      25  214842  214839      24
  214845  214839      24  214845  214842      25  214851  214848      24  214854
  214848      24  214854  214851      25  214860  214857      24  214863  214857
      24  214863  214860      25  214869  214866      24  214872  214866      24
  214872  214869      25  214878  214875      24  214881  214875      24  214881
  214878      25  214887  214884      24  214890  214884      24  214890  214887
      25  214896  214893      24  214899  214893      24  214899  214896      25
  214905  214902      24  214908  214902      24  214908  214905      25  214914
  214911      24  214917  214911      24  214917  214914      25  214923  214920
      24  214926  214920      24  214926  214923      25  214932  214929      24
  214935  214929      24  214935  214932      25  214941  214938      24  214944
  214938      24  214944  214941      25  214950  214947      24  214953  214947
      24  214953  214950      25  214959  214956      24  214962  214956      24
  214962  214959      25  214968  214965      24  214971  214965      24  214971
  214968      25  214977  214974      24  214980  214974      24  214980  214977
      25  214986  214983      24  214989  214983      24  214989  214986      25
  214995  214992      24  214998  214992      24  214998  214995      25  215004
  215001      24  215007  215001      24  215007  215004      25  215013  215010
      24  215016  215010      24  215016  215013      25  215022  215019      24
  215025  215019      24  215025  215022      25  215031  215028      24  215034
  215028      24  215034  215031      25  215040  215037      24  215043  215037
      24  215043  215040      25  215049  215046      24  215052  215046      24
  215052  215049      25  215058  215055      24  215061  215055      24  215061
  215058      25  215067  215064      24  215070  215064      24  215070  215067
      25  215076  215073      24  215079  215073      24  215079  215076      25
  215085  215082      24  215088  215082      24  215088  215085      25  215094
  215091      24  215097  215091      24  215097  215094      25  215103  215100
      24  215106  215100      24  215106  215103      25  215112  215109      24
  215115  215109      24  215115  215112      25  215121  215118      24  215124
  215118      24  215124  215121      25  215130  215127      24  215133  215127
      24  215133  215130      25  215139  215136      24  215142  215136      24
  215142  215139      25  215148  215145      24  215151  215145      24  215151
  215148      25  215157  215154      24  215160  215154      24  215160  215157
      25  215166  215163      24  215169  215163      24  215169  215166      25
  215175  215172      24  215178  215172      24  215178  215175      25  215184
  215181      24  215187  215181      24  215187  215184      25  215193  215190
      24  215196  215190      24  215196  215193      25  215202  215199      24
  215205  215199      24  215205  215202      25  215211  215208      24  215214
  215208      24  215214  215211      25  215220  215217      24  215223  215217
      24  215223  215220      25  215229  215226      24  215232  215226      24
  215232  215229      25  215238  215235      24  215241  215235      24  215241
  215238      25  215247  215244      24  215250  215244      24  215250  215247
      25  215256  215253      24  215259  215253      24  215259  215256      25
  215265  215262      24  215268  215262      24  215268  215265      25  215274
  215271      24  215277  215271      24  215277  215274      25  215283  215280
      24  215286  215280      24  215286  215283      25  215292  215289      24
  215295  215289      24  215295  215292      25  215301  215298      24  215304
  215298      24  215304  215301      25  215310  215307      24  215313  215307
      24  215313  215310      25  215319  215316      24  215322  215316      24
  215322  215319      25  215328  215325      24  215331  215325      24  215331
  215328      25  215337  215334      24  215340  215334      24  215340  215337
      25  215346  215343      24  215349  215343      24  215349  215346      25
  215355  215352      24  215358  215352      24  215358  215355      25  215364
  215361      24  215367  215361      24  215367  215364      25  215373  215370
      24  215376  215370      24  215376  215373      25  215382  215379      24
  215385  215379      24  215385  215382      25  215391  215388      24  215394
  215388      24  215394  215391      25  215400  215397      24  215403  215397
      24  215403  215400      25  215409  215406      24  215412  215406      24
  215412  215409      25  215418  215415      24  215421  215415      24  215421
  215418      25  215427  215424      24  215430  215424      24  215430  215427
      25  215436  215433      24  215439  215433      24  215439  215436      25
  215445  215442      24  215448  215442      24  215448  215445      25  215454
  215451      24  215457  215451      24  215457  215454      25  215463  215460
      24  215466  215460      24  215466  215463      25  215472  215469      24
  215475  215469      24  215475  215472      25  215481  215478      24  215484
  215478      24  215484  215481      25  215490  215487      24  215493  215487
      24  215493  215490      25  215499  215496      24  215502  215496      24
  215502  215499      25  215508  215505      24  215511  215505      24  215511
  215508      25  215517  215514      24  215520  215514      24  215520  215517
      25  215526  215523      24  215529  215523      24  215529  215526      25
  215535  215532      24  215538  215532      24  215538  215535      25  215544
  215541      24  215547  215541      24  215547  215544      25  215553  215550
      24  215556  215550      24  215556  215553      25  215562  215559      24
  215565  215559      24  215565  215562      25  215571  215568      24  215574
  215568      24  215574  215571      25  215580  215577      24  215583  215577
      24  215583  215580      25  215589  215586      24  215592  215586      24
  215592  215589      25  215598  215595      24  215601  215595      24  215601
  215598      25  215607  215604      24  215610  215604      24  215610  215607
      25  215616  215613      24  215619  215613      24  215619  215616      25
  215625  215622      24  215628  215622      24  215628  215625      25  215634
  215631      24  215637  215631      24  215637  215634      25  215643  215640
      24  215646  215640      24  215646  215643      25  215652  215649      24
  215655  215649      24  215655  215652      25  215661  215658      24  215664
  215658      24  215664  215661      25  215670  215667      24  215673  215667
      24  215673  215670      25  215679  215676      24  215682  215676      24
  215682  215679      25  215688  215685      24  215691  215685      24  215691
  215688      25  215697  215694      24  215700  215694      24  215700  215697
      25  215706  215703      24  215709  215703      24  215709  215706      25
  215715  215712      24  215718  215712      24  215718  215715      25  215724
  215721      24  215727  215721      24  215727  215724      25  215733  215730
      24  215736  215730      24  215736  215733      25  215742  215739      24
  215745  215739      24  215745  215742      25  215751  215748      24  215754
  215748      24  215754  215751      25  215760  215757      24  215763  215757
      24  215763  215760      25  215769  215766      24  215772  215766      24
  215772  215769      25  215778  215775      24  215781  215775      24  215781
  215778      25  215787  215784      24  215790  215784      24  215790  215787
      25  215796  215793      24  215799  215793      24  215799  215796      25
  215805  215802      24  215808  215802      24  215808  215805      25  215814
  215811      24  215817  215811      24  215817  215814      25  215823  215820
      24  215826  215820      24  215826  215823      25  215832  215829      24
  215835  215829      24  215835  215832      25  215841  215838      24  215844
  215838      24  215844  215841      25  215850  215847      24  215853  215847
      24  215853  215850      25  215859  215856      24  215862  215856      24
  215862  215859      25  215868  215865      24  215871  215865      24  215871
  215868      25  215877  215874      24  215880  215874      24  215880  215877
      25  215886  215883      24  215889  215883      24  215889  215886      25
  215895  215892      24  215898  215892      24  215898  215895      25  215904
  215901      24  215907  215901      24  215907  215904      25  215913  215910
      24  215916  215910      24  215916  215913      25  215922  215919      24
  215925  215919      24  215925  215922      25  215931  215928      24  215934
  215928      24  215934  215931      25  215940  215937      24  215943  215937
      24  215943  215940      25  215949  215946      24  215952  215946      24
  215952  215949      25  215958  215955      24  215961  215955      24  215961
  215958      25  215967  215964      24  215970  215964      24  215970  215967
      25  215976  215973      24  215979  215973      24  215979  215976      25
  215985  215982      24  215988  215982      24  215988  215985      25  215994
  215991      24  215997  215991      24  215997  215994      25  216003  216000
      24  216006  216000      24  216006  216003      25  216012  216009      24
  216015  216009      24  216015  216012      25  216021  216018      24  216024
  216018      24  216024  216021      25  216030  216027      24  216033  216027
      24  216033  216030      25  216039  216036      24  216042  216036      24
  216042  216039      25  216048  216045      24  216051  216045      24  216051
  216048      25  216057  216054      24  216060  216054      24  216060  216057
      25  216066  216063      24  216069  216063      24  216069  216066      25
  216075  216072      24  216078  216072      24  216078  216075      25  216084
  216081      24  216087  216081      24  216087  216084      25  216093  216090
      24  216096  216090      24  216096  216093      25  216102  216099      24
  216105  216099      24  216105  216102      25  216111  216108      24  216114
  216108      24  216114  216111      25  216120  216117      24  216123  216117
      24  216123  216120      25  216129  216126      24  216132  216126      24
  216132  216129      25  216138  216135      24  216141  216135      24  216141
  216138      25  216147  216144      24  216150  216144      24  216150  216147
      25  216156  216153      24  216159  216153      24  216159  216156      25
  216165  216162      24  216168  216162      24  216168  216165      25  216174
  216171      24  216177  216171      24  216177  216174      25  216183  216180
      24  216186  216180      24  216186  216183      25  216192  216189      24
  216195  216189      24  216195  216192      25  216201  216198      24  216204
  216198      24  216204  216201      25  216210  216207      24  216213  216207
      24  216213  216210      25  216219  216216      24  216222  216216      24
  216222  216219      25  216228  216225      24  216231  216225      24  216231
  216228      25  216237  216234      24  216240  216234      24  216240  216237
      25  216246  216243      24  216249  216243      24  216249  216246      25
  216255  216252      24  216258  216252      24  216258  216255      25  216264
  216261      24  216267  216261      24  216267  216264      25  216273  216270
      24  216276  216270      24  216276  216273      25  216282  216279      24
  216285  216279      24  216285  216282      25  216291  216288      24  216294
  216288      24  216294  216291      25  216300  216297      24  216303  216297
      24  216303  216300      25  216309  216306      24  216312  216306      24
  216312  216309      25  216318  216315      24  216321  216315      24  216321
  216318      25  216327  216324      24  216330  216324      24  216330  216327
      25  216336  216333      24  216339  216333      24  216339  216336      25
  216345  216342      24  216348  216342      24  216348  216345      25  216354
  216351      24  216357  216351      24  216357  216354      25  216363  216360
      24  216366  216360      24  216366  216363      25  216372  216369      24
  216375  216369      24  216375  216372      25  216381  216378      24  216384
  216378      24  216384  216381      25  216390  216387      24  216393  216387
      24  216393  216390      25  216399  216396      24  216402  216396      24
  216402  216399      25  216408  216405      24  216411  216405      24  216411
  216408      25  216417  216414      24  216420  216414      24  216420  216417
      25  216426  216423      24  216429  216423      24  216429  216426      25
  216435  216432      24  216438  216432      24  216438  216435      25  216444
  216441      24  216447  216441      24  216447  216444      25  216453  216450
      24  216456  216450      24  216456  216453      25  216462  216459      24
  216465  216459      24  216465  216462      25  216471  216468      24  216474
  216468      24  216474  216471      25  216480  216477      24  216483  216477
      24  216483  216480      25  216489  216486      24  216492  216486      24
  216492  216489      25  216498  216495      24  216501  216495      24  216501
  216498      25  216507  216504      24  216510  216504      24  216510  216507
      25  216516  216513      24  216519  216513      24  216519  216516      25
  216525  216522      24  216528  216522      24  216528  216525      25  216534
  216531      24  216537  216531      24  216537  216534      25  216543  216540
      24  216546  216540      24  216546  216543      25  216552  216549      24
  216555  216549      24  216555  216552      25  216561  216558      24  216564
  216558      24  216564  216561      25  216570  216567      24  216573  216567
      24  216573  216570      25  216579  216576      24  216582  216576      24
  216582  216579      25  216588  216585      24  216591  216585      24  216591
  216588      25  216597  216594      24  216600  216594      24  216600  216597
      25  216606  216603      24  216609  216603      24  216609  216606      25
  216615  216612      24  216618  216612      24  216618  216615      25  216624
  216621      24  216627  216621      24  216627  216624      25  216633  216630
      24  216636  216630      24  216636  216633      25  216642  216639      24
  216645  216639      24  216645  216642      25  216651  216648      24  216654
  216648      24  216654  216651      25  216660  216657      24  216663  216657
      24  216663  216660      25  216669  216666      24  216672  216666      24
  216672  216669      25  216678  216675      24  216681  216675      24  216681
  216678      25  216687  216684      24  216690  216684      24  216690  216687
      25  216696  216693      24  216699  216693      24  216699  216696      25
  216705  216702      24  216708  216702      24  216708  216705      25  216714
  216711      24  216717  216711      24  216717  216714      25  216723  216720
      24  216726  216720      24  216726  216723      25  216732  216729      24
  216735  216729      24  216735  216732      25  216741  216738      24  216744
  216738      24  216744  216741      25  216750  216747      24  216753  216747
      24  216753  216750      25  216759  216756      24  216762  216756      24
  216762  216759      25  216768  216765      24  216771  216765      24  216771
  216768      25  216777  216774      24  216780  216774      24  216780  216777
      25  216786  216783      24  216789  216783      24  216789  216786      25
  216795  216792      24  216798  216792      24  216798  216795      25  216804
  216801      24  216807  216801      24  216807  216804      25  216813  216810
      24  216816  216810      24  216816  216813      25  216822  216819      24
  216825  216819      24  216825  216822      25  216831  216828      24  216834
  216828      24  216834  216831      25  216840  216837      24  216843  216837
      24  216843  216840      25  216849  216846      24  216852  216846      24
  216852  216849      25  216858  216855      24  216861  216855      24  216861
  216858      25  216867  216864      24  216870  216864      24  216870  216867
      25  216876  216873      24  216879  216873      24  216879  216876      25
  216885  216882      24  216888  216882      24  216888  216885      25  216894
  216891      24  216897  216891      24  216897  216894      25  216903  216900
      24  216906  216900      24  216906  216903      25  216912  216909      24
  216915  216909      24  216915  216912      25  216921  216918      24  216924
  216918      24  216924  216921      25  216930  216927      24  216933  216927
      24  216933  216930      25  216939  216936      24  216942  216936      24
  216942  216939      25  216948  216945      24  216951  216945      24  216951
  216948      25  216957  216954      24  216960  216954      24  216960  216957
      25  216966  216963      24  216969  216963      24  216969  216966      25
  216975  216972      24  216978  216972      24  216978  216975      25  216984
  216981      24  216987  216981      24  216987  216984      25  216993  216990
      24  216996  216990      24  216996  216993      25  217002  216999      24
  217005  216999      24  217005  217002      25  217011  217008      24  217014
  217008      24  217014  217011      25  217020  217017      24  217023  217017
      24  217023  217020      25  217029  217026      24  217032  217026      24
  217032  217029      25  217038  217035      24  217041  217035      24  217041
  217038      25  217047  217044      24  217050  217044      24  217050  217047
      25  217056  217053      24  217059  217053      24  217059  217056      25
  217065  217062      24  217068  217062      24  217068  217065      25  217074
  217071      24  217077  217071      24  217077  217074      25  217083  217080
      24  217086  217080      24  217086  217083      25  217092  217089      24
  217095  217089      24  217095  217092      25  217101  217098      24  217104
  217098      24  217104  217101      25  217110  217107      24  217113  217107
      24  217113  217110      25  217119  217116      24  217122  217116      24
  217122  217119      25  217128  217125      24  217131  217125      24  217131
  217128      25  217137  217134      24  217140  217134      24  217140  217137
      25  217146  217143      24  217149  217143      24  217149  217146      25
  217155  217152      24  217158  217152      24  217158  217155      25  217164
  217161      24  217167  217161      24  217167  217164      25  217173  217170
      24  217176  217170      24  217176  217173      25  217182  217179      24
  217185  217179      24  217185  217182      25  217191  217188      24  217194
  217188      24  217194  217191      25  217200  217197      24  217203  217197
      24  217203  217200      25  217209  217206      24  217212  217206      24
  217212  217209      25  217218  217215      24  217221  217215      24  217221
  217218      25  217227  217224      24  217230  217224      24  217230  217227
      25  217236  217233      24  217239  217233      24  217239  217236      25
  217245  217242      24  217248  217242      24  217248  217245      25  217254
  217251      24  217257  217251      24  217257  217254      25  217263  217260
      24  217266  217260      24  217266  217263      25  217272  217269      24
  217275  217269      24  217275  217272      25  217281  217278      24  217284
  217278      24  217284  217281      25  217290  217287      24  217293  217287
      24  217293  217290      25  217299  217296      24  217302  217296      24
  217302  217299      25  217308  217305      24  217311  217305      24  217311
  217308      25  217317  217314      24  217320  217314      24  217320  217317
      25  217326  217323      24  217329  217323      24  217329  217326      25
  217335  217332      24  217338  217332      24  217338  217335      25  217344
  217341      24  217347  217341      24  217347  217344      25  217353  217350
      24  217356  217350      24  217356  217353      25  217362  217359      24
  217365  217359      24  217365  217362      25  217371  217368      24  217374
  217368      24  217374  217371      25  217380  217377      24  217383  217377
      24  217383  217380      25  217389  217386      24  217392  217386      24
  217392  217389      25  217398  217395      24  217401  217395      24  217401
  217398      25  217407  217404      24  217410  217404      24  217410  217407
      25  217416  217413      24  217419  217413      24  217419  217416      25
  217425  217422      24  217428  217422      24  217428  217425      25  217434
  217431      24  217437  217431      24  217437  217434      25  217443  217440
      24  217446  217440      24  217446  217443      25  217452  217449      24
  217455  217449      24  217455  217452      25  217461  217458      24  217464
  217458      24  217464  217461      25  217470  217467      24  217473  217467
      24  217473  217470      25  217479  217476      24  217482  217476      24
  217482  217479      25  217488  217485      24  217491  217485      24  217491
  217488      25  217497  217494      24  217500  217494      24  217500  217497
      25  217506  217503      24  217509  217503      24  217509  217506      25
  217515  217512      24  217518  217512      24  217518  217515      25  217524
  217521      24  217527  217521      24  217527  217524      25  217533  217530
      24  217536  217530      24  217536  217533      25  217542  217539      24
  217545  217539      24  217545  217542      25  217551  217548      24  217554
  217548      24  217554  217551      25  217560  217557      24  217563  217557
      24  217563  217560      25  217569  217566      24  217572  217566      24
  217572  217569      25  217578  217575      24  217581  217575      24  217581
  217578      25  217587  217584      24  217590  217584      24  217590  217587
      25  217596  217593      24  217599  217593      24  217599  217596      25
  217605  217602      24  217608  217602      24  217608  217605      25  217614
  217611      24  217617  217611      24  217617  217614      25  217623  217620
      24  217626  217620      24  217626  217623      25  217632  217629      24
  217635  217629      24  217635  217632      25  217641  217638      24  217644
  217638      24  217644  217641      25  217650  217647      24  217653  217647
      24  217653  217650      25  217659  217656      24  217662  217656      24
  217662  217659      25  217668  217665      24  217671  217665      24  217671
  217668      25  217677  217674      24  217680  217674      24  217680  217677
      25  217686  217683      24  217689  217683      24  217689  217686      25
  217695  217692      24  217698  217692      24  217698  217695      25  217704
  217701      24  217707  217701      24  217707  217704      25  217713  217710
      24  217716  217710      24  217716  217713      25  217722  217719      24
  217725  217719      24  217725  217722      25  217731  217728      24  217734
  217728      24  217734  217731      25  217740  217737      24  217743  217737
      24  217743  217740      25  217749  217746      24  217752  217746      24
  217752  217749      25  217758  217755      24  217761  217755      24  217761
  217758      25  217767  217764      24  217770  217764      24  217770  217767
      25  217776  217773      24  217779  217773      24  217779  217776      25
  217785  217782      24  217788  217782      24  217788  217785      25  217794
  217791      24  217797  217791      24  217797  217794      25  217803  217800
      24  217806  217800      24  217806  217803      25  217812  217809      24
  217815  217809      24  217815  217812      25  217821  217818      24  217824
  217818      24  217824  217821      25  217830  217827      24  217833  217827
      24  217833  217830      25  217839  217836      24  217842  217836      24
  217842  217839      25  217848  217845      24  217851  217845      24  217851
  217848      25  217857  217854      24  217860  217854      24  217860  217857
      25  217866  217863      24  217869  217863      24  217869  217866      25
  217875  217872      24  217878  217872      24  217878  217875      25  217884
  217881      24  217887  217881      24  217887  217884      25  217893  217890
      24  217896  217890      24  217896  217893      25  217902  217899      24
  217905  217899      24  217905  217902      25  217911  217908      24  217914
  217908      24  217914  217911      25  217920  217917      24  217923  217917
      24  217923  217920      25  217929  217926      24  217932  217926      24
  217932  217929      25  217938  217935      24  217941  217935      24  217941
  217938      25  217947  217944      24  217950  217944      24  217950  217947
      25  217956  217953      24  217959  217953      24  217959  217956      25
  217965  217962      24  217968  217962      24  217968  217965      25  217974
  217971      24  217977  217971      24  217977  217974      25  217983  217980
      24  217986  217980      24  217986  217983      25  217992  217989      24
  217995  217989      24  217995  217992      25  218001  217998      24  218004
  217998      24  218004  218001      25  218010  218007      24  218013  218007
      24  218013  218010      25  218019  218016      24  218022  218016      24
  218022  218019      25  218028  218025      24  218031  218025      24  218031
  218028      25  218037  218034      24  218040  218034      24  218040  218037
      25  218046  218043      24  218049  218043      24  218049  218046      25
  218055  218052      24  218058  218052      24  218058  218055      25  218064
  218061      24  218067  218061      24  218067  218064      25  218073  218070
      24  218076  218070      24  218076  218073      25  218082  218079      24
  218085  218079      24  218085  218082      25  218091  218088      24  218094
  218088      24  218094  218091      25  218100  218097      24  218103  218097
      24  218103  218100      25  218109  218106      24  218112  218106      24
  218112  218109      25  218118  218115      24  218121  218115      24  218121
  218118      25  218127  218124      24  218130  218124      24  218130  218127
      25  218136  218133      24  218139  218133      24  218139  218136      25
  218145  218142      24  218148  218142      24  218148  218145      25  218154
  218151      24  218157  218151      24  218157  218154      25  218163  218160
      24  218166  218160      24  218166  218163      25  218172  218169      24
  218175  218169      24  218175  218172      25  218181  218178      24  218184
  218178      24  218184  218181      25  218190  218187      24  218193  218187
      24  218193  218190      25  218199  218196      24  218202  218196      24
  218202  218199      25  218208  218205      24  218211  218205      24  218211
  218208      25  218217  218214      24  218220  218214      24  218220  218217
      25  218226  218223      24  218229  218223      24  218229  218226      25
  218235  218232      24  218238  218232      24  218238  218235      25  218244
  218241      24  218247  218241      24  218247  218244      25  218253  218250
      24  218256  218250      24  218256  218253      25  218262  218259      24
  218265  218259      24  218265  218262      25  218271  218268      24  218274
  218268      24  218274  218271      25  218280  218277      24  218283  218277
      24  218283  218280      25  218289  218286      24  218292  218286      24
  218292  218289      25  218298  218295      24  218301  218295      24  218301
  218298      25  218307  218304      24  218310  218304      24  218310  218307
      25  218316  218313      24  218319  218313      24  218319  218316      25
  218325  218322      24  218328  218322      24  218328  218325      25  218334
  218331      24  218337  218331      24  218337  218334      25  218343  218340
      24  218346  218340      24  218346  218343      25  218352  218349      24
  218355  218349      24  218355  218352      25  218361  218358      24  218364
  218358      24  218364  218361      25  218370  218367      24  218373  218367
      24  218373  218370      25  218379  218376      24  218382  218376      24
  218382  218379      25  218388  218385      24  218391  218385      24  218391
  218388      25  218397  218394      24  218400  218394      24  218400  218397
      25  218406  218403      24  218409  218403      24  218409  218406      25
  218415  218412      24  218418  218412      24  218418  218415      25  218424
  218421      24  218427  218421      24  218427  218424      25  218433  218430
      24  218436  218430      24  218436  218433      25  218442  218439      24
  218445  218439      24  218445  218442      25  218451  218448      24  218454
  218448      24  218454  218451      25  218460  218457      24  218463  218457
      24  218463  218460      25  218469  218466      24  218472  218466      24
  218472  218469      25  218478  218475      24  218481  218475      24  218481
  218478      25  218487  218484      24  218490  218484      24  218490  218487
      25  218496  218493      24  218499  218493      24  218499  218496      25
  218505  218502      24  218508  218502      24  218508  218505      25  218514
  218511      24  218517  218511      24  218517  218514      25  218523  218520
      24  218526  218520      24  218526  218523      25  218532  218529      24
  218535  218529      24  218535  218532      25  218541  218538      24  218544
  218538      24  218544  218541      25  218550  218547      24  218553  218547
      24  218553  218550      25  218559  218556      24  218562  218556      24
  218562  218559      25  218568  218565      24  218571  218565      24  218571
  218568      25  218577  218574      24  218580  218574      24  218580  218577
      25  218586  218583      24  218589  218583      24  218589  218586      25
  218595  218592      24  218598  218592      24  218598  218595      25  218604
  218601      24  218607  218601      24  218607  218604      25  218613  218610
      24  218616  218610      24  218616  218613      25  218622  218619      24
  218625  218619      24  218625  218622      25  218631  218628      24  218634
  218628      24  218634  218631      25  218640  218637      24  218643  218637
      24  218643  218640      25  218649  218646      24  218652  218646      24
  218652  218649      25  218658  218655      24  218661  218655      24  218661
  218658      25  218667  218664      24  218670  218664      24  218670  218667
      25  218676  218673      24  218679  218673      24  218679  218676      25
  218685  218682      24  218688  218682      24  218688  218685      25  218694
  218691      24  218697  218691      24  218697  218694      25  218703  218700
      24  218706  218700      24  218706  218703      25  218712  218709      24
  218715  218709      24  218715  218712      25  218721  218718      24  218724
  218718      24  218724  218721      25  218730  218727      24  218733  218727
      24  218733  218730      25  218739  218736      24  218742  218736      24
  218742  218739      25  218748  218745      24  218751  218745      24  218751
  218748      25  218757  218754      24  218760  218754      24  218760  218757
      25  218766  218763      24  218769  218763      24  218769  218766      25
  218775  218772      24  218778  218772      24  218778  218775      25  218784
  218781      24  218787  218781      24  218787  218784      25  218793  218790
      24  218796  218790      24  218796  218793      25  218802  218799      24
  218805  218799      24  218805  218802      25  218811  218808      24  218814
  218808      24  218814  218811      25  218820  218817      24  218823  218817
      24  218823  218820      25  218829  218826      24  218832  218826      24
  218832  218829      25  218838  218835      24  218841  218835      24  218841
  218838      25  218847  218844      24  218850  218844      24  218850  218847
      25  218856  218853      24  218859  218853      24  218859  218856      25
  218865  218862      24  218868  218862      24  218868  218865      25  218874
  218871      24  218877  218871      24  218877  218874      25  218883  218880
      24  218886  218880      24  218886  218883      25  218892  218889      24
  218895  218889      24  218895  218892      25  218901  218898      24  218904
  218898      24  218904  218901      25  218910  218907      24  218913  218907
      24  218913  218910      25  218919  218916      24  218922  218916      24
  218922  218919      25  218928  218925      24  218931  218925      24  218931
  218928      25  218937  218934      24  218940  218934      24  218940  218937
      25  218946  218943      24  218949  218943      24  218949  218946      25
  218955  218952      24  218958  218952      24  218958  218955      25  218964
  218961      24  218967  218961      24  218967  218964      25  218973  218970
      24  218976  218970      24  218976  218973      25  218982  218979      24
  218985  218979      24  218985  218982      25  218991  218988      24  218994
  218988      24  218994  218991      25  219000  218997      24  219003  218997
      24  219003  219000      25  219009  219006      24  219012  219006      24
  219012  219009      25  219018  219015      24  219021  219015      24  219021
  219018      25  219027  219024      24  219030  219024      24  219030  219027
      25  219036  219033      24  219039  219033      24  219039  219036      25
  219045  219042      24  219048  219042      24  219048  219045      25  219054
  219051      24  219057  219051      24  219057  219054      25  219063  219060
      24  219066  219060      24  219066  219063      25  219072  219069      24
  219075  219069      24  219075  219072      25  219081  219078      24  219084
  219078      24  219084  219081      25  219090  219087      24  219093  219087
      24  219093  219090      25  219099  219096      24  219102  219096      24
  219102  219099      25  219108  219105      24  219111  219105      24  219111
  219108      25  219117  219114      24  219120  219114      24  219120  219117
      25  219126  219123      24  219129  219123      24  219129  219126      25
  219135  219132      24  219138  219132      24  219138  219135      25  219144
  219141      24  219147  219141      24  219147  219144      25  219153  219150
      24  219156  219150      24  219156  219153      25  219162  219159      24
  219165  219159      24  219165  219162      25  219171  219168      24  219174
  219168      24  219174  219171      25  219180  219177      24  219183  219177
      24  219183  219180      25  219189  219186      24  219192  219186      24
  219192  219189      25  219198  219195      24  219201  219195      24  219201
  219198      25  219207  219204      24  219210  219204      24  219210  219207
      25  219216  219213      24  219219  219213      24  219219  219216      25
  219225  219222      24  219228  219222      24  219228  219225      25  219234
  219231      24  219237  219231      24  219237  219234      25  219243  219240
      24  219246  219240      24  219246  219243      25  219252  219249      24
  219255  219249      24  219255  219252      25  219261  219258      24  219264
  219258      24  219264  219261      25  219270  219267      24  219273  219267
      24  219273  219270      25  219279  219276      24  219282  219276      24
  219282  219279      25  219288  219285      24  219291  219285      24  219291
  219288      25  219297  219294      24  219300  219294      24  219300  219297
      25  219306  219303      24  219309  219303      24  219309  219306      25
  219315  219312      24  219318  219312      24  219318  219315      25  219324
  219321      24  219327  219321      24  219327  219324      25  219333  219330
      24  219336  219330      24  219336  219333      25  219342  219339      24
  219345  219339      24  219345  219342      25  219351  219348      24  219354
  219348      24  219354  219351      25  219360  219357      24  219363  219357
      24  219363  219360      25  219369  219366      24  219372  219366      24
  219372  219369      25  219378  219375      24  219381  219375      24  219381
  219378      25  219387  219384      24  219390  219384      24  219390  219387
      25  219396  219393      24  219399  219393      24  219399  219396      25
  219405  219402      24  219408  219402      24  219408  219405      25  219414
  219411      24  219417  219411      24  219417  219414      25  219423  219420
      24  219426  219420      24  219426  219423      25  219432  219429      24
  219435  219429      24  219435  219432      25  219441  219438      24  219444
  219438      24  219444  219441      25  219450  219447      24  219453  219447
      24  219453  219450      25  219459  219456      24  219462  219456      24
  219462  219459      25  219468  219465      24  219471  219465      24  219471
  219468      25  219477  219474      24  219480  219474      24  219480  219477
      25  219486  219483      24  219489  219483      24  219489  219486      25
  219495  219492      24  219498  219492      24  219498  219495      25  219504
  219501      24  219507  219501      24  219507  219504      25  219513  219510
      24  219516  219510      24  219516  219513      25  219522  219519      24
  219525  219519      24  219525  219522      25  219531  219528      24  219534
  219528      24  219534  219531      25  219540  219537      24  219543  219537
      24  219543  219540      25  219549  219546      24  219552  219546      24
  219552  219549      25  219558  219555      24  219561  219555      24  219561
  219558      25  219567  219564      24  219570  219564      24  219570  219567
      25  219576  219573      24  219579  219573      24  219579  219576      25
  219585  219582      24  219588  219582      24  219588  219585      25  219594
  219591      24  219597  219591      24  219597  219594      25  219603  219600
      24  219606  219600      24  219606  219603      25  219612  219609      24
  219615  219609      24  219615  219612      25  219621  219618      24  219624
  219618      24  219624  219621      25  219630  219627      24  219633  219627
      24  219633  219630      25  219639  219636      24  219642  219636      24
  219642  219639      25  219648  219645      24  219651  219645      24  219651
  219648      25  219657  219654      24  219660  219654      24  219660  219657
      25  219666  219663      24  219669  219663      24  219669  219666      25
  219675  219672      24  219678  219672      24  219678  219675      25  219684
  219681      24  219687  219681      24  219687  219684      25  219693  219690
      24  219696  219690      24  219696  219693      25  219702  219699      24
  219705  219699      24  219705  219702      25  219711  219708      24  219714
  219708      24  219714  219711      25  219720  219717      24  219723  219717
      24  219723  219720      25  219729  219726      24  219732  219726      24
  219732  219729      25  219738  219735      24  219741  219735      24  219741
  219738      25  219747  219744      24  219750  219744      24  219750  219747
      25  219756  219753      24  219759  219753      24  219759  219756      25
  219765  219762      24  219768  219762      24  219768  219765      25  219774
  219771      24  219777  219771      24  219777  219774      25  219783  219780
      24  219786  219780      24  219786  219783      25  219792  219789      24
  219795  219789      24  219795  219792      25  219801  219798      24  219804
  219798      24  219804  219801      25  219810  219807      24  219813  219807
      24  219813  219810      25  219819  219816      24  219822  219816      24
  219822  219819      25  219828  219825      24  219831  219825      24  219831
  219828      25  219837  219834      24  219840  219834      24  219840  219837
      25  219846  219843      24  219849  219843      24  219849  219846      25
  219855  219852      24  219858  219852      24  219858  219855      25  219864
  219861      24  219867  219861      24  219867  219864      25  219873  219870
      24  219876  219870      24  219876  219873      25  219882  219879      24
  219885  219879      24  219885  219882      25  219891  219888      24  219894
  219888      24  219894  219891      25  219900  219897      24  219903  219897
      24  219903  219900      25  219909  219906      24  219912  219906      24
  219912  219909      25  219918  219915      24  219921  219915      24  219921
  219918      25  219927  219924      24  219930  219924      24  219930  219927
      25  219936  219933      24  219939  219933      24  219939  219936      25
  219945  219942      24  219948  219942      24  219948  219945      25  219954
  219951      24  219957  219951      24  219957  219954      25  219963  219960
      24  219966  219960      24  219966  219963      25  219972  219969      24
  219975  219969      24  219975  219972      25  219981  219978      24  219984
  219978      24  219984  219981      25  219990  219987      24  219993  219987
      24  219993  219990      25  219999  219996      24  220002  219996      24
  220002  219999      25  220008  220005      24  220011  220005      24  220011
  220008      25  220017  220014      24  220020  220014      24  220020  220017
      25  220026  220023      24  220029  220023      24  220029  220026      25
  220035  220032      24  220038  220032      24  220038  220035      25  220044
  220041      24  220047  220041      24  220047  220044      25  220053  220050
      24  220056  220050      24  220056  220053      25  220062  220059      24
  220065  220059      24  220065  220062      25  220071  220068      24  220074
  220068      24  220074  220071      25  220080  220077      24  220083  220077
      24  220083  220080      25  220089  220086      24  220092  220086      24
  220092  220089      25  220098  220095      24  220101  220095      24  220101
  220098      25  220107  220104      24  220110  220104      24  220110  220107
      25  220116  220113      24  220119  220113      24  220119  220116      25
  220125  220122      24  220128  220122      24  220128  220125      25  220134
  220131      24  220137  220131      24  220137  220134      25  220143  220140
      24  220146  220140      24  220146  220143      25  220152  220149      24
  220155  220149      24  220155  220152      25  220161  220158      24  220164
  220158      24  220164  220161      25  220170  220167      24  220173  220167
      24  220173  220170      25  220179  220176      24  220182  220176      24
  220182  220179      25  220188  220185      24  220191  220185      24  220191
  220188      25  220197  220194      24  220200  220194      24  220200  220197
      25  220206  220203      24  220209  220203      24  220209  220206      25
  220215  220212      24  220218  220212      24  220218  220215      25  220224
  220221      24  220227  220221      24  220227  220224      25  220233  220230
      24  220236  220230      24  220236  220233      25  220242  220239      24
  220245  220239      24  220245  220242      25  220251  220248      24  220254
  220248      24  220254  220251      25  220260  220257      24  220263  220257
      24  220263  220260      25  220269  220266      24  220272  220266      24
  220272  220269      25  220278  220275      24  220281  220275      24  220281
  220278      25  220287  220284      24  220290  220284      24  220290  220287
      25  220296  220293      24  220299  220293      24  220299  220296      25
  220305  220302      24  220308  220302      24  220308  220305      25  220314
  220311      24  220317  220311      24  220317  220314      25  220323  220320
      24  220326  220320      24  220326  220323      25  220332  220329      24
  220335  220329      24  220335  220332      25  220341  220338      24  220344
  220338      24  220344  220341      25  220350  220347      24  220353  220347
      24  220353  220350      25  220359  220356      24  220362  220356      24
  220362  220359      25  220368  220365      24  220371  220365      24  220371
  220368      25  220377  220374      24  220380  220374      24  220380  220377
      25  220386  220383      24  220389  220383      24  220389  220386      25
  220395  220392      24  220398  220392      24  220398  220395      25  220404
  220401      24  220407  220401      24  220407  220404      25  220413  220410
      24  220416  220410      24  220416  220413      25  220422  220419      24
  220425  220419      24  220425  220422      25  220431  220428      24  220434
  220428      24  220434  220431      25  220440  220437      24  220443  220437
      24  220443  220440      25  220449  220446      24  220452  220446      24
  220452  220449      25  220458  220455      24  220461  220455      24  220461
  220458      25  220467  220464      24  220470  220464      24  220470  220467
      25  220476  220473      24  220479  220473      24  220479  220476      25
  220485  220482      24  220488  220482      24  220488  220485      25  220494
  220491      24  220497  220491      24  220497  220494      25  220503  220500
      24  220506  220500      24  220506  220503      25  220512  220509      24
  220515  220509      24  220515  220512      25  220521  220518      24  220524
  220518      24  220524  220521      25  220530  220527      24  220533  220527
      24  220533  220530      25  220539  220536      24  220542  220536      24
  220542  220539      25  220548  220545      24  220551  220545      24  220551
  220548      25  220557  220554      24  220560  220554      24  220560  220557
      25  220566  220563      24  220569  220563      24  220569  220566      25
  220575  220572      24  220578  220572      24  220578  220575      25  220584
  220581      24  220587  220581      24  220587  220584      25  220593  220590
      24  220596  220590      24  220596  220593      25  220602  220599      24
  220605  220599      24  220605  220602      25  220611  220608      24  220614
  220608      24  220614  220611      25  220620  220617      24  220623  220617
      24  220623  220620      25  220629  220626      24  220632  220626      24
  220632  220629      25  220638  220635      24  220641  220635      24  220641
  220638      25  220647  220644      24  220650  220644      24  220650  220647
      25  220656  220653      24  220659  220653      24  220659  220656      25
  220665  220662      24  220668  220662      24  220668  220665      25  220674
  220671      24  220677  220671      24  220677  220674      25  220683  220680
      24  220686  220680      24  220686  220683      25  220692  220689      24
  220695  220689      24  220695  220692      25  220701  220698      24  220704
  220698      24  220704  220701      25  220710  220707      24  220713  220707
      24  220713  220710      25  220719  220716      24  220722  220716      24
  220722  220719      25  220728  220725      24  220731  220725      24  220731
  220728      25  220737  220734      24  220740  220734      24  220740  220737
      25  220746  220743      24  220749  220743      24  220749  220746      25
  220755  220752      24  220758  220752      24  220758  220755      25  220764
  220761      24  220767  220761      24  220767  220764      25  220773  220770
      24  220776  220770      24  220776  220773      25  220782  220779      24
  220785  220779      24  220785  220782      25  220791  220788      24  220794
  220788      24  220794  220791      25  220800  220797      24  220803  220797
      24  220803  220800      25  220809  220806      24  220812  220806      24
  220812  220809      25  220818  220815      24  220821  220815      24  220821
  220818      25  220827  220824      24  220830  220824      24  220830  220827
      25  220836  220833      24  220839  220833      24  220839  220836      25
  220845  220842      24  220848  220842      24  220848  220845      25  220854
  220851      24  220857  220851      24  220857  220854      25  220863  220860
      24  220866  220860      24  220866  220863      25  220872  220869      24
  220875  220869      24  220875  220872      25  220881  220878      24  220884
  220878      24  220884  220881      25  220890  220887      24  220893  220887
      24  220893  220890      25  220899  220896      24  220902  220896      24
  220902  220899      25  220908  220905      24  220911  220905      24  220911
  220908      25  220917  220914      24  220920  220914      24  220920  220917
      25  220926  220923      24  220929  220923      24  220929  220926      25
  220935  220932      24  220938  220932      24  220938  220935      25  220944
  220941      24  220947  220941      24  220947  220944      25  220953  220950
      24  220956  220950      24  220956  220953      25  220962  220959      24
  220965  220959      24  220965  220962      25  220971  220968      24  220974
  220968      24  220974  220971      25  220980  220977      24  220983  220977
      24  220983  220980      25  220989  220986      24  220992  220986      24
  220992  220989      25  220998  220995      24  221001  220995      24  221001
  220998      25  221007  221004      24  221010  221004      24  221010  221007
      25  221016  221013      24  221019  221013      24  221019  221016      25
  221025  221022      24  221028  221022      24  221028  221025      25  221034
  221031      24  221037  221031      24  221037  221034      25  221043  221040
      24  221046  221040      24  221046  221043      25  221052  221049      24
  221055  221049      24  221055  221052      25  221061  221058      24  221064
  221058      24  221064  221061      25  221070  221067      24  221073  221067
      24  221073  221070      25  221079  221076      24  221082  221076      24
  221082  221079      25  221088  221085      24  221091  221085      24  221091
  221088      25  221097  221094      24  221100  221094      24  221100  221097
      25  221106  221103      24  221109  221103      24  221109  221106      25
  221115  221112      24  221118  221112      24  221118  221115      25  221124
  221121      24  221127  221121      24  221127  221124      25  221133  221130
      24  221136  221130      24  221136  221133      25  221142  221139      24
  221145  221139      24  221145  221142      25  221151  221148      24  221154
  221148      24  221154  221151      25  221160  221157      24  221163  221157
      24  221163  221160      25  221169  221166      24  221172  221166      24
  221172  221169      25  221178  221175      24  221181  221175      24  221181
  221178      25  221187  221184      24  221190  221184      24  221190  221187
      25  221196  221193      24  221199  221193      24  221199  221196      25
  221205  221202      24  221208  221202      24  221208  221205      25  221214
  221211      24  221217  221211      24  221217  221214      25  221223  221220
      24  221226  221220      24  221226  221223      25  221232  221229      24
  221235  221229      24  221235  221232      25  221241  221238      24  221244
  221238      24  221244  221241      25  221250  221247      24  221253  221247
      24  221253  221250      25  221259  221256      24  221262  221256      24
  221262  221259      25  221268  221265      24  221271  221265      24  221271
  221268      25  221277  221274      24  221280  221274      24  221280  221277
      25  221286  221283      24  221289  221283      24  221289  221286      25
  221295  221292      24  221298  221292      24  221298  221295      25  221304
  221301      24  221307  221301      24  221307  221304      25  221313  221310
      24  221316  221310      24  221316  221313      25  221322  221319      24
  221325  221319      24  221325  221322      25  221331  221328      24  221334
  221328      24  221334  221331      25  221340  221337      24  221343  221337
      24  221343  221340      25  221349  221346      24  221352  221346      24
  221352  221349      25  221358  221355      24  221361  221355      24  221361
  221358      25  221367  221364      24  221370  221364      24  221370  221367
      25  221376  221373      24  221379  221373      24  221379  221376      25
  221385  221382      24  221388  221382      24  221388  221385      25  221394
  221391      24  221397  221391      24  221397  221394      25  221403  221400
      24  221406  221400      24  221406  221403      25  221412  221409      24
  221415  221409      24  221415  221412      25  221421  221418      24  221424
  221418      24  221424  221421      25  221430  221427      24  221433  221427
      24  221433  221430      25  221439  221436      24  221442  221436      24
  221442  221439      25  221448  221445      24  221451  221445      24  221451
  221448      25  221457  221454      24  221460  221454      24  221460  221457
      25  221466  221463      24  221469  221463      24  221469  221466      25
  221475  221472      24  221478  221472      24  221478  221475      25  221484
  221481      24  221487  221481      24  221487  221484      25  221493  221490
      24  221496  221490      24  221496  221493      25  221502  221499      24
  221505  221499      24  221505  221502      25  221511  221508      24  221514
  221508      24  221514  221511      25  221520  221517      24  221523  221517
      24  221523  221520      25  221529  221526      24  221532  221526      24
  221532  221529      25  221538  221535      24  221541  221535      24  221541
  221538      25  221547  221544      24  221550  221544      24  221550  221547
      25  221556  221553      24  221559  221553      24  221559  221556      25
  221565  221562      24  221568  221562      24  221568  221565      25  221574
  221571      24  221577  221571      24  221577  221574      25  221583  221580
      24  221586  221580      24  221586  221583      25  221592  221589      24
  221595  221589      24  221595  221592      25  221601  221598      24  221604
  221598      24  221604  221601      25  221610  221607      24  221613  221607
      24  221613  221610      25  221619  221616      24  221622  221616      24
  221622  221619      25  221628  221625      24  221631  221625      24  221631
  221628      25  221637  221634      24  221640  221634      24  221640  221637
      25  221646  221643      24  221649  221643      24  221649  221646      25
  221655  221652      24  221658  221652      24  221658  221655      25  221664
  221661      24  221667  221661      24  221667  221664      25  221673  221670
      24  221676  221670      24  221676  221673      25  221682  221679      24
  221685  221679      24  221685  221682      25  221691  221688      24  221694
  221688      24  221694  221691      25  221700  221697      24  221703  221697
      24  221703  221700      25  221709  221706      24  221712  221706      24
  221712  221709      25  221718  221715      24  221721  221715      24  221721
  221718      25  221727  221724      24  221730  221724      24  221730  221727
      25  221736  221733      24  221739  221733      24  221739  221736      25
  221745  221742      24  221748  221742      24  221748  221745      25  221754
  221751      24  221757  221751      24  221757  221754      25  221763  221760
      24  221766  221760      24  221766  221763      25  221772  221769      24
  221775  221769      24  221775  221772      25  221781  221778      24  221784
  221778      24  221784  221781      25  221790  221787      24  221793  221787
      24  221793  221790      25  221799  221796      24  221802  221796      24
  221802  221799      25  221808  221805      24  221811  221805      24  221811
  221808      25  221817  221814      24  221820  221814      24  221820  221817
      25  221826  221823      24  221829  221823      24  221829  221826      25
  221835  221832      24  221838  221832      24  221838  221835      25  221844
  221841      24  221847  221841      24  221847  221844      25  221853  221850
      24  221856  221850      24  221856  221853      25  221862  221859      24
  221865  221859      24  221865  221862      25  221871  221868      24  221874
  221868      24  221874  221871      25  221880  221877      24  221883  221877
      24  221883  221880      25  221889  221886      24  221892  221886      24
  221892  221889      25  221898  221895      24  221901  221895      24  221901
  221898      25  221907  221904      24  221910  221904      24  221910  221907
      25  221916  221913      24  221919  221913      24  221919  221916      25
  221925  221922      24  221928  221922      24  221928  221925      25  221934
  221931      24  221937  221931      24  221937  221934      25  221943  221940
      24  221946  221940      24  221946  221943      25  221952  221949      24
  221955  221949      24  221955  221952      25  221961  221958      24  221964
  221958      24  221964  221961      25  221970  221967      24  221973  221967
      24  221973  221970      25  221979  221976      24  221982  221976      24
  221982  221979      25  221988  221985      24  221991  221985      24  221991
  221988      25  221997  221994      24  222000  221994      24  222000  221997
      25  222006  222003      24  222009  222003      24  222009  222006      25
  222015  222012      24  222018  222012      24  222018  222015      25  222024
  222021      24  222027  222021      24  222027  222024      25  222033  222030
      24  222036  222030      24  222036  222033      25  222042  222039      24
  222045  222039      24  222045  222042      25  222051  222048      24  222054
  222048      24  222054  222051      25  222060  222057      24  222063  222057
      24  222063  222060      25  222069  222066      24  222072  222066      24
  222072  222069      25  222078  222075      24  222081  222075      24  222081
  222078      25  222087  222084      24  222090  222084      24  222090  222087
      25  222096  222093      24  222099  222093      24  222099  222096      25
  222105  222102      24  222108  222102      24  222108  222105      25  222114
  222111      24  222117  222111      24  222117  222114      25  222123  222120
      24  222126  222120      24  222126  222123      25  222132  222129      24
  222135  222129      24  222135  222132      25  222141  222138      24  222144
  222138      24  222144  222141      25  222150  222147      24  222153  222147
      24  222153  222150      25  222159  222156      24  222162  222156      24
  222162  222159      25  222168  222165      24  222171  222165      24  222171
  222168      25  222177  222174      24  222180  222174      24  222180  222177
      25  222186  222183      24  222189  222183      24  222189  222186      25
  222195  222192      24  222198  222192      24  222198  222195      25  222204
  222201      24  222207  222201      24  222207  222204      25  222213  222210
      24  222216  222210      24  222216  222213      25  222222  222219      24
  222225  222219      24  222225  222222      25  222231  222228      24  222234
  222228      24  222234  222231      25  222240  222237      24  222243  222237
      24  222243  222240      25  222249  222246      24  222252  222246      24
  222252  222249      25  222258  222255      24  222261  222255      24  222261
  222258      25  222267  222264      24  222270  222264      24  222270  222267
      25  222276  222273      24  222279  222273      24  222279  222276      25
  222285  222282      24  222288  222282      24  222288  222285      25  222294
  222291      24  222297  222291      24  222297  222294      25  222303  222300
      24  222306  222300      24  222306  222303      25  222312  222309      24
  222315  222309      24  222315  222312      25  222321  222318      24  222324
  222318      24  222324  222321      25  222330  222327      24  222333  222327
      24  222333  222330      25  222339  222336      24  222342  222336      24
  222342  222339      25  222348  222345      24  222351  222345      24  222351
  222348      25  222357  222354      24  222360  222354      24  222360  222357
      25  222366  222363      24  222369  222363      24  222369  222366      25
  222375  222372      24  222378  222372      24  222378  222375      25  222384
  222381      24  222387  222381      24  222387  222384      25  222393  222390
      24  222396  222390      24  222396  222393      25  222402  222399      24
  222405  222399      24  222405  222402      25  222411  222408      24  222414
  222408      24  222414  222411      25  222420  222417      24  222423  222417
      24  222423  222420      25  222429  222426      24  222432  222426      24
  222432  222429      25  222438  222435      24  222441  222435      24  222441
  222438      25  222447  222444      24  222450  222444      24  222450  222447
      25  222456  222453      24  222459  222453      24  222459  222456      25
  222465  222462      24  222468  222462      24  222468  222465      25  222474
  222471      24  222477  222471      24  222477  222474      25  222483  222480
      24  222486  222480      24  222486  222483      25  222492  222489      24
  222495  222489      24  222495  222492      25  222501  222498      24  222504
  222498      24  222504  222501      25  222510  222507      24  222513  222507
      24  222513  222510      25  222519  222516      24  222522  222516      24
  222522  222519      25  222528  222525      24  222531  222525      24  222531
  222528      25  222537  222534      24  222540  222534      24  222540  222537
      25  222546  222543      24  222549  222543      24  222549  222546      25
  222555  222552      24  222558  222552      24  222558  222555      25  222564
  222561      24  222567  222561      24  222567  222564      25  222573  222570
      24  222576  222570      24  222576  222573      25  222582  222579      24
  222585  222579      24  222585  222582      25  222591  222588      24  222594
  222588      24  222594  222591      25  222600  222597      24  222603  222597
      24  222603  222600      25  222609  222606      24  222612  222606      24
  222612  222609      25  222618  222615      24  222621  222615      24  222621
  222618      25  222627  222624      24  222630  222624      24  222630  222627
      25  222636  222633      24  222639  222633      24  222639  222636      25
  222645  222642      24  222648  222642      24  222648  222645      25  222654
  222651      24  222657  222651      24  222657  222654      25  222663  222660
      24  222666  222660      24  222666  222663      25  222672  222669      24
  222675  222669      24  222675  222672      25  222681  222678      24  222684
  222678      24  222684  222681      25  222690  222687      24  222693  222687
      24  222693  222690      25  222699  222696      24  222702  222696      24
  222702  222699      25  222708  222705      24  222711  222705      24  222711
  222708      25  222717  222714      24  222720  222714      24  222720  222717
      25  222726  222723      24  222729  222723      24  222729  222726      25
  222735  222732      24  222738  222732      24  222738  222735      25  222744
  222741      24  222747  222741      24  222747  222744      25  222753  222750
      24  222756  222750      24  222756  222753      25  222762  222759      24
  222765  222759      24  222765  222762      25  222771  222768      24  222774
  222768      24  222774  222771      25  222780  222777      24  222783  222777
      24  222783  222780      25  222789  222786      24  222792  222786      24
  222792  222789      25  222798  222795      24  222801  222795      24  222801
  222798      25  222807  222804      24  222810  222804      24  222810  222807
      25  222816  222813      24  222819  222813      24  222819  222816      25
  222825  222822      24  222828  222822      24  222828  222825      25  222834
  222831      24  222837  222831      24  222837  222834      25  222843  222840
      24  222846  222840      24  222846  222843      25  222852  222849      24
  222855  222849      24  222855  222852      25  222861  222858      24  222864
  222858      24  222864  222861      25  222870  222867      24  222873  222867
      24  222873  222870      25  222879  222876      24  222882  222876      24
  222882  222879      25  222888  222885      24  222891  222885      24  222891
  222888      25  222897  222894      24  222900  222894      24  222900  222897
      25  222906  222903      24  222909  222903      24  222909  222906      25
  222915  222912      24  222918  222912      24  222918  222915      25  222924
  222921      24  222927  222921      24  222927  222924      25  222933  222930
      24  222936  222930      24  222936  222933      25  222942  222939      24
  222945  222939      24  222945  222942      25  222951  222948      24  222954
  222948      24  222954  222951      25  222960  222957      24  222963  222957
      24  222963  222960      25  222969  222966      24  222972  222966      24
  222972  222969      25  222978  222975      24  222981  222975      24  222981
  222978      25  222987  222984      24  222990  222984      24  222990  222987
      25  222996  222993      24  222999  222993      24  222999  222996      25
  223005  223002      24  223008  223002      24  223008  223005      25  223014
  223011      24  223017  223011      24  223017  223014      25  223023  223020
      24  223026  223020      24  223026  223023      25  223032  223029      24
  223035  223029      24  223035  223032      25  223041  223038      24  223044
  223038      24  223044  223041      25  223050  223047      24  223053  223047
      24  223053  223050      25  223059  223056      24  223062  223056      24
  223062  223059      25  223068  223065      24  223071  223065      24  223071
  223068      25  223077  223074      24  223080  223074      24  223080  223077
      25  223086  223083      24  223089  223083      24  223089  223086      25
  223095  223092      24  223098  223092      24  223098  223095      25  223104
  223101      24  223107  223101      24  223107  223104      25  223113  223110
      24  223116  223110      24  223116  223113      25  223122  223119      24
  223125  223119      24  223125  223122      25  223131  223128      24  223134
  223128      24  223134  223131      25  223140  223137      24  223143  223137
      24  223143  223140      25  223149  223146      24  223152  223146      24
  223152  223149      25  223158  223155      24  223161  223155      24  223161
  223158      25  223167  223164      24  223170  223164      24  223170  223167
      25  223176  223173      24  223179  223173      24  223179  223176      25
  223185  223182      24  223188  223182      24  223188  223185      25  223194
  223191      24  223197  223191      24  223197  223194      25  223203  223200
      24  223206  223200      24  223206  223203      25  223212  223209      24
  223215  223209      24  223215  223212      25  223221  223218      24  223224
  223218      24  223224  223221      25  223230  223227      24  223233  223227
      24  223233  223230      25  223239  223236      24  223242  223236      24
  223242  223239      25  223248  223245      24  223251  223245      24  223251
  223248      25  223257  223254      24  223260  223254      24  223260  223257
      25  223266  223263      24  223269  223263      24  223269  223266      25
  223275  223272      24  223278  223272      24  223278  223275      25  223284
  223281      24  223287  223281      24  223287  223284      25  223293  223290
      24  223296  223290      24  223296  223293      25  223302  223299      24
  223305  223299      24  223305  223302      25  223311  223308      24  223314
  223308      24  223314  223311      25  223320  223317      24  223323  223317
      24  223323  223320      25  223329  223326      24  223332  223326      24
  223332  223329      25  223338  223335      24  223341  223335      24  223341
  223338      25  223347  223344      24  223350  223344      24  223350  223347
      25  223356  223353      24  223359  223353      24  223359  223356      25
  223365  223362      24  223368  223362      24  223368  223365      25  223374
  223371      24  223377  223371      24  223377  223374      25  223383  223380
      24  223386  223380      24  223386  223383      25  223392  223389      24
  223395  223389      24  223395  223392      25  223401  223398      24  223404
  223398      24  223404  223401      25  223410  223407      24  223413  223407
      24  223413  223410      25  223419  223416      24  223422  223416      24
  223422  223419      25  223428  223425      24  223431  223425      24  223431
  223428      25  223437  223434      24  223440  223434      24  223440  223437
      25  223446  223443      24  223449  223443      24  223449  223446      25
  223455  223452      24  223458  223452      24  223458  223455      25  223464
  223461      24  223467  223461      24  223467  223464      25  223473  223470
      24  223476  223470      24  223476  223473      25  223482  223479      24
  223485  223479      24  223485  223482      25  223491  223488      24  223494
  223488      24  223494  223491      25  223500  223497      24  223503  223497
      24  223503  223500      25  223509  223506      24  223512  223506      24
  223512  223509      25  223518  223515      24  223521  223515      24  223521
  223518      25  223527  223524      24  223530  223524      24  223530  223527
      25  223536  223533      24  223539  223533      24  223539  223536      25
  223545  223542      24  223548  223542      24  223548  223545      25  223554
  223551      24  223557  223551      24  223557  223554      25  223563  223560
      24  223566  223560      24  223566  223563      25  223572  223569      24
  223575  223569      24  223575  223572      25  223581  223578      24  223584
  223578      24  223584  223581      25  223590  223587      24  223593  223587
      24  223593  223590      25  223599  223596      24  223602  223596      24
  223602  223599      25  223608  223605      24  223611  223605      24  223611
  223608      25  223617  223614      24  223620  223614      24  223620  223617
      25  223626  223623      24  223629  223623      24  223629  223626      25
  223635  223632      24  223638  223632      24  223638  223635      25  223644
  223641      24  223647  223641      24  223647  223644      25  223653  223650
      24  223656  223650      24  223656  223653      25  223662  223659      24
  223665  223659      24  223665  223662      25  223671  223668      24  223674
  223668      24  223674  223671      25  223680  223677      24  223683  223677
      24  223683  223680      25  223689  223686      24  223692  223686      24
  223692  223689      25  223698  223695      24  223701  223695      24  223701
  223698      25  223707  223704      24  223710  223704      24  223710  223707
      25  223716  223713      24  223719  223713      24  223719  223716      25
  223725  223722      24  223728  223722      24  223728  223725      25  223734
  223731      24  223737  223731      24  223737  223734      25  223743  223740
      24  223746  223740      24  223746  223743      25  223752  223749      24
  223755  223749      24  223755  223752      25  223761  223758      24  223764
  223758      24  223764  223761      25  223770  223767      24  223773  223767
      24  223773  223770      25  223779  223776      24  223782  223776      24
  223782  223779      25  223788  223785      24  223791  223785      24  223791
  223788      25  223797  223794      24  223800  223794      24  223800  223797
      25  223806  223803      24  223809  223803      24  223809  223806      25
  223815  223812      24  223818  223812      24  223818  223815      25  223824
  223821      24  223827  223821      24  223827  223824      25  223833  223830
      24  223836  223830      24  223836  223833      25  223842  223839      24
  223845  223839      24  223845  223842      25  223851  223848      24  223854
  223848      24  223854  223851      25  223860  223857      24  223863  223857
      24  223863  223860      25  223869  223866      24  223872  223866      24
  223872  223869      25  223878  223875      24  223881  223875      24  223881
  223878      25  223887  223884      24  223890  223884      24  223890  223887
      25  223896  223893      24  223899  223893      24  223899  223896      25
  223905  223902      24  223908  223902      24  223908  223905      25  223914
  223911      24  223917  223911      24  223917  223914      25  223923  223920
      24  223926  223920      24  223926  223923      25  223932  223929      24
  223935  223929      24  223935  223932      25  223941  223938      24  223944
  223938      24  223944  223941      25  223950  223947      24  223953  223947
      24  223953  223950      25  223959  223956      24  223962  223956      24
  223962  223959      25  223968  223965      24  223971  223965      24  223971
  223968      25  223977  223974      24  223980  223974      24  223980  223977
      25  223986  223983      24  223989  223983      24  223989  223986      25
  223995  223992      24  223998  223992      24  223998  223995      25  224004
  224001      24  224007  224001      24  224007  224004      25  224013  224010
      24  224016  224010      24  224016  224013      25  224022  224019      24
  224025  224019      24  224025  224022      25  224031  224028      24  224034
  224028      24  224034  224031      25  224040  224037      24  224043  224037
      24  224043  224040      25  224049  224046      24  224052  224046      24
  224052  224049      25  224058  224055      24  224061  224055      24  224061
  224058      25  224067  224064      24  224070  224064      24  224070  224067
      25  224076  224073      24  224079  224073      24  224079  224076      25
  224085  224082      24  224088  224082      24  224088  224085      25  224094
  224091      24  224097  224091      24  224097  224094      25  224103  224100
      24  224106  224100      24  224106  224103      25  224112  224109      24
  224115  224109      24  224115  224112      25  224121  224118      24  224124
  224118      24  224124  224121      25  224130  224127      24  224133  224127
      24  224133  224130      25  224139  224136      24  224142  224136      24
  224142  224139      25  224148  224145      24  224151  224145      24  224151
  224148      25  224157  224154      24  224160  224154      24  224160  224157
      25  224166  224163      24  224169  224163      24  224169  224166      25
  224175  224172      24  224178  224172      24  224178  224175      25  224184
  224181      24  224187  224181      24  224187  224184      25  224193  224190
      24  224196  224190      24  224196  224193      25  224202  224199      24
  224205  224199      24  224205  224202      25  224211  224208      24  224214
  224208      24  224214  224211      25  224220  224217      24  224223  224217
      24  224223  224220      25  224229  224226      24  224232  224226      24
  224232  224229      25  224238  224235      24  224241  224235      24  224241
  224238      25  224247  224244      24  224250  224244      24  224250  224247
      25  224256  224253      24  224259  224253      24  224259  224256      25
  224265  224262      24  224268  224262      24  224268  224265      25  224274
  224271      24  224277  224271      24  224277  224274      25  224283  224280
      24  224286  224280      24  224286  224283      25  224292  224289      24
  224295  224289      24  224295  224292      25  224301  224298      24  224304
  224298      24  224304  224301      25  224310  224307      24  224313  224307
      24  224313  224310      25  224319  224316      24  224322  224316      24
  224322  224319      25  224328  224325      24  224331  224325      24  224331
  224328      25  224337  224334      24  224340  224334      24  224340  224337
      25  224346  224343      24  224349  224343      24  224349  224346      25
  224355  224352      24  224358  224352      24  224358  224355      25  224364
  224361      24  224367  224361      24  224367  224364      25  224373  224370
      24  224376  224370      24  224376  224373      25  224382  224379      24
  224385  224379      24  224385  224382      25  224391  224388      24  224394
  224388      24  224394  224391      25  224400  224397      24  224403  224397
      24  224403  224400      25  224409  224406      24  224412  224406      24
  224412  224409      25  224418  224415      24  224421  224415      24  224421
  224418      25  224427  224424      24  224430  224424      24  224430  224427
      25  224436  224433      24  224439  224433      24  224439  224436      25
  224445  224442      24  224448  224442      24  224448  224445      25  224454
  224451      24  224457  224451      24  224457  224454      25  224463  224460
      24  224466  224460      24  224466  224463      25  224472  224469      24
  224475  224469      24  224475  224472      25  224481  224478      24  224484
  224478      24  224484  224481      25  224490  224487      24  224493  224487
      24  224493  224490      25  224499  224496      24  224502  224496      24
  224502  224499      25  224508  224505      24  224511  224505      24  224511
  224508      25  224517  224514      24  224520  224514      24  224520  224517
      25  224526  224523      24  224529  224523      24  224529  224526      25
  224535  224532      24  224538  224532      24  224538  224535      25  224544
  224541      24  224547  224541      24  224547  224544      25  224553  224550
      24  224556  224550      24  224556  224553      25  224562  224559      24
  224565  224559      24  224565  224562      25  224571  224568      24  224574
  224568      24  224574  224571      25  224580  224577      24  224583  224577
      24  224583  224580      25  224589  224586      24  224592  224586      24
  224592  224589      25
%FLAG BONDS_WITHOUT_HYDROGEN                                                    
%FORMAT(10I8)                                                                   
      42      45       1      36      42       1      36      39       1      33
      36       1      30      33       1      27      30       1      27      45
       1      24      27       1      21      24       1      18      21       1
      15      45       1      15      18       1      12      15       1       9
      12       1       6       9       1       6      42       1       3       6
       1       0      39       1       0       3       1      78     105       4
     171     174       5     165     168       7     159     162       7     159
     165      10     156     159      11     150     153      13     147     156
      11     147     150      14     141     147      10     141     144       7
     138     165      10     138     141      10     135     138      11     132
     135      15     129     132      17     126     129      17     123     126
      17     120     171      18     120     123      19     114     270       4
     111     114      21     108     111      22     102     105      21     102
     108      22      99     102      22      99     171      23      93     111
      22      93      99      22      90      93      23      90     120      18
      87      90       5     336     339       5     330     333       7     324
     327       7     324     330      10     321     324      11     315     318
      13     312     321      11     312     315      14     306     312      10
     306     309       7     303     330      10     303     306      10     300
     303      11     297     300      15     294     297      17     291     294
      17     288     291      17     285     336      18     285     288      19
     279     435       4     276     279      21     273     276      22     267
     270      21     267     273      22     264     267      22     264     336
      23     258     276      22     258     264      22     255     258      23
     255     285      18     252     255       5     501     504       5     495
     498       7     489     492       7     489     495      10     486     489
      11     480     483      13     477     486      11     477     480      14
     471     477      10     471     474       7     468     495      10     468
     471      10     465     468      11     462     465      15     459     462
      17     456     459      17     453     456      17     450     501      18
     450     453      19     444     600       4     441     444      21     438
     441      22     432     435      21     432     438      22     429     432
      22     429     501      23     423     441      22     423     429      22
     420     423      23     420     450      18     417     420       5     666
     669       5     660     663       7     654     657       7     654     660
      10     651     654      11     645     648      13     642     651      11
     642     645      14     636     642      10     636     639       7     633
     660      10     633     636      10     630     633      11     627     630
      15     624     627      17     621     624      17     618     621      17
     615     666      18     615     618      19     609     765       4     606
     609      21     603     606      22     597     600      21     597     603
      22     594     597      22     594     666      23     588     606      22
     588     594      22     585     588      23     585     615      18     582
     585       5     831     834       5     825     828       7     819     822
       7     819     825      10     816     819      11     810     813      13
     807     816      11     807     810      14     801     807      10     801
     804       7     798     825      10     798     801      10     795     798
      11     792     795      15     789     792      17     786     789      17
     783     786      17     780     831      18     780     783      19     774
     930       4     771     774      21     768     771      22     762     765
      21     762     768      22     759     762      22     759     831      23
     753     771      22     753     759      22     750     753      23     750
     780      18     747     750       5     996     999       5     990     993
       7     984     987       7     984     990      10     981     984      11
     975     978      13     972     981      11     972     975      14     966
     972      10     966     969       7     963     990      10     963     966
      10     960     963      11     957     960      15     954     957      17
     951     954      17     948     951      17     945     996      18     945
     948      19     939    1095       4     936     939      21     933     936
      22     927     930      21     927     933      22     924     927      22
     924     996      23     918     936      22     918     924      22     915
     918      23     915     945      18     912     915       5    1161    1164
       5    1155    1158       7    1149    1152       7    1149    1155      10
    1146    1149      11    1140    1143      13    1137    1146      11    1137
    1140      14    1131    1137      10    1131    1134       7    1128    1155
      10    1128    1131      10    1125    1128      11    1122    1125      15
    1119    1122      17    1116    1119      17    1113    1116      17    1110
    1161      18    1110    1113      19    1104    1260       4    1101    1104
      21    1098    1101      22    1092    1095      21    1092    1098      22
    1089    1092      22    1089    1161      23    1083    1101      22    1083
    1089      22    1080    1083      23    1080    1110      18    1077    1080
       5    1326    1329       5    1320    1323       7    1314    1317       7
    1314    1320      10    1311    1314      11    1305    1308      13    1302
    1311      11    1302    1305      14    1296    1302      10    1296    1299
       7    1293    1320      10    1293    1296      10    1290    1293      11
    1287    1290      15    1284    1287      17    1281    1284      17    1278
    1281      17    1275    1326      18    1275    1278      19    1269    1425
       4    1266    1269      21    1263    1266      22    1257    1260      21
    1257    1263      22    1254    1257      22    1254    1326      23    1248
    1266      22    1248    1254      22    1245    1248      23    1245    1275
      18    1242    1245       5    1491    1494       5    1485    1488       7
    1479    1482       7    1479    1485      10    1476    1479      11    1470
    1473      13    1467    1476      11    1467    1470      14    1461    1467
      10    1461    1464       7    1458    1485      10    1458    1461      10
    1455    1458      11    1452    1455      15    1449    1452      17    1446
    1449      17    1443    1446      17    1440    1491      18    1440    1443
      19    1434    1590       4    1431    1434      21    1428    1431      22
    1422    1425      21    1422    1428      22    1419    1422      22    1419
    1491      23    1413    1431      22    1413    1419      22    1410    1413
      23    1410    1440      18    1407    1410       5    1656    1659       5
    1650    1653       7    1644    1647       7    1644    1650      10    1641
    1644      11    1635    1638      13    1632    1641      11    1632    1635
      14    1626    1632      10    1626    1629       7    1623    1650      10
    1623    1626      10    1620    1623      11    1617    1620      15    1614
    1617      17    1611    1614      17    1608    1611      17    1605    1656
      18    1605    1608      19    1599    1737       4    1596    1599      21
    1593    1596      22    1587    1590      21    1587    1593      22    1584
    1587      22    1584    1656      23    1578    1596      22    1578    1584
      22    1575    1578      23    1575    1605      18    1572    1575       5
    1746    1773       4    1839    1842       5    1833    1836       7    1827
    1830       7    1827    1833      10    1824    1827      11    1818    1821
      13    1815    1824      11    1815    1818      14    1809    1815      10
    1809    1812       7    1806    1833      10    1806    1809      10    1803
    1806      11    1800    1803      15    1797    1800      17    1794    1797
      17    1791    1794      17    1788    1839      18    1788    1791      19
    1782    1938       4    1779    1782      21    1776    1779      22    1770
    1773      21    1770    1776      22    1767    1770      22    1767    1839
      23    1761    1779      22    1761    1767      22    1758    1761      23
    1758    1788      18    1755    1758       5    2004    2007       5    1998
    2001       7    1992    1995       7    1992    1998      10    1989    1992
      11    1983    1986      13    1980    1989      11    1980    1983      14
    1974    1980      10    1974    1977       7    1971    1998      10    1971
    1974      10    1968    1971      11    1965    1968      15    1962    1965
      17    1959    1962      17    1956    1959      17    1953    2004      18
    1953    1956      19    1947    2103       4    1944    1947      21    1941
    1944      22    1935    1938      21    1935    1941      22    1932    1935
      22    1932    2004      23    1926    1944      22    1926    1932      22
    1923    1926      23    1923    1953      18    1920    1923       5    2169
    2172       5    2163    2166       7    2157    2160       7    2157    2163
      10    2154    2157      11    2148    2151      13    2145    2154      11
    2145    2148      14    2139    2145      10    2139    2142       7    2136
    2163      10    2136    2139      10    2133    2136      11    2130    2133
      15    2127    2130      17    2124    2127      17    2121    2124      17
    2118    2169      18    2118    2121      19    2112    2268       4    2109
    2112      21    2106    2109      22    2100    2103      21    2100    2106
      22    2097    2100      22    2097    2169      23    2091    2109      22
    2091    2097      22    2088    2091      23    2088    2118      18    2085
    2088       5    2334    2337       5    2328    2331       7    2322    2325
       7    2322    2328      10    2319    2322      11    2313    2316      13
    2310    2319      11    2310    2313      14    2304    2310      10    2304
    2307       7    2301    2328      10    2301    2304      10    2298    2301
      11    2295    2298      15    2292    2295      17    2289    2292      17
    2286    2289      17    2283    2334      18    2283    2286      19    2277
    2433       4    2274    2277      21    2271    2274      22    2265    2268
      21    2265    2271      22    2262    2265      22    2262    2334      23
    2256    2274      22    2256    2262      22    2253    2256      23    2253
    2283      18    2250    2253       5    2499    2502       5    2493    2496
       7    2487    2490       7    2487    2493      10    2484    2487      11
    2478    2481      13    2475    2484      11    2475    2478      14    2469
    2475      10    2469    2472       7    2466    2493      10    2466    2469
      10    2463    2466      11    2460    2463      15    2457    2460      17
    2454    2457      17    2451    2454      17    2448    2499      18    2448
    2451      19    2442    2598       4    2439    2442      21    2436    2439
      22    2430    2433      21    2430    2436      22    2427    2430      22
    2427    2499      23    2421    2439      22    2421    2427      22    2418
    2421      23    2418    2448      18    2415    2418       5    2664    2667
       5    2658    2661       7    2652    2655       7    2652    2658      10
    2649    2652      11    2643    2646      13    2640    2649      11    2640
    2643      14    2634    2640      10    2634    2637       7    2631    2658
      10    2631    2634      10    2628    2631      11    2625    2628      15
    2622    2625      17    2619    2622      17    2616    2619      17    2613
    2664      18    2613    2616      19    2607    2763       4    2604    2607
      21    2601    2604      22    2595    2598      21    2595    2601      22
    2592    2595      22    2592    2664      23    2586    2604      22    2586
    2592      22    2583    2586      23    2583    2613      18    2580    2583
       5    2829    2832       5    2823    2826       7    2817    2820       7
    2817    2823      10    2814    2817      11    2808    2811      13    2805
    2814      11    2805    2808      14    2799    2805      10    2799    2802
       7    2796    2823      10    2796    2799      10    2793    2796      11
    2790    2793      15    2787    2790      17    2784    2787      17    2781
    2784      17    2778    2829      18    2778    2781      19    2772    2928
       4    2769    2772      21    2766    2769      22    2760    2763      21
    2760    2766      22    2757    2760      22    2757    2829      23    2751
    2769      22    2751    2757      22    2748    2751      23    2748    2778
      18    2745    2748       5    2994    2997       5    2988    2991       7
    2982    2985       7    2982    2988      10    2979    2982      11    2973
    2976      13    2970    2979      11    2970    2973      14    2964    2970
      10    2964    2967       7    2961    2988      10    2961    2964      10
    2958    2961      11    2955    2958      15    2952    2955      17    2949
    2952      17    2946    2949      17    2943    2994      18    2943    2946
      19    2937    3093       4    2934    2937      21    2931    2934      22
    2925    2928      21    2925    2931      22    2922    2925      22    2922
    2994      23    2916    2934      22    2916    2922      22    2913    2916
      23    2913    2943      18    2910    2913       5    3159    3162       5
    3153    3156       7    3147    3150       7    3147    3153      10    3144
    3147      11    3138    3141      13    3135    3144      11    3135    3138
      14    3129    3135      10    3129    3132       7    3126    3153      10
    3126    3129      10    3123    3126      11    3120    3123      15    3117
    3120      17    3114    3117      17    3111    3114      17    3108    3159
      18    3108    3111      19    3102    3258       4    3099    3102      21
    3096    3099      22    3090    3093      21    3090    3096      22    3087
    3090      22    3087    3159      23    3081    3099      22    3081    3087
      22    3078    3081      23    3078    3108      18    3075    3078       5
    3324    3327       5    3318    3321       7    3312    3315       7    3312
    3318      10    3309    3312      11    3303    3306      13    3300    3309
      11    3300    3303      14    3294    3300      10    3294    3297       7
    3291    3318      10    3291    3294      10    3288    3291      11    3285
    3288      15    3282    3285      17    3279    3282      17    3276    3279
      17    3273    3324      18    3273    3276      19    3267    3405       4
    3264    3267      21    3261    3264      22    3255    3258      21    3255
    3261      22    3252    3255      22    3252    3324      23    3246    3264
      22    3246    3252      22    3243    3246      23    3243    3273      18
    3240    3243       5    3414    3441       4    3507    3510       5    3501
    3504       7    3495    3498       7    3495    3501      10    3492    3495
      11    3486    3489      13    3483    3492      11    3483    3486      14
    3477    3483      10    3477    3480       7    3474    3501      10    3474
    3477      10    3471    3474      11    3468    3471      15    3465    3468
      17    3462    3465      17    3459    3462      17    3456    3507      18
    3456    3459      19    3450    3606       4    3447    3450      21    3444
    3447      22    3438    3441      21    3438    3444      22    3435    3438
      22    3435    3507      23    3429    3447      22    3429    3435      22
    3426    3429      23    3426    3456      18    3423    3426       5    3672
    3675       5    3666    3669       7    3660    3663       7    3660    3666
      10    3657    3660      11    3651    3654      13    3648    3657      11
    3648    3651      14    3642    3648      10    3642    3645       7    3639
    3666      10    3639    3642      10    3636    3639      11    3633    3636
      15    3630    3633      17    3627    3630      17    3624    3627      17
    3621    3672      18    3621    3624      19    3615    3771       4    3612
    3615      21    3609    3612      22    3603    3606      21    3603    3609
      22    3600    3603      22    3600    3672      23    3594    3612      22
    3594    3600      22    3591    3594      23    3591    3621      18    3588
    3591       5    3837    3840       5    3831    3834       7    3825    3828
       7    3825    3831      10    3822    3825      11    3816    3819      13
    3813    3822      11    3813    3816      14    3807    3813      10    3807
    3810       7    3804    3831      10    3804    3807      10    3801    3804
      11    3798    3801      15    3795    3798      17    3792    3795      17
    3789    3792      17    3786    3837      18    3786    3789      19    3780
    3936       4    3777    3780      21    3774    3777      22    3768    3771
      21    3768    3774      22    3765    3768      22    3765    3837      23
    3759    3777      22    3759    3765      22    3756    3759      23    3756
    3786      18    3753    3756       5    4002    4005       5    3996    3999
       7    3990    3993       7    3990    3996      10    3987    3990      11
    3981    3984      13    3978    3987      11    3978    3981      14    3972
    3978      10    3972    3975       7    3969    3996      10    3969    3972
      10    3966    3969      11    3963    3966      15    3960    3963      17
    3957    3960      17    3954    3957      17    3951    4002      18    3951
    3954      19    3945    4101       4    3942    3945      21    3939    3942
      22    3933    3936      21    3933    3939      22    3930    3933      22
    3930    4002      23    3924    3942      22    3924    3930      22    3921
    3924      23    3921    3951      18    3918    3921       5    4167    4170
       5    4161    4164       7    4155    4158       7    4155    4161      10
    4152    4155      11    4146    4149      13    4143    4152      11    4143
    4146      14    4137    4143      10    4137    4140       7    4134    4161
      10    4134    4137      10    4131    4134      11    4128    4131      15
    4125    4128      17    4122    4125      17    4119    4122      17    4116
    4167      18    4116    4119      19    4110    4266       4    4107    4110
      21    4104    4107      22    4098    4101      21    4098    4104      22
    4095    4098      22    4095    4167      23    4089    4107      22    4089
    4095      22    4086    4089      23    4086    4116      18    4083    4086
       5    4332    4335       5    4326    4329       7    4320    4323       7
    4320    4326      10    4317    4320      11    4311    4314      13    4308
    4317      11    4308    4311      14    4302    4308      10    4302    4305
       7    4299    4326      10    4299    4302      10    4296    4299      11
    4293    4296      15    4290    4293      17    4287    4290      17    4284
    4287      17    4281    4332      18    4281    4284      19    4275    4431
       4    4272    4275      21    4269    4272      22    4263    4266      21
    4263    4269      22    4260    4263      22    4260    4332      23    4254
    4272      22    4254    4260      22    4251    4254      23    4251    4281
      18    4248    4251       5    4497    4500       5    4491    4494       7
    4485    4488       7    4485    4491      10    4482    4485      11    4476
    4479      13    4473    4482      11    4473    4476      14    4467    4473
      10    4467    4470       7    4464    4491      10    4464    4467      10
    4461    4464      11    4458    4461      15    4455    4458      17    4452
    4455      17    4449    4452      17    4446    4497      18    4446    4449
      19    4440    4596       4    4437    4440      21    4434    4437      22
    4428    4431      21    4428    4434      22    4425    4428      22    4425
    4497      23    4419    4437      22    4419    4425      22    4416    4419
      23    4416    4446      18    4413    4416       5    4662    4665       5
    4656    4659       7    4650    4653       7    4650    4656      10    4647
    4650      11    4641    4644      13    4638    4647      11    4638    4641
      14    4632    4638      10    4632    4635       7    4629    4656      10
    4629    4632      10    4626    4629      11    4623    4626      15    4620
    4623      17    4617    4620      17    4614    4617      17    4611    4662
      18    4611    4614      19    4605    4761       4    4602    4605      21
    4599    4602      22    4593    4596      21    4593    4599      22    4590
    4593      22    4590    4662      23    4584    4602      22    4584    4590
      22    4581    4584      23    4581    4611      18    4578    4581       5
    4827    4830       5    4821    4824       7    4815    4818       7    4815
    4821      10    4812    4815      11    4806    4809      13    4803    4812
      11    4803    4806      14    4797    4803      10    4797    4800       7
    4794    4821      10    4794    4797      10    4791    4794      11    4788
    4791      15    4785    4788      17    4782    4785      17    4779    4782
      17    4776    4827      18    4776    4779      19    4770    4926       4
    4767    4770      21    4764    4767      22    4758    4761      21    4758
    4764      22    4755    4758      22    4755    4827      23    4749    4767
      22    4749    4755      22    4746    4749      23    4746    4776      18
    4743    4746       5    4992    4995       5    4986    4989       7    4980
    4983       7    4980    4986      10    4977    4980      11    4971    4974
      13    4968    4977      11    4968    4971      14    4962    4968      10
    4962    4965       7    4959    4986      10    4959    4962      10    4956
    4959      11    4953    4956      15    4950    4953      17    4947    4950
      17    4944    4947      17    4941    4992      18    4941    4944      19
    4935    5073       4    4932    4935      21    4929    4932      22    4923
    4926      21    4923    4929      22    4920    4923      22    4920    4992
      23    4914    4932      22    4914    4920      22    4911    4914      23
    4911    4941      18    4908    4911       5    5082    5109       4    5175
    5178       5    5169    5172       7    5163    5166       7    5163    5169
      10    5160    5163      11    5154    5157      13    5151    5160      11
    5151    5154      14    5145    5151      10    5145    5148       7    5142
    5169      10    5142    5145      10    5139    5142      11    5136    5139
      15    5133    5136      17    5130    5133      17    5127    5130      17
    5124    5175      18    5124    5127      19    5118    5274       4    5115
    5118      21    5112    5115      22    5106    5109      21    5106    5112
      22    5103    5106      22    5103    5175      23    5097    5115      22
    5097    5103      22    5094    5097      23    5094    5124      18    5091
    5094       5    5340    5343       5    5334    5337       7    5328    5331
       7    5328    5334      10    5325    5328      11    5319    5322      13
    5316    5325      11    5316    5319      14    5310    5316      10    5310
    5313       7    5307    5334      10    5307    5310      10    5304    5307
      11    5301    5304      15    5298    5301      17    5295    5298      17
    5292    5295      17    5289    5340      18    5289    5292      19    5283
    5439       4    5280    5283      21    5277    5280      22    5271    5274
      21    5271    5277      22    5268    5271      22    5268    5340      23
    5262    5280      22    5262    5268      22    5259    5262      23    5259
    5289      18    5256    5259       5    5505    5508       5    5499    5502
       7    5493    5496       7    5493    5499      10    5490    5493      11
    5484    5487      13    5481    5490      11    5481    5484      14    5475
    5481      10    5475    5478       7    5472    5499      10    5472    5475
      10    5469    5472      11    5466    5469      15    5463    5466      17
    5460    5463      17    5457    5460      17    5454    5505      18    5454
    5457      19    5448    5604       4    5445    5448      21    5442    5445
      22    5436    5439      21    5436    5442      22    5433    5436      22
    5433    5505      23    5427    5445      22    5427    5433      22    5424
    5427      23    5424    5454      18    5421    5424       5    5670    5673
       5    5664    5667       7    5658    5661       7    5658    5664      10
    5655    5658      11    5649    5652      13    5646    5655      11    5646
    5649      14    5640    5646      10    5640    5643       7    5637    5664
      10    5637    5640      10    5634    5637      11    5631    5634      15
    5628    5631      17    5625    5628      17    5622    5625      17    5619
    5670      18    5619    5622      19    5613    5769       4    5610    5613
      21    5607    5610      22    5601    5604      21    5601    5607      22
    5598    5601      22    5598    5670      23    5592    5610      22    5592
    5598      22    5589    5592      23    5589    5619      18    5586    5589
       5    5835    5838       5    5829    5832       7    5823    5826       7
    5823    5829      10    5820    5823      11    5814    5817      13    5811
    5820      11    5811    5814      14    5805    5811      10    5805    5808
       7    5802    5829      10    5802    5805      10    5799    5802      11
    5796    5799      15    5793    5796      17    5790    5793      17    5787
    5790      17    5784    5835      18    5784    5787      19    5778    5934
       4    5775    5778      21    5772    5775      22    5766    5769      21
    5766    5772      22    5763    5766      22    5763    5835      23    5757
    5775      22    5757    5763      22    5754    5757      23    5754    5784
      18    5751    5754       5    6000    6003       5    5994    5997       7
    5988    5991       7    5988    5994      10    5985    5988      11    5979
    5982      13    5976    5985      11    5976    5979      14    5970    5976
      10    5970    5973       7    5967    5994      10    5967    5970      10
    5964    5967      11    5961    5964      15    5958    5961      17    5955
    5958      17    5952    5955      17    5949    6000      18    5949    5952
      19    5943    6099       4    5940    5943      21    5937    5940      22
    5931    5934      21    5931    5937      22    5928    5931      22    5928
    6000      23    5922    5940      22    5922    5928      22    5919    5922
      23    5919    5949      18    5916    5919       5    6165    6168       5
    6159    6162       7    6153    6156       7    6153    6159      10    6150
    6153      11    6144    6147      13    6141    6150      11    6141    6144
      14    6135    6141      10    6135    6138       7    6132    6159      10
    6132    6135      10    6129    6132      11    6126    6129      15    6123
    6126      17    6120    6123      17    6117    6120      17    6114    6165
      18    6114    6117      19    6108    6264       4    6105    6108      21
    6102    6105      22    6096    6099      21    6096    6102      22    6093
    6096      22    6093    6165      23    6087    6105      22    6087    6093
      22    6084    6087      23    6084    6114      18    6081    6084       5
    6330    6333       5    6324    6327       7    6318    6321       7    6318
    6324      10    6315    6318      11    6309    6312      13    6306    6315
      11    6306    6309      14    6300    6306      10    6300    6303       7
    6297    6324      10    6297    6300      10    6294    6297      11    6291
    6294      15    6288    6291      17    6285    6288      17    6282    6285
      17    6279    6330      18    6279    6282      19    6273    6429       4
    6270    6273      21    6267    6270      22    6261    6264      21    6261
    6267      22    6258    6261      22    6258    6330      23    6252    6270
      22    6252    6258      22    6249    6252      23    6249    6279      18
    6246    6249       5    6495    6498       5    6489    6492       7    6483
    6486       7    6483    6489      10    6480    6483      11    6474    6477
      13    6471    6480      11    6471    6474      14    6465    6471      10
    6465    6468       7    6462    6489      10    6462    6465      10    6459
    6462      11    6456    6459      15    6453    6456      17    6450    6453
      17    6447    6450      17    6444    6495      18    6444    6447      19
    6438    6594       4    6435    6438      21    6432    6435      22    6426
    6429      21    6426    6432      22    6423    6426      22    6423    6495
      23    6417    6435      22    6417    6423      22    6414    6417      23
    6414    6444      18    6411    6414       5    6660    6663       5    6654
    6657       7    6648    6651       7    6648    6654      10    6645    6648
      11    6639    6642      13    6636    6645      11    6636    6639      14
    6630    6636      10    6630    6633       7    6627    6654      10    6627
    6630      10    6624    6627      11    6621    6624      15    6618    6621
      17    6615    6618      17    6612    6615      17    6609    6660      18
    6609    6612      19    6603    6741       4    6600    6603      21    6597
    6600      22    6591    6594      21    6591    6597      22    6588    6591
      22    6588    6660      23    6582    6600      22    6582    6588      22
    6579    6582      23    6579    6609      18    6576    6579       5
%FLAG ANGLES_INC_HYDROGEN                                                       
%FORMAT(10I8)                                                                   
      39       0      48       2      36      33      72       2      36      39
      75       2      33      30      69       2      30      33      72       2
      27      30      69       2      27      24      66       2      24      21
      63       2      21      24      66       2      21      18      60       2
      18      21      63       2      15      12      57       2      15      18
      60       2      12       9      54       2       9      12      57       2
       6       9      54       2       6       3      51       2       3       0
      48       2       0      39      75       2       0       3      51       2
      84      78     105       3      81      78      84       4      81      78
     105       3      78     105     180       3     231     150     234       6
     213     132     216       6     207     129     210       7     201     126
     204       7     195     123     198       6     192     114     270       3
     183     108     186       8     168     165     246       9     165     168
     249      10     165     159     240      11     165     138     219      12
     162     159     240      13     159     162     243      10     159     165
     246      12     156     159     240      16     156     147     228      18
     153     150     231      19     153     150     234      19     150     147
     228      21     150     153     237      22     147     141     222      12
     147     150     231      24     147     150     234      24     144     141
     222       9     141     138     219      12     141     147     228      12
     141     144     225      10     138     165     246      12     138     141
     222      12     135     132     213      28     135     132     216      28
     135     138     219      18     132     129     210      30     132     129
     207      30     129     132     213      31     129     132     216      31
     129     126     204      30     129     126     201      30     126     129
     210      30     126     129     207      30     126     123     195      31
     126     123     198      31     123     126     204      30     123     126
     201      30     120     123     195      37     120     123     198      37
     117      99     171      38     114     111     189      39     114     270
     345       3     111     108     186      40     111     108     183      40
     111     114     192      41     108     102     177      40     108     111
     189      40     105     102     177      39     102     105     180      41
     102     108     186      40     102     108     183      40     102      99
     117      40      99     102     177      40      96      93     111      40
      96      93      99      40      93     111     189      40      93      99
     117      40      90      93      96      38     396     315     399       6
     378     297     381       6     372     294     375       7     366     291
     369       7     360     288     363       6     357     279     435       3
     348     273     351       8     333     330     411       9     330     333
     414      10     330     324     405      11     330     303     384      12
     327     324     405      13     324     327     408      10     324     330
     411      12     321     324     405      16     321     312     393      18
     318     315     396      19     318     315     399      19     315     312
     393      21     315     318     402      22     312     306     387      12
     312     315     396      24     312     315     399      24     309     306
     387       9     306     303     384      12     306     312     393      12
     306     309     390      10     303     330     411      12     303     306
     387      12     300     297     378      28     300     297     381      28
     300     303     384      18     297     294     375      30     297     294
     372      30     294     297     378      31     294     297     381      31
     294     291     369      30     294     291     366      30     291     294
     375      30     291     294     372      30     291     288     360      31
     291     288     363      31     288     291     369      30     288     291
     366      30     285     288     360      37     285     288     363      37
     282     264     336      38     279     276     354      39     279     435
     510       3     276     273     351      40     276     273     348      40
     276     279     357      41     273     267     342      40     273     276
     354      40     270     267     342      39     267     270     345      41
     267     273     351      40     267     273     348      40     267     264
     282      40     264     267     342      40     261     258     276      40
     261     258     264      40     258     276     354      40     258     264
     282      40     255     258     261      38     561     480     564       6
     543     462     546       6     537     459     540       7     531     456
     534       7     525     453     528       6     522     444     600       3
     513     438     516       8     498     495     576       9     495     498
     579      10     495     489     570      11     495     468     549      12
     492     489     570      13     489     492     573      10     489     495
     576      12     486     489     570      16     486     477     558      18
     483     480     561      19     483     480     564      19     480     477
     558      21     480     483     567      22     477     471     552      12
     477     480     561      24     477     480     564      24     474     471
     552       9     471     468     549      12     471     477     558      12
     471     474     555      10     468     495     576      12     468     471
     552      12     465     462     543      28     465     462     546      28
     465     468     549      18     462     459     540      30     462     459
     537      30     459     462     543      31     459     462     546      31
     459     456     534      30     459     456     531      30     456     459
     540      30     456     459     537      30     456     453     525      31
     456     453     528      31     453     456     534      30     453     456
     531      30     450     453     525      37     450     453     528      37
     447     429     501      38     444     441     519      39     444     600
     675       3     441     438     516      40     441     438     513      40
     441     444     522      41     438     432     507      40     438     441
     519      40     435     432     507      39     432     435     510      41
     432     438     516      40     432     438     513      40     432     429
     447      40     429     432     507      40     426     423     441      40
     426     423     429      40     423     441     519      40     423     429
     447      40     420     423     426      38     726     645     729       6
     708     627     711       6     702     624     705       7     696     621
     699       7     690     618     693       6     687     609     765       3
     678     603     681       8     663     660     741       9     660     663
     744      10     660     654     735      11     660     633     714      12
     657     654     735      13     654     657     738      10     654     660
     741      12     651     654     735      16     651     642     723      18
     648     645     726      19     648     645     729      19     645     642
     723      21     645     648     732      22     642     636     717      12
     642     645     726      24     642     645     729      24     639     636
     717       9     636     633     714      12     636     642     723      12
     636     639     720      10     633     660     741      12     633     636
     717      12     630     627     708      28     630     627     711      28
     630     633     714      18     627     624     705      30     627     624
     702      30     624     627     708      31     624     627     711      31
     624     621     699      30     624     621     696      30     621     624
     705      30     621     624     702      30     621     618     690      31
     621     618     693      31     618     621     699      30     618     621
     696      30     615     618     690      37     615     618     693      37
     612     594     666      38     609     606     684      39     609     765
     840       3     606     603     681      40     606     603     678      40
     606     609     687      41     603     597     672      40     603     606
     684      40     600     597     672      39     597     600     675      41
     597     603     681      40     597     603     678      40     597     594
     612      40     594     597     672      40     591     588     606      40
     591     588     594      40     588     606     684      40     588     594
     612      40     585     588     591      38     891     810     894       6
     873     792     876       6     867     789     870       7     861     786
     864       7     855     783     858       6     852     774     930       3
     843     768     846       8     828     825     906       9     825     828
     909      10     825     819     900      11     825     798     879      12
     822     819     900      13     819     822     903      10     819     825
     906      12     816     819     900      16     816     807     888      18
     813     810     891      19     813     810     894      19     810     807
     888      21     810     813     897      22     807     801     882      12
     807     810     891      24     807     810     894      24     804     801
     882       9     801     798     879      12     801     807     888      12
     801     804     885      10     798     825     906      12     798     801
     882      12     795     792     873      28     795     792     876      28
     795     798     879      18     792     789     870      30     792     789
     867      30     789     792     873      31     789     792     876      31
     789     786     864      30     789     786     861      30     786     789
     870      30     786     789     867      30     786     783     855      31
     786     783     858      31     783     786     864      30     783     786
     861      30     780     783     855      37     780     783     858      37
     777     759     831      38     774     771     849      39     774     930
    1005       3     771     768     846      40     771     768     843      40
     771     774     852      41     768     762     837      40     768     771
     849      40     765     762     837      39     762     765     840      41
     762     768     846      40     762     768     843      40     762     759
     777      40     759     762     837      40     756     753     771      40
     756     753     759      40     753     771     849      40     753     759
     777      40     750     753     756      38    1056     975    1059       6
    1038     957    1041       6    1032     954    1035       7    1026     951
    1029       7    1020     948    1023       6    1017     939    1095       3
    1008     933    1011       8     993     990    1071       9     990     993
    1074      10     990     984    1065      11     990     963    1044      12
     987     984    1065      13     984     987    1068      10     984     990
    1071      12     981     984    1065      16     981     972    1053      18
     978     975    1056      19     978     975    1059      19     975     972
    1053      21     975     978    1062      22     972     966    1047      12
     972     975    1056      24     972     975    1059      24     969     966
    1047       9     966     963    1044      12     966     972    1053      12
     966     969    1050      10     963     990    1071      12     963     966
    1047      12     960     957    1038      28     960     957    1041      28
     960     963    1044      18     957     954    1035      30     957     954
    1032      30     954     957    1038      31     954     957    1041      31
     954     951    1029      30     954     951    1026      30     951     954
    1035      30     951     954    1032      30     951     948    1020      31
     951     948    1023      31     948     951    1029      30     948     951
    1026      30     945     948    1020      37     945     948    1023      37
     942     924     996      38     939     936    1014      39     939    1095
    1170       3     936     933    1011      40     936     933    1008      40
     936     939    1017      41     933     927    1002      40     933     936
    1014      40     930     927    1002      39     927     930    1005      41
     927     933    1011      40     927     933    1008      40     927     924
     942      40     924     927    1002      40     921     918     936      40
     921     918     924      40     918     936    1014      40     918     924
     942      40     915     918     921      38    1221    1140    1224       6
    1203    1122    1206       6    1197    1119    1200       7    1191    1116
    1194       7    1185    1113    1188       6    1182    1104    1260       3
    1173    1098    1176       8    1158    1155    1236       9    1155    1158
    1239      10    1155    1149    1230      11    1155    1128    1209      12
    1152    1149    1230      13    1149    1152    1233      10    1149    1155
    1236      12    1146    1149    1230      16    1146    1137    1218      18
    1143    1140    1221      19    1143    1140    1224      19    1140    1137
    1218      21    1140    1143    1227      22    1137    1131    1212      12
    1137    1140    1221      24    1137    1140    1224      24    1134    1131
    1212       9    1131    1128    1209      12    1131    1137    1218      12
    1131    1134    1215      10    1128    1155    1236      12    1128    1131
    1212      12    1125    1122    1203      28    1125    1122    1206      28
    1125    1128    1209      18    1122    1119    1200      30    1122    1119
    1197      30    1119    1122    1203      31    1119    1122    1206      31
    1119    1116    1194      30    1119    1116    1191      30    1116    1119
    1200      30    1116    1119    1197      30    1116    1113    1185      31
    1116    1113    1188      31    1113    1116    1194      30    1113    1116
    1191      30    1110    1113    1185      37    1110    1113    1188      37
    1107    1089    1161      38    1104    1101    1179      39    1104    1260
    1335       3    1101    1098    1176      40    1101    1098    1173      40
    1101    1104    1182      41    1098    1092    1167      40    1098    1101
    1179      40    1095    1092    1167      39    1092    1095    1170      41
    1092    1098    1176      40    1092    1098    1173      40    1092    1089
    1107      40    1089    1092    1167      40    1086    1083    1101      40
    1086    1083    1089      40    1083    1101    1179      40    1083    1089
    1107      40    1080    1083    1086      38    1386    1305    1389       6
    1368    1287    1371       6    1362    1284    1365       7    1356    1281
    1359       7    1350    1278    1353       6    1347    1269    1425       3
    1338    1263    1341       8    1323    1320    1401       9    1320    1323
    1404      10    1320    1314    1395      11    1320    1293    1374      12
    1317    1314    1395      13    1314    1317    1398      10    1314    1320
    1401      12    1311    1314    1395      16    1311    1302    1383      18
    1308    1305    1386      19    1308    1305    1389      19    1305    1302
    1383      21    1305    1308    1392      22    1302    1296    1377      12
    1302    1305    1386      24    1302    1305    1389      24    1299    1296
    1377       9    1296    1293    1374      12    1296    1302    1383      12
    1296    1299    1380      10    1293    1320    1401      12    1293    1296
    1377      12    1290    1287    1368      28    1290    1287    1371      28
    1290    1293    1374      18    1287    1284    1365      30    1287    1284
    1362      30    1284    1287    1368      31    1284    1287    1371      31
    1284    1281    1359      30    1284    1281    1356      30    1281    1284
    1365      30    1281    1284    1362      30    1281    1278    1350      31
    1281    1278    1353      31    1278    1281    1359      30    1278    1281
    1356      30    1275    1278    1350      37    1275    1278    1353      37
    1272    1254    1326      38    1269    1266    1344      39    1269    1425
    1500       3    1266    1263    1341      40    1266    1263    1338      40
    1266    1269    1347      41    1263    1257    1332      40    1263    1266
    1344      40    1260    1257    1332      39    1257    1260    1335      41
    1257    1263    1341      40    1257    1263    1338      40    1257    1254
    1272      40    1254    1257    1332      40    1251    1248    1266      40
    1251    1248    1254      40    1248    1266    1344      40    1248    1254
    1272      40    1245    1248    1251      38    1551    1470    1554       6
    1533    1452    1536       6    1527    1449    1530       7    1521    1446
    1524       7    1515    1443    1518       6    1512    1434    1590       3
    1503    1428    1506       8    1488    1485    1566       9    1485    1488
    1569      10    1485    1479    1560      11    1485    1458    1539      12
    1482    1479    1560      13    1479    1482    1563      10    1479    1485
    1566      12    1476    1479    1560      16    1476    1467    1548      18
    1473    1470    1551      19    1473    1470    1554      19    1470    1467
    1548      21    1470    1473    1557      22    1467    1461    1542      12
    1467    1470    1551      24    1467    1470    1554      24    1464    1461
    1542       9    1461    1458    1539      12    1461    1467    1548      12
    1461    1464    1545      10    1458    1485    1566      12    1458    1461
    1542      12    1455    1452    1533      28    1455    1452    1536      28
    1455    1458    1539      18    1452    1449    1530      30    1452    1449
    1527      30    1449    1452    1533      31    1449    1452    1536      31
    1449    1446    1524      30    1449    1446    1521      30    1446    1449
    1530      30    1446    1449    1527      30    1446    1443    1515      31
    1446    1443    1518      31    1443    1446    1524      30    1443    1446
    1521      30    1440    1443    1515      37    1440    1443    1518      37
    1437    1419    1491      38    1434    1431    1509      39    1434    1590
    1665       3    1431    1428    1506      40    1431    1428    1503      40
    1431    1434    1512      41    1428    1422    1497      40    1428    1431
    1509      40    1425    1422    1497      39    1422    1425    1500      41
    1422    1428    1506      40    1422    1428    1503      40    1422    1419
    1437      40    1419    1422    1497      40    1416    1413    1431      40
    1416    1413    1419      40    1413    1431    1509      40    1413    1419
    1437      40    1410    1413    1416      38    1716    1635    1719       6
    1698    1617    1701       6    1692    1614    1695       7    1686    1611
    1689       7    1680    1608    1683       6    1677    1599    1737       3
    1668    1593    1671       8    1653    1650    1731       9    1650    1653
    1734      10    1650    1644    1725      11    1650    1623    1704      12
    1647    1644    1725      13    1644    1647    1728      10    1644    1650
    1731      12    1641    1644    1725      16    1641    1632    1713      18
    1638    1635    1716      19    1638    1635    1719      19    1635    1632
    1713      21    1635    1638    1722      22    1632    1626    1707      12
    1632    1635    1716      24    1632    1635    1719      24    1629    1626
    1707       9    1626    1623    1704      12    1626    1632    1713      12
    1626    1629    1710      10    1623    1650    1731      12    1623    1626
    1707      12    1620    1617    1698      28    1620    1617    1701      28
    1620    1623    1704      18    1617    1614    1695      30    1617    1614
    1692      30    1614    1617    1698      31    1614    1617    1701      31
    1614    1611    1689      30    1614    1611    1686      30    1611    1614
    1695      30    1611    1614    1692      30    1611    1608    1680      31
    1611    1608    1683      31    1608    1611    1689      30    1608    1611
    1686      30    1605    1608    1680      37    1605    1608    1683      37
    1602    1584    1656      38    1599    1596    1674      39    1599    1737
    1740       3    1599    1737    1743       3    1596    1593    1671      40
    1596    1593    1668      40    1596    1599    1677      41    1593    1587
    1662      40    1593    1596    1674      40    1590    1587    1662      39
    1587    1590    1665      41    1587    1593    1671      40    1587    1593
    1668      40    1587    1584    1602      40    1584    1587    1662      40
    1581    1578    1596      40    1581    1578    1584      40    1578    1596
    1674      40    1578    1584    1602      40    1575    1578    1581      38
    1740    1737    1743       4    1752    1746    1773       3    1749    1746
    1752       4    1749    1746    1773       3    1746    1773    1848       3
    1899    1818    1902       6    1881    1800    1884       6    1875    1797
    1878       7    1869    1794    1872       7    1863    1791    1866       6
    1860    1782    1938       3    1851    1776    1854       8    1836    1833
    1914       9    1833    1836    1917      10    1833    1827    1908      11
    1833    1806    1887      12    1830    1827    1908      13    1827    1830
    1911      10    1827    1833    1914      12    1824    1827    1908      16
    1824    1815    1896      18    1821    1818    1899      19    1821    1818
    1902      19    1818    1815    1896      21    1818    1821    1905      22
    1815    1809    1890      12    1815    1818    1899      24    1815    1818
    1902      24    1812    1809    1890       9    1809    1806    1887      12
    1809    1815    1896      12    1809    1812    1893      10    1806    1833
    1914      12    1806    1809    1890      12    1803    1800    1881      28
    1803    1800    1884      28    1803    1806    1887      18    1800    1797
    1878      30    1800    1797    1875      30    1797    1800    1881      31
    1797    1800    1884      31    1797    1794    1872      30    1797    1794
    1869      30    1794    1797    1878      30    1794    1797    1875      30
    1794    1791    1863      31    1794    1791    1866      31    1791    1794
    1872      30    1791    1794    1869      30    1788    1791    1863      37
    1788    1791    1866      37    1785    1767    1839      38    1782    1779
    1857      39    1782    1938    2013       3    1779    1776    1854      40
    1779    1776    1851      40    1779    1782    1860      41    1776    1770
    1845      40    1776    1779    1857      40    1773    1770    1845      39
    1770    1773    1848      41    1770    1776    1854      40    1770    1776
    1851      40    1770    1767    1785      40    1767    1770    1845      40
    1764    1761    1779      40    1764    1761    1767      40    1761    1779
    1857      40    1761    1767    1785      40    1758    1761    1764      38
    2064    1983    2067       6    2046    1965    2049       6    2040    1962
    2043       7    2034    1959    2037       7    2028    1956    2031       6
    2025    1947    2103       3    2016    1941    2019       8    2001    1998
    2079       9    1998    2001    2082      10    1998    1992    2073      11
    1998    1971    2052      12    1995    1992    2073      13    1992    1995
    2076      10    1992    1998    2079      12    1989    1992    2073      16
    1989    1980    2061      18    1986    1983    2064      19    1986    1983
    2067      19    1983    1980    2061      21    1983    1986    2070      22
    1980    1974    2055      12    1980    1983    2064      24    1980    1983
    2067      24    1977    1974    2055       9    1974    1971    2052      12
    1974    1980    2061      12    1974    1977    2058      10    1971    1998
    2079      12    1971    1974    2055      12    1968    1965    2046      28
    1968    1965    2049      28    1968    1971    2052      18    1965    1962
    2043      30    1965    1962    2040      30    1962    1965    2046      31
    1962    1965    2049      31    1962    1959    2037      30    1962    1959
    2034      30    1959    1962    2043      30    1959    1962    2040      30
    1959    1956    2028      31    1959    1956    2031      31    1956    1959
    2037      30    1956    1959    2034      30    1953    1956    2028      37
    1953    1956    2031      37    1950    1932    2004      38    1947    1944
    2022      39    1947    2103    2178       3    1944    1941    2019      40
    1944    1941    2016      40    1944    1947    2025      41    1941    1935
    2010      40    1941    1944    2022      40    1938    1935    2010      39
    1935    1938    2013      41    1935    1941    2019      40    1935    1941
    2016      40    1935    1932    1950      40    1932    1935    2010      40
    1929    1926    1944      40    1929    1926    1932      40    1926    1944
    2022      40    1926    1932    1950      40    1923    1926    1929      38
    2229    2148    2232       6    2211    2130    2214       6    2205    2127
    2208       7    2199    2124    2202       7    2193    2121    2196       6
    2190    2112    2268       3    2181    2106    2184       8    2166    2163
    2244       9    2163    2166    2247      10    2163    2157    2238      11
    2163    2136    2217      12    2160    2157    2238      13    2157    2160
    2241      10    2157    2163    2244      12    2154    2157    2238      16
    2154    2145    2226      18    2151    2148    2229      19    2151    2148
    2232      19    2148    2145    2226      21    2148    2151    2235      22
    2145    2139    2220      12    2145    2148    2229      24    2145    2148
    2232      24    2142    2139    2220       9    2139    2136    2217      12
    2139    2145    2226      12    2139    2142    2223      10    2136    2163
    2244      12    2136    2139    2220      12    2133    2130    2211      28
    2133    2130    2214      28    2133    2136    2217      18    2130    2127
    2208      30    2130    2127    2205      30    2127    2130    2211      31
    2127    2130    2214      31    2127    2124    2202      30    2127    2124
    2199      30    2124    2127    2208      30    2124    2127    2205      30
    2124    2121    2193      31    2124    2121    2196      31    2121    2124
    2202      30    2121    2124    2199      30    2118    2121    2193      37
    2118    2121    2196      37    2115    2097    2169      38    2112    2109
    2187      39    2112    2268    2343       3    2109    2106    2184      40
    2109    2106    2181      40    2109    2112    2190      41    2106    2100
    2175      40    2106    2109    2187      40    2103    2100    2175      39
    2100    2103    2178      41    2100    2106    2184      40    2100    2106
    2181      40    2100    2097    2115      40    2097    2100    2175      40
    2094    2091    2109      40    2094    2091    2097      40    2091    2109
    2187      40    2091    2097    2115      40    2088    2091    2094      38
    2394    2313    2397       6    2376    2295    2379       6    2370    2292
    2373       7    2364    2289    2367       7    2358    2286    2361       6
    2355    2277    2433       3    2346    2271    2349       8    2331    2328
    2409       9    2328    2331    2412      10    2328    2322    2403      11
    2328    2301    2382      12    2325    2322    2403      13    2322    2325
    2406      10    2322    2328    2409      12    2319    2322    2403      16
    2319    2310    2391      18    2316    2313    2394      19    2316    2313
    2397      19    2313    2310    2391      21    2313    2316    2400      22
    2310    2304    2385      12    2310    2313    2394      24    2310    2313
    2397      24    2307    2304    2385       9    2304    2301    2382      12
    2304    2310    2391      12    2304    2307    2388      10    2301    2328
    2409      12    2301    2304    2385      12    2298    2295    2376      28
    2298    2295    2379      28    2298    2301    2382      18    2295    2292
    2373      30    2295    2292    2370      30    2292    2295    2376      31
    2292    2295    2379      31    2292    2289    2367      30    2292    2289
    2364      30    2289    2292    2373      30    2289    2292    2370      30
    2289    2286    2358      31    2289    2286    2361      31    2286    2289
    2367      30    2286    2289    2364      30    2283    2286    2358      37
    2283    2286    2361      37    2280    2262    2334      38    2277    2274
    2352      39    2277    2433    2508       3    2274    2271    2349      40
    2274    2271    2346      40    2274    2277    2355      41    2271    2265
    2340      40    2271    2274    2352      40    2268    2265    2340      39
    2265    2268    2343      41    2265    2271    2349      40    2265    2271
    2346      40    2265    2262    2280      40    2262    2265    2340      40
    2259    2256    2274      40    2259    2256    2262      40    2256    2274
    2352      40    2256    2262    2280      40    2253    2256    2259      38
    2559    2478    2562       6    2541    2460    2544       6    2535    2457
    2538       7    2529    2454    2532       7    2523    2451    2526       6
    2520    2442    2598       3    2511    2436    2514       8    2496    2493
    2574       9    2493    2496    2577      10    2493    2487    2568      11
    2493    2466    2547      12    2490    2487    2568      13    2487    2490
    2571      10    2487    2493    2574      12    2484    2487    2568      16
    2484    2475    2556      18    2481    2478    2559      19    2481    2478
    2562      19    2478    2475    2556      21    2478    2481    2565      22
    2475    2469    2550      12    2475    2478    2559      24    2475    2478
    2562      24    2472    2469    2550       9    2469    2466    2547      12
    2469    2475    2556      12    2469    2472    2553      10    2466    2493
    2574      12    2466    2469    2550      12    2463    2460    2541      28
    2463    2460    2544      28    2463    2466    2547      18    2460    2457
    2538      30    2460    2457    2535      30    2457    2460    2541      31
    2457    2460    2544      31    2457    2454    2532      30    2457    2454
    2529      30    2454    2457    2538      30    2454    2457    2535      30
    2454    2451    2523      31    2454    2451    2526      31    2451    2454
    2532      30    2451    2454    2529      30    2448    2451    2523      37
    2448    2451    2526      37    2445    2427    2499      38    2442    2439
    2517      39    2442    2598    2673       3    2439    2436    2514      40
    2439    2436    2511      40    2439    2442    2520      41    2436    2430
    2505      40    2436    2439    2517      40    2433    2430    2505      39
    2430    2433    2508      41    2430    2436    2514      40    2430    2436
    2511      40    2430    2427    2445      40    2427    2430    2505      40
    2424    2421    2439      40    2424    2421    2427      40    2421    2439
    2517      40    2421    2427    2445      40    2418    2421    2424      38
    2724    2643    2727       6    2706    2625    2709       6    2700    2622
    2703       7    2694    2619    2697       7    2688    2616    2691       6
    2685    2607    2763       3    2676    2601    2679       8    2661    2658
    2739       9    2658    2661    2742      10    2658    2652    2733      11
    2658    2631    2712      12    2655    2652    2733      13    2652    2655
    2736      10    2652    2658    2739      12    2649    2652    2733      16
    2649    2640    2721      18    2646    2643    2724      19    2646    2643
    2727      19    2643    2640    2721      21    2643    2646    2730      22
    2640    2634    2715      12    2640    2643    2724      24    2640    2643
    2727      24    2637    2634    2715       9    2634    2631    2712      12
    2634    2640    2721      12    2634    2637    2718      10    2631    2658
    2739      12    2631    2634    2715      12    2628    2625    2706      28
    2628    2625    2709      28    2628    2631    2712      18    2625    2622
    2703      30    2625    2622    2700      30    2622    2625    2706      31
    2622    2625    2709      31    2622    2619    2697      30    2622    2619
    2694      30    2619    2622    2703      30    2619    2622    2700      30
    2619    2616    2688      31    2619    2616    2691      31    2616    2619
    2697      30    2616    2619    2694      30    2613    2616    2688      37
    2613    2616    2691      37    2610    2592    2664      38    2607    2604
    2682      39    2607    2763    2838       3    2604    2601    2679      40
    2604    2601    2676      40    2604    2607    2685      41    2601    2595
    2670      40    2601    2604    2682      40    2598    2595    2670      39
    2595    2598    2673      41    2595    2601    2679      40    2595    2601
    2676      40    2595    2592    2610      40    2592    2595    2670      40
    2589    2586    2604      40    2589    2586    2592      40    2586    2604
    2682      40    2586    2592    2610      40    2583    2586    2589      38
    2889    2808    2892       6    2871    2790    2874       6    2865    2787
    2868       7    2859    2784    2862       7    2853    2781    2856       6
    2850    2772    2928       3    2841    2766    2844       8    2826    2823
    2904       9    2823    2826    2907      10    2823    2817    2898      11
    2823    2796    2877      12    2820    2817    2898      13    2817    2820
    2901      10    2817    2823    2904      12    2814    2817    2898      16
    2814    2805    2886      18    2811    2808    2889      19    2811    2808
    2892      19    2808    2805    2886      21    2808    2811    2895      22
    2805    2799    2880      12    2805    2808    2889      24    2805    2808
    2892      24    2802    2799    2880       9    2799    2796    2877      12
    2799    2805    2886      12    2799    2802    2883      10    2796    2823
    2904      12    2796    2799    2880      12    2793    2790    2871      28
    2793    2790    2874      28    2793    2796    2877      18    2790    2787
    2868      30    2790    2787    2865      30    2787    2790    2871      31
    2787    2790    2874      31    2787    2784    2862      30    2787    2784
    2859      30    2784    2787    2868      30    2784    2787    2865      30
    2784    2781    2853      31    2784    2781    2856      31    2781    2784
    2862      30    2781    2784    2859      30    2778    2781    2853      37
    2778    2781    2856      37    2775    2757    2829      38    2772    2769
    2847      39    2772    2928    3003       3    2769    2766    2844      40
    2769    2766    2841      40    2769    2772    2850      41    2766    2760
    2835      40    2766    2769    2847      40    2763    2760    2835      39
    2760    2763    2838      41    2760    2766    2844      40    2760    2766
    2841      40    2760    2757    2775      40    2757    2760    2835      40
    2754    2751    2769      40    2754    2751    2757      40    2751    2769
    2847      40    2751    2757    2775      40    2748    2751    2754      38
    3054    2973    3057       6    3036    2955    3039       6    3030    2952
    3033       7    3024    2949    3027       7    3018    2946    3021       6
    3015    2937    3093       3    3006    2931    3009       8    2991    2988
    3069       9    2988    2991    3072      10    2988    2982    3063      11
    2988    2961    3042      12    2985    2982    3063      13    2982    2985
    3066      10    2982    2988    3069      12    2979    2982    3063      16
    2979    2970    3051      18    2976    2973    3054      19    2976    2973
    3057      19    2973    2970    3051      21    2973    2976    3060      22
    2970    2964    3045      12    2970    2973    3054      24    2970    2973
    3057      24    2967    2964    3045       9    2964    2961    3042      12
    2964    2970    3051      12    2964    2967    3048      10    2961    2988
    3069      12    2961    2964    3045      12    2958    2955    3036      28
    2958    2955    3039      28    2958    2961    3042      18    2955    2952
    3033      30    2955    2952    3030      30    2952    2955    3036      31
    2952    2955    3039      31    2952    2949    3027      30    2952    2949
    3024      30    2949    2952    3033      30    2949    2952    3030      30
    2949    2946    3018      31    2949    2946    3021      31    2946    2949
    3027      30    2946    2949    3024      30    2943    2946    3018      37
    2943    2946    3021      37    2940    2922    2994      38    2937    2934
    3012      39    2937    3093    3168       3    2934    2931    3009      40
    2934    2931    3006      40    2934    2937    3015      41    2931    2925
    3000      40    2931    2934    3012      40    2928    2925    3000      39
    2925    2928    3003      41    2925    2931    3009      40    2925    2931
    3006      40    2925    2922    2940      40    2922    2925    3000      40
    2919    2916    2934      40    2919    2916    2922      40    2916    2934
    3012      40    2916    2922    2940      40    2913    2916    2919      38
    3219    3138    3222       6    3201    3120    3204       6    3195    3117
    3198       7    3189    3114    3192       7    3183    3111    3186       6
    3180    3102    3258       3    3171    3096    3174       8    3156    3153
    3234       9    3153    3156    3237      10    3153    3147    3228      11
    3153    3126    3207      12    3150    3147    3228      13    3147    3150
    3231      10    3147    3153    3234      12    3144    3147    3228      16
    3144    3135    3216      18    3141    3138    3219      19    3141    3138
    3222      19    3138    3135    3216      21    3138    3141    3225      22
    3135    3129    3210      12    3135    3138    3219      24    3135    3138
    3222      24    3132    3129    3210       9    3129    3126    3207      12
    3129    3135    3216      12    3129    3132    3213      10    3126    3153
    3234      12    3126    3129    3210      12    3123    3120    3201      28
    3123    3120    3204      28    3123    3126    3207      18    3120    3117
    3198      30    3120    3117    3195      30    3117    3120    3201      31
    3117    3120    3204      31    3117    3114    3192      30    3117    3114
    3189      30    3114    3117    3198      30    3114    3117    3195      30
    3114    3111    3183      31    3114    3111    3186      31    3111    3114
    3192      30    3111    3114    3189      30    3108    3111    3183      37
    3108    3111    3186      37    3105    3087    3159      38    3102    3099
    3177      39    3102    3258    3333       3    3099    3096    3174      40
    3099    3096    3171      40    3099    3102    3180      41    3096    3090
    3165      40    3096    3099    3177      40    3093    3090    3165      39
    3090    3093    3168      41    3090    3096    3174      40    3090    3096
    3171      40    3090    3087    3105      40    3087    3090    3165      40
    3084    3081    3099      40    3084    3081    3087      40    3081    3099
    3177      40    3081    3087    3105      40    3078    3081    3084      38
    3384    3303    3387       6    3366    3285    3369       6    3360    3282
    3363       7    3354    3279    3357       7    3348    3276    3351       6
    3345    3267    3405       3    3336    3261    3339       8    3321    3318
    3399       9    3318    3321    3402      10    3318    3312    3393      11
    3318    3291    3372      12    3315    3312    3393      13    3312    3315
    3396      10    3312    3318    3399      12    3309    3312    3393      16
    3309    3300    3381      18    3306    3303    3384      19    3306    3303
    3387      19    3303    3300    3381      21    3303    3306    3390      22
    3300    3294    3375      12    3300    3303    3384      24    3300    3303
    3387      24    3297    3294    3375       9    3294    3291    3372      12
    3294    3300    3381      12    3294    3297    3378      10    3291    3318
    3399      12    3291    3294    3375      12    3288    3285    3366      28
    3288    3285    3369      28    3288    3291    3372      18    3285    3282
    3363      30    3285    3282    3360      30    3282    3285    3366      31
    3282    3285    3369      31    3282    3279    3357      30    3282    3279
    3354      30    3279    3282    3363      30    3279    3282    3360      30
    3279    3276    3348      31    3279    3276    3351      31    3276    3279
    3357      30    3276    3279    3354      30    3273    3276    3348      37
    3273    3276    3351      37    3270    3252    3324      38    3267    3264
    3342      39    3267    3405    3408       3    3267    3405    3411       3
    3264    3261    3339      40    3264    3261    3336      40    3264    3267
    3345      41    3261    3255    3330      40    3261    3264    3342      40
    3258    3255    3330      39    3255    3258    3333      41    3255    3261
    3339      40    3255    3261    3336      40    3255    3252    3270      40
    3252    3255    3330      40    3249    3246    3264      40    3249    3246
    3252      40    3246    3264    3342      40    3246    3252    3270      40
    3243    3246    3249      38    3408    3405    3411       4    3420    3414
    3441       3    3417    3414    3420       4    3417    3414    3441       3
    3414    3441    3516       3    3567    3486    3570       6    3549    3468
    3552       6    3543    3465    3546       7    3537    3462    3540       7
    3531    3459    3534       6    3528    3450    3606       3    3519    3444
    3522       8    3504    3501    3582       9    3501    3504    3585      10
    3501    3495    3576      11    3501    3474    3555      12    3498    3495
    3576      13    3495    3498    3579      10    3495    3501    3582      12
    3492    3495    3576      16    3492    3483    3564      18    3489    3486
    3567      19    3489    3486    3570      19    3486    3483    3564      21
    3486    3489    3573      22    3483    3477    3558      12    3483    3486
    3567      24    3483    3486    3570      24    3480    3477    3558       9
    3477    3474    3555      12    3477    3483    3564      12    3477    3480
    3561      10    3474    3501    3582      12    3474    3477    3558      12
    3471    3468    3549      28    3471    3468    3552      28    3471    3474
    3555      18    3468    3465    3546      30    3468    3465    3543      30
    3465    3468    3549      31    3465    3468    3552      31    3465    3462
    3540      30    3465    3462    3537      30    3462    3465    3546      30
    3462    3465    3543      30    3462    3459    3531      31    3462    3459
    3534      31    3459    3462    3540      30    3459    3462    3537      30
    3456    3459    3531      37    3456    3459    3534      37    3453    3435
    3507      38    3450    3447    3525      39    3450    3606    3681       3
    3447    3444    3522      40    3447    3444    3519      40    3447    3450
    3528      41    3444    3438    3513      40    3444    3447    3525      40
    3441    3438    3513      39    3438    3441    3516      41    3438    3444
    3522      40    3438    3444    3519      40    3438    3435    3453      40
    3435    3438    3513      40    3432    3429    3447      40    3432    3429
    3435      40    3429    3447    3525      40    3429    3435    3453      40
    3426    3429    3432      38    3732    3651    3735       6    3714    3633
    3717       6    3708    3630    3711       7    3702    3627    3705       7
    3696    3624    3699       6    3693    3615    3771       3    3684    3609
    3687       8    3669    3666    3747       9    3666    3669    3750      10
    3666    3660    3741      11    3666    3639    3720      12    3663    3660
    3741      13    3660    3663    3744      10    3660    3666    3747      12
    3657    3660    3741      16    3657    3648    3729      18    3654    3651
    3732      19    3654    3651    3735      19    3651    3648    3729      21
    3651    3654    3738      22    3648    3642    3723      12    3648    3651
    3732      24    3648    3651    3735      24    3645    3642    3723       9
    3642    3639    3720      12    3642    3648    3729      12    3642    3645
    3726      10    3639    3666    3747      12    3639    3642    3723      12
    3636    3633    3714      28    3636    3633    3717      28    3636    3639
    3720      18    3633    3630    3711      30    3633    3630    3708      30
    3630    3633    3714      31    3630    3633    3717      31    3630    3627
    3705      30    3630    3627    3702      30    3627    3630    3711      30
    3627    3630    3708      30    3627    3624    3696      31    3627    3624
    3699      31    3624    3627    3705      30    3624    3627    3702      30
    3621    3624    3696      37    3621    3624    3699      37    3618    3600
    3672      38    3615    3612    3690      39    3615    3771    3846       3
    3612    3609    3687      40    3612    3609    3684      40    3612    3615
    3693      41    3609    3603    3678      40    3609    3612    3690      40
    3606    3603    3678      39    3603    3606    3681      41    3603    3609
    3687      40    3603    3609    3684      40    3603    3600    3618      40
    3600    3603    3678      40    3597    3594    3612      40    3597    3594
    3600      40    3594    3612    3690      40    3594    3600    3618      40
    3591    3594    3597      38    3897    3816    3900       6    3879    3798
    3882       6    3873    3795    3876       7    3867    3792    3870       7
    3861    3789    3864       6    3858    3780    3936       3    3849    3774
    3852       8    3834    3831    3912       9    3831    3834    3915      10
    3831    3825    3906      11    3831    3804    3885      12    3828    3825
    3906      13    3825    3828    3909      10    3825    3831    3912      12
    3822    3825    3906      16    3822    3813    3894      18    3819    3816
    3897      19    3819    3816    3900      19    3816    3813    3894      21
    3816    3819    3903      22    3813    3807    3888      12    3813    3816
    3897      24    3813    3816    3900      24    3810    3807    3888       9
    3807    3804    3885      12    3807    3813    3894      12    3807    3810
    3891      10    3804    3831    3912      12    3804    3807    3888      12
    3801    3798    3879      28    3801    3798    3882      28    3801    3804
    3885      18    3798    3795    3876      30    3798    3795    3873      30
    3795    3798    3879      31    3795    3798    3882      31    3795    3792
    3870      30    3795    3792    3867      30    3792    3795    3876      30
    3792    3795    3873      30    3792    3789    3861      31    3792    3789
    3864      31    3789    3792    3870      30    3789    3792    3867      30
    3786    3789    3861      37    3786    3789    3864      37    3783    3765
    3837      38    3780    3777    3855      39    3780    3936    4011       3
    3777    3774    3852      40    3777    3774    3849      40    3777    3780
    3858      41    3774    3768    3843      40    3774    3777    3855      40
    3771    3768    3843      39    3768    3771    3846      41    3768    3774
    3852      40    3768    3774    3849      40    3768    3765    3783      40
    3765    3768    3843      40    3762    3759    3777      40    3762    3759
    3765      40    3759    3777    3855      40    3759    3765    3783      40
    3756    3759    3762      38    4062    3981    4065       6    4044    3963
    4047       6    4038    3960    4041       7    4032    3957    4035       7
    4026    3954    4029       6    4023    3945    4101       3    4014    3939
    4017       8    3999    3996    4077       9    3996    3999    4080      10
    3996    3990    4071      11    3996    3969    4050      12    3993    3990
    4071      13    3990    3993    4074      10    3990    3996    4077      12
    3987    3990    4071      16    3987    3978    4059      18    3984    3981
    4062      19    3984    3981    4065      19    3981    3978    4059      21
    3981    3984    4068      22    3978    3972    4053      12    3978    3981
    4062      24    3978    3981    4065      24    3975    3972    4053       9
    3972    3969    4050      12    3972    3978    4059      12    3972    3975
    4056      10    3969    3996    4077      12    3969    3972    4053      12
    3966    3963    4044      28    3966    3963    4047      28    3966    3969
    4050      18    3963    3960    4041      30    3963    3960    4038      30
    3960    3963    4044      31    3960    3963    4047      31    3960    3957
    4035      30    3960    3957    4032      30    3957    3960    4041      30
    3957    3960    4038      30    3957    3954    4026      31    3957    3954
    4029      31    3954    3957    4035      30    3954    3957    4032      30
    3951    3954    4026      37    3951    3954    4029      37    3948    3930
    4002      38    3945    3942    4020      39    3945    4101    4176       3
    3942    3939    4017      40    3942    3939    4014      40    3942    3945
    4023      41    3939    3933    4008      40    3939    3942    4020      40
    3936    3933    4008      39    3933    3936    4011      41    3933    3939
    4017      40    3933    3939    4014      40    3933    3930    3948      40
    3930    3933    4008      40    3927    3924    3942      40    3927    3924
    3930      40    3924    3942    4020      40    3924    3930    3948      40
    3921    3924    3927      38    4227    4146    4230       6    4209    4128
    4212       6    4203    4125    4206       7    4197    4122    4200       7
    4191    4119    4194       6    4188    4110    4266       3    4179    4104
    4182       8    4164    4161    4242       9    4161    4164    4245      10
    4161    4155    4236      11    4161    4134    4215      12    4158    4155
    4236      13    4155    4158    4239      10    4155    4161    4242      12
    4152    4155    4236      16    4152    4143    4224      18    4149    4146
    4227      19    4149    4146    4230      19    4146    4143    4224      21
    4146    4149    4233      22    4143    4137    4218      12    4143    4146
    4227      24    4143    4146    4230      24    4140    4137    4218       9
    4137    4134    4215      12    4137    4143    4224      12    4137    4140
    4221      10    4134    4161    4242      12    4134    4137    4218      12
    4131    4128    4209      28    4131    4128    4212      28    4131    4134
    4215      18    4128    4125    4206      30    4128    4125    4203      30
    4125    4128    4209      31    4125    4128    4212      31    4125    4122
    4200      30    4125    4122    4197      30    4122    4125    4206      30
    4122    4125    4203      30    4122    4119    4191      31    4122    4119
    4194      31    4119    4122    4200      30    4119    4122    4197      30
    4116    4119    4191      37    4116    4119    4194      37    4113    4095
    4167      38    4110    4107    4185      39    4110    4266    4341       3
    4107    4104    4182      40    4107    4104    4179      40    4107    4110
    4188      41    4104    4098    4173      40    4104    4107    4185      40
    4101    4098    4173      39    4098    4101    4176      41    4098    4104
    4182      40    4098    4104    4179      40    4098    4095    4113      40
    4095    4098    4173      40    4092    4089    4107      40    4092    4089
    4095      40    4089    4107    4185      40    4089    4095    4113      40
    4086    4089    4092      38    4392    4311    4395       6    4374    4293
    4377       6    4368    4290    4371       7    4362    4287    4365       7
    4356    4284    4359       6    4353    4275    4431       3    4344    4269
    4347       8    4329    4326    4407       9    4326    4329    4410      10
    4326    4320    4401      11    4326    4299    4380      12    4323    4320
    4401      13    4320    4323    4404      10    4320    4326    4407      12
    4317    4320    4401      16    4317    4308    4389      18    4314    4311
    4392      19    4314    4311    4395      19    4311    4308    4389      21
    4311    4314    4398      22    4308    4302    4383      12    4308    4311
    4392      24    4308    4311    4395      24    4305    4302    4383       9
    4302    4299    4380      12    4302    4308    4389      12    4302    4305
    4386      10    4299    4326    4407      12    4299    4302    4383      12
    4296    4293    4374      28    4296    4293    4377      28    4296    4299
    4380      18    4293    4290    4371      30    4293    4290    4368      30
    4290    4293    4374      31    4290    4293    4377      31    4290    4287
    4365      30    4290    4287    4362      30    4287    4290    4371      30
    4287    4290    4368      30    4287    4284    4356      31    4287    4284
    4359      31    4284    4287    4365      30    4284    4287    4362      30
    4281    4284    4356      37    4281    4284    4359      37    4278    4260
    4332      38    4275    4272    4350      39    4275    4431    4506       3
    4272    4269    4347      40    4272    4269    4344      40    4272    4275
    4353      41    4269    4263    4338      40    4269    4272    4350      40
    4266    4263    4338      39    4263    4266    4341      41    4263    4269
    4347      40    4263    4269    4344      40    4263    4260    4278      40
    4260    4263    4338      40    4257    4254    4272      40    4257    4254
    4260      40    4254    4272    4350      40    4254    4260    4278      40
    4251    4254    4257      38    4557    4476    4560       6    4539    4458
    4542       6    4533    4455    4536       7    4527    4452    4530       7
    4521    4449    4524       6    4518    4440    4596       3    4509    4434
    4512       8    4494    4491    4572       9    4491    4494    4575      10
    4491    4485    4566      11    4491    4464    4545      12    4488    4485
    4566      13    4485    4488    4569      10    4485    4491    4572      12
    4482    4485    4566      16    4482    4473    4554      18    4479    4476
    4557      19    4479    4476    4560      19    4476    4473    4554      21
    4476    4479    4563      22    4473    4467    4548      12    4473    4476
    4557      24    4473    4476    4560      24    4470    4467    4548       9
    4467    4464    4545      12    4467    4473    4554      12    4467    4470
    4551      10    4464    4491    4572      12    4464    4467    4548      12
    4461    4458    4539      28    4461    4458    4542      28    4461    4464
    4545      18    4458    4455    4536      30    4458    4455    4533      30
    4455    4458    4539      31    4455    4458    4542      31    4455    4452
    4530      30    4455    4452    4527      30    4452    4455    4536      30
    4452    4455    4533      30    4452    4449    4521      31    4452    4449
    4524      31    4449    4452    4530      30    4449    4452    4527      30
    4446    4449    4521      37    4446    4449    4524      37    4443    4425
    4497      38    4440    4437    4515      39    4440    4596    4671       3
    4437    4434    4512      40    4437    4434    4509      40    4437    4440
    4518      41    4434    4428    4503      40    4434    4437    4515      40
    4431    4428    4503      39    4428    4431    4506      41    4428    4434
    4512      40    4428    4434    4509      40    4428    4425    4443      40
    4425    4428    4503      40    4422    4419    4437      40    4422    4419
    4425      40    4419    4437    4515      40    4419    4425    4443      40
    4416    4419    4422      38    4722    4641    4725       6    4704    4623
    4707       6    4698    4620    4701       7    4692    4617    4695       7
    4686    4614    4689       6    4683    4605    4761       3    4674    4599
    4677       8    4659    4656    4737       9    4656    4659    4740      10
    4656    4650    4731      11    4656    4629    4710      12    4653    4650
    4731      13    4650    4653    4734      10    4650    4656    4737      12
    4647    4650    4731      16    4647    4638    4719      18    4644    4641
    4722      19    4644    4641    4725      19    4641    4638    4719      21
    4641    4644    4728      22    4638    4632    4713      12    4638    4641
    4722      24    4638    4641    4725      24    4635    4632    4713       9
    4632    4629    4710      12    4632    4638    4719      12    4632    4635
    4716      10    4629    4656    4737      12    4629    4632    4713      12
    4626    4623    4704      28    4626    4623    4707      28    4626    4629
    4710      18    4623    4620    4701      30    4623    4620    4698      30
    4620    4623    4704      31    4620    4623    4707      31    4620    4617
    4695      30    4620    4617    4692      30    4617    4620    4701      30
    4617    4620    4698      30    4617    4614    4686      31    4617    4614
    4689      31    4614    4617    4695      30    4614    4617    4692      30
    4611    4614    4686      37    4611    4614    4689      37    4608    4590
    4662      38    4605    4602    4680      39    4605    4761    4836       3
    4602    4599    4677      40    4602    4599    4674      40    4602    4605
    4683      41    4599    4593    4668      40    4599    4602    4680      40
    4596    4593    4668      39    4593    4596    4671      41    4593    4599
    4677      40    4593    4599    4674      40    4593    4590    4608      40
    4590    4593    4668      40    4587    4584    4602      40    4587    4584
    4590      40    4584    4602    4680      40    4584    4590    4608      40
    4581    4584    4587      38    4887    4806    4890       6    4869    4788
    4872       6    4863    4785    4866       7    4857    4782    4860       7
    4851    4779    4854       6    4848    4770    4926       3    4839    4764
    4842       8    4824    4821    4902       9    4821    4824    4905      10
    4821    4815    4896      11    4821    4794    4875      12    4818    4815
    4896      13    4815    4818    4899      10    4815    4821    4902      12
    4812    4815    4896      16    4812    4803    4884      18    4809    4806
    4887      19    4809    4806    4890      19    4806    4803    4884      21
    4806    4809    4893      22    4803    4797    4878      12    4803    4806
    4887      24    4803    4806    4890      24    4800    4797    4878       9
    4797    4794    4875      12    4797    4803    4884      12    4797    4800
    4881      10    4794    4821    4902      12    4794    4797    4878      12
    4791    4788    4869      28    4791    4788    4872      28    4791    4794
    4875      18    4788    4785    4866      30    4788    4785    4863      30
    4785    4788    4869      31    4785    4788    4872      31    4785    4782
    4860      30    4785    4782    4857      30    4782    4785    4866      30
    4782    4785    4863      30    4782    4779    4851      31    4782    4779
    4854      31    4779    4782    4860      30    4779    4782    4857      30
    4776    4779    4851      37    4776    4779    4854      37    4773    4755
    4827      38    4770    4767    4845      39    4770    4926    5001       3
    4767    4764    4842      40    4767    4764    4839      40    4767    4770
    4848      41    4764    4758    4833      40    4764    4767    4845      40
    4761    4758    4833      39    4758    4761    4836      41    4758    4764
    4842      40    4758    4764    4839      40    4758    4755    4773      40
    4755    4758    4833      40    4752    4749    4767      40    4752    4749
    4755      40    4749    4767    4845      40    4749    4755    4773      40
    4746    4749    4752      38    5052    4971    5055       6    5034    4953
    5037       6    5028    4950    5031       7    5022    4947    5025       7
    5016    4944    5019       6    5013    4935    5073       3    5004    4929
    5007       8    4989    4986    5067       9    4986    4989    5070      10
    4986    4980    5061      11    4986    4959    5040      12    4983    4980
    5061      13    4980    4983    5064      10    4980    4986    5067      12
    4977    4980    5061      16    4977    4968    5049      18    4974    4971
    5052      19    4974    4971    5055      19    4971    4968    5049      21
    4971    4974    5058      22    4968    4962    5043      12    4968    4971
    5052      24    4968    4971    5055      24    4965    4962    5043       9
    4962    4959    5040      12    4962    4968    5049      12    4962    4965
    5046      10    4959    4986    5067      12    4959    4962    5043      12
    4956    4953    5034      28    4956    4953    5037      28    4956    4959
    5040      18    4953    4950    5031      30    4953    4950    5028      30
    4950    4953    5034      31    4950    4953    5037      31    4950    4947
    5025      30    4950    4947    5022      30    4947    4950    5031      30
    4947    4950    5028      30    4947    4944    5016      31    4947    4944
    5019      31    4944    4947    5025      30    4944    4947    5022      30
    4941    4944    5016      37    4941    4944    5019      37    4938    4920
    4992      38    4935    4932    5010      39    4935    5073    5076       3
    4935    5073    5079       3    4932    4929    5007      40    4932    4929
    5004      40    4932    4935    5013      41    4929    4923    4998      40
    4929    4932    5010      40    4926    4923    4998      39    4923    4926
    5001      41    4923    4929    5007      40    4923    4929    5004      40
    4923    4920    4938      40    4920    4923    4998      40    4917    4914
    4932      40    4917    4914    4920      40    4914    4932    5010      40
    4914    4920    4938      40    4911    4914    4917      38    5076    5073
    5079       4    5088    5082    5109       3    5085    5082    5088       4
    5085    5082    5109       3    5082    5109    5184       3    5235    5154
    5238       6    5217    5136    5220       6    5211    5133    5214       7
    5205    5130    5208       7    5199    5127    5202       6    5196    5118
    5274       3    5187    5112    5190       8    5172    5169    5250       9
    5169    5172    5253      10    5169    5163    5244      11    5169    5142
    5223      12    5166    5163    5244      13    5163    5166    5247      10
    5163    5169    5250      12    5160    5163    5244      16    5160    5151
    5232      18    5157    5154    5235      19    5157    5154    5238      19
    5154    5151    5232      21    5154    5157    5241      22    5151    5145
    5226      12    5151    5154    5235      24    5151    5154    5238      24
    5148    5145    5226       9    5145    5142    5223      12    5145    5151
    5232      12    5145    5148    5229      10    5142    5169    5250      12
    5142    5145    5226      12    5139    5136    5217      28    5139    5136
    5220      28    5139    5142    5223      18    5136    5133    5214      30
    5136    5133    5211      30    5133    5136    5217      31    5133    5136
    5220      31    5133    5130    5208      30    5133    5130    5205      30
    5130    5133    5214      30    5130    5133    5211      30    5130    5127
    5199      31    5130    5127    5202      31    5127    5130    5208      30
    5127    5130    5205      30    5124    5127    5199      37    5124    5127
    5202      37    5121    5103    5175      38    5118    5115    5193      39
    5118    5274    5349       3    5115    5112    5190      40    5115    5112
    5187      40    5115    5118    5196      41    5112    5106    5181      40
    5112    5115    5193      40    5109    5106    5181      39    5106    5109
    5184      41    5106    5112    5190      40    5106    5112    5187      40
    5106    5103    5121      40    5103    5106    5181      40    5100    5097
    5115      40    5100    5097    5103      40    5097    5115    5193      40
    5097    5103    5121      40    5094    5097    5100      38    5400    5319
    5403       6    5382    5301    5385       6    5376    5298    5379       7
    5370    5295    5373       7    5364    5292    5367       6    5361    5283
    5439       3    5352    5277    5355       8    5337    5334    5415       9
    5334    5337    5418      10    5334    5328    5409      11    5334    5307
    5388      12    5331    5328    5409      13    5328    5331    5412      10
    5328    5334    5415      12    5325    5328    5409      16    5325    5316
    5397      18    5322    5319    5400      19    5322    5319    5403      19
    5319    5316    5397      21    5319    5322    5406      22    5316    5310
    5391      12    5316    5319    5400      24    5316    5319    5403      24
    5313    5310    5391       9    5310    5307    5388      12    5310    5316
    5397      12    5310    5313    5394      10    5307    5334    5415      12
    5307    5310    5391      12    5304    5301    5382      28    5304    5301
    5385      28    5304    5307    5388      18    5301    5298    5379      30
    5301    5298    5376      30    5298    5301    5382      31    5298    5301
    5385      31    5298    5295    5373      30    5298    5295    5370      30
    5295    5298    5379      30    5295    5298    5376      30    5295    5292
    5364      31    5295    5292    5367      31    5292    5295    5373      30
    5292    5295    5370      30    5289    5292    5364      37    5289    5292
    5367      37    5286    5268    5340      38    5283    5280    5358      39
    5283    5439    5514       3    5280    5277    5355      40    5280    5277
    5352      40    5280    5283    5361      41    5277    5271    5346      40
    5277    5280    5358      40    5274    5271    5346      39    5271    5274
    5349      41    5271    5277    5355      40    5271    5277    5352      40
    5271    5268    5286      40    5268    5271    5346      40    5265    5262
    5280      40    5265    5262    5268      40    5262    5280    5358      40
    5262    5268    5286      40    5259    5262    5265      38    5565    5484
    5568       6    5547    5466    5550       6    5541    5463    5544       7
    5535    5460    5538       7    5529    5457    5532       6    5526    5448
    5604       3    5517    5442    5520       8    5502    5499    5580       9
    5499    5502    5583      10    5499    5493    5574      11    5499    5472
    5553      12    5496    5493    5574      13    5493    5496    5577      10
    5493    5499    5580      12    5490    5493    5574      16    5490    5481
    5562      18    5487    5484    5565      19    5487    5484    5568      19
    5484    5481    5562      21    5484    5487    5571      22    5481    5475
    5556      12    5481    5484    5565      24    5481    5484    5568      24
    5478    5475    5556       9    5475    5472    5553      12    5475    5481
    5562      12    5475    5478    5559      10    5472    5499    5580      12
    5472    5475    5556      12    5469    5466    5547      28    5469    5466
    5550      28    5469    5472    5553      18    5466    5463    5544      30
    5466    5463    5541      30    5463    5466    5547      31    5463    5466
    5550      31    5463    5460    5538      30    5463    5460    5535      30
    5460    5463    5544      30    5460    5463    5541      30    5460    5457
    5529      31    5460    5457    5532      31    5457    5460    5538      30
    5457    5460    5535      30    5454    5457    5529      37    5454    5457
    5532      37    5451    5433    5505      38    5448    5445    5523      39
    5448    5604    5679       3    5445    5442    5520      40    5445    5442
    5517      40    5445    5448    5526      41    5442    5436    5511      40
    5442    5445    5523      40    5439    5436    5511      39    5436    5439
    5514      41    5436    5442    5520      40    5436    5442    5517      40
    5436    5433    5451      40    5433    5436    5511      40    5430    5427
    5445      40    5430    5427    5433      40    5427    5445    5523      40
    5427    5433    5451      40    5424    5427    5430      38    5730    5649
    5733       6    5712    5631    5715       6    5706    5628    5709       7
    5700    5625    5703       7    5694    5622    5697       6    5691    5613
    5769       3    5682    5607    5685       8    5667    5664    5745       9
    5664    5667    5748      10    5664    5658    5739      11    5664    5637
    5718      12    5661    5658    5739      13    5658    5661    5742      10
    5658    5664    5745      12    5655    5658    5739      16    5655    5646
    5727      18    5652    5649    5730      19    5652    5649    5733      19
    5649    5646    5727      21    5649    5652    5736      22    5646    5640
    5721      12    5646    5649    5730      24    5646    5649    5733      24
    5643    5640    5721       9    5640    5637    5718      12    5640    5646
    5727      12    5640    5643    5724      10    5637    5664    5745      12
    5637    5640    5721      12    5634    5631    5712      28    5634    5631
    5715      28    5634    5637    5718      18    5631    5628    5709      30
    5631    5628    5706      30    5628    5631    5712      31    5628    5631
    5715      31    5628    5625    5703      30    5628    5625    5700      30
    5625    5628    5709      30    5625    5628    5706      30    5625    5622
    5694      31    5625    5622    5697      31    5622    5625    5703      30
    5622    5625    5700      30    5619    5622    5694      37    5619    5622
    5697      37    5616    5598    5670      38    5613    5610    5688      39
    5613    5769    5844       3    5610    5607    5685      40    5610    5607
    5682      40    5610    5613    5691      41    5607    5601    5676      40
    5607    5610    5688      40    5604    5601    5676      39    5601    5604
    5679      41    5601    5607    5685      40    5601    5607    5682      40
    5601    5598    5616      40    5598    5601    5676      40    5595    5592
    5610      40    5595    5592    5598      40    5592    5610    5688      40
    5592    5598    5616      40    5589    5592    5595      38    5895    5814
    5898       6    5877    5796    5880       6    5871    5793    5874       7
    5865    5790    5868       7    5859    5787    5862       6    5856    5778
    5934       3    5847    5772    5850       8    5832    5829    5910       9
    5829    5832    5913      10    5829    5823    5904      11    5829    5802
    5883      12    5826    5823    5904      13    5823    5826    5907      10
    5823    5829    5910      12    5820    5823    5904      16    5820    5811
    5892      18    5817    5814    5895      19    5817    5814    5898      19
    5814    5811    5892      21    5814    5817    5901      22    5811    5805
    5886      12    5811    5814    5895      24    5811    5814    5898      24
    5808    5805    5886       9    5805    5802    5883      12    5805    5811
    5892      12    5805    5808    5889      10    5802    5829    5910      12
    5802    5805    5886      12    5799    5796    5877      28    5799    5796
    5880      28    5799    5802    5883      18    5796    5793    5874      30
    5796    5793    5871      30    5793    5796    5877      31    5793    5796
    5880      31    5793    5790    5868      30    5793    5790    5865      30
    5790    5793    5874      30    5790    5793    5871      30    5790    5787
    5859      31    5790    5787    5862      31    5787    5790    5868      30
    5787    5790    5865      30    5784    5787    5859      37    5784    5787
    5862      37    5781    5763    5835      38    5778    5775    5853      39
    5778    5934    6009       3    5775    5772    5850      40    5775    5772
    5847      40    5775    5778    5856      41    5772    5766    5841      40
    5772    5775    5853      40    5769    5766    5841      39    5766    5769
    5844      41    5766    5772    5850      40    5766    5772    5847      40
    5766    5763    5781      40    5763    5766    5841      40    5760    5757
    5775      40    5760    5757    5763      40    5757    5775    5853      40
    5757    5763    5781      40    5754    5757    5760      38    6060    5979
    6063       6    6042    5961    6045       6    6036    5958    6039       7
    6030    5955    6033       7    6024    5952    6027       6    6021    5943
    6099       3    6012    5937    6015       8    5997    5994    6075       9
    5994    5997    6078      10    5994    5988    6069      11    5994    5967
    6048      12    5991    5988    6069      13    5988    5991    6072      10
    5988    5994    6075      12    5985    5988    6069      16    5985    5976
    6057      18    5982    5979    6060      19    5982    5979    6063      19
    5979    5976    6057      21    5979    5982    6066      22    5976    5970
    6051      12    5976    5979    6060      24    5976    5979    6063      24
    5973    5970    6051       9    5970    5967    6048      12    5970    5976
    6057      12    5970    5973    6054      10    5967    5994    6075      12
    5967    5970    6051      12    5964    5961    6042      28    5964    5961
    6045      28    5964    5967    6048      18    5961    5958    6039      30
    5961    5958    6036      30    5958    5961    6042      31    5958    5961
    6045      31    5958    5955    6033      30    5958    5955    6030      30
    5955    5958    6039      30    5955    5958    6036      30    5955    5952
    6024      31    5955    5952    6027      31    5952    5955    6033      30
    5952    5955    6030      30    5949    5952    6024      37    5949    5952
    6027      37    5946    5928    6000      38    5943    5940    6018      39
    5943    6099    6174       3    5940    5937    6015      40    5940    5937
    6012      40    5940    5943    6021      41    5937    5931    6006      40
    5937    5940    6018      40    5934    5931    6006      39    5931    5934
    6009      41    5931    5937    6015      40    5931    5937    6012      40
    5931    5928    5946      40    5928    5931    6006      40    5925    5922
    5940      40    5925    5922    5928      40    5922    5940    6018      40
    5922    5928    5946      40    5919    5922    5925      38    6225    6144
    6228       6    6207    6126    6210       6    6201    6123    6204       7
    6195    6120    6198       7    6189    6117    6192       6    6186    6108
    6264       3    6177    6102    6180       8    6162    6159    6240       9
    6159    6162    6243      10    6159    6153    6234      11    6159    6132
    6213      12    6156    6153    6234      13    6153    6156    6237      10
    6153    6159    6240      12    6150    6153    6234      16    6150    6141
    6222      18    6147    6144    6225      19    6147    6144    6228      19
    6144    6141    6222      21    6144    6147    6231      22    6141    6135
    6216      12    6141    6144    6225      24    6141    6144    6228      24
    6138    6135    6216       9    6135    6132    6213      12    6135    6141
    6222      12    6135    6138    6219      10    6132    6159    6240      12
    6132    6135    6216      12    6129    6126    6207      28    6129    6126
    6210      28    6129    6132    6213      18    6126    6123    6204      30
    6126    6123    6201      30    6123    6126    6207      31    6123    6126
    6210      31    6123    6120    6198      30    6123    6120    6195      30
    6120    6123    6204      30    6120    6123    6201      30    6120    6117
    6189      31    6120    6117    6192      31    6117    6120    6198      30
    6117    6120    6195      30    6114    6117    6189      37    6114    6117
    6192      37    6111    6093    6165      38    6108    6105    6183      39
    6108    6264    6339       3    6105    6102    6180      40    6105    6102
    6177      40    6105    6108    6186      41    6102    6096    6171      40
    6102    6105    6183      40    6099    6096    6171      39    6096    6099
    6174      41    6096    6102    6180      40    6096    6102    6177      40
    6096    6093    6111      40    6093    6096    6171      40    6090    6087
    6105      40    6090    6087    6093      40    6087    6105    6183      40
    6087    6093    6111      40    6084    6087    6090      38    6390    6309
    6393       6    6372    6291    6375       6    6366    6288    6369       7
    6360    6285    6363       7    6354    6282    6357       6    6351    6273
    6429       3    6342    6267    6345       8    6327    6324    6405       9
    6324    6327    6408      10    6324    6318    6399      11    6324    6297
    6378      12    6321    6318    6399      13    6318    6321    6402      10
    6318    6324    6405      12    6315    6318    6399      16    6315    6306
    6387      18    6312    6309    6390      19    6312    6309    6393      19
    6309    6306    6387      21    6309    6312    6396      22    6306    6300
    6381      12    6306    6309    6390      24    6306    6309    6393      24
    6303    6300    6381       9    6300    6297    6378      12    6300    6306
    6387      12    6300    6303    6384      10    6297    6324    6405      12
    6297    6300    6381      12    6294    6291    6372      28    6294    6291
    6375      28    6294    6297    6378      18    6291    6288    6369      30
    6291    6288    6366      30    6288    6291    6372      31    6288    6291
    6375      31    6288    6285    6363      30    6288    6285    6360      30
    6285    6288    6369      30    6285    6288    6366      30    6285    6282
    6354      31    6285    6282    6357      31    6282    6285    6363      30
    6282    6285    6360      30    6279    6282    6354      37    6279    6282
    6357      37    6276    6258    6330      38    6273    6270    6348      39
    6273    6429    6504       3    6270    6267    6345      40    6270    6267
    6342      40    6270    6273    6351      41    6267    6261    6336      40
    6267    6270    6348      40    6264    6261    6336      39    6261    6264
    6339      41    6261    6267    6345      40    6261    6267    6342      40
    6261    6258    6276      40    6258    6261    6336      40    6255    6252
    6270      40    6255    6252    6258      40    6252    6270    6348      40
    6252    6258    6276      40    6249    6252    6255      38    6555    6474
    6558       6    6537    6456    6540       6    6531    6453    6534       7
    6525    6450    6528       7    6519    6447    6522       6    6516    6438
    6594       3    6507    6432    6510       8    6492    6489    6570       9
    6489    6492    6573      10    6489    6483    6564      11    6489    6462
    6543      12    6486    6483    6564      13    6483    6486    6567      10
    6483    6489    6570      12    6480    6483    6564      16    6480    6471
    6552      18    6477    6474    6555      19    6477    6474    6558      19
    6474    6471    6552      21    6474    6477    6561      22    6471    6465
    6546      12    6471    6474    6555      24    6471    6474    6558      24
    6468    6465    6546       9    6465    6462    6543      12    6465    6471
    6552      12    6465    6468    6549      10    6462    6489    6570      12
    6462    6465    6546      12    6459    6456    6537      28    6459    6456
    6540      28    6459    6462    6543      18    6456    6453    6534      30
    6456    6453    6531      30    6453    6456    6537      31    6453    6456
    6540      31    6453    6450    6528      30    6453    6450    6525      30
    6450    6453    6534      30    6450    6453    6531      30    6450    6447
    6519      31    6450    6447    6522      31    6447    6450    6528      30
    6447    6450    6525      30    6444    6447    6519      37    6444    6447
    6522      37    6441    6423    6495      38    6438    6435    6513      39
    6438    6594    6669       3    6435    6432    6510      40    6435    6432
    6507      40    6435    6438    6516      41    6432    6426    6501      40
    6432    6435    6513      40    6429    6426    6501      39    6426    6429
    6504      41    6426    6432    6510      40    6426    6432    6507      40
    6426    6423    6441      40    6423    6426    6501      40    6420    6417
    6435      40    6420    6417    6423      40    6417    6435    6513      40
    6417    6423    6441      40    6414    6417    6420      38    6720    6639
    6723       6    6702    6621    6705       6    6696    6618    6699       7
    6690    6615    6693       7    6684    6612    6687       6    6681    6603
    6741       3    6672    6597    6675       8    6657    6654    6735       9
    6654    6657    6738      10    6654    6648    6729      11    6654    6627
    6708      12    6651    6648    6729      13    6648    6651    6732      10
    6648    6654    6735      12    6645    6648    6729      16    6645    6636
    6717      18    6642    6639    6720      19    6642    6639    6723      19
    6639    6636    6717      21    6639    6642    6726      22    6636    6630
    6711      12    6636    6639    6720      24    6636    6639    6723      24
    6633    6630    6711       9    6630    6627    6708      12    6630    6636
    6717      12    6630    6633    6714      10    6627    6654    6735      12
    6627    6630    6711      12    6624    6621    6702      28    6624    6621
    6705      28    6624    6627    6708      18    6621    6618    6699      30
    6621    6618    6696      30    6618    6621    6702      31    6618    6621
    6705      31    6618    6615    6693      30    6618    6615    6690      30
    6615    6618    6699      30    6615    6618    6696      30    6615    6612
    6684      31    6615    6612    6687      31    6612    6615    6693      30
    6612    6615    6690      30    6609    6612    6684      37    6609    6612
    6687      37    6606    6588    6660      38    6603    6600    6678      39
    6603    6741    6744       3    6603    6741    6747       3    6600    6597
    6675      40    6600    6597    6672      40    6600    6603    6681      41
    6597    6591    6666      40    6597    6600    6678      40    6594    6591
    6666      39    6591    6594    6669      41    6591    6597    6675      40
    6591    6597    6672      40    6591    6588    6606      40    6588    6591
    6666      40    6585    6582    6600      40    6585    6582    6588      40
    6582    6600    6678      40    6582    6588    6606      40    6579    6582
    6585      38    6744    6741    6747       4
%FLAG ANGLES_WITHOUT_HYDROGEN                                                   
%FORMAT(10I8)                                                                   
      39      36      42       1      36      42      45       1      33      36
      42       1      33      36      39       1      30      33      36       1
      30      27      45       1      27      30      33       1      27      45
      42       1      24      27      30       1      24      27      45       1
      21      24      27       1      18      15      45       1      18      21
      24       1      15      45      27       1      15      45      42       1
      15      18      21       1      12      15      45       1      12      15
      18       1       9      12      15       1       9       6      42       1
       6       9      12       1       6      42      45       1       6      42
      36       1       3       6       9       1       3       6      42       1
       3       0      39       1       0      39      36       1       0       3
       6       1      78     105     102       5     162     159     165      14
     159     165     168      14     156     159     162      15     156     159
     165      17     150     147     156      20     147     156     159      23
     147     150     153      25     144     141     147      14     141     138
     165      26     141     147     156      17     141     147     150      27
     138     165     168      14     138     165     159      26     138     141
     147      26     138     141     144      14     135     138     165      17
     135     138     141      17     132     135     138      29     129     132
     135      32     126     129     132      33     123     126     129      33
     123     120     171      34     120     171     174      35     120     123
     126      36     114     270     267       5     111     114     270       5
     108     111     114      42     105     102     108      42     102     108
     111      43     102      99     171      44      99     102     105      42
      99     102     108      43      99     171     174      45      99     171
     120      46      99      93     111      43      93     111     108      43
      93     111     114      42      93      99     102      43      93      99
     171      44      93      90     120      46      90      93     111      44
      90      93      99      44      90     120     171      47      90     120
     123      34      87      90      93      45      87      90     120      35
     327     324     330      14     324     330     333      14     321     324
     327      15     321     324     330      17     315     312     321      20
     312     321     324      23     312     315     318      25     309     306
     312      14     306     303     330      26     306     312     321      17
     306     312     315      27     303     330     333      14     303     330
     324      26     303     306     312      26     303     306     309      14
     300     303     330      17     300     303     306      17     297     300
     303      29     294     297     300      32     291     294     297      33
     288     291     294      33     288     285     336      34     285     336
     339      35     285     288     291      36     279     435     432       5
     276     279     435       5     273     276     279      42     270     267
     273      42     267     273     276      43     267     264     336      44
     264     267     270      42     264     267     273      43     264     336
     339      45     264     336     285      46     264     258     276      43
     258     276     273      43     258     276     279      42     258     264
     267      43     258     264     336      44     258     255     285      46
     255     258     276      44     255     258     264      44     255     285
     336      47     255     285     288      34     252     255     258      45
     252     255     285      35     492     489     495      14     489     495
     498      14     486     489     492      15     486     489     495      17
     480     477     486      20     477     486     489      23     477     480
     483      25     474     471     477      14     471     468     495      26
     471     477     486      17     471     477     480      27     468     495
     498      14     468     495     489      26     468     471     477      26
     468     471     474      14     465     468     495      17     465     468
     471      17     462     465     468      29     459     462     465      32
     456     459     462      33     453     456     459      33     453     450
     501      34     450     501     504      35     450     453     456      36
     444     600     597       5     441     444     600       5     438     441
     444      42     435     432     438      42     432     438     441      43
     432     429     501      44     429     432     435      42     429     432
     438      43     429     501     504      45     429     501     450      46
     429     423     441      43     423     441     438      43     423     441
     444      42     423     429     432      43     423     429     501      44
     423     420     450      46     420     423     441      44     420     423
     429      44     420     450     501      47     420     450     453      34
     417     420     423      45     417     420     450      35     657     654
     660      14     654     660     663      14     651     654     657      15
     651     654     660      17     645     642     651      20     642     651
     654      23     642     645     648      25     639     636     642      14
     636     633     660      26     636     642     651      17     636     642
     645      27     633     660     663      14     633     660     654      26
     633     636     642      26     633     636     639      14     630     633
     660      17     630     633     636      17     627     630     633      29
     624     627     630      32     621     624     627      33     618     621
     624      33     618     615     666      34     615     666     669      35
     615     618     621      36     609     765     762       5     606     609
     765       5     603     606     609      42     600     597     603      42
     597     603     606      43     597     594     666      44     594     597
     600      42     594     597     603      43     594     666     669      45
     594     666     615      46     594     588     606      43     588     606
     603      43     588     606     609      42     588     594     597      43
     588     594     666      44     588     585     615      46     585     588
     606      44     585     588     594      44     585     615     666      47
     585     615     618      34     582     585     588      45     582     585
     615      35     822     819     825      14     819     825     828      14
     816     819     822      15     816     819     825      17     810     807
     816      20     807     816     819      23     807     810     813      25
     804     801     807      14     801     798     825      26     801     807
     816      17     801     807     810      27     798     825     828      14
     798     825     819      26     798     801     807      26     798     801
     804      14     795     798     825      17     795     798     801      17
     792     795     798      29     789     792     795      32     786     789
     792      33     783     786     789      33     783     780     831      34
     780     831     834      35     780     783     786      36     774     930
     927       5     771     774     930       5     768     771     774      42
     765     762     768      42     762     768     771      43     762     759
     831      44     759     762     765      42     759     762     768      43
     759     831     834      45     759     831     780      46     759     753
     771      43     753     771     768      43     753     771     774      42
     753     759     762      43     753     759     831      44     753     750
     780      46     750     753     771      44     750     753     759      44
     750     780     831      47     750     780     783      34     747     750
     753      45     747     750     780      35     987     984     990      14
     984     990     993      14     981     984     987      15     981     984
     990      17     975     972     981      20     972     981     984      23
     972     975     978      25     969     966     972      14     966     963
     990      26     966     972     981      17     966     972     975      27
     963     990     993      14     963     990     984      26     963     966
     972      26     963     966     969      14     960     963     990      17
     960     963     966      17     957     960     963      29     954     957
     960      32     951     954     957      33     948     951     954      33
     948     945     996      34     945     996     999      35     945     948
     951      36     939    1095    1092       5     936     939    1095       5
     933     936     939      42     930     927     933      42     927     933
     936      43     927     924     996      44     924     927     930      42
     924     927     933      43     924     996     999      45     924     996
     945      46     924     918     936      43     918     936     933      43
     918     936     939      42     918     924     927      43     918     924
     996      44     918     915     945      46     915     918     936      44
     915     918     924      44     915     945     996      47     915     945
     948      34     912     915     918      45     912     915     945      35
    1152    1149    1155      14    1149    1155    1158      14    1146    1149
    1152      15    1146    1149    1155      17    1140    1137    1146      20
    1137    1146    1149      23    1137    1140    1143      25    1134    1131
    1137      14    1131    1128    1155      26    1131    1137    1146      17
    1131    1137    1140      27    1128    1155    1158      14    1128    1155
    1149      26    1128    1131    1137      26    1128    1131    1134      14
    1125    1128    1155      17    1125    1128    1131      17    1122    1125
    1128      29    1119    1122    1125      32    1116    1119    1122      33
    1113    1116    1119      33    1113    1110    1161      34    1110    1161
    1164      35    1110    1113    1116      36    1104    1260    1257       5
    1101    1104    1260       5    1098    1101    1104      42    1095    1092
    1098      42    1092    1098    1101      43    1092    1089    1161      44
    1089    1092    1095      42    1089    1092    1098      43    1089    1161
    1164      45    1089    1161    1110      46    1089    1083    1101      43
    1083    1101    1098      43    1083    1101    1104      42    1083    1089
    1092      43    1083    1089    1161      44    1083    1080    1110      46
    1080    1083    1101      44    1080    1083    1089      44    1080    1110
    1161      47    1080    1110    1113      34    1077    1080    1083      45
    1077    1080    1110      35    1317    1314    1320      14    1314    1320
    1323      14    1311    1314    1317      15    1311    1314    1320      17
    1305    1302    1311      20    1302    1311    1314      23    1302    1305
    1308      25    1299    1296    1302      14    1296    1293    1320      26
    1296    1302    1311      17    1296    1302    1305      27    1293    1320
    1323      14    1293    1320    1314      26    1293    1296    1302      26
    1293    1296    1299      14    1290    1293    1320      17    1290    1293
    1296      17    1287    1290    1293      29    1284    1287    1290      32
    1281    1284    1287      33    1278    1281    1284      33    1278    1275
    1326      34    1275    1326    1329      35    1275    1278    1281      36
    1269    1425    1422       5    1266    1269    1425       5    1263    1266
    1269      42    1260    1257    1263      42    1257    1263    1266      43
    1257    1254    1326      44    1254    1257    1260      42    1254    1257
    1263      43    1254    1326    1329      45    1254    1326    1275      46
    1254    1248    1266      43    1248    1266    1263      43    1248    1266
    1269      42    1248    1254    1257      43    1248    1254    1326      44
    1248    1245    1275      46    1245    1248    1266      44    1245    1248
    1254      44    1245    1275    1326      47    1245    1275    1278      34
    1242    1245    1248      45    1242    1245    1275      35    1482    1479
    1485      14    1479    1485    1488      14    1476    1479    1482      15
    1476    1479    1485      17    1470    1467    1476      20    1467    1476
    1479      23    1467    1470    1473      25    1464    1461    1467      14
    1461    1458    1485      26    1461    1467    1476      17    1461    1467
    1470      27    1458    1485    1488      14    1458    1485    1479      26
    1458    1461    1467      26    1458    1461    1464      14    1455    1458
    1485      17    1455    1458    1461      17    1452    1455    1458      29
    1449    1452    1455      32    1446    1449    1452      33    1443    1446
    1449      33    1443    1440    1491      34    1440    1491    1494      35
    1440    1443    1446      36    1434    1590    1587       5    1431    1434
    1590       5    1428    1431    1434      42    1425    1422    1428      42
    1422    1428    1431      43    1422    1419    1491      44    1419    1422
    1425      42    1419    1422    1428      43    1419    1491    1494      45
    1419    1491    1440      46    1419    1413    1431      43    1413    1431
    1428      43    1413    1431    1434      42    1413    1419    1422      43
    1413    1419    1491      44    1413    1410    1440      46    1410    1413
    1431      44    1410    1413    1419      44    1410    1440    1491      47
    1410    1440    1443      34    1407    1410    1413      45    1407    1410
    1440      35    1647    1644    1650      14    1644    1650    1653      14
    1641    1644    1647      15    1641    1644    1650      17    1635    1632
    1641      20    1632    1641    1644      23    1632    1635    1638      25
    1629    1626    1632      14    1626    1623    1650      26    1626    1632
    1641      17    1626    1632    1635      27    1623    1650    1653      14
    1623    1650    1644      26    1623    1626    1632      26    1623    1626
    1629      14    1620    1623    1650      17    1620    1623    1626      17
    1617    1620    1623      29    1614    1617    1620      32    1611    1614
    1617      33    1608    1611    1614      33    1608    1605    1656      34
    1605    1656    1659      35    1605    1608    1611      36    1596    1599
    1737       5    1593    1596    1599      42    1590    1587    1593      42
    1587    1593    1596      43    1587    1584    1656      44    1584    1587
    1590      42    1584    1587    1593      43    1584    1656    1659      45
    1584    1656    1605      46    1584    1578    1596      43    1578    1596
    1593      43    1578    1596    1599      42    1578    1584    1587      43
    1578    1584    1656      44    1578    1575    1605      46    1575    1578
    1596      44    1575    1578    1584      44    1575    1605    1656      47
    1575    1605    1608      34    1572    1575    1578      45    1572    1575
    1605      35    1746    1773    1770       5    1830    1827    1833      14
    1827    1833    1836      14    1824    1827    1830      15    1824    1827
    1833      17    1818    1815    1824      20    1815    1824    1827      23
    1815    1818    1821      25    1812    1809    1815      14    1809    1806
    1833      26    1809    1815    1824      17    1809    1815    1818      27
    1806    1833    1836      14    1806    1833    1827      26    1806    1809
    1815      26    1806    1809    1812      14    1803    1806    1833      17
    1803    1806    1809      17    1800    1803    1806      29    1797    1800
    1803      32    1794    1797    1800      33    1791    1794    1797      33
    1791    1788    1839      34    1788    1839    1842      35    1788    1791
    1794      36    1782    1938    1935       5    1779    1782    1938       5
    1776    1779    1782      42    1773    1770    1776      42    1770    1776
    1779      43    1770    1767    1839      44    1767    1770    1773      42
    1767    1770    1776      43    1767    1839    1842      45    1767    1839
    1788      46    1767    1761    1779      43    1761    1779    1776      43
    1761    1779    1782      42    1761    1767    1770      43    1761    1767
    1839      44    1761    1758    1788      46    1758    1761    1779      44
    1758    1761    1767      44    1758    1788    1839      47    1758    1788
    1791      34    1755    1758    1761      45    1755    1758    1788      35
    1995    1992    1998      14    1992    1998    2001      14    1989    1992
    1995      15    1989    1992    1998      17    1983    1980    1989      20
    1980    1989    1992      23    1980    1983    1986      25    1977    1974
    1980      14    1974    1971    1998      26    1974    1980    1989      17
    1974    1980    1983      27    1971    1998    2001      14    1971    1998
    1992      26    1971    1974    1980      26    1971    1974    1977      14
    1968    1971    1998      17    1968    1971    1974      17    1965    1968
    1971      29    1962    1965    1968      32    1959    1962    1965      33
    1956    1959    1962      33    1956    1953    2004      34    1953    2004
    2007      35    1953    1956    1959      36    1947    2103    2100       5
    1944    1947    2103       5    1941    1944    1947      42    1938    1935
    1941      42    1935    1941    1944      43    1935    1932    2004      44
    1932    1935    1938      42    1932    1935    1941      43    1932    2004
    2007      45    1932    2004    1953      46    1932    1926    1944      43
    1926    1944    1941      43    1926    1944    1947      42    1926    1932
    1935      43    1926    1932    2004      44    1926    1923    1953      46
    1923    1926    1944      44    1923    1926    1932      44    1923    1953
    2004      47    1923    1953    1956      34    1920    1923    1926      45
    1920    1923    1953      35    2160    2157    2163      14    2157    2163
    2166      14    2154    2157    2160      15    2154    2157    2163      17
    2148    2145    2154      20    2145    2154    2157      23    2145    2148
    2151      25    2142    2139    2145      14    2139    2136    2163      26
    2139    2145    2154      17    2139    2145    2148      27    2136    2163
    2166      14    2136    2163    2157      26    2136    2139    2145      26
    2136    2139    2142      14    2133    2136    2163      17    2133    2136
    2139      17    2130    2133    2136      29    2127    2130    2133      32
    2124    2127    2130      33    2121    2124    2127      33    2121    2118
    2169      34    2118    2169    2172      35    2118    2121    2124      36
    2112    2268    2265       5    2109    2112    2268       5    2106    2109
    2112      42    2103    2100    2106      42    2100    2106    2109      43
    2100    2097    2169      44    2097    2100    2103      42    2097    2100
    2106      43    2097    2169    2172      45    2097    2169    2118      46
    2097    2091    2109      43    2091    2109    2106      43    2091    2109
    2112      42    2091    2097    2100      43    2091    2097    2169      44
    2091    2088    2118      46    2088    2091    2109      44    2088    2091
    2097      44    2088    2118    2169      47    2088    2118    2121      34
    2085    2088    2091      45    2085    2088    2118      35    2325    2322
    2328      14    2322    2328    2331      14    2319    2322    2325      15
    2319    2322    2328      17    2313    2310    2319      20    2310    2319
    2322      23    2310    2313    2316      25    2307    2304    2310      14
    2304    2301    2328      26    2304    2310    2319      17    2304    2310
    2313      27    2301    2328    2331      14    2301    2328    2322      26
    2301    2304    2310      26    2301    2304    2307      14    2298    2301
    2328      17    2298    2301    2304      17    2295    2298    2301      29
    2292    2295    2298      32    2289    2292    2295      33    2286    2289
    2292      33    2286    2283    2334      34    2283    2334    2337      35
    2283    2286    2289      36    2277    2433    2430       5    2274    2277
    2433       5    2271    2274    2277      42    2268    2265    2271      42
    2265    2271    2274      43    2265    2262    2334      44    2262    2265
    2268      42    2262    2265    2271      43    2262    2334    2337      45
    2262    2334    2283      46    2262    2256    2274      43    2256    2274
    2271      43    2256    2274    2277      42    2256    2262    2265      43
    2256    2262    2334      44    2256    2253    2283      46    2253    2256
    2274      44    2253    2256    2262      44    2253    2283    2334      47
    2253    2283    2286      34    2250    2253    2256      45    2250    2253
    2283      35    2490    2487    2493      14    2487    2493    2496      14
    2484    2487    2490      15    2484    2487    2493      17    2478    2475
    2484      20    2475    2484    2487      23    2475    2478    2481      25
    2472    2469    2475      14    2469    2466    2493      26    2469    2475
    2484      17    2469    2475    2478      27    2466    2493    2496      14
    2466    2493    2487      26    2466    2469    2475      26    2466    2469
    2472      14    2463    2466    2493      17    2463    2466    2469      17
    2460    2463    2466      29    2457    2460    2463      32    2454    2457
    2460      33    2451    2454    2457      33    2451    2448    2499      34
    2448    2499    2502      35    2448    2451    2454      36    2442    2598
    2595       5    2439    2442    2598       5    2436    2439    2442      42
    2433    2430    2436      42    2430    2436    2439      43    2430    2427
    2499      44    2427    2430    2433      42    2427    2430    2436      43
    2427    2499    2502      45    2427    2499    2448      46    2427    2421
    2439      43    2421    2439    2436      43    2421    2439    2442      42
    2421    2427    2430      43    2421    2427    2499      44    2421    2418
    2448      46    2418    2421    2439      44    2418    2421    2427      44
    2418    2448    2499      47    2418    2448    2451      34    2415    2418
    2421      45    2415    2418    2448      35    2655    2652    2658      14
    2652    2658    2661      14    2649    2652    2655      15    2649    2652
    2658      17    2643    2640    2649      20    2640    2649    2652      23
    2640    2643    2646      25    2637    2634    2640      14    2634    2631
    2658      26    2634    2640    2649      17    2634    2640    2643      27
    2631    2658    2661      14    2631    2658    2652      26    2631    2634
    2640      26    2631    2634    2637      14    2628    2631    2658      17
    2628    2631    2634      17    2625    2628    2631      29    2622    2625
    2628      32    2619    2622    2625      33    2616    2619    2622      33
    2616    2613    2664      34    2613    2664    2667      35    2613    2616
    2619      36    2607    2763    2760       5    2604    2607    2763       5
    2601    2604    2607      42    2598    2595    2601      42    2595    2601
    2604      43    2595    2592    2664      44    2592    2595    2598      42
    2592    2595    2601      43    2592    2664    2667      45    2592    2664
    2613      46    2592    2586    2604      43    2586    2604    2601      43
    2586    2604    2607      42    2586    2592    2595      43    2586    2592
    2664      44    2586    2583    2613      46    2583    2586    2604      44
    2583    2586    2592      44    2583    2613    2664      47    2583    2613
    2616      34    2580    2583    2586      45    2580    2583    2613      35
    2820    2817    2823      14    2817    2823    2826      14    2814    2817
    2820      15    2814    2817    2823      17    2808    2805    2814      20
    2805    2814    2817      23    2805    2808    2811      25    2802    2799
    2805      14    2799    2796    2823      26    2799    2805    2814      17
    2799    2805    2808      27    2796    2823    2826      14    2796    2823
    2817      26    2796    2799    2805      26    2796    2799    2802      14
    2793    2796    2823      17    2793    2796    2799      17    2790    2793
    2796      29    2787    2790    2793      32    2784    2787    2790      33
    2781    2784    2787      33    2781    2778    2829      34    2778    2829
    2832      35    2778    2781    2784      36    2772    2928    2925       5
    2769    2772    2928       5    2766    2769    2772      42    2763    2760
    2766      42    2760    2766    2769      43    2760    2757    2829      44
    2757    2760    2763      42    2757    2760    2766      43    2757    2829
    2832      45    2757    2829    2778      46    2757    2751    2769      43
    2751    2769    2766      43    2751    2769    2772      42    2751    2757
    2760      43    2751    2757    2829      44    2751    2748    2778      46
    2748    2751    2769      44    2748    2751    2757      44    2748    2778
    2829      47    2748    2778    2781      34    2745    2748    2751      45
    2745    2748    2778      35    2985    2982    2988      14    2982    2988
    2991      14    2979    2982    2985      15    2979    2982    2988      17
    2973    2970    2979      20    2970    2979    2982      23    2970    2973
    2976      25    2967    2964    2970      14    2964    2961    2988      26
    2964    2970    2979      17    2964    2970    2973      27    2961    2988
    2991      14    2961    2988    2982      26    2961    2964    2970      26
    2961    2964    2967      14    2958    2961    2988      17    2958    2961
    2964      17    2955    2958    2961      29    2952    2955    2958      32
    2949    2952    2955      33    2946    2949    2952      33    2946    2943
    2994      34    2943    2994    2997      35    2943    2946    2949      36
    2937    3093    3090       5    2934    2937    3093       5    2931    2934
    2937      42    2928    2925    2931      42    2925    2931    2934      43
    2925    2922    2994      44    2922    2925    2928      42    2922    2925
    2931      43    2922    2994    2997      45    2922    2994    2943      46
    2922    2916    2934      43    2916    2934    2931      43    2916    2934
    2937      42    2916    2922    2925      43    2916    2922    2994      44
    2916    2913    2943      46    2913    2916    2934      44    2913    2916
    2922      44    2913    2943    2994      47    2913    2943    2946      34
    2910    2913    2916      45    2910    2913    2943      35    3150    3147
    3153      14    3147    3153    3156      14    3144    3147    3150      15
    3144    3147    3153      17    3138    3135    3144      20    3135    3144
    3147      23    3135    3138    3141      25    3132    3129    3135      14
    3129    3126    3153      26    3129    3135    3144      17    3129    3135
    3138      27    3126    3153    3156      14    3126    3153    3147      26
    3126    3129    3135      26    3126    3129    3132      14    3123    3126
    3153      17    3123    3126    3129      17    3120    3123    3126      29
    3117    3120    3123      32    3114    3117    3120      33    3111    3114
    3117      33    3111    3108    3159      34    3108    3159    3162      35
    3108    3111    3114      36    3102    3258    3255       5    3099    3102
    3258       5    3096    3099    3102      42    3093    3090    3096      42
    3090    3096    3099      43    3090    3087    3159      44    3087    3090
    3093      42    3087    3090    3096      43    3087    3159    3162      45
    3087    3159    3108      46    3087    3081    3099      43    3081    3099
    3096      43    3081    3099    3102      42    3081    3087    3090      43
    3081    3087    3159      44    3081    3078    3108      46    3078    3081
    3099      44    3078    3081    3087      44    3078    3108    3159      47
    3078    3108    3111      34    3075    3078    3081      45    3075    3078
    3108      35    3315    3312    3318      14    3312    3318    3321      14
    3309    3312    3315      15    3309    3312    3318      17    3303    3300
    3309      20    3300    3309    3312      23    3300    3303    3306      25
    3297    3294    3300      14    3294    3291    3318      26    3294    3300
    3309      17    3294    3300    3303      27    3291    3318    3321      14
    3291    3318    3312      26    3291    3294    3300      26    3291    3294
    3297      14    3288    3291    3318      17    3288    3291    3294      17
    3285    3288    3291      29    3282    3285    3288      32    3279    3282
    3285      33    3276    3279    3282      33    3276    3273    3324      34
    3273    3324    3327      35    3273    3276    3279      36    3264    3267
    3405       5    3261    3264    3267      42    3258    3255    3261      42
    3255    3261    3264      43    3255    3252    3324      44    3252    3255
    3258      42    3252    3255    3261      43    3252    3324    3327      45
    3252    3324    3273      46    3252    3246    3264      43    3246    3264
    3261      43    3246    3264    3267      42    3246    3252    3255      43
    3246    3252    3324      44    3246    3243    3273      46    3243    3246
    3264      44    3243    3246    3252      44    3243    3273    3324      47
    3243    3273    3276      34    3240    3243    3246      45    3240    3243
    3273      35    3414    3441    3438       5    3498    3495    3501      14
    3495    3501    3504      14    3492    3495    3498      15    3492    3495
    3501      17    3486    3483    3492      20    3483    3492    3495      23
    3483    3486    3489      25    3480    3477    3483      14    3477    3474
    3501      26    3477    3483    3492      17    3477    3483    3486      27
    3474    3501    3504      14    3474    3501    3495      26    3474    3477
    3483      26    3474    3477    3480      14    3471    3474    3501      17
    3471    3474    3477      17    3468    3471    3474      29    3465    3468
    3471      32    3462    3465    3468      33    3459    3462    3465      33
    3459    3456    3507      34    3456    3507    3510      35    3456    3459
    3462      36    3450    3606    3603       5    3447    3450    3606       5
    3444    3447    3450      42    3441    3438    3444      42    3438    3444
    3447      43    3438    3435    3507      44    3435    3438    3441      42
    3435    3438    3444      43    3435    3507    3510      45    3435    3507
    3456      46    3435    3429    3447      43    3429    3447    3444      43
    3429    3447    3450      42    3429    3435    3438      43    3429    3435
    3507      44    3429    3426    3456      46    3426    3429    3447      44
    3426    3429    3435      44    3426    3456    3507      47    3426    3456
    3459      34    3423    3426    3429      45    3423    3426    3456      35
    3663    3660    3666      14    3660    3666    3669      14    3657    3660
    3663      15    3657    3660    3666      17    3651    3648    3657      20
    3648    3657    3660      23    3648    3651    3654      25    3645    3642
    3648      14    3642    3639    3666      26    3642    3648    3657      17
    3642    3648    3651      27    3639    3666    3669      14    3639    3666
    3660      26    3639    3642    3648      26    3639    3642    3645      14
    3636    3639    3666      17    3636    3639    3642      17    3633    3636
    3639      29    3630    3633    3636      32    3627    3630    3633      33
    3624    3627    3630      33    3624    3621    3672      34    3621    3672
    3675      35    3621    3624    3627      36    3615    3771    3768       5
    3612    3615    3771       5    3609    3612    3615      42    3606    3603
    3609      42    3603    3609    3612      43    3603    3600    3672      44
    3600    3603    3606      42    3600    3603    3609      43    3600    3672
    3675      45    3600    3672    3621      46    3600    3594    3612      43
    3594    3612    3609      43    3594    3612    3615      42    3594    3600
    3603      43    3594    3600    3672      44    3594    3591    3621      46
    3591    3594    3612      44    3591    3594    3600      44    3591    3621
    3672      47    3591    3621    3624      34    3588    3591    3594      45
    3588    3591    3621      35    3828    3825    3831      14    3825    3831
    3834      14    3822    3825    3828      15    3822    3825    3831      17
    3816    3813    3822      20    3813    3822    3825      23    3813    3816
    3819      25    3810    3807    3813      14    3807    3804    3831      26
    3807    3813    3822      17    3807    3813    3816      27    3804    3831
    3834      14    3804    3831    3825      26    3804    3807    3813      26
    3804    3807    3810      14    3801    3804    3831      17    3801    3804
    3807      17    3798    3801    3804      29    3795    3798    3801      32
    3792    3795    3798      33    3789    3792    3795      33    3789    3786
    3837      34    3786    3837    3840      35    3786    3789    3792      36
    3780    3936    3933       5    3777    3780    3936       5    3774    3777
    3780      42    3771    3768    3774      42    3768    3774    3777      43
    3768    3765    3837      44    3765    3768    3771      42    3765    3768
    3774      43    3765    3837    3840      45    3765    3837    3786      46
    3765    3759    3777      43    3759    3777    3774      43    3759    3777
    3780      42    3759    3765    3768      43    3759    3765    3837      44
    3759    3756    3786      46    3756    3759    3777      44    3756    3759
    3765      44    3756    3786    3837      47    3756    3786    3789      34
    3753    3756    3759      45    3753    3756    3786      35    3993    3990
    3996      14    3990    3996    3999      14    3987    3990    3993      15
    3987    3990    3996      17    3981    3978    3987      20    3978    3987
    3990      23    3978    3981    3984      25    3975    3972    3978      14
    3972    3969    3996      26    3972    3978    3987      17    3972    3978
    3981      27    3969    3996    3999      14    3969    3996    3990      26
    3969    3972    3978      26    3969    3972    3975      14    3966    3969
    3996      17    3966    3969    3972      17    3963    3966    3969      29
    3960    3963    3966      32    3957    3960    3963      33    3954    3957
    3960      33    3954    3951    4002      34    3951    4002    4005      35
    3951    3954    3957      36    3945    4101    4098       5    3942    3945
    4101       5    3939    3942    3945      42    3936    3933    3939      42
    3933    3939    3942      43    3933    3930    4002      44    3930    3933
    3936      42    3930    3933    3939      43    3930    4002    4005      45
    3930    4002    3951      46    3930    3924    3942      43    3924    3942
    3939      43    3924    3942    3945      42    3924    3930    3933      43
    3924    3930    4002      44    3924    3921    3951      46    3921    3924
    3942      44    3921    3924    3930      44    3921    3951    4002      47
    3921    3951    3954      34    3918    3921    3924      45    3918    3921
    3951      35    4158    4155    4161      14    4155    4161    4164      14
    4152    4155    4158      15    4152    4155    4161      17    4146    4143
    4152      20    4143    4152    4155      23    4143    4146    4149      25
    4140    4137    4143      14    4137    4134    4161      26    4137    4143
    4152      17    4137    4143    4146      27    4134    4161    4164      14
    4134    4161    4155      26    4134    4137    4143      26    4134    4137
    4140      14    4131    4134    4161      17    4131    4134    4137      17
    4128    4131    4134      29    4125    4128    4131      32    4122    4125
    4128      33    4119    4122    4125      33    4119    4116    4167      34
    4116    4167    4170      35    4116    4119    4122      36    4110    4266
    4263       5    4107    4110    4266       5    4104    4107    4110      42
    4101    4098    4104      42    4098    4104    4107      43    4098    4095
    4167      44    4095    4098    4101      42    4095    4098    4104      43
    4095    4167    4170      45    4095    4167    4116      46    4095    4089
    4107      43    4089    4107    4104      43    4089    4107    4110      42
    4089    4095    4098      43    4089    4095    4167      44    4089    4086
    4116      46    4086    4089    4107      44    4086    4089    4095      44
    4086    4116    4167      47    4086    4116    4119      34    4083    4086
    4089      45    4083    4086    4116      35    4323    4320    4326      14
    4320    4326    4329      14    4317    4320    4323      15    4317    4320
    4326      17    4311    4308    4317      20    4308    4317    4320      23
    4308    4311    4314      25    4305    4302    4308      14    4302    4299
    4326      26    4302    4308    4317      17    4302    4308    4311      27
    4299    4326    4329      14    4299    4326    4320      26    4299    4302
    4308      26    4299    4302    4305      14    4296    4299    4326      17
    4296    4299    4302      17    4293    4296    4299      29    4290    4293
    4296      32    4287    4290    4293      33    4284    4287    4290      33
    4284    4281    4332      34    4281    4332    4335      35    4281    4284
    4287      36    4275    4431    4428       5    4272    4275    4431       5
    4269    4272    4275      42    4266    4263    4269      42    4263    4269
    4272      43    4263    4260    4332      44    4260    4263    4266      42
    4260    4263    4269      43    4260    4332    4335      45    4260    4332
    4281      46    4260    4254    4272      43    4254    4272    4269      43
    4254    4272    4275      42    4254    4260    4263      43    4254    4260
    4332      44    4254    4251    4281      46    4251    4254    4272      44
    4251    4254    4260      44    4251    4281    4332      47    4251    4281
    4284      34    4248    4251    4254      45    4248    4251    4281      35
    4488    4485    4491      14    4485    4491    4494      14    4482    4485
    4488      15    4482    4485    4491      17    4476    4473    4482      20
    4473    4482    4485      23    4473    4476    4479      25    4470    4467
    4473      14    4467    4464    4491      26    4467    4473    4482      17
    4467    4473    4476      27    4464    4491    4494      14    4464    4491
    4485      26    4464    4467    4473      26    4464    4467    4470      14
    4461    4464    4491      17    4461    4464    4467      17    4458    4461
    4464      29    4455    4458    4461      32    4452    4455    4458      33
    4449    4452    4455      33    4449    4446    4497      34    4446    4497
    4500      35    4446    4449    4452      36    4440    4596    4593       5
    4437    4440    4596       5    4434    4437    4440      42    4431    4428
    4434      42    4428    4434    4437      43    4428    4425    4497      44
    4425    4428    4431      42    4425    4428    4434      43    4425    4497
    4500      45    4425    4497    4446      46    4425    4419    4437      43
    4419    4437    4434      43    4419    4437    4440      42    4419    4425
    4428      43    4419    4425    4497      44    4419    4416    4446      46
    4416    4419    4437      44    4416    4419    4425      44    4416    4446
    4497      47    4416    4446    4449      34    4413    4416    4419      45
    4413    4416    4446      35    4653    4650    4656      14    4650    4656
    4659      14    4647    4650    4653      15    4647    4650    4656      17
    4641    4638    4647      20    4638    4647    4650      23    4638    4641
    4644      25    4635    4632    4638      14    4632    4629    4656      26
    4632    4638    4647      17    4632    4638    4641      27    4629    4656
    4659      14    4629    4656    4650      26    4629    4632    4638      26
    4629    4632    4635      14    4626    4629    4656      17    4626    4629
    4632      17    4623    4626    4629      29    4620    4623    4626      32
    4617    4620    4623      33    4614    4617    4620      33    4614    4611
    4662      34    4611    4662    4665      35    4611    4614    4617      36
    4605    4761    4758       5    4602    4605    4761       5    4599    4602
    4605      42    4596    4593    4599      42    4593    4599    4602      43
    4593    4590    4662      44    4590    4593    4596      42    4590    4593
    4599      43    4590    4662    4665      45    4590    4662    4611      46
    4590    4584    4602      43    4584    4602    4599      43    4584    4602
    4605      42    4584    4590    4593      43    4584    4590    4662      44
    4584    4581    4611      46    4581    4584    4602      44    4581    4584
    4590      44    4581    4611    4662      47    4581    4611    4614      34
    4578    4581    4584      45    4578    4581    4611      35    4818    4815
    4821      14    4815    4821    4824      14    4812    4815    4818      15
    4812    4815    4821      17    4806    4803    4812      20    4803    4812
    4815      23    4803    4806    4809      25    4800    4797    4803      14
    4797    4794    4821      26    4797    4803    4812      17    4797    4803
    4806      27    4794    4821    4824      14    4794    4821    4815      26
    4794    4797    4803      26    4794    4797    4800      14    4791    4794
    4821      17    4791    4794    4797      17    4788    4791    4794      29
    4785    4788    4791      32    4782    4785    4788      33    4779    4782
    4785      33    4779    4776    4827      34    4776    4827    4830      35
    4776    4779    4782      36    4770    4926    4923       5    4767    4770
    4926       5    4764    4767    4770      42    4761    4758    4764      42
    4758    4764    4767      43    4758    4755    4827      44    4755    4758
    4761      42    4755    4758    4764      43    4755    4827    4830      45
    4755    4827    4776      46    4755    4749    4767      43    4749    4767
    4764      43    4749    4767    4770      42    4749    4755    4758      43
    4749    4755    4827      44    4749    4746    4776      46    4746    4749
    4767      44    4746    4749    4755      44    4746    4776    4827      47
    4746    4776    4779      34    4743    4746    4749      45    4743    4746
    4776      35    4983    4980    4986      14    4980    4986    4989      14
    4977    4980    4983      15    4977    4980    4986      17    4971    4968
    4977      20    4968    4977    4980      23    4968    4971    4974      25
    4965    4962    4968      14    4962    4959    4986      26    4962    4968
    4977      17    4962    4968    4971      27    4959    4986    4989      14
    4959    4986    4980      26    4959    4962    4968      26    4959    4962
    4965      14    4956    4959    4986      17    4956    4959    4962      17
    4953    4956    4959      29    4950    4953    4956      32    4947    4950
    4953      33    4944    4947    4950      33    4944    4941    4992      34
    4941    4992    4995      35    4941    4944    4947      36    4932    4935
    5073       5    4929    4932    4935      42    4926    4923    4929      42
    4923    4929    4932      43    4923    4920    4992      44    4920    4923
    4926      42    4920    4923    4929      43    4920    4992    4995      45
    4920    4992    4941      46    4920    4914    4932      43    4914    4932
    4929      43    4914    4932    4935      42    4914    4920    4923      43
    4914    4920    4992      44    4914    4911    4941      46    4911    4914
    4932      44    4911    4914    4920      44    4911    4941    4992      47
    4911    4941    4944      34    4908    4911    4914      45    4908    4911
    4941      35    5082    5109    5106       5    5166    5163    5169      14
    5163    5169    5172      14    5160    5163    5166      15    5160    5163
    5169      17    5154    5151    5160      20    5151    5160    5163      23
    5151    5154    5157      25    5148    5145    5151      14    5145    5142
    5169      26    5145    5151    5160      17    5145    5151    5154      27
    5142    5169    5172      14    5142    5169    5163      26    5142    5145
    5151      26    5142    5145    5148      14    5139    5142    5169      17
    5139    5142    5145      17    5136    5139    5142      29    5133    5136
    5139      32    5130    5133    5136      33    5127    5130    5133      33
    5127    5124    5175      34    5124    5175    5178      35    5124    5127
    5130      36    5118    5274    5271       5    5115    5118    5274       5
    5112    5115    5118      42    5109    5106    5112      42    5106    5112
    5115      43    5106    5103    5175      44    5103    5106    5109      42
    5103    5106    5112      43    5103    5175    5178      45    5103    5175
    5124      46    5103    5097    5115      43    5097    5115    5112      43
    5097    5115    5118      42    5097    5103    5106      43    5097    5103
    5175      44    5097    5094    5124      46    5094    5097    5115      44
    5094    5097    5103      44    5094    5124    5175      47    5094    5124
    5127      34    5091    5094    5097      45    5091    5094    5124      35
    5331    5328    5334      14    5328    5334    5337      14    5325    5328
    5331      15    5325    5328    5334      17    5319    5316    5325      20
    5316    5325    5328      23    5316    5319    5322      25    5313    5310
    5316      14    5310    5307    5334      26    5310    5316    5325      17
    5310    5316    5319      27    5307    5334    5337      14    5307    5334
    5328      26    5307    5310    5316      26    5307    5310    5313      14
    5304    5307    5334      17    5304    5307    5310      17    5301    5304
    5307      29    5298    5301    5304      32    5295    5298    5301      33
    5292    5295    5298      33    5292    5289    5340      34    5289    5340
    5343      35    5289    5292    5295      36    5283    5439    5436       5
    5280    5283    5439       5    5277    5280    5283      42    5274    5271
    5277      42    5271    5277    5280      43    5271    5268    5340      44
    5268    5271    5274      42    5268    5271    5277      43    5268    5340
    5343      45    5268    5340    5289      46    5268    5262    5280      43
    5262    5280    5277      43    5262    5280    5283      42    5262    5268
    5271      43    5262    5268    5340      44    5262    5259    5289      46
    5259    5262    5280      44    5259    5262    5268      44    5259    5289
    5340      47    5259    5289    5292      34    5256    5259    5262      45
    5256    5259    5289      35    5496    5493    5499      14    5493    5499
    5502      14    5490    5493    5496      15    5490    5493    5499      17
    5484    5481    5490      20    5481    5490    5493      23    5481    5484
    5487      25    5478    5475    5481      14    5475    5472    5499      26
    5475    5481    5490      17    5475    5481    5484      27    5472    5499
    5502      14    5472    5499    5493      26    5472    5475    5481      26
    5472    5475    5478      14    5469    5472    5499      17    5469    5472
    5475      17    5466    5469    5472      29    5463    5466    5469      32
    5460    5463    5466      33    5457    5460    5463      33    5457    5454
    5505      34    5454    5505    5508      35    5454    5457    5460      36
    5448    5604    5601       5    5445    5448    5604       5    5442    5445
    5448      42    5439    5436    5442      42    5436    5442    5445      43
    5436    5433    5505      44    5433    5436    5439      42    5433    5436
    5442      43    5433    5505    5508      45    5433    5505    5454      46
    5433    5427    5445      43    5427    5445    5442      43    5427    5445
    5448      42    5427    5433    5436      43    5427    5433    5505      44
    5427    5424    5454      46    5424    5427    5445      44    5424    5427
    5433      44    5424    5454    5505      47    5424    5454    5457      34
    5421    5424    5427      45    5421    5424    5454      35    5661    5658
    5664      14    5658    5664    5667      14    5655    5658    5661      15
    5655    5658    5664      17    5649    5646    5655      20    5646    5655
    5658      23    5646    5649    5652      25    5643    5640    5646      14
    5640    5637    5664      26    5640    5646    5655      17    5640    5646
    5649      27    5637    5664    5667      14    5637    5664    5658      26
    5637    5640    5646      26    5637    5640    5643      14    5634    5637
    5664      17    5634    5637    5640      17    5631    5634    5637      29
    5628    5631    5634      32    5625    5628    5631      33    5622    5625
    5628      33    5622    5619    5670      34    5619    5670    5673      35
    5619    5622    5625      36    5613    5769    5766       5    5610    5613
    5769       5    5607    5610    5613      42    5604    5601    5607      42
    5601    5607    5610      43    5601    5598    5670      44    5598    5601
    5604      42    5598    5601    5607      43    5598    5670    5673      45
    5598    5670    5619      46    5598    5592    5610      43    5592    5610
    5607      43    5592    5610    5613      42    5592    5598    5601      43
    5592    5598    5670      44    5592    5589    5619      46    5589    5592
    5610      44    5589    5592    5598      44    5589    5619    5670      47
    5589    5619    5622      34    5586    5589    5592      45    5586    5589
    5619      35    5826    5823    5829      14    5823    5829    5832      14
    5820    5823    5826      15    5820    5823    5829      17    5814    5811
    5820      20    5811    5820    5823      23    5811    5814    5817      25
    5808    5805    5811      14    5805    5802    5829      26    5805    5811
    5820      17    5805    5811    5814      27    5802    5829    5832      14
    5802    5829    5823      26    5802    5805    5811      26    5802    5805
    5808      14    5799    5802    5829      17    5799    5802    5805      17
    5796    5799    5802      29    5793    5796    5799      32    5790    5793
    5796      33    5787    5790    5793      33    5787    5784    5835      34
    5784    5835    5838      35    5784    5787    5790      36    5778    5934
    5931       5    5775    5778    5934       5    5772    5775    5778      42
    5769    5766    5772      42    5766    5772    5775      43    5766    5763
    5835      44    5763    5766    5769      42    5763    5766    5772      43
    5763    5835    5838      45    5763    5835    5784      46    5763    5757
    5775      43    5757    5775    5772      43    5757    5775    5778      42
    5757    5763    5766      43    5757    5763    5835      44    5757    5754
    5784      46    5754    5757    5775      44    5754    5757    5763      44
    5754    5784    5835      47    5754    5784    5787      34    5751    5754
    5757      45    5751    5754    5784      35    5991    5988    5994      14
    5988    5994    5997      14    5985    5988    5991      15    5985    5988
    5994      17    5979    5976    5985      20    5976    5985    5988      23
    5976    5979    5982      25    5973    5970    5976      14    5970    5967
    5994      26    5970    5976    5985      17    5970    5976    5979      27
    5967    5994    5997      14    5967    5994    5988      26    5967    5970
    5976      26    5967    5970    5973      14    5964    5967    5994      17
    5964    5967    5970      17    5961    5964    5967      29    5958    5961
    5964      32    5955    5958    5961      33    5952    5955    5958      33
    5952    5949    6000      34    5949    6000    6003      35    5949    5952
    5955      36    5943    6099    6096       5    5940    5943    6099       5
    5937    5940    5943      42    5934    5931    5937      42    5931    5937
    5940      43    5931    5928    6000      44    5928    5931    5934      42
    5928    5931    5937      43    5928    6000    6003      45    5928    6000
    5949      46    5928    5922    5940      43    5922    5940    5937      43
    5922    5940    5943      42    5922    5928    5931      43    5922    5928
    6000      44    5922    5919    5949      46    5919    5922    5940      44
    5919    5922    5928      44    5919    5949    6000      47    5919    5949
    5952      34    5916    5919    5922      45    5916    5919    5949      35
    6156    6153    6159      14    6153    6159    6162      14    6150    6153
    6156      15    6150    6153    6159      17    6144    6141    6150      20
    6141    6150    6153      23    6141    6144    6147      25    6138    6135
    6141      14    6135    6132    6159      26    6135    6141    6150      17
    6135    6141    6144      27    6132    6159    6162      14    6132    6159
    6153      26    6132    6135    6141      26    6132    6135    6138      14
    6129    6132    6159      17    6129    6132    6135      17    6126    6129
    6132      29    6123    6126    6129      32    6120    6123    6126      33
    6117    6120    6123      33    6117    6114    6165      34    6114    6165
    6168      35    6114    6117    6120      36    6108    6264    6261       5
    6105    6108    6264       5    6102    6105    6108      42    6099    6096
    6102      42    6096    6102    6105      43    6096    6093    6165      44
    6093    6096    6099      42    6093    6096    6102      43    6093    6165
    6168      45    6093    6165    6114      46    6093    6087    6105      43
    6087    6105    6102      43    6087    6105    6108      42    6087    6093
    6096      43    6087    6093    6165      44    6087    6084    6114      46
    6084    6087    6105      44    6084    6087    6093      44    6084    6114
    6165      47    6084    6114    6117      34    6081    6084    6087      45
    6081    6084    6114      35    6321    6318    6324      14    6318    6324
    6327      14    6315    6318    6321      15    6315    6318    6324      17
    6309    6306    6315      20    6306    6315    6318      23    6306    6309
    6312      25    6303    6300    6306      14    6300    6297    6324      26
    6300    6306    6315      17    6300    6306    6309      27    6297    6324
    6327      14    6297    6324    6318      26    6297    6300    6306      26
    6297    6300    6303      14    6294    6297    6324      17    6294    6297
    6300      17    6291    6294    6297      29    6288    6291    6294      32
    6285    6288    6291      33    6282    6285    6288      33    6282    6279
    6330      34    6279    6330    6333      35    6279    6282    6285      36
    6273    6429    6426       5    6270    6273    6429       5    6267    6270
    6273      42    6264    6261    6267      42    6261    6267    6270      43
    6261    6258    6330      44    6258    6261    6264      42    6258    6261
    6267      43    6258    6330    6333      45    6258    6330    6279      46
    6258    6252    6270      43    6252    6270    6267      43    6252    6270
    6273      42    6252    6258    6261      43    6252    6258    6330      44
    6252    6249    6279      46    6249    6252    6270      44    6249    6252
    6258      44    6249    6279    6330      47    6249    6279    6282      34
    6246    6249    6252      45    6246    6249    6279      35    6486    6483
    6489      14    6483    6489    6492      14    6480    6483    6486      15
    6480    6483    6489      17    6474    6471    6480      20    6471    6480
    6483      23    6471    6474    6477      25    6468    6465    6471      14
    6465    6462    6489      26    6465    6471    6480      17    6465    6471
    6474      27    6462    6489    6492      14    6462    6489    6483      26
    6462    6465    6471      26    6462    6465    6468      14    6459    6462
    6489      17    6459    6462    6465      17    6456    6459    6462      29
    6453    6456    6459      32    6450    6453    6456      33    6447    6450
    6453      33    6447    6444    6495      34    6444    6495    6498      35
    6444    6447    6450      36    6438    6594    6591       5    6435    6438
    6594       5    6432    6435    6438      42    6429    6426    6432      42
    6426    6432    6435      43    6426    6423    6495      44    6423    6426
    6429      42    6423    6426    6432      43    6423    6495    6498      45
    6423    6495    6444      46    6423    6417    6435      43    6417    6435
    6432      43    6417    6435    6438      42    6417    6423    6426      43
    6417    6423    6495      44    6417    6414    6444      46    6414    6417
    6435      44    6414    6417    6423      44    6414    6444    6495      47
    6414    6444    6447      34    6411    6414    6417      45    6411    6414
    6444      35    6651    6648    6654      14    6648    6654    6657      14
    6645    6648    6651      15    6645    6648    6654      17    6639    6636
    6645      20    6636    6645    6648      23    6636    6639    6642      25
    6633    6630    6636      14    6630    6627    6654      26    6630    6636
    6645      17    6630    6636    6639      27    6627    6654    6657      14
    6627    6654    6648      26    6627    6630    6636      26    6627    6630
    6633      14    6624    6627    6654      17    6624    6627    6630      17
    6621    6624    6627      29    6618    6621    6624      32    6615    6618
    6621      33    6612    6615    6618      33    6612    6609    6660      34
    6609    6660    6663      35    6609    6612    6615      36    6600    6603
    6741       5    6597    6600    6603      42    6594    6591    6597      42
    6591    6597    6600      43    6591    6588    6660      44    6588    6591
    6594      42    6588    6591    6597      43    6588    6660    6663      45
    6588    6660    6609      46    6588    6582    6600      43    6582    6600
    6597      43    6582    6600    6603      42    6582    6588    6591      43
    6582    6588    6660      44    6582    6579    6609      46    6579    6582
    6600      44    6579    6582    6588      44    6579    6609    6660      47
    6579    6609    6612      34    6576    6579    6582      45    6576    6579
    6609      35
%FLAG DIHEDRALS_INC_HYDROGEN                                                    
%FORMAT(10I8)                                                                   
      69      30      33      72       1      63      21      24      66       1
      60      18      21      63       1      54       9      12      57       1
      48       0      39      75       1      48       0       3      51       1
      45      27      30      69       1      45      27      24      66       1
      45      15      12      57       1      45      15      18      60       1
      42      36      33      72       1      42      36      39      75       1
      42       6       9      54       1      42       6       3      51       1
      39      36      33      72       1      39       0       3      51       1
      36      33      30      69       1      48       0      39      36       1
      33      36      39      75       1      30      27      24      66       1
      27      30      33      72       1      27      24      21      63       1
      24      27      30      69       1      24      21      18      60       1
      18      15      12      57       1      18      21      24      66       1
      15      12       9      54       1      15      18      21      63       1
      12      15      18      60       1       9       6       3      51       1
       6       9      12      57       1      48       0       3       6       1
       3       6       9      54       1       3       0      39      75       1
      84      78     105     180       2      84      78     105     102       2
      81      78     105     180       2      81      78     105     102       2
      78     105     102     177       4      78     105    -102     177       3
      78     105    -102     177       5     246     165     168     249       6
     240     159     162     243       6     240     159     165     246       7
     234     150     153     237       8     231     150     153     237       8
     228     147     150     231       7     228     147     150     234       7
     222     141     147     228       7     222     141     144     225       6
     219     138     165     246       7     219     138     141     222       7
     210     129     132     213       7     210     129     132     216       7
     207     129     132     213       7     207     129     132     216       7
     204     126     129     210       9     204     126     129     207       9
     201     126     129     210       9     201     126     129     207       9
     198     123     126     204       7     198     123     126     201       7
     195     123     126     204       7     195     123     126     201       7
     192     114     270     345       2     192     114     270     267       2
     189     111     114     192       3     189     111     114     270       4
     189     111    -114     270       3     189     111    -114     270       5
     186     108     111     189      10     183     108     111     189      10
     177     102     105     180       3     177     102     108     186      10
     177     102     108     183      10     171      99     102     177       7
     171     120     123     195      11     171     120     123     198      11
     168     165     159     240       7     168     165     138     219      12
     168     165    -138     219      13     165     159     162     243      12
     165     159    -162     243      14     165     138     141     222       7
     162     159     165     246      12     162     159    -165     246      13
     159     165     168     249      12     159     165    -168     249      14
     159     165     138     219       7     159     156     147     228      17
     156     159     162     243       6     156     159     165     246      12
     156     159    -165     246      13     156     147     141     222      12
     156     147    -141     222      13     156     147     150     231      12
     156     147    -150     231      13     156     147     150     234      12
     156     147    -150     234      13     153     150     147     228      12
     153     150    -147     228      13     150     147     141     222       7
     147     156     159     240      17     147     141     138     219       7
     147     141     144     225      12     147     141    -144     225      14
     147     150     153     237      12     147     150    -153     237      14
     144     141     138     219      12     144     141    -138     219      13
     144     141     147     228      12     144     141    -147     228      13
     141     138     165     246       7     141     147     150     231       7
     141     147     150     234       7     138     165     168     249      12
     138     165    -168     249      14     138     165     159     240       7
     138     135     132     213      17     138     135     132     216      17
     138     141     147     228       7     138     141     144     225      12
     138     141    -144     225      14     135     132     129     210      12
     135     132    -129     210      13     135     132     129     207      12
     135     132    -129     207      13     135     138     165     246      12
     135     138    -165     246      13     135     138     141     222      12
     135     138    -141     222      13     132     135     138     219      17
     132     129     126     204      23     132     129     126     201      23
     129     126     123     195       7     129     126     123     198       7
     126     129     132     213       7     126     129     132     216       7
     123     126     129     210      23     123     126     129     207      23
     120     123     126     204       7     120     123     126     201       7
     117      99     102     177      10     117      99     171     174      30
     117      99    -171     174       3     117      99    -171     174      31
     117      99     171     120      11     114     111     108     186       7
     114     111     108     183       7     114     270     267     342       4
     114     270    -267     342       3     114     270    -267     342       5
     111     108     102     177      14     111     114     270     345       2
     111      93      99     117      14     108     102     105     180       3
     108     102      99     117      14     108     111     114     192       3
     105     102     108     186       7     105     102     108     183       7
     105     102      99     117       7     102     108     111     189      14
      99     102     105     180       3      99     102     108     186      14
      99     102     108     183      14      99      93     111     189      14
      96      93     111     189      10      96      93     111     108      14
      96      93     111     114       7      96      93      99     102      14
      96      93      99     171       7      96      93      99     117      10
      96      93      90     120      11      93     111     108     186      14
      93     111     108     183      14      93     111     114     192       3
      93      99     102     177      14      90      93     111     189       7
      90      93      99     117       7      90     120     123     195      11
      90     120     123     198      11      87      90      93      96      30
      87      90     -93      96       3      87      90     -93      96      31
     411     330     333     414       6     405     324     327     408       6
     405     324     330     411       7     399     315     318     402       8
     396     315     318     402       8     393     312     315     396       7
     393     312     315     399       7     387     306     312     393       7
     387     306     309     390       6     384     303     330     411       7
     384     303     306     387       7     375     294     297     378       7
     375     294     297     381       7     372     294     297     378       7
     372     294     297     381       7     369     291     294     375       9
     369     291     294     372       9     366     291     294     375       9
     366     291     294     372       9     363     288     291     369       7
     363     288     291     366       7     360     288     291     369       7
     360     288     291     366       7     357     279     435     510       2
     357     279     435     432       2     354     276     279     357       3
     354     276     279     435       4     354     276    -279     435       3
     354     276    -279     435       5     351     273     276     354      10
     348     273     276     354      10     342     267     270     345       3
     342     267     273     351      10     342     267     273     348      10
     336     264     267     342       7     336     285     288     360      11
     336     285     288     363      11     333     330     324     405       7
     333     330     303     384      12     333     330    -303     384      13
     330     324     327     408      12     330     324    -327     408      14
     330     303     306     387       7     327     324     330     411      12
     327     324    -330     411      13     324     330     333     414      12
     324     330    -333     414      14     324     330     303     384       7
     324     321     312     393      17     321     324     327     408       6
     321     324     330     411      12     321     324    -330     411      13
     321     312     306     387      12     321     312    -306     387      13
     321     312     315     396      12     321     312    -315     396      13
     321     312     315     399      12     321     312    -315     399      13
     318     315     312     393      12     318     315    -312     393      13
     315     312     306     387       7     312     321     324     405      17
     312     306     303     384       7     312     306     309     390      12
     312     306    -309     390      14     312     315     318     402      12
     312     315    -318     402      14     309     306     303     384      12
     309     306    -303     384      13     309     306     312     393      12
     309     306    -312     393      13     306     303     330     411       7
     306     312     315     396       7     306     312     315     399       7
     303     330     333     414      12     303     330    -333     414      14
     303     330     324     405       7     303     300     297     378      17
     303     300     297     381      17     303     306     312     393       7
     303     306     309     390      12     303     306    -309     390      14
     300     297     294     375      12     300     297    -294     375      13
     300     297     294     372      12     300     297    -294     372      13
     300     303     330     411      12     300     303    -330     411      13
     300     303     306     387      12     300     303    -306     387      13
     297     300     303     384      17     297     294     291     369      23
     297     294     291     366      23     294     291     288     360       7
     294     291     288     363       7     291     294     297     378       7
     291     294     297     381       7     288     291     294     375      23
     288     291     294     372      23     285     288     291     369       7
     285     288     291     366       7     282     264     267     342      10
     282     264     336     339      30     282     264    -336     339       3
     282     264    -336     339      31     282     264     336     285      11
     279     276     273     351       7     279     276     273     348       7
     279     435     432     507       4     279     435    -432     507       3
     279     435    -432     507       5     276     273     267     342      14
     276     279     435     510       2     276     258     264     282      14
     273     267     270     345       3     273     267     264     282      14
     273     276     279     357       3     270     267     273     351       7
     270     267     273     348       7     270     267     264     282       7
     267     273     276     354      14     264     267     270     345       3
     264     267     273     351      14     264     267     273     348      14
     264     258     276     354      14     261     258     276     354      10
     261     258     276     273      14     261     258     276     279       7
     261     258     264     267      14     261     258     264     336       7
     261     258     264     282      10     261     258     255     285      11
     258     276     273     351      14     258     276     273     348      14
     258     276     279     357       3     258     264     267     342      14
     255     258     276     354       7     255     258     264     282       7
     255     285     288     360      11     255     285     288     363      11
     252     255     258     261      30     252     255    -258     261       3
     252     255    -258     261      31     576     495     498     579       6
     570     489     492     573       6     570     489     495     576       7
     564     480     483     567       8     561     480     483     567       8
     558     477     480     561       7     558     477     480     564       7
     552     471     477     558       7     552     471     474     555       6
     549     468     495     576       7     549     468     471     552       7
     540     459     462     543       7     540     459     462     546       7
     537     459     462     543       7     537     459     462     546       7
     534     456     459     540       9     534     456     459     537       9
     531     456     459     540       9     531     456     459     537       9
     528     453     456     534       7     528     453     456     531       7
     525     453     456     534       7     525     453     456     531       7
     522     444     600     675       2     522     444     600     597       2
     519     441     444     522       3     519     441     444     600       4
     519     441    -444     600       3     519     441    -444     600       5
     516     438     441     519      10     513     438     441     519      10
     507     432     435     510       3     507     432     438     516      10
     507     432     438     513      10     501     429     432     507       7
     501     450     453     525      11     501     450     453     528      11
     498     495     489     570       7     498     495     468     549      12
     498     495    -468     549      13     495     489     492     573      12
     495     489    -492     573      14     495     468     471     552       7
     492     489     495     576      12     492     489    -495     576      13
     489     495     498     579      12     489     495    -498     579      14
     489     495     468     549       7     489     486     477     558      17
     486     489     492     573       6     486     489     495     576      12
     486     489    -495     576      13     486     477     471     552      12
     486     477    -471     552      13     486     477     480     561      12
     486     477    -480     561      13     486     477     480     564      12
     486     477    -480     564      13     483     480     477     558      12
     483     480    -477     558      13     480     477     471     552       7
     477     486     489     570      17     477     471     468     549       7
     477     471     474     555      12     477     471    -474     555      14
     477     480     483     567      12     477     480    -483     567      14
     474     471     468     549      12     474     471    -468     549      13
     474     471     477     558      12     474     471    -477     558      13
     471     468     495     576       7     471     477     480     561       7
     471     477     480     564       7     468     495     498     579      12
     468     495    -498     579      14     468     495     489     570       7
     468     465     462     543      17     468     465     462     546      17
     468     471     477     558       7     468     471     474     555      12
     468     471    -474     555      14     465     462     459     540      12
     465     462    -459     540      13     465     462     459     537      12
     465     462    -459     537      13     465     468     495     576      12
     465     468    -495     576      13     465     468     471     552      12
     465     468    -471     552      13     462     465     468     549      17
     462     459     456     534      23     462     459     456     531      23
     459     456     453     525       7     459     456     453     528       7
     456     459     462     543       7     456     459     462     546       7
     453     456     459     540      23     453     456     459     537      23
     450     453     456     534       7     450     453     456     531       7
     447     429     432     507      10     447     429     501     504      30
     447     429    -501     504       3     447     429    -501     504      31
     447     429     501     450      11     444     441     438     516       7
     444     441     438     513       7     444     600     597     672       4
     444     600    -597     672       3     444     600    -597     672       5
     441     438     432     507      14     441     444     600     675       2
     441     423     429     447      14     438     432     435     510       3
     438     432     429     447      14     438     441     444     522       3
     435     432     438     516       7     435     432     438     513       7
     435     432     429     447       7     432     438     441     519      14
     429     432     435     510       3     429     432     438     516      14
     429     432     438     513      14     429     423     441     519      14
     426     423     441     519      10     426     423     441     438      14
     426     423     441     444       7     426     423     429     432      14
     426     423     429     501       7     426     423     429     447      10
     426     423     420     450      11     423     441     438     516      14
     423     441     438     513      14     423     441     444     522       3
     423     429     432     507      14     420     423     441     519       7
     420     423     429     447       7     420     450     453     525      11
     420     450     453     528      11     417     420     423     426      30
     417     420    -423     426       3     417     420    -423     426      31
     741     660     663     744       6     735     654     657     738       6
     735     654     660     741       7     729     645     648     732       8
     726     645     648     732       8     723     642     645     726       7
     723     642     645     729       7     717     636     642     723       7
     717     636     639     720       6     714     633     660     741       7
     714     633     636     717       7     705     624     627     708       7
     705     624     627     711       7     702     624     627     708       7
     702     624     627     711       7     699     621     624     705       9
     699     621     624     702       9     696     621     624     705       9
     696     621     624     702       9     693     618     621     699       7
     693     618     621     696       7     690     618     621     699       7
     690     618     621     696       7     687     609     765     840       2
     687     609     765     762       2     684     606     609     687       3
     684     606     609     765       4     684     606    -609     765       3
     684     606    -609     765       5     681     603     606     684      10
     678     603     606     684      10     672     597     600     675       3
     672     597     603     681      10     672     597     603     678      10
     666     594     597     672       7     666     615     618     690      11
     666     615     618     693      11     663     660     654     735       7
     663     660     633     714      12     663     660    -633     714      13
     660     654     657     738      12     660     654    -657     738      14
     660     633     636     717       7     657     654     660     741      12
     657     654    -660     741      13     654     660     663     744      12
     654     660    -663     744      14     654     660     633     714       7
     654     651     642     723      17     651     654     657     738       6
     651     654     660     741      12     651     654    -660     741      13
     651     642     636     717      12     651     642    -636     717      13
     651     642     645     726      12     651     642    -645     726      13
     651     642     645     729      12     651     642    -645     729      13
     648     645     642     723      12     648     645    -642     723      13
     645     642     636     717       7     642     651     654     735      17
     642     636     633     714       7     642     636     639     720      12
     642     636    -639     720      14     642     645     648     732      12
     642     645    -648     732      14     639     636     633     714      12
     639     636    -633     714      13     639     636     642     723      12
     639     636    -642     723      13     636     633     660     741       7
     636     642     645     726       7     636     642     645     729       7
     633     660     663     744      12     633     660    -663     744      14
     633     660     654     735       7     633     630     627     708      17
     633     630     627     711      17     633     636     642     723       7
     633     636     639     720      12     633     636    -639     720      14
     630     627     624     705      12     630     627    -624     705      13
     630     627     624     702      12     630     627    -624     702      13
     630     633     660     741      12     630     633    -660     741      13
     630     633     636     717      12     630     633    -636     717      13
     627     630     633     714      17     627     624     621     699      23
     627     624     621     696      23     624     621     618     690       7
     624     621     618     693       7     621     624     627     708       7
     621     624     627     711       7     618     621     624     705      23
     618     621     624     702      23     615     618     621     699       7
     615     618     621     696       7     612     594     597     672      10
     612     594     666     669      30     612     594    -666     669       3
     612     594    -666     669      31     612     594     666     615      11
     609     606     603     681       7     609     606     603     678       7
     609     765     762     837       4     609     765    -762     837       3
     609     765    -762     837       5     606     603     597     672      14
     606     609     765     840       2     606     588     594     612      14
     603     597     600     675       3     603     597     594     612      14
     603     606     609     687       3     600     597     603     681       7
     600     597     603     678       7     600     597     594     612       7
     597     603     606     684      14     594     597     600     675       3
     594     597     603     681      14     594     597     603     678      14
     594     588     606     684      14     591     588     606     684      10
     591     588     606     603      14     591     588     606     609       7
     591     588     594     597      14     591     588     594     666       7
     591     588     594     612      10     591     588     585     615      11
     588     606     603     681      14     588     606     603     678      14
     588     606     609     687       3     588     594     597     672      14
     585     588     606     684       7     585     588     594     612       7
     585     615     618     690      11     585     615     618     693      11
     582     585     588     591      30     582     585    -588     591       3
     582     585    -588     591      31     906     825     828     909       6
     900     819     822     903       6     900     819     825     906       7
     894     810     813     897       8     891     810     813     897       8
     888     807     810     891       7     888     807     810     894       7
     882     801     807     888       7     882     801     804     885       6
     879     798     825     906       7     879     798     801     882       7
     870     789     792     873       7     870     789     792     876       7
     867     789     792     873       7     867     789     792     876       7
     864     786     789     870       9     864     786     789     867       9
     861     786     789     870       9     861     786     789     867       9
     858     783     786     864       7     858     783     786     861       7
     855     783     786     864       7     855     783     786     861       7
     852     774     930    1005       2     852     774     930     927       2
     849     771     774     852       3     849     771     774     930       4
     849     771    -774     930       3     849     771    -774     930       5
     846     768     771     849      10     843     768     771     849      10
     837     762     765     840       3     837     762     768     846      10
     837     762     768     843      10     831     759     762     837       7
     831     780     783     855      11     831     780     783     858      11
     828     825     819     900       7     828     825     798     879      12
     828     825    -798     879      13     825     819     822     903      12
     825     819    -822     903      14     825     798     801     882       7
     822     819     825     906      12     822     819    -825     906      13
     819     825     828     909      12     819     825    -828     909      14
     819     825     798     879       7     819     816     807     888      17
     816     819     822     903       6     816     819     825     906      12
     816     819    -825     906      13     816     807     801     882      12
     816     807    -801     882      13     816     807     810     891      12
     816     807    -810     891      13     816     807     810     894      12
     816     807    -810     894      13     813     810     807     888      12
     813     810    -807     888      13     810     807     801     882       7
     807     816     819     900      17     807     801     798     879       7
     807     801     804     885      12     807     801    -804     885      14
     807     810     813     897      12     807     810    -813     897      14
     804     801     798     879      12     804     801    -798     879      13
     804     801     807     888      12     804     801    -807     888      13
     801     798     825     906       7     801     807     810     891       7
     801     807     810     894       7     798     825     828     909      12
     798     825    -828     909      14     798     825     819     900       7
     798     795     792     873      17     798     795     792     876      17
     798     801     807     888       7     798     801     804     885      12
     798     801    -804     885      14     795     792     789     870      12
     795     792    -789     870      13     795     792     789     867      12
     795     792    -789     867      13     795     798     825     906      12
     795     798    -825     906      13     795     798     801     882      12
     795     798    -801     882      13     792     795     798     879      17
     792     789     786     864      23     792     789     786     861      23
     789     786     783     855       7     789     786     783     858       7
     786     789     792     873       7     786     789     792     876       7
     783     786     789     870      23     783     786     789     867      23
     780     783     786     864       7     780     783     786     861       7
     777     759     762     837      10     777     759     831     834      30
     777     759    -831     834       3     777     759    -831     834      31
     777     759     831     780      11     774     771     768     846       7
     774     771     768     843       7     774     930     927    1002       4
     774     930    -927    1002       3     774     930    -927    1002       5
     771     768     762     837      14     771     774     930    1005       2
     771     753     759     777      14     768     762     765     840       3
     768     762     759     777      14     768     771     774     852       3
     765     762     768     846       7     765     762     768     843       7
     765     762     759     777       7     762     768     771     849      14
     759     762     765     840       3     759     762     768     846      14
     759     762     768     843      14     759     753     771     849      14
     756     753     771     849      10     756     753     771     768      14
     756     753     771     774       7     756     753     759     762      14
     756     753     759     831       7     756     753     759     777      10
     756     753     750     780      11     753     771     768     846      14
     753     771     768     843      14     753     771     774     852       3
     753     759     762     837      14     750     753     771     849       7
     750     753     759     777       7     750     780     783     855      11
     750     780     783     858      11     747     750     753     756      30
     747     750    -753     756       3     747     750    -753     756      31
    1071     990     993    1074       6    1065     984     987    1068       6
    1065     984     990    1071       7    1059     975     978    1062       8
    1056     975     978    1062       8    1053     972     975    1056       7
    1053     972     975    1059       7    1047     966     972    1053       7
    1047     966     969    1050       6    1044     963     990    1071       7
    1044     963     966    1047       7    1035     954     957    1038       7
    1035     954     957    1041       7    1032     954     957    1038       7
    1032     954     957    1041       7    1029     951     954    1035       9
    1029     951     954    1032       9    1026     951     954    1035       9
    1026     951     954    1032       9    1023     948     951    1029       7
    1023     948     951    1026       7    1020     948     951    1029       7
    1020     948     951    1026       7    1017     939    1095    1170       2
    1017     939    1095    1092       2    1014     936     939    1017       3
    1014     936     939    1095       4    1014     936    -939    1095       3
    1014     936    -939    1095       5    1011     933     936    1014      10
    1008     933     936    1014      10    1002     927     930    1005       3
    1002     927     933    1011      10    1002     927     933    1008      10
     996     924     927    1002       7     996     945     948    1020      11
     996     945     948    1023      11     993     990     984    1065       7
     993     990     963    1044      12     993     990    -963    1044      13
     990     984     987    1068      12     990     984    -987    1068      14
     990     963     966    1047       7     987     984     990    1071      12
     987     984    -990    1071      13     984     990     993    1074      12
     984     990    -993    1074      14     984     990     963    1044       7
     984     981     972    1053      17     981     984     987    1068       6
     981     984     990    1071      12     981     984    -990    1071      13
     981     972     966    1047      12     981     972    -966    1047      13
     981     972     975    1056      12     981     972    -975    1056      13
     981     972     975    1059      12     981     972    -975    1059      13
     978     975     972    1053      12     978     975    -972    1053      13
     975     972     966    1047       7     972     981     984    1065      17
     972     966     963    1044       7     972     966     969    1050      12
     972     966    -969    1050      14     972     975     978    1062      12
     972     975    -978    1062      14     969     966     963    1044      12
     969     966    -963    1044      13     969     966     972    1053      12
     969     966    -972    1053      13     966     963     990    1071       7
     966     972     975    1056       7     966     972     975    1059       7
     963     990     993    1074      12     963     990    -993    1074      14
     963     990     984    1065       7     963     960     957    1038      17
     963     960     957    1041      17     963     966     972    1053       7
     963     966     969    1050      12     963     966    -969    1050      14
     960     957     954    1035      12     960     957    -954    1035      13
     960     957     954    1032      12     960     957    -954    1032      13
     960     963     990    1071      12     960     963    -990    1071      13
     960     963     966    1047      12     960     963    -966    1047      13
     957     960     963    1044      17     957     954     951    1029      23
     957     954     951    1026      23     954     951     948    1020       7
     954     951     948    1023       7     951     954     957    1038       7
     951     954     957    1041       7     948     951     954    1035      23
     948     951     954    1032      23     945     948     951    1029       7
     945     948     951    1026       7     942     924     927    1002      10
     942     924     996     999      30     942     924    -996     999       3
     942     924    -996     999      31     942     924     996     945      11
     939     936     933    1011       7     939     936     933    1008       7
     939    1095    1092    1167       4     939    1095   -1092    1167       3
     939    1095   -1092    1167       5     936     933     927    1002      14
     936     939    1095    1170       2     936     918     924     942      14
     933     927     930    1005       3     933     927     924     942      14
     933     936     939    1017       3     930     927     933    1011       7
     930     927     933    1008       7     930     927     924     942       7
     927     933     936    1014      14     924     927     930    1005       3
     924     927     933    1011      14     924     927     933    1008      14
     924     918     936    1014      14     921     918     936    1014      10
     921     918     936     933      14     921     918     936     939       7
     921     918     924     927      14     921     918     924     996       7
     921     918     924     942      10     921     918     915     945      11
     918     936     933    1011      14     918     936     933    1008      14
     918     936     939    1017       3     918     924     927    1002      14
     915     918     936    1014       7     915     918     924     942       7
     915     945     948    1020      11     915     945     948    1023      11
     912     915     918     921      30     912     915    -918     921       3
     912     915    -918     921      31    1236    1155    1158    1239       6
    1230    1149    1152    1233       6    1230    1149    1155    1236       7
    1224    1140    1143    1227       8    1221    1140    1143    1227       8
    1218    1137    1140    1221       7    1218    1137    1140    1224       7
    1212    1131    1137    1218       7    1212    1131    1134    1215       6
    1209    1128    1155    1236       7    1209    1128    1131    1212       7
    1200    1119    1122    1203       7    1200    1119    1122    1206       7
    1197    1119    1122    1203       7    1197    1119    1122    1206       7
    1194    1116    1119    1200       9    1194    1116    1119    1197       9
    1191    1116    1119    1200       9    1191    1116    1119    1197       9
    1188    1113    1116    1194       7    1188    1113    1116    1191       7
    1185    1113    1116    1194       7    1185    1113    1116    1191       7
    1182    1104    1260    1335       2    1182    1104    1260    1257       2
    1179    1101    1104    1182       3    1179    1101    1104    1260       4
    1179    1101   -1104    1260       3    1179    1101   -1104    1260       5
    1176    1098    1101    1179      10    1173    1098    1101    1179      10
    1167    1092    1095    1170       3    1167    1092    1098    1176      10
    1167    1092    1098    1173      10    1161    1089    1092    1167       7
    1161    1110    1113    1185      11    1161    1110    1113    1188      11
    1158    1155    1149    1230       7    1158    1155    1128    1209      12
    1158    1155   -1128    1209      13    1155    1149    1152    1233      12
    1155    1149   -1152    1233      14    1155    1128    1131    1212       7
    1152    1149    1155    1236      12    1152    1149   -1155    1236      13
    1149    1155    1158    1239      12    1149    1155   -1158    1239      14
    1149    1155    1128    1209       7    1149    1146    1137    1218      17
    1146    1149    1152    1233       6    1146    1149    1155    1236      12
    1146    1149   -1155    1236      13    1146    1137    1131    1212      12
    1146    1137   -1131    1212      13    1146    1137    1140    1221      12
    1146    1137   -1140    1221      13    1146    1137    1140    1224      12
    1146    1137   -1140    1224      13    1143    1140    1137    1218      12
    1143    1140   -1137    1218      13    1140    1137    1131    1212       7
    1137    1146    1149    1230      17    1137    1131    1128    1209       7
    1137    1131    1134    1215      12    1137    1131   -1134    1215      14
    1137    1140    1143    1227      12    1137    1140   -1143    1227      14
    1134    1131    1128    1209      12    1134    1131   -1128    1209      13
    1134    1131    1137    1218      12    1134    1131   -1137    1218      13
    1131    1128    1155    1236       7    1131    1137    1140    1221       7
    1131    1137    1140    1224       7    1128    1155    1158    1239      12
    1128    1155   -1158    1239      14    1128    1155    1149    1230       7
    1128    1125    1122    1203      17    1128    1125    1122    1206      17
    1128    1131    1137    1218       7    1128    1131    1134    1215      12
    1128    1131   -1134    1215      14    1125    1122    1119    1200      12
    1125    1122   -1119    1200      13    1125    1122    1119    1197      12
    1125    1122   -1119    1197      13    1125    1128    1155    1236      12
    1125    1128   -1155    1236      13    1125    1128    1131    1212      12
    1125    1128   -1131    1212      13    1122    1125    1128    1209      17
    1122    1119    1116    1194      23    1122    1119    1116    1191      23
    1119    1116    1113    1185       7    1119    1116    1113    1188       7
    1116    1119    1122    1203       7    1116    1119    1122    1206       7
    1113    1116    1119    1200      23    1113    1116    1119    1197      23
    1110    1113    1116    1194       7    1110    1113    1116    1191       7
    1107    1089    1092    1167      10    1107    1089    1161    1164      30
    1107    1089   -1161    1164       3    1107    1089   -1161    1164      31
    1107    1089    1161    1110      11    1104    1101    1098    1176       7
    1104    1101    1098    1173       7    1104    1260    1257    1332       4
    1104    1260   -1257    1332       3    1104    1260   -1257    1332       5
    1101    1098    1092    1167      14    1101    1104    1260    1335       2
    1101    1083    1089    1107      14    1098    1092    1095    1170       3
    1098    1092    1089    1107      14    1098    1101    1104    1182       3
    1095    1092    1098    1176       7    1095    1092    1098    1173       7
    1095    1092    1089    1107       7    1092    1098    1101    1179      14
    1089    1092    1095    1170       3    1089    1092    1098    1176      14
    1089    1092    1098    1173      14    1089    1083    1101    1179      14
    1086    1083    1101    1179      10    1086    1083    1101    1098      14
    1086    1083    1101    1104       7    1086    1083    1089    1092      14
    1086    1083    1089    1161       7    1086    1083    1089    1107      10
    1086    1083    1080    1110      11    1083    1101    1098    1176      14
    1083    1101    1098    1173      14    1083    1101    1104    1182       3
    1083    1089    1092    1167      14    1080    1083    1101    1179       7
    1080    1083    1089    1107       7    1080    1110    1113    1185      11
    1080    1110    1113    1188      11    1077    1080    1083    1086      30
    1077    1080   -1083    1086       3    1077    1080   -1083    1086      31
    1401    1320    1323    1404       6    1395    1314    1317    1398       6
    1395    1314    1320    1401       7    1389    1305    1308    1392       8
    1386    1305    1308    1392       8    1383    1302    1305    1386       7
    1383    1302    1305    1389       7    1377    1296    1302    1383       7
    1377    1296    1299    1380       6    1374    1293    1320    1401       7
    1374    1293    1296    1377       7    1365    1284    1287    1368       7
    1365    1284    1287    1371       7    1362    1284    1287    1368       7
    1362    1284    1287    1371       7    1359    1281    1284    1365       9
    1359    1281    1284    1362       9    1356    1281    1284    1365       9
    1356    1281    1284    1362       9    1353    1278    1281    1359       7
    1353    1278    1281    1356       7    1350    1278    1281    1359       7
    1350    1278    1281    1356       7    1347    1269    1425    1500       2
    1347    1269    1425    1422       2    1344    1266    1269    1347       3
    1344    1266    1269    1425       4    1344    1266   -1269    1425       3
    1344    1266   -1269    1425       5    1341    1263    1266    1344      10
    1338    1263    1266    1344      10    1332    1257    1260    1335       3
    1332    1257    1263    1341      10    1332    1257    1263    1338      10
    1326    1254    1257    1332       7    1326    1275    1278    1350      11
    1326    1275    1278    1353      11    1323    1320    1314    1395       7
    1323    1320    1293    1374      12    1323    1320   -1293    1374      13
    1320    1314    1317    1398      12    1320    1314   -1317    1398      14
    1320    1293    1296    1377       7    1317    1314    1320    1401      12
    1317    1314   -1320    1401      13    1314    1320    1323    1404      12
    1314    1320   -1323    1404      14    1314    1320    1293    1374       7
    1314    1311    1302    1383      17    1311    1314    1317    1398       6
    1311    1314    1320    1401      12    1311    1314   -1320    1401      13
    1311    1302    1296    1377      12    1311    1302   -1296    1377      13
    1311    1302    1305    1386      12    1311    1302   -1305    1386      13
    1311    1302    1305    1389      12    1311    1302   -1305    1389      13
    1308    1305    1302    1383      12    1308    1305   -1302    1383      13
    1305    1302    1296    1377       7    1302    1311    1314    1395      17
    1302    1296    1293    1374       7    1302    1296    1299    1380      12
    1302    1296   -1299    1380      14    1302    1305    1308    1392      12
    1302    1305   -1308    1392      14    1299    1296    1293    1374      12
    1299    1296   -1293    1374      13    1299    1296    1302    1383      12
    1299    1296   -1302    1383      13    1296    1293    1320    1401       7
    1296    1302    1305    1386       7    1296    1302    1305    1389       7
    1293    1320    1323    1404      12    1293    1320   -1323    1404      14
    1293    1320    1314    1395       7    1293    1290    1287    1368      17
    1293    1290    1287    1371      17    1293    1296    1302    1383       7
    1293    1296    1299    1380      12    1293    1296   -1299    1380      14
    1290    1287    1284    1365      12    1290    1287   -1284    1365      13
    1290    1287    1284    1362      12    1290    1287   -1284    1362      13
    1290    1293    1320    1401      12    1290    1293   -1320    1401      13
    1290    1293    1296    1377      12    1290    1293   -1296    1377      13
    1287    1290    1293    1374      17    1287    1284    1281    1359      23
    1287    1284    1281    1356      23    1284    1281    1278    1350       7
    1284    1281    1278    1353       7    1281    1284    1287    1368       7
    1281    1284    1287    1371       7    1278    1281    1284    1365      23
    1278    1281    1284    1362      23    1275    1278    1281    1359       7
    1275    1278    1281    1356       7    1272    1254    1257    1332      10
    1272    1254    1326    1329      30    1272    1254   -1326    1329       3
    1272    1254   -1326    1329      31    1272    1254    1326    1275      11
    1269    1266    1263    1341       7    1269    1266    1263    1338       7
    1269    1425    1422    1497       4    1269    1425   -1422    1497       3
    1269    1425   -1422    1497       5    1266    1263    1257    1332      14
    1266    1269    1425    1500       2    1266    1248    1254    1272      14
    1263    1257    1260    1335       3    1263    1257    1254    1272      14
    1263    1266    1269    1347       3    1260    1257    1263    1341       7
    1260    1257    1263    1338       7    1260    1257    1254    1272       7
    1257    1263    1266    1344      14    1254    1257    1260    1335       3
    1254    1257    1263    1341      14    1254    1257    1263    1338      14
    1254    1248    1266    1344      14    1251    1248    1266    1344      10
    1251    1248    1266    1263      14    1251    1248    1266    1269       7
    1251    1248    1254    1257      14    1251    1248    1254    1326       7
    1251    1248    1254    1272      10    1251    1248    1245    1275      11
    1248    1266    1263    1341      14    1248    1266    1263    1338      14
    1248    1266    1269    1347       3    1248    1254    1257    1332      14
    1245    1248    1266    1344       7    1245    1248    1254    1272       7
    1245    1275    1278    1350      11    1245    1275    1278    1353      11
    1242    1245    1248    1251      30    1242    1245   -1248    1251       3
    1242    1245   -1248    1251      31    1566    1485    1488    1569       6
    1560    1479    1482    1563       6    1560    1479    1485    1566       7
    1554    1470    1473    1557       8    1551    1470    1473    1557       8
    1548    1467    1470    1551       7    1548    1467    1470    1554       7
    1542    1461    1467    1548       7    1542    1461    1464    1545       6
    1539    1458    1485    1566       7    1539    1458    1461    1542       7
    1530    1449    1452    1533       7    1530    1449    1452    1536       7
    1527    1449    1452    1533       7    1527    1449    1452    1536       7
    1524    1446    1449    1530       9    1524    1446    1449    1527       9
    1521    1446    1449    1530       9    1521    1446    1449    1527       9
    1518    1443    1446    1524       7    1518    1443    1446    1521       7
    1515    1443    1446    1524       7    1515    1443    1446    1521       7
    1512    1434    1590    1665       2    1512    1434    1590    1587       2
    1509    1431    1434    1512       3    1509    1431    1434    1590       4
    1509    1431   -1434    1590       3    1509    1431   -1434    1590       5
    1506    1428    1431    1509      10    1503    1428    1431    1509      10
    1497    1422    1425    1500       3    1497    1422    1428    1506      10
    1497    1422    1428    1503      10    1491    1419    1422    1497       7
    1491    1440    1443    1515      11    1491    1440    1443    1518      11
    1488    1485    1479    1560       7    1488    1485    1458    1539      12
    1488    1485   -1458    1539      13    1485    1479    1482    1563      12
    1485    1479   -1482    1563      14    1485    1458    1461    1542       7
    1482    1479    1485    1566      12    1482    1479   -1485    1566      13
    1479    1485    1488    1569      12    1479    1485   -1488    1569      14
    1479    1485    1458    1539       7    1479    1476    1467    1548      17
    1476    1479    1482    1563       6    1476    1479    1485    1566      12
    1476    1479   -1485    1566      13    1476    1467    1461    1542      12
    1476    1467   -1461    1542      13    1476    1467    1470    1551      12
    1476    1467   -1470    1551      13    1476    1467    1470    1554      12
    1476    1467   -1470    1554      13    1473    1470    1467    1548      12
    1473    1470   -1467    1548      13    1470    1467    1461    1542       7
    1467    1476    1479    1560      17    1467    1461    1458    1539       7
    1467    1461    1464    1545      12    1467    1461   -1464    1545      14
    1467    1470    1473    1557      12    1467    1470   -1473    1557      14
    1464    1461    1458    1539      12    1464    1461   -1458    1539      13
    1464    1461    1467    1548      12    1464    1461   -1467    1548      13
    1461    1458    1485    1566       7    1461    1467    1470    1551       7
    1461    1467    1470    1554       7    1458    1485    1488    1569      12
    1458    1485   -1488    1569      14    1458    1485    1479    1560       7
    1458    1455    1452    1533      17    1458    1455    1452    1536      17
    1458    1461    1467    1548       7    1458    1461    1464    1545      12
    1458    1461   -1464    1545      14    1455    1452    1449    1530      12
    1455    1452   -1449    1530      13    1455    1452    1449    1527      12
    1455    1452   -1449    1527      13    1455    1458    1485    1566      12
    1455    1458   -1485    1566      13    1455    1458    1461    1542      12
    1455    1458   -1461    1542      13    1452    1455    1458    1539      17
    1452    1449    1446    1524      23    1452    1449    1446    1521      23
    1449    1446    1443    1515       7    1449    1446    1443    1518       7
    1446    1449    1452    1533       7    1446    1449    1452    1536       7
    1443    1446    1449    1530      23    1443    1446    1449    1527      23
    1440    1443    1446    1524       7    1440    1443    1446    1521       7
    1437    1419    1422    1497      10    1437    1419    1491    1494      30
    1437    1419   -1491    1494       3    1437    1419   -1491    1494      31
    1437    1419    1491    1440      11    1434    1431    1428    1506       7
    1434    1431    1428    1503       7    1434    1590    1587    1662       4
    1434    1590   -1587    1662       3    1434    1590   -1587    1662       5
    1431    1428    1422    1497      14    1431    1434    1590    1665       2
    1431    1413    1419    1437      14    1428    1422    1425    1500       3
    1428    1422    1419    1437      14    1428    1431    1434    1512       3
    1425    1422    1428    1506       7    1425    1422    1428    1503       7
    1425    1422    1419    1437       7    1422    1428    1431    1509      14
    1419    1422    1425    1500       3    1419    1422    1428    1506      14
    1419    1422    1428    1503      14    1419    1413    1431    1509      14
    1416    1413    1431    1509      10    1416    1413    1431    1428      14
    1416    1413    1431    1434       7    1416    1413    1419    1422      14
    1416    1413    1419    1491       7    1416    1413    1419    1437      10
    1416    1413    1410    1440      11    1413    1431    1428    1506      14
    1413    1431    1428    1503      14    1413    1431    1434    1512       3
    1413    1419    1422    1497      14    1410    1413    1431    1509       7
    1410    1413    1419    1437       7    1410    1440    1443    1515      11
    1410    1440    1443    1518      11    1407    1410    1413    1416      30
    1407    1410   -1413    1416       3    1407    1410   -1413    1416      31
    1731    1650    1653    1734       6    1725    1644    1647    1728       6
    1725    1644    1650    1731       7    1719    1635    1638    1722       8
    1716    1635    1638    1722       8    1713    1632    1635    1716       7
    1713    1632    1635    1719       7    1707    1626    1632    1713       7
    1707    1626    1629    1710       6    1704    1623    1650    1731       7
    1704    1623    1626    1707       7    1695    1614    1617    1698       7
    1695    1614    1617    1701       7    1692    1614    1617    1698       7
    1692    1614    1617    1701       7    1689    1611    1614    1695       9
    1689    1611    1614    1692       9    1686    1611    1614    1695       9
    1686    1611    1614    1692       9    1683    1608    1611    1689       7
    1683    1608    1611    1686       7    1680    1608    1611    1689       7
    1680    1608    1611    1686       7    1677    1599    1737    1740       2
    1677    1599    1737    1743       2    1674    1596    1599    1677       3
    1674    1596    1599    1737       4    1674    1596   -1599    1737       3
    1674    1596   -1599    1737       5    1671    1593    1596    1674      10
    1668    1593    1596    1674      10    1662    1587    1590    1665       3
    1662    1587    1593    1671      10    1662    1587    1593    1668      10
    1656    1584    1587    1662       7    1656    1605    1608    1680      11
    1656    1605    1608    1683      11    1653    1650    1644    1725       7
    1653    1650    1623    1704      12    1653    1650   -1623    1704      13
    1650    1644    1647    1728      12    1650    1644   -1647    1728      14
    1650    1623    1626    1707       7    1647    1644    1650    1731      12
    1647    1644   -1650    1731      13    1644    1650    1653    1734      12
    1644    1650   -1653    1734      14    1644    1650    1623    1704       7
    1644    1641    1632    1713      17    1641    1644    1647    1728       6
    1641    1644    1650    1731      12    1641    1644   -1650    1731      13
    1641    1632    1626    1707      12    1641    1632   -1626    1707      13
    1641    1632    1635    1716      12    1641    1632   -1635    1716      13
    1641    1632    1635    1719      12    1641    1632   -1635    1719      13
    1638    1635    1632    1713      12    1638    1635   -1632    1713      13
    1635    1632    1626    1707       7    1632    1641    1644    1725      17
    1632    1626    1623    1704       7    1632    1626    1629    1710      12
    1632    1626   -1629    1710      14    1632    1635    1638    1722      12
    1632    1635   -1638    1722      14    1629    1626    1623    1704      12
    1629    1626   -1623    1704      13    1629    1626    1632    1713      12
    1629    1626   -1632    1713      13    1626    1623    1650    1731       7
    1626    1632    1635    1716       7    1626    1632    1635    1719       7
    1623    1650    1653    1734      12    1623    1650   -1653    1734      14
    1623    1650    1644    1725       7    1623    1620    1617    1698      17
    1623    1620    1617    1701      17    1623    1626    1632    1713       7
    1623    1626    1629    1710      12    1623    1626   -1629    1710      14
    1620    1617    1614    1695      12    1620    1617   -1614    1695      13
    1620    1617    1614    1692      12    1620    1617   -1614    1692      13
    1620    1623    1650    1731      12    1620    1623   -1650    1731      13
    1620    1623    1626    1707      12    1620    1623   -1626    1707      13
    1617    1620    1623    1704      17    1617    1614    1611    1689      23
    1617    1614    1611    1686      23    1614    1611    1608    1680       7
    1614    1611    1608    1683       7    1611    1614    1617    1698       7
    1611    1614    1617    1701       7    1608    1611    1614    1695      23
    1608    1611    1614    1692      23    1605    1608    1611    1689       7
    1605    1608    1611    1686       7    1602    1584    1587    1662      10
    1602    1584    1656    1659      30    1602    1584   -1656    1659       3
    1602    1584   -1656    1659      31    1602    1584    1656    1605      11
    1599    1596    1593    1671       7    1599    1596    1593    1668       7
    1596    1593    1587    1662      14    1596    1599    1737    1740       2
    1596    1599    1737    1743       2    1596    1578    1584    1602      14
    1593    1587    1590    1665       3    1593    1587    1584    1602      14
    1593    1596    1599    1677       3    1590    1587    1593    1671       7
    1590    1587    1593    1668       7    1590    1587    1584    1602       7
    1587    1593    1596    1674      14    1584    1587    1590    1665       3
    1584    1587    1593    1671      14    1584    1587    1593    1668      14
    1584    1578    1596    1674      14    1581    1578    1596    1674      10
    1581    1578    1596    1593      14    1581    1578    1596    1599       7
    1581    1578    1584    1587      14    1581    1578    1584    1656       7
    1581    1578    1584    1602      10    1581    1578    1575    1605      11
    1578    1596    1593    1671      14    1578    1596    1593    1668      14
    1578    1596    1599    1677       3    1578    1584    1587    1662      14
    1575    1578    1596    1674       7    1575    1578    1584    1602       7
    1575    1605    1608    1680      11    1575    1605    1608    1683      11
    1572    1575    1578    1581      30    1572    1575   -1578    1581       3
    1572    1575   -1578    1581      31    1752    1746    1773    1848       2
    1752    1746    1773    1770       2    1749    1746    1773    1848       2
    1749    1746    1773    1770       2    1746    1773    1770    1845       4
    1746    1773   -1770    1845       3    1746    1773   -1770    1845       5
    1914    1833    1836    1917       6    1908    1827    1830    1911       6
    1908    1827    1833    1914       7    1902    1818    1821    1905       8
    1899    1818    1821    1905       8    1896    1815    1818    1899       7
    1896    1815    1818    1902       7    1890    1809    1815    1896       7
    1890    1809    1812    1893       6    1887    1806    1833    1914       7
    1887    1806    1809    1890       7    1878    1797    1800    1881       7
    1878    1797    1800    1884       7    1875    1797    1800    1881       7
    1875    1797    1800    1884       7    1872    1794    1797    1878       9
    1872    1794    1797    1875       9    1869    1794    1797    1878       9
    1869    1794    1797    1875       9    1866    1791    1794    1872       7
    1866    1791    1794    1869       7    1863    1791    1794    1872       7
    1863    1791    1794    1869       7    1860    1782    1938    2013       2
    1860    1782    1938    1935       2    1857    1779    1782    1860       3
    1857    1779    1782    1938       4    1857    1779   -1782    1938       3
    1857    1779   -1782    1938       5    1854    1776    1779    1857      10
    1851    1776    1779    1857      10    1845    1770    1773    1848       3
    1845    1770    1776    1854      10    1845    1770    1776    1851      10
    1839    1767    1770    1845       7    1839    1788    1791    1863      11
    1839    1788    1791    1866      11    1836    1833    1827    1908       7
    1836    1833    1806    1887      12    1836    1833   -1806    1887      13
    1833    1827    1830    1911      12    1833    1827   -1830    1911      14
    1833    1806    1809    1890       7    1830    1827    1833    1914      12
    1830    1827   -1833    1914      13    1827    1833    1836    1917      12
    1827    1833   -1836    1917      14    1827    1833    1806    1887       7
    1827    1824    1815    1896      17    1824    1827    1830    1911       6
    1824    1827    1833    1914      12    1824    1827   -1833    1914      13
    1824    1815    1809    1890      12    1824    1815   -1809    1890      13
    1824    1815    1818    1899      12    1824    1815   -1818    1899      13
    1824    1815    1818    1902      12    1824    1815   -1818    1902      13
    1821    1818    1815    1896      12    1821    1818   -1815    1896      13
    1818    1815    1809    1890       7    1815    1824    1827    1908      17
    1815    1809    1806    1887       7    1815    1809    1812    1893      12
    1815    1809   -1812    1893      14    1815    1818    1821    1905      12
    1815    1818   -1821    1905      14    1812    1809    1806    1887      12
    1812    1809   -1806    1887      13    1812    1809    1815    1896      12
    1812    1809   -1815    1896      13    1809    1806    1833    1914       7
    1809    1815    1818    1899       7    1809    1815    1818    1902       7
    1806    1833    1836    1917      12    1806    1833   -1836    1917      14
    1806    1833    1827    1908       7    1806    1803    1800    1881      17
    1806    1803    1800    1884      17    1806    1809    1815    1896       7
    1806    1809    1812    1893      12    1806    1809   -1812    1893      14
    1803    1800    1797    1878      12    1803    1800   -1797    1878      13
    1803    1800    1797    1875      12    1803    1800   -1797    1875      13
    1803    1806    1833    1914      12    1803    1806   -1833    1914      13
    1803    1806    1809    1890      12    1803    1806   -1809    1890      13
    1800    1803    1806    1887      17    1800    1797    1794    1872      23
    1800    1797    1794    1869      23    1797    1794    1791    1863       7
    1797    1794    1791    1866       7    1794    1797    1800    1881       7
    1794    1797    1800    1884       7    1791    1794    1797    1878      23
    1791    1794    1797    1875      23    1788    1791    1794    1872       7
    1788    1791    1794    1869       7    1785    1767    1770    1845      10
    1785    1767    1839    1842      30    1785    1767   -1839    1842       3
    1785    1767   -1839    1842      31    1785    1767    1839    1788      11
    1782    1779    1776    1854       7    1782    1779    1776    1851       7
    1782    1938    1935    2010       4    1782    1938   -1935    2010       3
    1782    1938   -1935    2010       5    1779    1776    1770    1845      14
    1779    1782    1938    2013       2    1779    1761    1767    1785      14
    1776    1770    1773    1848       3    1776    1770    1767    1785      14
    1776    1779    1782    1860       3    1773    1770    1776    1854       7
    1773    1770    1776    1851       7    1773    1770    1767    1785       7
    1770    1776    1779    1857      14    1767    1770    1773    1848       3
    1767    1770    1776    1854      14    1767    1770    1776    1851      14
    1767    1761    1779    1857      14    1764    1761    1779    1857      10
    1764    1761    1779    1776      14    1764    1761    1779    1782       7
    1764    1761    1767    1770      14    1764    1761    1767    1839       7
    1764    1761    1767    1785      10    1764    1761    1758    1788      11
    1761    1779    1776    1854      14    1761    1779    1776    1851      14
    1761    1779    1782    1860       3    1761    1767    1770    1845      14
    1758    1761    1779    1857       7    1758    1761    1767    1785       7
    1758    1788    1791    1863      11    1758    1788    1791    1866      11
    1755    1758    1761    1764      30    1755    1758   -1761    1764       3
    1755    1758   -1761    1764      31    2079    1998    2001    2082       6
    2073    1992    1995    2076       6    2073    1992    1998    2079       7
    2067    1983    1986    2070       8    2064    1983    1986    2070       8
    2061    1980    1983    2064       7    2061    1980    1983    2067       7
    2055    1974    1980    2061       7    2055    1974    1977    2058       6
    2052    1971    1998    2079       7    2052    1971    1974    2055       7
    2043    1962    1965    2046       7    2043    1962    1965    2049       7
    2040    1962    1965    2046       7    2040    1962    1965    2049       7
    2037    1959    1962    2043       9    2037    1959    1962    2040       9
    2034    1959    1962    2043       9    2034    1959    1962    2040       9
    2031    1956    1959    2037       7    2031    1956    1959    2034       7
    2028    1956    1959    2037       7    2028    1956    1959    2034       7
    2025    1947    2103    2178       2    2025    1947    2103    2100       2
    2022    1944    1947    2025       3    2022    1944    1947    2103       4
    2022    1944   -1947    2103       3    2022    1944   -1947    2103       5
    2019    1941    1944    2022      10    2016    1941    1944    2022      10
    2010    1935    1938    2013       3    2010    1935    1941    2019      10
    2010    1935    1941    2016      10    2004    1932    1935    2010       7
    2004    1953    1956    2028      11    2004    1953    1956    2031      11
    2001    1998    1992    2073       7    2001    1998    1971    2052      12
    2001    1998   -1971    2052      13    1998    1992    1995    2076      12
    1998    1992   -1995    2076      14    1998    1971    1974    2055       7
    1995    1992    1998    2079      12    1995    1992   -1998    2079      13
    1992    1998    2001    2082      12    1992    1998   -2001    2082      14
    1992    1998    1971    2052       7    1992    1989    1980    2061      17
    1989    1992    1995    2076       6    1989    1992    1998    2079      12
    1989    1992   -1998    2079      13    1989    1980    1974    2055      12
    1989    1980   -1974    2055      13    1989    1980    1983    2064      12
    1989    1980   -1983    2064      13    1989    1980    1983    2067      12
    1989    1980   -1983    2067      13    1986    1983    1980    2061      12
    1986    1983   -1980    2061      13    1983    1980    1974    2055       7
    1980    1989    1992    2073      17    1980    1974    1971    2052       7
    1980    1974    1977    2058      12    1980    1974   -1977    2058      14
    1980    1983    1986    2070      12    1980    1983   -1986    2070      14
    1977    1974    1971    2052      12    1977    1974   -1971    2052      13
    1977    1974    1980    2061      12    1977    1974   -1980    2061      13
    1974    1971    1998    2079       7    1974    1980    1983    2064       7
    1974    1980    1983    2067       7    1971    1998    2001    2082      12
    1971    1998   -2001    2082      14    1971    1998    1992    2073       7
    1971    1968    1965    2046      17    1971    1968    1965    2049      17
    1971    1974    1980    2061       7    1971    1974    1977    2058      12
    1971    1974   -1977    2058      14    1968    1965    1962    2043      12
    1968    1965   -1962    2043      13    1968    1965    1962    2040      12
    1968    1965   -1962    2040      13    1968    1971    1998    2079      12
    1968    1971   -1998    2079      13    1968    1971    1974    2055      12
    1968    1971   -1974    2055      13    1965    1968    1971    2052      17
    1965    1962    1959    2037      23    1965    1962    1959    2034      23
    1962    1959    1956    2028       7    1962    1959    1956    2031       7
    1959    1962    1965    2046       7    1959    1962    1965    2049       7
    1956    1959    1962    2043      23    1956    1959    1962    2040      23
    1953    1956    1959    2037       7    1953    1956    1959    2034       7
    1950    1932    1935    2010      10    1950    1932    2004    2007      30
    1950    1932   -2004    2007       3    1950    1932   -2004    2007      31
    1950    1932    2004    1953      11    1947    1944    1941    2019       7
    1947    1944    1941    2016       7    1947    2103    2100    2175       4
    1947    2103   -2100    2175       3    1947    2103   -2100    2175       5
    1944    1941    1935    2010      14    1944    1947    2103    2178       2
    1944    1926    1932    1950      14    1941    1935    1938    2013       3
    1941    1935    1932    1950      14    1941    1944    1947    2025       3
    1938    1935    1941    2019       7    1938    1935    1941    2016       7
    1938    1935    1932    1950       7    1935    1941    1944    2022      14
    1932    1935    1938    2013       3    1932    1935    1941    2019      14
    1932    1935    1941    2016      14    1932    1926    1944    2022      14
    1929    1926    1944    2022      10    1929    1926    1944    1941      14
    1929    1926    1944    1947       7    1929    1926    1932    1935      14
    1929    1926    1932    2004       7    1929    1926    1932    1950      10
    1929    1926    1923    1953      11    1926    1944    1941    2019      14
    1926    1944    1941    2016      14    1926    1944    1947    2025       3
    1926    1932    1935    2010      14    1923    1926    1944    2022       7
    1923    1926    1932    1950       7    1923    1953    1956    2028      11
    1923    1953    1956    2031      11    1920    1923    1926    1929      30
    1920    1923   -1926    1929       3    1920    1923   -1926    1929      31
    2244    2163    2166    2247       6    2238    2157    2160    2241       6
    2238    2157    2163    2244       7    2232    2148    2151    2235       8
    2229    2148    2151    2235       8    2226    2145    2148    2229       7
    2226    2145    2148    2232       7    2220    2139    2145    2226       7
    2220    2139    2142    2223       6    2217    2136    2163    2244       7
    2217    2136    2139    2220       7    2208    2127    2130    2211       7
    2208    2127    2130    2214       7    2205    2127    2130    2211       7
    2205    2127    2130    2214       7    2202    2124    2127    2208       9
    2202    2124    2127    2205       9    2199    2124    2127    2208       9
    2199    2124    2127    2205       9    2196    2121    2124    2202       7
    2196    2121    2124    2199       7    2193    2121    2124    2202       7
    2193    2121    2124    2199       7    2190    2112    2268    2343       2
    2190    2112    2268    2265       2    2187    2109    2112    2190       3
    2187    2109    2112    2268       4    2187    2109   -2112    2268       3
    2187    2109   -2112    2268       5    2184    2106    2109    2187      10
    2181    2106    2109    2187      10    2175    2100    2103    2178       3
    2175    2100    2106    2184      10    2175    2100    2106    2181      10
    2169    2097    2100    2175       7    2169    2118    2121    2193      11
    2169    2118    2121    2196      11    2166    2163    2157    2238       7
    2166    2163    2136    2217      12    2166    2163   -2136    2217      13
    2163    2157    2160    2241      12    2163    2157   -2160    2241      14
    2163    2136    2139    2220       7    2160    2157    2163    2244      12
    2160    2157   -2163    2244      13    2157    2163    2166    2247      12
    2157    2163   -2166    2247      14    2157    2163    2136    2217       7
    2157    2154    2145    2226      17    2154    2157    2160    2241       6
    2154    2157    2163    2244      12    2154    2157   -2163    2244      13
    2154    2145    2139    2220      12    2154    2145   -2139    2220      13
    2154    2145    2148    2229      12    2154    2145   -2148    2229      13
    2154    2145    2148    2232      12    2154    2145   -2148    2232      13
    2151    2148    2145    2226      12    2151    2148   -2145    2226      13
    2148    2145    2139    2220       7    2145    2154    2157    2238      17
    2145    2139    2136    2217       7    2145    2139    2142    2223      12
    2145    2139   -2142    2223      14    2145    2148    2151    2235      12
    2145    2148   -2151    2235      14    2142    2139    2136    2217      12
    2142    2139   -2136    2217      13    2142    2139    2145    2226      12
    2142    2139   -2145    2226      13    2139    2136    2163    2244       7
    2139    2145    2148    2229       7    2139    2145    2148    2232       7
    2136    2163    2166    2247      12    2136    2163   -2166    2247      14
    2136    2163    2157    2238       7    2136    2133    2130    2211      17
    2136    2133    2130    2214      17    2136    2139    2145    2226       7
    2136    2139    2142    2223      12    2136    2139   -2142    2223      14
    2133    2130    2127    2208      12    2133    2130   -2127    2208      13
    2133    2130    2127    2205      12    2133    2130   -2127    2205      13
    2133    2136    2163    2244      12    2133    2136   -2163    2244      13
    2133    2136    2139    2220      12    2133    2136   -2139    2220      13
    2130    2133    2136    2217      17    2130    2127    2124    2202      23
    2130    2127    2124    2199      23    2127    2124    2121    2193       7
    2127    2124    2121    2196       7    2124    2127    2130    2211       7
    2124    2127    2130    2214       7    2121    2124    2127    2208      23
    2121    2124    2127    2205      23    2118    2121    2124    2202       7
    2118    2121    2124    2199       7    2115    2097    2100    2175      10
    2115    2097    2169    2172      30    2115    2097   -2169    2172       3
    2115    2097   -2169    2172      31    2115    2097    2169    2118      11
    2112    2109    2106    2184       7    2112    2109    2106    2181       7
    2112    2268    2265    2340       4    2112    2268   -2265    2340       3
    2112    2268   -2265    2340       5    2109    2106    2100    2175      14
    2109    2112    2268    2343       2    2109    2091    2097    2115      14
    2106    2100    2103    2178       3    2106    2100    2097    2115      14
    2106    2109    2112    2190       3    2103    2100    2106    2184       7
    2103    2100    2106    2181       7    2103    2100    2097    2115       7
    2100    2106    2109    2187      14    2097    2100    2103    2178       3
    2097    2100    2106    2184      14    2097    2100    2106    2181      14
    2097    2091    2109    2187      14    2094    2091    2109    2187      10
    2094    2091    2109    2106      14    2094    2091    2109    2112       7
    2094    2091    2097    2100      14    2094    2091    2097    2169       7
    2094    2091    2097    2115      10    2094    2091    2088    2118      11
    2091    2109    2106    2184      14    2091    2109    2106    2181      14
    2091    2109    2112    2190       3    2091    2097    2100    2175      14
    2088    2091    2109    2187       7    2088    2091    2097    2115       7
    2088    2118    2121    2193      11    2088    2118    2121    2196      11
    2085    2088    2091    2094      30    2085    2088   -2091    2094       3
    2085    2088   -2091    2094      31    2409    2328    2331    2412       6
    2403    2322    2325    2406       6    2403    2322    2328    2409       7
    2397    2313    2316    2400       8    2394    2313    2316    2400       8
    2391    2310    2313    2394       7    2391    2310    2313    2397       7
    2385    2304    2310    2391       7    2385    2304    2307    2388       6
    2382    2301    2328    2409       7    2382    2301    2304    2385       7
    2373    2292    2295    2376       7    2373    2292    2295    2379       7
    2370    2292    2295    2376       7    2370    2292    2295    2379       7
    2367    2289    2292    2373       9    2367    2289    2292    2370       9
    2364    2289    2292    2373       9    2364    2289    2292    2370       9
    2361    2286    2289    2367       7    2361    2286    2289    2364       7
    2358    2286    2289    2367       7    2358    2286    2289    2364       7
    2355    2277    2433    2508       2    2355    2277    2433    2430       2
    2352    2274    2277    2355       3    2352    2274    2277    2433       4
    2352    2274   -2277    2433       3    2352    2274   -2277    2433       5
    2349    2271    2274    2352      10    2346    2271    2274    2352      10
    2340    2265    2268    2343       3    2340    2265    2271    2349      10
    2340    2265    2271    2346      10    2334    2262    2265    2340       7
    2334    2283    2286    2358      11    2334    2283    2286    2361      11
    2331    2328    2322    2403       7    2331    2328    2301    2382      12
    2331    2328   -2301    2382      13    2328    2322    2325    2406      12
    2328    2322   -2325    2406      14    2328    2301    2304    2385       7
    2325    2322    2328    2409      12    2325    2322   -2328    2409      13
    2322    2328    2331    2412      12    2322    2328   -2331    2412      14
    2322    2328    2301    2382       7    2322    2319    2310    2391      17
    2319    2322    2325    2406       6    2319    2322    2328    2409      12
    2319    2322   -2328    2409      13    2319    2310    2304    2385      12
    2319    2310   -2304    2385      13    2319    2310    2313    2394      12
    2319    2310   -2313    2394      13    2319    2310    2313    2397      12
    2319    2310   -2313    2397      13    2316    2313    2310    2391      12
    2316    2313   -2310    2391      13    2313    2310    2304    2385       7
    2310    2319    2322    2403      17    2310    2304    2301    2382       7
    2310    2304    2307    2388      12    2310    2304   -2307    2388      14
    2310    2313    2316    2400      12    2310    2313   -2316    2400      14
    2307    2304    2301    2382      12    2307    2304   -2301    2382      13
    2307    2304    2310    2391      12    2307    2304   -2310    2391      13
    2304    2301    2328    2409       7    2304    2310    2313    2394       7
    2304    2310    2313    2397       7    2301    2328    2331    2412      12
    2301    2328   -2331    2412      14    2301    2328    2322    2403       7
    2301    2298    2295    2376      17    2301    2298    2295    2379      17
    2301    2304    2310    2391       7    2301    2304    2307    2388      12
    2301    2304   -2307    2388      14    2298    2295    2292    2373      12
    2298    2295   -2292    2373      13    2298    2295    2292    2370      12
    2298    2295   -2292    2370      13    2298    2301    2328    2409      12
    2298    2301   -2328    2409      13    2298    2301    2304    2385      12
    2298    2301   -2304    2385      13    2295    2298    2301    2382      17
    2295    2292    2289    2367      23    2295    2292    2289    2364      23
    2292    2289    2286    2358       7    2292    2289    2286    2361       7
    2289    2292    2295    2376       7    2289    2292    2295    2379       7
    2286    2289    2292    2373      23    2286    2289    2292    2370      23
    2283    2286    2289    2367       7    2283    2286    2289    2364       7
    2280    2262    2265    2340      10    2280    2262    2334    2337      30
    2280    2262   -2334    2337       3    2280    2262   -2334    2337      31
    2280    2262    2334    2283      11    2277    2274    2271    2349       7
    2277    2274    2271    2346       7    2277    2433    2430    2505       4
    2277    2433   -2430    2505       3    2277    2433   -2430    2505       5
    2274    2271    2265    2340      14    2274    2277    2433    2508       2
    2274    2256    2262    2280      14    2271    2265    2268    2343       3
    2271    2265    2262    2280      14    2271    2274    2277    2355       3
    2268    2265    2271    2349       7    2268    2265    2271    2346       7
    2268    2265    2262    2280       7    2265    2271    2274    2352      14
    2262    2265    2268    2343       3    2262    2265    2271    2349      14
    2262    2265    2271    2346      14    2262    2256    2274    2352      14
    2259    2256    2274    2352      10    2259    2256    2274    2271      14
    2259    2256    2274    2277       7    2259    2256    2262    2265      14
    2259    2256    2262    2334       7    2259    2256    2262    2280      10
    2259    2256    2253    2283      11    2256    2274    2271    2349      14
    2256    2274    2271    2346      14    2256    2274    2277    2355       3
    2256    2262    2265    2340      14    2253    2256    2274    2352       7
    2253    2256    2262    2280       7    2253    2283    2286    2358      11
    2253    2283    2286    2361      11    2250    2253    2256    2259      30
    2250    2253   -2256    2259       3    2250    2253   -2256    2259      31
    2574    2493    2496    2577       6    2568    2487    2490    2571       6
    2568    2487    2493    2574       7    2562    2478    2481    2565       8
    2559    2478    2481    2565       8    2556    2475    2478    2559       7
    2556    2475    2478    2562       7    2550    2469    2475    2556       7
    2550    2469    2472    2553       6    2547    2466    2493    2574       7
    2547    2466    2469    2550       7    2538    2457    2460    2541       7
    2538    2457    2460    2544       7    2535    2457    2460    2541       7
    2535    2457    2460    2544       7    2532    2454    2457    2538       9
    2532    2454    2457    2535       9    2529    2454    2457    2538       9
    2529    2454    2457    2535       9    2526    2451    2454    2532       7
    2526    2451    2454    2529       7    2523    2451    2454    2532       7
    2523    2451    2454    2529       7    2520    2442    2598    2673       2
    2520    2442    2598    2595       2    2517    2439    2442    2520       3
    2517    2439    2442    2598       4    2517    2439   -2442    2598       3
    2517    2439   -2442    2598       5    2514    2436    2439    2517      10
    2511    2436    2439    2517      10    2505    2430    2433    2508       3
    2505    2430    2436    2514      10    2505    2430    2436    2511      10
    2499    2427    2430    2505       7    2499    2448    2451    2523      11
    2499    2448    2451    2526      11    2496    2493    2487    2568       7
    2496    2493    2466    2547      12    2496    2493   -2466    2547      13
    2493    2487    2490    2571      12    2493    2487   -2490    2571      14
    2493    2466    2469    2550       7    2490    2487    2493    2574      12
    2490    2487   -2493    2574      13    2487    2493    2496    2577      12
    2487    2493   -2496    2577      14    2487    2493    2466    2547       7
    2487    2484    2475    2556      17    2484    2487    2490    2571       6
    2484    2487    2493    2574      12    2484    2487   -2493    2574      13
    2484    2475    2469    2550      12    2484    2475   -2469    2550      13
    2484    2475    2478    2559      12    2484    2475   -2478    2559      13
    2484    2475    2478    2562      12    2484    2475   -2478    2562      13
    2481    2478    2475    2556      12    2481    2478   -2475    2556      13
    2478    2475    2469    2550       7    2475    2484    2487    2568      17
    2475    2469    2466    2547       7    2475    2469    2472    2553      12
    2475    2469   -2472    2553      14    2475    2478    2481    2565      12
    2475    2478   -2481    2565      14    2472    2469    2466    2547      12
    2472    2469   -2466    2547      13    2472    2469    2475    2556      12
    2472    2469   -2475    2556      13    2469    2466    2493    2574       7
    2469    2475    2478    2559       7    2469    2475    2478    2562       7
    2466    2493    2496    2577      12    2466    2493   -2496    2577      14
    2466    2493    2487    2568       7    2466    2463    2460    2541      17
    2466    2463    2460    2544      17    2466    2469    2475    2556       7
    2466    2469    2472    2553      12    2466    2469   -2472    2553      14
    2463    2460    2457    2538      12    2463    2460   -2457    2538      13
    2463    2460    2457    2535      12    2463    2460   -2457    2535      13
    2463    2466    2493    2574      12    2463    2466   -2493    2574      13
    2463    2466    2469    2550      12    2463    2466   -2469    2550      13
    2460    2463    2466    2547      17    2460    2457    2454    2532      23
    2460    2457    2454    2529      23    2457    2454    2451    2523       7
    2457    2454    2451    2526       7    2454    2457    2460    2541       7
    2454    2457    2460    2544       7    2451    2454    2457    2538      23
    2451    2454    2457    2535      23    2448    2451    2454    2532       7
    2448    2451    2454    2529       7    2445    2427    2430    2505      10
    2445    2427    2499    2502      30    2445    2427   -2499    2502       3
    2445    2427   -2499    2502      31    2445    2427    2499    2448      11
    2442    2439    2436    2514       7    2442    2439    2436    2511       7
    2442    2598    2595    2670       4    2442    2598   -2595    2670       3
    2442    2598   -2595    2670       5    2439    2436    2430    2505      14
    2439    2442    2598    2673       2    2439    2421    2427    2445      14
    2436    2430    2433    2508       3    2436    2430    2427    2445      14
    2436    2439    2442    2520       3    2433    2430    2436    2514       7
    2433    2430    2436    2511       7    2433    2430    2427    2445       7
    2430    2436    2439    2517      14    2427    2430    2433    2508       3
    2427    2430    2436    2514      14    2427    2430    2436    2511      14
    2427    2421    2439    2517      14    2424    2421    2439    2517      10
    2424    2421    2439    2436      14    2424    2421    2439    2442       7
    2424    2421    2427    2430      14    2424    2421    2427    2499       7
    2424    2421    2427    2445      10    2424    2421    2418    2448      11
    2421    2439    2436    2514      14    2421    2439    2436    2511      14
    2421    2439    2442    2520       3    2421    2427    2430    2505      14
    2418    2421    2439    2517       7    2418    2421    2427    2445       7
    2418    2448    2451    2523      11    2418    2448    2451    2526      11
    2415    2418    2421    2424      30    2415    2418   -2421    2424       3
    2415    2418   -2421    2424      31    2739    2658    2661    2742       6
    2733    2652    2655    2736       6    2733    2652    2658    2739       7
    2727    2643    2646    2730       8    2724    2643    2646    2730       8
    2721    2640    2643    2724       7    2721    2640    2643    2727       7
    2715    2634    2640    2721       7    2715    2634    2637    2718       6
    2712    2631    2658    2739       7    2712    2631    2634    2715       7
    2703    2622    2625    2706       7    2703    2622    2625    2709       7
    2700    2622    2625    2706       7    2700    2622    2625    2709       7
    2697    2619    2622    2703       9    2697    2619    2622    2700       9
    2694    2619    2622    2703       9    2694    2619    2622    2700       9
    2691    2616    2619    2697       7    2691    2616    2619    2694       7
    2688    2616    2619    2697       7    2688    2616    2619    2694       7
    2685    2607    2763    2838       2    2685    2607    2763    2760       2
    2682    2604    2607    2685       3    2682    2604    2607    2763       4
    2682    2604   -2607    2763       3    2682    2604   -2607    2763       5
    2679    2601    2604    2682      10    2676    2601    2604    2682      10
    2670    2595    2598    2673       3    2670    2595    2601    2679      10
    2670    2595    2601    2676      10    2664    2592    2595    2670       7
    2664    2613    2616    2688      11    2664    2613    2616    2691      11
    2661    2658    2652    2733       7    2661    2658    2631    2712      12
    2661    2658   -2631    2712      13    2658    2652    2655    2736      12
    2658    2652   -2655    2736      14    2658    2631    2634    2715       7
    2655    2652    2658    2739      12    2655    2652   -2658    2739      13
    2652    2658    2661    2742      12    2652    2658   -2661    2742      14
    2652    2658    2631    2712       7    2652    2649    2640    2721      17
    2649    2652    2655    2736       6    2649    2652    2658    2739      12
    2649    2652   -2658    2739      13    2649    2640    2634    2715      12
    2649    2640   -2634    2715      13    2649    2640    2643    2724      12
    2649    2640   -2643    2724      13    2649    2640    2643    2727      12
    2649    2640   -2643    2727      13    2646    2643    2640    2721      12
    2646    2643   -2640    2721      13    2643    2640    2634    2715       7
    2640    2649    2652    2733      17    2640    2634    2631    2712       7
    2640    2634    2637    2718      12    2640    2634   -2637    2718      14
    2640    2643    2646    2730      12    2640    2643   -2646    2730      14
    2637    2634    2631    2712      12    2637    2634   -2631    2712      13
    2637    2634    2640    2721      12    2637    2634   -2640    2721      13
    2634    2631    2658    2739       7    2634    2640    2643    2724       7
    2634    2640    2643    2727       7    2631    2658    2661    2742      12
    2631    2658   -2661    2742      14    2631    2658    2652    2733       7
    2631    2628    2625    2706      17    2631    2628    2625    2709      17
    2631    2634    2640    2721       7    2631    2634    2637    2718      12
    2631    2634   -2637    2718      14    2628    2625    2622    2703      12
    2628    2625   -2622    2703      13    2628    2625    2622    2700      12
    2628    2625   -2622    2700      13    2628    2631    2658    2739      12
    2628    2631   -2658    2739      13    2628    2631    2634    2715      12
    2628    2631   -2634    2715      13    2625    2628    2631    2712      17
    2625    2622    2619    2697      23    2625    2622    2619    2694      23
    2622    2619    2616    2688       7    2622    2619    2616    2691       7
    2619    2622    2625    2706       7    2619    2622    2625    2709       7
    2616    2619    2622    2703      23    2616    2619    2622    2700      23
    2613    2616    2619    2697       7    2613    2616    2619    2694       7
    2610    2592    2595    2670      10    2610    2592    2664    2667      30
    2610    2592   -2664    2667       3    2610    2592   -2664    2667      31
    2610    2592    2664    2613      11    2607    2604    2601    2679       7
    2607    2604    2601    2676       7    2607    2763    2760    2835       4
    2607    2763   -2760    2835       3    2607    2763   -2760    2835       5
    2604    2601    2595    2670      14    2604    2607    2763    2838       2
    2604    2586    2592    2610      14    2601    2595    2598    2673       3
    2601    2595    2592    2610      14    2601    2604    2607    2685       3
    2598    2595    2601    2679       7    2598    2595    2601    2676       7
    2598    2595    2592    2610       7    2595    2601    2604    2682      14
    2592    2595    2598    2673       3    2592    2595    2601    2679      14
    2592    2595    2601    2676      14    2592    2586    2604    2682      14
    2589    2586    2604    2682      10    2589    2586    2604    2601      14
    2589    2586    2604    2607       7    2589    2586    2592    2595      14
    2589    2586    2592    2664       7    2589    2586    2592    2610      10
    2589    2586    2583    2613      11    2586    2604    2601    2679      14
    2586    2604    2601    2676      14    2586    2604    2607    2685       3
    2586    2592    2595    2670      14    2583    2586    2604    2682       7
    2583    2586    2592    2610       7    2583    2613    2616    2688      11
    2583    2613    2616    2691      11    2580    2583    2586    2589      30
    2580    2583   -2586    2589       3    2580    2583   -2586    2589      31
    2904    2823    2826    2907       6    2898    2817    2820    2901       6
    2898    2817    2823    2904       7    2892    2808    2811    2895       8
    2889    2808    2811    2895       8    2886    2805    2808    2889       7
    2886    2805    2808    2892       7    2880    2799    2805    2886       7
    2880    2799    2802    2883       6    2877    2796    2823    2904       7
    2877    2796    2799    2880       7    2868    2787    2790    2871       7
    2868    2787    2790    2874       7    2865    2787    2790    2871       7
    2865    2787    2790    2874       7    2862    2784    2787    2868       9
    2862    2784    2787    2865       9    2859    2784    2787    2868       9
    2859    2784    2787    2865       9    2856    2781    2784    2862       7
    2856    2781    2784    2859       7    2853    2781    2784    2862       7
    2853    2781    2784    2859       7    2850    2772    2928    3003       2
    2850    2772    2928    2925       2    2847    2769    2772    2850       3
    2847    2769    2772    2928       4    2847    2769   -2772    2928       3
    2847    2769   -2772    2928       5    2844    2766    2769    2847      10
    2841    2766    2769    2847      10    2835    2760    2763    2838       3
    2835    2760    2766    2844      10    2835    2760    2766    2841      10
    2829    2757    2760    2835       7    2829    2778    2781    2853      11
    2829    2778    2781    2856      11    2826    2823    2817    2898       7
    2826    2823    2796    2877      12    2826    2823   -2796    2877      13
    2823    2817    2820    2901      12    2823    2817   -2820    2901      14
    2823    2796    2799    2880       7    2820    2817    2823    2904      12
    2820    2817   -2823    2904      13    2817    2823    2826    2907      12
    2817    2823   -2826    2907      14    2817    2823    2796    2877       7
    2817    2814    2805    2886      17    2814    2817    2820    2901       6
    2814    2817    2823    2904      12    2814    2817   -2823    2904      13
    2814    2805    2799    2880      12    2814    2805   -2799    2880      13
    2814    2805    2808    2889      12    2814    2805   -2808    2889      13
    2814    2805    2808    2892      12    2814    2805   -2808    2892      13
    2811    2808    2805    2886      12    2811    2808   -2805    2886      13
    2808    2805    2799    2880       7    2805    2814    2817    2898      17
    2805    2799    2796    2877       7    2805    2799    2802    2883      12
    2805    2799   -2802    2883      14    2805    2808    2811    2895      12
    2805    2808   -2811    2895      14    2802    2799    2796    2877      12
    2802    2799   -2796    2877      13    2802    2799    2805    2886      12
    2802    2799   -2805    2886      13    2799    2796    2823    2904       7
    2799    2805    2808    2889       7    2799    2805    2808    2892       7
    2796    2823    2826    2907      12    2796    2823   -2826    2907      14
    2796    2823    2817    2898       7    2796    2793    2790    2871      17
    2796    2793    2790    2874      17    2796    2799    2805    2886       7
    2796    2799    2802    2883      12    2796    2799   -2802    2883      14
    2793    2790    2787    2868      12    2793    2790   -2787    2868      13
    2793    2790    2787    2865      12    2793    2790   -2787    2865      13
    2793    2796    2823    2904      12    2793    2796   -2823    2904      13
    2793    2796    2799    2880      12    2793    2796   -2799    2880      13
    2790    2793    2796    2877      17    2790    2787    2784    2862      23
    2790    2787    2784    2859      23    2787    2784    2781    2853       7
    2787    2784    2781    2856       7    2784    2787    2790    2871       7
    2784    2787    2790    2874       7    2781    2784    2787    2868      23
    2781    2784    2787    2865      23    2778    2781    2784    2862       7
    2778    2781    2784    2859       7    2775    2757    2760    2835      10
    2775    2757    2829    2832      30    2775    2757   -2829    2832       3
    2775    2757   -2829    2832      31    2775    2757    2829    2778      11
    2772    2769    2766    2844       7    2772    2769    2766    2841       7
    2772    2928    2925    3000       4    2772    2928   -2925    3000       3
    2772    2928   -2925    3000       5    2769    2766    2760    2835      14
    2769    2772    2928    3003       2    2769    2751    2757    2775      14
    2766    2760    2763    2838       3    2766    2760    2757    2775      14
    2766    2769    2772    2850       3    2763    2760    2766    2844       7
    2763    2760    2766    2841       7    2763    2760    2757    2775       7
    2760    2766    2769    2847      14    2757    2760    2763    2838       3
    2757    2760    2766    2844      14    2757    2760    2766    2841      14
    2757    2751    2769    2847      14    2754    2751    2769    2847      10
    2754    2751    2769    2766      14    2754    2751    2769    2772       7
    2754    2751    2757    2760      14    2754    2751    2757    2829       7
    2754    2751    2757    2775      10    2754    2751    2748    2778      11
    2751    2769    2766    2844      14    2751    2769    2766    2841      14
    2751    2769    2772    2850       3    2751    2757    2760    2835      14
    2748    2751    2769    2847       7    2748    2751    2757    2775       7
    2748    2778    2781    2853      11    2748    2778    2781    2856      11
    2745    2748    2751    2754      30    2745    2748   -2751    2754       3
    2745    2748   -2751    2754      31    3069    2988    2991    3072       6
    3063    2982    2985    3066       6    3063    2982    2988    3069       7
    3057    2973    2976    3060       8    3054    2973    2976    3060       8
    3051    2970    2973    3054       7    3051    2970    2973    3057       7
    3045    2964    2970    3051       7    3045    2964    2967    3048       6
    3042    2961    2988    3069       7    3042    2961    2964    3045       7
    3033    2952    2955    3036       7    3033    2952    2955    3039       7
    3030    2952    2955    3036       7    3030    2952    2955    3039       7
    3027    2949    2952    3033       9    3027    2949    2952    3030       9
    3024    2949    2952    3033       9    3024    2949    2952    3030       9
    3021    2946    2949    3027       7    3021    2946    2949    3024       7
    3018    2946    2949    3027       7    3018    2946    2949    3024       7
    3015    2937    3093    3168       2    3015    2937    3093    3090       2
    3012    2934    2937    3015       3    3012    2934    2937    3093       4
    3012    2934   -2937    3093       3    3012    2934   -2937    3093       5
    3009    2931    2934    3012      10    3006    2931    2934    3012      10
    3000    2925    2928    3003       3    3000    2925    2931    3009      10
    3000    2925    2931    3006      10    2994    2922    2925    3000       7
    2994    2943    2946    3018      11    2994    2943    2946    3021      11
    2991    2988    2982    3063       7    2991    2988    2961    3042      12
    2991    2988   -2961    3042      13    2988    2982    2985    3066      12
    2988    2982   -2985    3066      14    2988    2961    2964    3045       7
    2985    2982    2988    3069      12    2985    2982   -2988    3069      13
    2982    2988    2991    3072      12    2982    2988   -2991    3072      14
    2982    2988    2961    3042       7    2982    2979    2970    3051      17
    2979    2982    2985    3066       6    2979    2982    2988    3069      12
    2979    2982   -2988    3069      13    2979    2970    2964    3045      12
    2979    2970   -2964    3045      13    2979    2970    2973    3054      12
    2979    2970   -2973    3054      13    2979    2970    2973    3057      12
    2979    2970   -2973    3057      13    2976    2973    2970    3051      12
    2976    2973   -2970    3051      13    2973    2970    2964    3045       7
    2970    2979    2982    3063      17    2970    2964    2961    3042       7
    2970    2964    2967    3048      12    2970    2964   -2967    3048      14
    2970    2973    2976    3060      12    2970    2973   -2976    3060      14
    2967    2964    2961    3042      12    2967    2964   -2961    3042      13
    2967    2964    2970    3051      12    2967    2964   -2970    3051      13
    2964    2961    2988    3069       7    2964    2970    2973    3054       7
    2964    2970    2973    3057       7    2961    2988    2991    3072      12
    2961    2988   -2991    3072      14    2961    2988    2982    3063       7
    2961    2958    2955    3036      17    2961    2958    2955    3039      17
    2961    2964    2970    3051       7    2961    2964    2967    3048      12
    2961    2964   -2967    3048      14    2958    2955    2952    3033      12
    2958    2955   -2952    3033      13    2958    2955    2952    3030      12
    2958    2955   -2952    3030      13    2958    2961    2988    3069      12
    2958    2961   -2988    3069      13    2958    2961    2964    3045      12
    2958    2961   -2964    3045      13    2955    2958    2961    3042      17
    2955    2952    2949    3027      23    2955    2952    2949    3024      23
    2952    2949    2946    3018       7    2952    2949    2946    3021       7
    2949    2952    2955    3036       7    2949    2952    2955    3039       7
    2946    2949    2952    3033      23    2946    2949    2952    3030      23
    2943    2946    2949    3027       7    2943    2946    2949    3024       7
    2940    2922    2925    3000      10    2940    2922    2994    2997      30
    2940    2922   -2994    2997       3    2940    2922   -2994    2997      31
    2940    2922    2994    2943      11    2937    2934    2931    3009       7
    2937    2934    2931    3006       7    2937    3093    3090    3165       4
    2937    3093   -3090    3165       3    2937    3093   -3090    3165       5
    2934    2931    2925    3000      14    2934    2937    3093    3168       2
    2934    2916    2922    2940      14    2931    2925    2928    3003       3
    2931    2925    2922    2940      14    2931    2934    2937    3015       3
    2928    2925    2931    3009       7    2928    2925    2931    3006       7
    2928    2925    2922    2940       7    2925    2931    2934    3012      14
    2922    2925    2928    3003       3    2922    2925    2931    3009      14
    2922    2925    2931    3006      14    2922    2916    2934    3012      14
    2919    2916    2934    3012      10    2919    2916    2934    2931      14
    2919    2916    2934    2937       7    2919    2916    2922    2925      14
    2919    2916    2922    2994       7    2919    2916    2922    2940      10
    2919    2916    2913    2943      11    2916    2934    2931    3009      14
    2916    2934    2931    3006      14    2916    2934    2937    3015       3
    2916    2922    2925    3000      14    2913    2916    2934    3012       7
    2913    2916    2922    2940       7    2913    2943    2946    3018      11
    2913    2943    2946    3021      11    2910    2913    2916    2919      30
    2910    2913   -2916    2919       3    2910    2913   -2916    2919      31
    3234    3153    3156    3237       6    3228    3147    3150    3231       6
    3228    3147    3153    3234       7    3222    3138    3141    3225       8
    3219    3138    3141    3225       8    3216    3135    3138    3219       7
    3216    3135    3138    3222       7    3210    3129    3135    3216       7
    3210    3129    3132    3213       6    3207    3126    3153    3234       7
    3207    3126    3129    3210       7    3198    3117    3120    3201       7
    3198    3117    3120    3204       7    3195    3117    3120    3201       7
    3195    3117    3120    3204       7    3192    3114    3117    3198       9
    3192    3114    3117    3195       9    3189    3114    3117    3198       9
    3189    3114    3117    3195       9    3186    3111    3114    3192       7
    3186    3111    3114    3189       7    3183    3111    3114    3192       7
    3183    3111    3114    3189       7    3180    3102    3258    3333       2
    3180    3102    3258    3255       2    3177    3099    3102    3180       3
    3177    3099    3102    3258       4    3177    3099   -3102    3258       3
    3177    3099   -3102    3258       5    3174    3096    3099    3177      10
    3171    3096    3099    3177      10    3165    3090    3093    3168       3
    3165    3090    3096    3174      10    3165    3090    3096    3171      10
    3159    3087    3090    3165       7    3159    3108    3111    3183      11
    3159    3108    3111    3186      11    3156    3153    3147    3228       7
    3156    3153    3126    3207      12    3156    3153   -3126    3207      13
    3153    3147    3150    3231      12    3153    3147   -3150    3231      14
    3153    3126    3129    3210       7    3150    3147    3153    3234      12
    3150    3147   -3153    3234      13    3147    3153    3156    3237      12
    3147    3153   -3156    3237      14    3147    3153    3126    3207       7
    3147    3144    3135    3216      17    3144    3147    3150    3231       6
    3144    3147    3153    3234      12    3144    3147   -3153    3234      13
    3144    3135    3129    3210      12    3144    3135   -3129    3210      13
    3144    3135    3138    3219      12    3144    3135   -3138    3219      13
    3144    3135    3138    3222      12    3144    3135   -3138    3222      13
    3141    3138    3135    3216      12    3141    3138   -3135    3216      13
    3138    3135    3129    3210       7    3135    3144    3147    3228      17
    3135    3129    3126    3207       7    3135    3129    3132    3213      12
    3135    3129   -3132    3213      14    3135    3138    3141    3225      12
    3135    3138   -3141    3225      14    3132    3129    3126    3207      12
    3132    3129   -3126    3207      13    3132    3129    3135    3216      12
    3132    3129   -3135    3216      13    3129    3126    3153    3234       7
    3129    3135    3138    3219       7    3129    3135    3138    3222       7
    3126    3153    3156    3237      12    3126    3153   -3156    3237      14
    3126    3153    3147    3228       7    3126    3123    3120    3201      17
    3126    3123    3120    3204      17    3126    3129    3135    3216       7
    3126    3129    3132    3213      12    3126    3129   -3132    3213      14
    3123    3120    3117    3198      12    3123    3120   -3117    3198      13
    3123    3120    3117    3195      12    3123    3120   -3117    3195      13
    3123    3126    3153    3234      12    3123    3126   -3153    3234      13
    3123    3126    3129    3210      12    3123    3126   -3129    3210      13
    3120    3123    3126    3207      17    3120    3117    3114    3192      23
    3120    3117    3114    3189      23    3117    3114    3111    3183       7
    3117    3114    3111    3186       7    3114    3117    3120    3201       7
    3114    3117    3120    3204       7    3111    3114    3117    3198      23
    3111    3114    3117    3195      23    3108    3111    3114    3192       7
    3108    3111    3114    3189       7    3105    3087    3090    3165      10
    3105    3087    3159    3162      30    3105    3087   -3159    3162       3
    3105    3087   -3159    3162      31    3105    3087    3159    3108      11
    3102    3099    3096    3174       7    3102    3099    3096    3171       7
    3102    3258    3255    3330       4    3102    3258   -3255    3330       3
    3102    3258   -3255    3330       5    3099    3096    3090    3165      14
    3099    3102    3258    3333       2    3099    3081    3087    3105      14
    3096    3090    3093    3168       3    3096    3090    3087    3105      14
    3096    3099    3102    3180       3    3093    3090    3096    3174       7
    3093    3090    3096    3171       7    3093    3090    3087    3105       7
    3090    3096    3099    3177      14    3087    3090    3093    3168       3
    3087    3090    3096    3174      14    3087    3090    3096    3171      14
    3087    3081    3099    3177      14    3084    3081    3099    3177      10
    3084    3081    3099    3096      14    3084    3081    3099    3102       7
    3084    3081    3087    3090      14    3084    3081    3087    3159       7
    3084    3081    3087    3105      10    3084    3081    3078    3108      11
    3081    3099    3096    3174      14    3081    3099    3096    3171      14
    3081    3099    3102    3180       3    3081    3087    3090    3165      14
    3078    3081    3099    3177       7    3078    3081    3087    3105       7
    3078    3108    3111    3183      11    3078    3108    3111    3186      11
    3075    3078    3081    3084      30    3075    3078   -3081    3084       3
    3075    3078   -3081    3084      31    3399    3318    3321    3402       6
    3393    3312    3315    3396       6    3393    3312    3318    3399       7
    3387    3303    3306    3390       8    3384    3303    3306    3390       8
    3381    3300    3303    3384       7    3381    3300    3303    3387       7
    3375    3294    3300    3381       7    3375    3294    3297    3378       6
    3372    3291    3318    3399       7    3372    3291    3294    3375       7
    3363    3282    3285    3366       7    3363    3282    3285    3369       7
    3360    3282    3285    3366       7    3360    3282    3285    3369       7
    3357    3279    3282    3363       9    3357    3279    3282    3360       9
    3354    3279    3282    3363       9    3354    3279    3282    3360       9
    3351    3276    3279    3357       7    3351    3276    3279    3354       7
    3348    3276    3279    3357       7    3348    3276    3279    3354       7
    3345    3267    3405    3408       2    3345    3267    3405    3411       2
    3342    3264    3267    3345       3    3342    3264    3267    3405       4
    3342    3264   -3267    3405       3    3342    3264   -3267    3405       5
    3339    3261    3264    3342      10    3336    3261    3264    3342      10
    3330    3255    3258    3333       3    3330    3255    3261    3339      10
    3330    3255    3261    3336      10    3324    3252    3255    3330       7
    3324    3273    3276    3348      11    3324    3273    3276    3351      11
    3321    3318    3312    3393       7    3321    3318    3291    3372      12
    3321    3318   -3291    3372      13    3318    3312    3315    3396      12
    3318    3312   -3315    3396      14    3318    3291    3294    3375       7
    3315    3312    3318    3399      12    3315    3312   -3318    3399      13
    3312    3318    3321    3402      12    3312    3318   -3321    3402      14
    3312    3318    3291    3372       7    3312    3309    3300    3381      17
    3309    3312    3315    3396       6    3309    3312    3318    3399      12
    3309    3312   -3318    3399      13    3309    3300    3294    3375      12
    3309    3300   -3294    3375      13    3309    3300    3303    3384      12
    3309    3300   -3303    3384      13    3309    3300    3303    3387      12
    3309    3300   -3303    3387      13    3306    3303    3300    3381      12
    3306    3303   -3300    3381      13    3303    3300    3294    3375       7
    3300    3309    3312    3393      17    3300    3294    3291    3372       7
    3300    3294    3297    3378      12    3300    3294   -3297    3378      14
    3300    3303    3306    3390      12    3300    3303   -3306    3390      14
    3297    3294    3291    3372      12    3297    3294   -3291    3372      13
    3297    3294    3300    3381      12    3297    3294   -3300    3381      13
    3294    3291    3318    3399       7    3294    3300    3303    3384       7
    3294    3300    3303    3387       7    3291    3318    3321    3402      12
    3291    3318   -3321    3402      14    3291    3318    3312    3393       7
    3291    3288    3285    3366      17    3291    3288    3285    3369      17
    3291    3294    3300    3381       7    3291    3294    3297    3378      12
    3291    3294   -3297    3378      14    3288    3285    3282    3363      12
    3288    3285   -3282    3363      13    3288    3285    3282    3360      12
    3288    3285   -3282    3360      13    3288    3291    3318    3399      12
    3288    3291   -3318    3399      13    3288    3291    3294    3375      12
    3288    3291   -3294    3375      13    3285    3288    3291    3372      17
    3285    3282    3279    3357      23    3285    3282    3279    3354      23
    3282    3279    3276    3348       7    3282    3279    3276    3351       7
    3279    3282    3285    3366       7    3279    3282    3285    3369       7
    3276    3279    3282    3363      23    3276    3279    3282    3360      23
    3273    3276    3279    3357       7    3273    3276    3279    3354       7
    3270    3252    3255    3330      10    3270    3252    3324    3327      30
    3270    3252   -3324    3327       3    3270    3252   -3324    3327      31
    3270    3252    3324    3273      11    3267    3264    3261    3339       7
    3267    3264    3261    3336       7    3264    3261    3255    3330      14
    3264    3267    3405    3408       2    3264    3267    3405    3411       2
    3264    3246    3252    3270      14    3261    3255    3258    3333       3
    3261    3255    3252    3270      14    3261    3264    3267    3345       3
    3258    3255    3261    3339       7    3258    3255    3261    3336       7
    3258    3255    3252    3270       7    3255    3261    3264    3342      14
    3252    3255    3258    3333       3    3252    3255    3261    3339      14
    3252    3255    3261    3336      14    3252    3246    3264    3342      14
    3249    3246    3264    3342      10    3249    3246    3264    3261      14
    3249    3246    3264    3267       7    3249    3246    3252    3255      14
    3249    3246    3252    3324       7    3249    3246    3252    3270      10
    3249    3246    3243    3273      11    3246    3264    3261    3339      14
    3246    3264    3261    3336      14    3246    3264    3267    3345       3
    3246    3252    3255    3330      14    3243    3246    3264    3342       7
    3243    3246    3252    3270       7    3243    3273    3276    3348      11
    3243    3273    3276    3351      11    3240    3243    3246    3249      30
    3240    3243   -3246    3249       3    3240    3243   -3246    3249      31
    3420    3414    3441    3516       2    3420    3414    3441    3438       2
    3417    3414    3441    3516       2    3417    3414    3441    3438       2
    3414    3441    3438    3513       4    3414    3441   -3438    3513       3
    3414    3441   -3438    3513       5    3582    3501    3504    3585       6
    3576    3495    3498    3579       6    3576    3495    3501    3582       7
    3570    3486    3489    3573       8    3567    3486    3489    3573       8
    3564    3483    3486    3567       7    3564    3483    3486    3570       7
    3558    3477    3483    3564       7    3558    3477    3480    3561       6
    3555    3474    3501    3582       7    3555    3474    3477    3558       7
    3546    3465    3468    3549       7    3546    3465    3468    3552       7
    3543    3465    3468    3549       7    3543    3465    3468    3552       7
    3540    3462    3465    3546       9    3540    3462    3465    3543       9
    3537    3462    3465    3546       9    3537    3462    3465    3543       9
    3534    3459    3462    3540       7    3534    3459    3462    3537       7
    3531    3459    3462    3540       7    3531    3459    3462    3537       7
    3528    3450    3606    3681       2    3528    3450    3606    3603       2
    3525    3447    3450    3528       3    3525    3447    3450    3606       4
    3525    3447   -3450    3606       3    3525    3447   -3450    3606       5
    3522    3444    3447    3525      10    3519    3444    3447    3525      10
    3513    3438    3441    3516       3    3513    3438    3444    3522      10
    3513    3438    3444    3519      10    3507    3435    3438    3513       7
    3507    3456    3459    3531      11    3507    3456    3459    3534      11
    3504    3501    3495    3576       7    3504    3501    3474    3555      12
    3504    3501   -3474    3555      13    3501    3495    3498    3579      12
    3501    3495   -3498    3579      14    3501    3474    3477    3558       7
    3498    3495    3501    3582      12    3498    3495   -3501    3582      13
    3495    3501    3504    3585      12    3495    3501   -3504    3585      14
    3495    3501    3474    3555       7    3495    3492    3483    3564      17
    3492    3495    3498    3579       6    3492    3495    3501    3582      12
    3492    3495   -3501    3582      13    3492    3483    3477    3558      12
    3492    3483   -3477    3558      13    3492    3483    3486    3567      12
    3492    3483   -3486    3567      13    3492    3483    3486    3570      12
    3492    3483   -3486    3570      13    3489    3486    3483    3564      12
    3489    3486   -3483    3564      13    3486    3483    3477    3558       7
    3483    3492    3495    3576      17    3483    3477    3474    3555       7
    3483    3477    3480    3561      12    3483    3477   -3480    3561      14
    3483    3486    3489    3573      12    3483    3486   -3489    3573      14
    3480    3477    3474    3555      12    3480    3477   -3474    3555      13
    3480    3477    3483    3564      12    3480    3477   -3483    3564      13
    3477    3474    3501    3582       7    3477    3483    3486    3567       7
    3477    3483    3486    3570       7    3474    3501    3504    3585      12
    3474    3501   -3504    3585      14    3474    3501    3495    3576       7
    3474    3471    3468    3549      17    3474    3471    3468    3552      17
    3474    3477    3483    3564       7    3474    3477    3480    3561      12
    3474    3477   -3480    3561      14    3471    3468    3465    3546      12
    3471    3468   -3465    3546      13    3471    3468    3465    3543      12
    3471    3468   -3465    3543      13    3471    3474    3501    3582      12
    3471    3474   -3501    3582      13    3471    3474    3477    3558      12
    3471    3474   -3477    3558      13    3468    3471    3474    3555      17
    3468    3465    3462    3540      23    3468    3465    3462    3537      23
    3465    3462    3459    3531       7    3465    3462    3459    3534       7
    3462    3465    3468    3549       7    3462    3465    3468    3552       7
    3459    3462    3465    3546      23    3459    3462    3465    3543      23
    3456    3459    3462    3540       7    3456    3459    3462    3537       7
    3453    3435    3438    3513      10    3453    3435    3507    3510      30
    3453    3435   -3507    3510       3    3453    3435   -3507    3510      31
    3453    3435    3507    3456      11    3450    3447    3444    3522       7
    3450    3447    3444    3519       7    3450    3606    3603    3678       4
    3450    3606   -3603    3678       3    3450    3606   -3603    3678       5
    3447    3444    3438    3513      14    3447    3450    3606    3681       2
    3447    3429    3435    3453      14    3444    3438    3441    3516       3
    3444    3438    3435    3453      14    3444    3447    3450    3528       3
    3441    3438    3444    3522       7    3441    3438    3444    3519       7
    3441    3438    3435    3453       7    3438    3444    3447    3525      14
    3435    3438    3441    3516       3    3435    3438    3444    3522      14
    3435    3438    3444    3519      14    3435    3429    3447    3525      14
    3432    3429    3447    3525      10    3432    3429    3447    3444      14
    3432    3429    3447    3450       7    3432    3429    3435    3438      14
    3432    3429    3435    3507       7    3432    3429    3435    3453      10
    3432    3429    3426    3456      11    3429    3447    3444    3522      14
    3429    3447    3444    3519      14    3429    3447    3450    3528       3
    3429    3435    3438    3513      14    3426    3429    3447    3525       7
    3426    3429    3435    3453       7    3426    3456    3459    3531      11
    3426    3456    3459    3534      11    3423    3426    3429    3432      30
    3423    3426   -3429    3432       3    3423    3426   -3429    3432      31
    3747    3666    3669    3750       6    3741    3660    3663    3744       6
    3741    3660    3666    3747       7    3735    3651    3654    3738       8
    3732    3651    3654    3738       8    3729    3648    3651    3732       7
    3729    3648    3651    3735       7    3723    3642    3648    3729       7
    3723    3642    3645    3726       6    3720    3639    3666    3747       7
    3720    3639    3642    3723       7    3711    3630    3633    3714       7
    3711    3630    3633    3717       7    3708    3630    3633    3714       7
    3708    3630    3633    3717       7    3705    3627    3630    3711       9
    3705    3627    3630    3708       9    3702    3627    3630    3711       9
    3702    3627    3630    3708       9    3699    3624    3627    3705       7
    3699    3624    3627    3702       7    3696    3624    3627    3705       7
    3696    3624    3627    3702       7    3693    3615    3771    3846       2
    3693    3615    3771    3768       2    3690    3612    3615    3693       3
    3690    3612    3615    3771       4    3690    3612   -3615    3771       3
    3690    3612   -3615    3771       5    3687    3609    3612    3690      10
    3684    3609    3612    3690      10    3678    3603    3606    3681       3
    3678    3603    3609    3687      10    3678    3603    3609    3684      10
    3672    3600    3603    3678       7    3672    3621    3624    3696      11
    3672    3621    3624    3699      11    3669    3666    3660    3741       7
    3669    3666    3639    3720      12    3669    3666   -3639    3720      13
    3666    3660    3663    3744      12    3666    3660   -3663    3744      14
    3666    3639    3642    3723       7    3663    3660    3666    3747      12
    3663    3660   -3666    3747      13    3660    3666    3669    3750      12
    3660    3666   -3669    3750      14    3660    3666    3639    3720       7
    3660    3657    3648    3729      17    3657    3660    3663    3744       6
    3657    3660    3666    3747      12    3657    3660   -3666    3747      13
    3657    3648    3642    3723      12    3657    3648   -3642    3723      13
    3657    3648    3651    3732      12    3657    3648   -3651    3732      13
    3657    3648    3651    3735      12    3657    3648   -3651    3735      13
    3654    3651    3648    3729      12    3654    3651   -3648    3729      13
    3651    3648    3642    3723       7    3648    3657    3660    3741      17
    3648    3642    3639    3720       7    3648    3642    3645    3726      12
    3648    3642   -3645    3726      14    3648    3651    3654    3738      12
    3648    3651   -3654    3738      14    3645    3642    3639    3720      12
    3645    3642   -3639    3720      13    3645    3642    3648    3729      12
    3645    3642   -3648    3729      13    3642    3639    3666    3747       7
    3642    3648    3651    3732       7    3642    3648    3651    3735       7
    3639    3666    3669    3750      12    3639    3666   -3669    3750      14
    3639    3666    3660    3741       7    3639    3636    3633    3714      17
    3639    3636    3633    3717      17    3639    3642    3648    3729       7
    3639    3642    3645    3726      12    3639    3642   -3645    3726      14
    3636    3633    3630    3711      12    3636    3633   -3630    3711      13
    3636    3633    3630    3708      12    3636    3633   -3630    3708      13
    3636    3639    3666    3747      12    3636    3639   -3666    3747      13
    3636    3639    3642    3723      12    3636    3639   -3642    3723      13
    3633    3636    3639    3720      17    3633    3630    3627    3705      23
    3633    3630    3627    3702      23    3630    3627    3624    3696       7
    3630    3627    3624    3699       7    3627    3630    3633    3714       7
    3627    3630    3633    3717       7    3624    3627    3630    3711      23
    3624    3627    3630    3708      23    3621    3624    3627    3705       7
    3621    3624    3627    3702       7    3618    3600    3603    3678      10
    3618    3600    3672    3675      30    3618    3600   -3672    3675       3
    3618    3600   -3672    3675      31    3618    3600    3672    3621      11
    3615    3612    3609    3687       7    3615    3612    3609    3684       7
    3615    3771    3768    3843       4    3615    3771   -3768    3843       3
    3615    3771   -3768    3843       5    3612    3609    3603    3678      14
    3612    3615    3771    3846       2    3612    3594    3600    3618      14
    3609    3603    3606    3681       3    3609    3603    3600    3618      14
    3609    3612    3615    3693       3    3606    3603    3609    3687       7
    3606    3603    3609    3684       7    3606    3603    3600    3618       7
    3603    3609    3612    3690      14    3600    3603    3606    3681       3
    3600    3603    3609    3687      14    3600    3603    3609    3684      14
    3600    3594    3612    3690      14    3597    3594    3612    3690      10
    3597    3594    3612    3609      14    3597    3594    3612    3615       7
    3597    3594    3600    3603      14    3597    3594    3600    3672       7
    3597    3594    3600    3618      10    3597    3594    3591    3621      11
    3594    3612    3609    3687      14    3594    3612    3609    3684      14
    3594    3612    3615    3693       3    3594    3600    3603    3678      14
    3591    3594    3612    3690       7    3591    3594    3600    3618       7
    3591    3621    3624    3696      11    3591    3621    3624    3699      11
    3588    3591    3594    3597      30    3588    3591   -3594    3597       3
    3588    3591   -3594    3597      31    3912    3831    3834    3915       6
    3906    3825    3828    3909       6    3906    3825    3831    3912       7
    3900    3816    3819    3903       8    3897    3816    3819    3903       8
    3894    3813    3816    3897       7    3894    3813    3816    3900       7
    3888    3807    3813    3894       7    3888    3807    3810    3891       6
    3885    3804    3831    3912       7    3885    3804    3807    3888       7
    3876    3795    3798    3879       7    3876    3795    3798    3882       7
    3873    3795    3798    3879       7    3873    3795    3798    3882       7
    3870    3792    3795    3876       9    3870    3792    3795    3873       9
    3867    3792    3795    3876       9    3867    3792    3795    3873       9
    3864    3789    3792    3870       7    3864    3789    3792    3867       7
    3861    3789    3792    3870       7    3861    3789    3792    3867       7
    3858    3780    3936    4011       2    3858    3780    3936    3933       2
    3855    3777    3780    3858       3    3855    3777    3780    3936       4
    3855    3777   -3780    3936       3    3855    3777   -3780    3936       5
    3852    3774    3777    3855      10    3849    3774    3777    3855      10
    3843    3768    3771    3846       3    3843    3768    3774    3852      10
    3843    3768    3774    3849      10    3837    3765    3768    3843       7
    3837    3786    3789    3861      11    3837    3786    3789    3864      11
    3834    3831    3825    3906       7    3834    3831    3804    3885      12
    3834    3831   -3804    3885      13    3831    3825    3828    3909      12
    3831    3825   -3828    3909      14    3831    3804    3807    3888       7
    3828    3825    3831    3912      12    3828    3825   -3831    3912      13
    3825    3831    3834    3915      12    3825    3831   -3834    3915      14
    3825    3831    3804    3885       7    3825    3822    3813    3894      17
    3822    3825    3828    3909       6    3822    3825    3831    3912      12
    3822    3825   -3831    3912      13    3822    3813    3807    3888      12
    3822    3813   -3807    3888      13    3822    3813    3816    3897      12
    3822    3813   -3816    3897      13    3822    3813    3816    3900      12
    3822    3813   -3816    3900      13    3819    3816    3813    3894      12
    3819    3816   -3813    3894      13    3816    3813    3807    3888       7
    3813    3822    3825    3906      17    3813    3807    3804    3885       7
    3813    3807    3810    3891      12    3813    3807   -3810    3891      14
    3813    3816    3819    3903      12    3813    3816   -3819    3903      14
    3810    3807    3804    3885      12    3810    3807   -3804    3885      13
    3810    3807    3813    3894      12    3810    3807   -3813    3894      13
    3807    3804    3831    3912       7    3807    3813    3816    3897       7
    3807    3813    3816    3900       7    3804    3831    3834    3915      12
    3804    3831   -3834    3915      14    3804    3831    3825    3906       7
    3804    3801    3798    3879      17    3804    3801    3798    3882      17
    3804    3807    3813    3894       7    3804    3807    3810    3891      12
    3804    3807   -3810    3891      14    3801    3798    3795    3876      12
    3801    3798   -3795    3876      13    3801    3798    3795    3873      12
    3801    3798   -3795    3873      13    3801    3804    3831    3912      12
    3801    3804   -3831    3912      13    3801    3804    3807    3888      12
    3801    3804   -3807    3888      13    3798    3801    3804    3885      17
    3798    3795    3792    3870      23    3798    3795    3792    3867      23
    3795    3792    3789    3861       7    3795    3792    3789    3864       7
    3792    3795    3798    3879       7    3792    3795    3798    3882       7
    3789    3792    3795    3876      23    3789    3792    3795    3873      23
    3786    3789    3792    3870       7    3786    3789    3792    3867       7
    3783    3765    3768    3843      10    3783    3765    3837    3840      30
    3783    3765   -3837    3840       3    3783    3765   -3837    3840      31
    3783    3765    3837    3786      11    3780    3777    3774    3852       7
    3780    3777    3774    3849       7    3780    3936    3933    4008       4
    3780    3936   -3933    4008       3    3780    3936   -3933    4008       5
    3777    3774    3768    3843      14    3777    3780    3936    4011       2
    3777    3759    3765    3783      14    3774    3768    3771    3846       3
    3774    3768    3765    3783      14    3774    3777    3780    3858       3
    3771    3768    3774    3852       7    3771    3768    3774    3849       7
    3771    3768    3765    3783       7    3768    3774    3777    3855      14
    3765    3768    3771    3846       3    3765    3768    3774    3852      14
    3765    3768    3774    3849      14    3765    3759    3777    3855      14
    3762    3759    3777    3855      10    3762    3759    3777    3774      14
    3762    3759    3777    3780       7    3762    3759    3765    3768      14
    3762    3759    3765    3837       7    3762    3759    3765    3783      10
    3762    3759    3756    3786      11    3759    3777    3774    3852      14
    3759    3777    3774    3849      14    3759    3777    3780    3858       3
    3759    3765    3768    3843      14    3756    3759    3777    3855       7
    3756    3759    3765    3783       7    3756    3786    3789    3861      11
    3756    3786    3789    3864      11    3753    3756    3759    3762      30
    3753    3756   -3759    3762       3    3753    3756   -3759    3762      31
    4077    3996    3999    4080       6    4071    3990    3993    4074       6
    4071    3990    3996    4077       7    4065    3981    3984    4068       8
    4062    3981    3984    4068       8    4059    3978    3981    4062       7
    4059    3978    3981    4065       7    4053    3972    3978    4059       7
    4053    3972    3975    4056       6    4050    3969    3996    4077       7
    4050    3969    3972    4053       7    4041    3960    3963    4044       7
    4041    3960    3963    4047       7    4038    3960    3963    4044       7
    4038    3960    3963    4047       7    4035    3957    3960    4041       9
    4035    3957    3960    4038       9    4032    3957    3960    4041       9
    4032    3957    3960    4038       9    4029    3954    3957    4035       7
    4029    3954    3957    4032       7    4026    3954    3957    4035       7
    4026    3954    3957    4032       7    4023    3945    4101    4176       2
    4023    3945    4101    4098       2    4020    3942    3945    4023       3
    4020    3942    3945    4101       4    4020    3942   -3945    4101       3
    4020    3942   -3945    4101       5    4017    3939    3942    4020      10
    4014    3939    3942    4020      10    4008    3933    3936    4011       3
    4008    3933    3939    4017      10    4008    3933    3939    4014      10
    4002    3930    3933    4008       7    4002    3951    3954    4026      11
    4002    3951    3954    4029      11    3999    3996    3990    4071       7
    3999    3996    3969    4050      12    3999    3996   -3969    4050      13
    3996    3990    3993    4074      12    3996    3990   -3993    4074      14
    3996    3969    3972    4053       7    3993    3990    3996    4077      12
    3993    3990   -3996    4077      13    3990    3996    3999    4080      12
    3990    3996   -3999    4080      14    3990    3996    3969    4050       7
    3990    3987    3978    4059      17    3987    3990    3993    4074       6
    3987    3990    3996    4077      12    3987    3990   -3996    4077      13
    3987    3978    3972    4053      12    3987    3978   -3972    4053      13
    3987    3978    3981    4062      12    3987    3978   -3981    4062      13
    3987    3978    3981    4065      12    3987    3978   -3981    4065      13
    3984    3981    3978    4059      12    3984    3981   -3978    4059      13
    3981    3978    3972    4053       7    3978    3987    3990    4071      17
    3978    3972    3969    4050       7    3978    3972    3975    4056      12
    3978    3972   -3975    4056      14    3978    3981    3984    4068      12
    3978    3981   -3984    4068      14    3975    3972    3969    4050      12
    3975    3972   -3969    4050      13    3975    3972    3978    4059      12
    3975    3972   -3978    4059      13    3972    3969    3996    4077       7
    3972    3978    3981    4062       7    3972    3978    3981    4065       7
    3969    3996    3999    4080      12    3969    3996   -3999    4080      14
    3969    3996    3990    4071       7    3969    3966    3963    4044      17
    3969    3966    3963    4047      17    3969    3972    3978    4059       7
    3969    3972    3975    4056      12    3969    3972   -3975    4056      14
    3966    3963    3960    4041      12    3966    3963   -3960    4041      13
    3966    3963    3960    4038      12    3966    3963   -3960    4038      13
    3966    3969    3996    4077      12    3966    3969   -3996    4077      13
    3966    3969    3972    4053      12    3966    3969   -3972    4053      13
    3963    3966    3969    4050      17    3963    3960    3957    4035      23
    3963    3960    3957    4032      23    3960    3957    3954    4026       7
    3960    3957    3954    4029       7    3957    3960    3963    4044       7
    3957    3960    3963    4047       7    3954    3957    3960    4041      23
    3954    3957    3960    4038      23    3951    3954    3957    4035       7
    3951    3954    3957    4032       7    3948    3930    3933    4008      10
    3948    3930    4002    4005      30    3948    3930   -4002    4005       3
    3948    3930   -4002    4005      31    3948    3930    4002    3951      11
    3945    3942    3939    4017       7    3945    3942    3939    4014       7
    3945    4101    4098    4173       4    3945    4101   -4098    4173       3
    3945    4101   -4098    4173       5    3942    3939    3933    4008      14
    3942    3945    4101    4176       2    3942    3924    3930    3948      14
    3939    3933    3936    4011       3    3939    3933    3930    3948      14
    3939    3942    3945    4023       3    3936    3933    3939    4017       7
    3936    3933    3939    4014       7    3936    3933    3930    3948       7
    3933    3939    3942    4020      14    3930    3933    3936    4011       3
    3930    3933    3939    4017      14    3930    3933    3939    4014      14
    3930    3924    3942    4020      14    3927    3924    3942    4020      10
    3927    3924    3942    3939      14    3927    3924    3942    3945       7
    3927    3924    3930    3933      14    3927    3924    3930    4002       7
    3927    3924    3930    3948      10    3927    3924    3921    3951      11
    3924    3942    3939    4017      14    3924    3942    3939    4014      14
    3924    3942    3945    4023       3    3924    3930    3933    4008      14
    3921    3924    3942    4020       7    3921    3924    3930    3948       7
    3921    3951    3954    4026      11    3921    3951    3954    4029      11
    3918    3921    3924    3927      30    3918    3921   -3924    3927       3
    3918    3921   -3924    3927      31    4242    4161    4164    4245       6
    4236    4155    4158    4239       6    4236    4155    4161    4242       7
    4230    4146    4149    4233       8    4227    4146    4149    4233       8
    4224    4143    4146    4227       7    4224    4143    4146    4230       7
    4218    4137    4143    4224       7    4218    4137    4140    4221       6
    4215    4134    4161    4242       7    4215    4134    4137    4218       7
    4206    4125    4128    4209       7    4206    4125    4128    4212       7
    4203    4125    4128    4209       7    4203    4125    4128    4212       7
    4200    4122    4125    4206       9    4200    4122    4125    4203       9
    4197    4122    4125    4206       9    4197    4122    4125    4203       9
    4194    4119    4122    4200       7    4194    4119    4122    4197       7
    4191    4119    4122    4200       7    4191    4119    4122    4197       7
    4188    4110    4266    4341       2    4188    4110    4266    4263       2
    4185    4107    4110    4188       3    4185    4107    4110    4266       4
    4185    4107   -4110    4266       3    4185    4107   -4110    4266       5
    4182    4104    4107    4185      10    4179    4104    4107    4185      10
    4173    4098    4101    4176       3    4173    4098    4104    4182      10
    4173    4098    4104    4179      10    4167    4095    4098    4173       7
    4167    4116    4119    4191      11    4167    4116    4119    4194      11
    4164    4161    4155    4236       7    4164    4161    4134    4215      12
    4164    4161   -4134    4215      13    4161    4155    4158    4239      12
    4161    4155   -4158    4239      14    4161    4134    4137    4218       7
    4158    4155    4161    4242      12    4158    4155   -4161    4242      13
    4155    4161    4164    4245      12    4155    4161   -4164    4245      14
    4155    4161    4134    4215       7    4155    4152    4143    4224      17
    4152    4155    4158    4239       6    4152    4155    4161    4242      12
    4152    4155   -4161    4242      13    4152    4143    4137    4218      12
    4152    4143   -4137    4218      13    4152    4143    4146    4227      12
    4152    4143   -4146    4227      13    4152    4143    4146    4230      12
    4152    4143   -4146    4230      13    4149    4146    4143    4224      12
    4149    4146   -4143    4224      13    4146    4143    4137    4218       7
    4143    4152    4155    4236      17    4143    4137    4134    4215       7
    4143    4137    4140    4221      12    4143    4137   -4140    4221      14
    4143    4146    4149    4233      12    4143    4146   -4149    4233      14
    4140    4137    4134    4215      12    4140    4137   -4134    4215      13
    4140    4137    4143    4224      12    4140    4137   -4143    4224      13
    4137    4134    4161    4242       7    4137    4143    4146    4227       7
    4137    4143    4146    4230       7    4134    4161    4164    4245      12
    4134    4161   -4164    4245      14    4134    4161    4155    4236       7
    4134    4131    4128    4209      17    4134    4131    4128    4212      17
    4134    4137    4143    4224       7    4134    4137    4140    4221      12
    4134    4137   -4140    4221      14    4131    4128    4125    4206      12
    4131    4128   -4125    4206      13    4131    4128    4125    4203      12
    4131    4128   -4125    4203      13    4131    4134    4161    4242      12
    4131    4134   -4161    4242      13    4131    4134    4137    4218      12
    4131    4134   -4137    4218      13    4128    4131    4134    4215      17
    4128    4125    4122    4200      23    4128    4125    4122    4197      23
    4125    4122    4119    4191       7    4125    4122    4119    4194       7
    4122    4125    4128    4209       7    4122    4125    4128    4212       7
    4119    4122    4125    4206      23    4119    4122    4125    4203      23
    4116    4119    4122    4200       7    4116    4119    4122    4197       7
    4113    4095    4098    4173      10    4113    4095    4167    4170      30
    4113    4095   -4167    4170       3    4113    4095   -4167    4170      31
    4113    4095    4167    4116      11    4110    4107    4104    4182       7
    4110    4107    4104    4179       7    4110    4266    4263    4338       4
    4110    4266   -4263    4338       3    4110    4266   -4263    4338       5
    4107    4104    4098    4173      14    4107    4110    4266    4341       2
    4107    4089    4095    4113      14    4104    4098    4101    4176       3
    4104    4098    4095    4113      14    4104    4107    4110    4188       3
    4101    4098    4104    4182       7    4101    4098    4104    4179       7
    4101    4098    4095    4113       7    4098    4104    4107    4185      14
    4095    4098    4101    4176       3    4095    4098    4104    4182      14
    4095    4098    4104    4179      14    4095    4089    4107    4185      14
    4092    4089    4107    4185      10    4092    4089    4107    4104      14
    4092    4089    4107    4110       7    4092    4089    4095    4098      14
    4092    4089    4095    4167       7    4092    4089    4095    4113      10
    4092    4089    4086    4116      11    4089    4107    4104    4182      14
    4089    4107    4104    4179      14    4089    4107    4110    4188       3
    4089    4095    4098    4173      14    4086    4089    4107    4185       7
    4086    4089    4095    4113       7    4086    4116    4119    4191      11
    4086    4116    4119    4194      11    4083    4086    4089    4092      30
    4083    4086   -4089    4092       3    4083    4086   -4089    4092      31
    4407    4326    4329    4410       6    4401    4320    4323    4404       6
    4401    4320    4326    4407       7    4395    4311    4314    4398       8
    4392    4311    4314    4398       8    4389    4308    4311    4392       7
    4389    4308    4311    4395       7    4383    4302    4308    4389       7
    4383    4302    4305    4386       6    4380    4299    4326    4407       7
    4380    4299    4302    4383       7    4371    4290    4293    4374       7
    4371    4290    4293    4377       7    4368    4290    4293    4374       7
    4368    4290    4293    4377       7    4365    4287    4290    4371       9
    4365    4287    4290    4368       9    4362    4287    4290    4371       9
    4362    4287    4290    4368       9    4359    4284    4287    4365       7
    4359    4284    4287    4362       7    4356    4284    4287    4365       7
    4356    4284    4287    4362       7    4353    4275    4431    4506       2
    4353    4275    4431    4428       2    4350    4272    4275    4353       3
    4350    4272    4275    4431       4    4350    4272   -4275    4431       3
    4350    4272   -4275    4431       5    4347    4269    4272    4350      10
    4344    4269    4272    4350      10    4338    4263    4266    4341       3
    4338    4263    4269    4347      10    4338    4263    4269    4344      10
    4332    4260    4263    4338       7    4332    4281    4284    4356      11
    4332    4281    4284    4359      11    4329    4326    4320    4401       7
    4329    4326    4299    4380      12    4329    4326   -4299    4380      13
    4326    4320    4323    4404      12    4326    4320   -4323    4404      14
    4326    4299    4302    4383       7    4323    4320    4326    4407      12
    4323    4320   -4326    4407      13    4320    4326    4329    4410      12
    4320    4326   -4329    4410      14    4320    4326    4299    4380       7
    4320    4317    4308    4389      17    4317    4320    4323    4404       6
    4317    4320    4326    4407      12    4317    4320   -4326    4407      13
    4317    4308    4302    4383      12    4317    4308   -4302    4383      13
    4317    4308    4311    4392      12    4317    4308   -4311    4392      13
    4317    4308    4311    4395      12    4317    4308   -4311    4395      13
    4314    4311    4308    4389      12    4314    4311   -4308    4389      13
    4311    4308    4302    4383       7    4308    4317    4320    4401      17
    4308    4302    4299    4380       7    4308    4302    4305    4386      12
    4308    4302   -4305    4386      14    4308    4311    4314    4398      12
    4308    4311   -4314    4398      14    4305    4302    4299    4380      12
    4305    4302   -4299    4380      13    4305    4302    4308    4389      12
    4305    4302   -4308    4389      13    4302    4299    4326    4407       7
    4302    4308    4311    4392       7    4302    4308    4311    4395       7
    4299    4326    4329    4410      12    4299    4326   -4329    4410      14
    4299    4326    4320    4401       7    4299    4296    4293    4374      17
    4299    4296    4293    4377      17    4299    4302    4308    4389       7
    4299    4302    4305    4386      12    4299    4302   -4305    4386      14
    4296    4293    4290    4371      12    4296    4293   -4290    4371      13
    4296    4293    4290    4368      12    4296    4293   -4290    4368      13
    4296    4299    4326    4407      12    4296    4299   -4326    4407      13
    4296    4299    4302    4383      12    4296    4299   -4302    4383      13
    4293    4296    4299    4380      17    4293    4290    4287    4365      23
    4293    4290    4287    4362      23    4290    4287    4284    4356       7
    4290    4287    4284    4359       7    4287    4290    4293    4374       7
    4287    4290    4293    4377       7    4284    4287    4290    4371      23
    4284    4287    4290    4368      23    4281    4284    4287    4365       7
    4281    4284    4287    4362       7    4278    4260    4263    4338      10
    4278    4260    4332    4335      30    4278    4260   -4332    4335       3
    4278    4260   -4332    4335      31    4278    4260    4332    4281      11
    4275    4272    4269    4347       7    4275    4272    4269    4344       7
    4275    4431    4428    4503       4    4275    4431   -4428    4503       3
    4275    4431   -4428    4503       5    4272    4269    4263    4338      14
    4272    4275    4431    4506       2    4272    4254    4260    4278      14
    4269    4263    4266    4341       3    4269    4263    4260    4278      14
    4269    4272    4275    4353       3    4266    4263    4269    4347       7
    4266    4263    4269    4344       7    4266    4263    4260    4278       7
    4263    4269    4272    4350      14    4260    4263    4266    4341       3
    4260    4263    4269    4347      14    4260    4263    4269    4344      14
    4260    4254    4272    4350      14    4257    4254    4272    4350      10
    4257    4254    4272    4269      14    4257    4254    4272    4275       7
    4257    4254    4260    4263      14    4257    4254    4260    4332       7
    4257    4254    4260    4278      10    4257    4254    4251    4281      11
    4254    4272    4269    4347      14    4254    4272    4269    4344      14
    4254    4272    4275    4353       3    4254    4260    4263    4338      14
    4251    4254    4272    4350       7    4251    4254    4260    4278       7
    4251    4281    4284    4356      11    4251    4281    4284    4359      11
    4248    4251    4254    4257      30    4248    4251   -4254    4257       3
    4248    4251   -4254    4257      31    4572    4491    4494    4575       6
    4566    4485    4488    4569       6    4566    4485    4491    4572       7
    4560    4476    4479    4563       8    4557    4476    4479    4563       8
    4554    4473    4476    4557       7    4554    4473    4476    4560       7
    4548    4467    4473    4554       7    4548    4467    4470    4551       6
    4545    4464    4491    4572       7    4545    4464    4467    4548       7
    4536    4455    4458    4539       7    4536    4455    4458    4542       7
    4533    4455    4458    4539       7    4533    4455    4458    4542       7
    4530    4452    4455    4536       9    4530    4452    4455    4533       9
    4527    4452    4455    4536       9    4527    4452    4455    4533       9
    4524    4449    4452    4530       7    4524    4449    4452    4527       7
    4521    4449    4452    4530       7    4521    4449    4452    4527       7
    4518    4440    4596    4671       2    4518    4440    4596    4593       2
    4515    4437    4440    4518       3    4515    4437    4440    4596       4
    4515    4437   -4440    4596       3    4515    4437   -4440    4596       5
    4512    4434    4437    4515      10    4509    4434    4437    4515      10
    4503    4428    4431    4506       3    4503    4428    4434    4512      10
    4503    4428    4434    4509      10    4497    4425    4428    4503       7
    4497    4446    4449    4521      11    4497    4446    4449    4524      11
    4494    4491    4485    4566       7    4494    4491    4464    4545      12
    4494    4491   -4464    4545      13    4491    4485    4488    4569      12
    4491    4485   -4488    4569      14    4491    4464    4467    4548       7
    4488    4485    4491    4572      12    4488    4485   -4491    4572      13
    4485    4491    4494    4575      12    4485    4491   -4494    4575      14
    4485    4491    4464    4545       7    4485    4482    4473    4554      17
    4482    4485    4488    4569       6    4482    4485    4491    4572      12
    4482    4485   -4491    4572      13    4482    4473    4467    4548      12
    4482    4473   -4467    4548      13    4482    4473    4476    4557      12
    4482    4473   -4476    4557      13    4482    4473    4476    4560      12
    4482    4473   -4476    4560      13    4479    4476    4473    4554      12
    4479    4476   -4473    4554      13    4476    4473    4467    4548       7
    4473    4482    4485    4566      17    4473    4467    4464    4545       7
    4473    4467    4470    4551      12    4473    4467   -4470    4551      14
    4473    4476    4479    4563      12    4473    4476   -4479    4563      14
    4470    4467    4464    4545      12    4470    4467   -4464    4545      13
    4470    4467    4473    4554      12    4470    4467   -4473    4554      13
    4467    4464    4491    4572       7    4467    4473    4476    4557       7
    4467    4473    4476    4560       7    4464    4491    4494    4575      12
    4464    4491   -4494    4575      14    4464    4491    4485    4566       7
    4464    4461    4458    4539      17    4464    4461    4458    4542      17
    4464    4467    4473    4554       7    4464    4467    4470    4551      12
    4464    4467   -4470    4551      14    4461    4458    4455    4536      12
    4461    4458   -4455    4536      13    4461    4458    4455    4533      12
    4461    4458   -4455    4533      13    4461    4464    4491    4572      12
    4461    4464   -4491    4572      13    4461    4464    4467    4548      12
    4461    4464   -4467    4548      13    4458    4461    4464    4545      17
    4458    4455    4452    4530      23    4458    4455    4452    4527      23
    4455    4452    4449    4521       7    4455    4452    4449    4524       7
    4452    4455    4458    4539       7    4452    4455    4458    4542       7
    4449    4452    4455    4536      23    4449    4452    4455    4533      23
    4446    4449    4452    4530       7    4446    4449    4452    4527       7
    4443    4425    4428    4503      10    4443    4425    4497    4500      30
    4443    4425   -4497    4500       3    4443    4425   -4497    4500      31
    4443    4425    4497    4446      11    4440    4437    4434    4512       7
    4440    4437    4434    4509       7    4440    4596    4593    4668       4
    4440    4596   -4593    4668       3    4440    4596   -4593    4668       5
    4437    4434    4428    4503      14    4437    4440    4596    4671       2
    4437    4419    4425    4443      14    4434    4428    4431    4506       3
    4434    4428    4425    4443      14    4434    4437    4440    4518       3
    4431    4428    4434    4512       7    4431    4428    4434    4509       7
    4431    4428    4425    4443       7    4428    4434    4437    4515      14
    4425    4428    4431    4506       3    4425    4428    4434    4512      14
    4425    4428    4434    4509      14    4425    4419    4437    4515      14
    4422    4419    4437    4515      10    4422    4419    4437    4434      14
    4422    4419    4437    4440       7    4422    4419    4425    4428      14
    4422    4419    4425    4497       7    4422    4419    4425    4443      10
    4422    4419    4416    4446      11    4419    4437    4434    4512      14
    4419    4437    4434    4509      14    4419    4437    4440    4518       3
    4419    4425    4428    4503      14    4416    4419    4437    4515       7
    4416    4419    4425    4443       7    4416    4446    4449    4521      11
    4416    4446    4449    4524      11    4413    4416    4419    4422      30
    4413    4416   -4419    4422       3    4413    4416   -4419    4422      31
    4737    4656    4659    4740       6    4731    4650    4653    4734       6
    4731    4650    4656    4737       7    4725    4641    4644    4728       8
    4722    4641    4644    4728       8    4719    4638    4641    4722       7
    4719    4638    4641    4725       7    4713    4632    4638    4719       7
    4713    4632    4635    4716       6    4710    4629    4656    4737       7
    4710    4629    4632    4713       7    4701    4620    4623    4704       7
    4701    4620    4623    4707       7    4698    4620    4623    4704       7
    4698    4620    4623    4707       7    4695    4617    4620    4701       9
    4695    4617    4620    4698       9    4692    4617    4620    4701       9
    4692    4617    4620    4698       9    4689    4614    4617    4695       7
    4689    4614    4617    4692       7    4686    4614    4617    4695       7
    4686    4614    4617    4692       7    4683    4605    4761    4836       2
    4683    4605    4761    4758       2    4680    4602    4605    4683       3
    4680    4602    4605    4761       4    4680    4602   -4605    4761       3
    4680    4602   -4605    4761       5    4677    4599    4602    4680      10
    4674    4599    4602    4680      10    4668    4593    4596    4671       3
    4668    4593    4599    4677      10    4668    4593    4599    4674      10
    4662    4590    4593    4668       7    4662    4611    4614    4686      11
    4662    4611    4614    4689      11    4659    4656    4650    4731       7
    4659    4656    4629    4710      12    4659    4656   -4629    4710      13
    4656    4650    4653    4734      12    4656    4650   -4653    4734      14
    4656    4629    4632    4713       7    4653    4650    4656    4737      12
    4653    4650   -4656    4737      13    4650    4656    4659    4740      12
    4650    4656   -4659    4740      14    4650    4656    4629    4710       7
    4650    4647    4638    4719      17    4647    4650    4653    4734       6
    4647    4650    4656    4737      12    4647    4650   -4656    4737      13
    4647    4638    4632    4713      12    4647    4638   -4632    4713      13
    4647    4638    4641    4722      12    4647    4638   -4641    4722      13
    4647    4638    4641    4725      12    4647    4638   -4641    4725      13
    4644    4641    4638    4719      12    4644    4641   -4638    4719      13
    4641    4638    4632    4713       7    4638    4647    4650    4731      17
    4638    4632    4629    4710       7    4638    4632    4635    4716      12
    4638    4632   -4635    4716      14    4638    4641    4644    4728      12
    4638    4641   -4644    4728      14    4635    4632    4629    4710      12
    4635    4632   -4629    4710      13    4635    4632    4638    4719      12
    4635    4632   -4638    4719      13    4632    4629    4656    4737       7
    4632    4638    4641    4722       7    4632    4638    4641    4725       7
    4629    4656    4659    4740      12    4629    4656   -4659    4740      14
    4629    4656    4650    4731       7    4629    4626    4623    4704      17
    4629    4626    4623    4707      17    4629    4632    4638    4719       7
    4629    4632    4635    4716      12    4629    4632   -4635    4716      14
    4626    4623    4620    4701      12    4626    4623   -4620    4701      13
    4626    4623    4620    4698      12    4626    4623   -4620    4698      13
    4626    4629    4656    4737      12    4626    4629   -4656    4737      13
    4626    4629    4632    4713      12    4626    4629   -4632    4713      13
    4623    4626    4629    4710      17    4623    4620    4617    4695      23
    4623    4620    4617    4692      23    4620    4617    4614    4686       7
    4620    4617    4614    4689       7    4617    4620    4623    4704       7
    4617    4620    4623    4707       7    4614    4617    4620    4701      23
    4614    4617    4620    4698      23    4611    4614    4617    4695       7
    4611    4614    4617    4692       7    4608    4590    4593    4668      10
    4608    4590    4662    4665      30    4608    4590   -4662    4665       3
    4608    4590   -4662    4665      31    4608    4590    4662    4611      11
    4605    4602    4599    4677       7    4605    4602    4599    4674       7
    4605    4761    4758    4833       4    4605    4761   -4758    4833       3
    4605    4761   -4758    4833       5    4602    4599    4593    4668      14
    4602    4605    4761    4836       2    4602    4584    4590    4608      14
    4599    4593    4596    4671       3    4599    4593    4590    4608      14
    4599    4602    4605    4683       3    4596    4593    4599    4677       7
    4596    4593    4599    4674       7    4596    4593    4590    4608       7
    4593    4599    4602    4680      14    4590    4593    4596    4671       3
    4590    4593    4599    4677      14    4590    4593    4599    4674      14
    4590    4584    4602    4680      14    4587    4584    4602    4680      10
    4587    4584    4602    4599      14    4587    4584    4602    4605       7
    4587    4584    4590    4593      14    4587    4584    4590    4662       7
    4587    4584    4590    4608      10    4587    4584    4581    4611      11
    4584    4602    4599    4677      14    4584    4602    4599    4674      14
    4584    4602    4605    4683       3    4584    4590    4593    4668      14
    4581    4584    4602    4680       7    4581    4584    4590    4608       7
    4581    4611    4614    4686      11    4581    4611    4614    4689      11
    4578    4581    4584    4587      30    4578    4581   -4584    4587       3
    4578    4581   -4584    4587      31    4902    4821    4824    4905       6
    4896    4815    4818    4899       6    4896    4815    4821    4902       7
    4890    4806    4809    4893       8    4887    4806    4809    4893       8
    4884    4803    4806    4887       7    4884    4803    4806    4890       7
    4878    4797    4803    4884       7    4878    4797    4800    4881       6
    4875    4794    4821    4902       7    4875    4794    4797    4878       7
    4866    4785    4788    4869       7    4866    4785    4788    4872       7
    4863    4785    4788    4869       7    4863    4785    4788    4872       7
    4860    4782    4785    4866       9    4860    4782    4785    4863       9
    4857    4782    4785    4866       9    4857    4782    4785    4863       9
    4854    4779    4782    4860       7    4854    4779    4782    4857       7
    4851    4779    4782    4860       7    4851    4779    4782    4857       7
    4848    4770    4926    5001       2    4848    4770    4926    4923       2
    4845    4767    4770    4848       3    4845    4767    4770    4926       4
    4845    4767   -4770    4926       3    4845    4767   -4770    4926       5
    4842    4764    4767    4845      10    4839    4764    4767    4845      10
    4833    4758    4761    4836       3    4833    4758    4764    4842      10
    4833    4758    4764    4839      10    4827    4755    4758    4833       7
    4827    4776    4779    4851      11    4827    4776    4779    4854      11
    4824    4821    4815    4896       7    4824    4821    4794    4875      12
    4824    4821   -4794    4875      13    4821    4815    4818    4899      12
    4821    4815   -4818    4899      14    4821    4794    4797    4878       7
    4818    4815    4821    4902      12    4818    4815   -4821    4902      13
    4815    4821    4824    4905      12    4815    4821   -4824    4905      14
    4815    4821    4794    4875       7    4815    4812    4803    4884      17
    4812    4815    4818    4899       6    4812    4815    4821    4902      12
    4812    4815   -4821    4902      13    4812    4803    4797    4878      12
    4812    4803   -4797    4878      13    4812    4803    4806    4887      12
    4812    4803   -4806    4887      13    4812    4803    4806    4890      12
    4812    4803   -4806    4890      13    4809    4806    4803    4884      12
    4809    4806   -4803    4884      13    4806    4803    4797    4878       7
    4803    4812    4815    4896      17    4803    4797    4794    4875       7
    4803    4797    4800    4881      12    4803    4797   -4800    4881      14
    4803    4806    4809    4893      12    4803    4806   -4809    4893      14
    4800    4797    4794    4875      12    4800    4797   -4794    4875      13
    4800    4797    4803    4884      12    4800    4797   -4803    4884      13
    4797    4794    4821    4902       7    4797    4803    4806    4887       7
    4797    4803    4806    4890       7    4794    4821    4824    4905      12
    4794    4821   -4824    4905      14    4794    4821    4815    4896       7
    4794    4791    4788    4869      17    4794    4791    4788    4872      17
    4794    4797    4803    4884       7    4794    4797    4800    4881      12
    4794    4797   -4800    4881      14    4791    4788    4785    4866      12
    4791    4788   -4785    4866      13    4791    4788    4785    4863      12
    4791    4788   -4785    4863      13    4791    4794    4821    4902      12
    4791    4794   -4821    4902      13    4791    4794    4797    4878      12
    4791    4794   -4797    4878      13    4788    4791    4794    4875      17
    4788    4785    4782    4860      23    4788    4785    4782    4857      23
    4785    4782    4779    4851       7    4785    4782    4779    4854       7
    4782    4785    4788    4869       7    4782    4785    4788    4872       7
    4779    4782    4785    4866      23    4779    4782    4785    4863      23
    4776    4779    4782    4860       7    4776    4779    4782    4857       7
    4773    4755    4758    4833      10    4773    4755    4827    4830      30
    4773    4755   -4827    4830       3    4773    4755   -4827    4830      31
    4773    4755    4827    4776      11    4770    4767    4764    4842       7
    4770    4767    4764    4839       7    4770    4926    4923    4998       4
    4770    4926   -4923    4998       3    4770    4926   -4923    4998       5
    4767    4764    4758    4833      14    4767    4770    4926    5001       2
    4767    4749    4755    4773      14    4764    4758    4761    4836       3
    4764    4758    4755    4773      14    4764    4767    4770    4848       3
    4761    4758    4764    4842       7    4761    4758    4764    4839       7
    4761    4758    4755    4773       7    4758    4764    4767    4845      14
    4755    4758    4761    4836       3    4755    4758    4764    4842      14
    4755    4758    4764    4839      14    4755    4749    4767    4845      14
    4752    4749    4767    4845      10    4752    4749    4767    4764      14
    4752    4749    4767    4770       7    4752    4749    4755    4758      14
    4752    4749    4755    4827       7    4752    4749    4755    4773      10
    4752    4749    4746    4776      11    4749    4767    4764    4842      14
    4749    4767    4764    4839      14    4749    4767    4770    4848       3
    4749    4755    4758    4833      14    4746    4749    4767    4845       7
    4746    4749    4755    4773       7    4746    4776    4779    4851      11
    4746    4776    4779    4854      11    4743    4746    4749    4752      30
    4743    4746   -4749    4752       3    4743    4746   -4749    4752      31
    5067    4986    4989    5070       6    5061    4980    4983    5064       6
    5061    4980    4986    5067       7    5055    4971    4974    5058       8
    5052    4971    4974    5058       8    5049    4968    4971    5052       7
    5049    4968    4971    5055       7    5043    4962    4968    5049       7
    5043    4962    4965    5046       6    5040    4959    4986    5067       7
    5040    4959    4962    5043       7    5031    4950    4953    5034       7
    5031    4950    4953    5037       7    5028    4950    4953    5034       7
    5028    4950    4953    5037       7    5025    4947    4950    5031       9
    5025    4947    4950    5028       9    5022    4947    4950    5031       9
    5022    4947    4950    5028       9    5019    4944    4947    5025       7
    5019    4944    4947    5022       7    5016    4944    4947    5025       7
    5016    4944    4947    5022       7    5013    4935    5073    5076       2
    5013    4935    5073    5079       2    5010    4932    4935    5013       3
    5010    4932    4935    5073       4    5010    4932   -4935    5073       3
    5010    4932   -4935    5073       5    5007    4929    4932    5010      10
    5004    4929    4932    5010      10    4998    4923    4926    5001       3
    4998    4923    4929    5007      10    4998    4923    4929    5004      10
    4992    4920    4923    4998       7    4992    4941    4944    5016      11
    4992    4941    4944    5019      11    4989    4986    4980    5061       7
    4989    4986    4959    5040      12    4989    4986   -4959    5040      13
    4986    4980    4983    5064      12    4986    4980   -4983    5064      14
    4986    4959    4962    5043       7    4983    4980    4986    5067      12
    4983    4980   -4986    5067      13    4980    4986    4989    5070      12
    4980    4986   -4989    5070      14    4980    4986    4959    5040       7
    4980    4977    4968    5049      17    4977    4980    4983    5064       6
    4977    4980    4986    5067      12    4977    4980   -4986    5067      13
    4977    4968    4962    5043      12    4977    4968   -4962    5043      13
    4977    4968    4971    5052      12    4977    4968   -4971    5052      13
    4977    4968    4971    5055      12    4977    4968   -4971    5055      13
    4974    4971    4968    5049      12    4974    4971   -4968    5049      13
    4971    4968    4962    5043       7    4968    4977    4980    5061      17
    4968    4962    4959    5040       7    4968    4962    4965    5046      12
    4968    4962   -4965    5046      14    4968    4971    4974    5058      12
    4968    4971   -4974    5058      14    4965    4962    4959    5040      12
    4965    4962   -4959    5040      13    4965    4962    4968    5049      12
    4965    4962   -4968    5049      13    4962    4959    4986    5067       7
    4962    4968    4971    5052       7    4962    4968    4971    5055       7
    4959    4986    4989    5070      12    4959    4986   -4989    5070      14
    4959    4986    4980    5061       7    4959    4956    4953    5034      17
    4959    4956    4953    5037      17    4959    4962    4968    5049       7
    4959    4962    4965    5046      12    4959    4962   -4965    5046      14
    4956    4953    4950    5031      12    4956    4953   -4950    5031      13
    4956    4953    4950    5028      12    4956    4953   -4950    5028      13
    4956    4959    4986    5067      12    4956    4959   -4986    5067      13
    4956    4959    4962    5043      12    4956    4959   -4962    5043      13
    4953    4956    4959    5040      17    4953    4950    4947    5025      23
    4953    4950    4947    5022      23    4950    4947    4944    5016       7
    4950    4947    4944    5019       7    4947    4950    4953    5034       7
    4947    4950    4953    5037       7    4944    4947    4950    5031      23
    4944    4947    4950    5028      23    4941    4944    4947    5025       7
    4941    4944    4947    5022       7    4938    4920    4923    4998      10
    4938    4920    4992    4995      30    4938    4920   -4992    4995       3
    4938    4920   -4992    4995      31    4938    4920    4992    4941      11
    4935    4932    4929    5007       7    4935    4932    4929    5004       7
    4932    4929    4923    4998      14    4932    4935    5073    5076       2
    4932    4935    5073    5079       2    4932    4914    4920    4938      14
    4929    4923    4926    5001       3    4929    4923    4920    4938      14
    4929    4932    4935    5013       3    4926    4923    4929    5007       7
    4926    4923    4929    5004       7    4926    4923    4920    4938       7
    4923    4929    4932    5010      14    4920    4923    4926    5001       3
    4920    4923    4929    5007      14    4920    4923    4929    5004      14
    4920    4914    4932    5010      14    4917    4914    4932    5010      10
    4917    4914    4932    4929      14    4917    4914    4932    4935       7
    4917    4914    4920    4923      14    4917    4914    4920    4992       7
    4917    4914    4920    4938      10    4917    4914    4911    4941      11
    4914    4932    4929    5007      14    4914    4932    4929    5004      14
    4914    4932    4935    5013       3    4914    4920    4923    4998      14
    4911    4914    4932    5010       7    4911    4914    4920    4938       7
    4911    4941    4944    5016      11    4911    4941    4944    5019      11
    4908    4911    4914    4917      30    4908    4911   -4914    4917       3
    4908    4911   -4914    4917      31    5088    5082    5109    5184       2
    5088    5082    5109    5106       2    5085    5082    5109    5184       2
    5085    5082    5109    5106       2    5082    5109    5106    5181       4
    5082    5109   -5106    5181       3    5082    5109   -5106    5181       5
    5250    5169    5172    5253       6    5244    5163    5166    5247       6
    5244    5163    5169    5250       7    5238    5154    5157    5241       8
    5235    5154    5157    5241       8    5232    5151    5154    5235       7
    5232    5151    5154    5238       7    5226    5145    5151    5232       7
    5226    5145    5148    5229       6    5223    5142    5169    5250       7
    5223    5142    5145    5226       7    5214    5133    5136    5217       7
    5214    5133    5136    5220       7    5211    5133    5136    5217       7
    5211    5133    5136    5220       7    5208    5130    5133    5214       9
    5208    5130    5133    5211       9    5205    5130    5133    5214       9
    5205    5130    5133    5211       9    5202    5127    5130    5208       7
    5202    5127    5130    5205       7    5199    5127    5130    5208       7
    5199    5127    5130    5205       7    5196    5118    5274    5349       2
    5196    5118    5274    5271       2    5193    5115    5118    5196       3
    5193    5115    5118    5274       4    5193    5115   -5118    5274       3
    5193    5115   -5118    5274       5    5190    5112    5115    5193      10
    5187    5112    5115    5193      10    5181    5106    5109    5184       3
    5181    5106    5112    5190      10    5181    5106    5112    5187      10
    5175    5103    5106    5181       7    5175    5124    5127    5199      11
    5175    5124    5127    5202      11    5172    5169    5163    5244       7
    5172    5169    5142    5223      12    5172    5169   -5142    5223      13
    5169    5163    5166    5247      12    5169    5163   -5166    5247      14
    5169    5142    5145    5226       7    5166    5163    5169    5250      12
    5166    5163   -5169    5250      13    5163    5169    5172    5253      12
    5163    5169   -5172    5253      14    5163    5169    5142    5223       7
    5163    5160    5151    5232      17    5160    5163    5166    5247       6
    5160    5163    5169    5250      12    5160    5163   -5169    5250      13
    5160    5151    5145    5226      12    5160    5151   -5145    5226      13
    5160    5151    5154    5235      12    5160    5151   -5154    5235      13
    5160    5151    5154    5238      12    5160    5151   -5154    5238      13
    5157    5154    5151    5232      12    5157    5154   -5151    5232      13
    5154    5151    5145    5226       7    5151    5160    5163    5244      17
    5151    5145    5142    5223       7    5151    5145    5148    5229      12
    5151    5145   -5148    5229      14    5151    5154    5157    5241      12
    5151    5154   -5157    5241      14    5148    5145    5142    5223      12
    5148    5145   -5142    5223      13    5148    5145    5151    5232      12
    5148    5145   -5151    5232      13    5145    5142    5169    5250       7
    5145    5151    5154    5235       7    5145    5151    5154    5238       7
    5142    5169    5172    5253      12    5142    5169   -5172    5253      14
    5142    5169    5163    5244       7    5142    5139    5136    5217      17
    5142    5139    5136    5220      17    5142    5145    5151    5232       7
    5142    5145    5148    5229      12    5142    5145   -5148    5229      14
    5139    5136    5133    5214      12    5139    5136   -5133    5214      13
    5139    5136    5133    5211      12    5139    5136   -5133    5211      13
    5139    5142    5169    5250      12    5139    5142   -5169    5250      13
    5139    5142    5145    5226      12    5139    5142   -5145    5226      13
    5136    5139    5142    5223      17    5136    5133    5130    5208      23
    5136    5133    5130    5205      23    5133    5130    5127    5199       7
    5133    5130    5127    5202       7    5130    5133    5136    5217       7
    5130    5133    5136    5220       7    5127    5130    5133    5214      23
    5127    5130    5133    5211      23    5124    5127    5130    5208       7
    5124    5127    5130    5205       7    5121    5103    5106    5181      10
    5121    5103    5175    5178      30    5121    5103   -5175    5178       3
    5121    5103   -5175    5178      31    5121    5103    5175    5124      11
    5118    5115    5112    5190       7    5118    5115    5112    5187       7
    5118    5274    5271    5346       4    5118    5274   -5271    5346       3
    5118    5274   -5271    5346       5    5115    5112    5106    5181      14
    5115    5118    5274    5349       2    5115    5097    5103    5121      14
    5112    5106    5109    5184       3    5112    5106    5103    5121      14
    5112    5115    5118    5196       3    5109    5106    5112    5190       7
    5109    5106    5112    5187       7    5109    5106    5103    5121       7
    5106    5112    5115    5193      14    5103    5106    5109    5184       3
    5103    5106    5112    5190      14    5103    5106    5112    5187      14
    5103    5097    5115    5193      14    5100    5097    5115    5193      10
    5100    5097    5115    5112      14    5100    5097    5115    5118       7
    5100    5097    5103    5106      14    5100    5097    5103    5175       7
    5100    5097    5103    5121      10    5100    5097    5094    5124      11
    5097    5115    5112    5190      14    5097    5115    5112    5187      14
    5097    5115    5118    5196       3    5097    5103    5106    5181      14
    5094    5097    5115    5193       7    5094    5097    5103    5121       7
    5094    5124    5127    5199      11    5094    5124    5127    5202      11
    5091    5094    5097    5100      30    5091    5094   -5097    5100       3
    5091    5094   -5097    5100      31    5415    5334    5337    5418       6
    5409    5328    5331    5412       6    5409    5328    5334    5415       7
    5403    5319    5322    5406       8    5400    5319    5322    5406       8
    5397    5316    5319    5400       7    5397    5316    5319    5403       7
    5391    5310    5316    5397       7    5391    5310    5313    5394       6
    5388    5307    5334    5415       7    5388    5307    5310    5391       7
    5379    5298    5301    5382       7    5379    5298    5301    5385       7
    5376    5298    5301    5382       7    5376    5298    5301    5385       7
    5373    5295    5298    5379       9    5373    5295    5298    5376       9
    5370    5295    5298    5379       9    5370    5295    5298    5376       9
    5367    5292    5295    5373       7    5367    5292    5295    5370       7
    5364    5292    5295    5373       7    5364    5292    5295    5370       7
    5361    5283    5439    5514       2    5361    5283    5439    5436       2
    5358    5280    5283    5361       3    5358    5280    5283    5439       4
    5358    5280   -5283    5439       3    5358    5280   -5283    5439       5
    5355    5277    5280    5358      10    5352    5277    5280    5358      10
    5346    5271    5274    5349       3    5346    5271    5277    5355      10
    5346    5271    5277    5352      10    5340    5268    5271    5346       7
    5340    5289    5292    5364      11    5340    5289    5292    5367      11
    5337    5334    5328    5409       7    5337    5334    5307    5388      12
    5337    5334   -5307    5388      13    5334    5328    5331    5412      12
    5334    5328   -5331    5412      14    5334    5307    5310    5391       7
    5331    5328    5334    5415      12    5331    5328   -5334    5415      13
    5328    5334    5337    5418      12    5328    5334   -5337    5418      14
    5328    5334    5307    5388       7    5328    5325    5316    5397      17
    5325    5328    5331    5412       6    5325    5328    5334    5415      12
    5325    5328   -5334    5415      13    5325    5316    5310    5391      12
    5325    5316   -5310    5391      13    5325    5316    5319    5400      12
    5325    5316   -5319    5400      13    5325    5316    5319    5403      12
    5325    5316   -5319    5403      13    5322    5319    5316    5397      12
    5322    5319   -5316    5397      13    5319    5316    5310    5391       7
    5316    5325    5328    5409      17    5316    5310    5307    5388       7
    5316    5310    5313    5394      12    5316    5310   -5313    5394      14
    5316    5319    5322    5406      12    5316    5319   -5322    5406      14
    5313    5310    5307    5388      12    5313    5310   -5307    5388      13
    5313    5310    5316    5397      12    5313    5310   -5316    5397      13
    5310    5307    5334    5415       7    5310    5316    5319    5400       7
    5310    5316    5319    5403       7    5307    5334    5337    5418      12
    5307    5334   -5337    5418      14    5307    5334    5328    5409       7
    5307    5304    5301    5382      17    5307    5304    5301    5385      17
    5307    5310    5316    5397       7    5307    5310    5313    5394      12
    5307    5310   -5313    5394      14    5304    5301    5298    5379      12
    5304    5301   -5298    5379      13    5304    5301    5298    5376      12
    5304    5301   -5298    5376      13    5304    5307    5334    5415      12
    5304    5307   -5334    5415      13    5304    5307    5310    5391      12
    5304    5307   -5310    5391      13    5301    5304    5307    5388      17
    5301    5298    5295    5373      23    5301    5298    5295    5370      23
    5298    5295    5292    5364       7    5298    5295    5292    5367       7
    5295    5298    5301    5382       7    5295    5298    5301    5385       7
    5292    5295    5298    5379      23    5292    5295    5298    5376      23
    5289    5292    5295    5373       7    5289    5292    5295    5370       7
    5286    5268    5271    5346      10    5286    5268    5340    5343      30
    5286    5268   -5340    5343       3    5286    5268   -5340    5343      31
    5286    5268    5340    5289      11    5283    5280    5277    5355       7
    5283    5280    5277    5352       7    5283    5439    5436    5511       4
    5283    5439   -5436    5511       3    5283    5439   -5436    5511       5
    5280    5277    5271    5346      14    5280    5283    5439    5514       2
    5280    5262    5268    5286      14    5277    5271    5274    5349       3
    5277    5271    5268    5286      14    5277    5280    5283    5361       3
    5274    5271    5277    5355       7    5274    5271    5277    5352       7
    5274    5271    5268    5286       7    5271    5277    5280    5358      14
    5268    5271    5274    5349       3    5268    5271    5277    5355      14
    5268    5271    5277    5352      14    5268    5262    5280    5358      14
    5265    5262    5280    5358      10    5265    5262    5280    5277      14
    5265    5262    5280    5283       7    5265    5262    5268    5271      14
    5265    5262    5268    5340       7    5265    5262    5268    5286      10
    5265    5262    5259    5289      11    5262    5280    5277    5355      14
    5262    5280    5277    5352      14    5262    5280    5283    5361       3
    5262    5268    5271    5346      14    5259    5262    5280    5358       7
    5259    5262    5268    5286       7    5259    5289    5292    5364      11
    5259    5289    5292    5367      11    5256    5259    5262    5265      30
    5256    5259   -5262    5265       3    5256    5259   -5262    5265      31
    5580    5499    5502    5583       6    5574    5493    5496    5577       6
    5574    5493    5499    5580       7    5568    5484    5487    5571       8
    5565    5484    5487    5571       8    5562    5481    5484    5565       7
    5562    5481    5484    5568       7    5556    5475    5481    5562       7
    5556    5475    5478    5559       6    5553    5472    5499    5580       7
    5553    5472    5475    5556       7    5544    5463    5466    5547       7
    5544    5463    5466    5550       7    5541    5463    5466    5547       7
    5541    5463    5466    5550       7    5538    5460    5463    5544       9
    5538    5460    5463    5541       9    5535    5460    5463    5544       9
    5535    5460    5463    5541       9    5532    5457    5460    5538       7
    5532    5457    5460    5535       7    5529    5457    5460    5538       7
    5529    5457    5460    5535       7    5526    5448    5604    5679       2
    5526    5448    5604    5601       2    5523    5445    5448    5526       3
    5523    5445    5448    5604       4    5523    5445   -5448    5604       3
    5523    5445   -5448    5604       5    5520    5442    5445    5523      10
    5517    5442    5445    5523      10    5511    5436    5439    5514       3
    5511    5436    5442    5520      10    5511    5436    5442    5517      10
    5505    5433    5436    5511       7    5505    5454    5457    5529      11
    5505    5454    5457    5532      11    5502    5499    5493    5574       7
    5502    5499    5472    5553      12    5502    5499   -5472    5553      13
    5499    5493    5496    5577      12    5499    5493   -5496    5577      14
    5499    5472    5475    5556       7    5496    5493    5499    5580      12
    5496    5493   -5499    5580      13    5493    5499    5502    5583      12
    5493    5499   -5502    5583      14    5493    5499    5472    5553       7
    5493    5490    5481    5562      17    5490    5493    5496    5577       6
    5490    5493    5499    5580      12    5490    5493   -5499    5580      13
    5490    5481    5475    5556      12    5490    5481   -5475    5556      13
    5490    5481    5484    5565      12    5490    5481   -5484    5565      13
    5490    5481    5484    5568      12    5490    5481   -5484    5568      13
    5487    5484    5481    5562      12    5487    5484   -5481    5562      13
    5484    5481    5475    5556       7    5481    5490    5493    5574      17
    5481    5475    5472    5553       7    5481    5475    5478    5559      12
    5481    5475   -5478    5559      14    5481    5484    5487    5571      12
    5481    5484   -5487    5571      14    5478    5475    5472    5553      12
    5478    5475   -5472    5553      13    5478    5475    5481    5562      12
    5478    5475   -5481    5562      13    5475    5472    5499    5580       7
    5475    5481    5484    5565       7    5475    5481    5484    5568       7
    5472    5499    5502    5583      12    5472    5499   -5502    5583      14
    5472    5499    5493    5574       7    5472    5469    5466    5547      17
    5472    5469    5466    5550      17    5472    5475    5481    5562       7
    5472    5475    5478    5559      12    5472    5475   -5478    5559      14
    5469    5466    5463    5544      12    5469    5466   -5463    5544      13
    5469    5466    5463    5541      12    5469    5466   -5463    5541      13
    5469    5472    5499    5580      12    5469    5472   -5499    5580      13
    5469    5472    5475    5556      12    5469    5472   -5475    5556      13
    5466    5469    5472    5553      17    5466    5463    5460    5538      23
    5466    5463    5460    5535      23    5463    5460    5457    5529       7
    5463    5460    5457    5532       7    5460    5463    5466    5547       7
    5460    5463    5466    5550       7    5457    5460    5463    5544      23
    5457    5460    5463    5541      23    5454    5457    5460    5538       7
    5454    5457    5460    5535       7    5451    5433    5436    5511      10
    5451    5433    5505    5508      30    5451    5433   -5505    5508       3
    5451    5433   -5505    5508      31    5451    5433    5505    5454      11
    5448    5445    5442    5520       7    5448    5445    5442    5517       7
    5448    5604    5601    5676       4    5448    5604   -5601    5676       3
    5448    5604   -5601    5676       5    5445    5442    5436    5511      14
    5445    5448    5604    5679       2    5445    5427    5433    5451      14
    5442    5436    5439    5514       3    5442    5436    5433    5451      14
    5442    5445    5448    5526       3    5439    5436    5442    5520       7
    5439    5436    5442    5517       7    5439    5436    5433    5451       7
    5436    5442    5445    5523      14    5433    5436    5439    5514       3
    5433    5436    5442    5520      14    5433    5436    5442    5517      14
    5433    5427    5445    5523      14    5430    5427    5445    5523      10
    5430    5427    5445    5442      14    5430    5427    5445    5448       7
    5430    5427    5433    5436      14    5430    5427    5433    5505       7
    5430    5427    5433    5451      10    5430    5427    5424    5454      11
    5427    5445    5442    5520      14    5427    5445    5442    5517      14
    5427    5445    5448    5526       3    5427    5433    5436    5511      14
    5424    5427    5445    5523       7    5424    5427    5433    5451       7
    5424    5454    5457    5529      11    5424    5454    5457    5532      11
    5421    5424    5427    5430      30    5421    5424   -5427    5430       3
    5421    5424   -5427    5430      31    5745    5664    5667    5748       6
    5739    5658    5661    5742       6    5739    5658    5664    5745       7
    5733    5649    5652    5736       8    5730    5649    5652    5736       8
    5727    5646    5649    5730       7    5727    5646    5649    5733       7
    5721    5640    5646    5727       7    5721    5640    5643    5724       6
    5718    5637    5664    5745       7    5718    5637    5640    5721       7
    5709    5628    5631    5712       7    5709    5628    5631    5715       7
    5706    5628    5631    5712       7    5706    5628    5631    5715       7
    5703    5625    5628    5709       9    5703    5625    5628    5706       9
    5700    5625    5628    5709       9    5700    5625    5628    5706       9
    5697    5622    5625    5703       7    5697    5622    5625    5700       7
    5694    5622    5625    5703       7    5694    5622    5625    5700       7
    5691    5613    5769    5844       2    5691    5613    5769    5766       2
    5688    5610    5613    5691       3    5688    5610    5613    5769       4
    5688    5610   -5613    5769       3    5688    5610   -5613    5769       5
    5685    5607    5610    5688      10    5682    5607    5610    5688      10
    5676    5601    5604    5679       3    5676    5601    5607    5685      10
    5676    5601    5607    5682      10    5670    5598    5601    5676       7
    5670    5619    5622    5694      11    5670    5619    5622    5697      11
    5667    5664    5658    5739       7    5667    5664    5637    5718      12
    5667    5664   -5637    5718      13    5664    5658    5661    5742      12
    5664    5658   -5661    5742      14    5664    5637    5640    5721       7
    5661    5658    5664    5745      12    5661    5658   -5664    5745      13
    5658    5664    5667    5748      12    5658    5664   -5667    5748      14
    5658    5664    5637    5718       7    5658    5655    5646    5727      17
    5655    5658    5661    5742       6    5655    5658    5664    5745      12
    5655    5658   -5664    5745      13    5655    5646    5640    5721      12
    5655    5646   -5640    5721      13    5655    5646    5649    5730      12
    5655    5646   -5649    5730      13    5655    5646    5649    5733      12
    5655    5646   -5649    5733      13    5652    5649    5646    5727      12
    5652    5649   -5646    5727      13    5649    5646    5640    5721       7
    5646    5655    5658    5739      17    5646    5640    5637    5718       7
    5646    5640    5643    5724      12    5646    5640   -5643    5724      14
    5646    5649    5652    5736      12    5646    5649   -5652    5736      14
    5643    5640    5637    5718      12    5643    5640   -5637    5718      13
    5643    5640    5646    5727      12    5643    5640   -5646    5727      13
    5640    5637    5664    5745       7    5640    5646    5649    5730       7
    5640    5646    5649    5733       7    5637    5664    5667    5748      12
    5637    5664   -5667    5748      14    5637    5664    5658    5739       7
    5637    5634    5631    5712      17    5637    5634    5631    5715      17
    5637    5640    5646    5727       7    5637    5640    5643    5724      12
    5637    5640   -5643    5724      14    5634    5631    5628    5709      12
    5634    5631   -5628    5709      13    5634    5631    5628    5706      12
    5634    5631   -5628    5706      13    5634    5637    5664    5745      12
    5634    5637   -5664    5745      13    5634    5637    5640    5721      12
    5634    5637   -5640    5721      13    5631    5634    5637    5718      17
    5631    5628    5625    5703      23    5631    5628    5625    5700      23
    5628    5625    5622    5694       7    5628    5625    5622    5697       7
    5625    5628    5631    5712       7    5625    5628    5631    5715       7
    5622    5625    5628    5709      23    5622    5625    5628    5706      23
    5619    5622    5625    5703       7    5619    5622    5625    5700       7
    5616    5598    5601    5676      10    5616    5598    5670    5673      30
    5616    5598   -5670    5673       3    5616    5598   -5670    5673      31
    5616    5598    5670    5619      11    5613    5610    5607    5685       7
    5613    5610    5607    5682       7    5613    5769    5766    5841       4
    5613    5769   -5766    5841       3    5613    5769   -5766    5841       5
    5610    5607    5601    5676      14    5610    5613    5769    5844       2
    5610    5592    5598    5616      14    5607    5601    5604    5679       3
    5607    5601    5598    5616      14    5607    5610    5613    5691       3
    5604    5601    5607    5685       7    5604    5601    5607    5682       7
    5604    5601    5598    5616       7    5601    5607    5610    5688      14
    5598    5601    5604    5679       3    5598    5601    5607    5685      14
    5598    5601    5607    5682      14    5598    5592    5610    5688      14
    5595    5592    5610    5688      10    5595    5592    5610    5607      14
    5595    5592    5610    5613       7    5595    5592    5598    5601      14
    5595    5592    5598    5670       7    5595    5592    5598    5616      10
    5595    5592    5589    5619      11    5592    5610    5607    5685      14
    5592    5610    5607    5682      14    5592    5610    5613    5691       3
    5592    5598    5601    5676      14    5589    5592    5610    5688       7
    5589    5592    5598    5616       7    5589    5619    5622    5694      11
    5589    5619    5622    5697      11    5586    5589    5592    5595      30
    5586    5589   -5592    5595       3    5586    5589   -5592    5595      31
    5910    5829    5832    5913       6    5904    5823    5826    5907       6
    5904    5823    5829    5910       7    5898    5814    5817    5901       8
    5895    5814    5817    5901       8    5892    5811    5814    5895       7
    5892    5811    5814    5898       7    5886    5805    5811    5892       7
    5886    5805    5808    5889       6    5883    5802    5829    5910       7
    5883    5802    5805    5886       7    5874    5793    5796    5877       7
    5874    5793    5796    5880       7    5871    5793    5796    5877       7
    5871    5793    5796    5880       7    5868    5790    5793    5874       9
    5868    5790    5793    5871       9    5865    5790    5793    5874       9
    5865    5790    5793    5871       9    5862    5787    5790    5868       7
    5862    5787    5790    5865       7    5859    5787    5790    5868       7
    5859    5787    5790    5865       7    5856    5778    5934    6009       2
    5856    5778    5934    5931       2    5853    5775    5778    5856       3
    5853    5775    5778    5934       4    5853    5775   -5778    5934       3
    5853    5775   -5778    5934       5    5850    5772    5775    5853      10
    5847    5772    5775    5853      10    5841    5766    5769    5844       3
    5841    5766    5772    5850      10    5841    5766    5772    5847      10
    5835    5763    5766    5841       7    5835    5784    5787    5859      11
    5835    5784    5787    5862      11    5832    5829    5823    5904       7
    5832    5829    5802    5883      12    5832    5829   -5802    5883      13
    5829    5823    5826    5907      12    5829    5823   -5826    5907      14
    5829    5802    5805    5886       7    5826    5823    5829    5910      12
    5826    5823   -5829    5910      13    5823    5829    5832    5913      12
    5823    5829   -5832    5913      14    5823    5829    5802    5883       7
    5823    5820    5811    5892      17    5820    5823    5826    5907       6
    5820    5823    5829    5910      12    5820    5823   -5829    5910      13
    5820    5811    5805    5886      12    5820    5811   -5805    5886      13
    5820    5811    5814    5895      12    5820    5811   -5814    5895      13
    5820    5811    5814    5898      12    5820    5811   -5814    5898      13
    5817    5814    5811    5892      12    5817    5814   -5811    5892      13
    5814    5811    5805    5886       7    5811    5820    5823    5904      17
    5811    5805    5802    5883       7    5811    5805    5808    5889      12
    5811    5805   -5808    5889      14    5811    5814    5817    5901      12
    5811    5814   -5817    5901      14    5808    5805    5802    5883      12
    5808    5805   -5802    5883      13    5808    5805    5811    5892      12
    5808    5805   -5811    5892      13    5805    5802    5829    5910       7
    5805    5811    5814    5895       7    5805    5811    5814    5898       7
    5802    5829    5832    5913      12    5802    5829   -5832    5913      14
    5802    5829    5823    5904       7    5802    5799    5796    5877      17
    5802    5799    5796    5880      17    5802    5805    5811    5892       7
    5802    5805    5808    5889      12    5802    5805   -5808    5889      14
    5799    5796    5793    5874      12    5799    5796   -5793    5874      13
    5799    5796    5793    5871      12    5799    5796   -5793    5871      13
    5799    5802    5829    5910      12    5799    5802   -5829    5910      13
    5799    5802    5805    5886      12    5799    5802   -5805    5886      13
    5796    5799    5802    5883      17    5796    5793    5790    5868      23
    5796    5793    5790    5865      23    5793    5790    5787    5859       7
    5793    5790    5787    5862       7    5790    5793    5796    5877       7
    5790    5793    5796    5880       7    5787    5790    5793    5874      23
    5787    5790    5793    5871      23    5784    5787    5790    5868       7
    5784    5787    5790    5865       7    5781    5763    5766    5841      10
    5781    5763    5835    5838      30    5781    5763   -5835    5838       3
    5781    5763   -5835    5838      31    5781    5763    5835    5784      11
    5778    5775    5772    5850       7    5778    5775    5772    5847       7
    5778    5934    5931    6006       4    5778    5934   -5931    6006       3
    5778    5934   -5931    6006       5    5775    5772    5766    5841      14
    5775    5778    5934    6009       2    5775    5757    5763    5781      14
    5772    5766    5769    5844       3    5772    5766    5763    5781      14
    5772    5775    5778    5856       3    5769    5766    5772    5850       7
    5769    5766    5772    5847       7    5769    5766    5763    5781       7
    5766    5772    5775    5853      14    5763    5766    5769    5844       3
    5763    5766    5772    5850      14    5763    5766    5772    5847      14
    5763    5757    5775    5853      14    5760    5757    5775    5853      10
    5760    5757    5775    5772      14    5760    5757    5775    5778       7
    5760    5757    5763    5766      14    5760    5757    5763    5835       7
    5760    5757    5763    5781      10    5760    5757    5754    5784      11
    5757    5775    5772    5850      14    5757    5775    5772    5847      14
    5757    5775    5778    5856       3    5757    5763    5766    5841      14
    5754    5757    5775    5853       7    5754    5757    5763    5781       7
    5754    5784    5787    5859      11    5754    5784    5787    5862      11
    5751    5754    5757    5760      30    5751    5754   -5757    5760       3
    5751    5754   -5757    5760      31    6075    5994    5997    6078       6
    6069    5988    5991    6072       6    6069    5988    5994    6075       7
    6063    5979    5982    6066       8    6060    5979    5982    6066       8
    6057    5976    5979    6060       7    6057    5976    5979    6063       7
    6051    5970    5976    6057       7    6051    5970    5973    6054       6
    6048    5967    5994    6075       7    6048    5967    5970    6051       7
    6039    5958    5961    6042       7    6039    5958    5961    6045       7
    6036    5958    5961    6042       7    6036    5958    5961    6045       7
    6033    5955    5958    6039       9    6033    5955    5958    6036       9
    6030    5955    5958    6039       9    6030    5955    5958    6036       9
    6027    5952    5955    6033       7    6027    5952    5955    6030       7
    6024    5952    5955    6033       7    6024    5952    5955    6030       7
    6021    5943    6099    6174       2    6021    5943    6099    6096       2
    6018    5940    5943    6021       3    6018    5940    5943    6099       4
    6018    5940   -5943    6099       3    6018    5940   -5943    6099       5
    6015    5937    5940    6018      10    6012    5937    5940    6018      10
    6006    5931    5934    6009       3    6006    5931    5937    6015      10
    6006    5931    5937    6012      10    6000    5928    5931    6006       7
    6000    5949    5952    6024      11    6000    5949    5952    6027      11
    5997    5994    5988    6069       7    5997    5994    5967    6048      12
    5997    5994   -5967    6048      13    5994    5988    5991    6072      12
    5994    5988   -5991    6072      14    5994    5967    5970    6051       7
    5991    5988    5994    6075      12    5991    5988   -5994    6075      13
    5988    5994    5997    6078      12    5988    5994   -5997    6078      14
    5988    5994    5967    6048       7    5988    5985    5976    6057      17
    5985    5988    5991    6072       6    5985    5988    5994    6075      12
    5985    5988   -5994    6075      13    5985    5976    5970    6051      12
    5985    5976   -5970    6051      13    5985    5976    5979    6060      12
    5985    5976   -5979    6060      13    5985    5976    5979    6063      12
    5985    5976   -5979    6063      13    5982    5979    5976    6057      12
    5982    5979   -5976    6057      13    5979    5976    5970    6051       7
    5976    5985    5988    6069      17    5976    5970    5967    6048       7
    5976    5970    5973    6054      12    5976    5970   -5973    6054      14
    5976    5979    5982    6066      12    5976    5979   -5982    6066      14
    5973    5970    5967    6048      12    5973    5970   -5967    6048      13
    5973    5970    5976    6057      12    5973    5970   -5976    6057      13
    5970    5967    5994    6075       7    5970    5976    5979    6060       7
    5970    5976    5979    6063       7    5967    5994    5997    6078      12
    5967    5994   -5997    6078      14    5967    5994    5988    6069       7
    5967    5964    5961    6042      17    5967    5964    5961    6045      17
    5967    5970    5976    6057       7    5967    5970    5973    6054      12
    5967    5970   -5973    6054      14    5964    5961    5958    6039      12
    5964    5961   -5958    6039      13    5964    5961    5958    6036      12
    5964    5961   -5958    6036      13    5964    5967    5994    6075      12
    5964    5967   -5994    6075      13    5964    5967    5970    6051      12
    5964    5967   -5970    6051      13    5961    5964    5967    6048      17
    5961    5958    5955    6033      23    5961    5958    5955    6030      23
    5958    5955    5952    6024       7    5958    5955    5952    6027       7
    5955    5958    5961    6042       7    5955    5958    5961    6045       7
    5952    5955    5958    6039      23    5952    5955    5958    6036      23
    5949    5952    5955    6033       7    5949    5952    5955    6030       7
    5946    5928    5931    6006      10    5946    5928    6000    6003      30
    5946    5928   -6000    6003       3    5946    5928   -6000    6003      31
    5946    5928    6000    5949      11    5943    5940    5937    6015       7
    5943    5940    5937    6012       7    5943    6099    6096    6171       4
    5943    6099   -6096    6171       3    5943    6099   -6096    6171       5
    5940    5937    5931    6006      14    5940    5943    6099    6174       2
    5940    5922    5928    5946      14    5937    5931    5934    6009       3
    5937    5931    5928    5946      14    5937    5940    5943    6021       3
    5934    5931    5937    6015       7    5934    5931    5937    6012       7
    5934    5931    5928    5946       7    5931    5937    5940    6018      14
    5928    5931    5934    6009       3    5928    5931    5937    6015      14
    5928    5931    5937    6012      14    5928    5922    5940    6018      14
    5925    5922    5940    6018      10    5925    5922    5940    5937      14
    5925    5922    5940    5943       7    5925    5922    5928    5931      14
    5925    5922    5928    6000       7    5925    5922    5928    5946      10
    5925    5922    5919    5949      11    5922    5940    5937    6015      14
    5922    5940    5937    6012      14    5922    5940    5943    6021       3
    5922    5928    5931    6006      14    5919    5922    5940    6018       7
    5919    5922    5928    5946       7    5919    5949    5952    6024      11
    5919    5949    5952    6027      11    5916    5919    5922    5925      30
    5916    5919   -5922    5925       3    5916    5919   -5922    5925      31
    6240    6159    6162    6243       6    6234    6153    6156    6237       6
    6234    6153    6159    6240       7    6228    6144    6147    6231       8
    6225    6144    6147    6231       8    6222    6141    6144    6225       7
    6222    6141    6144    6228       7    6216    6135    6141    6222       7
    6216    6135    6138    6219       6    6213    6132    6159    6240       7
    6213    6132    6135    6216       7    6204    6123    6126    6207       7
    6204    6123    6126    6210       7    6201    6123    6126    6207       7
    6201    6123    6126    6210       7    6198    6120    6123    6204       9
    6198    6120    6123    6201       9    6195    6120    6123    6204       9
    6195    6120    6123    6201       9    6192    6117    6120    6198       7
    6192    6117    6120    6195       7    6189    6117    6120    6198       7
    6189    6117    6120    6195       7    6186    6108    6264    6339       2
    6186    6108    6264    6261       2    6183    6105    6108    6186       3
    6183    6105    6108    6264       4    6183    6105   -6108    6264       3
    6183    6105   -6108    6264       5    6180    6102    6105    6183      10
    6177    6102    6105    6183      10    6171    6096    6099    6174       3
    6171    6096    6102    6180      10    6171    6096    6102    6177      10
    6165    6093    6096    6171       7    6165    6114    6117    6189      11
    6165    6114    6117    6192      11    6162    6159    6153    6234       7
    6162    6159    6132    6213      12    6162    6159   -6132    6213      13
    6159    6153    6156    6237      12    6159    6153   -6156    6237      14
    6159    6132    6135    6216       7    6156    6153    6159    6240      12
    6156    6153   -6159    6240      13    6153    6159    6162    6243      12
    6153    6159   -6162    6243      14    6153    6159    6132    6213       7
    6153    6150    6141    6222      17    6150    6153    6156    6237       6
    6150    6153    6159    6240      12    6150    6153   -6159    6240      13
    6150    6141    6135    6216      12    6150    6141   -6135    6216      13
    6150    6141    6144    6225      12    6150    6141   -6144    6225      13
    6150    6141    6144    6228      12    6150    6141   -6144    6228      13
    6147    6144    6141    6222      12    6147    6144   -6141    6222      13
    6144    6141    6135    6216       7    6141    6150    6153    6234      17
    6141    6135    6132    6213       7    6141    6135    6138    6219      12
    6141    6135   -6138    6219      14    6141    6144    6147    6231      12
    6141    6144   -6147    6231      14    6138    6135    6132    6213      12
    6138    6135   -6132    6213      13    6138    6135    6141    6222      12
    6138    6135   -6141    6222      13    6135    6132    6159    6240       7
    6135    6141    6144    6225       7    6135    6141    6144    6228       7
    6132    6159    6162    6243      12    6132    6159   -6162    6243      14
    6132    6159    6153    6234       7    6132    6129    6126    6207      17
    6132    6129    6126    6210      17    6132    6135    6141    6222       7
    6132    6135    6138    6219      12    6132    6135   -6138    6219      14
    6129    6126    6123    6204      12    6129    6126   -6123    6204      13
    6129    6126    6123    6201      12    6129    6126   -6123    6201      13
    6129    6132    6159    6240      12    6129    6132   -6159    6240      13
    6129    6132    6135    6216      12    6129    6132   -6135    6216      13
    6126    6129    6132    6213      17    6126    6123    6120    6198      23
    6126    6123    6120    6195      23    6123    6120    6117    6189       7
    6123    6120    6117    6192       7    6120    6123    6126    6207       7
    6120    6123    6126    6210       7    6117    6120    6123    6204      23
    6117    6120    6123    6201      23    6114    6117    6120    6198       7
    6114    6117    6120    6195       7    6111    6093    6096    6171      10
    6111    6093    6165    6168      30    6111    6093   -6165    6168       3
    6111    6093   -6165    6168      31    6111    6093    6165    6114      11
    6108    6105    6102    6180       7    6108    6105    6102    6177       7
    6108    6264    6261    6336       4    6108    6264   -6261    6336       3
    6108    6264   -6261    6336       5    6105    6102    6096    6171      14
    6105    6108    6264    6339       2    6105    6087    6093    6111      14
    6102    6096    6099    6174       3    6102    6096    6093    6111      14
    6102    6105    6108    6186       3    6099    6096    6102    6180       7
    6099    6096    6102    6177       7    6099    6096    6093    6111       7
    6096    6102    6105    6183      14    6093    6096    6099    6174       3
    6093    6096    6102    6180      14    6093    6096    6102    6177      14
    6093    6087    6105    6183      14    6090    6087    6105    6183      10
    6090    6087    6105    6102      14    6090    6087    6105    6108       7
    6090    6087    6093    6096      14    6090    6087    6093    6165       7
    6090    6087    6093    6111      10    6090    6087    6084    6114      11
    6087    6105    6102    6180      14    6087    6105    6102    6177      14
    6087    6105    6108    6186       3    6087    6093    6096    6171      14
    6084    6087    6105    6183       7    6084    6087    6093    6111       7
    6084    6114    6117    6189      11    6084    6114    6117    6192      11
    6081    6084    6087    6090      30    6081    6084   -6087    6090       3
    6081    6084   -6087    6090      31    6405    6324    6327    6408       6
    6399    6318    6321    6402       6    6399    6318    6324    6405       7
    6393    6309    6312    6396       8    6390    6309    6312    6396       8
    6387    6306    6309    6390       7    6387    6306    6309    6393       7
    6381    6300    6306    6387       7    6381    6300    6303    6384       6
    6378    6297    6324    6405       7    6378    6297    6300    6381       7
    6369    6288    6291    6372       7    6369    6288    6291    6375       7
    6366    6288    6291    6372       7    6366    6288    6291    6375       7
    6363    6285    6288    6369       9    6363    6285    6288    6366       9
    6360    6285    6288    6369       9    6360    6285    6288    6366       9
    6357    6282    6285    6363       7    6357    6282    6285    6360       7
    6354    6282    6285    6363       7    6354    6282    6285    6360       7
    6351    6273    6429    6504       2    6351    6273    6429    6426       2
    6348    6270    6273    6351       3    6348    6270    6273    6429       4
    6348    6270   -6273    6429       3    6348    6270   -6273    6429       5
    6345    6267    6270    6348      10    6342    6267    6270    6348      10
    6336    6261    6264    6339       3    6336    6261    6267    6345      10
    6336    6261    6267    6342      10    6330    6258    6261    6336       7
    6330    6279    6282    6354      11    6330    6279    6282    6357      11
    6327    6324    6318    6399       7    6327    6324    6297    6378      12
    6327    6324   -6297    6378      13    6324    6318    6321    6402      12
    6324    6318   -6321    6402      14    6324    6297    6300    6381       7
    6321    6318    6324    6405      12    6321    6318   -6324    6405      13
    6318    6324    6327    6408      12    6318    6324   -6327    6408      14
    6318    6324    6297    6378       7    6318    6315    6306    6387      17
    6315    6318    6321    6402       6    6315    6318    6324    6405      12
    6315    6318   -6324    6405      13    6315    6306    6300    6381      12
    6315    6306   -6300    6381      13    6315    6306    6309    6390      12
    6315    6306   -6309    6390      13    6315    6306    6309    6393      12
    6315    6306   -6309    6393      13    6312    6309    6306    6387      12
    6312    6309   -6306    6387      13    6309    6306    6300    6381       7
    6306    6315    6318    6399      17    6306    6300    6297    6378       7
    6306    6300    6303    6384      12    6306    6300   -6303    6384      14
    6306    6309    6312    6396      12    6306    6309   -6312    6396      14
    6303    6300    6297    6378      12    6303    6300   -6297    6378      13
    6303    6300    6306    6387      12    6303    6300   -6306    6387      13
    6300    6297    6324    6405       7    6300    6306    6309    6390       7
    6300    6306    6309    6393       7    6297    6324    6327    6408      12
    6297    6324   -6327    6408      14    6297    6324    6318    6399       7
    6297    6294    6291    6372      17    6297    6294    6291    6375      17
    6297    6300    6306    6387       7    6297    6300    6303    6384      12
    6297    6300   -6303    6384      14    6294    6291    6288    6369      12
    6294    6291   -6288    6369      13    6294    6291    6288    6366      12
    6294    6291   -6288    6366      13    6294    6297    6324    6405      12
    6294    6297   -6324    6405      13    6294    6297    6300    6381      12
    6294    6297   -6300    6381      13    6291    6294    6297    6378      17
    6291    6288    6285    6363      23    6291    6288    6285    6360      23
    6288    6285    6282    6354       7    6288    6285    6282    6357       7
    6285    6288    6291    6372       7    6285    6288    6291    6375       7
    6282    6285    6288    6369      23    6282    6285    6288    6366      23
    6279    6282    6285    6363       7    6279    6282    6285    6360       7
    6276    6258    6261    6336      10    6276    6258    6330    6333      30
    6276    6258   -6330    6333       3    6276    6258   -6330    6333      31
    6276    6258    6330    6279      11    6273    6270    6267    6345       7
    6273    6270    6267    6342       7    6273    6429    6426    6501       4
    6273    6429   -6426    6501       3    6273    6429   -6426    6501       5
    6270    6267    6261    6336      14    6270    6273    6429    6504       2
    6270    6252    6258    6276      14    6267    6261    6264    6339       3
    6267    6261    6258    6276      14    6267    6270    6273    6351       3
    6264    6261    6267    6345       7    6264    6261    6267    6342       7
    6264    6261    6258    6276       7    6261    6267    6270    6348      14
    6258    6261    6264    6339       3    6258    6261    6267    6345      14
    6258    6261    6267    6342      14    6258    6252    6270    6348      14
    6255    6252    6270    6348      10    6255    6252    6270    6267      14
    6255    6252    6270    6273       7    6255    6252    6258    6261      14
    6255    6252    6258    6330       7    6255    6252    6258    6276      10
    6255    6252    6249    6279      11    6252    6270    6267    6345      14
    6252    6270    6267    6342      14    6252    6270    6273    6351       3
    6252    6258    6261    6336      14    6249    6252    6270    6348       7
    6249    6252    6258    6276       7    6249    6279    6282    6354      11
    6249    6279    6282    6357      11    6246    6249    6252    6255      30
    6246    6249   -6252    6255       3    6246    6249   -6252    6255      31
    6570    6489    6492    6573       6    6564    6483    6486    6567       6
    6564    6483    6489    6570       7    6558    6474    6477    6561       8
    6555    6474    6477    6561       8    6552    6471    6474    6555       7
    6552    6471    6474    6558       7    6546    6465    6471    6552       7
    6546    6465    6468    6549       6    6543    6462    6489    6570       7
    6543    6462    6465    6546       7    6534    6453    6456    6537       7
    6534    6453    6456    6540       7    6531    6453    6456    6537       7
    6531    6453    6456    6540       7    6528    6450    6453    6534       9
    6528    6450    6453    6531       9    6525    6450    6453    6534       9
    6525    6450    6453    6531       9    6522    6447    6450    6528       7
    6522    6447    6450    6525       7    6519    6447    6450    6528       7
    6519    6447    6450    6525       7    6516    6438    6594    6669       2
    6516    6438    6594    6591       2    6513    6435    6438    6516       3
    6513    6435    6438    6594       4    6513    6435   -6438    6594       3
    6513    6435   -6438    6594       5    6510    6432    6435    6513      10
    6507    6432    6435    6513      10    6501    6426    6429    6504       3
    6501    6426    6432    6510      10    6501    6426    6432    6507      10
    6495    6423    6426    6501       7    6495    6444    6447    6519      11
    6495    6444    6447    6522      11    6492    6489    6483    6564       7
    6492    6489    6462    6543      12    6492    6489   -6462    6543      13
    6489    6483    6486    6567      12    6489    6483   -6486    6567      14
    6489    6462    6465    6546       7    6486    6483    6489    6570      12
    6486    6483   -6489    6570      13    6483    6489    6492    6573      12
    6483    6489   -6492    6573      14    6483    6489    6462    6543       7
    6483    6480    6471    6552      17    6480    6483    6486    6567       6
    6480    6483    6489    6570      12    6480    6483   -6489    6570      13
    6480    6471    6465    6546      12    6480    6471   -6465    6546      13
    6480    6471    6474    6555      12    6480    6471   -6474    6555      13
    6480    6471    6474    6558      12    6480    6471   -6474    6558      13
    6477    6474    6471    6552      12    6477    6474   -6471    6552      13
    6474    6471    6465    6546       7    6471    6480    6483    6564      17
    6471    6465    6462    6543       7    6471    6465    6468    6549      12
    6471    6465   -6468    6549      14    6471    6474    6477    6561      12
    6471    6474   -6477    6561      14    6468    6465    6462    6543      12
    6468    6465   -6462    6543      13    6468    6465    6471    6552      12
    6468    6465   -6471    6552      13    6465    6462    6489    6570       7
    6465    6471    6474    6555       7    6465    6471    6474    6558       7
    6462    6489    6492    6573      12    6462    6489   -6492    6573      14
    6462    6489    6483    6564       7    6462    6459    6456    6537      17
    6462    6459    6456    6540      17    6462    6465    6471    6552       7
    6462    6465    6468    6549      12    6462    6465   -6468    6549      14
    6459    6456    6453    6534      12    6459    6456   -6453    6534      13
    6459    6456    6453    6531      12    6459    6456   -6453    6531      13
    6459    6462    6489    6570      12    6459    6462   -6489    6570      13
    6459    6462    6465    6546      12    6459    6462   -6465    6546      13
    6456    6459    6462    6543      17    6456    6453    6450    6528      23
    6456    6453    6450    6525      23    6453    6450    6447    6519       7
    6453    6450    6447    6522       7    6450    6453    6456    6537       7
    6450    6453    6456    6540       7    6447    6450    6453    6534      23
    6447    6450    6453    6531      23    6444    6447    6450    6528       7
    6444    6447    6450    6525       7    6441    6423    6426    6501      10
    6441    6423    6495    6498      30    6441    6423   -6495    6498       3
    6441    6423   -6495    6498      31    6441    6423    6495    6444      11
    6438    6435    6432    6510       7    6438    6435    6432    6507       7
    6438    6594    6591    6666       4    6438    6594   -6591    6666       3
    6438    6594   -6591    6666       5    6435    6432    6426    6501      14
    6435    6438    6594    6669       2    6435    6417    6423    6441      14
    6432    6426    6429    6504       3    6432    6426    6423    6441      14
    6432    6435    6438    6516       3    6429    6426    6432    6510       7
    6429    6426    6432    6507       7    6429    6426    6423    6441       7
    6426    6432    6435    6513      14    6423    6426    6429    6504       3
    6423    6426    6432    6510      14    6423    6426    6432    6507      14
    6423    6417    6435    6513      14    6420    6417    6435    6513      10
    6420    6417    6435    6432      14    6420    6417    6435    6438       7
    6420    6417    6423    6426      14    6420    6417    6423    6495       7
    6420    6417    6423    6441      10    6420    6417    6414    6444      11
    6417    6435    6432    6510      14    6417    6435    6432    6507      14
    6417    6435    6438    6516       3    6417    6423    6426    6501      14
    6414    6417    6435    6513       7    6414    6417    6423    6441       7
    6414    6444    6447    6519      11    6414    6444    6447    6522      11
    6411    6414    6417    6420      30    6411    6414   -6417    6420       3
    6411    6414   -6417    6420      31    6735    6654    6657    6738       6
    6729    6648    6651    6732       6    6729    6648    6654    6735       7
    6723    6639    6642    6726       8    6720    6639    6642    6726       8
    6717    6636    6639    6720       7    6717    6636    6639    6723       7
    6711    6630    6636    6717       7    6711    6630    6633    6714       6
    6708    6627    6654    6735       7    6708    6627    6630    6711       7
    6699    6618    6621    6702       7    6699    6618    6621    6705       7
    6696    6618    6621    6702       7    6696    6618    6621    6705       7
    6693    6615    6618    6699       9    6693    6615    6618    6696       9
    6690    6615    6618    6699       9    6690    6615    6618    6696       9
    6687    6612    6615    6693       7    6687    6612    6615    6690       7
    6684    6612    6615    6693       7    6684    6612    6615    6690       7
    6681    6603    6741    6744       2    6681    6603    6741    6747       2
    6678    6600    6603    6681       3    6678    6600    6603    6741       4
    6678    6600   -6603    6741       3    6678    6600   -6603    6741       5
    6675    6597    6600    6678      10    6672    6597    6600    6678      10
    6666    6591    6594    6669       3    6666    6591    6597    6675      10
    6666    6591    6597    6672      10    6660    6588    6591    6666       7
    6660    6609    6612    6684      11    6660    6609    6612    6687      11
    6657    6654    6648    6729       7    6657    6654    6627    6708      12
    6657    6654   -6627    6708      13    6654    6648    6651    6732      12
    6654    6648   -6651    6732      14    6654    6627    6630    6711       7
    6651    6648    6654    6735      12    6651    6648   -6654    6735      13
    6648    6654    6657    6738      12    6648    6654   -6657    6738      14
    6648    6654    6627    6708       7    6648    6645    6636    6717      17
    6645    6648    6651    6732       6    6645    6648    6654    6735      12
    6645    6648   -6654    6735      13    6645    6636    6630    6711      12
    6645    6636   -6630    6711      13    6645    6636    6639    6720      12
    6645    6636   -6639    6720      13    6645    6636    6639    6723      12
    6645    6636   -6639    6723      13    6642    6639    6636    6717      12
    6642    6639   -6636    6717      13    6639    6636    6630    6711       7
    6636    6645    6648    6729      17    6636    6630    6627    6708       7
    6636    6630    6633    6714      12    6636    6630   -6633    6714      14
    6636    6639    6642    6726      12    6636    6639   -6642    6726      14
    6633    6630    6627    6708      12    6633    6630   -6627    6708      13
    6633    6630    6636    6717      12    6633    6630   -6636    6717      13
    6630    6627    6654    6735       7    6630    6636    6639    6720       7
    6630    6636    6639    6723       7    6627    6654    6657    6738      12
    6627    6654   -6657    6738      14    6627    6654    6648    6729       7
    6627    6624    6621    6702      17    6627    6624    6621    6705      17
    6627    6630    6636    6717       7    6627    6630    6633    6714      12
    6627    6630   -6633    6714      14    6624    6621    6618    6699      12
    6624    6621   -6618    6699      13    6624    6621    6618    6696      12
    6624    6621   -6618    6696      13    6624    6627    6654    6735      12
    6624    6627   -6654    6735      13    6624    6627    6630    6711      12
    6624    6627   -6630    6711      13    6621    6624    6627    6708      17
    6621    6618    6615    6693      23    6621    6618    6615    6690      23
    6618    6615    6612    6684       7    6618    6615    6612    6687       7
    6615    6618    6621    6702       7    6615    6618    6621    6705       7
    6612    6615    6618    6699      23    6612    6615    6618    6696      23
    6609    6612    6615    6693       7    6609    6612    6615    6690       7
    6606    6588    6591    6666      10    6606    6588    6660    6663      30
    6606    6588   -6660    6663       3    6606    6588   -6660    6663      31
    6606    6588    6660    6609      11    6603    6600    6597    6675       7
    6603    6600    6597    6672       7    6600    6597    6591    6666      14
    6600    6603    6741    6744       2    6600    6603    6741    6747       2
    6600    6582    6588    6606      14    6597    6591    6594    6669       3
    6597    6591    6588    6606      14    6597    6600    6603    6681       3
    6594    6591    6597    6675       7    6594    6591    6597    6672       7
    6594    6591    6588    6606       7    6591    6597    6600    6678      14
    6588    6591    6594    6669       3    6588    6591    6597    6675      14
    6588    6591    6597    6672      14    6588    6582    6600    6678      14
    6585    6582    6600    6678      10    6585    6582    6600    6597      14
    6585    6582    6600    6603       7    6585    6582    6588    6591      14
    6585    6582    6588    6660       7    6585    6582    6588    6606      10
    6585    6582    6579    6609      11    6582    6600    6597    6675      14
    6582    6600    6597    6672      14    6582    6600    6603    6681       3
    6582    6588    6591    6666      14    6579    6582    6600    6678       7
    6579    6582    6588    6606       7    6579    6609    6612    6684      11
    6579    6609    6612    6687      11    6576    6579    6582    6585      30
    6576    6579   -6582    6585       3    6576    6579   -6582    6585      31
       0      36     -39     -75      35      30      36     -33     -72      35
      27      33     -30     -69      35      21      27     -24     -66      35
      18      24     -21     -63      35      15      21     -18     -60      35
       9      15     -12     -57      35       6      12      -9     -54      35
       0       6      -3     -51      35      48       0     -39      -3      35
     105      81     -78     -84      35     270     111    -114    -192      35
      78     102    -105    -180      35     435     276    -279    -357      35
     114     267    -270    -345      35     600     441    -444    -522      35
     279     432    -435    -510      35     765     606    -609    -687      35
     444     597    -600    -675      35     930     771    -774    -852      35
     609     762    -765    -840      35    1095     936    -939   -1017      35
     774     927    -930   -1005      35    1260    1101   -1104   -1182      35
     939    1092   -1095   -1170      35    1425    1266   -1269   -1347      35
    1104    1257   -1260   -1335      35    1590    1431   -1434   -1512      35
    1269    1422   -1425   -1500      35    1737    1596   -1599   -1677      35
    1434    1587   -1590   -1665      35    1599    1740   -1737   -1743      35
    1773    1749   -1746   -1752      35    1938    1779   -1782   -1860      35
    1746    1770   -1773   -1848      35    2103    1944   -1947   -2025      35
    1782    1935   -1938   -2013      35    2268    2109   -2112   -2190      35
    1947    2100   -2103   -2178      35    2433    2274   -2277   -2355      35
    2112    2265   -2268   -2343      35    2598    2439   -2442   -2520      35
    2277    2430   -2433   -2508      35    2763    2604   -2607   -2685      35
    2442    2595   -2598   -2673      35    2928    2769   -2772   -2850      35
    2607    2760   -2763   -2838      35    3093    2934   -2937   -3015      35
    2772    2925   -2928   -3003      35    3258    3099   -3102   -3180      35
    2937    3090   -3093   -3168      35    3405    3264   -3267   -3345      35
    3102    3255   -3258   -3333      35    3267    3408   -3405   -3411      35
    3441    3417   -3414   -3420      35    3606    3447   -3450   -3528      35
    3414    3438   -3441   -3516      35    3771    3612   -3615   -3693      35
    3450    3603   -3606   -3681      35    3936    3777   -3780   -3858      35
    3615    3768   -3771   -3846      35    4101    3942   -3945   -4023      35
    3780    3933   -3936   -4011      35    4266    4107   -4110   -4188      35
    3945    4098   -4101   -4176      35    4431    4272   -4275   -4353      35
    4110    4263   -4266   -4341      35    4596    4437   -4440   -4518      35
    4275    4428   -4431   -4506      35    4761    4602   -4605   -4683      35
    4440    4593   -4596   -4671      35    4926    4767   -4770   -4848      35
    4605    4758   -4761   -4836      35    5073    4932   -4935   -5013      35
    4770    4923   -4926   -5001      35    4935    5076   -5073   -5079      35
    5109    5085   -5082   -5088      35    5274    5115   -5118   -5196      35
    5082    5106   -5109   -5184      35    5439    5280   -5283   -5361      35
    5118    5271   -5274   -5349      35    5604    5445   -5448   -5526      35
    5283    5436   -5439   -5514      35    5769    5610   -5613   -5691      35
    5448    5601   -5604   -5679      35    5934    5775   -5778   -5856      35
    5613    5766   -5769   -5844      35    6099    5940   -5943   -6021      35
    5778    5931   -5934   -6009      35    6264    6105   -6108   -6186      35
    5943    6096   -6099   -6174      35    6429    6270   -6273   -6351      35
    6108    6261   -6264   -6339      35    6594    6435   -6438   -6516      35
    6273    6426   -6429   -6504      35    6741    6600   -6603   -6681      35
    6438    6591   -6594   -6669      35    6603    6744   -6741   -6747      35
%FLAG DIHEDRALS_WITHOUT_HYDROGEN                                                
%FORMAT(10I8)                                                                   
      39      36      42      45       1      33      30      27      45       1
      33      36     -42      45       1      30      33      36      42       1
      30      33      36      39       1      30      27     -45      42       1
      27      30      33      36       1      27      45     -42      36       1
      24      27      30      33       1      24      27      45      42       1
      21      24      27      30       1      21      24      27      45       1
      21      18     -15      45       1      18      15      45      27       1
      18      15      45      42       1      18      21     -24      27       1
      15      45      27      30       1      15      45      27      24       1
      15      45      42      36       1      15      18     -21      24       1
      12      15      45      27       1      12      15      45      42       1
      12      15      18      21       1      12       9      -6      42       1
       9      12      15      45       1       9      12      15      18       1
       9       6     -42      45       1       9       6      42      36       1
       6       9      12      15       1       6      42      45      27       1
       6      42     -45      15       1       6      42      36      33       1
       6      42      36      39       1      39       0      -3       6       1
       3       6       9      12       1       3       6      42      45       1
       3       6      42      36       1       3       0     -39      36       1
       0      39      36      33       1       0      39      36      42       1
       0       3       6       9       1       0       3      -6      42       1
      78     105     102     108       3      78     105     102      99       3
     162     159     165     168      15     162     159    -165     168      16
     156     159     165     168      15     156     159    -165     168      16
     153     150     147     156      15     153     150    -147     156      16
     150     147     156     159      18     150     147    -156     159      19
     147     156     159     162      17     147     156     159     165      18
     147     156    -159     165      19     147     141    -138     165      20
     147     141    -138     165      21     147     141    -138     165      22
     144     141     138     165       7     144     141     147     156      15
     144     141    -147     156      16     144     141     147     150       7
     141     138     165     168       7     141     138     165     159      20
     141     138    -165     159      21     141     138    -165     159      22
     141     147    -156     159      18     141     147    -156     159      19
     141     147     150     153       7     138     165     159     162       7
     138     165     159     156       7     138     141    -147     156       7
     138     141     147     150      20     138     141    -147     150      21
     138     141    -147     150      22     135     138     165     168      15
     135     138    -165     168      16     135     138     165     159       7
     135     138     141     147       7     135     138     141     144      15
     135     138    -141     144      16     132     135     138     165      18
     132     135    -138     165      19     132     135     138     141      18
     132     135    -138     141      19     129     132     135     138      18
     129     132    -135     138      19     126     129     132     135       7
     126     123     120     171      24     126     123    -120     171      25
     126     123    -120     171      26     123     126     129     132      27
     123     120     171     174      28     120     123     126     129      29
     114     270     267     273       3     114     270     267     264       3
     111     114     270     267       2     111      93      99     171       7
     111      93      90     120      32     111      93     -90     120      33
     108     102      99     171       7     108     111     114     270       3
     105     102     108     111       7     105     102      99     171       7
     102     108     111     114       7     102      99     171     174      11
     102      99     171     120      32     102      99    -171     120      33
     102      99     -93     111      20     102      99     -93     111      21
     102      99     -93     111      22      99     102    -108     111      20
      99     102    -108     111      21      99     102    -108     111      22
      99     171     120     123      34      99     171    -120     123       3
      99      93    -111     108      20      99      93    -111     108      21
      99      93    -111     108      22      99      93     111     114       7
      99      93     -90     120      32      99      93     -90     120      33
      93     111    -108     102      20      93     111    -108     102      21
      93     111    -108     102      22      93     111     114     270       3
      93      99     102     105       7      93      99    -102     108      20
      93      99    -102     108      21      93      99    -102     108      22
      93      99     171     174      11      93      99    -171     120      32
      93      99    -171     120      33      93      90    -120     171      28
      93      90     120     123      34      93      90    -120     123       3
      90      93     111     108       7      90      93     111     114       7
      90      93      99     102       7      90      93     -99     171       7
      90     120    -171      99      28      90     120     171     174      28
      90     120     123     126      24      90     120    -123     126      25
      90     120    -123     126      26      87      90      93     111      11
      87      90      93      99      11      87      90     120     171      28
      87      90     120     123      28     327     324     330     333      15
     327     324    -330     333      16     321     324     330     333      15
     321     324    -330     333      16     318     315     312     321      15
     318     315    -312     321      16     315     312     321     324      18
     315     312    -321     324      19     312     321     324     327      17
     312     321     324     330      18     312     321    -324     330      19
     312     306    -303     330      20     312     306    -303     330      21
     312     306    -303     330      22     309     306     303     330       7
     309     306     312     321      15     309     306    -312     321      16
     309     306     312     315       7     306     303     330     333       7
     306     303     330     324      20     306     303    -330     324      21
     306     303    -330     324      22     306     312    -321     324      18
     306     312    -321     324      19     306     312     315     318       7
     303     330     324     327       7     303     330     324     321       7
     303     306    -312     321       7     303     306     312     315      20
     303     306    -312     315      21     303     306    -312     315      22
     300     303     330     333      15     300     303    -330     333      16
     300     303     330     324       7     300     303     306     312       7
     300     303     306     309      15     300     303    -306     309      16
     297     300     303     330      18     297     300    -303     330      19
     297     300     303     306      18     297     300    -303     306      19
     294     297     300     303      18     294     297    -300     303      19
     291     294     297     300       7     291     288     285     336      24
     291     288    -285     336      25     291     288    -285     336      26
     288     291     294     297      27     288     285     336     339      28
     285     288     291     294      29     279     435     432     438       3
     279     435     432     429       3     276     279     435     432       2
     276     258     264     336       7     276     258     255     285      32
     276     258    -255     285      33     273     267     264     336       7
     273     276     279     435       3     270     267     273     276       7
     270     267     264     336       7     267     273     276     279       7
     267     264     336     339      11     267     264     336     285      32
     267     264    -336     285      33     267     264    -258     276      20
     267     264    -258     276      21     267     264    -258     276      22
     264     267    -273     276      20     264     267    -273     276      21
     264     267    -273     276      22     264     336     285     288      34
     264     336    -285     288       3     264     258    -276     273      20
     264     258    -276     273      21     264     258    -276     273      22
     264     258     276     279       7     264     258    -255     285      32
     264     258    -255     285      33     258     276    -273     267      20
     258     276    -273     267      21     258     276    -273     267      22
     258     276     279     435       3     258     264     267     270       7
     258     264    -267     273      20     258     264    -267     273      21
     258     264    -267     273      22     258     264     336     339      11
     258     264    -336     285      32     258     264    -336     285      33
     258     255    -285     336      28     258     255     285     288      34
     258     255    -285     288       3     255     258     276     273       7
     255     258     276     279       7     255     258     264     267       7
     255     258    -264     336       7     255     285    -336     264      28
     255     285     336     339      28     255     285     288     291      24
     255     285    -288     291      25     255     285    -288     291      26
     252     255     258     276      11     252     255     258     264      11
     252     255     285     336      28     252     255     285     288      28
     492     489     495     498      15     492     489    -495     498      16
     486     489     495     498      15     486     489    -495     498      16
     483     480     477     486      15     483     480    -477     486      16
     480     477     486     489      18     480     477    -486     489      19
     477     486     489     492      17     477     486     489     495      18
     477     486    -489     495      19     477     471    -468     495      20
     477     471    -468     495      21     477     471    -468     495      22
     474     471     468     495       7     474     471     477     486      15
     474     471    -477     486      16     474     471     477     480       7
     471     468     495     498       7     471     468     495     489      20
     471     468    -495     489      21     471     468    -495     489      22
     471     477    -486     489      18     471     477    -486     489      19
     471     477     480     483       7     468     495     489     492       7
     468     495     489     486       7     468     471    -477     486       7
     468     471     477     480      20     468     471    -477     480      21
     468     471    -477     480      22     465     468     495     498      15
     465     468    -495     498      16     465     468     495     489       7
     465     468     471     477       7     465     468     471     474      15
     465     468    -471     474      16     462     465     468     495      18
     462     465    -468     495      19     462     465     468     471      18
     462     465    -468     471      19     459     462     465     468      18
     459     462    -465     468      19     456     459     462     465       7
     456     453     450     501      24     456     453    -450     501      25
     456     453    -450     501      26     453     456     459     462      27
     453     450     501     504      28     450     453     456     459      29
     444     600     597     603       3     444     600     597     594       3
     441     444     600     597       2     441     423     429     501       7
     441     423     420     450      32     441     423    -420     450      33
     438     432     429     501       7     438     441     444     600       3
     435     432     438     441       7     435     432     429     501       7
     432     438     441     444       7     432     429     501     504      11
     432     429     501     450      32     432     429    -501     450      33
     432     429    -423     441      20     432     429    -423     441      21
     432     429    -423     441      22     429     432    -438     441      20
     429     432    -438     441      21     429     432    -438     441      22
     429     501     450     453      34     429     501    -450     453       3
     429     423    -441     438      20     429     423    -441     438      21
     429     423    -441     438      22     429     423     441     444       7
     429     423    -420     450      32     429     423    -420     450      33
     423     441    -438     432      20     423     441    -438     432      21
     423     441    -438     432      22     423     441     444     600       3
     423     429     432     435       7     423     429    -432     438      20
     423     429    -432     438      21     423     429    -432     438      22
     423     429     501     504      11     423     429    -501     450      32
     423     429    -501     450      33     423     420    -450     501      28
     423     420     450     453      34     423     420    -450     453       3
     420     423     441     438       7     420     423     441     444       7
     420     423     429     432       7     420     423    -429     501       7
     420     450    -501     429      28     420     450     501     504      28
     420     450     453     456      24     420     450    -453     456      25
     420     450    -453     456      26     417     420     423     441      11
     417     420     423     429      11     417     420     450     501      28
     417     420     450     453      28     657     654     660     663      15
     657     654    -660     663      16     651     654     660     663      15
     651     654    -660     663      16     648     645     642     651      15
     648     645    -642     651      16     645     642     651     654      18
     645     642    -651     654      19     642     651     654     657      17
     642     651     654     660      18     642     651    -654     660      19
     642     636    -633     660      20     642     636    -633     660      21
     642     636    -633     660      22     639     636     633     660       7
     639     636     642     651      15     639     636    -642     651      16
     639     636     642     645       7     636     633     660     663       7
     636     633     660     654      20     636     633    -660     654      21
     636     633    -660     654      22     636     642    -651     654      18
     636     642    -651     654      19     636     642     645     648       7
     633     660     654     657       7     633     660     654     651       7
     633     636    -642     651       7     633     636     642     645      20
     633     636    -642     645      21     633     636    -642     645      22
     630     633     660     663      15     630     633    -660     663      16
     630     633     660     654       7     630     633     636     642       7
     630     633     636     639      15     630     633    -636     639      16
     627     630     633     660      18     627     630    -633     660      19
     627     630     633     636      18     627     630    -633     636      19
     624     627     630     633      18     624     627    -630     633      19
     621     624     627     630       7     621     618     615     666      24
     621     618    -615     666      25     621     618    -615     666      26
     618     621     624     627      27     618     615     666     669      28
     615     618     621     624      29     609     765     762     768       3
     609     765     762     759       3     606     609     765     762       2
     606     588     594     666       7     606     588     585     615      32
     606     588    -585     615      33     603     597     594     666       7
     603     606     609     765       3     600     597     603     606       7
     600     597     594     666       7     597     603     606     609       7
     597     594     666     669      11     597     594     666     615      32
     597     594    -666     615      33     597     594    -588     606      20
     597     594    -588     606      21     597     594    -588     606      22
     594     597    -603     606      20     594     597    -603     606      21
     594     597    -603     606      22     594     666     615     618      34
     594     666    -615     618       3     594     588    -606     603      20
     594     588    -606     603      21     594     588    -606     603      22
     594     588     606     609       7     594     588    -585     615      32
     594     588    -585     615      33     588     606    -603     597      20
     588     606    -603     597      21     588     606    -603     597      22
     588     606     609     765       3     588     594     597     600       7
     588     594    -597     603      20     588     594    -597     603      21
     588     594    -597     603      22     588     594     666     669      11
     588     594    -666     615      32     588     594    -666     615      33
     588     585    -615     666      28     588     585     615     618      34
     588     585    -615     618       3     585     588     606     603       7
     585     588     606     609       7     585     588     594     597       7
     585     588    -594     666       7     585     615    -666     594      28
     585     615     666     669      28     585     615     618     621      24
     585     615    -618     621      25     585     615    -618     621      26
     582     585     588     606      11     582     585     588     594      11
     582     585     615     666      28     582     585     615     618      28
     822     819     825     828      15     822     819    -825     828      16
     816     819     825     828      15     816     819    -825     828      16
     813     810     807     816      15     813     810    -807     816      16
     810     807     816     819      18     810     807    -816     819      19
     807     816     819     822      17     807     816     819     825      18
     807     816    -819     825      19     807     801    -798     825      20
     807     801    -798     825      21     807     801    -798     825      22
     804     801     798     825       7     804     801     807     816      15
     804     801    -807     816      16     804     801     807     810       7
     801     798     825     828       7     801     798     825     819      20
     801     798    -825     819      21     801     798    -825     819      22
     801     807    -816     819      18     801     807    -816     819      19
     801     807     810     813       7     798     825     819     822       7
     798     825     819     816       7     798     801    -807     816       7
     798     801     807     810      20     798     801    -807     810      21
     798     801    -807     810      22     795     798     825     828      15
     795     798    -825     828      16     795     798     825     819       7
     795     798     801     807       7     795     798     801     804      15
     795     798    -801     804      16     792     795     798     825      18
     792     795    -798     825      19     792     795     798     801      18
     792     795    -798     801      19     789     792     795     798      18
     789     792    -795     798      19     786     789     792     795       7
     786     783     780     831      24     786     783    -780     831      25
     786     783    -780     831      26     783     786     789     792      27
     783     780     831     834      28     780     783     786     789      29
     774     930     927     933       3     774     930     927     924       3
     771     774     930     927       2     771     753     759     831       7
     771     753     750     780      32     771     753    -750     780      33
     768     762     759     831       7     768     771     774     930       3
     765     762     768     771       7     765     762     759     831       7
     762     768     771     774       7     762     759     831     834      11
     762     759     831     780      32     762     759    -831     780      33
     762     759    -753     771      20     762     759    -753     771      21
     762     759    -753     771      22     759     762    -768     771      20
     759     762    -768     771      21     759     762    -768     771      22
     759     831     780     783      34     759     831    -780     783       3
     759     753    -771     768      20     759     753    -771     768      21
     759     753    -771     768      22     759     753     771     774       7
     759     753    -750     780      32     759     753    -750     780      33
     753     771    -768     762      20     753     771    -768     762      21
     753     771    -768     762      22     753     771     774     930       3
     753     759     762     765       7     753     759    -762     768      20
     753     759    -762     768      21     753     759    -762     768      22
     753     759     831     834      11     753     759    -831     780      32
     753     759    -831     780      33     753     750    -780     831      28
     753     750     780     783      34     753     750    -780     783       3
     750     753     771     768       7     750     753     771     774       7
     750     753     759     762       7     750     753    -759     831       7
     750     780    -831     759      28     750     780     831     834      28
     750     780     783     786      24     750     780    -783     786      25
     750     780    -783     786      26     747     750     753     771      11
     747     750     753     759      11     747     750     780     831      28
     747     750     780     783      28     987     984     990     993      15
     987     984    -990     993      16     981     984     990     993      15
     981     984    -990     993      16     978     975     972     981      15
     978     975    -972     981      16     975     972     981     984      18
     975     972    -981     984      19     972     981     984     987      17
     972     981     984     990      18     972     981    -984     990      19
     972     966    -963     990      20     972     966    -963     990      21
     972     966    -963     990      22     969     966     963     990       7
     969     966     972     981      15     969     966    -972     981      16
     969     966     972     975       7     966     963     990     993       7
     966     963     990     984      20     966     963    -990     984      21
     966     963    -990     984      22     966     972    -981     984      18
     966     972    -981     984      19     966     972     975     978       7
     963     990     984     987       7     963     990     984     981       7
     963     966    -972     981       7     963     966     972     975      20
     963     966    -972     975      21     963     966    -972     975      22
     960     963     990     993      15     960     963    -990     993      16
     960     963     990     984       7     960     963     966     972       7
     960     963     966     969      15     960     963    -966     969      16
     957     960     963     990      18     957     960    -963     990      19
     957     960     963     966      18     957     960    -963     966      19
     954     957     960     963      18     954     957    -960     963      19
     951     954     957     960       7     951     948     945     996      24
     951     948    -945     996      25     951     948    -945     996      26
     948     951     954     957      27     948     945     996     999      28
     945     948     951     954      29     939    1095    1092    1098       3
     939    1095    1092    1089       3     936     939    1095    1092       2
     936     918     924     996       7     936     918     915     945      32
     936     918    -915     945      33     933     927     924     996       7
     933     936     939    1095       3     930     927     933     936       7
     930     927     924     996       7     927     933     936     939       7
     927     924     996     999      11     927     924     996     945      32
     927     924    -996     945      33     927     924    -918     936      20
     927     924    -918     936      21     927     924    -918     936      22
     924     927    -933     936      20     924     927    -933     936      21
     924     927    -933     936      22     924     996     945     948      34
     924     996    -945     948       3     924     918    -936     933      20
     924     918    -936     933      21     924     918    -936     933      22
     924     918     936     939       7     924     918    -915     945      32
     924     918    -915     945      33     918     936    -933     927      20
     918     936    -933     927      21     918     936    -933     927      22
     918     936     939    1095       3     918     924     927     930       7
     918     924    -927     933      20     918     924    -927     933      21
     918     924    -927     933      22     918     924     996     999      11
     918     924    -996     945      32     918     924    -996     945      33
     918     915    -945     996      28     918     915     945     948      34
     918     915    -945     948       3     915     918     936     933       7
     915     918     936     939       7     915     918     924     927       7
     915     918    -924     996       7     915     945    -996     924      28
     915     945     996     999      28     915     945     948     951      24
     915     945    -948     951      25     915     945    -948     951      26
     912     915     918     936      11     912     915     918     924      11
     912     915     945     996      28     912     915     945     948      28
    1152    1149    1155    1158      15    1152    1149   -1155    1158      16
    1146    1149    1155    1158      15    1146    1149   -1155    1158      16
    1143    1140    1137    1146      15    1143    1140   -1137    1146      16
    1140    1137    1146    1149      18    1140    1137   -1146    1149      19
    1137    1146    1149    1152      17    1137    1146    1149    1155      18
    1137    1146   -1149    1155      19    1137    1131   -1128    1155      20
    1137    1131   -1128    1155      21    1137    1131   -1128    1155      22
    1134    1131    1128    1155       7    1134    1131    1137    1146      15
    1134    1131   -1137    1146      16    1134    1131    1137    1140       7
    1131    1128    1155    1158       7    1131    1128    1155    1149      20
    1131    1128   -1155    1149      21    1131    1128   -1155    1149      22
    1131    1137   -1146    1149      18    1131    1137   -1146    1149      19
    1131    1137    1140    1143       7    1128    1155    1149    1152       7
    1128    1155    1149    1146       7    1128    1131   -1137    1146       7
    1128    1131    1137    1140      20    1128    1131   -1137    1140      21
    1128    1131   -1137    1140      22    1125    1128    1155    1158      15
    1125    1128   -1155    1158      16    1125    1128    1155    1149       7
    1125    1128    1131    1137       7    1125    1128    1131    1134      15
    1125    1128   -1131    1134      16    1122    1125    1128    1155      18
    1122    1125   -1128    1155      19    1122    1125    1128    1131      18
    1122    1125   -1128    1131      19    1119    1122    1125    1128      18
    1119    1122   -1125    1128      19    1116    1119    1122    1125       7
    1116    1113    1110    1161      24    1116    1113   -1110    1161      25
    1116    1113   -1110    1161      26    1113    1116    1119    1122      27
    1113    1110    1161    1164      28    1110    1113    1116    1119      29
    1104    1260    1257    1263       3    1104    1260    1257    1254       3
    1101    1104    1260    1257       2    1101    1083    1089    1161       7
    1101    1083    1080    1110      32    1101    1083   -1080    1110      33
    1098    1092    1089    1161       7    1098    1101    1104    1260       3
    1095    1092    1098    1101       7    1095    1092    1089    1161       7
    1092    1098    1101    1104       7    1092    1089    1161    1164      11
    1092    1089    1161    1110      32    1092    1089   -1161    1110      33
    1092    1089   -1083    1101      20    1092    1089   -1083    1101      21
    1092    1089   -1083    1101      22    1089    1092   -1098    1101      20
    1089    1092   -1098    1101      21    1089    1092   -1098    1101      22
    1089    1161    1110    1113      34    1089    1161   -1110    1113       3
    1089    1083   -1101    1098      20    1089    1083   -1101    1098      21
    1089    1083   -1101    1098      22    1089    1083    1101    1104       7
    1089    1083   -1080    1110      32    1089    1083   -1080    1110      33
    1083    1101   -1098    1092      20    1083    1101   -1098    1092      21
    1083    1101   -1098    1092      22    1083    1101    1104    1260       3
    1083    1089    1092    1095       7    1083    1089   -1092    1098      20
    1083    1089   -1092    1098      21    1083    1089   -1092    1098      22
    1083    1089    1161    1164      11    1083    1089   -1161    1110      32
    1083    1089   -1161    1110      33    1083    1080   -1110    1161      28
    1083    1080    1110    1113      34    1083    1080   -1110    1113       3
    1080    1083    1101    1098       7    1080    1083    1101    1104       7
    1080    1083    1089    1092       7    1080    1083   -1089    1161       7
    1080    1110   -1161    1089      28    1080    1110    1161    1164      28
    1080    1110    1113    1116      24    1080    1110   -1113    1116      25
    1080    1110   -1113    1116      26    1077    1080    1083    1101      11
    1077    1080    1083    1089      11    1077    1080    1110    1161      28
    1077    1080    1110    1113      28    1317    1314    1320    1323      15
    1317    1314   -1320    1323      16    1311    1314    1320    1323      15
    1311    1314   -1320    1323      16    1308    1305    1302    1311      15
    1308    1305   -1302    1311      16    1305    1302    1311    1314      18
    1305    1302   -1311    1314      19    1302    1311    1314    1317      17
    1302    1311    1314    1320      18    1302    1311   -1314    1320      19
    1302    1296   -1293    1320      20    1302    1296   -1293    1320      21
    1302    1296   -1293    1320      22    1299    1296    1293    1320       7
    1299    1296    1302    1311      15    1299    1296   -1302    1311      16
    1299    1296    1302    1305       7    1296    1293    1320    1323       7
    1296    1293    1320    1314      20    1296    1293   -1320    1314      21
    1296    1293   -1320    1314      22    1296    1302   -1311    1314      18
    1296    1302   -1311    1314      19    1296    1302    1305    1308       7
    1293    1320    1314    1317       7    1293    1320    1314    1311       7
    1293    1296   -1302    1311       7    1293    1296    1302    1305      20
    1293    1296   -1302    1305      21    1293    1296   -1302    1305      22
    1290    1293    1320    1323      15    1290    1293   -1320    1323      16
    1290    1293    1320    1314       7    1290    1293    1296    1302       7
    1290    1293    1296    1299      15    1290    1293   -1296    1299      16
    1287    1290    1293    1320      18    1287    1290   -1293    1320      19
    1287    1290    1293    1296      18    1287    1290   -1293    1296      19
    1284    1287    1290    1293      18    1284    1287   -1290    1293      19
    1281    1284    1287    1290       7    1281    1278    1275    1326      24
    1281    1278   -1275    1326      25    1281    1278   -1275    1326      26
    1278    1281    1284    1287      27    1278    1275    1326    1329      28
    1275    1278    1281    1284      29    1269    1425    1422    1428       3
    1269    1425    1422    1419       3    1266    1269    1425    1422       2
    1266    1248    1254    1326       7    1266    1248    1245    1275      32
    1266    1248   -1245    1275      33    1263    1257    1254    1326       7
    1263    1266    1269    1425       3    1260    1257    1263    1266       7
    1260    1257    1254    1326       7    1257    1263    1266    1269       7
    1257    1254    1326    1329      11    1257    1254    1326    1275      32
    1257    1254   -1326    1275      33    1257    1254   -1248    1266      20
    1257    1254   -1248    1266      21    1257    1254   -1248    1266      22
    1254    1257   -1263    1266      20    1254    1257   -1263    1266      21
    1254    1257   -1263    1266      22    1254    1326    1275    1278      34
    1254    1326   -1275    1278       3    1254    1248   -1266    1263      20
    1254    1248   -1266    1263      21    1254    1248   -1266    1263      22
    1254    1248    1266    1269       7    1254    1248   -1245    1275      32
    1254    1248   -1245    1275      33    1248    1266   -1263    1257      20
    1248    1266   -1263    1257      21    1248    1266   -1263    1257      22
    1248    1266    1269    1425       3    1248    1254    1257    1260       7
    1248    1254   -1257    1263      20    1248    1254   -1257    1263      21
    1248    1254   -1257    1263      22    1248    1254    1326    1329      11
    1248    1254   -1326    1275      32    1248    1254   -1326    1275      33
    1248    1245   -1275    1326      28    1248    1245    1275    1278      34
    1248    1245   -1275    1278       3    1245    1248    1266    1263       7
    1245    1248    1266    1269       7    1245    1248    1254    1257       7
    1245    1248   -1254    1326       7    1245    1275   -1326    1254      28
    1245    1275    1326    1329      28    1245    1275    1278    1281      24
    1245    1275   -1278    1281      25    1245    1275   -1278    1281      26
    1242    1245    1248    1266      11    1242    1245    1248    1254      11
    1242    1245    1275    1326      28    1242    1245    1275    1278      28
    1482    1479    1485    1488      15    1482    1479   -1485    1488      16
    1476    1479    1485    1488      15    1476    1479   -1485    1488      16
    1473    1470    1467    1476      15    1473    1470   -1467    1476      16
    1470    1467    1476    1479      18    1470    1467   -1476    1479      19
    1467    1476    1479    1482      17    1467    1476    1479    1485      18
    1467    1476   -1479    1485      19    1467    1461   -1458    1485      20
    1467    1461   -1458    1485      21    1467    1461   -1458    1485      22
    1464    1461    1458    1485       7    1464    1461    1467    1476      15
    1464    1461   -1467    1476      16    1464    1461    1467    1470       7
    1461    1458    1485    1488       7    1461    1458    1485    1479      20
    1461    1458   -1485    1479      21    1461    1458   -1485    1479      22
    1461    1467   -1476    1479      18    1461    1467   -1476    1479      19
    1461    1467    1470    1473       7    1458    1485    1479    1482       7
    1458    1485    1479    1476       7    1458    1461   -1467    1476       7
    1458    1461    1467    1470      20    1458    1461   -1467    1470      21
    1458    1461   -1467    1470      22    1455    1458    1485    1488      15
    1455    1458   -1485    1488      16    1455    1458    1485    1479       7
    1455    1458    1461    1467       7    1455    1458    1461    1464      15
    1455    1458   -1461    1464      16    1452    1455    1458    1485      18
    1452    1455   -1458    1485      19    1452    1455    1458    1461      18
    1452    1455   -1458    1461      19    1449    1452    1455    1458      18
    1449    1452   -1455    1458      19    1446    1449    1452    1455       7
    1446    1443    1440    1491      24    1446    1443   -1440    1491      25
    1446    1443   -1440    1491      26    1443    1446    1449    1452      27
    1443    1440    1491    1494      28    1440    1443    1446    1449      29
    1434    1590    1587    1593       3    1434    1590    1587    1584       3
    1431    1434    1590    1587       2    1431    1413    1419    1491       7
    1431    1413    1410    1440      32    1431    1413   -1410    1440      33
    1428    1422    1419    1491       7    1428    1431    1434    1590       3
    1425    1422    1428    1431       7    1425    1422    1419    1491       7
    1422    1428    1431    1434       7    1422    1419    1491    1494      11
    1422    1419    1491    1440      32    1422    1419   -1491    1440      33
    1422    1419   -1413    1431      20    1422    1419   -1413    1431      21
    1422    1419   -1413    1431      22    1419    1422   -1428    1431      20
    1419    1422   -1428    1431      21    1419    1422   -1428    1431      22
    1419    1491    1440    1443      34    1419    1491   -1440    1443       3
    1419    1413   -1431    1428      20    1419    1413   -1431    1428      21
    1419    1413   -1431    1428      22    1419    1413    1431    1434       7
    1419    1413   -1410    1440      32    1419    1413   -1410    1440      33
    1413    1431   -1428    1422      20    1413    1431   -1428    1422      21
    1413    1431   -1428    1422      22    1413    1431    1434    1590       3
    1413    1419    1422    1425       7    1413    1419   -1422    1428      20
    1413    1419   -1422    1428      21    1413    1419   -1422    1428      22
    1413    1419    1491    1494      11    1413    1419   -1491    1440      32
    1413    1419   -1491    1440      33    1413    1410   -1440    1491      28
    1413    1410    1440    1443      34    1413    1410   -1440    1443       3
    1410    1413    1431    1428       7    1410    1413    1431    1434       7
    1410    1413    1419    1422       7    1410    1413   -1419    1491       7
    1410    1440   -1491    1419      28    1410    1440    1491    1494      28
    1410    1440    1443    1446      24    1410    1440   -1443    1446      25
    1410    1440   -1443    1446      26    1407    1410    1413    1431      11
    1407    1410    1413    1419      11    1407    1410    1440    1491      28
    1407    1410    1440    1443      28    1647    1644    1650    1653      15
    1647    1644   -1650    1653      16    1641    1644    1650    1653      15
    1641    1644   -1650    1653      16    1638    1635    1632    1641      15
    1638    1635   -1632    1641      16    1635    1632    1641    1644      18
    1635    1632   -1641    1644      19    1632    1641    1644    1647      17
    1632    1641    1644    1650      18    1632    1641   -1644    1650      19
    1632    1626   -1623    1650      20    1632    1626   -1623    1650      21
    1632    1626   -1623    1650      22    1629    1626    1623    1650       7
    1629    1626    1632    1641      15    1629    1626   -1632    1641      16
    1629    1626    1632    1635       7    1626    1623    1650    1653       7
    1626    1623    1650    1644      20    1626    1623   -1650    1644      21
    1626    1623   -1650    1644      22    1626    1632   -1641    1644      18
    1626    1632   -1641    1644      19    1626    1632    1635    1638       7
    1623    1650    1644    1647       7    1623    1650    1644    1641       7
    1623    1626   -1632    1641       7    1623    1626    1632    1635      20
    1623    1626   -1632    1635      21    1623    1626   -1632    1635      22
    1620    1623    1650    1653      15    1620    1623   -1650    1653      16
    1620    1623    1650    1644       7    1620    1623    1626    1632       7
    1620    1623    1626    1629      15    1620    1623   -1626    1629      16
    1617    1620    1623    1650      18    1617    1620   -1623    1650      19
    1617    1620    1623    1626      18    1617    1620   -1623    1626      19
    1614    1617    1620    1623      18    1614    1617   -1620    1623      19
    1611    1614    1617    1620       7    1611    1608    1605    1656      24
    1611    1608   -1605    1656      25    1611    1608   -1605    1656      26
    1608    1611    1614    1617      27    1608    1605    1656    1659      28
    1605    1608    1611    1614      29    1596    1578    1584    1656       7
    1596    1578    1575    1605      32    1596    1578   -1575    1605      33
    1593    1587    1584    1656       7    1593    1596    1599    1737       3
    1590    1587    1593    1596       7    1590    1587    1584    1656       7
    1587    1593    1596    1599       7    1587    1584    1656    1659      11
    1587    1584    1656    1605      32    1587    1584   -1656    1605      33
    1587    1584   -1578    1596      20    1587    1584   -1578    1596      21
    1587    1584   -1578    1596      22    1584    1587   -1593    1596      20
    1584    1587   -1593    1596      21    1584    1587   -1593    1596      22
    1584    1656    1605    1608      34    1584    1656   -1605    1608       3
    1584    1578   -1596    1593      20    1584    1578   -1596    1593      21
    1584    1578   -1596    1593      22    1584    1578    1596    1599       7
    1584    1578   -1575    1605      32    1584    1578   -1575    1605      33
    1578    1596   -1593    1587      20    1578    1596   -1593    1587      21
    1578    1596   -1593    1587      22    1578    1596    1599    1737       3
    1578    1584    1587    1590       7    1578    1584   -1587    1593      20
    1578    1584   -1587    1593      21    1578    1584   -1587    1593      22
    1578    1584    1656    1659      11    1578    1584   -1656    1605      32
    1578    1584   -1656    1605      33    1578    1575   -1605    1656      28
    1578    1575    1605    1608      34    1578    1575   -1605    1608       3
    1575    1578    1596    1593       7    1575    1578    1596    1599       7
    1575    1578    1584    1587       7    1575    1578   -1584    1656       7
    1575    1605   -1656    1584      28    1575    1605    1656    1659      28
    1575    1605    1608    1611      24    1575    1605   -1608    1611      25
    1575    1605   -1608    1611      26    1572    1575    1578    1596      11
    1572    1575    1578    1584      11    1572    1575    1605    1656      28
    1572    1575    1605    1608      28    1746    1773    1770    1776       3
    1746    1773    1770    1767       3    1830    1827    1833    1836      15
    1830    1827   -1833    1836      16    1824    1827    1833    1836      15
    1824    1827   -1833    1836      16    1821    1818    1815    1824      15
    1821    1818   -1815    1824      16    1818    1815    1824    1827      18
    1818    1815   -1824    1827      19    1815    1824    1827    1830      17
    1815    1824    1827    1833      18    1815    1824   -1827    1833      19
    1815    1809   -1806    1833      20    1815    1809   -1806    1833      21
    1815    1809   -1806    1833      22    1812    1809    1806    1833       7
    1812    1809    1815    1824      15    1812    1809   -1815    1824      16
    1812    1809    1815    1818       7    1809    1806    1833    1836       7
    1809    1806    1833    1827      20    1809    1806   -1833    1827      21
    1809    1806   -1833    1827      22    1809    1815   -1824    1827      18
    1809    1815   -1824    1827      19    1809    1815    1818    1821       7
    1806    1833    1827    1830       7    1806    1833    1827    1824       7
    1806    1809   -1815    1824       7    1806    1809    1815    1818      20
    1806    1809   -1815    1818      21    1806    1809   -1815    1818      22
    1803    1806    1833    1836      15    1803    1806   -1833    1836      16
    1803    1806    1833    1827       7    1803    1806    1809    1815       7
    1803    1806    1809    1812      15    1803    1806   -1809    1812      16
    1800    1803    1806    1833      18    1800    1803   -1806    1833      19
    1800    1803    1806    1809      18    1800    1803   -1806    1809      19
    1797    1800    1803    1806      18    1797    1800   -1803    1806      19
    1794    1797    1800    1803       7    1794    1791    1788    1839      24
    1794    1791   -1788    1839      25    1794    1791   -1788    1839      26
    1791    1794    1797    1800      27    1791    1788    1839    1842      28
    1788    1791    1794    1797      29    1782    1938    1935    1941       3
    1782    1938    1935    1932       3    1779    1782    1938    1935       2
    1779    1761    1767    1839       7    1779    1761    1758    1788      32
    1779    1761   -1758    1788      33    1776    1770    1767    1839       7
    1776    1779    1782    1938       3    1773    1770    1776    1779       7
    1773    1770    1767    1839       7    1770    1776    1779    1782       7
    1770    1767    1839    1842      11    1770    1767    1839    1788      32
    1770    1767   -1839    1788      33    1770    1767   -1761    1779      20
    1770    1767   -1761    1779      21    1770    1767   -1761    1779      22
    1767    1770   -1776    1779      20    1767    1770   -1776    1779      21
    1767    1770   -1776    1779      22    1767    1839    1788    1791      34
    1767    1839   -1788    1791       3    1767    1761   -1779    1776      20
    1767    1761   -1779    1776      21    1767    1761   -1779    1776      22
    1767    1761    1779    1782       7    1767    1761   -1758    1788      32
    1767    1761   -1758    1788      33    1761    1779   -1776    1770      20
    1761    1779   -1776    1770      21    1761    1779   -1776    1770      22
    1761    1779    1782    1938       3    1761    1767    1770    1773       7
    1761    1767   -1770    1776      20    1761    1767   -1770    1776      21
    1761    1767   -1770    1776      22    1761    1767    1839    1842      11
    1761    1767   -1839    1788      32    1761    1767   -1839    1788      33
    1761    1758   -1788    1839      28    1761    1758    1788    1791      34
    1761    1758   -1788    1791       3    1758    1761    1779    1776       7
    1758    1761    1779    1782       7    1758    1761    1767    1770       7
    1758    1761   -1767    1839       7    1758    1788   -1839    1767      28
    1758    1788    1839    1842      28    1758    1788    1791    1794      24
    1758    1788   -1791    1794      25    1758    1788   -1791    1794      26
    1755    1758    1761    1779      11    1755    1758    1761    1767      11
    1755    1758    1788    1839      28    1755    1758    1788    1791      28
    1995    1992    1998    2001      15    1995    1992   -1998    2001      16
    1989    1992    1998    2001      15    1989    1992   -1998    2001      16
    1986    1983    1980    1989      15    1986    1983   -1980    1989      16
    1983    1980    1989    1992      18    1983    1980   -1989    1992      19
    1980    1989    1992    1995      17    1980    1989    1992    1998      18
    1980    1989   -1992    1998      19    1980    1974   -1971    1998      20
    1980    1974   -1971    1998      21    1980    1974   -1971    1998      22
    1977    1974    1971    1998       7    1977    1974    1980    1989      15
    1977    1974   -1980    1989      16    1977    1974    1980    1983       7
    1974    1971    1998    2001       7    1974    1971    1998    1992      20
    1974    1971   -1998    1992      21    1974    1971   -1998    1992      22
    1974    1980   -1989    1992      18    1974    1980   -1989    1992      19
    1974    1980    1983    1986       7    1971    1998    1992    1995       7
    1971    1998    1992    1989       7    1971    1974   -1980    1989       7
    1971    1974    1980    1983      20    1971    1974   -1980    1983      21
    1971    1974   -1980    1983      22    1968    1971    1998    2001      15
    1968    1971   -1998    2001      16    1968    1971    1998    1992       7
    1968    1971    1974    1980       7    1968    1971    1974    1977      15
    1968    1971   -1974    1977      16    1965    1968    1971    1998      18
    1965    1968   -1971    1998      19    1965    1968    1971    1974      18
    1965    1968   -1971    1974      19    1962    1965    1968    1971      18
    1962    1965   -1968    1971      19    1959    1962    1965    1968       7
    1959    1956    1953    2004      24    1959    1956   -1953    2004      25
    1959    1956   -1953    2004      26    1956    1959    1962    1965      27
    1956    1953    2004    2007      28    1953    1956    1959    1962      29
    1947    2103    2100    2106       3    1947    2103    2100    2097       3
    1944    1947    2103    2100       2    1944    1926    1932    2004       7
    1944    1926    1923    1953      32    1944    1926   -1923    1953      33
    1941    1935    1932    2004       7    1941    1944    1947    2103       3
    1938    1935    1941    1944       7    1938    1935    1932    2004       7
    1935    1941    1944    1947       7    1935    1932    2004    2007      11
    1935    1932    2004    1953      32    1935    1932   -2004    1953      33
    1935    1932   -1926    1944      20    1935    1932   -1926    1944      21
    1935    1932   -1926    1944      22    1932    1935   -1941    1944      20
    1932    1935   -1941    1944      21    1932    1935   -1941    1944      22
    1932    2004    1953    1956      34    1932    2004   -1953    1956       3
    1932    1926   -1944    1941      20    1932    1926   -1944    1941      21
    1932    1926   -1944    1941      22    1932    1926    1944    1947       7
    1932    1926   -1923    1953      32    1932    1926   -1923    1953      33
    1926    1944   -1941    1935      20    1926    1944   -1941    1935      21
    1926    1944   -1941    1935      22    1926    1944    1947    2103       3
    1926    1932    1935    1938       7    1926    1932   -1935    1941      20
    1926    1932   -1935    1941      21    1926    1932   -1935    1941      22
    1926    1932    2004    2007      11    1926    1932   -2004    1953      32
    1926    1932   -2004    1953      33    1926    1923   -1953    2004      28
    1926    1923    1953    1956      34    1926    1923   -1953    1956       3
    1923    1926    1944    1941       7    1923    1926    1944    1947       7
    1923    1926    1932    1935       7    1923    1926   -1932    2004       7
    1923    1953   -2004    1932      28    1923    1953    2004    2007      28
    1923    1953    1956    1959      24    1923    1953   -1956    1959      25
    1923    1953   -1956    1959      26    1920    1923    1926    1944      11
    1920    1923    1926    1932      11    1920    1923    1953    2004      28
    1920    1923    1953    1956      28    2160    2157    2163    2166      15
    2160    2157   -2163    2166      16    2154    2157    2163    2166      15
    2154    2157   -2163    2166      16    2151    2148    2145    2154      15
    2151    2148   -2145    2154      16    2148    2145    2154    2157      18
    2148    2145   -2154    2157      19    2145    2154    2157    2160      17
    2145    2154    2157    2163      18    2145    2154   -2157    2163      19
    2145    2139   -2136    2163      20    2145    2139   -2136    2163      21
    2145    2139   -2136    2163      22    2142    2139    2136    2163       7
    2142    2139    2145    2154      15    2142    2139   -2145    2154      16
    2142    2139    2145    2148       7    2139    2136    2163    2166       7
    2139    2136    2163    2157      20    2139    2136   -2163    2157      21
    2139    2136   -2163    2157      22    2139    2145   -2154    2157      18
    2139    2145   -2154    2157      19    2139    2145    2148    2151       7
    2136    2163    2157    2160       7    2136    2163    2157    2154       7
    2136    2139   -2145    2154       7    2136    2139    2145    2148      20
    2136    2139   -2145    2148      21    2136    2139   -2145    2148      22
    2133    2136    2163    2166      15    2133    2136   -2163    2166      16
    2133    2136    2163    2157       7    2133    2136    2139    2145       7
    2133    2136    2139    2142      15    2133    2136   -2139    2142      16
    2130    2133    2136    2163      18    2130    2133   -2136    2163      19
    2130    2133    2136    2139      18    2130    2133   -2136    2139      19
    2127    2130    2133    2136      18    2127    2130   -2133    2136      19
    2124    2127    2130    2133       7    2124    2121    2118    2169      24
    2124    2121   -2118    2169      25    2124    2121   -2118    2169      26
    2121    2124    2127    2130      27    2121    2118    2169    2172      28
    2118    2121    2124    2127      29    2112    2268    2265    2271       3
    2112    2268    2265    2262       3    2109    2112    2268    2265       2
    2109    2091    2097    2169       7    2109    2091    2088    2118      32
    2109    2091   -2088    2118      33    2106    2100    2097    2169       7
    2106    2109    2112    2268       3    2103    2100    2106    2109       7
    2103    2100    2097    2169       7    2100    2106    2109    2112       7
    2100    2097    2169    2172      11    2100    2097    2169    2118      32
    2100    2097   -2169    2118      33    2100    2097   -2091    2109      20
    2100    2097   -2091    2109      21    2100    2097   -2091    2109      22
    2097    2100   -2106    2109      20    2097    2100   -2106    2109      21
    2097    2100   -2106    2109      22    2097    2169    2118    2121      34
    2097    2169   -2118    2121       3    2097    2091   -2109    2106      20
    2097    2091   -2109    2106      21    2097    2091   -2109    2106      22
    2097    2091    2109    2112       7    2097    2091   -2088    2118      32
    2097    2091   -2088    2118      33    2091    2109   -2106    2100      20
    2091    2109   -2106    2100      21    2091    2109   -2106    2100      22
    2091    2109    2112    2268       3    2091    2097    2100    2103       7
    2091    2097   -2100    2106      20    2091    2097   -2100    2106      21
    2091    2097   -2100    2106      22    2091    2097    2169    2172      11
    2091    2097   -2169    2118      32    2091    2097   -2169    2118      33
    2091    2088   -2118    2169      28    2091    2088    2118    2121      34
    2091    2088   -2118    2121       3    2088    2091    2109    2106       7
    2088    2091    2109    2112       7    2088    2091    2097    2100       7
    2088    2091   -2097    2169       7    2088    2118   -2169    2097      28
    2088    2118    2169    2172      28    2088    2118    2121    2124      24
    2088    2118   -2121    2124      25    2088    2118   -2121    2124      26
    2085    2088    2091    2109      11    2085    2088    2091    2097      11
    2085    2088    2118    2169      28    2085    2088    2118    2121      28
    2325    2322    2328    2331      15    2325    2322   -2328    2331      16
    2319    2322    2328    2331      15    2319    2322   -2328    2331      16
    2316    2313    2310    2319      15    2316    2313   -2310    2319      16
    2313    2310    2319    2322      18    2313    2310   -2319    2322      19
    2310    2319    2322    2325      17    2310    2319    2322    2328      18
    2310    2319   -2322    2328      19    2310    2304   -2301    2328      20
    2310    2304   -2301    2328      21    2310    2304   -2301    2328      22
    2307    2304    2301    2328       7    2307    2304    2310    2319      15
    2307    2304   -2310    2319      16    2307    2304    2310    2313       7
    2304    2301    2328    2331       7    2304    2301    2328    2322      20
    2304    2301   -2328    2322      21    2304    2301   -2328    2322      22
    2304    2310   -2319    2322      18    2304    2310   -2319    2322      19
    2304    2310    2313    2316       7    2301    2328    2322    2325       7
    2301    2328    2322    2319       7    2301    2304   -2310    2319       7
    2301    2304    2310    2313      20    2301    2304   -2310    2313      21
    2301    2304   -2310    2313      22    2298    2301    2328    2331      15
    2298    2301   -2328    2331      16    2298    2301    2328    2322       7
    2298    2301    2304    2310       7    2298    2301    2304    2307      15
    2298    2301   -2304    2307      16    2295    2298    2301    2328      18
    2295    2298   -2301    2328      19    2295    2298    2301    2304      18
    2295    2298   -2301    2304      19    2292    2295    2298    2301      18
    2292    2295   -2298    2301      19    2289    2292    2295    2298       7
    2289    2286    2283    2334      24    2289    2286   -2283    2334      25
    2289    2286   -2283    2334      26    2286    2289    2292    2295      27
    2286    2283    2334    2337      28    2283    2286    2289    2292      29
    2277    2433    2430    2436       3    2277    2433    2430    2427       3
    2274    2277    2433    2430       2    2274    2256    2262    2334       7
    2274    2256    2253    2283      32    2274    2256   -2253    2283      33
    2271    2265    2262    2334       7    2271    2274    2277    2433       3
    2268    2265    2271    2274       7    2268    2265    2262    2334       7
    2265    2271    2274    2277       7    2265    2262    2334    2337      11
    2265    2262    2334    2283      32    2265    2262   -2334    2283      33
    2265    2262   -2256    2274      20    2265    2262   -2256    2274      21
    2265    2262   -2256    2274      22    2262    2265   -2271    2274      20
    2262    2265   -2271    2274      21    2262    2265   -2271    2274      22
    2262    2334    2283    2286      34    2262    2334   -2283    2286       3
    2262    2256   -2274    2271      20    2262    2256   -2274    2271      21
    2262    2256   -2274    2271      22    2262    2256    2274    2277       7
    2262    2256   -2253    2283      32    2262    2256   -2253    2283      33
    2256    2274   -2271    2265      20    2256    2274   -2271    2265      21
    2256    2274   -2271    2265      22    2256    2274    2277    2433       3
    2256    2262    2265    2268       7    2256    2262   -2265    2271      20
    2256    2262   -2265    2271      21    2256    2262   -2265    2271      22
    2256    2262    2334    2337      11    2256    2262   -2334    2283      32
    2256    2262   -2334    2283      33    2256    2253   -2283    2334      28
    2256    2253    2283    2286      34    2256    2253   -2283    2286       3
    2253    2256    2274    2271       7    2253    2256    2274    2277       7
    2253    2256    2262    2265       7    2253    2256   -2262    2334       7
    2253    2283   -2334    2262      28    2253    2283    2334    2337      28
    2253    2283    2286    2289      24    2253    2283   -2286    2289      25
    2253    2283   -2286    2289      26    2250    2253    2256    2274      11
    2250    2253    2256    2262      11    2250    2253    2283    2334      28
    2250    2253    2283    2286      28    2490    2487    2493    2496      15
    2490    2487   -2493    2496      16    2484    2487    2493    2496      15
    2484    2487   -2493    2496      16    2481    2478    2475    2484      15
    2481    2478   -2475    2484      16    2478    2475    2484    2487      18
    2478    2475   -2484    2487      19    2475    2484    2487    2490      17
    2475    2484    2487    2493      18    2475    2484   -2487    2493      19
    2475    2469   -2466    2493      20    2475    2469   -2466    2493      21
    2475    2469   -2466    2493      22    2472    2469    2466    2493       7
    2472    2469    2475    2484      15    2472    2469   -2475    2484      16
    2472    2469    2475    2478       7    2469    2466    2493    2496       7
    2469    2466    2493    2487      20    2469    2466   -2493    2487      21
    2469    2466   -2493    2487      22    2469    2475   -2484    2487      18
    2469    2475   -2484    2487      19    2469    2475    2478    2481       7
    2466    2493    2487    2490       7    2466    2493    2487    2484       7
    2466    2469   -2475    2484       7    2466    2469    2475    2478      20
    2466    2469   -2475    2478      21    2466    2469   -2475    2478      22
    2463    2466    2493    2496      15    2463    2466   -2493    2496      16
    2463    2466    2493    2487       7    2463    2466    2469    2475       7
    2463    2466    2469    2472      15    2463    2466   -2469    2472      16
    2460    2463    2466    2493      18    2460    2463   -2466    2493      19
    2460    2463    2466    2469      18    2460    2463   -2466    2469      19
    2457    2460    2463    2466      18    2457    2460   -2463    2466      19
    2454    2457    2460    2463       7    2454    2451    2448    2499      24
    2454    2451   -2448    2499      25    2454    2451   -2448    2499      26
    2451    2454    2457    2460      27    2451    2448    2499    2502      28
    2448    2451    2454    2457      29    2442    2598    2595    2601       3
    2442    2598    2595    2592       3    2439    2442    2598    2595       2
    2439    2421    2427    2499       7    2439    2421    2418    2448      32
    2439    2421   -2418    2448      33    2436    2430    2427    2499       7
    2436    2439    2442    2598       3    2433    2430    2436    2439       7
    2433    2430    2427    2499       7    2430    2436    2439    2442       7
    2430    2427    2499    2502      11    2430    2427    2499    2448      32
    2430    2427   -2499    2448      33    2430    2427   -2421    2439      20
    2430    2427   -2421    2439      21    2430    2427   -2421    2439      22
    2427    2430   -2436    2439      20    2427    2430   -2436    2439      21
    2427    2430   -2436    2439      22    2427    2499    2448    2451      34
    2427    2499   -2448    2451       3    2427    2421   -2439    2436      20
    2427    2421   -2439    2436      21    2427    2421   -2439    2436      22
    2427    2421    2439    2442       7    2427    2421   -2418    2448      32
    2427    2421   -2418    2448      33    2421    2439   -2436    2430      20
    2421    2439   -2436    2430      21    2421    2439   -2436    2430      22
    2421    2439    2442    2598       3    2421    2427    2430    2433       7
    2421    2427   -2430    2436      20    2421    2427   -2430    2436      21
    2421    2427   -2430    2436      22    2421    2427    2499    2502      11
    2421    2427   -2499    2448      32    2421    2427   -2499    2448      33
    2421    2418   -2448    2499      28    2421    2418    2448    2451      34
    2421    2418   -2448    2451       3    2418    2421    2439    2436       7
    2418    2421    2439    2442       7    2418    2421    2427    2430       7
    2418    2421   -2427    2499       7    2418    2448   -2499    2427      28
    2418    2448    2499    2502      28    2418    2448    2451    2454      24
    2418    2448   -2451    2454      25    2418    2448   -2451    2454      26
    2415    2418    2421    2439      11    2415    2418    2421    2427      11
    2415    2418    2448    2499      28    2415    2418    2448    2451      28
    2655    2652    2658    2661      15    2655    2652   -2658    2661      16
    2649    2652    2658    2661      15    2649    2652   -2658    2661      16
    2646    2643    2640    2649      15    2646    2643   -2640    2649      16
    2643    2640    2649    2652      18    2643    2640   -2649    2652      19
    2640    2649    2652    2655      17    2640    2649    2652    2658      18
    2640    2649   -2652    2658      19    2640    2634   -2631    2658      20
    2640    2634   -2631    2658      21    2640    2634   -2631    2658      22
    2637    2634    2631    2658       7    2637    2634    2640    2649      15
    2637    2634   -2640    2649      16    2637    2634    2640    2643       7
    2634    2631    2658    2661       7    2634    2631    2658    2652      20
    2634    2631   -2658    2652      21    2634    2631   -2658    2652      22
    2634    2640   -2649    2652      18    2634    2640   -2649    2652      19
    2634    2640    2643    2646       7    2631    2658    2652    2655       7
    2631    2658    2652    2649       7    2631    2634   -2640    2649       7
    2631    2634    2640    2643      20    2631    2634   -2640    2643      21
    2631    2634   -2640    2643      22    2628    2631    2658    2661      15
    2628    2631   -2658    2661      16    2628    2631    2658    2652       7
    2628    2631    2634    2640       7    2628    2631    2634    2637      15
    2628    2631   -2634    2637      16    2625    2628    2631    2658      18
    2625    2628   -2631    2658      19    2625    2628    2631    2634      18
    2625    2628   -2631    2634      19    2622    2625    2628    2631      18
    2622    2625   -2628    2631      19    2619    2622    2625    2628       7
    2619    2616    2613    2664      24    2619    2616   -2613    2664      25
    2619    2616   -2613    2664      26    2616    2619    2622    2625      27
    2616    2613    2664    2667      28    2613    2616    2619    2622      29
    2607    2763    2760    2766       3    2607    2763    2760    2757       3
    2604    2607    2763    2760       2    2604    2586    2592    2664       7
    2604    2586    2583    2613      32    2604    2586   -2583    2613      33
    2601    2595    2592    2664       7    2601    2604    2607    2763       3
    2598    2595    2601    2604       7    2598    2595    2592    2664       7
    2595    2601    2604    2607       7    2595    2592    2664    2667      11
    2595    2592    2664    2613      32    2595    2592   -2664    2613      33
    2595    2592   -2586    2604      20    2595    2592   -2586    2604      21
    2595    2592   -2586    2604      22    2592    2595   -2601    2604      20
    2592    2595   -2601    2604      21    2592    2595   -2601    2604      22
    2592    2664    2613    2616      34    2592    2664   -2613    2616       3
    2592    2586   -2604    2601      20    2592    2586   -2604    2601      21
    2592    2586   -2604    2601      22    2592    2586    2604    2607       7
    2592    2586   -2583    2613      32    2592    2586   -2583    2613      33
    2586    2604   -2601    2595      20    2586    2604   -2601    2595      21
    2586    2604   -2601    2595      22    2586    2604    2607    2763       3
    2586    2592    2595    2598       7    2586    2592   -2595    2601      20
    2586    2592   -2595    2601      21    2586    2592   -2595    2601      22
    2586    2592    2664    2667      11    2586    2592   -2664    2613      32
    2586    2592   -2664    2613      33    2586    2583   -2613    2664      28
    2586    2583    2613    2616      34    2586    2583   -2613    2616       3
    2583    2586    2604    2601       7    2583    2586    2604    2607       7
    2583    2586    2592    2595       7    2583    2586   -2592    2664       7
    2583    2613   -2664    2592      28    2583    2613    2664    2667      28
    2583    2613    2616    2619      24    2583    2613   -2616    2619      25
    2583    2613   -2616    2619      26    2580    2583    2586    2604      11
    2580    2583    2586    2592      11    2580    2583    2613    2664      28
    2580    2583    2613    2616      28    2820    2817    2823    2826      15
    2820    2817   -2823    2826      16    2814    2817    2823    2826      15
    2814    2817   -2823    2826      16    2811    2808    2805    2814      15
    2811    2808   -2805    2814      16    2808    2805    2814    2817      18
    2808    2805   -2814    2817      19    2805    2814    2817    2820      17
    2805    2814    2817    2823      18    2805    2814   -2817    2823      19
    2805    2799   -2796    2823      20    2805    2799   -2796    2823      21
    2805    2799   -2796    2823      22    2802    2799    2796    2823       7
    2802    2799    2805    2814      15    2802    2799   -2805    2814      16
    2802    2799    2805    2808       7    2799    2796    2823    2826       7
    2799    2796    2823    2817      20    2799    2796   -2823    2817      21
    2799    2796   -2823    2817      22    2799    2805   -2814    2817      18
    2799    2805   -2814    2817      19    2799    2805    2808    2811       7
    2796    2823    2817    2820       7    2796    2823    2817    2814       7
    2796    2799   -2805    2814       7    2796    2799    2805    2808      20
    2796    2799   -2805    2808      21    2796    2799   -2805    2808      22
    2793    2796    2823    2826      15    2793    2796   -2823    2826      16
    2793    2796    2823    2817       7    2793    2796    2799    2805       7
    2793    2796    2799    2802      15    2793    2796   -2799    2802      16
    2790    2793    2796    2823      18    2790    2793   -2796    2823      19
    2790    2793    2796    2799      18    2790    2793   -2796    2799      19
    2787    2790    2793    2796      18    2787    2790   -2793    2796      19
    2784    2787    2790    2793       7    2784    2781    2778    2829      24
    2784    2781   -2778    2829      25    2784    2781   -2778    2829      26
    2781    2784    2787    2790      27    2781    2778    2829    2832      28
    2778    2781    2784    2787      29    2772    2928    2925    2931       3
    2772    2928    2925    2922       3    2769    2772    2928    2925       2
    2769    2751    2757    2829       7    2769    2751    2748    2778      32
    2769    2751   -2748    2778      33    2766    2760    2757    2829       7
    2766    2769    2772    2928       3    2763    2760    2766    2769       7
    2763    2760    2757    2829       7    2760    2766    2769    2772       7
    2760    2757    2829    2832      11    2760    2757    2829    2778      32
    2760    2757   -2829    2778      33    2760    2757   -2751    2769      20
    2760    2757   -2751    2769      21    2760    2757   -2751    2769      22
    2757    2760   -2766    2769      20    2757    2760   -2766    2769      21
    2757    2760   -2766    2769      22    2757    2829    2778    2781      34
    2757    2829   -2778    2781       3    2757    2751   -2769    2766      20
    2757    2751   -2769    2766      21    2757    2751   -2769    2766      22
    2757    2751    2769    2772       7    2757    2751   -2748    2778      32
    2757    2751   -2748    2778      33    2751    2769   -2766    2760      20
    2751    2769   -2766    2760      21    2751    2769   -2766    2760      22
    2751    2769    2772    2928       3    2751    2757    2760    2763       7
    2751    2757   -2760    2766      20    2751    2757   -2760    2766      21
    2751    2757   -2760    2766      22    2751    2757    2829    2832      11
    2751    2757   -2829    2778      32    2751    2757   -2829    2778      33
    2751    2748   -2778    2829      28    2751    2748    2778    2781      34
    2751    2748   -2778    2781       3    2748    2751    2769    2766       7
    2748    2751    2769    2772       7    2748    2751    2757    2760       7
    2748    2751   -2757    2829       7    2748    2778   -2829    2757      28
    2748    2778    2829    2832      28    2748    2778    2781    2784      24
    2748    2778   -2781    2784      25    2748    2778   -2781    2784      26
    2745    2748    2751    2769      11    2745    2748    2751    2757      11
    2745    2748    2778    2829      28    2745    2748    2778    2781      28
    2985    2982    2988    2991      15    2985    2982   -2988    2991      16
    2979    2982    2988    2991      15    2979    2982   -2988    2991      16
    2976    2973    2970    2979      15    2976    2973   -2970    2979      16
    2973    2970    2979    2982      18    2973    2970   -2979    2982      19
    2970    2979    2982    2985      17    2970    2979    2982    2988      18
    2970    2979   -2982    2988      19    2970    2964   -2961    2988      20
    2970    2964   -2961    2988      21    2970    2964   -2961    2988      22
    2967    2964    2961    2988       7    2967    2964    2970    2979      15
    2967    2964   -2970    2979      16    2967    2964    2970    2973       7
    2964    2961    2988    2991       7    2964    2961    2988    2982      20
    2964    2961   -2988    2982      21    2964    2961   -2988    2982      22
    2964    2970   -2979    2982      18    2964    2970   -2979    2982      19
    2964    2970    2973    2976       7    2961    2988    2982    2985       7
    2961    2988    2982    2979       7    2961    2964   -2970    2979       7
    2961    2964    2970    2973      20    2961    2964   -2970    2973      21
    2961    2964   -2970    2973      22    2958    2961    2988    2991      15
    2958    2961   -2988    2991      16    2958    2961    2988    2982       7
    2958    2961    2964    2970       7    2958    2961    2964    2967      15
    2958    2961   -2964    2967      16    2955    2958    2961    2988      18
    2955    2958   -2961    2988      19    2955    2958    2961    2964      18
    2955    2958   -2961    2964      19    2952    2955    2958    2961      18
    2952    2955   -2958    2961      19    2949    2952    2955    2958       7
    2949    2946    2943    2994      24    2949    2946   -2943    2994      25
    2949    2946   -2943    2994      26    2946    2949    2952    2955      27
    2946    2943    2994    2997      28    2943    2946    2949    2952      29
    2937    3093    3090    3096       3    2937    3093    3090    3087       3
    2934    2937    3093    3090       2    2934    2916    2922    2994       7
    2934    2916    2913    2943      32    2934    2916   -2913    2943      33
    2931    2925    2922    2994       7    2931    2934    2937    3093       3
    2928    2925    2931    2934       7    2928    2925    2922    2994       7
    2925    2931    2934    2937       7    2925    2922    2994    2997      11
    2925    2922    2994    2943      32    2925    2922   -2994    2943      33
    2925    2922   -2916    2934      20    2925    2922   -2916    2934      21
    2925    2922   -2916    2934      22    2922    2925   -2931    2934      20
    2922    2925   -2931    2934      21    2922    2925   -2931    2934      22
    2922    2994    2943    2946      34    2922    2994   -2943    2946       3
    2922    2916   -2934    2931      20    2922    2916   -2934    2931      21
    2922    2916   -2934    2931      22    2922    2916    2934    2937       7
    2922    2916   -2913    2943      32    2922    2916   -2913    2943      33
    2916    2934   -2931    2925      20    2916    2934   -2931    2925      21
    2916    2934   -2931    2925      22    2916    2934    2937    3093       3
    2916    2922    2925    2928       7    2916    2922   -2925    2931      20
    2916    2922   -2925    2931      21    2916    2922   -2925    2931      22
    2916    2922    2994    2997      11    2916    2922   -2994    2943      32
    2916    2922   -2994    2943      33    2916    2913   -2943    2994      28
    2916    2913    2943    2946      34    2916    2913   -2943    2946       3
    2913    2916    2934    2931       7    2913    2916    2934    2937       7
    2913    2916    2922    2925       7    2913    2916   -2922    2994       7
    2913    2943   -2994    2922      28    2913    2943    2994    2997      28
    2913    2943    2946    2949      24    2913    2943   -2946    2949      25
    2913    2943   -2946    2949      26    2910    2913    2916    2934      11
    2910    2913    2916    2922      11    2910    2913    2943    2994      28
    2910    2913    2943    2946      28    3150    3147    3153    3156      15
    3150    3147   -3153    3156      16    3144    3147    3153    3156      15
    3144    3147   -3153    3156      16    3141    3138    3135    3144      15
    3141    3138   -3135    3144      16    3138    3135    3144    3147      18
    3138    3135   -3144    3147      19    3135    3144    3147    3150      17
    3135    3144    3147    3153      18    3135    3144   -3147    3153      19
    3135    3129   -3126    3153      20    3135    3129   -3126    3153      21
    3135    3129   -3126    3153      22    3132    3129    3126    3153       7
    3132    3129    3135    3144      15    3132    3129   -3135    3144      16
    3132    3129    3135    3138       7    3129    3126    3153    3156       7
    3129    3126    3153    3147      20    3129    3126   -3153    3147      21
    3129    3126   -3153    3147      22    3129    3135   -3144    3147      18
    3129    3135   -3144    3147      19    3129    3135    3138    3141       7
    3126    3153    3147    3150       7    3126    3153    3147    3144       7
    3126    3129   -3135    3144       7    3126    3129    3135    3138      20
    3126    3129   -3135    3138      21    3126    3129   -3135    3138      22
    3123    3126    3153    3156      15    3123    3126   -3153    3156      16
    3123    3126    3153    3147       7    3123    3126    3129    3135       7
    3123    3126    3129    3132      15    3123    3126   -3129    3132      16
    3120    3123    3126    3153      18    3120    3123   -3126    3153      19
    3120    3123    3126    3129      18    3120    3123   -3126    3129      19
    3117    3120    3123    3126      18    3117    3120   -3123    3126      19
    3114    3117    3120    3123       7    3114    3111    3108    3159      24
    3114    3111   -3108    3159      25    3114    3111   -3108    3159      26
    3111    3114    3117    3120      27    3111    3108    3159    3162      28
    3108    3111    3114    3117      29    3102    3258    3255    3261       3
    3102    3258    3255    3252       3    3099    3102    3258    3255       2
    3099    3081    3087    3159       7    3099    3081    3078    3108      32
    3099    3081   -3078    3108      33    3096    3090    3087    3159       7
    3096    3099    3102    3258       3    3093    3090    3096    3099       7
    3093    3090    3087    3159       7    3090    3096    3099    3102       7
    3090    3087    3159    3162      11    3090    3087    3159    3108      32
    3090    3087   -3159    3108      33    3090    3087   -3081    3099      20
    3090    3087   -3081    3099      21    3090    3087   -3081    3099      22
    3087    3090   -3096    3099      20    3087    3090   -3096    3099      21
    3087    3090   -3096    3099      22    3087    3159    3108    3111      34
    3087    3159   -3108    3111       3    3087    3081   -3099    3096      20
    3087    3081   -3099    3096      21    3087    3081   -3099    3096      22
    3087    3081    3099    3102       7    3087    3081   -3078    3108      32
    3087    3081   -3078    3108      33    3081    3099   -3096    3090      20
    3081    3099   -3096    3090      21    3081    3099   -3096    3090      22
    3081    3099    3102    3258       3    3081    3087    3090    3093       7
    3081    3087   -3090    3096      20    3081    3087   -3090    3096      21
    3081    3087   -3090    3096      22    3081    3087    3159    3162      11
    3081    3087   -3159    3108      32    3081    3087   -3159    3108      33
    3081    3078   -3108    3159      28    3081    3078    3108    3111      34
    3081    3078   -3108    3111       3    3078    3081    3099    3096       7
    3078    3081    3099    3102       7    3078    3081    3087    3090       7
    3078    3081   -3087    3159       7    3078    3108   -3159    3087      28
    3078    3108    3159    3162      28    3078    3108    3111    3114      24
    3078    3108   -3111    3114      25    3078    3108   -3111    3114      26
    3075    3078    3081    3099      11    3075    3078    3081    3087      11
    3075    3078    3108    3159      28    3075    3078    3108    3111      28
    3315    3312    3318    3321      15    3315    3312   -3318    3321      16
    3309    3312    3318    3321      15    3309    3312   -3318    3321      16
    3306    3303    3300    3309      15    3306    3303   -3300    3309      16
    3303    3300    3309    3312      18    3303    3300   -3309    3312      19
    3300    3309    3312    3315      17    3300    3309    3312    3318      18
    3300    3309   -3312    3318      19    3300    3294   -3291    3318      20
    3300    3294   -3291    3318      21    3300    3294   -3291    3318      22
    3297    3294    3291    3318       7    3297    3294    3300    3309      15
    3297    3294   -3300    3309      16    3297    3294    3300    3303       7
    3294    3291    3318    3321       7    3294    3291    3318    3312      20
    3294    3291   -3318    3312      21    3294    3291   -3318    3312      22
    3294    3300   -3309    3312      18    3294    3300   -3309    3312      19
    3294    3300    3303    3306       7    3291    3318    3312    3315       7
    3291    3318    3312    3309       7    3291    3294   -3300    3309       7
    3291    3294    3300    3303      20    3291    3294   -3300    3303      21
    3291    3294   -3300    3303      22    3288    3291    3318    3321      15
    3288    3291   -3318    3321      16    3288    3291    3318    3312       7
    3288    3291    3294    3300       7    3288    3291    3294    3297      15
    3288    3291   -3294    3297      16    3285    3288    3291    3318      18
    3285    3288   -3291    3318      19    3285    3288    3291    3294      18
    3285    3288   -3291    3294      19    3282    3285    3288    3291      18
    3282    3285   -3288    3291      19    3279    3282    3285    3288       7
    3279    3276    3273    3324      24    3279    3276   -3273    3324      25
    3279    3276   -3273    3324      26    3276    3279    3282    3285      27
    3276    3273    3324    3327      28    3273    3276    3279    3282      29
    3264    3246    3252    3324       7    3264    3246    3243    3273      32
    3264    3246   -3243    3273      33    3261    3255    3252    3324       7
    3261    3264    3267    3405       3    3258    3255    3261    3264       7
    3258    3255    3252    3324       7    3255    3261    3264    3267       7
    3255    3252    3324    3327      11    3255    3252    3324    3273      32
    3255    3252   -3324    3273      33    3255    3252   -3246    3264      20
    3255    3252   -3246    3264      21    3255    3252   -3246    3264      22
    3252    3255   -3261    3264      20    3252    3255   -3261    3264      21
    3252    3255   -3261    3264      22    3252    3324    3273    3276      34
    3252    3324   -3273    3276       3    3252    3246   -3264    3261      20
    3252    3246   -3264    3261      21    3252    3246   -3264    3261      22
    3252    3246    3264    3267       7    3252    3246   -3243    3273      32
    3252    3246   -3243    3273      33    3246    3264   -3261    3255      20
    3246    3264   -3261    3255      21    3246    3264   -3261    3255      22
    3246    3264    3267    3405       3    3246    3252    3255    3258       7
    3246    3252   -3255    3261      20    3246    3252   -3255    3261      21
    3246    3252   -3255    3261      22    3246    3252    3324    3327      11
    3246    3252   -3324    3273      32    3246    3252   -3324    3273      33
    3246    3243   -3273    3324      28    3246    3243    3273    3276      34
    3246    3243   -3273    3276       3    3243    3246    3264    3261       7
    3243    3246    3264    3267       7    3243    3246    3252    3255       7
    3243    3246   -3252    3324       7    3243    3273   -3324    3252      28
    3243    3273    3324    3327      28    3243    3273    3276    3279      24
    3243    3273   -3276    3279      25    3243    3273   -3276    3279      26
    3240    3243    3246    3264      11    3240    3243    3246    3252      11
    3240    3243    3273    3324      28    3240    3243    3273    3276      28
    3414    3441    3438    3444       3    3414    3441    3438    3435       3
    3498    3495    3501    3504      15    3498    3495   -3501    3504      16
    3492    3495    3501    3504      15    3492    3495   -3501    3504      16
    3489    3486    3483    3492      15    3489    3486   -3483    3492      16
    3486    3483    3492    3495      18    3486    3483   -3492    3495      19
    3483    3492    3495    3498      17    3483    3492    3495    3501      18
    3483    3492   -3495    3501      19    3483    3477   -3474    3501      20
    3483    3477   -3474    3501      21    3483    3477   -3474    3501      22
    3480    3477    3474    3501       7    3480    3477    3483    3492      15
    3480    3477   -3483    3492      16    3480    3477    3483    3486       7
    3477    3474    3501    3504       7    3477    3474    3501    3495      20
    3477    3474   -3501    3495      21    3477    3474   -3501    3495      22
    3477    3483   -3492    3495      18    3477    3483   -3492    3495      19
    3477    3483    3486    3489       7    3474    3501    3495    3498       7
    3474    3501    3495    3492       7    3474    3477   -3483    3492       7
    3474    3477    3483    3486      20    3474    3477   -3483    3486      21
    3474    3477   -3483    3486      22    3471    3474    3501    3504      15
    3471    3474   -3501    3504      16    3471    3474    3501    3495       7
    3471    3474    3477    3483       7    3471    3474    3477    3480      15
    3471    3474   -3477    3480      16    3468    3471    3474    3501      18
    3468    3471   -3474    3501      19    3468    3471    3474    3477      18
    3468    3471   -3474    3477      19    3465    3468    3471    3474      18
    3465    3468   -3471    3474      19    3462    3465    3468    3471       7
    3462    3459    3456    3507      24    3462    3459   -3456    3507      25
    3462    3459   -3456    3507      26    3459    3462    3465    3468      27
    3459    3456    3507    3510      28    3456    3459    3462    3465      29
    3450    3606    3603    3609       3    3450    3606    3603    3600       3
    3447    3450    3606    3603       2    3447    3429    3435    3507       7
    3447    3429    3426    3456      32    3447    3429   -3426    3456      33
    3444    3438    3435    3507       7    3444    3447    3450    3606       3
    3441    3438    3444    3447       7    3441    3438    3435    3507       7
    3438    3444    3447    3450       7    3438    3435    3507    3510      11
    3438    3435    3507    3456      32    3438    3435   -3507    3456      33
    3438    3435   -3429    3447      20    3438    3435   -3429    3447      21
    3438    3435   -3429    3447      22    3435    3438   -3444    3447      20
    3435    3438   -3444    3447      21    3435    3438   -3444    3447      22
    3435    3507    3456    3459      34    3435    3507   -3456    3459       3
    3435    3429   -3447    3444      20    3435    3429   -3447    3444      21
    3435    3429   -3447    3444      22    3435    3429    3447    3450       7
    3435    3429   -3426    3456      32    3435    3429   -3426    3456      33
    3429    3447   -3444    3438      20    3429    3447   -3444    3438      21
    3429    3447   -3444    3438      22    3429    3447    3450    3606       3
    3429    3435    3438    3441       7    3429    3435   -3438    3444      20
    3429    3435   -3438    3444      21    3429    3435   -3438    3444      22
    3429    3435    3507    3510      11    3429    3435   -3507    3456      32
    3429    3435   -3507    3456      33    3429    3426   -3456    3507      28
    3429    3426    3456    3459      34    3429    3426   -3456    3459       3
    3426    3429    3447    3444       7    3426    3429    3447    3450       7
    3426    3429    3435    3438       7    3426    3429   -3435    3507       7
    3426    3456   -3507    3435      28    3426    3456    3507    3510      28
    3426    3456    3459    3462      24    3426    3456   -3459    3462      25
    3426    3456   -3459    3462      26    3423    3426    3429    3447      11
    3423    3426    3429    3435      11    3423    3426    3456    3507      28
    3423    3426    3456    3459      28    3663    3660    3666    3669      15
    3663    3660   -3666    3669      16    3657    3660    3666    3669      15
    3657    3660   -3666    3669      16    3654    3651    3648    3657      15
    3654    3651   -3648    3657      16    3651    3648    3657    3660      18
    3651    3648   -3657    3660      19    3648    3657    3660    3663      17
    3648    3657    3660    3666      18    3648    3657   -3660    3666      19
    3648    3642   -3639    3666      20    3648    3642   -3639    3666      21
    3648    3642   -3639    3666      22    3645    3642    3639    3666       7
    3645    3642    3648    3657      15    3645    3642   -3648    3657      16
    3645    3642    3648    3651       7    3642    3639    3666    3669       7
    3642    3639    3666    3660      20    3642    3639   -3666    3660      21
    3642    3639   -3666    3660      22    3642    3648   -3657    3660      18
    3642    3648   -3657    3660      19    3642    3648    3651    3654       7
    3639    3666    3660    3663       7    3639    3666    3660    3657       7
    3639    3642   -3648    3657       7    3639    3642    3648    3651      20
    3639    3642   -3648    3651      21    3639    3642   -3648    3651      22
    3636    3639    3666    3669      15    3636    3639   -3666    3669      16
    3636    3639    3666    3660       7    3636    3639    3642    3648       7
    3636    3639    3642    3645      15    3636    3639   -3642    3645      16
    3633    3636    3639    3666      18    3633    3636   -3639    3666      19
    3633    3636    3639    3642      18    3633    3636   -3639    3642      19
    3630    3633    3636    3639      18    3630    3633   -3636    3639      19
    3627    3630    3633    3636       7    3627    3624    3621    3672      24
    3627    3624   -3621    3672      25    3627    3624   -3621    3672      26
    3624    3627    3630    3633      27    3624    3621    3672    3675      28
    3621    3624    3627    3630      29    3615    3771    3768    3774       3
    3615    3771    3768    3765       3    3612    3615    3771    3768       2
    3612    3594    3600    3672       7    3612    3594    3591    3621      32
    3612    3594   -3591    3621      33    3609    3603    3600    3672       7
    3609    3612    3615    3771       3    3606    3603    3609    3612       7
    3606    3603    3600    3672       7    3603    3609    3612    3615       7
    3603    3600    3672    3675      11    3603    3600    3672    3621      32
    3603    3600   -3672    3621      33    3603    3600   -3594    3612      20
    3603    3600   -3594    3612      21    3603    3600   -3594    3612      22
    3600    3603   -3609    3612      20    3600    3603   -3609    3612      21
    3600    3603   -3609    3612      22    3600    3672    3621    3624      34
    3600    3672   -3621    3624       3    3600    3594   -3612    3609      20
    3600    3594   -3612    3609      21    3600    3594   -3612    3609      22
    3600    3594    3612    3615       7    3600    3594   -3591    3621      32
    3600    3594   -3591    3621      33    3594    3612   -3609    3603      20
    3594    3612   -3609    3603      21    3594    3612   -3609    3603      22
    3594    3612    3615    3771       3    3594    3600    3603    3606       7
    3594    3600   -3603    3609      20    3594    3600   -3603    3609      21
    3594    3600   -3603    3609      22    3594    3600    3672    3675      11
    3594    3600   -3672    3621      32    3594    3600   -3672    3621      33
    3594    3591   -3621    3672      28    3594    3591    3621    3624      34
    3594    3591   -3621    3624       3    3591    3594    3612    3609       7
    3591    3594    3612    3615       7    3591    3594    3600    3603       7
    3591    3594   -3600    3672       7    3591    3621   -3672    3600      28
    3591    3621    3672    3675      28    3591    3621    3624    3627      24
    3591    3621   -3624    3627      25    3591    3621   -3624    3627      26
    3588    3591    3594    3612      11    3588    3591    3594    3600      11
    3588    3591    3621    3672      28    3588    3591    3621    3624      28
    3828    3825    3831    3834      15    3828    3825   -3831    3834      16
    3822    3825    3831    3834      15    3822    3825   -3831    3834      16
    3819    3816    3813    3822      15    3819    3816   -3813    3822      16
    3816    3813    3822    3825      18    3816    3813   -3822    3825      19
    3813    3822    3825    3828      17    3813    3822    3825    3831      18
    3813    3822   -3825    3831      19    3813    3807   -3804    3831      20
    3813    3807   -3804    3831      21    3813    3807   -3804    3831      22
    3810    3807    3804    3831       7    3810    3807    3813    3822      15
    3810    3807   -3813    3822      16    3810    3807    3813    3816       7
    3807    3804    3831    3834       7    3807    3804    3831    3825      20
    3807    3804   -3831    3825      21    3807    3804   -3831    3825      22
    3807    3813   -3822    3825      18    3807    3813   -3822    3825      19
    3807    3813    3816    3819       7    3804    3831    3825    3828       7
    3804    3831    3825    3822       7    3804    3807   -3813    3822       7
    3804    3807    3813    3816      20    3804    3807   -3813    3816      21
    3804    3807   -3813    3816      22    3801    3804    3831    3834      15
    3801    3804   -3831    3834      16    3801    3804    3831    3825       7
    3801    3804    3807    3813       7    3801    3804    3807    3810      15
    3801    3804   -3807    3810      16    3798    3801    3804    3831      18
    3798    3801   -3804    3831      19    3798    3801    3804    3807      18
    3798    3801   -3804    3807      19    3795    3798    3801    3804      18
    3795    3798   -3801    3804      19    3792    3795    3798    3801       7
    3792    3789    3786    3837      24    3792    3789   -3786    3837      25
    3792    3789   -3786    3837      26    3789    3792    3795    3798      27
    3789    3786    3837    3840      28    3786    3789    3792    3795      29
    3780    3936    3933    3939       3    3780    3936    3933    3930       3
    3777    3780    3936    3933       2    3777    3759    3765    3837       7
    3777    3759    3756    3786      32    3777    3759   -3756    3786      33
    3774    3768    3765    3837       7    3774    3777    3780    3936       3
    3771    3768    3774    3777       7    3771    3768    3765    3837       7
    3768    3774    3777    3780       7    3768    3765    3837    3840      11
    3768    3765    3837    3786      32    3768    3765   -3837    3786      33
    3768    3765   -3759    3777      20    3768    3765   -3759    3777      21
    3768    3765   -3759    3777      22    3765    3768   -3774    3777      20
    3765    3768   -3774    3777      21    3765    3768   -3774    3777      22
    3765    3837    3786    3789      34    3765    3837   -3786    3789       3
    3765    3759   -3777    3774      20    3765    3759   -3777    3774      21
    3765    3759   -3777    3774      22    3765    3759    3777    3780       7
    3765    3759   -3756    3786      32    3765    3759   -3756    3786      33
    3759    3777   -3774    3768      20    3759    3777   -3774    3768      21
    3759    3777   -3774    3768      22    3759    3777    3780    3936       3
    3759    3765    3768    3771       7    3759    3765   -3768    3774      20
    3759    3765   -3768    3774      21    3759    3765   -3768    3774      22
    3759    3765    3837    3840      11    3759    3765   -3837    3786      32
    3759    3765   -3837    3786      33    3759    3756   -3786    3837      28
    3759    3756    3786    3789      34    3759    3756   -3786    3789       3
    3756    3759    3777    3774       7    3756    3759    3777    3780       7
    3756    3759    3765    3768       7    3756    3759   -3765    3837       7
    3756    3786   -3837    3765      28    3756    3786    3837    3840      28
    3756    3786    3789    3792      24    3756    3786   -3789    3792      25
    3756    3786   -3789    3792      26    3753    3756    3759    3777      11
    3753    3756    3759    3765      11    3753    3756    3786    3837      28
    3753    3756    3786    3789      28    3993    3990    3996    3999      15
    3993    3990   -3996    3999      16    3987    3990    3996    3999      15
    3987    3990   -3996    3999      16    3984    3981    3978    3987      15
    3984    3981   -3978    3987      16    3981    3978    3987    3990      18
    3981    3978   -3987    3990      19    3978    3987    3990    3993      17
    3978    3987    3990    3996      18    3978    3987   -3990    3996      19
    3978    3972   -3969    3996      20    3978    3972   -3969    3996      21
    3978    3972   -3969    3996      22    3975    3972    3969    3996       7
    3975    3972    3978    3987      15    3975    3972   -3978    3987      16
    3975    3972    3978    3981       7    3972    3969    3996    3999       7
    3972    3969    3996    3990      20    3972    3969   -3996    3990      21
    3972    3969   -3996    3990      22    3972    3978   -3987    3990      18
    3972    3978   -3987    3990      19    3972    3978    3981    3984       7
    3969    3996    3990    3993       7    3969    3996    3990    3987       7
    3969    3972   -3978    3987       7    3969    3972    3978    3981      20
    3969    3972   -3978    3981      21    3969    3972   -3978    3981      22
    3966    3969    3996    3999      15    3966    3969   -3996    3999      16
    3966    3969    3996    3990       7    3966    3969    3972    3978       7
    3966    3969    3972    3975      15    3966    3969   -3972    3975      16
    3963    3966    3969    3996      18    3963    3966   -3969    3996      19
    3963    3966    3969    3972      18    3963    3966   -3969    3972      19
    3960    3963    3966    3969      18    3960    3963   -3966    3969      19
    3957    3960    3963    3966       7    3957    3954    3951    4002      24
    3957    3954   -3951    4002      25    3957    3954   -3951    4002      26
    3954    3957    3960    3963      27    3954    3951    4002    4005      28
    3951    3954    3957    3960      29    3945    4101    4098    4104       3
    3945    4101    4098    4095       3    3942    3945    4101    4098       2
    3942    3924    3930    4002       7    3942    3924    3921    3951      32
    3942    3924   -3921    3951      33    3939    3933    3930    4002       7
    3939    3942    3945    4101       3    3936    3933    3939    3942       7
    3936    3933    3930    4002       7    3933    3939    3942    3945       7
    3933    3930    4002    4005      11    3933    3930    4002    3951      32
    3933    3930   -4002    3951      33    3933    3930   -3924    3942      20
    3933    3930   -3924    3942      21    3933    3930   -3924    3942      22
    3930    3933   -3939    3942      20    3930    3933   -3939    3942      21
    3930    3933   -3939    3942      22    3930    4002    3951    3954      34
    3930    4002   -3951    3954       3    3930    3924   -3942    3939      20
    3930    3924   -3942    3939      21    3930    3924   -3942    3939      22
    3930    3924    3942    3945       7    3930    3924   -3921    3951      32
    3930    3924   -3921    3951      33    3924    3942   -3939    3933      20
    3924    3942   -3939    3933      21    3924    3942   -3939    3933      22
    3924    3942    3945    4101       3    3924    3930    3933    3936       7
    3924    3930   -3933    3939      20    3924    3930   -3933    3939      21
    3924    3930   -3933    3939      22    3924    3930    4002    4005      11
    3924    3930   -4002    3951      32    3924    3930   -4002    3951      33
    3924    3921   -3951    4002      28    3924    3921    3951    3954      34
    3924    3921   -3951    3954       3    3921    3924    3942    3939       7
    3921    3924    3942    3945       7    3921    3924    3930    3933       7
    3921    3924   -3930    4002       7    3921    3951   -4002    3930      28
    3921    3951    4002    4005      28    3921    3951    3954    3957      24
    3921    3951   -3954    3957      25    3921    3951   -3954    3957      26
    3918    3921    3924    3942      11    3918    3921    3924    3930      11
    3918    3921    3951    4002      28    3918    3921    3951    3954      28
    4158    4155    4161    4164      15    4158    4155   -4161    4164      16
    4152    4155    4161    4164      15    4152    4155   -4161    4164      16
    4149    4146    4143    4152      15    4149    4146   -4143    4152      16
    4146    4143    4152    4155      18    4146    4143   -4152    4155      19
    4143    4152    4155    4158      17    4143    4152    4155    4161      18
    4143    4152   -4155    4161      19    4143    4137   -4134    4161      20
    4143    4137   -4134    4161      21    4143    4137   -4134    4161      22
    4140    4137    4134    4161       7    4140    4137    4143    4152      15
    4140    4137   -4143    4152      16    4140    4137    4143    4146       7
    4137    4134    4161    4164       7    4137    4134    4161    4155      20
    4137    4134   -4161    4155      21    4137    4134   -4161    4155      22
    4137    4143   -4152    4155      18    4137    4143   -4152    4155      19
    4137    4143    4146    4149       7    4134    4161    4155    4158       7
    4134    4161    4155    4152       7    4134    4137   -4143    4152       7
    4134    4137    4143    4146      20    4134    4137   -4143    4146      21
    4134    4137   -4143    4146      22    4131    4134    4161    4164      15
    4131    4134   -4161    4164      16    4131    4134    4161    4155       7
    4131    4134    4137    4143       7    4131    4134    4137    4140      15
    4131    4134   -4137    4140      16    4128    4131    4134    4161      18
    4128    4131   -4134    4161      19    4128    4131    4134    4137      18
    4128    4131   -4134    4137      19    4125    4128    4131    4134      18
    4125    4128   -4131    4134      19    4122    4125    4128    4131       7
    4122    4119    4116    4167      24    4122    4119   -4116    4167      25
    4122    4119   -4116    4167      26    4119    4122    4125    4128      27
    4119    4116    4167    4170      28    4116    4119    4122    4125      29
    4110    4266    4263    4269       3    4110    4266    4263    4260       3
    4107    4110    4266    4263       2    4107    4089    4095    4167       7
    4107    4089    4086    4116      32    4107    4089   -4086    4116      33
    4104    4098    4095    4167       7    4104    4107    4110    4266       3
    4101    4098    4104    4107       7    4101    4098    4095    4167       7
    4098    4104    4107    4110       7    4098    4095    4167    4170      11
    4098    4095    4167    4116      32    4098    4095   -4167    4116      33
    4098    4095   -4089    4107      20    4098    4095   -4089    4107      21
    4098    4095   -4089    4107      22    4095    4098   -4104    4107      20
    4095    4098   -4104    4107      21    4095    4098   -4104    4107      22
    4095    4167    4116    4119      34    4095    4167   -4116    4119       3
    4095    4089   -4107    4104      20    4095    4089   -4107    4104      21
    4095    4089   -4107    4104      22    4095    4089    4107    4110       7
    4095    4089   -4086    4116      32    4095    4089   -4086    4116      33
    4089    4107   -4104    4098      20    4089    4107   -4104    4098      21
    4089    4107   -4104    4098      22    4089    4107    4110    4266       3
    4089    4095    4098    4101       7    4089    4095   -4098    4104      20
    4089    4095   -4098    4104      21    4089    4095   -4098    4104      22
    4089    4095    4167    4170      11    4089    4095   -4167    4116      32
    4089    4095   -4167    4116      33    4089    4086   -4116    4167      28
    4089    4086    4116    4119      34    4089    4086   -4116    4119       3
    4086    4089    4107    4104       7    4086    4089    4107    4110       7
    4086    4089    4095    4098       7    4086    4089   -4095    4167       7
    4086    4116   -4167    4095      28    4086    4116    4167    4170      28
    4086    4116    4119    4122      24    4086    4116   -4119    4122      25
    4086    4116   -4119    4122      26    4083    4086    4089    4107      11
    4083    4086    4089    4095      11    4083    4086    4116    4167      28
    4083    4086    4116    4119      28    4323    4320    4326    4329      15
    4323    4320   -4326    4329      16    4317    4320    4326    4329      15
    4317    4320   -4326    4329      16    4314    4311    4308    4317      15
    4314    4311   -4308    4317      16    4311    4308    4317    4320      18
    4311    4308   -4317    4320      19    4308    4317    4320    4323      17
    4308    4317    4320    4326      18    4308    4317   -4320    4326      19
    4308    4302   -4299    4326      20    4308    4302   -4299    4326      21
    4308    4302   -4299    4326      22    4305    4302    4299    4326       7
    4305    4302    4308    4317      15    4305    4302   -4308    4317      16
    4305    4302    4308    4311       7    4302    4299    4326    4329       7
    4302    4299    4326    4320      20    4302    4299   -4326    4320      21
    4302    4299   -4326    4320      22    4302    4308   -4317    4320      18
    4302    4308   -4317    4320      19    4302    4308    4311    4314       7
    4299    4326    4320    4323       7    4299    4326    4320    4317       7
    4299    4302   -4308    4317       7    4299    4302    4308    4311      20
    4299    4302   -4308    4311      21    4299    4302   -4308    4311      22
    4296    4299    4326    4329      15    4296    4299   -4326    4329      16
    4296    4299    4326    4320       7    4296    4299    4302    4308       7
    4296    4299    4302    4305      15    4296    4299   -4302    4305      16
    4293    4296    4299    4326      18    4293    4296   -4299    4326      19
    4293    4296    4299    4302      18    4293    4296   -4299    4302      19
    4290    4293    4296    4299      18    4290    4293   -4296    4299      19
    4287    4290    4293    4296       7    4287    4284    4281    4332      24
    4287    4284   -4281    4332      25    4287    4284   -4281    4332      26
    4284    4287    4290    4293      27    4284    4281    4332    4335      28
    4281    4284    4287    4290      29    4275    4431    4428    4434       3
    4275    4431    4428    4425       3    4272    4275    4431    4428       2
    4272    4254    4260    4332       7    4272    4254    4251    4281      32
    4272    4254   -4251    4281      33    4269    4263    4260    4332       7
    4269    4272    4275    4431       3    4266    4263    4269    4272       7
    4266    4263    4260    4332       7    4263    4269    4272    4275       7
    4263    4260    4332    4335      11    4263    4260    4332    4281      32
    4263    4260   -4332    4281      33    4263    4260   -4254    4272      20
    4263    4260   -4254    4272      21    4263    4260   -4254    4272      22
    4260    4263   -4269    4272      20    4260    4263   -4269    4272      21
    4260    4263   -4269    4272      22    4260    4332    4281    4284      34
    4260    4332   -4281    4284       3    4260    4254   -4272    4269      20
    4260    4254   -4272    4269      21    4260    4254   -4272    4269      22
    4260    4254    4272    4275       7    4260    4254   -4251    4281      32
    4260    4254   -4251    4281      33    4254    4272   -4269    4263      20
    4254    4272   -4269    4263      21    4254    4272   -4269    4263      22
    4254    4272    4275    4431       3    4254    4260    4263    4266       7
    4254    4260   -4263    4269      20    4254    4260   -4263    4269      21
    4254    4260   -4263    4269      22    4254    4260    4332    4335      11
    4254    4260   -4332    4281      32    4254    4260   -4332    4281      33
    4254    4251   -4281    4332      28    4254    4251    4281    4284      34
    4254    4251   -4281    4284       3    4251    4254    4272    4269       7
    4251    4254    4272    4275       7    4251    4254    4260    4263       7
    4251    4254   -4260    4332       7    4251    4281   -4332    4260      28
    4251    4281    4332    4335      28    4251    4281    4284    4287      24
    4251    4281   -4284    4287      25    4251    4281   -4284    4287      26
    4248    4251    4254    4272      11    4248    4251    4254    4260      11
    4248    4251    4281    4332      28    4248    4251    4281    4284      28
    4488    4485    4491    4494      15    4488    4485   -4491    4494      16
    4482    4485    4491    4494      15    4482    4485   -4491    4494      16
    4479    4476    4473    4482      15    4479    4476   -4473    4482      16
    4476    4473    4482    4485      18    4476    4473   -4482    4485      19
    4473    4482    4485    4488      17    4473    4482    4485    4491      18
    4473    4482   -4485    4491      19    4473    4467   -4464    4491      20
    4473    4467   -4464    4491      21    4473    4467   -4464    4491      22
    4470    4467    4464    4491       7    4470    4467    4473    4482      15
    4470    4467   -4473    4482      16    4470    4467    4473    4476       7
    4467    4464    4491    4494       7    4467    4464    4491    4485      20
    4467    4464   -4491    4485      21    4467    4464   -4491    4485      22
    4467    4473   -4482    4485      18    4467    4473   -4482    4485      19
    4467    4473    4476    4479       7    4464    4491    4485    4488       7
    4464    4491    4485    4482       7    4464    4467   -4473    4482       7
    4464    4467    4473    4476      20    4464    4467   -4473    4476      21
    4464    4467   -4473    4476      22    4461    4464    4491    4494      15
    4461    4464   -4491    4494      16    4461    4464    4491    4485       7
    4461    4464    4467    4473       7    4461    4464    4467    4470      15
    4461    4464   -4467    4470      16    4458    4461    4464    4491      18
    4458    4461   -4464    4491      19    4458    4461    4464    4467      18
    4458    4461   -4464    4467      19    4455    4458    4461    4464      18
    4455    4458   -4461    4464      19    4452    4455    4458    4461       7
    4452    4449    4446    4497      24    4452    4449   -4446    4497      25
    4452    4449   -4446    4497      26    4449    4452    4455    4458      27
    4449    4446    4497    4500      28    4446    4449    4452    4455      29
    4440    4596    4593    4599       3    4440    4596    4593    4590       3
    4437    4440    4596    4593       2    4437    4419    4425    4497       7
    4437    4419    4416    4446      32    4437    4419   -4416    4446      33
    4434    4428    4425    4497       7    4434    4437    4440    4596       3
    4431    4428    4434    4437       7    4431    4428    4425    4497       7
    4428    4434    4437    4440       7    4428    4425    4497    4500      11
    4428    4425    4497    4446      32    4428    4425   -4497    4446      33
    4428    4425   -4419    4437      20    4428    4425   -4419    4437      21
    4428    4425   -4419    4437      22    4425    4428   -4434    4437      20
    4425    4428   -4434    4437      21    4425    4428   -4434    4437      22
    4425    4497    4446    4449      34    4425    4497   -4446    4449       3
    4425    4419   -4437    4434      20    4425    4419   -4437    4434      21
    4425    4419   -4437    4434      22    4425    4419    4437    4440       7
    4425    4419   -4416    4446      32    4425    4419   -4416    4446      33
    4419    4437   -4434    4428      20    4419    4437   -4434    4428      21
    4419    4437   -4434    4428      22    4419    4437    4440    4596       3
    4419    4425    4428    4431       7    4419    4425   -4428    4434      20
    4419    4425   -4428    4434      21    4419    4425   -4428    4434      22
    4419    4425    4497    4500      11    4419    4425   -4497    4446      32
    4419    4425   -4497    4446      33    4419    4416   -4446    4497      28
    4419    4416    4446    4449      34    4419    4416   -4446    4449       3
    4416    4419    4437    4434       7    4416    4419    4437    4440       7
    4416    4419    4425    4428       7    4416    4419   -4425    4497       7
    4416    4446   -4497    4425      28    4416    4446    4497    4500      28
    4416    4446    4449    4452      24    4416    4446   -4449    4452      25
    4416    4446   -4449    4452      26    4413    4416    4419    4437      11
    4413    4416    4419    4425      11    4413    4416    4446    4497      28
    4413    4416    4446    4449      28    4653    4650    4656    4659      15
    4653    4650   -4656    4659      16    4647    4650    4656    4659      15
    4647    4650   -4656    4659      16    4644    4641    4638    4647      15
    4644    4641   -4638    4647      16    4641    4638    4647    4650      18
    4641    4638   -4647    4650      19    4638    4647    4650    4653      17
    4638    4647    4650    4656      18    4638    4647   -4650    4656      19
    4638    4632   -4629    4656      20    4638    4632   -4629    4656      21
    4638    4632   -4629    4656      22    4635    4632    4629    4656       7
    4635    4632    4638    4647      15    4635    4632   -4638    4647      16
    4635    4632    4638    4641       7    4632    4629    4656    4659       7
    4632    4629    4656    4650      20    4632    4629   -4656    4650      21
    4632    4629   -4656    4650      22    4632    4638   -4647    4650      18
    4632    4638   -4647    4650      19    4632    4638    4641    4644       7
    4629    4656    4650    4653       7    4629    4656    4650    4647       7
    4629    4632   -4638    4647       7    4629    4632    4638    4641      20
    4629    4632   -4638    4641      21    4629    4632   -4638    4641      22
    4626    4629    4656    4659      15    4626    4629   -4656    4659      16
    4626    4629    4656    4650       7    4626    4629    4632    4638       7
    4626    4629    4632    4635      15    4626    4629   -4632    4635      16
    4623    4626    4629    4656      18    4623    4626   -4629    4656      19
    4623    4626    4629    4632      18    4623    4626   -4629    4632      19
    4620    4623    4626    4629      18    4620    4623   -4626    4629      19
    4617    4620    4623    4626       7    4617    4614    4611    4662      24
    4617    4614   -4611    4662      25    4617    4614   -4611    4662      26
    4614    4617    4620    4623      27    4614    4611    4662    4665      28
    4611    4614    4617    4620      29    4605    4761    4758    4764       3
    4605    4761    4758    4755       3    4602    4605    4761    4758       2
    4602    4584    4590    4662       7    4602    4584    4581    4611      32
    4602    4584   -4581    4611      33    4599    4593    4590    4662       7
    4599    4602    4605    4761       3    4596    4593    4599    4602       7
    4596    4593    4590    4662       7    4593    4599    4602    4605       7
    4593    4590    4662    4665      11    4593    4590    4662    4611      32
    4593    4590   -4662    4611      33    4593    4590   -4584    4602      20
    4593    4590   -4584    4602      21    4593    4590   -4584    4602      22
    4590    4593   -4599    4602      20    4590    4593   -4599    4602      21
    4590    4593   -4599    4602      22    4590    4662    4611    4614      34
    4590    4662   -4611    4614       3    4590    4584   -4602    4599      20
    4590    4584   -4602    4599      21    4590    4584   -4602    4599      22
    4590    4584    4602    4605       7    4590    4584   -4581    4611      32
    4590    4584   -4581    4611      33    4584    4602   -4599    4593      20
    4584    4602   -4599    4593      21    4584    4602   -4599    4593      22
    4584    4602    4605    4761       3    4584    4590    4593    4596       7
    4584    4590   -4593    4599      20    4584    4590   -4593    4599      21
    4584    4590   -4593    4599      22    4584    4590    4662    4665      11
    4584    4590   -4662    4611      32    4584    4590   -4662    4611      33
    4584    4581   -4611    4662      28    4584    4581    4611    4614      34
    4584    4581   -4611    4614       3    4581    4584    4602    4599       7
    4581    4584    4602    4605       7    4581    4584    4590    4593       7
    4581    4584   -4590    4662       7    4581    4611   -4662    4590      28
    4581    4611    4662    4665      28    4581    4611    4614    4617      24
    4581    4611   -4614    4617      25    4581    4611   -4614    4617      26
    4578    4581    4584    4602      11    4578    4581    4584    4590      11
    4578    4581    4611    4662      28    4578    4581    4611    4614      28
    4818    4815    4821    4824      15    4818    4815   -4821    4824      16
    4812    4815    4821    4824      15    4812    4815   -4821    4824      16
    4809    4806    4803    4812      15    4809    4806   -4803    4812      16
    4806    4803    4812    4815      18    4806    4803   -4812    4815      19
    4803    4812    4815    4818      17    4803    4812    4815    4821      18
    4803    4812   -4815    4821      19    4803    4797   -4794    4821      20
    4803    4797   -4794    4821      21    4803    4797   -4794    4821      22
    4800    4797    4794    4821       7    4800    4797    4803    4812      15
    4800    4797   -4803    4812      16    4800    4797    4803    4806       7
    4797    4794    4821    4824       7    4797    4794    4821    4815      20
    4797    4794   -4821    4815      21    4797    4794   -4821    4815      22
    4797    4803   -4812    4815      18    4797    4803   -4812    4815      19
    4797    4803    4806    4809       7    4794    4821    4815    4818       7
    4794    4821    4815    4812       7    4794    4797   -4803    4812       7
    4794    4797    4803    4806      20    4794    4797   -4803    4806      21
    4794    4797   -4803    4806      22    4791    4794    4821    4824      15
    4791    4794   -4821    4824      16    4791    4794    4821    4815       7
    4791    4794    4797    4803       7    4791    4794    4797    4800      15
    4791    4794   -4797    4800      16    4788    4791    4794    4821      18
    4788    4791   -4794    4821      19    4788    4791    4794    4797      18
    4788    4791   -4794    4797      19    4785    4788    4791    4794      18
    4785    4788   -4791    4794      19    4782    4785    4788    4791       7
    4782    4779    4776    4827      24    4782    4779   -4776    4827      25
    4782    4779   -4776    4827      26    4779    4782    4785    4788      27
    4779    4776    4827    4830      28    4776    4779    4782    4785      29
    4770    4926    4923    4929       3    4770    4926    4923    4920       3
    4767    4770    4926    4923       2    4767    4749    4755    4827       7
    4767    4749    4746    4776      32    4767    4749   -4746    4776      33
    4764    4758    4755    4827       7    4764    4767    4770    4926       3
    4761    4758    4764    4767       7    4761    4758    4755    4827       7
    4758    4764    4767    4770       7    4758    4755    4827    4830      11
    4758    4755    4827    4776      32    4758    4755   -4827    4776      33
    4758    4755   -4749    4767      20    4758    4755   -4749    4767      21
    4758    4755   -4749    4767      22    4755    4758   -4764    4767      20
    4755    4758   -4764    4767      21    4755    4758   -4764    4767      22
    4755    4827    4776    4779      34    4755    4827   -4776    4779       3
    4755    4749   -4767    4764      20    4755    4749   -4767    4764      21
    4755    4749   -4767    4764      22    4755    4749    4767    4770       7
    4755    4749   -4746    4776      32    4755    4749   -4746    4776      33
    4749    4767   -4764    4758      20    4749    4767   -4764    4758      21
    4749    4767   -4764    4758      22    4749    4767    4770    4926       3
    4749    4755    4758    4761       7    4749    4755   -4758    4764      20
    4749    4755   -4758    4764      21    4749    4755   -4758    4764      22
    4749    4755    4827    4830      11    4749    4755   -4827    4776      32
    4749    4755   -4827    4776      33    4749    4746   -4776    4827      28
    4749    4746    4776    4779      34    4749    4746   -4776    4779       3
    4746    4749    4767    4764       7    4746    4749    4767    4770       7
    4746    4749    4755    4758       7    4746    4749   -4755    4827       7
    4746    4776   -4827    4755      28    4746    4776    4827    4830      28
    4746    4776    4779    4782      24    4746    4776   -4779    4782      25
    4746    4776   -4779    4782      26    4743    4746    4749    4767      11
    4743    4746    4749    4755      11    4743    4746    4776    4827      28
    4743    4746    4776    4779      28    4983    4980    4986    4989      15
    4983    4980   -4986    4989      16    4977    4980    4986    4989      15
    4977    4980   -4986    4989      16    4974    4971    4968    4977      15
    4974    4971   -4968    4977      16    4971    4968    4977    4980      18
    4971    4968   -4977    4980      19    4968    4977    4980    4983      17
    4968    4977    4980    4986      18    4968    4977   -4980    4986      19
    4968    4962   -4959    4986      20    4968    4962   -4959    4986      21
    4968    4962   -4959    4986      22    4965    4962    4959    4986       7
    4965    4962    4968    4977      15    4965    4962   -4968    4977      16
    4965    4962    4968    4971       7    4962    4959    4986    4989       7
    4962    4959    4986    4980      20    4962    4959   -4986    4980      21
    4962    4959   -4986    4980      22    4962    4968   -4977    4980      18
    4962    4968   -4977    4980      19    4962    4968    4971    4974       7
    4959    4986    4980    4983       7    4959    4986    4980    4977       7
    4959    4962   -4968    4977       7    4959    4962    4968    4971      20
    4959    4962   -4968    4971      21    4959    4962   -4968    4971      22
    4956    4959    4986    4989      15    4956    4959   -4986    4989      16
    4956    4959    4986    4980       7    4956    4959    4962    4968       7
    4956    4959    4962    4965      15    4956    4959   -4962    4965      16
    4953    4956    4959    4986      18    4953    4956   -4959    4986      19
    4953    4956    4959    4962      18    4953    4956   -4959    4962      19
    4950    4953    4956    4959      18    4950    4953   -4956    4959      19
    4947    4950    4953    4956       7    4947    4944    4941    4992      24
    4947    4944   -4941    4992      25    4947    4944   -4941    4992      26
    4944    4947    4950    4953      27    4944    4941    4992    4995      28
    4941    4944    4947    4950      29    4932    4914    4920    4992       7
    4932    4914    4911    4941      32    4932    4914   -4911    4941      33
    4929    4923    4920    4992       7    4929    4932    4935    5073       3
    4926    4923    4929    4932       7    4926    4923    4920    4992       7
    4923    4929    4932    4935       7    4923    4920    4992    4995      11
    4923    4920    4992    4941      32    4923    4920   -4992    4941      33
    4923    4920   -4914    4932      20    4923    4920   -4914    4932      21
    4923    4920   -4914    4932      22    4920    4923   -4929    4932      20
    4920    4923   -4929    4932      21    4920    4923   -4929    4932      22
    4920    4992    4941    4944      34    4920    4992   -4941    4944       3
    4920    4914   -4932    4929      20    4920    4914   -4932    4929      21
    4920    4914   -4932    4929      22    4920    4914    4932    4935       7
    4920    4914   -4911    4941      32    4920    4914   -4911    4941      33
    4914    4932   -4929    4923      20    4914    4932   -4929    4923      21
    4914    4932   -4929    4923      22    4914    4932    4935    5073       3
    4914    4920    4923    4926       7    4914    4920   -4923    4929      20
    4914    4920   -4923    4929      21    4914    4920   -4923    4929      22
    4914    4920    4992    4995      11    4914    4920   -4992    4941      32
    4914    4920   -4992    4941      33    4914    4911   -4941    4992      28
    4914    4911    4941    4944      34    4914    4911   -4941    4944       3
    4911    4914    4932    4929       7    4911    4914    4932    4935       7
    4911    4914    4920    4923       7    4911    4914   -4920    4992       7
    4911    4941   -4992    4920      28    4911    4941    4992    4995      28
    4911    4941    4944    4947      24    4911    4941   -4944    4947      25
    4911    4941   -4944    4947      26    4908    4911    4914    4932      11
    4908    4911    4914    4920      11    4908    4911    4941    4992      28
    4908    4911    4941    4944      28    5082    5109    5106    5112       3
    5082    5109    5106    5103       3    5166    5163    5169    5172      15
    5166    5163   -5169    5172      16    5160    5163    5169    5172      15
    5160    5163   -5169    5172      16    5157    5154    5151    5160      15
    5157    5154   -5151    5160      16    5154    5151    5160    5163      18
    5154    5151   -5160    5163      19    5151    5160    5163    5166      17
    5151    5160    5163    5169      18    5151    5160   -5163    5169      19
    5151    5145   -5142    5169      20    5151    5145   -5142    5169      21
    5151    5145   -5142    5169      22    5148    5145    5142    5169       7
    5148    5145    5151    5160      15    5148    5145   -5151    5160      16
    5148    5145    5151    5154       7    5145    5142    5169    5172       7
    5145    5142    5169    5163      20    5145    5142   -5169    5163      21
    5145    5142   -5169    5163      22    5145    5151   -5160    5163      18
    5145    5151   -5160    5163      19    5145    5151    5154    5157       7
    5142    5169    5163    5166       7    5142    5169    5163    5160       7
    5142    5145   -5151    5160       7    5142    5145    5151    5154      20
    5142    5145   -5151    5154      21    5142    5145   -5151    5154      22
    5139    5142    5169    5172      15    5139    5142   -5169    5172      16
    5139    5142    5169    5163       7    5139    5142    5145    5151       7
    5139    5142    5145    5148      15    5139    5142   -5145    5148      16
    5136    5139    5142    5169      18    5136    5139   -5142    5169      19
    5136    5139    5142    5145      18    5136    5139   -5142    5145      19
    5133    5136    5139    5142      18    5133    5136   -5139    5142      19
    5130    5133    5136    5139       7    5130    5127    5124    5175      24
    5130    5127   -5124    5175      25    5130    5127   -5124    5175      26
    5127    5130    5133    5136      27    5127    5124    5175    5178      28
    5124    5127    5130    5133      29    5118    5274    5271    5277       3
    5118    5274    5271    5268       3    5115    5118    5274    5271       2
    5115    5097    5103    5175       7    5115    5097    5094    5124      32
    5115    5097   -5094    5124      33    5112    5106    5103    5175       7
    5112    5115    5118    5274       3    5109    5106    5112    5115       7
    5109    5106    5103    5175       7    5106    5112    5115    5118       7
    5106    5103    5175    5178      11    5106    5103    5175    5124      32
    5106    5103   -5175    5124      33    5106    5103   -5097    5115      20
    5106    5103   -5097    5115      21    5106    5103   -5097    5115      22
    5103    5106   -5112    5115      20    5103    5106   -5112    5115      21
    5103    5106   -5112    5115      22    5103    5175    5124    5127      34
    5103    5175   -5124    5127       3    5103    5097   -5115    5112      20
    5103    5097   -5115    5112      21    5103    5097   -5115    5112      22
    5103    5097    5115    5118       7    5103    5097   -5094    5124      32
    5103    5097   -5094    5124      33    5097    5115   -5112    5106      20
    5097    5115   -5112    5106      21    5097    5115   -5112    5106      22
    5097    5115    5118    5274       3    5097    5103    5106    5109       7
    5097    5103   -5106    5112      20    5097    5103   -5106    5112      21
    5097    5103   -5106    5112      22    5097    5103    5175    5178      11
    5097    5103   -5175    5124      32    5097    5103   -5175    5124      33
    5097    5094   -5124    5175      28    5097    5094    5124    5127      34
    5097    5094   -5124    5127       3    5094    5097    5115    5112       7
    5094    5097    5115    5118       7    5094    5097    5103    5106       7
    5094    5097   -5103    5175       7    5094    5124   -5175    5103      28
    5094    5124    5175    5178      28    5094    5124    5127    5130      24
    5094    5124   -5127    5130      25    5094    5124   -5127    5130      26
    5091    5094    5097    5115      11    5091    5094    5097    5103      11
    5091    5094    5124    5175      28    5091    5094    5124    5127      28
    5331    5328    5334    5337      15    5331    5328   -5334    5337      16
    5325    5328    5334    5337      15    5325    5328   -5334    5337      16
    5322    5319    5316    5325      15    5322    5319   -5316    5325      16
    5319    5316    5325    5328      18    5319    5316   -5325    5328      19
    5316    5325    5328    5331      17    5316    5325    5328    5334      18
    5316    5325   -5328    5334      19    5316    5310   -5307    5334      20
    5316    5310   -5307    5334      21    5316    5310   -5307    5334      22
    5313    5310    5307    5334       7    5313    5310    5316    5325      15
    5313    5310   -5316    5325      16    5313    5310    5316    5319       7
    5310    5307    5334    5337       7    5310    5307    5334    5328      20
    5310    5307   -5334    5328      21    5310    5307   -5334    5328      22
    5310    5316   -5325    5328      18    5310    5316   -5325    5328      19
    5310    5316    5319    5322       7    5307    5334    5328    5331       7
    5307    5334    5328    5325       7    5307    5310   -5316    5325       7
    5307    5310    5316    5319      20    5307    5310   -5316    5319      21
    5307    5310   -5316    5319      22    5304    5307    5334    5337      15
    5304    5307   -5334    5337      16    5304    5307    5334    5328       7
    5304    5307    5310    5316       7    5304    5307    5310    5313      15
    5304    5307   -5310    5313      16    5301    5304    5307    5334      18
    5301    5304   -5307    5334      19    5301    5304    5307    5310      18
    5301    5304   -5307    5310      19    5298    5301    5304    5307      18
    5298    5301   -5304    5307      19    5295    5298    5301    5304       7
    5295    5292    5289    5340      24    5295    5292   -5289    5340      25
    5295    5292   -5289    5340      26    5292    5295    5298    5301      27
    5292    5289    5340    5343      28    5289    5292    5295    5298      29
    5283    5439    5436    5442       3    5283    5439    5436    5433       3
    5280    5283    5439    5436       2    5280    5262    5268    5340       7
    5280    5262    5259    5289      32    5280    5262   -5259    5289      33
    5277    5271    5268    5340       7    5277    5280    5283    5439       3
    5274    5271    5277    5280       7    5274    5271    5268    5340       7
    5271    5277    5280    5283       7    5271    5268    5340    5343      11
    5271    5268    5340    5289      32    5271    5268   -5340    5289      33
    5271    5268   -5262    5280      20    5271    5268   -5262    5280      21
    5271    5268   -5262    5280      22    5268    5271   -5277    5280      20
    5268    5271   -5277    5280      21    5268    5271   -5277    5280      22
    5268    5340    5289    5292      34    5268    5340   -5289    5292       3
    5268    5262   -5280    5277      20    5268    5262   -5280    5277      21
    5268    5262   -5280    5277      22    5268    5262    5280    5283       7
    5268    5262   -5259    5289      32    5268    5262   -5259    5289      33
    5262    5280   -5277    5271      20    5262    5280   -5277    5271      21
    5262    5280   -5277    5271      22    5262    5280    5283    5439       3
    5262    5268    5271    5274       7    5262    5268   -5271    5277      20
    5262    5268   -5271    5277      21    5262    5268   -5271    5277      22
    5262    5268    5340    5343      11    5262    5268   -5340    5289      32
    5262    5268   -5340    5289      33    5262    5259   -5289    5340      28
    5262    5259    5289    5292      34    5262    5259   -5289    5292       3
    5259    5262    5280    5277       7    5259    5262    5280    5283       7
    5259    5262    5268    5271       7    5259    5262   -5268    5340       7
    5259    5289   -5340    5268      28    5259    5289    5340    5343      28
    5259    5289    5292    5295      24    5259    5289   -5292    5295      25
    5259    5289   -5292    5295      26    5256    5259    5262    5280      11
    5256    5259    5262    5268      11    5256    5259    5289    5340      28
    5256    5259    5289    5292      28    5496    5493    5499    5502      15
    5496    5493   -5499    5502      16    5490    5493    5499    5502      15
    5490    5493   -5499    5502      16    5487    5484    5481    5490      15
    5487    5484   -5481    5490      16    5484    5481    5490    5493      18
    5484    5481   -5490    5493      19    5481    5490    5493    5496      17
    5481    5490    5493    5499      18    5481    5490   -5493    5499      19
    5481    5475   -5472    5499      20    5481    5475   -5472    5499      21
    5481    5475   -5472    5499      22    5478    5475    5472    5499       7
    5478    5475    5481    5490      15    5478    5475   -5481    5490      16
    5478    5475    5481    5484       7    5475    5472    5499    5502       7
    5475    5472    5499    5493      20    5475    5472   -5499    5493      21
    5475    5472   -5499    5493      22    5475    5481   -5490    5493      18
    5475    5481   -5490    5493      19    5475    5481    5484    5487       7
    5472    5499    5493    5496       7    5472    5499    5493    5490       7
    5472    5475   -5481    5490       7    5472    5475    5481    5484      20
    5472    5475   -5481    5484      21    5472    5475   -5481    5484      22
    5469    5472    5499    5502      15    5469    5472   -5499    5502      16
    5469    5472    5499    5493       7    5469    5472    5475    5481       7
    5469    5472    5475    5478      15    5469    5472   -5475    5478      16
    5466    5469    5472    5499      18    5466    5469   -5472    5499      19
    5466    5469    5472    5475      18    5466    5469   -5472    5475      19
    5463    5466    5469    5472      18    5463    5466   -5469    5472      19
    5460    5463    5466    5469       7    5460    5457    5454    5505      24
    5460    5457   -5454    5505      25    5460    5457   -5454    5505      26
    5457    5460    5463    5466      27    5457    5454    5505    5508      28
    5454    5457    5460    5463      29    5448    5604    5601    5607       3
    5448    5604    5601    5598       3    5445    5448    5604    5601       2
    5445    5427    5433    5505       7    5445    5427    5424    5454      32
    5445    5427   -5424    5454      33    5442    5436    5433    5505       7
    5442    5445    5448    5604       3    5439    5436    5442    5445       7
    5439    5436    5433    5505       7    5436    5442    5445    5448       7
    5436    5433    5505    5508      11    5436    5433    5505    5454      32
    5436    5433   -5505    5454      33    5436    5433   -5427    5445      20
    5436    5433   -5427    5445      21    5436    5433   -5427    5445      22
    5433    5436   -5442    5445      20    5433    5436   -5442    5445      21
    5433    5436   -5442    5445      22    5433    5505    5454    5457      34
    5433    5505   -5454    5457       3    5433    5427   -5445    5442      20
    5433    5427   -5445    5442      21    5433    5427   -5445    5442      22
    5433    5427    5445    5448       7    5433    5427   -5424    5454      32
    5433    5427   -5424    5454      33    5427    5445   -5442    5436      20
    5427    5445   -5442    5436      21    5427    5445   -5442    5436      22
    5427    5445    5448    5604       3    5427    5433    5436    5439       7
    5427    5433   -5436    5442      20    5427    5433   -5436    5442      21
    5427    5433   -5436    5442      22    5427    5433    5505    5508      11
    5427    5433   -5505    5454      32    5427    5433   -5505    5454      33
    5427    5424   -5454    5505      28    5427    5424    5454    5457      34
    5427    5424   -5454    5457       3    5424    5427    5445    5442       7
    5424    5427    5445    5448       7    5424    5427    5433    5436       7
    5424    5427   -5433    5505       7    5424    5454   -5505    5433      28
    5424    5454    5505    5508      28    5424    5454    5457    5460      24
    5424    5454   -5457    5460      25    5424    5454   -5457    5460      26
    5421    5424    5427    5445      11    5421    5424    5427    5433      11
    5421    5424    5454    5505      28    5421    5424    5454    5457      28
    5661    5658    5664    5667      15    5661    5658   -5664    5667      16
    5655    5658    5664    5667      15    5655    5658   -5664    5667      16
    5652    5649    5646    5655      15    5652    5649   -5646    5655      16
    5649    5646    5655    5658      18    5649    5646   -5655    5658      19
    5646    5655    5658    5661      17    5646    5655    5658    5664      18
    5646    5655   -5658    5664      19    5646    5640   -5637    5664      20
    5646    5640   -5637    5664      21    5646    5640   -5637    5664      22
    5643    5640    5637    5664       7    5643    5640    5646    5655      15
    5643    5640   -5646    5655      16    5643    5640    5646    5649       7
    5640    5637    5664    5667       7    5640    5637    5664    5658      20
    5640    5637   -5664    5658      21    5640    5637   -5664    5658      22
    5640    5646   -5655    5658      18    5640    5646   -5655    5658      19
    5640    5646    5649    5652       7    5637    5664    5658    5661       7
    5637    5664    5658    5655       7    5637    5640   -5646    5655       7
    5637    5640    5646    5649      20    5637    5640   -5646    5649      21
    5637    5640   -5646    5649      22    5634    5637    5664    5667      15
    5634    5637   -5664    5667      16    5634    5637    5664    5658       7
    5634    5637    5640    5646       7    5634    5637    5640    5643      15
    5634    5637   -5640    5643      16    5631    5634    5637    5664      18
    5631    5634   -5637    5664      19    5631    5634    5637    5640      18
    5631    5634   -5637    5640      19    5628    5631    5634    5637      18
    5628    5631   -5634    5637      19    5625    5628    5631    5634       7
    5625    5622    5619    5670      24    5625    5622   -5619    5670      25
    5625    5622   -5619    5670      26    5622    5625    5628    5631      27
    5622    5619    5670    5673      28    5619    5622    5625    5628      29
    5613    5769    5766    5772       3    5613    5769    5766    5763       3
    5610    5613    5769    5766       2    5610    5592    5598    5670       7
    5610    5592    5589    5619      32    5610    5592   -5589    5619      33
    5607    5601    5598    5670       7    5607    5610    5613    5769       3
    5604    5601    5607    5610       7    5604    5601    5598    5670       7
    5601    5607    5610    5613       7    5601    5598    5670    5673      11
    5601    5598    5670    5619      32    5601    5598   -5670    5619      33
    5601    5598   -5592    5610      20    5601    5598   -5592    5610      21
    5601    5598   -5592    5610      22    5598    5601   -5607    5610      20
    5598    5601   -5607    5610      21    5598    5601   -5607    5610      22
    5598    5670    5619    5622      34    5598    5670   -5619    5622       3
    5598    5592   -5610    5607      20    5598    5592   -5610    5607      21
    5598    5592   -5610    5607      22    5598    5592    5610    5613       7
    5598    5592   -5589    5619      32    5598    5592   -5589    5619      33
    5592    5610   -5607    5601      20    5592    5610   -5607    5601      21
    5592    5610   -5607    5601      22    5592    5610    5613    5769       3
    5592    5598    5601    5604       7    5592    5598   -5601    5607      20
    5592    5598   -5601    5607      21    5592    5598   -5601    5607      22
    5592    5598    5670    5673      11    5592    5598   -5670    5619      32
    5592    5598   -5670    5619      33    5592    5589   -5619    5670      28
    5592    5589    5619    5622      34    5592    5589   -5619    5622       3
    5589    5592    5610    5607       7    5589    5592    5610    5613       7
    5589    5592    5598    5601       7    5589    5592   -5598    5670       7
    5589    5619   -5670    5598      28    5589    5619    5670    5673      28
    5589    5619    5622    5625      24    5589    5619   -5622    5625      25
    5589    5619   -5622    5625      26    5586    5589    5592    5610      11
    5586    5589    5592    5598      11    5586    5589    5619    5670      28
    5586    5589    5619    5622      28    5826    5823    5829    5832      15
    5826    5823   -5829    5832      16    5820    5823    5829    5832      15
    5820    5823   -5829    5832      16    5817    5814    5811    5820      15
    5817    5814   -5811    5820      16    5814    5811    5820    5823      18
    5814    5811   -5820    5823      19    5811    5820    5823    5826      17
    5811    5820    5823    5829      18    5811    5820   -5823    5829      19
    5811    5805   -5802    5829      20    5811    5805   -5802    5829      21
    5811    5805   -5802    5829      22    5808    5805    5802    5829       7
    5808    5805    5811    5820      15    5808    5805   -5811    5820      16
    5808    5805    5811    5814       7    5805    5802    5829    5832       7
    5805    5802    5829    5823      20    5805    5802   -5829    5823      21
    5805    5802   -5829    5823      22    5805    5811   -5820    5823      18
    5805    5811   -5820    5823      19    5805    5811    5814    5817       7
    5802    5829    5823    5826       7    5802    5829    5823    5820       7
    5802    5805   -5811    5820       7    5802    5805    5811    5814      20
    5802    5805   -5811    5814      21    5802    5805   -5811    5814      22
    5799    5802    5829    5832      15    5799    5802   -5829    5832      16
    5799    5802    5829    5823       7    5799    5802    5805    5811       7
    5799    5802    5805    5808      15    5799    5802   -5805    5808      16
    5796    5799    5802    5829      18    5796    5799   -5802    5829      19
    5796    5799    5802    5805      18    5796    5799   -5802    5805      19
    5793    5796    5799    5802      18    5793    5796   -5799    5802      19
    5790    5793    5796    5799       7    5790    5787    5784    5835      24
    5790    5787   -5784    5835      25    5790    5787   -5784    5835      26
    5787    5790    5793    5796      27    5787    5784    5835    5838      28
    5784    5787    5790    5793      29    5778    5934    5931    5937       3
    5778    5934    5931    5928       3    5775    5778    5934    5931       2
    5775    5757    5763    5835       7    5775    5757    5754    5784      32
    5775    5757   -5754    5784      33    5772    5766    5763    5835       7
    5772    5775    5778    5934       3    5769    5766    5772    5775       7
    5769    5766    5763    5835       7    5766    5772    5775    5778       7
    5766    5763    5835    5838      11    5766    5763    5835    5784      32
    5766    5763   -5835    5784      33    5766    5763   -5757    5775      20
    5766    5763   -5757    5775      21    5766    5763   -5757    5775      22
    5763    5766   -5772    5775      20    5763    5766   -5772    5775      21
    5763    5766   -5772    5775      22    5763    5835    5784    5787      34
    5763    5835   -5784    5787       3    5763    5757   -5775    5772      20
    5763    5757   -5775    5772      21    5763    5757   -5775    5772      22
    5763    5757    5775    5778       7    5763    5757   -5754    5784      32
    5763    5757   -5754    5784      33    5757    5775   -5772    5766      20
    5757    5775   -5772    5766      21    5757    5775   -5772    5766      22
    5757    5775    5778    5934       3    5757    5763    5766    5769       7
    5757    5763   -5766    5772      20    5757    5763   -5766    5772      21
    5757    5763   -5766    5772      22    5757    5763    5835    5838      11
    5757    5763   -5835    5784      32    5757    5763   -5835    5784      33
    5757    5754   -5784    5835      28    5757    5754    5784    5787      34
    5757    5754   -5784    5787       3    5754    5757    5775    5772       7
    5754    5757    5775    5778       7    5754    5757    5763    5766       7
    5754    5757   -5763    5835       7    5754    5784   -5835    5763      28
    5754    5784    5835    5838      28    5754    5784    5787    5790      24
    5754    5784   -5787    5790      25    5754    5784   -5787    5790      26
    5751    5754    5757    5775      11    5751    5754    5757    5763      11
    5751    5754    5784    5835      28    5751    5754    5784    5787      28
    5991    5988    5994    5997      15    5991    5988   -5994    5997      16
    5985    5988    5994    5997      15    5985    5988   -5994    5997      16
    5982    5979    5976    5985      15    5982    5979   -5976    5985      16
    5979    5976    5985    5988      18    5979    5976   -5985    5988      19
    5976    5985    5988    5991      17    5976    5985    5988    5994      18
    5976    5985   -5988    5994      19    5976    5970   -5967    5994      20
    5976    5970   -5967    5994      21    5976    5970   -5967    5994      22
    5973    5970    5967    5994       7    5973    5970    5976    5985      15
    5973    5970   -5976    5985      16    5973    5970    5976    5979       7
    5970    5967    5994    5997       7    5970    5967    5994    5988      20
    5970    5967   -5994    5988      21    5970    5967   -5994    5988      22
    5970    5976   -5985    5988      18    5970    5976   -5985    5988      19
    5970    5976    5979    5982       7    5967    5994    5988    5991       7
    5967    5994    5988    5985       7    5967    5970   -5976    5985       7
    5967    5970    5976    5979      20    5967    5970   -5976    5979      21
    5967    5970   -5976    5979      22    5964    5967    5994    5997      15
    5964    5967   -5994    5997      16    5964    5967    5994    5988       7
    5964    5967    5970    5976       7    5964    5967    5970    5973      15
    5964    5967   -5970    5973      16    5961    5964    5967    5994      18
    5961    5964   -5967    5994      19    5961    5964    5967    5970      18
    5961    5964   -5967    5970      19    5958    5961    5964    5967      18
    5958    5961   -5964    5967      19    5955    5958    5961    5964       7
    5955    5952    5949    6000      24    5955    5952   -5949    6000      25
    5955    5952   -5949    6000      26    5952    5955    5958    5961      27
    5952    5949    6000    6003      28    5949    5952    5955    5958      29
    5943    6099    6096    6102       3    5943    6099    6096    6093       3
    5940    5943    6099    6096       2    5940    5922    5928    6000       7
    5940    5922    5919    5949      32    5940    5922   -5919    5949      33
    5937    5931    5928    6000       7    5937    5940    5943    6099       3
    5934    5931    5937    5940       7    5934    5931    5928    6000       7
    5931    5937    5940    5943       7    5931    5928    6000    6003      11
    5931    5928    6000    5949      32    5931    5928   -6000    5949      33
    5931    5928   -5922    5940      20    5931    5928   -5922    5940      21
    5931    5928   -5922    5940      22    5928    5931   -5937    5940      20
    5928    5931   -5937    5940      21    5928    5931   -5937    5940      22
    5928    6000    5949    5952      34    5928    6000   -5949    5952       3
    5928    5922   -5940    5937      20    5928    5922   -5940    5937      21
    5928    5922   -5940    5937      22    5928    5922    5940    5943       7
    5928    5922   -5919    5949      32    5928    5922   -5919    5949      33
    5922    5940   -5937    5931      20    5922    5940   -5937    5931      21
    5922    5940   -5937    5931      22    5922    5940    5943    6099       3
    5922    5928    5931    5934       7    5922    5928   -5931    5937      20
    5922    5928   -5931    5937      21    5922    5928   -5931    5937      22
    5922    5928    6000    6003      11    5922    5928   -6000    5949      32
    5922    5928   -6000    5949      33    5922    5919   -5949    6000      28
    5922    5919    5949    5952      34    5922    5919   -5949    5952       3
    5919    5922    5940    5937       7    5919    5922    5940    5943       7
    5919    5922    5928    5931       7    5919    5922   -5928    6000       7
    5919    5949   -6000    5928      28    5919    5949    6000    6003      28
    5919    5949    5952    5955      24    5919    5949   -5952    5955      25
    5919    5949   -5952    5955      26    5916    5919    5922    5940      11
    5916    5919    5922    5928      11    5916    5919    5949    6000      28
    5916    5919    5949    5952      28    6156    6153    6159    6162      15
    6156    6153   -6159    6162      16    6150    6153    6159    6162      15
    6150    6153   -6159    6162      16    6147    6144    6141    6150      15
    6147    6144   -6141    6150      16    6144    6141    6150    6153      18
    6144    6141   -6150    6153      19    6141    6150    6153    6156      17
    6141    6150    6153    6159      18    6141    6150   -6153    6159      19
    6141    6135   -6132    6159      20    6141    6135   -6132    6159      21
    6141    6135   -6132    6159      22    6138    6135    6132    6159       7
    6138    6135    6141    6150      15    6138    6135   -6141    6150      16
    6138    6135    6141    6144       7    6135    6132    6159    6162       7
    6135    6132    6159    6153      20    6135    6132   -6159    6153      21
    6135    6132   -6159    6153      22    6135    6141   -6150    6153      18
    6135    6141   -6150    6153      19    6135    6141    6144    6147       7
    6132    6159    6153    6156       7    6132    6159    6153    6150       7
    6132    6135   -6141    6150       7    6132    6135    6141    6144      20
    6132    6135   -6141    6144      21    6132    6135   -6141    6144      22
    6129    6132    6159    6162      15    6129    6132   -6159    6162      16
    6129    6132    6159    6153       7    6129    6132    6135    6141       7
    6129    6132    6135    6138      15    6129    6132   -6135    6138      16
    6126    6129    6132    6159      18    6126    6129   -6132    6159      19
    6126    6129    6132    6135      18    6126    6129   -6132    6135      19
    6123    6126    6129    6132      18    6123    6126   -6129    6132      19
    6120    6123    6126    6129       7    6120    6117    6114    6165      24
    6120    6117   -6114    6165      25    6120    6117   -6114    6165      26
    6117    6120    6123    6126      27    6117    6114    6165    6168      28
    6114    6117    6120    6123      29    6108    6264    6261    6267       3
    6108    6264    6261    6258       3    6105    6108    6264    6261       2
    6105    6087    6093    6165       7    6105    6087    6084    6114      32
    6105    6087   -6084    6114      33    6102    6096    6093    6165       7
    6102    6105    6108    6264       3    6099    6096    6102    6105       7
    6099    6096    6093    6165       7    6096    6102    6105    6108       7
    6096    6093    6165    6168      11    6096    6093    6165    6114      32
    6096    6093   -6165    6114      33    6096    6093   -6087    6105      20
    6096    6093   -6087    6105      21    6096    6093   -6087    6105      22
    6093    6096   -6102    6105      20    6093    6096   -6102    6105      21
    6093    6096   -6102    6105      22    6093    6165    6114    6117      34
    6093    6165   -6114    6117       3    6093    6087   -6105    6102      20
    6093    6087   -6105    6102      21    6093    6087   -6105    6102      22
    6093    6087    6105    6108       7    6093    6087   -6084    6114      32
    6093    6087   -6084    6114      33    6087    6105   -6102    6096      20
    6087    6105   -6102    6096      21    6087    6105   -6102    6096      22
    6087    6105    6108    6264       3    6087    6093    6096    6099       7
    6087    6093   -6096    6102      20    6087    6093   -6096    6102      21
    6087    6093   -6096    6102      22    6087    6093    6165    6168      11
    6087    6093   -6165    6114      32    6087    6093   -6165    6114      33
    6087    6084   -6114    6165      28    6087    6084    6114    6117      34
    6087    6084   -6114    6117       3    6084    6087    6105    6102       7
    6084    6087    6105    6108       7    6084    6087    6093    6096       7
    6084    6087   -6093    6165       7    6084    6114   -6165    6093      28
    6084    6114    6165    6168      28    6084    6114    6117    6120      24
    6084    6114   -6117    6120      25    6084    6114   -6117    6120      26
    6081    6084    6087    6105      11    6081    6084    6087    6093      11
    6081    6084    6114    6165      28    6081    6084    6114    6117      28
    6321    6318    6324    6327      15    6321    6318   -6324    6327      16
    6315    6318    6324    6327      15    6315    6318   -6324    6327      16
    6312    6309    6306    6315      15    6312    6309   -6306    6315      16
    6309    6306    6315    6318      18    6309    6306   -6315    6318      19
    6306    6315    6318    6321      17    6306    6315    6318    6324      18
    6306    6315   -6318    6324      19    6306    6300   -6297    6324      20
    6306    6300   -6297    6324      21    6306    6300   -6297    6324      22
    6303    6300    6297    6324       7    6303    6300    6306    6315      15
    6303    6300   -6306    6315      16    6303    6300    6306    6309       7
    6300    6297    6324    6327       7    6300    6297    6324    6318      20
    6300    6297   -6324    6318      21    6300    6297   -6324    6318      22
    6300    6306   -6315    6318      18    6300    6306   -6315    6318      19
    6300    6306    6309    6312       7    6297    6324    6318    6321       7
    6297    6324    6318    6315       7    6297    6300   -6306    6315       7
    6297    6300    6306    6309      20    6297    6300   -6306    6309      21
    6297    6300   -6306    6309      22    6294    6297    6324    6327      15
    6294    6297   -6324    6327      16    6294    6297    6324    6318       7
    6294    6297    6300    6306       7    6294    6297    6300    6303      15
    6294    6297   -6300    6303      16    6291    6294    6297    6324      18
    6291    6294   -6297    6324      19    6291    6294    6297    6300      18
    6291    6294   -6297    6300      19    6288    6291    6294    6297      18
    6288    6291   -6294    6297      19    6285    6288    6291    6294       7
    6285    6282    6279    6330      24    6285    6282   -6279    6330      25
    6285    6282   -6279    6330      26    6282    6285    6288    6291      27
    6282    6279    6330    6333      28    6279    6282    6285    6288      29
    6273    6429    6426    6432       3    6273    6429    6426    6423       3
    6270    6273    6429    6426       2    6270    6252    6258    6330       7
    6270    6252    6249    6279      32    6270    6252   -6249    6279      33
    6267    6261    6258    6330       7    6267    6270    6273    6429       3
    6264    6261    6267    6270       7    6264    6261    6258    6330       7
    6261    6267    6270    6273       7    6261    6258    6330    6333      11
    6261    6258    6330    6279      32    6261    6258   -6330    6279      33
    6261    6258   -6252    6270      20    6261    6258   -6252    6270      21
    6261    6258   -6252    6270      22    6258    6261   -6267    6270      20
    6258    6261   -6267    6270      21    6258    6261   -6267    6270      22
    6258    6330    6279    6282      34    6258    6330   -6279    6282       3
    6258    6252   -6270    6267      20    6258    6252   -6270    6267      21
    6258    6252   -6270    6267      22    6258    6252    6270    6273       7
    6258    6252   -6249    6279      32    6258    6252   -6249    6279      33
    6252    6270   -6267    6261      20    6252    6270   -6267    6261      21
    6252    6270   -6267    6261      22    6252    6270    6273    6429       3
    6252    6258    6261    6264       7    6252    6258   -6261    6267      20
    6252    6258   -6261    6267      21    6252    6258   -6261    6267      22
    6252    6258    6330    6333      11    6252    6258   -6330    6279      32
    6252    6258   -6330    6279      33    6252    6249   -6279    6330      28
    6252    6249    6279    6282      34    6252    6249   -6279    6282       3
    6249    6252    6270    6267       7    6249    6252    6270    6273       7
    6249    6252    6258    6261       7    6249    6252   -6258    6330       7
    6249    6279   -6330    6258      28    6249    6279    6330    6333      28
    6249    6279    6282    6285      24    6249    6279   -6282    6285      25
    6249    6279   -6282    6285      26    6246    6249    6252    6270      11
    6246    6249    6252    6258      11    6246    6249    6279    6330      28
    6246    6249    6279    6282      28    6486    6483    6489    6492      15
    6486    6483   -6489    6492      16    6480    6483    6489    6492      15
    6480    6483   -6489    6492      16    6477    6474    6471    6480      15
    6477    6474   -6471    6480      16    6474    6471    6480    6483      18
    6474    6471   -6480    6483      19    6471    6480    6483    6486      17
    6471    6480    6483    6489      18    6471    6480   -6483    6489      19
    6471    6465   -6462    6489      20    6471    6465   -6462    6489      21
    6471    6465   -6462    6489      22    6468    6465    6462    6489       7
    6468    6465    6471    6480      15    6468    6465   -6471    6480      16
    6468    6465    6471    6474       7    6465    6462    6489    6492       7
    6465    6462    6489    6483      20    6465    6462   -6489    6483      21
    6465    6462   -6489    6483      22    6465    6471   -6480    6483      18
    6465    6471   -6480    6483      19    6465    6471    6474    6477       7
    6462    6489    6483    6486       7    6462    6489    6483    6480       7
    6462    6465   -6471    6480       7    6462    6465    6471    6474      20
    6462    6465   -6471    6474      21    6462    6465   -6471    6474      22
    6459    6462    6489    6492      15    6459    6462   -6489    6492      16
    6459    6462    6489    6483       7    6459    6462    6465    6471       7
    6459    6462    6465    6468      15    6459    6462   -6465    6468      16
    6456    6459    6462    6489      18    6456    6459   -6462    6489      19
    6456    6459    6462    6465      18    6456    6459   -6462    6465      19
    6453    6456    6459    6462      18    6453    6456   -6459    6462      19
    6450    6453    6456    6459       7    6450    6447    6444    6495      24
    6450    6447   -6444    6495      25    6450    6447   -6444    6495      26
    6447    6450    6453    6456      27    6447    6444    6495    6498      28
    6444    6447    6450    6453      29    6438    6594    6591    6597       3
    6438    6594    6591    6588       3    6435    6438    6594    6591       2
    6435    6417    6423    6495       7    6435    6417    6414    6444      32
    6435    6417   -6414    6444      33    6432    6426    6423    6495       7
    6432    6435    6438    6594       3    6429    6426    6432    6435       7
    6429    6426    6423    6495       7    6426    6432    6435    6438       7
    6426    6423    6495    6498      11    6426    6423    6495    6444      32
    6426    6423   -6495    6444      33    6426    6423   -6417    6435      20
    6426    6423   -6417    6435      21    6426    6423   -6417    6435      22
    6423    6426   -6432    6435      20    6423    6426   -6432    6435      21
    6423    6426   -6432    6435      22    6423    6495    6444    6447      34
    6423    6495   -6444    6447       3    6423    6417   -6435    6432      20
    6423    6417   -6435    6432      21    6423    6417   -6435    6432      22
    6423    6417    6435    6438       7    6423    6417   -6414    6444      32
    6423    6417   -6414    6444      33    6417    6435   -6432    6426      20
    6417    6435   -6432    6426      21    6417    6435   -6432    6426      22
    6417    6435    6438    6594       3    6417    6423    6426    6429       7
    6417    6423   -6426    6432      20    6417    6423   -6426    6432      21
    6417    6423   -6426    6432      22    6417    6423    6495    6498      11
    6417    6423   -6495    6444      32    6417    6423   -6495    6444      33
    6417    6414   -6444    6495      28    6417    6414    6444    6447      34
    6417    6414   -6444    6447       3    6414    6417    6435    6432       7
    6414    6417    6435    6438       7    6414    6417    6423    6426       7
    6414    6417   -6423    6495       7    6414    6444   -6495    6423      28
    6414    6444    6495    6498      28    6414    6444    6447    6450      24
    6414    6444   -6447    6450      25    6414    6444   -6447    6450      26
    6411    6414    6417    6435      11    6411    6414    6417    6423      11
    6411    6414    6444    6495      28    6411    6414    6444    6447      28
    6651    6648    6654    6657      15    6651    6648   -6654    6657      16
    6645    6648    6654    6657      15    6645    6648   -6654    6657      16
    6642    6639    6636    6645      15    6642    6639   -6636    6645      16
    6639    6636    6645    6648      18    6639    6636   -6645    6648      19
    6636    6645    6648    6651      17    6636    6645    6648    6654      18
    6636    6645   -6648    6654      19    6636    6630   -6627    6654      20
    6636    6630   -6627    6654      21    6636    6630   -6627    6654      22
    6633    6630    6627    6654       7    6633    6630    6636    6645      15
    6633    6630   -6636    6645      16    6633    6630    6636    6639       7
    6630    6627    6654    6657       7    6630    6627    6654    6648      20
    6630    6627   -6654    6648      21    6630    6627   -6654    6648      22
    6630    6636   -6645    6648      18    6630    6636   -6645    6648      19
    6630    6636    6639    6642       7    6627    6654    6648    6651       7
    6627    6654    6648    6645       7    6627    6630   -6636    6645       7
    6627    6630    6636    6639      20    6627    6630   -6636    6639      21
    6627    6630   -6636    6639      22    6624    6627    6654    6657      15
    6624    6627   -6654    6657      16    6624    6627    6654    6648       7
    6624    6627    6630    6636       7    6624    6627    6630    6633      15
    6624    6627   -6630    6633      16    6621    6624    6627    6654      18
    6621    6624   -6627    6654      19    6621    6624    6627    6630      18
    6621    6624   -6627    6630      19    6618    6621    6624    6627      18
    6618    6621   -6624    6627      19    6615    6618    6621    6624       7
    6615    6612    6609    6660      24    6615    6612   -6609    6660      25
    6615    6612   -6609    6660      26    6612    6615    6618    6621      27
    6612    6609    6660    6663      28    6609    6612    6615    6618      29
    6600    6582    6588    6660       7    6600    6582    6579    6609      32
    6600    6582   -6579    6609      33    6597    6591    6588    6660       7
    6597    6600    6603    6741       3    6594    6591    6597    6600       7
    6594    6591    6588    6660       7    6591    6597    6600    6603       7
    6591    6588    6660    6663      11    6591    6588    6660    6609      32
    6591    6588   -6660    6609      33    6591    6588   -6582    6600      20
    6591    6588   -6582    6600      21    6591    6588   -6582    6600      22
    6588    6591   -6597    6600      20    6588    6591   -6597    6600      21
    6588    6591   -6597    6600      22    6588    6660    6609    6612      34
    6588    6660   -6609    6612       3    6588    6582   -6600    6597      20
    6588    6582   -6600    6597      21    6588    6582   -6600    6597      22
    6588    6582    6600    6603       7    6588    6582   -6579    6609      32
    6588    6582   -6579    6609      33    6582    6600   -6597    6591      20
    6582    6600   -6597    6591      21    6582    6600   -6597    6591      22
    6582    6600    6603    6741       3    6582    6588    6591    6594       7
    6582    6588   -6591    6597      20    6582    6588   -6591    6597      21
    6582    6588   -6591    6597      22    6582    6588    6660    6663      11
    6582    6588   -6660    6609      32    6582    6588   -6660    6609      33
    6582    6579   -6609    6660      28    6582    6579    6609    6612      34
    6582    6579   -6609    6612       3    6579    6582    6600    6597       7
    6579    6582    6600    6603       7    6579    6582    6588    6591       7
    6579    6582   -6588    6660       7    6579    6609   -6660    6588      28
    6579    6609    6660    6663      28    6579    6609    6612    6615      24
    6579    6609   -6612    6615      25    6579    6609   -6612    6615      26
    6576    6579    6582    6600      11    6576    6579    6582    6588      11
    6576    6579    6609    6660      28    6576    6579    6609    6612      28
      15      27     -45     -42      35       6      36     -42     -45      35
      33      39     -36     -42      35      24      30     -27     -45      35
      12      18     -15     -45      35       3       9      -6     -42      35
      99     120    -171    -174      36      90     171    -120    -123      35
      93     120     -90     -87      36     264     285    -336    -339      36
     255     336    -285    -288      35     258     285    -255    -252      36
     429     450    -501    -504      36     420     501    -450    -453      35
     423     450    -420    -417      36     594     615    -666    -669      36
     585     666    -615    -618      35     588     615    -585    -582      36
     759     780    -831    -834      36     750     831    -780    -783      35
     753     780    -750    -747      36     924     945    -996    -999      36
     915     996    -945    -948      35     918     945    -915    -912      36
    1089    1110   -1161   -1164      36    1080    1161   -1110   -1113      35
    1083    1110   -1080   -1077      36    1254    1275   -1326   -1329      36
    1245    1326   -1275   -1278      35    1248    1275   -1245   -1242      36
    1419    1440   -1491   -1494      36    1410    1491   -1440   -1443      35
    1413    1440   -1410   -1407      36    1584    1605   -1656   -1659      36
    1575    1656   -1605   -1608      35    1578    1605   -1575   -1572      36
    1767    1788   -1839   -1842      36    1758    1839   -1788   -1791      35
    1761    1788   -1758   -1755      36    1932    1953   -2004   -2007      36
    1923    2004   -1953   -1956      35    1926    1953   -1923   -1920      36
    2097    2118   -2169   -2172      36    2088    2169   -2118   -2121      35
    2091    2118   -2088   -2085      36    2262    2283   -2334   -2337      36
    2253    2334   -2283   -2286      35    2256    2283   -2253   -2250      36
    2427    2448   -2499   -2502      36    2418    2499   -2448   -2451      35
    2421    2448   -2418   -2415      36    2592    2613   -2664   -2667      36
    2583    2664   -2613   -2616      35    2586    2613   -2583   -2580      36
    2757    2778   -2829   -2832      36    2748    2829   -2778   -2781      35
    2751    2778   -2748   -2745      36    2922    2943   -2994   -2997      36
    2913    2994   -2943   -2946      35    2916    2943   -2913   -2910      36
    3087    3108   -3159   -3162      36    3078    3159   -3108   -3111      35
    3081    3108   -3078   -3075      36    3252    3273   -3324   -3327      36
    3243    3324   -3273   -3276      35    3246    3273   -3243   -3240      36
    3435    3456   -3507   -3510      36    3426    3507   -3456   -3459      35
    3429    3456   -3426   -3423      36    3600    3621   -3672   -3675      36
    3591    3672   -3621   -3624      35    3594    3621   -3591   -3588      36
    3765    3786   -3837   -3840      36    3756    3837   -3786   -3789      35
    3759    3786   -3756   -3753      36    3930    3951   -4002   -4005      36
    3921    4002   -3951   -3954      35    3924    3951   -3921   -3918      36
    4095    4116   -4167   -4170      36    4086    4167   -4116   -4119      35
    4089    4116   -4086   -4083      36    4260    4281   -4332   -4335      36
    4251    4332   -4281   -4284      35    4254    4281   -4251   -4248      36
    4425    4446   -4497   -4500      36    4416    4497   -4446   -4449      35
    4419    4446   -4416   -4413      36    4590    4611   -4662   -4665      36
    4581    4662   -4611   -4614      35    4584    4611   -4581   -4578      36
    4755    4776   -4827   -4830      36    4746    4827   -4776   -4779      35
    4749    4776   -4746   -4743      36    4920    4941   -4992   -4995      36
    4911    4992   -4941   -4944      35    4914    4941   -4911   -4908      36
    5103    5124   -5175   -5178      36    5094    5175   -5124   -5127      35
    5097    5124   -5094   -5091      36    5268    5289   -5340   -5343      36
    5259    5340   -5289   -5292      35    5262    5289   -5259   -5256      36
    5433    5454   -5505   -5508      36    5424    5505   -5454   -5457      35
    5427    5454   -5424   -5421      36    5598    5619   -5670   -5673      36
    5589    5670   -5619   -5622      35    5592    5619   -5589   -5586      36
    5763    5784   -5835   -5838      36    5754    5835   -5784   -5787      35
    5757    5784   -5754   -5751      36    5928    5949   -6000   -6003      36
    5919    6000   -5949   -5952      35    5922    5949   -5919   -5916      36
    6093    6114   -6165   -6168      36    6084    6165   -6114   -6117      35
    6087    6114   -6084   -6081      36    6258    6279   -6330   -6333      36
    6249    6330   -6279   -6282      35    6252    6279   -6249   -6246      36
    6423    6444   -6495   -6498      36    6414    6495   -6444   -6447      35
    6417    6444   -6414   -6411      36    6588    6609   -6660   -6663      36
    6579    6660   -6609   -6612      35    6582    6609   -6579   -6576      36
%FLAG EXCLUDED_ATOMS_LIST                                                       
%FORMAT(10I8)                                                                   
       2       3       4      12      13      14      15      17      18      26
       3       4       5      13      14      15      16      17      18      19
      26       4       5       6      10      12      13      14      15      16
      17      18      19      20       5       6       7      13      15      16
      18      19      20       6       7       8      10      15      16      19
      20      21       7       8       9      10      11      13      15      16
      19      20      21      22       8       9      10      15      16      20
      21      22      23       9      10      11      16      21      22      23
      10      11      12      15      16      21      22      23      24      11
      12      13      15      16      22      23      24      25      12      13
      14      15      16      23      24      25      13      14      15      16
      24      25      26      14      15      16      17      24      25      26
      15      16      17      18      25      26      16      18      19      25
      26      20      21      23      24      18      26       0      20       0
      22      23       0      25       0       0      28      29      34      35
      36      37      60      61      29      35      36      61      35      36
      61      31      32      33      34      38      41      42      58      32
      33      34      35      37      38      39      40      41      42      43
      58      59      64      66      67      33      34      35      36      37
      38      39      40      41      42      58      59      60      62      63
      64      65      91      34      35      37      38      39      40      41
      58      64      35      36      37      38      39      40      41      42
      58      59      60      61      62      63      64      36      37      38
      39      40      41      58      59      60      61      62      63      64
      37      38      40      58      60      61      62      63      38      39
      40      58      60      61      62      63      64      65      91      39
      40      41      58      60      62      63      64      65      90      91
     116      62      63      64      65      89      90      91      92     115
     116      41      58      59      60      42      43      44      58      59
      66      67      68      69      43      44      45      58      59      66
      67      68      69      70      71      44      45      46      58      66
      67      68      69      70      71      72      73      45      46      47
      66      67      68      69      70      71      72      73      46      47
      48      56      68      69      70      71      72      73      74      47
      48      49      50      54      56      57      70      71      72      73
      74      75      83      48      49      50      51      53      54      55
      56      57      72      73      74      75      76      77      81      83
      84      49      50      51      52      53      54      56      57      74
      75      76      77      78      79      83      50      51      53      56
      74      75      76      77      51      52      53      54      55      56
      74      75      76      77      78      79      80      81      52      53
      54      75      77      78      79      80      53      77      78      79
      80      54      55      56      57      75      77      78      79      81
      82      83      55      56      57      74      77      81      82      83
      84      56      57      81      82      83      57      74      75      81
      82      83      84      74      81      83      84      59      60      66
      67       0      61      62      63       0      63      64      64      65
      91      90      91     116      67      68      69      68      69      69
      70      71      70      71      71      72      73      72      73      73
       0      75      83      76      77       0      78      79      79      80
      80       0      82      83       0      84       0      86      87      88
      89      93      96      97     113      87      88      89      90      92
      93      94      95      96      97      98     113     114     119     121
     122      88      89      90      91      92      93      94      95      96
      97     113     114     115     117     118     119     120     146      89
      90      92      93      94      95      96     113     119      90      91
      92      93      94      95      96      97     113     114     115     116
     117     118     119      91      92      93      94      95      96     113
     114     115     116     117     118     119      92      93      95     113
     115     116     117     118      93      94      95     113     115     116
     117     118     119     120     146      94      95      96     113     115
     117     118     119     120     145     146     171     117     118     119
     120     144     145     146     147     170     171      96     113     114
     115      97      98      99     113     114     121     122     123     124
      98      99     100     113     114     121     122     123     124     125
     126      99     100     101     113     121     122     123     124     125
     126     127     128     100     101     102     121     122     123     124
     125     126     127     128     101     102     103     111     123     124
     125     126     127     128     129     102     103     104     105     109
     111     112     125     126     127     128     129     130     138     103
     104     105     106     108     109     110     111     112     127     128
     129     130     131     132     136     138     139     104     105     106
     107     108     109     111     112     129     130     131     132     133
     134     138     105     106     108     111     129     130     131     132
     106     107     108     109     110     111     129     130     131     132
     133     134     135     136     107     108     109     130     132     133
     134     135     108     132     133     134     135     109     110     111
     112     130     132     133     134     136     137     138     110     111
     112     129     132     136     137     138     139     111     112     136
     137     138     112     129     130     136     137     138     139     129
     136     138     139     114     115     121     122       0     116     117
     118       0     118     119     119     120     146     145     146     171
     122     123     124     123     124     124     125     126     125     126
     126     127     128     127     128     128       0     130     138     131
     132       0     133     134     134     135     135       0     137     138
       0     139       0     141     142     143     144     148     151     152
     168     142     143     144     145     147     148     149     150     151
     152     153     168     169     174     176     177     143     144     145
     146     147     148     149     150     151     152     168     169     170
     172     173     174     175     201     144     145     147     148     149
     150     151     168     174     145     146     147     148     149     150
     151     152     168     169     170     171     172     173     174     146
     147     148     149     150     151     168     169     170     171     172
     173     174     147     148     150     168     170     171     172     173
     148     149     150     168     170     171     172     173     174     175
     201     149     150     151     168     170     172     173     174     175
     200     201     226     172     173     174     175     199     200     201
     202     225     226     151     168     169     170     152     153     154
     168     169     176     177     178     179     153     154     155     168
     169     176     177     178     179     180     181     154     155     156
     168     176     177     178     179     180     181     182     183     155
     156     157     176     177     178     179     180     181     182     183
     156     157     158     166     178     179     180     181     182     183
     184     157     158     159     160     164     166     167     180     181
     182     183     184     185     193     158     159     160     161     163
     164     165     166     167     182     183     184     185     186     187
     191     193     194     159     160     161     162     163     164     166
     167     184     185     186     187     188     189     193     160     161
     163     166     184     185     186     187     161     162     163     164
     165     166     184     185     186     187     188     189     190     191
     162     163     164     185     187     188     189     190     163     187
     188     189     190     164     165     166     167     185     187     188
     189     191     192     193     165     166     167     184     187     191
     192     193     194     166     167     191     192     193     167     184
     185     191     192     193     194     184     191     193     194     169
     170     176     177       0     171     172     173       0     173     174
     174     175     201     200     201     226     177     178     179     178
     179     179     180     181     180     181     181     182     183     182
     183     183       0     185     193     186     187       0     188     189
     189     190     190       0     192     193       0     194       0     196
     197     198     199     203     206     207     223     197     198     199
     200     202     203     204     205     206     207     208     223     224
     229     231     232     198     199     200     201     202     203     204
     205     206     207     223     224     225     227     228     229     230
     256     199     200     202     203     204     205     206     223     229
     200     201     202     203     204     205     206     207     223     224
     225     226     227     228     229     201     202     203     204     205
     206     223     224     225     226     227     228     229     202     203
     205     223     225     226     227     228     203     204     205     223
     225     226     227     228     229     230     256     204     205     206
     223     225     227     228     229     230     255     256     281     227
     228     229     230     254     255     256     257     280     281     206
     223     224     225     207     208     209     223     224     231     232
     233     234     208     209     210     223     224     231     232     233
     234     235     236     209     210     211     223     231     232     233
     234     235     236     237     238     210     211     212     231     232
     233     234     235     236     237     238     211     212     213     221
     233     234     235     236     237     238     239     212     213     214
     215     219     221     222     235     236     237     238     239     240
     248     213     214     215     216     218     219     220     221     222
     237     238     239     240     241     242     246     248     249     214
     215     216     217     218     219     221     222     239     240     241
     242     243     244     248     215     216     218     221     239     240
     241     242     216     217     218     219     220     221     239     240
     241     242     243     244     245     246     217     218     219     240
     242     243     244     245     218     242     243     244     245     219
     220     221     222     240     242     243     244     246     247     248
     220     221     222     239     242     246     247     248     249     221
     222     246     247     248     222     239     240     246     247     248
     249     239     246     248     249     224     225     231     232       0
     226     227     228       0     228     229     229     230     256     255
     256     281     232     233     234     233     234     234     235     236
     235     236     236     237     238     237     238     238       0     240
     248     241     242       0     243     244     244     245     245       0
     247     248       0     249       0     251     252     253     254     258
     261     262     278     252     253     254     255     257     258     259
     260     261     262     263     278     279     284     286     287     253
     254     255     256     257     258     259     260     261     262     278
     279     280     282     283     284     285     311     254     255     257
     258     259     260     261     278     284     255     256     257     258
     259     260     261     262     278     279     280     281     282     283
     284     256     257     258     259     260     261     278     279     280
     281     282     283     284     257     258     260     278     280     281
     282     283     258     259     260     278     280     281     282     283
     284     285     311     259     260     261     278     280     282     283
     284     285     310     311     336     282     283     284     285     309
     310     311     312     335     336     261     278     279     280     262
     263     264     278     279     286     287     288     289     263     264
     265     278     279     286     287     288     289     290     291     264
     265     266     278     286     287     288     289     290     291     292
     293     265     266     267     286     287     288     289     290     291
     292     293     266     267     268     276     288     289     290     291
     292     293     294     267     268     269     270     274     276     277
     290     291     292     293     294     295     303     268     269     270
     271     273     274     275     276     277     292     293     294     295
     296     297     301     303     304     269     270     271     272     273
     274     276     277     294     295     296     297     298     299     303
     270     271     273     276     294     295     296     297     271     272
     273     274     275     276     294     295     296     297     298     299
     300     301     272     273     274     295     297     298     299     300
     273     297     298     299     300     274     275     276     277     295
     297     298     299     301     302     303     275     276     277     294
     297     301     302     303     304     276     277     301     302     303
     277     294     295     301     302     303     304     294     301     303
     304     279     280     286     287       0     281     282     283       0
     283     284     284     285     311     310     311     336     287     288
     289     288     289     289     290     291     290     291     291     292
     293     292     293     293       0     295     303     296     297       0
     298     299     299     300     300       0     302     303       0     304
       0     306     307     308     309     313     316     317     333     307
     308     309     310     312     313     314     315     316     317     318
     333     334     339     341     342     308     309     310     311     312
     313     314     315     316     317     333     334     335     337     338
     339     340     366     309     310     312     313     314     315     316
     333     339     310     311     312     313     314     315     316     317
     333     334     335     336     337     338     339     311     312     313
     314     315     316     333     334     335     336     337     338     339
     312     313     315     333     335     336     337     338     313     314
     315     333     335     336     337     338     339     340     366     314
     315     316     333     335     337     338     339     340     365     366
     391     337     338     339     340     364     365     366     367     390
     391     316     333     334     335     317     318     319     333     334
     341     342     343     344     318     319     320     333     334     341
     342     343     344     345     346     319     320     321     333     341
     342     343     344     345     346     347     348     320     321     322
     341     342     343     344     345     346     347     348     321     322
     323     331     343     344     345     346     347     348     349     322
     323     324     325     329     331     332     345     346     347     348
     349     350     358     323     324     325     326     328     329     330
     331     332     347     348     349     350     351     352     356     358
     359     324     325     326     327     328     329     331     332     349
     350     351     352     353     354     358     325     326     328     331
     349     350     351     352     326     327     328     329     330     331
     349     350     351     352     353     354     355     356     327     328
     329     350     352     353     354     355     328     352     353     354
     355     329     330     331     332     350     352     353     354     356
     357     358     330     331     332     349     352     356     357     358
     359     331     332     356     357     358     332     349     350     356
     357     358     359     349     356     358     359     334     335     341
     342       0     336     337     338       0     338     339     339     340
     366     365     366     391     342     343     344     343     344     344
     345     346     345     346     346     347     348     347     348     348
       0     350     358     351     352       0     353     354     354     355
     355       0     357     358       0     359       0     361     362     363
     364     368     371     372     388     362     363     364     365     367
     368     369     370     371     372     373     388     389     394     396
     397     363     364     365     366     367     368     369     370     371
     372     388     389     390     392     393     394     395     421     364
     365     367     368     369     370     371     388     394     365     366
     367     368     369     370     371     372     388     389     390     391
     392     393     394     366     367     368     369     370     371     388
     389     390     391     392     393     394     367     368     370     388
     390     391     392     393     368     369     370     388     390     391
     392     393     394     395     421     369     370     371     388     390
     392     393     394     395     420     421     446     392     393     394
     395     419     420     421     422     445     446     371     388     389
     390     372     373     374     388     389     396     397     398     399
     373     374     375     388     389     396     397     398     399     400
     401     374     375     376     388     396     397     398     399     400
     401     402     403     375     376     377     396     397     398     399
     400     401     402     403     376     377     378     386     398     399
     400     401     402     403     404     377     378     379     380     384
     386     387     400     401     402     403     404     405     413     378
     379     380     381     383     384     385     386     387     402     403
     404     405     406     407     411     413     414     379     380     381
     382     383     384     386     387     404     405     406     407     408
     409     413     380     381     383     386     404     405     406     407
     381     382     383     384     385     386     404     405     406     407
     408     409     410     411     382     383     384     405     407     408
     409     410     383     407     408     409     410     384     385     386
     387     405     407     408     409     411     412     413     385     386
     387     404     407     411     412     413     414     386     387     411
     412     413     387     404     405     411     412     413     414     404
     411     413     414     389     390     396     397       0     391     392
     393       0     393     394     394     395     421     420     421     446
     397     398     399     398     399     399     400     401     400     401
     401     402     403     402     403     403       0     405     413     406
     407       0     408     409     409     410     410       0     412     413
       0     414       0     416     417     418     419     423     426     427
     443     417     418     419     420     422     423     424     425     426
     427     428     443     444     449     451     452     418     419     420
     421     422     423     424     425     426     427     443     444     445
     447     448     449     450     476     419     420     422     423     424
     425     426     443     449     420     421     422     423     424     425
     426     427     443     444     445     446     447     448     449     421
     422     423     424     425     426     443     444     445     446     447
     448     449     422     423     425     443     445     446     447     448
     423     424     425     443     445     446     447     448     449     450
     476     424     425     426     443     445     447     448     449     450
     475     476     501     447     448     449     450     474     475     476
     477     500     501     426     443     444     445     427     428     429
     443     444     451     452     453     454     428     429     430     443
     444     451     452     453     454     455     456     429     430     431
     443     451     452     453     454     455     456     457     458     430
     431     432     451     452     453     454     455     456     457     458
     431     432     433     441     453     454     455     456     457     458
     459     432     433     434     435     439     441     442     455     456
     457     458     459     460     468     433     434     435     436     438
     439     440     441     442     457     458     459     460     461     462
     466     468     469     434     435     436     437     438     439     441
     442     459     460     461     462     463     464     468     435     436
     438     441     459     460     461     462     436     437     438     439
     440     441     459     460     461     462     463     464     465     466
     437     438     439     460     462     463     464     465     438     462
     463     464     465     439     440     441     442     460     462     463
     464     466     467     468     440     441     442     459     462     466
     467     468     469     441     442     466     467     468     442     459
     460     466     467     468     469     459     466     468     469     444
     445     451     452       0     446     447     448       0     448     449
     449     450     476     475     476     501     452     453     454     453
     454     454     455     456     455     456     456     457     458     457
     458     458       0     460     468     461     462       0     463     464
     464     465     465       0     467     468       0     469       0     471
     472     473     474     478     481     482     498     472     473     474
     475     477     478     479     480     481     482     483     498     499
     504     506     507     473     474     475     476     477     478     479
     480     481     482     498     499     500     502     503     504     505
     531     474     475     477     478     479     480     481     498     504
     475     476     477     478     479     480     481     482     498     499
     500     501     502     503     504     476     477     478     479     480
     481     498     499     500     501     502     503     504     477     478
     480     498     500     501     502     503     478     479     480     498
     500     501     502     503     504     505     531     479     480     481
     498     500     502     503     504     505     530     531     556     502
     503     504     505     529     530     531     532     555     556     481
     498     499     500     482     483     484     498     499     506     507
     508     509     483     484     485     498     499     506     507     508
     509     510     511     484     485     486     498     506     507     508
     509     510     511     512     513     485     486     487     506     507
     508     509     510     511     512     513     486     487     488     496
     508     509     510     511     512     513     514     487     488     489
     490     494     496     497     510     511     512     513     514     515
     523     488     489     490     491     493     494     495     496     497
     512     513     514     515     516     517     521     523     524     489
     490     491     492     493     494     496     497     514     515     516
     517     518     519     523     490     491     493     496     514     515
     516     517     491     492     493     494     495     496     514     515
     516     517     518     519     520     521     492     493     494     515
     517     518     519     520     493     517     518     519     520     494
     495     496     497     515     517     518     519     521     522     523
     495     496     497     514     517     521     522     523     524     496
     497     521     522     523     497     514     515     521     522     523
     524     514     521     523     524     499     500     506     507       0
     501     502     503       0     503     504     504     505     531     530
     531     556     507     508     509     508     509     509     510     511
     510     511     511     512     513     512     513     513       0     515
     523     516     517       0     518     519     519     520     520       0
     522     523       0     524       0     526     527     528     529     533
     536     537     553     527     528     529     530     532     533     534
     535     536     537     538     553     554     559     561     562     528
     529     530     531     532     533     534     535     536     537     553
     554     555     557     558     559     560     580     529     530     532
     533     534     535     536     553     559     530     531     532     533
     534     535     536     537     553     554     555     556     557     558
     559     531     532     533     534     535     536     553     554     555
     556     557     558     559     532     533     535     553     555     556
     557     558     533     534     535     553     555     556     557     558
     559     560     580     534     535     536     553     555     557     558
     559     560     580     581     582     557     558     559     560     580
     581     582     536     553     554     555     537     538     539     553
     554     561     562     563     564     538     539     540     553     554
     561     562     563     564     565     566     539     540     541     553
     561     562     563     564     565     566     567     568     540     541
     542     561     562     563     564     565     566     567     568     541
     542     543     551     563     564     565     566     567     568     569
     542     543     544     545     549     551     552     565     566     567
     568     569     570     578     543     544     545     546     548     549
     550     551     552     567     568     569     570     571     572     576
     578     579     544     545     546     547     548     549     551     552
     569     570     571     572     573     574     578     545     546     548
     551     569     570     571     572     546     547     548     549     550
     551     569     570     571     572     573     574     575     576     547
     548     549     570     572     573     574     575     548     572     573
     574     575     549     550     551     552     570     572     573     574
     576     577     578     550     551     552     569     572     576     577
     578     579     551     552     576     577     578     552     569     570
     576     577     578     579     569     576     578     579     554     555
     561     562       0     556     557     558       0     558     559     559
     560     580     580     581     582     562     563     564     563     564
     564     565     566     565     566     566     567     568     567     568
     568       0     570     578     571     572       0     573     574     574
     575     575       0     577     578       0     579       0     581     582
     582       0     584     585     590     591     592     593     616     617
     585     591     592     617     591     592     617     587     588     589
     590     594     597     598     614     588     589     590     591     593
     594     595     596     597     598     599     614     615     620     622
     623     589     590     591     592     593     594     595     596     597
     598     614     615     616     618     619     620     621     647     590
     591     593     594     595     596     597     614     620     591     592
     593     594     595     596     597     598     614     615     616     617
     618     619     620     592     593     594     595     596     597     614
     615     616     617     618     619     620     593     594     596     614
     616     617     618     619     594     595     596     614     616     617
     618     619     620     621     647     595     596     597     614     616
     618     619     620     621     646     647     672     618     619     620
     621     645     646     647     648     671     672     597     614     615
     616     598     599     600     614     615     622     623     624     625
     599     600     601     614     615     622     623     624     625     626
     627     600     601     602     614     622     623     624     625     626
     627     628     629     601     602     603     622     623     624     625
     626     627     628     629     602     603     604     612     624     625
     626     627     628     629     630     603     604     605     606     610
     612     613     626     627     628     629     630     631     639     604
     605     606     607     609     610     611     612     613     628     629
     630     631     632     633     637     639     640     605     606     607
     608     609     610     612     613     630     631     632     633     634
     635     639     606     607     609     612     630     631     632     633
     607     608     609     610     611     612     630     631     632     633
     634     635     636     637     608     609     610     631     633     634
     635     636     609     633     634     635     636     610     611     612
     613     631     633     634     635     637     638     639     611     612
     613     630     633     637     638     639     640     612     613     637
     638     639     613     630     631     637     638     639     640     630
     637     639     640     615     616     622     623       0     617     618
     619       0     619     620     620     621     647     646     647     672
     623     624     625     624     625     625     626     627     626     627
     627     628     629     628     629     629       0     631     639     632
     633       0     634     635     635     636     636       0     638     639
       0     640       0     642     643     644     645     649     652     653
     669     643     644     645     646     648     649     650     651     652
     653     654     669     670     675     677     678     644     645     646
     647     648     649     650     651     652     653     669     670     671
     673     674     675     676     702     645     646     648     649     650
     651     652     669     675     646     647     648     649     650     651
     652     653     669     670     671     672     673     674     675     647
     648     649     650     651     652     669     670     671     672     673
     674     675     648     649     651     669     671     672     673     674
     649     650     651     669     671     672     673     674     675     676
     702     650     651     652     669     671     673     674     675     676
     701     702     727     673     674     675     676     700     701     702
     703     726     727     652     669     670     671     653     654     655
     669     670     677     678     679     680     654     655     656     669
     670     677     678     679     680     681     682     655     656     657
     669     677     678     679     680     681     682     683     684     656
     657     658     677     678     679     680     681     682     683     684
     657     658     659     667     679     680     681     682     683     684
     685     658     659     660     661     665     667     668     681     682
     683     684     685     686     694     659     660     661     662     664
     665     666     667     668     683     684     685     686     687     688
     692     694     695     660     661     662     663     664     665     667
     668     685     686     687     688     689     690     694     661     662
     664     667     685     686     687     688     662     663     664     665
     666     667     685     686     687     688     689     690     691     692
     663     664     665     686     688     689     690     691     664     688
     689     690     691     665     666     667     668     686     688     689
     690     692     693     694     666     667     668     685     688     692
     693     694     695     667     668     692     693     694     668     685
     686     692     693     694     695     685     692     694     695     670
     671     677     678       0     672     673     674       0     674     675
     675     676     702     701     702     727     678     679     680     679
     680     680     681     682     681     682     682     683     684     683
     684     684       0     686     694     687     688       0     689     690
     690     691     691       0     693     694       0     695       0     697
     698     699     700     704     707     708     724     698     699     700
     701     703     704     705     706     707     708     709     724     725
     730     732     733     699     700     701     702     703     704     705
     706     707     708     724     725     726     728     729     730     731
     757     700     701     703     704     705     706     707     724     730
     701     702     703     704     705     706     707     708     724     725
     726     727     728     729     730     702     703     704     705     706
     707     724     725     726     727     728     729     730     703     704
     706     724     726     727     728     729     704     705     706     724
     726     727     728     729     730     731     757     705     706     707
     724     726     728     729     730     731     756     757     782     728
     729     730     731     755     756     757     758     781     782     707
     724     725     726     708     709     710     724     725     732     733
     734     735     709     710     711     724     725     732     733     734
     735     736     737     710     711     712     724     732     733     734
     735     736     737     738     739     711     712     713     732     733
     734     735     736     737     738     739     712     713     714     722
     734     735     736     737     738     739     740     713     714     715
     716     720     722     723     736     737     738     739     740     741
     749     714     715     716     717     719     720     721     722     723
     738     739     740     741     742     743     747     749     750     715
     716     717     718     719     720     722     723     740     741     742
     743     744     745     749     716     717     719     722     740     741
     742     743     717     718     719     720     721     722     740     741
     742     743     744     745     746     747     718     719     720     741
     743     744     745     746     719     743     744     745     746     720
     721     722     723     741     743     744     745     747     748     749
     721     722     723     740     743     747     748     749     750     722
     723     747     748     749     723     740     741     747     748     749
     750     740     747     749     750     725     726     732     733       0
     727     728     729       0     729     730     730     731     757     756
     757     782     733     734     735     734     735     735     736     737
     736     737     737     738     739     738     739     739       0     741
     749     742     743       0     744     745     745     746     746       0
     748     749       0     750       0     752     753     754     755     759
     762     763     779     753     754     755     756     758     759     760
     761     762     763     764     779     780     785     787     788     754
     755     756     757     758     759     760     761     762     763     779
     780     781     783     784     785     786     812     755     756     758
     759     760     761     762     779     785     756     757     758     759
     760     761     762     763     779     780     781     782     783     784
     785     757     758     759     760     761     762     779     780     781
     782     783     784     785     758     759     761     779     781     782
     783     784     759     760     761     779     781     782     783     784
     785     786     812     760     761     762     779     781     783     784
     785     786     811     812     837     783     784     785     786     810
     811     812     813     836     837     762     779     780     781     763
     764     765     779     780     787     788     789     790     764     765
     766     779     780     787     788     789     790     791     792     765
     766     767     779     787     788     789     790     791     792     793
     794     766     767     768     787     788     789     790     791     792
     793     794     767     768     769     777     789     790     791     792
     793     794     795     768     769     770     771     775     777     778
     791     792     793     794     795     796     804     769     770     771
     772     774     775     776     777     778     793     794     795     796
     797     798     802     804     805     770     771     772     773     774
     775     777     778     795     796     797     798     799     800     804
     771     772     774     777     795     796     797     798     772     773
     774     775     776     777     795     796     797     798     799     800
     801     802     773     774     775     796     798     799     800     801
     774     798     799     800     801     775     776     777     778     796
     798     799     800     802     803     804     776     777     778     795
     798     802     803     804     805     777     778     802     803     804
     778     795     796     802     803     804     805     795     802     804
     805     780     781     787     788       0     782     783     784       0
     784     785     785     786     812     811     812     837     788     789
     790     789     790     790     791     792     791     792     792     793
     794     793     794     794       0     796     804     797     798       0
     799     800     800     801     801       0     803     804       0     805
       0     807     808     809     810     814     817     818     834     808
     809     810     811     813     814     815     816     817     818     819
     834     835     840     842     843     809     810     811     812     813
     814     815     816     817     818     834     835     836     838     839
     840     841     867     810     811     813     814     815     816     817
     834     840     811     812     813     814     815     816     817     818
     834     835     836     837     838     839     840     812     813     814
     815     816     817     834     835     836     837     838     839     840
     813     814     816     834     836     837     838     839     814     815
     816     834     836     837     838     839     840     841     867     815
     816     817     834     836     838     839     840     841     866     867
     892     838     839     840     841     865     866     867     868     891
     892     817     834     835     836     818     819     820     834     835
     842     843     844     845     819     820     821     834     835     842
     843     844     845     846     847     820     821     822     834     842
     843     844     845     846     847     848     849     821     822     823
     842     843     844     845     846     847     848     849     822     823
     824     832     844     845     846     847     848     849     850     823
     824     825     826     830     832     833     846     847     848     849
     850     851     859     824     825     826     827     829     830     831
     832     833     848     849     850     851     852     853     857     859
     860     825     826     827     828     829     830     832     833     850
     851     852     853     854     855     859     826     827     829     832
     850     851     852     853     827     828     829     830     831     832
     850     851     852     853     854     855     856     857     828     829
     830     851     853     854     855     856     829     853     854     855
     856     830     831     832     833     851     853     854     855     857
     858     859     831     832     833     850     853     857     858     859
     860     832     833     857     858     859     833     850     851     857
     858     859     860     850     857     859     860     835     836     842
     843       0     837     838     839       0     839     840     840     841
     867     866     867     892     843     844     845     844     845     845
     846     847     846     847     847     848     849     848     849     849
       0     851     859     852     853       0     854     855     855     856
     856       0     858     859       0     860       0     862     863     864
     865     869     872     873     889     863     864     865     866     868
     869     870     871     872     873     874     889     890     895     897
     898     864     865     866     867     868     869     870     871     872
     873     889     890     891     893     894     895     896     922     865
     866     868     869     870     871     872     889     895     866     867
     868     869     870     871     872     873     889     890     891     892
     893     894     895     867     868     869     870     871     872     889
     890     891     892     893     894     895     868     869     871     889
     891     892     893     894     869     870     871     889     891     892
     893     894     895     896     922     870     871     872     889     891
     893     894     895     896     921     922     947     893     894     895
     896     920     921     922     923     946     947     872     889     890
     891     873     874     875     889     890     897     898     899     900
     874     875     876     889     890     897     898     899     900     901
     902     875     876     877     889     897     898     899     900     901
     902     903     904     876     877     878     897     898     899     900
     901     902     903     904     877     878     879     887     899     900
     901     902     903     904     905     878     879     880     881     885
     887     888     901     902     903     904     905     906     914     879
     880     881     882     884     885     886     887     888     903     904
     905     906     907     908     912     914     915     880     881     882
     883     884     885     887     888     905     906     907     908     909
     910     914     881     882     884     887     905     906     907     908
     882     883     884     885     886     887     905     906     907     908
     909     910     911     912     883     884     885     906     908     909
     910     911     884     908     909     910     911     885     886     887
     888     906     908     909     910     912     913     914     886     887
     888     905     908     912     913     914     915     887     888     912
     913     914     888     905     906     912     913     914     915     905
     912     914     915     890     891     897     898       0     892     893
     894       0     894     895     895     896     922     921     922     947
     898     899     900     899     900     900     901     902     901     902
     902     903     904     903     904     904       0     906     914     907
     908       0     909     910     910     911     911       0     913     914
       0     915       0     917     918     919     920     924     927     928
     944     918     919     920     921     923     924     925     926     927
     928     929     944     945     950     952     953     919     920     921
     922     923     924     925     926     927     928     944     945     946
     948     949     950     951     977     920     921     923     924     925
     926     927     944     950     921     922     923     924     925     926
     927     928     944     945     946     947     948     949     950     922
     923     924     925     926     927     944     945     946     947     948
     949     950     923     924     926     944     946     947     948     949
     924     925     926     944     946     947     948     949     950     951
     977     925     926     927     944     946     948     949     950     951
     976     977    1002     948     949     950     951     975     976     977
     978    1001    1002     927     944     945     946     928     929     930
     944     945     952     953     954     955     929     930     931     944
     945     952     953     954     955     956     957     930     931     932
     944     952     953     954     955     956     957     958     959     931
     932     933     952     953     954     955     956     957     958     959
     932     933     934     942     954     955     956     957     958     959
     960     933     934     935     936     940     942     943     956     957
     958     959     960     961     969     934     935     936     937     939
     940     941     942     943     958     959     960     961     962     963
     967     969     970     935     936     937     938     939     940     942
     943     960     961     962     963     964     965     969     936     937
     939     942     960     961     962     963     937     938     939     940
     941     942     960     961     962     963     964     965     966     967
     938     939     940     961     963     964     965     966     939     963
     964     965     966     940     941     942     943     961     963     964
     965     967     968     969     941     942     943     960     963     967
     968     969     970     942     943     967     968     969     943     960
     961     967     968     969     970     960     967     969     970     945
     946     952     953       0     947     948     949       0     949     950
     950     951     977     976     977    1002     953     954     955     954
     955     955     956     957     956     957     957     958     959     958
     959     959       0     961     969     962     963       0     964     965
     965     966     966       0     968     969       0     970       0     972
     973     974     975     979     982     983     999     973     974     975
     976     978     979     980     981     982     983     984     999    1000
    1005    1007    1008     974     975     976     977     978     979     980
     981     982     983     999    1000    1001    1003    1004    1005    1006
    1032     975     976     978     979     980     981     982     999    1005
     976     977     978     979     980     981     982     983     999    1000
    1001    1002    1003    1004    1005     977     978     979     980     981
     982     999    1000    1001    1002    1003    1004    1005     978     979
     981     999    1001    1002    1003    1004     979     980     981     999
    1001    1002    1003    1004    1005    1006    1032     980     981     982
     999    1001    1003    1004    1005    1006    1031    1032    1057    1003
    1004    1005    1006    1030    1031    1032    1033    1056    1057     982
     999    1000    1001     983     984     985     999    1000    1007    1008
    1009    1010     984     985     986     999    1000    1007    1008    1009
    1010    1011    1012     985     986     987     999    1007    1008    1009
    1010    1011    1012    1013    1014     986     987     988    1007    1008
    1009    1010    1011    1012    1013    1014     987     988     989     997
    1009    1010    1011    1012    1013    1014    1015     988     989     990
     991     995     997     998    1011    1012    1013    1014    1015    1016
    1024     989     990     991     992     994     995     996     997     998
    1013    1014    1015    1016    1017    1018    1022    1024    1025     990
     991     992     993     994     995     997     998    1015    1016    1017
    1018    1019    1020    1024     991     992     994     997    1015    1016
    1017    1018     992     993     994     995     996     997    1015    1016
    1017    1018    1019    1020    1021    1022     993     994     995    1016
    1018    1019    1020    1021     994    1018    1019    1020    1021     995
     996     997     998    1016    1018    1019    1020    1022    1023    1024
     996     997     998    1015    1018    1022    1023    1024    1025     997
     998    1022    1023    1024     998    1015    1016    1022    1023    1024
    1025    1015    1022    1024    1025    1000    1001    1007    1008       0
    1002    1003    1004       0    1004    1005    1005    1006    1032    1031
    1032    1057    1008    1009    1010    1009    1010    1010    1011    1012
    1011    1012    1012    1013    1014    1013    1014    1014       0    1016
    1024    1017    1018       0    1019    1020    1020    1021    1021       0
    1023    1024       0    1025       0    1027    1028    1029    1030    1034
    1037    1038    1054    1028    1029    1030    1031    1033    1034    1035
    1036    1037    1038    1039    1054    1055    1060    1062    1063    1029
    1030    1031    1032    1033    1034    1035    1036    1037    1038    1054
    1055    1056    1058    1059    1060    1061    1087    1030    1031    1033
    1034    1035    1036    1037    1054    1060    1031    1032    1033    1034
    1035    1036    1037    1038    1054    1055    1056    1057    1058    1059
    1060    1032    1033    1034    1035    1036    1037    1054    1055    1056
    1057    1058    1059    1060    1033    1034    1036    1054    1056    1057
    1058    1059    1034    1035    1036    1054    1056    1057    1058    1059
    1060    1061    1087    1035    1036    1037    1054    1056    1058    1059
    1060    1061    1086    1087    1112    1058    1059    1060    1061    1085
    1086    1087    1088    1111    1112    1037    1054    1055    1056    1038
    1039    1040    1054    1055    1062    1063    1064    1065    1039    1040
    1041    1054    1055    1062    1063    1064    1065    1066    1067    1040
    1041    1042    1054    1062    1063    1064    1065    1066    1067    1068
    1069    1041    1042    1043    1062    1063    1064    1065    1066    1067
    1068    1069    1042    1043    1044    1052    1064    1065    1066    1067
    1068    1069    1070    1043    1044    1045    1046    1050    1052    1053
    1066    1067    1068    1069    1070    1071    1079    1044    1045    1046
    1047    1049    1050    1051    1052    1053    1068    1069    1070    1071
    1072    1073    1077    1079    1080    1045    1046    1047    1048    1049
    1050    1052    1053    1070    1071    1072    1073    1074    1075    1079
    1046    1047    1049    1052    1070    1071    1072    1073    1047    1048
    1049    1050    1051    1052    1070    1071    1072    1073    1074    1075
    1076    1077    1048    1049    1050    1071    1073    1074    1075    1076
    1049    1073    1074    1075    1076    1050    1051    1052    1053    1071
    1073    1074    1075    1077    1078    1079    1051    1052    1053    1070
    1073    1077    1078    1079    1080    1052    1053    1077    1078    1079
    1053    1070    1071    1077    1078    1079    1080    1070    1077    1079
    1080    1055    1056    1062    1063       0    1057    1058    1059       0
    1059    1060    1060    1061    1087    1086    1087    1112    1063    1064
    1065    1064    1065    1065    1066    1067    1066    1067    1067    1068
    1069    1068    1069    1069       0    1071    1079    1072    1073       0
    1074    1075    1075    1076    1076       0    1078    1079       0    1080
       0    1082    1083    1084    1085    1089    1092    1093    1109    1083
    1084    1085    1086    1088    1089    1090    1091    1092    1093    1094
    1109    1110    1115    1117    1118    1084    1085    1086    1087    1088
    1089    1090    1091    1092    1093    1109    1110    1111    1113    1114
    1115    1116    1136    1085    1086    1088    1089    1090    1091    1092
    1109    1115    1086    1087    1088    1089    1090    1091    1092    1093
    1109    1110    1111    1112    1113    1114    1115    1087    1088    1089
    1090    1091    1092    1109    1110    1111    1112    1113    1114    1115
    1088    1089    1091    1109    1111    1112    1113    1114    1089    1090
    1091    1109    1111    1112    1113    1114    1115    1116    1136    1090
    1091    1092    1109    1111    1113    1114    1115    1116    1136    1137
    1138    1113    1114    1115    1116    1136    1137    1138    1092    1109
    1110    1111    1093    1094    1095    1109    1110    1117    1118    1119
    1120    1094    1095    1096    1109    1110    1117    1118    1119    1120
    1121    1122    1095    1096    1097    1109    1117    1118    1119    1120
    1121    1122    1123    1124    1096    1097    1098    1117    1118    1119
    1120    1121    1122    1123    1124    1097    1098    1099    1107    1119
    1120    1121    1122    1123    1124    1125    1098    1099    1100    1101
    1105    1107    1108    1121    1122    1123    1124    1125    1126    1134
    1099    1100    1101    1102    1104    1105    1106    1107    1108    1123
    1124    1125    1126    1127    1128    1132    1134    1135    1100    1101
    1102    1103    1104    1105    1107    1108    1125    1126    1127    1128
    1129    1130    1134    1101    1102    1104    1107    1125    1126    1127
    1128    1102    1103    1104    1105    1106    1107    1125    1126    1127
    1128    1129    1130    1131    1132    1103    1104    1105    1126    1128
    1129    1130    1131    1104    1128    1129    1130    1131    1105    1106
    1107    1108    1126    1128    1129    1130    1132    1133    1134    1106
    1107    1108    1125    1128    1132    1133    1134    1135    1107    1108
    1132    1133    1134    1108    1125    1126    1132    1133    1134    1135
    1125    1132    1134    1135    1110    1111    1117    1118       0    1112
    1113    1114       0    1114    1115    1115    1116    1136    1136    1137
    1138    1118    1119    1120    1119    1120    1120    1121    1122    1121
    1122    1122    1123    1124    1123    1124    1124       0    1126    1134
    1127    1128       0    1129    1130    1130    1131    1131       0    1133
    1134       0    1135       0    1137    1138    1138       0    1140    1141
    1146    1147    1148    1149    1172    1173    1141    1147    1148    1173
    1147    1148    1173    1143    1144    1145    1146    1150    1153    1154
    1170    1144    1145    1146    1147    1149    1150    1151    1152    1153
    1154    1155    1170    1171    1176    1178    1179    1145    1146    1147
    1148    1149    1150    1151    1152    1153    1154    1170    1171    1172
    1174    1175    1176    1177    1203    1146    1147    1149    1150    1151
    1152    1153    1170    1176    1147    1148    1149    1150    1151    1152
    1153    1154    1170    1171    1172    1173    1174    1175    1176    1148
    1149    1150    1151    1152    1153    1170    1171    1172    1173    1174
    1175    1176    1149    1150    1152    1170    1172    1173    1174    1175
    1150    1151    1152    1170    1172    1173    1174    1175    1176    1177
    1203    1151    1152    1153    1170    1172    1174    1175    1176    1177
    1202    1203    1228    1174    1175    1176    1177    1201    1202    1203
    1204    1227    1228    1153    1170    1171    1172    1154    1155    1156
    1170    1171    1178    1179    1180    1181    1155    1156    1157    1170
    1171    1178    1179    1180    1181    1182    1183    1156    1157    1158
    1170    1178    1179    1180    1181    1182    1183    1184    1185    1157
    1158    1159    1178    1179    1180    1181    1182    1183    1184    1185
    1158    1159    1160    1168    1180    1181    1182    1183    1184    1185
    1186    1159    1160    1161    1162    1166    1168    1169    1182    1183
    1184    1185    1186    1187    1195    1160    1161    1162    1163    1165
    1166    1167    1168    1169    1184    1185    1186    1187    1188    1189
    1193    1195    1196    1161    1162    1163    1164    1165    1166    1168
    1169    1186    1187    1188    1189    1190    1191    1195    1162    1163
    1165    1168    1186    1187    1188    1189    1163    1164    1165    1166
    1167    1168    1186    1187    1188    1189    1190    1191    1192    1193
    1164    1165    1166    1187    1189    1190    1191    1192    1165    1189
    1190    1191    1192    1166    1167    1168    1169    1187    1189    1190
    1191    1193    1194    1195    1167    1168    1169    1186    1189    1193
    1194    1195    1196    1168    1169    1193    1194    1195    1169    1186
    1187    1193    1194    1195    1196    1186    1193    1195    1196    1171
    1172    1178    1179       0    1173    1174    1175       0    1175    1176
    1176    1177    1203    1202    1203    1228    1179    1180    1181    1180
    1181    1181    1182    1183    1182    1183    1183    1184    1185    1184
    1185    1185       0    1187    1195    1188    1189       0    1190    1191
    1191    1192    1192       0    1194    1195       0    1196       0    1198
    1199    1200    1201    1205    1208    1209    1225    1199    1200    1201
    1202    1204    1205    1206    1207    1208    1209    1210    1225    1226
    1231    1233    1234    1200    1201    1202    1203    1204    1205    1206
    1207    1208    1209    1225    1226    1227    1229    1230    1231    1232
    1258    1201    1202    1204    1205    1206    1207    1208    1225    1231
    1202    1203    1204    1205    1206    1207    1208    1209    1225    1226
    1227    1228    1229    1230    1231    1203    1204    1205    1206    1207
    1208    1225    1226    1227    1228    1229    1230    1231    1204    1205
    1207    1225    1227    1228    1229    1230    1205    1206    1207    1225
    1227    1228    1229    1230    1231    1232    1258    1206    1207    1208
    1225    1227    1229    1230    1231    1232    1257    1258    1283    1229
    1230    1231    1232    1256    1257    1258    1259    1282    1283    1208
    1225    1226    1227    1209    1210    1211    1225    1226    1233    1234
    1235    1236    1210    1211    1212    1225    1226    1233    1234    1235
    1236    1237    1238    1211    1212    1213    1225    1233    1234    1235
    1236    1237    1238    1239    1240    1212    1213    1214    1233    1234
    1235    1236    1237    1238    1239    1240    1213    1214    1215    1223
    1235    1236    1237    1238    1239    1240    1241    1214    1215    1216
    1217    1221    1223    1224    1237    1238    1239    1240    1241    1242
    1250    1215    1216    1217    1218    1220    1221    1222    1223    1224
    1239    1240    1241    1242    1243    1244    1248    1250    1251    1216
    1217    1218    1219    1220    1221    1223    1224    1241    1242    1243
    1244    1245    1246    1250    1217    1218    1220    1223    1241    1242
    1243    1244    1218    1219    1220    1221    1222    1223    1241    1242
    1243    1244    1245    1246    1247    1248    1219    1220    1221    1242
    1244    1245    1246    1247    1220    1244    1245    1246    1247    1221
    1222    1223    1224    1242    1244    1245    1246    1248    1249    1250
    1222    1223    1224    1241    1244    1248    1249    1250    1251    1223
    1224    1248    1249    1250    1224    1241    1242    1248    1249    1250
    1251    1241    1248    1250    1251    1226    1227    1233    1234       0
    1228    1229    1230       0    1230    1231    1231    1232    1258    1257
    1258    1283    1234    1235    1236    1235    1236    1236    1237    1238
    1237    1238    1238    1239    1240    1239    1240    1240       0    1242
    1250    1243    1244       0    1245    1246    1246    1247    1247       0
    1249    1250       0    1251       0    1253    1254    1255    1256    1260
    1263    1264    1280    1254    1255    1256    1257    1259    1260    1261
    1262    1263    1264    1265    1280    1281    1286    1288    1289    1255
    1256    1257    1258    1259    1260    1261    1262    1263    1264    1280
    1281    1282    1284    1285    1286    1287    1313    1256    1257    1259
    1260    1261    1262    1263    1280    1286    1257    1258    1259    1260
    1261    1262    1263    1264    1280    1281    1282    1283    1284    1285
    1286    1258    1259    1260    1261    1262    1263    1280    1281    1282
    1283    1284    1285    1286    1259    1260    1262    1280    1282    1283
    1284    1285    1260    1261    1262    1280    1282    1283    1284    1285
    1286    1287    1313    1261    1262    1263    1280    1282    1284    1285
    1286    1287    1312    1313    1338    1284    1285    1286    1287    1311
    1312    1313    1314    1337    1338    1263    1280    1281    1282    1264
    1265    1266    1280    1281    1288    1289    1290    1291    1265    1266
    1267    1280    1281    1288    1289    1290    1291    1292    1293    1266
    1267    1268    1280    1288    1289    1290    1291    1292    1293    1294
    1295    1267    1268    1269    1288    1289    1290    1291    1292    1293
    1294    1295    1268    1269    1270    1278    1290    1291    1292    1293
    1294    1295    1296    1269    1270    1271    1272    1276    1278    1279
    1292    1293    1294    1295    1296    1297    1305    1270    1271    1272
    1273    1275    1276    1277    1278    1279    1294    1295    1296    1297
    1298    1299    1303    1305    1306    1271    1272    1273    1274    1275
    1276    1278    1279    1296    1297    1298    1299    1300    1301    1305
    1272    1273    1275    1278    1296    1297    1298    1299    1273    1274
    1275    1276    1277    1278    1296    1297    1298    1299    1300    1301
    1302    1303    1274    1275    1276    1297    1299    1300    1301    1302
    1275    1299    1300    1301    1302    1276    1277    1278    1279    1297
    1299    1300    1301    1303    1304    1305    1277    1278    1279    1296
    1299    1303    1304    1305    1306    1278    1279    1303    1304    1305
    1279    1296    1297    1303    1304    1305    1306    1296    1303    1305
    1306    1281    1282    1288    1289       0    1283    1284    1285       0
    1285    1286    1286    1287    1313    1312    1313    1338    1289    1290
    1291    1290    1291    1291    1292    1293    1292    1293    1293    1294
    1295    1294    1295    1295       0    1297    1305    1298    1299       0
    1300    1301    1301    1302    1302       0    1304    1305       0    1306
       0    1308    1309    1310    1311    1315    1318    1319    1335    1309
    1310    1311    1312    1314    1315    1316    1317    1318    1319    1320
    1335    1336    1341    1343    1344    1310    1311    1312    1313    1314
    1315    1316    1317    1318    1319    1335    1336    1337    1339    1340
    1341    1342    1368    1311    1312    1314    1315    1316    1317    1318
    1335    1341    1312    1313    1314    1315    1316    1317    1318    1319
    1335    1336    1337    1338    1339    1340    1341    1313    1314    1315
    1316    1317    1318    1335    1336    1337    1338    1339    1340    1341
    1314    1315    1317    1335    1337    1338    1339    1340    1315    1316
    1317    1335    1337    1338    1339    1340    1341    1342    1368    1316
    1317    1318    1335    1337    1339    1340    1341    1342    1367    1368
    1393    1339    1340    1341    1342    1366    1367    1368    1369    1392
    1393    1318    1335    1336    1337    1319    1320    1321    1335    1336
    1343    1344    1345    1346    1320    1321    1322    1335    1336    1343
    1344    1345    1346    1347    1348    1321    1322    1323    1335    1343
    1344    1345    1346    1347    1348    1349    1350    1322    1323    1324
    1343    1344    1345    1346    1347    1348    1349    1350    1323    1324
    1325    1333    1345    1346    1347    1348    1349    1350    1351    1324
    1325    1326    1327    1331    1333    1334    1347    1348    1349    1350
    1351    1352    1360    1325    1326    1327    1328    1330    1331    1332
    1333    1334    1349    1350    1351    1352    1353    1354    1358    1360
    1361    1326    1327    1328    1329    1330    1331    1333    1334    1351
    1352    1353    1354    1355    1356    1360    1327    1328    1330    1333
    1351    1352    1353    1354    1328    1329    1330    1331    1332    1333
    1351    1352    1353    1354    1355    1356    1357    1358    1329    1330
    1331    1352    1354    1355    1356    1357    1330    1354    1355    1356
    1357    1331    1332    1333    1334    1352    1354    1355    1356    1358
    1359    1360    1332    1333    1334    1351    1354    1358    1359    1360
    1361    1333    1334    1358    1359    1360    1334    1351    1352    1358
    1359    1360    1361    1351    1358    1360    1361    1336    1337    1343
    1344       0    1338    1339    1340       0    1340    1341    1341    1342
    1368    1367    1368    1393    1344    1345    1346    1345    1346    1346
    1347    1348    1347    1348    1348    1349    1350    1349    1350    1350
       0    1352    1360    1353    1354       0    1355    1356    1356    1357
    1357       0    1359    1360       0    1361       0    1363    1364    1365
    1366    1370    1373    1374    1390    1364    1365    1366    1367    1369
    1370    1371    1372    1373    1374    1375    1390    1391    1396    1398
    1399    1365    1366    1367    1368    1369    1370    1371    1372    1373
    1374    1390    1391    1392    1394    1395    1396    1397    1423    1366
    1367    1369    1370    1371    1372    1373    1390    1396    1367    1368
    1369    1370    1371    1372    1373    1374    1390    1391    1392    1393
    1394    1395    1396    1368    1369    1370    1371    1372    1373    1390
    1391    1392    1393    1394    1395    1396    1369    1370    1372    1390
    1392    1393    1394    1395    1370    1371    1372    1390    1392    1393
    1394    1395    1396    1397    1423    1371    1372    1373    1390    1392
    1394    1395    1396    1397    1422    1423    1448    1394    1395    1396
    1397    1421    1422    1423    1424    1447    1448    1373    1390    1391
    1392    1374    1375    1376    1390    1391    1398    1399    1400    1401
    1375    1376    1377    1390    1391    1398    1399    1400    1401    1402
    1403    1376    1377    1378    1390    1398    1399    1400    1401    1402
    1403    1404    1405    1377    1378    1379    1398    1399    1400    1401
    1402    1403    1404    1405    1378    1379    1380    1388    1400    1401
    1402    1403    1404    1405    1406    1379    1380    1381    1382    1386
    1388    1389    1402    1403    1404    1405    1406    1407    1415    1380
    1381    1382    1383    1385    1386    1387    1388    1389    1404    1405
    1406    1407    1408    1409    1413    1415    1416    1381    1382    1383
    1384    1385    1386    1388    1389    1406    1407    1408    1409    1410
    1411    1415    1382    1383    1385    1388    1406    1407    1408    1409
    1383    1384    1385    1386    1387    1388    1406    1407    1408    1409
    1410    1411    1412    1413    1384    1385    1386    1407    1409    1410
    1411    1412    1385    1409    1410    1411    1412    1386    1387    1388
    1389    1407    1409    1410    1411    1413    1414    1415    1387    1388
    1389    1406    1409    1413    1414    1415    1416    1388    1389    1413
    1414    1415    1389    1406    1407    1413    1414    1415    1416    1406
    1413    1415    1416    1391    1392    1398    1399       0    1393    1394
    1395       0    1395    1396    1396    1397    1423    1422    1423    1448
    1399    1400    1401    1400    1401    1401    1402    1403    1402    1403
    1403    1404    1405    1404    1405    1405       0    1407    1415    1408
    1409       0    1410    1411    1411    1412    1412       0    1414    1415
       0    1416       0    1418    1419    1420    1421    1425    1428    1429
    1445    1419    1420    1421    1422    1424    1425    1426    1427    1428
    1429    1430    1445    1446    1451    1453    1454    1420    1421    1422
    1423    1424    1425    1426    1427    1428    1429    1445    1446    1447
    1449    1450    1451    1452    1478    1421    1422    1424    1425    1426
    1427    1428    1445    1451    1422    1423    1424    1425    1426    1427
    1428    1429    1445    1446    1447    1448    1449    1450    1451    1423
    1424    1425    1426    1427    1428    1445    1446    1447    1448    1449
    1450    1451    1424    1425    1427    1445    1447    1448    1449    1450
    1425    1426    1427    1445    1447    1448    1449    1450    1451    1452
    1478    1426    1427    1428    1445    1447    1449    1450    1451    1452
    1477    1478    1503    1449    1450    1451    1452    1476    1477    1478
    1479    1502    1503    1428    1445    1446    1447    1429    1430    1431
    1445    1446    1453    1454    1455    1456    1430    1431    1432    1445
    1446    1453    1454    1455    1456    1457    1458    1431    1432    1433
    1445    1453    1454    1455    1456    1457    1458    1459    1460    1432
    1433    1434    1453    1454    1455    1456    1457    1458    1459    1460
    1433    1434    1435    1443    1455    1456    1457    1458    1459    1460
    1461    1434    1435    1436    1437    1441    1443    1444    1457    1458
    1459    1460    1461    1462    1470    1435    1436    1437    1438    1440
    1441    1442    1443    1444    1459    1460    1461    1462    1463    1464
    1468    1470    1471    1436    1437    1438    1439    1440    1441    1443
    1444    1461    1462    1463    1464    1465    1466    1470    1437    1438
    1440    1443    1461    1462    1463    1464    1438    1439    1440    1441
    1442    1443    1461    1462    1463    1464    1465    1466    1467    1468
    1439    1440    1441    1462    1464    1465    1466    1467    1440    1464
    1465    1466    1467    1441    1442    1443    1444    1462    1464    1465
    1466    1468    1469    1470    1442    1443    1444    1461    1464    1468
    1469    1470    1471    1443    1444    1468    1469    1470    1444    1461
    1462    1468    1469    1470    1471    1461    1468    1470    1471    1446
    1447    1453    1454       0    1448    1449    1450       0    1450    1451
    1451    1452    1478    1477    1478    1503    1454    1455    1456    1455
    1456    1456    1457    1458    1457    1458    1458    1459    1460    1459
    1460    1460       0    1462    1470    1463    1464       0    1465    1466
    1466    1467    1467       0    1469    1470       0    1471       0    1473
    1474    1475    1476    1480    1483    1484    1500    1474    1475    1476
    1477    1479    1480    1481    1482    1483    1484    1485    1500    1501
    1506    1508    1509    1475    1476    1477    1478    1479    1480    1481
    1482    1483    1484    1500    1501    1502    1504    1505    1506    1507
    1533    1476    1477    1479    1480    1481    1482    1483    1500    1506
    1477    1478    1479    1480    1481    1482    1483    1484    1500    1501
    1502    1503    1504    1505    1506    1478    1479    1480    1481    1482
    1483    1500    1501    1502    1503    1504    1505    1506    1479    1480
    1482    1500    1502    1503    1504    1505    1480    1481    1482    1500
    1502    1503    1504    1505    1506    1507    1533    1481    1482    1483
    1500    1502    1504    1505    1506    1507    1532    1533    1558    1504
    1505    1506    1507    1531    1532    1533    1534    1557    1558    1483
    1500    1501    1502    1484    1485    1486    1500    1501    1508    1509
    1510    1511    1485    1486    1487    1500    1501    1508    1509    1510
    1511    1512    1513    1486    1487    1488    1500    1508    1509    1510
    1511    1512    1513    1514    1515    1487    1488    1489    1508    1509
    1510    1511    1512    1513    1514    1515    1488    1489    1490    1498
    1510    1511    1512    1513    1514    1515    1516    1489    1490    1491
    1492    1496    1498    1499    1512    1513    1514    1515    1516    1517
    1525    1490    1491    1492    1493    1495    1496    1497    1498    1499
    1514    1515    1516    1517    1518    1519    1523    1525    1526    1491
    1492    1493    1494    1495    1496    1498    1499    1516    1517    1518
    1519    1520    1521    1525    1492    1493    1495    1498    1516    1517
    1518    1519    1493    1494    1495    1496    1497    1498    1516    1517
    1518    1519    1520    1521    1522    1523    1494    1495    1496    1517
    1519    1520    1521    1522    1495    1519    1520    1521    1522    1496
    1497    1498    1499    1517    1519    1520    1521    1523    1524    1525
    1497    1498    1499    1516    1519    1523    1524    1525    1526    1498
    1499    1523    1524    1525    1499    1516    1517    1523    1524    1525
    1526    1516    1523    1525    1526    1501    1502    1508    1509       0
    1503    1504    1505       0    1505    1506    1506    1507    1533    1532
    1533    1558    1509    1510    1511    1510    1511    1511    1512    1513
    1512    1513    1513    1514    1515    1514    1515    1515       0    1517
    1525    1518    1519       0    1520    1521    1521    1522    1522       0
    1524    1525       0    1526       0    1528    1529    1530    1531    1535
    1538    1539    1555    1529    1530    1531    1532    1534    1535    1536
    1537    1538    1539    1540    1555    1556    1561    1563    1564    1530
    1531    1532    1533    1534    1535    1536    1537    1538    1539    1555
    1556    1557    1559    1560    1561    1562    1588    1531    1532    1534
    1535    1536    1537    1538    1555    1561    1532    1533    1534    1535
    1536    1537    1538    1539    1555    1556    1557    1558    1559    1560
    1561    1533    1534    1535    1536    1537    1538    1555    1556    1557
    1558    1559    1560    1561    1534    1535    1537    1555    1557    1558
    1559    1560    1535    1536    1537    1555    1557    1558    1559    1560
    1561    1562    1588    1536    1537    1538    1555    1557    1559    1560
    1561    1562    1587    1588    1613    1559    1560    1561    1562    1586
    1587    1588    1589    1612    1613    1538    1555    1556    1557    1539
    1540    1541    1555    1556    1563    1564    1565    1566    1540    1541
    1542    1555    1556    1563    1564    1565    1566    1567    1568    1541
    1542    1543    1555    1563    1564    1565    1566    1567    1568    1569
    1570    1542    1543    1544    1563    1564    1565    1566    1567    1568
    1569    1570    1543    1544    1545    1553    1565    1566    1567    1568
    1569    1570    1571    1544    1545    1546    1547    1551    1553    1554
    1567    1568    1569    1570    1571    1572    1580    1545    1546    1547
    1548    1550    1551    1552    1553    1554    1569    1570    1571    1572
    1573    1574    1578    1580    1581    1546    1547    1548    1549    1550
    1551    1553    1554    1571    1572    1573    1574    1575    1576    1580
    1547    1548    1550    1553    1571    1572    1573    1574    1548    1549
    1550    1551    1552    1553    1571    1572    1573    1574    1575    1576
    1577    1578    1549    1550    1551    1572    1574    1575    1576    1577
    1550    1574    1575    1576    1577    1551    1552    1553    1554    1572
    1574    1575    1576    1578    1579    1580    1552    1553    1554    1571
    1574    1578    1579    1580    1581    1553    1554    1578    1579    1580
    1554    1571    1572    1578    1579    1580    1581    1571    1578    1580
    1581    1556    1557    1563    1564       0    1558    1559    1560       0
    1560    1561    1561    1562    1588    1587    1588    1613    1564    1565
    1566    1565    1566    1566    1567    1568    1567    1568    1568    1569
    1570    1569    1570    1570       0    1572    1580    1573    1574       0
    1575    1576    1576    1577    1577       0    1579    1580       0    1581
       0    1583    1584    1585    1586    1590    1593    1594    1610    1584
    1585    1586    1587    1589    1590    1591    1592    1593    1594    1595
    1610    1611    1616    1618    1619    1585    1586    1587    1588    1589
    1590    1591    1592    1593    1594    1610    1611    1612    1614    1615
    1616    1617    1643    1586    1587    1589    1590    1591    1592    1593
    1610    1616    1587    1588    1589    1590    1591    1592    1593    1594
    1610    1611    1612    1613    1614    1615    1616    1588    1589    1590
    1591    1592    1593    1610    1611    1612    1613    1614    1615    1616
    1589    1590    1592    1610    1612    1613    1614    1615    1590    1591
    1592    1610    1612    1613    1614    1615    1616    1617    1643    1591
    1592    1593    1610    1612    1614    1615    1616    1617    1642    1643
    1668    1614    1615    1616    1617    1641    1642    1643    1644    1667
    1668    1593    1610    1611    1612    1594    1595    1596    1610    1611
    1618    1619    1620    1621    1595    1596    1597    1610    1611    1618
    1619    1620    1621    1622    1623    1596    1597    1598    1610    1618
    1619    1620    1621    1622    1623    1624    1625    1597    1598    1599
    1618    1619    1620    1621    1622    1623    1624    1625    1598    1599
    1600    1608    1620    1621    1622    1623    1624    1625    1626    1599
    1600    1601    1602    1606    1608    1609    1622    1623    1624    1625
    1626    1627    1635    1600    1601    1602    1603    1605    1606    1607
    1608    1609    1624    1625    1626    1627    1628    1629    1633    1635
    1636    1601    1602    1603    1604    1605    1606    1608    1609    1626
    1627    1628    1629    1630    1631    1635    1602    1603    1605    1608
    1626    1627    1628    1629    1603    1604    1605    1606    1607    1608
    1626    1627    1628    1629    1630    1631    1632    1633    1604    1605
    1606    1627    1629    1630    1631    1632    1605    1629    1630    1631
    1632    1606    1607    1608    1609    1627    1629    1630    1631    1633
    1634    1635    1607    1608    1609    1626    1629    1633    1634    1635
    1636    1608    1609    1633    1634    1635    1609    1626    1627    1633
    1634    1635    1636    1626    1633    1635    1636    1611    1612    1618
    1619       0    1613    1614    1615       0    1615    1616    1616    1617
    1643    1642    1643    1668    1619    1620    1621    1620    1621    1621
    1622    1623    1622    1623    1623    1624    1625    1624    1625    1625
       0    1627    1635    1628    1629       0    1630    1631    1631    1632
    1632       0    1634    1635       0    1636       0    1638    1639    1640
    1641    1645    1648    1649    1665    1639    1640    1641    1642    1644
    1645    1646    1647    1648    1649    1650    1665    1666    1671    1673
    1674    1640    1641    1642    1643    1644    1645    1646    1647    1648
    1649    1665    1666    1667    1669    1670    1671    1672    1692    1641
    1642    1644    1645    1646    1647    1648    1665    1671    1642    1643
    1644    1645    1646    1647    1648    1649    1665    1666    1667    1668
    1669    1670    1671    1643    1644    1645    1646    1647    1648    1665
    1666    1667    1668    1669    1670    1671    1644    1645    1647    1665
    1667    1668    1669    1670    1645    1646    1647    1665    1667    1668
    1669    1670    1671    1672    1692    1646    1647    1648    1665    1667
    1669    1670    1671    1672    1692    1693    1694    1669    1670    1671
    1672    1692    1693    1694    1648    1665    1666    1667    1649    1650
    1651    1665    1666    1673    1674    1675    1676    1650    1651    1652
    1665    1666    1673    1674    1675    1676    1677    1678    1651    1652
    1653    1665    1673    1674    1675    1676    1677    1678    1679    1680
    1652    1653    1654    1673    1674    1675    1676    1677    1678    1679
    1680    1653    1654    1655    1663    1675    1676    1677    1678    1679
    1680    1681    1654    1655    1656    1657    1661    1663    1664    1677
    1678    1679    1680    1681    1682    1690    1655    1656    1657    1658
    1660    1661    1662    1663    1664    1679    1680    1681    1682    1683
    1684    1688    1690    1691    1656    1657    1658    1659    1660    1661
    1663    1664    1681    1682    1683    1684    1685    1686    1690    1657
    1658    1660    1663    1681    1682    1683    1684    1658    1659    1660
    1661    1662    1663    1681    1682    1683    1684    1685    1686    1687
    1688    1659    1660    1661    1682    1684    1685    1686    1687    1660
    1684    1685    1686    1687    1661    1662    1663    1664    1682    1684
    1685    1686    1688    1689    1690    1662    1663    1664    1681    1684
    1688    1689    1690    1691    1663    1664    1688    1689    1690    1664
    1681    1682    1688    1689    1690    1691    1681    1688    1690    1691
    1666    1667    1673    1674       0    1668    1669    1670       0    1670
    1671    1671    1672    1692    1692    1693    1694    1674    1675    1676
    1675    1676    1676    1677    1678    1677    1678    1678    1679    1680
    1679    1680    1680       0    1682    1690    1683    1684       0    1685
    1686    1686    1687    1687       0    1689    1690       0    1691       0
    1693    1694    1694       0    1696    1697    1702    1703    1704    1705
    1728    1729    1697    1703    1704    1729    1703    1704    1729    1699
    1700    1701    1702    1706    1709    1710    1726    1700    1701    1702
    1703    1705    1706    1707    1708    1709    1710    1711    1726    1727
    1732    1734    1735    1701    1702    1703    1704    1705    1706    1707
    1708    1709    1710    1726    1727    1728    1730    1731    1732    1733
    1759    1702    1703    1705    1706    1707    1708    1709    1726    1732
    1703    1704    1705    1706    1707    1708    1709    1710    1726    1727
    1728    1729    1730    1731    1732    1704    1705    1706    1707    1708
    1709    1726    1727    1728    1729    1730    1731    1732    1705    1706
    1708    1726    1728    1729    1730    1731    1706    1707    1708    1726
    1728    1729    1730    1731    1732    1733    1759    1707    1708    1709
    1726    1728    1730    1731    1732    1733    1758    1759    1784    1730
    1731    1732    1733    1757    1758    1759    1760    1783    1784    1709
    1726    1727    1728    1710    1711    1712    1726    1727    1734    1735
    1736    1737    1711    1712    1713    1726    1727    1734    1735    1736
    1737    1738    1739    1712    1713    1714    1726    1734    1735    1736
    1737    1738    1739    1740    1741    1713    1714    1715    1734    1735
    1736    1737    1738    1739    1740    1741    1714    1715    1716    1724
    1736    1737    1738    1739    1740    1741    1742    1715    1716    1717
    1718    1722    1724    1725    1738    1739    1740    1741    1742    1743
    1751    1716    1717    1718    1719    1721    1722    1723    1724    1725
    1740    1741    1742    1743    1744    1745    1749    1751    1752    1717
    1718    1719    1720    1721    1722    1724    1725    1742    1743    1744
    1745    1746    1747    1751    1718    1719    1721    1724    1742    1743
    1744    1745    1719    1720    1721    1722    1723    1724    1742    1743
    1744    1745    1746    1747    1748    1749    1720    1721    1722    1743
    1745    1746    1747    1748    1721    1745    1746    1747    1748    1722
    1723    1724    1725    1743    1745    1746    1747    1749    1750    1751
    1723    1724    1725    1742    1745    1749    1750    1751    1752    1724
    1725    1749    1750    1751    1725    1742    1743    1749    1750    1751
    1752    1742    1749    1751    1752    1727    1728    1734    1735       0
    1729    1730    1731       0    1731    1732    1732    1733    1759    1758
    1759    1784    1735    1736    1737    1736    1737    1737    1738    1739
    1738    1739    1739    1740    1741    1740    1741    1741       0    1743
    1751    1744    1745       0    1746    1747    1747    1748    1748       0
    1750    1751       0    1752       0    1754    1755    1756    1757    1761
    1764    1765    1781    1755    1756    1757    1758    1760    1761    1762
    1763    1764    1765    1766    1781    1782    1787    1789    1790    1756
    1757    1758    1759    1760    1761    1762    1763    1764    1765    1781
    1782    1783    1785    1786    1787    1788    1814    1757    1758    1760
    1761    1762    1763    1764    1781    1787    1758    1759    1760    1761
    1762    1763    1764    1765    1781    1782    1783    1784    1785    1786
    1787    1759    1760    1761    1762    1763    1764    1781    1782    1783
    1784    1785    1786    1787    1760    1761    1763    1781    1783    1784
    1785    1786    1761    1762    1763    1781    1783    1784    1785    1786
    1787    1788    1814    1762    1763    1764    1781    1783    1785    1786
    1787    1788    1813    1814    1839    1785    1786    1787    1788    1812
    1813    1814    1815    1838    1839    1764    1781    1782    1783    1765
    1766    1767    1781    1782    1789    1790    1791    1792    1766    1767
    1768    1781    1782    1789    1790    1791    1792    1793    1794    1767
    1768    1769    1781    1789    1790    1791    1792    1793    1794    1795
    1796    1768    1769    1770    1789    1790    1791    1792    1793    1794
    1795    1796    1769    1770    1771    1779    1791    1792    1793    1794
    1795    1796    1797    1770    1771    1772    1773    1777    1779    1780
    1793    1794    1795    1796    1797    1798    1806    1771    1772    1773
    1774    1776    1777    1778    1779    1780    1795    1796    1797    1798
    1799    1800    1804    1806    1807    1772    1773    1774    1775    1776
    1777    1779    1780    1797    1798    1799    1800    1801    1802    1806
    1773    1774    1776    1779    1797    1798    1799    1800    1774    1775
    1776    1777    1778    1779    1797    1798    1799    1800    1801    1802
    1803    1804    1775    1776    1777    1798    1800    1801    1802    1803
    1776    1800    1801    1802    1803    1777    1778    1779    1780    1798
    1800    1801    1802    1804    1805    1806    1778    1779    1780    1797
    1800    1804    1805    1806    1807    1779    1780    1804    1805    1806
    1780    1797    1798    1804    1805    1806    1807    1797    1804    1806
    1807    1782    1783    1789    1790       0    1784    1785    1786       0
    1786    1787    1787    1788    1814    1813    1814    1839    1790    1791
    1792    1791    1792    1792    1793    1794    1793    1794    1794    1795
    1796    1795    1796    1796       0    1798    1806    1799    1800       0
    1801    1802    1802    1803    1803       0    1805    1806       0    1807
       0    1809    1810    1811    1812    1816    1819    1820    1836    1810
    1811    1812    1813    1815    1816    1817    1818    1819    1820    1821
    1836    1837    1842    1844    1845    1811    1812    1813    1814    1815
    1816    1817    1818    1819    1820    1836    1837    1838    1840    1841
    1842    1843    1869    1812    1813    1815    1816    1817    1818    1819
    1836    1842    1813    1814    1815    1816    1817    1818    1819    1820
    1836    1837    1838    1839    1840    1841    1842    1814    1815    1816
    1817    1818    1819    1836    1837    1838    1839    1840    1841    1842
    1815    1816    1818    1836    1838    1839    1840    1841    1816    1817
    1818    1836    1838    1839    1840    1841    1842    1843    1869    1817
    1818    1819    1836    1838    1840    1841    1842    1843    1868    1869
    1894    1840    1841    1842    1843    1867    1868    1869    1870    1893
    1894    1819    1836    1837    1838    1820    1821    1822    1836    1837
    1844    1845    1846    1847    1821    1822    1823    1836    1837    1844
    1845    1846    1847    1848    1849    1822    1823    1824    1836    1844
    1845    1846    1847    1848    1849    1850    1851    1823    1824    1825
    1844    1845    1846    1847    1848    1849    1850    1851    1824    1825
    1826    1834    1846    1847    1848    1849    1850    1851    1852    1825
    1826    1827    1828    1832    1834    1835    1848    1849    1850    1851
    1852    1853    1861    1826    1827    1828    1829    1831    1832    1833
    1834    1835    1850    1851    1852    1853    1854    1855    1859    1861
    1862    1827    1828    1829    1830    1831    1832    1834    1835    1852
    1853    1854    1855    1856    1857    1861    1828    1829    1831    1834
    1852    1853    1854    1855    1829    1830    1831    1832    1833    1834
    1852    1853    1854    1855    1856    1857    1858    1859    1830    1831
    1832    1853    1855    1856    1857    1858    1831    1855    1856    1857
    1858    1832    1833    1834    1835    1853    1855    1856    1857    1859
    1860    1861    1833    1834    1835    1852    1855    1859    1860    1861
    1862    1834    1835    1859    1860    1861    1835    1852    1853    1859
    1860    1861    1862    1852    1859    1861    1862    1837    1838    1844
    1845       0    1839    1840    1841       0    1841    1842    1842    1843
    1869    1868    1869    1894    1845    1846    1847    1846    1847    1847
    1848    1849    1848    1849    1849    1850    1851    1850    1851    1851
       0    1853    1861    1854    1855       0    1856    1857    1857    1858
    1858       0    1860    1861       0    1862       0    1864    1865    1866
    1867    1871    1874    1875    1891    1865    1866    1867    1868    1870
    1871    1872    1873    1874    1875    1876    1891    1892    1897    1899
    1900    1866    1867    1868    1869    1870    1871    1872    1873    1874
    1875    1891    1892    1893    1895    1896    1897    1898    1924    1867
    1868    1870    1871    1872    1873    1874    1891    1897    1868    1869
    1870    1871    1872    1873    1874    1875    1891    1892    1893    1894
    1895    1896    1897    1869    1870    1871    1872    1873    1874    1891
    1892    1893    1894    1895    1896    1897    1870    1871    1873    1891
    1893    1894    1895    1896    1871    1872    1873    1891    1893    1894
    1895    1896    1897    1898    1924    1872    1873    1874    1891    1893
    1895    1896    1897    1898    1923    1924    1949    1895    1896    1897
    1898    1922    1923    1924    1925    1948    1949    1874    1891    1892
    1893    1875    1876    1877    1891    1892    1899    1900    1901    1902
    1876    1877    1878    1891    1892    1899    1900    1901    1902    1903
    1904    1877    1878    1879    1891    1899    1900    1901    1902    1903
    1904    1905    1906    1878    1879    1880    1899    1900    1901    1902
    1903    1904    1905    1906    1879    1880    1881    1889    1901    1902
    1903    1904    1905    1906    1907    1880    1881    1882    1883    1887
    1889    1890    1903    1904    1905    1906    1907    1908    1916    1881
    1882    1883    1884    1886    1887    1888    1889    1890    1905    1906
    1907    1908    1909    1910    1914    1916    1917    1882    1883    1884
    1885    1886    1887    1889    1890    1907    1908    1909    1910    1911
    1912    1916    1883    1884    1886    1889    1907    1908    1909    1910
    1884    1885    1886    1887    1888    1889    1907    1908    1909    1910
    1911    1912    1913    1914    1885    1886    1887    1908    1910    1911
    1912    1913    1886    1910    1911    1912    1913    1887    1888    1889
    1890    1908    1910    1911    1912    1914    1915    1916    1888    1889
    1890    1907    1910    1914    1915    1916    1917    1889    1890    1914
    1915    1916    1890    1907    1908    1914    1915    1916    1917    1907
    1914    1916    1917    1892    1893    1899    1900       0    1894    1895
    1896       0    1896    1897    1897    1898    1924    1923    1924    1949
    1900    1901    1902    1901    1902    1902    1903    1904    1903    1904
    1904    1905    1906    1905    1906    1906       0    1908    1916    1909
    1910       0    1911    1912    1912    1913    1913       0    1915    1916
       0    1917       0    1919    1920    1921    1922    1926    1929    1930
    1946    1920    1921    1922    1923    1925    1926    1927    1928    1929
    1930    1931    1946    1947    1952    1954    1955    1921    1922    1923
    1924    1925    1926    1927    1928    1929    1930    1946    1947    1948
    1950    1951    1952    1953    1979    1922    1923    1925    1926    1927
    1928    1929    1946    1952    1923    1924    1925    1926    1927    1928
    1929    1930    1946    1947    1948    1949    1950    1951    1952    1924
    1925    1926    1927    1928    1929    1946    1947    1948    1949    1950
    1951    1952    1925    1926    1928    1946    1948    1949    1950    1951
    1926    1927    1928    1946    1948    1949    1950    1951    1952    1953
    1979    1927    1928    1929    1946    1948    1950    1951    1952    1953
    1978    1979    2004    1950    1951    1952    1953    1977    1978    1979
    1980    2003    2004    1929    1946    1947    1948    1930    1931    1932
    1946    1947    1954    1955    1956    1957    1931    1932    1933    1946
    1947    1954    1955    1956    1957    1958    1959    1932    1933    1934
    1946    1954    1955    1956    1957    1958    1959    1960    1961    1933
    1934    1935    1954    1955    1956    1957    1958    1959    1960    1961
    1934    1935    1936    1944    1956    1957    1958    1959    1960    1961
    1962    1935    1936    1937    1938    1942    1944    1945    1958    1959
    1960    1961    1962    1963    1971    1936    1937    1938    1939    1941
    1942    1943    1944    1945    1960    1961    1962    1963    1964    1965
    1969    1971    1972    1937    1938    1939    1940    1941    1942    1944
    1945    1962    1963    1964    1965    1966    1967    1971    1938    1939
    1941    1944    1962    1963    1964    1965    1939    1940    1941    1942
    1943    1944    1962    1963    1964    1965    1966    1967    1968    1969
    1940    1941    1942    1963    1965    1966    1967    1968    1941    1965
    1966    1967    1968    1942    1943    1944    1945    1963    1965    1966
    1967    1969    1970    1971    1943    1944    1945    1962    1965    1969
    1970    1971    1972    1944    1945    1969    1970    1971    1945    1962
    1963    1969    1970    1971    1972    1962    1969    1971    1972    1947
    1948    1954    1955       0    1949    1950    1951       0    1951    1952
    1952    1953    1979    1978    1979    2004    1955    1956    1957    1956
    1957    1957    1958    1959    1958    1959    1959    1960    1961    1960
    1961    1961       0    1963    1971    1964    1965       0    1966    1967
    1967    1968    1968       0    1970    1971       0    1972       0    1974
    1975    1976    1977    1981    1984    1985    2001    1975    1976    1977
    1978    1980    1981    1982    1983    1984    1985    1986    2001    2002
    2007    2009    2010    1976    1977    1978    1979    1980    1981    1982
    1983    1984    1985    2001    2002    2003    2005    2006    2007    2008
    2034    1977    1978    1980    1981    1982    1983    1984    2001    2007
    1978    1979    1980    1981    1982    1983    1984    1985    2001    2002
    2003    2004    2005    2006    2007    1979    1980    1981    1982    1983
    1984    2001    2002    2003    2004    2005    2006    2007    1980    1981
    1983    2001    2003    2004    2005    2006    1981    1982    1983    2001
    2003    2004    2005    2006    2007    2008    2034    1982    1983    1984
    2001    2003    2005    2006    2007    2008    2033    2034    2059    2005
    2006    2007    2008    2032    2033    2034    2035    2058    2059    1984
    2001    2002    2003    1985    1986    1987    2001    2002    2009    2010
    2011    2012    1986    1987    1988    2001    2002    2009    2010    2011
    2012    2013    2014    1987    1988    1989    2001    2009    2010    2011
    2012    2013    2014    2015    2016    1988    1989    1990    2009    2010
    2011    2012    2013    2014    2015    2016    1989    1990    1991    1999
    2011    2012    2013    2014    2015    2016    2017    1990    1991    1992
    1993    1997    1999    2000    2013    2014    2015    2016    2017    2018
    2026    1991    1992    1993    1994    1996    1997    1998    1999    2000
    2015    2016    2017    2018    2019    2020    2024    2026    2027    1992
    1993    1994    1995    1996    1997    1999    2000    2017    2018    2019
    2020    2021    2022    2026    1993    1994    1996    1999    2017    2018
    2019    2020    1994    1995    1996    1997    1998    1999    2017    2018
    2019    2020    2021    2022    2023    2024    1995    1996    1997    2018
    2020    2021    2022    2023    1996    2020    2021    2022    2023    1997
    1998    1999    2000    2018    2020    2021    2022    2024    2025    2026
    1998    1999    2000    2017    2020    2024    2025    2026    2027    1999
    2000    2024    2025    2026    2000    2017    2018    2024    2025    2026
    2027    2017    2024    2026    2027    2002    2003    2009    2010       0
    2004    2005    2006       0    2006    2007    2007    2008    2034    2033
    2034    2059    2010    2011    2012    2011    2012    2012    2013    2014
    2013    2014    2014    2015    2016    2015    2016    2016       0    2018
    2026    2019    2020       0    2021    2022    2022    2023    2023       0
    2025    2026       0    2027       0    2029    2030    2031    2032    2036
    2039    2040    2056    2030    2031    2032    2033    2035    2036    2037
    2038    2039    2040    2041    2056    2057    2062    2064    2065    2031
    2032    2033    2034    2035    2036    2037    2038    2039    2040    2056
    2057    2058    2060    2061    2062    2063    2089    2032    2033    2035
    2036    2037    2038    2039    2056    2062    2033    2034    2035    2036
    2037    2038    2039    2040    2056    2057    2058    2059    2060    2061
    2062    2034    2035    2036    2037    2038    2039    2056    2057    2058
    2059    2060    2061    2062    2035    2036    2038    2056    2058    2059
    2060    2061    2036    2037    2038    2056    2058    2059    2060    2061
    2062    2063    2089    2037    2038    2039    2056    2058    2060    2061
    2062    2063    2088    2089    2114    2060    2061    2062    2063    2087
    2088    2089    2090    2113    2114    2039    2056    2057    2058    2040
    2041    2042    2056    2057    2064    2065    2066    2067    2041    2042
    2043    2056    2057    2064    2065    2066    2067    2068    2069    2042
    2043    2044    2056    2064    2065    2066    2067    2068    2069    2070
    2071    2043    2044    2045    2064    2065    2066    2067    2068    2069
    2070    2071    2044    2045    2046    2054    2066    2067    2068    2069
    2070    2071    2072    2045    2046    2047    2048    2052    2054    2055
    2068    2069    2070    2071    2072    2073    2081    2046    2047    2048
    2049    2051    2052    2053    2054    2055    2070    2071    2072    2073
    2074    2075    2079    2081    2082    2047    2048    2049    2050    2051
    2052    2054    2055    2072    2073    2074    2075    2076    2077    2081
    2048    2049    2051    2054    2072    2073    2074    2075    2049    2050
    2051    2052    2053    2054    2072    2073    2074    2075    2076    2077
    2078    2079    2050    2051    2052    2073    2075    2076    2077    2078
    2051    2075    2076    2077    2078    2052    2053    2054    2055    2073
    2075    2076    2077    2079    2080    2081    2053    2054    2055    2072
    2075    2079    2080    2081    2082    2054    2055    2079    2080    2081
    2055    2072    2073    2079    2080    2081    2082    2072    2079    2081
    2082    2057    2058    2064    2065       0    2059    2060    2061       0
    2061    2062    2062    2063    2089    2088    2089    2114    2065    2066
    2067    2066    2067    2067    2068    2069    2068    2069    2069    2070
    2071    2070    2071    2071       0    2073    2081    2074    2075       0
    2076    2077    2077    2078    2078       0    2080    2081       0    2082
       0    2084    2085    2086    2087    2091    2094    2095    2111    2085
    2086    2087    2088    2090    2091    2092    2093    2094    2095    2096
    2111    2112    2117    2119    2120    2086    2087    2088    2089    2090
    2091    2092    2093    2094    2095    2111    2112    2113    2115    2116
    2117    2118    2144    2087    2088    2090    2091    2092    2093    2094
    2111    2117    2088    2089    2090    2091    2092    2093    2094    2095
    2111    2112    2113    2114    2115    2116    2117    2089    2090    2091
    2092    2093    2094    2111    2112    2113    2114    2115    2116    2117
    2090    2091    2093    2111    2113    2114    2115    2116    2091    2092
    2093    2111    2113    2114    2115    2116    2117    2118    2144    2092
    2093    2094    2111    2113    2115    2116    2117    2118    2143    2144
    2169    2115    2116    2117    2118    2142    2143    2144    2145    2168
    2169    2094    2111    2112    2113    2095    2096    2097    2111    2112
    2119    2120    2121    2122    2096    2097    2098    2111    2112    2119
    2120    2121    2122    2123    2124    2097    2098    2099    2111    2119
    2120    2121    2122    2123    2124    2125    2126    2098    2099    2100
    2119    2120    2121    2122    2123    2124    2125    2126    2099    2100
    2101    2109    2121    2122    2123    2124    2125    2126    2127    2100
    2101    2102    2103    2107    2109    2110    2123    2124    2125    2126
    2127    2128    2136    2101    2102    2103    2104    2106    2107    2108
    2109    2110    2125    2126    2127    2128    2129    2130    2134    2136
    2137    2102    2103    2104    2105    2106    2107    2109    2110    2127
    2128    2129    2130    2131    2132    2136    2103    2104    2106    2109
    2127    2128    2129    2130    2104    2105    2106    2107    2108    2109
    2127    2128    2129    2130    2131    2132    2133    2134    2105    2106
    2107    2128    2130    2131    2132    2133    2106    2130    2131    2132
    2133    2107    2108    2109    2110    2128    2130    2131    2132    2134
    2135    2136    2108    2109    2110    2127    2130    2134    2135    2136
    2137    2109    2110    2134    2135    2136    2110    2127    2128    2134
    2135    2136    2137    2127    2134    2136    2137    2112    2113    2119
    2120       0    2114    2115    2116       0    2116    2117    2117    2118
    2144    2143    2144    2169    2120    2121    2122    2121    2122    2122
    2123    2124    2123    2124    2124    2125    2126    2125    2126    2126
       0    2128    2136    2129    2130       0    2131    2132    2132    2133
    2133       0    2135    2136       0    2137       0    2139    2140    2141
    2142    2146    2149    2150    2166    2140    2141    2142    2143    2145
    2146    2147    2148    2149    2150    2151    2166    2167    2172    2174
    2175    2141    2142    2143    2144    2145    2146    2147    2148    2149
    2150    2166    2167    2168    2170    2171    2172    2173    2199    2142
    2143    2145    2146    2147    2148    2149    2166    2172    2143    2144
    2145    2146    2147    2148    2149    2150    2166    2167    2168    2169
    2170    2171    2172    2144    2145    2146    2147    2148    2149    2166
    2167    2168    2169    2170    2171    2172    2145    2146    2148    2166
    2168    2169    2170    2171    2146    2147    2148    2166    2168    2169
    2170    2171    2172    2173    2199    2147    2148    2149    2166    2168
    2170    2171    2172    2173    2198    2199    2224    2170    2171    2172
    2173    2197    2198    2199    2200    2223    2224    2149    2166    2167
    2168    2150    2151    2152    2166    2167    2174    2175    2176    2177
    2151    2152    2153    2166    2167    2174    2175    2176    2177    2178
    2179    2152    2153    2154    2166    2174    2175    2176    2177    2178
    2179    2180    2181    2153    2154    2155    2174    2175    2176    2177
    2178    2179    2180    2181    2154    2155    2156    2164    2176    2177
    2178    2179    2180    2181    2182    2155    2156    2157    2158    2162
    2164    2165    2178    2179    2180    2181    2182    2183    2191    2156
    2157    2158    2159    2161    2162    2163    2164    2165    2180    2181
    2182    2183    2184    2185    2189    2191    2192    2157    2158    2159
    2160    2161    2162    2164    2165    2182    2183    2184    2185    2186
    2187    2191    2158    2159    2161    2164    2182    2183    2184    2185
    2159    2160    2161    2162    2163    2164    2182    2183    2184    2185
    2186    2187    2188    2189    2160    2161    2162    2183    2185    2186
    2187    2188    2161    2185    2186    2187    2188    2162    2163    2164
    2165    2183    2185    2186    2187    2189    2190    2191    2163    2164
    2165    2182    2185    2189    2190    2191    2192    2164    2165    2189
    2190    2191    2165    2182    2183    2189    2190    2191    2192    2182
    2189    2191    2192    2167    2168    2174    2175       0    2169    2170
    2171       0    2171    2172    2172    2173    2199    2198    2199    2224
    2175    2176    2177    2176    2177    2177    2178    2179    2178    2179
    2179    2180    2181    2180    2181    2181       0    2183    2191    2184
    2185       0    2186    2187    2187    2188    2188       0    2190    2191
       0    2192       0    2194    2195    2196    2197    2201    2204    2205
    2221    2195    2196    2197    2198    2200    2201    2202    2203    2204
    2205    2206    2221    2222    2227    2229    2230    2196    2197    2198
    2199    2200    2201    2202    2203    2204    2205    2221    2222    2223
    2225    2226    2227    2228    2248    2197    2198    2200    2201    2202
    2203    2204    2221    2227    2198    2199    2200    2201    2202    2203
    2204    2205    2221    2222    2223    2224    2225    2226    2227    2199
    2200    2201    2202    2203    2204    2221    2222    2223    2224    2225
    2226    2227    2200    2201    2203    2221    2223    2224    2225    2226
    2201    2202    2203    2221    2223    2224    2225    2226    2227    2228
    2248    2202    2203    2204    2221    2223    2225    2226    2227    2228
    2248    2249    2250    2225    2226    2227    2228    2248    2249    2250
    2204    2221    2222    2223    2205    2206    2207    2221    2222    2229
    2230    2231    2232    2206    2207    2208    2221    2222    2229    2230
    2231    2232    2233    2234    2207    2208    2209    2221    2229    2230
    2231    2232    2233    2234    2235    2236    2208    2209    2210    2229
    2230    2231    2232    2233    2234    2235    2236    2209    2210    2211
    2219    2231    2232    2233    2234    2235    2236    2237    2210    2211
    2212    2213    2217    2219    2220    2233    2234    2235    2236    2237
    2238    2246    2211    2212    2213    2214    2216    2217    2218    2219
    2220    2235    2236    2237    2238    2239    2240    2244    2246    2247
    2212    2213    2214    2215    2216    2217    2219    2220    2237    2238
    2239    2240    2241    2242    2246    2213    2214    2216    2219    2237
    2238    2239    2240    2214    2215    2216    2217    2218    2219    2237
    2238    2239    2240    2241    2242    2243    2244    2215    2216    2217
    2238    2240    2241    2242    2243    2216    2240    2241    2242    2243
    2217    2218    2219    2220    2238    2240    2241    2242    2244    2245
    2246    2218    2219    2220    2237    2240    2244    2245    2246    2247
    2219    2220    2244    2245    2246    2220    2237    2238    2244    2245
    2246    2247    2237    2244    2246    2247    2222    2223    2229    2230
       0    2224    2225    2226       0    2226    2227    2227    2228    2248
    2248    2249    2250    2230    2231    2232    2231    2232    2232    2233
    2234    2233    2234    2234    2235    2236    2235    2236    2236       0
    2238    2246    2239    2240       0    2241    2242    2242    2243    2243
       0    2245    2246       0    2247       0    2249    2250    2250       0
    2252    2253    2253       0    2255    2256    2256       0    2258    2259
    2259       0    2261    2262    2262       0    2264    2265    2265       0
    2267    2268    2268       0    2270    2271    2271       0    2273    2274
    2274       0    2276    2277    2277       0    2279    2280    2280       0
    2282    2283    2283       0    2285    2286    2286       0    2288    2289
    2289       0    2291    2292    2292       0    2294    2295    2295       0
    2297    2298    2298       0    2300    2301    2301       0    2303    2304
    2304       0    2306    2307    2307       0    2309    2310    2310       0
    2312    2313    2313       0    2315    2316    2316       0    2318    2319
    2319       0    2321    2322    2322       0    2324    2325    2325       0
    2327    2328    2328       0    2330    2331    2331       0    2333    2334
    2334       0    2336    2337    2337       0    2339    2340    2340       0
    2342    2343    2343       0    2345    2346    2346       0    2348    2349
    2349       0    2351    2352    2352       0    2354    2355    2355       0
    2357    2358    2358       0    2360    2361    2361       0    2363    2364
    2364       0    2366    2367    2367       0    2369    2370    2370       0
    2372    2373    2373       0    2375    2376    2376       0    2378    2379
    2379       0    2381    2382    2382       0    2384    2385    2385       0
    2387    2388    2388       0    2390    2391    2391       0    2393    2394
    2394       0    2396    2397    2397       0    2399    2400    2400       0
    2402    2403    2403       0    2405    2406    2406       0    2408    2409
    2409       0    2411    2412    2412       0    2414    2415    2415       0
    2417    2418    2418       0    2420    2421    2421       0    2423    2424
    2424       0    2426    2427    2427       0    2429    2430    2430       0
    2432    2433    2433       0    2435    2436    2436       0    2438    2439
    2439       0    2441    2442    2442       0    2444    2445    2445       0
    2447    2448    2448       0    2450    2451    2451       0    2453    2454
    2454       0    2456    2457    2457       0    2459    2460    2460       0
    2462    2463    2463       0    2465    2466    2466       0    2468    2469
    2469       0    2471    2472    2472       0    2474    2475    2475       0
    2477    2478    2478       0    2480    2481    2481       0    2483    2484
    2484       0    2486    2487    2487       0    2489    2490    2490       0
    2492    2493    2493       0    2495    2496    2496       0    2498    2499
    2499       0    2501    2502    2502       0    2504    2505    2505       0
    2507    2508    2508       0    2510    2511    2511       0    2513    2514
    2514       0    2516    2517    2517       0    2519    2520    2520       0
    2522    2523    2523       0    2525    2526    2526       0    2528    2529
    2529       0    2531    2532    2532       0    2534    2535    2535       0
    2537    2538    2538       0    2540    2541    2541       0    2543    2544
    2544       0    2546    2547    2547       0    2549    2550    2550       0
    2552    2553    2553       0    2555    2556    2556       0    2558    2559
    2559       0    2561    2562    2562       0    2564    2565    2565       0
    2567    2568    2568       0    2570    2571    2571       0    2573    2574
    2574       0    2576    2577    2577       0    2579    2580    2580       0
    2582    2583    2583       0    2585    2586    2586       0    2588    2589
    2589       0    2591    2592    2592       0    2594    2595    2595       0
    2597    2598    2598       0    2600    2601    2601       0    2603    2604
    2604       0    2606    2607    2607       0    2609    2610    2610       0
    2612    2613    2613       0    2615    2616    2616       0    2618    2619
    2619       0    2621    2622    2622       0    2624    2625    2625       0
    2627    2628    2628       0    2630    2631    2631       0    2633    2634
    2634       0    2636    2637    2637       0    2639    2640    2640       0
    2642    2643    2643       0    2645    2646    2646       0    2648    2649
    2649       0    2651    2652    2652       0    2654    2655    2655       0
    2657    2658    2658       0    2660    2661    2661       0    2663    2664
    2664       0    2666    2667    2667       0    2669    2670    2670       0
    2672    2673    2673       0    2675    2676    2676       0    2678    2679
    2679       0    2681    2682    2682       0    2684    2685    2685       0
    2687    2688    2688       0    2690    2691    2691       0    2693    2694
    2694       0    2696    2697    2697       0    2699    2700    2700       0
    2702    2703    2703       0    2705    2706    2706       0    2708    2709
    2709       0    2711    2712    2712       0    2714    2715    2715       0
    2717    2718    2718       0    2720    2721    2721       0    2723    2724
    2724       0    2726    2727    2727       0    2729    2730    2730       0
    2732    2733    2733       0    2735    2736    2736       0    2738    2739
    2739       0    2741    2742    2742       0    2744    2745    2745       0
    2747    2748    2748       0    2750    2751    2751       0    2753    2754
    2754       0    2756    2757    2757       0    2759    2760    2760       0
    2762    2763    2763       0    2765    2766    2766       0    2768    2769
    2769       0    2771    2772    2772       0    2774    2775    2775       0
    2777    2778    2778       0    2780    2781    2781       0    2783    2784
    2784       0    2786    2787    2787       0    2789    2790    2790       0
    2792    2793    2793       0    2795    2796    2796       0    2798    2799
    2799       0    2801    2802    2802       0    2804    2805    2805       0
    2807    2808    2808       0    2810    2811    2811       0    2813    2814
    2814       0    2816    2817    2817       0    2819    2820    2820       0
    2822    2823    2823       0    2825    2826    2826       0    2828    2829
    2829       0    2831    2832    2832       0    2834    2835    2835       0
    2837    2838    2838       0    2840    2841    2841       0    2843    2844
    2844       0    2846    2847    2847       0    2849    2850    2850       0
    2852    2853    2853       0    2855    2856    2856       0    2858    2859
    2859       0    2861    2862    2862       0    2864    2865    2865       0
    2867    2868    2868       0    2870    2871    2871       0    2873    2874
    2874       0    2876    2877    2877       0    2879    2880    2880       0
    2882    2883    2883       0    2885    2886    2886       0    2888    2889
    2889       0    2891    2892    2892       0    2894    2895    2895       0
    2897    2898    2898       0    2900    2901    2901       0    2903    2904
    2904       0    2906    2907    2907       0    2909    2910    2910       0
    2912    2913    2913       0    2915    2916    2916       0    2918    2919
    2919       0    2921    2922    2922       0    2924    2925    2925       0
    2927    2928    2928       0    2930    2931    2931       0    2933    2934
    2934       0    2936    2937    2937       0    2939    2940    2940       0
    2942    2943    2943       0    2945    2946    2946       0    2948    2949
    2949       0    2951    2952    2952       0    2954    2955    2955       0
    2957    2958    2958       0    2960    2961    2961       0    2963    2964
    2964       0    2966    2967    2967       0    2969    2970    2970       0
    2972    2973    2973       0    2975    2976    2976       0    2978    2979
    2979       0    2981    2982    2982       0    2984    2985    2985       0
    2987    2988    2988       0    2990    2991    2991       0    2993    2994
    2994       0    2996    2997    2997       0    2999    3000    3000       0
    3002    3003    3003       0    3005    3006    3006       0    3008    3009
    3009       0    3011    3012    3012       0    3014    3015    3015       0
    3017    3018    3018       0    3020    3021    3021       0    3023    3024
    3024       0    3026    3027    3027       0    3029    3030    3030       0
    3032    3033    3033       0    3035    3036    3036       0    3038    3039
    3039       0    3041    3042    3042       0    3044    3045    3045       0
    3047    3048    3048       0    3050    3051    3051       0    3053    3054
    3054       0    3056    3057    3057       0    3059    3060    3060       0
    3062    3063    3063       0    3065    3066    3066       0    3068    3069
    3069       0    3071    3072    3072       0    3074    3075    3075       0
    3077    3078    3078       0    3080    3081    3081       0    3083    3084
    3084       0    3086    3087    3087       0    3089    3090    3090       0
    3092    3093    3093       0    3095    3096    3096       0    3098    3099
    3099       0    3101    3102    3102       0    3104    3105    3105       0
    3107    3108    3108       0    3110    3111    3111       0    3113    3114
    3114       0    3116    3117    3117       0    3119    3120    3120       0
    3122    3123    3123       0    3125    3126    3126       0    3128    3129
    3129       0    3131    3132    3132       0    3134    3135    3135       0
    3137    3138    3138       0    3140    3141    3141       0    3143    3144
    3144       0    3146    3147    3147       0    3149    3150    3150       0
    3152    3153    3153       0    3155    3156    3156       0    3158    3159
    3159       0    3161    3162    3162       0    3164    3165    3165       0
    3167    3168    3168       0    3170    3171    3171       0    3173    3174
    3174       0    3176    3177    3177       0    3179    3180    3180       0
    3182    3183    3183       0    3185    3186    3186       0    3188    3189
    3189       0    3191    3192    3192       0    3194    3195    3195       0
    3197    3198    3198       0    3200    3201    3201       0    3203    3204
    3204       0    3206    3207    3207       0    3209    3210    3210       0
    3212    3213    3213       0    3215    3216    3216       0    3218    3219
    3219       0    3221    3222    3222       0    3224    3225    3225       0
    3227    3228    3228       0    3230    3231    3231       0    3233    3234
    3234       0    3236    3237    3237       0    3239    3240    3240       0
    3242    3243    3243       0    3245    3246    3246       0    3248    3249
    3249       0    3251    3252    3252       0    3254    3255    3255       0
    3257    3258    3258       0    3260    3261    3261       0    3263    3264
    3264       0    3266    3267    3267       0    3269    3270    3270       0
    3272    3273    3273       0    3275    3276    3276       0    3278    3279
    3279       0    3281    3282    3282       0    3284    3285    3285       0
    3287    3288    3288       0    3290    3291    3291       0    3293    3294
    3294       0    3296    3297    3297       0    3299    3300    3300       0
    3302    3303    3303       0    3305    3306    3306       0    3308    3309
    3309       0    3311    3312    3312       0    3314    3315    3315       0
    3317    3318    3318       0    3320    3321    3321       0    3323    3324
    3324       0    3326    3327    3327       0    3329    3330    3330       0
    3332    3333    3333       0    3335    3336    3336       0    3338    3339
    3339       0    3341    3342    3342       0    3344    3345    3345       0
    3347    3348    3348       0    3350    3351    3351       0    3353    3354
    3354       0    3356    3357    3357       0    3359    3360    3360       0
    3362    3363    3363       0    3365    3366    3366       0    3368    3369
    3369       0    3371    3372    3372       0    3374    3375    3375       0
    3377    3378    3378       0    3380    3381    3381       0    3383    3384
    3384       0    3386    3387    3387       0    3389    3390    3390       0
    3392    3393    3393       0    3395    3396    3396       0    3398    3399
    3399       0    3401    3402    3402       0    3404    3405    3405       0
    3407    3408    3408       0    3410    3411    3411       0    3413    3414
    3414       0    3416    3417    3417       0    3419    3420    3420       0
    3422    3423    3423       0    3425    3426    3426       0    3428    3429
    3429       0    3431    3432    3432       0    3434    3435    3435       0
    3437    3438    3438       0    3440    3441    3441       0    3443    3444
    3444       0    3446    3447    3447       0    3449    3450    3450       0
    3452    3453    3453       0    3455    3456    3456       0    3458    3459
    3459       0    3461    3462    3462       0    3464    3465    3465       0
    3467    3468    3468       0    3470    3471    3471       0    3473    3474
    3474       0    3476    3477    3477       0    3479    3480    3480       0
    3482    3483    3483       0    3485    3486    3486       0    3488    3489
    3489       0    3491    3492    3492       0    3494    3495    3495       0
    3497    3498    3498       0    3500    3501    3501       0    3503    3504
    3504       0    3506    3507    3507       0    3509    3510    3510       0
    3512    3513    3513       0    3515    3516    3516       0    3518    3519
    3519       0    3521    3522    3522       0    3524    3525    3525       0
    3527    3528    3528       0    3530    3531    3531       0    3533    3534
    3534       0    3536    3537    3537       0    3539    3540    3540       0
    3542    3543    3543       0    3545    3546    3546       0    3548    3549
    3549       0    3551    3552    3552       0    3554    3555    3555       0
    3557    3558    3558       0    3560    3561    3561       0    3563    3564
    3564       0    3566    3567    3567       0    3569    3570    3570       0
    3572    3573    3573       0    3575    3576    3576       0    3578    3579
    3579       0    3581    3582    3582       0    3584    3585    3585       0
    3587    3588    3588       0    3590    3591    3591       0    3593    3594
    3594       0    3596    3597    3597       0    3599    3600    3600       0
    3602    3603    3603       0    3605    3606    3606       0    3608    3609
    3609       0    3611    3612    3612       0    3614    3615    3615       0
    3617    3618    3618       0    3620    3621    3621       0    3623    3624
    3624       0    3626    3627    3627       0    3629    3630    3630       0
    3632    3633    3633       0    3635    3636    3636       0    3638    3639
    3639       0    3641    3642    3642       0    3644    3645    3645       0
    3647    3648    3648       0    3650    3651    3651       0    3653    3654
    3654       0    3656    3657    3657       0    3659    3660    3660       0
    3662    3663    3663       0    3665    3666    3666       0    3668    3669
    3669       0    3671    3672    3672       0    3674    3675    3675       0
    3677    3678    3678       0    3680    3681    3681       0    3683    3684
    3684       0    3686    3687    3687       0    3689    3690    3690       0
    3692    3693    3693       0    3695    3696    3696       0    3698    3699
    3699       0    3701    3702    3702       0    3704    3705    3705       0
    3707    3708    3708       0    3710    3711    3711       0    3713    3714
    3714       0    3716    3717    3717       0    3719    3720    3720       0
    3722    3723    3723       0    3725    3726    3726       0    3728    3729
    3729       0    3731    3732    3732       0    3734    3735    3735       0
    3737    3738    3738       0    3740    3741    3741       0    3743    3744
    3744       0    3746    3747    3747       0    3749    3750    3750       0
    3752    3753    3753       0    3755    3756    3756       0    3758    3759
    3759       0    3761    3762    3762       0    3764    3765    3765       0
    3767    3768    3768       0    3770    3771    3771       0    3773    3774
    3774       0    3776    3777    3777       0    3779    3780    3780       0
    3782    3783    3783       0    3785    3786    3786       0    3788    3789
    3789       0    3791    3792    3792       0    3794    3795    3795       0
    3797    3798    3798       0    3800    3801    3801       0    3803    3804
    3804       0    3806    3807    3807       0    3809    3810    3810       0
    3812    3813    3813       0    3815    3816    3816       0    3818    3819
    3819       0    3821    3822    3822       0    3824    3825    3825       0
    3827    3828    3828       0    3830    3831    3831       0    3833    3834
    3834       0    3836    3837    3837       0    3839    3840    3840       0
    3842    3843    3843       0    3845    3846    3846       0    3848    3849
    3849       0    3851    3852    3852       0    3854    3855    3855       0
    3857    3858    3858       0    3860    3861    3861       0    3863    3864
    3864       0    3866    3867    3867       0    3869    3870    3870       0
    3872    3873    3873       0    3875    3876    3876       0    3878    3879
    3879       0    3881    3882    3882       0    3884    3885    3885       0
    3887    3888    3888       0    3890    3891    3891       0    3893    3894
    3894       0    3896    3897    3897       0    3899    3900    3900       0
    3902    3903    3903       0    3905    3906    3906       0    3908    3909
    3909       0    3911    3912    3912       0    3914    3915    3915       0
    3917    3918    3918       0    3920    3921    3921       0    3923    3924
    3924       0    3926    3927    3927       0    3929    3930    3930       0
    3932    3933    3933       0    3935    3936    3936       0    3938    3939
    3939       0    3941    3942    3942       0    3944    3945    3945       0
    3947    3948    3948       0    3950    3951    3951       0    3953    3954
    3954       0    3956    3957    3957       0    3959    3960    3960       0
    3962    3963    3963       0    3965    3966    3966       0    3968    3969
    3969       0    3971    3972    3972       0    3974    3975    3975       0
    3977    3978    3978       0    3980    3981    3981       0    3983    3984
    3984       0    3986    3987    3987       0    3989    3990    3990       0
    3992    3993    3993       0    3995    3996    3996       0    3998    3999
    3999       0    4001    4002    4002       0    4004    4005    4005       0
    4007    4008    4008       0    4010    4011    4011       0    4013    4014
    4014       0    4016    4017    4017       0    4019    4020    4020       0
    4022    4023    4023       0    4025    4026    4026       0    4028    4029
    4029       0    4031    4032    4032       0    4034    4035    4035       0
    4037    4038    4038       0    4040    4041    4041       0    4043    4044
    4044       0    4046    4047    4047       0    4049    4050    4050       0
    4052    4053    4053       0    4055    4056    4056       0    4058    4059
    4059       0    4061    4062    4062       0    4064    4065    4065       0
    4067    4068    4068       0    4070    4071    4071       0    4073    4074
    4074       0    4076    4077    4077       0    4079    4080    4080       0
    4082    4083    4083       0    4085    4086    4086       0    4088    4089
    4089       0    4091    4092    4092       0    4094    4095    4095       0
    4097    4098    4098       0    4100    4101    4101       0    4103    4104
    4104       0    4106    4107    4107       0    4109    4110    4110       0
    4112    4113    4113       0    4115    4116    4116       0    4118    4119
    4119       0    4121    4122    4122       0    4124    4125    4125       0
    4127    4128    4128       0    4130    4131    4131       0    4133    4134
    4134       0    4136    4137    4137       0    4139    4140    4140       0
    4142    4143    4143       0    4145    4146    4146       0    4148    4149
    4149       0    4151    4152    4152       0    4154    4155    4155       0
    4157    4158    4158       0    4160    4161    4161       0    4163    4164
    4164       0    4166    4167    4167       0    4169    4170    4170       0
    4172    4173    4173       0    4175    4176    4176       0    4178    4179
    4179       0    4181    4182    4182       0    4184    4185    4185       0
    4187    4188    4188       0    4190    4191    4191       0    4193    4194
    4194       0    4196    4197    4197       0    4199    4200    4200       0
    4202    4203    4203       0    4205    4206    4206       0    4208    4209
    4209       0    4211    4212    4212       0    4214    4215    4215       0
    4217    4218    4218       0    4220    4221    4221       0    4223    4224
    4224       0    4226    4227    4227       0    4229    4230    4230       0
    4232    4233    4233       0    4235    4236    4236       0    4238    4239
    4239       0    4241    4242    4242       0    4244    4245    4245       0
    4247    4248    4248       0    4250    4251    4251       0    4253    4254
    4254       0    4256    4257    4257       0    4259    4260    4260       0
    4262    4263    4263       0    4265    4266    4266       0    4268    4269
    4269       0    4271    4272    4272       0    4274    4275    4275       0
    4277    4278    4278       0    4280    4281    4281       0    4283    4284
    4284       0    4286    4287    4287       0    4289    4290    4290       0
    4292    4293    4293       0    4295    4296    4296       0    4298    4299
    4299       0    4301    4302    4302       0    4304    4305    4305       0
    4307    4308    4308       0    4310    4311    4311       0    4313    4314
    4314       0    4316    4317    4317       0    4319    4320    4320       0
    4322    4323    4323       0    4325    4326    4326       0    4328    4329
    4329       0    4331    4332    4332       0    4334    4335    4335       0
    4337    4338    4338       0    4340    4341    4341       0    4343    4344
    4344       0    4346    4347    4347       0    4349    4350    4350       0
    4352    4353    4353       0    4355    4356    4356       0    4358    4359
    4359       0    4361    4362    4362       0    4364    4365    4365       0
    4367    4368    4368       0    4370    4371    4371       0    4373    4374
    4374       0    4376    4377    4377       0    4379    4380    4380       0
    4382    4383    4383       0    4385    4386    4386       0    4388    4389
    4389       0    4391    4392    4392       0    4394    4395    4395       0
    4397    4398    4398       0    4400    4401    4401       0    4403    4404
    4404       0    4406    4407    4407       0    4409    4410    4410       0
    4412    4413    4413       0    4415    4416    4416       0    4418    4419
    4419       0    4421    4422    4422       0    4424    4425    4425       0
    4427    4428    4428       0    4430    4431    4431       0    4433    4434
    4434       0    4436    4437    4437       0    4439    4440    4440       0
    4442    4443    4443       0    4445    4446    4446       0    4448    4449
    4449       0    4451    4452    4452       0    4454    4455    4455       0
    4457    4458    4458       0    4460    4461    4461       0    4463    4464
    4464       0    4466    4467    4467       0    4469    4470    4470       0
    4472    4473    4473       0    4475    4476    4476       0    4478    4479
    4479       0    4481    4482    4482       0    4484    4485    4485       0
    4487    4488    4488       0    4490    4491    4491       0    4493    4494
    4494       0    4496    4497    4497       0    4499    4500    4500       0
    4502    4503    4503       0    4505    4506    4506       0    4508    4509
    4509       0    4511    4512    4512       0    4514    4515    4515       0
    4517    4518    4518       0    4520    4521    4521       0    4523    4524
    4524       0    4526    4527    4527       0    4529    4530    4530       0
    4532    4533    4533       0    4535    4536    4536       0    4538    4539
    4539       0    4541    4542    4542       0    4544    4545    4545       0
    4547    4548    4548       0    4550    4551    4551       0    4553    4554
    4554       0    4556    4557    4557       0    4559    4560    4560       0
    4562    4563    4563       0    4565    4566    4566       0    4568    4569
    4569       0    4571    4572    4572       0    4574    4575    4575       0
    4577    4578    4578       0    4580    4581    4581       0    4583    4584
    4584       0    4586    4587    4587       0    4589    4590    4590       0
    4592    4593    4593       0    4595    4596    4596       0    4598    4599
    4599       0    4601    4602    4602       0    4604    4605    4605       0
    4607    4608    4608       0    4610    4611    4611       0    4613    4614
    4614       0    4616    4617    4617       0    4619    4620    4620       0
    4622    4623    4623       0    4625    4626    4626       0    4628    4629
    4629       0    4631    4632    4632       0    4634    4635    4635       0
    4637    4638    4638       0    4640    4641    4641       0    4643    4644
    4644       0    4646    4647    4647       0    4649    4650    4650       0
    4652    4653    4653       0    4655    4656    4656       0    4658    4659
    4659       0    4661    4662    4662       0    4664    4665    4665       0
    4667    4668    4668       0    4670    4671    4671       0    4673    4674
    4674       0    4676    4677    4677       0    4679    4680    4680       0
    4682    4683    4683       0    4685    4686    4686       0    4688    4689
    4689       0    4691    4692    4692       0    4694    4695    4695       0
    4697    4698    4698       0    4700    4701    4701       0    4703    4704
    4704       0    4706    4707    4707       0    4709    4710    4710       0
    4712    4713    4713       0    4715    4716    4716       0    4718    4719
    4719       0    4721    4722    4722       0    4724    4725    4725       0
    4727    4728    4728       0    4730    4731    4731       0    4733    4734
    4734       0    4736    4737    4737       0    4739    4740    4740       0
    4742    4743    4743       0    4745    4746    4746       0    4748    4749
    4749       0    4751    4752    4752       0    4754    4755    4755       0
    4757    4758    4758       0    4760    4761    4761       0    4763    4764
    4764       0    4766    4767    4767       0    4769    4770    4770       0
    4772    4773    4773       0    4775    4776    4776       0    4778    4779
    4779       0    4781    4782    4782       0    4784    4785    4785       0
    4787    4788    4788       0    4790    4791    4791       0    4793    4794
    4794       0    4796    4797    4797       0    4799    4800    4800       0
    4802    4803    4803       0    4805    4806    4806       0    4808    4809
    4809       0    4811    4812    4812       0    4814    4815    4815       0
    4817    4818    4818       0    4820    4821    4821       0    4823    4824
    4824       0    4826    4827    4827       0    4829    4830    4830       0
    4832    4833    4833       0    4835    4836    4836       0    4838    4839
    4839       0    4841    4842    4842       0    4844    4845    4845       0
    4847    4848    4848       0    4850    4851    4851       0    4853    4854
    4854       0    4856    4857    4857       0    4859    4860    4860       0
    4862    4863    4863       0    4865    4866    4866       0    4868    4869
    4869       0    4871    4872    4872       0    4874    4875    4875       0
    4877    4878    4878       0    4880    4881    4881       0    4883    4884
    4884       0    4886    4887    4887       0    4889    4890    4890       0
    4892    4893    4893       0    4895    4896    4896       0    4898    4899
    4899       0    4901    4902    4902       0    4904    4905    4905       0
    4907    4908    4908       0    4910    4911    4911       0    4913    4914
    4914       0    4916    4917    4917       0    4919    4920    4920       0
    4922    4923    4923       0    4925    4926    4926       0    4928    4929
    4929       0    4931    4932    4932       0    4934    4935    4935       0
    4937    4938    4938       0    4940    4941    4941       0    4943    4944
    4944       0    4946    4947    4947       0    4949    4950    4950       0
    4952    4953    4953       0    4955    4956    4956       0    4958    4959
    4959       0    4961    4962    4962       0    4964    4965    4965       0
    4967    4968    4968       0    4970    4971    4971       0    4973    4974
    4974       0    4976    4977    4977       0    4979    4980    4980       0
    4982    4983    4983       0    4985    4986    4986       0    4988    4989
    4989       0    4991    4992    4992       0    4994    4995    4995       0
    4997    4998    4998       0    5000    5001    5001       0    5003    5004
    5004       0    5006    5007    5007       0    5009    5010    5010       0
    5012    5013    5013       0    5015    5016    5016       0    5018    5019
    5019       0    5021    5022    5022       0    5024    5025    5025       0
    5027    5028    5028       0    5030    5031    5031       0    5033    5034
    5034       0    5036    5037    5037       0    5039    5040    5040       0
    5042    5043    5043       0    5045    5046    5046       0    5048    5049
    5049       0    5051    5052    5052       0    5054    5055    5055       0
    5057    5058    5058       0    5060    5061    5061       0    5063    5064
    5064       0    5066    5067    5067       0    5069    5070    5070       0
    5072    5073    5073       0    5075    5076    5076       0    5078    5079
    5079       0    5081    5082    5082       0    5084    5085    5085       0
    5087    5088    5088       0    5090    5091    5091       0    5093    5094
    5094       0    5096    5097    5097       0    5099    5100    5100       0
    5102    5103    5103       0    5105    5106    5106       0    5108    5109
    5109       0    5111    5112    5112       0    5114    5115    5115       0
    5117    5118    5118       0    5120    5121    5121       0    5123    5124
    5124       0    5126    5127    5127       0    5129    5130    5130       0
    5132    5133    5133       0    5135    5136    5136       0    5138    5139
    5139       0    5141    5142    5142       0    5144    5145    5145       0
    5147    5148    5148       0    5150    5151    5151       0    5153    5154
    5154       0    5156    5157    5157       0    5159    5160    5160       0
    5162    5163    5163       0    5165    5166    5166       0    5168    5169
    5169       0    5171    5172    5172       0    5174    5175    5175       0
    5177    5178    5178       0    5180    5181    5181       0    5183    5184
    5184       0    5186    5187    5187       0    5189    5190    5190       0
    5192    5193    5193       0    5195    5196    5196       0    5198    5199
    5199       0    5201    5202    5202       0    5204    5205    5205       0
    5207    5208    5208       0    5210    5211    5211       0    5213    5214
    5214       0    5216    5217    5217       0    5219    5220    5220       0
    5222    5223    5223       0    5225    5226    5226       0    5228    5229
    5229       0    5231    5232    5232       0    5234    5235    5235       0
    5237    5238    5238       0    5240    5241    5241       0    5243    5244
    5244       0    5246    5247    5247       0    5249    5250    5250       0
    5252    5253    5253       0    5255    5256    5256       0    5258    5259
    5259       0    5261    5262    5262       0    5264    5265    5265       0
    5267    5268    5268       0    5270    5271    5271       0    5273    5274
    5274       0    5276    5277    5277       0    5279    5280    5280       0
    5282    5283    5283       0    5285    5286    5286       0    5288    5289
    5289       0    5291    5292    5292       0    5294    5295    5295       0
    5297    5298    5298       0    5300    5301    5301       0    5303    5304
    5304       0    5306    5307    5307       0    5309    5310    5310       0
    5312    5313    5313       0    5315    5316    5316       0    5318    5319
    5319       0    5321    5322    5322       0    5324    5325    5325       0
    5327    5328    5328       0    5330    5331    5331       0    5333    5334
    5334       0    5336    5337    5337       0    5339    5340    5340       0
    5342    5343    5343       0    5345    5346    5346       0    5348    5349
    5349       0    5351    5352    5352       0    5354    5355    5355       0
    5357    5358    5358       0    5360    5361    5361       0    5363    5364
    5364       0    5366    5367    5367       0    5369    5370    5370       0
    5372    5373    5373       0    5375    5376    5376       0    5378    5379
    5379       0    5381    5382    5382       0    5384    5385    5385       0
    5387    5388    5388       0    5390    5391    5391       0    5393    5394
    5394       0    5396    5397    5397       0    5399    5400    5400       0
    5402    5403    5403       0    5405    5406    5406       0    5408    5409
    5409       0    5411    5412    5412       0    5414    5415    5415       0
    5417    5418    5418       0    5420    5421    5421       0    5423    5424
    5424       0    5426    5427    5427       0    5429    5430    5430       0
    5432    5433    5433       0    5435    5436    5436       0    5438    5439
    5439       0    5441    5442    5442       0    5444    5445    5445       0
    5447    5448    5448       0    5450    5451    5451       0    5453    5454
    5454       0    5456    5457    5457       0    5459    5460    5460       0
    5462    5463    5463       0    5465    5466    5466       0    5468    5469
    5469       0    5471    5472    5472       0    5474    5475    5475       0
    5477    5478    5478       0    5480    5481    5481       0    5483    5484
    5484       0    5486    5487    5487       0    5489    5490    5490       0
    5492    5493    5493       0    5495    5496    5496       0    5498    5499
    5499       0    5501    5502    5502       0    5504    5505    5505       0
    5507    5508    5508       0    5510    5511    5511       0    5513    5514
    5514       0    5516    5517    5517       0    5519    5520    5520       0
    5522    5523    5523       0    5525    5526    5526       0    5528    5529
    5529       0    5531    5532    5532       0    5534    5535    5535       0
    5537    5538    5538       0    5540    5541    5541       0    5543    5544
    5544       0    5546    5547    5547       0    5549    5550    5550       0
    5552    5553    5553       0    5555    5556    5556       0    5558    5559
    5559       0    5561    5562    5562       0    5564    5565    5565       0
    5567    5568    5568       0    5570    5571    5571       0    5573    5574
    5574       0    5576    5577    5577       0    5579    5580    5580       0
    5582    5583    5583       0    5585    5586    5586       0    5588    5589
    5589       0    5591    5592    5592       0    5594    5595    5595       0
    5597    5598    5598       0    5600    5601    5601       0    5603    5604
    5604       0    5606    5607    5607       0    5609    5610    5610       0
    5612    5613    5613       0    5615    5616    5616       0    5618    5619
    5619       0    5621    5622    5622       0    5624    5625    5625       0
    5627    5628    5628       0    5630    5631    5631       0    5633    5634
    5634       0    5636    5637    5637       0    5639    5640    5640       0
    5642    5643    5643       0    5645    5646    5646       0    5648    5649
    5649       0    5651    5652    5652       0    5654    5655    5655       0
    5657    5658    5658       0    5660    5661    5661       0    5663    5664
    5664       0    5666    5667    5667       0    5669    5670    5670       0
    5672    5673    5673       0    5675    5676    5676       0    5678    5679
    5679       0    5681    5682    5682       0    5684    5685    5685       0
    5687    5688    5688       0    5690    5691    5691       0    5693    5694
    5694       0    5696    5697    5697       0    5699    5700    5700       0
    5702    5703    5703       0    5705    5706    5706       0    5708    5709
    5709       0    5711    5712    5712       0    5714    5715    5715       0
    5717    5718    5718       0    5720    5721    5721       0    5723    5724
    5724       0    5726    5727    5727       0    5729    5730    5730       0
    5732    5733    5733       0    5735    5736    5736       0    5738    5739
    5739       0    5741    5742    5742       0    5744    5745    5745       0
    5747    5748    5748       0    5750    5751    5751       0    5753    5754
    5754       0    5756    5757    5757       0    5759    5760    5760       0
    5762    5763    5763       0    5765    5766    5766       0    5768    5769
    5769       0    5771    5772    5772       0    5774    5775    5775       0
    5777    5778    5778       0    5780    5781    5781       0    5783    5784
    5784       0    5786    5787    5787       0    5789    5790    5790       0
    5792    5793    5793       0    5795    5796    5796       0    5798    5799
    5799       0    5801    5802    5802       0    5804    5805    5805       0
    5807    5808    5808       0    5810    5811    5811       0    5813    5814
    5814       0    5816    5817    5817       0    5819    5820    5820       0
    5822    5823    5823       0    5825    5826    5826       0    5828    5829
    5829       0    5831    5832    5832       0    5834    5835    5835       0
    5837    5838    5838       0    5840    5841    5841       0    5843    5844
    5844       0    5846    5847    5847       0    5849    5850    5850       0
    5852    5853    5853       0    5855    5856    5856       0    5858    5859
    5859       0    5861    5862    5862       0    5864    5865    5865       0
    5867    5868    5868       0    5870    5871    5871       0    5873    5874
    5874       0    5876    5877    5877       0    5879    5880    5880       0
    5882    5883    5883       0    5885    5886    5886       0    5888    5889
    5889       0    5891    5892    5892       0    5894    5895    5895       0
    5897    5898    5898       0    5900    5901    5901       0    5903    5904
    5904       0    5906    5907    5907       0    5909    5910    5910       0
    5912    5913    5913       0    5915    5916    5916       0    5918    5919
    5919       0    5921    5922    5922       0    5924    5925    5925       0
    5927    5928    5928       0    5930    5931    5931       0    5933    5934
    5934       0    5936    5937    5937       0    5939    5940    5940       0
    5942    5943    5943       0    5945    5946    5946       0    5948    5949
    5949       0    5951    5952    5952       0    5954    5955    5955       0
    5957    5958    5958       0    5960    5961    5961       0    5963    5964
    5964       0    5966    5967    5967       0    5969    5970    5970       0
    5972    5973    5973       0    5975    5976    5976       0    5978    5979
    5979       0    5981    5982    5982       0    5984    5985    5985       0
    5987    5988    5988       0    5990    5991    5991       0    5993    5994
    5994       0    5996    5997    5997       0    5999    6000    6000       0
    6002    6003    6003       0    6005    6006    6006       0    6008    6009
    6009       0    6011    6012    6012       0    6014    6015    6015       0
    6017    6018    6018       0    6020    6021    6021       0    6023    6024
    6024       0    6026    6027    6027       0    6029    6030    6030       0
    6032    6033    6033       0    6035    6036    6036       0    6038    6039
    6039       0    6041    6042    6042       0    6044    6045    6045       0
    6047    6048    6048       0    6050    6051    6051       0    6053    6054
    6054       0    6056    6057    6057       0    6059    6060    6060       0
    6062    6063    6063       0    6065    6066    6066       0    6068    6069
    6069       0    6071    6072    6072       0    6074    6075    6075       0
    6077    6078    6078       0    6080    6081    6081       0    6083    6084
    6084       0    6086    6087    6087       0    6089    6090    6090       0
    6092    6093    6093       0    6095    6096    6096       0    6098    6099
    6099       0    6101    6102    6102       0    6104    6105    6105       0
    6107    6108    6108       0    6110    6111    6111       0    6113    6114
    6114       0    6116    6117    6117       0    6119    6120    6120       0
    6122    6123    6123       0    6125    6126    6126       0    6128    6129
    6129       0    6131    6132    6132       0    6134    6135    6135       0
    6137    6138    6138       0    6140    6141    6141       0    6143    6144
    6144       0    6146    6147    6147       0    6149    6150    6150       0
    6152    6153    6153       0    6155    6156    6156       0    6158    6159
    6159       0    6161    6162    6162       0    6164    6165    6165       0
    6167    6168    6168       0    6170    6171    6171       0    6173    6174
    6174       0    6176    6177    6177       0    6179    6180    6180       0
    6182    6183    6183       0    6185    6186    6186       0    6188    6189
    6189       0    6191    6192    6192       0    6194    6195    6195       0
    6197    6198    6198       0    6200    6201    6201       0    6203    6204
    6204       0    6206    6207    6207       0    6209    6210    6210       0
    6212    6213    6213       0    6215    6216    6216       0    6218    6219
    6219       0    6221    6222    6222       0    6224    6225    6225       0
    6227    6228    6228       0    6230    6231    6231       0    6233    6234
    6234       0    6236    6237    6237       0    6239    6240    6240       0
    6242    6243    6243       0    6245    6246    6246       0    6248    6249
    6249       0    6251    6252    6252       0    6254    6255    6255       0
    6257    6258    6258       0    6260    6261    6261       0    6263    6264
    6264       0    6266    6267    6267       0    6269    6270    6270       0
    6272    6273    6273       0    6275    6276    6276       0    6278    6279
    6279       0    6281    6282    6282       0    6284    6285    6285       0
    6287    6288    6288       0    6290    6291    6291       0    6293    6294
    6294       0    6296    6297    6297       0    6299    6300    6300       0
    6302    6303    6303       0    6305    6306    6306       0    6308    6309
    6309       0    6311    6312    6312       0    6314    6315    6315       0
    6317    6318    6318       0    6320    6321    6321       0    6323    6324
    6324       0    6326    6327    6327       0    6329    6330    6330       0
    6332    6333    6333       0    6335    6336    6336       0    6338    6339
    6339       0    6341    6342    6342       0    6344    6345    6345       0
    6347    6348    6348       0    6350    6351    6351       0    6353    6354
    6354       0    6356    6357    6357       0    6359    6360    6360       0
    6362    6363    6363       0    6365    6366    6366       0    6368    6369
    6369       0    6371    6372    6372       0    6374    6375    6375       0
    6377    6378    6378       0    6380    6381    6381       0    6383    6384
    6384       0    6386    6387    6387       0    6389    6390    6390       0
    6392    6393    6393       0    6395    6396    6396       0    6398    6399
    6399       0    6401    6402    6402       0    6404    6405    6405       0
    6407    6408    6408       0    6410    6411    6411       0    6413    6414
    6414       0    6416    6417    6417       0    6419    6420    6420       0
    6422    6423    6423       0    6425    6426    6426       0    6428    6429
    6429       0    6431    6432    6432       0    6434    6435    6435       0
    6437    6438    6438       0    6440    6441    6441       0    6443    6444
    6444       0    6446    6447    6447       0    6449    6450    6450       0
    6452    6453    6453       0    6455    6456    6456       0    6458    6459
    6459       0    6461    6462    6462       0    6464    6465    6465       0
    6467    6468    6468       0    6470    6471    6471       0    6473    6474
    6474       0    6476    6477    6477       0    6479    6480    6480       0
    6482    6483    6483       0    6485    6486    6486       0    6488    6489
    6489       0    6491    6492    6492       0    6494    6495    6495       0
    6497    6498    6498       0    6500    6501    6501       0    6503    6504
    6504       0    6506    6507    6507       0    6509    6510    6510       0
    6512    6513    6513       0    6515    6516    6516       0    6518    6519
    6519       0    6521    6522    6522       0    6524    6525    6525       0
    6527    6528    6528       0    6530    6531    6531       0    6533    6534
    6534       0    6536    6537    6537       0    6539    6540    6540       0
    6542    6543    6543       0    6545    6546    6546       0    6548    6549
    6549       0    6551    6552    6552       0    6554    6555    6555       0
    6557    6558    6558       0    6560    6561    6561       0    6563    6564
    6564       0    6566    6567    6567       0    6569    6570    6570       0
    6572    6573    6573       0    6575    6576    6576       0    6578    6579
    6579       0    6581    6582    6582       0    6584    6585    6585       0
    6587    6588    6588       0    6590    6591    6591       0    6593    6594
    6594       0    6596    6597    6597       0    6599    6600    6600       0
    6602    6603    6603       0    6605    6606    6606       0    6608    6609
    6609       0    6611    6612    6612       0    6614    6615    6615       0
    6617    6618    6618       0    6620    6621    6621       0    6623    6624
    6624       0    6626    6627    6627       0    6629    6630    6630       0
    6632    6633    6633       0    6635    6636    6636       0    6638    6639
    6639       0    6641    6642    6642       0    6644    6645    6645       0
    6647    6648    6648       0    6650    6651    6651       0    6653    6654
    6654       0    6656    6657    6657       0    6659    6660    6660       0
    6662    6663    6663       0    6665    6666    6666       0    6668    6669
    6669       0    6671    6672    6672       0    6674    6675    6675       0
    6677    6678    6678       0    6680    6681    6681       0    6683    6684
    6684       0    6686    6687    6687       0    6689    6690    6690       0
    6692    6693    6693       0    6695    6696    6696       0    6698    6699
    6699       0    6701    6702    6702       0    6704    6705    6705       0
    6707    6708    6708       0    6710    6711    6711       0    6713    6714
    6714       0    6716    6717    6717       0    6719    6720    6720       0
    6722    6723    6723       0    6725    6726    6726       0    6728    6729
    6729       0    6731    6732    6732       0    6734    6735    6735       0
    6737    6738    6738       0    6740    6741    6741       0    6743    6744
    6744       0    6746    6747    6747       0    6749    6750    6750       0
    6752    6753    6753       0    6755    6756    6756       0    6758    6759
    6759       0    6761    6762    6762       0    6764    6765    6765       0
    6767    6768    6768       0    6770    6771    6771       0    6773    6774
    6774       0    6776    6777    6777       0    6779    6780    6780       0
    6782    6783    6783       0    6785    6786    6786       0    6788    6789
    6789       0    6791    6792    6792       0    6794    6795    6795       0
    6797    6798    6798       0    6800    6801    6801       0    6803    6804
    6804       0    6806    6807    6807       0    6809    6810    6810       0
    6812    6813    6813       0    6815    6816    6816       0    6818    6819
    6819       0    6821    6822    6822       0    6824    6825    6825       0
    6827    6828    6828       0    6830    6831    6831       0    6833    6834
    6834       0    6836    6837    6837       0    6839    6840    6840       0
    6842    6843    6843       0    6845    6846    6846       0    6848    6849
    6849       0    6851    6852    6852       0    6854    6855    6855       0
    6857    6858    6858       0    6860    6861    6861       0    6863    6864
    6864       0    6866    6867    6867       0    6869    6870    6870       0
    6872    6873    6873       0    6875    6876    6876       0    6878    6879
    6879       0    6881    6882    6882       0    6884    6885    6885       0
    6887    6888    6888       0    6890    6891    6891       0    6893    6894
    6894       0    6896    6897    6897       0    6899    6900    6900       0
    6902    6903    6903       0    6905    6906    6906       0    6908    6909
    6909       0    6911    6912    6912       0    6914    6915    6915       0
    6917    6918    6918       0    6920    6921    6921       0    6923    6924
    6924       0    6926    6927    6927       0    6929    6930    6930       0
    6932    6933    6933       0    6935    6936    6936       0    6938    6939
    6939       0    6941    6942    6942       0    6944    6945    6945       0
    6947    6948    6948       0    6950    6951    6951       0    6953    6954
    6954       0    6956    6957    6957       0    6959    6960    6960       0
    6962    6963    6963       0    6965    6966    6966       0    6968    6969
    6969       0    6971    6972    6972       0    6974    6975    6975       0
    6977    6978    6978       0    6980    6981    6981       0    6983    6984
    6984       0    6986    6987    6987       0    6989    6990    6990       0
    6992    6993    6993       0    6995    6996    6996       0    6998    6999
    6999       0    7001    7002    7002       0    7004    7005    7005       0
    7007    7008    7008       0    7010    7011    7011       0    7013    7014
    7014       0    7016    7017    7017       0    7019    7020    7020       0
    7022    7023    7023       0    7025    7026    7026       0    7028    7029
    7029       0    7031    7032    7032       0    7034    7035    7035       0
    7037    7038    7038       0    7040    7041    7041       0    7043    7044
    7044       0    7046    7047    7047       0    7049    7050    7050       0
    7052    7053    7053       0    7055    7056    7056       0    7058    7059
    7059       0    7061    7062    7062       0    7064    7065    7065       0
    7067    7068    7068       0    7070    7071    7071       0    7073    7074
    7074       0    7076    7077    7077       0    7079    7080    7080       0
    7082    7083    7083       0    7085    7086    7086       0    7088    7089
    7089       0    7091    7092    7092       0    7094    7095    7095       0
    7097    7098    7098       0    7100    7101    7101       0    7103    7104
    7104       0    7106    7107    7107       0    7109    7110    7110       0
    7112    7113    7113       0    7115    7116    7116       0    7118    7119
    7119       0    7121    7122    7122       0    7124    7125    7125       0
    7127    7128    7128       0    7130    7131    7131       0    7133    7134
    7134       0    7136    7137    7137       0    7139    7140    7140       0
    7142    7143    7143       0    7145    7146    7146       0    7148    7149
    7149       0    7151    7152    7152       0    7154    7155    7155       0
    7157    7158    7158       0    7160    7161    7161       0    7163    7164
    7164       0    7166    7167    7167       0    7169    7170    7170       0
    7172    7173    7173       0    7175    7176    7176       0    7178    7179
    7179       0    7181    7182    7182       0    7184    7185    7185       0
    7187    7188    7188       0    7190    7191    7191       0    7193    7194
    7194       0    7196    7197    7197       0    7199    7200    7200       0
    7202    7203    7203       0    7205    7206    7206       0    7208    7209
    7209       0    7211    7212    7212       0    7214    7215    7215       0
    7217    7218    7218       0    7220    7221    7221       0    7223    7224
    7224       0    7226    7227    7227       0    7229    7230    7230       0
    7232    7233    7233       0    7235    7236    7236       0    7238    7239
    7239       0    7241    7242    7242       0    7244    7245    7245       0
    7247    7248    7248       0    7250    7251    7251       0    7253    7254
    7254       0    7256    7257    7257       0    7259    7260    7260       0
    7262    7263    7263       0    7265    7266    7266       0    7268    7269
    7269       0    7271    7272    7272       0    7274    7275    7275       0
    7277    7278    7278       0    7280    7281    7281       0    7283    7284
    7284       0    7286    7287    7287       0    7289    7290    7290       0
    7292    7293    7293       0    7295    7296    7296       0    7298    7299
    7299       0    7301    7302    7302       0    7304    7305    7305       0
    7307    7308    7308       0    7310    7311    7311       0    7313    7314
    7314       0    7316    7317    7317       0    7319    7320    7320       0
    7322    7323    7323       0    7325    7326    7326       0    7328    7329
    7329       0    7331    7332    7332       0    7334    7335    7335       0
    7337    7338    7338       0    7340    7341    7341       0    7343    7344
    7344       0    7346    7347    7347       0    7349    7350    7350       0
    7352    7353    7353       0    7355    7356    7356       0    7358    7359
    7359       0    7361    7362    7362       0    7364    7365    7365       0
    7367    7368    7368       0    7370    7371    7371       0    7373    7374
    7374       0    7376    7377    7377       0    7379    7380    7380       0
    7382    7383    7383       0    7385    7386    7386       0    7388    7389
    7389       0    7391    7392    7392       0    7394    7395    7395       0
    7397    7398    7398       0    7400    7401    7401       0    7403    7404
    7404       0    7406    7407    7407       0    7409    7410    7410       0
    7412    7413    7413       0    7415    7416    7416       0    7418    7419
    7419       0    7421    7422    7422       0    7424    7425    7425       0
    7427    7428    7428       0    7430    7431    7431       0    7433    7434
    7434       0    7436    7437    7437       0    7439    7440    7440       0
    7442    7443    7443       0    7445    7446    7446       0    7448    7449
    7449       0    7451    7452    7452       0    7454    7455    7455       0
    7457    7458    7458       0    7460    7461    7461       0    7463    7464
    7464       0    7466    7467    7467       0    7469    7470    7470       0
    7472    7473    7473       0    7475    7476    7476       0    7478    7479
    7479       0    7481    7482    7482       0    7484    7485    7485       0
    7487    7488    7488       0    7490    7491    7491       0    7493    7494
    7494       0    7496    7497    7497       0    7499    7500    7500       0
    7502    7503    7503       0    7505    7506    7506       0    7508    7509
    7509       0    7511    7512    7512       0    7514    7515    7515       0
    7517    7518    7518       0    7520    7521    7521       0    7523    7524
    7524       0    7526    7527    7527       0    7529    7530    7530       0
    7532    7533    7533       0    7535    7536    7536       0    7538    7539
    7539       0    7541    7542    7542       0    7544    7545    7545       0
    7547    7548    7548       0    7550    7551    7551       0    7553    7554
    7554       0    7556    7557    7557       0    7559    7560    7560       0
    7562    7563    7563       0    7565    7566    7566       0    7568    7569
    7569       0    7571    7572    7572       0    7574    7575    7575       0
    7577    7578    7578       0    7580    7581    7581       0    7583    7584
    7584       0    7586    7587    7587       0    7589    7590    7590       0
    7592    7593    7593       0    7595    7596    7596       0    7598    7599
    7599       0    7601    7602    7602       0    7604    7605    7605       0
    7607    7608    7608       0    7610    7611    7611       0    7613    7614
    7614       0    7616    7617    7617       0    7619    7620    7620       0
    7622    7623    7623       0    7625    7626    7626       0    7628    7629
    7629       0    7631    7632    7632       0    7634    7635    7635       0
    7637    7638    7638       0    7640    7641    7641       0    7643    7644
    7644       0    7646    7647    7647       0    7649    7650    7650       0
    7652    7653    7653       0    7655    7656    7656       0    7658    7659
    7659       0    7661    7662    7662       0    7664    7665    7665       0
    7667    7668    7668       0    7670    7671    7671       0    7673    7674
    7674       0    7676    7677    7677       0    7679    7680    7680       0
    7682    7683    7683       0    7685    7686    7686       0    7688    7689
    7689       0    7691    7692    7692       0    7694    7695    7695       0
    7697    7698    7698       0    7700    7701    7701       0    7703    7704
    7704       0    7706    7707    7707       0    7709    7710    7710       0
    7712    7713    7713       0    7715    7716    7716       0    7718    7719
    7719       0    7721    7722    7722       0    7724    7725    7725       0
    7727    7728    7728       0    7730    7731    7731       0    7733    7734
    7734       0    7736    7737    7737       0    7739    7740    7740       0
    7742    7743    7743       0    7745    7746    7746       0    7748    7749
    7749       0    7751    7752    7752       0    7754    7755    7755       0
    7757    7758    7758       0    7760    7761    7761       0    7763    7764
    7764       0    7766    7767    7767       0    7769    7770    7770       0
    7772    7773    7773       0    7775    7776    7776       0    7778    7779
    7779       0    7781    7782    7782       0    7784    7785    7785       0
    7787    7788    7788       0    7790    7791    7791       0    7793    7794
    7794       0    7796    7797    7797       0    7799    7800    7800       0
    7802    7803    7803       0    7805    7806    7806       0    7808    7809
    7809       0    7811    7812    7812       0    7814    7815    7815       0
    7817    7818    7818       0    7820    7821    7821       0    7823    7824
    7824       0    7826    7827    7827       0    7829    7830    7830       0
    7832    7833    7833       0    7835    7836    7836       0    7838    7839
    7839       0    7841    7842    7842       0    7844    7845    7845       0
    7847    7848    7848       0    7850    7851    7851       0    7853    7854
    7854       0    7856    7857    7857       0    7859    7860    7860       0
    7862    7863    7863       0    7865    7866    7866       0    7868    7869
    7869       0    7871    7872    7872       0    7874    7875    7875       0
    7877    7878    7878       0    7880    7881    7881       0    7883    7884
    7884       0    7886    7887    7887       0    7889    7890    7890       0
    7892    7893    7893       0    7895    7896    7896       0    7898    7899
    7899       0    7901    7902    7902       0    7904    7905    7905       0
    7907    7908    7908       0    7910    7911    7911       0    7913    7914
    7914       0    7916    7917    7917       0    7919    7920    7920       0
    7922    7923    7923       0    7925    7926    7926       0    7928    7929
    7929       0    7931    7932    7932       0    7934    7935    7935       0
    7937    7938    7938       0    7940    7941    7941       0    7943    7944
    7944       0    7946    7947    7947       0    7949    7950    7950       0
    7952    7953    7953       0    7955    7956    7956       0    7958    7959
    7959       0    7961    7962    7962       0    7964    7965    7965       0
    7967    7968    7968       0    7970    7971    7971       0    7973    7974
    7974       0    7976    7977    7977       0    7979    7980    7980       0
    7982    7983    7983       0    7985    7986    7986       0    7988    7989
    7989       0    7991    7992    7992       0    7994    7995    7995       0
    7997    7998    7998       0    8000    8001    8001       0    8003    8004
    8004       0    8006    8007    8007       0    8009    8010    8010       0
    8012    8013    8013       0    8015    8016    8016       0    8018    8019
    8019       0    8021    8022    8022       0    8024    8025    8025       0
    8027    8028    8028       0    8030    8031    8031       0    8033    8034
    8034       0    8036    8037    8037       0    8039    8040    8040       0
    8042    8043    8043       0    8045    8046    8046       0    8048    8049
    8049       0    8051    8052    8052       0    8054    8055    8055       0
    8057    8058    8058       0    8060    8061    8061       0    8063    8064
    8064       0    8066    8067    8067       0    8069    8070    8070       0
    8072    8073    8073       0    8075    8076    8076       0    8078    8079
    8079       0    8081    8082    8082       0    8084    8085    8085       0
    8087    8088    8088       0    8090    8091    8091       0    8093    8094
    8094       0    8096    8097    8097       0    8099    8100    8100       0
    8102    8103    8103       0    8105    8106    8106       0    8108    8109
    8109       0    8111    8112    8112       0    8114    8115    8115       0
    8117    8118    8118       0    8120    8121    8121       0    8123    8124
    8124       0    8126    8127    8127       0    8129    8130    8130       0
    8132    8133    8133       0    8135    8136    8136       0    8138    8139
    8139       0    8141    8142    8142       0    8144    8145    8145       0
    8147    8148    8148       0    8150    8151    8151       0    8153    8154
    8154       0    8156    8157    8157       0    8159    8160    8160       0
    8162    8163    8163       0    8165    8166    8166       0    8168    8169
    8169       0    8171    8172    8172       0    8174    8175    8175       0
    8177    8178    8178       0    8180    8181    8181       0    8183    8184
    8184       0    8186    8187    8187       0    8189    8190    8190       0
    8192    8193    8193       0    8195    8196    8196       0    8198    8199
    8199       0    8201    8202    8202       0    8204    8205    8205       0
    8207    8208    8208       0    8210    8211    8211       0    8213    8214
    8214       0    8216    8217    8217       0    8219    8220    8220       0
    8222    8223    8223       0    8225    8226    8226       0    8228    8229
    8229       0    8231    8232    8232       0    8234    8235    8235       0
    8237    8238    8238       0    8240    8241    8241       0    8243    8244
    8244       0    8246    8247    8247       0    8249    8250    8250       0
    8252    8253    8253       0    8255    8256    8256       0    8258    8259
    8259       0    8261    8262    8262       0    8264    8265    8265       0
    8267    8268    8268       0    8270    8271    8271       0    8273    8274
    8274       0    8276    8277    8277       0    8279    8280    8280       0
    8282    8283    8283       0    8285    8286    8286       0    8288    8289
    8289       0    8291    8292    8292       0    8294    8295    8295       0
    8297    8298    8298       0    8300    8301    8301       0    8303    8304
    8304       0    8306    8307    8307       0    8309    8310    8310       0
    8312    8313    8313       0    8315    8316    8316       0    8318    8319
    8319       0    8321    8322    8322       0    8324    8325    8325       0
    8327    8328    8328       0    8330    8331    8331       0    8333    8334
    8334       0    8336    8337    8337       0    8339    8340    8340       0
    8342    8343    8343       0    8345    8346    8346       0    8348    8349
    8349       0    8351    8352    8352       0    8354    8355    8355       0
    8357    8358    8358       0    8360    8361    8361       0    8363    8364
    8364       0    8366    8367    8367       0    8369    8370    8370       0
    8372    8373    8373       0    8375    8376    8376       0    8378    8379
    8379       0    8381    8382    8382       0    8384    8385    8385       0
    8387    8388    8388       0    8390    8391    8391       0    8393    8394
    8394       0    8396    8397    8397       0    8399    8400    8400       0
    8402    8403    8403       0    8405    8406    8406       0    8408    8409
    8409       0    8411    8412    8412       0    8414    8415    8415       0
    8417    8418    8418       0    8420    8421    8421       0    8423    8424
    8424       0    8426    8427    8427       0    8429    8430    8430       0
    8432    8433    8433       0    8435    8436    8436       0    8438    8439
    8439       0    8441    8442    8442       0    8444    8445    8445       0
    8447    8448    8448       0    8450    8451    8451       0    8453    8454
    8454       0    8456    8457    8457       0    8459    8460    8460       0
    8462    8463    8463       0    8465    8466    8466       0    8468    8469
    8469       0    8471    8472    8472       0    8474    8475    8475       0
    8477    8478    8478       0    8480    8481    8481       0    8483    8484
    8484       0    8486    8487    8487       0    8489    8490    8490       0
    8492    8493    8493       0    8495    8496    8496       0    8498    8499
    8499       0    8501    8502    8502       0    8504    8505    8505       0
    8507    8508    8508       0    8510    8511    8511       0    8513    8514
    8514       0    8516    8517    8517       0    8519    8520    8520       0
    8522    8523    8523       0    8525    8526    8526       0    8528    8529
    8529       0    8531    8532    8532       0    8534    8535    8535       0
    8537    8538    8538       0    8540    8541    8541       0    8543    8544
    8544       0    8546    8547    8547       0    8549    8550    8550       0
    8552    8553    8553       0    8555    8556    8556       0    8558    8559
    8559       0    8561    8562    8562       0    8564    8565    8565       0
    8567    8568    8568       0    8570    8571    8571       0    8573    8574
    8574       0    8576    8577    8577       0    8579    8580    8580       0
    8582    8583    8583       0    8585    8586    8586       0    8588    8589
    8589       0    8591    8592    8592       0    8594    8595    8595       0
    8597    8598    8598       0    8600    8601    8601       0    8603    8604
    8604       0    8606    8607    8607       0    8609    8610    8610       0
    8612    8613    8613       0    8615    8616    8616       0    8618    8619
    8619       0    8621    8622    8622       0    8624    8625    8625       0
    8627    8628    8628       0    8630    8631    8631       0    8633    8634
    8634       0    8636    8637    8637       0    8639    8640    8640       0
    8642    8643    8643       0    8645    8646    8646       0    8648    8649
    8649       0    8651    8652    8652       0    8654    8655    8655       0
    8657    8658    8658       0    8660    8661    8661       0    8663    8664
    8664       0    8666    8667    8667       0    8669    8670    8670       0
    8672    8673    8673       0    8675    8676    8676       0    8678    8679
    8679       0    8681    8682    8682       0    8684    8685    8685       0
    8687    8688    8688       0    8690    8691    8691       0    8693    8694
    8694       0    8696    8697    8697       0    8699    8700    8700       0
    8702    8703    8703       0    8705    8706    8706       0    8708    8709
    8709       0    8711    8712    8712       0    8714    8715    8715       0
    8717    8718    8718       0    8720    8721    8721       0    8723    8724
    8724       0    8726    8727    8727       0    8729    8730    8730       0
    8732    8733    8733       0    8735    8736    8736       0    8738    8739
    8739       0    8741    8742    8742       0    8744    8745    8745       0
    8747    8748    8748       0    8750    8751    8751       0    8753    8754
    8754       0    8756    8757    8757       0    8759    8760    8760       0
    8762    8763    8763       0    8765    8766    8766       0    8768    8769
    8769       0    8771    8772    8772       0    8774    8775    8775       0
    8777    8778    8778       0    8780    8781    8781       0    8783    8784
    8784       0    8786    8787    8787       0    8789    8790    8790       0
    8792    8793    8793       0    8795    8796    8796       0    8798    8799
    8799       0    8801    8802    8802       0    8804    8805    8805       0
    8807    8808    8808       0    8810    8811    8811       0    8813    8814
    8814       0    8816    8817    8817       0    8819    8820    8820       0
    8822    8823    8823       0    8825    8826    8826       0    8828    8829
    8829       0    8831    8832    8832       0    8834    8835    8835       0
    8837    8838    8838       0    8840    8841    8841       0    8843    8844
    8844       0    8846    8847    8847       0    8849    8850    8850       0
    8852    8853    8853       0    8855    8856    8856       0    8858    8859
    8859       0    8861    8862    8862       0    8864    8865    8865       0
    8867    8868    8868       0    8870    8871    8871       0    8873    8874
    8874       0    8876    8877    8877       0    8879    8880    8880       0
    8882    8883    8883       0    8885    8886    8886       0    8888    8889
    8889       0    8891    8892    8892       0    8894    8895    8895       0
    8897    8898    8898       0    8900    8901    8901       0    8903    8904
    8904       0    8906    8907    8907       0    8909    8910    8910       0
    8912    8913    8913       0    8915    8916    8916       0    8918    8919
    8919       0    8921    8922    8922       0    8924    8925    8925       0
    8927    8928    8928       0    8930    8931    8931       0    8933    8934
    8934       0    8936    8937    8937       0    8939    8940    8940       0
    8942    8943    8943       0    8945    8946    8946       0    8948    8949
    8949       0    8951    8952    8952       0    8954    8955    8955       0
    8957    8958    8958       0    8960    8961    8961       0    8963    8964
    8964       0    8966    8967    8967       0    8969    8970    8970       0
    8972    8973    8973       0    8975    8976    8976       0    8978    8979
    8979       0    8981    8982    8982       0    8984    8985    8985       0
    8987    8988    8988       0    8990    8991    8991       0    8993    8994
    8994       0    8996    8997    8997       0    8999    9000    9000       0
    9002    9003    9003       0    9005    9006    9006       0    9008    9009
    9009       0    9011    9012    9012       0    9014    9015    9015       0
    9017    9018    9018       0    9020    9021    9021       0    9023    9024
    9024       0    9026    9027    9027       0    9029    9030    9030       0
    9032    9033    9033       0    9035    9036    9036       0    9038    9039
    9039       0    9041    9042    9042       0    9044    9045    9045       0
    9047    9048    9048       0    9050    9051    9051       0    9053    9054
    9054       0    9056    9057    9057       0    9059    9060    9060       0
    9062    9063    9063       0    9065    9066    9066       0    9068    9069
    9069       0    9071    9072    9072       0    9074    9075    9075       0
    9077    9078    9078       0    9080    9081    9081       0    9083    9084
    9084       0    9086    9087    9087       0    9089    9090    9090       0
    9092    9093    9093       0    9095    9096    9096       0    9098    9099
    9099       0    9101    9102    9102       0    9104    9105    9105       0
    9107    9108    9108       0    9110    9111    9111       0    9113    9114
    9114       0    9116    9117    9117       0    9119    9120    9120       0
    9122    9123    9123       0    9125    9126    9126       0    9128    9129
    9129       0    9131    9132    9132       0    9134    9135    9135       0
    9137    9138    9138       0    9140    9141    9141       0    9143    9144
    9144       0    9146    9147    9147       0    9149    9150    9150       0
    9152    9153    9153       0    9155    9156    9156       0    9158    9159
    9159       0    9161    9162    9162       0    9164    9165    9165       0
    9167    9168    9168       0    9170    9171    9171       0    9173    9174
    9174       0    9176    9177    9177       0    9179    9180    9180       0
    9182    9183    9183       0    9185    9186    9186       0    9188    9189
    9189       0    9191    9192    9192       0    9194    9195    9195       0
    9197    9198    9198       0    9200    9201    9201       0    9203    9204
    9204       0    9206    9207    9207       0    9209    9210    9210       0
    9212    9213    9213       0    9215    9216    9216       0    9218    9219
    9219       0    9221    9222    9222       0    9224    9225    9225       0
    9227    9228    9228       0    9230    9231    9231       0    9233    9234
    9234       0    9236    9237    9237       0    9239    9240    9240       0
    9242    9243    9243       0    9245    9246    9246       0    9248    9249
    9249       0    9251    9252    9252       0    9254    9255    9255       0
    9257    9258    9258       0    9260    9261    9261       0    9263    9264
    9264       0    9266    9267    9267       0    9269    9270    9270       0
    9272    9273    9273       0    9275    9276    9276       0    9278    9279
    9279       0    9281    9282    9282       0    9284    9285    9285       0
    9287    9288    9288       0    9290    9291    9291       0    9293    9294
    9294       0    9296    9297    9297       0    9299    9300    9300       0
    9302    9303    9303       0    9305    9306    9306       0    9308    9309
    9309       0    9311    9312    9312       0    9314    9315    9315       0
    9317    9318    9318       0    9320    9321    9321       0    9323    9324
    9324       0    9326    9327    9327       0    9329    9330    9330       0
    9332    9333    9333       0    9335    9336    9336       0    9338    9339
    9339       0    9341    9342    9342       0    9344    9345    9345       0
    9347    9348    9348       0    9350    9351    9351       0    9353    9354
    9354       0    9356    9357    9357       0    9359    9360    9360       0
    9362    9363    9363       0    9365    9366    9366       0    9368    9369
    9369       0    9371    9372    9372       0    9374    9375    9375       0
    9377    9378    9378       0    9380    9381    9381       0    9383    9384
    9384       0    9386    9387    9387       0    9389    9390    9390       0
    9392    9393    9393       0    9395    9396    9396       0    9398    9399
    9399       0    9401    9402    9402       0    9404    9405    9405       0
    9407    9408    9408       0    9410    9411    9411       0    9413    9414
    9414       0    9416    9417    9417       0    9419    9420    9420       0
    9422    9423    9423       0    9425    9426    9426       0    9428    9429
    9429       0    9431    9432    9432       0    9434    9435    9435       0
    9437    9438    9438       0    9440    9441    9441       0    9443    9444
    9444       0    9446    9447    9447       0    9449    9450    9450       0
    9452    9453    9453       0    9455    9456    9456       0    9458    9459
    9459       0    9461    9462    9462       0    9464    9465    9465       0
    9467    9468    9468       0    9470    9471    9471       0    9473    9474
    9474       0    9476    9477    9477       0    9479    9480    9480       0
    9482    9483    9483       0    9485    9486    9486       0    9488    9489
    9489       0    9491    9492    9492       0    9494    9495    9495       0
    9497    9498    9498       0    9500    9501    9501       0    9503    9504
    9504       0    9506    9507    9507       0    9509    9510    9510       0
    9512    9513    9513       0    9515    9516    9516       0    9518    9519
    9519       0    9521    9522    9522       0    9524    9525    9525       0
    9527    9528    9528       0    9530    9531    9531       0    9533    9534
    9534       0    9536    9537    9537       0    9539    9540    9540       0
    9542    9543    9543       0    9545    9546    9546       0    9548    9549
    9549       0    9551    9552    9552       0    9554    9555    9555       0
    9557    9558    9558       0    9560    9561    9561       0    9563    9564
    9564       0    9566    9567    9567       0    9569    9570    9570       0
    9572    9573    9573       0    9575    9576    9576       0    9578    9579
    9579       0    9581    9582    9582       0    9584    9585    9585       0
    9587    9588    9588       0    9590    9591    9591       0    9593    9594
    9594       0    9596    9597    9597       0    9599    9600    9600       0
    9602    9603    9603       0    9605    9606    9606       0    9608    9609
    9609       0    9611    9612    9612       0    9614    9615    9615       0
    9617    9618    9618       0    9620    9621    9621       0    9623    9624
    9624       0    9626    9627    9627       0    9629    9630    9630       0
    9632    9633    9633       0    9635    9636    9636       0    9638    9639
    9639       0    9641    9642    9642       0    9644    9645    9645       0
    9647    9648    9648       0    9650    9651    9651       0    9653    9654
    9654       0    9656    9657    9657       0    9659    9660    9660       0
    9662    9663    9663       0    9665    9666    9666       0    9668    9669
    9669       0    9671    9672    9672       0    9674    9675    9675       0
    9677    9678    9678       0    9680    9681    9681       0    9683    9684
    9684       0    9686    9687    9687       0    9689    9690    9690       0
    9692    9693    9693       0    9695    9696    9696       0    9698    9699
    9699       0    9701    9702    9702       0    9704    9705    9705       0
    9707    9708    9708       0    9710    9711    9711       0    9713    9714
    9714       0    9716    9717    9717       0    9719    9720    9720       0
    9722    9723    9723       0    9725    9726    9726       0    9728    9729
    9729       0    9731    9732    9732       0    9734    9735    9735       0
    9737    9738    9738       0    9740    9741    9741       0    9743    9744
    9744       0    9746    9747    9747       0    9749    9750    9750       0
    9752    9753    9753       0    9755    9756    9756       0    9758    9759
    9759       0    9761    9762    9762       0    9764    9765    9765       0
    9767    9768    9768       0    9770    9771    9771       0    9773    9774
    9774       0    9776    9777    9777       0    9779    9780    9780       0
    9782    9783    9783       0    9785    9786    9786       0    9788    9789
    9789       0    9791    9792    9792       0    9794    9795    9795       0
    9797    9798    9798       0    9800    9801    9801       0    9803    9804
    9804       0    9806    9807    9807       0    9809    9810    9810       0
    9812    9813    9813       0    9815    9816    9816       0    9818    9819
    9819       0    9821    9822    9822       0    9824    9825    9825       0
    9827    9828    9828       0    9830    9831    9831       0    9833    9834
    9834       0    9836    9837    9837       0    9839    9840    9840       0
    9842    9843    9843       0    9845    9846    9846       0    9848    9849
    9849       0    9851    9852    9852       0    9854    9855    9855       0
    9857    9858    9858       0    9860    9861    9861       0    9863    9864
    9864       0    9866    9867    9867       0    9869    9870    9870       0
    9872    9873    9873       0    9875    9876    9876       0    9878    9879
    9879       0    9881    9882    9882       0    9884    9885    9885       0
    9887    9888    9888       0    9890    9891    9891       0    9893    9894
    9894       0    9896    9897    9897       0    9899    9900    9900       0
    9902    9903    9903       0    9905    9906    9906       0    9908    9909
    9909       0    9911    9912    9912       0    9914    9915    9915       0
    9917    9918    9918       0    9920    9921    9921       0    9923    9924
    9924       0    9926    9927    9927       0    9929    9930    9930       0
    9932    9933    9933       0    9935    9936    9936       0    9938    9939
    9939       0    9941    9942    9942       0    9944    9945    9945       0
    9947    9948    9948       0    9950    9951    9951       0    9953    9954
    9954       0    9956    9957    9957       0    9959    9960    9960       0
    9962    9963    9963       0    9965    9966    9966       0    9968    9969
    9969       0    9971    9972    9972       0    9974    9975    9975       0
    9977    9978    9978       0    9980    9981    9981       0    9983    9984
    9984       0    9986    9987    9987       0    9989    9990    9990       0
    9992    9993    9993       0    9995    9996    9996       0    9998    9999
    9999       0   10001   10002   10002       0   10004   10005   10005       0
   10007   10008   10008       0   10010   10011   10011       0   10013   10014
   10014       0   10016   10017   10017       0   10019   10020   10020       0
   10022   10023   10023       0   10025   10026   10026       0   10028   10029
   10029       0   10031   10032   10032       0   10034   10035   10035       0
   10037   10038   10038       0   10040   10041   10041       0   10043   10044
   10044       0   10046   10047   10047       0   10049   10050   10050       0
   10052   10053   10053       0   10055   10056   10056       0   10058   10059
   10059       0   10061   10062   10062       0   10064   10065   10065       0
   10067   10068   10068       0   10070   10071   10071       0   10073   10074
   10074       0   10076   10077   10077       0   10079   10080   10080       0
   10082   10083   10083       0   10085   10086   10086       0   10088   10089
   10089       0   10091   10092   10092       0   10094   10095   10095       0
   10097   10098   10098       0   10100   10101   10101       0   10103   10104
   10104       0   10106   10107   10107       0   10109   10110   10110       0
   10112   10113   10113       0   10115   10116   10116       0   10118   10119
   10119       0   10121   10122   10122       0   10124   10125   10125       0
   10127   10128   10128       0   10130   10131   10131       0   10133   10134
   10134       0   10136   10137   10137       0   10139   10140   10140       0
   10142   10143   10143       0   10145   10146   10146       0   10148   10149
   10149       0   10151   10152   10152       0   10154   10155   10155       0
   10157   10158   10158       0   10160   10161   10161       0   10163   10164
   10164       0   10166   10167   10167       0   10169   10170   10170       0
   10172   10173   10173       0   10175   10176   10176       0   10178   10179
   10179       0   10181   10182   10182       0   10184   10185   10185       0
   10187   10188   10188       0   10190   10191   10191       0   10193   10194
   10194       0   10196   10197   10197       0   10199   10200   10200       0
   10202   10203   10203       0   10205   10206   10206       0   10208   10209
   10209       0   10211   10212   10212       0   10214   10215   10215       0
   10217   10218   10218       0   10220   10221   10221       0   10223   10224
   10224       0   10226   10227   10227       0   10229   10230   10230       0
   10232   10233   10233       0   10235   10236   10236       0   10238   10239
   10239       0   10241   10242   10242       0   10244   10245   10245       0
   10247   10248   10248       0   10250   10251   10251       0   10253   10254
   10254       0   10256   10257   10257       0   10259   10260   10260       0
   10262   10263   10263       0   10265   10266   10266       0   10268   10269
   10269       0   10271   10272   10272       0   10274   10275   10275       0
   10277   10278   10278       0   10280   10281   10281       0   10283   10284
   10284       0   10286   10287   10287       0   10289   10290   10290       0
   10292   10293   10293       0   10295   10296   10296       0   10298   10299
   10299       0   10301   10302   10302       0   10304   10305   10305       0
   10307   10308   10308       0   10310   10311   10311       0   10313   10314
   10314       0   10316   10317   10317       0   10319   10320   10320       0
   10322   10323   10323       0   10325   10326   10326       0   10328   10329
   10329       0   10331   10332   10332       0   10334   10335   10335       0
   10337   10338   10338       0   10340   10341   10341       0   10343   10344
   10344       0   10346   10347   10347       0   10349   10350   10350       0
   10352   10353   10353       0   10355   10356   10356       0   10358   10359
   10359       0   10361   10362   10362       0   10364   10365   10365       0
   10367   10368   10368       0   10370   10371   10371       0   10373   10374
   10374       0   10376   10377   10377       0   10379   10380   10380       0
   10382   10383   10383       0   10385   10386   10386       0   10388   10389
   10389       0   10391   10392   10392       0   10394   10395   10395       0
   10397   10398   10398       0   10400   10401   10401       0   10403   10404
   10404       0   10406   10407   10407       0   10409   10410   10410       0
   10412   10413   10413       0   10415   10416   10416       0   10418   10419
   10419       0   10421   10422   10422       0   10424   10425   10425       0
   10427   10428   10428       0   10430   10431   10431       0   10433   10434
   10434       0   10436   10437   10437       0   10439   10440   10440       0
   10442   10443   10443       0   10445   10446   10446       0   10448   10449
   10449       0   10451   10452   10452       0   10454   10455   10455       0
   10457   10458   10458       0   10460   10461   10461       0   10463   10464
   10464       0   10466   10467   10467       0   10469   10470   10470       0
   10472   10473   10473       0   10475   10476   10476       0   10478   10479
   10479       0   10481   10482   10482       0   10484   10485   10485       0
   10487   10488   10488       0   10490   10491   10491       0   10493   10494
   10494       0   10496   10497   10497       0   10499   10500   10500       0
   10502   10503   10503       0   10505   10506   10506       0   10508   10509
   10509       0   10511   10512   10512       0   10514   10515   10515       0
   10517   10518   10518       0   10520   10521   10521       0   10523   10524
   10524       0   10526   10527   10527       0   10529   10530   10530       0
   10532   10533   10533       0   10535   10536   10536       0   10538   10539
   10539       0   10541   10542   10542       0   10544   10545   10545       0
   10547   10548   10548       0   10550   10551   10551       0   10553   10554
   10554       0   10556   10557   10557       0   10559   10560   10560       0
   10562   10563   10563       0   10565   10566   10566       0   10568   10569
   10569       0   10571   10572   10572       0   10574   10575   10575       0
   10577   10578   10578       0   10580   10581   10581       0   10583   10584
   10584       0   10586   10587   10587       0   10589   10590   10590       0
   10592   10593   10593       0   10595   10596   10596       0   10598   10599
   10599       0   10601   10602   10602       0   10604   10605   10605       0
   10607   10608   10608       0   10610   10611   10611       0   10613   10614
   10614       0   10616   10617   10617       0   10619   10620   10620       0
   10622   10623   10623       0   10625   10626   10626       0   10628   10629
   10629       0   10631   10632   10632       0   10634   10635   10635       0
   10637   10638   10638       0   10640   10641   10641       0   10643   10644
   10644       0   10646   10647   10647       0   10649   10650   10650       0
   10652   10653   10653       0   10655   10656   10656       0   10658   10659
   10659       0   10661   10662   10662       0   10664   10665   10665       0
   10667   10668   10668       0   10670   10671   10671       0   10673   10674
   10674       0   10676   10677   10677       0   10679   10680   10680       0
   10682   10683   10683       0   10685   10686   10686       0   10688   10689
   10689       0   10691   10692   10692       0   10694   10695   10695       0
   10697   10698   10698       0   10700   10701   10701       0   10703   10704
   10704       0   10706   10707   10707       0   10709   10710   10710       0
   10712   10713   10713       0   10715   10716   10716       0   10718   10719
   10719       0   10721   10722   10722       0   10724   10725   10725       0
   10727   10728   10728       0   10730   10731   10731       0   10733   10734
   10734       0   10736   10737   10737       0   10739   10740   10740       0
   10742   10743   10743       0   10745   10746   10746       0   10748   10749
   10749       0   10751   10752   10752       0   10754   10755   10755       0
   10757   10758   10758       0   10760   10761   10761       0   10763   10764
   10764       0   10766   10767   10767       0   10769   10770   10770       0
   10772   10773   10773       0   10775   10776   10776       0   10778   10779
   10779       0   10781   10782   10782       0   10784   10785   10785       0
   10787   10788   10788       0   10790   10791   10791       0   10793   10794
   10794       0   10796   10797   10797       0   10799   10800   10800       0
   10802   10803   10803       0   10805   10806   10806       0   10808   10809
   10809       0   10811   10812   10812       0   10814   10815   10815       0
   10817   10818   10818       0   10820   10821   10821       0   10823   10824
   10824       0   10826   10827   10827       0   10829   10830   10830       0
   10832   10833   10833       0   10835   10836   10836       0   10838   10839
   10839       0   10841   10842   10842       0   10844   10845   10845       0
   10847   10848   10848       0   10850   10851   10851       0   10853   10854
   10854       0   10856   10857   10857       0   10859   10860   10860       0
   10862   10863   10863       0   10865   10866   10866       0   10868   10869
   10869       0   10871   10872   10872       0   10874   10875   10875       0
   10877   10878   10878       0   10880   10881   10881       0   10883   10884
   10884       0   10886   10887   10887       0   10889   10890   10890       0
   10892   10893   10893       0   10895   10896   10896       0   10898   10899
   10899       0   10901   10902   10902       0   10904   10905   10905       0
   10907   10908   10908       0   10910   10911   10911       0   10913   10914
   10914       0   10916   10917   10917       0   10919   10920   10920       0
   10922   10923   10923       0   10925   10926   10926       0   10928   10929
   10929       0   10931   10932   10932       0   10934   10935   10935       0
   10937   10938   10938       0   10940   10941   10941       0   10943   10944
   10944       0   10946   10947   10947       0   10949   10950   10950       0
   10952   10953   10953       0   10955   10956   10956       0   10958   10959
   10959       0   10961   10962   10962       0   10964   10965   10965       0
   10967   10968   10968       0   10970   10971   10971       0   10973   10974
   10974       0   10976   10977   10977       0   10979   10980   10980       0
   10982   10983   10983       0   10985   10986   10986       0   10988   10989
   10989       0   10991   10992   10992       0   10994   10995   10995       0
   10997   10998   10998       0   11000   11001   11001       0   11003   11004
   11004       0   11006   11007   11007       0   11009   11010   11010       0
   11012   11013   11013       0   11015   11016   11016       0   11018   11019
   11019       0   11021   11022   11022       0   11024   11025   11025       0
   11027   11028   11028       0   11030   11031   11031       0   11033   11034
   11034       0   11036   11037   11037       0   11039   11040   11040       0
   11042   11043   11043       0   11045   11046   11046       0   11048   11049
   11049       0   11051   11052   11052       0   11054   11055   11055       0
   11057   11058   11058       0   11060   11061   11061       0   11063   11064
   11064       0   11066   11067   11067       0   11069   11070   11070       0
   11072   11073   11073       0   11075   11076   11076       0   11078   11079
   11079       0   11081   11082   11082       0   11084   11085   11085       0
   11087   11088   11088       0   11090   11091   11091       0   11093   11094
   11094       0   11096   11097   11097       0   11099   11100   11100       0
   11102   11103   11103       0   11105   11106   11106       0   11108   11109
   11109       0   11111   11112   11112       0   11114   11115   11115       0
   11117   11118   11118       0   11120   11121   11121       0   11123   11124
   11124       0   11126   11127   11127       0   11129   11130   11130       0
   11132   11133   11133       0   11135   11136   11136       0   11138   11139
   11139       0   11141   11142   11142       0   11144   11145   11145       0
   11147   11148   11148       0   11150   11151   11151       0   11153   11154
   11154       0   11156   11157   11157       0   11159   11160   11160       0
   11162   11163   11163       0   11165   11166   11166       0   11168   11169
   11169       0   11171   11172   11172       0   11174   11175   11175       0
   11177   11178   11178       0   11180   11181   11181       0   11183   11184
   11184       0   11186   11187   11187       0   11189   11190   11190       0
   11192   11193   11193       0   11195   11196   11196       0   11198   11199
   11199       0   11201   11202   11202       0   11204   11205   11205       0
   11207   11208   11208       0   11210   11211   11211       0   11213   11214
   11214       0   11216   11217   11217       0   11219   11220   11220       0
   11222   11223   11223       0   11225   11226   11226       0   11228   11229
   11229       0   11231   11232   11232       0   11234   11235   11235       0
   11237   11238   11238       0   11240   11241   11241       0   11243   11244
   11244       0   11246   11247   11247       0   11249   11250   11250       0
   11252   11253   11253       0   11255   11256   11256       0   11258   11259
   11259       0   11261   11262   11262       0   11264   11265   11265       0
   11267   11268   11268       0   11270   11271   11271       0   11273   11274
   11274       0   11276   11277   11277       0   11279   11280   11280       0
   11282   11283   11283       0   11285   11286   11286       0   11288   11289
   11289       0   11291   11292   11292       0   11294   11295   11295       0
   11297   11298   11298       0   11300   11301   11301       0   11303   11304
   11304       0   11306   11307   11307       0   11309   11310   11310       0
   11312   11313   11313       0   11315   11316   11316       0   11318   11319
   11319       0   11321   11322   11322       0   11324   11325   11325       0
   11327   11328   11328       0   11330   11331   11331       0   11333   11334
   11334       0   11336   11337   11337       0   11339   11340   11340       0
   11342   11343   11343       0   11345   11346   11346       0   11348   11349
   11349       0   11351   11352   11352       0   11354   11355   11355       0
   11357   11358   11358       0   11360   11361   11361       0   11363   11364
   11364       0   11366   11367   11367       0   11369   11370   11370       0
   11372   11373   11373       0   11375   11376   11376       0   11378   11379
   11379       0   11381   11382   11382       0   11384   11385   11385       0
   11387   11388   11388       0   11390   11391   11391       0   11393   11394
   11394       0   11396   11397   11397       0   11399   11400   11400       0
   11402   11403   11403       0   11405   11406   11406       0   11408   11409
   11409       0   11411   11412   11412       0   11414   11415   11415       0
   11417   11418   11418       0   11420   11421   11421       0   11423   11424
   11424       0   11426   11427   11427       0   11429   11430   11430       0
   11432   11433   11433       0   11435   11436   11436       0   11438   11439
   11439       0   11441   11442   11442       0   11444   11445   11445       0
   11447   11448   11448       0   11450   11451   11451       0   11453   11454
   11454       0   11456   11457   11457       0   11459   11460   11460       0
   11462   11463   11463       0   11465   11466   11466       0   11468   11469
   11469       0   11471   11472   11472       0   11474   11475   11475       0
   11477   11478   11478       0   11480   11481   11481       0   11483   11484
   11484       0   11486   11487   11487       0   11489   11490   11490       0
   11492   11493   11493       0   11495   11496   11496       0   11498   11499
   11499       0   11501   11502   11502       0   11504   11505   11505       0
   11507   11508   11508       0   11510   11511   11511       0   11513   11514
   11514       0   11516   11517   11517       0   11519   11520   11520       0
   11522   11523   11523       0   11525   11526   11526       0   11528   11529
   11529       0   11531   11532   11532       0   11534   11535   11535       0
   11537   11538   11538       0   11540   11541   11541       0   11543   11544
   11544       0   11546   11547   11547       0   11549   11550   11550       0
   11552   11553   11553       0   11555   11556   11556       0   11558   11559
   11559       0   11561   11562   11562       0   11564   11565   11565       0
   11567   11568   11568       0   11570   11571   11571       0   11573   11574
   11574       0   11576   11577   11577       0   11579   11580   11580       0
   11582   11583   11583       0   11585   11586   11586       0   11588   11589
   11589       0   11591   11592   11592       0   11594   11595   11595       0
   11597   11598   11598       0   11600   11601   11601       0   11603   11604
   11604       0   11606   11607   11607       0   11609   11610   11610       0
   11612   11613   11613       0   11615   11616   11616       0   11618   11619
   11619       0   11621   11622   11622       0   11624   11625   11625       0
   11627   11628   11628       0   11630   11631   11631       0   11633   11634
   11634       0   11636   11637   11637       0   11639   11640   11640       0
   11642   11643   11643       0   11645   11646   11646       0   11648   11649
   11649       0   11651   11652   11652       0   11654   11655   11655       0
   11657   11658   11658       0   11660   11661   11661       0   11663   11664
   11664       0   11666   11667   11667       0   11669   11670   11670       0
   11672   11673   11673       0   11675   11676   11676       0   11678   11679
   11679       0   11681   11682   11682       0   11684   11685   11685       0
   11687   11688   11688       0   11690   11691   11691       0   11693   11694
   11694       0   11696   11697   11697       0   11699   11700   11700       0
   11702   11703   11703       0   11705   11706   11706       0   11708   11709
   11709       0   11711   11712   11712       0   11714   11715   11715       0
   11717   11718   11718       0   11720   11721   11721       0   11723   11724
   11724       0   11726   11727   11727       0   11729   11730   11730       0
   11732   11733   11733       0   11735   11736   11736       0   11738   11739
   11739       0   11741   11742   11742       0   11744   11745   11745       0
   11747   11748   11748       0   11750   11751   11751       0   11753   11754
   11754       0   11756   11757   11757       0   11759   11760   11760       0
   11762   11763   11763       0   11765   11766   11766       0   11768   11769
   11769       0   11771   11772   11772       0   11774   11775   11775       0
   11777   11778   11778       0   11780   11781   11781       0   11783   11784
   11784       0   11786   11787   11787       0   11789   11790   11790       0
   11792   11793   11793       0   11795   11796   11796       0   11798   11799
   11799       0   11801   11802   11802       0   11804   11805   11805       0
   11807   11808   11808       0   11810   11811   11811       0   11813   11814
   11814       0   11816   11817   11817       0   11819   11820   11820       0
   11822   11823   11823       0   11825   11826   11826       0   11828   11829
   11829       0   11831   11832   11832       0   11834   11835   11835       0
   11837   11838   11838       0   11840   11841   11841       0   11843   11844
   11844       0   11846   11847   11847       0   11849   11850   11850       0
   11852   11853   11853       0   11855   11856   11856       0   11858   11859
   11859       0   11861   11862   11862       0   11864   11865   11865       0
   11867   11868   11868       0   11870   11871   11871       0   11873   11874
   11874       0   11876   11877   11877       0   11879   11880   11880       0
   11882   11883   11883       0   11885   11886   11886       0   11888   11889
   11889       0   11891   11892   11892       0   11894   11895   11895       0
   11897   11898   11898       0   11900   11901   11901       0   11903   11904
   11904       0   11906   11907   11907       0   11909   11910   11910       0
   11912   11913   11913       0   11915   11916   11916       0   11918   11919
   11919       0   11921   11922   11922       0   11924   11925   11925       0
   11927   11928   11928       0   11930   11931   11931       0   11933   11934
   11934       0   11936   11937   11937       0   11939   11940   11940       0
   11942   11943   11943       0   11945   11946   11946       0   11948   11949
   11949       0   11951   11952   11952       0   11954   11955   11955       0
   11957   11958   11958       0   11960   11961   11961       0   11963   11964
   11964       0   11966   11967   11967       0   11969   11970   11970       0
   11972   11973   11973       0   11975   11976   11976       0   11978   11979
   11979       0   11981   11982   11982       0   11984   11985   11985       0
   11987   11988   11988       0   11990   11991   11991       0   11993   11994
   11994       0   11996   11997   11997       0   11999   12000   12000       0
   12002   12003   12003       0   12005   12006   12006       0   12008   12009
   12009       0   12011   12012   12012       0   12014   12015   12015       0
   12017   12018   12018       0   12020   12021   12021       0   12023   12024
   12024       0   12026   12027   12027       0   12029   12030   12030       0
   12032   12033   12033       0   12035   12036   12036       0   12038   12039
   12039       0   12041   12042   12042       0   12044   12045   12045       0
   12047   12048   12048       0   12050   12051   12051       0   12053   12054
   12054       0   12056   12057   12057       0   12059   12060   12060       0
   12062   12063   12063       0   12065   12066   12066       0   12068   12069
   12069       0   12071   12072   12072       0   12074   12075   12075       0
   12077   12078   12078       0   12080   12081   12081       0   12083   12084
   12084       0   12086   12087   12087       0   12089   12090   12090       0
   12092   12093   12093       0   12095   12096   12096       0   12098   12099
   12099       0   12101   12102   12102       0   12104   12105   12105       0
   12107   12108   12108       0   12110   12111   12111       0   12113   12114
   12114       0   12116   12117   12117       0   12119   12120   12120       0
   12122   12123   12123       0   12125   12126   12126       0   12128   12129
   12129       0   12131   12132   12132       0   12134   12135   12135       0
   12137   12138   12138       0   12140   12141   12141       0   12143   12144
   12144       0   12146   12147   12147       0   12149   12150   12150       0
   12152   12153   12153       0   12155   12156   12156       0   12158   12159
   12159       0   12161   12162   12162       0   12164   12165   12165       0
   12167   12168   12168       0   12170   12171   12171       0   12173   12174
   12174       0   12176   12177   12177       0   12179   12180   12180       0
   12182   12183   12183       0   12185   12186   12186       0   12188   12189
   12189       0   12191   12192   12192       0   12194   12195   12195       0
   12197   12198   12198       0   12200   12201   12201       0   12203   12204
   12204       0   12206   12207   12207       0   12209   12210   12210       0
   12212   12213   12213       0   12215   12216   12216       0   12218   12219
   12219       0   12221   12222   12222       0   12224   12225   12225       0
   12227   12228   12228       0   12230   12231   12231       0   12233   12234
   12234       0   12236   12237   12237       0   12239   12240   12240       0
   12242   12243   12243       0   12245   12246   12246       0   12248   12249
   12249       0   12251   12252   12252       0   12254   12255   12255       0
   12257   12258   12258       0   12260   12261   12261       0   12263   12264
   12264       0   12266   12267   12267       0   12269   12270   12270       0
   12272   12273   12273       0   12275   12276   12276       0   12278   12279
   12279       0   12281   12282   12282       0   12284   12285   12285       0
   12287   12288   12288       0   12290   12291   12291       0   12293   12294
   12294       0   12296   12297   12297       0   12299   12300   12300       0
   12302   12303   12303       0   12305   12306   12306       0   12308   12309
   12309       0   12311   12312   12312       0   12314   12315   12315       0
   12317   12318   12318       0   12320   12321   12321       0   12323   12324
   12324       0   12326   12327   12327       0   12329   12330   12330       0
   12332   12333   12333       0   12335   12336   12336       0   12338   12339
   12339       0   12341   12342   12342       0   12344   12345   12345       0
   12347   12348   12348       0   12350   12351   12351       0   12353   12354
   12354       0   12356   12357   12357       0   12359   12360   12360       0
   12362   12363   12363       0   12365   12366   12366       0   12368   12369
   12369       0   12371   12372   12372       0   12374   12375   12375       0
   12377   12378   12378       0   12380   12381   12381       0   12383   12384
   12384       0   12386   12387   12387       0   12389   12390   12390       0
   12392   12393   12393       0   12395   12396   12396       0   12398   12399
   12399       0   12401   12402   12402       0   12404   12405   12405       0
   12407   12408   12408       0   12410   12411   12411       0   12413   12414
   12414       0   12416   12417   12417       0   12419   12420   12420       0
   12422   12423   12423       0   12425   12426   12426       0   12428   12429
   12429       0   12431   12432   12432       0   12434   12435   12435       0
   12437   12438   12438       0   12440   12441   12441       0   12443   12444
   12444       0   12446   12447   12447       0   12449   12450   12450       0
   12452   12453   12453       0   12455   12456   12456       0   12458   12459
   12459       0   12461   12462   12462       0   12464   12465   12465       0
   12467   12468   12468       0   12470   12471   12471       0   12473   12474
   12474       0   12476   12477   12477       0   12479   12480   12480       0
   12482   12483   12483       0   12485   12486   12486       0   12488   12489
   12489       0   12491   12492   12492       0   12494   12495   12495       0
   12497   12498   12498       0   12500   12501   12501       0   12503   12504
   12504       0   12506   12507   12507       0   12509   12510   12510       0
   12512   12513   12513       0   12515   12516   12516       0   12518   12519
   12519       0   12521   12522   12522       0   12524   12525   12525       0
   12527   12528   12528       0   12530   12531   12531       0   12533   12534
   12534       0   12536   12537   12537       0   12539   12540   12540       0
   12542   12543   12543       0   12545   12546   12546       0   12548   12549
   12549       0   12551   12552   12552       0   12554   12555   12555       0
   12557   12558   12558       0   12560   12561   12561       0   12563   12564
   12564       0   12566   12567   12567       0   12569   12570   12570       0
   12572   12573   12573       0   12575   12576   12576       0   12578   12579
   12579       0   12581   12582   12582       0   12584   12585   12585       0
   12587   12588   12588       0   12590   12591   12591       0   12593   12594
   12594       0   12596   12597   12597       0   12599   12600   12600       0
   12602   12603   12603       0   12605   12606   12606       0   12608   12609
   12609       0   12611   12612   12612       0   12614   12615   12615       0
   12617   12618   12618       0   12620   12621   12621       0   12623   12624
   12624       0   12626   12627   12627       0   12629   12630   12630       0
   12632   12633   12633       0   12635   12636   12636       0   12638   12639
   12639       0   12641   12642   12642       0   12644   12645   12645       0
   12647   12648   12648       0   12650   12651   12651       0   12653   12654
   12654       0   12656   12657   12657       0   12659   12660   12660       0
   12662   12663   12663       0   12665   12666   12666       0   12668   12669
   12669       0   12671   12672   12672       0   12674   12675   12675       0
   12677   12678   12678       0   12680   12681   12681       0   12683   12684
   12684       0   12686   12687   12687       0   12689   12690   12690       0
   12692   12693   12693       0   12695   12696   12696       0   12698   12699
   12699       0   12701   12702   12702       0   12704   12705   12705       0
   12707   12708   12708       0   12710   12711   12711       0   12713   12714
   12714       0   12716   12717   12717       0   12719   12720   12720       0
   12722   12723   12723       0   12725   12726   12726       0   12728   12729
   12729       0   12731   12732   12732       0   12734   12735   12735       0
   12737   12738   12738       0   12740   12741   12741       0   12743   12744
   12744       0   12746   12747   12747       0   12749   12750   12750       0
   12752   12753   12753       0   12755   12756   12756       0   12758   12759
   12759       0   12761   12762   12762       0   12764   12765   12765       0
   12767   12768   12768       0   12770   12771   12771       0   12773   12774
   12774       0   12776   12777   12777       0   12779   12780   12780       0
   12782   12783   12783       0   12785   12786   12786       0   12788   12789
   12789       0   12791   12792   12792       0   12794   12795   12795       0
   12797   12798   12798       0   12800   12801   12801       0   12803   12804
   12804       0   12806   12807   12807       0   12809   12810   12810       0
   12812   12813   12813       0   12815   12816   12816       0   12818   12819
   12819       0   12821   12822   12822       0   12824   12825   12825       0
   12827   12828   12828       0   12830   12831   12831       0   12833   12834
   12834       0   12836   12837   12837       0   12839   12840   12840       0
   12842   12843   12843       0   12845   12846   12846       0   12848   12849
   12849       0   12851   12852   12852       0   12854   12855   12855       0
   12857   12858   12858       0   12860   12861   12861       0   12863   12864
   12864       0   12866   12867   12867       0   12869   12870   12870       0
   12872   12873   12873       0   12875   12876   12876       0   12878   12879
   12879       0   12881   12882   12882       0   12884   12885   12885       0
   12887   12888   12888       0   12890   12891   12891       0   12893   12894
   12894       0   12896   12897   12897       0   12899   12900   12900       0
   12902   12903   12903       0   12905   12906   12906       0   12908   12909
   12909       0   12911   12912   12912       0   12914   12915   12915       0
   12917   12918   12918       0   12920   12921   12921       0   12923   12924
   12924       0   12926   12927   12927       0   12929   12930   12930       0
   12932   12933   12933       0   12935   12936   12936       0   12938   12939
   12939       0   12941   12942   12942       0   12944   12945   12945       0
   12947   12948   12948       0   12950   12951   12951       0   12953   12954
   12954       0   12956   12957   12957       0   12959   12960   12960       0
   12962   12963   12963       0   12965   12966   12966       0   12968   12969
   12969       0   12971   12972   12972       0   12974   12975   12975       0
   12977   12978   12978       0   12980   12981   12981       0   12983   12984
   12984       0   12986   12987   12987       0   12989   12990   12990       0
   12992   12993   12993       0   12995   12996   12996       0   12998   12999
   12999       0   13001   13002   13002       0   13004   13005   13005       0
   13007   13008   13008       0   13010   13011   13011       0   13013   13014
   13014       0   13016   13017   13017       0   13019   13020   13020       0
   13022   13023   13023       0   13025   13026   13026       0   13028   13029
   13029       0   13031   13032   13032       0   13034   13035   13035       0
   13037   13038   13038       0   13040   13041   13041       0   13043   13044
   13044       0   13046   13047   13047       0   13049   13050   13050       0
   13052   13053   13053       0   13055   13056   13056       0   13058   13059
   13059       0   13061   13062   13062       0   13064   13065   13065       0
   13067   13068   13068       0   13070   13071   13071       0   13073   13074
   13074       0   13076   13077   13077       0   13079   13080   13080       0
   13082   13083   13083       0   13085   13086   13086       0   13088   13089
   13089       0   13091   13092   13092       0   13094   13095   13095       0
   13097   13098   13098       0   13100   13101   13101       0   13103   13104
   13104       0   13106   13107   13107       0   13109   13110   13110       0
   13112   13113   13113       0   13115   13116   13116       0   13118   13119
   13119       0   13121   13122   13122       0   13124   13125   13125       0
   13127   13128   13128       0   13130   13131   13131       0   13133   13134
   13134       0   13136   13137   13137       0   13139   13140   13140       0
   13142   13143   13143       0   13145   13146   13146       0   13148   13149
   13149       0   13151   13152   13152       0   13154   13155   13155       0
   13157   13158   13158       0   13160   13161   13161       0   13163   13164
   13164       0   13166   13167   13167       0   13169   13170   13170       0
   13172   13173   13173       0   13175   13176   13176       0   13178   13179
   13179       0   13181   13182   13182       0   13184   13185   13185       0
   13187   13188   13188       0   13190   13191   13191       0   13193   13194
   13194       0   13196   13197   13197       0   13199   13200   13200       0
   13202   13203   13203       0   13205   13206   13206       0   13208   13209
   13209       0   13211   13212   13212       0   13214   13215   13215       0
   13217   13218   13218       0   13220   13221   13221       0   13223   13224
   13224       0   13226   13227   13227       0   13229   13230   13230       0
   13232   13233   13233       0   13235   13236   13236       0   13238   13239
   13239       0   13241   13242   13242       0   13244   13245   13245       0
   13247   13248   13248       0   13250   13251   13251       0   13253   13254
   13254       0   13256   13257   13257       0   13259   13260   13260       0
   13262   13263   13263       0   13265   13266   13266       0   13268   13269
   13269       0   13271   13272   13272       0   13274   13275   13275       0
   13277   13278   13278       0   13280   13281   13281       0   13283   13284
   13284       0   13286   13287   13287       0   13289   13290   13290       0
   13292   13293   13293       0   13295   13296   13296       0   13298   13299
   13299       0   13301   13302   13302       0   13304   13305   13305       0
   13307   13308   13308       0   13310   13311   13311       0   13313   13314
   13314       0   13316   13317   13317       0   13319   13320   13320       0
   13322   13323   13323       0   13325   13326   13326       0   13328   13329
   13329       0   13331   13332   13332       0   13334   13335   13335       0
   13337   13338   13338       0   13340   13341   13341       0   13343   13344
   13344       0   13346   13347   13347       0   13349   13350   13350       0
   13352   13353   13353       0   13355   13356   13356       0   13358   13359
   13359       0   13361   13362   13362       0   13364   13365   13365       0
   13367   13368   13368       0   13370   13371   13371       0   13373   13374
   13374       0   13376   13377   13377       0   13379   13380   13380       0
   13382   13383   13383       0   13385   13386   13386       0   13388   13389
   13389       0   13391   13392   13392       0   13394   13395   13395       0
   13397   13398   13398       0   13400   13401   13401       0   13403   13404
   13404       0   13406   13407   13407       0   13409   13410   13410       0
   13412   13413   13413       0   13415   13416   13416       0   13418   13419
   13419       0   13421   13422   13422       0   13424   13425   13425       0
   13427   13428   13428       0   13430   13431   13431       0   13433   13434
   13434       0   13436   13437   13437       0   13439   13440   13440       0
   13442   13443   13443       0   13445   13446   13446       0   13448   13449
   13449       0   13451   13452   13452       0   13454   13455   13455       0
   13457   13458   13458       0   13460   13461   13461       0   13463   13464
   13464       0   13466   13467   13467       0   13469   13470   13470       0
   13472   13473   13473       0   13475   13476   13476       0   13478   13479
   13479       0   13481   13482   13482       0   13484   13485   13485       0
   13487   13488   13488       0   13490   13491   13491       0   13493   13494
   13494       0   13496   13497   13497       0   13499   13500   13500       0
   13502   13503   13503       0   13505   13506   13506       0   13508   13509
   13509       0   13511   13512   13512       0   13514   13515   13515       0
   13517   13518   13518       0   13520   13521   13521       0   13523   13524
   13524       0   13526   13527   13527       0   13529   13530   13530       0
   13532   13533   13533       0   13535   13536   13536       0   13538   13539
   13539       0   13541   13542   13542       0   13544   13545   13545       0
   13547   13548   13548       0   13550   13551   13551       0   13553   13554
   13554       0   13556   13557   13557       0   13559   13560   13560       0
   13562   13563   13563       0   13565   13566   13566       0   13568   13569
   13569       0   13571   13572   13572       0   13574   13575   13575       0
   13577   13578   13578       0   13580   13581   13581       0   13583   13584
   13584       0   13586   13587   13587       0   13589   13590   13590       0
   13592   13593   13593       0   13595   13596   13596       0   13598   13599
   13599       0   13601   13602   13602       0   13604   13605   13605       0
   13607   13608   13608       0   13610   13611   13611       0   13613   13614
   13614       0   13616   13617   13617       0   13619   13620   13620       0
   13622   13623   13623       0   13625   13626   13626       0   13628   13629
   13629       0   13631   13632   13632       0   13634   13635   13635       0
   13637   13638   13638       0   13640   13641   13641       0   13643   13644
   13644       0   13646   13647   13647       0   13649   13650   13650       0
   13652   13653   13653       0   13655   13656   13656       0   13658   13659
   13659       0   13661   13662   13662       0   13664   13665   13665       0
   13667   13668   13668       0   13670   13671   13671       0   13673   13674
   13674       0   13676   13677   13677       0   13679   13680   13680       0
   13682   13683   13683       0   13685   13686   13686       0   13688   13689
   13689       0   13691   13692   13692       0   13694   13695   13695       0
   13697   13698   13698       0   13700   13701   13701       0   13703   13704
   13704       0   13706   13707   13707       0   13709   13710   13710       0
   13712   13713   13713       0   13715   13716   13716       0   13718   13719
   13719       0   13721   13722   13722       0   13724   13725   13725       0
   13727   13728   13728       0   13730   13731   13731       0   13733   13734
   13734       0   13736   13737   13737       0   13739   13740   13740       0
   13742   13743   13743       0   13745   13746   13746       0   13748   13749
   13749       0   13751   13752   13752       0   13754   13755   13755       0
   13757   13758   13758       0   13760   13761   13761       0   13763   13764
   13764       0   13766   13767   13767       0   13769   13770   13770       0
   13772   13773   13773       0   13775   13776   13776       0   13778   13779
   13779       0   13781   13782   13782       0   13784   13785   13785       0
   13787   13788   13788       0   13790   13791   13791       0   13793   13794
   13794       0   13796   13797   13797       0   13799   13800   13800       0
   13802   13803   13803       0   13805   13806   13806       0   13808   13809
   13809       0   13811   13812   13812       0   13814   13815   13815       0
   13817   13818   13818       0   13820   13821   13821       0   13823   13824
   13824       0   13826   13827   13827       0   13829   13830   13830       0
   13832   13833   13833       0   13835   13836   13836       0   13838   13839
   13839       0   13841   13842   13842       0   13844   13845   13845       0
   13847   13848   13848       0   13850   13851   13851       0   13853   13854
   13854       0   13856   13857   13857       0   13859   13860   13860       0
   13862   13863   13863       0   13865   13866   13866       0   13868   13869
   13869       0   13871   13872   13872       0   13874   13875   13875       0
   13877   13878   13878       0   13880   13881   13881       0   13883   13884
   13884       0   13886   13887   13887       0   13889   13890   13890       0
   13892   13893   13893       0   13895   13896   13896       0   13898   13899
   13899       0   13901   13902   13902       0   13904   13905   13905       0
   13907   13908   13908       0   13910   13911   13911       0   13913   13914
   13914       0   13916   13917   13917       0   13919   13920   13920       0
   13922   13923   13923       0   13925   13926   13926       0   13928   13929
   13929       0   13931   13932   13932       0   13934   13935   13935       0
   13937   13938   13938       0   13940   13941   13941       0   13943   13944
   13944       0   13946   13947   13947       0   13949   13950   13950       0
   13952   13953   13953       0   13955   13956   13956       0   13958   13959
   13959       0   13961   13962   13962       0   13964   13965   13965       0
   13967   13968   13968       0   13970   13971   13971       0   13973   13974
   13974       0   13976   13977   13977       0   13979   13980   13980       0
   13982   13983   13983       0   13985   13986   13986       0   13988   13989
   13989       0   13991   13992   13992       0   13994   13995   13995       0
   13997   13998   13998       0   14000   14001   14001       0   14003   14004
   14004       0   14006   14007   14007       0   14009   14010   14010       0
   14012   14013   14013       0   14015   14016   14016       0   14018   14019
   14019       0   14021   14022   14022       0   14024   14025   14025       0
   14027   14028   14028       0   14030   14031   14031       0   14033   14034
   14034       0   14036   14037   14037       0   14039   14040   14040       0
   14042   14043   14043       0   14045   14046   14046       0   14048   14049
   14049       0   14051   14052   14052       0   14054   14055   14055       0
   14057   14058   14058       0   14060   14061   14061       0   14063   14064
   14064       0   14066   14067   14067       0   14069   14070   14070       0
   14072   14073   14073       0   14075   14076   14076       0   14078   14079
   14079       0   14081   14082   14082       0   14084   14085   14085       0
   14087   14088   14088       0   14090   14091   14091       0   14093   14094
   14094       0   14096   14097   14097       0   14099   14100   14100       0
   14102   14103   14103       0   14105   14106   14106       0   14108   14109
   14109       0   14111   14112   14112       0   14114   14115   14115       0
   14117   14118   14118       0   14120   14121   14121       0   14123   14124
   14124       0   14126   14127   14127       0   14129   14130   14130       0
   14132   14133   14133       0   14135   14136   14136       0   14138   14139
   14139       0   14141   14142   14142       0   14144   14145   14145       0
   14147   14148   14148       0   14150   14151   14151       0   14153   14154
   14154       0   14156   14157   14157       0   14159   14160   14160       0
   14162   14163   14163       0   14165   14166   14166       0   14168   14169
   14169       0   14171   14172   14172       0   14174   14175   14175       0
   14177   14178   14178       0   14180   14181   14181       0   14183   14184
   14184       0   14186   14187   14187       0   14189   14190   14190       0
   14192   14193   14193       0   14195   14196   14196       0   14198   14199
   14199       0   14201   14202   14202       0   14204   14205   14205       0
   14207   14208   14208       0   14210   14211   14211       0   14213   14214
   14214       0   14216   14217   14217       0   14219   14220   14220       0
   14222   14223   14223       0   14225   14226   14226       0   14228   14229
   14229       0   14231   14232   14232       0   14234   14235   14235       0
   14237   14238   14238       0   14240   14241   14241       0   14243   14244
   14244       0   14246   14247   14247       0   14249   14250   14250       0
   14252   14253   14253       0   14255   14256   14256       0   14258   14259
   14259       0   14261   14262   14262       0   14264   14265   14265       0
   14267   14268   14268       0   14270   14271   14271       0   14273   14274
   14274       0   14276   14277   14277       0   14279   14280   14280       0
   14282   14283   14283       0   14285   14286   14286       0   14288   14289
   14289       0   14291   14292   14292       0   14294   14295   14295       0
   14297   14298   14298       0   14300   14301   14301       0   14303   14304
   14304       0   14306   14307   14307       0   14309   14310   14310       0
   14312   14313   14313       0   14315   14316   14316       0   14318   14319
   14319       0   14321   14322   14322       0   14324   14325   14325       0
   14327   14328   14328       0   14330   14331   14331       0   14333   14334
   14334       0   14336   14337   14337       0   14339   14340   14340       0
   14342   14343   14343       0   14345   14346   14346       0   14348   14349
   14349       0   14351   14352   14352       0   14354   14355   14355       0
   14357   14358   14358       0   14360   14361   14361       0   14363   14364
   14364       0   14366   14367   14367       0   14369   14370   14370       0
   14372   14373   14373       0   14375   14376   14376       0   14378   14379
   14379       0   14381   14382   14382       0   14384   14385   14385       0
   14387   14388   14388       0   14390   14391   14391       0   14393   14394
   14394       0   14396   14397   14397       0   14399   14400   14400       0
   14402   14403   14403       0   14405   14406   14406       0   14408   14409
   14409       0   14411   14412   14412       0   14414   14415   14415       0
   14417   14418   14418       0   14420   14421   14421       0   14423   14424
   14424       0   14426   14427   14427       0   14429   14430   14430       0
   14432   14433   14433       0   14435   14436   14436       0   14438   14439
   14439       0   14441   14442   14442       0   14444   14445   14445       0
   14447   14448   14448       0   14450   14451   14451       0   14453   14454
   14454       0   14456   14457   14457       0   14459   14460   14460       0
   14462   14463   14463       0   14465   14466   14466       0   14468   14469
   14469       0   14471   14472   14472       0   14474   14475   14475       0
   14477   14478   14478       0   14480   14481   14481       0   14483   14484
   14484       0   14486   14487   14487       0   14489   14490   14490       0
   14492   14493   14493       0   14495   14496   14496       0   14498   14499
   14499       0   14501   14502   14502       0   14504   14505   14505       0
   14507   14508   14508       0   14510   14511   14511       0   14513   14514
   14514       0   14516   14517   14517       0   14519   14520   14520       0
   14522   14523   14523       0   14525   14526   14526       0   14528   14529
   14529       0   14531   14532   14532       0   14534   14535   14535       0
   14537   14538   14538       0   14540   14541   14541       0   14543   14544
   14544       0   14546   14547   14547       0   14549   14550   14550       0
   14552   14553   14553       0   14555   14556   14556       0   14558   14559
   14559       0   14561   14562   14562       0   14564   14565   14565       0
   14567   14568   14568       0   14570   14571   14571       0   14573   14574
   14574       0   14576   14577   14577       0   14579   14580   14580       0
   14582   14583   14583       0   14585   14586   14586       0   14588   14589
   14589       0   14591   14592   14592       0   14594   14595   14595       0
   14597   14598   14598       0   14600   14601   14601       0   14603   14604
   14604       0   14606   14607   14607       0   14609   14610   14610       0
   14612   14613   14613       0   14615   14616   14616       0   14618   14619
   14619       0   14621   14622   14622       0   14624   14625   14625       0
   14627   14628   14628       0   14630   14631   14631       0   14633   14634
   14634       0   14636   14637   14637       0   14639   14640   14640       0
   14642   14643   14643       0   14645   14646   14646       0   14648   14649
   14649       0   14651   14652   14652       0   14654   14655   14655       0
   14657   14658   14658       0   14660   14661   14661       0   14663   14664
   14664       0   14666   14667   14667       0   14669   14670   14670       0
   14672   14673   14673       0   14675   14676   14676       0   14678   14679
   14679       0   14681   14682   14682       0   14684   14685   14685       0
   14687   14688   14688       0   14690   14691   14691       0   14693   14694
   14694       0   14696   14697   14697       0   14699   14700   14700       0
   14702   14703   14703       0   14705   14706   14706       0   14708   14709
   14709       0   14711   14712   14712       0   14714   14715   14715       0
   14717   14718   14718       0   14720   14721   14721       0   14723   14724
   14724       0   14726   14727   14727       0   14729   14730   14730       0
   14732   14733   14733       0   14735   14736   14736       0   14738   14739
   14739       0   14741   14742   14742       0   14744   14745   14745       0
   14747   14748   14748       0   14750   14751   14751       0   14753   14754
   14754       0   14756   14757   14757       0   14759   14760   14760       0
   14762   14763   14763       0   14765   14766   14766       0   14768   14769
   14769       0   14771   14772   14772       0   14774   14775   14775       0
   14777   14778   14778       0   14780   14781   14781       0   14783   14784
   14784       0   14786   14787   14787       0   14789   14790   14790       0
   14792   14793   14793       0   14795   14796   14796       0   14798   14799
   14799       0   14801   14802   14802       0   14804   14805   14805       0
   14807   14808   14808       0   14810   14811   14811       0   14813   14814
   14814       0   14816   14817   14817       0   14819   14820   14820       0
   14822   14823   14823       0   14825   14826   14826       0   14828   14829
   14829       0   14831   14832   14832       0   14834   14835   14835       0
   14837   14838   14838       0   14840   14841   14841       0   14843   14844
   14844       0   14846   14847   14847       0   14849   14850   14850       0
   14852   14853   14853       0   14855   14856   14856       0   14858   14859
   14859       0   14861   14862   14862       0   14864   14865   14865       0
   14867   14868   14868       0   14870   14871   14871       0   14873   14874
   14874       0   14876   14877   14877       0   14879   14880   14880       0
   14882   14883   14883       0   14885   14886   14886       0   14888   14889
   14889       0   14891   14892   14892       0   14894   14895   14895       0
   14897   14898   14898       0   14900   14901   14901       0   14903   14904
   14904       0   14906   14907   14907       0   14909   14910   14910       0
   14912   14913   14913       0   14915   14916   14916       0   14918   14919
   14919       0   14921   14922   14922       0   14924   14925   14925       0
   14927   14928   14928       0   14930   14931   14931       0   14933   14934
   14934       0   14936   14937   14937       0   14939   14940   14940       0
   14942   14943   14943       0   14945   14946   14946       0   14948   14949
   14949       0   14951   14952   14952       0   14954   14955   14955       0
   14957   14958   14958       0   14960   14961   14961       0   14963   14964
   14964       0   14966   14967   14967       0   14969   14970   14970       0
   14972   14973   14973       0   14975   14976   14976       0   14978   14979
   14979       0   14981   14982   14982       0   14984   14985   14985       0
   14987   14988   14988       0   14990   14991   14991       0   14993   14994
   14994       0   14996   14997   14997       0   14999   15000   15000       0
   15002   15003   15003       0   15005   15006   15006       0   15008   15009
   15009       0   15011   15012   15012       0   15014   15015   15015       0
   15017   15018   15018       0   15020   15021   15021       0   15023   15024
   15024       0   15026   15027   15027       0   15029   15030   15030       0
   15032   15033   15033       0   15035   15036   15036       0   15038   15039
   15039       0   15041   15042   15042       0   15044   15045   15045       0
   15047   15048   15048       0   15050   15051   15051       0   15053   15054
   15054       0   15056   15057   15057       0   15059   15060   15060       0
   15062   15063   15063       0   15065   15066   15066       0   15068   15069
   15069       0   15071   15072   15072       0   15074   15075   15075       0
   15077   15078   15078       0   15080   15081   15081       0   15083   15084
   15084       0   15086   15087   15087       0   15089   15090   15090       0
   15092   15093   15093       0   15095   15096   15096       0   15098   15099
   15099       0   15101   15102   15102       0   15104   15105   15105       0
   15107   15108   15108       0   15110   15111   15111       0   15113   15114
   15114       0   15116   15117   15117       0   15119   15120   15120       0
   15122   15123   15123       0   15125   15126   15126       0   15128   15129
   15129       0   15131   15132   15132       0   15134   15135   15135       0
   15137   15138   15138       0   15140   15141   15141       0   15143   15144
   15144       0   15146   15147   15147       0   15149   15150   15150       0
   15152   15153   15153       0   15155   15156   15156       0   15158   15159
   15159       0   15161   15162   15162       0   15164   15165   15165       0
   15167   15168   15168       0   15170   15171   15171       0   15173   15174
   15174       0   15176   15177   15177       0   15179   15180   15180       0
   15182   15183   15183       0   15185   15186   15186       0   15188   15189
   15189       0   15191   15192   15192       0   15194   15195   15195       0
   15197   15198   15198       0   15200   15201   15201       0   15203   15204
   15204       0   15206   15207   15207       0   15209   15210   15210       0
   15212   15213   15213       0   15215   15216   15216       0   15218   15219
   15219       0   15221   15222   15222       0   15224   15225   15225       0
   15227   15228   15228       0   15230   15231   15231       0   15233   15234
   15234       0   15236   15237   15237       0   15239   15240   15240       0
   15242   15243   15243       0   15245   15246   15246       0   15248   15249
   15249       0   15251   15252   15252       0   15254   15255   15255       0
   15257   15258   15258       0   15260   15261   15261       0   15263   15264
   15264       0   15266   15267   15267       0   15269   15270   15270       0
   15272   15273   15273       0   15275   15276   15276       0   15278   15279
   15279       0   15281   15282   15282       0   15284   15285   15285       0
   15287   15288   15288       0   15290   15291   15291       0   15293   15294
   15294       0   15296   15297   15297       0   15299   15300   15300       0
   15302   15303   15303       0   15305   15306   15306       0   15308   15309
   15309       0   15311   15312   15312       0   15314   15315   15315       0
   15317   15318   15318       0   15320   15321   15321       0   15323   15324
   15324       0   15326   15327   15327       0   15329   15330   15330       0
   15332   15333   15333       0   15335   15336   15336       0   15338   15339
   15339       0   15341   15342   15342       0   15344   15345   15345       0
   15347   15348   15348       0   15350   15351   15351       0   15353   15354
   15354       0   15356   15357   15357       0   15359   15360   15360       0
   15362   15363   15363       0   15365   15366   15366       0   15368   15369
   15369       0   15371   15372   15372       0   15374   15375   15375       0
   15377   15378   15378       0   15380   15381   15381       0   15383   15384
   15384       0   15386   15387   15387       0   15389   15390   15390       0
   15392   15393   15393       0   15395   15396   15396       0   15398   15399
   15399       0   15401   15402   15402       0   15404   15405   15405       0
   15407   15408   15408       0   15410   15411   15411       0   15413   15414
   15414       0   15416   15417   15417       0   15419   15420   15420       0
   15422   15423   15423       0   15425   15426   15426       0   15428   15429
   15429       0   15431   15432   15432       0   15434   15435   15435       0
   15437   15438   15438       0   15440   15441   15441       0   15443   15444
   15444       0   15446   15447   15447       0   15449   15450   15450       0
   15452   15453   15453       0   15455   15456   15456       0   15458   15459
   15459       0   15461   15462   15462       0   15464   15465   15465       0
   15467   15468   15468       0   15470   15471   15471       0   15473   15474
   15474       0   15476   15477   15477       0   15479   15480   15480       0
   15482   15483   15483       0   15485   15486   15486       0   15488   15489
   15489       0   15491   15492   15492       0   15494   15495   15495       0
   15497   15498   15498       0   15500   15501   15501       0   15503   15504
   15504       0   15506   15507   15507       0   15509   15510   15510       0
   15512   15513   15513       0   15515   15516   15516       0   15518   15519
   15519       0   15521   15522   15522       0   15524   15525   15525       0
   15527   15528   15528       0   15530   15531   15531       0   15533   15534
   15534       0   15536   15537   15537       0   15539   15540   15540       0
   15542   15543   15543       0   15545   15546   15546       0   15548   15549
   15549       0   15551   15552   15552       0   15554   15555   15555       0
   15557   15558   15558       0   15560   15561   15561       0   15563   15564
   15564       0   15566   15567   15567       0   15569   15570   15570       0
   15572   15573   15573       0   15575   15576   15576       0   15578   15579
   15579       0   15581   15582   15582       0   15584   15585   15585       0
   15587   15588   15588       0   15590   15591   15591       0   15593   15594
   15594       0   15596   15597   15597       0   15599   15600   15600       0
   15602   15603   15603       0   15605   15606   15606       0   15608   15609
   15609       0   15611   15612   15612       0   15614   15615   15615       0
   15617   15618   15618       0   15620   15621   15621       0   15623   15624
   15624       0   15626   15627   15627       0   15629   15630   15630       0
   15632   15633   15633       0   15635   15636   15636       0   15638   15639
   15639       0   15641   15642   15642       0   15644   15645   15645       0
   15647   15648   15648       0   15650   15651   15651       0   15653   15654
   15654       0   15656   15657   15657       0   15659   15660   15660       0
   15662   15663   15663       0   15665   15666   15666       0   15668   15669
   15669       0   15671   15672   15672       0   15674   15675   15675       0
   15677   15678   15678       0   15680   15681   15681       0   15683   15684
   15684       0   15686   15687   15687       0   15689   15690   15690       0
   15692   15693   15693       0   15695   15696   15696       0   15698   15699
   15699       0   15701   15702   15702       0   15704   15705   15705       0
   15707   15708   15708       0   15710   15711   15711       0   15713   15714
   15714       0   15716   15717   15717       0   15719   15720   15720       0
   15722   15723   15723       0   15725   15726   15726       0   15728   15729
   15729       0   15731   15732   15732       0   15734   15735   15735       0
   15737   15738   15738       0   15740   15741   15741       0   15743   15744
   15744       0   15746   15747   15747       0   15749   15750   15750       0
   15752   15753   15753       0   15755   15756   15756       0   15758   15759
   15759       0   15761   15762   15762       0   15764   15765   15765       0
   15767   15768   15768       0   15770   15771   15771       0   15773   15774
   15774       0   15776   15777   15777       0   15779   15780   15780       0
   15782   15783   15783       0   15785   15786   15786       0   15788   15789
   15789       0   15791   15792   15792       0   15794   15795   15795       0
   15797   15798   15798       0   15800   15801   15801       0   15803   15804
   15804       0   15806   15807   15807       0   15809   15810   15810       0
   15812   15813   15813       0   15815   15816   15816       0   15818   15819
   15819       0   15821   15822   15822       0   15824   15825   15825       0
   15827   15828   15828       0   15830   15831   15831       0   15833   15834
   15834       0   15836   15837   15837       0   15839   15840   15840       0
   15842   15843   15843       0   15845   15846   15846       0   15848   15849
   15849       0   15851   15852   15852       0   15854   15855   15855       0
   15857   15858   15858       0   15860   15861   15861       0   15863   15864
   15864       0   15866   15867   15867       0   15869   15870   15870       0
   15872   15873   15873       0   15875   15876   15876       0   15878   15879
   15879       0   15881   15882   15882       0   15884   15885   15885       0
   15887   15888   15888       0   15890   15891   15891       0   15893   15894
   15894       0   15896   15897   15897       0   15899   15900   15900       0
   15902   15903   15903       0   15905   15906   15906       0   15908   15909
   15909       0   15911   15912   15912       0   15914   15915   15915       0
   15917   15918   15918       0   15920   15921   15921       0   15923   15924
   15924       0   15926   15927   15927       0   15929   15930   15930       0
   15932   15933   15933       0   15935   15936   15936       0   15938   15939
   15939       0   15941   15942   15942       0   15944   15945   15945       0
   15947   15948   15948       0   15950   15951   15951       0   15953   15954
   15954       0   15956   15957   15957       0   15959   15960   15960       0
   15962   15963   15963       0   15965   15966   15966       0   15968   15969
   15969       0   15971   15972   15972       0   15974   15975   15975       0
   15977   15978   15978       0   15980   15981   15981       0   15983   15984
   15984       0   15986   15987   15987       0   15989   15990   15990       0
   15992   15993   15993       0   15995   15996   15996       0   15998   15999
   15999       0   16001   16002   16002       0   16004   16005   16005       0
   16007   16008   16008       0   16010   16011   16011       0   16013   16014
   16014       0   16016   16017   16017       0   16019   16020   16020       0
   16022   16023   16023       0   16025   16026   16026       0   16028   16029
   16029       0   16031   16032   16032       0   16034   16035   16035       0
   16037   16038   16038       0   16040   16041   16041       0   16043   16044
   16044       0   16046   16047   16047       0   16049   16050   16050       0
   16052   16053   16053       0   16055   16056   16056       0   16058   16059
   16059       0   16061   16062   16062       0   16064   16065   16065       0
   16067   16068   16068       0   16070   16071   16071       0   16073   16074
   16074       0   16076   16077   16077       0   16079   16080   16080       0
   16082   16083   16083       0   16085   16086   16086       0   16088   16089
   16089       0   16091   16092   16092       0   16094   16095   16095       0
   16097   16098   16098       0   16100   16101   16101       0   16103   16104
   16104       0   16106   16107   16107       0   16109   16110   16110       0
   16112   16113   16113       0   16115   16116   16116       0   16118   16119
   16119       0   16121   16122   16122       0   16124   16125   16125       0
   16127   16128   16128       0   16130   16131   16131       0   16133   16134
   16134       0   16136   16137   16137       0   16139   16140   16140       0
   16142   16143   16143       0   16145   16146   16146       0   16148   16149
   16149       0   16151   16152   16152       0   16154   16155   16155       0
   16157   16158   16158       0   16160   16161   16161       0   16163   16164
   16164       0   16166   16167   16167       0   16169   16170   16170       0
   16172   16173   16173       0   16175   16176   16176       0   16178   16179
   16179       0   16181   16182   16182       0   16184   16185   16185       0
   16187   16188   16188       0   16190   16191   16191       0   16193   16194
   16194       0   16196   16197   16197       0   16199   16200   16200       0
   16202   16203   16203       0   16205   16206   16206       0   16208   16209
   16209       0   16211   16212   16212       0   16214   16215   16215       0
   16217   16218   16218       0   16220   16221   16221       0   16223   16224
   16224       0   16226   16227   16227       0   16229   16230   16230       0
   16232   16233   16233       0   16235   16236   16236       0   16238   16239
   16239       0   16241   16242   16242       0   16244   16245   16245       0
   16247   16248   16248       0   16250   16251   16251       0   16253   16254
   16254       0   16256   16257   16257       0   16259   16260   16260       0
   16262   16263   16263       0   16265   16266   16266       0   16268   16269
   16269       0   16271   16272   16272       0   16274   16275   16275       0
   16277   16278   16278       0   16280   16281   16281       0   16283   16284
   16284       0   16286   16287   16287       0   16289   16290   16290       0
   16292   16293   16293       0   16295   16296   16296       0   16298   16299
   16299       0   16301   16302   16302       0   16304   16305   16305       0
   16307   16308   16308       0   16310   16311   16311       0   16313   16314
   16314       0   16316   16317   16317       0   16319   16320   16320       0
   16322   16323   16323       0   16325   16326   16326       0   16328   16329
   16329       0   16331   16332   16332       0   16334   16335   16335       0
   16337   16338   16338       0   16340   16341   16341       0   16343   16344
   16344       0   16346   16347   16347       0   16349   16350   16350       0
   16352   16353   16353       0   16355   16356   16356       0   16358   16359
   16359       0   16361   16362   16362       0   16364   16365   16365       0
   16367   16368   16368       0   16370   16371   16371       0   16373   16374
   16374       0   16376   16377   16377       0   16379   16380   16380       0
   16382   16383   16383       0   16385   16386   16386       0   16388   16389
   16389       0   16391   16392   16392       0   16394   16395   16395       0
   16397   16398   16398       0   16400   16401   16401       0   16403   16404
   16404       0   16406   16407   16407       0   16409   16410   16410       0
   16412   16413   16413       0   16415   16416   16416       0   16418   16419
   16419       0   16421   16422   16422       0   16424   16425   16425       0
   16427   16428   16428       0   16430   16431   16431       0   16433   16434
   16434       0   16436   16437   16437       0   16439   16440   16440       0
   16442   16443   16443       0   16445   16446   16446       0   16448   16449
   16449       0   16451   16452   16452       0   16454   16455   16455       0
   16457   16458   16458       0   16460   16461   16461       0   16463   16464
   16464       0   16466   16467   16467       0   16469   16470   16470       0
   16472   16473   16473       0   16475   16476   16476       0   16478   16479
   16479       0   16481   16482   16482       0   16484   16485   16485       0
   16487   16488   16488       0   16490   16491   16491       0   16493   16494
   16494       0   16496   16497   16497       0   16499   16500   16500       0
   16502   16503   16503       0   16505   16506   16506       0   16508   16509
   16509       0   16511   16512   16512       0   16514   16515   16515       0
   16517   16518   16518       0   16520   16521   16521       0   16523   16524
   16524       0   16526   16527   16527       0   16529   16530   16530       0
   16532   16533   16533       0   16535   16536   16536       0   16538   16539
   16539       0   16541   16542   16542       0   16544   16545   16545       0
   16547   16548   16548       0   16550   16551   16551       0   16553   16554
   16554       0   16556   16557   16557       0   16559   16560   16560       0
   16562   16563   16563       0   16565   16566   16566       0   16568   16569
   16569       0   16571   16572   16572       0   16574   16575   16575       0
   16577   16578   16578       0   16580   16581   16581       0   16583   16584
   16584       0   16586   16587   16587       0   16589   16590   16590       0
   16592   16593   16593       0   16595   16596   16596       0   16598   16599
   16599       0   16601   16602   16602       0   16604   16605   16605       0
   16607   16608   16608       0   16610   16611   16611       0   16613   16614
   16614       0   16616   16617   16617       0   16619   16620   16620       0
   16622   16623   16623       0   16625   16626   16626       0   16628   16629
   16629       0   16631   16632   16632       0   16634   16635   16635       0
   16637   16638   16638       0   16640   16641   16641       0   16643   16644
   16644       0   16646   16647   16647       0   16649   16650   16650       0
   16652   16653   16653       0   16655   16656   16656       0   16658   16659
   16659       0   16661   16662   16662       0   16664   16665   16665       0
   16667   16668   16668       0   16670   16671   16671       0   16673   16674
   16674       0   16676   16677   16677       0   16679   16680   16680       0
   16682   16683   16683       0   16685   16686   16686       0   16688   16689
   16689       0   16691   16692   16692       0   16694   16695   16695       0
   16697   16698   16698       0   16700   16701   16701       0   16703   16704
   16704       0   16706   16707   16707       0   16709   16710   16710       0
   16712   16713   16713       0   16715   16716   16716       0   16718   16719
   16719       0   16721   16722   16722       0   16724   16725   16725       0
   16727   16728   16728       0   16730   16731   16731       0   16733   16734
   16734       0   16736   16737   16737       0   16739   16740   16740       0
   16742   16743   16743       0   16745   16746   16746       0   16748   16749
   16749       0   16751   16752   16752       0   16754   16755   16755       0
   16757   16758   16758       0   16760   16761   16761       0   16763   16764
   16764       0   16766   16767   16767       0   16769   16770   16770       0
   16772   16773   16773       0   16775   16776   16776       0   16778   16779
   16779       0   16781   16782   16782       0   16784   16785   16785       0
   16787   16788   16788       0   16790   16791   16791       0   16793   16794
   16794       0   16796   16797   16797       0   16799   16800   16800       0
   16802   16803   16803       0   16805   16806   16806       0   16808   16809
   16809       0   16811   16812   16812       0   16814   16815   16815       0
   16817   16818   16818       0   16820   16821   16821       0   16823   16824
   16824       0   16826   16827   16827       0   16829   16830   16830       0
   16832   16833   16833       0   16835   16836   16836       0   16838   16839
   16839       0   16841   16842   16842       0   16844   16845   16845       0
   16847   16848   16848       0   16850   16851   16851       0   16853   16854
   16854       0   16856   16857   16857       0   16859   16860   16860       0
   16862   16863   16863       0   16865   16866   16866       0   16868   16869
   16869       0   16871   16872   16872       0   16874   16875   16875       0
   16877   16878   16878       0   16880   16881   16881       0   16883   16884
   16884       0   16886   16887   16887       0   16889   16890   16890       0
   16892   16893   16893       0   16895   16896   16896       0   16898   16899
   16899       0   16901   16902   16902       0   16904   16905   16905       0
   16907   16908   16908       0   16910   16911   16911       0   16913   16914
   16914       0   16916   16917   16917       0   16919   16920   16920       0
   16922   16923   16923       0   16925   16926   16926       0   16928   16929
   16929       0   16931   16932   16932       0   16934   16935   16935       0
   16937   16938   16938       0   16940   16941   16941       0   16943   16944
   16944       0   16946   16947   16947       0   16949   16950   16950       0
   16952   16953   16953       0   16955   16956   16956       0   16958   16959
   16959       0   16961   16962   16962       0   16964   16965   16965       0
   16967   16968   16968       0   16970   16971   16971       0   16973   16974
   16974       0   16976   16977   16977       0   16979   16980   16980       0
   16982   16983   16983       0   16985   16986   16986       0   16988   16989
   16989       0   16991   16992   16992       0   16994   16995   16995       0
   16997   16998   16998       0   17000   17001   17001       0   17003   17004
   17004       0   17006   17007   17007       0   17009   17010   17010       0
   17012   17013   17013       0   17015   17016   17016       0   17018   17019
   17019       0   17021   17022   17022       0   17024   17025   17025       0
   17027   17028   17028       0   17030   17031   17031       0   17033   17034
   17034       0   17036   17037   17037       0   17039   17040   17040       0
   17042   17043   17043       0   17045   17046   17046       0   17048   17049
   17049       0   17051   17052   17052       0   17054   17055   17055       0
   17057   17058   17058       0   17060   17061   17061       0   17063   17064
   17064       0   17066   17067   17067       0   17069   17070   17070       0
   17072   17073   17073       0   17075   17076   17076       0   17078   17079
   17079       0   17081   17082   17082       0   17084   17085   17085       0
   17087   17088   17088       0   17090   17091   17091       0   17093   17094
   17094       0   17096   17097   17097       0   17099   17100   17100       0
   17102   17103   17103       0   17105   17106   17106       0   17108   17109
   17109       0   17111   17112   17112       0   17114   17115   17115       0
   17117   17118   17118       0   17120   17121   17121       0   17123   17124
   17124       0   17126   17127   17127       0   17129   17130   17130       0
   17132   17133   17133       0   17135   17136   17136       0   17138   17139
   17139       0   17141   17142   17142       0   17144   17145   17145       0
   17147   17148   17148       0   17150   17151   17151       0   17153   17154
   17154       0   17156   17157   17157       0   17159   17160   17160       0
   17162   17163   17163       0   17165   17166   17166       0   17168   17169
   17169       0   17171   17172   17172       0   17174   17175   17175       0
   17177   17178   17178       0   17180   17181   17181       0   17183   17184
   17184       0   17186   17187   17187       0   17189   17190   17190       0
   17192   17193   17193       0   17195   17196   17196       0   17198   17199
   17199       0   17201   17202   17202       0   17204   17205   17205       0
   17207   17208   17208       0   17210   17211   17211       0   17213   17214
   17214       0   17216   17217   17217       0   17219   17220   17220       0
   17222   17223   17223       0   17225   17226   17226       0   17228   17229
   17229       0   17231   17232   17232       0   17234   17235   17235       0
   17237   17238   17238       0   17240   17241   17241       0   17243   17244
   17244       0   17246   17247   17247       0   17249   17250   17250       0
   17252   17253   17253       0   17255   17256   17256       0   17258   17259
   17259       0   17261   17262   17262       0   17264   17265   17265       0
   17267   17268   17268       0   17270   17271   17271       0   17273   17274
   17274       0   17276   17277   17277       0   17279   17280   17280       0
   17282   17283   17283       0   17285   17286   17286       0   17288   17289
   17289       0   17291   17292   17292       0   17294   17295   17295       0
   17297   17298   17298       0   17300   17301   17301       0   17303   17304
   17304       0   17306   17307   17307       0   17309   17310   17310       0
   17312   17313   17313       0   17315   17316   17316       0   17318   17319
   17319       0   17321   17322   17322       0   17324   17325   17325       0
   17327   17328   17328       0   17330   17331   17331       0   17333   17334
   17334       0   17336   17337   17337       0   17339   17340   17340       0
   17342   17343   17343       0   17345   17346   17346       0   17348   17349
   17349       0   17351   17352   17352       0   17354   17355   17355       0
   17357   17358   17358       0   17360   17361   17361       0   17363   17364
   17364       0   17366   17367   17367       0   17369   17370   17370       0
   17372   17373   17373       0   17375   17376   17376       0   17378   17379
   17379       0   17381   17382   17382       0   17384   17385   17385       0
   17387   17388   17388       0   17390   17391   17391       0   17393   17394
   17394       0   17396   17397   17397       0   17399   17400   17400       0
   17402   17403   17403       0   17405   17406   17406       0   17408   17409
   17409       0   17411   17412   17412       0   17414   17415   17415       0
   17417   17418   17418       0   17420   17421   17421       0   17423   17424
   17424       0   17426   17427   17427       0   17429   17430   17430       0
   17432   17433   17433       0   17435   17436   17436       0   17438   17439
   17439       0   17441   17442   17442       0   17444   17445   17445       0
   17447   17448   17448       0   17450   17451   17451       0   17453   17454
   17454       0   17456   17457   17457       0   17459   17460   17460       0
   17462   17463   17463       0   17465   17466   17466       0   17468   17469
   17469       0   17471   17472   17472       0   17474   17475   17475       0
   17477   17478   17478       0   17480   17481   17481       0   17483   17484
   17484       0   17486   17487   17487       0   17489   17490   17490       0
   17492   17493   17493       0   17495   17496   17496       0   17498   17499
   17499       0   17501   17502   17502       0   17504   17505   17505       0
   17507   17508   17508       0   17510   17511   17511       0   17513   17514
   17514       0   17516   17517   17517       0   17519   17520   17520       0
   17522   17523   17523       0   17525   17526   17526       0   17528   17529
   17529       0   17531   17532   17532       0   17534   17535   17535       0
   17537   17538   17538       0   17540   17541   17541       0   17543   17544
   17544       0   17546   17547   17547       0   17549   17550   17550       0
   17552   17553   17553       0   17555   17556   17556       0   17558   17559
   17559       0   17561   17562   17562       0   17564   17565   17565       0
   17567   17568   17568       0   17570   17571   17571       0   17573   17574
   17574       0   17576   17577   17577       0   17579   17580   17580       0
   17582   17583   17583       0   17585   17586   17586       0   17588   17589
   17589       0   17591   17592   17592       0   17594   17595   17595       0
   17597   17598   17598       0   17600   17601   17601       0   17603   17604
   17604       0   17606   17607   17607       0   17609   17610   17610       0
   17612   17613   17613       0   17615   17616   17616       0   17618   17619
   17619       0   17621   17622   17622       0   17624   17625   17625       0
   17627   17628   17628       0   17630   17631   17631       0   17633   17634
   17634       0   17636   17637   17637       0   17639   17640   17640       0
   17642   17643   17643       0   17645   17646   17646       0   17648   17649
   17649       0   17651   17652   17652       0   17654   17655   17655       0
   17657   17658   17658       0   17660   17661   17661       0   17663   17664
   17664       0   17666   17667   17667       0   17669   17670   17670       0
   17672   17673   17673       0   17675   17676   17676       0   17678   17679
   17679       0   17681   17682   17682       0   17684   17685   17685       0
   17687   17688   17688       0   17690   17691   17691       0   17693   17694
   17694       0   17696   17697   17697       0   17699   17700   17700       0
   17702   17703   17703       0   17705   17706   17706       0   17708   17709
   17709       0   17711   17712   17712       0   17714   17715   17715       0
   17717   17718   17718       0   17720   17721   17721       0   17723   17724
   17724       0   17726   17727   17727       0   17729   17730   17730       0
   17732   17733   17733       0   17735   17736   17736       0   17738   17739
   17739       0   17741   17742   17742       0   17744   17745   17745       0
   17747   17748   17748       0   17750   17751   17751       0   17753   17754
   17754       0   17756   17757   17757       0   17759   17760   17760       0
   17762   17763   17763       0   17765   17766   17766       0   17768   17769
   17769       0   17771   17772   17772       0   17774   17775   17775       0
   17777   17778   17778       0   17780   17781   17781       0   17783   17784
   17784       0   17786   17787   17787       0   17789   17790   17790       0
   17792   17793   17793       0   17795   17796   17796       0   17798   17799
   17799       0   17801   17802   17802       0   17804   17805   17805       0
   17807   17808   17808       0   17810   17811   17811       0   17813   17814
   17814       0   17816   17817   17817       0   17819   17820   17820       0
   17822   17823   17823       0   17825   17826   17826       0   17828   17829
   17829       0   17831   17832   17832       0   17834   17835   17835       0
   17837   17838   17838       0   17840   17841   17841       0   17843   17844
   17844       0   17846   17847   17847       0   17849   17850   17850       0
   17852   17853   17853       0   17855   17856   17856       0   17858   17859
   17859       0   17861   17862   17862       0   17864   17865   17865       0
   17867   17868   17868       0   17870   17871   17871       0   17873   17874
   17874       0   17876   17877   17877       0   17879   17880   17880       0
   17882   17883   17883       0   17885   17886   17886       0   17888   17889
   17889       0   17891   17892   17892       0   17894   17895   17895       0
   17897   17898   17898       0   17900   17901   17901       0   17903   17904
   17904       0   17906   17907   17907       0   17909   17910   17910       0
   17912   17913   17913       0   17915   17916   17916       0   17918   17919
   17919       0   17921   17922   17922       0   17924   17925   17925       0
   17927   17928   17928       0   17930   17931   17931       0   17933   17934
   17934       0   17936   17937   17937       0   17939   17940   17940       0
   17942   17943   17943       0   17945   17946   17946       0   17948   17949
   17949       0   17951   17952   17952       0   17954   17955   17955       0
   17957   17958   17958       0   17960   17961   17961       0   17963   17964
   17964       0   17966   17967   17967       0   17969   17970   17970       0
   17972   17973   17973       0   17975   17976   17976       0   17978   17979
   17979       0   17981   17982   17982       0   17984   17985   17985       0
   17987   17988   17988       0   17990   17991   17991       0   17993   17994
   17994       0   17996   17997   17997       0   17999   18000   18000       0
   18002   18003   18003       0   18005   18006   18006       0   18008   18009
   18009       0   18011   18012   18012       0   18014   18015   18015       0
   18017   18018   18018       0   18020   18021   18021       0   18023   18024
   18024       0   18026   18027   18027       0   18029   18030   18030       0
   18032   18033   18033       0   18035   18036   18036       0   18038   18039
   18039       0   18041   18042   18042       0   18044   18045   18045       0
   18047   18048   18048       0   18050   18051   18051       0   18053   18054
   18054       0   18056   18057   18057       0   18059   18060   18060       0
   18062   18063   18063       0   18065   18066   18066       0   18068   18069
   18069       0   18071   18072   18072       0   18074   18075   18075       0
   18077   18078   18078       0   18080   18081   18081       0   18083   18084
   18084       0   18086   18087   18087       0   18089   18090   18090       0
   18092   18093   18093       0   18095   18096   18096       0   18098   18099
   18099       0   18101   18102   18102       0   18104   18105   18105       0
   18107   18108   18108       0   18110   18111   18111       0   18113   18114
   18114       0   18116   18117   18117       0   18119   18120   18120       0
   18122   18123   18123       0   18125   18126   18126       0   18128   18129
   18129       0   18131   18132   18132       0   18134   18135   18135       0
   18137   18138   18138       0   18140   18141   18141       0   18143   18144
   18144       0   18146   18147   18147       0   18149   18150   18150       0
   18152   18153   18153       0   18155   18156   18156       0   18158   18159
   18159       0   18161   18162   18162       0   18164   18165   18165       0
   18167   18168   18168       0   18170   18171   18171       0   18173   18174
   18174       0   18176   18177   18177       0   18179   18180   18180       0
   18182   18183   18183       0   18185   18186   18186       0   18188   18189
   18189       0   18191   18192   18192       0   18194   18195   18195       0
   18197   18198   18198       0   18200   18201   18201       0   18203   18204
   18204       0   18206   18207   18207       0   18209   18210   18210       0
   18212   18213   18213       0   18215   18216   18216       0   18218   18219
   18219       0   18221   18222   18222       0   18224   18225   18225       0
   18227   18228   18228       0   18230   18231   18231       0   18233   18234
   18234       0   18236   18237   18237       0   18239   18240   18240       0
   18242   18243   18243       0   18245   18246   18246       0   18248   18249
   18249       0   18251   18252   18252       0   18254   18255   18255       0
   18257   18258   18258       0   18260   18261   18261       0   18263   18264
   18264       0   18266   18267   18267       0   18269   18270   18270       0
   18272   18273   18273       0   18275   18276   18276       0   18278   18279
   18279       0   18281   18282   18282       0   18284   18285   18285       0
   18287   18288   18288       0   18290   18291   18291       0   18293   18294
   18294       0   18296   18297   18297       0   18299   18300   18300       0
   18302   18303   18303       0   18305   18306   18306       0   18308   18309
   18309       0   18311   18312   18312       0   18314   18315   18315       0
   18317   18318   18318       0   18320   18321   18321       0   18323   18324
   18324       0   18326   18327   18327       0   18329   18330   18330       0
   18332   18333   18333       0   18335   18336   18336       0   18338   18339
   18339       0   18341   18342   18342       0   18344   18345   18345       0
   18347   18348   18348       0   18350   18351   18351       0   18353   18354
   18354       0   18356   18357   18357       0   18359   18360   18360       0
   18362   18363   18363       0   18365   18366   18366       0   18368   18369
   18369       0   18371   18372   18372       0   18374   18375   18375       0
   18377   18378   18378       0   18380   18381   18381       0   18383   18384
   18384       0   18386   18387   18387       0   18389   18390   18390       0
   18392   18393   18393       0   18395   18396   18396       0   18398   18399
   18399       0   18401   18402   18402       0   18404   18405   18405       0
   18407   18408   18408       0   18410   18411   18411       0   18413   18414
   18414       0   18416   18417   18417       0   18419   18420   18420       0
   18422   18423   18423       0   18425   18426   18426       0   18428   18429
   18429       0   18431   18432   18432       0   18434   18435   18435       0
   18437   18438   18438       0   18440   18441   18441       0   18443   18444
   18444       0   18446   18447   18447       0   18449   18450   18450       0
   18452   18453   18453       0   18455   18456   18456       0   18458   18459
   18459       0   18461   18462   18462       0   18464   18465   18465       0
   18467   18468   18468       0   18470   18471   18471       0   18473   18474
   18474       0   18476   18477   18477       0   18479   18480   18480       0
   18482   18483   18483       0   18485   18486   18486       0   18488   18489
   18489       0   18491   18492   18492       0   18494   18495   18495       0
   18497   18498   18498       0   18500   18501   18501       0   18503   18504
   18504       0   18506   18507   18507       0   18509   18510   18510       0
   18512   18513   18513       0   18515   18516   18516       0   18518   18519
   18519       0   18521   18522   18522       0   18524   18525   18525       0
   18527   18528   18528       0   18530   18531   18531       0   18533   18534
   18534       0   18536   18537   18537       0   18539   18540   18540       0
   18542   18543   18543       0   18545   18546   18546       0   18548   18549
   18549       0   18551   18552   18552       0   18554   18555   18555       0
   18557   18558   18558       0   18560   18561   18561       0   18563   18564
   18564       0   18566   18567   18567       0   18569   18570   18570       0
   18572   18573   18573       0   18575   18576   18576       0   18578   18579
   18579       0   18581   18582   18582       0   18584   18585   18585       0
   18587   18588   18588       0   18590   18591   18591       0   18593   18594
   18594       0   18596   18597   18597       0   18599   18600   18600       0
   18602   18603   18603       0   18605   18606   18606       0   18608   18609
   18609       0   18611   18612   18612       0   18614   18615   18615       0
   18617   18618   18618       0   18620   18621   18621       0   18623   18624
   18624       0   18626   18627   18627       0   18629   18630   18630       0
   18632   18633   18633       0   18635   18636   18636       0   18638   18639
   18639       0   18641   18642   18642       0   18644   18645   18645       0
   18647   18648   18648       0   18650   18651   18651       0   18653   18654
   18654       0   18656   18657   18657       0   18659   18660   18660       0
   18662   18663   18663       0   18665   18666   18666       0   18668   18669
   18669       0   18671   18672   18672       0   18674   18675   18675       0
   18677   18678   18678       0   18680   18681   18681       0   18683   18684
   18684       0   18686   18687   18687       0   18689   18690   18690       0
   18692   18693   18693       0   18695   18696   18696       0   18698   18699
   18699       0   18701   18702   18702       0   18704   18705   18705       0
   18707   18708   18708       0   18710   18711   18711       0   18713   18714
   18714       0   18716   18717   18717       0   18719   18720   18720       0
   18722   18723   18723       0   18725   18726   18726       0   18728   18729
   18729       0   18731   18732   18732       0   18734   18735   18735       0
   18737   18738   18738       0   18740   18741   18741       0   18743   18744
   18744       0   18746   18747   18747       0   18749   18750   18750       0
   18752   18753   18753       0   18755   18756   18756       0   18758   18759
   18759       0   18761   18762   18762       0   18764   18765   18765       0
   18767   18768   18768       0   18770   18771   18771       0   18773   18774
   18774       0   18776   18777   18777       0   18779   18780   18780       0
   18782   18783   18783       0   18785   18786   18786       0   18788   18789
   18789       0   18791   18792   18792       0   18794   18795   18795       0
   18797   18798   18798       0   18800   18801   18801       0   18803   18804
   18804       0   18806   18807   18807       0   18809   18810   18810       0
   18812   18813   18813       0   18815   18816   18816       0   18818   18819
   18819       0   18821   18822   18822       0   18824   18825   18825       0
   18827   18828   18828       0   18830   18831   18831       0   18833   18834
   18834       0   18836   18837   18837       0   18839   18840   18840       0
   18842   18843   18843       0   18845   18846   18846       0   18848   18849
   18849       0   18851   18852   18852       0   18854   18855   18855       0
   18857   18858   18858       0   18860   18861   18861       0   18863   18864
   18864       0   18866   18867   18867       0   18869   18870   18870       0
   18872   18873   18873       0   18875   18876   18876       0   18878   18879
   18879       0   18881   18882   18882       0   18884   18885   18885       0
   18887   18888   18888       0   18890   18891   18891       0   18893   18894
   18894       0   18896   18897   18897       0   18899   18900   18900       0
   18902   18903   18903       0   18905   18906   18906       0   18908   18909
   18909       0   18911   18912   18912       0   18914   18915   18915       0
   18917   18918   18918       0   18920   18921   18921       0   18923   18924
   18924       0   18926   18927   18927       0   18929   18930   18930       0
   18932   18933   18933       0   18935   18936   18936       0   18938   18939
   18939       0   18941   18942   18942       0   18944   18945   18945       0
   18947   18948   18948       0   18950   18951   18951       0   18953   18954
   18954       0   18956   18957   18957       0   18959   18960   18960       0
   18962   18963   18963       0   18965   18966   18966       0   18968   18969
   18969       0   18971   18972   18972       0   18974   18975   18975       0
   18977   18978   18978       0   18980   18981   18981       0   18983   18984
   18984       0   18986   18987   18987       0   18989   18990   18990       0
   18992   18993   18993       0   18995   18996   18996       0   18998   18999
   18999       0   19001   19002   19002       0   19004   19005   19005       0
   19007   19008   19008       0   19010   19011   19011       0   19013   19014
   19014       0   19016   19017   19017       0   19019   19020   19020       0
   19022   19023   19023       0   19025   19026   19026       0   19028   19029
   19029       0   19031   19032   19032       0   19034   19035   19035       0
   19037   19038   19038       0   19040   19041   19041       0   19043   19044
   19044       0   19046   19047   19047       0   19049   19050   19050       0
   19052   19053   19053       0   19055   19056   19056       0   19058   19059
   19059       0   19061   19062   19062       0   19064   19065   19065       0
   19067   19068   19068       0   19070   19071   19071       0   19073   19074
   19074       0   19076   19077   19077       0   19079   19080   19080       0
   19082   19083   19083       0   19085   19086   19086       0   19088   19089
   19089       0   19091   19092   19092       0   19094   19095   19095       0
   19097   19098   19098       0   19100   19101   19101       0   19103   19104
   19104       0   19106   19107   19107       0   19109   19110   19110       0
   19112   19113   19113       0   19115   19116   19116       0   19118   19119
   19119       0   19121   19122   19122       0   19124   19125   19125       0
   19127   19128   19128       0   19130   19131   19131       0   19133   19134
   19134       0   19136   19137   19137       0   19139   19140   19140       0
   19142   19143   19143       0   19145   19146   19146       0   19148   19149
   19149       0   19151   19152   19152       0   19154   19155   19155       0
   19157   19158   19158       0   19160   19161   19161       0   19163   19164
   19164       0   19166   19167   19167       0   19169   19170   19170       0
   19172   19173   19173       0   19175   19176   19176       0   19178   19179
   19179       0   19181   19182   19182       0   19184   19185   19185       0
   19187   19188   19188       0   19190   19191   19191       0   19193   19194
   19194       0   19196   19197   19197       0   19199   19200   19200       0
   19202   19203   19203       0   19205   19206   19206       0   19208   19209
   19209       0   19211   19212   19212       0   19214   19215   19215       0
   19217   19218   19218       0   19220   19221   19221       0   19223   19224
   19224       0   19226   19227   19227       0   19229   19230   19230       0
   19232   19233   19233       0   19235   19236   19236       0   19238   19239
   19239       0   19241   19242   19242       0   19244   19245   19245       0
   19247   19248   19248       0   19250   19251   19251       0   19253   19254
   19254       0   19256   19257   19257       0   19259   19260   19260       0
   19262   19263   19263       0   19265   19266   19266       0   19268   19269
   19269       0   19271   19272   19272       0   19274   19275   19275       0
   19277   19278   19278       0   19280   19281   19281       0   19283   19284
   19284       0   19286   19287   19287       0   19289   19290   19290       0
   19292   19293   19293       0   19295   19296   19296       0   19298   19299
   19299       0   19301   19302   19302       0   19304   19305   19305       0
   19307   19308   19308       0   19310   19311   19311       0   19313   19314
   19314       0   19316   19317   19317       0   19319   19320   19320       0
   19322   19323   19323       0   19325   19326   19326       0   19328   19329
   19329       0   19331   19332   19332       0   19334   19335   19335       0
   19337   19338   19338       0   19340   19341   19341       0   19343   19344
   19344       0   19346   19347   19347       0   19349   19350   19350       0
   19352   19353   19353       0   19355   19356   19356       0   19358   19359
   19359       0   19361   19362   19362       0   19364   19365   19365       0
   19367   19368   19368       0   19370   19371   19371       0   19373   19374
   19374       0   19376   19377   19377       0   19379   19380   19380       0
   19382   19383   19383       0   19385   19386   19386       0   19388   19389
   19389       0   19391   19392   19392       0   19394   19395   19395       0
   19397   19398   19398       0   19400   19401   19401       0   19403   19404
   19404       0   19406   19407   19407       0   19409   19410   19410       0
   19412   19413   19413       0   19415   19416   19416       0   19418   19419
   19419       0   19421   19422   19422       0   19424   19425   19425       0
   19427   19428   19428       0   19430   19431   19431       0   19433   19434
   19434       0   19436   19437   19437       0   19439   19440   19440       0
   19442   19443   19443       0   19445   19446   19446       0   19448   19449
   19449       0   19451   19452   19452       0   19454   19455   19455       0
   19457   19458   19458       0   19460   19461   19461       0   19463   19464
   19464       0   19466   19467   19467       0   19469   19470   19470       0
   19472   19473   19473       0   19475   19476   19476       0   19478   19479
   19479       0   19481   19482   19482       0   19484   19485   19485       0
   19487   19488   19488       0   19490   19491   19491       0   19493   19494
   19494       0   19496   19497   19497       0   19499   19500   19500       0
   19502   19503   19503       0   19505   19506   19506       0   19508   19509
   19509       0   19511   19512   19512       0   19514   19515   19515       0
   19517   19518   19518       0   19520   19521   19521       0   19523   19524
   19524       0   19526   19527   19527       0   19529   19530   19530       0
   19532   19533   19533       0   19535   19536   19536       0   19538   19539
   19539       0   19541   19542   19542       0   19544   19545   19545       0
   19547   19548   19548       0   19550   19551   19551       0   19553   19554
   19554       0   19556   19557   19557       0   19559   19560   19560       0
   19562   19563   19563       0   19565   19566   19566       0   19568   19569
   19569       0   19571   19572   19572       0   19574   19575   19575       0
   19577   19578   19578       0   19580   19581   19581       0   19583   19584
   19584       0   19586   19587   19587       0   19589   19590   19590       0
   19592   19593   19593       0   19595   19596   19596       0   19598   19599
   19599       0   19601   19602   19602       0   19604   19605   19605       0
   19607   19608   19608       0   19610   19611   19611       0   19613   19614
   19614       0   19616   19617   19617       0   19619   19620   19620       0
   19622   19623   19623       0   19625   19626   19626       0   19628   19629
   19629       0   19631   19632   19632       0   19634   19635   19635       0
   19637   19638   19638       0   19640   19641   19641       0   19643   19644
   19644       0   19646   19647   19647       0   19649   19650   19650       0
   19652   19653   19653       0   19655   19656   19656       0   19658   19659
   19659       0   19661   19662   19662       0   19664   19665   19665       0
   19667   19668   19668       0   19670   19671   19671       0   19673   19674
   19674       0   19676   19677   19677       0   19679   19680   19680       0
   19682   19683   19683       0   19685   19686   19686       0   19688   19689
   19689       0   19691   19692   19692       0   19694   19695   19695       0
   19697   19698   19698       0   19700   19701   19701       0   19703   19704
   19704       0   19706   19707   19707       0   19709   19710   19710       0
   19712   19713   19713       0   19715   19716   19716       0   19718   19719
   19719       0   19721   19722   19722       0   19724   19725   19725       0
   19727   19728   19728       0   19730   19731   19731       0   19733   19734
   19734       0   19736   19737   19737       0   19739   19740   19740       0
   19742   19743   19743       0   19745   19746   19746       0   19748   19749
   19749       0   19751   19752   19752       0   19754   19755   19755       0
   19757   19758   19758       0   19760   19761   19761       0   19763   19764
   19764       0   19766   19767   19767       0   19769   19770   19770       0
   19772   19773   19773       0   19775   19776   19776       0   19778   19779
   19779       0   19781   19782   19782       0   19784   19785   19785       0
   19787   19788   19788       0   19790   19791   19791       0   19793   19794
   19794       0   19796   19797   19797       0   19799   19800   19800       0
   19802   19803   19803       0   19805   19806   19806       0   19808   19809
   19809       0   19811   19812   19812       0   19814   19815   19815       0
   19817   19818   19818       0   19820   19821   19821       0   19823   19824
   19824       0   19826   19827   19827       0   19829   19830   19830       0
   19832   19833   19833       0   19835   19836   19836       0   19838   19839
   19839       0   19841   19842   19842       0   19844   19845   19845       0
   19847   19848   19848       0   19850   19851   19851       0   19853   19854
   19854       0   19856   19857   19857       0   19859   19860   19860       0
   19862   19863   19863       0   19865   19866   19866       0   19868   19869
   19869       0   19871   19872   19872       0   19874   19875   19875       0
   19877   19878   19878       0   19880   19881   19881       0   19883   19884
   19884       0   19886   19887   19887       0   19889   19890   19890       0
   19892   19893   19893       0   19895   19896   19896       0   19898   19899
   19899       0   19901   19902   19902       0   19904   19905   19905       0
   19907   19908   19908       0   19910   19911   19911       0   19913   19914
   19914       0   19916   19917   19917       0   19919   19920   19920       0
   19922   19923   19923       0   19925   19926   19926       0   19928   19929
   19929       0   19931   19932   19932       0   19934   19935   19935       0
   19937   19938   19938       0   19940   19941   19941       0   19943   19944
   19944       0   19946   19947   19947       0   19949   19950   19950       0
   19952   19953   19953       0   19955   19956   19956       0   19958   19959
   19959       0   19961   19962   19962       0   19964   19965   19965       0
   19967   19968   19968       0   19970   19971   19971       0   19973   19974
   19974       0   19976   19977   19977       0   19979   19980   19980       0
   19982   19983   19983       0   19985   19986   19986       0   19988   19989
   19989       0   19991   19992   19992       0   19994   19995   19995       0
   19997   19998   19998       0   20000   20001   20001       0   20003   20004
   20004       0   20006   20007   20007       0   20009   20010   20010       0
   20012   20013   20013       0   20015   20016   20016       0   20018   20019
   20019       0   20021   20022   20022       0   20024   20025   20025       0
   20027   20028   20028       0   20030   20031   20031       0   20033   20034
   20034       0   20036   20037   20037       0   20039   20040   20040       0
   20042   20043   20043       0   20045   20046   20046       0   20048   20049
   20049       0   20051   20052   20052       0   20054   20055   20055       0
   20057   20058   20058       0   20060   20061   20061       0   20063   20064
   20064       0   20066   20067   20067       0   20069   20070   20070       0
   20072   20073   20073       0   20075   20076   20076       0   20078   20079
   20079       0   20081   20082   20082       0   20084   20085   20085       0
   20087   20088   20088       0   20090   20091   20091       0   20093   20094
   20094       0   20096   20097   20097       0   20099   20100   20100       0
   20102   20103   20103       0   20105   20106   20106       0   20108   20109
   20109       0   20111   20112   20112       0   20114   20115   20115       0
   20117   20118   20118       0   20120   20121   20121       0   20123   20124
   20124       0   20126   20127   20127       0   20129   20130   20130       0
   20132   20133   20133       0   20135   20136   20136       0   20138   20139
   20139       0   20141   20142   20142       0   20144   20145   20145       0
   20147   20148   20148       0   20150   20151   20151       0   20153   20154
   20154       0   20156   20157   20157       0   20159   20160   20160       0
   20162   20163   20163       0   20165   20166   20166       0   20168   20169
   20169       0   20171   20172   20172       0   20174   20175   20175       0
   20177   20178   20178       0   20180   20181   20181       0   20183   20184
   20184       0   20186   20187   20187       0   20189   20190   20190       0
   20192   20193   20193       0   20195   20196   20196       0   20198   20199
   20199       0   20201   20202   20202       0   20204   20205   20205       0
   20207   20208   20208       0   20210   20211   20211       0   20213   20214
   20214       0   20216   20217   20217       0   20219   20220   20220       0
   20222   20223   20223       0   20225   20226   20226       0   20228   20229
   20229       0   20231   20232   20232       0   20234   20235   20235       0
   20237   20238   20238       0   20240   20241   20241       0   20243   20244
   20244       0   20246   20247   20247       0   20249   20250   20250       0
   20252   20253   20253       0   20255   20256   20256       0   20258   20259
   20259       0   20261   20262   20262       0   20264   20265   20265       0
   20267   20268   20268       0   20270   20271   20271       0   20273   20274
   20274       0   20276   20277   20277       0   20279   20280   20280       0
   20282   20283   20283       0   20285   20286   20286       0   20288   20289
   20289       0   20291   20292   20292       0   20294   20295   20295       0
   20297   20298   20298       0   20300   20301   20301       0   20303   20304
   20304       0   20306   20307   20307       0   20309   20310   20310       0
   20312   20313   20313       0   20315   20316   20316       0   20318   20319
   20319       0   20321   20322   20322       0   20324   20325   20325       0
   20327   20328   20328       0   20330   20331   20331       0   20333   20334
   20334       0   20336   20337   20337       0   20339   20340   20340       0
   20342   20343   20343       0   20345   20346   20346       0   20348   20349
   20349       0   20351   20352   20352       0   20354   20355   20355       0
   20357   20358   20358       0   20360   20361   20361       0   20363   20364
   20364       0   20366   20367   20367       0   20369   20370   20370       0
   20372   20373   20373       0   20375   20376   20376       0   20378   20379
   20379       0   20381   20382   20382       0   20384   20385   20385       0
   20387   20388   20388       0   20390   20391   20391       0   20393   20394
   20394       0   20396   20397   20397       0   20399   20400   20400       0
   20402   20403   20403       0   20405   20406   20406       0   20408   20409
   20409       0   20411   20412   20412       0   20414   20415   20415       0
   20417   20418   20418       0   20420   20421   20421       0   20423   20424
   20424       0   20426   20427   20427       0   20429   20430   20430       0
   20432   20433   20433       0   20435   20436   20436       0   20438   20439
   20439       0   20441   20442   20442       0   20444   20445   20445       0
   20447   20448   20448       0   20450   20451   20451       0   20453   20454
   20454       0   20456   20457   20457       0   20459   20460   20460       0
   20462   20463   20463       0   20465   20466   20466       0   20468   20469
   20469       0   20471   20472   20472       0   20474   20475   20475       0
   20477   20478   20478       0   20480   20481   20481       0   20483   20484
   20484       0   20486   20487   20487       0   20489   20490   20490       0
   20492   20493   20493       0   20495   20496   20496       0   20498   20499
   20499       0   20501   20502   20502       0   20504   20505   20505       0
   20507   20508   20508       0   20510   20511   20511       0   20513   20514
   20514       0   20516   20517   20517       0   20519   20520   20520       0
   20522   20523   20523       0   20525   20526   20526       0   20528   20529
   20529       0   20531   20532   20532       0   20534   20535   20535       0
   20537   20538   20538       0   20540   20541   20541       0   20543   20544
   20544       0   20546   20547   20547       0   20549   20550   20550       0
   20552   20553   20553       0   20555   20556   20556       0   20558   20559
   20559       0   20561   20562   20562       0   20564   20565   20565       0
   20567   20568   20568       0   20570   20571   20571       0   20573   20574
   20574       0   20576   20577   20577       0   20579   20580   20580       0
   20582   20583   20583       0   20585   20586   20586       0   20588   20589
   20589       0   20591   20592   20592       0   20594   20595   20595       0
   20597   20598   20598       0   20600   20601   20601       0   20603   20604
   20604       0   20606   20607   20607       0   20609   20610   20610       0
   20612   20613   20613       0   20615   20616   20616       0   20618   20619
   20619       0   20621   20622   20622       0   20624   20625   20625       0
   20627   20628   20628       0   20630   20631   20631       0   20633   20634
   20634       0   20636   20637   20637       0   20639   20640   20640       0
   20642   20643   20643       0   20645   20646   20646       0   20648   20649
   20649       0   20651   20652   20652       0   20654   20655   20655       0
   20657   20658   20658       0   20660   20661   20661       0   20663   20664
   20664       0   20666   20667   20667       0   20669   20670   20670       0
   20672   20673   20673       0   20675   20676   20676       0   20678   20679
   20679       0   20681   20682   20682       0   20684   20685   20685       0
   20687   20688   20688       0   20690   20691   20691       0   20693   20694
   20694       0   20696   20697   20697       0   20699   20700   20700       0
   20702   20703   20703       0   20705   20706   20706       0   20708   20709
   20709       0   20711   20712   20712       0   20714   20715   20715       0
   20717   20718   20718       0   20720   20721   20721       0   20723   20724
   20724       0   20726   20727   20727       0   20729   20730   20730       0
   20732   20733   20733       0   20735   20736   20736       0   20738   20739
   20739       0   20741   20742   20742       0   20744   20745   20745       0
   20747   20748   20748       0   20750   20751   20751       0   20753   20754
   20754       0   20756   20757   20757       0   20759   20760   20760       0
   20762   20763   20763       0   20765   20766   20766       0   20768   20769
   20769       0   20771   20772   20772       0   20774   20775   20775       0
   20777   20778   20778       0   20780   20781   20781       0   20783   20784
   20784       0   20786   20787   20787       0   20789   20790   20790       0
   20792   20793   20793       0   20795   20796   20796       0   20798   20799
   20799       0   20801   20802   20802       0   20804   20805   20805       0
   20807   20808   20808       0   20810   20811   20811       0   20813   20814
   20814       0   20816   20817   20817       0   20819   20820   20820       0
   20822   20823   20823       0   20825   20826   20826       0   20828   20829
   20829       0   20831   20832   20832       0   20834   20835   20835       0
   20837   20838   20838       0   20840   20841   20841       0   20843   20844
   20844       0   20846   20847   20847       0   20849   20850   20850       0
   20852   20853   20853       0   20855   20856   20856       0   20858   20859
   20859       0   20861   20862   20862       0   20864   20865   20865       0
   20867   20868   20868       0   20870   20871   20871       0   20873   20874
   20874       0   20876   20877   20877       0   20879   20880   20880       0
   20882   20883   20883       0   20885   20886   20886       0   20888   20889
   20889       0   20891   20892   20892       0   20894   20895   20895       0
   20897   20898   20898       0   20900   20901   20901       0   20903   20904
   20904       0   20906   20907   20907       0   20909   20910   20910       0
   20912   20913   20913       0   20915   20916   20916       0   20918   20919
   20919       0   20921   20922   20922       0   20924   20925   20925       0
   20927   20928   20928       0   20930   20931   20931       0   20933   20934
   20934       0   20936   20937   20937       0   20939   20940   20940       0
   20942   20943   20943       0   20945   20946   20946       0   20948   20949
   20949       0   20951   20952   20952       0   20954   20955   20955       0
   20957   20958   20958       0   20960   20961   20961       0   20963   20964
   20964       0   20966   20967   20967       0   20969   20970   20970       0
   20972   20973   20973       0   20975   20976   20976       0   20978   20979
   20979       0   20981   20982   20982       0   20984   20985   20985       0
   20987   20988   20988       0   20990   20991   20991       0   20993   20994
   20994       0   20996   20997   20997       0   20999   21000   21000       0
   21002   21003   21003       0   21005   21006   21006       0   21008   21009
   21009       0   21011   21012   21012       0   21014   21015   21015       0
   21017   21018   21018       0   21020   21021   21021       0   21023   21024
   21024       0   21026   21027   21027       0   21029   21030   21030       0
   21032   21033   21033       0   21035   21036   21036       0   21038   21039
   21039       0   21041   21042   21042       0   21044   21045   21045       0
   21047   21048   21048       0   21050   21051   21051       0   21053   21054
   21054       0   21056   21057   21057       0   21059   21060   21060       0
   21062   21063   21063       0   21065   21066   21066       0   21068   21069
   21069       0   21071   21072   21072       0   21074   21075   21075       0
   21077   21078   21078       0   21080   21081   21081       0   21083   21084
   21084       0   21086   21087   21087       0   21089   21090   21090       0
   21092   21093   21093       0   21095   21096   21096       0   21098   21099
   21099       0   21101   21102   21102       0   21104   21105   21105       0
   21107   21108   21108       0   21110   21111   21111       0   21113   21114
   21114       0   21116   21117   21117       0   21119   21120   21120       0
   21122   21123   21123       0   21125   21126   21126       0   21128   21129
   21129       0   21131   21132   21132       0   21134   21135   21135       0
   21137   21138   21138       0   21140   21141   21141       0   21143   21144
   21144       0   21146   21147   21147       0   21149   21150   21150       0
   21152   21153   21153       0   21155   21156   21156       0   21158   21159
   21159       0   21161   21162   21162       0   21164   21165   21165       0
   21167   21168   21168       0   21170   21171   21171       0   21173   21174
   21174       0   21176   21177   21177       0   21179   21180   21180       0
   21182   21183   21183       0   21185   21186   21186       0   21188   21189
   21189       0   21191   21192   21192       0   21194   21195   21195       0
   21197   21198   21198       0   21200   21201   21201       0   21203   21204
   21204       0   21206   21207   21207       0   21209   21210   21210       0
   21212   21213   21213       0   21215   21216   21216       0   21218   21219
   21219       0   21221   21222   21222       0   21224   21225   21225       0
   21227   21228   21228       0   21230   21231   21231       0   21233   21234
   21234       0   21236   21237   21237       0   21239   21240   21240       0
   21242   21243   21243       0   21245   21246   21246       0   21248   21249
   21249       0   21251   21252   21252       0   21254   21255   21255       0
   21257   21258   21258       0   21260   21261   21261       0   21263   21264
   21264       0   21266   21267   21267       0   21269   21270   21270       0
   21272   21273   21273       0   21275   21276   21276       0   21278   21279
   21279       0   21281   21282   21282       0   21284   21285   21285       0
   21287   21288   21288       0   21290   21291   21291       0   21293   21294
   21294       0   21296   21297   21297       0   21299   21300   21300       0
   21302   21303   21303       0   21305   21306   21306       0   21308   21309
   21309       0   21311   21312   21312       0   21314   21315   21315       0
   21317   21318   21318       0   21320   21321   21321       0   21323   21324
   21324       0   21326   21327   21327       0   21329   21330   21330       0
   21332   21333   21333       0   21335   21336   21336       0   21338   21339
   21339       0   21341   21342   21342       0   21344   21345   21345       0
   21347   21348   21348       0   21350   21351   21351       0   21353   21354
   21354       0   21356   21357   21357       0   21359   21360   21360       0
   21362   21363   21363       0   21365   21366   21366       0   21368   21369
   21369       0   21371   21372   21372       0   21374   21375   21375       0
   21377   21378   21378       0   21380   21381   21381       0   21383   21384
   21384       0   21386   21387   21387       0   21389   21390   21390       0
   21392   21393   21393       0   21395   21396   21396       0   21398   21399
   21399       0   21401   21402   21402       0   21404   21405   21405       0
   21407   21408   21408       0   21410   21411   21411       0   21413   21414
   21414       0   21416   21417   21417       0   21419   21420   21420       0
   21422   21423   21423       0   21425   21426   21426       0   21428   21429
   21429       0   21431   21432   21432       0   21434   21435   21435       0
   21437   21438   21438       0   21440   21441   21441       0   21443   21444
   21444       0   21446   21447   21447       0   21449   21450   21450       0
   21452   21453   21453       0   21455   21456   21456       0   21458   21459
   21459       0   21461   21462   21462       0   21464   21465   21465       0
   21467   21468   21468       0   21470   21471   21471       0   21473   21474
   21474       0   21476   21477   21477       0   21479   21480   21480       0
   21482   21483   21483       0   21485   21486   21486       0   21488   21489
   21489       0   21491   21492   21492       0   21494   21495   21495       0
   21497   21498   21498       0   21500   21501   21501       0   21503   21504
   21504       0   21506   21507   21507       0   21509   21510   21510       0
   21512   21513   21513       0   21515   21516   21516       0   21518   21519
   21519       0   21521   21522   21522       0   21524   21525   21525       0
   21527   21528   21528       0   21530   21531   21531       0   21533   21534
   21534       0   21536   21537   21537       0   21539   21540   21540       0
   21542   21543   21543       0   21545   21546   21546       0   21548   21549
   21549       0   21551   21552   21552       0   21554   21555   21555       0
   21557   21558   21558       0   21560   21561   21561       0   21563   21564
   21564       0   21566   21567   21567       0   21569   21570   21570       0
   21572   21573   21573       0   21575   21576   21576       0   21578   21579
   21579       0   21581   21582   21582       0   21584   21585   21585       0
   21587   21588   21588       0   21590   21591   21591       0   21593   21594
   21594       0   21596   21597   21597       0   21599   21600   21600       0
   21602   21603   21603       0   21605   21606   21606       0   21608   21609
   21609       0   21611   21612   21612       0   21614   21615   21615       0
   21617   21618   21618       0   21620   21621   21621       0   21623   21624
   21624       0   21626   21627   21627       0   21629   21630   21630       0
   21632   21633   21633       0   21635   21636   21636       0   21638   21639
   21639       0   21641   21642   21642       0   21644   21645   21645       0
   21647   21648   21648       0   21650   21651   21651       0   21653   21654
   21654       0   21656   21657   21657       0   21659   21660   21660       0
   21662   21663   21663       0   21665   21666   21666       0   21668   21669
   21669       0   21671   21672   21672       0   21674   21675   21675       0
   21677   21678   21678       0   21680   21681   21681       0   21683   21684
   21684       0   21686   21687   21687       0   21689   21690   21690       0
   21692   21693   21693       0   21695   21696   21696       0   21698   21699
   21699       0   21701   21702   21702       0   21704   21705   21705       0
   21707   21708   21708       0   21710   21711   21711       0   21713   21714
   21714       0   21716   21717   21717       0   21719   21720   21720       0
   21722   21723   21723       0   21725   21726   21726       0   21728   21729
   21729       0   21731   21732   21732       0   21734   21735   21735       0
   21737   21738   21738       0   21740   21741   21741       0   21743   21744
   21744       0   21746   21747   21747       0   21749   21750   21750       0
   21752   21753   21753       0   21755   21756   21756       0   21758   21759
   21759       0   21761   21762   21762       0   21764   21765   21765       0
   21767   21768   21768       0   21770   21771   21771       0   21773   21774
   21774       0   21776   21777   21777       0   21779   21780   21780       0
   21782   21783   21783       0   21785   21786   21786       0   21788   21789
   21789       0   21791   21792   21792       0   21794   21795   21795       0
   21797   21798   21798       0   21800   21801   21801       0   21803   21804
   21804       0   21806   21807   21807       0   21809   21810   21810       0
   21812   21813   21813       0   21815   21816   21816       0   21818   21819
   21819       0   21821   21822   21822       0   21824   21825   21825       0
   21827   21828   21828       0   21830   21831   21831       0   21833   21834
   21834       0   21836   21837   21837       0   21839   21840   21840       0
   21842   21843   21843       0   21845   21846   21846       0   21848   21849
   21849       0   21851   21852   21852       0   21854   21855   21855       0
   21857   21858   21858       0   21860   21861   21861       0   21863   21864
   21864       0   21866   21867   21867       0   21869   21870   21870       0
   21872   21873   21873       0   21875   21876   21876       0   21878   21879
   21879       0   21881   21882   21882       0   21884   21885   21885       0
   21887   21888   21888       0   21890   21891   21891       0   21893   21894
   21894       0   21896   21897   21897       0   21899   21900   21900       0
   21902   21903   21903       0   21905   21906   21906       0   21908   21909
   21909       0   21911   21912   21912       0   21914   21915   21915       0
   21917   21918   21918       0   21920   21921   21921       0   21923   21924
   21924       0   21926   21927   21927       0   21929   21930   21930       0
   21932   21933   21933       0   21935   21936   21936       0   21938   21939
   21939       0   21941   21942   21942       0   21944   21945   21945       0
   21947   21948   21948       0   21950   21951   21951       0   21953   21954
   21954       0   21956   21957   21957       0   21959   21960   21960       0
   21962   21963   21963       0   21965   21966   21966       0   21968   21969
   21969       0   21971   21972   21972       0   21974   21975   21975       0
   21977   21978   21978       0   21980   21981   21981       0   21983   21984
   21984       0   21986   21987   21987       0   21989   21990   21990       0
   21992   21993   21993       0   21995   21996   21996       0   21998   21999
   21999       0   22001   22002   22002       0   22004   22005   22005       0
   22007   22008   22008       0   22010   22011   22011       0   22013   22014
   22014       0   22016   22017   22017       0   22019   22020   22020       0
   22022   22023   22023       0   22025   22026   22026       0   22028   22029
   22029       0   22031   22032   22032       0   22034   22035   22035       0
   22037   22038   22038       0   22040   22041   22041       0   22043   22044
   22044       0   22046   22047   22047       0   22049   22050   22050       0
   22052   22053   22053       0   22055   22056   22056       0   22058   22059
   22059       0   22061   22062   22062       0   22064   22065   22065       0
   22067   22068   22068       0   22070   22071   22071       0   22073   22074
   22074       0   22076   22077   22077       0   22079   22080   22080       0
   22082   22083   22083       0   22085   22086   22086       0   22088   22089
   22089       0   22091   22092   22092       0   22094   22095   22095       0
   22097   22098   22098       0   22100   22101   22101       0   22103   22104
   22104       0   22106   22107   22107       0   22109   22110   22110       0
   22112   22113   22113       0   22115   22116   22116       0   22118   22119
   22119       0   22121   22122   22122       0   22124   22125   22125       0
   22127   22128   22128       0   22130   22131   22131       0   22133   22134
   22134       0   22136   22137   22137       0   22139   22140   22140       0
   22142   22143   22143       0   22145   22146   22146       0   22148   22149
   22149       0   22151   22152   22152       0   22154   22155   22155       0
   22157   22158   22158       0   22160   22161   22161       0   22163   22164
   22164       0   22166   22167   22167       0   22169   22170   22170       0
   22172   22173   22173       0   22175   22176   22176       0   22178   22179
   22179       0   22181   22182   22182       0   22184   22185   22185       0
   22187   22188   22188       0   22190   22191   22191       0   22193   22194
   22194       0   22196   22197   22197       0   22199   22200   22200       0
   22202   22203   22203       0   22205   22206   22206       0   22208   22209
   22209       0   22211   22212   22212       0   22214   22215   22215       0
   22217   22218   22218       0   22220   22221   22221       0   22223   22224
   22224       0   22226   22227   22227       0   22229   22230   22230       0
   22232   22233   22233       0   22235   22236   22236       0   22238   22239
   22239       0   22241   22242   22242       0   22244   22245   22245       0
   22247   22248   22248       0   22250   22251   22251       0   22253   22254
   22254       0   22256   22257   22257       0   22259   22260   22260       0
   22262   22263   22263       0   22265   22266   22266       0   22268   22269
   22269       0   22271   22272   22272       0   22274   22275   22275       0
   22277   22278   22278       0   22280   22281   22281       0   22283   22284
   22284       0   22286   22287   22287       0   22289   22290   22290       0
   22292   22293   22293       0   22295   22296   22296       0   22298   22299
   22299       0   22301   22302   22302       0   22304   22305   22305       0
   22307   22308   22308       0   22310   22311   22311       0   22313   22314
   22314       0   22316   22317   22317       0   22319   22320   22320       0
   22322   22323   22323       0   22325   22326   22326       0   22328   22329
   22329       0   22331   22332   22332       0   22334   22335   22335       0
   22337   22338   22338       0   22340   22341   22341       0   22343   22344
   22344       0   22346   22347   22347       0   22349   22350   22350       0
   22352   22353   22353       0   22355   22356   22356       0   22358   22359
   22359       0   22361   22362   22362       0   22364   22365   22365       0
   22367   22368   22368       0   22370   22371   22371       0   22373   22374
   22374       0   22376   22377   22377       0   22379   22380   22380       0
   22382   22383   22383       0   22385   22386   22386       0   22388   22389
   22389       0   22391   22392   22392       0   22394   22395   22395       0
   22397   22398   22398       0   22400   22401   22401       0   22403   22404
   22404       0   22406   22407   22407       0   22409   22410   22410       0
   22412   22413   22413       0   22415   22416   22416       0   22418   22419
   22419       0   22421   22422   22422       0   22424   22425   22425       0
   22427   22428   22428       0   22430   22431   22431       0   22433   22434
   22434       0   22436   22437   22437       0   22439   22440   22440       0
   22442   22443   22443       0   22445   22446   22446       0   22448   22449
   22449       0   22451   22452   22452       0   22454   22455   22455       0
   22457   22458   22458       0   22460   22461   22461       0   22463   22464
   22464       0   22466   22467   22467       0   22469   22470   22470       0
   22472   22473   22473       0   22475   22476   22476       0   22478   22479
   22479       0   22481   22482   22482       0   22484   22485   22485       0
   22487   22488   22488       0   22490   22491   22491       0   22493   22494
   22494       0   22496   22497   22497       0   22499   22500   22500       0
   22502   22503   22503       0   22505   22506   22506       0   22508   22509
   22509       0   22511   22512   22512       0   22514   22515   22515       0
   22517   22518   22518       0   22520   22521   22521       0   22523   22524
   22524       0   22526   22527   22527       0   22529   22530   22530       0
   22532   22533   22533       0   22535   22536   22536       0   22538   22539
   22539       0   22541   22542   22542       0   22544   22545   22545       0
   22547   22548   22548       0   22550   22551   22551       0   22553   22554
   22554       0   22556   22557   22557       0   22559   22560   22560       0
   22562   22563   22563       0   22565   22566   22566       0   22568   22569
   22569       0   22571   22572   22572       0   22574   22575   22575       0
   22577   22578   22578       0   22580   22581   22581       0   22583   22584
   22584       0   22586   22587   22587       0   22589   22590   22590       0
   22592   22593   22593       0   22595   22596   22596       0   22598   22599
   22599       0   22601   22602   22602       0   22604   22605   22605       0
   22607   22608   22608       0   22610   22611   22611       0   22613   22614
   22614       0   22616   22617   22617       0   22619   22620   22620       0
   22622   22623   22623       0   22625   22626   22626       0   22628   22629
   22629       0   22631   22632   22632       0   22634   22635   22635       0
   22637   22638   22638       0   22640   22641   22641       0   22643   22644
   22644       0   22646   22647   22647       0   22649   22650   22650       0
   22652   22653   22653       0   22655   22656   22656       0   22658   22659
   22659       0   22661   22662   22662       0   22664   22665   22665       0
   22667   22668   22668       0   22670   22671   22671       0   22673   22674
   22674       0   22676   22677   22677       0   22679   22680   22680       0
   22682   22683   22683       0   22685   22686   22686       0   22688   22689
   22689       0   22691   22692   22692       0   22694   22695   22695       0
   22697   22698   22698       0   22700   22701   22701       0   22703   22704
   22704       0   22706   22707   22707       0   22709   22710   22710       0
   22712   22713   22713       0   22715   22716   22716       0   22718   22719
   22719       0   22721   22722   22722       0   22724   22725   22725       0
   22727   22728   22728       0   22730   22731   22731       0   22733   22734
   22734       0   22736   22737   22737       0   22739   22740   22740       0
   22742   22743   22743       0   22745   22746   22746       0   22748   22749
   22749       0   22751   22752   22752       0   22754   22755   22755       0
   22757   22758   22758       0   22760   22761   22761       0   22763   22764
   22764       0   22766   22767   22767       0   22769   22770   22770       0
   22772   22773   22773       0   22775   22776   22776       0   22778   22779
   22779       0   22781   22782   22782       0   22784   22785   22785       0
   22787   22788   22788       0   22790   22791   22791       0   22793   22794
   22794       0   22796   22797   22797       0   22799   22800   22800       0
   22802   22803   22803       0   22805   22806   22806       0   22808   22809
   22809       0   22811   22812   22812       0   22814   22815   22815       0
   22817   22818   22818       0   22820   22821   22821       0   22823   22824
   22824       0   22826   22827   22827       0   22829   22830   22830       0
   22832   22833   22833       0   22835   22836   22836       0   22838   22839
   22839       0   22841   22842   22842       0   22844   22845   22845       0
   22847   22848   22848       0   22850   22851   22851       0   22853   22854
   22854       0   22856   22857   22857       0   22859   22860   22860       0
   22862   22863   22863       0   22865   22866   22866       0   22868   22869
   22869       0   22871   22872   22872       0   22874   22875   22875       0
   22877   22878   22878       0   22880   22881   22881       0   22883   22884
   22884       0   22886   22887   22887       0   22889   22890   22890       0
   22892   22893   22893       0   22895   22896   22896       0   22898   22899
   22899       0   22901   22902   22902       0   22904   22905   22905       0
   22907   22908   22908       0   22910   22911   22911       0   22913   22914
   22914       0   22916   22917   22917       0   22919   22920   22920       0
   22922   22923   22923       0   22925   22926   22926       0   22928   22929
   22929       0   22931   22932   22932       0   22934   22935   22935       0
   22937   22938   22938       0   22940   22941   22941       0   22943   22944
   22944       0   22946   22947   22947       0   22949   22950   22950       0
   22952   22953   22953       0   22955   22956   22956       0   22958   22959
   22959       0   22961   22962   22962       0   22964   22965   22965       0
   22967   22968   22968       0   22970   22971   22971       0   22973   22974
   22974       0   22976   22977   22977       0   22979   22980   22980       0
   22982   22983   22983       0   22985   22986   22986       0   22988   22989
   22989       0   22991   22992   22992       0   22994   22995   22995       0
   22997   22998   22998       0   23000   23001   23001       0   23003   23004
   23004       0   23006   23007   23007       0   23009   23010   23010       0
   23012   23013   23013       0   23015   23016   23016       0   23018   23019
   23019       0   23021   23022   23022       0   23024   23025   23025       0
   23027   23028   23028       0   23030   23031   23031       0   23033   23034
   23034       0   23036   23037   23037       0   23039   23040   23040       0
   23042   23043   23043       0   23045   23046   23046       0   23048   23049
   23049       0   23051   23052   23052       0   23054   23055   23055       0
   23057   23058   23058       0   23060   23061   23061       0   23063   23064
   23064       0   23066   23067   23067       0   23069   23070   23070       0
   23072   23073   23073       0   23075   23076   23076       0   23078   23079
   23079       0   23081   23082   23082       0   23084   23085   23085       0
   23087   23088   23088       0   23090   23091   23091       0   23093   23094
   23094       0   23096   23097   23097       0   23099   23100   23100       0
   23102   23103   23103       0   23105   23106   23106       0   23108   23109
   23109       0   23111   23112   23112       0   23114   23115   23115       0
   23117   23118   23118       0   23120   23121   23121       0   23123   23124
   23124       0   23126   23127   23127       0   23129   23130   23130       0
   23132   23133   23133       0   23135   23136   23136       0   23138   23139
   23139       0   23141   23142   23142       0   23144   23145   23145       0
   23147   23148   23148       0   23150   23151   23151       0   23153   23154
   23154       0   23156   23157   23157       0   23159   23160   23160       0
   23162   23163   23163       0   23165   23166   23166       0   23168   23169
   23169       0   23171   23172   23172       0   23174   23175   23175       0
   23177   23178   23178       0   23180   23181   23181       0   23183   23184
   23184       0   23186   23187   23187       0   23189   23190   23190       0
   23192   23193   23193       0   23195   23196   23196       0   23198   23199
   23199       0   23201   23202   23202       0   23204   23205   23205       0
   23207   23208   23208       0   23210   23211   23211       0   23213   23214
   23214       0   23216   23217   23217       0   23219   23220   23220       0
   23222   23223   23223       0   23225   23226   23226       0   23228   23229
   23229       0   23231   23232   23232       0   23234   23235   23235       0
   23237   23238   23238       0   23240   23241   23241       0   23243   23244
   23244       0   23246   23247   23247       0   23249   23250   23250       0
   23252   23253   23253       0   23255   23256   23256       0   23258   23259
   23259       0   23261   23262   23262       0   23264   23265   23265       0
   23267   23268   23268       0   23270   23271   23271       0   23273   23274
   23274       0   23276   23277   23277       0   23279   23280   23280       0
   23282   23283   23283       0   23285   23286   23286       0   23288   23289
   23289       0   23291   23292   23292       0   23294   23295   23295       0
   23297   23298   23298       0   23300   23301   23301       0   23303   23304
   23304       0   23306   23307   23307       0   23309   23310   23310       0
   23312   23313   23313       0   23315   23316   23316       0   23318   23319
   23319       0   23321   23322   23322       0   23324   23325   23325       0
   23327   23328   23328       0   23330   23331   23331       0   23333   23334
   23334       0   23336   23337   23337       0   23339   23340   23340       0
   23342   23343   23343       0   23345   23346   23346       0   23348   23349
   23349       0   23351   23352   23352       0   23354   23355   23355       0
   23357   23358   23358       0   23360   23361   23361       0   23363   23364
   23364       0   23366   23367   23367       0   23369   23370   23370       0
   23372   23373   23373       0   23375   23376   23376       0   23378   23379
   23379       0   23381   23382   23382       0   23384   23385   23385       0
   23387   23388   23388       0   23390   23391   23391       0   23393   23394
   23394       0   23396   23397   23397       0   23399   23400   23400       0
   23402   23403   23403       0   23405   23406   23406       0   23408   23409
   23409       0   23411   23412   23412       0   23414   23415   23415       0
   23417   23418   23418       0   23420   23421   23421       0   23423   23424
   23424       0   23426   23427   23427       0   23429   23430   23430       0
   23432   23433   23433       0   23435   23436   23436       0   23438   23439
   23439       0   23441   23442   23442       0   23444   23445   23445       0
   23447   23448   23448       0   23450   23451   23451       0   23453   23454
   23454       0   23456   23457   23457       0   23459   23460   23460       0
   23462   23463   23463       0   23465   23466   23466       0   23468   23469
   23469       0   23471   23472   23472       0   23474   23475   23475       0
   23477   23478   23478       0   23480   23481   23481       0   23483   23484
   23484       0   23486   23487   23487       0   23489   23490   23490       0
   23492   23493   23493       0   23495   23496   23496       0   23498   23499
   23499       0   23501   23502   23502       0   23504   23505   23505       0
   23507   23508   23508       0   23510   23511   23511       0   23513   23514
   23514       0   23516   23517   23517       0   23519   23520   23520       0
   23522   23523   23523       0   23525   23526   23526       0   23528   23529
   23529       0   23531   23532   23532       0   23534   23535   23535       0
   23537   23538   23538       0   23540   23541   23541       0   23543   23544
   23544       0   23546   23547   23547       0   23549   23550   23550       0
   23552   23553   23553       0   23555   23556   23556       0   23558   23559
   23559       0   23561   23562   23562       0   23564   23565   23565       0
   23567   23568   23568       0   23570   23571   23571       0   23573   23574
   23574       0   23576   23577   23577       0   23579   23580   23580       0
   23582   23583   23583       0   23585   23586   23586       0   23588   23589
   23589       0   23591   23592   23592       0   23594   23595   23595       0
   23597   23598   23598       0   23600   23601   23601       0   23603   23604
   23604       0   23606   23607   23607       0   23609   23610   23610       0
   23612   23613   23613       0   23615   23616   23616       0   23618   23619
   23619       0   23621   23622   23622       0   23624   23625   23625       0
   23627   23628   23628       0   23630   23631   23631       0   23633   23634
   23634       0   23636   23637   23637       0   23639   23640   23640       0
   23642   23643   23643       0   23645   23646   23646       0   23648   23649
   23649       0   23651   23652   23652       0   23654   23655   23655       0
   23657   23658   23658       0   23660   23661   23661       0   23663   23664
   23664       0   23666   23667   23667       0   23669   23670   23670       0
   23672   23673   23673       0   23675   23676   23676       0   23678   23679
   23679       0   23681   23682   23682       0   23684   23685   23685       0
   23687   23688   23688       0   23690   23691   23691       0   23693   23694
   23694       0   23696   23697   23697       0   23699   23700   23700       0
   23702   23703   23703       0   23705   23706   23706       0   23708   23709
   23709       0   23711   23712   23712       0   23714   23715   23715       0
   23717   23718   23718       0   23720   23721   23721       0   23723   23724
   23724       0   23726   23727   23727       0   23729   23730   23730       0
   23732   23733   23733       0   23735   23736   23736       0   23738   23739
   23739       0   23741   23742   23742       0   23744   23745   23745       0
   23747   23748   23748       0   23750   23751   23751       0   23753   23754
   23754       0   23756   23757   23757       0   23759   23760   23760       0
   23762   23763   23763       0   23765   23766   23766       0   23768   23769
   23769       0   23771   23772   23772       0   23774   23775   23775       0
   23777   23778   23778       0   23780   23781   23781       0   23783   23784
   23784       0   23786   23787   23787       0   23789   23790   23790       0
   23792   23793   23793       0   23795   23796   23796       0   23798   23799
   23799       0   23801   23802   23802       0   23804   23805   23805       0
   23807   23808   23808       0   23810   23811   23811       0   23813   23814
   23814       0   23816   23817   23817       0   23819   23820   23820       0
   23822   23823   23823       0   23825   23826   23826       0   23828   23829
   23829       0   23831   23832   23832       0   23834   23835   23835       0
   23837   23838   23838       0   23840   23841   23841       0   23843   23844
   23844       0   23846   23847   23847       0   23849   23850   23850       0
   23852   23853   23853       0   23855   23856   23856       0   23858   23859
   23859       0   23861   23862   23862       0   23864   23865   23865       0
   23867   23868   23868       0   23870   23871   23871       0   23873   23874
   23874       0   23876   23877   23877       0   23879   23880   23880       0
   23882   23883   23883       0   23885   23886   23886       0   23888   23889
   23889       0   23891   23892   23892       0   23894   23895   23895       0
   23897   23898   23898       0   23900   23901   23901       0   23903   23904
   23904       0   23906   23907   23907       0   23909   23910   23910       0
   23912   23913   23913       0   23915   23916   23916       0   23918   23919
   23919       0   23921   23922   23922       0   23924   23925   23925       0
   23927   23928   23928       0   23930   23931   23931       0   23933   23934
   23934       0   23936   23937   23937       0   23939   23940   23940       0
   23942   23943   23943       0   23945   23946   23946       0   23948   23949
   23949       0   23951   23952   23952       0   23954   23955   23955       0
   23957   23958   23958       0   23960   23961   23961       0   23963   23964
   23964       0   23966   23967   23967       0   23969   23970   23970       0
   23972   23973   23973       0   23975   23976   23976       0   23978   23979
   23979       0   23981   23982   23982       0   23984   23985   23985       0
   23987   23988   23988       0   23990   23991   23991       0   23993   23994
   23994       0   23996   23997   23997       0   23999   24000   24000       0
   24002   24003   24003       0   24005   24006   24006       0   24008   24009
   24009       0   24011   24012   24012       0   24014   24015   24015       0
   24017   24018   24018       0   24020   24021   24021       0   24023   24024
   24024       0   24026   24027   24027       0   24029   24030   24030       0
   24032   24033   24033       0   24035   24036   24036       0   24038   24039
   24039       0   24041   24042   24042       0   24044   24045   24045       0
   24047   24048   24048       0   24050   24051   24051       0   24053   24054
   24054       0   24056   24057   24057       0   24059   24060   24060       0
   24062   24063   24063       0   24065   24066   24066       0   24068   24069
   24069       0   24071   24072   24072       0   24074   24075   24075       0
   24077   24078   24078       0   24080   24081   24081       0   24083   24084
   24084       0   24086   24087   24087       0   24089   24090   24090       0
   24092   24093   24093       0   24095   24096   24096       0   24098   24099
   24099       0   24101   24102   24102       0   24104   24105   24105       0
   24107   24108   24108       0   24110   24111   24111       0   24113   24114
   24114       0   24116   24117   24117       0   24119   24120   24120       0
   24122   24123   24123       0   24125   24126   24126       0   24128   24129
   24129       0   24131   24132   24132       0   24134   24135   24135       0
   24137   24138   24138       0   24140   24141   24141       0   24143   24144
   24144       0   24146   24147   24147       0   24149   24150   24150       0
   24152   24153   24153       0   24155   24156   24156       0   24158   24159
   24159       0   24161   24162   24162       0   24164   24165   24165       0
   24167   24168   24168       0   24170   24171   24171       0   24173   24174
   24174       0   24176   24177   24177       0   24179   24180   24180       0
   24182   24183   24183       0   24185   24186   24186       0   24188   24189
   24189       0   24191   24192   24192       0   24194   24195   24195       0
   24197   24198   24198       0   24200   24201   24201       0   24203   24204
   24204       0   24206   24207   24207       0   24209   24210   24210       0
   24212   24213   24213       0   24215   24216   24216       0   24218   24219
   24219       0   24221   24222   24222       0   24224   24225   24225       0
   24227   24228   24228       0   24230   24231   24231       0   24233   24234
   24234       0   24236   24237   24237       0   24239   24240   24240       0
   24242   24243   24243       0   24245   24246   24246       0   24248   24249
   24249       0   24251   24252   24252       0   24254   24255   24255       0
   24257   24258   24258       0   24260   24261   24261       0   24263   24264
   24264       0   24266   24267   24267       0   24269   24270   24270       0
   24272   24273   24273       0   24275   24276   24276       0   24278   24279
   24279       0   24281   24282   24282       0   24284   24285   24285       0
   24287   24288   24288       0   24290   24291   24291       0   24293   24294
   24294       0   24296   24297   24297       0   24299   24300   24300       0
   24302   24303   24303       0   24305   24306   24306       0   24308   24309
   24309       0   24311   24312   24312       0   24314   24315   24315       0
   24317   24318   24318       0   24320   24321   24321       0   24323   24324
   24324       0   24326   24327   24327       0   24329   24330   24330       0
   24332   24333   24333       0   24335   24336   24336       0   24338   24339
   24339       0   24341   24342   24342       0   24344   24345   24345       0
   24347   24348   24348       0   24350   24351   24351       0   24353   24354
   24354       0   24356   24357   24357       0   24359   24360   24360       0
   24362   24363   24363       0   24365   24366   24366       0   24368   24369
   24369       0   24371   24372   24372       0   24374   24375   24375       0
   24377   24378   24378       0   24380   24381   24381       0   24383   24384
   24384       0   24386   24387   24387       0   24389   24390   24390       0
   24392   24393   24393       0   24395   24396   24396       0   24398   24399
   24399       0   24401   24402   24402       0   24404   24405   24405       0
   24407   24408   24408       0   24410   24411   24411       0   24413   24414
   24414       0   24416   24417   24417       0   24419   24420   24420       0
   24422   24423   24423       0   24425   24426   24426       0   24428   24429
   24429       0   24431   24432   24432       0   24434   24435   24435       0
   24437   24438   24438       0   24440   24441   24441       0   24443   24444
   24444       0   24446   24447   24447       0   24449   24450   24450       0
   24452   24453   24453       0   24455   24456   24456       0   24458   24459
   24459       0   24461   24462   24462       0   24464   24465   24465       0
   24467   24468   24468       0   24470   24471   24471       0   24473   24474
   24474       0   24476   24477   24477       0   24479   24480   24480       0
   24482   24483   24483       0   24485   24486   24486       0   24488   24489
   24489       0   24491   24492   24492       0   24494   24495   24495       0
   24497   24498   24498       0   24500   24501   24501       0   24503   24504
   24504       0   24506   24507   24507       0   24509   24510   24510       0
   24512   24513   24513       0   24515   24516   24516       0   24518   24519
   24519       0   24521   24522   24522       0   24524   24525   24525       0
   24527   24528   24528       0   24530   24531   24531       0   24533   24534
   24534       0   24536   24537   24537       0   24539   24540   24540       0
   24542   24543   24543       0   24545   24546   24546       0   24548   24549
   24549       0   24551   24552   24552       0   24554   24555   24555       0
   24557   24558   24558       0   24560   24561   24561       0   24563   24564
   24564       0   24566   24567   24567       0   24569   24570   24570       0
   24572   24573   24573       0   24575   24576   24576       0   24578   24579
   24579       0   24581   24582   24582       0   24584   24585   24585       0
   24587   24588   24588       0   24590   24591   24591       0   24593   24594
   24594       0   24596   24597   24597       0   24599   24600   24600       0
   24602   24603   24603       0   24605   24606   24606       0   24608   24609
   24609       0   24611   24612   24612       0   24614   24615   24615       0
   24617   24618   24618       0   24620   24621   24621       0   24623   24624
   24624       0   24626   24627   24627       0   24629   24630   24630       0
   24632   24633   24633       0   24635   24636   24636       0   24638   24639
   24639       0   24641   24642   24642       0   24644   24645   24645       0
   24647   24648   24648       0   24650   24651   24651       0   24653   24654
   24654       0   24656   24657   24657       0   24659   24660   24660       0
   24662   24663   24663       0   24665   24666   24666       0   24668   24669
   24669       0   24671   24672   24672       0   24674   24675   24675       0
   24677   24678   24678       0   24680   24681   24681       0   24683   24684
   24684       0   24686   24687   24687       0   24689   24690   24690       0
   24692   24693   24693       0   24695   24696   24696       0   24698   24699
   24699       0   24701   24702   24702       0   24704   24705   24705       0
   24707   24708   24708       0   24710   24711   24711       0   24713   24714
   24714       0   24716   24717   24717       0   24719   24720   24720       0
   24722   24723   24723       0   24725   24726   24726       0   24728   24729
   24729       0   24731   24732   24732       0   24734   24735   24735       0
   24737   24738   24738       0   24740   24741   24741       0   24743   24744
   24744       0   24746   24747   24747       0   24749   24750   24750       0
   24752   24753   24753       0   24755   24756   24756       0   24758   24759
   24759       0   24761   24762   24762       0   24764   24765   24765       0
   24767   24768   24768       0   24770   24771   24771       0   24773   24774
   24774       0   24776   24777   24777       0   24779   24780   24780       0
   24782   24783   24783       0   24785   24786   24786       0   24788   24789
   24789       0   24791   24792   24792       0   24794   24795   24795       0
   24797   24798   24798       0   24800   24801   24801       0   24803   24804
   24804       0   24806   24807   24807       0   24809   24810   24810       0
   24812   24813   24813       0   24815   24816   24816       0   24818   24819
   24819       0   24821   24822   24822       0   24824   24825   24825       0
   24827   24828   24828       0   24830   24831   24831       0   24833   24834
   24834       0   24836   24837   24837       0   24839   24840   24840       0
   24842   24843   24843       0   24845   24846   24846       0   24848   24849
   24849       0   24851   24852   24852       0   24854   24855   24855       0
   24857   24858   24858       0   24860   24861   24861       0   24863   24864
   24864       0   24866   24867   24867       0   24869   24870   24870       0
   24872   24873   24873       0   24875   24876   24876       0   24878   24879
   24879       0   24881   24882   24882       0   24884   24885   24885       0
   24887   24888   24888       0   24890   24891   24891       0   24893   24894
   24894       0   24896   24897   24897       0   24899   24900   24900       0
   24902   24903   24903       0   24905   24906   24906       0   24908   24909
   24909       0   24911   24912   24912       0   24914   24915   24915       0
   24917   24918   24918       0   24920   24921   24921       0   24923   24924
   24924       0   24926   24927   24927       0   24929   24930   24930       0
   24932   24933   24933       0   24935   24936   24936       0   24938   24939
   24939       0   24941   24942   24942       0   24944   24945   24945       0
   24947   24948   24948       0   24950   24951   24951       0   24953   24954
   24954       0   24956   24957   24957       0   24959   24960   24960       0
   24962   24963   24963       0   24965   24966   24966       0   24968   24969
   24969       0   24971   24972   24972       0   24974   24975   24975       0
   24977   24978   24978       0   24980   24981   24981       0   24983   24984
   24984       0   24986   24987   24987       0   24989   24990   24990       0
   24992   24993   24993       0   24995   24996   24996       0   24998   24999
   24999       0   25001   25002   25002       0   25004   25005   25005       0
   25007   25008   25008       0   25010   25011   25011       0   25013   25014
   25014       0   25016   25017   25017       0   25019   25020   25020       0
   25022   25023   25023       0   25025   25026   25026       0   25028   25029
   25029       0   25031   25032   25032       0   25034   25035   25035       0
   25037   25038   25038       0   25040   25041   25041       0   25043   25044
   25044       0   25046   25047   25047       0   25049   25050   25050       0
   25052   25053   25053       0   25055   25056   25056       0   25058   25059
   25059       0   25061   25062   25062       0   25064   25065   25065       0
   25067   25068   25068       0   25070   25071   25071       0   25073   25074
   25074       0   25076   25077   25077       0   25079   25080   25080       0
   25082   25083   25083       0   25085   25086   25086       0   25088   25089
   25089       0   25091   25092   25092       0   25094   25095   25095       0
   25097   25098   25098       0   25100   25101   25101       0   25103   25104
   25104       0   25106   25107   25107       0   25109   25110   25110       0
   25112   25113   25113       0   25115   25116   25116       0   25118   25119
   25119       0   25121   25122   25122       0   25124   25125   25125       0
   25127   25128   25128       0   25130   25131   25131       0   25133   25134
   25134       0   25136   25137   25137       0   25139   25140   25140       0
   25142   25143   25143       0   25145   25146   25146       0   25148   25149
   25149       0   25151   25152   25152       0   25154   25155   25155       0
   25157   25158   25158       0   25160   25161   25161       0   25163   25164
   25164       0   25166   25167   25167       0   25169   25170   25170       0
   25172   25173   25173       0   25175   25176   25176       0   25178   25179
   25179       0   25181   25182   25182       0   25184   25185   25185       0
   25187   25188   25188       0   25190   25191   25191       0   25193   25194
   25194       0   25196   25197   25197       0   25199   25200   25200       0
   25202   25203   25203       0   25205   25206   25206       0   25208   25209
   25209       0   25211   25212   25212       0   25214   25215   25215       0
   25217   25218   25218       0   25220   25221   25221       0   25223   25224
   25224       0   25226   25227   25227       0   25229   25230   25230       0
   25232   25233   25233       0   25235   25236   25236       0   25238   25239
   25239       0   25241   25242   25242       0   25244   25245   25245       0
   25247   25248   25248       0   25250   25251   25251       0   25253   25254
   25254       0   25256   25257   25257       0   25259   25260   25260       0
   25262   25263   25263       0   25265   25266   25266       0   25268   25269
   25269       0   25271   25272   25272       0   25274   25275   25275       0
   25277   25278   25278       0   25280   25281   25281       0   25283   25284
   25284       0   25286   25287   25287       0   25289   25290   25290       0
   25292   25293   25293       0   25295   25296   25296       0   25298   25299
   25299       0   25301   25302   25302       0   25304   25305   25305       0
   25307   25308   25308       0   25310   25311   25311       0   25313   25314
   25314       0   25316   25317   25317       0   25319   25320   25320       0
   25322   25323   25323       0   25325   25326   25326       0   25328   25329
   25329       0   25331   25332   25332       0   25334   25335   25335       0
   25337   25338   25338       0   25340   25341   25341       0   25343   25344
   25344       0   25346   25347   25347       0   25349   25350   25350       0
   25352   25353   25353       0   25355   25356   25356       0   25358   25359
   25359       0   25361   25362   25362       0   25364   25365   25365       0
   25367   25368   25368       0   25370   25371   25371       0   25373   25374
   25374       0   25376   25377   25377       0   25379   25380   25380       0
   25382   25383   25383       0   25385   25386   25386       0   25388   25389
   25389       0   25391   25392   25392       0   25394   25395   25395       0
   25397   25398   25398       0   25400   25401   25401       0   25403   25404
   25404       0   25406   25407   25407       0   25409   25410   25410       0
   25412   25413   25413       0   25415   25416   25416       0   25418   25419
   25419       0   25421   25422   25422       0   25424   25425   25425       0
   25427   25428   25428       0   25430   25431   25431       0   25433   25434
   25434       0   25436   25437   25437       0   25439   25440   25440       0
   25442   25443   25443       0   25445   25446   25446       0   25448   25449
   25449       0   25451   25452   25452       0   25454   25455   25455       0
   25457   25458   25458       0   25460   25461   25461       0   25463   25464
   25464       0   25466   25467   25467       0   25469   25470   25470       0
   25472   25473   25473       0   25475   25476   25476       0   25478   25479
   25479       0   25481   25482   25482       0   25484   25485   25485       0
   25487   25488   25488       0   25490   25491   25491       0   25493   25494
   25494       0   25496   25497   25497       0   25499   25500   25500       0
   25502   25503   25503       0   25505   25506   25506       0   25508   25509
   25509       0   25511   25512   25512       0   25514   25515   25515       0
   25517   25518   25518       0   25520   25521   25521       0   25523   25524
   25524       0   25526   25527   25527       0   25529   25530   25530       0
   25532   25533   25533       0   25535   25536   25536       0   25538   25539
   25539       0   25541   25542   25542       0   25544   25545   25545       0
   25547   25548   25548       0   25550   25551   25551       0   25553   25554
   25554       0   25556   25557   25557       0   25559   25560   25560       0
   25562   25563   25563       0   25565   25566   25566       0   25568   25569
   25569       0   25571   25572   25572       0   25574   25575   25575       0
   25577   25578   25578       0   25580   25581   25581       0   25583   25584
   25584       0   25586   25587   25587       0   25589   25590   25590       0
   25592   25593   25593       0   25595   25596   25596       0   25598   25599
   25599       0   25601   25602   25602       0   25604   25605   25605       0
   25607   25608   25608       0   25610   25611   25611       0   25613   25614
   25614       0   25616   25617   25617       0   25619   25620   25620       0
   25622   25623   25623       0   25625   25626   25626       0   25628   25629
   25629       0   25631   25632   25632       0   25634   25635   25635       0
   25637   25638   25638       0   25640   25641   25641       0   25643   25644
   25644       0   25646   25647   25647       0   25649   25650   25650       0
   25652   25653   25653       0   25655   25656   25656       0   25658   25659
   25659       0   25661   25662   25662       0   25664   25665   25665       0
   25667   25668   25668       0   25670   25671   25671       0   25673   25674
   25674       0   25676   25677   25677       0   25679   25680   25680       0
   25682   25683   25683       0   25685   25686   25686       0   25688   25689
   25689       0   25691   25692   25692       0   25694   25695   25695       0
   25697   25698   25698       0   25700   25701   25701       0   25703   25704
   25704       0   25706   25707   25707       0   25709   25710   25710       0
   25712   25713   25713       0   25715   25716   25716       0   25718   25719
   25719       0   25721   25722   25722       0   25724   25725   25725       0
   25727   25728   25728       0   25730   25731   25731       0   25733   25734
   25734       0   25736   25737   25737       0   25739   25740   25740       0
   25742   25743   25743       0   25745   25746   25746       0   25748   25749
   25749       0   25751   25752   25752       0   25754   25755   25755       0
   25757   25758   25758       0   25760   25761   25761       0   25763   25764
   25764       0   25766   25767   25767       0   25769   25770   25770       0
   25772   25773   25773       0   25775   25776   25776       0   25778   25779
   25779       0   25781   25782   25782       0   25784   25785   25785       0
   25787   25788   25788       0   25790   25791   25791       0   25793   25794
   25794       0   25796   25797   25797       0   25799   25800   25800       0
   25802   25803   25803       0   25805   25806   25806       0   25808   25809
   25809       0   25811   25812   25812       0   25814   25815   25815       0
   25817   25818   25818       0   25820   25821   25821       0   25823   25824
   25824       0   25826   25827   25827       0   25829   25830   25830       0
   25832   25833   25833       0   25835   25836   25836       0   25838   25839
   25839       0   25841   25842   25842       0   25844   25845   25845       0
   25847   25848   25848       0   25850   25851   25851       0   25853   25854
   25854       0   25856   25857   25857       0   25859   25860   25860       0
   25862   25863   25863       0   25865   25866   25866       0   25868   25869
   25869       0   25871   25872   25872       0   25874   25875   25875       0
   25877   25878   25878       0   25880   25881   25881       0   25883   25884
   25884       0   25886   25887   25887       0   25889   25890   25890       0
   25892   25893   25893       0   25895   25896   25896       0   25898   25899
   25899       0   25901   25902   25902       0   25904   25905   25905       0
   25907   25908   25908       0   25910   25911   25911       0   25913   25914
   25914       0   25916   25917   25917       0   25919   25920   25920       0
   25922   25923   25923       0   25925   25926   25926       0   25928   25929
   25929       0   25931   25932   25932       0   25934   25935   25935       0
   25937   25938   25938       0   25940   25941   25941       0   25943   25944
   25944       0   25946   25947   25947       0   25949   25950   25950       0
   25952   25953   25953       0   25955   25956   25956       0   25958   25959
   25959       0   25961   25962   25962       0   25964   25965   25965       0
   25967   25968   25968       0   25970   25971   25971       0   25973   25974
   25974       0   25976   25977   25977       0   25979   25980   25980       0
   25982   25983   25983       0   25985   25986   25986       0   25988   25989
   25989       0   25991   25992   25992       0   25994   25995   25995       0
   25997   25998   25998       0   26000   26001   26001       0   26003   26004
   26004       0   26006   26007   26007       0   26009   26010   26010       0
   26012   26013   26013       0   26015   26016   26016       0   26018   26019
   26019       0   26021   26022   26022       0   26024   26025   26025       0
   26027   26028   26028       0   26030   26031   26031       0   26033   26034
   26034       0   26036   26037   26037       0   26039   26040   26040       0
   26042   26043   26043       0   26045   26046   26046       0   26048   26049
   26049       0   26051   26052   26052       0   26054   26055   26055       0
   26057   26058   26058       0   26060   26061   26061       0   26063   26064
   26064       0   26066   26067   26067       0   26069   26070   26070       0
   26072   26073   26073       0   26075   26076   26076       0   26078   26079
   26079       0   26081   26082   26082       0   26084   26085   26085       0
   26087   26088   26088       0   26090   26091   26091       0   26093   26094
   26094       0   26096   26097   26097       0   26099   26100   26100       0
   26102   26103   26103       0   26105   26106   26106       0   26108   26109
   26109       0   26111   26112   26112       0   26114   26115   26115       0
   26117   26118   26118       0   26120   26121   26121       0   26123   26124
   26124       0   26126   26127   26127       0   26129   26130   26130       0
   26132   26133   26133       0   26135   26136   26136       0   26138   26139
   26139       0   26141   26142   26142       0   26144   26145   26145       0
   26147   26148   26148       0   26150   26151   26151       0   26153   26154
   26154       0   26156   26157   26157       0   26159   26160   26160       0
   26162   26163   26163       0   26165   26166   26166       0   26168   26169
   26169       0   26171   26172   26172       0   26174   26175   26175       0
   26177   26178   26178       0   26180   26181   26181       0   26183   26184
   26184       0   26186   26187   26187       0   26189   26190   26190       0
   26192   26193   26193       0   26195   26196   26196       0   26198   26199
   26199       0   26201   26202   26202       0   26204   26205   26205       0
   26207   26208   26208       0   26210   26211   26211       0   26213   26214
   26214       0   26216   26217   26217       0   26219   26220   26220       0
   26222   26223   26223       0   26225   26226   26226       0   26228   26229
   26229       0   26231   26232   26232       0   26234   26235   26235       0
   26237   26238   26238       0   26240   26241   26241       0   26243   26244
   26244       0   26246   26247   26247       0   26249   26250   26250       0
   26252   26253   26253       0   26255   26256   26256       0   26258   26259
   26259       0   26261   26262   26262       0   26264   26265   26265       0
   26267   26268   26268       0   26270   26271   26271       0   26273   26274
   26274       0   26276   26277   26277       0   26279   26280   26280       0
   26282   26283   26283       0   26285   26286   26286       0   26288   26289
   26289       0   26291   26292   26292       0   26294   26295   26295       0
   26297   26298   26298       0   26300   26301   26301       0   26303   26304
   26304       0   26306   26307   26307       0   26309   26310   26310       0
   26312   26313   26313       0   26315   26316   26316       0   26318   26319
   26319       0   26321   26322   26322       0   26324   26325   26325       0
   26327   26328   26328       0   26330   26331   26331       0   26333   26334
   26334       0   26336   26337   26337       0   26339   26340   26340       0
   26342   26343   26343       0   26345   26346   26346       0   26348   26349
   26349       0   26351   26352   26352       0   26354   26355   26355       0
   26357   26358   26358       0   26360   26361   26361       0   26363   26364
   26364       0   26366   26367   26367       0   26369   26370   26370       0
   26372   26373   26373       0   26375   26376   26376       0   26378   26379
   26379       0   26381   26382   26382       0   26384   26385   26385       0
   26387   26388   26388       0   26390   26391   26391       0   26393   26394
   26394       0   26396   26397   26397       0   26399   26400   26400       0
   26402   26403   26403       0   26405   26406   26406       0   26408   26409
   26409       0   26411   26412   26412       0   26414   26415   26415       0
   26417   26418   26418       0   26420   26421   26421       0   26423   26424
   26424       0   26426   26427   26427       0   26429   26430   26430       0
   26432   26433   26433       0   26435   26436   26436       0   26438   26439
   26439       0   26441   26442   26442       0   26444   26445   26445       0
   26447   26448   26448       0   26450   26451   26451       0   26453   26454
   26454       0   26456   26457   26457       0   26459   26460   26460       0
   26462   26463   26463       0   26465   26466   26466       0   26468   26469
   26469       0   26471   26472   26472       0   26474   26475   26475       0
   26477   26478   26478       0   26480   26481   26481       0   26483   26484
   26484       0   26486   26487   26487       0   26489   26490   26490       0
   26492   26493   26493       0   26495   26496   26496       0   26498   26499
   26499       0   26501   26502   26502       0   26504   26505   26505       0
   26507   26508   26508       0   26510   26511   26511       0   26513   26514
   26514       0   26516   26517   26517       0   26519   26520   26520       0
   26522   26523   26523       0   26525   26526   26526       0   26528   26529
   26529       0   26531   26532   26532       0   26534   26535   26535       0
   26537   26538   26538       0   26540   26541   26541       0   26543   26544
   26544       0   26546   26547   26547       0   26549   26550   26550       0
   26552   26553   26553       0   26555   26556   26556       0   26558   26559
   26559       0   26561   26562   26562       0   26564   26565   26565       0
   26567   26568   26568       0   26570   26571   26571       0   26573   26574
   26574       0   26576   26577   26577       0   26579   26580   26580       0
   26582   26583   26583       0   26585   26586   26586       0   26588   26589
   26589       0   26591   26592   26592       0   26594   26595   26595       0
   26597   26598   26598       0   26600   26601   26601       0   26603   26604
   26604       0   26606   26607   26607       0   26609   26610   26610       0
   26612   26613   26613       0   26615   26616   26616       0   26618   26619
   26619       0   26621   26622   26622       0   26624   26625   26625       0
   26627   26628   26628       0   26630   26631   26631       0   26633   26634
   26634       0   26636   26637   26637       0   26639   26640   26640       0
   26642   26643   26643       0   26645   26646   26646       0   26648   26649
   26649       0   26651   26652   26652       0   26654   26655   26655       0
   26657   26658   26658       0   26660   26661   26661       0   26663   26664
   26664       0   26666   26667   26667       0   26669   26670   26670       0
   26672   26673   26673       0   26675   26676   26676       0   26678   26679
   26679       0   26681   26682   26682       0   26684   26685   26685       0
   26687   26688   26688       0   26690   26691   26691       0   26693   26694
   26694       0   26696   26697   26697       0   26699   26700   26700       0
   26702   26703   26703       0   26705   26706   26706       0   26708   26709
   26709       0   26711   26712   26712       0   26714   26715   26715       0
   26717   26718   26718       0   26720   26721   26721       0   26723   26724
   26724       0   26726   26727   26727       0   26729   26730   26730       0
   26732   26733   26733       0   26735   26736   26736       0   26738   26739
   26739       0   26741   26742   26742       0   26744   26745   26745       0
   26747   26748   26748       0   26750   26751   26751       0   26753   26754
   26754       0   26756   26757   26757       0   26759   26760   26760       0
   26762   26763   26763       0   26765   26766   26766       0   26768   26769
   26769       0   26771   26772   26772       0   26774   26775   26775       0
   26777   26778   26778       0   26780   26781   26781       0   26783   26784
   26784       0   26786   26787   26787       0   26789   26790   26790       0
   26792   26793   26793       0   26795   26796   26796       0   26798   26799
   26799       0   26801   26802   26802       0   26804   26805   26805       0
   26807   26808   26808       0   26810   26811   26811       0   26813   26814
   26814       0   26816   26817   26817       0   26819   26820   26820       0
   26822   26823   26823       0   26825   26826   26826       0   26828   26829
   26829       0   26831   26832   26832       0   26834   26835   26835       0
   26837   26838   26838       0   26840   26841   26841       0   26843   26844
   26844       0   26846   26847   26847       0   26849   26850   26850       0
   26852   26853   26853       0   26855   26856   26856       0   26858   26859
   26859       0   26861   26862   26862       0   26864   26865   26865       0
   26867   26868   26868       0   26870   26871   26871       0   26873   26874
   26874       0   26876   26877   26877       0   26879   26880   26880       0
   26882   26883   26883       0   26885   26886   26886       0   26888   26889
   26889       0   26891   26892   26892       0   26894   26895   26895       0
   26897   26898   26898       0   26900   26901   26901       0   26903   26904
   26904       0   26906   26907   26907       0   26909   26910   26910       0
   26912   26913   26913       0   26915   26916   26916       0   26918   26919
   26919       0   26921   26922   26922       0   26924   26925   26925       0
   26927   26928   26928       0   26930   26931   26931       0   26933   26934
   26934       0   26936   26937   26937       0   26939   26940   26940       0
   26942   26943   26943       0   26945   26946   26946       0   26948   26949
   26949       0   26951   26952   26952       0   26954   26955   26955       0
   26957   26958   26958       0   26960   26961   26961       0   26963   26964
   26964       0   26966   26967   26967       0   26969   26970   26970       0
   26972   26973   26973       0   26975   26976   26976       0   26978   26979
   26979       0   26981   26982   26982       0   26984   26985   26985       0
   26987   26988   26988       0   26990   26991   26991       0   26993   26994
   26994       0   26996   26997   26997       0   26999   27000   27000       0
   27002   27003   27003       0   27005   27006   27006       0   27008   27009
   27009       0   27011   27012   27012       0   27014   27015   27015       0
   27017   27018   27018       0   27020   27021   27021       0   27023   27024
   27024       0   27026   27027   27027       0   27029   27030   27030       0
   27032   27033   27033       0   27035   27036   27036       0   27038   27039
   27039       0   27041   27042   27042       0   27044   27045   27045       0
   27047   27048   27048       0   27050   27051   27051       0   27053   27054
   27054       0   27056   27057   27057       0   27059   27060   27060       0
   27062   27063   27063       0   27065   27066   27066       0   27068   27069
   27069       0   27071   27072   27072       0   27074   27075   27075       0
   27077   27078   27078       0   27080   27081   27081       0   27083   27084
   27084       0   27086   27087   27087       0   27089   27090   27090       0
   27092   27093   27093       0   27095   27096   27096       0   27098   27099
   27099       0   27101   27102   27102       0   27104   27105   27105       0
   27107   27108   27108       0   27110   27111   27111       0   27113   27114
   27114       0   27116   27117   27117       0   27119   27120   27120       0
   27122   27123   27123       0   27125   27126   27126       0   27128   27129
   27129       0   27131   27132   27132       0   27134   27135   27135       0
   27137   27138   27138       0   27140   27141   27141       0   27143   27144
   27144       0   27146   27147   27147       0   27149   27150   27150       0
   27152   27153   27153       0   27155   27156   27156       0   27158   27159
   27159       0   27161   27162   27162       0   27164   27165   27165       0
   27167   27168   27168       0   27170   27171   27171       0   27173   27174
   27174       0   27176   27177   27177       0   27179   27180   27180       0
   27182   27183   27183       0   27185   27186   27186       0   27188   27189
   27189       0   27191   27192   27192       0   27194   27195   27195       0
   27197   27198   27198       0   27200   27201   27201       0   27203   27204
   27204       0   27206   27207   27207       0   27209   27210   27210       0
   27212   27213   27213       0   27215   27216   27216       0   27218   27219
   27219       0   27221   27222   27222       0   27224   27225   27225       0
   27227   27228   27228       0   27230   27231   27231       0   27233   27234
   27234       0   27236   27237   27237       0   27239   27240   27240       0
   27242   27243   27243       0   27245   27246   27246       0   27248   27249
   27249       0   27251   27252   27252       0   27254   27255   27255       0
   27257   27258   27258       0   27260   27261   27261       0   27263   27264
   27264       0   27266   27267   27267       0   27269   27270   27270       0
   27272   27273   27273       0   27275   27276   27276       0   27278   27279
   27279       0   27281   27282   27282       0   27284   27285   27285       0
   27287   27288   27288       0   27290   27291   27291       0   27293   27294
   27294       0   27296   27297   27297       0   27299   27300   27300       0
   27302   27303   27303       0   27305   27306   27306       0   27308   27309
   27309       0   27311   27312   27312       0   27314   27315   27315       0
   27317   27318   27318       0   27320   27321   27321       0   27323   27324
   27324       0   27326   27327   27327       0   27329   27330   27330       0
   27332   27333   27333       0   27335   27336   27336       0   27338   27339
   27339       0   27341   27342   27342       0   27344   27345   27345       0
   27347   27348   27348       0   27350   27351   27351       0   27353   27354
   27354       0   27356   27357   27357       0   27359   27360   27360       0
   27362   27363   27363       0   27365   27366   27366       0   27368   27369
   27369       0   27371   27372   27372       0   27374   27375   27375       0
   27377   27378   27378       0   27380   27381   27381       0   27383   27384
   27384       0   27386   27387   27387       0   27389   27390   27390       0
   27392   27393   27393       0   27395   27396   27396       0   27398   27399
   27399       0   27401   27402   27402       0   27404   27405   27405       0
   27407   27408   27408       0   27410   27411   27411       0   27413   27414
   27414       0   27416   27417   27417       0   27419   27420   27420       0
   27422   27423   27423       0   27425   27426   27426       0   27428   27429
   27429       0   27431   27432   27432       0   27434   27435   27435       0
   27437   27438   27438       0   27440   27441   27441       0   27443   27444
   27444       0   27446   27447   27447       0   27449   27450   27450       0
   27452   27453   27453       0   27455   27456   27456       0   27458   27459
   27459       0   27461   27462   27462       0   27464   27465   27465       0
   27467   27468   27468       0   27470   27471   27471       0   27473   27474
   27474       0   27476   27477   27477       0   27479   27480   27480       0
   27482   27483   27483       0   27485   27486   27486       0   27488   27489
   27489       0   27491   27492   27492       0   27494   27495   27495       0
   27497   27498   27498       0   27500   27501   27501       0   27503   27504
   27504       0   27506   27507   27507       0   27509   27510   27510       0
   27512   27513   27513       0   27515   27516   27516       0   27518   27519
   27519       0   27521   27522   27522       0   27524   27525   27525       0
   27527   27528   27528       0   27530   27531   27531       0   27533   27534
   27534       0   27536   27537   27537       0   27539   27540   27540       0
   27542   27543   27543       0   27545   27546   27546       0   27548   27549
   27549       0   27551   27552   27552       0   27554   27555   27555       0
   27557   27558   27558       0   27560   27561   27561       0   27563   27564
   27564       0   27566   27567   27567       0   27569   27570   27570       0
   27572   27573   27573       0   27575   27576   27576       0   27578   27579
   27579       0   27581   27582   27582       0   27584   27585   27585       0
   27587   27588   27588       0   27590   27591   27591       0   27593   27594
   27594       0   27596   27597   27597       0   27599   27600   27600       0
   27602   27603   27603       0   27605   27606   27606       0   27608   27609
   27609       0   27611   27612   27612       0   27614   27615   27615       0
   27617   27618   27618       0   27620   27621   27621       0   27623   27624
   27624       0   27626   27627   27627       0   27629   27630   27630       0
   27632   27633   27633       0   27635   27636   27636       0   27638   27639
   27639       0   27641   27642   27642       0   27644   27645   27645       0
   27647   27648   27648       0   27650   27651   27651       0   27653   27654
   27654       0   27656   27657   27657       0   27659   27660   27660       0
   27662   27663   27663       0   27665   27666   27666       0   27668   27669
   27669       0   27671   27672   27672       0   27674   27675   27675       0
   27677   27678   27678       0   27680   27681   27681       0   27683   27684
   27684       0   27686   27687   27687       0   27689   27690   27690       0
   27692   27693   27693       0   27695   27696   27696       0   27698   27699
   27699       0   27701   27702   27702       0   27704   27705   27705       0
   27707   27708   27708       0   27710   27711   27711       0   27713   27714
   27714       0   27716   27717   27717       0   27719   27720   27720       0
   27722   27723   27723       0   27725   27726   27726       0   27728   27729
   27729       0   27731   27732   27732       0   27734   27735   27735       0
   27737   27738   27738       0   27740   27741   27741       0   27743   27744
   27744       0   27746   27747   27747       0   27749   27750   27750       0
   27752   27753   27753       0   27755   27756   27756       0   27758   27759
   27759       0   27761   27762   27762       0   27764   27765   27765       0
   27767   27768   27768       0   27770   27771   27771       0   27773   27774
   27774       0   27776   27777   27777       0   27779   27780   27780       0
   27782   27783   27783       0   27785   27786   27786       0   27788   27789
   27789       0   27791   27792   27792       0   27794   27795   27795       0
   27797   27798   27798       0   27800   27801   27801       0   27803   27804
   27804       0   27806   27807   27807       0   27809   27810   27810       0
   27812   27813   27813       0   27815   27816   27816       0   27818   27819
   27819       0   27821   27822   27822       0   27824   27825   27825       0
   27827   27828   27828       0   27830   27831   27831       0   27833   27834
   27834       0   27836   27837   27837       0   27839   27840   27840       0
   27842   27843   27843       0   27845   27846   27846       0   27848   27849
   27849       0   27851   27852   27852       0   27854   27855   27855       0
   27857   27858   27858       0   27860   27861   27861       0   27863   27864
   27864       0   27866   27867   27867       0   27869   27870   27870       0
   27872   27873   27873       0   27875   27876   27876       0   27878   27879
   27879       0   27881   27882   27882       0   27884   27885   27885       0
   27887   27888   27888       0   27890   27891   27891       0   27893   27894
   27894       0   27896   27897   27897       0   27899   27900   27900       0
   27902   27903   27903       0   27905   27906   27906       0   27908   27909
   27909       0   27911   27912   27912       0   27914   27915   27915       0
   27917   27918   27918       0   27920   27921   27921       0   27923   27924
   27924       0   27926   27927   27927       0   27929   27930   27930       0
   27932   27933   27933       0   27935   27936   27936       0   27938   27939
   27939       0   27941   27942   27942       0   27944   27945   27945       0
   27947   27948   27948       0   27950   27951   27951       0   27953   27954
   27954       0   27956   27957   27957       0   27959   27960   27960       0
   27962   27963   27963       0   27965   27966   27966       0   27968   27969
   27969       0   27971   27972   27972       0   27974   27975   27975       0
   27977   27978   27978       0   27980   27981   27981       0   27983   27984
   27984       0   27986   27987   27987       0   27989   27990   27990       0
   27992   27993   27993       0   27995   27996   27996       0   27998   27999
   27999       0   28001   28002   28002       0   28004   28005   28005       0
   28007   28008   28008       0   28010   28011   28011       0   28013   28014
   28014       0   28016   28017   28017       0   28019   28020   28020       0
   28022   28023   28023       0   28025   28026   28026       0   28028   28029
   28029       0   28031   28032   28032       0   28034   28035   28035       0
   28037   28038   28038       0   28040   28041   28041       0   28043   28044
   28044       0   28046   28047   28047       0   28049   28050   28050       0
   28052   28053   28053       0   28055   28056   28056       0   28058   28059
   28059       0   28061   28062   28062       0   28064   28065   28065       0
   28067   28068   28068       0   28070   28071   28071       0   28073   28074
   28074       0   28076   28077   28077       0   28079   28080   28080       0
   28082   28083   28083       0   28085   28086   28086       0   28088   28089
   28089       0   28091   28092   28092       0   28094   28095   28095       0
   28097   28098   28098       0   28100   28101   28101       0   28103   28104
   28104       0   28106   28107   28107       0   28109   28110   28110       0
   28112   28113   28113       0   28115   28116   28116       0   28118   28119
   28119       0   28121   28122   28122       0   28124   28125   28125       0
   28127   28128   28128       0   28130   28131   28131       0   28133   28134
   28134       0   28136   28137   28137       0   28139   28140   28140       0
   28142   28143   28143       0   28145   28146   28146       0   28148   28149
   28149       0   28151   28152   28152       0   28154   28155   28155       0
   28157   28158   28158       0   28160   28161   28161       0   28163   28164
   28164       0   28166   28167   28167       0   28169   28170   28170       0
   28172   28173   28173       0   28175   28176   28176       0   28178   28179
   28179       0   28181   28182   28182       0   28184   28185   28185       0
   28187   28188   28188       0   28190   28191   28191       0   28193   28194
   28194       0   28196   28197   28197       0   28199   28200   28200       0
   28202   28203   28203       0   28205   28206   28206       0   28208   28209
   28209       0   28211   28212   28212       0   28214   28215   28215       0
   28217   28218   28218       0   28220   28221   28221       0   28223   28224
   28224       0   28226   28227   28227       0   28229   28230   28230       0
   28232   28233   28233       0   28235   28236   28236       0   28238   28239
   28239       0   28241   28242   28242       0   28244   28245   28245       0
   28247   28248   28248       0   28250   28251   28251       0   28253   28254
   28254       0   28256   28257   28257       0   28259   28260   28260       0
   28262   28263   28263       0   28265   28266   28266       0   28268   28269
   28269       0   28271   28272   28272       0   28274   28275   28275       0
   28277   28278   28278       0   28280   28281   28281       0   28283   28284
   28284       0   28286   28287   28287       0   28289   28290   28290       0
   28292   28293   28293       0   28295   28296   28296       0   28298   28299
   28299       0   28301   28302   28302       0   28304   28305   28305       0
   28307   28308   28308       0   28310   28311   28311       0   28313   28314
   28314       0   28316   28317   28317       0   28319   28320   28320       0
   28322   28323   28323       0   28325   28326   28326       0   28328   28329
   28329       0   28331   28332   28332       0   28334   28335   28335       0
   28337   28338   28338       0   28340   28341   28341       0   28343   28344
   28344       0   28346   28347   28347       0   28349   28350   28350       0
   28352   28353   28353       0   28355   28356   28356       0   28358   28359
   28359       0   28361   28362   28362       0   28364   28365   28365       0
   28367   28368   28368       0   28370   28371   28371       0   28373   28374
   28374       0   28376   28377   28377       0   28379   28380   28380       0
   28382   28383   28383       0   28385   28386   28386       0   28388   28389
   28389       0   28391   28392   28392       0   28394   28395   28395       0
   28397   28398   28398       0   28400   28401   28401       0   28403   28404
   28404       0   28406   28407   28407       0   28409   28410   28410       0
   28412   28413   28413       0   28415   28416   28416       0   28418   28419
   28419       0   28421   28422   28422       0   28424   28425   28425       0
   28427   28428   28428       0   28430   28431   28431       0   28433   28434
   28434       0   28436   28437   28437       0   28439   28440   28440       0
   28442   28443   28443       0   28445   28446   28446       0   28448   28449
   28449       0   28451   28452   28452       0   28454   28455   28455       0
   28457   28458   28458       0   28460   28461   28461       0   28463   28464
   28464       0   28466   28467   28467       0   28469   28470   28470       0
   28472   28473   28473       0   28475   28476   28476       0   28478   28479
   28479       0   28481   28482   28482       0   28484   28485   28485       0
   28487   28488   28488       0   28490   28491   28491       0   28493   28494
   28494       0   28496   28497   28497       0   28499   28500   28500       0
   28502   28503   28503       0   28505   28506   28506       0   28508   28509
   28509       0   28511   28512   28512       0   28514   28515   28515       0
   28517   28518   28518       0   28520   28521   28521       0   28523   28524
   28524       0   28526   28527   28527       0   28529   28530   28530       0
   28532   28533   28533       0   28535   28536   28536       0   28538   28539
   28539       0   28541   28542   28542       0   28544   28545   28545       0
   28547   28548   28548       0   28550   28551   28551       0   28553   28554
   28554       0   28556   28557   28557       0   28559   28560   28560       0
   28562   28563   28563       0   28565   28566   28566       0   28568   28569
   28569       0   28571   28572   28572       0   28574   28575   28575       0
   28577   28578   28578       0   28580   28581   28581       0   28583   28584
   28584       0   28586   28587   28587       0   28589   28590   28590       0
   28592   28593   28593       0   28595   28596   28596       0   28598   28599
   28599       0   28601   28602   28602       0   28604   28605   28605       0
   28607   28608   28608       0   28610   28611   28611       0   28613   28614
   28614       0   28616   28617   28617       0   28619   28620   28620       0
   28622   28623   28623       0   28625   28626   28626       0   28628   28629
   28629       0   28631   28632   28632       0   28634   28635   28635       0
   28637   28638   28638       0   28640   28641   28641       0   28643   28644
   28644       0   28646   28647   28647       0   28649   28650   28650       0
   28652   28653   28653       0   28655   28656   28656       0   28658   28659
   28659       0   28661   28662   28662       0   28664   28665   28665       0
   28667   28668   28668       0   28670   28671   28671       0   28673   28674
   28674       0   28676   28677   28677       0   28679   28680   28680       0
   28682   28683   28683       0   28685   28686   28686       0   28688   28689
   28689       0   28691   28692   28692       0   28694   28695   28695       0
   28697   28698   28698       0   28700   28701   28701       0   28703   28704
   28704       0   28706   28707   28707       0   28709   28710   28710       0
   28712   28713   28713       0   28715   28716   28716       0   28718   28719
   28719       0   28721   28722   28722       0   28724   28725   28725       0
   28727   28728   28728       0   28730   28731   28731       0   28733   28734
   28734       0   28736   28737   28737       0   28739   28740   28740       0
   28742   28743   28743       0   28745   28746   28746       0   28748   28749
   28749       0   28751   28752   28752       0   28754   28755   28755       0
   28757   28758   28758       0   28760   28761   28761       0   28763   28764
   28764       0   28766   28767   28767       0   28769   28770   28770       0
   28772   28773   28773       0   28775   28776   28776       0   28778   28779
   28779       0   28781   28782   28782       0   28784   28785   28785       0
   28787   28788   28788       0   28790   28791   28791       0   28793   28794
   28794       0   28796   28797   28797       0   28799   28800   28800       0
   28802   28803   28803       0   28805   28806   28806       0   28808   28809
   28809       0   28811   28812   28812       0   28814   28815   28815       0
   28817   28818   28818       0   28820   28821   28821       0   28823   28824
   28824       0   28826   28827   28827       0   28829   28830   28830       0
   28832   28833   28833       0   28835   28836   28836       0   28838   28839
   28839       0   28841   28842   28842       0   28844   28845   28845       0
   28847   28848   28848       0   28850   28851   28851       0   28853   28854
   28854       0   28856   28857   28857       0   28859   28860   28860       0
   28862   28863   28863       0   28865   28866   28866       0   28868   28869
   28869       0   28871   28872   28872       0   28874   28875   28875       0
   28877   28878   28878       0   28880   28881   28881       0   28883   28884
   28884       0   28886   28887   28887       0   28889   28890   28890       0
   28892   28893   28893       0   28895   28896   28896       0   28898   28899
   28899       0   28901   28902   28902       0   28904   28905   28905       0
   28907   28908   28908       0   28910   28911   28911       0   28913   28914
   28914       0   28916   28917   28917       0   28919   28920   28920       0
   28922   28923   28923       0   28925   28926   28926       0   28928   28929
   28929       0   28931   28932   28932       0   28934   28935   28935       0
   28937   28938   28938       0   28940   28941   28941       0   28943   28944
   28944       0   28946   28947   28947       0   28949   28950   28950       0
   28952   28953   28953       0   28955   28956   28956       0   28958   28959
   28959       0   28961   28962   28962       0   28964   28965   28965       0
   28967   28968   28968       0   28970   28971   28971       0   28973   28974
   28974       0   28976   28977   28977       0   28979   28980   28980       0
   28982   28983   28983       0   28985   28986   28986       0   28988   28989
   28989       0   28991   28992   28992       0   28994   28995   28995       0
   28997   28998   28998       0   29000   29001   29001       0   29003   29004
   29004       0   29006   29007   29007       0   29009   29010   29010       0
   29012   29013   29013       0   29015   29016   29016       0   29018   29019
   29019       0   29021   29022   29022       0   29024   29025   29025       0
   29027   29028   29028       0   29030   29031   29031       0   29033   29034
   29034       0   29036   29037   29037       0   29039   29040   29040       0
   29042   29043   29043       0   29045   29046   29046       0   29048   29049
   29049       0   29051   29052   29052       0   29054   29055   29055       0
   29057   29058   29058       0   29060   29061   29061       0   29063   29064
   29064       0   29066   29067   29067       0   29069   29070   29070       0
   29072   29073   29073       0   29075   29076   29076       0   29078   29079
   29079       0   29081   29082   29082       0   29084   29085   29085       0
   29087   29088   29088       0   29090   29091   29091       0   29093   29094
   29094       0   29096   29097   29097       0   29099   29100   29100       0
   29102   29103   29103       0   29105   29106   29106       0   29108   29109
   29109       0   29111   29112   29112       0   29114   29115   29115       0
   29117   29118   29118       0   29120   29121   29121       0   29123   29124
   29124       0   29126   29127   29127       0   29129   29130   29130       0
   29132   29133   29133       0   29135   29136   29136       0   29138   29139
   29139       0   29141   29142   29142       0   29144   29145   29145       0
   29147   29148   29148       0   29150   29151   29151       0   29153   29154
   29154       0   29156   29157   29157       0   29159   29160   29160       0
   29162   29163   29163       0   29165   29166   29166       0   29168   29169
   29169       0   29171   29172   29172       0   29174   29175   29175       0
   29177   29178   29178       0   29180   29181   29181       0   29183   29184
   29184       0   29186   29187   29187       0   29189   29190   29190       0
   29192   29193   29193       0   29195   29196   29196       0   29198   29199
   29199       0   29201   29202   29202       0   29204   29205   29205       0
   29207   29208   29208       0   29210   29211   29211       0   29213   29214
   29214       0   29216   29217   29217       0   29219   29220   29220       0
   29222   29223   29223       0   29225   29226   29226       0   29228   29229
   29229       0   29231   29232   29232       0   29234   29235   29235       0
   29237   29238   29238       0   29240   29241   29241       0   29243   29244
   29244       0   29246   29247   29247       0   29249   29250   29250       0
   29252   29253   29253       0   29255   29256   29256       0   29258   29259
   29259       0   29261   29262   29262       0   29264   29265   29265       0
   29267   29268   29268       0   29270   29271   29271       0   29273   29274
   29274       0   29276   29277   29277       0   29279   29280   29280       0
   29282   29283   29283       0   29285   29286   29286       0   29288   29289
   29289       0   29291   29292   29292       0   29294   29295   29295       0
   29297   29298   29298       0   29300   29301   29301       0   29303   29304
   29304       0   29306   29307   29307       0   29309   29310   29310       0
   29312   29313   29313       0   29315   29316   29316       0   29318   29319
   29319       0   29321   29322   29322       0   29324   29325   29325       0
   29327   29328   29328       0   29330   29331   29331       0   29333   29334
   29334       0   29336   29337   29337       0   29339   29340   29340       0
   29342   29343   29343       0   29345   29346   29346       0   29348   29349
   29349       0   29351   29352   29352       0   29354   29355   29355       0
   29357   29358   29358       0   29360   29361   29361       0   29363   29364
   29364       0   29366   29367   29367       0   29369   29370   29370       0
   29372   29373   29373       0   29375   29376   29376       0   29378   29379
   29379       0   29381   29382   29382       0   29384   29385   29385       0
   29387   29388   29388       0   29390   29391   29391       0   29393   29394
   29394       0   29396   29397   29397       0   29399   29400   29400       0
   29402   29403   29403       0   29405   29406   29406       0   29408   29409
   29409       0   29411   29412   29412       0   29414   29415   29415       0
   29417   29418   29418       0   29420   29421   29421       0   29423   29424
   29424       0   29426   29427   29427       0   29429   29430   29430       0
   29432   29433   29433       0   29435   29436   29436       0   29438   29439
   29439       0   29441   29442   29442       0   29444   29445   29445       0
   29447   29448   29448       0   29450   29451   29451       0   29453   29454
   29454       0   29456   29457   29457       0   29459   29460   29460       0
   29462   29463   29463       0   29465   29466   29466       0   29468   29469
   29469       0   29471   29472   29472       0   29474   29475   29475       0
   29477   29478   29478       0   29480   29481   29481       0   29483   29484
   29484       0   29486   29487   29487       0   29489   29490   29490       0
   29492   29493   29493       0   29495   29496   29496       0   29498   29499
   29499       0   29501   29502   29502       0   29504   29505   29505       0
   29507   29508   29508       0   29510   29511   29511       0   29513   29514
   29514       0   29516   29517   29517       0   29519   29520   29520       0
   29522   29523   29523       0   29525   29526   29526       0   29528   29529
   29529       0   29531   29532   29532       0   29534   29535   29535       0
   29537   29538   29538       0   29540   29541   29541       0   29543   29544
   29544       0   29546   29547   29547       0   29549   29550   29550       0
   29552   29553   29553       0   29555   29556   29556       0   29558   29559
   29559       0   29561   29562   29562       0   29564   29565   29565       0
   29567   29568   29568       0   29570   29571   29571       0   29573   29574
   29574       0   29576   29577   29577       0   29579   29580   29580       0
   29582   29583   29583       0   29585   29586   29586       0   29588   29589
   29589       0   29591   29592   29592       0   29594   29595   29595       0
   29597   29598   29598       0   29600   29601   29601       0   29603   29604
   29604       0   29606   29607   29607       0   29609   29610   29610       0
   29612   29613   29613       0   29615   29616   29616       0   29618   29619
   29619       0   29621   29622   29622       0   29624   29625   29625       0
   29627   29628   29628       0   29630   29631   29631       0   29633   29634
   29634       0   29636   29637   29637       0   29639   29640   29640       0
   29642   29643   29643       0   29645   29646   29646       0   29648   29649
   29649       0   29651   29652   29652       0   29654   29655   29655       0
   29657   29658   29658       0   29660   29661   29661       0   29663   29664
   29664       0   29666   29667   29667       0   29669   29670   29670       0
   29672   29673   29673       0   29675   29676   29676       0   29678   29679
   29679       0   29681   29682   29682       0   29684   29685   29685       0
   29687   29688   29688       0   29690   29691   29691       0   29693   29694
   29694       0   29696   29697   29697       0   29699   29700   29700       0
   29702   29703   29703       0   29705   29706   29706       0   29708   29709
   29709       0   29711   29712   29712       0   29714   29715   29715       0
   29717   29718   29718       0   29720   29721   29721       0   29723   29724
   29724       0   29726   29727   29727       0   29729   29730   29730       0
   29732   29733   29733       0   29735   29736   29736       0   29738   29739
   29739       0   29741   29742   29742       0   29744   29745   29745       0
   29747   29748   29748       0   29750   29751   29751       0   29753   29754
   29754       0   29756   29757   29757       0   29759   29760   29760       0
   29762   29763   29763       0   29765   29766   29766       0   29768   29769
   29769       0   29771   29772   29772       0   29774   29775   29775       0
   29777   29778   29778       0   29780   29781   29781       0   29783   29784
   29784       0   29786   29787   29787       0   29789   29790   29790       0
   29792   29793   29793       0   29795   29796   29796       0   29798   29799
   29799       0   29801   29802   29802       0   29804   29805   29805       0
   29807   29808   29808       0   29810   29811   29811       0   29813   29814
   29814       0   29816   29817   29817       0   29819   29820   29820       0
   29822   29823   29823       0   29825   29826   29826       0   29828   29829
   29829       0   29831   29832   29832       0   29834   29835   29835       0
   29837   29838   29838       0   29840   29841   29841       0   29843   29844
   29844       0   29846   29847   29847       0   29849   29850   29850       0
   29852   29853   29853       0   29855   29856   29856       0   29858   29859
   29859       0   29861   29862   29862       0   29864   29865   29865       0
   29867   29868   29868       0   29870   29871   29871       0   29873   29874
   29874       0   29876   29877   29877       0   29879   29880   29880       0
   29882   29883   29883       0   29885   29886   29886       0   29888   29889
   29889       0   29891   29892   29892       0   29894   29895   29895       0
   29897   29898   29898       0   29900   29901   29901       0   29903   29904
   29904       0   29906   29907   29907       0   29909   29910   29910       0
   29912   29913   29913       0   29915   29916   29916       0   29918   29919
   29919       0   29921   29922   29922       0   29924   29925   29925       0
   29927   29928   29928       0   29930   29931   29931       0   29933   29934
   29934       0   29936   29937   29937       0   29939   29940   29940       0
   29942   29943   29943       0   29945   29946   29946       0   29948   29949
   29949       0   29951   29952   29952       0   29954   29955   29955       0
   29957   29958   29958       0   29960   29961   29961       0   29963   29964
   29964       0   29966   29967   29967       0   29969   29970   29970       0
   29972   29973   29973       0   29975   29976   29976       0   29978   29979
   29979       0   29981   29982   29982       0   29984   29985   29985       0
   29987   29988   29988       0   29990   29991   29991       0   29993   29994
   29994       0   29996   29997   29997       0   29999   30000   30000       0
   30002   30003   30003       0   30005   30006   30006       0   30008   30009
   30009       0   30011   30012   30012       0   30014   30015   30015       0
   30017   30018   30018       0   30020   30021   30021       0   30023   30024
   30024       0   30026   30027   30027       0   30029   30030   30030       0
   30032   30033   30033       0   30035   30036   30036       0   30038   30039
   30039       0   30041   30042   30042       0   30044   30045   30045       0
   30047   30048   30048       0   30050   30051   30051       0   30053   30054
   30054       0   30056   30057   30057       0   30059   30060   30060       0
   30062   30063   30063       0   30065   30066   30066       0   30068   30069
   30069       0   30071   30072   30072       0   30074   30075   30075       0
   30077   30078   30078       0   30080   30081   30081       0   30083   30084
   30084       0   30086   30087   30087       0   30089   30090   30090       0
   30092   30093   30093       0   30095   30096   30096       0   30098   30099
   30099       0   30101   30102   30102       0   30104   30105   30105       0
   30107   30108   30108       0   30110   30111   30111       0   30113   30114
   30114       0   30116   30117   30117       0   30119   30120   30120       0
   30122   30123   30123       0   30125   30126   30126       0   30128   30129
   30129       0   30131   30132   30132       0   30134   30135   30135       0
   30137   30138   30138       0   30140   30141   30141       0   30143   30144
   30144       0   30146   30147   30147       0   30149   30150   30150       0
   30152   30153   30153       0   30155   30156   30156       0   30158   30159
   30159       0   30161   30162   30162       0   30164   30165   30165       0
   30167   30168   30168       0   30170   30171   30171       0   30173   30174
   30174       0   30176   30177   30177       0   30179   30180   30180       0
   30182   30183   30183       0   30185   30186   30186       0   30188   30189
   30189       0   30191   30192   30192       0   30194   30195   30195       0
   30197   30198   30198       0   30200   30201   30201       0   30203   30204
   30204       0   30206   30207   30207       0   30209   30210   30210       0
   30212   30213   30213       0   30215   30216   30216       0   30218   30219
   30219       0   30221   30222   30222       0   30224   30225   30225       0
   30227   30228   30228       0   30230   30231   30231       0   30233   30234
   30234       0   30236   30237   30237       0   30239   30240   30240       0
   30242   30243   30243       0   30245   30246   30246       0   30248   30249
   30249       0   30251   30252   30252       0   30254   30255   30255       0
   30257   30258   30258       0   30260   30261   30261       0   30263   30264
   30264       0   30266   30267   30267       0   30269   30270   30270       0
   30272   30273   30273       0   30275   30276   30276       0   30278   30279
   30279       0   30281   30282   30282       0   30284   30285   30285       0
   30287   30288   30288       0   30290   30291   30291       0   30293   30294
   30294       0   30296   30297   30297       0   30299   30300   30300       0
   30302   30303   30303       0   30305   30306   30306       0   30308   30309
   30309       0   30311   30312   30312       0   30314   30315   30315       0
   30317   30318   30318       0   30320   30321   30321       0   30323   30324
   30324       0   30326   30327   30327       0   30329   30330   30330       0
   30332   30333   30333       0   30335   30336   30336       0   30338   30339
   30339       0   30341   30342   30342       0   30344   30345   30345       0
   30347   30348   30348       0   30350   30351   30351       0   30353   30354
   30354       0   30356   30357   30357       0   30359   30360   30360       0
   30362   30363   30363       0   30365   30366   30366       0   30368   30369
   30369       0   30371   30372   30372       0   30374   30375   30375       0
   30377   30378   30378       0   30380   30381   30381       0   30383   30384
   30384       0   30386   30387   30387       0   30389   30390   30390       0
   30392   30393   30393       0   30395   30396   30396       0   30398   30399
   30399       0   30401   30402   30402       0   30404   30405   30405       0
   30407   30408   30408       0   30410   30411   30411       0   30413   30414
   30414       0   30416   30417   30417       0   30419   30420   30420       0
   30422   30423   30423       0   30425   30426   30426       0   30428   30429
   30429       0   30431   30432   30432       0   30434   30435   30435       0
   30437   30438   30438       0   30440   30441   30441       0   30443   30444
   30444       0   30446   30447   30447       0   30449   30450   30450       0
   30452   30453   30453       0   30455   30456   30456       0   30458   30459
   30459       0   30461   30462   30462       0   30464   30465   30465       0
   30467   30468   30468       0   30470   30471   30471       0   30473   30474
   30474       0   30476   30477   30477       0   30479   30480   30480       0
   30482   30483   30483       0   30485   30486   30486       0   30488   30489
   30489       0   30491   30492   30492       0   30494   30495   30495       0
   30497   30498   30498       0   30500   30501   30501       0   30503   30504
   30504       0   30506   30507   30507       0   30509   30510   30510       0
   30512   30513   30513       0   30515   30516   30516       0   30518   30519
   30519       0   30521   30522   30522       0   30524   30525   30525       0
   30527   30528   30528       0   30530   30531   30531       0   30533   30534
   30534       0   30536   30537   30537       0   30539   30540   30540       0
   30542   30543   30543       0   30545   30546   30546       0   30548   30549
   30549       0   30551   30552   30552       0   30554   30555   30555       0
   30557   30558   30558       0   30560   30561   30561       0   30563   30564
   30564       0   30566   30567   30567       0   30569   30570   30570       0
   30572   30573   30573       0   30575   30576   30576       0   30578   30579
   30579       0   30581   30582   30582       0   30584   30585   30585       0
   30587   30588   30588       0   30590   30591   30591       0   30593   30594
   30594       0   30596   30597   30597       0   30599   30600   30600       0
   30602   30603   30603       0   30605   30606   30606       0   30608   30609
   30609       0   30611   30612   30612       0   30614   30615   30615       0
   30617   30618   30618       0   30620   30621   30621       0   30623   30624
   30624       0   30626   30627   30627       0   30629   30630   30630       0
   30632   30633   30633       0   30635   30636   30636       0   30638   30639
   30639       0   30641   30642   30642       0   30644   30645   30645       0
   30647   30648   30648       0   30650   30651   30651       0   30653   30654
   30654       0   30656   30657   30657       0   30659   30660   30660       0
   30662   30663   30663       0   30665   30666   30666       0   30668   30669
   30669       0   30671   30672   30672       0   30674   30675   30675       0
   30677   30678   30678       0   30680   30681   30681       0   30683   30684
   30684       0   30686   30687   30687       0   30689   30690   30690       0
   30692   30693   30693       0   30695   30696   30696       0   30698   30699
   30699       0   30701   30702   30702       0   30704   30705   30705       0
   30707   30708   30708       0   30710   30711   30711       0   30713   30714
   30714       0   30716   30717   30717       0   30719   30720   30720       0
   30722   30723   30723       0   30725   30726   30726       0   30728   30729
   30729       0   30731   30732   30732       0   30734   30735   30735       0
   30737   30738   30738       0   30740   30741   30741       0   30743   30744
   30744       0   30746   30747   30747       0   30749   30750   30750       0
   30752   30753   30753       0   30755   30756   30756       0   30758   30759
   30759       0   30761   30762   30762       0   30764   30765   30765       0
   30767   30768   30768       0   30770   30771   30771       0   30773   30774
   30774       0   30776   30777   30777       0   30779   30780   30780       0
   30782   30783   30783       0   30785   30786   30786       0   30788   30789
   30789       0   30791   30792   30792       0   30794   30795   30795       0
   30797   30798   30798       0   30800   30801   30801       0   30803   30804
   30804       0   30806   30807   30807       0   30809   30810   30810       0
   30812   30813   30813       0   30815   30816   30816       0   30818   30819
   30819       0   30821   30822   30822       0   30824   30825   30825       0
   30827   30828   30828       0   30830   30831   30831       0   30833   30834
   30834       0   30836   30837   30837       0   30839   30840   30840       0
   30842   30843   30843       0   30845   30846   30846       0   30848   30849
   30849       0   30851   30852   30852       0   30854   30855   30855       0
   30857   30858   30858       0   30860   30861   30861       0   30863   30864
   30864       0   30866   30867   30867       0   30869   30870   30870       0
   30872   30873   30873       0   30875   30876   30876       0   30878   30879
   30879       0   30881   30882   30882       0   30884   30885   30885       0
   30887   30888   30888       0   30890   30891   30891       0   30893   30894
   30894       0   30896   30897   30897       0   30899   30900   30900       0
   30902   30903   30903       0   30905   30906   30906       0   30908   30909
   30909       0   30911   30912   30912       0   30914   30915   30915       0
   30917   30918   30918       0   30920   30921   30921       0   30923   30924
   30924       0   30926   30927   30927       0   30929   30930   30930       0
   30932   30933   30933       0   30935   30936   30936       0   30938   30939
   30939       0   30941   30942   30942       0   30944   30945   30945       0
   30947   30948   30948       0   30950   30951   30951       0   30953   30954
   30954       0   30956   30957   30957       0   30959   30960   30960       0
   30962   30963   30963       0   30965   30966   30966       0   30968   30969
   30969       0   30971   30972   30972       0   30974   30975   30975       0
   30977   30978   30978       0   30980   30981   30981       0   30983   30984
   30984       0   30986   30987   30987       0   30989   30990   30990       0
   30992   30993   30993       0   30995   30996   30996       0   30998   30999
   30999       0   31001   31002   31002       0   31004   31005   31005       0
   31007   31008   31008       0   31010   31011   31011       0   31013   31014
   31014       0   31016   31017   31017       0   31019   31020   31020       0
   31022   31023   31023       0   31025   31026   31026       0   31028   31029
   31029       0   31031   31032   31032       0   31034   31035   31035       0
   31037   31038   31038       0   31040   31041   31041       0   31043   31044
   31044       0   31046   31047   31047       0   31049   31050   31050       0
   31052   31053   31053       0   31055   31056   31056       0   31058   31059
   31059       0   31061   31062   31062       0   31064   31065   31065       0
   31067   31068   31068       0   31070   31071   31071       0   31073   31074
   31074       0   31076   31077   31077       0   31079   31080   31080       0
   31082   31083   31083       0   31085   31086   31086       0   31088   31089
   31089       0   31091   31092   31092       0   31094   31095   31095       0
   31097   31098   31098       0   31100   31101   31101       0   31103   31104
   31104       0   31106   31107   31107       0   31109   31110   31110       0
   31112   31113   31113       0   31115   31116   31116       0   31118   31119
   31119       0   31121   31122   31122       0   31124   31125   31125       0
   31127   31128   31128       0   31130   31131   31131       0   31133   31134
   31134       0   31136   31137   31137       0   31139   31140   31140       0
   31142   31143   31143       0   31145   31146   31146       0   31148   31149
   31149       0   31151   31152   31152       0   31154   31155   31155       0
   31157   31158   31158       0   31160   31161   31161       0   31163   31164
   31164       0   31166   31167   31167       0   31169   31170   31170       0
   31172   31173   31173       0   31175   31176   31176       0   31178   31179
   31179       0   31181   31182   31182       0   31184   31185   31185       0
   31187   31188   31188       0   31190   31191   31191       0   31193   31194
   31194       0   31196   31197   31197       0   31199   31200   31200       0
   31202   31203   31203       0   31205   31206   31206       0   31208   31209
   31209       0   31211   31212   31212       0   31214   31215   31215       0
   31217   31218   31218       0   31220   31221   31221       0   31223   31224
   31224       0   31226   31227   31227       0   31229   31230   31230       0
   31232   31233   31233       0   31235   31236   31236       0   31238   31239
   31239       0   31241   31242   31242       0   31244   31245   31245       0
   31247   31248   31248       0   31250   31251   31251       0   31253   31254
   31254       0   31256   31257   31257       0   31259   31260   31260       0
   31262   31263   31263       0   31265   31266   31266       0   31268   31269
   31269       0   31271   31272   31272       0   31274   31275   31275       0
   31277   31278   31278       0   31280   31281   31281       0   31283   31284
   31284       0   31286   31287   31287       0   31289   31290   31290       0
   31292   31293   31293       0   31295   31296   31296       0   31298   31299
   31299       0   31301   31302   31302       0   31304   31305   31305       0
   31307   31308   31308       0   31310   31311   31311       0   31313   31314
   31314       0   31316   31317   31317       0   31319   31320   31320       0
   31322   31323   31323       0   31325   31326   31326       0   31328   31329
   31329       0   31331   31332   31332       0   31334   31335   31335       0
   31337   31338   31338       0   31340   31341   31341       0   31343   31344
   31344       0   31346   31347   31347       0   31349   31350   31350       0
   31352   31353   31353       0   31355   31356   31356       0   31358   31359
   31359       0   31361   31362   31362       0   31364   31365   31365       0
   31367   31368   31368       0   31370   31371   31371       0   31373   31374
   31374       0   31376   31377   31377       0   31379   31380   31380       0
   31382   31383   31383       0   31385   31386   31386       0   31388   31389
   31389       0   31391   31392   31392       0   31394   31395   31395       0
   31397   31398   31398       0   31400   31401   31401       0   31403   31404
   31404       0   31406   31407   31407       0   31409   31410   31410       0
   31412   31413   31413       0   31415   31416   31416       0   31418   31419
   31419       0   31421   31422   31422       0   31424   31425   31425       0
   31427   31428   31428       0   31430   31431   31431       0   31433   31434
   31434       0   31436   31437   31437       0   31439   31440   31440       0
   31442   31443   31443       0   31445   31446   31446       0   31448   31449
   31449       0   31451   31452   31452       0   31454   31455   31455       0
   31457   31458   31458       0   31460   31461   31461       0   31463   31464
   31464       0   31466   31467   31467       0   31469   31470   31470       0
   31472   31473   31473       0   31475   31476   31476       0   31478   31479
   31479       0   31481   31482   31482       0   31484   31485   31485       0
   31487   31488   31488       0   31490   31491   31491       0   31493   31494
   31494       0   31496   31497   31497       0   31499   31500   31500       0
   31502   31503   31503       0   31505   31506   31506       0   31508   31509
   31509       0   31511   31512   31512       0   31514   31515   31515       0
   31517   31518   31518       0   31520   31521   31521       0   31523   31524
   31524       0   31526   31527   31527       0   31529   31530   31530       0
   31532   31533   31533       0   31535   31536   31536       0   31538   31539
   31539       0   31541   31542   31542       0   31544   31545   31545       0
   31547   31548   31548       0   31550   31551   31551       0   31553   31554
   31554       0   31556   31557   31557       0   31559   31560   31560       0
   31562   31563   31563       0   31565   31566   31566       0   31568   31569
   31569       0   31571   31572   31572       0   31574   31575   31575       0
   31577   31578   31578       0   31580   31581   31581       0   31583   31584
   31584       0   31586   31587   31587       0   31589   31590   31590       0
   31592   31593   31593       0   31595   31596   31596       0   31598   31599
   31599       0   31601   31602   31602       0   31604   31605   31605       0
   31607   31608   31608       0   31610   31611   31611       0   31613   31614
   31614       0   31616   31617   31617       0   31619   31620   31620       0
   31622   31623   31623       0   31625   31626   31626       0   31628   31629
   31629       0   31631   31632   31632       0   31634   31635   31635       0
   31637   31638   31638       0   31640   31641   31641       0   31643   31644
   31644       0   31646   31647   31647       0   31649   31650   31650       0
   31652   31653   31653       0   31655   31656   31656       0   31658   31659
   31659       0   31661   31662   31662       0   31664   31665   31665       0
   31667   31668   31668       0   31670   31671   31671       0   31673   31674
   31674       0   31676   31677   31677       0   31679   31680   31680       0
   31682   31683   31683       0   31685   31686   31686       0   31688   31689
   31689       0   31691   31692   31692       0   31694   31695   31695       0
   31697   31698   31698       0   31700   31701   31701       0   31703   31704
   31704       0   31706   31707   31707       0   31709   31710   31710       0
   31712   31713   31713       0   31715   31716   31716       0   31718   31719
   31719       0   31721   31722   31722       0   31724   31725   31725       0
   31727   31728   31728       0   31730   31731   31731       0   31733   31734
   31734       0   31736   31737   31737       0   31739   31740   31740       0
   31742   31743   31743       0   31745   31746   31746       0   31748   31749
   31749       0   31751   31752   31752       0   31754   31755   31755       0
   31757   31758   31758       0   31760   31761   31761       0   31763   31764
   31764       0   31766   31767   31767       0   31769   31770   31770       0
   31772   31773   31773       0   31775   31776   31776       0   31778   31779
   31779       0   31781   31782   31782       0   31784   31785   31785       0
   31787   31788   31788       0   31790   31791   31791       0   31793   31794
   31794       0   31796   31797   31797       0   31799   31800   31800       0
   31802   31803   31803       0   31805   31806   31806       0   31808   31809
   31809       0   31811   31812   31812       0   31814   31815   31815       0
   31817   31818   31818       0   31820   31821   31821       0   31823   31824
   31824       0   31826   31827   31827       0   31829   31830   31830       0
   31832   31833   31833       0   31835   31836   31836       0   31838   31839
   31839       0   31841   31842   31842       0   31844   31845   31845       0
   31847   31848   31848       0   31850   31851   31851       0   31853   31854
   31854       0   31856   31857   31857       0   31859   31860   31860       0
   31862   31863   31863       0   31865   31866   31866       0   31868   31869
   31869       0   31871   31872   31872       0   31874   31875   31875       0
   31877   31878   31878       0   31880   31881   31881       0   31883   31884
   31884       0   31886   31887   31887       0   31889   31890   31890       0
   31892   31893   31893       0   31895   31896   31896       0   31898   31899
   31899       0   31901   31902   31902       0   31904   31905   31905       0
   31907   31908   31908       0   31910   31911   31911       0   31913   31914
   31914       0   31916   31917   31917       0   31919   31920   31920       0
   31922   31923   31923       0   31925   31926   31926       0   31928   31929
   31929       0   31931   31932   31932       0   31934   31935   31935       0
   31937   31938   31938       0   31940   31941   31941       0   31943   31944
   31944       0   31946   31947   31947       0   31949   31950   31950       0
   31952   31953   31953       0   31955   31956   31956       0   31958   31959
   31959       0   31961   31962   31962       0   31964   31965   31965       0
   31967   31968   31968       0   31970   31971   31971       0   31973   31974
   31974       0   31976   31977   31977       0   31979   31980   31980       0
   31982   31983   31983       0   31985   31986   31986       0   31988   31989
   31989       0   31991   31992   31992       0   31994   31995   31995       0
   31997   31998   31998       0   32000   32001   32001       0   32003   32004
   32004       0   32006   32007   32007       0   32009   32010   32010       0
   32012   32013   32013       0   32015   32016   32016       0   32018   32019
   32019       0   32021   32022   32022       0   32024   32025   32025       0
   32027   32028   32028       0   32030   32031   32031       0   32033   32034
   32034       0   32036   32037   32037       0   32039   32040   32040       0
   32042   32043   32043       0   32045   32046   32046       0   32048   32049
   32049       0   32051   32052   32052       0   32054   32055   32055       0
   32057   32058   32058       0   32060   32061   32061       0   32063   32064
   32064       0   32066   32067   32067       0   32069   32070   32070       0
   32072   32073   32073       0   32075   32076   32076       0   32078   32079
   32079       0   32081   32082   32082       0   32084   32085   32085       0
   32087   32088   32088       0   32090   32091   32091       0   32093   32094
   32094       0   32096   32097   32097       0   32099   32100   32100       0
   32102   32103   32103       0   32105   32106   32106       0   32108   32109
   32109       0   32111   32112   32112       0   32114   32115   32115       0
   32117   32118   32118       0   32120   32121   32121       0   32123   32124
   32124       0   32126   32127   32127       0   32129   32130   32130       0
   32132   32133   32133       0   32135   32136   32136       0   32138   32139
   32139       0   32141   32142   32142       0   32144   32145   32145       0
   32147   32148   32148       0   32150   32151   32151       0   32153   32154
   32154       0   32156   32157   32157       0   32159   32160   32160       0
   32162   32163   32163       0   32165   32166   32166       0   32168   32169
   32169       0   32171   32172   32172       0   32174   32175   32175       0
   32177   32178   32178       0   32180   32181   32181       0   32183   32184
   32184       0   32186   32187   32187       0   32189   32190   32190       0
   32192   32193   32193       0   32195   32196   32196       0   32198   32199
   32199       0   32201   32202   32202       0   32204   32205   32205       0
   32207   32208   32208       0   32210   32211   32211       0   32213   32214
   32214       0   32216   32217   32217       0   32219   32220   32220       0
   32222   32223   32223       0   32225   32226   32226       0   32228   32229
   32229       0   32231   32232   32232       0   32234   32235   32235       0
   32237   32238   32238       0   32240   32241   32241       0   32243   32244
   32244       0   32246   32247   32247       0   32249   32250   32250       0
   32252   32253   32253       0   32255   32256   32256       0   32258   32259
   32259       0   32261   32262   32262       0   32264   32265   32265       0
   32267   32268   32268       0   32270   32271   32271       0   32273   32274
   32274       0   32276   32277   32277       0   32279   32280   32280       0
   32282   32283   32283       0   32285   32286   32286       0   32288   32289
   32289       0   32291   32292   32292       0   32294   32295   32295       0
   32297   32298   32298       0   32300   32301   32301       0   32303   32304
   32304       0   32306   32307   32307       0   32309   32310   32310       0
   32312   32313   32313       0   32315   32316   32316       0   32318   32319
   32319       0   32321   32322   32322       0   32324   32325   32325       0
   32327   32328   32328       0   32330   32331   32331       0   32333   32334
   32334       0   32336   32337   32337       0   32339   32340   32340       0
   32342   32343   32343       0   32345   32346   32346       0   32348   32349
   32349       0   32351   32352   32352       0   32354   32355   32355       0
   32357   32358   32358       0   32360   32361   32361       0   32363   32364
   32364       0   32366   32367   32367       0   32369   32370   32370       0
   32372   32373   32373       0   32375   32376   32376       0   32378   32379
   32379       0   32381   32382   32382       0   32384   32385   32385       0
   32387   32388   32388       0   32390   32391   32391       0   32393   32394
   32394       0   32396   32397   32397       0   32399   32400   32400       0
   32402   32403   32403       0   32405   32406   32406       0   32408   32409
   32409       0   32411   32412   32412       0   32414   32415   32415       0
   32417   32418   32418       0   32420   32421   32421       0   32423   32424
   32424       0   32426   32427   32427       0   32429   32430   32430       0
   32432   32433   32433       0   32435   32436   32436       0   32438   32439
   32439       0   32441   32442   32442       0   32444   32445   32445       0
   32447   32448   32448       0   32450   32451   32451       0   32453   32454
   32454       0   32456   32457   32457       0   32459   32460   32460       0
   32462   32463   32463       0   32465   32466   32466       0   32468   32469
   32469       0   32471   32472   32472       0   32474   32475   32475       0
   32477   32478   32478       0   32480   32481   32481       0   32483   32484
   32484       0   32486   32487   32487       0   32489   32490   32490       0
   32492   32493   32493       0   32495   32496   32496       0   32498   32499
   32499       0   32501   32502   32502       0   32504   32505   32505       0
   32507   32508   32508       0   32510   32511   32511       0   32513   32514
   32514       0   32516   32517   32517       0   32519   32520   32520       0
   32522   32523   32523       0   32525   32526   32526       0   32528   32529
   32529       0   32531   32532   32532       0   32534   32535   32535       0
   32537   32538   32538       0   32540   32541   32541       0   32543   32544
   32544       0   32546   32547   32547       0   32549   32550   32550       0
   32552   32553   32553       0   32555   32556   32556       0   32558   32559
   32559       0   32561   32562   32562       0   32564   32565   32565       0
   32567   32568   32568       0   32570   32571   32571       0   32573   32574
   32574       0   32576   32577   32577       0   32579   32580   32580       0
   32582   32583   32583       0   32585   32586   32586       0   32588   32589
   32589       0   32591   32592   32592       0   32594   32595   32595       0
   32597   32598   32598       0   32600   32601   32601       0   32603   32604
   32604       0   32606   32607   32607       0   32609   32610   32610       0
   32612   32613   32613       0   32615   32616   32616       0   32618   32619
   32619       0   32621   32622   32622       0   32624   32625   32625       0
   32627   32628   32628       0   32630   32631   32631       0   32633   32634
   32634       0   32636   32637   32637       0   32639   32640   32640       0
   32642   32643   32643       0   32645   32646   32646       0   32648   32649
   32649       0   32651   32652   32652       0   32654   32655   32655       0
   32657   32658   32658       0   32660   32661   32661       0   32663   32664
   32664       0   32666   32667   32667       0   32669   32670   32670       0
   32672   32673   32673       0   32675   32676   32676       0   32678   32679
   32679       0   32681   32682   32682       0   32684   32685   32685       0
   32687   32688   32688       0   32690   32691   32691       0   32693   32694
   32694       0   32696   32697   32697       0   32699   32700   32700       0
   32702   32703   32703       0   32705   32706   32706       0   32708   32709
   32709       0   32711   32712   32712       0   32714   32715   32715       0
   32717   32718   32718       0   32720   32721   32721       0   32723   32724
   32724       0   32726   32727   32727       0   32729   32730   32730       0
   32732   32733   32733       0   32735   32736   32736       0   32738   32739
   32739       0   32741   32742   32742       0   32744   32745   32745       0
   32747   32748   32748       0   32750   32751   32751       0   32753   32754
   32754       0   32756   32757   32757       0   32759   32760   32760       0
   32762   32763   32763       0   32765   32766   32766       0   32768   32769
   32769       0   32771   32772   32772       0   32774   32775   32775       0
   32777   32778   32778       0   32780   32781   32781       0   32783   32784
   32784       0   32786   32787   32787       0   32789   32790   32790       0
   32792   32793   32793       0   32795   32796   32796       0   32798   32799
   32799       0   32801   32802   32802       0   32804   32805   32805       0
   32807   32808   32808       0   32810   32811   32811       0   32813   32814
   32814       0   32816   32817   32817       0   32819   32820   32820       0
   32822   32823   32823       0   32825   32826   32826       0   32828   32829
   32829       0   32831   32832   32832       0   32834   32835   32835       0
   32837   32838   32838       0   32840   32841   32841       0   32843   32844
   32844       0   32846   32847   32847       0   32849   32850   32850       0
   32852   32853   32853       0   32855   32856   32856       0   32858   32859
   32859       0   32861   32862   32862       0   32864   32865   32865       0
   32867   32868   32868       0   32870   32871   32871       0   32873   32874
   32874       0   32876   32877   32877       0   32879   32880   32880       0
   32882   32883   32883       0   32885   32886   32886       0   32888   32889
   32889       0   32891   32892   32892       0   32894   32895   32895       0
   32897   32898   32898       0   32900   32901   32901       0   32903   32904
   32904       0   32906   32907   32907       0   32909   32910   32910       0
   32912   32913   32913       0   32915   32916   32916       0   32918   32919
   32919       0   32921   32922   32922       0   32924   32925   32925       0
   32927   32928   32928       0   32930   32931   32931       0   32933   32934
   32934       0   32936   32937   32937       0   32939   32940   32940       0
   32942   32943   32943       0   32945   32946   32946       0   32948   32949
   32949       0   32951   32952   32952       0   32954   32955   32955       0
   32957   32958   32958       0   32960   32961   32961       0   32963   32964
   32964       0   32966   32967   32967       0   32969   32970   32970       0
   32972   32973   32973       0   32975   32976   32976       0   32978   32979
   32979       0   32981   32982   32982       0   32984   32985   32985       0
   32987   32988   32988       0   32990   32991   32991       0   32993   32994
   32994       0   32996   32997   32997       0   32999   33000   33000       0
   33002   33003   33003       0   33005   33006   33006       0   33008   33009
   33009       0   33011   33012   33012       0   33014   33015   33015       0
   33017   33018   33018       0   33020   33021   33021       0   33023   33024
   33024       0   33026   33027   33027       0   33029   33030   33030       0
   33032   33033   33033       0   33035   33036   33036       0   33038   33039
   33039       0   33041   33042   33042       0   33044   33045   33045       0
   33047   33048   33048       0   33050   33051   33051       0   33053   33054
   33054       0   33056   33057   33057       0   33059   33060   33060       0
   33062   33063   33063       0   33065   33066   33066       0   33068   33069
   33069       0   33071   33072   33072       0   33074   33075   33075       0
   33077   33078   33078       0   33080   33081   33081       0   33083   33084
   33084       0   33086   33087   33087       0   33089   33090   33090       0
   33092   33093   33093       0   33095   33096   33096       0   33098   33099
   33099       0   33101   33102   33102       0   33104   33105   33105       0
   33107   33108   33108       0   33110   33111   33111       0   33113   33114
   33114       0   33116   33117   33117       0   33119   33120   33120       0
   33122   33123   33123       0   33125   33126   33126       0   33128   33129
   33129       0   33131   33132   33132       0   33134   33135   33135       0
   33137   33138   33138       0   33140   33141   33141       0   33143   33144
   33144       0   33146   33147   33147       0   33149   33150   33150       0
   33152   33153   33153       0   33155   33156   33156       0   33158   33159
   33159       0   33161   33162   33162       0   33164   33165   33165       0
   33167   33168   33168       0   33170   33171   33171       0   33173   33174
   33174       0   33176   33177   33177       0   33179   33180   33180       0
   33182   33183   33183       0   33185   33186   33186       0   33188   33189
   33189       0   33191   33192   33192       0   33194   33195   33195       0
   33197   33198   33198       0   33200   33201   33201       0   33203   33204
   33204       0   33206   33207   33207       0   33209   33210   33210       0
   33212   33213   33213       0   33215   33216   33216       0   33218   33219
   33219       0   33221   33222   33222       0   33224   33225   33225       0
   33227   33228   33228       0   33230   33231   33231       0   33233   33234
   33234       0   33236   33237   33237       0   33239   33240   33240       0
   33242   33243   33243       0   33245   33246   33246       0   33248   33249
   33249       0   33251   33252   33252       0   33254   33255   33255       0
   33257   33258   33258       0   33260   33261   33261       0   33263   33264
   33264       0   33266   33267   33267       0   33269   33270   33270       0
   33272   33273   33273       0   33275   33276   33276       0   33278   33279
   33279       0   33281   33282   33282       0   33284   33285   33285       0
   33287   33288   33288       0   33290   33291   33291       0   33293   33294
   33294       0   33296   33297   33297       0   33299   33300   33300       0
   33302   33303   33303       0   33305   33306   33306       0   33308   33309
   33309       0   33311   33312   33312       0   33314   33315   33315       0
   33317   33318   33318       0   33320   33321   33321       0   33323   33324
   33324       0   33326   33327   33327       0   33329   33330   33330       0
   33332   33333   33333       0   33335   33336   33336       0   33338   33339
   33339       0   33341   33342   33342       0   33344   33345   33345       0
   33347   33348   33348       0   33350   33351   33351       0   33353   33354
   33354       0   33356   33357   33357       0   33359   33360   33360       0
   33362   33363   33363       0   33365   33366   33366       0   33368   33369
   33369       0   33371   33372   33372       0   33374   33375   33375       0
   33377   33378   33378       0   33380   33381   33381       0   33383   33384
   33384       0   33386   33387   33387       0   33389   33390   33390       0
   33392   33393   33393       0   33395   33396   33396       0   33398   33399
   33399       0   33401   33402   33402       0   33404   33405   33405       0
   33407   33408   33408       0   33410   33411   33411       0   33413   33414
   33414       0   33416   33417   33417       0   33419   33420   33420       0
   33422   33423   33423       0   33425   33426   33426       0   33428   33429
   33429       0   33431   33432   33432       0   33434   33435   33435       0
   33437   33438   33438       0   33440   33441   33441       0   33443   33444
   33444       0   33446   33447   33447       0   33449   33450   33450       0
   33452   33453   33453       0   33455   33456   33456       0   33458   33459
   33459       0   33461   33462   33462       0   33464   33465   33465       0
   33467   33468   33468       0   33470   33471   33471       0   33473   33474
   33474       0   33476   33477   33477       0   33479   33480   33480       0
   33482   33483   33483       0   33485   33486   33486       0   33488   33489
   33489       0   33491   33492   33492       0   33494   33495   33495       0
   33497   33498   33498       0   33500   33501   33501       0   33503   33504
   33504       0   33506   33507   33507       0   33509   33510   33510       0
   33512   33513   33513       0   33515   33516   33516       0   33518   33519
   33519       0   33521   33522   33522       0   33524   33525   33525       0
   33527   33528   33528       0   33530   33531   33531       0   33533   33534
   33534       0   33536   33537   33537       0   33539   33540   33540       0
   33542   33543   33543       0   33545   33546   33546       0   33548   33549
   33549       0   33551   33552   33552       0   33554   33555   33555       0
   33557   33558   33558       0   33560   33561   33561       0   33563   33564
   33564       0   33566   33567   33567       0   33569   33570   33570       0
   33572   33573   33573       0   33575   33576   33576       0   33578   33579
   33579       0   33581   33582   33582       0   33584   33585   33585       0
   33587   33588   33588       0   33590   33591   33591       0   33593   33594
   33594       0   33596   33597   33597       0   33599   33600   33600       0
   33602   33603   33603       0   33605   33606   33606       0   33608   33609
   33609       0   33611   33612   33612       0   33614   33615   33615       0
   33617   33618   33618       0   33620   33621   33621       0   33623   33624
   33624       0   33626   33627   33627       0   33629   33630   33630       0
   33632   33633   33633       0   33635   33636   33636       0   33638   33639
   33639       0   33641   33642   33642       0   33644   33645   33645       0
   33647   33648   33648       0   33650   33651   33651       0   33653   33654
   33654       0   33656   33657   33657       0   33659   33660   33660       0
   33662   33663   33663       0   33665   33666   33666       0   33668   33669
   33669       0   33671   33672   33672       0   33674   33675   33675       0
   33677   33678   33678       0   33680   33681   33681       0   33683   33684
   33684       0   33686   33687   33687       0   33689   33690   33690       0
   33692   33693   33693       0   33695   33696   33696       0   33698   33699
   33699       0   33701   33702   33702       0   33704   33705   33705       0
   33707   33708   33708       0   33710   33711   33711       0   33713   33714
   33714       0   33716   33717   33717       0   33719   33720   33720       0
   33722   33723   33723       0   33725   33726   33726       0   33728   33729
   33729       0   33731   33732   33732       0   33734   33735   33735       0
   33737   33738   33738       0   33740   33741   33741       0   33743   33744
   33744       0   33746   33747   33747       0   33749   33750   33750       0
   33752   33753   33753       0   33755   33756   33756       0   33758   33759
   33759       0   33761   33762   33762       0   33764   33765   33765       0
   33767   33768   33768       0   33770   33771   33771       0   33773   33774
   33774       0   33776   33777   33777       0   33779   33780   33780       0
   33782   33783   33783       0   33785   33786   33786       0   33788   33789
   33789       0   33791   33792   33792       0   33794   33795   33795       0
   33797   33798   33798       0   33800   33801   33801       0   33803   33804
   33804       0   33806   33807   33807       0   33809   33810   33810       0
   33812   33813   33813       0   33815   33816   33816       0   33818   33819
   33819       0   33821   33822   33822       0   33824   33825   33825       0
   33827   33828   33828       0   33830   33831   33831       0   33833   33834
   33834       0   33836   33837   33837       0   33839   33840   33840       0
   33842   33843   33843       0   33845   33846   33846       0   33848   33849
   33849       0   33851   33852   33852       0   33854   33855   33855       0
   33857   33858   33858       0   33860   33861   33861       0   33863   33864
   33864       0   33866   33867   33867       0   33869   33870   33870       0
   33872   33873   33873       0   33875   33876   33876       0   33878   33879
   33879       0   33881   33882   33882       0   33884   33885   33885       0
   33887   33888   33888       0   33890   33891   33891       0   33893   33894
   33894       0   33896   33897   33897       0   33899   33900   33900       0
   33902   33903   33903       0   33905   33906   33906       0   33908   33909
   33909       0   33911   33912   33912       0   33914   33915   33915       0
   33917   33918   33918       0   33920   33921   33921       0   33923   33924
   33924       0   33926   33927   33927       0   33929   33930   33930       0
   33932   33933   33933       0   33935   33936   33936       0   33938   33939
   33939       0   33941   33942   33942       0   33944   33945   33945       0
   33947   33948   33948       0   33950   33951   33951       0   33953   33954
   33954       0   33956   33957   33957       0   33959   33960   33960       0
   33962   33963   33963       0   33965   33966   33966       0   33968   33969
   33969       0   33971   33972   33972       0   33974   33975   33975       0
   33977   33978   33978       0   33980   33981   33981       0   33983   33984
   33984       0   33986   33987   33987       0   33989   33990   33990       0
   33992   33993   33993       0   33995   33996   33996       0   33998   33999
   33999       0   34001   34002   34002       0   34004   34005   34005       0
   34007   34008   34008       0   34010   34011   34011       0   34013   34014
   34014       0   34016   34017   34017       0   34019   34020   34020       0
   34022   34023   34023       0   34025   34026   34026       0   34028   34029
   34029       0   34031   34032   34032       0   34034   34035   34035       0
   34037   34038   34038       0   34040   34041   34041       0   34043   34044
   34044       0   34046   34047   34047       0   34049   34050   34050       0
   34052   34053   34053       0   34055   34056   34056       0   34058   34059
   34059       0   34061   34062   34062       0   34064   34065   34065       0
   34067   34068   34068       0   34070   34071   34071       0   34073   34074
   34074       0   34076   34077   34077       0   34079   34080   34080       0
   34082   34083   34083       0   34085   34086   34086       0   34088   34089
   34089       0   34091   34092   34092       0   34094   34095   34095       0
   34097   34098   34098       0   34100   34101   34101       0   34103   34104
   34104       0   34106   34107   34107       0   34109   34110   34110       0
   34112   34113   34113       0   34115   34116   34116       0   34118   34119
   34119       0   34121   34122   34122       0   34124   34125   34125       0
   34127   34128   34128       0   34130   34131   34131       0   34133   34134
   34134       0   34136   34137   34137       0   34139   34140   34140       0
   34142   34143   34143       0   34145   34146   34146       0   34148   34149
   34149       0   34151   34152   34152       0   34154   34155   34155       0
   34157   34158   34158       0   34160   34161   34161       0   34163   34164
   34164       0   34166   34167   34167       0   34169   34170   34170       0
   34172   34173   34173       0   34175   34176   34176       0   34178   34179
   34179       0   34181   34182   34182       0   34184   34185   34185       0
   34187   34188   34188       0   34190   34191   34191       0   34193   34194
   34194       0   34196   34197   34197       0   34199   34200   34200       0
   34202   34203   34203       0   34205   34206   34206       0   34208   34209
   34209       0   34211   34212   34212       0   34214   34215   34215       0
   34217   34218   34218       0   34220   34221   34221       0   34223   34224
   34224       0   34226   34227   34227       0   34229   34230   34230       0
   34232   34233   34233       0   34235   34236   34236       0   34238   34239
   34239       0   34241   34242   34242       0   34244   34245   34245       0
   34247   34248   34248       0   34250   34251   34251       0   34253   34254
   34254       0   34256   34257   34257       0   34259   34260   34260       0
   34262   34263   34263       0   34265   34266   34266       0   34268   34269
   34269       0   34271   34272   34272       0   34274   34275   34275       0
   34277   34278   34278       0   34280   34281   34281       0   34283   34284
   34284       0   34286   34287   34287       0   34289   34290   34290       0
   34292   34293   34293       0   34295   34296   34296       0   34298   34299
   34299       0   34301   34302   34302       0   34304   34305   34305       0
   34307   34308   34308       0   34310   34311   34311       0   34313   34314
   34314       0   34316   34317   34317       0   34319   34320   34320       0
   34322   34323   34323       0   34325   34326   34326       0   34328   34329
   34329       0   34331   34332   34332       0   34334   34335   34335       0
   34337   34338   34338       0   34340   34341   34341       0   34343   34344
   34344       0   34346   34347   34347       0   34349   34350   34350       0
   34352   34353   34353       0   34355   34356   34356       0   34358   34359
   34359       0   34361   34362   34362       0   34364   34365   34365       0
   34367   34368   34368       0   34370   34371   34371       0   34373   34374
   34374       0   34376   34377   34377       0   34379   34380   34380       0
   34382   34383   34383       0   34385   34386   34386       0   34388   34389
   34389       0   34391   34392   34392       0   34394   34395   34395       0
   34397   34398   34398       0   34400   34401   34401       0   34403   34404
   34404       0   34406   34407   34407       0   34409   34410   34410       0
   34412   34413   34413       0   34415   34416   34416       0   34418   34419
   34419       0   34421   34422   34422       0   34424   34425   34425       0
   34427   34428   34428       0   34430   34431   34431       0   34433   34434
   34434       0   34436   34437   34437       0   34439   34440   34440       0
   34442   34443   34443       0   34445   34446   34446       0   34448   34449
   34449       0   34451   34452   34452       0   34454   34455   34455       0
   34457   34458   34458       0   34460   34461   34461       0   34463   34464
   34464       0   34466   34467   34467       0   34469   34470   34470       0
   34472   34473   34473       0   34475   34476   34476       0   34478   34479
   34479       0   34481   34482   34482       0   34484   34485   34485       0
   34487   34488   34488       0   34490   34491   34491       0   34493   34494
   34494       0   34496   34497   34497       0   34499   34500   34500       0
   34502   34503   34503       0   34505   34506   34506       0   34508   34509
   34509       0   34511   34512   34512       0   34514   34515   34515       0
   34517   34518   34518       0   34520   34521   34521       0   34523   34524
   34524       0   34526   34527   34527       0   34529   34530   34530       0
   34532   34533   34533       0   34535   34536   34536       0   34538   34539
   34539       0   34541   34542   34542       0   34544   34545   34545       0
   34547   34548   34548       0   34550   34551   34551       0   34553   34554
   34554       0   34556   34557   34557       0   34559   34560   34560       0
   34562   34563   34563       0   34565   34566   34566       0   34568   34569
   34569       0   34571   34572   34572       0   34574   34575   34575       0
   34577   34578   34578       0   34580   34581   34581       0   34583   34584
   34584       0   34586   34587   34587       0   34589   34590   34590       0
   34592   34593   34593       0   34595   34596   34596       0   34598   34599
   34599       0   34601   34602   34602       0   34604   34605   34605       0
   34607   34608   34608       0   34610   34611   34611       0   34613   34614
   34614       0   34616   34617   34617       0   34619   34620   34620       0
   34622   34623   34623       0   34625   34626   34626       0   34628   34629
   34629       0   34631   34632   34632       0   34634   34635   34635       0
   34637   34638   34638       0   34640   34641   34641       0   34643   34644
   34644       0   34646   34647   34647       0   34649   34650   34650       0
   34652   34653   34653       0   34655   34656   34656       0   34658   34659
   34659       0   34661   34662   34662       0   34664   34665   34665       0
   34667   34668   34668       0   34670   34671   34671       0   34673   34674
   34674       0   34676   34677   34677       0   34679   34680   34680       0
   34682   34683   34683       0   34685   34686   34686       0   34688   34689
   34689       0   34691   34692   34692       0   34694   34695   34695       0
   34697   34698   34698       0   34700   34701   34701       0   34703   34704
   34704       0   34706   34707   34707       0   34709   34710   34710       0
   34712   34713   34713       0   34715   34716   34716       0   34718   34719
   34719       0   34721   34722   34722       0   34724   34725   34725       0
   34727   34728   34728       0   34730   34731   34731       0   34733   34734
   34734       0   34736   34737   34737       0   34739   34740   34740       0
   34742   34743   34743       0   34745   34746   34746       0   34748   34749
   34749       0   34751   34752   34752       0   34754   34755   34755       0
   34757   34758   34758       0   34760   34761   34761       0   34763   34764
   34764       0   34766   34767   34767       0   34769   34770   34770       0
   34772   34773   34773       0   34775   34776   34776       0   34778   34779
   34779       0   34781   34782   34782       0   34784   34785   34785       0
   34787   34788   34788       0   34790   34791   34791       0   34793   34794
   34794       0   34796   34797   34797       0   34799   34800   34800       0
   34802   34803   34803       0   34805   34806   34806       0   34808   34809
   34809       0   34811   34812   34812       0   34814   34815   34815       0
   34817   34818   34818       0   34820   34821   34821       0   34823   34824
   34824       0   34826   34827   34827       0   34829   34830   34830       0
   34832   34833   34833       0   34835   34836   34836       0   34838   34839
   34839       0   34841   34842   34842       0   34844   34845   34845       0
   34847   34848   34848       0   34850   34851   34851       0   34853   34854
   34854       0   34856   34857   34857       0   34859   34860   34860       0
   34862   34863   34863       0   34865   34866   34866       0   34868   34869
   34869       0   34871   34872   34872       0   34874   34875   34875       0
   34877   34878   34878       0   34880   34881   34881       0   34883   34884
   34884       0   34886   34887   34887       0   34889   34890   34890       0
   34892   34893   34893       0   34895   34896   34896       0   34898   34899
   34899       0   34901   34902   34902       0   34904   34905   34905       0
   34907   34908   34908       0   34910   34911   34911       0   34913   34914
   34914       0   34916   34917   34917       0   34919   34920   34920       0
   34922   34923   34923       0   34925   34926   34926       0   34928   34929
   34929       0   34931   34932   34932       0   34934   34935   34935       0
   34937   34938   34938       0   34940   34941   34941       0   34943   34944
   34944       0   34946   34947   34947       0   34949   34950   34950       0
   34952   34953   34953       0   34955   34956   34956       0   34958   34959
   34959       0   34961   34962   34962       0   34964   34965   34965       0
   34967   34968   34968       0   34970   34971   34971       0   34973   34974
   34974       0   34976   34977   34977       0   34979   34980   34980       0
   34982   34983   34983       0   34985   34986   34986       0   34988   34989
   34989       0   34991   34992   34992       0   34994   34995   34995       0
   34997   34998   34998       0   35000   35001   35001       0   35003   35004
   35004       0   35006   35007   35007       0   35009   35010   35010       0
   35012   35013   35013       0   35015   35016   35016       0   35018   35019
   35019       0   35021   35022   35022       0   35024   35025   35025       0
   35027   35028   35028       0   35030   35031   35031       0   35033   35034
   35034       0   35036   35037   35037       0   35039   35040   35040       0
   35042   35043   35043       0   35045   35046   35046       0   35048   35049
   35049       0   35051   35052   35052       0   35054   35055   35055       0
   35057   35058   35058       0   35060   35061   35061       0   35063   35064
   35064       0   35066   35067   35067       0   35069   35070   35070       0
   35072   35073   35073       0   35075   35076   35076       0   35078   35079
   35079       0   35081   35082   35082       0   35084   35085   35085       0
   35087   35088   35088       0   35090   35091   35091       0   35093   35094
   35094       0   35096   35097   35097       0   35099   35100   35100       0
   35102   35103   35103       0   35105   35106   35106       0   35108   35109
   35109       0   35111   35112   35112       0   35114   35115   35115       0
   35117   35118   35118       0   35120   35121   35121       0   35123   35124
   35124       0   35126   35127   35127       0   35129   35130   35130       0
   35132   35133   35133       0   35135   35136   35136       0   35138   35139
   35139       0   35141   35142   35142       0   35144   35145   35145       0
   35147   35148   35148       0   35150   35151   35151       0   35153   35154
   35154       0   35156   35157   35157       0   35159   35160   35160       0
   35162   35163   35163       0   35165   35166   35166       0   35168   35169
   35169       0   35171   35172   35172       0   35174   35175   35175       0
   35177   35178   35178       0   35180   35181   35181       0   35183   35184
   35184       0   35186   35187   35187       0   35189   35190   35190       0
   35192   35193   35193       0   35195   35196   35196       0   35198   35199
   35199       0   35201   35202   35202       0   35204   35205   35205       0
   35207   35208   35208       0   35210   35211   35211       0   35213   35214
   35214       0   35216   35217   35217       0   35219   35220   35220       0
   35222   35223   35223       0   35225   35226   35226       0   35228   35229
   35229       0   35231   35232   35232       0   35234   35235   35235       0
   35237   35238   35238       0   35240   35241   35241       0   35243   35244
   35244       0   35246   35247   35247       0   35249   35250   35250       0
   35252   35253   35253       0   35255   35256   35256       0   35258   35259
   35259       0   35261   35262   35262       0   35264   35265   35265       0
   35267   35268   35268       0   35270   35271   35271       0   35273   35274
   35274       0   35276   35277   35277       0   35279   35280   35280       0
   35282   35283   35283       0   35285   35286   35286       0   35288   35289
   35289       0   35291   35292   35292       0   35294   35295   35295       0
   35297   35298   35298       0   35300   35301   35301       0   35303   35304
   35304       0   35306   35307   35307       0   35309   35310   35310       0
   35312   35313   35313       0   35315   35316   35316       0   35318   35319
   35319       0   35321   35322   35322       0   35324   35325   35325       0
   35327   35328   35328       0   35330   35331   35331       0   35333   35334
   35334       0   35336   35337   35337       0   35339   35340   35340       0
   35342   35343   35343       0   35345   35346   35346       0   35348   35349
   35349       0   35351   35352   35352       0   35354   35355   35355       0
   35357   35358   35358       0   35360   35361   35361       0   35363   35364
   35364       0   35366   35367   35367       0   35369   35370   35370       0
   35372   35373   35373       0   35375   35376   35376       0   35378   35379
   35379       0   35381   35382   35382       0   35384   35385   35385       0
   35387   35388   35388       0   35390   35391   35391       0   35393   35394
   35394       0   35396   35397   35397       0   35399   35400   35400       0
   35402   35403   35403       0   35405   35406   35406       0   35408   35409
   35409       0   35411   35412   35412       0   35414   35415   35415       0
   35417   35418   35418       0   35420   35421   35421       0   35423   35424
   35424       0   35426   35427   35427       0   35429   35430   35430       0
   35432   35433   35433       0   35435   35436   35436       0   35438   35439
   35439       0   35441   35442   35442       0   35444   35445   35445       0
   35447   35448   35448       0   35450   35451   35451       0   35453   35454
   35454       0   35456   35457   35457       0   35459   35460   35460       0
   35462   35463   35463       0   35465   35466   35466       0   35468   35469
   35469       0   35471   35472   35472       0   35474   35475   35475       0
   35477   35478   35478       0   35480   35481   35481       0   35483   35484
   35484       0   35486   35487   35487       0   35489   35490   35490       0
   35492   35493   35493       0   35495   35496   35496       0   35498   35499
   35499       0   35501   35502   35502       0   35504   35505   35505       0
   35507   35508   35508       0   35510   35511   35511       0   35513   35514
   35514       0   35516   35517   35517       0   35519   35520   35520       0
   35522   35523   35523       0   35525   35526   35526       0   35528   35529
   35529       0   35531   35532   35532       0   35534   35535   35535       0
   35537   35538   35538       0   35540   35541   35541       0   35543   35544
   35544       0   35546   35547   35547       0   35549   35550   35550       0
   35552   35553   35553       0   35555   35556   35556       0   35558   35559
   35559       0   35561   35562   35562       0   35564   35565   35565       0
   35567   35568   35568       0   35570   35571   35571       0   35573   35574
   35574       0   35576   35577   35577       0   35579   35580   35580       0
   35582   35583   35583       0   35585   35586   35586       0   35588   35589
   35589       0   35591   35592   35592       0   35594   35595   35595       0
   35597   35598   35598       0   35600   35601   35601       0   35603   35604
   35604       0   35606   35607   35607       0   35609   35610   35610       0
   35612   35613   35613       0   35615   35616   35616       0   35618   35619
   35619       0   35621   35622   35622       0   35624   35625   35625       0
   35627   35628   35628       0   35630   35631   35631       0   35633   35634
   35634       0   35636   35637   35637       0   35639   35640   35640       0
   35642   35643   35643       0   35645   35646   35646       0   35648   35649
   35649       0   35651   35652   35652       0   35654   35655   35655       0
   35657   35658   35658       0   35660   35661   35661       0   35663   35664
   35664       0   35666   35667   35667       0   35669   35670   35670       0
   35672   35673   35673       0   35675   35676   35676       0   35678   35679
   35679       0   35681   35682   35682       0   35684   35685   35685       0
   35687   35688   35688       0   35690   35691   35691       0   35693   35694
   35694       0   35696   35697   35697       0   35699   35700   35700       0
   35702   35703   35703       0   35705   35706   35706       0   35708   35709
   35709       0   35711   35712   35712       0   35714   35715   35715       0
   35717   35718   35718       0   35720   35721   35721       0   35723   35724
   35724       0   35726   35727   35727       0   35729   35730   35730       0
   35732   35733   35733       0   35735   35736   35736       0   35738   35739
   35739       0   35741   35742   35742       0   35744   35745   35745       0
   35747   35748   35748       0   35750   35751   35751       0   35753   35754
   35754       0   35756   35757   35757       0   35759   35760   35760       0
   35762   35763   35763       0   35765   35766   35766       0   35768   35769
   35769       0   35771   35772   35772       0   35774   35775   35775       0
   35777   35778   35778       0   35780   35781   35781       0   35783   35784
   35784       0   35786   35787   35787       0   35789   35790   35790       0
   35792   35793   35793       0   35795   35796   35796       0   35798   35799
   35799       0   35801   35802   35802       0   35804   35805   35805       0
   35807   35808   35808       0   35810   35811   35811       0   35813   35814
   35814       0   35816   35817   35817       0   35819   35820   35820       0
   35822   35823   35823       0   35825   35826   35826       0   35828   35829
   35829       0   35831   35832   35832       0   35834   35835   35835       0
   35837   35838   35838       0   35840   35841   35841       0   35843   35844
   35844       0   35846   35847   35847       0   35849   35850   35850       0
   35852   35853   35853       0   35855   35856   35856       0   35858   35859
   35859       0   35861   35862   35862       0   35864   35865   35865       0
   35867   35868   35868       0   35870   35871   35871       0   35873   35874
   35874       0   35876   35877   35877       0   35879   35880   35880       0
   35882   35883   35883       0   35885   35886   35886       0   35888   35889
   35889       0   35891   35892   35892       0   35894   35895   35895       0
   35897   35898   35898       0   35900   35901   35901       0   35903   35904
   35904       0   35906   35907   35907       0   35909   35910   35910       0
   35912   35913   35913       0   35915   35916   35916       0   35918   35919
   35919       0   35921   35922   35922       0   35924   35925   35925       0
   35927   35928   35928       0   35930   35931   35931       0   35933   35934
   35934       0   35936   35937   35937       0   35939   35940   35940       0
   35942   35943   35943       0   35945   35946   35946       0   35948   35949
   35949       0   35951   35952   35952       0   35954   35955   35955       0
   35957   35958   35958       0   35960   35961   35961       0   35963   35964
   35964       0   35966   35967   35967       0   35969   35970   35970       0
   35972   35973   35973       0   35975   35976   35976       0   35978   35979
   35979       0   35981   35982   35982       0   35984   35985   35985       0
   35987   35988   35988       0   35990   35991   35991       0   35993   35994
   35994       0   35996   35997   35997       0   35999   36000   36000       0
   36002   36003   36003       0   36005   36006   36006       0   36008   36009
   36009       0   36011   36012   36012       0   36014   36015   36015       0
   36017   36018   36018       0   36020   36021   36021       0   36023   36024
   36024       0   36026   36027   36027       0   36029   36030   36030       0
   36032   36033   36033       0   36035   36036   36036       0   36038   36039
   36039       0   36041   36042   36042       0   36044   36045   36045       0
   36047   36048   36048       0   36050   36051   36051       0   36053   36054
   36054       0   36056   36057   36057       0   36059   36060   36060       0
   36062   36063   36063       0   36065   36066   36066       0   36068   36069
   36069       0   36071   36072   36072       0   36074   36075   36075       0
   36077   36078   36078       0   36080   36081   36081       0   36083   36084
   36084       0   36086   36087   36087       0   36089   36090   36090       0
   36092   36093   36093       0   36095   36096   36096       0   36098   36099
   36099       0   36101   36102   36102       0   36104   36105   36105       0
   36107   36108   36108       0   36110   36111   36111       0   36113   36114
   36114       0   36116   36117   36117       0   36119   36120   36120       0
   36122   36123   36123       0   36125   36126   36126       0   36128   36129
   36129       0   36131   36132   36132       0   36134   36135   36135       0
   36137   36138   36138       0   36140   36141   36141       0   36143   36144
   36144       0   36146   36147   36147       0   36149   36150   36150       0
   36152   36153   36153       0   36155   36156   36156       0   36158   36159
   36159       0   36161   36162   36162       0   36164   36165   36165       0
   36167   36168   36168       0   36170   36171   36171       0   36173   36174
   36174       0   36176   36177   36177       0   36179   36180   36180       0
   36182   36183   36183       0   36185   36186   36186       0   36188   36189
   36189       0   36191   36192   36192       0   36194   36195   36195       0
   36197   36198   36198       0   36200   36201   36201       0   36203   36204
   36204       0   36206   36207   36207       0   36209   36210   36210       0
   36212   36213   36213       0   36215   36216   36216       0   36218   36219
   36219       0   36221   36222   36222       0   36224   36225   36225       0
   36227   36228   36228       0   36230   36231   36231       0   36233   36234
   36234       0   36236   36237   36237       0   36239   36240   36240       0
   36242   36243   36243       0   36245   36246   36246       0   36248   36249
   36249       0   36251   36252   36252       0   36254   36255   36255       0
   36257   36258   36258       0   36260   36261   36261       0   36263   36264
   36264       0   36266   36267   36267       0   36269   36270   36270       0
   36272   36273   36273       0   36275   36276   36276       0   36278   36279
   36279       0   36281   36282   36282       0   36284   36285   36285       0
   36287   36288   36288       0   36290   36291   36291       0   36293   36294
   36294       0   36296   36297   36297       0   36299   36300   36300       0
   36302   36303   36303       0   36305   36306   36306       0   36308   36309
   36309       0   36311   36312   36312       0   36314   36315   36315       0
   36317   36318   36318       0   36320   36321   36321       0   36323   36324
   36324       0   36326   36327   36327       0   36329   36330   36330       0
   36332   36333   36333       0   36335   36336   36336       0   36338   36339
   36339       0   36341   36342   36342       0   36344   36345   36345       0
   36347   36348   36348       0   36350   36351   36351       0   36353   36354
   36354       0   36356   36357   36357       0   36359   36360   36360       0
   36362   36363   36363       0   36365   36366   36366       0   36368   36369
   36369       0   36371   36372   36372       0   36374   36375   36375       0
   36377   36378   36378       0   36380   36381   36381       0   36383   36384
   36384       0   36386   36387   36387       0   36389   36390   36390       0
   36392   36393   36393       0   36395   36396   36396       0   36398   36399
   36399       0   36401   36402   36402       0   36404   36405   36405       0
   36407   36408   36408       0   36410   36411   36411       0   36413   36414
   36414       0   36416   36417   36417       0   36419   36420   36420       0
   36422   36423   36423       0   36425   36426   36426       0   36428   36429
   36429       0   36431   36432   36432       0   36434   36435   36435       0
   36437   36438   36438       0   36440   36441   36441       0   36443   36444
   36444       0   36446   36447   36447       0   36449   36450   36450       0
   36452   36453   36453       0   36455   36456   36456       0   36458   36459
   36459       0   36461   36462   36462       0   36464   36465   36465       0
   36467   36468   36468       0   36470   36471   36471       0   36473   36474
   36474       0   36476   36477   36477       0   36479   36480   36480       0
   36482   36483   36483       0   36485   36486   36486       0   36488   36489
   36489       0   36491   36492   36492       0   36494   36495   36495       0
   36497   36498   36498       0   36500   36501   36501       0   36503   36504
   36504       0   36506   36507   36507       0   36509   36510   36510       0
   36512   36513   36513       0   36515   36516   36516       0   36518   36519
   36519       0   36521   36522   36522       0   36524   36525   36525       0
   36527   36528   36528       0   36530   36531   36531       0   36533   36534
   36534       0   36536   36537   36537       0   36539   36540   36540       0
   36542   36543   36543       0   36545   36546   36546       0   36548   36549
   36549       0   36551   36552   36552       0   36554   36555   36555       0
   36557   36558   36558       0   36560   36561   36561       0   36563   36564
   36564       0   36566   36567   36567       0   36569   36570   36570       0
   36572   36573   36573       0   36575   36576   36576       0   36578   36579
   36579       0   36581   36582   36582       0   36584   36585   36585       0
   36587   36588   36588       0   36590   36591   36591       0   36593   36594
   36594       0   36596   36597   36597       0   36599   36600   36600       0
   36602   36603   36603       0   36605   36606   36606       0   36608   36609
   36609       0   36611   36612   36612       0   36614   36615   36615       0
   36617   36618   36618       0   36620   36621   36621       0   36623   36624
   36624       0   36626   36627   36627       0   36629   36630   36630       0
   36632   36633   36633       0   36635   36636   36636       0   36638   36639
   36639       0   36641   36642   36642       0   36644   36645   36645       0
   36647   36648   36648       0   36650   36651   36651       0   36653   36654
   36654       0   36656   36657   36657       0   36659   36660   36660       0
   36662   36663   36663       0   36665   36666   36666       0   36668   36669
   36669       0   36671   36672   36672       0   36674   36675   36675       0
   36677   36678   36678       0   36680   36681   36681       0   36683   36684
   36684       0   36686   36687   36687       0   36689   36690   36690       0
   36692   36693   36693       0   36695   36696   36696       0   36698   36699
   36699       0   36701   36702   36702       0   36704   36705   36705       0
   36707   36708   36708       0   36710   36711   36711       0   36713   36714
   36714       0   36716   36717   36717       0   36719   36720   36720       0
   36722   36723   36723       0   36725   36726   36726       0   36728   36729
   36729       0   36731   36732   36732       0   36734   36735   36735       0
   36737   36738   36738       0   36740   36741   36741       0   36743   36744
   36744       0   36746   36747   36747       0   36749   36750   36750       0
   36752   36753   36753       0   36755   36756   36756       0   36758   36759
   36759       0   36761   36762   36762       0   36764   36765   36765       0
   36767   36768   36768       0   36770   36771   36771       0   36773   36774
   36774       0   36776   36777   36777       0   36779   36780   36780       0
   36782   36783   36783       0   36785   36786   36786       0   36788   36789
   36789       0   36791   36792   36792       0   36794   36795   36795       0
   36797   36798   36798       0   36800   36801   36801       0   36803   36804
   36804       0   36806   36807   36807       0   36809   36810   36810       0
   36812   36813   36813       0   36815   36816   36816       0   36818   36819
   36819       0   36821   36822   36822       0   36824   36825   36825       0
   36827   36828   36828       0   36830   36831   36831       0   36833   36834
   36834       0   36836   36837   36837       0   36839   36840   36840       0
   36842   36843   36843       0   36845   36846   36846       0   36848   36849
   36849       0   36851   36852   36852       0   36854   36855   36855       0
   36857   36858   36858       0   36860   36861   36861       0   36863   36864
   36864       0   36866   36867   36867       0   36869   36870   36870       0
   36872   36873   36873       0   36875   36876   36876       0   36878   36879
   36879       0   36881   36882   36882       0   36884   36885   36885       0
   36887   36888   36888       0   36890   36891   36891       0   36893   36894
   36894       0   36896   36897   36897       0   36899   36900   36900       0
   36902   36903   36903       0   36905   36906   36906       0   36908   36909
   36909       0   36911   36912   36912       0   36914   36915   36915       0
   36917   36918   36918       0   36920   36921   36921       0   36923   36924
   36924       0   36926   36927   36927       0   36929   36930   36930       0
   36932   36933   36933       0   36935   36936   36936       0   36938   36939
   36939       0   36941   36942   36942       0   36944   36945   36945       0
   36947   36948   36948       0   36950   36951   36951       0   36953   36954
   36954       0   36956   36957   36957       0   36959   36960   36960       0
   36962   36963   36963       0   36965   36966   36966       0   36968   36969
   36969       0   36971   36972   36972       0   36974   36975   36975       0
   36977   36978   36978       0   36980   36981   36981       0   36983   36984
   36984       0   36986   36987   36987       0   36989   36990   36990       0
   36992   36993   36993       0   36995   36996   36996       0   36998   36999
   36999       0   37001   37002   37002       0   37004   37005   37005       0
   37007   37008   37008       0   37010   37011   37011       0   37013   37014
   37014       0   37016   37017   37017       0   37019   37020   37020       0
   37022   37023   37023       0   37025   37026   37026       0   37028   37029
   37029       0   37031   37032   37032       0   37034   37035   37035       0
   37037   37038   37038       0   37040   37041   37041       0   37043   37044
   37044       0   37046   37047   37047       0   37049   37050   37050       0
   37052   37053   37053       0   37055   37056   37056       0   37058   37059
   37059       0   37061   37062   37062       0   37064   37065   37065       0
   37067   37068   37068       0   37070   37071   37071       0   37073   37074
   37074       0   37076   37077   37077       0   37079   37080   37080       0
   37082   37083   37083       0   37085   37086   37086       0   37088   37089
   37089       0   37091   37092   37092       0   37094   37095   37095       0
   37097   37098   37098       0   37100   37101   37101       0   37103   37104
   37104       0   37106   37107   37107       0   37109   37110   37110       0
   37112   37113   37113       0   37115   37116   37116       0   37118   37119
   37119       0   37121   37122   37122       0   37124   37125   37125       0
   37127   37128   37128       0   37130   37131   37131       0   37133   37134
   37134       0   37136   37137   37137       0   37139   37140   37140       0
   37142   37143   37143       0   37145   37146   37146       0   37148   37149
   37149       0   37151   37152   37152       0   37154   37155   37155       0
   37157   37158   37158       0   37160   37161   37161       0   37163   37164
   37164       0   37166   37167   37167       0   37169   37170   37170       0
   37172   37173   37173       0   37175   37176   37176       0   37178   37179
   37179       0   37181   37182   37182       0   37184   37185   37185       0
   37187   37188   37188       0   37190   37191   37191       0   37193   37194
   37194       0   37196   37197   37197       0   37199   37200   37200       0
   37202   37203   37203       0   37205   37206   37206       0   37208   37209
   37209       0   37211   37212   37212       0   37214   37215   37215       0
   37217   37218   37218       0   37220   37221   37221       0   37223   37224
   37224       0   37226   37227   37227       0   37229   37230   37230       0
   37232   37233   37233       0   37235   37236   37236       0   37238   37239
   37239       0   37241   37242   37242       0   37244   37245   37245       0
   37247   37248   37248       0   37250   37251   37251       0   37253   37254
   37254       0   37256   37257   37257       0   37259   37260   37260       0
   37262   37263   37263       0   37265   37266   37266       0   37268   37269
   37269       0   37271   37272   37272       0   37274   37275   37275       0
   37277   37278   37278       0   37280   37281   37281       0   37283   37284
   37284       0   37286   37287   37287       0   37289   37290   37290       0
   37292   37293   37293       0   37295   37296   37296       0   37298   37299
   37299       0   37301   37302   37302       0   37304   37305   37305       0
   37307   37308   37308       0   37310   37311   37311       0   37313   37314
   37314       0   37316   37317   37317       0   37319   37320   37320       0
   37322   37323   37323       0   37325   37326   37326       0   37328   37329
   37329       0   37331   37332   37332       0   37334   37335   37335       0
   37337   37338   37338       0   37340   37341   37341       0   37343   37344
   37344       0   37346   37347   37347       0   37349   37350   37350       0
   37352   37353   37353       0   37355   37356   37356       0   37358   37359
   37359       0   37361   37362   37362       0   37364   37365   37365       0
   37367   37368   37368       0   37370   37371   37371       0   37373   37374
   37374       0   37376   37377   37377       0   37379   37380   37380       0
   37382   37383   37383       0   37385   37386   37386       0   37388   37389
   37389       0   37391   37392   37392       0   37394   37395   37395       0
   37397   37398   37398       0   37400   37401   37401       0   37403   37404
   37404       0   37406   37407   37407       0   37409   37410   37410       0
   37412   37413   37413       0   37415   37416   37416       0   37418   37419
   37419       0   37421   37422   37422       0   37424   37425   37425       0
   37427   37428   37428       0   37430   37431   37431       0   37433   37434
   37434       0   37436   37437   37437       0   37439   37440   37440       0
   37442   37443   37443       0   37445   37446   37446       0   37448   37449
   37449       0   37451   37452   37452       0   37454   37455   37455       0
   37457   37458   37458       0   37460   37461   37461       0   37463   37464
   37464       0   37466   37467   37467       0   37469   37470   37470       0
   37472   37473   37473       0   37475   37476   37476       0   37478   37479
   37479       0   37481   37482   37482       0   37484   37485   37485       0
   37487   37488   37488       0   37490   37491   37491       0   37493   37494
   37494       0   37496   37497   37497       0   37499   37500   37500       0
   37502   37503   37503       0   37505   37506   37506       0   37508   37509
   37509       0   37511   37512   37512       0   37514   37515   37515       0
   37517   37518   37518       0   37520   37521   37521       0   37523   37524
   37524       0   37526   37527   37527       0   37529   37530   37530       0
   37532   37533   37533       0   37535   37536   37536       0   37538   37539
   37539       0   37541   37542   37542       0   37544   37545   37545       0
   37547   37548   37548       0   37550   37551   37551       0   37553   37554
   37554       0   37556   37557   37557       0   37559   37560   37560       0
   37562   37563   37563       0   37565   37566   37566       0   37568   37569
   37569       0   37571   37572   37572       0   37574   37575   37575       0
   37577   37578   37578       0   37580   37581   37581       0   37583   37584
   37584       0   37586   37587   37587       0   37589   37590   37590       0
   37592   37593   37593       0   37595   37596   37596       0   37598   37599
   37599       0   37601   37602   37602       0   37604   37605   37605       0
   37607   37608   37608       0   37610   37611   37611       0   37613   37614
   37614       0   37616   37617   37617       0   37619   37620   37620       0
   37622   37623   37623       0   37625   37626   37626       0   37628   37629
   37629       0   37631   37632   37632       0   37634   37635   37635       0
   37637   37638   37638       0   37640   37641   37641       0   37643   37644
   37644       0   37646   37647   37647       0   37649   37650   37650       0
   37652   37653   37653       0   37655   37656   37656       0   37658   37659
   37659       0   37661   37662   37662       0   37664   37665   37665       0
   37667   37668   37668       0   37670   37671   37671       0   37673   37674
   37674       0   37676   37677   37677       0   37679   37680   37680       0
   37682   37683   37683       0   37685   37686   37686       0   37688   37689
   37689       0   37691   37692   37692       0   37694   37695   37695       0
   37697   37698   37698       0   37700   37701   37701       0   37703   37704
   37704       0   37706   37707   37707       0   37709   37710   37710       0
   37712   37713   37713       0   37715   37716   37716       0   37718   37719
   37719       0   37721   37722   37722       0   37724   37725   37725       0
   37727   37728   37728       0   37730   37731   37731       0   37733   37734
   37734       0   37736   37737   37737       0   37739   37740   37740       0
   37742   37743   37743       0   37745   37746   37746       0   37748   37749
   37749       0   37751   37752   37752       0   37754   37755   37755       0
   37757   37758   37758       0   37760   37761   37761       0   37763   37764
   37764       0   37766   37767   37767       0   37769   37770   37770       0
   37772   37773   37773       0   37775   37776   37776       0   37778   37779
   37779       0   37781   37782   37782       0   37784   37785   37785       0
   37787   37788   37788       0   37790   37791   37791       0   37793   37794
   37794       0   37796   37797   37797       0   37799   37800   37800       0
   37802   37803   37803       0   37805   37806   37806       0   37808   37809
   37809       0   37811   37812   37812       0   37814   37815   37815       0
   37817   37818   37818       0   37820   37821   37821       0   37823   37824
   37824       0   37826   37827   37827       0   37829   37830   37830       0
   37832   37833   37833       0   37835   37836   37836       0   37838   37839
   37839       0   37841   37842   37842       0   37844   37845   37845       0
   37847   37848   37848       0   37850   37851   37851       0   37853   37854
   37854       0   37856   37857   37857       0   37859   37860   37860       0
   37862   37863   37863       0   37865   37866   37866       0   37868   37869
   37869       0   37871   37872   37872       0   37874   37875   37875       0
   37877   37878   37878       0   37880   37881   37881       0   37883   37884
   37884       0   37886   37887   37887       0   37889   37890   37890       0
   37892   37893   37893       0   37895   37896   37896       0   37898   37899
   37899       0   37901   37902   37902       0   37904   37905   37905       0
   37907   37908   37908       0   37910   37911   37911       0   37913   37914
   37914       0   37916   37917   37917       0   37919   37920   37920       0
   37922   37923   37923       0   37925   37926   37926       0   37928   37929
   37929       0   37931   37932   37932       0   37934   37935   37935       0
   37937   37938   37938       0   37940   37941   37941       0   37943   37944
   37944       0   37946   37947   37947       0   37949   37950   37950       0
   37952   37953   37953       0   37955   37956   37956       0   37958   37959
   37959       0   37961   37962   37962       0   37964   37965   37965       0
   37967   37968   37968       0   37970   37971   37971       0   37973   37974
   37974       0   37976   37977   37977       0   37979   37980   37980       0
   37982   37983   37983       0   37985   37986   37986       0   37988   37989
   37989       0   37991   37992   37992       0   37994   37995   37995       0
   37997   37998   37998       0   38000   38001   38001       0   38003   38004
   38004       0   38006   38007   38007       0   38009   38010   38010       0
   38012   38013   38013       0   38015   38016   38016       0   38018   38019
   38019       0   38021   38022   38022       0   38024   38025   38025       0
   38027   38028   38028       0   38030   38031   38031       0   38033   38034
   38034       0   38036   38037   38037       0   38039   38040   38040       0
   38042   38043   38043       0   38045   38046   38046       0   38048   38049
   38049       0   38051   38052   38052       0   38054   38055   38055       0
   38057   38058   38058       0   38060   38061   38061       0   38063   38064
   38064       0   38066   38067   38067       0   38069   38070   38070       0
   38072   38073   38073       0   38075   38076   38076       0   38078   38079
   38079       0   38081   38082   38082       0   38084   38085   38085       0
   38087   38088   38088       0   38090   38091   38091       0   38093   38094
   38094       0   38096   38097   38097       0   38099   38100   38100       0
   38102   38103   38103       0   38105   38106   38106       0   38108   38109
   38109       0   38111   38112   38112       0   38114   38115   38115       0
   38117   38118   38118       0   38120   38121   38121       0   38123   38124
   38124       0   38126   38127   38127       0   38129   38130   38130       0
   38132   38133   38133       0   38135   38136   38136       0   38138   38139
   38139       0   38141   38142   38142       0   38144   38145   38145       0
   38147   38148   38148       0   38150   38151   38151       0   38153   38154
   38154       0   38156   38157   38157       0   38159   38160   38160       0
   38162   38163   38163       0   38165   38166   38166       0   38168   38169
   38169       0   38171   38172   38172       0   38174   38175   38175       0
   38177   38178   38178       0   38180   38181   38181       0   38183   38184
   38184       0   38186   38187   38187       0   38189   38190   38190       0
   38192   38193   38193       0   38195   38196   38196       0   38198   38199
   38199       0   38201   38202   38202       0   38204   38205   38205       0
   38207   38208   38208       0   38210   38211   38211       0   38213   38214
   38214       0   38216   38217   38217       0   38219   38220   38220       0
   38222   38223   38223       0   38225   38226   38226       0   38228   38229
   38229       0   38231   38232   38232       0   38234   38235   38235       0
   38237   38238   38238       0   38240   38241   38241       0   38243   38244
   38244       0   38246   38247   38247       0   38249   38250   38250       0
   38252   38253   38253       0   38255   38256   38256       0   38258   38259
   38259       0   38261   38262   38262       0   38264   38265   38265       0
   38267   38268   38268       0   38270   38271   38271       0   38273   38274
   38274       0   38276   38277   38277       0   38279   38280   38280       0
   38282   38283   38283       0   38285   38286   38286       0   38288   38289
   38289       0   38291   38292   38292       0   38294   38295   38295       0
   38297   38298   38298       0   38300   38301   38301       0   38303   38304
   38304       0   38306   38307   38307       0   38309   38310   38310       0
   38312   38313   38313       0   38315   38316   38316       0   38318   38319
   38319       0   38321   38322   38322       0   38324   38325   38325       0
   38327   38328   38328       0   38330   38331   38331       0   38333   38334
   38334       0   38336   38337   38337       0   38339   38340   38340       0
   38342   38343   38343       0   38345   38346   38346       0   38348   38349
   38349       0   38351   38352   38352       0   38354   38355   38355       0
   38357   38358   38358       0   38360   38361   38361       0   38363   38364
   38364       0   38366   38367   38367       0   38369   38370   38370       0
   38372   38373   38373       0   38375   38376   38376       0   38378   38379
   38379       0   38381   38382   38382       0   38384   38385   38385       0
   38387   38388   38388       0   38390   38391   38391       0   38393   38394
   38394       0   38396   38397   38397       0   38399   38400   38400       0
   38402   38403   38403       0   38405   38406   38406       0   38408   38409
   38409       0   38411   38412   38412       0   38414   38415   38415       0
   38417   38418   38418       0   38420   38421   38421       0   38423   38424
   38424       0   38426   38427   38427       0   38429   38430   38430       0
   38432   38433   38433       0   38435   38436   38436       0   38438   38439
   38439       0   38441   38442   38442       0   38444   38445   38445       0
   38447   38448   38448       0   38450   38451   38451       0   38453   38454
   38454       0   38456   38457   38457       0   38459   38460   38460       0
   38462   38463   38463       0   38465   38466   38466       0   38468   38469
   38469       0   38471   38472   38472       0   38474   38475   38475       0
   38477   38478   38478       0   38480   38481   38481       0   38483   38484
   38484       0   38486   38487   38487       0   38489   38490   38490       0
   38492   38493   38493       0   38495   38496   38496       0   38498   38499
   38499       0   38501   38502   38502       0   38504   38505   38505       0
   38507   38508   38508       0   38510   38511   38511       0   38513   38514
   38514       0   38516   38517   38517       0   38519   38520   38520       0
   38522   38523   38523       0   38525   38526   38526       0   38528   38529
   38529       0   38531   38532   38532       0   38534   38535   38535       0
   38537   38538   38538       0   38540   38541   38541       0   38543   38544
   38544       0   38546   38547   38547       0   38549   38550   38550       0
   38552   38553   38553       0   38555   38556   38556       0   38558   38559
   38559       0   38561   38562   38562       0   38564   38565   38565       0
   38567   38568   38568       0   38570   38571   38571       0   38573   38574
   38574       0   38576   38577   38577       0   38579   38580   38580       0
   38582   38583   38583       0   38585   38586   38586       0   38588   38589
   38589       0   38591   38592   38592       0   38594   38595   38595       0
   38597   38598   38598       0   38600   38601   38601       0   38603   38604
   38604       0   38606   38607   38607       0   38609   38610   38610       0
   38612   38613   38613       0   38615   38616   38616       0   38618   38619
   38619       0   38621   38622   38622       0   38624   38625   38625       0
   38627   38628   38628       0   38630   38631   38631       0   38633   38634
   38634       0   38636   38637   38637       0   38639   38640   38640       0
   38642   38643   38643       0   38645   38646   38646       0   38648   38649
   38649       0   38651   38652   38652       0   38654   38655   38655       0
   38657   38658   38658       0   38660   38661   38661       0   38663   38664
   38664       0   38666   38667   38667       0   38669   38670   38670       0
   38672   38673   38673       0   38675   38676   38676       0   38678   38679
   38679       0   38681   38682   38682       0   38684   38685   38685       0
   38687   38688   38688       0   38690   38691   38691       0   38693   38694
   38694       0   38696   38697   38697       0   38699   38700   38700       0
   38702   38703   38703       0   38705   38706   38706       0   38708   38709
   38709       0   38711   38712   38712       0   38714   38715   38715       0
   38717   38718   38718       0   38720   38721   38721       0   38723   38724
   38724       0   38726   38727   38727       0   38729   38730   38730       0
   38732   38733   38733       0   38735   38736   38736       0   38738   38739
   38739       0   38741   38742   38742       0   38744   38745   38745       0
   38747   38748   38748       0   38750   38751   38751       0   38753   38754
   38754       0   38756   38757   38757       0   38759   38760   38760       0
   38762   38763   38763       0   38765   38766   38766       0   38768   38769
   38769       0   38771   38772   38772       0   38774   38775   38775       0
   38777   38778   38778       0   38780   38781   38781       0   38783   38784
   38784       0   38786   38787   38787       0   38789   38790   38790       0
   38792   38793   38793       0   38795   38796   38796       0   38798   38799
   38799       0   38801   38802   38802       0   38804   38805   38805       0
   38807   38808   38808       0   38810   38811   38811       0   38813   38814
   38814       0   38816   38817   38817       0   38819   38820   38820       0
   38822   38823   38823       0   38825   38826   38826       0   38828   38829
   38829       0   38831   38832   38832       0   38834   38835   38835       0
   38837   38838   38838       0   38840   38841   38841       0   38843   38844
   38844       0   38846   38847   38847       0   38849   38850   38850       0
   38852   38853   38853       0   38855   38856   38856       0   38858   38859
   38859       0   38861   38862   38862       0   38864   38865   38865       0
   38867   38868   38868       0   38870   38871   38871       0   38873   38874
   38874       0   38876   38877   38877       0   38879   38880   38880       0
   38882   38883   38883       0   38885   38886   38886       0   38888   38889
   38889       0   38891   38892   38892       0   38894   38895   38895       0
   38897   38898   38898       0   38900   38901   38901       0   38903   38904
   38904       0   38906   38907   38907       0   38909   38910   38910       0
   38912   38913   38913       0   38915   38916   38916       0   38918   38919
   38919       0   38921   38922   38922       0   38924   38925   38925       0
   38927   38928   38928       0   38930   38931   38931       0   38933   38934
   38934       0   38936   38937   38937       0   38939   38940   38940       0
   38942   38943   38943       0   38945   38946   38946       0   38948   38949
   38949       0   38951   38952   38952       0   38954   38955   38955       0
   38957   38958   38958       0   38960   38961   38961       0   38963   38964
   38964       0   38966   38967   38967       0   38969   38970   38970       0
   38972   38973   38973       0   38975   38976   38976       0   38978   38979
   38979       0   38981   38982   38982       0   38984   38985   38985       0
   38987   38988   38988       0   38990   38991   38991       0   38993   38994
   38994       0   38996   38997   38997       0   38999   39000   39000       0
   39002   39003   39003       0   39005   39006   39006       0   39008   39009
   39009       0   39011   39012   39012       0   39014   39015   39015       0
   39017   39018   39018       0   39020   39021   39021       0   39023   39024
   39024       0   39026   39027   39027       0   39029   39030   39030       0
   39032   39033   39033       0   39035   39036   39036       0   39038   39039
   39039       0   39041   39042   39042       0   39044   39045   39045       0
   39047   39048   39048       0   39050   39051   39051       0   39053   39054
   39054       0   39056   39057   39057       0   39059   39060   39060       0
   39062   39063   39063       0   39065   39066   39066       0   39068   39069
   39069       0   39071   39072   39072       0   39074   39075   39075       0
   39077   39078   39078       0   39080   39081   39081       0   39083   39084
   39084       0   39086   39087   39087       0   39089   39090   39090       0
   39092   39093   39093       0   39095   39096   39096       0   39098   39099
   39099       0   39101   39102   39102       0   39104   39105   39105       0
   39107   39108   39108       0   39110   39111   39111       0   39113   39114
   39114       0   39116   39117   39117       0   39119   39120   39120       0
   39122   39123   39123       0   39125   39126   39126       0   39128   39129
   39129       0   39131   39132   39132       0   39134   39135   39135       0
   39137   39138   39138       0   39140   39141   39141       0   39143   39144
   39144       0   39146   39147   39147       0   39149   39150   39150       0
   39152   39153   39153       0   39155   39156   39156       0   39158   39159
   39159       0   39161   39162   39162       0   39164   39165   39165       0
   39167   39168   39168       0   39170   39171   39171       0   39173   39174
   39174       0   39176   39177   39177       0   39179   39180   39180       0
   39182   39183   39183       0   39185   39186   39186       0   39188   39189
   39189       0   39191   39192   39192       0   39194   39195   39195       0
   39197   39198   39198       0   39200   39201   39201       0   39203   39204
   39204       0   39206   39207   39207       0   39209   39210   39210       0
   39212   39213   39213       0   39215   39216   39216       0   39218   39219
   39219       0   39221   39222   39222       0   39224   39225   39225       0
   39227   39228   39228       0   39230   39231   39231       0   39233   39234
   39234       0   39236   39237   39237       0   39239   39240   39240       0
   39242   39243   39243       0   39245   39246   39246       0   39248   39249
   39249       0   39251   39252   39252       0   39254   39255   39255       0
   39257   39258   39258       0   39260   39261   39261       0   39263   39264
   39264       0   39266   39267   39267       0   39269   39270   39270       0
   39272   39273   39273       0   39275   39276   39276       0   39278   39279
   39279       0   39281   39282   39282       0   39284   39285   39285       0
   39287   39288   39288       0   39290   39291   39291       0   39293   39294
   39294       0   39296   39297   39297       0   39299   39300   39300       0
   39302   39303   39303       0   39305   39306   39306       0   39308   39309
   39309       0   39311   39312   39312       0   39314   39315   39315       0
   39317   39318   39318       0   39320   39321   39321       0   39323   39324
   39324       0   39326   39327   39327       0   39329   39330   39330       0
   39332   39333   39333       0   39335   39336   39336       0   39338   39339
   39339       0   39341   39342   39342       0   39344   39345   39345       0
   39347   39348   39348       0   39350   39351   39351       0   39353   39354
   39354       0   39356   39357   39357       0   39359   39360   39360       0
   39362   39363   39363       0   39365   39366   39366       0   39368   39369
   39369       0   39371   39372   39372       0   39374   39375   39375       0
   39377   39378   39378       0   39380   39381   39381       0   39383   39384
   39384       0   39386   39387   39387       0   39389   39390   39390       0
   39392   39393   39393       0   39395   39396   39396       0   39398   39399
   39399       0   39401   39402   39402       0   39404   39405   39405       0
   39407   39408   39408       0   39410   39411   39411       0   39413   39414
   39414       0   39416   39417   39417       0   39419   39420   39420       0
   39422   39423   39423       0   39425   39426   39426       0   39428   39429
   39429       0   39431   39432   39432       0   39434   39435   39435       0
   39437   39438   39438       0   39440   39441   39441       0   39443   39444
   39444       0   39446   39447   39447       0   39449   39450   39450       0
   39452   39453   39453       0   39455   39456   39456       0   39458   39459
   39459       0   39461   39462   39462       0   39464   39465   39465       0
   39467   39468   39468       0   39470   39471   39471       0   39473   39474
   39474       0   39476   39477   39477       0   39479   39480   39480       0
   39482   39483   39483       0   39485   39486   39486       0   39488   39489
   39489       0   39491   39492   39492       0   39494   39495   39495       0
   39497   39498   39498       0   39500   39501   39501       0   39503   39504
   39504       0   39506   39507   39507       0   39509   39510   39510       0
   39512   39513   39513       0   39515   39516   39516       0   39518   39519
   39519       0   39521   39522   39522       0   39524   39525   39525       0
   39527   39528   39528       0   39530   39531   39531       0   39533   39534
   39534       0   39536   39537   39537       0   39539   39540   39540       0
   39542   39543   39543       0   39545   39546   39546       0   39548   39549
   39549       0   39551   39552   39552       0   39554   39555   39555       0
   39557   39558   39558       0   39560   39561   39561       0   39563   39564
   39564       0   39566   39567   39567       0   39569   39570   39570       0
   39572   39573   39573       0   39575   39576   39576       0   39578   39579
   39579       0   39581   39582   39582       0   39584   39585   39585       0
   39587   39588   39588       0   39590   39591   39591       0   39593   39594
   39594       0   39596   39597   39597       0   39599   39600   39600       0
   39602   39603   39603       0   39605   39606   39606       0   39608   39609
   39609       0   39611   39612   39612       0   39614   39615   39615       0
   39617   39618   39618       0   39620   39621   39621       0   39623   39624
   39624       0   39626   39627   39627       0   39629   39630   39630       0
   39632   39633   39633       0   39635   39636   39636       0   39638   39639
   39639       0   39641   39642   39642       0   39644   39645   39645       0
   39647   39648   39648       0   39650   39651   39651       0   39653   39654
   39654       0   39656   39657   39657       0   39659   39660   39660       0
   39662   39663   39663       0   39665   39666   39666       0   39668   39669
   39669       0   39671   39672   39672       0   39674   39675   39675       0
   39677   39678   39678       0   39680   39681   39681       0   39683   39684
   39684       0   39686   39687   39687       0   39689   39690   39690       0
   39692   39693   39693       0   39695   39696   39696       0   39698   39699
   39699       0   39701   39702   39702       0   39704   39705   39705       0
   39707   39708   39708       0   39710   39711   39711       0   39713   39714
   39714       0   39716   39717   39717       0   39719   39720   39720       0
   39722   39723   39723       0   39725   39726   39726       0   39728   39729
   39729       0   39731   39732   39732       0   39734   39735   39735       0
   39737   39738   39738       0   39740   39741   39741       0   39743   39744
   39744       0   39746   39747   39747       0   39749   39750   39750       0
   39752   39753   39753       0   39755   39756   39756       0   39758   39759
   39759       0   39761   39762   39762       0   39764   39765   39765       0
   39767   39768   39768       0   39770   39771   39771       0   39773   39774
   39774       0   39776   39777   39777       0   39779   39780   39780       0
   39782   39783   39783       0   39785   39786   39786       0   39788   39789
   39789       0   39791   39792   39792       0   39794   39795   39795       0
   39797   39798   39798       0   39800   39801   39801       0   39803   39804
   39804       0   39806   39807   39807       0   39809   39810   39810       0
   39812   39813   39813       0   39815   39816   39816       0   39818   39819
   39819       0   39821   39822   39822       0   39824   39825   39825       0
   39827   39828   39828       0   39830   39831   39831       0   39833   39834
   39834       0   39836   39837   39837       0   39839   39840   39840       0
   39842   39843   39843       0   39845   39846   39846       0   39848   39849
   39849       0   39851   39852   39852       0   39854   39855   39855       0
   39857   39858   39858       0   39860   39861   39861       0   39863   39864
   39864       0   39866   39867   39867       0   39869   39870   39870       0
   39872   39873   39873       0   39875   39876   39876       0   39878   39879
   39879       0   39881   39882   39882       0   39884   39885   39885       0
   39887   39888   39888       0   39890   39891   39891       0   39893   39894
   39894       0   39896   39897   39897       0   39899   39900   39900       0
   39902   39903   39903       0   39905   39906   39906       0   39908   39909
   39909       0   39911   39912   39912       0   39914   39915   39915       0
   39917   39918   39918       0   39920   39921   39921       0   39923   39924
   39924       0   39926   39927   39927       0   39929   39930   39930       0
   39932   39933   39933       0   39935   39936   39936       0   39938   39939
   39939       0   39941   39942   39942       0   39944   39945   39945       0
   39947   39948   39948       0   39950   39951   39951       0   39953   39954
   39954       0   39956   39957   39957       0   39959   39960   39960       0
   39962   39963   39963       0   39965   39966   39966       0   39968   39969
   39969       0   39971   39972   39972       0   39974   39975   39975       0
   39977   39978   39978       0   39980   39981   39981       0   39983   39984
   39984       0   39986   39987   39987       0   39989   39990   39990       0
   39992   39993   39993       0   39995   39996   39996       0   39998   39999
   39999       0   40001   40002   40002       0   40004   40005   40005       0
   40007   40008   40008       0   40010   40011   40011       0   40013   40014
   40014       0   40016   40017   40017       0   40019   40020   40020       0
   40022   40023   40023       0   40025   40026   40026       0   40028   40029
   40029       0   40031   40032   40032       0   40034   40035   40035       0
   40037   40038   40038       0   40040   40041   40041       0   40043   40044
   40044       0   40046   40047   40047       0   40049   40050   40050       0
   40052   40053   40053       0   40055   40056   40056       0   40058   40059
   40059       0   40061   40062   40062       0   40064   40065   40065       0
   40067   40068   40068       0   40070   40071   40071       0   40073   40074
   40074       0   40076   40077   40077       0   40079   40080   40080       0
   40082   40083   40083       0   40085   40086   40086       0   40088   40089
   40089       0   40091   40092   40092       0   40094   40095   40095       0
   40097   40098   40098       0   40100   40101   40101       0   40103   40104
   40104       0   40106   40107   40107       0   40109   40110   40110       0
   40112   40113   40113       0   40115   40116   40116       0   40118   40119
   40119       0   40121   40122   40122       0   40124   40125   40125       0
   40127   40128   40128       0   40130   40131   40131       0   40133   40134
   40134       0   40136   40137   40137       0   40139   40140   40140       0
   40142   40143   40143       0   40145   40146   40146       0   40148   40149
   40149       0   40151   40152   40152       0   40154   40155   40155       0
   40157   40158   40158       0   40160   40161   40161       0   40163   40164
   40164       0   40166   40167   40167       0   40169   40170   40170       0
   40172   40173   40173       0   40175   40176   40176       0   40178   40179
   40179       0   40181   40182   40182       0   40184   40185   40185       0
   40187   40188   40188       0   40190   40191   40191       0   40193   40194
   40194       0   40196   40197   40197       0   40199   40200   40200       0
   40202   40203   40203       0   40205   40206   40206       0   40208   40209
   40209       0   40211   40212   40212       0   40214   40215   40215       0
   40217   40218   40218       0   40220   40221   40221       0   40223   40224
   40224       0   40226   40227   40227       0   40229   40230   40230       0
   40232   40233   40233       0   40235   40236   40236       0   40238   40239
   40239       0   40241   40242   40242       0   40244   40245   40245       0
   40247   40248   40248       0   40250   40251   40251       0   40253   40254
   40254       0   40256   40257   40257       0   40259   40260   40260       0
   40262   40263   40263       0   40265   40266   40266       0   40268   40269
   40269       0   40271   40272   40272       0   40274   40275   40275       0
   40277   40278   40278       0   40280   40281   40281       0   40283   40284
   40284       0   40286   40287   40287       0   40289   40290   40290       0
   40292   40293   40293       0   40295   40296   40296       0   40298   40299
   40299       0   40301   40302   40302       0   40304   40305   40305       0
   40307   40308   40308       0   40310   40311   40311       0   40313   40314
   40314       0   40316   40317   40317       0   40319   40320   40320       0
   40322   40323   40323       0   40325   40326   40326       0   40328   40329
   40329       0   40331   40332   40332       0   40334   40335   40335       0
   40337   40338   40338       0   40340   40341   40341       0   40343   40344
   40344       0   40346   40347   40347       0   40349   40350   40350       0
   40352   40353   40353       0   40355   40356   40356       0   40358   40359
   40359       0   40361   40362   40362       0   40364   40365   40365       0
   40367   40368   40368       0   40370   40371   40371       0   40373   40374
   40374       0   40376   40377   40377       0   40379   40380   40380       0
   40382   40383   40383       0   40385   40386   40386       0   40388   40389
   40389       0   40391   40392   40392       0   40394   40395   40395       0
   40397   40398   40398       0   40400   40401   40401       0   40403   40404
   40404       0   40406   40407   40407       0   40409   40410   40410       0
   40412   40413   40413       0   40415   40416   40416       0   40418   40419
   40419       0   40421   40422   40422       0   40424   40425   40425       0
   40427   40428   40428       0   40430   40431   40431       0   40433   40434
   40434       0   40436   40437   40437       0   40439   40440   40440       0
   40442   40443   40443       0   40445   40446   40446       0   40448   40449
   40449       0   40451   40452   40452       0   40454   40455   40455       0
   40457   40458   40458       0   40460   40461   40461       0   40463   40464
   40464       0   40466   40467   40467       0   40469   40470   40470       0
   40472   40473   40473       0   40475   40476   40476       0   40478   40479
   40479       0   40481   40482   40482       0   40484   40485   40485       0
   40487   40488   40488       0   40490   40491   40491       0   40493   40494
   40494       0   40496   40497   40497       0   40499   40500   40500       0
   40502   40503   40503       0   40505   40506   40506       0   40508   40509
   40509       0   40511   40512   40512       0   40514   40515   40515       0
   40517   40518   40518       0   40520   40521   40521       0   40523   40524
   40524       0   40526   40527   40527       0   40529   40530   40530       0
   40532   40533   40533       0   40535   40536   40536       0   40538   40539
   40539       0   40541   40542   40542       0   40544   40545   40545       0
   40547   40548   40548       0   40550   40551   40551       0   40553   40554
   40554       0   40556   40557   40557       0   40559   40560   40560       0
   40562   40563   40563       0   40565   40566   40566       0   40568   40569
   40569       0   40571   40572   40572       0   40574   40575   40575       0
   40577   40578   40578       0   40580   40581   40581       0   40583   40584
   40584       0   40586   40587   40587       0   40589   40590   40590       0
   40592   40593   40593       0   40595   40596   40596       0   40598   40599
   40599       0   40601   40602   40602       0   40604   40605   40605       0
   40607   40608   40608       0   40610   40611   40611       0   40613   40614
   40614       0   40616   40617   40617       0   40619   40620   40620       0
   40622   40623   40623       0   40625   40626   40626       0   40628   40629
   40629       0   40631   40632   40632       0   40634   40635   40635       0
   40637   40638   40638       0   40640   40641   40641       0   40643   40644
   40644       0   40646   40647   40647       0   40649   40650   40650       0
   40652   40653   40653       0   40655   40656   40656       0   40658   40659
   40659       0   40661   40662   40662       0   40664   40665   40665       0
   40667   40668   40668       0   40670   40671   40671       0   40673   40674
   40674       0   40676   40677   40677       0   40679   40680   40680       0
   40682   40683   40683       0   40685   40686   40686       0   40688   40689
   40689       0   40691   40692   40692       0   40694   40695   40695       0
   40697   40698   40698       0   40700   40701   40701       0   40703   40704
   40704       0   40706   40707   40707       0   40709   40710   40710       0
   40712   40713   40713       0   40715   40716   40716       0   40718   40719
   40719       0   40721   40722   40722       0   40724   40725   40725       0
   40727   40728   40728       0   40730   40731   40731       0   40733   40734
   40734       0   40736   40737   40737       0   40739   40740   40740       0
   40742   40743   40743       0   40745   40746   40746       0   40748   40749
   40749       0   40751   40752   40752       0   40754   40755   40755       0
   40757   40758   40758       0   40760   40761   40761       0   40763   40764
   40764       0   40766   40767   40767       0   40769   40770   40770       0
   40772   40773   40773       0   40775   40776   40776       0   40778   40779
   40779       0   40781   40782   40782       0   40784   40785   40785       0
   40787   40788   40788       0   40790   40791   40791       0   40793   40794
   40794       0   40796   40797   40797       0   40799   40800   40800       0
   40802   40803   40803       0   40805   40806   40806       0   40808   40809
   40809       0   40811   40812   40812       0   40814   40815   40815       0
   40817   40818   40818       0   40820   40821   40821       0   40823   40824
   40824       0   40826   40827   40827       0   40829   40830   40830       0
   40832   40833   40833       0   40835   40836   40836       0   40838   40839
   40839       0   40841   40842   40842       0   40844   40845   40845       0
   40847   40848   40848       0   40850   40851   40851       0   40853   40854
   40854       0   40856   40857   40857       0   40859   40860   40860       0
   40862   40863   40863       0   40865   40866   40866       0   40868   40869
   40869       0   40871   40872   40872       0   40874   40875   40875       0
   40877   40878   40878       0   40880   40881   40881       0   40883   40884
   40884       0   40886   40887   40887       0   40889   40890   40890       0
   40892   40893   40893       0   40895   40896   40896       0   40898   40899
   40899       0   40901   40902   40902       0   40904   40905   40905       0
   40907   40908   40908       0   40910   40911   40911       0   40913   40914
   40914       0   40916   40917   40917       0   40919   40920   40920       0
   40922   40923   40923       0   40925   40926   40926       0   40928   40929
   40929       0   40931   40932   40932       0   40934   40935   40935       0
   40937   40938   40938       0   40940   40941   40941       0   40943   40944
   40944       0   40946   40947   40947       0   40949   40950   40950       0
   40952   40953   40953       0   40955   40956   40956       0   40958   40959
   40959       0   40961   40962   40962       0   40964   40965   40965       0
   40967   40968   40968       0   40970   40971   40971       0   40973   40974
   40974       0   40976   40977   40977       0   40979   40980   40980       0
   40982   40983   40983       0   40985   40986   40986       0   40988   40989
   40989       0   40991   40992   40992       0   40994   40995   40995       0
   40997   40998   40998       0   41000   41001   41001       0   41003   41004
   41004       0   41006   41007   41007       0   41009   41010   41010       0
   41012   41013   41013       0   41015   41016   41016       0   41018   41019
   41019       0   41021   41022   41022       0   41024   41025   41025       0
   41027   41028   41028       0   41030   41031   41031       0   41033   41034
   41034       0   41036   41037   41037       0   41039   41040   41040       0
   41042   41043   41043       0   41045   41046   41046       0   41048   41049
   41049       0   41051   41052   41052       0   41054   41055   41055       0
   41057   41058   41058       0   41060   41061   41061       0   41063   41064
   41064       0   41066   41067   41067       0   41069   41070   41070       0
   41072   41073   41073       0   41075   41076   41076       0   41078   41079
   41079       0   41081   41082   41082       0   41084   41085   41085       0
   41087   41088   41088       0   41090   41091   41091       0   41093   41094
   41094       0   41096   41097   41097       0   41099   41100   41100       0
   41102   41103   41103       0   41105   41106   41106       0   41108   41109
   41109       0   41111   41112   41112       0   41114   41115   41115       0
   41117   41118   41118       0   41120   41121   41121       0   41123   41124
   41124       0   41126   41127   41127       0   41129   41130   41130       0
   41132   41133   41133       0   41135   41136   41136       0   41138   41139
   41139       0   41141   41142   41142       0   41144   41145   41145       0
   41147   41148   41148       0   41150   41151   41151       0   41153   41154
   41154       0   41156   41157   41157       0   41159   41160   41160       0
   41162   41163   41163       0   41165   41166   41166       0   41168   41169
   41169       0   41171   41172   41172       0   41174   41175   41175       0
   41177   41178   41178       0   41180   41181   41181       0   41183   41184
   41184       0   41186   41187   41187       0   41189   41190   41190       0
   41192   41193   41193       0   41195   41196   41196       0   41198   41199
   41199       0   41201   41202   41202       0   41204   41205   41205       0
   41207   41208   41208       0   41210   41211   41211       0   41213   41214
   41214       0   41216   41217   41217       0   41219   41220   41220       0
   41222   41223   41223       0   41225   41226   41226       0   41228   41229
   41229       0   41231   41232   41232       0   41234   41235   41235       0
   41237   41238   41238       0   41240   41241   41241       0   41243   41244
   41244       0   41246   41247   41247       0   41249   41250   41250       0
   41252   41253   41253       0   41255   41256   41256       0   41258   41259
   41259       0   41261   41262   41262       0   41264   41265   41265       0
   41267   41268   41268       0   41270   41271   41271       0   41273   41274
   41274       0   41276   41277   41277       0   41279   41280   41280       0
   41282   41283   41283       0   41285   41286   41286       0   41288   41289
   41289       0   41291   41292   41292       0   41294   41295   41295       0
   41297   41298   41298       0   41300   41301   41301       0   41303   41304
   41304       0   41306   41307   41307       0   41309   41310   41310       0
   41312   41313   41313       0   41315   41316   41316       0   41318   41319
   41319       0   41321   41322   41322       0   41324   41325   41325       0
   41327   41328   41328       0   41330   41331   41331       0   41333   41334
   41334       0   41336   41337   41337       0   41339   41340   41340       0
   41342   41343   41343       0   41345   41346   41346       0   41348   41349
   41349       0   41351   41352   41352       0   41354   41355   41355       0
   41357   41358   41358       0   41360   41361   41361       0   41363   41364
   41364       0   41366   41367   41367       0   41369   41370   41370       0
   41372   41373   41373       0   41375   41376   41376       0   41378   41379
   41379       0   41381   41382   41382       0   41384   41385   41385       0
   41387   41388   41388       0   41390   41391   41391       0   41393   41394
   41394       0   41396   41397   41397       0   41399   41400   41400       0
   41402   41403   41403       0   41405   41406   41406       0   41408   41409
   41409       0   41411   41412   41412       0   41414   41415   41415       0
   41417   41418   41418       0   41420   41421   41421       0   41423   41424
   41424       0   41426   41427   41427       0   41429   41430   41430       0
   41432   41433   41433       0   41435   41436   41436       0   41438   41439
   41439       0   41441   41442   41442       0   41444   41445   41445       0
   41447   41448   41448       0   41450   41451   41451       0   41453   41454
   41454       0   41456   41457   41457       0   41459   41460   41460       0
   41462   41463   41463       0   41465   41466   41466       0   41468   41469
   41469       0   41471   41472   41472       0   41474   41475   41475       0
   41477   41478   41478       0   41480   41481   41481       0   41483   41484
   41484       0   41486   41487   41487       0   41489   41490   41490       0
   41492   41493   41493       0   41495   41496   41496       0   41498   41499
   41499       0   41501   41502   41502       0   41504   41505   41505       0
   41507   41508   41508       0   41510   41511   41511       0   41513   41514
   41514       0   41516   41517   41517       0   41519   41520   41520       0
   41522   41523   41523       0   41525   41526   41526       0   41528   41529
   41529       0   41531   41532   41532       0   41534   41535   41535       0
   41537   41538   41538       0   41540   41541   41541       0   41543   41544
   41544       0   41546   41547   41547       0   41549   41550   41550       0
   41552   41553   41553       0   41555   41556   41556       0   41558   41559
   41559       0   41561   41562   41562       0   41564   41565   41565       0
   41567   41568   41568       0   41570   41571   41571       0   41573   41574
   41574       0   41576   41577   41577       0   41579   41580   41580       0
   41582   41583   41583       0   41585   41586   41586       0   41588   41589
   41589       0   41591   41592   41592       0   41594   41595   41595       0
   41597   41598   41598       0   41600   41601   41601       0   41603   41604
   41604       0   41606   41607   41607       0   41609   41610   41610       0
   41612   41613   41613       0   41615   41616   41616       0   41618   41619
   41619       0   41621   41622   41622       0   41624   41625   41625       0
   41627   41628   41628       0   41630   41631   41631       0   41633   41634
   41634       0   41636   41637   41637       0   41639   41640   41640       0
   41642   41643   41643       0   41645   41646   41646       0   41648   41649
   41649       0   41651   41652   41652       0   41654   41655   41655       0
   41657   41658   41658       0   41660   41661   41661       0   41663   41664
   41664       0   41666   41667   41667       0   41669   41670   41670       0
   41672   41673   41673       0   41675   41676   41676       0   41678   41679
   41679       0   41681   41682   41682       0   41684   41685   41685       0
   41687   41688   41688       0   41690   41691   41691       0   41693   41694
   41694       0   41696   41697   41697       0   41699   41700   41700       0
   41702   41703   41703       0   41705   41706   41706       0   41708   41709
   41709       0   41711   41712   41712       0   41714   41715   41715       0
   41717   41718   41718       0   41720   41721   41721       0   41723   41724
   41724       0   41726   41727   41727       0   41729   41730   41730       0
   41732   41733   41733       0   41735   41736   41736       0   41738   41739
   41739       0   41741   41742   41742       0   41744   41745   41745       0
   41747   41748   41748       0   41750   41751   41751       0   41753   41754
   41754       0   41756   41757   41757       0   41759   41760   41760       0
   41762   41763   41763       0   41765   41766   41766       0   41768   41769
   41769       0   41771   41772   41772       0   41774   41775   41775       0
   41777   41778   41778       0   41780   41781   41781       0   41783   41784
   41784       0   41786   41787   41787       0   41789   41790   41790       0
   41792   41793   41793       0   41795   41796   41796       0   41798   41799
   41799       0   41801   41802   41802       0   41804   41805   41805       0
   41807   41808   41808       0   41810   41811   41811       0   41813   41814
   41814       0   41816   41817   41817       0   41819   41820   41820       0
   41822   41823   41823       0   41825   41826   41826       0   41828   41829
   41829       0   41831   41832   41832       0   41834   41835   41835       0
   41837   41838   41838       0   41840   41841   41841       0   41843   41844
   41844       0   41846   41847   41847       0   41849   41850   41850       0
   41852   41853   41853       0   41855   41856   41856       0   41858   41859
   41859       0   41861   41862   41862       0   41864   41865   41865       0
   41867   41868   41868       0   41870   41871   41871       0   41873   41874
   41874       0   41876   41877   41877       0   41879   41880   41880       0
   41882   41883   41883       0   41885   41886   41886       0   41888   41889
   41889       0   41891   41892   41892       0   41894   41895   41895       0
   41897   41898   41898       0   41900   41901   41901       0   41903   41904
   41904       0   41906   41907   41907       0   41909   41910   41910       0
   41912   41913   41913       0   41915   41916   41916       0   41918   41919
   41919       0   41921   41922   41922       0   41924   41925   41925       0
   41927   41928   41928       0   41930   41931   41931       0   41933   41934
   41934       0   41936   41937   41937       0   41939   41940   41940       0
   41942   41943   41943       0   41945   41946   41946       0   41948   41949
   41949       0   41951   41952   41952       0   41954   41955   41955       0
   41957   41958   41958       0   41960   41961   41961       0   41963   41964
   41964       0   41966   41967   41967       0   41969   41970   41970       0
   41972   41973   41973       0   41975   41976   41976       0   41978   41979
   41979       0   41981   41982   41982       0   41984   41985   41985       0
   41987   41988   41988       0   41990   41991   41991       0   41993   41994
   41994       0   41996   41997   41997       0   41999   42000   42000       0
   42002   42003   42003       0   42005   42006   42006       0   42008   42009
   42009       0   42011   42012   42012       0   42014   42015   42015       0
   42017   42018   42018       0   42020   42021   42021       0   42023   42024
   42024       0   42026   42027   42027       0   42029   42030   42030       0
   42032   42033   42033       0   42035   42036   42036       0   42038   42039
   42039       0   42041   42042   42042       0   42044   42045   42045       0
   42047   42048   42048       0   42050   42051   42051       0   42053   42054
   42054       0   42056   42057   42057       0   42059   42060   42060       0
   42062   42063   42063       0   42065   42066   42066       0   42068   42069
   42069       0   42071   42072   42072       0   42074   42075   42075       0
   42077   42078   42078       0   42080   42081   42081       0   42083   42084
   42084       0   42086   42087   42087       0   42089   42090   42090       0
   42092   42093   42093       0   42095   42096   42096       0   42098   42099
   42099       0   42101   42102   42102       0   42104   42105   42105       0
   42107   42108   42108       0   42110   42111   42111       0   42113   42114
   42114       0   42116   42117   42117       0   42119   42120   42120       0
   42122   42123   42123       0   42125   42126   42126       0   42128   42129
   42129       0   42131   42132   42132       0   42134   42135   42135       0
   42137   42138   42138       0   42140   42141   42141       0   42143   42144
   42144       0   42146   42147   42147       0   42149   42150   42150       0
   42152   42153   42153       0   42155   42156   42156       0   42158   42159
   42159       0   42161   42162   42162       0   42164   42165   42165       0
   42167   42168   42168       0   42170   42171   42171       0   42173   42174
   42174       0   42176   42177   42177       0   42179   42180   42180       0
   42182   42183   42183       0   42185   42186   42186       0   42188   42189
   42189       0   42191   42192   42192       0   42194   42195   42195       0
   42197   42198   42198       0   42200   42201   42201       0   42203   42204
   42204       0   42206   42207   42207       0   42209   42210   42210       0
   42212   42213   42213       0   42215   42216   42216       0   42218   42219
   42219       0   42221   42222   42222       0   42224   42225   42225       0
   42227   42228   42228       0   42230   42231   42231       0   42233   42234
   42234       0   42236   42237   42237       0   42239   42240   42240       0
   42242   42243   42243       0   42245   42246   42246       0   42248   42249
   42249       0   42251   42252   42252       0   42254   42255   42255       0
   42257   42258   42258       0   42260   42261   42261       0   42263   42264
   42264       0   42266   42267   42267       0   42269   42270   42270       0
   42272   42273   42273       0   42275   42276   42276       0   42278   42279
   42279       0   42281   42282   42282       0   42284   42285   42285       0
   42287   42288   42288       0   42290   42291   42291       0   42293   42294
   42294       0   42296   42297   42297       0   42299   42300   42300       0
   42302   42303   42303       0   42305   42306   42306       0   42308   42309
   42309       0   42311   42312   42312       0   42314   42315   42315       0
   42317   42318   42318       0   42320   42321   42321       0   42323   42324
   42324       0   42326   42327   42327       0   42329   42330   42330       0
   42332   42333   42333       0   42335   42336   42336       0   42338   42339
   42339       0   42341   42342   42342       0   42344   42345   42345       0
   42347   42348   42348       0   42350   42351   42351       0   42353   42354
   42354       0   42356   42357   42357       0   42359   42360   42360       0
   42362   42363   42363       0   42365   42366   42366       0   42368   42369
   42369       0   42371   42372   42372       0   42374   42375   42375       0
   42377   42378   42378       0   42380   42381   42381       0   42383   42384
   42384       0   42386   42387   42387       0   42389   42390   42390       0
   42392   42393   42393       0   42395   42396   42396       0   42398   42399
   42399       0   42401   42402   42402       0   42404   42405   42405       0
   42407   42408   42408       0   42410   42411   42411       0   42413   42414
   42414       0   42416   42417   42417       0   42419   42420   42420       0
   42422   42423   42423       0   42425   42426   42426       0   42428   42429
   42429       0   42431   42432   42432       0   42434   42435   42435       0
   42437   42438   42438       0   42440   42441   42441       0   42443   42444
   42444       0   42446   42447   42447       0   42449   42450   42450       0
   42452   42453   42453       0   42455   42456   42456       0   42458   42459
   42459       0   42461   42462   42462       0   42464   42465   42465       0
   42467   42468   42468       0   42470   42471   42471       0   42473   42474
   42474       0   42476   42477   42477       0   42479   42480   42480       0
   42482   42483   42483       0   42485   42486   42486       0   42488   42489
   42489       0   42491   42492   42492       0   42494   42495   42495       0
   42497   42498   42498       0   42500   42501   42501       0   42503   42504
   42504       0   42506   42507   42507       0   42509   42510   42510       0
   42512   42513   42513       0   42515   42516   42516       0   42518   42519
   42519       0   42521   42522   42522       0   42524   42525   42525       0
   42527   42528   42528       0   42530   42531   42531       0   42533   42534
   42534       0   42536   42537   42537       0   42539   42540   42540       0
   42542   42543   42543       0   42545   42546   42546       0   42548   42549
   42549       0   42551   42552   42552       0   42554   42555   42555       0
   42557   42558   42558       0   42560   42561   42561       0   42563   42564
   42564       0   42566   42567   42567       0   42569   42570   42570       0
   42572   42573   42573       0   42575   42576   42576       0   42578   42579
   42579       0   42581   42582   42582       0   42584   42585   42585       0
   42587   42588   42588       0   42590   42591   42591       0   42593   42594
   42594       0   42596   42597   42597       0   42599   42600   42600       0
   42602   42603   42603       0   42605   42606   42606       0   42608   42609
   42609       0   42611   42612   42612       0   42614   42615   42615       0
   42617   42618   42618       0   42620   42621   42621       0   42623   42624
   42624       0   42626   42627   42627       0   42629   42630   42630       0
   42632   42633   42633       0   42635   42636   42636       0   42638   42639
   42639       0   42641   42642   42642       0   42644   42645   42645       0
   42647   42648   42648       0   42650   42651   42651       0   42653   42654
   42654       0   42656   42657   42657       0   42659   42660   42660       0
   42662   42663   42663       0   42665   42666   42666       0   42668   42669
   42669       0   42671   42672   42672       0   42674   42675   42675       0
   42677   42678   42678       0   42680   42681   42681       0   42683   42684
   42684       0   42686   42687   42687       0   42689   42690   42690       0
   42692   42693   42693       0   42695   42696   42696       0   42698   42699
   42699       0   42701   42702   42702       0   42704   42705   42705       0
   42707   42708   42708       0   42710   42711   42711       0   42713   42714
   42714       0   42716   42717   42717       0   42719   42720   42720       0
   42722   42723   42723       0   42725   42726   42726       0   42728   42729
   42729       0   42731   42732   42732       0   42734   42735   42735       0
   42737   42738   42738       0   42740   42741   42741       0   42743   42744
   42744       0   42746   42747   42747       0   42749   42750   42750       0
   42752   42753   42753       0   42755   42756   42756       0   42758   42759
   42759       0   42761   42762   42762       0   42764   42765   42765       0
   42767   42768   42768       0   42770   42771   42771       0   42773   42774
   42774       0   42776   42777   42777       0   42779   42780   42780       0
   42782   42783   42783       0   42785   42786   42786       0   42788   42789
   42789       0   42791   42792   42792       0   42794   42795   42795       0
   42797   42798   42798       0   42800   42801   42801       0   42803   42804
   42804       0   42806   42807   42807       0   42809   42810   42810       0
   42812   42813   42813       0   42815   42816   42816       0   42818   42819
   42819       0   42821   42822   42822       0   42824   42825   42825       0
   42827   42828   42828       0   42830   42831   42831       0   42833   42834
   42834       0   42836   42837   42837       0   42839   42840   42840       0
   42842   42843   42843       0   42845   42846   42846       0   42848   42849
   42849       0   42851   42852   42852       0   42854   42855   42855       0
   42857   42858   42858       0   42860   42861   42861       0   42863   42864
   42864       0   42866   42867   42867       0   42869   42870   42870       0
   42872   42873   42873       0   42875   42876   42876       0   42878   42879
   42879       0   42881   42882   42882       0   42884   42885   42885       0
   42887   42888   42888       0   42890   42891   42891       0   42893   42894
   42894       0   42896   42897   42897       0   42899   42900   42900       0
   42902   42903   42903       0   42905   42906   42906       0   42908   42909
   42909       0   42911   42912   42912       0   42914   42915   42915       0
   42917   42918   42918       0   42920   42921   42921       0   42923   42924
   42924       0   42926   42927   42927       0   42929   42930   42930       0
   42932   42933   42933       0   42935   42936   42936       0   42938   42939
   42939       0   42941   42942   42942       0   42944   42945   42945       0
   42947   42948   42948       0   42950   42951   42951       0   42953   42954
   42954       0   42956   42957   42957       0   42959   42960   42960       0
   42962   42963   42963       0   42965   42966   42966       0   42968   42969
   42969       0   42971   42972   42972       0   42974   42975   42975       0
   42977   42978   42978       0   42980   42981   42981       0   42983   42984
   42984       0   42986   42987   42987       0   42989   42990   42990       0
   42992   42993   42993       0   42995   42996   42996       0   42998   42999
   42999       0   43001   43002   43002       0   43004   43005   43005       0
   43007   43008   43008       0   43010   43011   43011       0   43013   43014
   43014       0   43016   43017   43017       0   43019   43020   43020       0
   43022   43023   43023       0   43025   43026   43026       0   43028   43029
   43029       0   43031   43032   43032       0   43034   43035   43035       0
   43037   43038   43038       0   43040   43041   43041       0   43043   43044
   43044       0   43046   43047   43047       0   43049   43050   43050       0
   43052   43053   43053       0   43055   43056   43056       0   43058   43059
   43059       0   43061   43062   43062       0   43064   43065   43065       0
   43067   43068   43068       0   43070   43071   43071       0   43073   43074
   43074       0   43076   43077   43077       0   43079   43080   43080       0
   43082   43083   43083       0   43085   43086   43086       0   43088   43089
   43089       0   43091   43092   43092       0   43094   43095   43095       0
   43097   43098   43098       0   43100   43101   43101       0   43103   43104
   43104       0   43106   43107   43107       0   43109   43110   43110       0
   43112   43113   43113       0   43115   43116   43116       0   43118   43119
   43119       0   43121   43122   43122       0   43124   43125   43125       0
   43127   43128   43128       0   43130   43131   43131       0   43133   43134
   43134       0   43136   43137   43137       0   43139   43140   43140       0
   43142   43143   43143       0   43145   43146   43146       0   43148   43149
   43149       0   43151   43152   43152       0   43154   43155   43155       0
   43157   43158   43158       0   43160   43161   43161       0   43163   43164
   43164       0   43166   43167   43167       0   43169   43170   43170       0
   43172   43173   43173       0   43175   43176   43176       0   43178   43179
   43179       0   43181   43182   43182       0   43184   43185   43185       0
   43187   43188   43188       0   43190   43191   43191       0   43193   43194
   43194       0   43196   43197   43197       0   43199   43200   43200       0
   43202   43203   43203       0   43205   43206   43206       0   43208   43209
   43209       0   43211   43212   43212       0   43214   43215   43215       0
   43217   43218   43218       0   43220   43221   43221       0   43223   43224
   43224       0   43226   43227   43227       0   43229   43230   43230       0
   43232   43233   43233       0   43235   43236   43236       0   43238   43239
   43239       0   43241   43242   43242       0   43244   43245   43245       0
   43247   43248   43248       0   43250   43251   43251       0   43253   43254
   43254       0   43256   43257   43257       0   43259   43260   43260       0
   43262   43263   43263       0   43265   43266   43266       0   43268   43269
   43269       0   43271   43272   43272       0   43274   43275   43275       0
   43277   43278   43278       0   43280   43281   43281       0   43283   43284
   43284       0   43286   43287   43287       0   43289   43290   43290       0
   43292   43293   43293       0   43295   43296   43296       0   43298   43299
   43299       0   43301   43302   43302       0   43304   43305   43305       0
   43307   43308   43308       0   43310   43311   43311       0   43313   43314
   43314       0   43316   43317   43317       0   43319   43320   43320       0
   43322   43323   43323       0   43325   43326   43326       0   43328   43329
   43329       0   43331   43332   43332       0   43334   43335   43335       0
   43337   43338   43338       0   43340   43341   43341       0   43343   43344
   43344       0   43346   43347   43347       0   43349   43350   43350       0
   43352   43353   43353       0   43355   43356   43356       0   43358   43359
   43359       0   43361   43362   43362       0   43364   43365   43365       0
   43367   43368   43368       0   43370   43371   43371       0   43373   43374
   43374       0   43376   43377   43377       0   43379   43380   43380       0
   43382   43383   43383       0   43385   43386   43386       0   43388   43389
   43389       0   43391   43392   43392       0   43394   43395   43395       0
   43397   43398   43398       0   43400   43401   43401       0   43403   43404
   43404       0   43406   43407   43407       0   43409   43410   43410       0
   43412   43413   43413       0   43415   43416   43416       0   43418   43419
   43419       0   43421   43422   43422       0   43424   43425   43425       0
   43427   43428   43428       0   43430   43431   43431       0   43433   43434
   43434       0   43436   43437   43437       0   43439   43440   43440       0
   43442   43443   43443       0   43445   43446   43446       0   43448   43449
   43449       0   43451   43452   43452       0   43454   43455   43455       0
   43457   43458   43458       0   43460   43461   43461       0   43463   43464
   43464       0   43466   43467   43467       0   43469   43470   43470       0
   43472   43473   43473       0   43475   43476   43476       0   43478   43479
   43479       0   43481   43482   43482       0   43484   43485   43485       0
   43487   43488   43488       0   43490   43491   43491       0   43493   43494
   43494       0   43496   43497   43497       0   43499   43500   43500       0
   43502   43503   43503       0   43505   43506   43506       0   43508   43509
   43509       0   43511   43512   43512       0   43514   43515   43515       0
   43517   43518   43518       0   43520   43521   43521       0   43523   43524
   43524       0   43526   43527   43527       0   43529   43530   43530       0
   43532   43533   43533       0   43535   43536   43536       0   43538   43539
   43539       0   43541   43542   43542       0   43544   43545   43545       0
   43547   43548   43548       0   43550   43551   43551       0   43553   43554
   43554       0   43556   43557   43557       0   43559   43560   43560       0
   43562   43563   43563       0   43565   43566   43566       0   43568   43569
   43569       0   43571   43572   43572       0   43574   43575   43575       0
   43577   43578   43578       0   43580   43581   43581       0   43583   43584
   43584       0   43586   43587   43587       0   43589   43590   43590       0
   43592   43593   43593       0   43595   43596   43596       0   43598   43599
   43599       0   43601   43602   43602       0   43604   43605   43605       0
   43607   43608   43608       0   43610   43611   43611       0   43613   43614
   43614       0   43616   43617   43617       0   43619   43620   43620       0
   43622   43623   43623       0   43625   43626   43626       0   43628   43629
   43629       0   43631   43632   43632       0   43634   43635   43635       0
   43637   43638   43638       0   43640   43641   43641       0   43643   43644
   43644       0   43646   43647   43647       0   43649   43650   43650       0
   43652   43653   43653       0   43655   43656   43656       0   43658   43659
   43659       0   43661   43662   43662       0   43664   43665   43665       0
   43667   43668   43668       0   43670   43671   43671       0   43673   43674
   43674       0   43676   43677   43677       0   43679   43680   43680       0
   43682   43683   43683       0   43685   43686   43686       0   43688   43689
   43689       0   43691   43692   43692       0   43694   43695   43695       0
   43697   43698   43698       0   43700   43701   43701       0   43703   43704
   43704       0   43706   43707   43707       0   43709   43710   43710       0
   43712   43713   43713       0   43715   43716   43716       0   43718   43719
   43719       0   43721   43722   43722       0   43724   43725   43725       0
   43727   43728   43728       0   43730   43731   43731       0   43733   43734
   43734       0   43736   43737   43737       0   43739   43740   43740       0
   43742   43743   43743       0   43745   43746   43746       0   43748   43749
   43749       0   43751   43752   43752       0   43754   43755   43755       0
   43757   43758   43758       0   43760   43761   43761       0   43763   43764
   43764       0   43766   43767   43767       0   43769   43770   43770       0
   43772   43773   43773       0   43775   43776   43776       0   43778   43779
   43779       0   43781   43782   43782       0   43784   43785   43785       0
   43787   43788   43788       0   43790   43791   43791       0   43793   43794
   43794       0   43796   43797   43797       0   43799   43800   43800       0
   43802   43803   43803       0   43805   43806   43806       0   43808   43809
   43809       0   43811   43812   43812       0   43814   43815   43815       0
   43817   43818   43818       0   43820   43821   43821       0   43823   43824
   43824       0   43826   43827   43827       0   43829   43830   43830       0
   43832   43833   43833       0   43835   43836   43836       0   43838   43839
   43839       0   43841   43842   43842       0   43844   43845   43845       0
   43847   43848   43848       0   43850   43851   43851       0   43853   43854
   43854       0   43856   43857   43857       0   43859   43860   43860       0
   43862   43863   43863       0   43865   43866   43866       0   43868   43869
   43869       0   43871   43872   43872       0   43874   43875   43875       0
   43877   43878   43878       0   43880   43881   43881       0   43883   43884
   43884       0   43886   43887   43887       0   43889   43890   43890       0
   43892   43893   43893       0   43895   43896   43896       0   43898   43899
   43899       0   43901   43902   43902       0   43904   43905   43905       0
   43907   43908   43908       0   43910   43911   43911       0   43913   43914
   43914       0   43916   43917   43917       0   43919   43920   43920       0
   43922   43923   43923       0   43925   43926   43926       0   43928   43929
   43929       0   43931   43932   43932       0   43934   43935   43935       0
   43937   43938   43938       0   43940   43941   43941       0   43943   43944
   43944       0   43946   43947   43947       0   43949   43950   43950       0
   43952   43953   43953       0   43955   43956   43956       0   43958   43959
   43959       0   43961   43962   43962       0   43964   43965   43965       0
   43967   43968   43968       0   43970   43971   43971       0   43973   43974
   43974       0   43976   43977   43977       0   43979   43980   43980       0
   43982   43983   43983       0   43985   43986   43986       0   43988   43989
   43989       0   43991   43992   43992       0   43994   43995   43995       0
   43997   43998   43998       0   44000   44001   44001       0   44003   44004
   44004       0   44006   44007   44007       0   44009   44010   44010       0
   44012   44013   44013       0   44015   44016   44016       0   44018   44019
   44019       0   44021   44022   44022       0   44024   44025   44025       0
   44027   44028   44028       0   44030   44031   44031       0   44033   44034
   44034       0   44036   44037   44037       0   44039   44040   44040       0
   44042   44043   44043       0   44045   44046   44046       0   44048   44049
   44049       0   44051   44052   44052       0   44054   44055   44055       0
   44057   44058   44058       0   44060   44061   44061       0   44063   44064
   44064       0   44066   44067   44067       0   44069   44070   44070       0
   44072   44073   44073       0   44075   44076   44076       0   44078   44079
   44079       0   44081   44082   44082       0   44084   44085   44085       0
   44087   44088   44088       0   44090   44091   44091       0   44093   44094
   44094       0   44096   44097   44097       0   44099   44100   44100       0
   44102   44103   44103       0   44105   44106   44106       0   44108   44109
   44109       0   44111   44112   44112       0   44114   44115   44115       0
   44117   44118   44118       0   44120   44121   44121       0   44123   44124
   44124       0   44126   44127   44127       0   44129   44130   44130       0
   44132   44133   44133       0   44135   44136   44136       0   44138   44139
   44139       0   44141   44142   44142       0   44144   44145   44145       0
   44147   44148   44148       0   44150   44151   44151       0   44153   44154
   44154       0   44156   44157   44157       0   44159   44160   44160       0
   44162   44163   44163       0   44165   44166   44166       0   44168   44169
   44169       0   44171   44172   44172       0   44174   44175   44175       0
   44177   44178   44178       0   44180   44181   44181       0   44183   44184
   44184       0   44186   44187   44187       0   44189   44190   44190       0
   44192   44193   44193       0   44195   44196   44196       0   44198   44199
   44199       0   44201   44202   44202       0   44204   44205   44205       0
   44207   44208   44208       0   44210   44211   44211       0   44213   44214
   44214       0   44216   44217   44217       0   44219   44220   44220       0
   44222   44223   44223       0   44225   44226   44226       0   44228   44229
   44229       0   44231   44232   44232       0   44234   44235   44235       0
   44237   44238   44238       0   44240   44241   44241       0   44243   44244
   44244       0   44246   44247   44247       0   44249   44250   44250       0
   44252   44253   44253       0   44255   44256   44256       0   44258   44259
   44259       0   44261   44262   44262       0   44264   44265   44265       0
   44267   44268   44268       0   44270   44271   44271       0   44273   44274
   44274       0   44276   44277   44277       0   44279   44280   44280       0
   44282   44283   44283       0   44285   44286   44286       0   44288   44289
   44289       0   44291   44292   44292       0   44294   44295   44295       0
   44297   44298   44298       0   44300   44301   44301       0   44303   44304
   44304       0   44306   44307   44307       0   44309   44310   44310       0
   44312   44313   44313       0   44315   44316   44316       0   44318   44319
   44319       0   44321   44322   44322       0   44324   44325   44325       0
   44327   44328   44328       0   44330   44331   44331       0   44333   44334
   44334       0   44336   44337   44337       0   44339   44340   44340       0
   44342   44343   44343       0   44345   44346   44346       0   44348   44349
   44349       0   44351   44352   44352       0   44354   44355   44355       0
   44357   44358   44358       0   44360   44361   44361       0   44363   44364
   44364       0   44366   44367   44367       0   44369   44370   44370       0
   44372   44373   44373       0   44375   44376   44376       0   44378   44379
   44379       0   44381   44382   44382       0   44384   44385   44385       0
   44387   44388   44388       0   44390   44391   44391       0   44393   44394
   44394       0   44396   44397   44397       0   44399   44400   44400       0
   44402   44403   44403       0   44405   44406   44406       0   44408   44409
   44409       0   44411   44412   44412       0   44414   44415   44415       0
   44417   44418   44418       0   44420   44421   44421       0   44423   44424
   44424       0   44426   44427   44427       0   44429   44430   44430       0
   44432   44433   44433       0   44435   44436   44436       0   44438   44439
   44439       0   44441   44442   44442       0   44444   44445   44445       0
   44447   44448   44448       0   44450   44451   44451       0   44453   44454
   44454       0   44456   44457   44457       0   44459   44460   44460       0
   44462   44463   44463       0   44465   44466   44466       0   44468   44469
   44469       0   44471   44472   44472       0   44474   44475   44475       0
   44477   44478   44478       0   44480   44481   44481       0   44483   44484
   44484       0   44486   44487   44487       0   44489   44490   44490       0
   44492   44493   44493       0   44495   44496   44496       0   44498   44499
   44499       0   44501   44502   44502       0   44504   44505   44505       0
   44507   44508   44508       0   44510   44511   44511       0   44513   44514
   44514       0   44516   44517   44517       0   44519   44520   44520       0
   44522   44523   44523       0   44525   44526   44526       0   44528   44529
   44529       0   44531   44532   44532       0   44534   44535   44535       0
   44537   44538   44538       0   44540   44541   44541       0   44543   44544
   44544       0   44546   44547   44547       0   44549   44550   44550       0
   44552   44553   44553       0   44555   44556   44556       0   44558   44559
   44559       0   44561   44562   44562       0   44564   44565   44565       0
   44567   44568   44568       0   44570   44571   44571       0   44573   44574
   44574       0   44576   44577   44577       0   44579   44580   44580       0
   44582   44583   44583       0   44585   44586   44586       0   44588   44589
   44589       0   44591   44592   44592       0   44594   44595   44595       0
   44597   44598   44598       0   44600   44601   44601       0   44603   44604
   44604       0   44606   44607   44607       0   44609   44610   44610       0
   44612   44613   44613       0   44615   44616   44616       0   44618   44619
   44619       0   44621   44622   44622       0   44624   44625   44625       0
   44627   44628   44628       0   44630   44631   44631       0   44633   44634
   44634       0   44636   44637   44637       0   44639   44640   44640       0
   44642   44643   44643       0   44645   44646   44646       0   44648   44649
   44649       0   44651   44652   44652       0   44654   44655   44655       0
   44657   44658   44658       0   44660   44661   44661       0   44663   44664
   44664       0   44666   44667   44667       0   44669   44670   44670       0
   44672   44673   44673       0   44675   44676   44676       0   44678   44679
   44679       0   44681   44682   44682       0   44684   44685   44685       0
   44687   44688   44688       0   44690   44691   44691       0   44693   44694
   44694       0   44696   44697   44697       0   44699   44700   44700       0
   44702   44703   44703       0   44705   44706   44706       0   44708   44709
   44709       0   44711   44712   44712       0   44714   44715   44715       0
   44717   44718   44718       0   44720   44721   44721       0   44723   44724
   44724       0   44726   44727   44727       0   44729   44730   44730       0
   44732   44733   44733       0   44735   44736   44736       0   44738   44739
   44739       0   44741   44742   44742       0   44744   44745   44745       0
   44747   44748   44748       0   44750   44751   44751       0   44753   44754
   44754       0   44756   44757   44757       0   44759   44760   44760       0
   44762   44763   44763       0   44765   44766   44766       0   44768   44769
   44769       0   44771   44772   44772       0   44774   44775   44775       0
   44777   44778   44778       0   44780   44781   44781       0   44783   44784
   44784       0   44786   44787   44787       0   44789   44790   44790       0
   44792   44793   44793       0   44795   44796   44796       0   44798   44799
   44799       0   44801   44802   44802       0   44804   44805   44805       0
   44807   44808   44808       0   44810   44811   44811       0   44813   44814
   44814       0   44816   44817   44817       0   44819   44820   44820       0
   44822   44823   44823       0   44825   44826   44826       0   44828   44829
   44829       0   44831   44832   44832       0   44834   44835   44835       0
   44837   44838   44838       0   44840   44841   44841       0   44843   44844
   44844       0   44846   44847   44847       0   44849   44850   44850       0
   44852   44853   44853       0   44855   44856   44856       0   44858   44859
   44859       0   44861   44862   44862       0   44864   44865   44865       0
   44867   44868   44868       0   44870   44871   44871       0   44873   44874
   44874       0   44876   44877   44877       0   44879   44880   44880       0
   44882   44883   44883       0   44885   44886   44886       0   44888   44889
   44889       0   44891   44892   44892       0   44894   44895   44895       0
   44897   44898   44898       0   44900   44901   44901       0   44903   44904
   44904       0   44906   44907   44907       0   44909   44910   44910       0
   44912   44913   44913       0   44915   44916   44916       0   44918   44919
   44919       0   44921   44922   44922       0   44924   44925   44925       0
   44927   44928   44928       0   44930   44931   44931       0   44933   44934
   44934       0   44936   44937   44937       0   44939   44940   44940       0
   44942   44943   44943       0   44945   44946   44946       0   44948   44949
   44949       0   44951   44952   44952       0   44954   44955   44955       0
   44957   44958   44958       0   44960   44961   44961       0   44963   44964
   44964       0   44966   44967   44967       0   44969   44970   44970       0
   44972   44973   44973       0   44975   44976   44976       0   44978   44979
   44979       0   44981   44982   44982       0   44984   44985   44985       0
   44987   44988   44988       0   44990   44991   44991       0   44993   44994
   44994       0   44996   44997   44997       0   44999   45000   45000       0
   45002   45003   45003       0   45005   45006   45006       0   45008   45009
   45009       0   45011   45012   45012       0   45014   45015   45015       0
   45017   45018   45018       0   45020   45021   45021       0   45023   45024
   45024       0   45026   45027   45027       0   45029   45030   45030       0
   45032   45033   45033       0   45035   45036   45036       0   45038   45039
   45039       0   45041   45042   45042       0   45044   45045   45045       0
   45047   45048   45048       0   45050   45051   45051       0   45053   45054
   45054       0   45056   45057   45057       0   45059   45060   45060       0
   45062   45063   45063       0   45065   45066   45066       0   45068   45069
   45069       0   45071   45072   45072       0   45074   45075   45075       0
   45077   45078   45078       0   45080   45081   45081       0   45083   45084
   45084       0   45086   45087   45087       0   45089   45090   45090       0
   45092   45093   45093       0   45095   45096   45096       0   45098   45099
   45099       0   45101   45102   45102       0   45104   45105   45105       0
   45107   45108   45108       0   45110   45111   45111       0   45113   45114
   45114       0   45116   45117   45117       0   45119   45120   45120       0
   45122   45123   45123       0   45125   45126   45126       0   45128   45129
   45129       0   45131   45132   45132       0   45134   45135   45135       0
   45137   45138   45138       0   45140   45141   45141       0   45143   45144
   45144       0   45146   45147   45147       0   45149   45150   45150       0
   45152   45153   45153       0   45155   45156   45156       0   45158   45159
   45159       0   45161   45162   45162       0   45164   45165   45165       0
   45167   45168   45168       0   45170   45171   45171       0   45173   45174
   45174       0   45176   45177   45177       0   45179   45180   45180       0
   45182   45183   45183       0   45185   45186   45186       0   45188   45189
   45189       0   45191   45192   45192       0   45194   45195   45195       0
   45197   45198   45198       0   45200   45201   45201       0   45203   45204
   45204       0   45206   45207   45207       0   45209   45210   45210       0
   45212   45213   45213       0   45215   45216   45216       0   45218   45219
   45219       0   45221   45222   45222       0   45224   45225   45225       0
   45227   45228   45228       0   45230   45231   45231       0   45233   45234
   45234       0   45236   45237   45237       0   45239   45240   45240       0
   45242   45243   45243       0   45245   45246   45246       0   45248   45249
   45249       0   45251   45252   45252       0   45254   45255   45255       0
   45257   45258   45258       0   45260   45261   45261       0   45263   45264
   45264       0   45266   45267   45267       0   45269   45270   45270       0
   45272   45273   45273       0   45275   45276   45276       0   45278   45279
   45279       0   45281   45282   45282       0   45284   45285   45285       0
   45287   45288   45288       0   45290   45291   45291       0   45293   45294
   45294       0   45296   45297   45297       0   45299   45300   45300       0
   45302   45303   45303       0   45305   45306   45306       0   45308   45309
   45309       0   45311   45312   45312       0   45314   45315   45315       0
   45317   45318   45318       0   45320   45321   45321       0   45323   45324
   45324       0   45326   45327   45327       0   45329   45330   45330       0
   45332   45333   45333       0   45335   45336   45336       0   45338   45339
   45339       0   45341   45342   45342       0   45344   45345   45345       0
   45347   45348   45348       0   45350   45351   45351       0   45353   45354
   45354       0   45356   45357   45357       0   45359   45360   45360       0
   45362   45363   45363       0   45365   45366   45366       0   45368   45369
   45369       0   45371   45372   45372       0   45374   45375   45375       0
   45377   45378   45378       0   45380   45381   45381       0   45383   45384
   45384       0   45386   45387   45387       0   45389   45390   45390       0
   45392   45393   45393       0   45395   45396   45396       0   45398   45399
   45399       0   45401   45402   45402       0   45404   45405   45405       0
   45407   45408   45408       0   45410   45411   45411       0   45413   45414
   45414       0   45416   45417   45417       0   45419   45420   45420       0
   45422   45423   45423       0   45425   45426   45426       0   45428   45429
   45429       0   45431   45432   45432       0   45434   45435   45435       0
   45437   45438   45438       0   45440   45441   45441       0   45443   45444
   45444       0   45446   45447   45447       0   45449   45450   45450       0
   45452   45453   45453       0   45455   45456   45456       0   45458   45459
   45459       0   45461   45462   45462       0   45464   45465   45465       0
   45467   45468   45468       0   45470   45471   45471       0   45473   45474
   45474       0   45476   45477   45477       0   45479   45480   45480       0
   45482   45483   45483       0   45485   45486   45486       0   45488   45489
   45489       0   45491   45492   45492       0   45494   45495   45495       0
   45497   45498   45498       0   45500   45501   45501       0   45503   45504
   45504       0   45506   45507   45507       0   45509   45510   45510       0
   45512   45513   45513       0   45515   45516   45516       0   45518   45519
   45519       0   45521   45522   45522       0   45524   45525   45525       0
   45527   45528   45528       0   45530   45531   45531       0   45533   45534
   45534       0   45536   45537   45537       0   45539   45540   45540       0
   45542   45543   45543       0   45545   45546   45546       0   45548   45549
   45549       0   45551   45552   45552       0   45554   45555   45555       0
   45557   45558   45558       0   45560   45561   45561       0   45563   45564
   45564       0   45566   45567   45567       0   45569   45570   45570       0
   45572   45573   45573       0   45575   45576   45576       0   45578   45579
   45579       0   45581   45582   45582       0   45584   45585   45585       0
   45587   45588   45588       0   45590   45591   45591       0   45593   45594
   45594       0   45596   45597   45597       0   45599   45600   45600       0
   45602   45603   45603       0   45605   45606   45606       0   45608   45609
   45609       0   45611   45612   45612       0   45614   45615   45615       0
   45617   45618   45618       0   45620   45621   45621       0   45623   45624
   45624       0   45626   45627   45627       0   45629   45630   45630       0
   45632   45633   45633       0   45635   45636   45636       0   45638   45639
   45639       0   45641   45642   45642       0   45644   45645   45645       0
   45647   45648   45648       0   45650   45651   45651       0   45653   45654
   45654       0   45656   45657   45657       0   45659   45660   45660       0
   45662   45663   45663       0   45665   45666   45666       0   45668   45669
   45669       0   45671   45672   45672       0   45674   45675   45675       0
   45677   45678   45678       0   45680   45681   45681       0   45683   45684
   45684       0   45686   45687   45687       0   45689   45690   45690       0
   45692   45693   45693       0   45695   45696   45696       0   45698   45699
   45699       0   45701   45702   45702       0   45704   45705   45705       0
   45707   45708   45708       0   45710   45711   45711       0   45713   45714
   45714       0   45716   45717   45717       0   45719   45720   45720       0
   45722   45723   45723       0   45725   45726   45726       0   45728   45729
   45729       0   45731   45732   45732       0   45734   45735   45735       0
   45737   45738   45738       0   45740   45741   45741       0   45743   45744
   45744       0   45746   45747   45747       0   45749   45750   45750       0
   45752   45753   45753       0   45755   45756   45756       0   45758   45759
   45759       0   45761   45762   45762       0   45764   45765   45765       0
   45767   45768   45768       0   45770   45771   45771       0   45773   45774
   45774       0   45776   45777   45777       0   45779   45780   45780       0
   45782   45783   45783       0   45785   45786   45786       0   45788   45789
   45789       0   45791   45792   45792       0   45794   45795   45795       0
   45797   45798   45798       0   45800   45801   45801       0   45803   45804
   45804       0   45806   45807   45807       0   45809   45810   45810       0
   45812   45813   45813       0   45815   45816   45816       0   45818   45819
   45819       0   45821   45822   45822       0   45824   45825   45825       0
   45827   45828   45828       0   45830   45831   45831       0   45833   45834
   45834       0   45836   45837   45837       0   45839   45840   45840       0
   45842   45843   45843       0   45845   45846   45846       0   45848   45849
   45849       0   45851   45852   45852       0   45854   45855   45855       0
   45857   45858   45858       0   45860   45861   45861       0   45863   45864
   45864       0   45866   45867   45867       0   45869   45870   45870       0
   45872   45873   45873       0   45875   45876   45876       0   45878   45879
   45879       0   45881   45882   45882       0   45884   45885   45885       0
   45887   45888   45888       0   45890   45891   45891       0   45893   45894
   45894       0   45896   45897   45897       0   45899   45900   45900       0
   45902   45903   45903       0   45905   45906   45906       0   45908   45909
   45909       0   45911   45912   45912       0   45914   45915   45915       0
   45917   45918   45918       0   45920   45921   45921       0   45923   45924
   45924       0   45926   45927   45927       0   45929   45930   45930       0
   45932   45933   45933       0   45935   45936   45936       0   45938   45939
   45939       0   45941   45942   45942       0   45944   45945   45945       0
   45947   45948   45948       0   45950   45951   45951       0   45953   45954
   45954       0   45956   45957   45957       0   45959   45960   45960       0
   45962   45963   45963       0   45965   45966   45966       0   45968   45969
   45969       0   45971   45972   45972       0   45974   45975   45975       0
   45977   45978   45978       0   45980   45981   45981       0   45983   45984
   45984       0   45986   45987   45987       0   45989   45990   45990       0
   45992   45993   45993       0   45995   45996   45996       0   45998   45999
   45999       0   46001   46002   46002       0   46004   46005   46005       0
   46007   46008   46008       0   46010   46011   46011       0   46013   46014
   46014       0   46016   46017   46017       0   46019   46020   46020       0
   46022   46023   46023       0   46025   46026   46026       0   46028   46029
   46029       0   46031   46032   46032       0   46034   46035   46035       0
   46037   46038   46038       0   46040   46041   46041       0   46043   46044
   46044       0   46046   46047   46047       0   46049   46050   46050       0
   46052   46053   46053       0   46055   46056   46056       0   46058   46059
   46059       0   46061   46062   46062       0   46064   46065   46065       0
   46067   46068   46068       0   46070   46071   46071       0   46073   46074
   46074       0   46076   46077   46077       0   46079   46080   46080       0
   46082   46083   46083       0   46085   46086   46086       0   46088   46089
   46089       0   46091   46092   46092       0   46094   46095   46095       0
   46097   46098   46098       0   46100   46101   46101       0   46103   46104
   46104       0   46106   46107   46107       0   46109   46110   46110       0
   46112   46113   46113       0   46115   46116   46116       0   46118   46119
   46119       0   46121   46122   46122       0   46124   46125   46125       0
   46127   46128   46128       0   46130   46131   46131       0   46133   46134
   46134       0   46136   46137   46137       0   46139   46140   46140       0
   46142   46143   46143       0   46145   46146   46146       0   46148   46149
   46149       0   46151   46152   46152       0   46154   46155   46155       0
   46157   46158   46158       0   46160   46161   46161       0   46163   46164
   46164       0   46166   46167   46167       0   46169   46170   46170       0
   46172   46173   46173       0   46175   46176   46176       0   46178   46179
   46179       0   46181   46182   46182       0   46184   46185   46185       0
   46187   46188   46188       0   46190   46191   46191       0   46193   46194
   46194       0   46196   46197   46197       0   46199   46200   46200       0
   46202   46203   46203       0   46205   46206   46206       0   46208   46209
   46209       0   46211   46212   46212       0   46214   46215   46215       0
   46217   46218   46218       0   46220   46221   46221       0   46223   46224
   46224       0   46226   46227   46227       0   46229   46230   46230       0
   46232   46233   46233       0   46235   46236   46236       0   46238   46239
   46239       0   46241   46242   46242       0   46244   46245   46245       0
   46247   46248   46248       0   46250   46251   46251       0   46253   46254
   46254       0   46256   46257   46257       0   46259   46260   46260       0
   46262   46263   46263       0   46265   46266   46266       0   46268   46269
   46269       0   46271   46272   46272       0   46274   46275   46275       0
   46277   46278   46278       0   46280   46281   46281       0   46283   46284
   46284       0   46286   46287   46287       0   46289   46290   46290       0
   46292   46293   46293       0   46295   46296   46296       0   46298   46299
   46299       0   46301   46302   46302       0   46304   46305   46305       0
   46307   46308   46308       0   46310   46311   46311       0   46313   46314
   46314       0   46316   46317   46317       0   46319   46320   46320       0
   46322   46323   46323       0   46325   46326   46326       0   46328   46329
   46329       0   46331   46332   46332       0   46334   46335   46335       0
   46337   46338   46338       0   46340   46341   46341       0   46343   46344
   46344       0   46346   46347   46347       0   46349   46350   46350       0
   46352   46353   46353       0   46355   46356   46356       0   46358   46359
   46359       0   46361   46362   46362       0   46364   46365   46365       0
   46367   46368   46368       0   46370   46371   46371       0   46373   46374
   46374       0   46376   46377   46377       0   46379   46380   46380       0
   46382   46383   46383       0   46385   46386   46386       0   46388   46389
   46389       0   46391   46392   46392       0   46394   46395   46395       0
   46397   46398   46398       0   46400   46401   46401       0   46403   46404
   46404       0   46406   46407   46407       0   46409   46410   46410       0
   46412   46413   46413       0   46415   46416   46416       0   46418   46419
   46419       0   46421   46422   46422       0   46424   46425   46425       0
   46427   46428   46428       0   46430   46431   46431       0   46433   46434
   46434       0   46436   46437   46437       0   46439   46440   46440       0
   46442   46443   46443       0   46445   46446   46446       0   46448   46449
   46449       0   46451   46452   46452       0   46454   46455   46455       0
   46457   46458   46458       0   46460   46461   46461       0   46463   46464
   46464       0   46466   46467   46467       0   46469   46470   46470       0
   46472   46473   46473       0   46475   46476   46476       0   46478   46479
   46479       0   46481   46482   46482       0   46484   46485   46485       0
   46487   46488   46488       0   46490   46491   46491       0   46493   46494
   46494       0   46496   46497   46497       0   46499   46500   46500       0
   46502   46503   46503       0   46505   46506   46506       0   46508   46509
   46509       0   46511   46512   46512       0   46514   46515   46515       0
   46517   46518   46518       0   46520   46521   46521       0   46523   46524
   46524       0   46526   46527   46527       0   46529   46530   46530       0
   46532   46533   46533       0   46535   46536   46536       0   46538   46539
   46539       0   46541   46542   46542       0   46544   46545   46545       0
   46547   46548   46548       0   46550   46551   46551       0   46553   46554
   46554       0   46556   46557   46557       0   46559   46560   46560       0
   46562   46563   46563       0   46565   46566   46566       0   46568   46569
   46569       0   46571   46572   46572       0   46574   46575   46575       0
   46577   46578   46578       0   46580   46581   46581       0   46583   46584
   46584       0   46586   46587   46587       0   46589   46590   46590       0
   46592   46593   46593       0   46595   46596   46596       0   46598   46599
   46599       0   46601   46602   46602       0   46604   46605   46605       0
   46607   46608   46608       0   46610   46611   46611       0   46613   46614
   46614       0   46616   46617   46617       0   46619   46620   46620       0
   46622   46623   46623       0   46625   46626   46626       0   46628   46629
   46629       0   46631   46632   46632       0   46634   46635   46635       0
   46637   46638   46638       0   46640   46641   46641       0   46643   46644
   46644       0   46646   46647   46647       0   46649   46650   46650       0
   46652   46653   46653       0   46655   46656   46656       0   46658   46659
   46659       0   46661   46662   46662       0   46664   46665   46665       0
   46667   46668   46668       0   46670   46671   46671       0   46673   46674
   46674       0   46676   46677   46677       0   46679   46680   46680       0
   46682   46683   46683       0   46685   46686   46686       0   46688   46689
   46689       0   46691   46692   46692       0   46694   46695   46695       0
   46697   46698   46698       0   46700   46701   46701       0   46703   46704
   46704       0   46706   46707   46707       0   46709   46710   46710       0
   46712   46713   46713       0   46715   46716   46716       0   46718   46719
   46719       0   46721   46722   46722       0   46724   46725   46725       0
   46727   46728   46728       0   46730   46731   46731       0   46733   46734
   46734       0   46736   46737   46737       0   46739   46740   46740       0
   46742   46743   46743       0   46745   46746   46746       0   46748   46749
   46749       0   46751   46752   46752       0   46754   46755   46755       0
   46757   46758   46758       0   46760   46761   46761       0   46763   46764
   46764       0   46766   46767   46767       0   46769   46770   46770       0
   46772   46773   46773       0   46775   46776   46776       0   46778   46779
   46779       0   46781   46782   46782       0   46784   46785   46785       0
   46787   46788   46788       0   46790   46791   46791       0   46793   46794
   46794       0   46796   46797   46797       0   46799   46800   46800       0
   46802   46803   46803       0   46805   46806   46806       0   46808   46809
   46809       0   46811   46812   46812       0   46814   46815   46815       0
   46817   46818   46818       0   46820   46821   46821       0   46823   46824
   46824       0   46826   46827   46827       0   46829   46830   46830       0
   46832   46833   46833       0   46835   46836   46836       0   46838   46839
   46839       0   46841   46842   46842       0   46844   46845   46845       0
   46847   46848   46848       0   46850   46851   46851       0   46853   46854
   46854       0   46856   46857   46857       0   46859   46860   46860       0
   46862   46863   46863       0   46865   46866   46866       0   46868   46869
   46869       0   46871   46872   46872       0   46874   46875   46875       0
   46877   46878   46878       0   46880   46881   46881       0   46883   46884
   46884       0   46886   46887   46887       0   46889   46890   46890       0
   46892   46893   46893       0   46895   46896   46896       0   46898   46899
   46899       0   46901   46902   46902       0   46904   46905   46905       0
   46907   46908   46908       0   46910   46911   46911       0   46913   46914
   46914       0   46916   46917   46917       0   46919   46920   46920       0
   46922   46923   46923       0   46925   46926   46926       0   46928   46929
   46929       0   46931   46932   46932       0   46934   46935   46935       0
   46937   46938   46938       0   46940   46941   46941       0   46943   46944
   46944       0   46946   46947   46947       0   46949   46950   46950       0
   46952   46953   46953       0   46955   46956   46956       0   46958   46959
   46959       0   46961   46962   46962       0   46964   46965   46965       0
   46967   46968   46968       0   46970   46971   46971       0   46973   46974
   46974       0   46976   46977   46977       0   46979   46980   46980       0
   46982   46983   46983       0   46985   46986   46986       0   46988   46989
   46989       0   46991   46992   46992       0   46994   46995   46995       0
   46997   46998   46998       0   47000   47001   47001       0   47003   47004
   47004       0   47006   47007   47007       0   47009   47010   47010       0
   47012   47013   47013       0   47015   47016   47016       0   47018   47019
   47019       0   47021   47022   47022       0   47024   47025   47025       0
   47027   47028   47028       0   47030   47031   47031       0   47033   47034
   47034       0   47036   47037   47037       0   47039   47040   47040       0
   47042   47043   47043       0   47045   47046   47046       0   47048   47049
   47049       0   47051   47052   47052       0   47054   47055   47055       0
   47057   47058   47058       0   47060   47061   47061       0   47063   47064
   47064       0   47066   47067   47067       0   47069   47070   47070       0
   47072   47073   47073       0   47075   47076   47076       0   47078   47079
   47079       0   47081   47082   47082       0   47084   47085   47085       0
   47087   47088   47088       0   47090   47091   47091       0   47093   47094
   47094       0   47096   47097   47097       0   47099   47100   47100       0
   47102   47103   47103       0   47105   47106   47106       0   47108   47109
   47109       0   47111   47112   47112       0   47114   47115   47115       0
   47117   47118   47118       0   47120   47121   47121       0   47123   47124
   47124       0   47126   47127   47127       0   47129   47130   47130       0
   47132   47133   47133       0   47135   47136   47136       0   47138   47139
   47139       0   47141   47142   47142       0   47144   47145   47145       0
   47147   47148   47148       0   47150   47151   47151       0   47153   47154
   47154       0   47156   47157   47157       0   47159   47160   47160       0
   47162   47163   47163       0   47165   47166   47166       0   47168   47169
   47169       0   47171   47172   47172       0   47174   47175   47175       0
   47177   47178   47178       0   47180   47181   47181       0   47183   47184
   47184       0   47186   47187   47187       0   47189   47190   47190       0
   47192   47193   47193       0   47195   47196   47196       0   47198   47199
   47199       0   47201   47202   47202       0   47204   47205   47205       0
   47207   47208   47208       0   47210   47211   47211       0   47213   47214
   47214       0   47216   47217   47217       0   47219   47220   47220       0
   47222   47223   47223       0   47225   47226   47226       0   47228   47229
   47229       0   47231   47232   47232       0   47234   47235   47235       0
   47237   47238   47238       0   47240   47241   47241       0   47243   47244
   47244       0   47246   47247   47247       0   47249   47250   47250       0
   47252   47253   47253       0   47255   47256   47256       0   47258   47259
   47259       0   47261   47262   47262       0   47264   47265   47265       0
   47267   47268   47268       0   47270   47271   47271       0   47273   47274
   47274       0   47276   47277   47277       0   47279   47280   47280       0
   47282   47283   47283       0   47285   47286   47286       0   47288   47289
   47289       0   47291   47292   47292       0   47294   47295   47295       0
   47297   47298   47298       0   47300   47301   47301       0   47303   47304
   47304       0   47306   47307   47307       0   47309   47310   47310       0
   47312   47313   47313       0   47315   47316   47316       0   47318   47319
   47319       0   47321   47322   47322       0   47324   47325   47325       0
   47327   47328   47328       0   47330   47331   47331       0   47333   47334
   47334       0   47336   47337   47337       0   47339   47340   47340       0
   47342   47343   47343       0   47345   47346   47346       0   47348   47349
   47349       0   47351   47352   47352       0   47354   47355   47355       0
   47357   47358   47358       0   47360   47361   47361       0   47363   47364
   47364       0   47366   47367   47367       0   47369   47370   47370       0
   47372   47373   47373       0   47375   47376   47376       0   47378   47379
   47379       0   47381   47382   47382       0   47384   47385   47385       0
   47387   47388   47388       0   47390   47391   47391       0   47393   47394
   47394       0   47396   47397   47397       0   47399   47400   47400       0
   47402   47403   47403       0   47405   47406   47406       0   47408   47409
   47409       0   47411   47412   47412       0   47414   47415   47415       0
   47417   47418   47418       0   47420   47421   47421       0   47423   47424
   47424       0   47426   47427   47427       0   47429   47430   47430       0
   47432   47433   47433       0   47435   47436   47436       0   47438   47439
   47439       0   47441   47442   47442       0   47444   47445   47445       0
   47447   47448   47448       0   47450   47451   47451       0   47453   47454
   47454       0   47456   47457   47457       0   47459   47460   47460       0
   47462   47463   47463       0   47465   47466   47466       0   47468   47469
   47469       0   47471   47472   47472       0   47474   47475   47475       0
   47477   47478   47478       0   47480   47481   47481       0   47483   47484
   47484       0   47486   47487   47487       0   47489   47490   47490       0
   47492   47493   47493       0   47495   47496   47496       0   47498   47499
   47499       0   47501   47502   47502       0   47504   47505   47505       0
   47507   47508   47508       0   47510   47511   47511       0   47513   47514
   47514       0   47516   47517   47517       0   47519   47520   47520       0
   47522   47523   47523       0   47525   47526   47526       0   47528   47529
   47529       0   47531   47532   47532       0   47534   47535   47535       0
   47537   47538   47538       0   47540   47541   47541       0   47543   47544
   47544       0   47546   47547   47547       0   47549   47550   47550       0
   47552   47553   47553       0   47555   47556   47556       0   47558   47559
   47559       0   47561   47562   47562       0   47564   47565   47565       0
   47567   47568   47568       0   47570   47571   47571       0   47573   47574
   47574       0   47576   47577   47577       0   47579   47580   47580       0
   47582   47583   47583       0   47585   47586   47586       0   47588   47589
   47589       0   47591   47592   47592       0   47594   47595   47595       0
   47597   47598   47598       0   47600   47601   47601       0   47603   47604
   47604       0   47606   47607   47607       0   47609   47610   47610       0
   47612   47613   47613       0   47615   47616   47616       0   47618   47619
   47619       0   47621   47622   47622       0   47624   47625   47625       0
   47627   47628   47628       0   47630   47631   47631       0   47633   47634
   47634       0   47636   47637   47637       0   47639   47640   47640       0
   47642   47643   47643       0   47645   47646   47646       0   47648   47649
   47649       0   47651   47652   47652       0   47654   47655   47655       0
   47657   47658   47658       0   47660   47661   47661       0   47663   47664
   47664       0   47666   47667   47667       0   47669   47670   47670       0
   47672   47673   47673       0   47675   47676   47676       0   47678   47679
   47679       0   47681   47682   47682       0   47684   47685   47685       0
   47687   47688   47688       0   47690   47691   47691       0   47693   47694
   47694       0   47696   47697   47697       0   47699   47700   47700       0
   47702   47703   47703       0   47705   47706   47706       0   47708   47709
   47709       0   47711   47712   47712       0   47714   47715   47715       0
   47717   47718   47718       0   47720   47721   47721       0   47723   47724
   47724       0   47726   47727   47727       0   47729   47730   47730       0
   47732   47733   47733       0   47735   47736   47736       0   47738   47739
   47739       0   47741   47742   47742       0   47744   47745   47745       0
   47747   47748   47748       0   47750   47751   47751       0   47753   47754
   47754       0   47756   47757   47757       0   47759   47760   47760       0
   47762   47763   47763       0   47765   47766   47766       0   47768   47769
   47769       0   47771   47772   47772       0   47774   47775   47775       0
   47777   47778   47778       0   47780   47781   47781       0   47783   47784
   47784       0   47786   47787   47787       0   47789   47790   47790       0
   47792   47793   47793       0   47795   47796   47796       0   47798   47799
   47799       0   47801   47802   47802       0   47804   47805   47805       0
   47807   47808   47808       0   47810   47811   47811       0   47813   47814
   47814       0   47816   47817   47817       0   47819   47820   47820       0
   47822   47823   47823       0   47825   47826   47826       0   47828   47829
   47829       0   47831   47832   47832       0   47834   47835   47835       0
   47837   47838   47838       0   47840   47841   47841       0   47843   47844
   47844       0   47846   47847   47847       0   47849   47850   47850       0
   47852   47853   47853       0   47855   47856   47856       0   47858   47859
   47859       0   47861   47862   47862       0   47864   47865   47865       0
   47867   47868   47868       0   47870   47871   47871       0   47873   47874
   47874       0   47876   47877   47877       0   47879   47880   47880       0
   47882   47883   47883       0   47885   47886   47886       0   47888   47889
   47889       0   47891   47892   47892       0   47894   47895   47895       0
   47897   47898   47898       0   47900   47901   47901       0   47903   47904
   47904       0   47906   47907   47907       0   47909   47910   47910       0
   47912   47913   47913       0   47915   47916   47916       0   47918   47919
   47919       0   47921   47922   47922       0   47924   47925   47925       0
   47927   47928   47928       0   47930   47931   47931       0   47933   47934
   47934       0   47936   47937   47937       0   47939   47940   47940       0
   47942   47943   47943       0   47945   47946   47946       0   47948   47949
   47949       0   47951   47952   47952       0   47954   47955   47955       0
   47957   47958   47958       0   47960   47961   47961       0   47963   47964
   47964       0   47966   47967   47967       0   47969   47970   47970       0
   47972   47973   47973       0   47975   47976   47976       0   47978   47979
   47979       0   47981   47982   47982       0   47984   47985   47985       0
   47987   47988   47988       0   47990   47991   47991       0   47993   47994
   47994       0   47996   47997   47997       0   47999   48000   48000       0
   48002   48003   48003       0   48005   48006   48006       0   48008   48009
   48009       0   48011   48012   48012       0   48014   48015   48015       0
   48017   48018   48018       0   48020   48021   48021       0   48023   48024
   48024       0   48026   48027   48027       0   48029   48030   48030       0
   48032   48033   48033       0   48035   48036   48036       0   48038   48039
   48039       0   48041   48042   48042       0   48044   48045   48045       0
   48047   48048   48048       0   48050   48051   48051       0   48053   48054
   48054       0   48056   48057   48057       0   48059   48060   48060       0
   48062   48063   48063       0   48065   48066   48066       0   48068   48069
   48069       0   48071   48072   48072       0   48074   48075   48075       0
   48077   48078   48078       0   48080   48081   48081       0   48083   48084
   48084       0   48086   48087   48087       0   48089   48090   48090       0
   48092   48093   48093       0   48095   48096   48096       0   48098   48099
   48099       0   48101   48102   48102       0   48104   48105   48105       0
   48107   48108   48108       0   48110   48111   48111       0   48113   48114
   48114       0   48116   48117   48117       0   48119   48120   48120       0
   48122   48123   48123       0   48125   48126   48126       0   48128   48129
   48129       0   48131   48132   48132       0   48134   48135   48135       0
   48137   48138   48138       0   48140   48141   48141       0   48143   48144
   48144       0   48146   48147   48147       0   48149   48150   48150       0
   48152   48153   48153       0   48155   48156   48156       0   48158   48159
   48159       0   48161   48162   48162       0   48164   48165   48165       0
   48167   48168   48168       0   48170   48171   48171       0   48173   48174
   48174       0   48176   48177   48177       0   48179   48180   48180       0
   48182   48183   48183       0   48185   48186   48186       0   48188   48189
   48189       0   48191   48192   48192       0   48194   48195   48195       0
   48197   48198   48198       0   48200   48201   48201       0   48203   48204
   48204       0   48206   48207   48207       0   48209   48210   48210       0
   48212   48213   48213       0   48215   48216   48216       0   48218   48219
   48219       0   48221   48222   48222       0   48224   48225   48225       0
   48227   48228   48228       0   48230   48231   48231       0   48233   48234
   48234       0   48236   48237   48237       0   48239   48240   48240       0
   48242   48243   48243       0   48245   48246   48246       0   48248   48249
   48249       0   48251   48252   48252       0   48254   48255   48255       0
   48257   48258   48258       0   48260   48261   48261       0   48263   48264
   48264       0   48266   48267   48267       0   48269   48270   48270       0
   48272   48273   48273       0   48275   48276   48276       0   48278   48279
   48279       0   48281   48282   48282       0   48284   48285   48285       0
   48287   48288   48288       0   48290   48291   48291       0   48293   48294
   48294       0   48296   48297   48297       0   48299   48300   48300       0
   48302   48303   48303       0   48305   48306   48306       0   48308   48309
   48309       0   48311   48312   48312       0   48314   48315   48315       0
   48317   48318   48318       0   48320   48321   48321       0   48323   48324
   48324       0   48326   48327   48327       0   48329   48330   48330       0
   48332   48333   48333       0   48335   48336   48336       0   48338   48339
   48339       0   48341   48342   48342       0   48344   48345   48345       0
   48347   48348   48348       0   48350   48351   48351       0   48353   48354
   48354       0   48356   48357   48357       0   48359   48360   48360       0
   48362   48363   48363       0   48365   48366   48366       0   48368   48369
   48369       0   48371   48372   48372       0   48374   48375   48375       0
   48377   48378   48378       0   48380   48381   48381       0   48383   48384
   48384       0   48386   48387   48387       0   48389   48390   48390       0
   48392   48393   48393       0   48395   48396   48396       0   48398   48399
   48399       0   48401   48402   48402       0   48404   48405   48405       0
   48407   48408   48408       0   48410   48411   48411       0   48413   48414
   48414       0   48416   48417   48417       0   48419   48420   48420       0
   48422   48423   48423       0   48425   48426   48426       0   48428   48429
   48429       0   48431   48432   48432       0   48434   48435   48435       0
   48437   48438   48438       0   48440   48441   48441       0   48443   48444
   48444       0   48446   48447   48447       0   48449   48450   48450       0
   48452   48453   48453       0   48455   48456   48456       0   48458   48459
   48459       0   48461   48462   48462       0   48464   48465   48465       0
   48467   48468   48468       0   48470   48471   48471       0   48473   48474
   48474       0   48476   48477   48477       0   48479   48480   48480       0
   48482   48483   48483       0   48485   48486   48486       0   48488   48489
   48489       0   48491   48492   48492       0   48494   48495   48495       0
   48497   48498   48498       0   48500   48501   48501       0   48503   48504
   48504       0   48506   48507   48507       0   48509   48510   48510       0
   48512   48513   48513       0   48515   48516   48516       0   48518   48519
   48519       0   48521   48522   48522       0   48524   48525   48525       0
   48527   48528   48528       0   48530   48531   48531       0   48533   48534
   48534       0   48536   48537   48537       0   48539   48540   48540       0
   48542   48543   48543       0   48545   48546   48546       0   48548   48549
   48549       0   48551   48552   48552       0   48554   48555   48555       0
   48557   48558   48558       0   48560   48561   48561       0   48563   48564
   48564       0   48566   48567   48567       0   48569   48570   48570       0
   48572   48573   48573       0   48575   48576   48576       0   48578   48579
   48579       0   48581   48582   48582       0   48584   48585   48585       0
   48587   48588   48588       0   48590   48591   48591       0   48593   48594
   48594       0   48596   48597   48597       0   48599   48600   48600       0
   48602   48603   48603       0   48605   48606   48606       0   48608   48609
   48609       0   48611   48612   48612       0   48614   48615   48615       0
   48617   48618   48618       0   48620   48621   48621       0   48623   48624
   48624       0   48626   48627   48627       0   48629   48630   48630       0
   48632   48633   48633       0   48635   48636   48636       0   48638   48639
   48639       0   48641   48642   48642       0   48644   48645   48645       0
   48647   48648   48648       0   48650   48651   48651       0   48653   48654
   48654       0   48656   48657   48657       0   48659   48660   48660       0
   48662   48663   48663       0   48665   48666   48666       0   48668   48669
   48669       0   48671   48672   48672       0   48674   48675   48675       0
   48677   48678   48678       0   48680   48681   48681       0   48683   48684
   48684       0   48686   48687   48687       0   48689   48690   48690       0
   48692   48693   48693       0   48695   48696   48696       0   48698   48699
   48699       0   48701   48702   48702       0   48704   48705   48705       0
   48707   48708   48708       0   48710   48711   48711       0   48713   48714
   48714       0   48716   48717   48717       0   48719   48720   48720       0
   48722   48723   48723       0   48725   48726   48726       0   48728   48729
   48729       0   48731   48732   48732       0   48734   48735   48735       0
   48737   48738   48738       0   48740   48741   48741       0   48743   48744
   48744       0   48746   48747   48747       0   48749   48750   48750       0
   48752   48753   48753       0   48755   48756   48756       0   48758   48759
   48759       0   48761   48762   48762       0   48764   48765   48765       0
   48767   48768   48768       0   48770   48771   48771       0   48773   48774
   48774       0   48776   48777   48777       0   48779   48780   48780       0
   48782   48783   48783       0   48785   48786   48786       0   48788   48789
   48789       0   48791   48792   48792       0   48794   48795   48795       0
   48797   48798   48798       0   48800   48801   48801       0   48803   48804
   48804       0   48806   48807   48807       0   48809   48810   48810       0
   48812   48813   48813       0   48815   48816   48816       0   48818   48819
   48819       0   48821   48822   48822       0   48824   48825   48825       0
   48827   48828   48828       0   48830   48831   48831       0   48833   48834
   48834       0   48836   48837   48837       0   48839   48840   48840       0
   48842   48843   48843       0   48845   48846   48846       0   48848   48849
   48849       0   48851   48852   48852       0   48854   48855   48855       0
   48857   48858   48858       0   48860   48861   48861       0   48863   48864
   48864       0   48866   48867   48867       0   48869   48870   48870       0
   48872   48873   48873       0   48875   48876   48876       0   48878   48879
   48879       0   48881   48882   48882       0   48884   48885   48885       0
   48887   48888   48888       0   48890   48891   48891       0   48893   48894
   48894       0   48896   48897   48897       0   48899   48900   48900       0
   48902   48903   48903       0   48905   48906   48906       0   48908   48909
   48909       0   48911   48912   48912       0   48914   48915   48915       0
   48917   48918   48918       0   48920   48921   48921       0   48923   48924
   48924       0   48926   48927   48927       0   48929   48930   48930       0
   48932   48933   48933       0   48935   48936   48936       0   48938   48939
   48939       0   48941   48942   48942       0   48944   48945   48945       0
   48947   48948   48948       0   48950   48951   48951       0   48953   48954
   48954       0   48956   48957   48957       0   48959   48960   48960       0
   48962   48963   48963       0   48965   48966   48966       0   48968   48969
   48969       0   48971   48972   48972       0   48974   48975   48975       0
   48977   48978   48978       0   48980   48981   48981       0   48983   48984
   48984       0   48986   48987   48987       0   48989   48990   48990       0
   48992   48993   48993       0   48995   48996   48996       0   48998   48999
   48999       0   49001   49002   49002       0   49004   49005   49005       0
   49007   49008   49008       0   49010   49011   49011       0   49013   49014
   49014       0   49016   49017   49017       0   49019   49020   49020       0
   49022   49023   49023       0   49025   49026   49026       0   49028   49029
   49029       0   49031   49032   49032       0   49034   49035   49035       0
   49037   49038   49038       0   49040   49041   49041       0   49043   49044
   49044       0   49046   49047   49047       0   49049   49050   49050       0
   49052   49053   49053       0   49055   49056   49056       0   49058   49059
   49059       0   49061   49062   49062       0   49064   49065   49065       0
   49067   49068   49068       0   49070   49071   49071       0   49073   49074
   49074       0   49076   49077   49077       0   49079   49080   49080       0
   49082   49083   49083       0   49085   49086   49086       0   49088   49089
   49089       0   49091   49092   49092       0   49094   49095   49095       0
   49097   49098   49098       0   49100   49101   49101       0   49103   49104
   49104       0   49106   49107   49107       0   49109   49110   49110       0
   49112   49113   49113       0   49115   49116   49116       0   49118   49119
   49119       0   49121   49122   49122       0   49124   49125   49125       0
   49127   49128   49128       0   49130   49131   49131       0   49133   49134
   49134       0   49136   49137   49137       0   49139   49140   49140       0
   49142   49143   49143       0   49145   49146   49146       0   49148   49149
   49149       0   49151   49152   49152       0   49154   49155   49155       0
   49157   49158   49158       0   49160   49161   49161       0   49163   49164
   49164       0   49166   49167   49167       0   49169   49170   49170       0
   49172   49173   49173       0   49175   49176   49176       0   49178   49179
   49179       0   49181   49182   49182       0   49184   49185   49185       0
   49187   49188   49188       0   49190   49191   49191       0   49193   49194
   49194       0   49196   49197   49197       0   49199   49200   49200       0
   49202   49203   49203       0   49205   49206   49206       0   49208   49209
   49209       0   49211   49212   49212       0   49214   49215   49215       0
   49217   49218   49218       0   49220   49221   49221       0   49223   49224
   49224       0   49226   49227   49227       0   49229   49230   49230       0
   49232   49233   49233       0   49235   49236   49236       0   49238   49239
   49239       0   49241   49242   49242       0   49244   49245   49245       0
   49247   49248   49248       0   49250   49251   49251       0   49253   49254
   49254       0   49256   49257   49257       0   49259   49260   49260       0
   49262   49263   49263       0   49265   49266   49266       0   49268   49269
   49269       0   49271   49272   49272       0   49274   49275   49275       0
   49277   49278   49278       0   49280   49281   49281       0   49283   49284
   49284       0   49286   49287   49287       0   49289   49290   49290       0
   49292   49293   49293       0   49295   49296   49296       0   49298   49299
   49299       0   49301   49302   49302       0   49304   49305   49305       0
   49307   49308   49308       0   49310   49311   49311       0   49313   49314
   49314       0   49316   49317   49317       0   49319   49320   49320       0
   49322   49323   49323       0   49325   49326   49326       0   49328   49329
   49329       0   49331   49332   49332       0   49334   49335   49335       0
   49337   49338   49338       0   49340   49341   49341       0   49343   49344
   49344       0   49346   49347   49347       0   49349   49350   49350       0
   49352   49353   49353       0   49355   49356   49356       0   49358   49359
   49359       0   49361   49362   49362       0   49364   49365   49365       0
   49367   49368   49368       0   49370   49371   49371       0   49373   49374
   49374       0   49376   49377   49377       0   49379   49380   49380       0
   49382   49383   49383       0   49385   49386   49386       0   49388   49389
   49389       0   49391   49392   49392       0   49394   49395   49395       0
   49397   49398   49398       0   49400   49401   49401       0   49403   49404
   49404       0   49406   49407   49407       0   49409   49410   49410       0
   49412   49413   49413       0   49415   49416   49416       0   49418   49419
   49419       0   49421   49422   49422       0   49424   49425   49425       0
   49427   49428   49428       0   49430   49431   49431       0   49433   49434
   49434       0   49436   49437   49437       0   49439   49440   49440       0
   49442   49443   49443       0   49445   49446   49446       0   49448   49449
   49449       0   49451   49452   49452       0   49454   49455   49455       0
   49457   49458   49458       0   49460   49461   49461       0   49463   49464
   49464       0   49466   49467   49467       0   49469   49470   49470       0
   49472   49473   49473       0   49475   49476   49476       0   49478   49479
   49479       0   49481   49482   49482       0   49484   49485   49485       0
   49487   49488   49488       0   49490   49491   49491       0   49493   49494
   49494       0   49496   49497   49497       0   49499   49500   49500       0
   49502   49503   49503       0   49505   49506   49506       0   49508   49509
   49509       0   49511   49512   49512       0   49514   49515   49515       0
   49517   49518   49518       0   49520   49521   49521       0   49523   49524
   49524       0   49526   49527   49527       0   49529   49530   49530       0
   49532   49533   49533       0   49535   49536   49536       0   49538   49539
   49539       0   49541   49542   49542       0   49544   49545   49545       0
   49547   49548   49548       0   49550   49551   49551       0   49553   49554
   49554       0   49556   49557   49557       0   49559   49560   49560       0
   49562   49563   49563       0   49565   49566   49566       0   49568   49569
   49569       0   49571   49572   49572       0   49574   49575   49575       0
   49577   49578   49578       0   49580   49581   49581       0   49583   49584
   49584       0   49586   49587   49587       0   49589   49590   49590       0
   49592   49593   49593       0   49595   49596   49596       0   49598   49599
   49599       0   49601   49602   49602       0   49604   49605   49605       0
   49607   49608   49608       0   49610   49611   49611       0   49613   49614
   49614       0   49616   49617   49617       0   49619   49620   49620       0
   49622   49623   49623       0   49625   49626   49626       0   49628   49629
   49629       0   49631   49632   49632       0   49634   49635   49635       0
   49637   49638   49638       0   49640   49641   49641       0   49643   49644
   49644       0   49646   49647   49647       0   49649   49650   49650       0
   49652   49653   49653       0   49655   49656   49656       0   49658   49659
   49659       0   49661   49662   49662       0   49664   49665   49665       0
   49667   49668   49668       0   49670   49671   49671       0   49673   49674
   49674       0   49676   49677   49677       0   49679   49680   49680       0
   49682   49683   49683       0   49685   49686   49686       0   49688   49689
   49689       0   49691   49692   49692       0   49694   49695   49695       0
   49697   49698   49698       0   49700   49701   49701       0   49703   49704
   49704       0   49706   49707   49707       0   49709   49710   49710       0
   49712   49713   49713       0   49715   49716   49716       0   49718   49719
   49719       0   49721   49722   49722       0   49724   49725   49725       0
   49727   49728   49728       0   49730   49731   49731       0   49733   49734
   49734       0   49736   49737   49737       0   49739   49740   49740       0
   49742   49743   49743       0   49745   49746   49746       0   49748   49749
   49749       0   49751   49752   49752       0   49754   49755   49755       0
   49757   49758   49758       0   49760   49761   49761       0   49763   49764
   49764       0   49766   49767   49767       0   49769   49770   49770       0
   49772   49773   49773       0   49775   49776   49776       0   49778   49779
   49779       0   49781   49782   49782       0   49784   49785   49785       0
   49787   49788   49788       0   49790   49791   49791       0   49793   49794
   49794       0   49796   49797   49797       0   49799   49800   49800       0
   49802   49803   49803       0   49805   49806   49806       0   49808   49809
   49809       0   49811   49812   49812       0   49814   49815   49815       0
   49817   49818   49818       0   49820   49821   49821       0   49823   49824
   49824       0   49826   49827   49827       0   49829   49830   49830       0
   49832   49833   49833       0   49835   49836   49836       0   49838   49839
   49839       0   49841   49842   49842       0   49844   49845   49845       0
   49847   49848   49848       0   49850   49851   49851       0   49853   49854
   49854       0   49856   49857   49857       0   49859   49860   49860       0
   49862   49863   49863       0   49865   49866   49866       0   49868   49869
   49869       0   49871   49872   49872       0   49874   49875   49875       0
   49877   49878   49878       0   49880   49881   49881       0   49883   49884
   49884       0   49886   49887   49887       0   49889   49890   49890       0
   49892   49893   49893       0   49895   49896   49896       0   49898   49899
   49899       0   49901   49902   49902       0   49904   49905   49905       0
   49907   49908   49908       0   49910   49911   49911       0   49913   49914
   49914       0   49916   49917   49917       0   49919   49920   49920       0
   49922   49923   49923       0   49925   49926   49926       0   49928   49929
   49929       0   49931   49932   49932       0   49934   49935   49935       0
   49937   49938   49938       0   49940   49941   49941       0   49943   49944
   49944       0   49946   49947   49947       0   49949   49950   49950       0
   49952   49953   49953       0   49955   49956   49956       0   49958   49959
   49959       0   49961   49962   49962       0   49964   49965   49965       0
   49967   49968   49968       0   49970   49971   49971       0   49973   49974
   49974       0   49976   49977   49977       0   49979   49980   49980       0
   49982   49983   49983       0   49985   49986   49986       0   49988   49989
   49989       0   49991   49992   49992       0   49994   49995   49995       0
   49997   49998   49998       0   50000   50001   50001       0   50003   50004
   50004       0   50006   50007   50007       0   50009   50010   50010       0
   50012   50013   50013       0   50015   50016   50016       0   50018   50019
   50019       0   50021   50022   50022       0   50024   50025   50025       0
   50027   50028   50028       0   50030   50031   50031       0   50033   50034
   50034       0   50036   50037   50037       0   50039   50040   50040       0
   50042   50043   50043       0   50045   50046   50046       0   50048   50049
   50049       0   50051   50052   50052       0   50054   50055   50055       0
   50057   50058   50058       0   50060   50061   50061       0   50063   50064
   50064       0   50066   50067   50067       0   50069   50070   50070       0
   50072   50073   50073       0   50075   50076   50076       0   50078   50079
   50079       0   50081   50082   50082       0   50084   50085   50085       0
   50087   50088   50088       0   50090   50091   50091       0   50093   50094
   50094       0   50096   50097   50097       0   50099   50100   50100       0
   50102   50103   50103       0   50105   50106   50106       0   50108   50109
   50109       0   50111   50112   50112       0   50114   50115   50115       0
   50117   50118   50118       0   50120   50121   50121       0   50123   50124
   50124       0   50126   50127   50127       0   50129   50130   50130       0
   50132   50133   50133       0   50135   50136   50136       0   50138   50139
   50139       0   50141   50142   50142       0   50144   50145   50145       0
   50147   50148   50148       0   50150   50151   50151       0   50153   50154
   50154       0   50156   50157   50157       0   50159   50160   50160       0
   50162   50163   50163       0   50165   50166   50166       0   50168   50169
   50169       0   50171   50172   50172       0   50174   50175   50175       0
   50177   50178   50178       0   50180   50181   50181       0   50183   50184
   50184       0   50186   50187   50187       0   50189   50190   50190       0
   50192   50193   50193       0   50195   50196   50196       0   50198   50199
   50199       0   50201   50202   50202       0   50204   50205   50205       0
   50207   50208   50208       0   50210   50211   50211       0   50213   50214
   50214       0   50216   50217   50217       0   50219   50220   50220       0
   50222   50223   50223       0   50225   50226   50226       0   50228   50229
   50229       0   50231   50232   50232       0   50234   50235   50235       0
   50237   50238   50238       0   50240   50241   50241       0   50243   50244
   50244       0   50246   50247   50247       0   50249   50250   50250       0
   50252   50253   50253       0   50255   50256   50256       0   50258   50259
   50259       0   50261   50262   50262       0   50264   50265   50265       0
   50267   50268   50268       0   50270   50271   50271       0   50273   50274
   50274       0   50276   50277   50277       0   50279   50280   50280       0
   50282   50283   50283       0   50285   50286   50286       0   50288   50289
   50289       0   50291   50292   50292       0   50294   50295   50295       0
   50297   50298   50298       0   50300   50301   50301       0   50303   50304
   50304       0   50306   50307   50307       0   50309   50310   50310       0
   50312   50313   50313       0   50315   50316   50316       0   50318   50319
   50319       0   50321   50322   50322       0   50324   50325   50325       0
   50327   50328   50328       0   50330   50331   50331       0   50333   50334
   50334       0   50336   50337   50337       0   50339   50340   50340       0
   50342   50343   50343       0   50345   50346   50346       0   50348   50349
   50349       0   50351   50352   50352       0   50354   50355   50355       0
   50357   50358   50358       0   50360   50361   50361       0   50363   50364
   50364       0   50366   50367   50367       0   50369   50370   50370       0
   50372   50373   50373       0   50375   50376   50376       0   50378   50379
   50379       0   50381   50382   50382       0   50384   50385   50385       0
   50387   50388   50388       0   50390   50391   50391       0   50393   50394
   50394       0   50396   50397   50397       0   50399   50400   50400       0
   50402   50403   50403       0   50405   50406   50406       0   50408   50409
   50409       0   50411   50412   50412       0   50414   50415   50415       0
   50417   50418   50418       0   50420   50421   50421       0   50423   50424
   50424       0   50426   50427   50427       0   50429   50430   50430       0
   50432   50433   50433       0   50435   50436   50436       0   50438   50439
   50439       0   50441   50442   50442       0   50444   50445   50445       0
   50447   50448   50448       0   50450   50451   50451       0   50453   50454
   50454       0   50456   50457   50457       0   50459   50460   50460       0
   50462   50463   50463       0   50465   50466   50466       0   50468   50469
   50469       0   50471   50472   50472       0   50474   50475   50475       0
   50477   50478   50478       0   50480   50481   50481       0   50483   50484
   50484       0   50486   50487   50487       0   50489   50490   50490       0
   50492   50493   50493       0   50495   50496   50496       0   50498   50499
   50499       0   50501   50502   50502       0   50504   50505   50505       0
   50507   50508   50508       0   50510   50511   50511       0   50513   50514
   50514       0   50516   50517   50517       0   50519   50520   50520       0
   50522   50523   50523       0   50525   50526   50526       0   50528   50529
   50529       0   50531   50532   50532       0   50534   50535   50535       0
   50537   50538   50538       0   50540   50541   50541       0   50543   50544
   50544       0   50546   50547   50547       0   50549   50550   50550       0
   50552   50553   50553       0   50555   50556   50556       0   50558   50559
   50559       0   50561   50562   50562       0   50564   50565   50565       0
   50567   50568   50568       0   50570   50571   50571       0   50573   50574
   50574       0   50576   50577   50577       0   50579   50580   50580       0
   50582   50583   50583       0   50585   50586   50586       0   50588   50589
   50589       0   50591   50592   50592       0   50594   50595   50595       0
   50597   50598   50598       0   50600   50601   50601       0   50603   50604
   50604       0   50606   50607   50607       0   50609   50610   50610       0
   50612   50613   50613       0   50615   50616   50616       0   50618   50619
   50619       0   50621   50622   50622       0   50624   50625   50625       0
   50627   50628   50628       0   50630   50631   50631       0   50633   50634
   50634       0   50636   50637   50637       0   50639   50640   50640       0
   50642   50643   50643       0   50645   50646   50646       0   50648   50649
   50649       0   50651   50652   50652       0   50654   50655   50655       0
   50657   50658   50658       0   50660   50661   50661       0   50663   50664
   50664       0   50666   50667   50667       0   50669   50670   50670       0
   50672   50673   50673       0   50675   50676   50676       0   50678   50679
   50679       0   50681   50682   50682       0   50684   50685   50685       0
   50687   50688   50688       0   50690   50691   50691       0   50693   50694
   50694       0   50696   50697   50697       0   50699   50700   50700       0
   50702   50703   50703       0   50705   50706   50706       0   50708   50709
   50709       0   50711   50712   50712       0   50714   50715   50715       0
   50717   50718   50718       0   50720   50721   50721       0   50723   50724
   50724       0   50726   50727   50727       0   50729   50730   50730       0
   50732   50733   50733       0   50735   50736   50736       0   50738   50739
   50739       0   50741   50742   50742       0   50744   50745   50745       0
   50747   50748   50748       0   50750   50751   50751       0   50753   50754
   50754       0   50756   50757   50757       0   50759   50760   50760       0
   50762   50763   50763       0   50765   50766   50766       0   50768   50769
   50769       0   50771   50772   50772       0   50774   50775   50775       0
   50777   50778   50778       0   50780   50781   50781       0   50783   50784
   50784       0   50786   50787   50787       0   50789   50790   50790       0
   50792   50793   50793       0   50795   50796   50796       0   50798   50799
   50799       0   50801   50802   50802       0   50804   50805   50805       0
   50807   50808   50808       0   50810   50811   50811       0   50813   50814
   50814       0   50816   50817   50817       0   50819   50820   50820       0
   50822   50823   50823       0   50825   50826   50826       0   50828   50829
   50829       0   50831   50832   50832       0   50834   50835   50835       0
   50837   50838   50838       0   50840   50841   50841       0   50843   50844
   50844       0   50846   50847   50847       0   50849   50850   50850       0
   50852   50853   50853       0   50855   50856   50856       0   50858   50859
   50859       0   50861   50862   50862       0   50864   50865   50865       0
   50867   50868   50868       0   50870   50871   50871       0   50873   50874
   50874       0   50876   50877   50877       0   50879   50880   50880       0
   50882   50883   50883       0   50885   50886   50886       0   50888   50889
   50889       0   50891   50892   50892       0   50894   50895   50895       0
   50897   50898   50898       0   50900   50901   50901       0   50903   50904
   50904       0   50906   50907   50907       0   50909   50910   50910       0
   50912   50913   50913       0   50915   50916   50916       0   50918   50919
   50919       0   50921   50922   50922       0   50924   50925   50925       0
   50927   50928   50928       0   50930   50931   50931       0   50933   50934
   50934       0   50936   50937   50937       0   50939   50940   50940       0
   50942   50943   50943       0   50945   50946   50946       0   50948   50949
   50949       0   50951   50952   50952       0   50954   50955   50955       0
   50957   50958   50958       0   50960   50961   50961       0   50963   50964
   50964       0   50966   50967   50967       0   50969   50970   50970       0
   50972   50973   50973       0   50975   50976   50976       0   50978   50979
   50979       0   50981   50982   50982       0   50984   50985   50985       0
   50987   50988   50988       0   50990   50991   50991       0   50993   50994
   50994       0   50996   50997   50997       0   50999   51000   51000       0
   51002   51003   51003       0   51005   51006   51006       0   51008   51009
   51009       0   51011   51012   51012       0   51014   51015   51015       0
   51017   51018   51018       0   51020   51021   51021       0   51023   51024
   51024       0   51026   51027   51027       0   51029   51030   51030       0
   51032   51033   51033       0   51035   51036   51036       0   51038   51039
   51039       0   51041   51042   51042       0   51044   51045   51045       0
   51047   51048   51048       0   51050   51051   51051       0   51053   51054
   51054       0   51056   51057   51057       0   51059   51060   51060       0
   51062   51063   51063       0   51065   51066   51066       0   51068   51069
   51069       0   51071   51072   51072       0   51074   51075   51075       0
   51077   51078   51078       0   51080   51081   51081       0   51083   51084
   51084       0   51086   51087   51087       0   51089   51090   51090       0
   51092   51093   51093       0   51095   51096   51096       0   51098   51099
   51099       0   51101   51102   51102       0   51104   51105   51105       0
   51107   51108   51108       0   51110   51111   51111       0   51113   51114
   51114       0   51116   51117   51117       0   51119   51120   51120       0
   51122   51123   51123       0   51125   51126   51126       0   51128   51129
   51129       0   51131   51132   51132       0   51134   51135   51135       0
   51137   51138   51138       0   51140   51141   51141       0   51143   51144
   51144       0   51146   51147   51147       0   51149   51150   51150       0
   51152   51153   51153       0   51155   51156   51156       0   51158   51159
   51159       0   51161   51162   51162       0   51164   51165   51165       0
   51167   51168   51168       0   51170   51171   51171       0   51173   51174
   51174       0   51176   51177   51177       0   51179   51180   51180       0
   51182   51183   51183       0   51185   51186   51186       0   51188   51189
   51189       0   51191   51192   51192       0   51194   51195   51195       0
   51197   51198   51198       0   51200   51201   51201       0   51203   51204
   51204       0   51206   51207   51207       0   51209   51210   51210       0
   51212   51213   51213       0   51215   51216   51216       0   51218   51219
   51219       0   51221   51222   51222       0   51224   51225   51225       0
   51227   51228   51228       0   51230   51231   51231       0   51233   51234
   51234       0   51236   51237   51237       0   51239   51240   51240       0
   51242   51243   51243       0   51245   51246   51246       0   51248   51249
   51249       0   51251   51252   51252       0   51254   51255   51255       0
   51257   51258   51258       0   51260   51261   51261       0   51263   51264
   51264       0   51266   51267   51267       0   51269   51270   51270       0
   51272   51273   51273       0   51275   51276   51276       0   51278   51279
   51279       0   51281   51282   51282       0   51284   51285   51285       0
   51287   51288   51288       0   51290   51291   51291       0   51293   51294
   51294       0   51296   51297   51297       0   51299   51300   51300       0
   51302   51303   51303       0   51305   51306   51306       0   51308   51309
   51309       0   51311   51312   51312       0   51314   51315   51315       0
   51317   51318   51318       0   51320   51321   51321       0   51323   51324
   51324       0   51326   51327   51327       0   51329   51330   51330       0
   51332   51333   51333       0   51335   51336   51336       0   51338   51339
   51339       0   51341   51342   51342       0   51344   51345   51345       0
   51347   51348   51348       0   51350   51351   51351       0   51353   51354
   51354       0   51356   51357   51357       0   51359   51360   51360       0
   51362   51363   51363       0   51365   51366   51366       0   51368   51369
   51369       0   51371   51372   51372       0   51374   51375   51375       0
   51377   51378   51378       0   51380   51381   51381       0   51383   51384
   51384       0   51386   51387   51387       0   51389   51390   51390       0
   51392   51393   51393       0   51395   51396   51396       0   51398   51399
   51399       0   51401   51402   51402       0   51404   51405   51405       0
   51407   51408   51408       0   51410   51411   51411       0   51413   51414
   51414       0   51416   51417   51417       0   51419   51420   51420       0
   51422   51423   51423       0   51425   51426   51426       0   51428   51429
   51429       0   51431   51432   51432       0   51434   51435   51435       0
   51437   51438   51438       0   51440   51441   51441       0   51443   51444
   51444       0   51446   51447   51447       0   51449   51450   51450       0
   51452   51453   51453       0   51455   51456   51456       0   51458   51459
   51459       0   51461   51462   51462       0   51464   51465   51465       0
   51467   51468   51468       0   51470   51471   51471       0   51473   51474
   51474       0   51476   51477   51477       0   51479   51480   51480       0
   51482   51483   51483       0   51485   51486   51486       0   51488   51489
   51489       0   51491   51492   51492       0   51494   51495   51495       0
   51497   51498   51498       0   51500   51501   51501       0   51503   51504
   51504       0   51506   51507   51507       0   51509   51510   51510       0
   51512   51513   51513       0   51515   51516   51516       0   51518   51519
   51519       0   51521   51522   51522       0   51524   51525   51525       0
   51527   51528   51528       0   51530   51531   51531       0   51533   51534
   51534       0   51536   51537   51537       0   51539   51540   51540       0
   51542   51543   51543       0   51545   51546   51546       0   51548   51549
   51549       0   51551   51552   51552       0   51554   51555   51555       0
   51557   51558   51558       0   51560   51561   51561       0   51563   51564
   51564       0   51566   51567   51567       0   51569   51570   51570       0
   51572   51573   51573       0   51575   51576   51576       0   51578   51579
   51579       0   51581   51582   51582       0   51584   51585   51585       0
   51587   51588   51588       0   51590   51591   51591       0   51593   51594
   51594       0   51596   51597   51597       0   51599   51600   51600       0
   51602   51603   51603       0   51605   51606   51606       0   51608   51609
   51609       0   51611   51612   51612       0   51614   51615   51615       0
   51617   51618   51618       0   51620   51621   51621       0   51623   51624
   51624       0   51626   51627   51627       0   51629   51630   51630       0
   51632   51633   51633       0   51635   51636   51636       0   51638   51639
   51639       0   51641   51642   51642       0   51644   51645   51645       0
   51647   51648   51648       0   51650   51651   51651       0   51653   51654
   51654       0   51656   51657   51657       0   51659   51660   51660       0
   51662   51663   51663       0   51665   51666   51666       0   51668   51669
   51669       0   51671   51672   51672       0   51674   51675   51675       0
   51677   51678   51678       0   51680   51681   51681       0   51683   51684
   51684       0   51686   51687   51687       0   51689   51690   51690       0
   51692   51693   51693       0   51695   51696   51696       0   51698   51699
   51699       0   51701   51702   51702       0   51704   51705   51705       0
   51707   51708   51708       0   51710   51711   51711       0   51713   51714
   51714       0   51716   51717   51717       0   51719   51720   51720       0
   51722   51723   51723       0   51725   51726   51726       0   51728   51729
   51729       0   51731   51732   51732       0   51734   51735   51735       0
   51737   51738   51738       0   51740   51741   51741       0   51743   51744
   51744       0   51746   51747   51747       0   51749   51750   51750       0
   51752   51753   51753       0   51755   51756   51756       0   51758   51759
   51759       0   51761   51762   51762       0   51764   51765   51765       0
   51767   51768   51768       0   51770   51771   51771       0   51773   51774
   51774       0   51776   51777   51777       0   51779   51780   51780       0
   51782   51783   51783       0   51785   51786   51786       0   51788   51789
   51789       0   51791   51792   51792       0   51794   51795   51795       0
   51797   51798   51798       0   51800   51801   51801       0   51803   51804
   51804       0   51806   51807   51807       0   51809   51810   51810       0
   51812   51813   51813       0   51815   51816   51816       0   51818   51819
   51819       0   51821   51822   51822       0   51824   51825   51825       0
   51827   51828   51828       0   51830   51831   51831       0   51833   51834
   51834       0   51836   51837   51837       0   51839   51840   51840       0
   51842   51843   51843       0   51845   51846   51846       0   51848   51849
   51849       0   51851   51852   51852       0   51854   51855   51855       0
   51857   51858   51858       0   51860   51861   51861       0   51863   51864
   51864       0   51866   51867   51867       0   51869   51870   51870       0
   51872   51873   51873       0   51875   51876   51876       0   51878   51879
   51879       0   51881   51882   51882       0   51884   51885   51885       0
   51887   51888   51888       0   51890   51891   51891       0   51893   51894
   51894       0   51896   51897   51897       0   51899   51900   51900       0
   51902   51903   51903       0   51905   51906   51906       0   51908   51909
   51909       0   51911   51912   51912       0   51914   51915   51915       0
   51917   51918   51918       0   51920   51921   51921       0   51923   51924
   51924       0   51926   51927   51927       0   51929   51930   51930       0
   51932   51933   51933       0   51935   51936   51936       0   51938   51939
   51939       0   51941   51942   51942       0   51944   51945   51945       0
   51947   51948   51948       0   51950   51951   51951       0   51953   51954
   51954       0   51956   51957   51957       0   51959   51960   51960       0
   51962   51963   51963       0   51965   51966   51966       0   51968   51969
   51969       0   51971   51972   51972       0   51974   51975   51975       0
   51977   51978   51978       0   51980   51981   51981       0   51983   51984
   51984       0   51986   51987   51987       0   51989   51990   51990       0
   51992   51993   51993       0   51995   51996   51996       0   51998   51999
   51999       0   52001   52002   52002       0   52004   52005   52005       0
   52007   52008   52008       0   52010   52011   52011       0   52013   52014
   52014       0   52016   52017   52017       0   52019   52020   52020       0
   52022   52023   52023       0   52025   52026   52026       0   52028   52029
   52029       0   52031   52032   52032       0   52034   52035   52035       0
   52037   52038   52038       0   52040   52041   52041       0   52043   52044
   52044       0   52046   52047   52047       0   52049   52050   52050       0
   52052   52053   52053       0   52055   52056   52056       0   52058   52059
   52059       0   52061   52062   52062       0   52064   52065   52065       0
   52067   52068   52068       0   52070   52071   52071       0   52073   52074
   52074       0   52076   52077   52077       0   52079   52080   52080       0
   52082   52083   52083       0   52085   52086   52086       0   52088   52089
   52089       0   52091   52092   52092       0   52094   52095   52095       0
   52097   52098   52098       0   52100   52101   52101       0   52103   52104
   52104       0   52106   52107   52107       0   52109   52110   52110       0
   52112   52113   52113       0   52115   52116   52116       0   52118   52119
   52119       0   52121   52122   52122       0   52124   52125   52125       0
   52127   52128   52128       0   52130   52131   52131       0   52133   52134
   52134       0   52136   52137   52137       0   52139   52140   52140       0
   52142   52143   52143       0   52145   52146   52146       0   52148   52149
   52149       0   52151   52152   52152       0   52154   52155   52155       0
   52157   52158   52158       0   52160   52161   52161       0   52163   52164
   52164       0   52166   52167   52167       0   52169   52170   52170       0
   52172   52173   52173       0   52175   52176   52176       0   52178   52179
   52179       0   52181   52182   52182       0   52184   52185   52185       0
   52187   52188   52188       0   52190   52191   52191       0   52193   52194
   52194       0   52196   52197   52197       0   52199   52200   52200       0
   52202   52203   52203       0   52205   52206   52206       0   52208   52209
   52209       0   52211   52212   52212       0   52214   52215   52215       0
   52217   52218   52218       0   52220   52221   52221       0   52223   52224
   52224       0   52226   52227   52227       0   52229   52230   52230       0
   52232   52233   52233       0   52235   52236   52236       0   52238   52239
   52239       0   52241   52242   52242       0   52244   52245   52245       0
   52247   52248   52248       0   52250   52251   52251       0   52253   52254
   52254       0   52256   52257   52257       0   52259   52260   52260       0
   52262   52263   52263       0   52265   52266   52266       0   52268   52269
   52269       0   52271   52272   52272       0   52274   52275   52275       0
   52277   52278   52278       0   52280   52281   52281       0   52283   52284
   52284       0   52286   52287   52287       0   52289   52290   52290       0
   52292   52293   52293       0   52295   52296   52296       0   52298   52299
   52299       0   52301   52302   52302       0   52304   52305   52305       0
   52307   52308   52308       0   52310   52311   52311       0   52313   52314
   52314       0   52316   52317   52317       0   52319   52320   52320       0
   52322   52323   52323       0   52325   52326   52326       0   52328   52329
   52329       0   52331   52332   52332       0   52334   52335   52335       0
   52337   52338   52338       0   52340   52341   52341       0   52343   52344
   52344       0   52346   52347   52347       0   52349   52350   52350       0
   52352   52353   52353       0   52355   52356   52356       0   52358   52359
   52359       0   52361   52362   52362       0   52364   52365   52365       0
   52367   52368   52368       0   52370   52371   52371       0   52373   52374
   52374       0   52376   52377   52377       0   52379   52380   52380       0
   52382   52383   52383       0   52385   52386   52386       0   52388   52389
   52389       0   52391   52392   52392       0   52394   52395   52395       0
   52397   52398   52398       0   52400   52401   52401       0   52403   52404
   52404       0   52406   52407   52407       0   52409   52410   52410       0
   52412   52413   52413       0   52415   52416   52416       0   52418   52419
   52419       0   52421   52422   52422       0   52424   52425   52425       0
   52427   52428   52428       0   52430   52431   52431       0   52433   52434
   52434       0   52436   52437   52437       0   52439   52440   52440       0
   52442   52443   52443       0   52445   52446   52446       0   52448   52449
   52449       0   52451   52452   52452       0   52454   52455   52455       0
   52457   52458   52458       0   52460   52461   52461       0   52463   52464
   52464       0   52466   52467   52467       0   52469   52470   52470       0
   52472   52473   52473       0   52475   52476   52476       0   52478   52479
   52479       0   52481   52482   52482       0   52484   52485   52485       0
   52487   52488   52488       0   52490   52491   52491       0   52493   52494
   52494       0   52496   52497   52497       0   52499   52500   52500       0
   52502   52503   52503       0   52505   52506   52506       0   52508   52509
   52509       0   52511   52512   52512       0   52514   52515   52515       0
   52517   52518   52518       0   52520   52521   52521       0   52523   52524
   52524       0   52526   52527   52527       0   52529   52530   52530       0
   52532   52533   52533       0   52535   52536   52536       0   52538   52539
   52539       0   52541   52542   52542       0   52544   52545   52545       0
   52547   52548   52548       0   52550   52551   52551       0   52553   52554
   52554       0   52556   52557   52557       0   52559   52560   52560       0
   52562   52563   52563       0   52565   52566   52566       0   52568   52569
   52569       0   52571   52572   52572       0   52574   52575   52575       0
   52577   52578   52578       0   52580   52581   52581       0   52583   52584
   52584       0   52586   52587   52587       0   52589   52590   52590       0
   52592   52593   52593       0   52595   52596   52596       0   52598   52599
   52599       0   52601   52602   52602       0   52604   52605   52605       0
   52607   52608   52608       0   52610   52611   52611       0   52613   52614
   52614       0   52616   52617   52617       0   52619   52620   52620       0
   52622   52623   52623       0   52625   52626   52626       0   52628   52629
   52629       0   52631   52632   52632       0   52634   52635   52635       0
   52637   52638   52638       0   52640   52641   52641       0   52643   52644
   52644       0   52646   52647   52647       0   52649   52650   52650       0
   52652   52653   52653       0   52655   52656   52656       0   52658   52659
   52659       0   52661   52662   52662       0   52664   52665   52665       0
   52667   52668   52668       0   52670   52671   52671       0   52673   52674
   52674       0   52676   52677   52677       0   52679   52680   52680       0
   52682   52683   52683       0   52685   52686   52686       0   52688   52689
   52689       0   52691   52692   52692       0   52694   52695   52695       0
   52697   52698   52698       0   52700   52701   52701       0   52703   52704
   52704       0   52706   52707   52707       0   52709   52710   52710       0
   52712   52713   52713       0   52715   52716   52716       0   52718   52719
   52719       0   52721   52722   52722       0   52724   52725   52725       0
   52727   52728   52728       0   52730   52731   52731       0   52733   52734
   52734       0   52736   52737   52737       0   52739   52740   52740       0
   52742   52743   52743       0   52745   52746   52746       0   52748   52749
   52749       0   52751   52752   52752       0   52754   52755   52755       0
   52757   52758   52758       0   52760   52761   52761       0   52763   52764
   52764       0   52766   52767   52767       0   52769   52770   52770       0
   52772   52773   52773       0   52775   52776   52776       0   52778   52779
   52779       0   52781   52782   52782       0   52784   52785   52785       0
   52787   52788   52788       0   52790   52791   52791       0   52793   52794
   52794       0   52796   52797   52797       0   52799   52800   52800       0
   52802   52803   52803       0   52805   52806   52806       0   52808   52809
   52809       0   52811   52812   52812       0   52814   52815   52815       0
   52817   52818   52818       0   52820   52821   52821       0   52823   52824
   52824       0   52826   52827   52827       0   52829   52830   52830       0
   52832   52833   52833       0   52835   52836   52836       0   52838   52839
   52839       0   52841   52842   52842       0   52844   52845   52845       0
   52847   52848   52848       0   52850   52851   52851       0   52853   52854
   52854       0   52856   52857   52857       0   52859   52860   52860       0
   52862   52863   52863       0   52865   52866   52866       0   52868   52869
   52869       0   52871   52872   52872       0   52874   52875   52875       0
   52877   52878   52878       0   52880   52881   52881       0   52883   52884
   52884       0   52886   52887   52887       0   52889   52890   52890       0
   52892   52893   52893       0   52895   52896   52896       0   52898   52899
   52899       0   52901   52902   52902       0   52904   52905   52905       0
   52907   52908   52908       0   52910   52911   52911       0   52913   52914
   52914       0   52916   52917   52917       0   52919   52920   52920       0
   52922   52923   52923       0   52925   52926   52926       0   52928   52929
   52929       0   52931   52932   52932       0   52934   52935   52935       0
   52937   52938   52938       0   52940   52941   52941       0   52943   52944
   52944       0   52946   52947   52947       0   52949   52950   52950       0
   52952   52953   52953       0   52955   52956   52956       0   52958   52959
   52959       0   52961   52962   52962       0   52964   52965   52965       0
   52967   52968   52968       0   52970   52971   52971       0   52973   52974
   52974       0   52976   52977   52977       0   52979   52980   52980       0
   52982   52983   52983       0   52985   52986   52986       0   52988   52989
   52989       0   52991   52992   52992       0   52994   52995   52995       0
   52997   52998   52998       0   53000   53001   53001       0   53003   53004
   53004       0   53006   53007   53007       0   53009   53010   53010       0
   53012   53013   53013       0   53015   53016   53016       0   53018   53019
   53019       0   53021   53022   53022       0   53024   53025   53025       0
   53027   53028   53028       0   53030   53031   53031       0   53033   53034
   53034       0   53036   53037   53037       0   53039   53040   53040       0
   53042   53043   53043       0   53045   53046   53046       0   53048   53049
   53049       0   53051   53052   53052       0   53054   53055   53055       0
   53057   53058   53058       0   53060   53061   53061       0   53063   53064
   53064       0   53066   53067   53067       0   53069   53070   53070       0
   53072   53073   53073       0   53075   53076   53076       0   53078   53079
   53079       0   53081   53082   53082       0   53084   53085   53085       0
   53087   53088   53088       0   53090   53091   53091       0   53093   53094
   53094       0   53096   53097   53097       0   53099   53100   53100       0
   53102   53103   53103       0   53105   53106   53106       0   53108   53109
   53109       0   53111   53112   53112       0   53114   53115   53115       0
   53117   53118   53118       0   53120   53121   53121       0   53123   53124
   53124       0   53126   53127   53127       0   53129   53130   53130       0
   53132   53133   53133       0   53135   53136   53136       0   53138   53139
   53139       0   53141   53142   53142       0   53144   53145   53145       0
   53147   53148   53148       0   53150   53151   53151       0   53153   53154
   53154       0   53156   53157   53157       0   53159   53160   53160       0
   53162   53163   53163       0   53165   53166   53166       0   53168   53169
   53169       0   53171   53172   53172       0   53174   53175   53175       0
   53177   53178   53178       0   53180   53181   53181       0   53183   53184
   53184       0   53186   53187   53187       0   53189   53190   53190       0
   53192   53193   53193       0   53195   53196   53196       0   53198   53199
   53199       0   53201   53202   53202       0   53204   53205   53205       0
   53207   53208   53208       0   53210   53211   53211       0   53213   53214
   53214       0   53216   53217   53217       0   53219   53220   53220       0
   53222   53223   53223       0   53225   53226   53226       0   53228   53229
   53229       0   53231   53232   53232       0   53234   53235   53235       0
   53237   53238   53238       0   53240   53241   53241       0   53243   53244
   53244       0   53246   53247   53247       0   53249   53250   53250       0
   53252   53253   53253       0   53255   53256   53256       0   53258   53259
   53259       0   53261   53262   53262       0   53264   53265   53265       0
   53267   53268   53268       0   53270   53271   53271       0   53273   53274
   53274       0   53276   53277   53277       0   53279   53280   53280       0
   53282   53283   53283       0   53285   53286   53286       0   53288   53289
   53289       0   53291   53292   53292       0   53294   53295   53295       0
   53297   53298   53298       0   53300   53301   53301       0   53303   53304
   53304       0   53306   53307   53307       0   53309   53310   53310       0
   53312   53313   53313       0   53315   53316   53316       0   53318   53319
   53319       0   53321   53322   53322       0   53324   53325   53325       0
   53327   53328   53328       0   53330   53331   53331       0   53333   53334
   53334       0   53336   53337   53337       0   53339   53340   53340       0
   53342   53343   53343       0   53345   53346   53346       0   53348   53349
   53349       0   53351   53352   53352       0   53354   53355   53355       0
   53357   53358   53358       0   53360   53361   53361       0   53363   53364
   53364       0   53366   53367   53367       0   53369   53370   53370       0
   53372   53373   53373       0   53375   53376   53376       0   53378   53379
   53379       0   53381   53382   53382       0   53384   53385   53385       0
   53387   53388   53388       0   53390   53391   53391       0   53393   53394
   53394       0   53396   53397   53397       0   53399   53400   53400       0
   53402   53403   53403       0   53405   53406   53406       0   53408   53409
   53409       0   53411   53412   53412       0   53414   53415   53415       0
   53417   53418   53418       0   53420   53421   53421       0   53423   53424
   53424       0   53426   53427   53427       0   53429   53430   53430       0
   53432   53433   53433       0   53435   53436   53436       0   53438   53439
   53439       0   53441   53442   53442       0   53444   53445   53445       0
   53447   53448   53448       0   53450   53451   53451       0   53453   53454
   53454       0   53456   53457   53457       0   53459   53460   53460       0
   53462   53463   53463       0   53465   53466   53466       0   53468   53469
   53469       0   53471   53472   53472       0   53474   53475   53475       0
   53477   53478   53478       0   53480   53481   53481       0   53483   53484
   53484       0   53486   53487   53487       0   53489   53490   53490       0
   53492   53493   53493       0   53495   53496   53496       0   53498   53499
   53499       0   53501   53502   53502       0   53504   53505   53505       0
   53507   53508   53508       0   53510   53511   53511       0   53513   53514
   53514       0   53516   53517   53517       0   53519   53520   53520       0
   53522   53523   53523       0   53525   53526   53526       0   53528   53529
   53529       0   53531   53532   53532       0   53534   53535   53535       0
   53537   53538   53538       0   53540   53541   53541       0   53543   53544
   53544       0   53546   53547   53547       0   53549   53550   53550       0
   53552   53553   53553       0   53555   53556   53556       0   53558   53559
   53559       0   53561   53562   53562       0   53564   53565   53565       0
   53567   53568   53568       0   53570   53571   53571       0   53573   53574
   53574       0   53576   53577   53577       0   53579   53580   53580       0
   53582   53583   53583       0   53585   53586   53586       0   53588   53589
   53589       0   53591   53592   53592       0   53594   53595   53595       0
   53597   53598   53598       0   53600   53601   53601       0   53603   53604
   53604       0   53606   53607   53607       0   53609   53610   53610       0
   53612   53613   53613       0   53615   53616   53616       0   53618   53619
   53619       0   53621   53622   53622       0   53624   53625   53625       0
   53627   53628   53628       0   53630   53631   53631       0   53633   53634
   53634       0   53636   53637   53637       0   53639   53640   53640       0
   53642   53643   53643       0   53645   53646   53646       0   53648   53649
   53649       0   53651   53652   53652       0   53654   53655   53655       0
   53657   53658   53658       0   53660   53661   53661       0   53663   53664
   53664       0   53666   53667   53667       0   53669   53670   53670       0
   53672   53673   53673       0   53675   53676   53676       0   53678   53679
   53679       0   53681   53682   53682       0   53684   53685   53685       0
   53687   53688   53688       0   53690   53691   53691       0   53693   53694
   53694       0   53696   53697   53697       0   53699   53700   53700       0
   53702   53703   53703       0   53705   53706   53706       0   53708   53709
   53709       0   53711   53712   53712       0   53714   53715   53715       0
   53717   53718   53718       0   53720   53721   53721       0   53723   53724
   53724       0   53726   53727   53727       0   53729   53730   53730       0
   53732   53733   53733       0   53735   53736   53736       0   53738   53739
   53739       0   53741   53742   53742       0   53744   53745   53745       0
   53747   53748   53748       0   53750   53751   53751       0   53753   53754
   53754       0   53756   53757   53757       0   53759   53760   53760       0
   53762   53763   53763       0   53765   53766   53766       0   53768   53769
   53769       0   53771   53772   53772       0   53774   53775   53775       0
   53777   53778   53778       0   53780   53781   53781       0   53783   53784
   53784       0   53786   53787   53787       0   53789   53790   53790       0
   53792   53793   53793       0   53795   53796   53796       0   53798   53799
   53799       0   53801   53802   53802       0   53804   53805   53805       0
   53807   53808   53808       0   53810   53811   53811       0   53813   53814
   53814       0   53816   53817   53817       0   53819   53820   53820       0
   53822   53823   53823       0   53825   53826   53826       0   53828   53829
   53829       0   53831   53832   53832       0   53834   53835   53835       0
   53837   53838   53838       0   53840   53841   53841       0   53843   53844
   53844       0   53846   53847   53847       0   53849   53850   53850       0
   53852   53853   53853       0   53855   53856   53856       0   53858   53859
   53859       0   53861   53862   53862       0   53864   53865   53865       0
   53867   53868   53868       0   53870   53871   53871       0   53873   53874
   53874       0   53876   53877   53877       0   53879   53880   53880       0
   53882   53883   53883       0   53885   53886   53886       0   53888   53889
   53889       0   53891   53892   53892       0   53894   53895   53895       0
   53897   53898   53898       0   53900   53901   53901       0   53903   53904
   53904       0   53906   53907   53907       0   53909   53910   53910       0
   53912   53913   53913       0   53915   53916   53916       0   53918   53919
   53919       0   53921   53922   53922       0   53924   53925   53925       0
   53927   53928   53928       0   53930   53931   53931       0   53933   53934
   53934       0   53936   53937   53937       0   53939   53940   53940       0
   53942   53943   53943       0   53945   53946   53946       0   53948   53949
   53949       0   53951   53952   53952       0   53954   53955   53955       0
   53957   53958   53958       0   53960   53961   53961       0   53963   53964
   53964       0   53966   53967   53967       0   53969   53970   53970       0
   53972   53973   53973       0   53975   53976   53976       0   53978   53979
   53979       0   53981   53982   53982       0   53984   53985   53985       0
   53987   53988   53988       0   53990   53991   53991       0   53993   53994
   53994       0   53996   53997   53997       0   53999   54000   54000       0
   54002   54003   54003       0   54005   54006   54006       0   54008   54009
   54009       0   54011   54012   54012       0   54014   54015   54015       0
   54017   54018   54018       0   54020   54021   54021       0   54023   54024
   54024       0   54026   54027   54027       0   54029   54030   54030       0
   54032   54033   54033       0   54035   54036   54036       0   54038   54039
   54039       0   54041   54042   54042       0   54044   54045   54045       0
   54047   54048   54048       0   54050   54051   54051       0   54053   54054
   54054       0   54056   54057   54057       0   54059   54060   54060       0
   54062   54063   54063       0   54065   54066   54066       0   54068   54069
   54069       0   54071   54072   54072       0   54074   54075   54075       0
   54077   54078   54078       0   54080   54081   54081       0   54083   54084
   54084       0   54086   54087   54087       0   54089   54090   54090       0
   54092   54093   54093       0   54095   54096   54096       0   54098   54099
   54099       0   54101   54102   54102       0   54104   54105   54105       0
   54107   54108   54108       0   54110   54111   54111       0   54113   54114
   54114       0   54116   54117   54117       0   54119   54120   54120       0
   54122   54123   54123       0   54125   54126   54126       0   54128   54129
   54129       0   54131   54132   54132       0   54134   54135   54135       0
   54137   54138   54138       0   54140   54141   54141       0   54143   54144
   54144       0   54146   54147   54147       0   54149   54150   54150       0
   54152   54153   54153       0   54155   54156   54156       0   54158   54159
   54159       0   54161   54162   54162       0   54164   54165   54165       0
   54167   54168   54168       0   54170   54171   54171       0   54173   54174
   54174       0   54176   54177   54177       0   54179   54180   54180       0
   54182   54183   54183       0   54185   54186   54186       0   54188   54189
   54189       0   54191   54192   54192       0   54194   54195   54195       0
   54197   54198   54198       0   54200   54201   54201       0   54203   54204
   54204       0   54206   54207   54207       0   54209   54210   54210       0
   54212   54213   54213       0   54215   54216   54216       0   54218   54219
   54219       0   54221   54222   54222       0   54224   54225   54225       0
   54227   54228   54228       0   54230   54231   54231       0   54233   54234
   54234       0   54236   54237   54237       0   54239   54240   54240       0
   54242   54243   54243       0   54245   54246   54246       0   54248   54249
   54249       0   54251   54252   54252       0   54254   54255   54255       0
   54257   54258   54258       0   54260   54261   54261       0   54263   54264
   54264       0   54266   54267   54267       0   54269   54270   54270       0
   54272   54273   54273       0   54275   54276   54276       0   54278   54279
   54279       0   54281   54282   54282       0   54284   54285   54285       0
   54287   54288   54288       0   54290   54291   54291       0   54293   54294
   54294       0   54296   54297   54297       0   54299   54300   54300       0
   54302   54303   54303       0   54305   54306   54306       0   54308   54309
   54309       0   54311   54312   54312       0   54314   54315   54315       0
   54317   54318   54318       0   54320   54321   54321       0   54323   54324
   54324       0   54326   54327   54327       0   54329   54330   54330       0
   54332   54333   54333       0   54335   54336   54336       0   54338   54339
   54339       0   54341   54342   54342       0   54344   54345   54345       0
   54347   54348   54348       0   54350   54351   54351       0   54353   54354
   54354       0   54356   54357   54357       0   54359   54360   54360       0
   54362   54363   54363       0   54365   54366   54366       0   54368   54369
   54369       0   54371   54372   54372       0   54374   54375   54375       0
   54377   54378   54378       0   54380   54381   54381       0   54383   54384
   54384       0   54386   54387   54387       0   54389   54390   54390       0
   54392   54393   54393       0   54395   54396   54396       0   54398   54399
   54399       0   54401   54402   54402       0   54404   54405   54405       0
   54407   54408   54408       0   54410   54411   54411       0   54413   54414
   54414       0   54416   54417   54417       0   54419   54420   54420       0
   54422   54423   54423       0   54425   54426   54426       0   54428   54429
   54429       0   54431   54432   54432       0   54434   54435   54435       0
   54437   54438   54438       0   54440   54441   54441       0   54443   54444
   54444       0   54446   54447   54447       0   54449   54450   54450       0
   54452   54453   54453       0   54455   54456   54456       0   54458   54459
   54459       0   54461   54462   54462       0   54464   54465   54465       0
   54467   54468   54468       0   54470   54471   54471       0   54473   54474
   54474       0   54476   54477   54477       0   54479   54480   54480       0
   54482   54483   54483       0   54485   54486   54486       0   54488   54489
   54489       0   54491   54492   54492       0   54494   54495   54495       0
   54497   54498   54498       0   54500   54501   54501       0   54503   54504
   54504       0   54506   54507   54507       0   54509   54510   54510       0
   54512   54513   54513       0   54515   54516   54516       0   54518   54519
   54519       0   54521   54522   54522       0   54524   54525   54525       0
   54527   54528   54528       0   54530   54531   54531       0   54533   54534
   54534       0   54536   54537   54537       0   54539   54540   54540       0
   54542   54543   54543       0   54545   54546   54546       0   54548   54549
   54549       0   54551   54552   54552       0   54554   54555   54555       0
   54557   54558   54558       0   54560   54561   54561       0   54563   54564
   54564       0   54566   54567   54567       0   54569   54570   54570       0
   54572   54573   54573       0   54575   54576   54576       0   54578   54579
   54579       0   54581   54582   54582       0   54584   54585   54585       0
   54587   54588   54588       0   54590   54591   54591       0   54593   54594
   54594       0   54596   54597   54597       0   54599   54600   54600       0
   54602   54603   54603       0   54605   54606   54606       0   54608   54609
   54609       0   54611   54612   54612       0   54614   54615   54615       0
   54617   54618   54618       0   54620   54621   54621       0   54623   54624
   54624       0   54626   54627   54627       0   54629   54630   54630       0
   54632   54633   54633       0   54635   54636   54636       0   54638   54639
   54639       0   54641   54642   54642       0   54644   54645   54645       0
   54647   54648   54648       0   54650   54651   54651       0   54653   54654
   54654       0   54656   54657   54657       0   54659   54660   54660       0
   54662   54663   54663       0   54665   54666   54666       0   54668   54669
   54669       0   54671   54672   54672       0   54674   54675   54675       0
   54677   54678   54678       0   54680   54681   54681       0   54683   54684
   54684       0   54686   54687   54687       0   54689   54690   54690       0
   54692   54693   54693       0   54695   54696   54696       0   54698   54699
   54699       0   54701   54702   54702       0   54704   54705   54705       0
   54707   54708   54708       0   54710   54711   54711       0   54713   54714
   54714       0   54716   54717   54717       0   54719   54720   54720       0
   54722   54723   54723       0   54725   54726   54726       0   54728   54729
   54729       0   54731   54732   54732       0   54734   54735   54735       0
   54737   54738   54738       0   54740   54741   54741       0   54743   54744
   54744       0   54746   54747   54747       0   54749   54750   54750       0
   54752   54753   54753       0   54755   54756   54756       0   54758   54759
   54759       0   54761   54762   54762       0   54764   54765   54765       0
   54767   54768   54768       0   54770   54771   54771       0   54773   54774
   54774       0   54776   54777   54777       0   54779   54780   54780       0
   54782   54783   54783       0   54785   54786   54786       0   54788   54789
   54789       0   54791   54792   54792       0   54794   54795   54795       0
   54797   54798   54798       0   54800   54801   54801       0   54803   54804
   54804       0   54806   54807   54807       0   54809   54810   54810       0
   54812   54813   54813       0   54815   54816   54816       0   54818   54819
   54819       0   54821   54822   54822       0   54824   54825   54825       0
   54827   54828   54828       0   54830   54831   54831       0   54833   54834
   54834       0   54836   54837   54837       0   54839   54840   54840       0
   54842   54843   54843       0   54845   54846   54846       0   54848   54849
   54849       0   54851   54852   54852       0   54854   54855   54855       0
   54857   54858   54858       0   54860   54861   54861       0   54863   54864
   54864       0   54866   54867   54867       0   54869   54870   54870       0
   54872   54873   54873       0   54875   54876   54876       0   54878   54879
   54879       0   54881   54882   54882       0   54884   54885   54885       0
   54887   54888   54888       0   54890   54891   54891       0   54893   54894
   54894       0   54896   54897   54897       0   54899   54900   54900       0
   54902   54903   54903       0   54905   54906   54906       0   54908   54909
   54909       0   54911   54912   54912       0   54914   54915   54915       0
   54917   54918   54918       0   54920   54921   54921       0   54923   54924
   54924       0   54926   54927   54927       0   54929   54930   54930       0
   54932   54933   54933       0   54935   54936   54936       0   54938   54939
   54939       0   54941   54942   54942       0   54944   54945   54945       0
   54947   54948   54948       0   54950   54951   54951       0   54953   54954
   54954       0   54956   54957   54957       0   54959   54960   54960       0
   54962   54963   54963       0   54965   54966   54966       0   54968   54969
   54969       0   54971   54972   54972       0   54974   54975   54975       0
   54977   54978   54978       0   54980   54981   54981       0   54983   54984
   54984       0   54986   54987   54987       0   54989   54990   54990       0
   54992   54993   54993       0   54995   54996   54996       0   54998   54999
   54999       0   55001   55002   55002       0   55004   55005   55005       0
   55007   55008   55008       0   55010   55011   55011       0   55013   55014
   55014       0   55016   55017   55017       0   55019   55020   55020       0
   55022   55023   55023       0   55025   55026   55026       0   55028   55029
   55029       0   55031   55032   55032       0   55034   55035   55035       0
   55037   55038   55038       0   55040   55041   55041       0   55043   55044
   55044       0   55046   55047   55047       0   55049   55050   55050       0
   55052   55053   55053       0   55055   55056   55056       0   55058   55059
   55059       0   55061   55062   55062       0   55064   55065   55065       0
   55067   55068   55068       0   55070   55071   55071       0   55073   55074
   55074       0   55076   55077   55077       0   55079   55080   55080       0
   55082   55083   55083       0   55085   55086   55086       0   55088   55089
   55089       0   55091   55092   55092       0   55094   55095   55095       0
   55097   55098   55098       0   55100   55101   55101       0   55103   55104
   55104       0   55106   55107   55107       0   55109   55110   55110       0
   55112   55113   55113       0   55115   55116   55116       0   55118   55119
   55119       0   55121   55122   55122       0   55124   55125   55125       0
   55127   55128   55128       0   55130   55131   55131       0   55133   55134
   55134       0   55136   55137   55137       0   55139   55140   55140       0
   55142   55143   55143       0   55145   55146   55146       0   55148   55149
   55149       0   55151   55152   55152       0   55154   55155   55155       0
   55157   55158   55158       0   55160   55161   55161       0   55163   55164
   55164       0   55166   55167   55167       0   55169   55170   55170       0
   55172   55173   55173       0   55175   55176   55176       0   55178   55179
   55179       0   55181   55182   55182       0   55184   55185   55185       0
   55187   55188   55188       0   55190   55191   55191       0   55193   55194
   55194       0   55196   55197   55197       0   55199   55200   55200       0
   55202   55203   55203       0   55205   55206   55206       0   55208   55209
   55209       0   55211   55212   55212       0   55214   55215   55215       0
   55217   55218   55218       0   55220   55221   55221       0   55223   55224
   55224       0   55226   55227   55227       0   55229   55230   55230       0
   55232   55233   55233       0   55235   55236   55236       0   55238   55239
   55239       0   55241   55242   55242       0   55244   55245   55245       0
   55247   55248   55248       0   55250   55251   55251       0   55253   55254
   55254       0   55256   55257   55257       0   55259   55260   55260       0
   55262   55263   55263       0   55265   55266   55266       0   55268   55269
   55269       0   55271   55272   55272       0   55274   55275   55275       0
   55277   55278   55278       0   55280   55281   55281       0   55283   55284
   55284       0   55286   55287   55287       0   55289   55290   55290       0
   55292   55293   55293       0   55295   55296   55296       0   55298   55299
   55299       0   55301   55302   55302       0   55304   55305   55305       0
   55307   55308   55308       0   55310   55311   55311       0   55313   55314
   55314       0   55316   55317   55317       0   55319   55320   55320       0
   55322   55323   55323       0   55325   55326   55326       0   55328   55329
   55329       0   55331   55332   55332       0   55334   55335   55335       0
   55337   55338   55338       0   55340   55341   55341       0   55343   55344
   55344       0   55346   55347   55347       0   55349   55350   55350       0
   55352   55353   55353       0   55355   55356   55356       0   55358   55359
   55359       0   55361   55362   55362       0   55364   55365   55365       0
   55367   55368   55368       0   55370   55371   55371       0   55373   55374
   55374       0   55376   55377   55377       0   55379   55380   55380       0
   55382   55383   55383       0   55385   55386   55386       0   55388   55389
   55389       0   55391   55392   55392       0   55394   55395   55395       0
   55397   55398   55398       0   55400   55401   55401       0   55403   55404
   55404       0   55406   55407   55407       0   55409   55410   55410       0
   55412   55413   55413       0   55415   55416   55416       0   55418   55419
   55419       0   55421   55422   55422       0   55424   55425   55425       0
   55427   55428   55428       0   55430   55431   55431       0   55433   55434
   55434       0   55436   55437   55437       0   55439   55440   55440       0
   55442   55443   55443       0   55445   55446   55446       0   55448   55449
   55449       0   55451   55452   55452       0   55454   55455   55455       0
   55457   55458   55458       0   55460   55461   55461       0   55463   55464
   55464       0   55466   55467   55467       0   55469   55470   55470       0
   55472   55473   55473       0   55475   55476   55476       0   55478   55479
   55479       0   55481   55482   55482       0   55484   55485   55485       0
   55487   55488   55488       0   55490   55491   55491       0   55493   55494
   55494       0   55496   55497   55497       0   55499   55500   55500       0
   55502   55503   55503       0   55505   55506   55506       0   55508   55509
   55509       0   55511   55512   55512       0   55514   55515   55515       0
   55517   55518   55518       0   55520   55521   55521       0   55523   55524
   55524       0   55526   55527   55527       0   55529   55530   55530       0
   55532   55533   55533       0   55535   55536   55536       0   55538   55539
   55539       0   55541   55542   55542       0   55544   55545   55545       0
   55547   55548   55548       0   55550   55551   55551       0   55553   55554
   55554       0   55556   55557   55557       0   55559   55560   55560       0
   55562   55563   55563       0   55565   55566   55566       0   55568   55569
   55569       0   55571   55572   55572       0   55574   55575   55575       0
   55577   55578   55578       0   55580   55581   55581       0   55583   55584
   55584       0   55586   55587   55587       0   55589   55590   55590       0
   55592   55593   55593       0   55595   55596   55596       0   55598   55599
   55599       0   55601   55602   55602       0   55604   55605   55605       0
   55607   55608   55608       0   55610   55611   55611       0   55613   55614
   55614       0   55616   55617   55617       0   55619   55620   55620       0
   55622   55623   55623       0   55625   55626   55626       0   55628   55629
   55629       0   55631   55632   55632       0   55634   55635   55635       0
   55637   55638   55638       0   55640   55641   55641       0   55643   55644
   55644       0   55646   55647   55647       0   55649   55650   55650       0
   55652   55653   55653       0   55655   55656   55656       0   55658   55659
   55659       0   55661   55662   55662       0   55664   55665   55665       0
   55667   55668   55668       0   55670   55671   55671       0   55673   55674
   55674       0   55676   55677   55677       0   55679   55680   55680       0
   55682   55683   55683       0   55685   55686   55686       0   55688   55689
   55689       0   55691   55692   55692       0   55694   55695   55695       0
   55697   55698   55698       0   55700   55701   55701       0   55703   55704
   55704       0   55706   55707   55707       0   55709   55710   55710       0
   55712   55713   55713       0   55715   55716   55716       0   55718   55719
   55719       0   55721   55722   55722       0   55724   55725   55725       0
   55727   55728   55728       0   55730   55731   55731       0   55733   55734
   55734       0   55736   55737   55737       0   55739   55740   55740       0
   55742   55743   55743       0   55745   55746   55746       0   55748   55749
   55749       0   55751   55752   55752       0   55754   55755   55755       0
   55757   55758   55758       0   55760   55761   55761       0   55763   55764
   55764       0   55766   55767   55767       0   55769   55770   55770       0
   55772   55773   55773       0   55775   55776   55776       0   55778   55779
   55779       0   55781   55782   55782       0   55784   55785   55785       0
   55787   55788   55788       0   55790   55791   55791       0   55793   55794
   55794       0   55796   55797   55797       0   55799   55800   55800       0
   55802   55803   55803       0   55805   55806   55806       0   55808   55809
   55809       0   55811   55812   55812       0   55814   55815   55815       0
   55817   55818   55818       0   55820   55821   55821       0   55823   55824
   55824       0   55826   55827   55827       0   55829   55830   55830       0
   55832   55833   55833       0   55835   55836   55836       0   55838   55839
   55839       0   55841   55842   55842       0   55844   55845   55845       0
   55847   55848   55848       0   55850   55851   55851       0   55853   55854
   55854       0   55856   55857   55857       0   55859   55860   55860       0
   55862   55863   55863       0   55865   55866   55866       0   55868   55869
   55869       0   55871   55872   55872       0   55874   55875   55875       0
   55877   55878   55878       0   55880   55881   55881       0   55883   55884
   55884       0   55886   55887   55887       0   55889   55890   55890       0
   55892   55893   55893       0   55895   55896   55896       0   55898   55899
   55899       0   55901   55902   55902       0   55904   55905   55905       0
   55907   55908   55908       0   55910   55911   55911       0   55913   55914
   55914       0   55916   55917   55917       0   55919   55920   55920       0
   55922   55923   55923       0   55925   55926   55926       0   55928   55929
   55929       0   55931   55932   55932       0   55934   55935   55935       0
   55937   55938   55938       0   55940   55941   55941       0   55943   55944
   55944       0   55946   55947   55947       0   55949   55950   55950       0
   55952   55953   55953       0   55955   55956   55956       0   55958   55959
   55959       0   55961   55962   55962       0   55964   55965   55965       0
   55967   55968   55968       0   55970   55971   55971       0   55973   55974
   55974       0   55976   55977   55977       0   55979   55980   55980       0
   55982   55983   55983       0   55985   55986   55986       0   55988   55989
   55989       0   55991   55992   55992       0   55994   55995   55995       0
   55997   55998   55998       0   56000   56001   56001       0   56003   56004
   56004       0   56006   56007   56007       0   56009   56010   56010       0
   56012   56013   56013       0   56015   56016   56016       0   56018   56019
   56019       0   56021   56022   56022       0   56024   56025   56025       0
   56027   56028   56028       0   56030   56031   56031       0   56033   56034
   56034       0   56036   56037   56037       0   56039   56040   56040       0
   56042   56043   56043       0   56045   56046   56046       0   56048   56049
   56049       0   56051   56052   56052       0   56054   56055   56055       0
   56057   56058   56058       0   56060   56061   56061       0   56063   56064
   56064       0   56066   56067   56067       0   56069   56070   56070       0
   56072   56073   56073       0   56075   56076   56076       0   56078   56079
   56079       0   56081   56082   56082       0   56084   56085   56085       0
   56087   56088   56088       0   56090   56091   56091       0   56093   56094
   56094       0   56096   56097   56097       0   56099   56100   56100       0
   56102   56103   56103       0   56105   56106   56106       0   56108   56109
   56109       0   56111   56112   56112       0   56114   56115   56115       0
   56117   56118   56118       0   56120   56121   56121       0   56123   56124
   56124       0   56126   56127   56127       0   56129   56130   56130       0
   56132   56133   56133       0   56135   56136   56136       0   56138   56139
   56139       0   56141   56142   56142       0   56144   56145   56145       0
   56147   56148   56148       0   56150   56151   56151       0   56153   56154
   56154       0   56156   56157   56157       0   56159   56160   56160       0
   56162   56163   56163       0   56165   56166   56166       0   56168   56169
   56169       0   56171   56172   56172       0   56174   56175   56175       0
   56177   56178   56178       0   56180   56181   56181       0   56183   56184
   56184       0   56186   56187   56187       0   56189   56190   56190       0
   56192   56193   56193       0   56195   56196   56196       0   56198   56199
   56199       0   56201   56202   56202       0   56204   56205   56205       0
   56207   56208   56208       0   56210   56211   56211       0   56213   56214
   56214       0   56216   56217   56217       0   56219   56220   56220       0
   56222   56223   56223       0   56225   56226   56226       0   56228   56229
   56229       0   56231   56232   56232       0   56234   56235   56235       0
   56237   56238   56238       0   56240   56241   56241       0   56243   56244
   56244       0   56246   56247   56247       0   56249   56250   56250       0
   56252   56253   56253       0   56255   56256   56256       0   56258   56259
   56259       0   56261   56262   56262       0   56264   56265   56265       0
   56267   56268   56268       0   56270   56271   56271       0   56273   56274
   56274       0   56276   56277   56277       0   56279   56280   56280       0
   56282   56283   56283       0   56285   56286   56286       0   56288   56289
   56289       0   56291   56292   56292       0   56294   56295   56295       0
   56297   56298   56298       0   56300   56301   56301       0   56303   56304
   56304       0   56306   56307   56307       0   56309   56310   56310       0
   56312   56313   56313       0   56315   56316   56316       0   56318   56319
   56319       0   56321   56322   56322       0   56324   56325   56325       0
   56327   56328   56328       0   56330   56331   56331       0   56333   56334
   56334       0   56336   56337   56337       0   56339   56340   56340       0
   56342   56343   56343       0   56345   56346   56346       0   56348   56349
   56349       0   56351   56352   56352       0   56354   56355   56355       0
   56357   56358   56358       0   56360   56361   56361       0   56363   56364
   56364       0   56366   56367   56367       0   56369   56370   56370       0
   56372   56373   56373       0   56375   56376   56376       0   56378   56379
   56379       0   56381   56382   56382       0   56384   56385   56385       0
   56387   56388   56388       0   56390   56391   56391       0   56393   56394
   56394       0   56396   56397   56397       0   56399   56400   56400       0
   56402   56403   56403       0   56405   56406   56406       0   56408   56409
   56409       0   56411   56412   56412       0   56414   56415   56415       0
   56417   56418   56418       0   56420   56421   56421       0   56423   56424
   56424       0   56426   56427   56427       0   56429   56430   56430       0
   56432   56433   56433       0   56435   56436   56436       0   56438   56439
   56439       0   56441   56442   56442       0   56444   56445   56445       0
   56447   56448   56448       0   56450   56451   56451       0   56453   56454
   56454       0   56456   56457   56457       0   56459   56460   56460       0
   56462   56463   56463       0   56465   56466   56466       0   56468   56469
   56469       0   56471   56472   56472       0   56474   56475   56475       0
   56477   56478   56478       0   56480   56481   56481       0   56483   56484
   56484       0   56486   56487   56487       0   56489   56490   56490       0
   56492   56493   56493       0   56495   56496   56496       0   56498   56499
   56499       0   56501   56502   56502       0   56504   56505   56505       0
   56507   56508   56508       0   56510   56511   56511       0   56513   56514
   56514       0   56516   56517   56517       0   56519   56520   56520       0
   56522   56523   56523       0   56525   56526   56526       0   56528   56529
   56529       0   56531   56532   56532       0   56534   56535   56535       0
   56537   56538   56538       0   56540   56541   56541       0   56543   56544
   56544       0   56546   56547   56547       0   56549   56550   56550       0
   56552   56553   56553       0   56555   56556   56556       0   56558   56559
   56559       0   56561   56562   56562       0   56564   56565   56565       0
   56567   56568   56568       0   56570   56571   56571       0   56573   56574
   56574       0   56576   56577   56577       0   56579   56580   56580       0
   56582   56583   56583       0   56585   56586   56586       0   56588   56589
   56589       0   56591   56592   56592       0   56594   56595   56595       0
   56597   56598   56598       0   56600   56601   56601       0   56603   56604
   56604       0   56606   56607   56607       0   56609   56610   56610       0
   56612   56613   56613       0   56615   56616   56616       0   56618   56619
   56619       0   56621   56622   56622       0   56624   56625   56625       0
   56627   56628   56628       0   56630   56631   56631       0   56633   56634
   56634       0   56636   56637   56637       0   56639   56640   56640       0
   56642   56643   56643       0   56645   56646   56646       0   56648   56649
   56649       0   56651   56652   56652       0   56654   56655   56655       0
   56657   56658   56658       0   56660   56661   56661       0   56663   56664
   56664       0   56666   56667   56667       0   56669   56670   56670       0
   56672   56673   56673       0   56675   56676   56676       0   56678   56679
   56679       0   56681   56682   56682       0   56684   56685   56685       0
   56687   56688   56688       0   56690   56691   56691       0   56693   56694
   56694       0   56696   56697   56697       0   56699   56700   56700       0
   56702   56703   56703       0   56705   56706   56706       0   56708   56709
   56709       0   56711   56712   56712       0   56714   56715   56715       0
   56717   56718   56718       0   56720   56721   56721       0   56723   56724
   56724       0   56726   56727   56727       0   56729   56730   56730       0
   56732   56733   56733       0   56735   56736   56736       0   56738   56739
   56739       0   56741   56742   56742       0   56744   56745   56745       0
   56747   56748   56748       0   56750   56751   56751       0   56753   56754
   56754       0   56756   56757   56757       0   56759   56760   56760       0
   56762   56763   56763       0   56765   56766   56766       0   56768   56769
   56769       0   56771   56772   56772       0   56774   56775   56775       0
   56777   56778   56778       0   56780   56781   56781       0   56783   56784
   56784       0   56786   56787   56787       0   56789   56790   56790       0
   56792   56793   56793       0   56795   56796   56796       0   56798   56799
   56799       0   56801   56802   56802       0   56804   56805   56805       0
   56807   56808   56808       0   56810   56811   56811       0   56813   56814
   56814       0   56816   56817   56817       0   56819   56820   56820       0
   56822   56823   56823       0   56825   56826   56826       0   56828   56829
   56829       0   56831   56832   56832       0   56834   56835   56835       0
   56837   56838   56838       0   56840   56841   56841       0   56843   56844
   56844       0   56846   56847   56847       0   56849   56850   56850       0
   56852   56853   56853       0   56855   56856   56856       0   56858   56859
   56859       0   56861   56862   56862       0   56864   56865   56865       0
   56867   56868   56868       0   56870   56871   56871       0   56873   56874
   56874       0   56876   56877   56877       0   56879   56880   56880       0
   56882   56883   56883       0   56885   56886   56886       0   56888   56889
   56889       0   56891   56892   56892       0   56894   56895   56895       0
   56897   56898   56898       0   56900   56901   56901       0   56903   56904
   56904       0   56906   56907   56907       0   56909   56910   56910       0
   56912   56913   56913       0   56915   56916   56916       0   56918   56919
   56919       0   56921   56922   56922       0   56924   56925   56925       0
   56927   56928   56928       0   56930   56931   56931       0   56933   56934
   56934       0   56936   56937   56937       0   56939   56940   56940       0
   56942   56943   56943       0   56945   56946   56946       0   56948   56949
   56949       0   56951   56952   56952       0   56954   56955   56955       0
   56957   56958   56958       0   56960   56961   56961       0   56963   56964
   56964       0   56966   56967   56967       0   56969   56970   56970       0
   56972   56973   56973       0   56975   56976   56976       0   56978   56979
   56979       0   56981   56982   56982       0   56984   56985   56985       0
   56987   56988   56988       0   56990   56991   56991       0   56993   56994
   56994       0   56996   56997   56997       0   56999   57000   57000       0
   57002   57003   57003       0   57005   57006   57006       0   57008   57009
   57009       0   57011   57012   57012       0   57014   57015   57015       0
   57017   57018   57018       0   57020   57021   57021       0   57023   57024
   57024       0   57026   57027   57027       0   57029   57030   57030       0
   57032   57033   57033       0   57035   57036   57036       0   57038   57039
   57039       0   57041   57042   57042       0   57044   57045   57045       0
   57047   57048   57048       0   57050   57051   57051       0   57053   57054
   57054       0   57056   57057   57057       0   57059   57060   57060       0
   57062   57063   57063       0   57065   57066   57066       0   57068   57069
   57069       0   57071   57072   57072       0   57074   57075   57075       0
   57077   57078   57078       0   57080   57081   57081       0   57083   57084
   57084       0   57086   57087   57087       0   57089   57090   57090       0
   57092   57093   57093       0   57095   57096   57096       0   57098   57099
   57099       0   57101   57102   57102       0   57104   57105   57105       0
   57107   57108   57108       0   57110   57111   57111       0   57113   57114
   57114       0   57116   57117   57117       0   57119   57120   57120       0
   57122   57123   57123       0   57125   57126   57126       0   57128   57129
   57129       0   57131   57132   57132       0   57134   57135   57135       0
   57137   57138   57138       0   57140   57141   57141       0   57143   57144
   57144       0   57146   57147   57147       0   57149   57150   57150       0
   57152   57153   57153       0   57155   57156   57156       0   57158   57159
   57159       0   57161   57162   57162       0   57164   57165   57165       0
   57167   57168   57168       0   57170   57171   57171       0   57173   57174
   57174       0   57176   57177   57177       0   57179   57180   57180       0
   57182   57183   57183       0   57185   57186   57186       0   57188   57189
   57189       0   57191   57192   57192       0   57194   57195   57195       0
   57197   57198   57198       0   57200   57201   57201       0   57203   57204
   57204       0   57206   57207   57207       0   57209   57210   57210       0
   57212   57213   57213       0   57215   57216   57216       0   57218   57219
   57219       0   57221   57222   57222       0   57224   57225   57225       0
   57227   57228   57228       0   57230   57231   57231       0   57233   57234
   57234       0   57236   57237   57237       0   57239   57240   57240       0
   57242   57243   57243       0   57245   57246   57246       0   57248   57249
   57249       0   57251   57252   57252       0   57254   57255   57255       0
   57257   57258   57258       0   57260   57261   57261       0   57263   57264
   57264       0   57266   57267   57267       0   57269   57270   57270       0
   57272   57273   57273       0   57275   57276   57276       0   57278   57279
   57279       0   57281   57282   57282       0   57284   57285   57285       0
   57287   57288   57288       0   57290   57291   57291       0   57293   57294
   57294       0   57296   57297   57297       0   57299   57300   57300       0
   57302   57303   57303       0   57305   57306   57306       0   57308   57309
   57309       0   57311   57312   57312       0   57314   57315   57315       0
   57317   57318   57318       0   57320   57321   57321       0   57323   57324
   57324       0   57326   57327   57327       0   57329   57330   57330       0
   57332   57333   57333       0   57335   57336   57336       0   57338   57339
   57339       0   57341   57342   57342       0   57344   57345   57345       0
   57347   57348   57348       0   57350   57351   57351       0   57353   57354
   57354       0   57356   57357   57357       0   57359   57360   57360       0
   57362   57363   57363       0   57365   57366   57366       0   57368   57369
   57369       0   57371   57372   57372       0   57374   57375   57375       0
   57377   57378   57378       0   57380   57381   57381       0   57383   57384
   57384       0   57386   57387   57387       0   57389   57390   57390       0
   57392   57393   57393       0   57395   57396   57396       0   57398   57399
   57399       0   57401   57402   57402       0   57404   57405   57405       0
   57407   57408   57408       0   57410   57411   57411       0   57413   57414
   57414       0   57416   57417   57417       0   57419   57420   57420       0
   57422   57423   57423       0   57425   57426   57426       0   57428   57429
   57429       0   57431   57432   57432       0   57434   57435   57435       0
   57437   57438   57438       0   57440   57441   57441       0   57443   57444
   57444       0   57446   57447   57447       0   57449   57450   57450       0
   57452   57453   57453       0   57455   57456   57456       0   57458   57459
   57459       0   57461   57462   57462       0   57464   57465   57465       0
   57467   57468   57468       0   57470   57471   57471       0   57473   57474
   57474       0   57476   57477   57477       0   57479   57480   57480       0
   57482   57483   57483       0   57485   57486   57486       0   57488   57489
   57489       0   57491   57492   57492       0   57494   57495   57495       0
   57497   57498   57498       0   57500   57501   57501       0   57503   57504
   57504       0   57506   57507   57507       0   57509   57510   57510       0
   57512   57513   57513       0   57515   57516   57516       0   57518   57519
   57519       0   57521   57522   57522       0   57524   57525   57525       0
   57527   57528   57528       0   57530   57531   57531       0   57533   57534
   57534       0   57536   57537   57537       0   57539   57540   57540       0
   57542   57543   57543       0   57545   57546   57546       0   57548   57549
   57549       0   57551   57552   57552       0   57554   57555   57555       0
   57557   57558   57558       0   57560   57561   57561       0   57563   57564
   57564       0   57566   57567   57567       0   57569   57570   57570       0
   57572   57573   57573       0   57575   57576   57576       0   57578   57579
   57579       0   57581   57582   57582       0   57584   57585   57585       0
   57587   57588   57588       0   57590   57591   57591       0   57593   57594
   57594       0   57596   57597   57597       0   57599   57600   57600       0
   57602   57603   57603       0   57605   57606   57606       0   57608   57609
   57609       0   57611   57612   57612       0   57614   57615   57615       0
   57617   57618   57618       0   57620   57621   57621       0   57623   57624
   57624       0   57626   57627   57627       0   57629   57630   57630       0
   57632   57633   57633       0   57635   57636   57636       0   57638   57639
   57639       0   57641   57642   57642       0   57644   57645   57645       0
   57647   57648   57648       0   57650   57651   57651       0   57653   57654
   57654       0   57656   57657   57657       0   57659   57660   57660       0
   57662   57663   57663       0   57665   57666   57666       0   57668   57669
   57669       0   57671   57672   57672       0   57674   57675   57675       0
   57677   57678   57678       0   57680   57681   57681       0   57683   57684
   57684       0   57686   57687   57687       0   57689   57690   57690       0
   57692   57693   57693       0   57695   57696   57696       0   57698   57699
   57699       0   57701   57702   57702       0   57704   57705   57705       0
   57707   57708   57708       0   57710   57711   57711       0   57713   57714
   57714       0   57716   57717   57717       0   57719   57720   57720       0
   57722   57723   57723       0   57725   57726   57726       0   57728   57729
   57729       0   57731   57732   57732       0   57734   57735   57735       0
   57737   57738   57738       0   57740   57741   57741       0   57743   57744
   57744       0   57746   57747   57747       0   57749   57750   57750       0
   57752   57753   57753       0   57755   57756   57756       0   57758   57759
   57759       0   57761   57762   57762       0   57764   57765   57765       0
   57767   57768   57768       0   57770   57771   57771       0   57773   57774
   57774       0   57776   57777   57777       0   57779   57780   57780       0
   57782   57783   57783       0   57785   57786   57786       0   57788   57789
   57789       0   57791   57792   57792       0   57794   57795   57795       0
   57797   57798   57798       0   57800   57801   57801       0   57803   57804
   57804       0   57806   57807   57807       0   57809   57810   57810       0
   57812   57813   57813       0   57815   57816   57816       0   57818   57819
   57819       0   57821   57822   57822       0   57824   57825   57825       0
   57827   57828   57828       0   57830   57831   57831       0   57833   57834
   57834       0   57836   57837   57837       0   57839   57840   57840       0
   57842   57843   57843       0   57845   57846   57846       0   57848   57849
   57849       0   57851   57852   57852       0   57854   57855   57855       0
   57857   57858   57858       0   57860   57861   57861       0   57863   57864
   57864       0   57866   57867   57867       0   57869   57870   57870       0
   57872   57873   57873       0   57875   57876   57876       0   57878   57879
   57879       0   57881   57882   57882       0   57884   57885   57885       0
   57887   57888   57888       0   57890   57891   57891       0   57893   57894
   57894       0   57896   57897   57897       0   57899   57900   57900       0
   57902   57903   57903       0   57905   57906   57906       0   57908   57909
   57909       0   57911   57912   57912       0   57914   57915   57915       0
   57917   57918   57918       0   57920   57921   57921       0   57923   57924
   57924       0   57926   57927   57927       0   57929   57930   57930       0
   57932   57933   57933       0   57935   57936   57936       0   57938   57939
   57939       0   57941   57942   57942       0   57944   57945   57945       0
   57947   57948   57948       0   57950   57951   57951       0   57953   57954
   57954       0   57956   57957   57957       0   57959   57960   57960       0
   57962   57963   57963       0   57965   57966   57966       0   57968   57969
   57969       0   57971   57972   57972       0   57974   57975   57975       0
   57977   57978   57978       0   57980   57981   57981       0   57983   57984
   57984       0   57986   57987   57987       0   57989   57990   57990       0
   57992   57993   57993       0   57995   57996   57996       0   57998   57999
   57999       0   58001   58002   58002       0   58004   58005   58005       0
   58007   58008   58008       0   58010   58011   58011       0   58013   58014
   58014       0   58016   58017   58017       0   58019   58020   58020       0
   58022   58023   58023       0   58025   58026   58026       0   58028   58029
   58029       0   58031   58032   58032       0   58034   58035   58035       0
   58037   58038   58038       0   58040   58041   58041       0   58043   58044
   58044       0   58046   58047   58047       0   58049   58050   58050       0
   58052   58053   58053       0   58055   58056   58056       0   58058   58059
   58059       0   58061   58062   58062       0   58064   58065   58065       0
   58067   58068   58068       0   58070   58071   58071       0   58073   58074
   58074       0   58076   58077   58077       0   58079   58080   58080       0
   58082   58083   58083       0   58085   58086   58086       0   58088   58089
   58089       0   58091   58092   58092       0   58094   58095   58095       0
   58097   58098   58098       0   58100   58101   58101       0   58103   58104
   58104       0   58106   58107   58107       0   58109   58110   58110       0
   58112   58113   58113       0   58115   58116   58116       0   58118   58119
   58119       0   58121   58122   58122       0   58124   58125   58125       0
   58127   58128   58128       0   58130   58131   58131       0   58133   58134
   58134       0   58136   58137   58137       0   58139   58140   58140       0
   58142   58143   58143       0   58145   58146   58146       0   58148   58149
   58149       0   58151   58152   58152       0   58154   58155   58155       0
   58157   58158   58158       0   58160   58161   58161       0   58163   58164
   58164       0   58166   58167   58167       0   58169   58170   58170       0
   58172   58173   58173       0   58175   58176   58176       0   58178   58179
   58179       0   58181   58182   58182       0   58184   58185   58185       0
   58187   58188   58188       0   58190   58191   58191       0   58193   58194
   58194       0   58196   58197   58197       0   58199   58200   58200       0
   58202   58203   58203       0   58205   58206   58206       0   58208   58209
   58209       0   58211   58212   58212       0   58214   58215   58215       0
   58217   58218   58218       0   58220   58221   58221       0   58223   58224
   58224       0   58226   58227   58227       0   58229   58230   58230       0
   58232   58233   58233       0   58235   58236   58236       0   58238   58239
   58239       0   58241   58242   58242       0   58244   58245   58245       0
   58247   58248   58248       0   58250   58251   58251       0   58253   58254
   58254       0   58256   58257   58257       0   58259   58260   58260       0
   58262   58263   58263       0   58265   58266   58266       0   58268   58269
   58269       0   58271   58272   58272       0   58274   58275   58275       0
   58277   58278   58278       0   58280   58281   58281       0   58283   58284
   58284       0   58286   58287   58287       0   58289   58290   58290       0
   58292   58293   58293       0   58295   58296   58296       0   58298   58299
   58299       0   58301   58302   58302       0   58304   58305   58305       0
   58307   58308   58308       0   58310   58311   58311       0   58313   58314
   58314       0   58316   58317   58317       0   58319   58320   58320       0
   58322   58323   58323       0   58325   58326   58326       0   58328   58329
   58329       0   58331   58332   58332       0   58334   58335   58335       0
   58337   58338   58338       0   58340   58341   58341       0   58343   58344
   58344       0   58346   58347   58347       0   58349   58350   58350       0
   58352   58353   58353       0   58355   58356   58356       0   58358   58359
   58359       0   58361   58362   58362       0   58364   58365   58365       0
   58367   58368   58368       0   58370   58371   58371       0   58373   58374
   58374       0   58376   58377   58377       0   58379   58380   58380       0
   58382   58383   58383       0   58385   58386   58386       0   58388   58389
   58389       0   58391   58392   58392       0   58394   58395   58395       0
   58397   58398   58398       0   58400   58401   58401       0   58403   58404
   58404       0   58406   58407   58407       0   58409   58410   58410       0
   58412   58413   58413       0   58415   58416   58416       0   58418   58419
   58419       0   58421   58422   58422       0   58424   58425   58425       0
   58427   58428   58428       0   58430   58431   58431       0   58433   58434
   58434       0   58436   58437   58437       0   58439   58440   58440       0
   58442   58443   58443       0   58445   58446   58446       0   58448   58449
   58449       0   58451   58452   58452       0   58454   58455   58455       0
   58457   58458   58458       0   58460   58461   58461       0   58463   58464
   58464       0   58466   58467   58467       0   58469   58470   58470       0
   58472   58473   58473       0   58475   58476   58476       0   58478   58479
   58479       0   58481   58482   58482       0   58484   58485   58485       0
   58487   58488   58488       0   58490   58491   58491       0   58493   58494
   58494       0   58496   58497   58497       0   58499   58500   58500       0
   58502   58503   58503       0   58505   58506   58506       0   58508   58509
   58509       0   58511   58512   58512       0   58514   58515   58515       0
   58517   58518   58518       0   58520   58521   58521       0   58523   58524
   58524       0   58526   58527   58527       0   58529   58530   58530       0
   58532   58533   58533       0   58535   58536   58536       0   58538   58539
   58539       0   58541   58542   58542       0   58544   58545   58545       0
   58547   58548   58548       0   58550   58551   58551       0   58553   58554
   58554       0   58556   58557   58557       0   58559   58560   58560       0
   58562   58563   58563       0   58565   58566   58566       0   58568   58569
   58569       0   58571   58572   58572       0   58574   58575   58575       0
   58577   58578   58578       0   58580   58581   58581       0   58583   58584
   58584       0   58586   58587   58587       0   58589   58590   58590       0
   58592   58593   58593       0   58595   58596   58596       0   58598   58599
   58599       0   58601   58602   58602       0   58604   58605   58605       0
   58607   58608   58608       0   58610   58611   58611       0   58613   58614
   58614       0   58616   58617   58617       0   58619   58620   58620       0
   58622   58623   58623       0   58625   58626   58626       0   58628   58629
   58629       0   58631   58632   58632       0   58634   58635   58635       0
   58637   58638   58638       0   58640   58641   58641       0   58643   58644
   58644       0   58646   58647   58647       0   58649   58650   58650       0
   58652   58653   58653       0   58655   58656   58656       0   58658   58659
   58659       0   58661   58662   58662       0   58664   58665   58665       0
   58667   58668   58668       0   58670   58671   58671       0   58673   58674
   58674       0   58676   58677   58677       0   58679   58680   58680       0
   58682   58683   58683       0   58685   58686   58686       0   58688   58689
   58689       0   58691   58692   58692       0   58694   58695   58695       0
   58697   58698   58698       0   58700   58701   58701       0   58703   58704
   58704       0   58706   58707   58707       0   58709   58710   58710       0
   58712   58713   58713       0   58715   58716   58716       0   58718   58719
   58719       0   58721   58722   58722       0   58724   58725   58725       0
   58727   58728   58728       0   58730   58731   58731       0   58733   58734
   58734       0   58736   58737   58737       0   58739   58740   58740       0
   58742   58743   58743       0   58745   58746   58746       0   58748   58749
   58749       0   58751   58752   58752       0   58754   58755   58755       0
   58757   58758   58758       0   58760   58761   58761       0   58763   58764
   58764       0   58766   58767   58767       0   58769   58770   58770       0
   58772   58773   58773       0   58775   58776   58776       0   58778   58779
   58779       0   58781   58782   58782       0   58784   58785   58785       0
   58787   58788   58788       0   58790   58791   58791       0   58793   58794
   58794       0   58796   58797   58797       0   58799   58800   58800       0
   58802   58803   58803       0   58805   58806   58806       0   58808   58809
   58809       0   58811   58812   58812       0   58814   58815   58815       0
   58817   58818   58818       0   58820   58821   58821       0   58823   58824
   58824       0   58826   58827   58827       0   58829   58830   58830       0
   58832   58833   58833       0   58835   58836   58836       0   58838   58839
   58839       0   58841   58842   58842       0   58844   58845   58845       0
   58847   58848   58848       0   58850   58851   58851       0   58853   58854
   58854       0   58856   58857   58857       0   58859   58860   58860       0
   58862   58863   58863       0   58865   58866   58866       0   58868   58869
   58869       0   58871   58872   58872       0   58874   58875   58875       0
   58877   58878   58878       0   58880   58881   58881       0   58883   58884
   58884       0   58886   58887   58887       0   58889   58890   58890       0
   58892   58893   58893       0   58895   58896   58896       0   58898   58899
   58899       0   58901   58902   58902       0   58904   58905   58905       0
   58907   58908   58908       0   58910   58911   58911       0   58913   58914
   58914       0   58916   58917   58917       0   58919   58920   58920       0
   58922   58923   58923       0   58925   58926   58926       0   58928   58929
   58929       0   58931   58932   58932       0   58934   58935   58935       0
   58937   58938   58938       0   58940   58941   58941       0   58943   58944
   58944       0   58946   58947   58947       0   58949   58950   58950       0
   58952   58953   58953       0   58955   58956   58956       0   58958   58959
   58959       0   58961   58962   58962       0   58964   58965   58965       0
   58967   58968   58968       0   58970   58971   58971       0   58973   58974
   58974       0   58976   58977   58977       0   58979   58980   58980       0
   58982   58983   58983       0   58985   58986   58986       0   58988   58989
   58989       0   58991   58992   58992       0   58994   58995   58995       0
   58997   58998   58998       0   59000   59001   59001       0   59003   59004
   59004       0   59006   59007   59007       0   59009   59010   59010       0
   59012   59013   59013       0   59015   59016   59016       0   59018   59019
   59019       0   59021   59022   59022       0   59024   59025   59025       0
   59027   59028   59028       0   59030   59031   59031       0   59033   59034
   59034       0   59036   59037   59037       0   59039   59040   59040       0
   59042   59043   59043       0   59045   59046   59046       0   59048   59049
   59049       0   59051   59052   59052       0   59054   59055   59055       0
   59057   59058   59058       0   59060   59061   59061       0   59063   59064
   59064       0   59066   59067   59067       0   59069   59070   59070       0
   59072   59073   59073       0   59075   59076   59076       0   59078   59079
   59079       0   59081   59082   59082       0   59084   59085   59085       0
   59087   59088   59088       0   59090   59091   59091       0   59093   59094
   59094       0   59096   59097   59097       0   59099   59100   59100       0
   59102   59103   59103       0   59105   59106   59106       0   59108   59109
   59109       0   59111   59112   59112       0   59114   59115   59115       0
   59117   59118   59118       0   59120   59121   59121       0   59123   59124
   59124       0   59126   59127   59127       0   59129   59130   59130       0
   59132   59133   59133       0   59135   59136   59136       0   59138   59139
   59139       0   59141   59142   59142       0   59144   59145   59145       0
   59147   59148   59148       0   59150   59151   59151       0   59153   59154
   59154       0   59156   59157   59157       0   59159   59160   59160       0
   59162   59163   59163       0   59165   59166   59166       0   59168   59169
   59169       0   59171   59172   59172       0   59174   59175   59175       0
   59177   59178   59178       0   59180   59181   59181       0   59183   59184
   59184       0   59186   59187   59187       0   59189   59190   59190       0
   59192   59193   59193       0   59195   59196   59196       0   59198   59199
   59199       0   59201   59202   59202       0   59204   59205   59205       0
   59207   59208   59208       0   59210   59211   59211       0   59213   59214
   59214       0   59216   59217   59217       0   59219   59220   59220       0
   59222   59223   59223       0   59225   59226   59226       0   59228   59229
   59229       0   59231   59232   59232       0   59234   59235   59235       0
   59237   59238   59238       0   59240   59241   59241       0   59243   59244
   59244       0   59246   59247   59247       0   59249   59250   59250       0
   59252   59253   59253       0   59255   59256   59256       0   59258   59259
   59259       0   59261   59262   59262       0   59264   59265   59265       0
   59267   59268   59268       0   59270   59271   59271       0   59273   59274
   59274       0   59276   59277   59277       0   59279   59280   59280       0
   59282   59283   59283       0   59285   59286   59286       0   59288   59289
   59289       0   59291   59292   59292       0   59294   59295   59295       0
   59297   59298   59298       0   59300   59301   59301       0   59303   59304
   59304       0   59306   59307   59307       0   59309   59310   59310       0
   59312   59313   59313       0   59315   59316   59316       0   59318   59319
   59319       0   59321   59322   59322       0   59324   59325   59325       0
   59327   59328   59328       0   59330   59331   59331       0   59333   59334
   59334       0   59336   59337   59337       0   59339   59340   59340       0
   59342   59343   59343       0   59345   59346   59346       0   59348   59349
   59349       0   59351   59352   59352       0   59354   59355   59355       0
   59357   59358   59358       0   59360   59361   59361       0   59363   59364
   59364       0   59366   59367   59367       0   59369   59370   59370       0
   59372   59373   59373       0   59375   59376   59376       0   59378   59379
   59379       0   59381   59382   59382       0   59384   59385   59385       0
   59387   59388   59388       0   59390   59391   59391       0   59393   59394
   59394       0   59396   59397   59397       0   59399   59400   59400       0
   59402   59403   59403       0   59405   59406   59406       0   59408   59409
   59409       0   59411   59412   59412       0   59414   59415   59415       0
   59417   59418   59418       0   59420   59421   59421       0   59423   59424
   59424       0   59426   59427   59427       0   59429   59430   59430       0
   59432   59433   59433       0   59435   59436   59436       0   59438   59439
   59439       0   59441   59442   59442       0   59444   59445   59445       0
   59447   59448   59448       0   59450   59451   59451       0   59453   59454
   59454       0   59456   59457   59457       0   59459   59460   59460       0
   59462   59463   59463       0   59465   59466   59466       0   59468   59469
   59469       0   59471   59472   59472       0   59474   59475   59475       0
   59477   59478   59478       0   59480   59481   59481       0   59483   59484
   59484       0   59486   59487   59487       0   59489   59490   59490       0
   59492   59493   59493       0   59495   59496   59496       0   59498   59499
   59499       0   59501   59502   59502       0   59504   59505   59505       0
   59507   59508   59508       0   59510   59511   59511       0   59513   59514
   59514       0   59516   59517   59517       0   59519   59520   59520       0
   59522   59523   59523       0   59525   59526   59526       0   59528   59529
   59529       0   59531   59532   59532       0   59534   59535   59535       0
   59537   59538   59538       0   59540   59541   59541       0   59543   59544
   59544       0   59546   59547   59547       0   59549   59550   59550       0
   59552   59553   59553       0   59555   59556   59556       0   59558   59559
   59559       0   59561   59562   59562       0   59564   59565   59565       0
   59567   59568   59568       0   59570   59571   59571       0   59573   59574
   59574       0   59576   59577   59577       0   59579   59580   59580       0
   59582   59583   59583       0   59585   59586   59586       0   59588   59589
   59589       0   59591   59592   59592       0   59594   59595   59595       0
   59597   59598   59598       0   59600   59601   59601       0   59603   59604
   59604       0   59606   59607   59607       0   59609   59610   59610       0
   59612   59613   59613       0   59615   59616   59616       0   59618   59619
   59619       0   59621   59622   59622       0   59624   59625   59625       0
   59627   59628   59628       0   59630   59631   59631       0   59633   59634
   59634       0   59636   59637   59637       0   59639   59640   59640       0
   59642   59643   59643       0   59645   59646   59646       0   59648   59649
   59649       0   59651   59652   59652       0   59654   59655   59655       0
   59657   59658   59658       0   59660   59661   59661       0   59663   59664
   59664       0   59666   59667   59667       0   59669   59670   59670       0
   59672   59673   59673       0   59675   59676   59676       0   59678   59679
   59679       0   59681   59682   59682       0   59684   59685   59685       0
   59687   59688   59688       0   59690   59691   59691       0   59693   59694
   59694       0   59696   59697   59697       0   59699   59700   59700       0
   59702   59703   59703       0   59705   59706   59706       0   59708   59709
   59709       0   59711   59712   59712       0   59714   59715   59715       0
   59717   59718   59718       0   59720   59721   59721       0   59723   59724
   59724       0   59726   59727   59727       0   59729   59730   59730       0
   59732   59733   59733       0   59735   59736   59736       0   59738   59739
   59739       0   59741   59742   59742       0   59744   59745   59745       0
   59747   59748   59748       0   59750   59751   59751       0   59753   59754
   59754       0   59756   59757   59757       0   59759   59760   59760       0
   59762   59763   59763       0   59765   59766   59766       0   59768   59769
   59769       0   59771   59772   59772       0   59774   59775   59775       0
   59777   59778   59778       0   59780   59781   59781       0   59783   59784
   59784       0   59786   59787   59787       0   59789   59790   59790       0
   59792   59793   59793       0   59795   59796   59796       0   59798   59799
   59799       0   59801   59802   59802       0   59804   59805   59805       0
   59807   59808   59808       0   59810   59811   59811       0   59813   59814
   59814       0   59816   59817   59817       0   59819   59820   59820       0
   59822   59823   59823       0   59825   59826   59826       0   59828   59829
   59829       0   59831   59832   59832       0   59834   59835   59835       0
   59837   59838   59838       0   59840   59841   59841       0   59843   59844
   59844       0   59846   59847   59847       0   59849   59850   59850       0
   59852   59853   59853       0   59855   59856   59856       0   59858   59859
   59859       0   59861   59862   59862       0   59864   59865   59865       0
   59867   59868   59868       0   59870   59871   59871       0   59873   59874
   59874       0   59876   59877   59877       0   59879   59880   59880       0
   59882   59883   59883       0   59885   59886   59886       0   59888   59889
   59889       0   59891   59892   59892       0   59894   59895   59895       0
   59897   59898   59898       0   59900   59901   59901       0   59903   59904
   59904       0   59906   59907   59907       0   59909   59910   59910       0
   59912   59913   59913       0   59915   59916   59916       0   59918   59919
   59919       0   59921   59922   59922       0   59924   59925   59925       0
   59927   59928   59928       0   59930   59931   59931       0   59933   59934
   59934       0   59936   59937   59937       0   59939   59940   59940       0
   59942   59943   59943       0   59945   59946   59946       0   59948   59949
   59949       0   59951   59952   59952       0   59954   59955   59955       0
   59957   59958   59958       0   59960   59961   59961       0   59963   59964
   59964       0   59966   59967   59967       0   59969   59970   59970       0
   59972   59973   59973       0   59975   59976   59976       0   59978   59979
   59979       0   59981   59982   59982       0   59984   59985   59985       0
   59987   59988   59988       0   59990   59991   59991       0   59993   59994
   59994       0   59996   59997   59997       0   59999   60000   60000       0
   60002   60003   60003       0   60005   60006   60006       0   60008   60009
   60009       0   60011   60012   60012       0   60014   60015   60015       0
   60017   60018   60018       0   60020   60021   60021       0   60023   60024
   60024       0   60026   60027   60027       0   60029   60030   60030       0
   60032   60033   60033       0   60035   60036   60036       0   60038   60039
   60039       0   60041   60042   60042       0   60044   60045   60045       0
   60047   60048   60048       0   60050   60051   60051       0   60053   60054
   60054       0   60056   60057   60057       0   60059   60060   60060       0
   60062   60063   60063       0   60065   60066   60066       0   60068   60069
   60069       0   60071   60072   60072       0   60074   60075   60075       0
   60077   60078   60078       0   60080   60081   60081       0   60083   60084
   60084       0   60086   60087   60087       0   60089   60090   60090       0
   60092   60093   60093       0   60095   60096   60096       0   60098   60099
   60099       0   60101   60102   60102       0   60104   60105   60105       0
   60107   60108   60108       0   60110   60111   60111       0   60113   60114
   60114       0   60116   60117   60117       0   60119   60120   60120       0
   60122   60123   60123       0   60125   60126   60126       0   60128   60129
   60129       0   60131   60132   60132       0   60134   60135   60135       0
   60137   60138   60138       0   60140   60141   60141       0   60143   60144
   60144       0   60146   60147   60147       0   60149   60150   60150       0
   60152   60153   60153       0   60155   60156   60156       0   60158   60159
   60159       0   60161   60162   60162       0   60164   60165   60165       0
   60167   60168   60168       0   60170   60171   60171       0   60173   60174
   60174       0   60176   60177   60177       0   60179   60180   60180       0
   60182   60183   60183       0   60185   60186   60186       0   60188   60189
   60189       0   60191   60192   60192       0   60194   60195   60195       0
   60197   60198   60198       0   60200   60201   60201       0   60203   60204
   60204       0   60206   60207   60207       0   60209   60210   60210       0
   60212   60213   60213       0   60215   60216   60216       0   60218   60219
   60219       0   60221   60222   60222       0   60224   60225   60225       0
   60227   60228   60228       0   60230   60231   60231       0   60233   60234
   60234       0   60236   60237   60237       0   60239   60240   60240       0
   60242   60243   60243       0   60245   60246   60246       0   60248   60249
   60249       0   60251   60252   60252       0   60254   60255   60255       0
   60257   60258   60258       0   60260   60261   60261       0   60263   60264
   60264       0   60266   60267   60267       0   60269   60270   60270       0
   60272   60273   60273       0   60275   60276   60276       0   60278   60279
   60279       0   60281   60282   60282       0   60284   60285   60285       0
   60287   60288   60288       0   60290   60291   60291       0   60293   60294
   60294       0   60296   60297   60297       0   60299   60300   60300       0
   60302   60303   60303       0   60305   60306   60306       0   60308   60309
   60309       0   60311   60312   60312       0   60314   60315   60315       0
   60317   60318   60318       0   60320   60321   60321       0   60323   60324
   60324       0   60326   60327   60327       0   60329   60330   60330       0
   60332   60333   60333       0   60335   60336   60336       0   60338   60339
   60339       0   60341   60342   60342       0   60344   60345   60345       0
   60347   60348   60348       0   60350   60351   60351       0   60353   60354
   60354       0   60356   60357   60357       0   60359   60360   60360       0
   60362   60363   60363       0   60365   60366   60366       0   60368   60369
   60369       0   60371   60372   60372       0   60374   60375   60375       0
   60377   60378   60378       0   60380   60381   60381       0   60383   60384
   60384       0   60386   60387   60387       0   60389   60390   60390       0
   60392   60393   60393       0   60395   60396   60396       0   60398   60399
   60399       0   60401   60402   60402       0   60404   60405   60405       0
   60407   60408   60408       0   60410   60411   60411       0   60413   60414
   60414       0   60416   60417   60417       0   60419   60420   60420       0
   60422   60423   60423       0   60425   60426   60426       0   60428   60429
   60429       0   60431   60432   60432       0   60434   60435   60435       0
   60437   60438   60438       0   60440   60441   60441       0   60443   60444
   60444       0   60446   60447   60447       0   60449   60450   60450       0
   60452   60453   60453       0   60455   60456   60456       0   60458   60459
   60459       0   60461   60462   60462       0   60464   60465   60465       0
   60467   60468   60468       0   60470   60471   60471       0   60473   60474
   60474       0   60476   60477   60477       0   60479   60480   60480       0
   60482   60483   60483       0   60485   60486   60486       0   60488   60489
   60489       0   60491   60492   60492       0   60494   60495   60495       0
   60497   60498   60498       0   60500   60501   60501       0   60503   60504
   60504       0   60506   60507   60507       0   60509   60510   60510       0
   60512   60513   60513       0   60515   60516   60516       0   60518   60519
   60519       0   60521   60522   60522       0   60524   60525   60525       0
   60527   60528   60528       0   60530   60531   60531       0   60533   60534
   60534       0   60536   60537   60537       0   60539   60540   60540       0
   60542   60543   60543       0   60545   60546   60546       0   60548   60549
   60549       0   60551   60552   60552       0   60554   60555   60555       0
   60557   60558   60558       0   60560   60561   60561       0   60563   60564
   60564       0   60566   60567   60567       0   60569   60570   60570       0
   60572   60573   60573       0   60575   60576   60576       0   60578   60579
   60579       0   60581   60582   60582       0   60584   60585   60585       0
   60587   60588   60588       0   60590   60591   60591       0   60593   60594
   60594       0   60596   60597   60597       0   60599   60600   60600       0
   60602   60603   60603       0   60605   60606   60606       0   60608   60609
   60609       0   60611   60612   60612       0   60614   60615   60615       0
   60617   60618   60618       0   60620   60621   60621       0   60623   60624
   60624       0   60626   60627   60627       0   60629   60630   60630       0
   60632   60633   60633       0   60635   60636   60636       0   60638   60639
   60639       0   60641   60642   60642       0   60644   60645   60645       0
   60647   60648   60648       0   60650   60651   60651       0   60653   60654
   60654       0   60656   60657   60657       0   60659   60660   60660       0
   60662   60663   60663       0   60665   60666   60666       0   60668   60669
   60669       0   60671   60672   60672       0   60674   60675   60675       0
   60677   60678   60678       0   60680   60681   60681       0   60683   60684
   60684       0   60686   60687   60687       0   60689   60690   60690       0
   60692   60693   60693       0   60695   60696   60696       0   60698   60699
   60699       0   60701   60702   60702       0   60704   60705   60705       0
   60707   60708   60708       0   60710   60711   60711       0   60713   60714
   60714       0   60716   60717   60717       0   60719   60720   60720       0
   60722   60723   60723       0   60725   60726   60726       0   60728   60729
   60729       0   60731   60732   60732       0   60734   60735   60735       0
   60737   60738   60738       0   60740   60741   60741       0   60743   60744
   60744       0   60746   60747   60747       0   60749   60750   60750       0
   60752   60753   60753       0   60755   60756   60756       0   60758   60759
   60759       0   60761   60762   60762       0   60764   60765   60765       0
   60767   60768   60768       0   60770   60771   60771       0   60773   60774
   60774       0   60776   60777   60777       0   60779   60780   60780       0
   60782   60783   60783       0   60785   60786   60786       0   60788   60789
   60789       0   60791   60792   60792       0   60794   60795   60795       0
   60797   60798   60798       0   60800   60801   60801       0   60803   60804
   60804       0   60806   60807   60807       0   60809   60810   60810       0
   60812   60813   60813       0   60815   60816   60816       0   60818   60819
   60819       0   60821   60822   60822       0   60824   60825   60825       0
   60827   60828   60828       0   60830   60831   60831       0   60833   60834
   60834       0   60836   60837   60837       0   60839   60840   60840       0
   60842   60843   60843       0   60845   60846   60846       0   60848   60849
   60849       0   60851   60852   60852       0   60854   60855   60855       0
   60857   60858   60858       0   60860   60861   60861       0   60863   60864
   60864       0   60866   60867   60867       0   60869   60870   60870       0
   60872   60873   60873       0   60875   60876   60876       0   60878   60879
   60879       0   60881   60882   60882       0   60884   60885   60885       0
   60887   60888   60888       0   60890   60891   60891       0   60893   60894
   60894       0   60896   60897   60897       0   60899   60900   60900       0
   60902   60903   60903       0   60905   60906   60906       0   60908   60909
   60909       0   60911   60912   60912       0   60914   60915   60915       0
   60917   60918   60918       0   60920   60921   60921       0   60923   60924
   60924       0   60926   60927   60927       0   60929   60930   60930       0
   60932   60933   60933       0   60935   60936   60936       0   60938   60939
   60939       0   60941   60942   60942       0   60944   60945   60945       0
   60947   60948   60948       0   60950   60951   60951       0   60953   60954
   60954       0   60956   60957   60957       0   60959   60960   60960       0
   60962   60963   60963       0   60965   60966   60966       0   60968   60969
   60969       0   60971   60972   60972       0   60974   60975   60975       0
   60977   60978   60978       0   60980   60981   60981       0   60983   60984
   60984       0   60986   60987   60987       0   60989   60990   60990       0
   60992   60993   60993       0   60995   60996   60996       0   60998   60999
   60999       0   61001   61002   61002       0   61004   61005   61005       0
   61007   61008   61008       0   61010   61011   61011       0   61013   61014
   61014       0   61016   61017   61017       0   61019   61020   61020       0
   61022   61023   61023       0   61025   61026   61026       0   61028   61029
   61029       0   61031   61032   61032       0   61034   61035   61035       0
   61037   61038   61038       0   61040   61041   61041       0   61043   61044
   61044       0   61046   61047   61047       0   61049   61050   61050       0
   61052   61053   61053       0   61055   61056   61056       0   61058   61059
   61059       0   61061   61062   61062       0   61064   61065   61065       0
   61067   61068   61068       0   61070   61071   61071       0   61073   61074
   61074       0   61076   61077   61077       0   61079   61080   61080       0
   61082   61083   61083       0   61085   61086   61086       0   61088   61089
   61089       0   61091   61092   61092       0   61094   61095   61095       0
   61097   61098   61098       0   61100   61101   61101       0   61103   61104
   61104       0   61106   61107   61107       0   61109   61110   61110       0
   61112   61113   61113       0   61115   61116   61116       0   61118   61119
   61119       0   61121   61122   61122       0   61124   61125   61125       0
   61127   61128   61128       0   61130   61131   61131       0   61133   61134
   61134       0   61136   61137   61137       0   61139   61140   61140       0
   61142   61143   61143       0   61145   61146   61146       0   61148   61149
   61149       0   61151   61152   61152       0   61154   61155   61155       0
   61157   61158   61158       0   61160   61161   61161       0   61163   61164
   61164       0   61166   61167   61167       0   61169   61170   61170       0
   61172   61173   61173       0   61175   61176   61176       0   61178   61179
   61179       0   61181   61182   61182       0   61184   61185   61185       0
   61187   61188   61188       0   61190   61191   61191       0   61193   61194
   61194       0   61196   61197   61197       0   61199   61200   61200       0
   61202   61203   61203       0   61205   61206   61206       0   61208   61209
   61209       0   61211   61212   61212       0   61214   61215   61215       0
   61217   61218   61218       0   61220   61221   61221       0   61223   61224
   61224       0   61226   61227   61227       0   61229   61230   61230       0
   61232   61233   61233       0   61235   61236   61236       0   61238   61239
   61239       0   61241   61242   61242       0   61244   61245   61245       0
   61247   61248   61248       0   61250   61251   61251       0   61253   61254
   61254       0   61256   61257   61257       0   61259   61260   61260       0
   61262   61263   61263       0   61265   61266   61266       0   61268   61269
   61269       0   61271   61272   61272       0   61274   61275   61275       0
   61277   61278   61278       0   61280   61281   61281       0   61283   61284
   61284       0   61286   61287   61287       0   61289   61290   61290       0
   61292   61293   61293       0   61295   61296   61296       0   61298   61299
   61299       0   61301   61302   61302       0   61304   61305   61305       0
   61307   61308   61308       0   61310   61311   61311       0   61313   61314
   61314       0   61316   61317   61317       0   61319   61320   61320       0
   61322   61323   61323       0   61325   61326   61326       0   61328   61329
   61329       0   61331   61332   61332       0   61334   61335   61335       0
   61337   61338   61338       0   61340   61341   61341       0   61343   61344
   61344       0   61346   61347   61347       0   61349   61350   61350       0
   61352   61353   61353       0   61355   61356   61356       0   61358   61359
   61359       0   61361   61362   61362       0   61364   61365   61365       0
   61367   61368   61368       0   61370   61371   61371       0   61373   61374
   61374       0   61376   61377   61377       0   61379   61380   61380       0
   61382   61383   61383       0   61385   61386   61386       0   61388   61389
   61389       0   61391   61392   61392       0   61394   61395   61395       0
   61397   61398   61398       0   61400   61401   61401       0   61403   61404
   61404       0   61406   61407   61407       0   61409   61410   61410       0
   61412   61413   61413       0   61415   61416   61416       0   61418   61419
   61419       0   61421   61422   61422       0   61424   61425   61425       0
   61427   61428   61428       0   61430   61431   61431       0   61433   61434
   61434       0   61436   61437   61437       0   61439   61440   61440       0
   61442   61443   61443       0   61445   61446   61446       0   61448   61449
   61449       0   61451   61452   61452       0   61454   61455   61455       0
   61457   61458   61458       0   61460   61461   61461       0   61463   61464
   61464       0   61466   61467   61467       0   61469   61470   61470       0
   61472   61473   61473       0   61475   61476   61476       0   61478   61479
   61479       0   61481   61482   61482       0   61484   61485   61485       0
   61487   61488   61488       0   61490   61491   61491       0   61493   61494
   61494       0   61496   61497   61497       0   61499   61500   61500       0
   61502   61503   61503       0   61505   61506   61506       0   61508   61509
   61509       0   61511   61512   61512       0   61514   61515   61515       0
   61517   61518   61518       0   61520   61521   61521       0   61523   61524
   61524       0   61526   61527   61527       0   61529   61530   61530       0
   61532   61533   61533       0   61535   61536   61536       0   61538   61539
   61539       0   61541   61542   61542       0   61544   61545   61545       0
   61547   61548   61548       0   61550   61551   61551       0   61553   61554
   61554       0   61556   61557   61557       0   61559   61560   61560       0
   61562   61563   61563       0   61565   61566   61566       0   61568   61569
   61569       0   61571   61572   61572       0   61574   61575   61575       0
   61577   61578   61578       0   61580   61581   61581       0   61583   61584
   61584       0   61586   61587   61587       0   61589   61590   61590       0
   61592   61593   61593       0   61595   61596   61596       0   61598   61599
   61599       0   61601   61602   61602       0   61604   61605   61605       0
   61607   61608   61608       0   61610   61611   61611       0   61613   61614
   61614       0   61616   61617   61617       0   61619   61620   61620       0
   61622   61623   61623       0   61625   61626   61626       0   61628   61629
   61629       0   61631   61632   61632       0   61634   61635   61635       0
   61637   61638   61638       0   61640   61641   61641       0   61643   61644
   61644       0   61646   61647   61647       0   61649   61650   61650       0
   61652   61653   61653       0   61655   61656   61656       0   61658   61659
   61659       0   61661   61662   61662       0   61664   61665   61665       0
   61667   61668   61668       0   61670   61671   61671       0   61673   61674
   61674       0   61676   61677   61677       0   61679   61680   61680       0
   61682   61683   61683       0   61685   61686   61686       0   61688   61689
   61689       0   61691   61692   61692       0   61694   61695   61695       0
   61697   61698   61698       0   61700   61701   61701       0   61703   61704
   61704       0   61706   61707   61707       0   61709   61710   61710       0
   61712   61713   61713       0   61715   61716   61716       0   61718   61719
   61719       0   61721   61722   61722       0   61724   61725   61725       0
   61727   61728   61728       0   61730   61731   61731       0   61733   61734
   61734       0   61736   61737   61737       0   61739   61740   61740       0
   61742   61743   61743       0   61745   61746   61746       0   61748   61749
   61749       0   61751   61752   61752       0   61754   61755   61755       0
   61757   61758   61758       0   61760   61761   61761       0   61763   61764
   61764       0   61766   61767   61767       0   61769   61770   61770       0
   61772   61773   61773       0   61775   61776   61776       0   61778   61779
   61779       0   61781   61782   61782       0   61784   61785   61785       0
   61787   61788   61788       0   61790   61791   61791       0   61793   61794
   61794       0   61796   61797   61797       0   61799   61800   61800       0
   61802   61803   61803       0   61805   61806   61806       0   61808   61809
   61809       0   61811   61812   61812       0   61814   61815   61815       0
   61817   61818   61818       0   61820   61821   61821       0   61823   61824
   61824       0   61826   61827   61827       0   61829   61830   61830       0
   61832   61833   61833       0   61835   61836   61836       0   61838   61839
   61839       0   61841   61842   61842       0   61844   61845   61845       0
   61847   61848   61848       0   61850   61851   61851       0   61853   61854
   61854       0   61856   61857   61857       0   61859   61860   61860       0
   61862   61863   61863       0   61865   61866   61866       0   61868   61869
   61869       0   61871   61872   61872       0   61874   61875   61875       0
   61877   61878   61878       0   61880   61881   61881       0   61883   61884
   61884       0   61886   61887   61887       0   61889   61890   61890       0
   61892   61893   61893       0   61895   61896   61896       0   61898   61899
   61899       0   61901   61902   61902       0   61904   61905   61905       0
   61907   61908   61908       0   61910   61911   61911       0   61913   61914
   61914       0   61916   61917   61917       0   61919   61920   61920       0
   61922   61923   61923       0   61925   61926   61926       0   61928   61929
   61929       0   61931   61932   61932       0   61934   61935   61935       0
   61937   61938   61938       0   61940   61941   61941       0   61943   61944
   61944       0   61946   61947   61947       0   61949   61950   61950       0
   61952   61953   61953       0   61955   61956   61956       0   61958   61959
   61959       0   61961   61962   61962       0   61964   61965   61965       0
   61967   61968   61968       0   61970   61971   61971       0   61973   61974
   61974       0   61976   61977   61977       0   61979   61980   61980       0
   61982   61983   61983       0   61985   61986   61986       0   61988   61989
   61989       0   61991   61992   61992       0   61994   61995   61995       0
   61997   61998   61998       0   62000   62001   62001       0   62003   62004
   62004       0   62006   62007   62007       0   62009   62010   62010       0
   62012   62013   62013       0   62015   62016   62016       0   62018   62019
   62019       0   62021   62022   62022       0   62024   62025   62025       0
   62027   62028   62028       0   62030   62031   62031       0   62033   62034
   62034       0   62036   62037   62037       0   62039   62040   62040       0
   62042   62043   62043       0   62045   62046   62046       0   62048   62049
   62049       0   62051   62052   62052       0   62054   62055   62055       0
   62057   62058   62058       0   62060   62061   62061       0   62063   62064
   62064       0   62066   62067   62067       0   62069   62070   62070       0
   62072   62073   62073       0   62075   62076   62076       0   62078   62079
   62079       0   62081   62082   62082       0   62084   62085   62085       0
   62087   62088   62088       0   62090   62091   62091       0   62093   62094
   62094       0   62096   62097   62097       0   62099   62100   62100       0
   62102   62103   62103       0   62105   62106   62106       0   62108   62109
   62109       0   62111   62112   62112       0   62114   62115   62115       0
   62117   62118   62118       0   62120   62121   62121       0   62123   62124
   62124       0   62126   62127   62127       0   62129   62130   62130       0
   62132   62133   62133       0   62135   62136   62136       0   62138   62139
   62139       0   62141   62142   62142       0   62144   62145   62145       0
   62147   62148   62148       0   62150   62151   62151       0   62153   62154
   62154       0   62156   62157   62157       0   62159   62160   62160       0
   62162   62163   62163       0   62165   62166   62166       0   62168   62169
   62169       0   62171   62172   62172       0   62174   62175   62175       0
   62177   62178   62178       0   62180   62181   62181       0   62183   62184
   62184       0   62186   62187   62187       0   62189   62190   62190       0
   62192   62193   62193       0   62195   62196   62196       0   62198   62199
   62199       0   62201   62202   62202       0   62204   62205   62205       0
   62207   62208   62208       0   62210   62211   62211       0   62213   62214
   62214       0   62216   62217   62217       0   62219   62220   62220       0
   62222   62223   62223       0   62225   62226   62226       0   62228   62229
   62229       0   62231   62232   62232       0   62234   62235   62235       0
   62237   62238   62238       0   62240   62241   62241       0   62243   62244
   62244       0   62246   62247   62247       0   62249   62250   62250       0
   62252   62253   62253       0   62255   62256   62256       0   62258   62259
   62259       0   62261   62262   62262       0   62264   62265   62265       0
   62267   62268   62268       0   62270   62271   62271       0   62273   62274
   62274       0   62276   62277   62277       0   62279   62280   62280       0
   62282   62283   62283       0   62285   62286   62286       0   62288   62289
   62289       0   62291   62292   62292       0   62294   62295   62295       0
   62297   62298   62298       0   62300   62301   62301       0   62303   62304
   62304       0   62306   62307   62307       0   62309   62310   62310       0
   62312   62313   62313       0   62315   62316   62316       0   62318   62319
   62319       0   62321   62322   62322       0   62324   62325   62325       0
   62327   62328   62328       0   62330   62331   62331       0   62333   62334
   62334       0   62336   62337   62337       0   62339   62340   62340       0
   62342   62343   62343       0   62345   62346   62346       0   62348   62349
   62349       0   62351   62352   62352       0   62354   62355   62355       0
   62357   62358   62358       0   62360   62361   62361       0   62363   62364
   62364       0   62366   62367   62367       0   62369   62370   62370       0
   62372   62373   62373       0   62375   62376   62376       0   62378   62379
   62379       0   62381   62382   62382       0   62384   62385   62385       0
   62387   62388   62388       0   62390   62391   62391       0   62393   62394
   62394       0   62396   62397   62397       0   62399   62400   62400       0
   62402   62403   62403       0   62405   62406   62406       0   62408   62409
   62409       0   62411   62412   62412       0   62414   62415   62415       0
   62417   62418   62418       0   62420   62421   62421       0   62423   62424
   62424       0   62426   62427   62427       0   62429   62430   62430       0
   62432   62433   62433       0   62435   62436   62436       0   62438   62439
   62439       0   62441   62442   62442       0   62444   62445   62445       0
   62447   62448   62448       0   62450   62451   62451       0   62453   62454
   62454       0   62456   62457   62457       0   62459   62460   62460       0
   62462   62463   62463       0   62465   62466   62466       0   62468   62469
   62469       0   62471   62472   62472       0   62474   62475   62475       0
   62477   62478   62478       0   62480   62481   62481       0   62483   62484
   62484       0   62486   62487   62487       0   62489   62490   62490       0
   62492   62493   62493       0   62495   62496   62496       0   62498   62499
   62499       0   62501   62502   62502       0   62504   62505   62505       0
   62507   62508   62508       0   62510   62511   62511       0   62513   62514
   62514       0   62516   62517   62517       0   62519   62520   62520       0
   62522   62523   62523       0   62525   62526   62526       0   62528   62529
   62529       0   62531   62532   62532       0   62534   62535   62535       0
   62537   62538   62538       0   62540   62541   62541       0   62543   62544
   62544       0   62546   62547   62547       0   62549   62550   62550       0
   62552   62553   62553       0   62555   62556   62556       0   62558   62559
   62559       0   62561   62562   62562       0   62564   62565   62565       0
   62567   62568   62568       0   62570   62571   62571       0   62573   62574
   62574       0   62576   62577   62577       0   62579   62580   62580       0
   62582   62583   62583       0   62585   62586   62586       0   62588   62589
   62589       0   62591   62592   62592       0   62594   62595   62595       0
   62597   62598   62598       0   62600   62601   62601       0   62603   62604
   62604       0   62606   62607   62607       0   62609   62610   62610       0
   62612   62613   62613       0   62615   62616   62616       0   62618   62619
   62619       0   62621   62622   62622       0   62624   62625   62625       0
   62627   62628   62628       0   62630   62631   62631       0   62633   62634
   62634       0   62636   62637   62637       0   62639   62640   62640       0
   62642   62643   62643       0   62645   62646   62646       0   62648   62649
   62649       0   62651   62652   62652       0   62654   62655   62655       0
   62657   62658   62658       0   62660   62661   62661       0   62663   62664
   62664       0   62666   62667   62667       0   62669   62670   62670       0
   62672   62673   62673       0   62675   62676   62676       0   62678   62679
   62679       0   62681   62682   62682       0   62684   62685   62685       0
   62687   62688   62688       0   62690   62691   62691       0   62693   62694
   62694       0   62696   62697   62697       0   62699   62700   62700       0
   62702   62703   62703       0   62705   62706   62706       0   62708   62709
   62709       0   62711   62712   62712       0   62714   62715   62715       0
   62717   62718   62718       0   62720   62721   62721       0   62723   62724
   62724       0   62726   62727   62727       0   62729   62730   62730       0
   62732   62733   62733       0   62735   62736   62736       0   62738   62739
   62739       0   62741   62742   62742       0   62744   62745   62745       0
   62747   62748   62748       0   62750   62751   62751       0   62753   62754
   62754       0   62756   62757   62757       0   62759   62760   62760       0
   62762   62763   62763       0   62765   62766   62766       0   62768   62769
   62769       0   62771   62772   62772       0   62774   62775   62775       0
   62777   62778   62778       0   62780   62781   62781       0   62783   62784
   62784       0   62786   62787   62787       0   62789   62790   62790       0
   62792   62793   62793       0   62795   62796   62796       0   62798   62799
   62799       0   62801   62802   62802       0   62804   62805   62805       0
   62807   62808   62808       0   62810   62811   62811       0   62813   62814
   62814       0   62816   62817   62817       0   62819   62820   62820       0
   62822   62823   62823       0   62825   62826   62826       0   62828   62829
   62829       0   62831   62832   62832       0   62834   62835   62835       0
   62837   62838   62838       0   62840   62841   62841       0   62843   62844
   62844       0   62846   62847   62847       0   62849   62850   62850       0
   62852   62853   62853       0   62855   62856   62856       0   62858   62859
   62859       0   62861   62862   62862       0   62864   62865   62865       0
   62867   62868   62868       0   62870   62871   62871       0   62873   62874
   62874       0   62876   62877   62877       0   62879   62880   62880       0
   62882   62883   62883       0   62885   62886   62886       0   62888   62889
   62889       0   62891   62892   62892       0   62894   62895   62895       0
   62897   62898   62898       0   62900   62901   62901       0   62903   62904
   62904       0   62906   62907   62907       0   62909   62910   62910       0
   62912   62913   62913       0   62915   62916   62916       0   62918   62919
   62919       0   62921   62922   62922       0   62924   62925   62925       0
   62927   62928   62928       0   62930   62931   62931       0   62933   62934
   62934       0   62936   62937   62937       0   62939   62940   62940       0
   62942   62943   62943       0   62945   62946   62946       0   62948   62949
   62949       0   62951   62952   62952       0   62954   62955   62955       0
   62957   62958   62958       0   62960   62961   62961       0   62963   62964
   62964       0   62966   62967   62967       0   62969   62970   62970       0
   62972   62973   62973       0   62975   62976   62976       0   62978   62979
   62979       0   62981   62982   62982       0   62984   62985   62985       0
   62987   62988   62988       0   62990   62991   62991       0   62993   62994
   62994       0   62996   62997   62997       0   62999   63000   63000       0
   63002   63003   63003       0   63005   63006   63006       0   63008   63009
   63009       0   63011   63012   63012       0   63014   63015   63015       0
   63017   63018   63018       0   63020   63021   63021       0   63023   63024
   63024       0   63026   63027   63027       0   63029   63030   63030       0
   63032   63033   63033       0   63035   63036   63036       0   63038   63039
   63039       0   63041   63042   63042       0   63044   63045   63045       0
   63047   63048   63048       0   63050   63051   63051       0   63053   63054
   63054       0   63056   63057   63057       0   63059   63060   63060       0
   63062   63063   63063       0   63065   63066   63066       0   63068   63069
   63069       0   63071   63072   63072       0   63074   63075   63075       0
   63077   63078   63078       0   63080   63081   63081       0   63083   63084
   63084       0   63086   63087   63087       0   63089   63090   63090       0
   63092   63093   63093       0   63095   63096   63096       0   63098   63099
   63099       0   63101   63102   63102       0   63104   63105   63105       0
   63107   63108   63108       0   63110   63111   63111       0   63113   63114
   63114       0   63116   63117   63117       0   63119   63120   63120       0
   63122   63123   63123       0   63125   63126   63126       0   63128   63129
   63129       0   63131   63132   63132       0   63134   63135   63135       0
   63137   63138   63138       0   63140   63141   63141       0   63143   63144
   63144       0   63146   63147   63147       0   63149   63150   63150       0
   63152   63153   63153       0   63155   63156   63156       0   63158   63159
   63159       0   63161   63162   63162       0   63164   63165   63165       0
   63167   63168   63168       0   63170   63171   63171       0   63173   63174
   63174       0   63176   63177   63177       0   63179   63180   63180       0
   63182   63183   63183       0   63185   63186   63186       0   63188   63189
   63189       0   63191   63192   63192       0   63194   63195   63195       0
   63197   63198   63198       0   63200   63201   63201       0   63203   63204
   63204       0   63206   63207   63207       0   63209   63210   63210       0
   63212   63213   63213       0   63215   63216   63216       0   63218   63219
   63219       0   63221   63222   63222       0   63224   63225   63225       0
   63227   63228   63228       0   63230   63231   63231       0   63233   63234
   63234       0   63236   63237   63237       0   63239   63240   63240       0
   63242   63243   63243       0   63245   63246   63246       0   63248   63249
   63249       0   63251   63252   63252       0   63254   63255   63255       0
   63257   63258   63258       0   63260   63261   63261       0   63263   63264
   63264       0   63266   63267   63267       0   63269   63270   63270       0
   63272   63273   63273       0   63275   63276   63276       0   63278   63279
   63279       0   63281   63282   63282       0   63284   63285   63285       0
   63287   63288   63288       0   63290   63291   63291       0   63293   63294
   63294       0   63296   63297   63297       0   63299   63300   63300       0
   63302   63303   63303       0   63305   63306   63306       0   63308   63309
   63309       0   63311   63312   63312       0   63314   63315   63315       0
   63317   63318   63318       0   63320   63321   63321       0   63323   63324
   63324       0   63326   63327   63327       0   63329   63330   63330       0
   63332   63333   63333       0   63335   63336   63336       0   63338   63339
   63339       0   63341   63342   63342       0   63344   63345   63345       0
   63347   63348   63348       0   63350   63351   63351       0   63353   63354
   63354       0   63356   63357   63357       0   63359   63360   63360       0
   63362   63363   63363       0   63365   63366   63366       0   63368   63369
   63369       0   63371   63372   63372       0   63374   63375   63375       0
   63377   63378   63378       0   63380   63381   63381       0   63383   63384
   63384       0   63386   63387   63387       0   63389   63390   63390       0
   63392   63393   63393       0   63395   63396   63396       0   63398   63399
   63399       0   63401   63402   63402       0   63404   63405   63405       0
   63407   63408   63408       0   63410   63411   63411       0   63413   63414
   63414       0   63416   63417   63417       0   63419   63420   63420       0
   63422   63423   63423       0   63425   63426   63426       0   63428   63429
   63429       0   63431   63432   63432       0   63434   63435   63435       0
   63437   63438   63438       0   63440   63441   63441       0   63443   63444
   63444       0   63446   63447   63447       0   63449   63450   63450       0
   63452   63453   63453       0   63455   63456   63456       0   63458   63459
   63459       0   63461   63462   63462       0   63464   63465   63465       0
   63467   63468   63468       0   63470   63471   63471       0   63473   63474
   63474       0   63476   63477   63477       0   63479   63480   63480       0
   63482   63483   63483       0   63485   63486   63486       0   63488   63489
   63489       0   63491   63492   63492       0   63494   63495   63495       0
   63497   63498   63498       0   63500   63501   63501       0   63503   63504
   63504       0   63506   63507   63507       0   63509   63510   63510       0
   63512   63513   63513       0   63515   63516   63516       0   63518   63519
   63519       0   63521   63522   63522       0   63524   63525   63525       0
   63527   63528   63528       0   63530   63531   63531       0   63533   63534
   63534       0   63536   63537   63537       0   63539   63540   63540       0
   63542   63543   63543       0   63545   63546   63546       0   63548   63549
   63549       0   63551   63552   63552       0   63554   63555   63555       0
   63557   63558   63558       0   63560   63561   63561       0   63563   63564
   63564       0   63566   63567   63567       0   63569   63570   63570       0
   63572   63573   63573       0   63575   63576   63576       0   63578   63579
   63579       0   63581   63582   63582       0   63584   63585   63585       0
   63587   63588   63588       0   63590   63591   63591       0   63593   63594
   63594       0   63596   63597   63597       0   63599   63600   63600       0
   63602   63603   63603       0   63605   63606   63606       0   63608   63609
   63609       0   63611   63612   63612       0   63614   63615   63615       0
   63617   63618   63618       0   63620   63621   63621       0   63623   63624
   63624       0   63626   63627   63627       0   63629   63630   63630       0
   63632   63633   63633       0   63635   63636   63636       0   63638   63639
   63639       0   63641   63642   63642       0   63644   63645   63645       0
   63647   63648   63648       0   63650   63651   63651       0   63653   63654
   63654       0   63656   63657   63657       0   63659   63660   63660       0
   63662   63663   63663       0   63665   63666   63666       0   63668   63669
   63669       0   63671   63672   63672       0   63674   63675   63675       0
   63677   63678   63678       0   63680   63681   63681       0   63683   63684
   63684       0   63686   63687   63687       0   63689   63690   63690       0
   63692   63693   63693       0   63695   63696   63696       0   63698   63699
   63699       0   63701   63702   63702       0   63704   63705   63705       0
   63707   63708   63708       0   63710   63711   63711       0   63713   63714
   63714       0   63716   63717   63717       0   63719   63720   63720       0
   63722   63723   63723       0   63725   63726   63726       0   63728   63729
   63729       0   63731   63732   63732       0   63734   63735   63735       0
   63737   63738   63738       0   63740   63741   63741       0   63743   63744
   63744       0   63746   63747   63747       0   63749   63750   63750       0
   63752   63753   63753       0   63755   63756   63756       0   63758   63759
   63759       0   63761   63762   63762       0   63764   63765   63765       0
   63767   63768   63768       0   63770   63771   63771       0   63773   63774
   63774       0   63776   63777   63777       0   63779   63780   63780       0
   63782   63783   63783       0   63785   63786   63786       0   63788   63789
   63789       0   63791   63792   63792       0   63794   63795   63795       0
   63797   63798   63798       0   63800   63801   63801       0   63803   63804
   63804       0   63806   63807   63807       0   63809   63810   63810       0
   63812   63813   63813       0   63815   63816   63816       0   63818   63819
   63819       0   63821   63822   63822       0   63824   63825   63825       0
   63827   63828   63828       0   63830   63831   63831       0   63833   63834
   63834       0   63836   63837   63837       0   63839   63840   63840       0
   63842   63843   63843       0   63845   63846   63846       0   63848   63849
   63849       0   63851   63852   63852       0   63854   63855   63855       0
   63857   63858   63858       0   63860   63861   63861       0   63863   63864
   63864       0   63866   63867   63867       0   63869   63870   63870       0
   63872   63873   63873       0   63875   63876   63876       0   63878   63879
   63879       0   63881   63882   63882       0   63884   63885   63885       0
   63887   63888   63888       0   63890   63891   63891       0   63893   63894
   63894       0   63896   63897   63897       0   63899   63900   63900       0
   63902   63903   63903       0   63905   63906   63906       0   63908   63909
   63909       0   63911   63912   63912       0   63914   63915   63915       0
   63917   63918   63918       0   63920   63921   63921       0   63923   63924
   63924       0   63926   63927   63927       0   63929   63930   63930       0
   63932   63933   63933       0   63935   63936   63936       0   63938   63939
   63939       0   63941   63942   63942       0   63944   63945   63945       0
   63947   63948   63948       0   63950   63951   63951       0   63953   63954
   63954       0   63956   63957   63957       0   63959   63960   63960       0
   63962   63963   63963       0   63965   63966   63966       0   63968   63969
   63969       0   63971   63972   63972       0   63974   63975   63975       0
   63977   63978   63978       0   63980   63981   63981       0   63983   63984
   63984       0   63986   63987   63987       0   63989   63990   63990       0
   63992   63993   63993       0   63995   63996   63996       0   63998   63999
   63999       0   64001   64002   64002       0   64004   64005   64005       0
   64007   64008   64008       0   64010   64011   64011       0   64013   64014
   64014       0   64016   64017   64017       0   64019   64020   64020       0
   64022   64023   64023       0   64025   64026   64026       0   64028   64029
   64029       0   64031   64032   64032       0   64034   64035   64035       0
   64037   64038   64038       0   64040   64041   64041       0   64043   64044
   64044       0   64046   64047   64047       0   64049   64050   64050       0
   64052   64053   64053       0   64055   64056   64056       0   64058   64059
   64059       0   64061   64062   64062       0   64064   64065   64065       0
   64067   64068   64068       0   64070   64071   64071       0   64073   64074
   64074       0   64076   64077   64077       0   64079   64080   64080       0
   64082   64083   64083       0   64085   64086   64086       0   64088   64089
   64089       0   64091   64092   64092       0   64094   64095   64095       0
   64097   64098   64098       0   64100   64101   64101       0   64103   64104
   64104       0   64106   64107   64107       0   64109   64110   64110       0
   64112   64113   64113       0   64115   64116   64116       0   64118   64119
   64119       0   64121   64122   64122       0   64124   64125   64125       0
   64127   64128   64128       0   64130   64131   64131       0   64133   64134
   64134       0   64136   64137   64137       0   64139   64140   64140       0
   64142   64143   64143       0   64145   64146   64146       0   64148   64149
   64149       0   64151   64152   64152       0   64154   64155   64155       0
   64157   64158   64158       0   64160   64161   64161       0   64163   64164
   64164       0   64166   64167   64167       0   64169   64170   64170       0
   64172   64173   64173       0   64175   64176   64176       0   64178   64179
   64179       0   64181   64182   64182       0   64184   64185   64185       0
   64187   64188   64188       0   64190   64191   64191       0   64193   64194
   64194       0   64196   64197   64197       0   64199   64200   64200       0
   64202   64203   64203       0   64205   64206   64206       0   64208   64209
   64209       0   64211   64212   64212       0   64214   64215   64215       0
   64217   64218   64218       0   64220   64221   64221       0   64223   64224
   64224       0   64226   64227   64227       0   64229   64230   64230       0
   64232   64233   64233       0   64235   64236   64236       0   64238   64239
   64239       0   64241   64242   64242       0   64244   64245   64245       0
   64247   64248   64248       0   64250   64251   64251       0   64253   64254
   64254       0   64256   64257   64257       0   64259   64260   64260       0
   64262   64263   64263       0   64265   64266   64266       0   64268   64269
   64269       0   64271   64272   64272       0   64274   64275   64275       0
   64277   64278   64278       0   64280   64281   64281       0   64283   64284
   64284       0   64286   64287   64287       0   64289   64290   64290       0
   64292   64293   64293       0   64295   64296   64296       0   64298   64299
   64299       0   64301   64302   64302       0   64304   64305   64305       0
   64307   64308   64308       0   64310   64311   64311       0   64313   64314
   64314       0   64316   64317   64317       0   64319   64320   64320       0
   64322   64323   64323       0   64325   64326   64326       0   64328   64329
   64329       0   64331   64332   64332       0   64334   64335   64335       0
   64337   64338   64338       0   64340   64341   64341       0   64343   64344
   64344       0   64346   64347   64347       0   64349   64350   64350       0
   64352   64353   64353       0   64355   64356   64356       0   64358   64359
   64359       0   64361   64362   64362       0   64364   64365   64365       0
   64367   64368   64368       0   64370   64371   64371       0   64373   64374
   64374       0   64376   64377   64377       0   64379   64380   64380       0
   64382   64383   64383       0   64385   64386   64386       0   64388   64389
   64389       0   64391   64392   64392       0   64394   64395   64395       0
   64397   64398   64398       0   64400   64401   64401       0   64403   64404
   64404       0   64406   64407   64407       0   64409   64410   64410       0
   64412   64413   64413       0   64415   64416   64416       0   64418   64419
   64419       0   64421   64422   64422       0   64424   64425   64425       0
   64427   64428   64428       0   64430   64431   64431       0   64433   64434
   64434       0   64436   64437   64437       0   64439   64440   64440       0
   64442   64443   64443       0   64445   64446   64446       0   64448   64449
   64449       0   64451   64452   64452       0   64454   64455   64455       0
   64457   64458   64458       0   64460   64461   64461       0   64463   64464
   64464       0   64466   64467   64467       0   64469   64470   64470       0
   64472   64473   64473       0   64475   64476   64476       0   64478   64479
   64479       0   64481   64482   64482       0   64484   64485   64485       0
   64487   64488   64488       0   64490   64491   64491       0   64493   64494
   64494       0   64496   64497   64497       0   64499   64500   64500       0
   64502   64503   64503       0   64505   64506   64506       0   64508   64509
   64509       0   64511   64512   64512       0   64514   64515   64515       0
   64517   64518   64518       0   64520   64521   64521       0   64523   64524
   64524       0   64526   64527   64527       0   64529   64530   64530       0
   64532   64533   64533       0   64535   64536   64536       0   64538   64539
   64539       0   64541   64542   64542       0   64544   64545   64545       0
   64547   64548   64548       0   64550   64551   64551       0   64553   64554
   64554       0   64556   64557   64557       0   64559   64560   64560       0
   64562   64563   64563       0   64565   64566   64566       0   64568   64569
   64569       0   64571   64572   64572       0   64574   64575   64575       0
   64577   64578   64578       0   64580   64581   64581       0   64583   64584
   64584       0   64586   64587   64587       0   64589   64590   64590       0
   64592   64593   64593       0   64595   64596   64596       0   64598   64599
   64599       0   64601   64602   64602       0   64604   64605   64605       0
   64607   64608   64608       0   64610   64611   64611       0   64613   64614
   64614       0   64616   64617   64617       0   64619   64620   64620       0
   64622   64623   64623       0   64625   64626   64626       0   64628   64629
   64629       0   64631   64632   64632       0   64634   64635   64635       0
   64637   64638   64638       0   64640   64641   64641       0   64643   64644
   64644       0   64646   64647   64647       0   64649   64650   64650       0
   64652   64653   64653       0   64655   64656   64656       0   64658   64659
   64659       0   64661   64662   64662       0   64664   64665   64665       0
   64667   64668   64668       0   64670   64671   64671       0   64673   64674
   64674       0   64676   64677   64677       0   64679   64680   64680       0
   64682   64683   64683       0   64685   64686   64686       0   64688   64689
   64689       0   64691   64692   64692       0   64694   64695   64695       0
   64697   64698   64698       0   64700   64701   64701       0   64703   64704
   64704       0   64706   64707   64707       0   64709   64710   64710       0
   64712   64713   64713       0   64715   64716   64716       0   64718   64719
   64719       0   64721   64722   64722       0   64724   64725   64725       0
   64727   64728   64728       0   64730   64731   64731       0   64733   64734
   64734       0   64736   64737   64737       0   64739   64740   64740       0
   64742   64743   64743       0   64745   64746   64746       0   64748   64749
   64749       0   64751   64752   64752       0   64754   64755   64755       0
   64757   64758   64758       0   64760   64761   64761       0   64763   64764
   64764       0   64766   64767   64767       0   64769   64770   64770       0
   64772   64773   64773       0   64775   64776   64776       0   64778   64779
   64779       0   64781   64782   64782       0   64784   64785   64785       0
   64787   64788   64788       0   64790   64791   64791       0   64793   64794
   64794       0   64796   64797   64797       0   64799   64800   64800       0
   64802   64803   64803       0   64805   64806   64806       0   64808   64809
   64809       0   64811   64812   64812       0   64814   64815   64815       0
   64817   64818   64818       0   64820   64821   64821       0   64823   64824
   64824       0   64826   64827   64827       0   64829   64830   64830       0
   64832   64833   64833       0   64835   64836   64836       0   64838   64839
   64839       0   64841   64842   64842       0   64844   64845   64845       0
   64847   64848   64848       0   64850   64851   64851       0   64853   64854
   64854       0   64856   64857   64857       0   64859   64860   64860       0
   64862   64863   64863       0   64865   64866   64866       0   64868   64869
   64869       0   64871   64872   64872       0   64874   64875   64875       0
   64877   64878   64878       0   64880   64881   64881       0   64883   64884
   64884       0   64886   64887   64887       0   64889   64890   64890       0
   64892   64893   64893       0   64895   64896   64896       0   64898   64899
   64899       0   64901   64902   64902       0   64904   64905   64905       0
   64907   64908   64908       0   64910   64911   64911       0   64913   64914
   64914       0   64916   64917   64917       0   64919   64920   64920       0
   64922   64923   64923       0   64925   64926   64926       0   64928   64929
   64929       0   64931   64932   64932       0   64934   64935   64935       0
   64937   64938   64938       0   64940   64941   64941       0   64943   64944
   64944       0   64946   64947   64947       0   64949   64950   64950       0
   64952   64953   64953       0   64955   64956   64956       0   64958   64959
   64959       0   64961   64962   64962       0   64964   64965   64965       0
   64967   64968   64968       0   64970   64971   64971       0   64973   64974
   64974       0   64976   64977   64977       0   64979   64980   64980       0
   64982   64983   64983       0   64985   64986   64986       0   64988   64989
   64989       0   64991   64992   64992       0   64994   64995   64995       0
   64997   64998   64998       0   65000   65001   65001       0   65003   65004
   65004       0   65006   65007   65007       0   65009   65010   65010       0
   65012   65013   65013       0   65015   65016   65016       0   65018   65019
   65019       0   65021   65022   65022       0   65024   65025   65025       0
   65027   65028   65028       0   65030   65031   65031       0   65033   65034
   65034       0   65036   65037   65037       0   65039   65040   65040       0
   65042   65043   65043       0   65045   65046   65046       0   65048   65049
   65049       0   65051   65052   65052       0   65054   65055   65055       0
   65057   65058   65058       0   65060   65061   65061       0   65063   65064
   65064       0   65066   65067   65067       0   65069   65070   65070       0
   65072   65073   65073       0   65075   65076   65076       0   65078   65079
   65079       0   65081   65082   65082       0   65084   65085   65085       0
   65087   65088   65088       0   65090   65091   65091       0   65093   65094
   65094       0   65096   65097   65097       0   65099   65100   65100       0
   65102   65103   65103       0   65105   65106   65106       0   65108   65109
   65109       0   65111   65112   65112       0   65114   65115   65115       0
   65117   65118   65118       0   65120   65121   65121       0   65123   65124
   65124       0   65126   65127   65127       0   65129   65130   65130       0
   65132   65133   65133       0   65135   65136   65136       0   65138   65139
   65139       0   65141   65142   65142       0   65144   65145   65145       0
   65147   65148   65148       0   65150   65151   65151       0   65153   65154
   65154       0   65156   65157   65157       0   65159   65160   65160       0
   65162   65163   65163       0   65165   65166   65166       0   65168   65169
   65169       0   65171   65172   65172       0   65174   65175   65175       0
   65177   65178   65178       0   65180   65181   65181       0   65183   65184
   65184       0   65186   65187   65187       0   65189   65190   65190       0
   65192   65193   65193       0   65195   65196   65196       0   65198   65199
   65199       0   65201   65202   65202       0   65204   65205   65205       0
   65207   65208   65208       0   65210   65211   65211       0   65213   65214
   65214       0   65216   65217   65217       0   65219   65220   65220       0
   65222   65223   65223       0   65225   65226   65226       0   65228   65229
   65229       0   65231   65232   65232       0   65234   65235   65235       0
   65237   65238   65238       0   65240   65241   65241       0   65243   65244
   65244       0   65246   65247   65247       0   65249   65250   65250       0
   65252   65253   65253       0   65255   65256   65256       0   65258   65259
   65259       0   65261   65262   65262       0   65264   65265   65265       0
   65267   65268   65268       0   65270   65271   65271       0   65273   65274
   65274       0   65276   65277   65277       0   65279   65280   65280       0
   65282   65283   65283       0   65285   65286   65286       0   65288   65289
   65289       0   65291   65292   65292       0   65294   65295   65295       0
   65297   65298   65298       0   65300   65301   65301       0   65303   65304
   65304       0   65306   65307   65307       0   65309   65310   65310       0
   65312   65313   65313       0   65315   65316   65316       0   65318   65319
   65319       0   65321   65322   65322       0   65324   65325   65325       0
   65327   65328   65328       0   65330   65331   65331       0   65333   65334
   65334       0   65336   65337   65337       0   65339   65340   65340       0
   65342   65343   65343       0   65345   65346   65346       0   65348   65349
   65349       0   65351   65352   65352       0   65354   65355   65355       0
   65357   65358   65358       0   65360   65361   65361       0   65363   65364
   65364       0   65366   65367   65367       0   65369   65370   65370       0
   65372   65373   65373       0   65375   65376   65376       0   65378   65379
   65379       0   65381   65382   65382       0   65384   65385   65385       0
   65387   65388   65388       0   65390   65391   65391       0   65393   65394
   65394       0   65396   65397   65397       0   65399   65400   65400       0
   65402   65403   65403       0   65405   65406   65406       0   65408   65409
   65409       0   65411   65412   65412       0   65414   65415   65415       0
   65417   65418   65418       0   65420   65421   65421       0   65423   65424
   65424       0   65426   65427   65427       0   65429   65430   65430       0
   65432   65433   65433       0   65435   65436   65436       0   65438   65439
   65439       0   65441   65442   65442       0   65444   65445   65445       0
   65447   65448   65448       0   65450   65451   65451       0   65453   65454
   65454       0   65456   65457   65457       0   65459   65460   65460       0
   65462   65463   65463       0   65465   65466   65466       0   65468   65469
   65469       0   65471   65472   65472       0   65474   65475   65475       0
   65477   65478   65478       0   65480   65481   65481       0   65483   65484
   65484       0   65486   65487   65487       0   65489   65490   65490       0
   65492   65493   65493       0   65495   65496   65496       0   65498   65499
   65499       0   65501   65502   65502       0   65504   65505   65505       0
   65507   65508   65508       0   65510   65511   65511       0   65513   65514
   65514       0   65516   65517   65517       0   65519   65520   65520       0
   65522   65523   65523       0   65525   65526   65526       0   65528   65529
   65529       0   65531   65532   65532       0   65534   65535   65535       0
   65537   65538   65538       0   65540   65541   65541       0   65543   65544
   65544       0   65546   65547   65547       0   65549   65550   65550       0
   65552   65553   65553       0   65555   65556   65556       0   65558   65559
   65559       0   65561   65562   65562       0   65564   65565   65565       0
   65567   65568   65568       0   65570   65571   65571       0   65573   65574
   65574       0   65576   65577   65577       0   65579   65580   65580       0
   65582   65583   65583       0   65585   65586   65586       0   65588   65589
   65589       0   65591   65592   65592       0   65594   65595   65595       0
   65597   65598   65598       0   65600   65601   65601       0   65603   65604
   65604       0   65606   65607   65607       0   65609   65610   65610       0
   65612   65613   65613       0   65615   65616   65616       0   65618   65619
   65619       0   65621   65622   65622       0   65624   65625   65625       0
   65627   65628   65628       0   65630   65631   65631       0   65633   65634
   65634       0   65636   65637   65637       0   65639   65640   65640       0
   65642   65643   65643       0   65645   65646   65646       0   65648   65649
   65649       0   65651   65652   65652       0   65654   65655   65655       0
   65657   65658   65658       0   65660   65661   65661       0   65663   65664
   65664       0   65666   65667   65667       0   65669   65670   65670       0
   65672   65673   65673       0   65675   65676   65676       0   65678   65679
   65679       0   65681   65682   65682       0   65684   65685   65685       0
   65687   65688   65688       0   65690   65691   65691       0   65693   65694
   65694       0   65696   65697   65697       0   65699   65700   65700       0
   65702   65703   65703       0   65705   65706   65706       0   65708   65709
   65709       0   65711   65712   65712       0   65714   65715   65715       0
   65717   65718   65718       0   65720   65721   65721       0   65723   65724
   65724       0   65726   65727   65727       0   65729   65730   65730       0
   65732   65733   65733       0   65735   65736   65736       0   65738   65739
   65739       0   65741   65742   65742       0   65744   65745   65745       0
   65747   65748   65748       0   65750   65751   65751       0   65753   65754
   65754       0   65756   65757   65757       0   65759   65760   65760       0
   65762   65763   65763       0   65765   65766   65766       0   65768   65769
   65769       0   65771   65772   65772       0   65774   65775   65775       0
   65777   65778   65778       0   65780   65781   65781       0   65783   65784
   65784       0   65786   65787   65787       0   65789   65790   65790       0
   65792   65793   65793       0   65795   65796   65796       0   65798   65799
   65799       0   65801   65802   65802       0   65804   65805   65805       0
   65807   65808   65808       0   65810   65811   65811       0   65813   65814
   65814       0   65816   65817   65817       0   65819   65820   65820       0
   65822   65823   65823       0   65825   65826   65826       0   65828   65829
   65829       0   65831   65832   65832       0   65834   65835   65835       0
   65837   65838   65838       0   65840   65841   65841       0   65843   65844
   65844       0   65846   65847   65847       0   65849   65850   65850       0
   65852   65853   65853       0   65855   65856   65856       0   65858   65859
   65859       0   65861   65862   65862       0   65864   65865   65865       0
   65867   65868   65868       0   65870   65871   65871       0   65873   65874
   65874       0   65876   65877   65877       0   65879   65880   65880       0
   65882   65883   65883       0   65885   65886   65886       0   65888   65889
   65889       0   65891   65892   65892       0   65894   65895   65895       0
   65897   65898   65898       0   65900   65901   65901       0   65903   65904
   65904       0   65906   65907   65907       0   65909   65910   65910       0
   65912   65913   65913       0   65915   65916   65916       0   65918   65919
   65919       0   65921   65922   65922       0   65924   65925   65925       0
   65927   65928   65928       0   65930   65931   65931       0   65933   65934
   65934       0   65936   65937   65937       0   65939   65940   65940       0
   65942   65943   65943       0   65945   65946   65946       0   65948   65949
   65949       0   65951   65952   65952       0   65954   65955   65955       0
   65957   65958   65958       0   65960   65961   65961       0   65963   65964
   65964       0   65966   65967   65967       0   65969   65970   65970       0
   65972   65973   65973       0   65975   65976   65976       0   65978   65979
   65979       0   65981   65982   65982       0   65984   65985   65985       0
   65987   65988   65988       0   65990   65991   65991       0   65993   65994
   65994       0   65996   65997   65997       0   65999   66000   66000       0
   66002   66003   66003       0   66005   66006   66006       0   66008   66009
   66009       0   66011   66012   66012       0   66014   66015   66015       0
   66017   66018   66018       0   66020   66021   66021       0   66023   66024
   66024       0   66026   66027   66027       0   66029   66030   66030       0
   66032   66033   66033       0   66035   66036   66036       0   66038   66039
   66039       0   66041   66042   66042       0   66044   66045   66045       0
   66047   66048   66048       0   66050   66051   66051       0   66053   66054
   66054       0   66056   66057   66057       0   66059   66060   66060       0
   66062   66063   66063       0   66065   66066   66066       0   66068   66069
   66069       0   66071   66072   66072       0   66074   66075   66075       0
   66077   66078   66078       0   66080   66081   66081       0   66083   66084
   66084       0   66086   66087   66087       0   66089   66090   66090       0
   66092   66093   66093       0   66095   66096   66096       0   66098   66099
   66099       0   66101   66102   66102       0   66104   66105   66105       0
   66107   66108   66108       0   66110   66111   66111       0   66113   66114
   66114       0   66116   66117   66117       0   66119   66120   66120       0
   66122   66123   66123       0   66125   66126   66126       0   66128   66129
   66129       0   66131   66132   66132       0   66134   66135   66135       0
   66137   66138   66138       0   66140   66141   66141       0   66143   66144
   66144       0   66146   66147   66147       0   66149   66150   66150       0
   66152   66153   66153       0   66155   66156   66156       0   66158   66159
   66159       0   66161   66162   66162       0   66164   66165   66165       0
   66167   66168   66168       0   66170   66171   66171       0   66173   66174
   66174       0   66176   66177   66177       0   66179   66180   66180       0
   66182   66183   66183       0   66185   66186   66186       0   66188   66189
   66189       0   66191   66192   66192       0   66194   66195   66195       0
   66197   66198   66198       0   66200   66201   66201       0   66203   66204
   66204       0   66206   66207   66207       0   66209   66210   66210       0
   66212   66213   66213       0   66215   66216   66216       0   66218   66219
   66219       0   66221   66222   66222       0   66224   66225   66225       0
   66227   66228   66228       0   66230   66231   66231       0   66233   66234
   66234       0   66236   66237   66237       0   66239   66240   66240       0
   66242   66243   66243       0   66245   66246   66246       0   66248   66249
   66249       0   66251   66252   66252       0   66254   66255   66255       0
   66257   66258   66258       0   66260   66261   66261       0   66263   66264
   66264       0   66266   66267   66267       0   66269   66270   66270       0
   66272   66273   66273       0   66275   66276   66276       0   66278   66279
   66279       0   66281   66282   66282       0   66284   66285   66285       0
   66287   66288   66288       0   66290   66291   66291       0   66293   66294
   66294       0   66296   66297   66297       0   66299   66300   66300       0
   66302   66303   66303       0   66305   66306   66306       0   66308   66309
   66309       0   66311   66312   66312       0   66314   66315   66315       0
   66317   66318   66318       0   66320   66321   66321       0   66323   66324
   66324       0   66326   66327   66327       0   66329   66330   66330       0
   66332   66333   66333       0   66335   66336   66336       0   66338   66339
   66339       0   66341   66342   66342       0   66344   66345   66345       0
   66347   66348   66348       0   66350   66351   66351       0   66353   66354
   66354       0   66356   66357   66357       0   66359   66360   66360       0
   66362   66363   66363       0   66365   66366   66366       0   66368   66369
   66369       0   66371   66372   66372       0   66374   66375   66375       0
   66377   66378   66378       0   66380   66381   66381       0   66383   66384
   66384       0   66386   66387   66387       0   66389   66390   66390       0
   66392   66393   66393       0   66395   66396   66396       0   66398   66399
   66399       0   66401   66402   66402       0   66404   66405   66405       0
   66407   66408   66408       0   66410   66411   66411       0   66413   66414
   66414       0   66416   66417   66417       0   66419   66420   66420       0
   66422   66423   66423       0   66425   66426   66426       0   66428   66429
   66429       0   66431   66432   66432       0   66434   66435   66435       0
   66437   66438   66438       0   66440   66441   66441       0   66443   66444
   66444       0   66446   66447   66447       0   66449   66450   66450       0
   66452   66453   66453       0   66455   66456   66456       0   66458   66459
   66459       0   66461   66462   66462       0   66464   66465   66465       0
   66467   66468   66468       0   66470   66471   66471       0   66473   66474
   66474       0   66476   66477   66477       0   66479   66480   66480       0
   66482   66483   66483       0   66485   66486   66486       0   66488   66489
   66489       0   66491   66492   66492       0   66494   66495   66495       0
   66497   66498   66498       0   66500   66501   66501       0   66503   66504
   66504       0   66506   66507   66507       0   66509   66510   66510       0
   66512   66513   66513       0   66515   66516   66516       0   66518   66519
   66519       0   66521   66522   66522       0   66524   66525   66525       0
   66527   66528   66528       0   66530   66531   66531       0   66533   66534
   66534       0   66536   66537   66537       0   66539   66540   66540       0
   66542   66543   66543       0   66545   66546   66546       0   66548   66549
   66549       0   66551   66552   66552       0   66554   66555   66555       0
   66557   66558   66558       0   66560   66561   66561       0   66563   66564
   66564       0   66566   66567   66567       0   66569   66570   66570       0
   66572   66573   66573       0   66575   66576   66576       0   66578   66579
   66579       0   66581   66582   66582       0   66584   66585   66585       0
   66587   66588   66588       0   66590   66591   66591       0   66593   66594
   66594       0   66596   66597   66597       0   66599   66600   66600       0
   66602   66603   66603       0   66605   66606   66606       0   66608   66609
   66609       0   66611   66612   66612       0   66614   66615   66615       0
   66617   66618   66618       0   66620   66621   66621       0   66623   66624
   66624       0   66626   66627   66627       0   66629   66630   66630       0
   66632   66633   66633       0   66635   66636   66636       0   66638   66639
   66639       0   66641   66642   66642       0   66644   66645   66645       0
   66647   66648   66648       0   66650   66651   66651       0   66653   66654
   66654       0   66656   66657   66657       0   66659   66660   66660       0
   66662   66663   66663       0   66665   66666   66666       0   66668   66669
   66669       0   66671   66672   66672       0   66674   66675   66675       0
   66677   66678   66678       0   66680   66681   66681       0   66683   66684
   66684       0   66686   66687   66687       0   66689   66690   66690       0
   66692   66693   66693       0   66695   66696   66696       0   66698   66699
   66699       0   66701   66702   66702       0   66704   66705   66705       0
   66707   66708   66708       0   66710   66711   66711       0   66713   66714
   66714       0   66716   66717   66717       0   66719   66720   66720       0
   66722   66723   66723       0   66725   66726   66726       0   66728   66729
   66729       0   66731   66732   66732       0   66734   66735   66735       0
   66737   66738   66738       0   66740   66741   66741       0   66743   66744
   66744       0   66746   66747   66747       0   66749   66750   66750       0
   66752   66753   66753       0   66755   66756   66756       0   66758   66759
   66759       0   66761   66762   66762       0   66764   66765   66765       0
   66767   66768   66768       0   66770   66771   66771       0   66773   66774
   66774       0   66776   66777   66777       0   66779   66780   66780       0
   66782   66783   66783       0   66785   66786   66786       0   66788   66789
   66789       0   66791   66792   66792       0   66794   66795   66795       0
   66797   66798   66798       0   66800   66801   66801       0   66803   66804
   66804       0   66806   66807   66807       0   66809   66810   66810       0
   66812   66813   66813       0   66815   66816   66816       0   66818   66819
   66819       0   66821   66822   66822       0   66824   66825   66825       0
   66827   66828   66828       0   66830   66831   66831       0   66833   66834
   66834       0   66836   66837   66837       0   66839   66840   66840       0
   66842   66843   66843       0   66845   66846   66846       0   66848   66849
   66849       0   66851   66852   66852       0   66854   66855   66855       0
   66857   66858   66858       0   66860   66861   66861       0   66863   66864
   66864       0   66866   66867   66867       0   66869   66870   66870       0
   66872   66873   66873       0   66875   66876   66876       0   66878   66879
   66879       0   66881   66882   66882       0   66884   66885   66885       0
   66887   66888   66888       0   66890   66891   66891       0   66893   66894
   66894       0   66896   66897   66897       0   66899   66900   66900       0
   66902   66903   66903       0   66905   66906   66906       0   66908   66909
   66909       0   66911   66912   66912       0   66914   66915   66915       0
   66917   66918   66918       0   66920   66921   66921       0   66923   66924
   66924       0   66926   66927   66927       0   66929   66930   66930       0
   66932   66933   66933       0   66935   66936   66936       0   66938   66939
   66939       0   66941   66942   66942       0   66944   66945   66945       0
   66947   66948   66948       0   66950   66951   66951       0   66953   66954
   66954       0   66956   66957   66957       0   66959   66960   66960       0
   66962   66963   66963       0   66965   66966   66966       0   66968   66969
   66969       0   66971   66972   66972       0   66974   66975   66975       0
   66977   66978   66978       0   66980   66981   66981       0   66983   66984
   66984       0   66986   66987   66987       0   66989   66990   66990       0
   66992   66993   66993       0   66995   66996   66996       0   66998   66999
   66999       0   67001   67002   67002       0   67004   67005   67005       0
   67007   67008   67008       0   67010   67011   67011       0   67013   67014
   67014       0   67016   67017   67017       0   67019   67020   67020       0
   67022   67023   67023       0   67025   67026   67026       0   67028   67029
   67029       0   67031   67032   67032       0   67034   67035   67035       0
   67037   67038   67038       0   67040   67041   67041       0   67043   67044
   67044       0   67046   67047   67047       0   67049   67050   67050       0
   67052   67053   67053       0   67055   67056   67056       0   67058   67059
   67059       0   67061   67062   67062       0   67064   67065   67065       0
   67067   67068   67068       0   67070   67071   67071       0   67073   67074
   67074       0   67076   67077   67077       0   67079   67080   67080       0
   67082   67083   67083       0   67085   67086   67086       0   67088   67089
   67089       0   67091   67092   67092       0   67094   67095   67095       0
   67097   67098   67098       0   67100   67101   67101       0   67103   67104
   67104       0   67106   67107   67107       0   67109   67110   67110       0
   67112   67113   67113       0   67115   67116   67116       0   67118   67119
   67119       0   67121   67122   67122       0   67124   67125   67125       0
   67127   67128   67128       0   67130   67131   67131       0   67133   67134
   67134       0   67136   67137   67137       0   67139   67140   67140       0
   67142   67143   67143       0   67145   67146   67146       0   67148   67149
   67149       0   67151   67152   67152       0   67154   67155   67155       0
   67157   67158   67158       0   67160   67161   67161       0   67163   67164
   67164       0   67166   67167   67167       0   67169   67170   67170       0
   67172   67173   67173       0   67175   67176   67176       0   67178   67179
   67179       0   67181   67182   67182       0   67184   67185   67185       0
   67187   67188   67188       0   67190   67191   67191       0   67193   67194
   67194       0   67196   67197   67197       0   67199   67200   67200       0
   67202   67203   67203       0   67205   67206   67206       0   67208   67209
   67209       0   67211   67212   67212       0   67214   67215   67215       0
   67217   67218   67218       0   67220   67221   67221       0   67223   67224
   67224       0   67226   67227   67227       0   67229   67230   67230       0
   67232   67233   67233       0   67235   67236   67236       0   67238   67239
   67239       0   67241   67242   67242       0   67244   67245   67245       0
   67247   67248   67248       0   67250   67251   67251       0   67253   67254
   67254       0   67256   67257   67257       0   67259   67260   67260       0
   67262   67263   67263       0   67265   67266   67266       0   67268   67269
   67269       0   67271   67272   67272       0   67274   67275   67275       0
   67277   67278   67278       0   67280   67281   67281       0   67283   67284
   67284       0   67286   67287   67287       0   67289   67290   67290       0
   67292   67293   67293       0   67295   67296   67296       0   67298   67299
   67299       0   67301   67302   67302       0   67304   67305   67305       0
   67307   67308   67308       0   67310   67311   67311       0   67313   67314
   67314       0   67316   67317   67317       0   67319   67320   67320       0
   67322   67323   67323       0   67325   67326   67326       0   67328   67329
   67329       0   67331   67332   67332       0   67334   67335   67335       0
   67337   67338   67338       0   67340   67341   67341       0   67343   67344
   67344       0   67346   67347   67347       0   67349   67350   67350       0
   67352   67353   67353       0   67355   67356   67356       0   67358   67359
   67359       0   67361   67362   67362       0   67364   67365   67365       0
   67367   67368   67368       0   67370   67371   67371       0   67373   67374
   67374       0   67376   67377   67377       0   67379   67380   67380       0
   67382   67383   67383       0   67385   67386   67386       0   67388   67389
   67389       0   67391   67392   67392       0   67394   67395   67395       0
   67397   67398   67398       0   67400   67401   67401       0   67403   67404
   67404       0   67406   67407   67407       0   67409   67410   67410       0
   67412   67413   67413       0   67415   67416   67416       0   67418   67419
   67419       0   67421   67422   67422       0   67424   67425   67425       0
   67427   67428   67428       0   67430   67431   67431       0   67433   67434
   67434       0   67436   67437   67437       0   67439   67440   67440       0
   67442   67443   67443       0   67445   67446   67446       0   67448   67449
   67449       0   67451   67452   67452       0   67454   67455   67455       0
   67457   67458   67458       0   67460   67461   67461       0   67463   67464
   67464       0   67466   67467   67467       0   67469   67470   67470       0
   67472   67473   67473       0   67475   67476   67476       0   67478   67479
   67479       0   67481   67482   67482       0   67484   67485   67485       0
   67487   67488   67488       0   67490   67491   67491       0   67493   67494
   67494       0   67496   67497   67497       0   67499   67500   67500       0
   67502   67503   67503       0   67505   67506   67506       0   67508   67509
   67509       0   67511   67512   67512       0   67514   67515   67515       0
   67517   67518   67518       0   67520   67521   67521       0   67523   67524
   67524       0   67526   67527   67527       0   67529   67530   67530       0
   67532   67533   67533       0   67535   67536   67536       0   67538   67539
   67539       0   67541   67542   67542       0   67544   67545   67545       0
   67547   67548   67548       0   67550   67551   67551       0   67553   67554
   67554       0   67556   67557   67557       0   67559   67560   67560       0
   67562   67563   67563       0   67565   67566   67566       0   67568   67569
   67569       0   67571   67572   67572       0   67574   67575   67575       0
   67577   67578   67578       0   67580   67581   67581       0   67583   67584
   67584       0   67586   67587   67587       0   67589   67590   67590       0
   67592   67593   67593       0   67595   67596   67596       0   67598   67599
   67599       0   67601   67602   67602       0   67604   67605   67605       0
   67607   67608   67608       0   67610   67611   67611       0   67613   67614
   67614       0   67616   67617   67617       0   67619   67620   67620       0
   67622   67623   67623       0   67625   67626   67626       0   67628   67629
   67629       0   67631   67632   67632       0   67634   67635   67635       0
   67637   67638   67638       0   67640   67641   67641       0   67643   67644
   67644       0   67646   67647   67647       0   67649   67650   67650       0
   67652   67653   67653       0   67655   67656   67656       0   67658   67659
   67659       0   67661   67662   67662       0   67664   67665   67665       0
   67667   67668   67668       0   67670   67671   67671       0   67673   67674
   67674       0   67676   67677   67677       0   67679   67680   67680       0
   67682   67683   67683       0   67685   67686   67686       0   67688   67689
   67689       0   67691   67692   67692       0   67694   67695   67695       0
   67697   67698   67698       0   67700   67701   67701       0   67703   67704
   67704       0   67706   67707   67707       0   67709   67710   67710       0
   67712   67713   67713       0   67715   67716   67716       0   67718   67719
   67719       0   67721   67722   67722       0   67724   67725   67725       0
   67727   67728   67728       0   67730   67731   67731       0   67733   67734
   67734       0   67736   67737   67737       0   67739   67740   67740       0
   67742   67743   67743       0   67745   67746   67746       0   67748   67749
   67749       0   67751   67752   67752       0   67754   67755   67755       0
   67757   67758   67758       0   67760   67761   67761       0   67763   67764
   67764       0   67766   67767   67767       0   67769   67770   67770       0
   67772   67773   67773       0   67775   67776   67776       0   67778   67779
   67779       0   67781   67782   67782       0   67784   67785   67785       0
   67787   67788   67788       0   67790   67791   67791       0   67793   67794
   67794       0   67796   67797   67797       0   67799   67800   67800       0
   67802   67803   67803       0   67805   67806   67806       0   67808   67809
   67809       0   67811   67812   67812       0   67814   67815   67815       0
   67817   67818   67818       0   67820   67821   67821       0   67823   67824
   67824       0   67826   67827   67827       0   67829   67830   67830       0
   67832   67833   67833       0   67835   67836   67836       0   67838   67839
   67839       0   67841   67842   67842       0   67844   67845   67845       0
   67847   67848   67848       0   67850   67851   67851       0   67853   67854
   67854       0   67856   67857   67857       0   67859   67860   67860       0
   67862   67863   67863       0   67865   67866   67866       0   67868   67869
   67869       0   67871   67872   67872       0   67874   67875   67875       0
   67877   67878   67878       0   67880   67881   67881       0   67883   67884
   67884       0   67886   67887   67887       0   67889   67890   67890       0
   67892   67893   67893       0   67895   67896   67896       0   67898   67899
   67899       0   67901   67902   67902       0   67904   67905   67905       0
   67907   67908   67908       0   67910   67911   67911       0   67913   67914
   67914       0   67916   67917   67917       0   67919   67920   67920       0
   67922   67923   67923       0   67925   67926   67926       0   67928   67929
   67929       0   67931   67932   67932       0   67934   67935   67935       0
   67937   67938   67938       0   67940   67941   67941       0   67943   67944
   67944       0   67946   67947   67947       0   67949   67950   67950       0
   67952   67953   67953       0   67955   67956   67956       0   67958   67959
   67959       0   67961   67962   67962       0   67964   67965   67965       0
   67967   67968   67968       0   67970   67971   67971       0   67973   67974
   67974       0   67976   67977   67977       0   67979   67980   67980       0
   67982   67983   67983       0   67985   67986   67986       0   67988   67989
   67989       0   67991   67992   67992       0   67994   67995   67995       0
   67997   67998   67998       0   68000   68001   68001       0   68003   68004
   68004       0   68006   68007   68007       0   68009   68010   68010       0
   68012   68013   68013       0   68015   68016   68016       0   68018   68019
   68019       0   68021   68022   68022       0   68024   68025   68025       0
   68027   68028   68028       0   68030   68031   68031       0   68033   68034
   68034       0   68036   68037   68037       0   68039   68040   68040       0
   68042   68043   68043       0   68045   68046   68046       0   68048   68049
   68049       0   68051   68052   68052       0   68054   68055   68055       0
   68057   68058   68058       0   68060   68061   68061       0   68063   68064
   68064       0   68066   68067   68067       0   68069   68070   68070       0
   68072   68073   68073       0   68075   68076   68076       0   68078   68079
   68079       0   68081   68082   68082       0   68084   68085   68085       0
   68087   68088   68088       0   68090   68091   68091       0   68093   68094
   68094       0   68096   68097   68097       0   68099   68100   68100       0
   68102   68103   68103       0   68105   68106   68106       0   68108   68109
   68109       0   68111   68112   68112       0   68114   68115   68115       0
   68117   68118   68118       0   68120   68121   68121       0   68123   68124
   68124       0   68126   68127   68127       0   68129   68130   68130       0
   68132   68133   68133       0   68135   68136   68136       0   68138   68139
   68139       0   68141   68142   68142       0   68144   68145   68145       0
   68147   68148   68148       0   68150   68151   68151       0   68153   68154
   68154       0   68156   68157   68157       0   68159   68160   68160       0
   68162   68163   68163       0   68165   68166   68166       0   68168   68169
   68169       0   68171   68172   68172       0   68174   68175   68175       0
   68177   68178   68178       0   68180   68181   68181       0   68183   68184
   68184       0   68186   68187   68187       0   68189   68190   68190       0
   68192   68193   68193       0   68195   68196   68196       0   68198   68199
   68199       0   68201   68202   68202       0   68204   68205   68205       0
   68207   68208   68208       0   68210   68211   68211       0   68213   68214
   68214       0   68216   68217   68217       0   68219   68220   68220       0
   68222   68223   68223       0   68225   68226   68226       0   68228   68229
   68229       0   68231   68232   68232       0   68234   68235   68235       0
   68237   68238   68238       0   68240   68241   68241       0   68243   68244
   68244       0   68246   68247   68247       0   68249   68250   68250       0
   68252   68253   68253       0   68255   68256   68256       0   68258   68259
   68259       0   68261   68262   68262       0   68264   68265   68265       0
   68267   68268   68268       0   68270   68271   68271       0   68273   68274
   68274       0   68276   68277   68277       0   68279   68280   68280       0
   68282   68283   68283       0   68285   68286   68286       0   68288   68289
   68289       0   68291   68292   68292       0   68294   68295   68295       0
   68297   68298   68298       0   68300   68301   68301       0   68303   68304
   68304       0   68306   68307   68307       0   68309   68310   68310       0
   68312   68313   68313       0   68315   68316   68316       0   68318   68319
   68319       0   68321   68322   68322       0   68324   68325   68325       0
   68327   68328   68328       0   68330   68331   68331       0   68333   68334
   68334       0   68336   68337   68337       0   68339   68340   68340       0
   68342   68343   68343       0   68345   68346   68346       0   68348   68349
   68349       0   68351   68352   68352       0   68354   68355   68355       0
   68357   68358   68358       0   68360   68361   68361       0   68363   68364
   68364       0   68366   68367   68367       0   68369   68370   68370       0
   68372   68373   68373       0   68375   68376   68376       0   68378   68379
   68379       0   68381   68382   68382       0   68384   68385   68385       0
   68387   68388   68388       0   68390   68391   68391       0   68393   68394
   68394       0   68396   68397   68397       0   68399   68400   68400       0
   68402   68403   68403       0   68405   68406   68406       0   68408   68409
   68409       0   68411   68412   68412       0   68414   68415   68415       0
   68417   68418   68418       0   68420   68421   68421       0   68423   68424
   68424       0   68426   68427   68427       0   68429   68430   68430       0
   68432   68433   68433       0   68435   68436   68436       0   68438   68439
   68439       0   68441   68442   68442       0   68444   68445   68445       0
   68447   68448   68448       0   68450   68451   68451       0   68453   68454
   68454       0   68456   68457   68457       0   68459   68460   68460       0
   68462   68463   68463       0   68465   68466   68466       0   68468   68469
   68469       0   68471   68472   68472       0   68474   68475   68475       0
   68477   68478   68478       0   68480   68481   68481       0   68483   68484
   68484       0   68486   68487   68487       0   68489   68490   68490       0
   68492   68493   68493       0   68495   68496   68496       0   68498   68499
   68499       0   68501   68502   68502       0   68504   68505   68505       0
   68507   68508   68508       0   68510   68511   68511       0   68513   68514
   68514       0   68516   68517   68517       0   68519   68520   68520       0
   68522   68523   68523       0   68525   68526   68526       0   68528   68529
   68529       0   68531   68532   68532       0   68534   68535   68535       0
   68537   68538   68538       0   68540   68541   68541       0   68543   68544
   68544       0   68546   68547   68547       0   68549   68550   68550       0
   68552   68553   68553       0   68555   68556   68556       0   68558   68559
   68559       0   68561   68562   68562       0   68564   68565   68565       0
   68567   68568   68568       0   68570   68571   68571       0   68573   68574
   68574       0   68576   68577   68577       0   68579   68580   68580       0
   68582   68583   68583       0   68585   68586   68586       0   68588   68589
   68589       0   68591   68592   68592       0   68594   68595   68595       0
   68597   68598   68598       0   68600   68601   68601       0   68603   68604
   68604       0   68606   68607   68607       0   68609   68610   68610       0
   68612   68613   68613       0   68615   68616   68616       0   68618   68619
   68619       0   68621   68622   68622       0   68624   68625   68625       0
   68627   68628   68628       0   68630   68631   68631       0   68633   68634
   68634       0   68636   68637   68637       0   68639   68640   68640       0
   68642   68643   68643       0   68645   68646   68646       0   68648   68649
   68649       0   68651   68652   68652       0   68654   68655   68655       0
   68657   68658   68658       0   68660   68661   68661       0   68663   68664
   68664       0   68666   68667   68667       0   68669   68670   68670       0
   68672   68673   68673       0   68675   68676   68676       0   68678   68679
   68679       0   68681   68682   68682       0   68684   68685   68685       0
   68687   68688   68688       0   68690   68691   68691       0   68693   68694
   68694       0   68696   68697   68697       0   68699   68700   68700       0
   68702   68703   68703       0   68705   68706   68706       0   68708   68709
   68709       0   68711   68712   68712       0   68714   68715   68715       0
   68717   68718   68718       0   68720   68721   68721       0   68723   68724
   68724       0   68726   68727   68727       0   68729   68730   68730       0
   68732   68733   68733       0   68735   68736   68736       0   68738   68739
   68739       0   68741   68742   68742       0   68744   68745   68745       0
   68747   68748   68748       0   68750   68751   68751       0   68753   68754
   68754       0   68756   68757   68757       0   68759   68760   68760       0
   68762   68763   68763       0   68765   68766   68766       0   68768   68769
   68769       0   68771   68772   68772       0   68774   68775   68775       0
   68777   68778   68778       0   68780   68781   68781       0   68783   68784
   68784       0   68786   68787   68787       0   68789   68790   68790       0
   68792   68793   68793       0   68795   68796   68796       0   68798   68799
   68799       0   68801   68802   68802       0   68804   68805   68805       0
   68807   68808   68808       0   68810   68811   68811       0   68813   68814
   68814       0   68816   68817   68817       0   68819   68820   68820       0
   68822   68823   68823       0   68825   68826   68826       0   68828   68829
   68829       0   68831   68832   68832       0   68834   68835   68835       0
   68837   68838   68838       0   68840   68841   68841       0   68843   68844
   68844       0   68846   68847   68847       0   68849   68850   68850       0
   68852   68853   68853       0   68855   68856   68856       0   68858   68859
   68859       0   68861   68862   68862       0   68864   68865   68865       0
   68867   68868   68868       0   68870   68871   68871       0   68873   68874
   68874       0   68876   68877   68877       0   68879   68880   68880       0
   68882   68883   68883       0   68885   68886   68886       0   68888   68889
   68889       0   68891   68892   68892       0   68894   68895   68895       0
   68897   68898   68898       0   68900   68901   68901       0   68903   68904
   68904       0   68906   68907   68907       0   68909   68910   68910       0
   68912   68913   68913       0   68915   68916   68916       0   68918   68919
   68919       0   68921   68922   68922       0   68924   68925   68925       0
   68927   68928   68928       0   68930   68931   68931       0   68933   68934
   68934       0   68936   68937   68937       0   68939   68940   68940       0
   68942   68943   68943       0   68945   68946   68946       0   68948   68949
   68949       0   68951   68952   68952       0   68954   68955   68955       0
   68957   68958   68958       0   68960   68961   68961       0   68963   68964
   68964       0   68966   68967   68967       0   68969   68970   68970       0
   68972   68973   68973       0   68975   68976   68976       0   68978   68979
   68979       0   68981   68982   68982       0   68984   68985   68985       0
   68987   68988   68988       0   68990   68991   68991       0   68993   68994
   68994       0   68996   68997   68997       0   68999   69000   69000       0
   69002   69003   69003       0   69005   69006   69006       0   69008   69009
   69009       0   69011   69012   69012       0   69014   69015   69015       0
   69017   69018   69018       0   69020   69021   69021       0   69023   69024
   69024       0   69026   69027   69027       0   69029   69030   69030       0
   69032   69033   69033       0   69035   69036   69036       0   69038   69039
   69039       0   69041   69042   69042       0   69044   69045   69045       0
   69047   69048   69048       0   69050   69051   69051       0   69053   69054
   69054       0   69056   69057   69057       0   69059   69060   69060       0
   69062   69063   69063       0   69065   69066   69066       0   69068   69069
   69069       0   69071   69072   69072       0   69074   69075   69075       0
   69077   69078   69078       0   69080   69081   69081       0   69083   69084
   69084       0   69086   69087   69087       0   69089   69090   69090       0
   69092   69093   69093       0   69095   69096   69096       0   69098   69099
   69099       0   69101   69102   69102       0   69104   69105   69105       0
   69107   69108   69108       0   69110   69111   69111       0   69113   69114
   69114       0   69116   69117   69117       0   69119   69120   69120       0
   69122   69123   69123       0   69125   69126   69126       0   69128   69129
   69129       0   69131   69132   69132       0   69134   69135   69135       0
   69137   69138   69138       0   69140   69141   69141       0   69143   69144
   69144       0   69146   69147   69147       0   69149   69150   69150       0
   69152   69153   69153       0   69155   69156   69156       0   69158   69159
   69159       0   69161   69162   69162       0   69164   69165   69165       0
   69167   69168   69168       0   69170   69171   69171       0   69173   69174
   69174       0   69176   69177   69177       0   69179   69180   69180       0
   69182   69183   69183       0   69185   69186   69186       0   69188   69189
   69189       0   69191   69192   69192       0   69194   69195   69195       0
   69197   69198   69198       0   69200   69201   69201       0   69203   69204
   69204       0   69206   69207   69207       0   69209   69210   69210       0
   69212   69213   69213       0   69215   69216   69216       0   69218   69219
   69219       0   69221   69222   69222       0   69224   69225   69225       0
   69227   69228   69228       0   69230   69231   69231       0   69233   69234
   69234       0   69236   69237   69237       0   69239   69240   69240       0
   69242   69243   69243       0   69245   69246   69246       0   69248   69249
   69249       0   69251   69252   69252       0   69254   69255   69255       0
   69257   69258   69258       0   69260   69261   69261       0   69263   69264
   69264       0   69266   69267   69267       0   69269   69270   69270       0
   69272   69273   69273       0   69275   69276   69276       0   69278   69279
   69279       0   69281   69282   69282       0   69284   69285   69285       0
   69287   69288   69288       0   69290   69291   69291       0   69293   69294
   69294       0   69296   69297   69297       0   69299   69300   69300       0
   69302   69303   69303       0   69305   69306   69306       0   69308   69309
   69309       0   69311   69312   69312       0   69314   69315   69315       0
   69317   69318   69318       0   69320   69321   69321       0   69323   69324
   69324       0   69326   69327   69327       0   69329   69330   69330       0
   69332   69333   69333       0   69335   69336   69336       0   69338   69339
   69339       0   69341   69342   69342       0   69344   69345   69345       0
   69347   69348   69348       0   69350   69351   69351       0   69353   69354
   69354       0   69356   69357   69357       0   69359   69360   69360       0
   69362   69363   69363       0   69365   69366   69366       0   69368   69369
   69369       0   69371   69372   69372       0   69374   69375   69375       0
   69377   69378   69378       0   69380   69381   69381       0   69383   69384
   69384       0   69386   69387   69387       0   69389   69390   69390       0
   69392   69393   69393       0   69395   69396   69396       0   69398   69399
   69399       0   69401   69402   69402       0   69404   69405   69405       0
   69407   69408   69408       0   69410   69411   69411       0   69413   69414
   69414       0   69416   69417   69417       0   69419   69420   69420       0
   69422   69423   69423       0   69425   69426   69426       0   69428   69429
   69429       0   69431   69432   69432       0   69434   69435   69435       0
   69437   69438   69438       0   69440   69441   69441       0   69443   69444
   69444       0   69446   69447   69447       0   69449   69450   69450       0
   69452   69453   69453       0   69455   69456   69456       0   69458   69459
   69459       0   69461   69462   69462       0   69464   69465   69465       0
   69467   69468   69468       0   69470   69471   69471       0   69473   69474
   69474       0   69476   69477   69477       0   69479   69480   69480       0
   69482   69483   69483       0   69485   69486   69486       0   69488   69489
   69489       0   69491   69492   69492       0   69494   69495   69495       0
   69497   69498   69498       0   69500   69501   69501       0   69503   69504
   69504       0   69506   69507   69507       0   69509   69510   69510       0
   69512   69513   69513       0   69515   69516   69516       0   69518   69519
   69519       0   69521   69522   69522       0   69524   69525   69525       0
   69527   69528   69528       0   69530   69531   69531       0   69533   69534
   69534       0   69536   69537   69537       0   69539   69540   69540       0
   69542   69543   69543       0   69545   69546   69546       0   69548   69549
   69549       0   69551   69552   69552       0   69554   69555   69555       0
   69557   69558   69558       0   69560   69561   69561       0   69563   69564
   69564       0   69566   69567   69567       0   69569   69570   69570       0
   69572   69573   69573       0   69575   69576   69576       0   69578   69579
   69579       0   69581   69582   69582       0   69584   69585   69585       0
   69587   69588   69588       0   69590   69591   69591       0   69593   69594
   69594       0   69596   69597   69597       0   69599   69600   69600       0
   69602   69603   69603       0   69605   69606   69606       0   69608   69609
   69609       0   69611   69612   69612       0   69614   69615   69615       0
   69617   69618   69618       0   69620   69621   69621       0   69623   69624
   69624       0   69626   69627   69627       0   69629   69630   69630       0
   69632   69633   69633       0   69635   69636   69636       0   69638   69639
   69639       0   69641   69642   69642       0   69644   69645   69645       0
   69647   69648   69648       0   69650   69651   69651       0   69653   69654
   69654       0   69656   69657   69657       0   69659   69660   69660       0
   69662   69663   69663       0   69665   69666   69666       0   69668   69669
   69669       0   69671   69672   69672       0   69674   69675   69675       0
   69677   69678   69678       0   69680   69681   69681       0   69683   69684
   69684       0   69686   69687   69687       0   69689   69690   69690       0
   69692   69693   69693       0   69695   69696   69696       0   69698   69699
   69699       0   69701   69702   69702       0   69704   69705   69705       0
   69707   69708   69708       0   69710   69711   69711       0   69713   69714
   69714       0   69716   69717   69717       0   69719   69720   69720       0
   69722   69723   69723       0   69725   69726   69726       0   69728   69729
   69729       0   69731   69732   69732       0   69734   69735   69735       0
   69737   69738   69738       0   69740   69741   69741       0   69743   69744
   69744       0   69746   69747   69747       0   69749   69750   69750       0
   69752   69753   69753       0   69755   69756   69756       0   69758   69759
   69759       0   69761   69762   69762       0   69764   69765   69765       0
   69767   69768   69768       0   69770   69771   69771       0   69773   69774
   69774       0   69776   69777   69777       0   69779   69780   69780       0
   69782   69783   69783       0   69785   69786   69786       0   69788   69789
   69789       0   69791   69792   69792       0   69794   69795   69795       0
   69797   69798   69798       0   69800   69801   69801       0   69803   69804
   69804       0   69806   69807   69807       0   69809   69810   69810       0
   69812   69813   69813       0   69815   69816   69816       0   69818   69819
   69819       0   69821   69822   69822       0   69824   69825   69825       0
   69827   69828   69828       0   69830   69831   69831       0   69833   69834
   69834       0   69836   69837   69837       0   69839   69840   69840       0
   69842   69843   69843       0   69845   69846   69846       0   69848   69849
   69849       0   69851   69852   69852       0   69854   69855   69855       0
   69857   69858   69858       0   69860   69861   69861       0   69863   69864
   69864       0   69866   69867   69867       0   69869   69870   69870       0
   69872   69873   69873       0   69875   69876   69876       0   69878   69879
   69879       0   69881   69882   69882       0   69884   69885   69885       0
   69887   69888   69888       0   69890   69891   69891       0   69893   69894
   69894       0   69896   69897   69897       0   69899   69900   69900       0
   69902   69903   69903       0   69905   69906   69906       0   69908   69909
   69909       0   69911   69912   69912       0   69914   69915   69915       0
   69917   69918   69918       0   69920   69921   69921       0   69923   69924
   69924       0   69926   69927   69927       0   69929   69930   69930       0
   69932   69933   69933       0   69935   69936   69936       0   69938   69939
   69939       0   69941   69942   69942       0   69944   69945   69945       0
   69947   69948   69948       0   69950   69951   69951       0   69953   69954
   69954       0   69956   69957   69957       0   69959   69960   69960       0
   69962   69963   69963       0   69965   69966   69966       0   69968   69969
   69969       0   69971   69972   69972       0   69974   69975   69975       0
   69977   69978   69978       0   69980   69981   69981       0   69983   69984
   69984       0   69986   69987   69987       0   69989   69990   69990       0
   69992   69993   69993       0   69995   69996   69996       0   69998   69999
   69999       0   70001   70002   70002       0   70004   70005   70005       0
   70007   70008   70008       0   70010   70011   70011       0   70013   70014
   70014       0   70016   70017   70017       0   70019   70020   70020       0
   70022   70023   70023       0   70025   70026   70026       0   70028   70029
   70029       0   70031   70032   70032       0   70034   70035   70035       0
   70037   70038   70038       0   70040   70041   70041       0   70043   70044
   70044       0   70046   70047   70047       0   70049   70050   70050       0
   70052   70053   70053       0   70055   70056   70056       0   70058   70059
   70059       0   70061   70062   70062       0   70064   70065   70065       0
   70067   70068   70068       0   70070   70071   70071       0   70073   70074
   70074       0   70076   70077   70077       0   70079   70080   70080       0
   70082   70083   70083       0   70085   70086   70086       0   70088   70089
   70089       0   70091   70092   70092       0   70094   70095   70095       0
   70097   70098   70098       0   70100   70101   70101       0   70103   70104
   70104       0   70106   70107   70107       0   70109   70110   70110       0
   70112   70113   70113       0   70115   70116   70116       0   70118   70119
   70119       0   70121   70122   70122       0   70124   70125   70125       0
   70127   70128   70128       0   70130   70131   70131       0   70133   70134
   70134       0   70136   70137   70137       0   70139   70140   70140       0
   70142   70143   70143       0   70145   70146   70146       0   70148   70149
   70149       0   70151   70152   70152       0   70154   70155   70155       0
   70157   70158   70158       0   70160   70161   70161       0   70163   70164
   70164       0   70166   70167   70167       0   70169   70170   70170       0
   70172   70173   70173       0   70175   70176   70176       0   70178   70179
   70179       0   70181   70182   70182       0   70184   70185   70185       0
   70187   70188   70188       0   70190   70191   70191       0   70193   70194
   70194       0   70196   70197   70197       0   70199   70200   70200       0
   70202   70203   70203       0   70205   70206   70206       0   70208   70209
   70209       0   70211   70212   70212       0   70214   70215   70215       0
   70217   70218   70218       0   70220   70221   70221       0   70223   70224
   70224       0   70226   70227   70227       0   70229   70230   70230       0
   70232   70233   70233       0   70235   70236   70236       0   70238   70239
   70239       0   70241   70242   70242       0   70244   70245   70245       0
   70247   70248   70248       0   70250   70251   70251       0   70253   70254
   70254       0   70256   70257   70257       0   70259   70260   70260       0
   70262   70263   70263       0   70265   70266   70266       0   70268   70269
   70269       0   70271   70272   70272       0   70274   70275   70275       0
   70277   70278   70278       0   70280   70281   70281       0   70283   70284
   70284       0   70286   70287   70287       0   70289   70290   70290       0
   70292   70293   70293       0   70295   70296   70296       0   70298   70299
   70299       0   70301   70302   70302       0   70304   70305   70305       0
   70307   70308   70308       0   70310   70311   70311       0   70313   70314
   70314       0   70316   70317   70317       0   70319   70320   70320       0
   70322   70323   70323       0   70325   70326   70326       0   70328   70329
   70329       0   70331   70332   70332       0   70334   70335   70335       0
   70337   70338   70338       0   70340   70341   70341       0   70343   70344
   70344       0   70346   70347   70347       0   70349   70350   70350       0
   70352   70353   70353       0   70355   70356   70356       0   70358   70359
   70359       0   70361   70362   70362       0   70364   70365   70365       0
   70367   70368   70368       0   70370   70371   70371       0   70373   70374
   70374       0   70376   70377   70377       0   70379   70380   70380       0
   70382   70383   70383       0   70385   70386   70386       0   70388   70389
   70389       0   70391   70392   70392       0   70394   70395   70395       0
   70397   70398   70398       0   70400   70401   70401       0   70403   70404
   70404       0   70406   70407   70407       0   70409   70410   70410       0
   70412   70413   70413       0   70415   70416   70416       0   70418   70419
   70419       0   70421   70422   70422       0   70424   70425   70425       0
   70427   70428   70428       0   70430   70431   70431       0   70433   70434
   70434       0   70436   70437   70437       0   70439   70440   70440       0
   70442   70443   70443       0   70445   70446   70446       0   70448   70449
   70449       0   70451   70452   70452       0   70454   70455   70455       0
   70457   70458   70458       0   70460   70461   70461       0   70463   70464
   70464       0   70466   70467   70467       0   70469   70470   70470       0
   70472   70473   70473       0   70475   70476   70476       0   70478   70479
   70479       0   70481   70482   70482       0   70484   70485   70485       0
   70487   70488   70488       0   70490   70491   70491       0   70493   70494
   70494       0   70496   70497   70497       0   70499   70500   70500       0
   70502   70503   70503       0   70505   70506   70506       0   70508   70509
   70509       0   70511   70512   70512       0   70514   70515   70515       0
   70517   70518   70518       0   70520   70521   70521       0   70523   70524
   70524       0   70526   70527   70527       0   70529   70530   70530       0
   70532   70533   70533       0   70535   70536   70536       0   70538   70539
   70539       0   70541   70542   70542       0   70544   70545   70545       0
   70547   70548   70548       0   70550   70551   70551       0   70553   70554
   70554       0   70556   70557   70557       0   70559   70560   70560       0
   70562   70563   70563       0   70565   70566   70566       0   70568   70569
   70569       0   70571   70572   70572       0   70574   70575   70575       0
   70577   70578   70578       0   70580   70581   70581       0   70583   70584
   70584       0   70586   70587   70587       0   70589   70590   70590       0
   70592   70593   70593       0   70595   70596   70596       0   70598   70599
   70599       0   70601   70602   70602       0   70604   70605   70605       0
   70607   70608   70608       0   70610   70611   70611       0   70613   70614
   70614       0   70616   70617   70617       0   70619   70620   70620       0
   70622   70623   70623       0   70625   70626   70626       0   70628   70629
   70629       0   70631   70632   70632       0   70634   70635   70635       0
   70637   70638   70638       0   70640   70641   70641       0   70643   70644
   70644       0   70646   70647   70647       0   70649   70650   70650       0
   70652   70653   70653       0   70655   70656   70656       0   70658   70659
   70659       0   70661   70662   70662       0   70664   70665   70665       0
   70667   70668   70668       0   70670   70671   70671       0   70673   70674
   70674       0   70676   70677   70677       0   70679   70680   70680       0
   70682   70683   70683       0   70685   70686   70686       0   70688   70689
   70689       0   70691   70692   70692       0   70694   70695   70695       0
   70697   70698   70698       0   70700   70701   70701       0   70703   70704
   70704       0   70706   70707   70707       0   70709   70710   70710       0
   70712   70713   70713       0   70715   70716   70716       0   70718   70719
   70719       0   70721   70722   70722       0   70724   70725   70725       0
   70727   70728   70728       0   70730   70731   70731       0   70733   70734
   70734       0   70736   70737   70737       0   70739   70740   70740       0
   70742   70743   70743       0   70745   70746   70746       0   70748   70749
   70749       0   70751   70752   70752       0   70754   70755   70755       0
   70757   70758   70758       0   70760   70761   70761       0   70763   70764
   70764       0   70766   70767   70767       0   70769   70770   70770       0
   70772   70773   70773       0   70775   70776   70776       0   70778   70779
   70779       0   70781   70782   70782       0   70784   70785   70785       0
   70787   70788   70788       0   70790   70791   70791       0   70793   70794
   70794       0   70796   70797   70797       0   70799   70800   70800       0
   70802   70803   70803       0   70805   70806   70806       0   70808   70809
   70809       0   70811   70812   70812       0   70814   70815   70815       0
   70817   70818   70818       0   70820   70821   70821       0   70823   70824
   70824       0   70826   70827   70827       0   70829   70830   70830       0
   70832   70833   70833       0   70835   70836   70836       0   70838   70839
   70839       0   70841   70842   70842       0   70844   70845   70845       0
   70847   70848   70848       0   70850   70851   70851       0   70853   70854
   70854       0   70856   70857   70857       0   70859   70860   70860       0
   70862   70863   70863       0   70865   70866   70866       0   70868   70869
   70869       0   70871   70872   70872       0   70874   70875   70875       0
   70877   70878   70878       0   70880   70881   70881       0   70883   70884
   70884       0   70886   70887   70887       0   70889   70890   70890       0
   70892   70893   70893       0   70895   70896   70896       0   70898   70899
   70899       0   70901   70902   70902       0   70904   70905   70905       0
   70907   70908   70908       0   70910   70911   70911       0   70913   70914
   70914       0   70916   70917   70917       0   70919   70920   70920       0
   70922   70923   70923       0   70925   70926   70926       0   70928   70929
   70929       0   70931   70932   70932       0   70934   70935   70935       0
   70937   70938   70938       0   70940   70941   70941       0   70943   70944
   70944       0   70946   70947   70947       0   70949   70950   70950       0
   70952   70953   70953       0   70955   70956   70956       0   70958   70959
   70959       0   70961   70962   70962       0   70964   70965   70965       0
   70967   70968   70968       0   70970   70971   70971       0   70973   70974
   70974       0   70976   70977   70977       0   70979   70980   70980       0
   70982   70983   70983       0   70985   70986   70986       0   70988   70989
   70989       0   70991   70992   70992       0   70994   70995   70995       0
   70997   70998   70998       0   71000   71001   71001       0   71003   71004
   71004       0   71006   71007   71007       0   71009   71010   71010       0
   71012   71013   71013       0   71015   71016   71016       0   71018   71019
   71019       0   71021   71022   71022       0   71024   71025   71025       0
   71027   71028   71028       0   71030   71031   71031       0   71033   71034
   71034       0   71036   71037   71037       0   71039   71040   71040       0
   71042   71043   71043       0   71045   71046   71046       0   71048   71049
   71049       0   71051   71052   71052       0   71054   71055   71055       0
   71057   71058   71058       0   71060   71061   71061       0   71063   71064
   71064       0   71066   71067   71067       0   71069   71070   71070       0
   71072   71073   71073       0   71075   71076   71076       0   71078   71079
   71079       0   71081   71082   71082       0   71084   71085   71085       0
   71087   71088   71088       0   71090   71091   71091       0   71093   71094
   71094       0   71096   71097   71097       0   71099   71100   71100       0
   71102   71103   71103       0   71105   71106   71106       0   71108   71109
   71109       0   71111   71112   71112       0   71114   71115   71115       0
   71117   71118   71118       0   71120   71121   71121       0   71123   71124
   71124       0   71126   71127   71127       0   71129   71130   71130       0
   71132   71133   71133       0   71135   71136   71136       0   71138   71139
   71139       0   71141   71142   71142       0   71144   71145   71145       0
   71147   71148   71148       0   71150   71151   71151       0   71153   71154
   71154       0   71156   71157   71157       0   71159   71160   71160       0
   71162   71163   71163       0   71165   71166   71166       0   71168   71169
   71169       0   71171   71172   71172       0   71174   71175   71175       0
   71177   71178   71178       0   71180   71181   71181       0   71183   71184
   71184       0   71186   71187   71187       0   71189   71190   71190       0
   71192   71193   71193       0   71195   71196   71196       0   71198   71199
   71199       0   71201   71202   71202       0   71204   71205   71205       0
   71207   71208   71208       0   71210   71211   71211       0   71213   71214
   71214       0   71216   71217   71217       0   71219   71220   71220       0
   71222   71223   71223       0   71225   71226   71226       0   71228   71229
   71229       0   71231   71232   71232       0   71234   71235   71235       0
   71237   71238   71238       0   71240   71241   71241       0   71243   71244
   71244       0   71246   71247   71247       0   71249   71250   71250       0
   71252   71253   71253       0   71255   71256   71256       0   71258   71259
   71259       0   71261   71262   71262       0   71264   71265   71265       0
   71267   71268   71268       0   71270   71271   71271       0   71273   71274
   71274       0   71276   71277   71277       0   71279   71280   71280       0
   71282   71283   71283       0   71285   71286   71286       0   71288   71289
   71289       0   71291   71292   71292       0   71294   71295   71295       0
   71297   71298   71298       0   71300   71301   71301       0   71303   71304
   71304       0   71306   71307   71307       0   71309   71310   71310       0
   71312   71313   71313       0   71315   71316   71316       0   71318   71319
   71319       0   71321   71322   71322       0   71324   71325   71325       0
   71327   71328   71328       0   71330   71331   71331       0   71333   71334
   71334       0   71336   71337   71337       0   71339   71340   71340       0
   71342   71343   71343       0   71345   71346   71346       0   71348   71349
   71349       0   71351   71352   71352       0   71354   71355   71355       0
   71357   71358   71358       0   71360   71361   71361       0   71363   71364
   71364       0   71366   71367   71367       0   71369   71370   71370       0
   71372   71373   71373       0   71375   71376   71376       0   71378   71379
   71379       0   71381   71382   71382       0   71384   71385   71385       0
   71387   71388   71388       0   71390   71391   71391       0   71393   71394
   71394       0   71396   71397   71397       0   71399   71400   71400       0
   71402   71403   71403       0   71405   71406   71406       0   71408   71409
   71409       0   71411   71412   71412       0   71414   71415   71415       0
   71417   71418   71418       0   71420   71421   71421       0   71423   71424
   71424       0   71426   71427   71427       0   71429   71430   71430       0
   71432   71433   71433       0   71435   71436   71436       0   71438   71439
   71439       0   71441   71442   71442       0   71444   71445   71445       0
   71447   71448   71448       0   71450   71451   71451       0   71453   71454
   71454       0   71456   71457   71457       0   71459   71460   71460       0
   71462   71463   71463       0   71465   71466   71466       0   71468   71469
   71469       0   71471   71472   71472       0   71474   71475   71475       0
   71477   71478   71478       0   71480   71481   71481       0   71483   71484
   71484       0   71486   71487   71487       0   71489   71490   71490       0
   71492   71493   71493       0   71495   71496   71496       0   71498   71499
   71499       0   71501   71502   71502       0   71504   71505   71505       0
   71507   71508   71508       0   71510   71511   71511       0   71513   71514
   71514       0   71516   71517   71517       0   71519   71520   71520       0
   71522   71523   71523       0   71525   71526   71526       0   71528   71529
   71529       0   71531   71532   71532       0   71534   71535   71535       0
   71537   71538   71538       0   71540   71541   71541       0   71543   71544
   71544       0   71546   71547   71547       0   71549   71550   71550       0
   71552   71553   71553       0   71555   71556   71556       0   71558   71559
   71559       0   71561   71562   71562       0   71564   71565   71565       0
   71567   71568   71568       0   71570   71571   71571       0   71573   71574
   71574       0   71576   71577   71577       0   71579   71580   71580       0
   71582   71583   71583       0   71585   71586   71586       0   71588   71589
   71589       0   71591   71592   71592       0   71594   71595   71595       0
   71597   71598   71598       0   71600   71601   71601       0   71603   71604
   71604       0   71606   71607   71607       0   71609   71610   71610       0
   71612   71613   71613       0   71615   71616   71616       0   71618   71619
   71619       0   71621   71622   71622       0   71624   71625   71625       0
   71627   71628   71628       0   71630   71631   71631       0   71633   71634
   71634       0   71636   71637   71637       0   71639   71640   71640       0
   71642   71643   71643       0   71645   71646   71646       0   71648   71649
   71649       0   71651   71652   71652       0   71654   71655   71655       0
   71657   71658   71658       0   71660   71661   71661       0   71663   71664
   71664       0   71666   71667   71667       0   71669   71670   71670       0
   71672   71673   71673       0   71675   71676   71676       0   71678   71679
   71679       0   71681   71682   71682       0   71684   71685   71685       0
   71687   71688   71688       0   71690   71691   71691       0   71693   71694
   71694       0   71696   71697   71697       0   71699   71700   71700       0
   71702   71703   71703       0   71705   71706   71706       0   71708   71709
   71709       0   71711   71712   71712       0   71714   71715   71715       0
   71717   71718   71718       0   71720   71721   71721       0   71723   71724
   71724       0   71726   71727   71727       0   71729   71730   71730       0
   71732   71733   71733       0   71735   71736   71736       0   71738   71739
   71739       0   71741   71742   71742       0   71744   71745   71745       0
   71747   71748   71748       0   71750   71751   71751       0   71753   71754
   71754       0   71756   71757   71757       0   71759   71760   71760       0
   71762   71763   71763       0   71765   71766   71766       0   71768   71769
   71769       0   71771   71772   71772       0   71774   71775   71775       0
   71777   71778   71778       0   71780   71781   71781       0   71783   71784
   71784       0   71786   71787   71787       0   71789   71790   71790       0
   71792   71793   71793       0   71795   71796   71796       0   71798   71799
   71799       0   71801   71802   71802       0   71804   71805   71805       0
   71807   71808   71808       0   71810   71811   71811       0   71813   71814
   71814       0   71816   71817   71817       0   71819   71820   71820       0
   71822   71823   71823       0   71825   71826   71826       0   71828   71829
   71829       0   71831   71832   71832       0   71834   71835   71835       0
   71837   71838   71838       0   71840   71841   71841       0   71843   71844
   71844       0   71846   71847   71847       0   71849   71850   71850       0
   71852   71853   71853       0   71855   71856   71856       0   71858   71859
   71859       0   71861   71862   71862       0   71864   71865   71865       0
   71867   71868   71868       0   71870   71871   71871       0   71873   71874
   71874       0   71876   71877   71877       0   71879   71880   71880       0
   71882   71883   71883       0   71885   71886   71886       0   71888   71889
   71889       0   71891   71892   71892       0   71894   71895   71895       0
   71897   71898   71898       0   71900   71901   71901       0   71903   71904
   71904       0   71906   71907   71907       0   71909   71910   71910       0
   71912   71913   71913       0   71915   71916   71916       0   71918   71919
   71919       0   71921   71922   71922       0   71924   71925   71925       0
   71927   71928   71928       0   71930   71931   71931       0   71933   71934
   71934       0   71936   71937   71937       0   71939   71940   71940       0
   71942   71943   71943       0   71945   71946   71946       0   71948   71949
   71949       0   71951   71952   71952       0   71954   71955   71955       0
   71957   71958   71958       0   71960   71961   71961       0   71963   71964
   71964       0   71966   71967   71967       0   71969   71970   71970       0
   71972   71973   71973       0   71975   71976   71976       0   71978   71979
   71979       0   71981   71982   71982       0   71984   71985   71985       0
   71987   71988   71988       0   71990   71991   71991       0   71993   71994
   71994       0   71996   71997   71997       0   71999   72000   72000       0
   72002   72003   72003       0   72005   72006   72006       0   72008   72009
   72009       0   72011   72012   72012       0   72014   72015   72015       0
   72017   72018   72018       0   72020   72021   72021       0   72023   72024
   72024       0   72026   72027   72027       0   72029   72030   72030       0
   72032   72033   72033       0   72035   72036   72036       0   72038   72039
   72039       0   72041   72042   72042       0   72044   72045   72045       0
   72047   72048   72048       0   72050   72051   72051       0   72053   72054
   72054       0   72056   72057   72057       0   72059   72060   72060       0
   72062   72063   72063       0   72065   72066   72066       0   72068   72069
   72069       0   72071   72072   72072       0   72074   72075   72075       0
   72077   72078   72078       0   72080   72081   72081       0   72083   72084
   72084       0   72086   72087   72087       0   72089   72090   72090       0
   72092   72093   72093       0   72095   72096   72096       0   72098   72099
   72099       0   72101   72102   72102       0   72104   72105   72105       0
   72107   72108   72108       0   72110   72111   72111       0   72113   72114
   72114       0   72116   72117   72117       0   72119   72120   72120       0
   72122   72123   72123       0   72125   72126   72126       0   72128   72129
   72129       0   72131   72132   72132       0   72134   72135   72135       0
   72137   72138   72138       0   72140   72141   72141       0   72143   72144
   72144       0   72146   72147   72147       0   72149   72150   72150       0
   72152   72153   72153       0   72155   72156   72156       0   72158   72159
   72159       0   72161   72162   72162       0   72164   72165   72165       0
   72167   72168   72168       0   72170   72171   72171       0   72173   72174
   72174       0   72176   72177   72177       0   72179   72180   72180       0
   72182   72183   72183       0   72185   72186   72186       0   72188   72189
   72189       0   72191   72192   72192       0   72194   72195   72195       0
   72197   72198   72198       0   72200   72201   72201       0   72203   72204
   72204       0   72206   72207   72207       0   72209   72210   72210       0
   72212   72213   72213       0   72215   72216   72216       0   72218   72219
   72219       0   72221   72222   72222       0   72224   72225   72225       0
   72227   72228   72228       0   72230   72231   72231       0   72233   72234
   72234       0   72236   72237   72237       0   72239   72240   72240       0
   72242   72243   72243       0   72245   72246   72246       0   72248   72249
   72249       0   72251   72252   72252       0   72254   72255   72255       0
   72257   72258   72258       0   72260   72261   72261       0   72263   72264
   72264       0   72266   72267   72267       0   72269   72270   72270       0
   72272   72273   72273       0   72275   72276   72276       0   72278   72279
   72279       0   72281   72282   72282       0   72284   72285   72285       0
   72287   72288   72288       0   72290   72291   72291       0   72293   72294
   72294       0   72296   72297   72297       0   72299   72300   72300       0
   72302   72303   72303       0   72305   72306   72306       0   72308   72309
   72309       0   72311   72312   72312       0   72314   72315   72315       0
   72317   72318   72318       0   72320   72321   72321       0   72323   72324
   72324       0   72326   72327   72327       0   72329   72330   72330       0
   72332   72333   72333       0   72335   72336   72336       0   72338   72339
   72339       0   72341   72342   72342       0   72344   72345   72345       0
   72347   72348   72348       0   72350   72351   72351       0   72353   72354
   72354       0   72356   72357   72357       0   72359   72360   72360       0
   72362   72363   72363       0   72365   72366   72366       0   72368   72369
   72369       0   72371   72372   72372       0   72374   72375   72375       0
   72377   72378   72378       0   72380   72381   72381       0   72383   72384
   72384       0   72386   72387   72387       0   72389   72390   72390       0
   72392   72393   72393       0   72395   72396   72396       0   72398   72399
   72399       0   72401   72402   72402       0   72404   72405   72405       0
   72407   72408   72408       0   72410   72411   72411       0   72413   72414
   72414       0   72416   72417   72417       0   72419   72420   72420       0
   72422   72423   72423       0   72425   72426   72426       0   72428   72429
   72429       0   72431   72432   72432       0   72434   72435   72435       0
   72437   72438   72438       0   72440   72441   72441       0   72443   72444
   72444       0   72446   72447   72447       0   72449   72450   72450       0
   72452   72453   72453       0   72455   72456   72456       0   72458   72459
   72459       0   72461   72462   72462       0   72464   72465   72465       0
   72467   72468   72468       0   72470   72471   72471       0   72473   72474
   72474       0   72476   72477   72477       0   72479   72480   72480       0
   72482   72483   72483       0   72485   72486   72486       0   72488   72489
   72489       0   72491   72492   72492       0   72494   72495   72495       0
   72497   72498   72498       0   72500   72501   72501       0   72503   72504
   72504       0   72506   72507   72507       0   72509   72510   72510       0
   72512   72513   72513       0   72515   72516   72516       0   72518   72519
   72519       0   72521   72522   72522       0   72524   72525   72525       0
   72527   72528   72528       0   72530   72531   72531       0   72533   72534
   72534       0   72536   72537   72537       0   72539   72540   72540       0
   72542   72543   72543       0   72545   72546   72546       0   72548   72549
   72549       0   72551   72552   72552       0   72554   72555   72555       0
   72557   72558   72558       0   72560   72561   72561       0   72563   72564
   72564       0   72566   72567   72567       0   72569   72570   72570       0
   72572   72573   72573       0   72575   72576   72576       0   72578   72579
   72579       0   72581   72582   72582       0   72584   72585   72585       0
   72587   72588   72588       0   72590   72591   72591       0   72593   72594
   72594       0   72596   72597   72597       0   72599   72600   72600       0
   72602   72603   72603       0   72605   72606   72606       0   72608   72609
   72609       0   72611   72612   72612       0   72614   72615   72615       0
   72617   72618   72618       0   72620   72621   72621       0   72623   72624
   72624       0   72626   72627   72627       0   72629   72630   72630       0
   72632   72633   72633       0   72635   72636   72636       0   72638   72639
   72639       0   72641   72642   72642       0   72644   72645   72645       0
   72647   72648   72648       0   72650   72651   72651       0   72653   72654
   72654       0   72656   72657   72657       0   72659   72660   72660       0
   72662   72663   72663       0   72665   72666   72666       0   72668   72669
   72669       0   72671   72672   72672       0   72674   72675   72675       0
   72677   72678   72678       0   72680   72681   72681       0   72683   72684
   72684       0   72686   72687   72687       0   72689   72690   72690       0
   72692   72693   72693       0   72695   72696   72696       0   72698   72699
   72699       0   72701   72702   72702       0   72704   72705   72705       0
   72707   72708   72708       0   72710   72711   72711       0   72713   72714
   72714       0   72716   72717   72717       0   72719   72720   72720       0
   72722   72723   72723       0   72725   72726   72726       0   72728   72729
   72729       0   72731   72732   72732       0   72734   72735   72735       0
   72737   72738   72738       0   72740   72741   72741       0   72743   72744
   72744       0   72746   72747   72747       0   72749   72750   72750       0
   72752   72753   72753       0   72755   72756   72756       0   72758   72759
   72759       0   72761   72762   72762       0   72764   72765   72765       0
   72767   72768   72768       0   72770   72771   72771       0   72773   72774
   72774       0   72776   72777   72777       0   72779   72780   72780       0
   72782   72783   72783       0   72785   72786   72786       0   72788   72789
   72789       0   72791   72792   72792       0   72794   72795   72795       0
   72797   72798   72798       0   72800   72801   72801       0   72803   72804
   72804       0   72806   72807   72807       0   72809   72810   72810       0
   72812   72813   72813       0   72815   72816   72816       0   72818   72819
   72819       0   72821   72822   72822       0   72824   72825   72825       0
   72827   72828   72828       0   72830   72831   72831       0   72833   72834
   72834       0   72836   72837   72837       0   72839   72840   72840       0
   72842   72843   72843       0   72845   72846   72846       0   72848   72849
   72849       0   72851   72852   72852       0   72854   72855   72855       0
   72857   72858   72858       0   72860   72861   72861       0   72863   72864
   72864       0   72866   72867   72867       0   72869   72870   72870       0
   72872   72873   72873       0   72875   72876   72876       0   72878   72879
   72879       0   72881   72882   72882       0   72884   72885   72885       0
   72887   72888   72888       0   72890   72891   72891       0   72893   72894
   72894       0   72896   72897   72897       0   72899   72900   72900       0
   72902   72903   72903       0   72905   72906   72906       0   72908   72909
   72909       0   72911   72912   72912       0   72914   72915   72915       0
   72917   72918   72918       0   72920   72921   72921       0   72923   72924
   72924       0   72926   72927   72927       0   72929   72930   72930       0
   72932   72933   72933       0   72935   72936   72936       0   72938   72939
   72939       0   72941   72942   72942       0   72944   72945   72945       0
   72947   72948   72948       0   72950   72951   72951       0   72953   72954
   72954       0   72956   72957   72957       0   72959   72960   72960       0
   72962   72963   72963       0   72965   72966   72966       0   72968   72969
   72969       0   72971   72972   72972       0   72974   72975   72975       0
   72977   72978   72978       0   72980   72981   72981       0   72983   72984
   72984       0   72986   72987   72987       0   72989   72990   72990       0
   72992   72993   72993       0   72995   72996   72996       0   72998   72999
   72999       0   73001   73002   73002       0   73004   73005   73005       0
   73007   73008   73008       0   73010   73011   73011       0   73013   73014
   73014       0   73016   73017   73017       0   73019   73020   73020       0
   73022   73023   73023       0   73025   73026   73026       0   73028   73029
   73029       0   73031   73032   73032       0   73034   73035   73035       0
   73037   73038   73038       0   73040   73041   73041       0   73043   73044
   73044       0   73046   73047   73047       0   73049   73050   73050       0
   73052   73053   73053       0   73055   73056   73056       0   73058   73059
   73059       0   73061   73062   73062       0   73064   73065   73065       0
   73067   73068   73068       0   73070   73071   73071       0   73073   73074
   73074       0   73076   73077   73077       0   73079   73080   73080       0
   73082   73083   73083       0   73085   73086   73086       0   73088   73089
   73089       0   73091   73092   73092       0   73094   73095   73095       0
   73097   73098   73098       0   73100   73101   73101       0   73103   73104
   73104       0   73106   73107   73107       0   73109   73110   73110       0
   73112   73113   73113       0   73115   73116   73116       0   73118   73119
   73119       0   73121   73122   73122       0   73124   73125   73125       0
   73127   73128   73128       0   73130   73131   73131       0   73133   73134
   73134       0   73136   73137   73137       0   73139   73140   73140       0
   73142   73143   73143       0   73145   73146   73146       0   73148   73149
   73149       0   73151   73152   73152       0   73154   73155   73155       0
   73157   73158   73158       0   73160   73161   73161       0   73163   73164
   73164       0   73166   73167   73167       0   73169   73170   73170       0
   73172   73173   73173       0   73175   73176   73176       0   73178   73179
   73179       0   73181   73182   73182       0   73184   73185   73185       0
   73187   73188   73188       0   73190   73191   73191       0   73193   73194
   73194       0   73196   73197   73197       0   73199   73200   73200       0
   73202   73203   73203       0   73205   73206   73206       0   73208   73209
   73209       0   73211   73212   73212       0   73214   73215   73215       0
   73217   73218   73218       0   73220   73221   73221       0   73223   73224
   73224       0   73226   73227   73227       0   73229   73230   73230       0
   73232   73233   73233       0   73235   73236   73236       0   73238   73239
   73239       0   73241   73242   73242       0   73244   73245   73245       0
   73247   73248   73248       0   73250   73251   73251       0   73253   73254
   73254       0   73256   73257   73257       0   73259   73260   73260       0
   73262   73263   73263       0   73265   73266   73266       0   73268   73269
   73269       0   73271   73272   73272       0   73274   73275   73275       0
   73277   73278   73278       0   73280   73281   73281       0   73283   73284
   73284       0   73286   73287   73287       0   73289   73290   73290       0
   73292   73293   73293       0   73295   73296   73296       0   73298   73299
   73299       0   73301   73302   73302       0   73304   73305   73305       0
   73307   73308   73308       0   73310   73311   73311       0   73313   73314
   73314       0   73316   73317   73317       0   73319   73320   73320       0
   73322   73323   73323       0   73325   73326   73326       0   73328   73329
   73329       0   73331   73332   73332       0   73334   73335   73335       0
   73337   73338   73338       0   73340   73341   73341       0   73343   73344
   73344       0   73346   73347   73347       0   73349   73350   73350       0
   73352   73353   73353       0   73355   73356   73356       0   73358   73359
   73359       0   73361   73362   73362       0   73364   73365   73365       0
   73367   73368   73368       0   73370   73371   73371       0   73373   73374
   73374       0   73376   73377   73377       0   73379   73380   73380       0
   73382   73383   73383       0   73385   73386   73386       0   73388   73389
   73389       0   73391   73392   73392       0   73394   73395   73395       0
   73397   73398   73398       0   73400   73401   73401       0   73403   73404
   73404       0   73406   73407   73407       0   73409   73410   73410       0
   73412   73413   73413       0   73415   73416   73416       0   73418   73419
   73419       0   73421   73422   73422       0   73424   73425   73425       0
   73427   73428   73428       0   73430   73431   73431       0   73433   73434
   73434       0   73436   73437   73437       0   73439   73440   73440       0
   73442   73443   73443       0   73445   73446   73446       0   73448   73449
   73449       0   73451   73452   73452       0   73454   73455   73455       0
   73457   73458   73458       0   73460   73461   73461       0   73463   73464
   73464       0   73466   73467   73467       0   73469   73470   73470       0
   73472   73473   73473       0   73475   73476   73476       0   73478   73479
   73479       0   73481   73482   73482       0   73484   73485   73485       0
   73487   73488   73488       0   73490   73491   73491       0   73493   73494
   73494       0   73496   73497   73497       0   73499   73500   73500       0
   73502   73503   73503       0   73505   73506   73506       0   73508   73509
   73509       0   73511   73512   73512       0   73514   73515   73515       0
   73517   73518   73518       0   73520   73521   73521       0   73523   73524
   73524       0   73526   73527   73527       0   73529   73530   73530       0
   73532   73533   73533       0   73535   73536   73536       0   73538   73539
   73539       0   73541   73542   73542       0   73544   73545   73545       0
   73547   73548   73548       0   73550   73551   73551       0   73553   73554
   73554       0   73556   73557   73557       0   73559   73560   73560       0
   73562   73563   73563       0   73565   73566   73566       0   73568   73569
   73569       0   73571   73572   73572       0   73574   73575   73575       0
   73577   73578   73578       0   73580   73581   73581       0   73583   73584
   73584       0   73586   73587   73587       0   73589   73590   73590       0
   73592   73593   73593       0   73595   73596   73596       0   73598   73599
   73599       0   73601   73602   73602       0   73604   73605   73605       0
   73607   73608   73608       0   73610   73611   73611       0   73613   73614
   73614       0   73616   73617   73617       0   73619   73620   73620       0
   73622   73623   73623       0   73625   73626   73626       0   73628   73629
   73629       0   73631   73632   73632       0   73634   73635   73635       0
   73637   73638   73638       0   73640   73641   73641       0   73643   73644
   73644       0   73646   73647   73647       0   73649   73650   73650       0
   73652   73653   73653       0   73655   73656   73656       0   73658   73659
   73659       0   73661   73662   73662       0   73664   73665   73665       0
   73667   73668   73668       0   73670   73671   73671       0   73673   73674
   73674       0   73676   73677   73677       0   73679   73680   73680       0
   73682   73683   73683       0   73685   73686   73686       0   73688   73689
   73689       0   73691   73692   73692       0   73694   73695   73695       0
   73697   73698   73698       0   73700   73701   73701       0   73703   73704
   73704       0   73706   73707   73707       0   73709   73710   73710       0
   73712   73713   73713       0   73715   73716   73716       0   73718   73719
   73719       0   73721   73722   73722       0   73724   73725   73725       0
   73727   73728   73728       0   73730   73731   73731       0   73733   73734
   73734       0   73736   73737   73737       0   73739   73740   73740       0
   73742   73743   73743       0   73745   73746   73746       0   73748   73749
   73749       0   73751   73752   73752       0   73754   73755   73755       0
   73757   73758   73758       0   73760   73761   73761       0   73763   73764
   73764       0   73766   73767   73767       0   73769   73770   73770       0
   73772   73773   73773       0   73775   73776   73776       0   73778   73779
   73779       0   73781   73782   73782       0   73784   73785   73785       0
   73787   73788   73788       0   73790   73791   73791       0   73793   73794
   73794       0   73796   73797   73797       0   73799   73800   73800       0
   73802   73803   73803       0   73805   73806   73806       0   73808   73809
   73809       0   73811   73812   73812       0   73814   73815   73815       0
   73817   73818   73818       0   73820   73821   73821       0   73823   73824
   73824       0   73826   73827   73827       0   73829   73830   73830       0
   73832   73833   73833       0   73835   73836   73836       0   73838   73839
   73839       0   73841   73842   73842       0   73844   73845   73845       0
   73847   73848   73848       0   73850   73851   73851       0   73853   73854
   73854       0   73856   73857   73857       0   73859   73860   73860       0
   73862   73863   73863       0   73865   73866   73866       0   73868   73869
   73869       0   73871   73872   73872       0   73874   73875   73875       0
   73877   73878   73878       0   73880   73881   73881       0   73883   73884
   73884       0   73886   73887   73887       0   73889   73890   73890       0
   73892   73893   73893       0   73895   73896   73896       0   73898   73899
   73899       0   73901   73902   73902       0   73904   73905   73905       0
   73907   73908   73908       0   73910   73911   73911       0   73913   73914
   73914       0   73916   73917   73917       0   73919   73920   73920       0
   73922   73923   73923       0   73925   73926   73926       0   73928   73929
   73929       0   73931   73932   73932       0   73934   73935   73935       0
   73937   73938   73938       0   73940   73941   73941       0   73943   73944
   73944       0   73946   73947   73947       0   73949   73950   73950       0
   73952   73953   73953       0   73955   73956   73956       0   73958   73959
   73959       0   73961   73962   73962       0   73964   73965   73965       0
   73967   73968   73968       0   73970   73971   73971       0   73973   73974
   73974       0   73976   73977   73977       0   73979   73980   73980       0
   73982   73983   73983       0   73985   73986   73986       0   73988   73989
   73989       0   73991   73992   73992       0   73994   73995   73995       0
   73997   73998   73998       0   74000   74001   74001       0   74003   74004
   74004       0   74006   74007   74007       0   74009   74010   74010       0
   74012   74013   74013       0   74015   74016   74016       0   74018   74019
   74019       0   74021   74022   74022       0   74024   74025   74025       0
   74027   74028   74028       0   74030   74031   74031       0   74033   74034
   74034       0   74036   74037   74037       0   74039   74040   74040       0
   74042   74043   74043       0   74045   74046   74046       0   74048   74049
   74049       0   74051   74052   74052       0   74054   74055   74055       0
   74057   74058   74058       0   74060   74061   74061       0   74063   74064
   74064       0   74066   74067   74067       0   74069   74070   74070       0
   74072   74073   74073       0   74075   74076   74076       0   74078   74079
   74079       0   74081   74082   74082       0   74084   74085   74085       0
   74087   74088   74088       0   74090   74091   74091       0   74093   74094
   74094       0   74096   74097   74097       0   74099   74100   74100       0
   74102   74103   74103       0   74105   74106   74106       0   74108   74109
   74109       0   74111   74112   74112       0   74114   74115   74115       0
   74117   74118   74118       0   74120   74121   74121       0   74123   74124
   74124       0   74126   74127   74127       0   74129   74130   74130       0
   74132   74133   74133       0   74135   74136   74136       0   74138   74139
   74139       0   74141   74142   74142       0   74144   74145   74145       0
   74147   74148   74148       0   74150   74151   74151       0   74153   74154
   74154       0   74156   74157   74157       0   74159   74160   74160       0
   74162   74163   74163       0   74165   74166   74166       0   74168   74169
   74169       0   74171   74172   74172       0   74174   74175   74175       0
   74177   74178   74178       0   74180   74181   74181       0   74183   74184
   74184       0   74186   74187   74187       0   74189   74190   74190       0
   74192   74193   74193       0   74195   74196   74196       0   74198   74199
   74199       0   74201   74202   74202       0   74204   74205   74205       0
   74207   74208   74208       0   74210   74211   74211       0   74213   74214
   74214       0   74216   74217   74217       0   74219   74220   74220       0
   74222   74223   74223       0   74225   74226   74226       0   74228   74229
   74229       0   74231   74232   74232       0   74234   74235   74235       0
   74237   74238   74238       0   74240   74241   74241       0   74243   74244
   74244       0   74246   74247   74247       0   74249   74250   74250       0
   74252   74253   74253       0   74255   74256   74256       0   74258   74259
   74259       0   74261   74262   74262       0   74264   74265   74265       0
   74267   74268   74268       0   74270   74271   74271       0   74273   74274
   74274       0   74276   74277   74277       0   74279   74280   74280       0
   74282   74283   74283       0   74285   74286   74286       0   74288   74289
   74289       0   74291   74292   74292       0   74294   74295   74295       0
   74297   74298   74298       0   74300   74301   74301       0   74303   74304
   74304       0   74306   74307   74307       0   74309   74310   74310       0
   74312   74313   74313       0   74315   74316   74316       0   74318   74319
   74319       0   74321   74322   74322       0   74324   74325   74325       0
   74327   74328   74328       0   74330   74331   74331       0   74333   74334
   74334       0   74336   74337   74337       0   74339   74340   74340       0
   74342   74343   74343       0   74345   74346   74346       0   74348   74349
   74349       0   74351   74352   74352       0   74354   74355   74355       0
   74357   74358   74358       0   74360   74361   74361       0   74363   74364
   74364       0   74366   74367   74367       0   74369   74370   74370       0
   74372   74373   74373       0   74375   74376   74376       0   74378   74379
   74379       0   74381   74382   74382       0   74384   74385   74385       0
   74387   74388   74388       0   74390   74391   74391       0   74393   74394
   74394       0   74396   74397   74397       0   74399   74400   74400       0
   74402   74403   74403       0   74405   74406   74406       0   74408   74409
   74409       0   74411   74412   74412       0   74414   74415   74415       0
   74417   74418   74418       0   74420   74421   74421       0   74423   74424
   74424       0   74426   74427   74427       0   74429   74430   74430       0
   74432   74433   74433       0   74435   74436   74436       0   74438   74439
   74439       0   74441   74442   74442       0   74444   74445   74445       0
   74447   74448   74448       0   74450   74451   74451       0   74453   74454
   74454       0   74456   74457   74457       0   74459   74460   74460       0
   74462   74463   74463       0   74465   74466   74466       0   74468   74469
   74469       0   74471   74472   74472       0   74474   74475   74475       0
   74477   74478   74478       0   74480   74481   74481       0   74483   74484
   74484       0   74486   74487   74487       0   74489   74490   74490       0
   74492   74493   74493       0   74495   74496   74496       0   74498   74499
   74499       0   74501   74502   74502       0   74504   74505   74505       0
   74507   74508   74508       0   74510   74511   74511       0   74513   74514
   74514       0   74516   74517   74517       0   74519   74520   74520       0
   74522   74523   74523       0   74525   74526   74526       0   74528   74529
   74529       0   74531   74532   74532       0   74534   74535   74535       0
   74537   74538   74538       0   74540   74541   74541       0   74543   74544
   74544       0   74546   74547   74547       0   74549   74550   74550       0
   74552   74553   74553       0   74555   74556   74556       0   74558   74559
   74559       0   74561   74562   74562       0   74564   74565   74565       0
   74567   74568   74568       0   74570   74571   74571       0   74573   74574
   74574       0   74576   74577   74577       0   74579   74580   74580       0
   74582   74583   74583       0   74585   74586   74586       0   74588   74589
   74589       0   74591   74592   74592       0   74594   74595   74595       0
   74597   74598   74598       0   74600   74601   74601       0   74603   74604
   74604       0   74606   74607   74607       0   74609   74610   74610       0
   74612   74613   74613       0   74615   74616   74616       0   74618   74619
   74619       0   74621   74622   74622       0   74624   74625   74625       0
   74627   74628   74628       0   74630   74631   74631       0   74633   74634
   74634       0   74636   74637   74637       0   74639   74640   74640       0
   74642   74643   74643       0   74645   74646   74646       0   74648   74649
   74649       0   74651   74652   74652       0   74654   74655   74655       0
   74657   74658   74658       0   74660   74661   74661       0   74663   74664
   74664       0   74666   74667   74667       0   74669   74670   74670       0
   74672   74673   74673       0   74675   74676   74676       0   74678   74679
   74679       0   74681   74682   74682       0   74684   74685   74685       0
   74687   74688   74688       0   74690   74691   74691       0   74693   74694
   74694       0   74696   74697   74697       0   74699   74700   74700       0
   74702   74703   74703       0   74705   74706   74706       0   74708   74709
   74709       0   74711   74712   74712       0   74714   74715   74715       0
   74717   74718   74718       0   74720   74721   74721       0   74723   74724
   74724       0   74726   74727   74727       0   74729   74730   74730       0
   74732   74733   74733       0   74735   74736   74736       0   74738   74739
   74739       0   74741   74742   74742       0   74744   74745   74745       0
   74747   74748   74748       0   74750   74751   74751       0   74753   74754
   74754       0   74756   74757   74757       0   74759   74760   74760       0
   74762   74763   74763       0   74765   74766   74766       0   74768   74769
   74769       0   74771   74772   74772       0   74774   74775   74775       0
   74777   74778   74778       0   74780   74781   74781       0   74783   74784
   74784       0   74786   74787   74787       0   74789   74790   74790       0
   74792   74793   74793       0   74795   74796   74796       0   74798   74799
   74799       0   74801   74802   74802       0   74804   74805   74805       0
   74807   74808   74808       0   74810   74811   74811       0   74813   74814
   74814       0   74816   74817   74817       0   74819   74820   74820       0
   74822   74823   74823       0   74825   74826   74826       0   74828   74829
   74829       0   74831   74832   74832       0   74834   74835   74835       0
   74837   74838   74838       0   74840   74841   74841       0   74843   74844
   74844       0   74846   74847   74847       0   74849   74850   74850       0
   74852   74853   74853       0   74855   74856   74856       0   74858   74859
   74859       0   74861   74862   74862       0   74864   74865   74865       0
%FLAG HBOND_ACOEF                                                               
%FORMAT(5E16.8)                                                                 

%FLAG HBOND_BCOEF                                                               
%FORMAT(5E16.8)                                                                 

%FLAG HBCUT                                                                     
%FORMAT(5E16.8)                                                                 

%FLAG AMBER_ATOM_TYPE                                                           
%FORMAT(20a4)                                                                   
ca  ca  ca  ca  ca  ca  ca  ca  ca  ca  ca  ca  ca  ca  ca  ca  ha  ha  ha  ha  
ha  ha  ha  ha  ha  ha  c2  ha  ha  o   c   c5  hc  c5  c5  c2  c5  c5  c2  hc  
n   c3  c3  c3  c3  os  c6  c6  oh  c6  c3  oh  os  c6  oh  c6  oh  c   o   hc  
ha  hc  hc  hc  ha  h1  h1  hc  hc  hc  hc  h1  h1  h1  h1  ho  h1  h1  h1  ho  
h2  ho  h1  ho  o   c   c5  hc  c5  c5  c2  c5  c5  c2  hc  n   c3  c3  c3  c3  
os  c6  c6  oh  c6  c3  oh  os  c6  oh  c6  oh  c   o   hc  ha  hc  hc  hc  ha  
h1  h1  hc  hc  hc  hc  h1  h1  h1  h1  ho  h1  h1  h1  ho  h2  ho  h1  ho  o   
c   c5  hc  c5  c5  c2  c5  c5  c2  hc  n   c3  c3  c3  c3  os  c6  c6  oh  c6  
c3  oh  os  c6  oh  c6  oh  c   o   hc  ha  hc  hc  hc  ha  h1  h1  hc  hc  hc  
hc  h1  h1  h1  h1  ho  h1  h1  h1  ho  h2  ho  h1  ho  o   c   c5  hc  c5  c5  
c2  c5  c5  c2  hc  n   c3  c3  c3  c3  os  c6  c6  oh  c6  c3  oh  os  c6  oh  
c6  oh  c   o   hc  ha  hc  hc  hc  ha  h1  h1  hc  hc  hc  hc  h1  h1  h1  h1  
ho  h1  h1  h1  ho  h2  ho  h1  ho  o   c   c5  hc  c5  c5  c2  c5  c5  c2  hc  
n   c3  c3  c3  c3  os  c6  c6  oh  c6  c3  oh  os  c6  oh  c6  oh  c   o   hc  
ha  hc  hc  hc  ha  h1  h1  hc  hc  hc  hc  h1  h1  h1  h1  ho  h1  h1  h1  ho  
h2  ho  h1  ho  o   c   c5  hc  c5  c5  c2  c5  c5  c2  hc  n   c3  c3  c3  c3  
os  c6  c6  oh  c6  c3  oh  os  c6  oh  c6  oh  c   o   hc  ha  hc  hc  hc  ha  
h1  h1  hc  hc  hc  hc  h1  h1  h1  h1  ho  h1  h1  h1  ho  h2  ho  h1  ho  o   
c   c5  hc  c5  c5  c2  c5  c5  c2  hc  n   c3  c3  c3  c3  os  c6  c6  oh  c6  
c3  oh  os  c6  oh  c6  oh  c   o   hc  ha  hc  hc  hc  ha  h1  h1  hc  hc  hc  
hc  h1  h1  h1  h1  ho  h1  h1  h1  ho  h2  ho  h1  ho  o   c   c5  hc  c5  c5  
c2  c5  c5  c2  hc  n   c3  c3  c3  c3  os  c6  c6  oh  c6  c3  oh  os  c6  oh  
c6  oh  c   o   hc  ha  hc  hc  hc  ha  h1  h1  hc  hc  hc  hc  h1  h1  h1  h1  
ho  h1  h1  h1  ho  h2  ho  h1  ho  o   c   c5  hc  c5  c5  c2  c5  c5  c2  hc  
n   c3  c3  c3  c3  os  c6  c6  oh  c6  c3  oh  os  c6  oh  c6  oh  c   o   hc  
ha  hc  hc  hc  ha  h1  h1  hc  hc  hc  hc  h1  h1  h1  h1  ho  h1  h1  h1  ho  
h2  ho  h1  ho  o   c   c5  hc  c5  c5  c2  c5  c5  c2  hc  n   c3  c3  c3  c3  
os  c6  c6  oh  c6  c3  oh  os  c6  oh  c6  oh  c   o   hc  ha  hc  hc  hc  ha  
h1  h1  hc  hc  hc  hc  h1  h1  h1  h1  ho  h1  h1  h1  ho  h2  ho  h1  ho  c2  
ha  ha  c2  ha  ha  o   c   c5  hc  c5  c5  c2  c5  c5  c2  hc  n   c3  c3  c3  
c3  os  c6  c6  oh  c6  c3  oh  os  c6  oh  c6  oh  c   o   hc  ha  hc  hc  hc  
ha  h1  h1  hc  hc  hc  hc  h1  h1  h1  h1  ho  h1  h1  h1  ho  h2  ho  h1  ho  
o   c   c5  hc  c5  c5  c2  c5  c5  c2  hc  n   c3  c3  c3  c3  os  c6  c6  oh  
c6  c3  oh  os  c6  oh  c6  oh  c   o   hc  ha  hc  hc  hc  ha  h1  h1  hc  hc  
hc  hc  h1  h1  h1  h1  ho  h1  h1  h1  ho  h2  ho  h1  ho  o   c   c5  hc  c5  
c5  c2  c5  c5  c2  hc  n   c3  c3  c3  c3  os  c6  c6  oh  c6  c3  oh  os  c6  
oh  c6  oh  c   o   hc  ha  hc  hc  hc  ha  h1  h1  hc  hc  hc  hc  h1  h1  h1  
h1  ho  h1  h1  h1  ho  h2  ho  h1  ho  o   c   c5  hc  c5  c5  c2  c5  c5  c2  
hc  n   c3  c3  c3  c3  os  c6  c6  oh  c6  c3  oh  os  c6  oh  c6  oh  c   o   
hc  ha  hc  hc  hc  ha  h1  h1  hc  hc  hc  hc  h1  h1  h1  h1  ho  h1  h1  h1  
ho  h2  ho  h1  ho  o   c   c5  hc  c5  c5  c2  c5  c5  c2  hc  n   c3  c3  c3  
c3  os  c6  c6  oh  c6  c3  oh  os  c6  oh  c6  oh  c   o   hc  ha  hc  hc  hc  
ha  h1  h1  hc  hc  hc  hc  h1  h1  h1  h1  ho  h1  h1  h1  ho  h2  ho  h1  ho  
o   c   c5  hc  c5  c5  c2  c5  c5  c2  hc  n   c3  c3  c3  c3  os  c6  c6  oh  
c6  c3  oh  os  c6  oh  c6  oh  c   o   hc  ha  hc  hc  hc  ha  h1  h1  hc  hc  
hc  hc  h1  h1  h1  h1  ho  h1  h1  h1  ho  h2  ho  h1  ho  o   c   c5  hc  c5  
c5  c2  c5  c5  c2  hc  n   c3  c3  c3  c3  os  c6  c6  oh  c6  c3  oh  os  c6  
oh  c6  oh  c   o   hc  ha  hc  hc  hc  ha  h1  h1  hc  hc  hc  hc  h1  h1  h1  
h1  ho  h1  h1  h1  ho  h2  ho  h1  ho  o   c   c5  hc  c5  c5  c2  c5  c5  c2  
hc  n   c3  c3  c3  c3  os  c6  c6  oh  c6  c3  oh  os  c6  oh  c6  oh  c   o   
hc  ha  hc  hc  hc  ha  h1  h1  hc  hc  hc  hc  h1  h1  h1  h1  ho  h1  h1  h1  
ho  h2  ho  h1  ho  o   c   c5  hc  c5  c5  c2  c5  c5  c2  hc  n   c3  c3  c3  
c3  os  c6  c6  oh  c6  c3  oh  os  c6  oh  c6  oh  c   o   hc  ha  hc  hc  hc  
ha  h1  h1  hc  hc  hc  hc  h1  h1  h1  h1  ho  h1  h1  h1  ho  h2  ho  h1  ho  
o   c   c5  hc  c5  c5  c2  c5  c5  c2  hc  n   c3  c3  c3  c3  os  c6  c6  oh  
c6  c3  oh  os  c6  oh  c6  oh  c   o   hc  ha  hc  hc  hc  ha  h1  h1  hc  hc  
hc  hc  h1  h1  h1  h1  ho  h1  h1  h1  ho  h2  ho  h1  ho  c2  ha  ha  c2  ha  
ha  o   c   c5  hc  c5  c5  c2  c5  c5  c2  hc  n   c3  c3  c3  c3  os  c6  c6  
oh  c6  c3  oh  os  c6  oh  c6  oh  c   o   hc  ha  hc  hc  hc  ha  h1  h1  hc  
hc  hc  hc  h1  h1  h1  h1  ho  h1  h1  h1  ho  h2  ho  h1  ho  o   c   c5  hc  
c5  c5  c2  c5  c5  c2  hc  n   c3  c3  c3  c3  os  c6  c6  oh  c6  c3  oh  os  
c6  oh  c6  oh  c   o   hc  ha  hc  hc  hc  ha  h1  h1  hc  hc  hc  hc  h1  h1  
h1  h1  ho  h1  h1  h1  ho  h2  ho  h1  ho  o   c   c5  hc  c5  c5  c2  c5  c5  
c2  hc  n   c3  c3  c3  c3  os  c6  c6  oh  c6  c3  oh  os  c6  oh  c6  oh  c   
o   hc  ha  hc  hc  hc  ha  h1  h1  hc  hc  hc  hc  h1  h1  h1  h1  ho  h1  h1  
h1  ho  h2  ho  h1  ho  o   c   c5  hc  c5  c5  c2  c5  c5  c2  hc  n   c3  c3  
c3  c3  os  c6  c6  oh  c6  c3  oh  os  c6  oh  c6  oh  c   o   hc  ha  hc  hc  
hc  ha  h1  h1  hc  hc  hc  hc  h1  h1  h1  h1  ho  h1  h1  h1  ho  h2  ho  h1  
ho  o   c   c5  hc  c5  c5  c2  c5  c5  c2  hc  n   c3  c3  c3  c3  os  c6  c6  
oh  c6  c3  oh  os  c6  oh  c6  oh  c   o   hc  ha  hc  hc  hc  ha  h1  h1  hc  
hc  hc  hc  h1  h1  h1  h1  ho  h1  h1  h1  ho  h2  ho  h1  ho  o   c   c5  hc  
c5  c5  c2  c5  c5  c2  hc  n   c3  c3  c3  c3  os  c6  c6  oh  c6  c3  oh  os  
c6  oh  c6  oh  c   o   hc  ha  hc  hc  hc  ha  h1  h1  hc  hc  hc  hc  h1  h1  
h1  h1  ho  h1  h1  h1  ho  h2  ho  h1  ho  o   c   c5  hc  c5  c5  c2  c5  c5  
c2  hc  n   c3  c3  c3  c3  os  c6  c6  oh  c6  c3  oh  os  c6  oh  c6  oh  c   
o   hc  ha  hc  hc  hc  ha  h1  h1  hc  hc  hc  hc  h1  h1  h1  h1  ho  h1  h1  
h1  ho  h2  ho  h1  ho  o   c   c5  hc  c5  c5  c2  c5  c5  c2  hc  n   c3  c3  
c3  c3  os  c6  c6  oh  c6  c3  oh  os  c6  oh  c6  oh  c   o   hc  ha  hc  hc  
hc  ha  h1  h1  hc  hc  hc  hc  h1  h1  h1  h1  ho  h1  h1  h1  ho  h2  ho  h1  
ho  o   c   c5  hc  c5  c5  c2  c5  c5  c2  hc  n   c3  c3  c3  c3  os  c6  c6  
oh  c6  c3  oh  os  c6  oh  c6  oh  c   o   hc  ha  hc  hc  hc  ha  h1  h1  hc  
hc  hc  hc  h1  h1  h1  h1  ho  h1  h1  h1  ho  h2  ho  h1  ho  o   c   c5  hc  
c5  c5  c2  c5  c5  c2  hc  n   c3  c3  c3  c3  os  c6  c6  oh  c6  c3  oh  os  
c6  oh  c6  oh  c   o   hc  ha  hc  hc  hc  ha  h1  h1  hc  hc  hc  hc  h1  h1  
h1  h1  ho  h1  h1  h1  ho  h2  ho  h1  ho  c2  ha  ha  c2  ha  ha  o   c   c5  
hc  c5  c5  c2  c5  c5  c2  hc  n   c3  c3  c3  c3  os  c6  c6  oh  c6  c3  oh  
os  c6  oh  c6  oh  c   o   hc  ha  hc  hc  hc  ha  h1  h1  hc  hc  hc  hc  h1  
h1  h1  h1  ho  h1  h1  h1  ho  h2  ho  h1  ho  o   c   c5  hc  c5  c5  c2  c5  
c5  c2  hc  n   c3  c3  c3  c3  os  c6  c6  oh  c6  c3  oh  os  c6  oh  c6  oh  
c   o   hc  ha  hc  hc  hc  ha  h1  h1  hc  hc  hc  hc  h1  h1  h1  h1  ho  h1  
h1  h1  ho  h2  ho  h1  ho  o   c   c5  hc  c5  c5  c2  c5  c5  c2  hc  n   c3  
c3  c3  c3  os  c6  c6  oh  c6  c3  oh  os  c6  oh  c6  oh  c   o   hc  ha  hc  
hc  hc  ha  h1  h1  hc  hc  hc  hc  h1  h1  h1  h1  ho  h1  h1  h1  ho  h2  ho  
h1  ho  o   c   c5  hc  c5  c5  c2  c5  c5  c2  hc  n   c3  c3  c3  c3  os  c6  
c6  oh  c6  c3  oh  os  c6  oh  c6  oh  c   o   hc  ha  hc  hc  hc  ha  h1  h1  
hc  hc  hc  hc  h1  h1  h1  h1  ho  h1  h1  h1  ho  h2  ho  h1  ho  o   c   c5  
hc  c5  c5  c2  c5  c5  c2  hc  n   c3  c3  c3  c3  os  c6  c6  oh  c6  c3  oh  
os  c6  oh  c6  oh  c   o   hc  ha  hc  hc  hc  ha  h1  h1  hc  hc  hc  hc  h1  
h1  h1  h1  ho  h1  h1  h1  ho  h2  ho  h1  ho  o   c   c5  hc  c5  c5  c2  c5  
c5  c2  hc  n   c3  c3  c3  c3  os  c6  c6  oh  c6  c3  oh  os  c6  oh  c6  oh  
c   o   hc  ha  hc  hc  hc  ha  h1  h1  hc  hc  hc  hc  h1  h1  h1  h1  ho  h1  
h1  h1  ho  h2  ho  h1  ho  o   c   c5  hc  c5  c5  c2  c5  c5  c2  hc  n   c3  
c3  c3  c3  os  c6  c6  oh  c6  c3  oh  os  c6  oh  c6  oh  c   o   hc  ha  hc  
hc  hc  ha  h1  h1  hc  hc  hc  hc  h1  h1  h1  h1  ho  h1  h1  h1  ho  h2  ho  
h1  ho  o   c   c5  hc  c5  c5  c2  c5  c5  c2  hc  n   c3  c3  c3  c3  os  c6  
c6  oh  c6  c3  oh  os  c6  oh  c6  oh  c   o   hc  ha  hc  hc  hc  ha  h1  h1  
hc  hc  hc  hc  h1  h1  h1  h1  ho  h1  h1  h1  ho  h2  ho  h1  ho  o   c   c5  
hc  c5  c5  c2  c5  c5  c2  hc  n   c3  c3  c3  c3  os  c6  c6  oh  c6  c3  oh  
os  c6  oh  c6  oh  c   o   hc  ha  hc  hc  hc  ha  h1  h1  hc  hc  hc  hc  h1  
h1  h1  h1  ho  h1  h1  h1  ho  h2  ho  h1  ho  o   c   c5  hc  c5  c5  c2  c5  
c5  c2  hc  n   c3  c3  c3  c3  os  c6  c6  oh  c6  c3  oh  os  c6  oh  c6  oh  
c   o   hc  ha  hc  hc  hc  ha  h1  h1  hc  hc  hc  hc  h1  h1  h1  h1  ho  h1  
h1  h1  ho  h2  ho  h1  ho  c2  ha  ha  OW  HW  HW  OW  HW  HW  OW  HW  HW  OW  
HW  HW  OW  HW  HW  OW  HW  HW  OW  HW  HW  OW  HW  HW  OW  HW  HW  OW  HW  HW  
OW  HW  HW  OW  HW  HW  OW  HW  HW  OW  HW  HW  OW  HW  HW  OW  HW  HW  OW  HW  
HW  OW  HW  HW  OW  HW  HW  OW  HW  HW  OW  HW  HW  OW  HW  HW  OW  HW  HW  OW  
HW  HW  OW  HW  HW  OW  HW  HW  OW  HW  HW  OW  HW  HW  OW  HW  HW  OW  HW  HW  
OW  HW  HW  OW  HW  HW  OW  HW  HW  OW  HW  HW  OW  HW  HW  OW  HW  HW  OW  HW  
HW  OW  HW  HW  OW  HW  HW  OW  HW  HW  OW  HW  HW  OW  HW  HW  OW  HW  HW  OW  
HW  HW  OW  HW  HW  OW  HW  HW  OW  HW  HW  OW  HW  HW  OW  HW  HW  OW  HW  HW  
OW  HW  HW  OW  HW  HW  OW  HW  HW  OW  HW  HW  OW  HW  HW  OW  HW  HW  OW  HW  
HW  OW  HW  HW  OW  HW  HW  OW  HW  HW  OW  HW  HW  OW  HW  HW  OW  HW  HW  OW  
HW  HW  OW  HW  HW  OW  HW  HW  OW  HW  HW  OW  HW  HW  OW  HW  HW  OW  HW  HW  
OW  HW  HW  OW  HW  HW  OW  HW  HW  OW  HW  HW  OW  HW  HW  OW  HW  HW  OW  HW  
HW  OW  HW  HW  OW  HW  HW  OW  HW  HW  OW  HW  HW  OW  HW  HW  OW  HW  HW  OW  
HW  HW  OW  HW  HW  OW  HW  HW  OW  HW  HW  OW  HW  HW  OW  HW  HW  OW  HW  HW  
OW  HW  HW  OW  HW  HW  OW  HW  HW  OW  HW  HW  OW  HW  HW  OW  HW  HW  OW  HW  
HW  OW  HW  HW  OW  HW  HW  OW  HW  HW  OW  HW  HW  OW  HW  HW  OW  HW  HW  OW  
HW  HW  OW  HW  HW  OW  HW  HW  OW  HW  HW  OW  HW  HW  OW  HW  HW  OW  HW  HW  
OW  HW  HW  OW  HW  HW  OW  HW  HW  OW  HW  HW  OW  HW  HW  OW  HW  HW  OW  HW  
HW  OW  HW  HW  OW  HW  HW  OW  HW  HW  OW  HW  HW  OW  HW  HW  OW  HW  HW  OW  
HW  HW  OW  HW  HW  OW  HW  HW  OW  HW  HW  OW  HW  HW  OW  HW  HW  OW  HW  HW  
OW  HW  HW  OW  HW  HW  OW  HW  HW  OW  HW  HW  OW  HW  HW  OW  HW  HW  OW  HW  
HW  OW  HW  HW  OW  HW  HW  OW  HW  HW  OW  HW  HW  OW  HW  HW  OW  HW  HW  OW  
HW  HW  OW  HW  HW  OW  HW  HW  OW  HW  HW  OW  HW  HW  OW  HW  HW  OW  HW  HW  
OW  HW  HW  OW  HW  HW  OW  HW  HW  OW  HW  HW  OW  HW  HW  OW  HW  HW  OW  HW  
HW  OW  HW  HW  OW  HW  HW  OW  HW  HW  OW  HW  HW  OW  HW  HW  OW  HW  HW  OW  
HW  HW  OW  HW  HW  OW  HW  HW  OW  HW  HW  OW  HW  HW  OW  HW  HW  OW  HW  HW  
OW  HW  HW  OW  HW  HW  OW  HW  HW  OW  HW  HW  OW  HW  HW  OW  HW  HW  OW  HW  
HW  OW  HW  HW  OW  HW  HW  OW  HW  HW  OW  HW  HW  OW  HW  HW  OW  HW  HW  OW  
HW  HW  OW  HW  HW  OW  HW  HW  OW  HW  HW  OW  HW  HW  OW  HW  HW  OW  HW  HW  
OW  HW  HW  OW  HW  HW  OW  HW  HW  OW  HW  HW  OW  HW  HW  OW  HW  HW  OW  HW  
HW  OW  HW  HW  OW  HW  HW  OW  HW  HW  OW  HW  HW  OW  HW  HW  OW  HW  HW  OW  
HW  HW  OW  HW  HW  OW  HW  HW  OW  HW  HW  OW  HW  HW  OW  HW  HW  OW  HW  HW  
OW  HW  HW  OW  HW  HW  OW  HW  HW  OW  HW  HW  OW  HW  HW  OW  HW  HW  OW  HW  
HW  OW  HW  HW  OW  HW  HW  OW  HW  HW  OW  HW  HW  OW  HW  HW  OW  HW  HW  OW  
HW  HW  OW  HW  HW  OW  HW  HW  OW  HW  HW  OW  HW  HW  OW  HW  HW  OW  HW  HW  
OW  HW  HW  OW  HW  HW  OW  HW  HW  OW  HW  HW  OW  HW  HW  OW  HW  HW  OW  HW  
HW  OW  HW  HW  OW  HW  HW  OW  HW  HW  OW  HW  HW  OW  HW  HW  OW  HW  HW  OW  
HW  HW  OW  HW  HW  OW  HW  HW  OW  HW  HW  OW  HW  HW  OW  HW  HW  OW  HW  HW  
OW  HW  HW  OW  HW  HW  OW  HW  HW  OW  HW  HW  OW  HW  HW  OW  HW  HW  OW  HW  
HW  OW  HW  HW  OW  HW  HW  OW  HW  HW  OW  HW  HW  OW  HW  HW  OW  HW  HW  OW  
HW  HW  OW  HW  HW  OW  HW  HW  OW  HW  HW  OW  HW  HW  OW  HW  HW  OW  HW  HW  
OW  HW  HW  OW  HW  HW  OW  HW  HW  OW  HW  HW  OW  HW  HW  OW  HW  HW  OW  HW  
HW  OW  HW  HW  OW  HW  HW  OW  HW  HW  OW  HW  HW  OW  HW  HW  OW  HW  HW  OW  
HW  HW  OW  HW  HW  OW  HW  HW  OW  HW  HW  OW  HW  HW  OW  HW  HW  OW  HW  HW  
OW  HW  HW  OW  HW  HW  OW  HW  HW  OW  HW  HW  OW  HW  HW  OW  HW  HW  OW  HW  
HW  OW  HW  HW  OW  HW  HW  OW  HW  HW  OW  HW  HW  OW  HW  HW  OW  HW  HW  OW  
HW  HW  OW  HW  HW  OW  HW  HW  OW  HW  HW  OW  HW  HW  OW  HW  HW  OW  HW  HW  
OW  HW  HW  OW  HW  HW  OW  HW  HW  OW  HW  HW  OW  HW  HW  OW  HW  HW  OW  HW  
HW  OW  HW  HW  OW  HW  HW  OW  HW  HW  OW  HW  HW  OW  HW  HW  OW  HW  HW  OW  
HW  HW  OW  HW  HW  OW  HW  HW  OW  HW  HW  OW  HW  HW  OW  HW  HW  OW  HW  HW  
OW  HW  HW  OW  HW  HW  OW  HW  HW  OW  HW  HW  OW  HW  HW  OW  HW  HW  OW  HW  
HW  OW  HW  HW  OW  HW  HW  OW  HW  HW  OW  HW  HW  OW  HW  HW  OW  HW  HW  OW  
HW  HW  OW  HW  HW  OW  HW  HW  OW  HW  HW  OW  HW  HW  OW  HW  HW  OW  HW  HW  
OW  HW  HW  OW  HW  HW  OW  HW  HW  OW  HW  HW  OW  HW  HW  OW  HW  HW  OW  HW  
HW  OW  HW  HW  OW  HW  HW  OW  HW  HW  OW  HW  HW  OW  HW  HW  OW  HW  HW  OW  
HW  HW  OW  HW  HW  OW  HW  HW  OW  HW  HW  OW  HW  HW  OW  HW  HW  OW  HW  HW  
OW  HW  HW  OW  HW  HW  OW  HW  HW  OW  HW  HW  OW  HW  HW  OW  HW  HW  OW  HW  
HW  OW  HW  HW  OW  HW  HW  OW  HW  HW  OW  HW  HW  OW  HW  HW  OW  HW  HW  OW  
HW  HW  OW  HW  HW  OW  HW  HW  OW  HW  HW  OW  HW  HW  OW  HW  HW  OW  HW  HW  
OW  HW  HW  OW  HW  HW  OW  HW  HW  OW  HW  HW  OW  HW  HW  OW  HW  HW  OW  HW  
HW  OW  HW  HW  OW  HW  HW  OW  HW  HW  OW  HW  HW  OW  HW  HW  OW  HW  HW  OW  
HW  HW  OW  HW  HW  OW  HW  HW  OW  HW  HW  OW  HW  HW  OW  HW  HW  OW  HW  HW  
OW  HW  HW  OW  HW  HW  OW  HW  HW  OW  HW  HW  OW  HW  HW  OW  HW  HW  OW  HW  
HW  OW  HW  HW  OW  HW  HW  OW  HW  HW  OW  HW  HW  OW  HW  HW  OW  HW  HW  OW  
HW  HW  OW  HW  HW  OW  HW  HW  OW  HW  HW  OW  HW  HW  OW  HW  HW  OW  HW  HW  
OW  HW  HW  OW  HW  HW  OW  HW  HW  OW  HW  HW  OW  HW  HW  OW  HW  HW  OW  HW  
HW  OW  HW  HW  OW  HW  HW  OW  HW  HW  OW  HW  HW  OW  HW  HW  OW  HW  HW  OW  
HW  HW  OW  HW  HW  OW  HW  HW  OW  HW  HW  OW  HW  HW  OW  HW  HW  OW  HW  HW  
OW  HW  HW  OW  HW  HW  OW  HW  HW  OW  HW  HW  OW  HW  HW  OW  HW  HW  OW  HW  
HW  OW  HW  HW  OW  HW  HW  OW  HW  HW  OW  HW  HW  OW  HW  HW  OW  HW  HW  OW  
HW  HW  OW  HW  HW  OW  HW  HW  OW  HW  HW  OW  HW  HW  OW  HW  HW  OW  HW  HW  
OW  HW  HW  OW  HW  HW  OW  HW  HW  OW  HW  HW  OW  HW  HW  OW  HW  HW  OW  HW  
HW  OW  HW  HW  OW  HW  HW  OW  HW  HW  OW  HW  HW  OW  HW  HW  OW  HW  HW  OW  
HW  HW  OW  HW  HW  OW  HW  HW  OW  HW  HW  OW  HW  HW  OW  HW  HW  OW  HW  HW  
OW  HW  HW  OW  HW  HW  OW  HW  HW  OW  HW  HW  OW  HW  HW  OW  HW  HW  OW  HW  
HW  OW  HW  HW  OW  HW  HW  OW  HW  HW  OW  HW  HW  OW  HW  HW  OW  HW  HW  OW  
HW  HW  OW  HW  HW  OW  HW  HW  OW  HW  HW  OW  HW  HW  OW  HW  HW  OW  HW  HW  
OW  HW  HW  OW  HW  HW  OW  HW  HW  OW  HW  HW  OW  HW  HW  OW  HW  HW  OW  HW  
HW  OW  HW  HW  OW  HW  HW  OW  HW  HW  OW  HW  HW  OW  HW  HW  OW  HW  HW  OW  
HW  HW  OW  HW  HW  OW  HW  HW  OW  HW  HW  OW  HW  HW  OW  HW  HW  OW  HW  HW  
OW  HW  HW  OW  HW  HW  OW  HW  HW  OW  HW  HW  OW  HW  HW  OW  HW  HW  OW  HW  
HW  OW  HW  HW  OW  HW  HW  OW  HW  HW  OW  HW  HW  OW  HW  HW  OW  HW  HW  OW  
HW  HW  OW  HW  HW  OW  HW  HW  OW  HW  HW  OW  HW  HW  OW  HW  HW  OW  HW  HW  
OW  HW  HW  OW  HW  HW  OW  HW  HW  OW  HW  HW  OW  HW  HW  OW  HW  HW  OW  HW  
HW  OW  HW  HW  OW  HW  HW  OW  HW  HW  OW  HW  HW  OW  HW  HW  OW  HW  HW  OW  
HW  HW  OW  HW  HW  OW  HW  HW  OW  HW  HW  OW  HW  HW  OW  HW  HW  OW  HW  HW  
OW  HW  HW  OW  HW  HW  OW  HW  HW  OW  HW  HW  OW  HW  HW  OW  HW  HW  OW  HW  
HW  OW  HW  HW  OW  HW  HW  OW  HW  HW  OW  HW  HW  OW  HW  HW  OW  HW  HW  OW  
HW  HW  OW  HW  HW  OW  HW  HW  OW  HW  HW  OW  HW  HW  OW  HW  HW  OW  HW  HW  
OW  HW  HW  OW  HW  HW  OW  HW  HW  OW  HW  HW  OW  HW  HW  OW  HW  HW  OW  HW  
HW  OW  HW  HW  OW  HW  HW  OW  HW  HW  OW  HW  HW  OW  HW  HW  OW  HW  HW  OW  
HW  HW  OW  HW  HW  OW  HW  HW  OW  HW  HW  OW  HW  HW  OW  HW  HW  OW  HW  HW  
OW  HW  HW  OW  HW  HW  OW  HW  HW  OW  HW  HW  OW  HW  HW  OW  HW  HW  OW  HW  
HW  OW  HW  HW  OW  HW  HW  OW  HW  HW  OW  HW  HW  OW  HW  HW  OW  HW  HW  OW  
HW  HW  OW  HW  HW  OW  HW  HW  OW  HW  HW  OW  HW  HW  OW  HW  HW  OW  HW  HW  
OW  HW  HW  OW  HW  HW  OW  HW  HW  OW  HW  HW  OW  HW  HW  OW  HW  HW  OW  HW  
HW  OW  HW  HW  OW  HW  HW  OW  HW  HW  OW  HW  HW  OW  HW  HW  OW  HW  HW  OW  
HW  HW  OW  HW  HW  OW  HW  HW  OW  HW  HW  OW  HW  HW  OW  HW  HW  OW  HW  HW  
OW  HW  HW  OW  HW  HW  OW  HW  HW  OW  HW  HW  OW  HW  HW  OW  HW  HW  OW  HW  
HW  OW  HW  HW  OW  HW  HW  OW  HW  HW  OW  HW  HW  OW  HW  HW  OW  HW  HW  OW  
HW  HW  OW  HW  HW  OW  HW  HW  OW  HW  HW  OW  HW  HW  OW  HW  HW  OW  HW  HW  
OW  HW  HW  OW  HW  HW  OW  HW  HW  OW  HW  HW  OW  HW  HW  OW  HW  HW  OW  HW  
HW  OW  HW  HW  OW  HW  HW  OW  HW  HW  OW  HW  HW  OW  HW  HW  OW  HW  HW  OW  
HW  HW  OW  HW  HW  OW  HW  HW  OW  HW  HW  OW  HW  HW  OW  HW  HW  OW  HW  HW  
OW  HW  HW  OW  HW  HW  OW  HW  HW  OW  HW  HW  OW  HW  HW  OW  HW  HW  OW  HW  
HW  OW  HW  HW  OW  HW  HW  OW  HW  HW  OW  HW  HW  OW  HW  HW  OW  HW  HW  OW  
HW  HW  OW  HW  HW  OW  HW  HW  OW  HW  HW  OW  HW  HW  OW  HW  HW  OW  HW  HW  
OW  HW  HW  OW  HW  HW  OW  HW  HW  OW  HW  HW  OW  HW  HW  OW  HW  HW  OW  HW  
HW  OW  HW  HW  OW  HW  HW  OW  HW  HW  OW  HW  HW  OW  HW  HW  OW  HW  HW  OW  
HW  HW  OW  HW  HW  OW  HW  HW  OW  HW  HW  OW  HW  HW  OW  HW  HW  OW  HW  HW  
OW  HW  HW  OW  HW  HW  OW  HW  HW  OW  HW  HW  OW  HW  HW  OW  HW  HW  OW  HW  
HW  OW  HW  HW  OW  HW  HW  OW  HW  HW  OW  HW  HW  OW  HW  HW  OW  HW  HW  OW  
HW  HW  OW  HW  HW  OW  HW  HW  OW  HW  HW  OW  HW  HW  OW  HW  HW  OW  HW  HW  
OW  HW  HW  OW  HW  HW  OW  HW  HW  OW  HW  HW  OW  HW  HW  OW  HW  HW  OW  HW  
HW  OW  HW  HW  OW  HW  HW  OW  HW  HW  OW  HW  HW  OW  HW  HW  OW  HW  HW  OW  
HW  HW  OW  HW  HW  OW  HW  HW  OW  HW  HW  OW  HW  HW  OW  HW  HW  OW  HW  HW  
OW  HW  HW  OW  HW  HW  OW  HW  HW  OW  HW  HW  OW  HW  HW  OW  HW  HW  OW  HW  
HW  OW  HW  HW  OW  HW  HW  OW  HW  HW  OW  HW  HW  OW  HW  HW  OW  HW  HW  OW  
HW  HW  OW  HW  HW  OW  HW  HW  OW  HW  HW  OW  HW  HW  OW  HW  HW  OW  HW  HW  
OW  HW  HW  OW  HW  HW  OW  HW  HW  OW  HW  HW  OW  HW  HW  OW  HW  HW  OW  HW  
HW  OW  HW  HW  OW  HW  HW  OW  HW  HW  OW  HW  HW  OW  HW  HW  OW  HW  HW  OW  
HW  HW  OW  HW  HW  OW  HW  HW  OW  HW  HW  OW  HW  HW  OW  HW  HW  OW  HW  HW  
OW  HW  HW  OW  HW  HW  OW  HW  HW  OW  HW  HW  OW  HW  HW  OW  HW  HW  OW  HW  
HW  OW  HW  HW  OW  HW  HW  OW  HW  HW  OW  HW  HW  OW  HW  HW  OW  HW  HW  OW  
HW  HW  OW  HW  HW  OW  HW  HW  OW  HW  HW  OW  HW  HW  OW  HW  HW  OW  HW  HW  
OW  HW  HW  OW  HW  HW  OW  HW  HW  OW  HW  HW  OW  HW  HW  OW  HW  HW  OW  HW  
HW  OW  HW  HW  OW  HW  HW  OW  HW  HW  OW  HW  HW  OW  HW  HW  OW  HW  HW  OW  
HW  HW  OW  HW  HW  OW  HW  HW  OW  HW  HW  OW  HW  HW  OW  HW  HW  OW  HW  HW  
OW  HW  HW  OW  HW  HW  OW  HW  HW  OW  HW  HW  OW  HW  HW  OW  HW  HW  OW  HW  
HW  OW  HW  HW  OW  HW  HW  OW  HW  HW  OW  HW  HW  OW  HW  HW  OW  HW  HW  OW  
HW  HW  OW  HW  HW  OW  HW  HW  OW  HW  HW  OW  HW  HW  OW  HW  HW  OW  HW  HW  
OW  HW  HW  OW  HW  HW  OW  HW  HW  OW  HW  HW  OW  HW  HW  OW  HW  HW  OW  HW  
HW  OW  HW  HW  OW  HW  HW  OW  HW  HW  OW  HW  HW  OW  HW  HW  OW  HW  HW  OW  
HW  HW  OW  HW  HW  OW  HW  HW  OW  HW  HW  OW  HW  HW  OW  HW  HW  OW  HW  HW  
OW  HW  HW  OW  HW  HW  OW  HW  HW  OW  HW  HW  OW  HW  HW  OW  HW  HW  OW  HW  
HW  OW  HW  HW  OW  HW  HW  OW  HW  HW  OW  HW  HW  OW  HW  HW  OW  HW  HW  OW  
HW  HW  OW  HW  HW  OW  HW  HW  OW  HW  HW  OW  HW  HW  OW  HW  HW  OW  HW  HW  
OW  HW  HW  OW  HW  HW  OW  HW  HW  OW  HW  HW  OW  HW  HW  OW  HW  HW  OW  HW  
HW  OW  HW  HW  OW  HW  HW  OW  HW  HW  OW  HW  HW  OW  HW  HW  OW  HW  HW  OW  
HW  HW  OW  HW  HW  OW  HW  HW  OW  HW  HW  OW  HW  HW  OW  HW  HW  OW  HW  HW  
OW  HW  HW  OW  HW  HW  OW  HW  HW  OW  HW  HW  OW  HW  HW  OW  HW  HW  OW  HW  
HW  OW  HW  HW  OW  HW  HW  OW  HW  HW  OW  HW  HW  OW  HW  HW  OW  HW  HW  OW  
HW  HW  OW  HW  HW  OW  HW  HW  OW  HW  HW  OW  HW  HW  OW  HW  HW  OW  HW  HW  
OW  HW  HW  OW  HW  HW  OW  HW  HW  OW  HW  HW  OW  HW  HW  OW  HW  HW  OW  HW  
HW  OW  HW  HW  OW  HW  HW  OW  HW  HW  OW  HW  HW  OW  HW  HW  OW  HW  HW  OW  
HW  HW  OW  HW  HW  OW  HW  HW  OW  HW  HW  OW  HW  HW  OW  HW  HW  OW  HW  HW  
OW  HW  HW  OW  HW  HW  OW  HW  HW  OW  HW  HW  OW  HW  HW  OW  HW  HW  OW  HW  
HW  OW  HW  HW  OW  HW  HW  OW  HW  HW  OW  HW  HW  OW  HW  HW  OW  HW  HW  OW  
HW  HW  OW  HW  HW  OW  HW  HW  OW  HW  HW  OW  HW  HW  OW  HW  HW  OW  HW  HW  
OW  HW  HW  OW  HW  HW  OW  HW  HW  OW  HW  HW  OW  HW  HW  OW  HW  HW  OW  HW  
HW  OW  HW  HW  OW  HW  HW  OW  HW  HW  OW  HW  HW  OW  HW  HW  OW  HW  HW  OW  
HW  HW  OW  HW  HW  OW  HW  HW  OW  HW  HW  OW  HW  HW  OW  HW  HW  OW  HW  HW  
OW  HW  HW  OW  HW  HW  OW  HW  HW  OW  HW  HW  OW  HW  HW  OW  HW  HW  OW  HW  
HW  OW  HW  HW  OW  HW  HW  OW  HW  HW  OW  HW  HW  OW  HW  HW  OW  HW  HW  OW  
HW  HW  OW  HW  HW  OW  HW  HW  OW  HW  HW  OW  HW  HW  OW  HW  HW  OW  HW  HW  
OW  HW  HW  OW  HW  HW  OW  HW  HW  OW  HW  HW  OW  HW  HW  OW  HW  HW  OW  HW  
HW  OW  HW  HW  OW  HW  HW  OW  HW  HW  OW  HW  HW  OW  HW  HW  OW  HW  HW  OW  
HW  HW  OW  HW  HW  OW  HW  HW  OW  HW  HW  OW  HW  HW  OW  HW  HW  OW  HW  HW  
OW  HW  HW  OW  HW  HW  OW  HW  HW  OW  HW  HW  OW  HW  HW  OW  HW  HW  OW  HW  
HW  OW  HW  HW  OW  HW  HW  OW  HW  HW  OW  HW  HW  OW  HW  HW  OW  HW  HW  OW  
HW  HW  OW  HW  HW  OW  HW  HW  OW  HW  HW  OW  HW  HW  OW  HW  HW  OW  HW  HW  
OW  HW  HW  OW  HW  HW  OW  HW  HW  OW  HW  HW  OW  HW  HW  OW  HW  HW  OW  HW  
HW  OW  HW  HW  OW  HW  HW  OW  HW  HW  OW  HW  HW  OW  HW  HW  OW  HW  HW  OW  
HW  HW  OW  HW  HW  OW  HW  HW  OW  HW  HW  OW  HW  HW  OW  HW  HW  OW  HW  HW  
OW  HW  HW  OW  HW  HW  OW  HW  HW  OW  HW  HW  OW  HW  HW  OW  HW  HW  OW  HW  
HW  OW  HW  HW  OW  HW  HW  OW  HW  HW  OW  HW  HW  OW  HW  HW  OW  HW  HW  OW  
HW  HW  OW  HW  HW  OW  HW  HW  OW  HW  HW  OW  HW  HW  OW  HW  HW  OW  HW  HW  
OW  HW  HW  OW  HW  HW  OW  HW  HW  OW  HW  HW  OW  HW  HW  OW  HW  HW  OW  HW  
HW  OW  HW  HW  OW  HW  HW  OW  HW  HW  OW  HW  HW  OW  HW  HW  OW  HW  HW  OW  
HW  HW  OW  HW  HW  OW  HW  HW  OW  HW  HW  OW  HW  HW  OW  HW  HW  OW  HW  HW  
OW  HW  HW  OW  HW  HW  OW  HW  HW  OW  HW  HW  OW  HW  HW  OW  HW  HW  OW  HW  
HW  OW  HW  HW  OW  HW  HW  OW  HW  HW  OW  HW  HW  OW  HW  HW  OW  HW  HW  OW  
HW  HW  OW  HW  HW  OW  HW  HW  OW  HW  HW  OW  HW  HW  OW  HW  HW  OW  HW  HW  
OW  HW  HW  OW  HW  HW  OW  HW  HW  OW  HW  HW  OW  HW  HW  OW  HW  HW  OW  HW  
HW  OW  HW  HW  OW  HW  HW  OW  HW  HW  OW  HW  HW  OW  HW  HW  OW  HW  HW  OW  
HW  HW  OW  HW  HW  OW  HW  HW  OW  HW  HW  OW  HW  HW  OW  HW  HW  OW  HW  HW  
OW  HW  HW  OW  HW  HW  OW  HW  HW  OW  HW  HW  OW  HW  HW  OW  HW  HW  OW  HW  
HW  OW  HW  HW  OW  HW  HW  OW  HW  HW  OW  HW  HW  OW  HW  HW  OW  HW  HW  OW  
HW  HW  OW  HW  HW  OW  HW  HW  OW  HW  HW  OW  HW  HW  OW  HW  HW  OW  HW  HW  
OW  HW  HW  OW  HW  HW  OW  HW  HW  OW  HW  HW  OW  HW  HW  OW  HW  HW  OW  HW  
HW  OW  HW  HW  OW  HW  HW  OW  HW  HW  OW  HW  HW  OW  HW  HW  OW  HW  HW  OW  
HW  HW  OW  HW  HW  OW  HW  HW  OW  HW  HW  OW  HW  HW  OW  HW  HW  OW  HW  HW  
OW  HW  HW  OW  HW  HW  OW  HW  HW  OW  HW  HW  OW  HW  HW  OW  HW  HW  OW  HW  
HW  OW  HW  HW  OW  HW  HW  OW  HW  HW  OW  HW  HW  OW  HW  HW  OW  HW  HW  OW  
HW  HW  OW  HW  HW  OW  HW  HW  OW  HW  HW  OW  HW  HW  OW  HW  HW  OW  HW  HW  
OW  HW  HW  OW  HW  HW  OW  HW  HW  OW  HW  HW  OW  HW  HW  OW  HW  HW  OW  HW  
HW  OW  HW  HW  OW  HW  HW  OW  HW  HW  OW  HW  HW  OW  HW  HW  OW  HW  HW  OW  
HW  HW  OW  HW  HW  OW  HW  HW  OW  HW  HW  OW  HW  HW  OW  HW  HW  OW  HW  HW  
OW  HW  HW  OW  HW  HW  OW  HW  HW  OW  HW  HW  OW  HW  HW  OW  HW  HW  OW  HW  
HW  OW  HW  HW  OW  HW  HW  OW  HW  HW  OW  HW  HW  OW  HW  HW  OW  HW  HW  OW  
HW  HW  OW  HW  HW  OW  HW  HW  OW  HW  HW  OW  HW  HW  OW  HW  HW  OW  HW  HW  
OW  HW  HW  OW  HW  HW  OW  HW  HW  OW  HW  HW  OW  HW  HW  OW  HW  HW  OW  HW  
HW  OW  HW  HW  OW  HW  HW  OW  HW  HW  OW  HW  HW  OW  HW  HW  OW  HW  HW  OW  
HW  HW  OW  HW  HW  OW  HW  HW  OW  HW  HW  OW  HW  HW  OW  HW  HW  OW  HW  HW  
OW  HW  HW  OW  HW  HW  OW  HW  HW  OW  HW  HW  OW  HW  HW  OW  HW  HW  OW  HW  
HW  OW  HW  HW  OW  HW  HW  OW  HW  HW  OW  HW  HW  OW  HW  HW  OW  HW  HW  OW  
HW  HW  OW  HW  HW  OW  HW  HW  OW  HW  HW  OW  HW  HW  OW  HW  HW  OW  HW  HW  
OW  HW  HW  OW  HW  HW  OW  HW  HW  OW  HW  HW  OW  HW  HW  OW  HW  HW  OW  HW  
HW  OW  HW  HW  OW  HW  HW  OW  HW  HW  OW  HW  HW  OW  HW  HW  OW  HW  HW  OW  
HW  HW  OW  HW  HW  OW  HW  HW  OW  HW  HW  OW  HW  HW  OW  HW  HW  OW  HW  HW  
OW  HW  HW  OW  HW  HW  OW  HW  HW  OW  HW  HW  OW  HW  HW  OW  HW  HW  OW  HW  
HW  OW  HW  HW  OW  HW  HW  OW  HW  HW  OW  HW  HW  OW  HW  HW  OW  HW  HW  OW  
HW  HW  OW  HW  HW  OW  HW  HW  OW  HW  HW  OW  HW  HW  OW  HW  HW  OW  HW  HW  
OW  HW  HW  OW  HW  HW  OW  HW  HW  OW  HW  HW  OW  HW  HW  OW  HW  HW  OW  HW  
HW  OW  HW  HW  OW  HW  HW  OW  HW  HW  OW  HW  HW  OW  HW  HW  OW  HW  HW  OW  
HW  HW  OW  HW  HW  OW  HW  HW  OW  HW  HW  OW  HW  HW  OW  HW  HW  OW  HW  HW  
OW  HW  HW  OW  HW  HW  OW  HW  HW  OW  HW  HW  OW  HW  HW  OW  HW  HW  OW  HW  
HW  OW  HW  HW  OW  HW  HW  OW  HW  HW  OW  HW  HW  OW  HW  HW  OW  HW  HW  OW  
HW  HW  OW  HW  HW  OW  HW  HW  OW  HW  HW  OW  HW  HW  OW  HW  HW  OW  HW  HW  
OW  HW  HW  OW  HW  HW  OW  HW  HW  OW  HW  HW  OW  HW  HW  OW  HW  HW  OW  HW  
HW  OW  HW  HW  OW  HW  HW  OW  HW  HW  OW  HW  HW  OW  HW  HW  OW  HW  HW  OW  
HW  HW  OW  HW  HW  OW  HW  HW  OW  HW  HW  OW  HW  HW  OW  HW  HW  OW  HW  HW  
OW  HW  HW  OW  HW  HW  OW  HW  HW  OW  HW  HW  OW  HW  HW  OW  HW  HW  OW  HW  
HW  OW  HW  HW  OW  HW  HW  OW  HW  HW  OW  HW  HW  OW  HW  HW  OW  HW  HW  OW  
HW  HW  OW  HW  HW  OW  HW  HW  OW  HW  HW  OW  HW  HW  OW  HW  HW  OW  HW  HW  
OW  HW  HW  OW  HW  HW  OW  HW  HW  OW  HW  HW  OW  HW  HW  OW  HW  HW  OW  HW  
HW  OW  HW  HW  OW  HW  HW  OW  HW  HW  OW  HW  HW  OW  HW  HW  OW  HW  HW  OW  
HW  HW  OW  HW  HW  OW  HW  HW  OW  HW  HW  OW  HW  HW  OW  HW  HW  OW  HW  HW  
OW  HW  HW  OW  HW  HW  OW  HW  HW  OW  HW  HW  OW  HW  HW  OW  HW  HW  OW  HW  
HW  OW  HW  HW  OW  HW  HW  OW  HW  HW  OW  HW  HW  OW  HW  HW  OW  HW  HW  OW  
HW  HW  OW  HW  HW  OW  HW  HW  OW  HW  HW  OW  HW  HW  OW  HW  HW  OW  HW  HW  
OW  HW  HW  OW  HW  HW  OW  HW  HW  OW  HW  HW  OW  HW  HW  OW  HW  HW  OW  HW  
HW  OW  HW  HW  OW  HW  HW  OW  HW  HW  OW  HW  HW  OW  HW  HW  OW  HW  HW  OW  
HW  HW  OW  HW  HW  OW  HW  HW  OW  HW  HW  OW  HW  HW  OW  HW  HW  OW  HW  HW  
OW  HW  HW  OW  HW  HW  OW  HW  HW  OW  HW  HW  OW  HW  HW  OW  HW  HW  OW  HW  
HW  OW  HW  HW  OW  HW  HW  OW  HW  HW  OW  HW  HW  OW  HW  HW  OW  HW  HW  OW  
HW  HW  OW  HW  HW  OW  HW  HW  OW  HW  HW  OW  HW  HW  OW  HW  HW  OW  HW  HW  
OW  HW  HW  OW  HW  HW  OW  HW  HW  OW  HW  HW  OW  HW  HW  OW  HW  HW  OW  HW  
HW  OW  HW  HW  OW  HW  HW  OW  HW  HW  OW  HW  HW  OW  HW  HW  OW  HW  HW  OW  
HW  HW  OW  HW  HW  OW  HW  HW  OW  HW  HW  OW  HW  HW  OW  HW  HW  OW  HW  HW  
OW  HW  HW  OW  HW  HW  OW  HW  HW  OW  HW  HW  OW  HW  HW  OW  HW  HW  OW  HW  
HW  OW  HW  HW  OW  HW  HW  OW  HW  HW  OW  HW  HW  OW  HW  HW  OW  HW  HW  OW  
HW  HW  OW  HW  HW  OW  HW  HW  OW  HW  HW  OW  HW  HW  OW  HW  HW  OW  HW  HW  
OW  HW  HW  OW  HW  HW  OW  HW  HW  OW  HW  HW  OW  HW  HW  OW  HW  HW  OW  HW  
HW  OW  HW  HW  OW  HW  HW  OW  HW  HW  OW  HW  HW  OW  HW  HW  OW  HW  HW  OW  
HW  HW  OW  HW  HW  OW  HW  HW  OW  HW  HW  OW  HW  HW  OW  HW  HW  OW  HW  HW  
OW  HW  HW  OW  HW  HW  OW  HW  HW  OW  HW  HW  OW  HW  HW  OW  HW  HW  OW  HW  
HW  OW  HW  HW  OW  HW  HW  OW  HW  HW  OW  HW  HW  OW  HW  HW  OW  HW  HW  OW  
HW  HW  OW  HW  HW  OW  HW  HW  OW  HW  HW  OW  HW  HW  OW  HW  HW  OW  HW  HW  
OW  HW  HW  OW  HW  HW  OW  HW  HW  OW  HW  HW  OW  HW  HW  OW  HW  HW  OW  HW  
HW  OW  HW  HW  OW  HW  HW  OW  HW  HW  OW  HW  HW  OW  HW  HW  OW  HW  HW  OW  
HW  HW  OW  HW  HW  OW  HW  HW  OW  HW  HW  OW  HW  HW  OW  HW  HW  OW  HW  HW  
OW  HW  HW  OW  HW  HW  OW  HW  HW  OW  HW  HW  OW  HW  HW  OW  HW  HW  OW  HW  
HW  OW  HW  HW  OW  HW  HW  OW  HW  HW  OW  HW  HW  OW  HW  HW  OW  HW  HW  OW  
HW  HW  OW  HW  HW  OW  HW  HW  OW  HW  HW  OW  HW  HW  OW  HW  HW  OW  HW  HW  
OW  HW  HW  OW  HW  HW  OW  HW  HW  OW  HW  HW  OW  HW  HW  OW  HW  HW  OW  HW  
HW  OW  HW  HW  OW  HW  HW  OW  HW  HW  OW  HW  HW  OW  HW  HW  OW  HW  HW  OW  
HW  HW  OW  HW  HW  OW  HW  HW  OW  HW  HW  OW  HW  HW  OW  HW  HW  OW  HW  HW  
OW  HW  HW  OW  HW  HW  OW  HW  HW  OW  HW  HW  OW  HW  HW  OW  HW  HW  OW  HW  
HW  OW  HW  HW  OW  HW  HW  OW  HW  HW  OW  HW  HW  OW  HW  HW  OW  HW  HW  OW  
HW  HW  OW  HW  HW  OW  HW  HW  OW  HW  HW  OW  HW  HW  OW  HW  HW  OW  HW  HW  
OW  HW  HW  OW  HW  HW  OW  HW  HW  OW  HW  HW  OW  HW  HW  OW  HW  HW  OW  HW  
HW  OW  HW  HW  OW  HW  HW  OW  HW  HW  OW  HW  HW  OW  HW  HW  OW  HW  HW  OW  
HW  HW  OW  HW  HW  OW  HW  HW  OW  HW  HW  OW  HW  HW  OW  HW  HW  OW  HW  HW  
OW  HW  HW  OW  HW  HW  OW  HW  HW  OW  HW  HW  OW  HW  HW  OW  HW  HW  OW  HW  
HW  OW  HW  HW  OW  HW  HW  OW  HW  HW  OW  HW  HW  OW  HW  HW  OW  HW  HW  OW  
HW  HW  OW  HW  HW  OW  HW  HW  OW  HW  HW  OW  HW  HW  OW  HW  HW  OW  HW  HW  
OW  HW  HW  OW  HW  HW  OW  HW  HW  OW  HW  HW  OW  HW  HW  OW  HW  HW  OW  HW  
HW  OW  HW  HW  OW  HW  HW  OW  HW  HW  OW  HW  HW  OW  HW  HW  OW  HW  HW  OW  
HW  HW  OW  HW  HW  OW  HW  HW  OW  HW  HW  OW  HW  HW  OW  HW  HW  OW  HW  HW  
OW  HW  HW  OW  HW  HW  OW  HW  HW  OW  HW  HW  OW  HW  HW  OW  HW  HW  OW  HW  
HW  OW  HW  HW  OW  HW  HW  OW  HW  HW  OW  HW  HW  OW  HW  HW  OW  HW  HW  OW  
HW  HW  OW  HW  HW  OW  HW  HW  OW  HW  HW  OW  HW  HW  OW  HW  HW  OW  HW  HW  
OW  HW  HW  OW  HW  HW  OW  HW  HW  OW  HW  HW  OW  HW  HW  OW  HW  HW  OW  HW  
HW  OW  HW  HW  OW  HW  HW  OW  HW  HW  OW  HW  HW  OW  HW  HW  OW  HW  HW  OW  
HW  HW  OW  HW  HW  OW  HW  HW  OW  HW  HW  OW  HW  HW  OW  HW  HW  OW  HW  HW  
OW  HW  HW  OW  HW  HW  OW  HW  HW  OW  HW  HW  OW  HW  HW  OW  HW  HW  OW  HW  
HW  OW  HW  HW  OW  HW  HW  OW  HW  HW  OW  HW  HW  OW  HW  HW  OW  HW  HW  OW  
HW  HW  OW  HW  HW  OW  HW  HW  OW  HW  HW  OW  HW  HW  OW  HW  HW  OW  HW  HW  
OW  HW  HW  OW  HW  HW  OW  HW  HW  OW  HW  HW  OW  HW  HW  OW  HW  HW  OW  HW  
HW  OW  HW  HW  OW  HW  HW  OW  HW  HW  OW  HW  HW  OW  HW  HW  OW  HW  HW  OW  
HW  HW  OW  HW  HW  OW  HW  HW  OW  HW  HW  OW  HW  HW  OW  HW  HW  OW  HW  HW  
OW  HW  HW  OW  HW  HW  OW  HW  HW  OW  HW  HW  OW  HW  HW  OW  HW  HW  OW  HW  
HW  OW  HW  HW  OW  HW  HW  OW  HW  HW  OW  HW  HW  OW  HW  HW  OW  HW  HW  OW  
HW  HW  OW  HW  HW  OW  HW  HW  OW  HW  HW  OW  HW  HW  OW  HW  HW  OW  HW  HW  
OW  HW  HW  OW  HW  HW  OW  HW  HW  OW  HW  HW  OW  HW  HW  OW  HW  HW  OW  HW  
HW  OW  HW  HW  OW  HW  HW  OW  HW  HW  OW  HW  HW  OW  HW  HW  OW  HW  HW  OW  
HW  HW  OW  HW  HW  OW  HW  HW  OW  HW  HW  OW  HW  HW  OW  HW  HW  OW  HW  HW  
OW  HW  HW  OW  HW  HW  OW  HW  HW  OW  HW  HW  OW  HW  HW  OW  HW  HW  OW  HW  
HW  OW  HW  HW  OW  HW  HW  OW  HW  HW  OW  HW  HW  OW  HW  HW  OW  HW  HW  OW  
HW  HW  OW  HW  HW  OW  HW  HW  OW  HW  HW  OW  HW  HW  OW  HW  HW  OW  HW  HW  
OW  HW  HW  OW  HW  HW  OW  HW  HW  OW  HW  HW  OW  HW  HW  OW  HW  HW  OW  HW  
HW  OW  HW  HW  OW  HW  HW  OW  HW  HW  OW  HW  HW  OW  HW  HW  OW  HW  HW  OW  
HW  HW  OW  HW  HW  OW  HW  HW  OW  HW  HW  OW  HW  HW  OW  HW  HW  OW  HW  HW  
OW  HW  HW  OW  HW  HW  OW  HW  HW  OW  HW  HW  OW  HW  HW  OW  HW  HW  OW  HW  
HW  OW  HW  HW  OW  HW  HW  OW  HW  HW  OW  HW  HW  OW  HW  HW  OW  HW  HW  OW  
HW  HW  OW  HW  HW  OW  HW  HW  OW  HW  HW  OW  HW  HW  OW  HW  HW  OW  HW  HW  
OW  HW  HW  OW  HW  HW  OW  HW  HW  OW  HW  HW  OW  HW  HW  OW  HW  HW  OW  HW  
HW  OW  HW  HW  OW  HW  HW  OW  HW  HW  OW  HW  HW  OW  HW  HW  OW  HW  HW  OW  
HW  HW  OW  HW  HW  OW  HW  HW  OW  HW  HW  OW  HW  HW  OW  HW  HW  OW  HW  HW  
OW  HW  HW  OW  HW  HW  OW  HW  HW  OW  HW  HW  OW  HW  HW  OW  HW  HW  OW  HW  
HW  OW  HW  HW  OW  HW  HW  OW  HW  HW  OW  HW  HW  OW  HW  HW  OW  HW  HW  OW  
HW  HW  OW  HW  HW  OW  HW  HW  OW  HW  HW  OW  HW  HW  OW  HW  HW  OW  HW  HW  
OW  HW  HW  OW  HW  HW  OW  HW  HW  OW  HW  HW  OW  HW  HW  OW  HW  HW  OW  HW  
HW  OW  HW  HW  OW  HW  HW  OW  HW  HW  OW  HW  HW  OW  HW  HW  OW  HW  HW  OW  
HW  HW  OW  HW  HW  OW  HW  HW  OW  HW  HW  OW  HW  HW  OW  HW  HW  OW  HW  HW  
OW  HW  HW  OW  HW  HW  OW  HW  HW  OW  HW  HW  OW  HW  HW  OW  HW  HW  OW  HW  
HW  OW  HW  HW  OW  HW  HW  OW  HW  HW  OW  HW  HW  OW  HW  HW  OW  HW  HW  OW  
HW  HW  OW  HW  HW  OW  HW  HW  OW  HW  HW  OW  HW  HW  OW  HW  HW  OW  HW  HW  
OW  HW  HW  OW  HW  HW  OW  HW  HW  OW  HW  HW  OW  HW  HW  OW  HW  HW  OW  HW  
HW  OW  HW  HW  OW  HW  HW  OW  HW  HW  OW  HW  HW  OW  HW  HW  OW  HW  HW  OW  
HW  HW  OW  HW  HW  OW  HW  HW  OW  HW  HW  OW  HW  HW  OW  HW  HW  OW  HW  HW  
OW  HW  HW  OW  HW  HW  OW  HW  HW  OW  HW  HW  OW  HW  HW  OW  HW  HW  OW  HW  
HW  OW  HW  HW  OW  HW  HW  OW  HW  HW  OW  HW  HW  OW  HW  HW  OW  HW  HW  OW  
HW  HW  OW  HW  HW  OW  HW  HW  OW  HW  HW  OW  HW  HW  OW  HW  HW  OW  HW  HW  
OW  HW  HW  OW  HW  HW  OW  HW  HW  OW  HW  HW  OW  HW  HW  OW  HW  HW  OW  HW  
HW  OW  HW  HW  OW  HW  HW  OW  HW  HW  OW  HW  HW  OW  HW  HW  OW  HW  HW  OW  
HW  HW  OW  HW  HW  OW  HW  HW  OW  HW  HW  OW  HW  HW  OW  HW  HW  OW  HW  HW  
OW  HW  HW  OW  HW  HW  OW  HW  HW  OW  HW  HW  OW  HW  HW  OW  HW  HW  OW  HW  
HW  OW  HW  HW  OW  HW  HW  OW  HW  HW  OW  HW  HW  OW  HW  HW  OW  HW  HW  OW  
HW  HW  OW  HW  HW  OW  HW  HW  OW  HW  HW  OW  HW  HW  OW  HW  HW  OW  HW  HW  
OW  HW  HW  OW  HW  HW  OW  HW  HW  OW  HW  HW  OW  HW  HW  OW  HW  HW  OW  HW  
HW  OW  HW  HW  OW  HW  HW  OW  HW  HW  OW  HW  HW  OW  HW  HW  OW  HW  HW  OW  
HW  HW  OW  HW  HW  OW  HW  HW  OW  HW  HW  OW  HW  HW  OW  HW  HW  OW  HW  HW  
OW  HW  HW  OW  HW  HW  OW  HW  HW  OW  HW  HW  OW  HW  HW  OW  HW  HW  OW  HW  
HW  OW  HW  HW  OW  HW  HW  OW  HW  HW  OW  HW  HW  OW  HW  HW  OW  HW  HW  OW  
HW  HW  OW  HW  HW  OW  HW  HW  OW  HW  HW  OW  HW  HW  OW  HW  HW  OW  HW  HW  
OW  HW  HW  OW  HW  HW  OW  HW  HW  OW  HW  HW  OW  HW  HW  OW  HW  HW  OW  HW  
HW  OW  HW  HW  OW  HW  HW  OW  HW  HW  OW  HW  HW  OW  HW  HW  OW  HW  HW  OW  
HW  HW  OW  HW  HW  OW  HW  HW  OW  HW  HW  OW  HW  HW  OW  HW  HW  OW  HW  HW  
OW  HW  HW  OW  HW  HW  OW  HW  HW  OW  HW  HW  OW  HW  HW  OW  HW  HW  OW  HW  
HW  OW  HW  HW  OW  HW  HW  OW  HW  HW  OW  HW  HW  OW  HW  HW  OW  HW  HW  OW  
HW  HW  OW  HW  HW  OW  HW  HW  OW  HW  HW  OW  HW  HW  OW  HW  HW  OW  HW  HW  
OW  HW  HW  OW  HW  HW  OW  HW  HW  OW  HW  HW  OW  HW  HW  OW  HW  HW  OW  HW  
HW  OW  HW  HW  OW  HW  HW  OW  HW  HW  OW  HW  HW  OW  HW  HW  OW  HW  HW  OW  
HW  HW  OW  HW  HW  OW  HW  HW  OW  HW  HW  OW  HW  HW  OW  HW  HW  OW  HW  HW  
OW  HW  HW  OW  HW  HW  OW  HW  HW  OW  HW  HW  OW  HW  HW  OW  HW  HW  OW  HW  
HW  OW  HW  HW  OW  HW  HW  OW  HW  HW  OW  HW  HW  OW  HW  HW  OW  HW  HW  OW  
HW  HW  OW  HW  HW  OW  HW  HW  OW  HW  HW  OW  HW  HW  OW  HW  HW  OW  HW  HW  
OW  HW  HW  OW  HW  HW  OW  HW  HW  OW  HW  HW  OW  HW  HW  OW  HW  HW  OW  HW  
HW  OW  HW  HW  OW  HW  HW  OW  HW  HW  OW  HW  HW  OW  HW  HW  OW  HW  HW  OW  
HW  HW  OW  HW  HW  OW  HW  HW  OW  HW  HW  OW  HW  HW  OW  HW  HW  OW  HW  HW  
OW  HW  HW  OW  HW  HW  OW  HW  HW  OW  HW  HW  OW  HW  HW  OW  HW  HW  OW  HW  
HW  OW  HW  HW  OW  HW  HW  OW  HW  HW  OW  HW  HW  OW  HW  HW  OW  HW  HW  OW  
HW  HW  OW  HW  HW  OW  HW  HW  OW  HW  HW  OW  HW  HW  OW  HW  HW  OW  HW  HW  
OW  HW  HW  OW  HW  HW  OW  HW  HW  OW  HW  HW  OW  HW  HW  OW  HW  HW  OW  HW  
HW  OW  HW  HW  OW  HW  HW  OW  HW  HW  OW  HW  HW  OW  HW  HW  OW  HW  HW  OW  
HW  HW  OW  HW  HW  OW  HW  HW  OW  HW  HW  OW  HW  HW  OW  HW  HW  OW  HW  HW  
OW  HW  HW  OW  HW  HW  OW  HW  HW  OW  HW  HW  OW  HW  HW  OW  HW  HW  OW  HW  
HW  OW  HW  HW  OW  HW  HW  OW  HW  HW  OW  HW  HW  OW  HW  HW  OW  HW  HW  OW  
HW  HW  OW  HW  HW  OW  HW  HW  OW  HW  HW  OW  HW  HW  OW  HW  HW  OW  HW  HW  
OW  HW  HW  OW  HW  HW  OW  HW  HW  OW  HW  HW  OW  HW  HW  OW  HW  HW  OW  HW  
HW  OW  HW  HW  OW  HW  HW  OW  HW  HW  OW  HW  HW  OW  HW  HW  OW  HW  HW  OW  
HW  HW  OW  HW  HW  OW  HW  HW  OW  HW  HW  OW  HW  HW  OW  HW  HW  OW  HW  HW  
OW  HW  HW  OW  HW  HW  OW  HW  HW  OW  HW  HW  OW  HW  HW  OW  HW  HW  OW  HW  
HW  OW  HW  HW  OW  HW  HW  OW  HW  HW  OW  HW  HW  OW  HW  HW  OW  HW  HW  OW  
HW  HW  OW  HW  HW  OW  HW  HW  OW  HW  HW  OW  HW  HW  OW  HW  HW  OW  HW  HW  
OW  HW  HW  OW  HW  HW  OW  HW  HW  OW  HW  HW  OW  HW  HW  OW  HW  HW  OW  HW  
HW  OW  HW  HW  OW  HW  HW  OW  HW  HW  OW  HW  HW  OW  HW  HW  OW  HW  HW  OW  
HW  HW  OW  HW  HW  OW  HW  HW  OW  HW  HW  OW  HW  HW  OW  HW  HW  OW  HW  HW  
OW  HW  HW  OW  HW  HW  OW  HW  HW  OW  HW  HW  OW  HW  HW  OW  HW  HW  OW  HW  
HW  OW  HW  HW  OW  HW  HW  OW  HW  HW  OW  HW  HW  OW  HW  HW  OW  HW  HW  OW  
HW  HW  OW  HW  HW  OW  HW  HW  OW  HW  HW  OW  HW  HW  OW  HW  HW  OW  HW  HW  
OW  HW  HW  OW  HW  HW  OW  HW  HW  OW  HW  HW  OW  HW  HW  OW  HW  HW  OW  HW  
HW  OW  HW  HW  OW  HW  HW  OW  HW  HW  OW  HW  HW  OW  HW  HW  OW  HW  HW  OW  
HW  HW  OW  HW  HW  OW  HW  HW  OW  HW  HW  OW  HW  HW  OW  HW  HW  OW  HW  HW  
OW  HW  HW  OW  HW  HW  OW  HW  HW  OW  HW  HW  OW  HW  HW  OW  HW  HW  OW  HW  
HW  OW  HW  HW  OW  HW  HW  OW  HW  HW  OW  HW  HW  OW  HW  HW  OW  HW  HW  OW  
HW  HW  OW  HW  HW  OW  HW  HW  OW  HW  HW  OW  HW  HW  OW  HW  HW  OW  HW  HW  
OW  HW  HW  OW  HW  HW  OW  HW  HW  OW  HW  HW  OW  HW  HW  OW  HW  HW  OW  HW  
HW  OW  HW  HW  OW  HW  HW  OW  HW  HW  OW  HW  HW  OW  HW  HW  OW  HW  HW  OW  
HW  HW  OW  HW  HW  OW  HW  HW  OW  HW  HW  OW  HW  HW  OW  HW  HW  OW  HW  HW  
OW  HW  HW  OW  HW  HW  OW  HW  HW  OW  HW  HW  OW  HW  HW  OW  HW  HW  OW  HW  
HW  OW  HW  HW  OW  HW  HW  OW  HW  HW  OW  HW  HW  OW  HW  HW  OW  HW  HW  OW  
HW  HW  OW  HW  HW  OW  HW  HW  OW  HW  HW  OW  HW  HW  OW  HW  HW  OW  HW  HW  
OW  HW  HW  OW  HW  HW  OW  HW  HW  OW  HW  HW  OW  HW  HW  OW  HW  HW  OW  HW  
HW  OW  HW  HW  OW  HW  HW  OW  HW  HW  OW  HW  HW  OW  HW  HW  OW  HW  HW  OW  
HW  HW  OW  HW  HW  OW  HW  HW  OW  HW  HW  OW  HW  HW  OW  HW  HW  OW  HW  HW  
OW  HW  HW  OW  HW  HW  OW  HW  HW  OW  HW  HW  OW  HW  HW  OW  HW  HW  OW  HW  
HW  OW  HW  HW  OW  HW  HW  OW  HW  HW  OW  HW  HW  OW  HW  HW  OW  HW  HW  OW  
HW  HW  OW  HW  HW  OW  HW  HW  OW  HW  HW  OW  HW  HW  OW  HW  HW  OW  HW  HW  
OW  HW  HW  OW  HW  HW  OW  HW  HW  OW  HW  HW  OW  HW  HW  OW  HW  HW  OW  HW  
HW  OW  HW  HW  OW  HW  HW  OW  HW  HW  OW  HW  HW  OW  HW  HW  OW  HW  HW  OW  
HW  HW  OW  HW  HW  OW  HW  HW  OW  HW  HW  OW  HW  HW  OW  HW  HW  OW  HW  HW  
OW  HW  HW  OW  HW  HW  OW  HW  HW  OW  HW  HW  OW  HW  HW  OW  HW  HW  OW  HW  
HW  OW  HW  HW  OW  HW  HW  OW  HW  HW  OW  HW  HW  OW  HW  HW  OW  HW  HW  OW  
HW  HW  OW  HW  HW  OW  HW  HW  OW  HW  HW  OW  HW  HW  OW  HW  HW  OW  HW  HW  
OW  HW  HW  OW  HW  HW  OW  HW  HW  OW  HW  HW  OW  HW  HW  OW  HW  HW  OW  HW  
HW  OW  HW  HW  OW  HW  HW  OW  HW  HW  OW  HW  HW  OW  HW  HW  OW  HW  HW  OW  
HW  HW  OW  HW  HW  OW  HW  HW  OW  HW  HW  OW  HW  HW  OW  HW  HW  OW  HW  HW  
OW  HW  HW  OW  HW  HW  OW  HW  HW  OW  HW  HW  OW  HW  HW  OW  HW  HW  OW  HW  
HW  OW  HW  HW  OW  HW  HW  OW  HW  HW  OW  HW  HW  OW  HW  HW  OW  HW  HW  OW  
HW  HW  OW  HW  HW  OW  HW  HW  OW  HW  HW  OW  HW  HW  OW  HW  HW  OW  HW  HW  
OW  HW  HW  OW  HW  HW  OW  HW  HW  OW  HW  HW  OW  HW  HW  OW  HW  HW  OW  HW  
HW  OW  HW  HW  OW  HW  HW  OW  HW  HW  OW  HW  HW  OW  HW  HW  OW  HW  HW  OW  
HW  HW  OW  HW  HW  OW  HW  HW  OW  HW  HW  OW  HW  HW  OW  HW  HW  OW  HW  HW  
OW  HW  HW  OW  HW  HW  OW  HW  HW  OW  HW  HW  OW  HW  HW  OW  HW  HW  OW  HW  
HW  OW  HW  HW  OW  HW  HW  OW  HW  HW  OW  HW  HW  OW  HW  HW  OW  HW  HW  OW  
HW  HW  OW  HW  HW  OW  HW  HW  OW  HW  HW  OW  HW  HW  OW  HW  HW  OW  HW  HW  
OW  HW  HW  OW  HW  HW  OW  HW  HW  OW  HW  HW  OW  HW  HW  OW  HW  HW  OW  HW  
HW  OW  HW  HW  OW  HW  HW  OW  HW  HW  OW  HW  HW  OW  HW  HW  OW  HW  HW  OW  
HW  HW  OW  HW  HW  OW  HW  HW  OW  HW  HW  OW  HW  HW  OW  HW  HW  OW  HW  HW  
OW  HW  HW  OW  HW  HW  OW  HW  HW  OW  HW  HW  OW  HW  HW  OW  HW  HW  OW  HW  
HW  OW  HW  HW  OW  HW  HW  OW  HW  HW  OW  HW  HW  OW  HW  HW  OW  HW  HW  OW  
HW  HW  OW  HW  HW  OW  HW  HW  OW  HW  HW  OW  HW  HW  OW  HW  HW  OW  HW  HW  
OW  HW  HW  OW  HW  HW  OW  HW  HW  OW  HW  HW  OW  HW  HW  OW  HW  HW  OW  HW  
HW  OW  HW  HW  OW  HW  HW  OW  HW  HW  OW  HW  HW  OW  HW  HW  OW  HW  HW  OW  
HW  HW  OW  HW  HW  OW  HW  HW  OW  HW  HW  OW  HW  HW  OW  HW  HW  OW  HW  HW  
OW  HW  HW  OW  HW  HW  OW  HW  HW  OW  HW  HW  OW  HW  HW  OW  HW  HW  OW  HW  
HW  OW  HW  HW  OW  HW  HW  OW  HW  HW  OW  HW  HW  OW  HW  HW  OW  HW  HW  OW  
HW  HW  OW  HW  HW  OW  HW  HW  OW  HW  HW  OW  HW  HW  OW  HW  HW  OW  HW  HW  
OW  HW  HW  OW  HW  HW  OW  HW  HW  OW  HW  HW  OW  HW  HW  OW  HW  HW  OW  HW  
HW  OW  HW  HW  OW  HW  HW  OW  HW  HW  OW  HW  HW  OW  HW  HW  OW  HW  HW  OW  
HW  HW  OW  HW  HW  OW  HW  HW  OW  HW  HW  OW  HW  HW  OW  HW  HW  OW  HW  HW  
OW  HW  HW  OW  HW  HW  OW  HW  HW  OW  HW  HW  OW  HW  HW  OW  HW  HW  OW  HW  
HW  OW  HW  HW  OW  HW  HW  OW  HW  HW  OW  HW  HW  OW  HW  HW  OW  HW  HW  OW  
HW  HW  OW  HW  HW  OW  HW  HW  OW  HW  HW  OW  HW  HW  OW  HW  HW  OW  HW  HW  
OW  HW  HW  OW  HW  HW  OW  HW  HW  OW  HW  HW  OW  HW  HW  OW  HW  HW  OW  HW  
HW  OW  HW  HW  OW  HW  HW  OW  HW  HW  OW  HW  HW  OW  HW  HW  OW  HW  HW  OW  
HW  HW  OW  HW  HW  OW  HW  HW  OW  HW  HW  OW  HW  HW  OW  HW  HW  OW  HW  HW  
OW  HW  HW  OW  HW  HW  OW  HW  HW  OW  HW  HW  OW  HW  HW  OW  HW  HW  OW  HW  
HW  OW  HW  HW  OW  HW  HW  OW  HW  HW  OW  HW  HW  OW  HW  HW  OW  HW  HW  OW  
HW  HW  OW  HW  HW  OW  HW  HW  OW  HW  HW  OW  HW  HW  OW  HW  HW  OW  HW  HW  
OW  HW  HW  OW  HW  HW  OW  HW  HW  OW  HW  HW  OW  HW  HW  OW  HW  HW  OW  HW  
HW  OW  HW  HW  OW  HW  HW  OW  HW  HW  OW  HW  HW  OW  HW  HW  OW  HW  HW  OW  
HW  HW  OW  HW  HW  OW  HW  HW  OW  HW  HW  OW  HW  HW  OW  HW  HW  OW  HW  HW  
OW  HW  HW  OW  HW  HW  OW  HW  HW  OW  HW  HW  OW  HW  HW  OW  HW  HW  OW  HW  
HW  OW  HW  HW  OW  HW  HW  OW  HW  HW  OW  HW  HW  OW  HW  HW  OW  HW  HW  OW  
HW  HW  OW  HW  HW  OW  HW  HW  OW  HW  HW  OW  HW  HW  OW  HW  HW  OW  HW  HW  
OW  HW  HW  OW  HW  HW  OW  HW  HW  OW  HW  HW  OW  HW  HW  OW  HW  HW  OW  HW  
HW  OW  HW  HW  OW  HW  HW  OW  HW  HW  OW  HW  HW  OW  HW  HW  OW  HW  HW  OW  
HW  HW  OW  HW  HW  OW  HW  HW  OW  HW  HW  OW  HW  HW  OW  HW  HW  OW  HW  HW  
OW  HW  HW  OW  HW  HW  OW  HW  HW  OW  HW  HW  OW  HW  HW  OW  HW  HW  OW  HW  
HW  OW  HW  HW  OW  HW  HW  OW  HW  HW  OW  HW  HW  OW  HW  HW  OW  HW  HW  OW  
HW  HW  OW  HW  HW  OW  HW  HW  OW  HW  HW  OW  HW  HW  OW  HW  HW  OW  HW  HW  
OW  HW  HW  OW  HW  HW  OW  HW  HW  OW  HW  HW  OW  HW  HW  OW  HW  HW  OW  HW  
HW  OW  HW  HW  OW  HW  HW  OW  HW  HW  OW  HW  HW  OW  HW  HW  OW  HW  HW  OW  
HW  HW  OW  HW  HW  OW  HW  HW  OW  HW  HW  OW  HW  HW  OW  HW  HW  OW  HW  HW  
OW  HW  HW  OW  HW  HW  OW  HW  HW  OW  HW  HW  OW  HW  HW  OW  HW  HW  OW  HW  
HW  OW  HW  HW  OW  HW  HW  OW  HW  HW  OW  HW  HW  OW  HW  HW  OW  HW  HW  OW  
HW  HW  OW  HW  HW  OW  HW  HW  OW  HW  HW  OW  HW  HW  OW  HW  HW  OW  HW  HW  
OW  HW  HW  OW  HW  HW  OW  HW  HW  OW  HW  HW  OW  HW  HW  OW  HW  HW  OW  HW  
HW  OW  HW  HW  OW  HW  HW  OW  HW  HW  OW  HW  HW  OW  HW  HW  OW  HW  HW  OW  
HW  HW  OW  HW  HW  OW  HW  HW  OW  HW  HW  OW  HW  HW  OW  HW  HW  OW  HW  HW  
OW  HW  HW  OW  HW  HW  OW  HW  HW  OW  HW  HW  OW  HW  HW  OW  HW  HW  OW  HW  
HW  OW  HW  HW  OW  HW  HW  OW  HW  HW  OW  HW  HW  OW  HW  HW  OW  HW  HW  OW  
HW  HW  OW  HW  HW  OW  HW  HW  OW  HW  HW  OW  HW  HW  OW  HW  HW  OW  HW  HW  
OW  HW  HW  OW  HW  HW  OW  HW  HW  OW  HW  HW  OW  HW  HW  OW  HW  HW  OW  HW  
HW  OW  HW  HW  OW  HW  HW  OW  HW  HW  OW  HW  HW  OW  HW  HW  OW  HW  HW  OW  
HW  HW  OW  HW  HW  OW  HW  HW  OW  HW  HW  OW  HW  HW  OW  HW  HW  OW  HW  HW  
OW  HW  HW  OW  HW  HW  OW  HW  HW  OW  HW  HW  OW  HW  HW  OW  HW  HW  OW  HW  
HW  OW  HW  HW  OW  HW  HW  OW  HW  HW  OW  HW  HW  OW  HW  HW  OW  HW  HW  OW  
HW  HW  OW  HW  HW  OW  HW  HW  OW  HW  HW  OW  HW  HW  OW  HW  HW  OW  HW  HW  
OW  HW  HW  OW  HW  HW  OW  HW  HW  OW  HW  HW  OW  HW  HW  OW  HW  HW  OW  HW  
HW  OW  HW  HW  OW  HW  HW  OW  HW  HW  OW  HW  HW  OW  HW  HW  OW  HW  HW  OW  
HW  HW  OW  HW  HW  OW  HW  HW  OW  HW  HW  OW  HW  HW  OW  HW  HW  OW  HW  HW  
OW  HW  HW  OW  HW  HW  OW  HW  HW  OW  HW  HW  OW  HW  HW  OW  HW  HW  OW  HW  
HW  OW  HW  HW  OW  HW  HW  OW  HW  HW  OW  HW  HW  OW  HW  HW  OW  HW  HW  OW  
HW  HW  OW  HW  HW  OW  HW  HW  OW  HW  HW  OW  HW  HW  OW  HW  HW  OW  HW  HW  
OW  HW  HW  OW  HW  HW  OW  HW  HW  OW  HW  HW  OW  HW  HW  OW  HW  HW  OW  HW  
HW  OW  HW  HW  OW  HW  HW  OW  HW  HW  OW  HW  HW  OW  HW  HW  OW  HW  HW  OW  
HW  HW  OW  HW  HW  OW  HW  HW  OW  HW  HW  OW  HW  HW  OW  HW  HW  OW  HW  HW  
OW  HW  HW  OW  HW  HW  OW  HW  HW  OW  HW  HW  OW  HW  HW  OW  HW  HW  OW  HW  
HW  OW  HW  HW  OW  HW  HW  OW  HW  HW  OW  HW  HW  OW  HW  HW  OW  HW  HW  OW  
HW  HW  OW  HW  HW  OW  HW  HW  OW  HW  HW  OW  HW  HW  OW  HW  HW  OW  HW  HW  
OW  HW  HW  OW  HW  HW  OW  HW  HW  OW  HW  HW  OW  HW  HW  OW  HW  HW  OW  HW  
HW  OW  HW  HW  OW  HW  HW  OW  HW  HW  OW  HW  HW  OW  HW  HW  OW  HW  HW  OW  
HW  HW  OW  HW  HW  OW  HW  HW  OW  HW  HW  OW  HW  HW  OW  HW  HW  OW  HW  HW  
OW  HW  HW  OW  HW  HW  OW  HW  HW  OW  HW  HW  OW  HW  HW  OW  HW  HW  OW  HW  
HW  OW  HW  HW  OW  HW  HW  OW  HW  HW  OW  HW  HW  OW  HW  HW  OW  HW  HW  OW  
HW  HW  OW  HW  HW  OW  HW  HW  OW  HW  HW  OW  HW  HW  OW  HW  HW  OW  HW  HW  
OW  HW  HW  OW  HW  HW  OW  HW  HW  OW  HW  HW  OW  HW  HW  OW  HW  HW  OW  HW  
HW  OW  HW  HW  OW  HW  HW  OW  HW  HW  OW  HW  HW  OW  HW  HW  OW  HW  HW  OW  
HW  HW  OW  HW  HW  OW  HW  HW  OW  HW  HW  OW  HW  HW  OW  HW  HW  OW  HW  HW  
OW  HW  HW  OW  HW  HW  OW  HW  HW  OW  HW  HW  OW  HW  HW  OW  HW  HW  OW  HW  
HW  OW  HW  HW  OW  HW  HW  OW  HW  HW  OW  HW  HW  OW  HW  HW  OW  HW  HW  OW  
HW  HW  OW  HW  HW  OW  HW  HW  OW  HW  HW  OW  HW  HW  OW  HW  HW  OW  HW  HW  
OW  HW  HW  OW  HW  HW  OW  HW  HW  OW  HW  HW  OW  HW  HW  OW  HW  HW  OW  HW  
HW  OW  HW  HW  OW  HW  HW  OW  HW  HW  OW  HW  HW  OW  HW  HW  OW  HW  HW  OW  
HW  HW  OW  HW  HW  OW  HW  HW  OW  HW  HW  OW  HW  HW  OW  HW  HW  OW  HW  HW  
OW  HW  HW  OW  HW  HW  OW  HW  HW  OW  HW  HW  OW  HW  HW  OW  HW  HW  OW  HW  
HW  OW  HW  HW  OW  HW  HW  OW  HW  HW  OW  HW  HW  OW  HW  HW  OW  HW  HW  OW  
HW  HW  OW  HW  HW  OW  HW  HW  OW  HW  HW  OW  HW  HW  OW  HW  HW  OW  HW  HW  
OW  HW  HW  OW  HW  HW  OW  HW  HW  OW  HW  HW  OW  HW  HW  OW  HW  HW  OW  HW  
HW  OW  HW  HW  OW  HW  HW  OW  HW  HW  OW  HW  HW  OW  HW  HW  OW  HW  HW  OW  
HW  HW  OW  HW  HW  OW  HW  HW  OW  HW  HW  OW  HW  HW  OW  HW  HW  OW  HW  HW  
OW  HW  HW  OW  HW  HW  OW  HW  HW  OW  HW  HW  OW  HW  HW  OW  HW  HW  OW  HW  
HW  OW  HW  HW  OW  HW  HW  OW  HW  HW  OW  HW  HW  OW  HW  HW  OW  HW  HW  OW  
HW  HW  OW  HW  HW  OW  HW  HW  OW  HW  HW  OW  HW  HW  OW  HW  HW  OW  HW  HW  
OW  HW  HW  OW  HW  HW  OW  HW  HW  OW  HW  HW  OW  HW  HW  OW  HW  HW  OW  HW  
HW  OW  HW  HW  OW  HW  HW  OW  HW  HW  OW  HW  HW  OW  HW  HW  OW  HW  HW  OW  
HW  HW  OW  HW  HW  OW  HW  HW  OW  HW  HW  OW  HW  HW  OW  HW  HW  OW  HW  HW  
OW  HW  HW  OW  HW  HW  OW  HW  HW  OW  HW  HW  OW  HW  HW  OW  HW  HW  OW  HW  
HW  OW  HW  HW  OW  HW  HW  OW  HW  HW  OW  HW  HW  OW  HW  HW  OW  HW  HW  OW  
HW  HW  OW  HW  HW  OW  HW  HW  OW  HW  HW  OW  HW  HW  OW  HW  HW  OW  HW  HW  
OW  HW  HW  OW  HW  HW  OW  HW  HW  OW  HW  HW  OW  HW  HW  OW  HW  HW  OW  HW  
HW  OW  HW  HW  OW  HW  HW  OW  HW  HW  OW  HW  HW  OW  HW  HW  OW  HW  HW  OW  
HW  HW  OW  HW  HW  OW  HW  HW  OW  HW  HW  OW  HW  HW  OW  HW  HW  OW  HW  HW  
OW  HW  HW  OW  HW  HW  OW  HW  HW  OW  HW  HW  OW  HW  HW  OW  HW  HW  OW  HW  
HW  OW  HW  HW  OW  HW  HW  OW  HW  HW  OW  HW  HW  OW  HW  HW  OW  HW  HW  OW  
HW  HW  OW  HW  HW  OW  HW  HW  OW  HW  HW  OW  HW  HW  OW  HW  HW  OW  HW  HW  
OW  HW  HW  OW  HW  HW  OW  HW  HW  OW  HW  HW  OW  HW  HW  OW  HW  HW  OW  HW  
HW  OW  HW  HW  OW  HW  HW  OW  HW  HW  OW  HW  HW  OW  HW  HW  OW  HW  HW  OW  
HW  HW  OW  HW  HW  OW  HW  HW  OW  HW  HW  OW  HW  HW  OW  HW  HW  OW  HW  HW  
OW  HW  HW  OW  HW  HW  OW  HW  HW  OW  HW  HW  OW  HW  HW  OW  HW  HW  OW  HW  
HW  OW  HW  HW  OW  HW  HW  OW  HW  HW  OW  HW  HW  OW  HW  HW  OW  HW  HW  OW  
HW  HW  OW  HW  HW  OW  HW  HW  OW  HW  HW  OW  HW  HW  OW  HW  HW  OW  HW  HW  
OW  HW  HW  OW  HW  HW  OW  HW  HW  OW  HW  HW  OW  HW  HW  OW  HW  HW  OW  HW  
HW  OW  HW  HW  OW  HW  HW  OW  HW  HW  OW  HW  HW  OW  HW  HW  OW  HW  HW  OW  
HW  HW  OW  HW  HW  OW  HW  HW  OW  HW  HW  OW  HW  HW  OW  HW  HW  OW  HW  HW  
OW  HW  HW  OW  HW  HW  OW  HW  HW  OW  HW  HW  OW  HW  HW  OW  HW  HW  OW  HW  
HW  OW  HW  HW  OW  HW  HW  OW  HW  HW  OW  HW  HW  OW  HW  HW  OW  HW  HW  OW  
HW  HW  OW  HW  HW  OW  HW  HW  OW  HW  HW  OW  HW  HW  OW  HW  HW  OW  HW  HW  
OW  HW  HW  OW  HW  HW  OW  HW  HW  OW  HW  HW  OW  HW  HW  OW  HW  HW  OW  HW  
HW  OW  HW  HW  OW  HW  HW  OW  HW  HW  OW  HW  HW  OW  HW  HW  OW  HW  HW  OW  
HW  HW  OW  HW  HW  OW  HW  HW  OW  HW  HW  OW  HW  HW  OW  HW  HW  OW  HW  HW  
OW  HW  HW  OW  HW  HW  OW  HW  HW  OW  HW  HW  OW  HW  HW  OW  HW  HW  OW  HW  
HW  OW  HW  HW  OW  HW  HW  OW  HW  HW  OW  HW  HW  OW  HW  HW  OW  HW  HW  OW  
HW  HW  OW  HW  HW  OW  HW  HW  OW  HW  HW  OW  HW  HW  OW  HW  HW  OW  HW  HW  
OW  HW  HW  OW  HW  HW  OW  HW  HW  OW  HW  HW  OW  HW  HW  OW  HW  HW  OW  HW  
HW  OW  HW  HW  OW  HW  HW  OW  HW  HW  OW  HW  HW  OW  HW  HW  OW  HW  HW  OW  
HW  HW  OW  HW  HW  OW  HW  HW  OW  HW  HW  OW  HW  HW  OW  HW  HW  OW  HW  HW  
OW  HW  HW  OW  HW  HW  OW  HW  HW  OW  HW  HW  OW  HW  HW  OW  HW  HW  OW  HW  
HW  OW  HW  HW  OW  HW  HW  OW  HW  HW  OW  HW  HW  OW  HW  HW  OW  HW  HW  OW  
HW  HW  OW  HW  HW  OW  HW  HW  OW  HW  HW  OW  HW  HW  OW  HW  HW  OW  HW  HW  
OW  HW  HW  OW  HW  HW  OW  HW  HW  OW  HW  HW  OW  HW  HW  OW  HW  HW  OW  HW  
HW  OW  HW  HW  OW  HW  HW  OW  HW  HW  OW  HW  HW  OW  HW  HW  OW  HW  HW  OW  
HW  HW  OW  HW  HW  OW  HW  HW  OW  HW  HW  OW  HW  HW  OW  HW  HW  OW  HW  HW  
OW  HW  HW  OW  HW  HW  OW  HW  HW  OW  HW  HW  OW  HW  HW  OW  HW  HW  OW  HW  
HW  OW  HW  HW  OW  HW  HW  OW  HW  HW  OW  HW  HW  OW  HW  HW  OW  HW  HW  OW  
HW  HW  OW  HW  HW  OW  HW  HW  OW  HW  HW  OW  HW  HW  OW  HW  HW  OW  HW  HW  
OW  HW  HW  OW  HW  HW  OW  HW  HW  OW  HW  HW  OW  HW  HW  OW  HW  HW  OW  HW  
HW  OW  HW  HW  OW  HW  HW  OW  HW  HW  OW  HW  HW  OW  HW  HW  OW  HW  HW  OW  
HW  HW  OW  HW  HW  OW  HW  HW  OW  HW  HW  OW  HW  HW  OW  HW  HW  OW  HW  HW  
OW  HW  HW  OW  HW  HW  OW  HW  HW  OW  HW  HW  OW  HW  HW  OW  HW  HW  OW  HW  
HW  OW  HW  HW  OW  HW  HW  OW  HW  HW  OW  HW  HW  OW  HW  HW  OW  HW  HW  OW  
HW  HW  OW  HW  HW  OW  HW  HW  OW  HW  HW  OW  HW  HW  OW  HW  HW  OW  HW  HW  
OW  HW  HW  OW  HW  HW  OW  HW  HW  OW  HW  HW  OW  HW  HW  OW  HW  HW  OW  HW  
HW  OW  HW  HW  OW  HW  HW  OW  HW  HW  OW  HW  HW  OW  HW  HW  OW  HW  HW  OW  
HW  HW  OW  HW  HW  OW  HW  HW  OW  HW  HW  OW  HW  HW  OW  HW  HW  OW  HW  HW  
OW  HW  HW  OW  HW  HW  OW  HW  HW  OW  HW  HW  OW  HW  HW  OW  HW  HW  OW  HW  
HW  OW  HW  HW  OW  HW  HW  OW  HW  HW  OW  HW  HW  OW  HW  HW  OW  HW  HW  OW  
HW  HW  OW  HW  HW  OW  HW  HW  OW  HW  HW  OW  HW  HW  OW  HW  HW  OW  HW  HW  
OW  HW  HW  OW  HW  HW  OW  HW  HW  OW  HW  HW  OW  HW  HW  OW  HW  HW  OW  HW  
HW  OW  HW  HW  OW  HW  HW  OW  HW  HW  OW  HW  HW  OW  HW  HW  OW  HW  HW  OW  
HW  HW  OW  HW  HW  OW  HW  HW  OW  HW  HW  OW  HW  HW  OW  HW  HW  OW  HW  HW  
OW  HW  HW  OW  HW  HW  OW  HW  HW  OW  HW  HW  OW  HW  HW  OW  HW  HW  OW  HW  
HW  OW  HW  HW  OW  HW  HW  OW  HW  HW  OW  HW  HW  OW  HW  HW  OW  HW  HW  OW  
HW  HW  OW  HW  HW  OW  HW  HW  OW  HW  HW  OW  HW  HW  OW  HW  HW  OW  HW  HW  
OW  HW  HW  OW  HW  HW  OW  HW  HW  OW  HW  HW  OW  HW  HW  OW  HW  HW  OW  HW  
HW  OW  HW  HW  OW  HW  HW  OW  HW  HW  OW  HW  HW  OW  HW  HW  OW  HW  HW  OW  
HW  HW  OW  HW  HW  OW  HW  HW  OW  HW  HW  OW  HW  HW  OW  HW  HW  OW  HW  HW  
OW  HW  HW  OW  HW  HW  OW  HW  HW  OW  HW  HW  OW  HW  HW  OW  HW  HW  OW  HW  
HW  OW  HW  HW  OW  HW  HW  OW  HW  HW  OW  HW  HW  OW  HW  HW  OW  HW  HW  OW  
HW  HW  OW  HW  HW  OW  HW  HW  OW  HW  HW  OW  HW  HW  OW  HW  HW  OW  HW  HW  
OW  HW  HW  OW  HW  HW  OW  HW  HW  OW  HW  HW  OW  HW  HW  OW  HW  HW  OW  HW  
HW  OW  HW  HW  OW  HW  HW  OW  HW  HW  OW  HW  HW  OW  HW  HW  OW  HW  HW  OW  
HW  HW  OW  HW  HW  OW  HW  HW  OW  HW  HW  OW  HW  HW  OW  HW  HW  OW  HW  HW  
OW  HW  HW  OW  HW  HW  OW  HW  HW  OW  HW  HW  OW  HW  HW  OW  HW  HW  OW  HW  
HW  OW  HW  HW  OW  HW  HW  OW  HW  HW  OW  HW  HW  OW  HW  HW  OW  HW  HW  OW  
HW  HW  OW  HW  HW  OW  HW  HW  OW  HW  HW  OW  HW  HW  OW  HW  HW  OW  HW  HW  
OW  HW  HW  OW  HW  HW  OW  HW  HW  OW  HW  HW  OW  HW  HW  OW  HW  HW  OW  HW  
HW  OW  HW  HW  OW  HW  HW  OW  HW  HW  OW  HW  HW  OW  HW  HW  OW  HW  HW  OW  
HW  HW  OW  HW  HW  OW  HW  HW  OW  HW  HW  OW  HW  HW  OW  HW  HW  OW  HW  HW  
OW  HW  HW  OW  HW  HW  OW  HW  HW  OW  HW  HW  OW  HW  HW  OW  HW  HW  OW  HW  
HW  OW  HW  HW  OW  HW  HW  OW  HW  HW  OW  HW  HW  OW  HW  HW  OW  HW  HW  OW  
HW  HW  OW  HW  HW  OW  HW  HW  OW  HW  HW  OW  HW  HW  OW  HW  HW  OW  HW  HW  
OW  HW  HW  OW  HW  HW  OW  HW  HW  OW  HW  HW  OW  HW  HW  OW  HW  HW  OW  HW  
HW  OW  HW  HW  OW  HW  HW  OW  HW  HW  OW  HW  HW  OW  HW  HW  OW  HW  HW  OW  
HW  HW  OW  HW  HW  OW  HW  HW  OW  HW  HW  OW  HW  HW  OW  HW  HW  OW  HW  HW  
OW  HW  HW  OW  HW  HW  OW  HW  HW  OW  HW  HW  OW  HW  HW  OW  HW  HW  OW  HW  
HW  OW  HW  HW  OW  HW  HW  OW  HW  HW  OW  HW  HW  OW  HW  HW  OW  HW  HW  OW  
HW  HW  OW  HW  HW  OW  HW  HW  OW  HW  HW  OW  HW  HW  OW  HW  HW  OW  HW  HW  
OW  HW  HW  OW  HW  HW  OW  HW  HW  OW  HW  HW  OW  HW  HW  OW  HW  HW  OW  HW  
HW  OW  HW  HW  OW  HW  HW  OW  HW  HW  OW  HW  HW  OW  HW  HW  OW  HW  HW  OW  
HW  HW  OW  HW  HW  OW  HW  HW  OW  HW  HW  OW  HW  HW  OW  HW  HW  OW  HW  HW  
OW  HW  HW  OW  HW  HW  OW  HW  HW  OW  HW  HW  OW  HW  HW  OW  HW  HW  OW  HW  
HW  OW  HW  HW  OW  HW  HW  OW  HW  HW  OW  HW  HW  OW  HW  HW  OW  HW  HW  OW  
HW  HW  OW  HW  HW  OW  HW  HW  OW  HW  HW  OW  HW  HW  OW  HW  HW  OW  HW  HW  
OW  HW  HW  OW  HW  HW  OW  HW  HW  OW  HW  HW  OW  HW  HW  OW  HW  HW  OW  HW  
HW  OW  HW  HW  OW  HW  HW  OW  HW  HW  OW  HW  HW  OW  HW  HW  OW  HW  HW  OW  
HW  HW  OW  HW  HW  OW  HW  HW  OW  HW  HW  OW  HW  HW  OW  HW  HW  OW  HW  HW  
OW  HW  HW  OW  HW  HW  OW  HW  HW  OW  HW  HW  OW  HW  HW  OW  HW  HW  OW  HW  
HW  OW  HW  HW  OW  HW  HW  OW  HW  HW  OW  HW  HW  OW  HW  HW  OW  HW  HW  OW  
HW  HW  OW  HW  HW  OW  HW  HW  OW  HW  HW  OW  HW  HW  OW  HW  HW  OW  HW  HW  
OW  HW  HW  OW  HW  HW  OW  HW  HW  OW  HW  HW  OW  HW  HW  OW  HW  HW  OW  HW  
HW  OW  HW  HW  OW  HW  HW  OW  HW  HW  OW  HW  HW  OW  HW  HW  OW  HW  HW  OW  
HW  HW  OW  HW  HW  OW  HW  HW  OW  HW  HW  OW  HW  HW  OW  HW  HW  OW  HW  HW  
OW  HW  HW  OW  HW  HW  OW  HW  HW  OW  HW  HW  OW  HW  HW  OW  HW  HW  OW  HW  
HW  OW  HW  HW  OW  HW  HW  OW  HW  HW  OW  HW  HW  OW  HW  HW  OW  HW  HW  OW  
HW  HW  OW  HW  HW  OW  HW  HW  OW  HW  HW  OW  HW  HW  OW  HW  HW  OW  HW  HW  
OW  HW  HW  OW  HW  HW  OW  HW  HW  OW  HW  HW  OW  HW  HW  OW  HW  HW  OW  HW  
HW  OW  HW  HW  OW  HW  HW  OW  HW  HW  OW  HW  HW  OW  HW  HW  OW  HW  HW  OW  
HW  HW  OW  HW  HW  OW  HW  HW  OW  HW  HW  OW  HW  HW  OW  HW  HW  OW  HW  HW  
OW  HW  HW  OW  HW  HW  OW  HW  HW  OW  HW  HW  OW  HW  HW  OW  HW  HW  OW  HW  
HW  OW  HW  HW  OW  HW  HW  OW  HW  HW  OW  HW  HW  OW  HW  HW  OW  HW  HW  OW  
HW  HW  OW  HW  HW  OW  HW  HW  OW  HW  HW  OW  HW  HW  OW  HW  HW  OW  HW  HW  
OW  HW  HW  OW  HW  HW  OW  HW  HW  OW  HW  HW  OW  HW  HW  OW  HW  HW  OW  HW  
HW  OW  HW  HW  OW  HW  HW  OW  HW  HW  OW  HW  HW  OW  HW  HW  OW  HW  HW  OW  
HW  HW  OW  HW  HW  OW  HW  HW  OW  HW  HW  OW  HW  HW  OW  HW  HW  OW  HW  HW  
OW  HW  HW  OW  HW  HW  OW  HW  HW  OW  HW  HW  OW  HW  HW  OW  HW  HW  OW  HW  
HW  OW  HW  HW  OW  HW  HW  OW  HW  HW  OW  HW  HW  OW  HW  HW  OW  HW  HW  OW  
HW  HW  OW  HW  HW  OW  HW  HW  OW  HW  HW  OW  HW  HW  OW  HW  HW  OW  HW  HW  
OW  HW  HW  OW  HW  HW  OW  HW  HW  OW  HW  HW  OW  HW  HW  OW  HW  HW  OW  HW  
HW  OW  HW  HW  OW  HW  HW  OW  HW  HW  OW  HW  HW  OW  HW  HW  OW  HW  HW  OW  
HW  HW  OW  HW  HW  OW  HW  HW  OW  HW  HW  OW  HW  HW  OW  HW  HW  OW  HW  HW  
OW  HW  HW  OW  HW  HW  OW  HW  HW  OW  HW  HW  OW  HW  HW  OW  HW  HW  OW  HW  
HW  OW  HW  HW  OW  HW  HW  OW  HW  HW  OW  HW  HW  OW  HW  HW  OW  HW  HW  OW  
HW  HW  OW  HW  HW  OW  HW  HW  OW  HW  HW  OW  HW  HW  OW  HW  HW  OW  HW  HW  
OW  HW  HW  OW  HW  HW  OW  HW  HW  OW  HW  HW  OW  HW  HW  OW  HW  HW  OW  HW  
HW  OW  HW  HW  OW  HW  HW  OW  HW  HW  OW  HW  HW  OW  HW  HW  OW  HW  HW  OW  
HW  HW  OW  HW  HW  OW  HW  HW  OW  HW  HW  OW  HW  HW  OW  HW  HW  OW  HW  HW  
OW  HW  HW  OW  HW  HW  OW  HW  HW  OW  HW  HW  OW  HW  HW  OW  HW  HW  OW  HW  
HW  OW  HW  HW  OW  HW  HW  OW  HW  HW  OW  HW  HW  OW  HW  HW  OW  HW  HW  OW  
HW  HW  OW  HW  HW  OW  HW  HW  OW  HW  HW  OW  HW  HW  OW  HW  HW  OW  HW  HW  
OW  HW  HW  OW  HW  HW  OW  HW  HW  OW  HW  HW  OW  HW  HW  OW  HW  HW  OW  HW  
HW  OW  HW  HW  OW  HW  HW  OW  HW  HW  OW  HW  HW  OW  HW  HW  OW  HW  HW  OW  
HW  HW  OW  HW  HW  OW  HW  HW  OW  HW  HW  OW  HW  HW  OW  HW  HW  OW  HW  HW  
OW  HW  HW  OW  HW  HW  OW  HW  HW  OW  HW  HW  OW  HW  HW  OW  HW  HW  OW  HW  
HW  OW  HW  HW  OW  HW  HW  OW  HW  HW  OW  HW  HW  OW  HW  HW  OW  HW  HW  OW  
HW  HW  OW  HW  HW  OW  HW  HW  OW  HW  HW  OW  HW  HW  OW  HW  HW  OW  HW  HW  
OW  HW  HW  OW  HW  HW  OW  HW  HW  OW  HW  HW  OW  HW  HW  OW  HW  HW  OW  HW  
HW  OW  HW  HW  OW  HW  HW  OW  HW  HW  OW  HW  HW  OW  HW  HW  OW  HW  HW  OW  
HW  HW  OW  HW  HW  OW  HW  HW  OW  HW  HW  OW  HW  HW  OW  HW  HW  OW  HW  HW  
OW  HW  HW  OW  HW  HW  OW  HW  HW  OW  HW  HW  OW  HW  HW  OW  HW  HW  OW  HW  
HW  OW  HW  HW  OW  HW  HW  OW  HW  HW  OW  HW  HW  OW  HW  HW  OW  HW  HW  OW  
HW  HW  OW  HW  HW  OW  HW  HW  OW  HW  HW  OW  HW  HW  OW  HW  HW  OW  HW  HW  
OW  HW  HW  OW  HW  HW  OW  HW  HW  OW  HW  HW  OW  HW  HW  OW  HW  HW  OW  HW  
HW  OW  HW  HW  OW  HW  HW  OW  HW  HW  OW  HW  HW  OW  HW  HW  OW  HW  HW  OW  
HW  HW  OW  HW  HW  OW  HW  HW  OW  HW  HW  OW  HW  HW  OW  HW  HW  OW  HW  HW  
OW  HW  HW  OW  HW  HW  OW  HW  HW  OW  HW  HW  OW  HW  HW  OW  HW  HW  OW  HW  
HW  OW  HW  HW  OW  HW  HW  OW  HW  HW  OW  HW  HW  OW  HW  HW  OW  HW  HW  OW  
HW  HW  OW  HW  HW  OW  HW  HW  OW  HW  HW  OW  HW  HW  OW  HW  HW  OW  HW  HW  
OW  HW  HW  OW  HW  HW  OW  HW  HW  OW  HW  HW  OW  HW  HW  OW  HW  HW  OW  HW  
HW  OW  HW  HW  OW  HW  HW  OW  HW  HW  OW  HW  HW  OW  HW  HW  OW  HW  HW  OW  
HW  HW  OW  HW  HW  OW  HW  HW  OW  HW  HW  OW  HW  HW  OW  HW  HW  OW  HW  HW  
OW  HW  HW  OW  HW  HW  OW  HW  HW  OW  HW  HW  OW  HW  HW  OW  HW  HW  OW  HW  
HW  OW  HW  HW  OW  HW  HW  OW  HW  HW  OW  HW  HW  OW  HW  HW  OW  HW  HW  OW  
HW  HW  OW  HW  HW  OW  HW  HW  OW  HW  HW  OW  HW  HW  OW  HW  HW  OW  HW  HW  
OW  HW  HW  OW  HW  HW  OW  HW  HW  OW  HW  HW  OW  HW  HW  OW  HW  HW  OW  HW  
HW  OW  HW  HW  OW  HW  HW  OW  HW  HW  OW  HW  HW  OW  HW  HW  OW  HW  HW  OW  
HW  HW  OW  HW  HW  OW  HW  HW  OW  HW  HW  OW  HW  HW  OW  HW  HW  OW  HW  HW  
OW  HW  HW  OW  HW  HW  OW  HW  HW  OW  HW  HW  OW  HW  HW  OW  HW  HW  OW  HW  
HW  OW  HW  HW  OW  HW  HW  OW  HW  HW  OW  HW  HW  OW  HW  HW  OW  HW  HW  OW  
HW  HW  OW  HW  HW  OW  HW  HW  OW  HW  HW  OW  HW  HW  OW  HW  HW  OW  HW  HW  
OW  HW  HW  OW  HW  HW  OW  HW  HW  OW  HW  HW  OW  HW  HW  OW  HW  HW  OW  HW  
HW  OW  HW  HW  OW  HW  HW  OW  HW  HW  OW  HW  HW  OW  HW  HW  OW  HW  HW  OW  
HW  HW  OW  HW  HW  OW  HW  HW  OW  HW  HW  OW  HW  HW  OW  HW  HW  OW  HW  HW  
OW  HW  HW  OW  HW  HW  OW  HW  HW  OW  HW  HW  OW  HW  HW  OW  HW  HW  OW  HW  
HW  OW  HW  HW  OW  HW  HW  OW  HW  HW  OW  HW  HW  OW  HW  HW  OW  HW  HW  OW  
HW  HW  OW  HW  HW  OW  HW  HW  OW  HW  HW  OW  HW  HW  OW  HW  HW  OW  HW  HW  
OW  HW  HW  OW  HW  HW  OW  HW  HW  OW  HW  HW  OW  HW  HW  OW  HW  HW  OW  HW  
HW  OW  HW  HW  OW  HW  HW  OW  HW  HW  OW  HW  HW  OW  HW  HW  OW  HW  HW  OW  
HW  HW  OW  HW  HW  OW  HW  HW  OW  HW  HW  OW  HW  HW  OW  HW  HW  OW  HW  HW  
OW  HW  HW  OW  HW  HW  OW  HW  HW  OW  HW  HW  OW  HW  HW  OW  HW  HW  OW  HW  
HW  OW  HW  HW  OW  HW  HW  OW  HW  HW  OW  HW  HW  OW  HW  HW  OW  HW  HW  OW  
HW  HW  OW  HW  HW  OW  HW  HW  OW  HW  HW  OW  HW  HW  OW  HW  HW  OW  HW  HW  
OW  HW  HW  OW  HW  HW  OW  HW  HW  OW  HW  HW  OW  HW  HW  OW  HW  HW  OW  HW  
HW  OW  HW  HW  OW  HW  HW  OW  HW  HW  OW  HW  HW  OW  HW  HW  OW  HW  HW  OW  
HW  HW  OW  HW  HW  OW  HW  HW  OW  HW  HW  OW  HW  HW  OW  HW  HW  OW  HW  HW  
OW  HW  HW  OW  HW  HW  OW  HW  HW  OW  HW  HW  OW  HW  HW  OW  HW  HW  OW  HW  
HW  OW  HW  HW  OW  HW  HW  OW  HW  HW  OW  HW  HW  OW  HW  HW  OW  HW  HW  OW  
HW  HW  OW  HW  HW  OW  HW  HW  OW  HW  HW  OW  HW  HW  OW  HW  HW  OW  HW  HW  
OW  HW  HW  OW  HW  HW  OW  HW  HW  OW  HW  HW  OW  HW  HW  OW  HW  HW  OW  HW  
HW  OW  HW  HW  OW  HW  HW  OW  HW  HW  OW  HW  HW  OW  HW  HW  OW  HW  HW  OW  
HW  HW  OW  HW  HW  OW  HW  HW  OW  HW  HW  OW  HW  HW  OW  HW  HW  OW  HW  HW  
OW  HW  HW  OW  HW  HW  OW  HW  HW  OW  HW  HW  OW  HW  HW  OW  HW  HW  OW  HW  
HW  OW  HW  HW  OW  HW  HW  OW  HW  HW  OW  HW  HW  OW  HW  HW  OW  HW  HW  OW  
HW  HW  OW  HW  HW  OW  HW  HW  OW  HW  HW  OW  HW  HW  OW  HW  HW  OW  HW  HW  
OW  HW  HW  OW  HW  HW  OW  HW  HW  OW  HW  HW  OW  HW  HW  OW  HW  HW  OW  HW  
HW  OW  HW  HW  OW  HW  HW  OW  HW  HW  OW  HW  HW  OW  HW  HW  OW  HW  HW  OW  
HW  HW  OW  HW  HW  OW  HW  HW  OW  HW  HW  OW  HW  HW  OW  HW  HW  OW  HW  HW  
OW  HW  HW  OW  HW  HW  OW  HW  HW  OW  HW  HW  OW  HW  HW  OW  HW  HW  OW  HW  
HW  OW  HW  HW  OW  HW  HW  OW  HW  HW  OW  HW  HW  OW  HW  HW  OW  HW  HW  OW  
HW  HW  OW  HW  HW  OW  HW  HW  OW  HW  HW  OW  HW  HW  OW  HW  HW  OW  HW  HW  
OW  HW  HW  OW  HW  HW  OW  HW  HW  OW  HW  HW  OW  HW  HW  OW  HW  HW  OW  HW  
HW  OW  HW  HW  OW  HW  HW  OW  HW  HW  OW  HW  HW  OW  HW  HW  OW  HW  HW  OW  
HW  HW  OW  HW  HW  OW  HW  HW  OW  HW  HW  OW  HW  HW  OW  HW  HW  OW  HW  HW  
OW  HW  HW  OW  HW  HW  OW  HW  HW  OW  HW  HW  OW  HW  HW  OW  HW  HW  OW  HW  
HW  OW  HW  HW  OW  HW  HW  OW  HW  HW  OW  HW  HW  OW  HW  HW  OW  HW  HW  OW  
HW  HW  OW  HW  HW  OW  HW  HW  OW  HW  HW  OW  HW  HW  OW  HW  HW  OW  HW  HW  
OW  HW  HW  OW  HW  HW  OW  HW  HW  OW  HW  HW  OW  HW  HW  OW  HW  HW  OW  HW  
HW  OW  HW  HW  OW  HW  HW  OW  HW  HW  OW  HW  HW  OW  HW  HW  OW  HW  HW  OW  
HW  HW  OW  HW  HW  OW  HW  HW  OW  HW  HW  OW  HW  HW  OW  HW  HW  OW  HW  HW  
OW  HW  HW  OW  HW  HW  OW  HW  HW  OW  HW  HW  OW  HW  HW  OW  HW  HW  OW  HW  
HW  OW  HW  HW  OW  HW  HW  OW  HW  HW  OW  HW  HW  OW  HW  HW  OW  HW  HW  OW  
HW  HW  OW  HW  HW  OW  HW  HW  OW  HW  HW  OW  HW  HW  OW  HW  HW  OW  HW  HW  
OW  HW  HW  OW  HW  HW  OW  HW  HW  OW  HW  HW  OW  HW  HW  OW  HW  HW  OW  HW  
HW  OW  HW  HW  OW  HW  HW  OW  HW  HW  OW  HW  HW  OW  HW  HW  OW  HW  HW  OW  
HW  HW  OW  HW  HW  OW  HW  HW  OW  HW  HW  OW  HW  HW  OW  HW  HW  OW  HW  HW  
OW  HW  HW  OW  HW  HW  OW  HW  HW  OW  HW  HW  OW  HW  HW  OW  HW  HW  OW  HW  
HW  OW  HW  HW  OW  HW  HW  OW  HW  HW  OW  HW  HW  OW  HW  HW  OW  HW  HW  OW  
HW  HW  OW  HW  HW  OW  HW  HW  OW  HW  HW  OW  HW  HW  OW  HW  HW  OW  HW  HW  
OW  HW  HW  OW  HW  HW  OW  HW  HW  OW  HW  HW  OW  HW  HW  OW  HW  HW  OW  HW  
HW  OW  HW  HW  OW  HW  HW  OW  HW  HW  OW  HW  HW  OW  HW  HW  OW  HW  HW  OW  
HW  HW  OW  HW  HW  OW  HW  HW  OW  HW  HW  OW  HW  HW  OW  HW  HW  OW  HW  HW  
OW  HW  HW  OW  HW  HW  OW  HW  HW  OW  HW  HW  OW  HW  HW  OW  HW  HW  OW  HW  
HW  OW  HW  HW  OW  HW  HW  OW  HW  HW  OW  HW  HW  OW  HW  HW  OW  HW  HW  OW  
HW  HW  OW  HW  HW  OW  HW  HW  OW  HW  HW  OW  HW  HW  OW  HW  HW  OW  HW  HW  
OW  HW  HW  OW  HW  HW  OW  HW  HW  OW  HW  HW  OW  HW  HW  OW  HW  HW  OW  HW  
HW  OW  HW  HW  OW  HW  HW  OW  HW  HW  OW  HW  HW  OW  HW  HW  OW  HW  HW  OW  
HW  HW  OW  HW  HW  OW  HW  HW  OW  HW  HW  OW  HW  HW  OW  HW  HW  OW  HW  HW  
OW  HW  HW  OW  HW  HW  OW  HW  HW  OW  HW  HW  OW  HW  HW  OW  HW  HW  OW  HW  
HW  OW  HW  HW  OW  HW  HW  OW  HW  HW  OW  HW  HW  OW  HW  HW  OW  HW  HW  OW  
HW  HW  OW  HW  HW  OW  HW  HW  OW  HW  HW  OW  HW  HW  OW  HW  HW  OW  HW  HW  
OW  HW  HW  OW  HW  HW  OW  HW  HW  OW  HW  HW  OW  HW  HW  OW  HW  HW  OW  HW  
HW  OW  HW  HW  OW  HW  HW  OW  HW  HW  OW  HW  HW  OW  HW  HW  OW  HW  HW  OW  
HW  HW  OW  HW  HW  OW  HW  HW  OW  HW  HW  OW  HW  HW  OW  HW  HW  OW  HW  HW  
OW  HW  HW  OW  HW  HW  OW  HW  HW  OW  HW  HW  OW  HW  HW  OW  HW  HW  OW  HW  
HW  OW  HW  HW  OW  HW  HW  OW  HW  HW  OW  HW  HW  OW  HW  HW  OW  HW  HW  OW  
HW  HW  OW  HW  HW  OW  HW  HW  OW  HW  HW  OW  HW  HW  OW  HW  HW  OW  HW  HW  
OW  HW  HW  OW  HW  HW  OW  HW  HW  OW  HW  HW  OW  HW  HW  OW  HW  HW  OW  HW  
HW  OW  HW  HW  OW  HW  HW  OW  HW  HW  OW  HW  HW  OW  HW  HW  OW  HW  HW  OW  
HW  HW  OW  HW  HW  OW  HW  HW  OW  HW  HW  OW  HW  HW  OW  HW  HW  OW  HW  HW  
OW  HW  HW  OW  HW  HW  OW  HW  HW  OW  HW  HW  OW  HW  HW  OW  HW  HW  OW  HW  
HW  OW  HW  HW  OW  HW  HW  OW  HW  HW  OW  HW  HW  OW  HW  HW  OW  HW  HW  OW  
HW  HW  OW  HW  HW  OW  HW  HW  OW  HW  HW  OW  HW  HW  OW  HW  HW  OW  HW  HW  
OW  HW  HW  OW  HW  HW  OW  HW  HW  OW  HW  HW  OW  HW  HW  OW  HW  HW  OW  HW  
HW  OW  HW  HW  OW  HW  HW  OW  HW  HW  OW  HW  HW  OW  HW  HW  OW  HW  HW  OW  
HW  HW  OW  HW  HW  OW  HW  HW  OW  HW  HW  OW  HW  HW  OW  HW  HW  OW  HW  HW  
OW  HW  HW  OW  HW  HW  OW  HW  HW  OW  HW  HW  OW  HW  HW  OW  HW  HW  OW  HW  
HW  OW  HW  HW  OW  HW  HW  OW  HW  HW  OW  HW  HW  OW  HW  HW  OW  HW  HW  OW  
HW  HW  OW  HW  HW  OW  HW  HW  OW  HW  HW  OW  HW  HW  OW  HW  HW  OW  HW  HW  
OW  HW  HW  OW  HW  HW  OW  HW  HW  OW  HW  HW  OW  HW  HW  OW  HW  HW  OW  HW  
HW  OW  HW  HW  OW  HW  HW  OW  HW  HW  OW  HW  HW  OW  HW  HW  OW  HW  HW  OW  
HW  HW  OW  HW  HW  OW  HW  HW  OW  HW  HW  OW  HW  HW  OW  HW  HW  OW  HW  HW  
OW  HW  HW  OW  HW  HW  OW  HW  HW  OW  HW  HW  OW  HW  HW  OW  HW  HW  OW  HW  
HW  OW  HW  HW  OW  HW  HW  OW  HW  HW  OW  HW  HW  OW  HW  HW  OW  HW  HW  OW  
HW  HW  OW  HW  HW  OW  HW  HW  OW  HW  HW  OW  HW  HW  OW  HW  HW  OW  HW  HW  
OW  HW  HW  OW  HW  HW  OW  HW  HW  OW  HW  HW  OW  HW  HW  OW  HW  HW  OW  HW  
HW  OW  HW  HW  OW  HW  HW  OW  HW  HW  OW  HW  HW  OW  HW  HW  OW  HW  HW  OW  
HW  HW  OW  HW  HW  OW  HW  HW  OW  HW  HW  OW  HW  HW  OW  HW  HW  OW  HW  HW  
OW  HW  HW  OW  HW  HW  OW  HW  HW  OW  HW  HW  OW  HW  HW  OW  HW  HW  OW  HW  
HW  OW  HW  HW  OW  HW  HW  OW  HW  HW  OW  HW  HW  OW  HW  HW  OW  HW  HW  OW  
HW  HW  OW  HW  HW  OW  HW  HW  OW  HW  HW  OW  HW  HW  OW  HW  HW  OW  HW  HW  
OW  HW  HW  OW  HW  HW  OW  HW  HW  OW  HW  HW  OW  HW  HW  OW  HW  HW  OW  HW  
HW  OW  HW  HW  OW  HW  HW  OW  HW  HW  OW  HW  HW  OW  HW  HW  OW  HW  HW  OW  
HW  HW  OW  HW  HW  OW  HW  HW  OW  HW  HW  OW  HW  HW  OW  HW  HW  OW  HW  HW  
OW  HW  HW  OW  HW  HW  OW  HW  HW  OW  HW  HW  OW  HW  HW  OW  HW  HW  OW  HW  
HW  OW  HW  HW  OW  HW  HW  OW  HW  HW  OW  HW  HW  OW  HW  HW  OW  HW  HW  OW  
HW  HW  OW  HW  HW  OW  HW  HW  OW  HW  HW  OW  HW  HW  OW  HW  HW  OW  HW  HW  
OW  HW  HW  OW  HW  HW  OW  HW  HW  OW  HW  HW  OW  HW  HW  OW  HW  HW  OW  HW  
HW  OW  HW  HW  OW  HW  HW  OW  HW  HW  OW  HW  HW  OW  HW  HW  OW  HW  HW  OW  
HW  HW  OW  HW  HW  OW  HW  HW  OW  HW  HW  OW  HW  HW  OW  HW  HW  OW  HW  HW  
OW  HW  HW  OW  HW  HW  OW  HW  HW  OW  HW  HW  OW  HW  HW  OW  HW  HW  OW  HW  
HW  OW  HW  HW  OW  HW  HW  OW  HW  HW  OW  HW  HW  OW  HW  HW  OW  HW  HW  OW  
HW  HW  OW  HW  HW  OW  HW  HW  OW  HW  HW  OW  HW  HW  OW  HW  HW  OW  HW  HW  
OW  HW  HW  OW  HW  HW  OW  HW  HW  OW  HW  HW  OW  HW  HW  OW  HW  HW  OW  HW  
HW  OW  HW  HW  OW  HW  HW  OW  HW  HW  OW  HW  HW  OW  HW  HW  OW  HW  HW  OW  
HW  HW  OW  HW  HW  OW  HW  HW  OW  HW  HW  OW  HW  HW  OW  HW  HW  OW  HW  HW  
OW  HW  HW  OW  HW  HW  OW  HW  HW  OW  HW  HW  OW  HW  HW  OW  HW  HW  OW  HW  
HW  OW  HW  HW  OW  HW  HW  OW  HW  HW  OW  HW  HW  OW  HW  HW  OW  HW  HW  OW  
HW  HW  OW  HW  HW  OW  HW  HW  OW  HW  HW  OW  HW  HW  OW  HW  HW  OW  HW  HW  
OW  HW  HW  OW  HW  HW  OW  HW  HW  OW  HW  HW  OW  HW  HW  OW  HW  HW  OW  HW  
HW  OW  HW  HW  OW  HW  HW  OW  HW  HW  OW  HW  HW  OW  HW  HW  OW  HW  HW  OW  
HW  HW  OW  HW  HW  OW  HW  HW  OW  HW  HW  OW  HW  HW  OW  HW  HW  OW  HW  HW  
OW  HW  HW  OW  HW  HW  OW  HW  HW  OW  HW  HW  OW  HW  HW  OW  HW  HW  OW  HW  
HW  OW  HW  HW  OW  HW  HW  OW  HW  HW  OW  HW  HW  OW  HW  HW  OW  HW  HW  OW  
HW  HW  OW  HW  HW  OW  HW  HW  OW  HW  HW  OW  HW  HW  OW  HW  HW  OW  HW  HW  
OW  HW  HW  OW  HW  HW  OW  HW  HW  OW  HW  HW  OW  HW  HW  OW  HW  HW  OW  HW  
HW  OW  HW  HW  OW  HW  HW  OW  HW  HW  OW  HW  HW  OW  HW  HW  OW  HW  HW  OW  
HW  HW  OW  HW  HW  OW  HW  HW  OW  HW  HW  OW  HW  HW  OW  HW  HW  OW  HW  HW  
OW  HW  HW  OW  HW  HW  OW  HW  HW  OW  HW  HW  OW  HW  HW  OW  HW  HW  OW  HW  
HW  OW  HW  HW  OW  HW  HW  OW  HW  HW  OW  HW  HW  OW  HW  HW  OW  HW  HW  OW  
HW  HW  OW  HW  HW  OW  HW  HW  OW  HW  HW  OW  HW  HW  OW  HW  HW  OW  HW  HW  
OW  HW  HW  OW  HW  HW  OW  HW  HW  OW  HW  HW  OW  HW  HW  OW  HW  HW  OW  HW  
HW  OW  HW  HW  OW  HW  HW  OW  HW  HW  OW  HW  HW  OW  HW  HW  OW  HW  HW  OW  
HW  HW  OW  HW  HW  OW  HW  HW  OW  HW  HW  OW  HW  HW  OW  HW  HW  OW  HW  HW  
OW  HW  HW  OW  HW  HW  OW  HW  HW  OW  HW  HW  OW  HW  HW  OW  HW  HW  OW  HW  
HW  OW  HW  HW  OW  HW  HW  OW  HW  HW  OW  HW  HW  OW  HW  HW  OW  HW  HW  OW  
HW  HW  OW  HW  HW  OW  HW  HW  OW  HW  HW  OW  HW  HW  OW  HW  HW  OW  HW  HW  
OW  HW  HW  OW  HW  HW  OW  HW  HW  OW  HW  HW  OW  HW  HW  OW  HW  HW  OW  HW  
HW  OW  HW  HW  OW  HW  HW  OW  HW  HW  OW  HW  HW  OW  HW  HW  OW  HW  HW  OW  
HW  HW  OW  HW  HW  OW  HW  HW  OW  HW  HW  OW  HW  HW  OW  HW  HW  OW  HW  HW  
OW  HW  HW  OW  HW  HW  OW  HW  HW  OW  HW  HW  OW  HW  HW  OW  HW  HW  OW  HW  
HW  OW  HW  HW  OW  HW  HW  OW  HW  HW  OW  HW  HW  OW  HW  HW  OW  HW  HW  OW  
HW  HW  OW  HW  HW  OW  HW  HW  OW  HW  HW  OW  HW  HW  OW  HW  HW  OW  HW  HW  
OW  HW  HW  OW  HW  HW  OW  HW  HW  OW  HW  HW  OW  HW  HW  OW  HW  HW  OW  HW  
HW  OW  HW  HW  OW  HW  HW  OW  HW  HW  OW  HW  HW  OW  HW  HW  OW  HW  HW  OW  
HW  HW  OW  HW  HW  OW  HW  HW  OW  HW  HW  OW  HW  HW  OW  HW  HW  OW  HW  HW  
OW  HW  HW  OW  HW  HW  OW  HW  HW  OW  HW  HW  OW  HW  HW  OW  HW  HW  OW  HW  
HW  OW  HW  HW  OW  HW  HW  OW  HW  HW  OW  HW  HW  OW  HW  HW  OW  HW  HW  OW  
HW  HW  OW  HW  HW  OW  HW  HW  OW  HW  HW  OW  HW  HW  OW  HW  HW  OW  HW  HW  
OW  HW  HW  OW  HW  HW  OW  HW  HW  OW  HW  HW  OW  HW  HW  OW  HW  HW  OW  HW  
HW  OW  HW  HW  OW  HW  HW  OW  HW  HW  OW  HW  HW  OW  HW  HW  OW  HW  HW  OW  
HW  HW  OW  HW  HW  OW  HW  HW  OW  HW  HW  OW  HW  HW  OW  HW  HW  OW  HW  HW  
OW  HW  HW  OW  HW  HW  OW  HW  HW  OW  HW  HW  OW  HW  HW  OW  HW  HW  OW  HW  
HW  OW  HW  HW  OW  HW  HW  OW  HW  HW  OW  HW  HW  OW  HW  HW  OW  HW  HW  OW  
HW  HW  OW  HW  HW  OW  HW  HW  OW  HW  HW  OW  HW  HW  OW  HW  HW  OW  HW  HW  
OW  HW  HW  OW  HW  HW  OW  HW  HW  OW  HW  HW  OW  HW  HW  OW  HW  HW  OW  HW  
HW  OW  HW  HW  OW  HW  HW  OW  HW  HW  OW  HW  HW  OW  HW  HW  OW  HW  HW  OW  
HW  HW  OW  HW  HW  OW  HW  HW  OW  HW  HW  OW  HW  HW  OW  HW  HW  OW  HW  HW  
OW  HW  HW  OW  HW  HW  OW  HW  HW  OW  HW  HW  OW  HW  HW  OW  HW  HW  OW  HW  
HW  OW  HW  HW  OW  HW  HW  OW  HW  HW  OW  HW  HW  OW  HW  HW  OW  HW  HW  OW  
HW  HW  OW  HW  HW  OW  HW  HW  OW  HW  HW  OW  HW  HW  OW  HW  HW  OW  HW  HW  
OW  HW  HW  OW  HW  HW  OW  HW  HW  OW  HW  HW  OW  HW  HW  OW  HW  HW  OW  HW  
HW  OW  HW  HW  OW  HW  HW  OW  HW  HW  OW  HW  HW  OW  HW  HW  OW  HW  HW  OW  
HW  HW  OW  HW  HW  OW  HW  HW  OW  HW  HW  OW  HW  HW  OW  HW  HW  OW  HW  HW  
OW  HW  HW  OW  HW  HW  OW  HW  HW  OW  HW  HW  OW  HW  HW  OW  HW  HW  OW  HW  
HW  OW  HW  HW  OW  HW  HW  OW  HW  HW  OW  HW  HW  OW  HW  HW  OW  HW  HW  OW  
HW  HW  OW  HW  HW  OW  HW  HW  OW  HW  HW  OW  HW  HW  OW  HW  HW  OW  HW  HW  
OW  HW  HW  OW  HW  HW  OW  HW  HW  OW  HW  HW  OW  HW  HW  OW  HW  HW  OW  HW  
HW  OW  HW  HW  OW  HW  HW  OW  HW  HW  OW  HW  HW  OW  HW  HW  OW  HW  HW  OW  
HW  HW  OW  HW  HW  OW  HW  HW  OW  HW  HW  OW  HW  HW  OW  HW  HW  OW  HW  HW  
OW  HW  HW  OW  HW  HW  OW  HW  HW  OW  HW  HW  OW  HW  HW  OW  HW  HW  OW  HW  
HW  OW  HW  HW  OW  HW  HW  OW  HW  HW  OW  HW  HW  OW  HW  HW  OW  HW  HW  OW  
HW  HW  OW  HW  HW  OW  HW  HW  OW  HW  HW  OW  HW  HW  OW  HW  HW  OW  HW  HW  
OW  HW  HW  OW  HW  HW  OW  HW  HW  OW  HW  HW  OW  HW  HW  OW  HW  HW  OW  HW  
HW  OW  HW  HW  OW  HW  HW  OW  HW  HW  OW  HW  HW  OW  HW  HW  OW  HW  HW  OW  
HW  HW  OW  HW  HW  OW  HW  HW  OW  HW  HW  OW  HW  HW  OW  HW  HW  OW  HW  HW  
OW  HW  HW  OW  HW  HW  OW  HW  HW  OW  HW  HW  OW  HW  HW  OW  HW  HW  OW  HW  
HW  OW  HW  HW  OW  HW  HW  OW  HW  HW  OW  HW  HW  OW  HW  HW  OW  HW  HW  OW  
HW  HW  OW  HW  HW  OW  HW  HW  OW  HW  HW  OW  HW  HW  OW  HW  HW  OW  HW  HW  
OW  HW  HW  OW  HW  HW  OW  HW  HW  OW  HW  HW  OW  HW  HW  OW  HW  HW  OW  HW  
HW  OW  HW  HW  OW  HW  HW  OW  HW  HW  OW  HW  HW  OW  HW  HW  OW  HW  HW  OW  
HW  HW  OW  HW  HW  OW  HW  HW  OW  HW  HW  OW  HW  HW  OW  HW  HW  OW  HW  HW  
OW  HW  HW  OW  HW  HW  OW  HW  HW  OW  HW  HW  OW  HW  HW  OW  HW  HW  OW  HW  
HW  OW  HW  HW  OW  HW  HW  OW  HW  HW  OW  HW  HW  OW  HW  HW  OW  HW  HW  OW  
HW  HW  OW  HW  HW  OW  HW  HW  OW  HW  HW  OW  HW  HW  OW  HW  HW  OW  HW  HW  
OW  HW  HW  OW  HW  HW  OW  HW  HW  OW  HW  HW  OW  HW  HW  OW  HW  HW  OW  HW  
HW  OW  HW  HW  OW  HW  HW  OW  HW  HW  OW  HW  HW  OW  HW  HW  OW  HW  HW  OW  
HW  HW  OW  HW  HW  OW  HW  HW  OW  HW  HW  OW  HW  HW  OW  HW  HW  OW  HW  HW  
OW  HW  HW  OW  HW  HW  OW  HW  HW  OW  HW  HW  OW  HW  HW  OW  HW  HW  OW  HW  
HW  OW  HW  HW  OW  HW  HW  OW  HW  HW  OW  HW  HW  OW  HW  HW  OW  HW  HW  OW  
HW  HW  OW  HW  HW  OW  HW  HW  OW  HW  HW  OW  HW  HW  OW  HW  HW  OW  HW  HW  
OW  HW  HW  OW  HW  HW  OW  HW  HW  OW  HW  HW  OW  HW  HW  OW  HW  HW  OW  HW  
HW  OW  HW  HW  OW  HW  HW  OW  HW  HW  OW  HW  HW  OW  HW  HW  OW  HW  HW  OW  
HW  HW  OW  HW  HW  OW  HW  HW  OW  HW  HW  OW  HW  HW  OW  HW  HW  OW  HW  HW  
OW  HW  HW  OW  HW  HW  OW  HW  HW  OW  HW  HW  OW  HW  HW  OW  HW  HW  OW  HW  
HW  OW  HW  HW  OW  HW  HW  OW  HW  HW  OW  HW  HW  OW  HW  HW  OW  HW  HW  OW  
HW  HW  OW  HW  HW  OW  HW  HW  OW  HW  HW  OW  HW  HW  OW  HW  HW  OW  HW  HW  
OW  HW  HW  OW  HW  HW  OW  HW  HW  OW  HW  HW  OW  HW  HW  OW  HW  HW  OW  HW  
HW  OW  HW  HW  OW  HW  HW  OW  HW  HW  OW  HW  HW  OW  HW  HW  OW  HW  HW  OW  
HW  HW  OW  HW  HW  OW  HW  HW  OW  HW  HW  OW  HW  HW  OW  HW  HW  OW  HW  HW  
OW  HW  HW  OW  HW  HW  OW  HW  HW  OW  HW  HW  OW  HW  HW  OW  HW  HW  OW  HW  
HW  OW  HW  HW  OW  HW  HW  OW  HW  HW  OW  HW  HW  OW  HW  HW  OW  HW  HW  OW  
HW  HW  OW  HW  HW  OW  HW  HW  OW  HW  HW  OW  HW  HW  OW  HW  HW  OW  HW  HW  
OW  HW  HW  OW  HW  HW  OW  HW  HW  OW  HW  HW  OW  HW  HW  OW  HW  HW  OW  HW  
HW  OW  HW  HW  OW  HW  HW  OW  HW  HW  OW  HW  HW  OW  HW  HW  OW  HW  HW  OW  
HW  HW  OW  HW  HW  OW  HW  HW  OW  HW  HW  OW  HW  HW  OW  HW  HW  OW  HW  HW  
OW  HW  HW  OW  HW  HW  OW  HW  HW  OW  HW  HW  OW  HW  HW  OW  HW  HW  OW  HW  
HW  OW  HW  HW  OW  HW  HW  OW  HW  HW  OW  HW  HW  OW  HW  HW  OW  HW  HW  OW  
HW  HW  OW  HW  HW  OW  HW  HW  OW  HW  HW  OW  HW  HW  OW  HW  HW  OW  HW  HW  
OW  HW  HW  OW  HW  HW  OW  HW  HW  OW  HW  HW  OW  HW  HW  OW  HW  HW  OW  HW  
HW  OW  HW  HW  OW  HW  HW  OW  HW  HW  OW  HW  HW  OW  HW  HW  OW  HW  HW  OW  
HW  HW  OW  HW  HW  OW  HW  HW  OW  HW  HW  OW  HW  HW  OW  HW  HW  OW  HW  HW  
OW  HW  HW  OW  HW  HW  OW  HW  HW  OW  HW  HW  OW  HW  HW  OW  HW  HW  OW  HW  
HW  OW  HW  HW  OW  HW  HW  OW  HW  HW  OW  HW  HW  OW  HW  HW  OW  HW  HW  OW  
HW  HW  OW  HW  HW  OW  HW  HW  OW  HW  HW  OW  HW  HW  OW  HW  HW  OW  HW  HW  
OW  HW  HW  OW  HW  HW  OW  HW  HW  OW  HW  HW  OW  HW  HW  OW  HW  HW  OW  HW  
HW  OW  HW  HW  OW  HW  HW  OW  HW  HW  OW  HW  HW  OW  HW  HW  OW  HW  HW  OW  
HW  HW  OW  HW  HW  OW  HW  HW  OW  HW  HW  OW  HW  HW  OW  HW  HW  OW  HW  HW  
OW  HW  HW  OW  HW  HW  OW  HW  HW  OW  HW  HW  OW  HW  HW  OW  HW  HW  OW  HW  
HW  OW  HW  HW  OW  HW  HW  OW  HW  HW  OW  HW  HW  OW  HW  HW  OW  HW  HW  OW  
HW  HW  OW  HW  HW  OW  HW  HW  OW  HW  HW  OW  HW  HW  OW  HW  HW  OW  HW  HW  
OW  HW  HW  OW  HW  HW  OW  HW  HW  OW  HW  HW  OW  HW  HW  OW  HW  HW  OW  HW  
HW  OW  HW  HW  OW  HW  HW  OW  HW  HW  OW  HW  HW  OW  HW  HW  OW  HW  HW  OW  
HW  HW  OW  HW  HW  OW  HW  HW  OW  HW  HW  OW  HW  HW  OW  HW  HW  OW  HW  HW  
OW  HW  HW  OW  HW  HW  OW  HW  HW  OW  HW  HW  OW  HW  HW  OW  HW  HW  OW  HW  
HW  OW  HW  HW  OW  HW  HW  OW  HW  HW  OW  HW  HW  OW  HW  HW  OW  HW  HW  OW  
HW  HW  OW  HW  HW  OW  HW  HW  OW  HW  HW  OW  HW  HW  OW  HW  HW  OW  HW  HW  
OW  HW  HW  OW  HW  HW  OW  HW  HW  OW  HW  HW  OW  HW  HW  OW  HW  HW  OW  HW  
HW  OW  HW  HW  OW  HW  HW  OW  HW  HW  OW  HW  HW  OW  HW  HW  OW  HW  HW  OW  
HW  HW  OW  HW  HW  OW  HW  HW  OW  HW  HW  OW  HW  HW  OW  HW  HW  OW  HW  HW  
OW  HW  HW  OW  HW  HW  OW  HW  HW  OW  HW  HW  OW  HW  HW  OW  HW  HW  OW  HW  
HW  OW  HW  HW  OW  HW  HW  OW  HW  HW  OW  HW  HW  OW  HW  HW  OW  HW  HW  OW  
HW  HW  OW  HW  HW  OW  HW  HW  OW  HW  HW  OW  HW  HW  OW  HW  HW  OW  HW  HW  
OW  HW  HW  OW  HW  HW  OW  HW  HW  OW  HW  HW  OW  HW  HW  OW  HW  HW  OW  HW  
HW  OW  HW  HW  OW  HW  HW  OW  HW  HW  OW  HW  HW  OW  HW  HW  OW  HW  HW  OW  
HW  HW  OW  HW  HW  OW  HW  HW  OW  HW  HW  OW  HW  HW  OW  HW  HW  OW  HW  HW  
OW  HW  HW  OW  HW  HW  OW  HW  HW  OW  HW  HW  OW  HW  HW  OW  HW  HW  OW  HW  
HW  OW  HW  HW  OW  HW  HW  OW  HW  HW  OW  HW  HW  OW  HW  HW  OW  HW  HW  OW  
HW  HW  OW  HW  HW  OW  HW  HW  OW  HW  HW  OW  HW  HW  OW  HW  HW  OW  HW  HW  
OW  HW  HW  OW  HW  HW  OW  HW  HW  OW  HW  HW  OW  HW  HW  OW  HW  HW  OW  HW  
HW  OW  HW  HW  OW  HW  HW  OW  HW  HW  OW  HW  HW  OW  HW  HW  OW  HW  HW  OW  
HW  HW  OW  HW  HW  OW  HW  HW  OW  HW  HW  OW  HW  HW  OW  HW  HW  OW  HW  HW  
OW  HW  HW  OW  HW  HW  OW  HW  HW  OW  HW  HW  OW  HW  HW  OW  HW  HW  OW  HW  
HW  OW  HW  HW  OW  HW  HW  OW  HW  HW  OW  HW  HW  OW  HW  HW  OW  HW  HW  OW  
HW  HW  OW  HW  HW  OW  HW  HW  OW  HW  HW  OW  HW  HW  OW  HW  HW  OW  HW  HW  
OW  HW  HW  OW  HW  HW  OW  HW  HW  OW  HW  HW  OW  HW  HW  OW  HW  HW  OW  HW  
HW  OW  HW  HW  OW  HW  HW  OW  HW  HW  OW  HW  HW  OW  HW  HW  OW  HW  HW  OW  
HW  HW  OW  HW  HW  OW  HW  HW  OW  HW  HW  OW  HW  HW  OW  HW  HW  OW  HW  HW  
OW  HW  HW  OW  HW  HW  OW  HW  HW  OW  HW  HW  OW  HW  HW  OW  HW  HW  OW  HW  
HW  OW  HW  HW  OW  HW  HW  OW  HW  HW  OW  HW  HW  OW  HW  HW  OW  HW  HW  OW  
HW  HW  OW  HW  HW  OW  HW  HW  OW  HW  HW  OW  HW  HW  OW  HW  HW  OW  HW  HW  
OW  HW  HW  OW  HW  HW  OW  HW  HW  OW  HW  HW  OW  HW  HW  OW  HW  HW  OW  HW  
HW  OW  HW  HW  OW  HW  HW  OW  HW  HW  OW  HW  HW  OW  HW  HW  OW  HW  HW  OW  
HW  HW  OW  HW  HW  OW  HW  HW  OW  HW  HW  OW  HW  HW  OW  HW  HW  OW  HW  HW  
OW  HW  HW  OW  HW  HW  OW  HW  HW  OW  HW  HW  OW  HW  HW  OW  HW  HW  OW  HW  
HW  OW  HW  HW  OW  HW  HW  OW  HW  HW  OW  HW  HW  OW  HW  HW  OW  HW  HW  OW  
HW  HW  OW  HW  HW  OW  HW  HW  OW  HW  HW  OW  HW  HW  OW  HW  HW  OW  HW  HW  
OW  HW  HW  OW  HW  HW  OW  HW  HW  OW  HW  HW  OW  HW  HW  OW  HW  HW  OW  HW  
HW  OW  HW  HW  OW  HW  HW  OW  HW  HW  OW  HW  HW  OW  HW  HW  OW  HW  HW  OW  
HW  HW  OW  HW  HW  OW  HW  HW  OW  HW  HW  OW  HW  HW  OW  HW  HW  OW  HW  HW  
OW  HW  HW  OW  HW  HW  OW  HW  HW  OW  HW  HW  OW  HW  HW  OW  HW  HW  OW  HW  
HW  OW  HW  HW  OW  HW  HW  OW  HW  HW  OW  HW  HW  OW  HW  HW  OW  HW  HW  OW  
HW  HW  OW  HW  HW  OW  HW  HW  OW  HW  HW  OW  HW  HW  OW  HW  HW  OW  HW  HW  
OW  HW  HW  OW  HW  HW  OW  HW  HW  OW  HW  HW  OW  HW  HW  OW  HW  HW  OW  HW  
HW  OW  HW  HW  OW  HW  HW  OW  HW  HW  OW  HW  HW  OW  HW  HW  OW  HW  HW  OW  
HW  HW  OW  HW  HW  OW  HW  HW  OW  HW  HW  OW  HW  HW  OW  HW  HW  OW  HW  HW  
OW  HW  HW  OW  HW  HW  OW  HW  HW  OW  HW  HW  OW  HW  HW  OW  HW  HW  OW  HW  
HW  OW  HW  HW  OW  HW  HW  OW  HW  HW  OW  HW  HW  OW  HW  HW  OW  HW  HW  OW  
HW  HW  OW  HW  HW  OW  HW  HW  OW  HW  HW  OW  HW  HW  OW  HW  HW  OW  HW  HW  
OW  HW  HW  OW  HW  HW  OW  HW  HW  OW  HW  HW  OW  HW  HW  OW  HW  HW  OW  HW  
HW  OW  HW  HW  OW  HW  HW  OW  HW  HW  OW  HW  HW  OW  HW  HW  OW  HW  HW  OW  
HW  HW  OW  HW  HW  OW  HW  HW  OW  HW  HW  OW  HW  HW  OW  HW  HW  OW  HW  HW  
OW  HW  HW  OW  HW  HW  OW  HW  HW  OW  HW  HW  OW  HW  HW  OW  HW  HW  OW  HW  
HW  OW  HW  HW  OW  HW  HW  OW  HW  HW  OW  HW  HW  OW  HW  HW  OW  HW  HW  OW  
HW  HW  OW  HW  HW  OW  HW  HW  OW  HW  HW  OW  HW  HW  OW  HW  HW  OW  HW  HW  
OW  HW  HW  OW  HW  HW  OW  HW  HW  OW  HW  HW  OW  HW  HW  OW  HW  HW  OW  HW  
HW  OW  HW  HW  OW  HW  HW  OW  HW  HW  OW  HW  HW  OW  HW  HW  OW  HW  HW  OW  
HW  HW  OW  HW  HW  OW  HW  HW  OW  HW  HW  OW  HW  HW  OW  HW  HW  OW  HW  HW  
OW  HW  HW  OW  HW  HW  OW  HW  HW  OW  HW  HW  OW  HW  HW  OW  HW  HW  OW  HW  
HW  OW  HW  HW  OW  HW  HW  OW  HW  HW  OW  HW  HW  OW  HW  HW  OW  HW  HW  OW  
HW  HW  OW  HW  HW  OW  HW  HW  OW  HW  HW  OW  HW  HW  OW  HW  HW  OW  HW  HW  
OW  HW  HW  OW  HW  HW  OW  HW  HW  OW  HW  HW  OW  HW  HW  OW  HW  HW  OW  HW  
HW  OW  HW  HW  OW  HW  HW  OW  HW  HW  OW  HW  HW  OW  HW  HW  OW  HW  HW  OW  
HW  HW  OW  HW  HW  OW  HW  HW  OW  HW  HW  OW  HW  HW  OW  HW  HW  OW  HW  HW  
OW  HW  HW  OW  HW  HW  OW  HW  HW  OW  HW  HW  OW  HW  HW  OW  HW  HW  OW  HW  
HW  OW  HW  HW  OW  HW  HW  OW  HW  HW  OW  HW  HW  OW  HW  HW  OW  HW  HW  OW  
HW  HW  OW  HW  HW  OW  HW  HW  OW  HW  HW  OW  HW  HW  OW  HW  HW  OW  HW  HW  
OW  HW  HW  OW  HW  HW  OW  HW  HW  OW  HW  HW  OW  HW  HW  OW  HW  HW  OW  HW  
HW  OW  HW  HW  OW  HW  HW  OW  HW  HW  OW  HW  HW  OW  HW  HW  OW  HW  HW  OW  
HW  HW  OW  HW  HW  OW  HW  HW  OW  HW  HW  OW  HW  HW  OW  HW  HW  OW  HW  HW  
OW  HW  HW  OW  HW  HW  OW  HW  HW  OW  HW  HW  OW  HW  HW  OW  HW  HW  OW  HW  
HW  OW  HW  HW  OW  HW  HW  OW  HW  HW  OW  HW  HW  OW  HW  HW  OW  HW  HW  OW  
HW  HW  OW  HW  HW  OW  HW  HW  OW  HW  HW  OW  HW  HW  OW  HW  HW  OW  HW  HW  
OW  HW  HW  OW  HW  HW  OW  HW  HW  OW  HW  HW  OW  HW  HW  OW  HW  HW  OW  HW  
HW  OW  HW  HW  OW  HW  HW  OW  HW  HW  OW  HW  HW  OW  HW  HW  OW  HW  HW  OW  
HW  HW  OW  HW  HW  OW  HW  HW  OW  HW  HW  OW  HW  HW  OW  HW  HW  OW  HW  HW  
OW  HW  HW  OW  HW  HW  OW  HW  HW  OW  HW  HW  OW  HW  HW  OW  HW  HW  OW  HW  
HW  OW  HW  HW  OW  HW  HW  OW  HW  HW  OW  HW  HW  OW  HW  HW  OW  HW  HW  OW  
HW  HW  OW  HW  HW  OW  HW  HW  OW  HW  HW  OW  HW  HW  OW  HW  HW  OW  HW  HW  
OW  HW  HW  OW  HW  HW  OW  HW  HW  OW  HW  HW  OW  HW  HW  OW  HW  HW  OW  HW  
HW  OW  HW  HW  OW  HW  HW  OW  HW  HW  OW  HW  HW  OW  HW  HW  OW  HW  HW  OW  
HW  HW  OW  HW  HW  OW  HW  HW  OW  HW  HW  OW  HW  HW  OW  HW  HW  OW  HW  HW  
OW  HW  HW  OW  HW  HW  OW  HW  HW  OW  HW  HW  OW  HW  HW  OW  HW  HW  OW  HW  
HW  OW  HW  HW  OW  HW  HW  OW  HW  HW  OW  HW  HW  OW  HW  HW  OW  HW  HW  OW  
HW  HW  OW  HW  HW  OW  HW  HW  OW  HW  HW  OW  HW  HW  OW  HW  HW  OW  HW  HW  
OW  HW  HW  OW  HW  HW  OW  HW  HW  OW  HW  HW  OW  HW  HW  OW  HW  HW  OW  HW  
HW  OW  HW  HW  OW  HW  HW  OW  HW  HW  OW  HW  HW  OW  HW  HW  OW  HW  HW  OW  
HW  HW  OW  HW  HW  OW  HW  HW  OW  HW  HW  OW  HW  HW  OW  HW  HW  OW  HW  HW  
OW  HW  HW  OW  HW  HW  OW  HW  HW  OW  HW  HW  OW  HW  HW  OW  HW  HW  OW  HW  
HW  OW  HW  HW  OW  HW  HW  OW  HW  HW  OW  HW  HW  OW  HW  HW  OW  HW  HW  OW  
HW  HW  OW  HW  HW  OW  HW  HW  OW  HW  HW  OW  HW  HW  OW  HW  HW  OW  HW  HW  
OW  HW  HW  OW  HW  HW  OW  HW  HW  OW  HW  HW  OW  HW  HW  OW  HW  HW  OW  HW  
HW  OW  HW  HW  OW  HW  HW  OW  HW  HW  OW  HW  HW  OW  HW  HW  OW  HW  HW  OW  
HW  HW  OW  HW  HW  OW  HW  HW  OW  HW  HW  OW  HW  HW  OW  HW  HW  OW  HW  HW  
OW  HW  HW  OW  HW  HW  OW  HW  HW  OW  HW  HW  OW  HW  HW  OW  HW  HW  OW  HW  
HW  OW  HW  HW  OW  HW  HW  OW  HW  HW  OW  HW  HW  OW  HW  HW  OW  HW  HW  OW  
HW  HW  OW  HW  HW  OW  HW  HW  OW  HW  HW  OW  HW  HW  OW  HW  HW  OW  HW  HW  
OW  HW  HW  OW  HW  HW  OW  HW  HW  OW  HW  HW  OW  HW  HW  OW  HW  HW  OW  HW  
HW  OW  HW  HW  OW  HW  HW  OW  HW  HW  OW  HW  HW  OW  HW  HW  OW  HW  HW  OW  
HW  HW  OW  HW  HW  OW  HW  HW  OW  HW  HW  OW  HW  HW  OW  HW  HW  OW  HW  HW  
OW  HW  HW  OW  HW  HW  OW  HW  HW  OW  HW  HW  OW  HW  HW  OW  HW  HW  OW  HW  
HW  OW  HW  HW  OW  HW  HW  OW  HW  HW  OW  HW  HW  OW  HW  HW  OW  HW  HW  OW  
HW  HW  OW  HW  HW  OW  HW  HW  OW  HW  HW  OW  HW  HW  OW  HW  HW  OW  HW  HW  
OW  HW  HW  OW  HW  HW  OW  HW  HW  OW  HW  HW  OW  HW  HW  OW  HW  HW  OW  HW  
HW  OW  HW  HW  OW  HW  HW  OW  HW  HW  OW  HW  HW  OW  HW  HW  OW  HW  HW  OW  
HW  HW  OW  HW  HW  OW  HW  HW  OW  HW  HW  OW  HW  HW  OW  HW  HW  OW  HW  HW  
OW  HW  HW  OW  HW  HW  OW  HW  HW  OW  HW  HW  OW  HW  HW  OW  HW  HW  OW  HW  
HW  OW  HW  HW  OW  HW  HW  OW  HW  HW  OW  HW  HW  OW  HW  HW  OW  HW  HW  OW  
HW  HW  OW  HW  HW  OW  HW  HW  OW  HW  HW  OW  HW  HW  OW  HW  HW  OW  HW  HW  
OW  HW  HW  OW  HW  HW  OW  HW  HW  OW  HW  HW  OW  HW  HW  OW  HW  HW  OW  HW  
HW  OW  HW  HW  OW  HW  HW  OW  HW  HW  OW  HW  HW  OW  HW  HW  OW  HW  HW  OW  
HW  HW  OW  HW  HW  OW  HW  HW  OW  HW  HW  OW  HW  HW  OW  HW  HW  OW  HW  HW  
OW  HW  HW  OW  HW  HW  OW  HW  HW  OW  HW  HW  OW  HW  HW  OW  HW  HW  OW  HW  
HW  OW  HW  HW  OW  HW  HW  OW  HW  HW  OW  HW  HW  OW  HW  HW  OW  HW  HW  OW  
HW  HW  OW  HW  HW  OW  HW  HW  OW  HW  HW  OW  HW  HW  OW  HW  HW  OW  HW  HW  
OW  HW  HW  OW  HW  HW  OW  HW  HW  OW  HW  HW  OW  HW  HW  OW  HW  HW  OW  HW  
HW  OW  HW  HW  OW  HW  HW  OW  HW  HW  OW  HW  HW  OW  HW  HW  OW  HW  HW  OW  
HW  HW  OW  HW  HW  OW  HW  HW  OW  HW  HW  OW  HW  HW  OW  HW  HW  OW  HW  HW  
OW  HW  HW  OW  HW  HW  OW  HW  HW  OW  HW  HW  OW  HW  HW  OW  HW  HW  OW  HW  
HW  OW  HW  HW  OW  HW  HW  OW  HW  HW  OW  HW  HW  OW  HW  HW  OW  HW  HW  OW  
HW  HW  OW  HW  HW  OW  HW  HW  OW  HW  HW  OW  HW  HW  OW  HW  HW  OW  HW  HW  
OW  HW  HW  OW  HW  HW  OW  HW  HW  OW  HW  HW  OW  HW  HW  OW  HW  HW  OW  HW  
HW  OW  HW  HW  OW  HW  HW  OW  HW  HW  OW  HW  HW  OW  HW  HW  OW  HW  HW  OW  
HW  HW  OW  HW  HW  OW  HW  HW  OW  HW  HW  OW  HW  HW  OW  HW  HW  OW  HW  HW  
OW  HW  HW  OW  HW  HW  OW  HW  HW  OW  HW  HW  OW  HW  HW  OW  HW  HW  OW  HW  
HW  OW  HW  HW  OW  HW  HW  OW  HW  HW  OW  HW  HW  OW  HW  HW  OW  HW  HW  OW  
HW  HW  OW  HW  HW  OW  HW  HW  OW  HW  HW  OW  HW  HW  OW  HW  HW  OW  HW  HW  
OW  HW  HW  OW  HW  HW  OW  HW  HW  OW  HW  HW  OW  HW  HW  OW  HW  HW  OW  HW  
HW  OW  HW  HW  OW  HW  HW  OW  HW  HW  OW  HW  HW  OW  HW  HW  OW  HW  HW  OW  
HW  HW  OW  HW  HW  OW  HW  HW  OW  HW  HW  OW  HW  HW  OW  HW  HW  OW  HW  HW  
OW  HW  HW  OW  HW  HW  OW  HW  HW  OW  HW  HW  OW  HW  HW  OW  HW  HW  OW  HW  
HW  OW  HW  HW  OW  HW  HW  OW  HW  HW  OW  HW  HW  OW  HW  HW  OW  HW  HW  OW  
HW  HW  OW  HW  HW  OW  HW  HW  OW  HW  HW  OW  HW  HW  OW  HW  HW  OW  HW  HW  
OW  HW  HW  OW  HW  HW  OW  HW  HW  OW  HW  HW  OW  HW  HW  OW  HW  HW  OW  HW  
HW  OW  HW  HW  OW  HW  HW  OW  HW  HW  OW  HW  HW  OW  HW  HW  OW  HW  HW  OW  
HW  HW  OW  HW  HW  OW  HW  HW  OW  HW  HW  OW  HW  HW  OW  HW  HW  OW  HW  HW  
OW  HW  HW  OW  HW  HW  OW  HW  HW  OW  HW  HW  OW  HW  HW  OW  HW  HW  OW  HW  
HW  OW  HW  HW  OW  HW  HW  OW  HW  HW  OW  HW  HW  OW  HW  HW  OW  HW  HW  OW  
HW  HW  OW  HW  HW  OW  HW  HW  OW  HW  HW  OW  HW  HW  OW  HW  HW  OW  HW  HW  
OW  HW  HW  OW  HW  HW  OW  HW  HW  OW  HW  HW  OW  HW  HW  OW  HW  HW  OW  HW  
HW  OW  HW  HW  OW  HW  HW  OW  HW  HW  OW  HW  HW  OW  HW  HW  OW  HW  HW  OW  
HW  HW  OW  HW  HW  OW  HW  HW  OW  HW  HW  OW  HW  HW  OW  HW  HW  OW  HW  HW  
OW  HW  HW  OW  HW  HW  OW  HW  HW  OW  HW  HW  OW  HW  HW  OW  HW  HW  OW  HW  
HW  OW  HW  HW  OW  HW  HW  OW  HW  HW  OW  HW  HW  OW  HW  HW  OW  HW  HW  OW  
HW  HW  OW  HW  HW  OW  HW  HW  OW  HW  HW  OW  HW  HW  OW  HW  HW  OW  HW  HW  
OW  HW  HW  OW  HW  HW  OW  HW  HW  OW  HW  HW  OW  HW  HW  OW  HW  HW  OW  HW  
HW  OW  HW  HW  OW  HW  HW  OW  HW  HW  OW  HW  HW  OW  HW  HW  OW  HW  HW  OW  
HW  HW  OW  HW  HW  OW  HW  HW  OW  HW  HW  OW  HW  HW  OW  HW  HW  OW  HW  HW  
OW  HW  HW  OW  HW  HW  OW  HW  HW  OW  HW  HW  OW  HW  HW  OW  HW  HW  OW  HW  
HW  OW  HW  HW  OW  HW  HW  OW  HW  HW  OW  HW  HW  OW  HW  HW  OW  HW  HW  OW  
HW  HW  OW  HW  HW  OW  HW  HW  OW  HW  HW  OW  HW  HW  OW  HW  HW  OW  HW  HW  
OW  HW  HW  OW  HW  HW  OW  HW  HW  OW  HW  HW  OW  HW  HW  OW  HW  HW  OW  HW  
HW  OW  HW  HW  OW  HW  HW  OW  HW  HW  OW  HW  HW  OW  HW  HW  OW  HW  HW  OW  
HW  HW  OW  HW  HW  OW  HW  HW  OW  HW  HW  OW  HW  HW  OW  HW  HW  OW  HW  HW  
OW  HW  HW  OW  HW  HW  OW  HW  HW  OW  HW  HW  OW  HW  HW  OW  HW  HW  OW  HW  
HW  OW  HW  HW  OW  HW  HW  OW  HW  HW  OW  HW  HW  OW  HW  HW  OW  HW  HW  OW  
HW  HW  OW  HW  HW  OW  HW  HW  OW  HW  HW  OW  HW  HW  OW  HW  HW  OW  HW  HW  
OW  HW  HW  OW  HW  HW  OW  HW  HW  OW  HW  HW  OW  HW  HW  OW  HW  HW  OW  HW  
HW  OW  HW  HW  OW  HW  HW  OW  HW  HW  OW  HW  HW  OW  HW  HW  OW  HW  HW  OW  
HW  HW  OW  HW  HW  OW  HW  HW  OW  HW  HW  OW  HW  HW  OW  HW  HW  OW  HW  HW  
OW  HW  HW  OW  HW  HW  OW  HW  HW  OW  HW  HW  OW  HW  HW  OW  HW  HW  OW  HW  
HW  OW  HW  HW  OW  HW  HW  OW  HW  HW  OW  HW  HW  OW  HW  HW  OW  HW  HW  OW  
HW  HW  OW  HW  HW  OW  HW  HW  OW  HW  HW  OW  HW  HW  OW  HW  HW  OW  HW  HW  
OW  HW  HW  OW  HW  HW  OW  HW  HW  OW  HW  HW  OW  HW  HW  OW  HW  HW  OW  HW  
HW  OW  HW  HW  OW  HW  HW  OW  HW  HW  OW  HW  HW  OW  HW  HW  OW  HW  HW  OW  
HW  HW  OW  HW  HW  OW  HW  HW  OW  HW  HW  OW  HW  HW  OW  HW  HW  OW  HW  HW  
OW  HW  HW  OW  HW  HW  OW  HW  HW  OW  HW  HW  OW  HW  HW  OW  HW  HW  OW  HW  
HW  OW  HW  HW  OW  HW  HW  OW  HW  HW  OW  HW  HW  OW  HW  HW  OW  HW  HW  OW  
HW  HW  OW  HW  HW  OW  HW  HW  OW  HW  HW  OW  HW  HW  OW  HW  HW  OW  HW  HW  
OW  HW  HW  OW  HW  HW  OW  HW  HW  OW  HW  HW  OW  HW  HW  OW  HW  HW  OW  HW  
HW  OW  HW  HW  OW  HW  HW  OW  HW  HW  OW  HW  HW  OW  HW  HW  OW  HW  HW  OW  
HW  HW  OW  HW  HW  OW  HW  HW  OW  HW  HW  OW  HW  HW  OW  HW  HW  OW  HW  HW  
OW  HW  HW  OW  HW  HW  OW  HW  HW  OW  HW  HW  OW  HW  HW  OW  HW  HW  OW  HW  
HW  OW  HW  HW  OW  HW  HW  OW  HW  HW  OW  HW  HW  OW  HW  HW  OW  HW  HW  OW  
HW  HW  OW  HW  HW  OW  HW  HW  OW  HW  HW  OW  HW  HW  OW  HW  HW  OW  HW  HW  
OW  HW  HW  OW  HW  HW  OW  HW  HW  OW  HW  HW  OW  HW  HW  OW  HW  HW  OW  HW  
HW  OW  HW  HW  OW  HW  HW  OW  HW  HW  OW  HW  HW  OW  HW  HW  OW  HW  HW  OW  
HW  HW  OW  HW  HW  OW  HW  HW  OW  HW  HW  OW  HW  HW  OW  HW  HW  OW  HW  HW  
OW  HW  HW  OW  HW  HW  OW  HW  HW  OW  HW  HW  OW  HW  HW  OW  HW  HW  OW  HW  
HW  OW  HW  HW  OW  HW  HW  OW  HW  HW  OW  HW  HW  OW  HW  HW  OW  HW  HW  OW  
HW  HW  OW  HW  HW  OW  HW  HW  OW  HW  HW  OW  HW  HW  OW  HW  HW  OW  HW  HW  
OW  HW  HW  OW  HW  HW  OW  HW  HW  OW  HW  HW  OW  HW  HW  OW  HW  HW  OW  HW  
HW  OW  HW  HW  OW  HW  HW  OW  HW  HW  OW  HW  HW  OW  HW  HW  OW  HW  HW  OW  
HW  HW  OW  HW  HW  OW  HW  HW  OW  HW  HW  OW  HW  HW  OW  HW  HW  OW  HW  HW  
OW  HW  HW  OW  HW  HW  OW  HW  HW  OW  HW  HW  OW  HW  HW  OW  HW  HW  OW  HW  
HW  OW  HW  HW  OW  HW  HW  OW  HW  HW  OW  HW  HW  OW  HW  HW  OW  HW  HW  OW  
HW  HW  OW  HW  HW  OW  HW  HW  OW  HW  HW  OW  HW  HW  OW  HW  HW  OW  HW  HW  
OW  HW  HW  OW  HW  HW  OW  HW  HW  OW  HW  HW  OW  HW  HW  OW  HW  HW  OW  HW  
HW  OW  HW  HW  OW  HW  HW  OW  HW  HW  OW  HW  HW  OW  HW  HW  OW  HW  HW  OW  
HW  HW  OW  HW  HW  OW  HW  HW  OW  HW  HW  OW  HW  HW  OW  HW  HW  OW  HW  HW  
OW  HW  HW  OW  HW  HW  OW  HW  HW  OW  HW  HW  OW  HW  HW  OW  HW  HW  OW  HW  
HW  OW  HW  HW  OW  HW  HW  OW  HW  HW  OW  HW  HW  OW  HW  HW  OW  HW  HW  OW  
HW  HW  OW  HW  HW  OW  HW  HW  OW  HW  HW  OW  HW  HW  OW  HW  HW  OW  HW  HW  
OW  HW  HW  OW  HW  HW  OW  HW  HW  OW  HW  HW  OW  HW  HW  OW  HW  HW  OW  HW  
HW  OW  HW  HW  OW  HW  HW  OW  HW  HW  OW  HW  HW  OW  HW  HW  OW  HW  HW  OW  
HW  HW  OW  HW  HW  OW  HW  HW  OW  HW  HW  OW  HW  HW  OW  HW  HW  OW  HW  HW  
OW  HW  HW  OW  HW  HW  OW  HW  HW  OW  HW  HW  OW  HW  HW  OW  HW  HW  OW  HW  
HW  OW  HW  HW  OW  HW  HW  OW  HW  HW  OW  HW  HW  OW  HW  HW  OW  HW  HW  OW  
HW  HW  OW  HW  HW  OW  HW  HW  OW  HW  HW  OW  HW  HW  OW  HW  HW  OW  HW  HW  
OW  HW  HW  OW  HW  HW  OW  HW  HW  OW  HW  HW  OW  HW  HW  OW  HW  HW  OW  HW  
HW  OW  HW  HW  OW  HW  HW  OW  HW  HW  OW  HW  HW  OW  HW  HW  OW  HW  HW  OW  
HW  HW  OW  HW  HW  OW  HW  HW  OW  HW  HW  OW  HW  HW  OW  HW  HW  OW  HW  HW  
OW  HW  HW  OW  HW  HW  OW  HW  HW  OW  HW  HW  OW  HW  HW  OW  HW  HW  OW  HW  
HW  OW  HW  HW  OW  HW  HW  OW  HW  HW  OW  HW  HW  OW  HW  HW  OW  HW  HW  OW  
HW  HW  OW  HW  HW  OW  HW  HW  OW  HW  HW  OW  HW  HW  OW  HW  HW  OW  HW  HW  
OW  HW  HW  OW  HW  HW  OW  HW  HW  OW  HW  HW  OW  HW  HW  OW  HW  HW  OW  HW  
HW  OW  HW  HW  OW  HW  HW  OW  HW  HW  OW  HW  HW  OW  HW  HW  OW  HW  HW  OW  
HW  HW  OW  HW  HW  OW  HW  HW  OW  HW  HW  OW  HW  HW  OW  HW  HW  OW  HW  HW  
OW  HW  HW  OW  HW  HW  OW  HW  HW  OW  HW  HW  OW  HW  HW  OW  HW  HW  OW  HW  
HW  OW  HW  HW  OW  HW  HW  OW  HW  HW  OW  HW  HW  OW  HW  HW  OW  HW  HW  OW  
HW  HW  OW  HW  HW  OW  HW  HW  OW  HW  HW  OW  HW  HW  OW  HW  HW  OW  HW  HW  
OW  HW  HW  OW  HW  HW  OW  HW  HW  OW  HW  HW  OW  HW  HW  OW  HW  HW  OW  HW  
HW  OW  HW  HW  OW  HW  HW  OW  HW  HW  OW  HW  HW  OW  HW  HW  OW  HW  HW  OW  
HW  HW  OW  HW  HW  OW  HW  HW  OW  HW  HW  OW  HW  HW  OW  HW  HW  OW  HW  HW  
OW  HW  HW  OW  HW  HW  OW  HW  HW  OW  HW  HW  OW  HW  HW  OW  HW  HW  OW  HW  
HW  OW  HW  HW  OW  HW  HW  OW  HW  HW  OW  HW  HW  OW  HW  HW  OW  HW  HW  OW  
HW  HW  OW  HW  HW  OW  HW  HW  OW  HW  HW  OW  HW  HW  OW  HW  HW  OW  HW  HW  
OW  HW  HW  OW  HW  HW  OW  HW  HW  OW  HW  HW  OW  HW  HW  OW  HW  HW  OW  HW  
HW  OW  HW  HW  OW  HW  HW  OW  HW  HW  OW  HW  HW  OW  HW  HW  OW  HW  HW  OW  
HW  HW  OW  HW  HW  OW  HW  HW  OW  HW  HW  OW  HW  HW  OW  HW  HW  OW  HW  HW  
OW  HW  HW  OW  HW  HW  OW  HW  HW  OW  HW  HW  OW  HW  HW  OW  HW  HW  OW  HW  
HW  OW  HW  HW  OW  HW  HW  OW  HW  HW  OW  HW  HW  OW  HW  HW  OW  HW  HW  OW  
HW  HW  OW  HW  HW  OW  HW  HW  OW  HW  HW  OW  HW  HW  OW  HW  HW  OW  HW  HW  
OW  HW  HW  OW  HW  HW  OW  HW  HW  OW  HW  HW  OW  HW  HW  OW  HW  HW  OW  HW  
HW  OW  HW  HW  OW  HW  HW  OW  HW  HW  OW  HW  HW  OW  HW  HW  OW  HW  HW  OW  
HW  HW  OW  HW  HW  OW  HW  HW  OW  HW  HW  OW  HW  HW  OW  HW  HW  OW  HW  HW  
OW  HW  HW  OW  HW  HW  OW  HW  HW  OW  HW  HW  OW  HW  HW  OW  HW  HW  OW  HW  
HW  OW  HW  HW  OW  HW  HW  OW  HW  HW  OW  HW  HW  OW  HW  HW  OW  HW  HW  OW  
HW  HW  OW  HW  HW  OW  HW  HW  OW  HW  HW  OW  HW  HW  OW  HW  HW  OW  HW  HW  
OW  HW  HW  OW  HW  HW  OW  HW  HW  OW  HW  HW  OW  HW  HW  OW  HW  HW  OW  HW  
HW  OW  HW  HW  OW  HW  HW  OW  HW  HW  OW  HW  HW  OW  HW  HW  OW  HW  HW  OW  
HW  HW  OW  HW  HW  OW  HW  HW  OW  HW  HW  OW  HW  HW  OW  HW  HW  OW  HW  HW  
OW  HW  HW  OW  HW  HW  OW  HW  HW  OW  HW  HW  OW  HW  HW  OW  HW  HW  OW  HW  
HW  OW  HW  HW  OW  HW  HW  OW  HW  HW  OW  HW  HW  OW  HW  HW  OW  HW  HW  OW  
HW  HW  OW  HW  HW  OW  HW  HW  OW  HW  HW  OW  HW  HW  OW  HW  HW  OW  HW  HW  
OW  HW  HW  OW  HW  HW  OW  HW  HW  OW  HW  HW  OW  HW  HW  OW  HW  HW  OW  HW  
HW  OW  HW  HW  OW  HW  HW  OW  HW  HW  OW  HW  HW  OW  HW  HW  OW  HW  HW  OW  
HW  HW  OW  HW  HW  OW  HW  HW  OW  HW  HW  OW  HW  HW  OW  HW  HW  OW  HW  HW  
OW  HW  HW  OW  HW  HW  OW  HW  HW  OW  HW  HW  OW  HW  HW  OW  HW  HW  OW  HW  
HW  OW  HW  HW  OW  HW  HW  OW  HW  HW  OW  HW  HW  OW  HW  HW  OW  HW  HW  OW  
HW  HW  OW  HW  HW  OW  HW  HW  OW  HW  HW  OW  HW  HW  OW  HW  HW  OW  HW  HW  
OW  HW  HW  OW  HW  HW  OW  HW  HW  OW  HW  HW  OW  HW  HW  OW  HW  HW  OW  HW  
HW  OW  HW  HW  OW  HW  HW  OW  HW  HW  OW  HW  HW  OW  HW  HW  OW  HW  HW  OW  
HW  HW  OW  HW  HW  OW  HW  HW  OW  HW  HW  OW  HW  HW  OW  HW  HW  OW  HW  HW  
OW  HW  HW  OW  HW  HW  OW  HW  HW  OW  HW  HW  OW  HW  HW  OW  HW  HW  OW  HW  
HW  OW  HW  HW  OW  HW  HW  OW  HW  HW  OW  HW  HW  OW  HW  HW  OW  HW  HW  OW  
HW  HW  OW  HW  HW  OW  HW  HW  OW  HW  HW  OW  HW  HW  OW  HW  HW  OW  HW  HW  
OW  HW  HW  OW  HW  HW  OW  HW  HW  OW  HW  HW  OW  HW  HW  OW  HW  HW  OW  HW  
HW  OW  HW  HW  OW  HW  HW  OW  HW  HW  OW  HW  HW  OW  HW  HW  OW  HW  HW  OW  
HW  HW  OW  HW  HW  OW  HW  HW  OW  HW  HW  OW  HW  HW  OW  HW  HW  OW  HW  HW  
OW  HW  HW  OW  HW  HW  OW  HW  HW  OW  HW  HW  OW  HW  HW  OW  HW  HW  OW  HW  
HW  OW  HW  HW  OW  HW  HW  OW  HW  HW  OW  HW  HW  OW  HW  HW  OW  HW  HW  OW  
HW  HW  OW  HW  HW  OW  HW  HW  OW  HW  HW  OW  HW  HW  OW  HW  HW  OW  HW  HW  
OW  HW  HW  OW  HW  HW  OW  HW  HW  OW  HW  HW  OW  HW  HW  OW  HW  HW  OW  HW  
HW  OW  HW  HW  OW  HW  HW  OW  HW  HW  OW  HW  HW  OW  HW  HW  OW  HW  HW  OW  
HW  HW  OW  HW  HW  OW  HW  HW  OW  HW  HW  OW  HW  HW  OW  HW  HW  OW  HW  HW  
OW  HW  HW  OW  HW  HW  OW  HW  HW  OW  HW  HW  OW  HW  HW  OW  HW  HW  OW  HW  
HW  OW  HW  HW  OW  HW  HW  OW  HW  HW  OW  HW  HW  OW  HW  HW  OW  HW  HW  OW  
HW  HW  OW  HW  HW  OW  HW  HW  OW  HW  HW  OW  HW  HW  OW  HW  HW  OW  HW  HW  
OW  HW  HW  OW  HW  HW  OW  HW  HW  OW  HW  HW  OW  HW  HW  OW  HW  HW  OW  HW  
HW  OW  HW  HW  OW  HW  HW  OW  HW  HW  OW  HW  HW  OW  HW  HW  OW  HW  HW  OW  
HW  HW  OW  HW  HW  OW  HW  HW  OW  HW  HW  OW  HW  HW  OW  HW  HW  OW  HW  HW  
OW  HW  HW  OW  HW  HW  OW  HW  HW  OW  HW  HW  OW  HW  HW  OW  HW  HW  OW  HW  
HW  OW  HW  HW  OW  HW  HW  OW  HW  HW  OW  HW  HW  OW  HW  HW  OW  HW  HW  OW  
HW  HW  OW  HW  HW  OW  HW  HW  OW  HW  HW  OW  HW  HW  OW  HW  HW  OW  HW  HW  
OW  HW  HW  OW  HW  HW  OW  HW  HW  OW  HW  HW  OW  HW  HW  OW  HW  HW  OW  HW  
HW  OW  HW  HW  OW  HW  HW  OW  HW  HW  OW  HW  HW  OW  HW  HW  OW  HW  HW  OW  
HW  HW  OW  HW  HW  OW  HW  HW  OW  HW  HW  OW  HW  HW  OW  HW  HW  OW  HW  HW  
OW  HW  HW  OW  HW  HW  OW  HW  HW  OW  HW  HW  OW  HW  HW  OW  HW  HW  OW  HW  
HW  OW  HW  HW  OW  HW  HW  OW  HW  HW  OW  HW  HW  OW  HW  HW  OW  HW  HW  OW  
HW  HW  OW  HW  HW  OW  HW  HW  OW  HW  HW  OW  HW  HW  OW  HW  HW  OW  HW  HW  
OW  HW  HW  OW  HW  HW  OW  HW  HW  OW  HW  HW  OW  HW  HW  OW  HW  HW  OW  HW  
HW  OW  HW  HW  OW  HW  HW  OW  HW  HW  OW  HW  HW  OW  HW  HW  OW  HW  HW  OW  
HW  HW  OW  HW  HW  OW  HW  HW  OW  HW  HW  OW  HW  HW  OW  HW  HW  OW  HW  HW  
OW  HW  HW  OW  HW  HW  OW  HW  HW  OW  HW  HW  OW  HW  HW  OW  HW  HW  OW  HW  
HW  OW  HW  HW  OW  HW  HW  OW  HW  HW  OW  HW  HW  OW  HW  HW  OW  HW  HW  OW  
HW  HW  OW  HW  HW  OW  HW  HW  OW  HW  HW  OW  HW  HW  OW  HW  HW  OW  HW  HW  
OW  HW  HW  OW  HW  HW  OW  HW  HW  OW  HW  HW  OW  HW  HW  OW  HW  HW  OW  HW  
HW  OW  HW  HW  OW  HW  HW  OW  HW  HW  OW  HW  HW  OW  HW  HW  OW  HW  HW  OW  
HW  HW  OW  HW  HW  OW  HW  HW  OW  HW  HW  OW  HW  HW  OW  HW  HW  OW  HW  HW  
OW  HW  HW  OW  HW  HW  OW  HW  HW  OW  HW  HW  OW  HW  HW  OW  HW  HW  OW  HW  
HW  OW  HW  HW  OW  HW  HW  OW  HW  HW  OW  HW  HW  OW  HW  HW  OW  HW  HW  OW  
HW  HW  OW  HW  HW  OW  HW  HW  OW  HW  HW  OW  HW  HW  OW  HW  HW  OW  HW  HW  
OW  HW  HW  OW  HW  HW  OW  HW  HW  OW  HW  HW  OW  HW  HW  OW  HW  HW  OW  HW  
HW  OW  HW  HW  OW  HW  HW  OW  HW  HW  OW  HW  HW  OW  HW  HW  OW  HW  HW  OW  
HW  HW  OW  HW  HW  OW  HW  HW  OW  HW  HW  OW  HW  HW  OW  HW  HW  OW  HW  HW  
OW  HW  HW  OW  HW  HW  OW  HW  HW  OW  HW  HW  OW  HW  HW  OW  HW  HW  OW  HW  
HW  OW  HW  HW  OW  HW  HW  OW  HW  HW  OW  HW  HW  OW  HW  HW  OW  HW  HW  OW  
HW  HW  OW  HW  HW  OW  HW  HW  OW  HW  HW  OW  HW  HW  OW  HW  HW  OW  HW  HW  
OW  HW  HW  OW  HW  HW  OW  HW  HW  OW  HW  HW  OW  HW  HW  OW  HW  HW  OW  HW  
HW  OW  HW  HW  OW  HW  HW  OW  HW  HW  OW  HW  HW  OW  HW  HW  OW  HW  HW  OW  
HW  HW  OW  HW  HW  OW  HW  HW  OW  HW  HW  OW  HW  HW  OW  HW  HW  OW  HW  HW  
OW  HW  HW  OW  HW  HW  OW  HW  HW  OW  HW  HW  OW  HW  HW  OW  HW  HW  OW  HW  
HW  OW  HW  HW  OW  HW  HW  OW  HW  HW  OW  HW  HW  OW  HW  HW  OW  HW  HW  OW  
HW  HW  OW  HW  HW  OW  HW  HW  OW  HW  HW  OW  HW  HW  OW  HW  HW  OW  HW  HW  
OW  HW  HW  OW  HW  HW  OW  HW  HW  OW  HW  HW  OW  HW  HW  OW  HW  HW  OW  HW  
HW  OW  HW  HW  OW  HW  HW  OW  HW  HW  OW  HW  HW  OW  HW  HW  OW  HW  HW  OW  
HW  HW  OW  HW  HW  OW  HW  HW  OW  HW  HW  OW  HW  HW  OW  HW  HW  OW  HW  HW  
OW  HW  HW  OW  HW  HW  OW  HW  HW  OW  HW  HW  OW  HW  HW  OW  HW  HW  OW  HW  
HW  OW  HW  HW  OW  HW  HW  OW  HW  HW  OW  HW  HW  OW  HW  HW  OW  HW  HW  OW  
HW  HW  OW  HW  HW  OW  HW  HW  OW  HW  HW  OW  HW  HW  OW  HW  HW  OW  HW  HW  
OW  HW  HW  OW  HW  HW  OW  HW  HW  OW  HW  HW  OW  HW  HW  OW  HW  HW  OW  HW  
HW  OW  HW  HW  OW  HW  HW  OW  HW  HW  OW  HW  HW  OW  HW  HW  OW  HW  HW  OW  
HW  HW  OW  HW  HW  OW  HW  HW  OW  HW  HW  OW  HW  HW  OW  HW  HW  OW  HW  HW  
OW  HW  HW  OW  HW  HW  OW  HW  HW  OW  HW  HW  OW  HW  HW  OW  HW  HW  OW  HW  
HW  OW  HW  HW  OW  HW  HW  OW  HW  HW  OW  HW  HW  OW  HW  HW  OW  HW  HW  OW  
HW  HW  OW  HW  HW  OW  HW  HW  OW  HW  HW  OW  HW  HW  OW  HW  HW  OW  HW  HW  
OW  HW  HW  OW  HW  HW  OW  HW  HW  OW  HW  HW  OW  HW  HW  OW  HW  HW  OW  HW  
HW  OW  HW  HW  OW  HW  HW  OW  HW  HW  OW  HW  HW  OW  HW  HW  OW  HW  HW  OW  
HW  HW  OW  HW  HW  OW  HW  HW  OW  HW  HW  OW  HW  HW  OW  HW  HW  OW  HW  HW  
OW  HW  HW  OW  HW  HW  OW  HW  HW  OW  HW  HW  OW  HW  HW  OW  HW  HW  OW  HW  
HW  OW  HW  HW  OW  HW  HW  OW  HW  HW  OW  HW  HW  OW  HW  HW  OW  HW  HW  OW  
HW  HW  OW  HW  HW  OW  HW  HW  OW  HW  HW  OW  HW  HW  OW  HW  HW  OW  HW  HW  
OW  HW  HW  OW  HW  HW  OW  HW  HW  OW  HW  HW  OW  HW  HW  OW  HW  HW  OW  HW  
HW  OW  HW  HW  OW  HW  HW  OW  HW  HW  OW  HW  HW  OW  HW  HW  OW  HW  HW  OW  
HW  HW  OW  HW  HW  OW  HW  HW  OW  HW  HW  OW  HW  HW  OW  HW  HW  OW  HW  HW  
OW  HW  HW  OW  HW  HW  OW  HW  HW  OW  HW  HW  OW  HW  HW  OW  HW  HW  OW  HW  
HW  OW  HW  HW  OW  HW  HW  OW  HW  HW  OW  HW  HW  OW  HW  HW  OW  HW  HW  OW  
HW  HW  OW  HW  HW  OW  HW  HW  OW  HW  HW  OW  HW  HW  OW  HW  HW  OW  HW  HW  
OW  HW  HW  OW  HW  HW  OW  HW  HW  OW  HW  HW  OW  HW  HW  OW  HW  HW  OW  HW  
HW  OW  HW  HW  OW  HW  HW  OW  HW  HW  OW  HW  HW  OW  HW  HW  OW  HW  HW  OW  
HW  HW  OW  HW  HW  OW  HW  HW  OW  HW  HW  OW  HW  HW  OW  HW  HW  OW  HW  HW  
OW  HW  HW  OW  HW  HW  OW  HW  HW  OW  HW  HW  OW  HW  HW  OW  HW  HW  OW  HW  
HW  OW  HW  HW  OW  HW  HW  OW  HW  HW  OW  HW  HW  OW  HW  HW  OW  HW  HW  OW  
HW  HW  OW  HW  HW  OW  HW  HW  OW  HW  HW  OW  HW  HW  OW  HW  HW  OW  HW  HW  
OW  HW  HW  OW  HW  HW  OW  HW  HW  OW  HW  HW  OW  HW  HW  OW  HW  HW  OW  HW  
HW  OW  HW  HW  OW  HW  HW  OW  HW  HW  OW  HW  HW  OW  HW  HW  OW  HW  HW  OW  
HW  HW  OW  HW  HW  OW  HW  HW  OW  HW  HW  OW  HW  HW  OW  HW  HW  OW  HW  HW  
OW  HW  HW  OW  HW  HW  OW  HW  HW  OW  HW  HW  OW  HW  HW  OW  HW  HW  OW  HW  
HW  OW  HW  HW  OW  HW  HW  OW  HW  HW  OW  HW  HW  OW  HW  HW  OW  HW  HW  OW  
HW  HW  OW  HW  HW  OW  HW  HW  OW  HW  HW  OW  HW  HW  OW  HW  HW  OW  HW  HW  
OW  HW  HW  OW  HW  HW  OW  HW  HW  OW  HW  HW  OW  HW  HW  OW  HW  HW  OW  HW  
HW  OW  HW  HW  OW  HW  HW  OW  HW  HW  OW  HW  HW  OW  HW  HW  OW  HW  HW  OW  
HW  HW  OW  HW  HW  OW  HW  HW  OW  HW  HW  OW  HW  HW  OW  HW  HW  OW  HW  HW  
OW  HW  HW  OW  HW  HW  OW  HW  HW  OW  HW  HW  OW  HW  HW  OW  HW  HW  OW  HW  
HW  OW  HW  HW  OW  HW  HW  OW  HW  HW  OW  HW  HW  OW  HW  HW  OW  HW  HW  OW  
HW  HW  OW  HW  HW  OW  HW  HW  OW  HW  HW  OW  HW  HW  OW  HW  HW  OW  HW  HW  
OW  HW  HW  OW  HW  HW  OW  HW  HW  OW  HW  HW  OW  HW  HW  OW  HW  HW  OW  HW  
HW  OW  HW  HW  OW  HW  HW  OW  HW  HW  OW  HW  HW  OW  HW  HW  OW  HW  HW  OW  
HW  HW  OW  HW  HW  OW  HW  HW  OW  HW  HW  OW  HW  HW  OW  HW  HW  OW  HW  HW  
OW  HW  HW  OW  HW  HW  OW  HW  HW  OW  HW  HW  OW  HW  HW  OW  HW  HW  OW  HW  
HW  OW  HW  HW  OW  HW  HW  OW  HW  HW  OW  HW  HW  OW  HW  HW  OW  HW  HW  OW  
HW  HW  OW  HW  HW  OW  HW  HW  OW  HW  HW  OW  HW  HW  OW  HW  HW  OW  HW  HW  
OW  HW  HW  OW  HW  HW  OW  HW  HW  OW  HW  HW  OW  HW  HW  OW  HW  HW  OW  HW  
HW  OW  HW  HW  OW  HW  HW  OW  HW  HW  OW  HW  HW  OW  HW  HW  OW  HW  HW  OW  
HW  HW  OW  HW  HW  OW  HW  HW  OW  HW  HW  OW  HW  HW  OW  HW  HW  OW  HW  HW  
OW  HW  HW  OW  HW  HW  OW  HW  HW  OW  HW  HW  OW  HW  HW  OW  HW  HW  OW  HW  
HW  OW  HW  HW  OW  HW  HW  OW  HW  HW  OW  HW  HW  OW  HW  HW  OW  HW  HW  OW  
HW  HW  OW  HW  HW  OW  HW  HW  OW  HW  HW  OW  HW  HW  OW  HW  HW  OW  HW  HW  
OW  HW  HW  OW  HW  HW  OW  HW  HW  OW  HW  HW  OW  HW  HW  OW  HW  HW  OW  HW  
HW  OW  HW  HW  OW  HW  HW  OW  HW  HW  OW  HW  HW  OW  HW  HW  OW  HW  HW  OW  
HW  HW  OW  HW  HW  OW  HW  HW  OW  HW  HW  OW  HW  HW  OW  HW  HW  OW  HW  HW  
OW  HW  HW  OW  HW  HW  OW  HW  HW  OW  HW  HW  OW  HW  HW  OW  HW  HW  OW  HW  
HW  OW  HW  HW  OW  HW  HW  OW  HW  HW  OW  HW  HW  OW  HW  HW  OW  HW  HW  OW  
HW  HW  OW  HW  HW  OW  HW  HW  OW  HW  HW  OW  HW  HW  OW  HW  HW  OW  HW  HW  
OW  HW  HW  OW  HW  HW  OW  HW  HW  OW  HW  HW  OW  HW  HW  OW  HW  HW  OW  HW  
HW  OW  HW  HW  OW  HW  HW  OW  HW  HW  OW  HW  HW  OW  HW  HW  OW  HW  HW  OW  
HW  HW  OW  HW  HW  OW  HW  HW  OW  HW  HW  OW  HW  HW  OW  HW  HW  OW  HW  HW  
OW  HW  HW  OW  HW  HW  OW  HW  HW  OW  HW  HW  OW  HW  HW  OW  HW  HW  OW  HW  
HW  OW  HW  HW  OW  HW  HW  OW  HW  HW  OW  HW  HW  OW  HW  HW  OW  HW  HW  OW  
HW  HW  OW  HW  HW  OW  HW  HW  OW  HW  HW  OW  HW  HW  OW  HW  HW  OW  HW  HW  
OW  HW  HW  OW  HW  HW  OW  HW  HW  OW  HW  HW  OW  HW  HW  OW  HW  HW  OW  HW  
HW  OW  HW  HW  OW  HW  HW  OW  HW  HW  OW  HW  HW  OW  HW  HW  OW  HW  HW  OW  
HW  HW  OW  HW  HW  OW  HW  HW  OW  HW  HW  OW  HW  HW  OW  HW  HW  OW  HW  HW  
OW  HW  HW  OW  HW  HW  OW  HW  HW  OW  HW  HW  OW  HW  HW  OW  HW  HW  OW  HW  
HW  OW  HW  HW  OW  HW  HW  OW  HW  HW  OW  HW  HW  OW  HW  HW  OW  HW  HW  OW  
HW  HW  OW  HW  HW  OW  HW  HW  OW  HW  HW  OW  HW  HW  OW  HW  HW  OW  HW  HW  
OW  HW  HW  OW  HW  HW  OW  HW  HW  OW  HW  HW  OW  HW  HW  OW  HW  HW  OW  HW  
HW  OW  HW  HW  OW  HW  HW  OW  HW  HW  OW  HW  HW  OW  HW  HW  OW  HW  HW  OW  
HW  HW  OW  HW  HW  OW  HW  HW  OW  HW  HW  OW  HW  HW  OW  HW  HW  OW  HW  HW  
OW  HW  HW  OW  HW  HW  OW  HW  HW  OW  HW  HW  OW  HW  HW  OW  HW  HW  OW  HW  
HW  OW  HW  HW  OW  HW  HW  OW  HW  HW  OW  HW  HW  OW  HW  HW  OW  HW  HW  OW  
HW  HW  OW  HW  HW  OW  HW  HW  OW  HW  HW  OW  HW  HW  OW  HW  HW  OW  HW  HW  
OW  HW  HW  OW  HW  HW  OW  HW  HW  OW  HW  HW  OW  HW  HW  OW  HW  HW  OW  HW  
HW  OW  HW  HW  OW  HW  HW  OW  HW  HW  OW  HW  HW  OW  HW  HW  OW  HW  HW  OW  
HW  HW  OW  HW  HW  OW  HW  HW  OW  HW  HW  OW  HW  HW  OW  HW  HW  OW  HW  HW  
OW  HW  HW  OW  HW  HW  OW  HW  HW  OW  HW  HW  OW  HW  HW  OW  HW  HW  OW  HW  
HW  OW  HW  HW  OW  HW  HW  OW  HW  HW  OW  HW  HW  OW  HW  HW  OW  HW  HW  OW  
HW  HW  OW  HW  HW  OW  HW  HW  OW  HW  HW  OW  HW  HW  OW  HW  HW  OW  HW  HW  
OW  HW  HW  OW  HW  HW  OW  HW  HW  OW  HW  HW  OW  HW  HW  OW  HW  HW  OW  HW  
HW  OW  HW  HW  OW  HW  HW  OW  HW  HW  OW  HW  HW  OW  HW  HW  OW  HW  HW  OW  
HW  HW  OW  HW  HW  OW  HW  HW  OW  HW  HW  OW  HW  HW  OW  HW  HW  OW  HW  HW  
OW  HW  HW  OW  HW  HW  OW  HW  HW  OW  HW  HW  OW  HW  HW  OW  HW  HW  OW  HW  
HW  OW  HW  HW  OW  HW  HW  OW  HW  HW  OW  HW  HW  OW  HW  HW  OW  HW  HW  OW  
HW  HW  OW  HW  HW  OW  HW  HW  OW  HW  HW  OW  HW  HW  OW  HW  HW  OW  HW  HW  
OW  HW  HW  OW  HW  HW  OW  HW  HW  OW  HW  HW  OW  HW  HW  OW  HW  HW  OW  HW  
HW  OW  HW  HW  OW  HW  HW  OW  HW  HW  OW  HW  HW  OW  HW  HW  OW  HW  HW  OW  
HW  HW  OW  HW  HW  OW  HW  HW  OW  HW  HW  OW  HW  HW  OW  HW  HW  OW  HW  HW  
OW  HW  HW  OW  HW  HW  OW  HW  HW  OW  HW  HW  OW  HW  HW  OW  HW  HW  OW  HW  
HW  OW  HW  HW  OW  HW  HW  OW  HW  HW  OW  HW  HW  OW  HW  HW  OW  HW  HW  OW  
HW  HW  OW  HW  HW  OW  HW  HW  OW  HW  HW  OW  HW  HW  OW  HW  HW  OW  HW  HW  
OW  HW  HW  OW  HW  HW  OW  HW  HW  OW  HW  HW  OW  HW  HW  OW  HW  HW  OW  HW  
HW  OW  HW  HW  OW  HW  HW  OW  HW  HW  OW  HW  HW  OW  HW  HW  OW  HW  HW  OW  
HW  HW  OW  HW  HW  OW  HW  HW  OW  HW  HW  OW  HW  HW  OW  HW  HW  OW  HW  HW  
OW  HW  HW  OW  HW  HW  OW  HW  HW  OW  HW  HW  OW  HW  HW  OW  HW  HW  OW  HW  
HW  OW  HW  HW  OW  HW  HW  OW  HW  HW  OW  HW  HW  OW  HW  HW  OW  HW  HW  OW  
HW  HW  OW  HW  HW  OW  HW  HW  OW  HW  HW  OW  HW  HW  OW  HW  HW  OW  HW  HW  
OW  HW  HW  OW  HW  HW  OW  HW  HW  OW  HW  HW  OW  HW  HW  OW  HW  HW  OW  HW  
HW  OW  HW  HW  OW  HW  HW  OW  HW  HW  OW  HW  HW  OW  HW  HW  OW  HW  HW  OW  
HW  HW  OW  HW  HW  OW  HW  HW  OW  HW  HW  OW  HW  HW  OW  HW  HW  OW  HW  HW  
OW  HW  HW  OW  HW  HW  OW  HW  HW  OW  HW  HW  OW  HW  HW  OW  HW  HW  OW  HW  
HW  OW  HW  HW  OW  HW  HW  OW  HW  HW  OW  HW  HW  OW  HW  HW  OW  HW  HW  OW  
HW  HW  OW  HW  HW  OW  HW  HW  OW  HW  HW  OW  HW  HW  OW  HW  HW  OW  HW  HW  
OW  HW  HW  OW  HW  HW  OW  HW  HW  OW  HW  HW  OW  HW  HW  OW  HW  HW  OW  HW  
HW  OW  HW  HW  OW  HW  HW  OW  HW  HW  OW  HW  HW  OW  HW  HW  OW  HW  HW  OW  
HW  HW  OW  HW  HW  OW  HW  HW  OW  HW  HW  OW  HW  HW  OW  HW  HW  OW  HW  HW  
OW  HW  HW  OW  HW  HW  OW  HW  HW  OW  HW  HW  OW  HW  HW  OW  HW  HW  OW  HW  
HW  OW  HW  HW  OW  HW  HW  OW  HW  HW  OW  HW  HW  OW  HW  HW  OW  HW  HW  OW  
HW  HW  OW  HW  HW  OW  HW  HW  OW  HW  HW  OW  HW  HW  OW  HW  HW  OW  HW  HW  
OW  HW  HW  OW  HW  HW  OW  HW  HW  OW  HW  HW  OW  HW  HW  OW  HW  HW  OW  HW  
HW  OW  HW  HW  OW  HW  HW  OW  HW  HW  OW  HW  HW  OW  HW  HW  OW  HW  HW  OW  
HW  HW  OW  HW  HW  OW  HW  HW  OW  HW  HW  OW  HW  HW  OW  HW  HW  OW  HW  HW  
OW  HW  HW  OW  HW  HW  OW  HW  HW  OW  HW  HW  OW  HW  HW  OW  HW  HW  OW  HW  
HW  OW  HW  HW  OW  HW  HW  OW  HW  HW  OW  HW  HW  OW  HW  HW  OW  HW  HW  OW  
HW  HW  OW  HW  HW  OW  HW  HW  OW  HW  HW  OW  HW  HW  OW  HW  HW  OW  HW  HW  
OW  HW  HW  OW  HW  HW  OW  HW  HW  OW  HW  HW  OW  HW  HW  OW  HW  HW  OW  HW  
HW  OW  HW  HW  OW  HW  HW  OW  HW  HW  OW  HW  HW  OW  HW  HW  OW  HW  HW  OW  
HW  HW  OW  HW  HW  OW  HW  HW  OW  HW  HW  OW  HW  HW  OW  HW  HW  OW  HW  HW  
OW  HW  HW  OW  HW  HW  OW  HW  HW  OW  HW  HW  OW  HW  HW  OW  HW  HW  OW  HW  
HW  OW  HW  HW  OW  HW  HW  OW  HW  HW  OW  HW  HW  OW  HW  HW  OW  HW  HW  OW  
HW  HW  OW  HW  HW  OW  HW  HW  OW  HW  HW  OW  HW  HW  OW  HW  HW  OW  HW  HW  
OW  HW  HW  OW  HW  HW  OW  HW  HW  OW  HW  HW  OW  HW  HW  OW  HW  HW  OW  HW  
HW  OW  HW  HW  OW  HW  HW  OW  HW  HW  OW  HW  HW  OW  HW  HW  OW  HW  HW  OW  
HW  HW  OW  HW  HW  OW  HW  HW  OW  HW  HW  OW  HW  HW  OW  HW  HW  OW  HW  HW  
OW  HW  HW  OW  HW  HW  OW  HW  HW  OW  HW  HW  OW  HW  HW  OW  HW  HW  OW  HW  
HW  OW  HW  HW  OW  HW  HW  OW  HW  HW  OW  HW  HW  OW  HW  HW  OW  HW  HW  OW  
HW  HW  OW  HW  HW  OW  HW  HW  OW  HW  HW  OW  HW  HW  OW  HW  HW  OW  HW  HW  
OW  HW  HW  OW  HW  HW  OW  HW  HW  OW  HW  HW  OW  HW  HW  OW  HW  HW  OW  HW  
HW  OW  HW  HW  OW  HW  HW  OW  HW  HW  OW  HW  HW  OW  HW  HW  OW  HW  HW  OW  
HW  HW  OW  HW  HW  OW  HW  HW  OW  HW  HW  OW  HW  HW  OW  HW  HW  OW  HW  HW  
OW  HW  HW  OW  HW  HW  OW  HW  HW  OW  HW  HW  OW  HW  HW  OW  HW  HW  OW  HW  
HW  OW  HW  HW  OW  HW  HW  OW  HW  HW  OW  HW  HW  OW  HW  HW  OW  HW  HW  OW  
HW  HW  OW  HW  HW  OW  HW  HW  OW  HW  HW  OW  HW  HW  OW  HW  HW  OW  HW  HW  
OW  HW  HW  OW  HW  HW  OW  HW  HW  OW  HW  HW  OW  HW  HW  OW  HW  HW  OW  HW  
HW  OW  HW  HW  OW  HW  HW  OW  HW  HW  OW  HW  HW  OW  HW  HW  OW  HW  HW  OW  
HW  HW  OW  HW  HW  OW  HW  HW  OW  HW  HW  OW  HW  HW  OW  HW  HW  OW  HW  HW  
OW  HW  HW  OW  HW  HW  OW  HW  HW  OW  HW  HW  OW  HW  HW  OW  HW  HW  OW  HW  
HW  OW  HW  HW  OW  HW  HW  OW  HW  HW  OW  HW  HW  OW  HW  HW  OW  HW  HW  OW  
HW  HW  OW  HW  HW  OW  HW  HW  OW  HW  HW  OW  HW  HW  OW  HW  HW  OW  HW  HW  
OW  HW  HW  OW  HW  HW  OW  HW  HW  OW  HW  HW  OW  HW  HW  OW  HW  HW  OW  HW  
HW  OW  HW  HW  OW  HW  HW  OW  HW  HW  OW  HW  HW  OW  HW  HW  OW  HW  HW  OW  
HW  HW  OW  HW  HW  OW  HW  HW  OW  HW  HW  OW  HW  HW  OW  HW  HW  OW  HW  HW  
OW  HW  HW  OW  HW  HW  OW  HW  HW  OW  HW  HW  OW  HW  HW  OW  HW  HW  OW  HW  
HW  OW  HW  HW  OW  HW  HW  OW  HW  HW  OW  HW  HW  OW  HW  HW  OW  HW  HW  OW  
HW  HW  OW  HW  HW  OW  HW  HW  OW  HW  HW  OW  HW  HW  OW  HW  HW  OW  HW  HW  
OW  HW  HW  OW  HW  HW  OW  HW  HW  OW  HW  HW  OW  HW  HW  OW  HW  HW  OW  HW  
HW  OW  HW  HW  OW  HW  HW  OW  HW  HW  OW  HW  HW  OW  HW  HW  OW  HW  HW  OW  
HW  HW  OW  HW  HW  OW  HW  HW  OW  HW  HW  OW  HW  HW  OW  HW  HW  OW  HW  HW  
OW  HW  HW  OW  HW  HW  OW  HW  HW  OW  HW  HW  OW  HW  HW  OW  HW  HW  OW  HW  
HW  OW  HW  HW  OW  HW  HW  OW  HW  HW  OW  HW  HW  OW  HW  HW  OW  HW  HW  OW  
HW  HW  OW  HW  HW  OW  HW  HW  OW  HW  HW  OW  HW  HW  OW  HW  HW  OW  HW  HW  
OW  HW  HW  OW  HW  HW  OW  HW  HW  OW  HW  HW  OW  HW  HW  OW  HW  HW  OW  HW  
HW  OW  HW  HW  OW  HW  HW  OW  HW  HW  OW  HW  HW  OW  HW  HW  OW  HW  HW  OW  
HW  HW  OW  HW  HW  OW  HW  HW  OW  HW  HW  OW  HW  HW  OW  HW  HW  OW  HW  HW  
OW  HW  HW  OW  HW  HW  OW  HW  HW  OW  HW  HW  OW  HW  HW  OW  HW  HW  OW  HW  
HW  OW  HW  HW  OW  HW  HW  OW  HW  HW  OW  HW  HW  OW  HW  HW  OW  HW  HW  OW  
HW  HW  OW  HW  HW  OW  HW  HW  OW  HW  HW  OW  HW  HW  OW  HW  HW  OW  HW  HW  
OW  HW  HW  OW  HW  HW  OW  HW  HW  OW  HW  HW  OW  HW  HW  OW  HW  HW  OW  HW  
HW  OW  HW  HW  OW  HW  HW  OW  HW  HW  OW  HW  HW  OW  HW  HW  OW  HW  HW  OW  
HW  HW  OW  HW  HW  OW  HW  HW  OW  HW  HW  OW  HW  HW  OW  HW  HW  OW  HW  HW  
OW  HW  HW  OW  HW  HW  OW  HW  HW  OW  HW  HW  OW  HW  HW  OW  HW  HW  OW  HW  
HW  OW  HW  HW  OW  HW  HW  OW  HW  HW  OW  HW  HW  OW  HW  HW  OW  HW  HW  OW  
HW  HW  OW  HW  HW  OW  HW  HW  OW  HW  HW  OW  HW  HW  OW  HW  HW  OW  HW  HW  
OW  HW  HW  OW  HW  HW  OW  HW  HW  OW  HW  HW  OW  HW  HW  OW  HW  HW  OW  HW  
HW  OW  HW  HW  OW  HW  HW  OW  HW  HW  OW  HW  HW  OW  HW  HW  OW  HW  HW  OW  
HW  HW  OW  HW  HW  OW  HW  HW  OW  HW  HW  OW  HW  HW  OW  HW  HW  OW  HW  HW  
OW  HW  HW  OW  HW  HW  OW  HW  HW  OW  HW  HW  OW  HW  HW  OW  HW  HW  OW  HW  
HW  OW  HW  HW  OW  HW  HW  OW  HW  HW  OW  HW  HW  OW  HW  HW  OW  HW  HW  OW  
HW  HW  OW  HW  HW  OW  HW  HW  OW  HW  HW  OW  HW  HW  OW  HW  HW  OW  HW  HW  
OW  HW  HW  OW  HW  HW  OW  HW  HW  OW  HW  HW  OW  HW  HW  OW  HW  HW  OW  HW  
HW  OW  HW  HW  OW  HW  HW  OW  HW  HW  OW  HW  HW  OW  HW  HW  OW  HW  HW  OW  
HW  HW  OW  HW  HW  OW  HW  HW  OW  HW  HW  OW  HW  HW  OW  HW  HW  OW  HW  HW  
OW  HW  HW  OW  HW  HW  OW  HW  HW  OW  HW  HW  OW  HW  HW  OW  HW  HW  OW  HW  
HW  OW  HW  HW  OW  HW  HW  OW  HW  HW  OW  HW  HW  OW  HW  HW  OW  HW  HW  OW  
HW  HW  OW  HW  HW  OW  HW  HW  OW  HW  HW  OW  HW  HW  OW  HW  HW  OW  HW  HW  
OW  HW  HW  OW  HW  HW  OW  HW  HW  OW  HW  HW  OW  HW  HW  OW  HW  HW  OW  HW  
HW  OW  HW  HW  OW  HW  HW  OW  HW  HW  OW  HW  HW  OW  HW  HW  OW  HW  HW  OW  
HW  HW  OW  HW  HW  OW  HW  HW  OW  HW  HW  OW  HW  HW  OW  HW  HW  OW  HW  HW  
OW  HW  HW  OW  HW  HW  OW  HW  HW  OW  HW  HW  OW  HW  HW  OW  HW  HW  OW  HW  
HW  OW  HW  HW  OW  HW  HW  OW  HW  HW  OW  HW  HW  OW  HW  HW  OW  HW  HW  OW  
HW  HW  OW  HW  HW  OW  HW  HW  OW  HW  HW  OW  HW  HW  OW  HW  HW  OW  HW  HW  
OW  HW  HW  OW  HW  HW  OW  HW  HW  OW  HW  HW  OW  HW  HW  OW  HW  HW  OW  HW  
HW  OW  HW  HW  OW  HW  HW  OW  HW  HW  OW  HW  HW  OW  HW  HW  OW  HW  HW  OW  
HW  HW  OW  HW  HW  OW  HW  HW  OW  HW  HW  OW  HW  HW  OW  HW  HW  OW  HW  HW  
OW  HW  HW  OW  HW  HW  OW  HW  HW  OW  HW  HW  OW  HW  HW  OW  HW  HW  OW  HW  
HW  OW  HW  HW  OW  HW  HW  OW  HW  HW  OW  HW  HW  OW  HW  HW  OW  HW  HW  OW  
HW  HW  OW  HW  HW  OW  HW  HW  OW  HW  HW  OW  HW  HW  OW  HW  HW  OW  HW  HW  
OW  HW  HW  OW  HW  HW  OW  HW  HW  OW  HW  HW  OW  HW  HW  OW  HW  HW  OW  HW  
HW  OW  HW  HW  OW  HW  HW  OW  HW  HW  OW  HW  HW  OW  HW  HW  OW  HW  HW  OW  
HW  HW  OW  HW  HW  OW  HW  HW  OW  HW  HW  OW  HW  HW  OW  HW  HW  OW  HW  HW  
OW  HW  HW  OW  HW  HW  OW  HW  HW  OW  HW  HW  OW  HW  HW  OW  HW  HW  OW  HW  
HW  OW  HW  HW  OW  HW  HW  OW  HW  HW  OW  HW  HW  OW  HW  HW  OW  HW  HW  OW  
HW  HW  OW  HW  HW  OW  HW  HW  OW  HW  HW  OW  HW  HW  OW  HW  HW  OW  HW  HW  
OW  HW  HW  OW  HW  HW  OW  HW  HW  OW  HW  HW  OW  HW  HW  OW  HW  HW  OW  HW  
HW  OW  HW  HW  OW  HW  HW  OW  HW  HW  OW  HW  HW  OW  HW  HW  OW  HW  HW  OW  
HW  HW  OW  HW  HW  OW  HW  HW  OW  HW  HW  OW  HW  HW  OW  HW  HW  OW  HW  HW  
OW  HW  HW  OW  HW  HW  OW  HW  HW  OW  HW  HW  OW  HW  HW  OW  HW  HW  OW  HW  
HW  OW  HW  HW  OW  HW  HW  OW  HW  HW  OW  HW  HW  OW  HW  HW  OW  HW  HW  OW  
HW  HW  OW  HW  HW  OW  HW  HW  OW  HW  HW  OW  HW  HW  OW  HW  HW  OW  HW  HW  
OW  HW  HW  OW  HW  HW  OW  HW  HW  OW  HW  HW  OW  HW  HW  OW  HW  HW  OW  HW  
HW  OW  HW  HW  OW  HW  HW  OW  HW  HW  OW  HW  HW  OW  HW  HW  OW  HW  HW  OW  
HW  HW  OW  HW  HW  OW  HW  HW  OW  HW  HW  OW  HW  HW  OW  HW  HW  OW  HW  HW  
OW  HW  HW  OW  HW  HW  OW  HW  HW  OW  HW  HW  OW  HW  HW  OW  HW  HW  OW  HW  
HW  OW  HW  HW  OW  HW  HW  OW  HW  HW  OW  HW  HW  OW  HW  HW  OW  HW  HW  OW  
HW  HW  OW  HW  HW  OW  HW  HW  OW  HW  HW  OW  HW  HW  OW  HW  HW  OW  HW  HW  
OW  HW  HW  OW  HW  HW  OW  HW  HW  OW  HW  HW  OW  HW  HW  OW  HW  HW  OW  HW  
HW  OW  HW  HW  OW  HW  HW  OW  HW  HW  OW  HW  HW  OW  HW  HW  OW  HW  HW  OW  
HW  HW  OW  HW  HW  OW  HW  HW  OW  HW  HW  OW  HW  HW  OW  HW  HW  OW  HW  HW  
OW  HW  HW  OW  HW  HW  OW  HW  HW  OW  HW  HW  OW  HW  HW  OW  HW  HW  OW  HW  
HW  OW  HW  HW  OW  HW  HW  OW  HW  HW  OW  HW  HW  OW  HW  HW  OW  HW  HW  OW  
HW  HW  OW  HW  HW  OW  HW  HW  OW  HW  HW  OW  HW  HW  OW  HW  HW  OW  HW  HW  
OW  HW  HW  OW  HW  HW  OW  HW  HW  OW  HW  HW  OW  HW  HW  OW  HW  HW  OW  HW  
HW  OW  HW  HW  OW  HW  HW  OW  HW  HW  OW  HW  HW  OW  HW  HW  OW  HW  HW  OW  
HW  HW  OW  HW  HW  OW  HW  HW  OW  HW  HW  OW  HW  HW  OW  HW  HW  OW  HW  HW  
OW  HW  HW  OW  HW  HW  OW  HW  HW  OW  HW  HW  OW  HW  HW  OW  HW  HW  OW  HW  
HW  OW  HW  HW  OW  HW  HW  OW  HW  HW  OW  HW  HW  OW  HW  HW  OW  HW  HW  OW  
HW  HW  OW  HW  HW  OW  HW  HW  OW  HW  HW  OW  HW  HW  OW  HW  HW  OW  HW  HW  
OW  HW  HW  OW  HW  HW  OW  HW  HW  OW  HW  HW  OW  HW  HW  OW  HW  HW  OW  HW  
HW  OW  HW  HW  OW  HW  HW  OW  HW  HW  OW  HW  HW  OW  HW  HW  OW  HW  HW  OW  
HW  HW  OW  HW  HW  OW  HW  HW  OW  HW  HW  OW  HW  HW  OW  HW  HW  OW  HW  HW  
OW  HW  HW  OW  HW  HW  OW  HW  HW  OW  HW  HW  OW  HW  HW  OW  HW  HW  OW  HW  
HW  OW  HW  HW  OW  HW  HW  OW  HW  HW  OW  HW  HW  OW  HW  HW  OW  HW  HW  OW  
HW  HW  OW  HW  HW  OW  HW  HW  OW  HW  HW  OW  HW  HW  OW  HW  HW  OW  HW  HW  
OW  HW  HW  OW  HW  HW  OW  HW  HW  OW  HW  HW  OW  HW  HW  OW  HW  HW  OW  HW  
HW  OW  HW  HW  OW  HW  HW  OW  HW  HW  OW  HW  HW  OW  HW  HW  OW  HW  HW  OW  
HW  HW  OW  HW  HW  OW  HW  HW  OW  HW  HW  OW  HW  HW  OW  HW  HW  OW  HW  HW  
OW  HW  HW  OW  HW  HW  OW  HW  HW  OW  HW  HW  OW  HW  HW  OW  HW  HW  OW  HW  
HW  OW  HW  HW  OW  HW  HW  OW  HW  HW  OW  HW  HW  OW  HW  HW  OW  HW  HW  OW  
HW  HW  OW  HW  HW  OW  HW  HW  OW  HW  HW  OW  HW  HW  OW  HW  HW  OW  HW  HW  
OW  HW  HW  OW  HW  HW  OW  HW  HW  OW  HW  HW  OW  HW  HW  OW  HW  HW  OW  HW  
HW  OW  HW  HW  OW  HW  HW  OW  HW  HW  OW  HW  HW  OW  HW  HW  OW  HW  HW  OW  
HW  HW  OW  HW  HW  OW  HW  HW  OW  HW  HW  OW  HW  HW  OW  HW  HW  OW  HW  HW  
OW  HW  HW  OW  HW  HW  OW  HW  HW  OW  HW  HW  OW  HW  HW  OW  HW  HW  OW  HW  
HW  OW  HW  HW  OW  HW  HW  OW  HW  HW  OW  HW  HW  OW  HW  HW  OW  HW  HW  OW  
HW  HW  OW  HW  HW  OW  HW  HW  OW  HW  HW  OW  HW  HW  OW  HW  HW  OW  HW  HW  
OW  HW  HW  OW  HW  HW  OW  HW  HW  OW  HW  HW  OW  HW  HW  OW  HW  HW  OW  HW  
HW  OW  HW  HW  OW  HW  HW  OW  HW  HW  OW  HW  HW  OW  HW  HW  OW  HW  HW  OW  
HW  HW  OW  HW  HW  OW  HW  HW  OW  HW  HW  OW  HW  HW  OW  HW  HW  OW  HW  HW  
OW  HW  HW  OW  HW  HW  OW  HW  HW  OW  HW  HW  OW  HW  HW  OW  HW  HW  OW  HW  
HW  OW  HW  HW  OW  HW  HW  OW  HW  HW  OW  HW  HW  OW  HW  HW  OW  HW  HW  OW  
HW  HW  OW  HW  HW  OW  HW  HW  OW  HW  HW  OW  HW  HW  OW  HW  HW  OW  HW  HW  
OW  HW  HW  OW  HW  HW  OW  HW  HW  OW  HW  HW  OW  HW  HW  OW  HW  HW  OW  HW  
HW  OW  HW  HW  OW  HW  HW  OW  HW  HW  OW  HW  HW  OW  HW  HW  OW  HW  HW  OW  
HW  HW  OW  HW  HW  OW  HW  HW  OW  HW  HW  OW  HW  HW  OW  HW  HW  OW  HW  HW  
OW  HW  HW  OW  HW  HW  OW  HW  HW  OW  HW  HW  OW  HW  HW  OW  HW  HW  OW  HW  
HW  OW  HW  HW  OW  HW  HW  OW  HW  HW  OW  HW  HW  OW  HW  HW  OW  HW  HW  OW  
HW  HW  OW  HW  HW  OW  HW  HW  OW  HW  HW  OW  HW  HW  OW  HW  HW  OW  HW  HW  
OW  HW  HW  OW  HW  HW  OW  HW  HW  OW  HW  HW  OW  HW  HW  OW  HW  HW  OW  HW  
HW  OW  HW  HW  OW  HW  HW  OW  HW  HW  OW  HW  HW  OW  HW  HW  OW  HW  HW  OW  
HW  HW  OW  HW  HW  OW  HW  HW  OW  HW  HW  OW  HW  HW  OW  HW  HW  OW  HW  HW  
OW  HW  HW  OW  HW  HW  OW  HW  HW  OW  HW  HW  OW  HW  HW  OW  HW  HW  OW  HW  
HW  OW  HW  HW  OW  HW  HW  OW  HW  HW  OW  HW  HW  OW  HW  HW  OW  HW  HW  OW  
HW  HW  OW  HW  HW  OW  HW  HW  OW  HW  HW  OW  HW  HW  OW  HW  HW  OW  HW  HW  
OW  HW  HW  OW  HW  HW  OW  HW  HW  OW  HW  HW  OW  HW  HW  OW  HW  HW  OW  HW  
HW  OW  HW  HW  OW  HW  HW  OW  HW  HW  OW  HW  HW  OW  HW  HW  OW  HW  HW  OW  
HW  HW  OW  HW  HW  OW  HW  HW  OW  HW  HW  OW  HW  HW  OW  HW  HW  OW  HW  HW  
OW  HW  HW  OW  HW  HW  OW  HW  HW  OW  HW  HW  OW  HW  HW  OW  HW  HW  OW  HW  
HW  OW  HW  HW  OW  HW  HW  OW  HW  HW  OW  HW  HW  OW  HW  HW  OW  HW  HW  OW  
HW  HW  OW  HW  HW  OW  HW  HW  OW  HW  HW  OW  HW  HW  OW  HW  HW  OW  HW  HW  
OW  HW  HW  OW  HW  HW  OW  HW  HW  OW  HW  HW  OW  HW  HW  OW  HW  HW  OW  HW  
HW  OW  HW  HW  OW  HW  HW  OW  HW  HW  OW  HW  HW  OW  HW  HW  OW  HW  HW  OW  
HW  HW  OW  HW  HW  OW  HW  HW  OW  HW  HW  OW  HW  HW  OW  HW  HW  OW  HW  HW  
OW  HW  HW  OW  HW  HW  OW  HW  HW  OW  HW  HW  OW  HW  HW  OW  HW  HW  OW  HW  
HW  OW  HW  HW  OW  HW  HW  OW  HW  HW  OW  HW  HW  OW  HW  HW  OW  HW  HW  OW  
HW  HW  OW  HW  HW  OW  HW  HW  OW  HW  HW  OW  HW  HW  OW  HW  HW  OW  HW  HW  
OW  HW  HW  OW  HW  HW  OW  HW  HW  OW  HW  HW  OW  HW  HW  OW  HW  HW  OW  HW  
HW  OW  HW  HW  OW  HW  HW  OW  HW  HW  OW  HW  HW  OW  HW  HW  OW  HW  HW  OW  
HW  HW  OW  HW  HW  OW  HW  HW  OW  HW  HW  OW  HW  HW  OW  HW  HW  OW  HW  HW  
OW  HW  HW  OW  HW  HW  OW  HW  HW  OW  HW  HW  OW  HW  HW  OW  HW  HW  OW  HW  
HW  OW  HW  HW  OW  HW  HW  OW  HW  HW  OW  HW  HW  OW  HW  HW  OW  HW  HW  OW  
HW  HW  OW  HW  HW  OW  HW  HW  OW  HW  HW  OW  HW  HW  OW  HW  HW  OW  HW  HW  
OW  HW  HW  OW  HW  HW  OW  HW  HW  OW  HW  HW  OW  HW  HW  OW  HW  HW  OW  HW  
HW  OW  HW  HW  OW  HW  HW  OW  HW  HW  OW  HW  HW  OW  HW  HW  OW  HW  HW  OW  
HW  HW  OW  HW  HW  OW  HW  HW  OW  HW  HW  OW  HW  HW  OW  HW  HW  OW  HW  HW  
OW  HW  HW  OW  HW  HW  OW  HW  HW  OW  HW  HW  OW  HW  HW  OW  HW  HW  OW  HW  
HW  OW  HW  HW  OW  HW  HW  OW  HW  HW  OW  HW  HW  OW  HW  HW  OW  HW  HW  OW  
HW  HW  OW  HW  HW  OW  HW  HW  OW  HW  HW  OW  HW  HW  OW  HW  HW  OW  HW  HW  
OW  HW  HW  OW  HW  HW  OW  HW  HW  OW  HW  HW  OW  HW  HW  OW  HW  HW  OW  HW  
HW  OW  HW  HW  OW  HW  HW  OW  HW  HW  OW  HW  HW  OW  HW  HW  OW  HW  HW  OW  
HW  HW  OW  HW  HW  OW  HW  HW  OW  HW  HW  OW  HW  HW  OW  HW  HW  OW  HW  HW  
OW  HW  HW  OW  HW  HW  OW  HW  HW  OW  HW  HW  OW  HW  HW  OW  HW  HW  OW  HW  
HW  OW  HW  HW  OW  HW  HW  OW  HW  HW  OW  HW  HW  OW  HW  HW  OW  HW  HW  OW  
HW  HW  OW  HW  HW  OW  HW  HW  OW  HW  HW  OW  HW  HW  OW  HW  HW  OW  HW  HW  
OW  HW  HW  OW  HW  HW  OW  HW  HW  OW  HW  HW  OW  HW  HW  OW  HW  HW  OW  HW  
HW  OW  HW  HW  OW  HW  HW  OW  HW  HW  OW  HW  HW  OW  HW  HW  OW  HW  HW  OW  
HW  HW  OW  HW  HW  OW  HW  HW  OW  HW  HW  OW  HW  HW  OW  HW  HW  OW  HW  HW  
OW  HW  HW  OW  HW  HW  OW  HW  HW  OW  HW  HW  OW  HW  HW  OW  HW  HW  OW  HW  
HW  OW  HW  HW  OW  HW  HW  OW  HW  HW  OW  HW  HW  OW  HW  HW  OW  HW  HW  OW  
HW  HW  OW  HW  HW  OW  HW  HW  OW  HW  HW  OW  HW  HW  OW  HW  HW  OW  HW  HW  
OW  HW  HW  OW  HW  HW  OW  HW  HW  OW  HW  HW  OW  HW  HW  OW  HW  HW  OW  HW  
HW  OW  HW  HW  OW  HW  HW  OW  HW  HW  OW  HW  HW  OW  HW  HW  OW  HW  HW  OW  
HW  HW  OW  HW  HW  OW  HW  HW  OW  HW  HW  OW  HW  HW  OW  HW  HW  OW  HW  HW  
OW  HW  HW  OW  HW  HW  OW  HW  HW  OW  HW  HW  OW  HW  HW  OW  HW  HW  OW  HW  
HW  OW  HW  HW  OW  HW  HW  OW  HW  HW  OW  HW  HW  OW  HW  HW  OW  HW  HW  OW  
HW  HW  OW  HW  HW  OW  HW  HW  OW  HW  HW  OW  HW  HW  OW  HW  HW  OW  HW  HW  
OW  HW  HW  OW  HW  HW  OW  HW  HW  OW  HW  HW  OW  HW  HW  OW  HW  HW  OW  HW  
HW  OW  HW  HW  OW  HW  HW  OW  HW  HW  OW  HW  HW  OW  HW  HW  OW  HW  HW  OW  
HW  HW  OW  HW  HW  OW  HW  HW  OW  HW  HW  OW  HW  HW  OW  HW  HW  OW  HW  HW  
OW  HW  HW  OW  HW  HW  OW  HW  HW  OW  HW  HW  OW  HW  HW  OW  HW  HW  OW  HW  
HW  OW  HW  HW  OW  HW  HW  OW  HW  HW  OW  HW  HW  OW  HW  HW  OW  HW  HW  OW  
HW  HW  OW  HW  HW  OW  HW  HW  OW  HW  HW  OW  HW  HW  OW  HW  HW  OW  HW  HW  
OW  HW  HW  OW  HW  HW  OW  HW  HW  OW  HW  HW  OW  HW  HW  OW  HW  HW  OW  HW  
HW  OW  HW  HW  OW  HW  HW  OW  HW  HW  OW  HW  HW  OW  HW  HW  OW  HW  HW  OW  
HW  HW  OW  HW  HW  OW  HW  HW  OW  HW  HW  OW  HW  HW  OW  HW  HW  OW  HW  HW  
OW  HW  HW  OW  HW  HW  OW  HW  HW  OW  HW  HW  OW  HW  HW  OW  HW  HW  OW  HW  
HW  OW  HW  HW  OW  HW  HW  OW  HW  HW  OW  HW  HW  OW  HW  HW  OW  HW  HW  OW  
HW  HW  OW  HW  HW  OW  HW  HW  OW  HW  HW  OW  HW  HW  OW  HW  HW  OW  HW  HW  
OW  HW  HW  OW  HW  HW  OW  HW  HW  OW  HW  HW  OW  HW  HW  OW  HW  HW  OW  HW  
HW  OW  HW  HW  OW  HW  HW  OW  HW  HW  OW  HW  HW  OW  HW  HW  OW  HW  HW  OW  
HW  HW  OW  HW  HW  OW  HW  HW  OW  HW  HW  OW  HW  HW  OW  HW  HW  OW  HW  HW  
OW  HW  HW  OW  HW  HW  OW  HW  HW  OW  HW  HW  OW  HW  HW  OW  HW  HW  OW  HW  
HW  OW  HW  HW  OW  HW  HW  OW  HW  HW  OW  HW  HW  OW  HW  HW  OW  HW  HW  OW  
HW  HW  OW  HW  HW  OW  HW  HW  OW  HW  HW  OW  HW  HW  OW  HW  HW  OW  HW  HW  
OW  HW  HW  OW  HW  HW  OW  HW  HW  OW  HW  HW  OW  HW  HW  OW  HW  HW  OW  HW  
HW  OW  HW  HW  OW  HW  HW  OW  HW  HW  OW  HW  HW  OW  HW  HW  OW  HW  HW  OW  
HW  HW  OW  HW  HW  OW  HW  HW  OW  HW  HW  OW  HW  HW  OW  HW  HW  OW  HW  HW  
OW  HW  HW  OW  HW  HW  OW  HW  HW  OW  HW  HW  OW  HW  HW  OW  HW  HW  OW  HW  
HW  OW  HW  HW  OW  HW  HW  OW  HW  HW  OW  HW  HW  OW  HW  HW  OW  HW  HW  OW  
HW  HW  OW  HW  HW  OW  HW  HW  OW  HW  HW  OW  HW  HW  OW  HW  HW  OW  HW  HW  
OW  HW  HW  OW  HW  HW  OW  HW  HW  OW  HW  HW  OW  HW  HW  OW  HW  HW  OW  HW  
HW  OW  HW  HW  OW  HW  HW  OW  HW  HW  OW  HW  HW  OW  HW  HW  OW  HW  HW  OW  
HW  HW  OW  HW  HW  OW  HW  HW  OW  HW  HW  OW  HW  HW  OW  HW  HW  OW  HW  HW  
OW  HW  HW  OW  HW  HW  OW  HW  HW  OW  HW  HW  OW  HW  HW  OW  HW  HW  OW  HW  
HW  OW  HW  HW  OW  HW  HW  OW  HW  HW  OW  HW  HW  OW  HW  HW  OW  HW  HW  OW  
HW  HW  OW  HW  HW  OW  HW  HW  OW  HW  HW  OW  HW  HW  OW  HW  HW  OW  HW  HW  
OW  HW  HW  OW  HW  HW  OW  HW  HW  OW  HW  HW  OW  HW  HW  OW  HW  HW  OW  HW  
HW  OW  HW  HW  OW  HW  HW  OW  HW  HW  OW  HW  HW  OW  HW  HW  OW  HW  HW  OW  
HW  HW  OW  HW  HW  OW  HW  HW  OW  HW  HW  OW  HW  HW  OW  HW  HW  OW  HW  HW  
OW  HW  HW  OW  HW  HW  OW  HW  HW  OW  HW  HW  OW  HW  HW  OW  HW  HW  OW  HW  
HW  OW  HW  HW  OW  HW  HW  OW  HW  HW  OW  HW  HW  OW  HW  HW  OW  HW  HW  OW  
HW  HW  OW  HW  HW  OW  HW  HW  OW  HW  HW  OW  HW  HW  OW  HW  HW  OW  HW  HW  
OW  HW  HW  OW  HW  HW  OW  HW  HW  OW  HW  HW  OW  HW  HW  OW  HW  HW  OW  HW  
HW  OW  HW  HW  OW  HW  HW  OW  HW  HW  OW  HW  HW  OW  HW  HW  OW  HW  HW  OW  
HW  HW  OW  HW  HW  OW  HW  HW  OW  HW  HW  OW  HW  HW  OW  HW  HW  OW  HW  HW  
OW  HW  HW  OW  HW  HW  OW  HW  HW  OW  HW  HW  OW  HW  HW  OW  HW  HW  OW  HW  
HW  OW  HW  HW  OW  HW  HW  OW  HW  HW  OW  HW  HW  OW  HW  HW  OW  HW  HW  OW  
HW  HW  OW  HW  HW  OW  HW  HW  OW  HW  HW  OW  HW  HW  OW  HW  HW  OW  HW  HW  
OW  HW  HW  OW  HW  HW  OW  HW  HW  OW  HW  HW  OW  HW  HW  OW  HW  HW  OW  HW  
HW  OW  HW  HW  OW  HW  HW  OW  HW  HW  OW  HW  HW  OW  HW  HW  OW  HW  HW  OW  
HW  HW  OW  HW  HW  OW  HW  HW  OW  HW  HW  OW  HW  HW  OW  HW  HW  OW  HW  HW  
OW  HW  HW  OW  HW  HW  OW  HW  HW  OW  HW  HW  OW  HW  HW  OW  HW  HW  OW  HW  
HW  OW  HW  HW  OW  HW  HW  OW  HW  HW  OW  HW  HW  OW  HW  HW  OW  HW  HW  OW  
HW  HW  OW  HW  HW  OW  HW  HW  OW  HW  HW  OW  HW  HW  OW  HW  HW  OW  HW  HW  
OW  HW  HW  OW  HW  HW  OW  HW  HW  OW  HW  HW  OW  HW  HW  OW  HW  HW  OW  HW  
HW  OW  HW  HW  OW  HW  HW  OW  HW  HW  OW  HW  HW  OW  HW  HW  OW  HW  HW  OW  
HW  HW  OW  HW  HW  OW  HW  HW  OW  HW  HW  OW  HW  HW  OW  HW  HW  OW  HW  HW  
OW  HW  HW  OW  HW  HW  OW  HW  HW  OW  HW  HW  OW  HW  HW  OW  HW  HW  OW  HW  
HW  OW  HW  HW  OW  HW  HW  OW  HW  HW  OW  HW  HW  OW  HW  HW  OW  HW  HW  OW  
HW  HW  OW  HW  HW  OW  HW  HW  OW  HW  HW  OW  HW  HW  OW  HW  HW  OW  HW  HW  
OW  HW  HW  OW  HW  HW  OW  HW  HW  OW  HW  HW  OW  HW  HW  OW  HW  HW  OW  HW  
HW  OW  HW  HW  OW  HW  HW  OW  HW  HW  OW  HW  HW  OW  HW  HW  OW  HW  HW  OW  
HW  HW  OW  HW  HW  OW  HW  HW  OW  HW  HW  OW  HW  HW  OW  HW  HW  OW  HW  HW  
OW  HW  HW  OW  HW  HW  OW  HW  HW  OW  HW  HW  OW  HW  HW  OW  HW  HW  OW  HW  
HW  OW  HW  HW  OW  HW  HW  OW  HW  HW  OW  HW  HW  OW  HW  HW  OW  HW  HW  OW  
HW  HW  OW  HW  HW  OW  HW  HW  OW  HW  HW  OW  HW  HW  OW  HW  HW  OW  HW  HW  
OW  HW  HW  OW  HW  HW  OW  HW  HW  OW  HW  HW  OW  HW  HW  OW  HW  HW  OW  HW  
HW  OW  HW  HW  OW  HW  HW  OW  HW  HW  OW  HW  HW  OW  HW  HW  OW  HW  HW  OW  
HW  HW  OW  HW  HW  OW  HW  HW  OW  HW  HW  OW  HW  HW  OW  HW  HW  OW  HW  HW  
OW  HW  HW  OW  HW  HW  OW  HW  HW  OW  HW  HW  OW  HW  HW  OW  HW  HW  OW  HW  
HW  OW  HW  HW  OW  HW  HW  OW  HW  HW  OW  HW  HW  OW  HW  HW  OW  HW  HW  OW  
HW  HW  OW  HW  HW  OW  HW  HW  OW  HW  HW  OW  HW  HW  OW  HW  HW  OW  HW  HW  
OW  HW  HW  OW  HW  HW  OW  HW  HW  OW  HW  HW  OW  HW  HW  OW  HW  HW  OW  HW  
HW  OW  HW  HW  OW  HW  HW  OW  HW  HW  OW  HW  HW  OW  HW  HW  OW  HW  HW  OW  
HW  HW  OW  HW  HW  OW  HW  HW  OW  HW  HW  OW  HW  HW  OW  HW  HW  OW  HW  HW  
OW  HW  HW  OW  HW  HW  OW  HW  HW  OW  HW  HW  OW  HW  HW  OW  HW  HW  OW  HW  
HW  OW  HW  HW  OW  HW  HW  OW  HW  HW  OW  HW  HW  OW  HW  HW  OW  HW  HW  OW  
HW  HW  OW  HW  HW  OW  HW  HW  OW  HW  HW  OW  HW  HW  OW  HW  HW  OW  HW  HW  
OW  HW  HW  OW  HW  HW  OW  HW  HW  OW  HW  HW  OW  HW  HW  OW  HW  HW  OW  HW  
HW  OW  HW  HW  OW  HW  HW  OW  HW  HW  OW  HW  HW  OW  HW  HW  OW  HW  HW  OW  
HW  HW  OW  HW  HW  OW  HW  HW  OW  HW  HW  OW  HW  HW  OW  HW  HW  OW  HW  HW  
OW  HW  HW  OW  HW  HW  OW  HW  HW  OW  HW  HW  OW  HW  HW  OW  HW  HW  OW  HW  
HW  OW  HW  HW  OW  HW  HW  OW  HW  HW  OW  HW  HW  OW  HW  HW  OW  HW  HW  OW  
HW  HW  OW  HW  HW  OW  HW  HW  OW  HW  HW  OW  HW  HW  OW  HW  HW  OW  HW  HW  
OW  HW  HW  OW  HW  HW  OW  HW  HW  OW  HW  HW  OW  HW  HW  OW  HW  HW  OW  HW  
HW  OW  HW  HW  OW  HW  HW  OW  HW  HW  OW  HW  HW  OW  HW  HW  OW  HW  HW  OW  
HW  HW  OW  HW  HW  OW  HW  HW  OW  HW  HW  OW  HW  HW  OW  HW  HW  OW  HW  HW  
OW  HW  HW  OW  HW  HW  OW  HW  HW  OW  HW  HW  OW  HW  HW  OW  HW  HW  OW  HW  
HW  OW  HW  HW  OW  HW  HW  OW  HW  HW  OW  HW  HW  OW  HW  HW  OW  HW  HW  OW  
HW  HW  OW  HW  HW  OW  HW  HW  OW  HW  HW  OW  HW  HW  OW  HW  HW  OW  HW  HW  
OW  HW  HW  OW  HW  HW  OW  HW  HW  OW  HW  HW  OW  HW  HW  OW  HW  HW  OW  HW  
HW  OW  HW  HW  OW  HW  HW  OW  HW  HW  OW  HW  HW  OW  HW  HW  OW  HW  HW  OW  
HW  HW  OW  HW  HW  OW  HW  HW  OW  HW  HW  OW  HW  HW  OW  HW  HW  OW  HW  HW  
OW  HW  HW  OW  HW  HW  OW  HW  HW  OW  HW  HW  OW  HW  HW  OW  HW  HW  OW  HW  
HW  OW  HW  HW  OW  HW  HW  OW  HW  HW  OW  HW  HW  OW  HW  HW  OW  HW  HW  OW  
HW  HW  OW  HW  HW  OW  HW  HW  OW  HW  HW  OW  HW  HW  OW  HW  HW  OW  HW  HW  
OW  HW  HW  OW  HW  HW  OW  HW  HW  OW  HW  HW  OW  HW  HW  OW  HW  HW  OW  HW  
HW  OW  HW  HW  OW  HW  HW  OW  HW  HW  OW  HW  HW  OW  HW  HW  OW  HW  HW  OW  
HW  HW  OW  HW  HW  OW  HW  HW  OW  HW  HW  OW  HW  HW  OW  HW  HW  OW  HW  HW  
OW  HW  HW  OW  HW  HW  OW  HW  HW  OW  HW  HW  OW  HW  HW  OW  HW  HW  OW  HW  
HW  OW  HW  HW  OW  HW  HW  OW  HW  HW  OW  HW  HW  OW  HW  HW  OW  HW  HW  OW  
HW  HW  OW  HW  HW  OW  HW  HW  OW  HW  HW  OW  HW  HW  OW  HW  HW  OW  HW  HW  
OW  HW  HW  OW  HW  HW  OW  HW  HW  OW  HW  HW  OW  HW  HW  OW  HW  HW  OW  HW  
HW  OW  HW  HW  OW  HW  HW  OW  HW  HW  OW  HW  HW  OW  HW  HW  OW  HW  HW  OW  
HW  HW  OW  HW  HW  OW  HW  HW  OW  HW  HW  OW  HW  HW  OW  HW  HW  OW  HW  HW  
OW  HW  HW  OW  HW  HW  OW  HW  HW  OW  HW  HW  OW  HW  HW  OW  HW  HW  OW  HW  
HW  OW  HW  HW  OW  HW  HW  OW  HW  HW  OW  HW  HW  OW  HW  HW  OW  HW  HW  OW  
HW  HW  OW  HW  HW  OW  HW  HW  OW  HW  HW  OW  HW  HW  OW  HW  HW  OW  HW  HW  
OW  HW  HW  OW  HW  HW  OW  HW  HW  OW  HW  HW  OW  HW  HW  OW  HW  HW  OW  HW  
HW  OW  HW  HW  OW  HW  HW  OW  HW  HW  OW  HW  HW  OW  HW  HW  OW  HW  HW  OW  
HW  HW  OW  HW  HW  OW  HW  HW  OW  HW  HW  OW  HW  HW  OW  HW  HW  OW  HW  HW  
OW  HW  HW  OW  HW  HW  OW  HW  HW  OW  HW  HW  OW  HW  HW  OW  HW  HW  OW  HW  
HW  OW  HW  HW  OW  HW  HW  OW  HW  HW  OW  HW  HW  OW  HW  HW  OW  HW  HW  OW  
HW  HW  OW  HW  HW  OW  HW  HW  OW  HW  HW  OW  HW  HW  OW  HW  HW  OW  HW  HW  
OW  HW  HW  OW  HW  HW  OW  HW  HW  OW  HW  HW  OW  HW  HW  OW  HW  HW  OW  HW  
HW  OW  HW  HW  OW  HW  HW  OW  HW  HW  OW  HW  HW  OW  HW  HW  OW  HW  HW  OW  
HW  HW  OW  HW  HW  OW  HW  HW  OW  HW  HW  OW  HW  HW  OW  HW  HW  OW  HW  HW  
OW  HW  HW  OW  HW  HW  OW  HW  HW  OW  HW  HW  OW  HW  HW  OW  HW  HW  OW  HW  
HW  OW  HW  HW  OW  HW  HW  OW  HW  HW  OW  HW  HW  OW  HW  HW  OW  HW  HW  OW  
HW  HW  OW  HW  HW  OW  HW  HW  OW  HW  HW  OW  HW  HW  OW  HW  HW  OW  HW  HW  
OW  HW  HW  OW  HW  HW  OW  HW  HW  OW  HW  HW  OW  HW  HW  OW  HW  HW  OW  HW  
HW  OW  HW  HW  OW  HW  HW  OW  HW  HW  OW  HW  HW  OW  HW  HW  OW  HW  HW  OW  
HW  HW  OW  HW  HW  OW  HW  HW  OW  HW  HW  OW  HW  HW  OW  HW  HW  OW  HW  HW  
OW  HW  HW  OW  HW  HW  OW  HW  HW  OW  HW  HW  OW  HW  HW  OW  HW  HW  OW  HW  
HW  OW  HW  HW  OW  HW  HW  OW  HW  HW  OW  HW  HW  OW  HW  HW  OW  HW  HW  OW  
HW  HW  OW  HW  HW  OW  HW  HW  OW  HW  HW  OW  HW  HW  OW  HW  HW  OW  HW  HW  
OW  HW  HW  OW  HW  HW  OW  HW  HW  OW  HW  HW  OW  HW  HW  OW  HW  HW  OW  HW  
HW  OW  HW  HW  OW  HW  HW  OW  HW  HW  OW  HW  HW  OW  HW  HW  OW  HW  HW  OW  
HW  HW  OW  HW  HW  OW  HW  HW  OW  HW  HW  OW  HW  HW  OW  HW  HW  OW  HW  HW  
OW  HW  HW  OW  HW  HW  OW  HW  HW  OW  HW  HW  OW  HW  HW  OW  HW  HW  OW  HW  
HW  OW  HW  HW  OW  HW  HW  OW  HW  HW  OW  HW  HW  OW  HW  HW  OW  HW  HW  OW  
HW  HW  OW  HW  HW  OW  HW  HW  OW  HW  HW  OW  HW  HW  OW  HW  HW  OW  HW  HW  
OW  HW  HW  OW  HW  HW  OW  HW  HW  OW  HW  HW  OW  HW  HW  OW  HW  HW  OW  HW  
HW  OW  HW  HW  OW  HW  HW  OW  HW  HW  OW  HW  HW  OW  HW  HW  OW  HW  HW  OW  
HW  HW  OW  HW  HW  OW  HW  HW  OW  HW  HW  OW  HW  HW  OW  HW  HW  OW  HW  HW  
OW  HW  HW  OW  HW  HW  OW  HW  HW  OW  HW  HW  OW  HW  HW  OW  HW  HW  OW  HW  
HW  OW  HW  HW  OW  HW  HW  OW  HW  HW  OW  HW  HW  OW  HW  HW  OW  HW  HW  OW  
HW  HW  OW  HW  HW  OW  HW  HW  OW  HW  HW  OW  HW  HW  OW  HW  HW  OW  HW  HW  
OW  HW  HW  OW  HW  HW  OW  HW  HW  OW  HW  HW  OW  HW  HW  OW  HW  HW  OW  HW  
HW  OW  HW  HW  OW  HW  HW  OW  HW  HW  OW  HW  HW  OW  HW  HW  OW  HW  HW  OW  
HW  HW  OW  HW  HW  OW  HW  HW  OW  HW  HW  OW  HW  HW  OW  HW  HW  OW  HW  HW  
OW  HW  HW  OW  HW  HW  OW  HW  HW  OW  HW  HW  OW  HW  HW  OW  HW  HW  OW  HW  
HW  OW  HW  HW  OW  HW  HW  OW  HW  HW  OW  HW  HW  OW  HW  HW  OW  HW  HW  OW  
HW  HW  OW  HW  HW  OW  HW  HW  OW  HW  HW  OW  HW  HW  OW  HW  HW  OW  HW  HW  
OW  HW  HW  OW  HW  HW  OW  HW  HW  OW  HW  HW  OW  HW  HW  OW  HW  HW  OW  HW  
HW  OW  HW  HW  OW  HW  HW  OW  HW  HW  OW  HW  HW  OW  HW  HW  OW  HW  HW  OW  
HW  HW  OW  HW  HW  OW  HW  HW  OW  HW  HW  OW  HW  HW  OW  HW  HW  OW  HW  HW  
OW  HW  HW  OW  HW  HW  OW  HW  HW  OW  HW  HW  OW  HW  HW  OW  HW  HW  OW  HW  
HW  OW  HW  HW  OW  HW  HW  OW  HW  HW  OW  HW  HW  OW  HW  HW  OW  HW  HW  OW  
HW  HW  OW  HW  HW  OW  HW  HW  OW  HW  HW  OW  HW  HW  OW  HW  HW  OW  HW  HW  
OW  HW  HW  OW  HW  HW  OW  HW  HW  OW  HW  HW  OW  HW  HW  OW  HW  HW  OW  HW  
HW  OW  HW  HW  OW  HW  HW  OW  HW  HW  OW  HW  HW  OW  HW  HW  OW  HW  HW  OW  
HW  HW  OW  HW  HW  OW  HW  HW  OW  HW  HW  OW  HW  HW  OW  HW  HW  OW  HW  HW  
OW  HW  HW  OW  HW  HW  OW  HW  HW  OW  HW  HW  OW  HW  HW  OW  HW  HW  OW  HW  
HW  OW  HW  HW  OW  HW  HW  OW  HW  HW  OW  HW  HW  OW  HW  HW  OW  HW  HW  OW  
HW  HW  OW  HW  HW  OW  HW  HW  OW  HW  HW  OW  HW  HW  OW  HW  HW  OW  HW  HW  
OW  HW  HW  OW  HW  HW  OW  HW  HW  OW  HW  HW  OW  HW  HW  OW  HW  HW  OW  HW  
HW  OW  HW  HW  OW  HW  HW  OW  HW  HW  OW  HW  HW  OW  HW  HW  OW  HW  HW  OW  
HW  HW  OW  HW  HW  OW  HW  HW  OW  HW  HW  OW  HW  HW  OW  HW  HW  OW  HW  HW  
OW  HW  HW  OW  HW  HW  OW  HW  HW  OW  HW  HW  OW  HW  HW  OW  HW  HW  OW  HW  
HW  OW  HW  HW  OW  HW  HW  OW  HW  HW  OW  HW  HW  OW  HW  HW  OW  HW  HW  OW  
HW  HW  OW  HW  HW  OW  HW  HW  OW  HW  HW  OW  HW  HW  OW  HW  HW  OW  HW  HW  
OW  HW  HW  OW  HW  HW  OW  HW  HW  OW  HW  HW  OW  HW  HW  OW  HW  HW  OW  HW  
HW  OW  HW  HW  OW  HW  HW  OW  HW  HW  OW  HW  HW  OW  HW  HW  OW  HW  HW  OW  
HW  HW  OW  HW  HW  OW  HW  HW  OW  HW  HW  OW  HW  HW  OW  HW  HW  OW  HW  HW  
OW  HW  HW  OW  HW  HW  OW  HW  HW  OW  HW  HW  OW  HW  HW  OW  HW  HW  OW  HW  
HW  OW  HW  HW  OW  HW  HW  OW  HW  HW  OW  HW  HW  OW  HW  HW  OW  HW  HW  OW  
HW  HW  OW  HW  HW  OW  HW  HW  OW  HW  HW  OW  HW  HW  OW  HW  HW  OW  HW  HW  
OW  HW  HW  OW  HW  HW  OW  HW  HW  OW  HW  HW  OW  HW  HW  OW  HW  HW  OW  HW  
HW  OW  HW  HW  OW  HW  HW  OW  HW  HW  OW  HW  HW  OW  HW  HW  OW  HW  HW  OW  
HW  HW  OW  HW  HW  OW  HW  HW  OW  HW  HW  OW  HW  HW  OW  HW  HW  OW  HW  HW  
OW  HW  HW  OW  HW  HW  OW  HW  HW  OW  HW  HW  OW  HW  HW  OW  HW  HW  OW  HW  
HW  OW  HW  HW  OW  HW  HW  OW  HW  HW  OW  HW  HW  OW  HW  HW  OW  HW  HW  OW  
HW  HW  OW  HW  HW  OW  HW  HW  OW  HW  HW  OW  HW  HW  OW  HW  HW  OW  HW  HW  
OW  HW  HW  OW  HW  HW  OW  HW  HW  OW  HW  HW  OW  HW  HW  OW  HW  HW  OW  HW  
HW  OW  HW  HW  OW  HW  HW  OW  HW  HW  OW  HW  HW  OW  HW  HW  OW  HW  HW  OW  
HW  HW  OW  HW  HW  OW  HW  HW  OW  HW  HW  OW  HW  HW  OW  HW  HW  OW  HW  HW  
OW  HW  HW  OW  HW  HW  OW  HW  HW  OW  HW  HW  OW  HW  HW  OW  HW  HW  OW  HW  
HW  OW  HW  HW  OW  HW  HW  OW  HW  HW  OW  HW  HW  OW  HW  HW  OW  HW  HW  OW  
HW  HW  OW  HW  HW  OW  HW  HW  OW  HW  HW  OW  HW  HW  OW  HW  HW  OW  HW  HW  
OW  HW  HW  OW  HW  HW  OW  HW  HW  OW  HW  HW  OW  HW  HW  OW  HW  HW  OW  HW  
HW  OW  HW  HW  OW  HW  HW  OW  HW  HW  OW  HW  HW  OW  HW  HW  OW  HW  HW  OW  
HW  HW  OW  HW  HW  OW  HW  HW  OW  HW  HW  OW  HW  HW  OW  HW  HW  OW  HW  HW  
OW  HW  HW  OW  HW  HW  OW  HW  HW  OW  HW  HW  OW  HW  HW  OW  HW  HW  OW  HW  
HW  OW  HW  HW  OW  HW  HW  OW  HW  HW  OW  HW  HW  OW  HW  HW  OW  HW  HW  OW  
HW  HW  OW  HW  HW  OW  HW  HW  OW  HW  HW  OW  HW  HW  OW  HW  HW  OW  HW  HW  
OW  HW  HW  OW  HW  HW  OW  HW  HW  OW  HW  HW  OW  HW  HW  OW  HW  HW  OW  HW  
HW  OW  HW  HW  OW  HW  HW  OW  HW  HW  OW  HW  HW  OW  HW  HW  OW  HW  HW  OW  
HW  HW  OW  HW  HW  OW  HW  HW  OW  HW  HW  OW  HW  HW  OW  HW  HW  OW  HW  HW  
OW  HW  HW  OW  HW  HW  OW  HW  HW  OW  HW  HW  OW  HW  HW  OW  HW  HW  OW  HW  
HW  OW  HW  HW  OW  HW  HW  OW  HW  HW  OW  HW  HW  OW  HW  HW  OW  HW  HW  OW  
HW  HW  OW  HW  HW  OW  HW  HW  OW  HW  HW  OW  HW  HW  OW  HW  HW  OW  HW  HW  
OW  HW  HW  OW  HW  HW  OW  HW  HW  OW  HW  HW  OW  HW  HW  OW  HW  HW  OW  HW  
HW  OW  HW  HW  OW  HW  HW  OW  HW  HW  OW  HW  HW  OW  HW  HW  OW  HW  HW  OW  
HW  HW  OW  HW  HW  OW  HW  HW  OW  HW  HW  OW  HW  HW  OW  HW  HW  OW  HW  HW  
OW  HW  HW  OW  HW  HW  OW  HW  HW  OW  HW  HW  OW  HW  HW  OW  HW  HW  OW  HW  
HW  OW  HW  HW  OW  HW  HW  OW  HW  HW  OW  HW  HW  OW  HW  HW  OW  HW  HW  OW  
HW  HW  OW  HW  HW  OW  HW  HW  OW  HW  HW  OW  HW  HW  OW  HW  HW  OW  HW  HW  
OW  HW  HW  OW  HW  HW  OW  HW  HW  OW  HW  HW  OW  HW  HW  OW  HW  HW  OW  HW  
HW  OW  HW  HW  OW  HW  HW  OW  HW  HW  OW  HW  HW  OW  HW  HW  OW  HW  HW  OW  
HW  HW  OW  HW  HW  OW  HW  HW  OW  HW  HW  OW  HW  HW  OW  HW  HW  OW  HW  HW  
OW  HW  HW  OW  HW  HW  OW  HW  HW  OW  HW  HW  OW  HW  HW  OW  HW  HW  OW  HW  
HW  OW  HW  HW  OW  HW  HW  OW  HW  HW  OW  HW  HW  OW  HW  HW  OW  HW  HW  OW  
HW  HW  OW  HW  HW  OW  HW  HW  OW  HW  HW  OW  HW  HW  OW  HW  HW  OW  HW  HW  
OW  HW  HW  OW  HW  HW  OW  HW  HW  OW  HW  HW  OW  HW  HW  OW  HW  HW  OW  HW  
HW  OW  HW  HW  OW  HW  HW  OW  HW  HW  OW  HW  HW  OW  HW  HW  OW  HW  HW  OW  
HW  HW  OW  HW  HW  OW  HW  HW  OW  HW  HW  OW  HW  HW  OW  HW  HW  OW  HW  HW  
OW  HW  HW  OW  HW  HW  OW  HW  HW  OW  HW  HW  OW  HW  HW  OW  HW  HW  OW  HW  
HW  OW  HW  HW  OW  HW  HW  OW  HW  HW  OW  HW  HW  OW  HW  HW  OW  HW  HW  OW  
HW  HW  OW  HW  HW  OW  HW  HW  OW  HW  HW  OW  HW  HW  OW  HW  HW  OW  HW  HW  
OW  HW  HW  OW  HW  HW  OW  HW  HW  OW  HW  HW  OW  HW  HW  OW  HW  HW  OW  HW  
HW  OW  HW  HW  OW  HW  HW  OW  HW  HW  OW  HW  HW  OW  HW  HW  OW  HW  HW  OW  
HW  HW  OW  HW  HW  OW  HW  HW  OW  HW  HW  OW  HW  HW  OW  HW  HW  OW  HW  HW  
OW  HW  HW  OW  HW  HW  OW  HW  HW  OW  HW  HW  OW  HW  HW  OW  HW  HW  OW  HW  
HW  OW  HW  HW  OW  HW  HW  OW  HW  HW  OW  HW  HW  OW  HW  HW  OW  HW  HW  OW  
HW  HW  OW  HW  HW  OW  HW  HW  OW  HW  HW  OW  HW  HW  OW  HW  HW  OW  HW  HW  
OW  HW  HW  OW  HW  HW  OW  HW  HW  OW  HW  HW  OW  HW  HW  OW  HW  HW  OW  HW  
HW  OW  HW  HW  OW  HW  HW  OW  HW  HW  OW  HW  HW  OW  HW  HW  OW  HW  HW  OW  
HW  HW  OW  HW  HW  OW  HW  HW  OW  HW  HW  OW  HW  HW  OW  HW  HW  OW  HW  HW  
OW  HW  HW  OW  HW  HW  OW  HW  HW  OW  HW  HW  OW  HW  HW  OW  HW  HW  OW  HW  
HW  OW  HW  HW  OW  HW  HW  OW  HW  HW  OW  HW  HW  OW  HW  HW  OW  HW  HW  OW  
HW  HW  OW  HW  HW  OW  HW  HW  OW  HW  HW  OW  HW  HW  OW  HW  HW  OW  HW  HW  
OW  HW  HW  OW  HW  HW  OW  HW  HW  OW  HW  HW  OW  HW  HW  OW  HW  HW  OW  HW  
HW  OW  HW  HW  OW  HW  HW  OW  HW  HW  OW  HW  HW  OW  HW  HW  OW  HW  HW  OW  
HW  HW  OW  HW  HW  OW  HW  HW  OW  HW  HW  OW  HW  HW  OW  HW  HW  OW  HW  HW  
OW  HW  HW  OW  HW  HW  OW  HW  HW  OW  HW  HW  OW  HW  HW  OW  HW  HW  OW  HW  
HW  OW  HW  HW  OW  HW  HW  OW  HW  HW  OW  HW  HW  OW  HW  HW  OW  HW  HW  OW  
HW  HW  OW  HW  HW  OW  HW  HW  OW  HW  HW  OW  HW  HW  OW  HW  HW  OW  HW  HW  
OW  HW  HW  OW  HW  HW  OW  HW  HW  OW  HW  HW  OW  HW  HW  OW  HW  HW  OW  HW  
HW  OW  HW  HW  OW  HW  HW  OW  HW  HW  OW  HW  HW  OW  HW  HW  OW  HW  HW  OW  
HW  HW  OW  HW  HW  OW  HW  HW  OW  HW  HW  OW  HW  HW  OW  HW  HW  OW  HW  HW  
OW  HW  HW  OW  HW  HW  OW  HW  HW  OW  HW  HW  OW  HW  HW  OW  HW  HW  OW  HW  
HW  OW  HW  HW  OW  HW  HW  OW  HW  HW  OW  HW  HW  OW  HW  HW  OW  HW  HW  OW  
HW  HW  OW  HW  HW  OW  HW  HW  OW  HW  HW  OW  HW  HW  OW  HW  HW  OW  HW  HW  
OW  HW  HW  OW  HW  HW  OW  HW  HW  OW  HW  HW  OW  HW  HW  OW  HW  HW  OW  HW  
HW  OW  HW  HW  OW  HW  HW  OW  HW  HW  OW  HW  HW  OW  HW  HW  OW  HW  HW  OW  
HW  HW  OW  HW  HW  OW  HW  HW  OW  HW  HW  OW  HW  HW  OW  HW  HW  OW  HW  HW  
OW  HW  HW  OW  HW  HW  OW  HW  HW  OW  HW  HW  OW  HW  HW  OW  HW  HW  OW  HW  
HW  OW  HW  HW  OW  HW  HW  OW  HW  HW  OW  HW  HW  OW  HW  HW  OW  HW  HW  OW  
HW  HW  OW  HW  HW  OW  HW  HW  OW  HW  HW  OW  HW  HW  OW  HW  HW  OW  HW  HW  
OW  HW  HW  OW  HW  HW  OW  HW  HW  OW  HW  HW  OW  HW  HW  OW  HW  HW  OW  HW  
HW  OW  HW  HW  OW  HW  HW  OW  HW  HW  OW  HW  HW  OW  HW  HW  OW  HW  HW  OW  
HW  HW  OW  HW  HW  OW  HW  HW  OW  HW  HW  OW  HW  HW  OW  HW  HW  OW  HW  HW  
OW  HW  HW  OW  HW  HW  OW  HW  HW  OW  HW  HW  OW  HW  HW  OW  HW  HW  OW  HW  
HW  OW  HW  HW  OW  HW  HW  OW  HW  HW  OW  HW  HW  OW  HW  HW  OW  HW  HW  OW  
HW  HW  OW  HW  HW  OW  HW  HW  OW  HW  HW  OW  HW  HW  OW  HW  HW  OW  HW  HW  
OW  HW  HW  OW  HW  HW  OW  HW  HW  OW  HW  HW  OW  HW  HW  OW  HW  HW  OW  HW  
HW  OW  HW  HW  OW  HW  HW  OW  HW  HW  OW  HW  HW  OW  HW  HW  OW  HW  HW  OW  
HW  HW  OW  HW  HW  OW  HW  HW  OW  HW  HW  OW  HW  HW  OW  HW  HW  OW  HW  HW  
OW  HW  HW  OW  HW  HW  OW  HW  HW  OW  HW  HW  OW  HW  HW  OW  HW  HW  OW  HW  
HW  OW  HW  HW  OW  HW  HW  OW  HW  HW  OW  HW  HW  OW  HW  HW  OW  HW  HW  OW  
HW  HW  OW  HW  HW  OW  HW  HW  OW  HW  HW  OW  HW  HW  OW  HW  HW  OW  HW  HW  
OW  HW  HW  OW  HW  HW  OW  HW  HW  OW  HW  HW  OW  HW  HW  OW  HW  HW  OW  HW  
HW  OW  HW  HW  OW  HW  HW  OW  HW  HW  OW  HW  HW  OW  HW  HW  OW  HW  HW  OW  
HW  HW  OW  HW  HW  OW  HW  HW  OW  HW  HW  OW  HW  HW  OW  HW  HW  OW  HW  HW  
OW  HW  HW  OW  HW  HW  OW  HW  HW  OW  HW  HW  OW  HW  HW  OW  HW  HW  OW  HW  
HW  OW  HW  HW  OW  HW  HW  OW  HW  HW  OW  HW  HW  OW  HW  HW  OW  HW  HW  OW  
HW  HW  OW  HW  HW  OW  HW  HW  OW  HW  HW  OW  HW  HW  OW  HW  HW  OW  HW  HW  
OW  HW  HW  OW  HW  HW  OW  HW  HW  OW  HW  HW  OW  HW  HW  OW  HW  HW  OW  HW  
HW  OW  HW  HW  OW  HW  HW  OW  HW  HW  OW  HW  HW  OW  HW  HW  OW  HW  HW  OW  
HW  HW  OW  HW  HW  OW  HW  HW  OW  HW  HW  OW  HW  HW  OW  HW  HW  OW  HW  HW  
OW  HW  HW  OW  HW  HW  OW  HW  HW  OW  HW  HW  OW  HW  HW  OW  HW  HW  OW  HW  
HW  OW  HW  HW  OW  HW  HW  OW  HW  HW  OW  HW  HW  OW  HW  HW  OW  HW  HW  OW  
HW  HW  OW  HW  HW  OW  HW  HW  OW  HW  HW  OW  HW  HW  OW  HW  HW  OW  HW  HW  
OW  HW  HW  OW  HW  HW  OW  HW  HW  OW  HW  HW  OW  HW  HW  OW  HW  HW  OW  HW  
HW  OW  HW  HW  OW  HW  HW  OW  HW  HW  OW  HW  HW  OW  HW  HW  OW  HW  HW  OW  
HW  HW  OW  HW  HW  OW  HW  HW  OW  HW  HW  OW  HW  HW  OW  HW  HW  OW  HW  HW  
OW  HW  HW  OW  HW  HW  OW  HW  HW  OW  HW  HW  OW  HW  HW  OW  HW  HW  OW  HW  
HW  OW  HW  HW  OW  HW  HW  OW  HW  HW  OW  HW  HW  OW  HW  HW  OW  HW  HW  OW  
HW  HW  OW  HW  HW  OW  HW  HW  OW  HW  HW  OW  HW  HW  OW  HW  HW  OW  HW  HW  
OW  HW  HW  OW  HW  HW  OW  HW  HW  OW  HW  HW  OW  HW  HW  OW  HW  HW  OW  HW  
HW  OW  HW  HW  OW  HW  HW  OW  HW  HW  OW  HW  HW  OW  HW  HW  OW  HW  HW  OW  
HW  HW  OW  HW  HW  OW  HW  HW  OW  HW  HW  OW  HW  HW  OW  HW  HW  OW  HW  HW  
OW  HW  HW  OW  HW  HW  OW  HW  HW  OW  HW  HW  OW  HW  HW  OW  HW  HW  OW  HW  
HW  OW  HW  HW  OW  HW  HW  OW  HW  HW  OW  HW  HW  OW  HW  HW  OW  HW  HW  OW  
HW  HW  OW  HW  HW  OW  HW  HW  OW  HW  HW  OW  HW  HW  OW  HW  HW  OW  HW  HW  
OW  HW  HW  OW  HW  HW  OW  HW  HW  OW  HW  HW  OW  HW  HW  OW  HW  HW  OW  HW  
HW  OW  HW  HW  OW  HW  HW  OW  HW  HW  OW  HW  HW  OW  HW  HW  OW  HW  HW  OW  
HW  HW  OW  HW  HW  OW  HW  HW  OW  HW  HW  OW  HW  HW  OW  HW  HW  OW  HW  HW  
OW  HW  HW  OW  HW  HW  OW  HW  HW  OW  HW  HW  OW  HW  HW  OW  HW  HW  OW  HW  
HW  OW  HW  HW  OW  HW  HW  OW  HW  HW  OW  HW  HW  OW  HW  HW  OW  HW  HW  OW  
HW  HW  OW  HW  HW  OW  HW  HW  OW  HW  HW  OW  HW  HW  OW  HW  HW  OW  HW  HW  
OW  HW  HW  OW  HW  HW  OW  HW  HW  OW  HW  HW  OW  HW  HW  OW  HW  HW  OW  HW  
HW  OW  HW  HW  OW  HW  HW  OW  HW  HW  OW  HW  HW  OW  HW  HW  OW  HW  HW  OW  
HW  HW  OW  HW  HW  OW  HW  HW  OW  HW  HW  OW  HW  HW  OW  HW  HW  OW  HW  HW  
OW  HW  HW  OW  HW  HW  OW  HW  HW  OW  HW  HW  OW  HW  HW  OW  HW  HW  OW  HW  
HW  OW  HW  HW  OW  HW  HW  OW  HW  HW  OW  HW  HW  OW  HW  HW  OW  HW  HW  OW  
HW  HW  OW  HW  HW  OW  HW  HW  OW  HW  HW  OW  HW  HW  OW  HW  HW  OW  HW  HW  
OW  HW  HW  OW  HW  HW  OW  HW  HW  OW  HW  HW  OW  HW  HW  OW  HW  HW  OW  HW  
HW  OW  HW  HW  OW  HW  HW  OW  HW  HW  OW  HW  HW  OW  HW  HW  OW  HW  HW  OW  
HW  HW  OW  HW  HW  OW  HW  HW  OW  HW  HW  OW  HW  HW  OW  HW  HW  OW  HW  HW  
OW  HW  HW  OW  HW  HW  OW  HW  HW  OW  HW  HW  OW  HW  HW  OW  HW  HW  OW  HW  
HW  OW  HW  HW  OW  HW  HW  OW  HW  HW  OW  HW  HW  OW  HW  HW  OW  HW  HW  OW  
HW  HW  OW  HW  HW  OW  HW  HW  OW  HW  HW  OW  HW  HW  OW  HW  HW  OW  HW  HW  
OW  HW  HW  OW  HW  HW  OW  HW  HW  OW  HW  HW  OW  HW  HW  OW  HW  HW  OW  HW  
HW  OW  HW  HW  OW  HW  HW  OW  HW  HW  OW  HW  HW  OW  HW  HW  OW  HW  HW  OW  
HW  HW  OW  HW  HW  OW  HW  HW  OW  HW  HW  OW  HW  HW  OW  HW  HW  OW  HW  HW  
OW  HW  HW  OW  HW  HW  OW  HW  HW  OW  HW  HW  OW  HW  HW  OW  HW  HW  OW  HW  
HW  OW  HW  HW  OW  HW  HW  OW  HW  HW  OW  HW  HW  OW  HW  HW  OW  HW  HW  OW  
HW  HW  OW  HW  HW  OW  HW  HW  OW  HW  HW  OW  HW  HW  OW  HW  HW  OW  HW  HW  
OW  HW  HW  OW  HW  HW  OW  HW  HW  OW  HW  HW  OW  HW  HW  OW  HW  HW  OW  HW  
HW  OW  HW  HW  OW  HW  HW  OW  HW  HW  OW  HW  HW  OW  HW  HW  OW  HW  HW  OW  
HW  HW  OW  HW  HW  OW  HW  HW  OW  HW  HW  OW  HW  HW  OW  HW  HW  OW  HW  HW  
OW  HW  HW  OW  HW  HW  OW  HW  HW  OW  HW  HW  OW  HW  HW  OW  HW  HW  OW  HW  
HW  OW  HW  HW  OW  HW  HW  OW  HW  HW  OW  HW  HW  OW  HW  HW  OW  HW  HW  OW  
HW  HW  OW  HW  HW  OW  HW  HW  OW  HW  HW  OW  HW  HW  OW  HW  HW  OW  HW  HW  
OW  HW  HW  OW  HW  HW  OW  HW  HW  OW  HW  HW  OW  HW  HW  OW  HW  HW  OW  HW  
HW  OW  HW  HW  OW  HW  HW  OW  HW  HW  OW  HW  HW  OW  HW  HW  OW  HW  HW  OW  
HW  HW  OW  HW  HW  OW  HW  HW  OW  HW  HW  OW  HW  HW  OW  HW  HW  OW  HW  HW  
OW  HW  HW  OW  HW  HW  OW  HW  HW  OW  HW  HW  OW  HW  HW  OW  HW  HW  OW  HW  
HW  OW  HW  HW  OW  HW  HW  OW  HW  HW  OW  HW  HW  OW  HW  HW  OW  HW  HW  OW  
HW  HW  OW  HW  HW  OW  HW  HW  OW  HW  HW  OW  HW  HW  OW  HW  HW  OW  HW  HW  
OW  HW  HW  OW  HW  HW  OW  HW  HW  OW  HW  HW  OW  HW  HW  OW  HW  HW  OW  HW  
HW  OW  HW  HW  OW  HW  HW  OW  HW  HW  OW  HW  HW  OW  HW  HW  OW  HW  HW  OW  
HW  HW  OW  HW  HW  OW  HW  HW  OW  HW  HW  OW  HW  HW  OW  HW  HW  OW  HW  HW  
OW  HW  HW  OW  HW  HW  OW  HW  HW  OW  HW  HW  OW  HW  HW  OW  HW  HW  OW  HW  
HW  OW  HW  HW  OW  HW  HW  OW  HW  HW  OW  HW  HW  OW  HW  HW  OW  HW  HW  OW  
HW  HW  OW  HW  HW  OW  HW  HW  OW  HW  HW  OW  HW  HW  OW  HW  HW  OW  HW  HW  
OW  HW  HW  OW  HW  HW  OW  HW  HW  OW  HW  HW  OW  HW  HW  OW  HW  HW  OW  HW  
HW  OW  HW  HW  OW  HW  HW  OW  HW  HW  OW  HW  HW  OW  HW  HW  OW  HW  HW  OW  
HW  HW  OW  HW  HW  OW  HW  HW  OW  HW  HW  OW  HW  HW  OW  HW  HW  OW  HW  HW  
OW  HW  HW  OW  HW  HW  OW  HW  HW  OW  HW  HW  OW  HW  HW  OW  HW  HW  OW  HW  
HW  OW  HW  HW  OW  HW  HW  OW  HW  HW  OW  HW  HW  OW  HW  HW  OW  HW  HW  OW  
HW  HW  OW  HW  HW  OW  HW  HW  OW  HW  HW  OW  HW  HW  OW  HW  HW  OW  HW  HW  
OW  HW  HW  OW  HW  HW  OW  HW  HW  OW  HW  HW  OW  HW  HW  OW  HW  HW  OW  HW  
HW  OW  HW  HW  OW  HW  HW  OW  HW  HW  OW  HW  HW  OW  HW  HW  OW  HW  HW  OW  
HW  HW  OW  HW  HW  OW  HW  HW  OW  HW  HW  OW  HW  HW  OW  HW  HW  OW  HW  HW  
OW  HW  HW  OW  HW  HW  OW  HW  HW  OW  HW  HW  OW  HW  HW  OW  HW  HW  OW  HW  
HW  OW  HW  HW  OW  HW  HW  OW  HW  HW  OW  HW  HW  OW  HW  HW  OW  HW  HW  OW  
HW  HW  OW  HW  HW  OW  HW  HW  OW  HW  HW  OW  HW  HW  OW  HW  HW  OW  HW  HW  
OW  HW  HW  OW  HW  HW  OW  HW  HW  OW  HW  HW  OW  HW  HW  OW  HW  HW  OW  HW  
HW  OW  HW  HW  OW  HW  HW  OW  HW  HW  OW  HW  HW  OW  HW  HW  OW  HW  HW  OW  
HW  HW  OW  HW  HW  OW  HW  HW  OW  HW  HW  OW  HW  HW  OW  HW  HW  OW  HW  HW  
OW  HW  HW  OW  HW  HW  OW  HW  HW  OW  HW  HW  OW  HW  HW  OW  HW  HW  OW  HW  
HW  OW  HW  HW  OW  HW  HW  OW  HW  HW  OW  HW  HW  OW  HW  HW  OW  HW  HW  OW  
HW  HW  OW  HW  HW  OW  HW  HW  OW  HW  HW  OW  HW  HW  OW  HW  HW  OW  HW  HW  
OW  HW  HW  OW  HW  HW  OW  HW  HW  OW  HW  HW  OW  HW  HW  OW  HW  HW  OW  HW  
HW  OW  HW  HW  OW  HW  HW  OW  HW  HW  OW  HW  HW  OW  HW  HW  OW  HW  HW  OW  
HW  HW  OW  HW  HW  OW  HW  HW  OW  HW  HW  OW  HW  HW  OW  HW  HW  OW  HW  HW  
OW  HW  HW  OW  HW  HW  OW  HW  HW  OW  HW  HW  OW  HW  HW  OW  HW  HW  OW  HW  
HW  OW  HW  HW  OW  HW  HW  OW  HW  HW  OW  HW  HW  OW  HW  HW  OW  HW  HW  OW  
HW  HW  OW  HW  HW  OW  HW  HW  OW  HW  HW  OW  HW  HW  OW  HW  HW  OW  HW  HW  
OW  HW  HW  OW  HW  HW  OW  HW  HW  OW  HW  HW  OW  HW  HW  OW  HW  HW  OW  HW  
HW  OW  HW  HW  OW  HW  HW  OW  HW  HW  OW  HW  HW  OW  HW  HW  OW  HW  HW  OW  
HW  HW  OW  HW  HW  OW  HW  HW  OW  HW  HW  OW  HW  HW  OW  HW  HW  OW  HW  HW  
OW  HW  HW  OW  HW  HW  OW  HW  HW  OW  HW  HW  OW  HW  HW  OW  HW  HW  OW  HW  
HW  OW  HW  HW  OW  HW  HW  OW  HW  HW  OW  HW  HW  OW  HW  HW  OW  HW  HW  OW  
HW  HW  OW  HW  HW  OW  HW  HW  OW  HW  HW  OW  HW  HW  OW  HW  HW  OW  HW  HW  
OW  HW  HW  OW  HW  HW  OW  HW  HW  OW  HW  HW  OW  HW  HW  OW  HW  HW  OW  HW  
HW  OW  HW  HW  OW  HW  HW  OW  HW  HW  OW  HW  HW  OW  HW  HW  OW  HW  HW  OW  
HW  HW  OW  HW  HW  OW  HW  HW  OW  HW  HW  OW  HW  HW  OW  HW  HW  OW  HW  HW  
OW  HW  HW  OW  HW  HW  OW  HW  HW  OW  HW  HW  OW  HW  HW  OW  HW  HW  OW  HW  
HW  OW  HW  HW  OW  HW  HW  OW  HW  HW  OW  HW  HW  OW  HW  HW  OW  HW  HW  OW  
HW  HW  OW  HW  HW  OW  HW  HW  OW  HW  HW  OW  HW  HW  OW  HW  HW  OW  HW  HW  
OW  HW  HW  OW  HW  HW  OW  HW  HW  OW  HW  HW  OW  HW  HW  OW  HW  HW  OW  HW  
HW  OW  HW  HW  OW  HW  HW  OW  HW  HW  OW  HW  HW  OW  HW  HW  OW  HW  HW  OW  
HW  HW  OW  HW  HW  OW  HW  HW  OW  HW  HW  OW  HW  HW  OW  HW  HW  OW  HW  HW  
OW  HW  HW  OW  HW  HW  OW  HW  HW  OW  HW  HW  OW  HW  HW  OW  HW  HW  OW  HW  
HW  OW  HW  HW  OW  HW  HW  OW  HW  HW  OW  HW  HW  OW  HW  HW  OW  HW  HW  OW  
HW  HW  OW  HW  HW  OW  HW  HW  OW  HW  HW  OW  HW  HW  OW  HW  HW  OW  HW  HW  
OW  HW  HW  OW  HW  HW  OW  HW  HW  OW  HW  HW  OW  HW  HW  OW  HW  HW  OW  HW  
HW  OW  HW  HW  OW  HW  HW  OW  HW  HW  OW  HW  HW  OW  HW  HW  OW  HW  HW  OW  
HW  HW  OW  HW  HW  OW  HW  HW  OW  HW  HW  OW  HW  HW  OW  HW  HW  OW  HW  HW  
OW  HW  HW  OW  HW  HW  OW  HW  HW  OW  HW  HW  OW  HW  HW  OW  HW  HW  OW  HW  
HW  OW  HW  HW  OW  HW  HW  OW  HW  HW  OW  HW  HW  OW  HW  HW  OW  HW  HW  OW  
HW  HW  OW  HW  HW  OW  HW  HW  OW  HW  HW  OW  HW  HW  OW  HW  HW  OW  HW  HW  
OW  HW  HW  OW  HW  HW  OW  HW  HW  OW  HW  HW  OW  HW  HW  OW  HW  HW  OW  HW  
HW  OW  HW  HW  OW  HW  HW  OW  HW  HW  OW  HW  HW  OW  HW  HW  OW  HW  HW  OW  
HW  HW  OW  HW  HW  OW  HW  HW  OW  HW  HW  OW  HW  HW  OW  HW  HW  OW  HW  HW  
OW  HW  HW  OW  HW  HW  OW  HW  HW  OW  HW  HW  OW  HW  HW  OW  HW  HW  OW  HW  
HW  OW  HW  HW  OW  HW  HW  OW  HW  HW  OW  HW  HW  OW  HW  HW  OW  HW  HW  OW  
HW  HW  OW  HW  HW  OW  HW  HW  OW  HW  HW  OW  HW  HW  OW  HW  HW  OW  HW  HW  
OW  HW  HW  OW  HW  HW  OW  HW  HW  OW  HW  HW  OW  HW  HW  OW  HW  HW  OW  HW  
HW  OW  HW  HW  OW  HW  HW  OW  HW  HW  OW  HW  HW  OW  HW  HW  OW  HW  HW  OW  
HW  HW  OW  HW  HW  OW  HW  HW  OW  HW  HW  OW  HW  HW  OW  HW  HW  OW  HW  HW  
OW  HW  HW  OW  HW  HW  OW  HW  HW  OW  HW  HW  OW  HW  HW  OW  HW  HW  OW  HW  
HW  OW  HW  HW  OW  HW  HW  OW  HW  HW  OW  HW  HW  OW  HW  HW  OW  HW  HW  OW  
HW  HW  OW  HW  HW  OW  HW  HW  OW  HW  HW  OW  HW  HW  OW  HW  HW  OW  HW  HW  
OW  HW  HW  OW  HW  HW  OW  HW  HW  OW  HW  HW  OW  HW  HW  OW  HW  HW  OW  HW  
HW  OW  HW  HW  OW  HW  HW  OW  HW  HW  OW  HW  HW  OW  HW  HW  OW  HW  HW  OW  
HW  HW  OW  HW  HW  OW  HW  HW  OW  HW  HW  OW  HW  HW  OW  HW  HW  OW  HW  HW  
OW  HW  HW  OW  HW  HW  OW  HW  HW  OW  HW  HW  OW  HW  HW  OW  HW  HW  OW  HW  
HW  OW  HW  HW  OW  HW  HW  OW  HW  HW  OW  HW  HW  OW  HW  HW  OW  HW  HW  OW  
HW  HW  OW  HW  HW  OW  HW  HW  OW  HW  HW  OW  HW  HW  OW  HW  HW  OW  HW  HW  
OW  HW  HW  OW  HW  HW  OW  HW  HW  OW  HW  HW  OW  HW  HW  OW  HW  HW  OW  HW  
HW  OW  HW  HW  OW  HW  HW  OW  HW  HW  OW  HW  HW  OW  HW  HW  OW  HW  HW  OW  
HW  HW  OW  HW  HW  OW  HW  HW  OW  HW  HW  OW  HW  HW  OW  HW  HW  OW  HW  HW  
OW  HW  HW  OW  HW  HW  OW  HW  HW  OW  HW  HW  OW  HW  HW  OW  HW  HW  OW  HW  
HW  OW  HW  HW  OW  HW  HW  OW  HW  HW  OW  HW  HW  OW  HW  HW  OW  HW  HW  OW  
HW  HW  OW  HW  HW  OW  HW  HW  OW  HW  HW  OW  HW  HW  OW  HW  HW  OW  HW  HW  
OW  HW  HW  OW  HW  HW  OW  HW  HW  OW  HW  HW  OW  HW  HW  OW  HW  HW  OW  HW  
HW  OW  HW  HW  OW  HW  HW  OW  HW  HW  OW  HW  HW  OW  HW  HW  OW  HW  HW  OW  
HW  HW  OW  HW  HW  OW  HW  HW  OW  HW  HW  OW  HW  HW  OW  HW  HW  OW  HW  HW  
OW  HW  HW  OW  HW  HW  OW  HW  HW  OW  HW  HW  OW  HW  HW  OW  HW  HW  OW  HW  
HW  OW  HW  HW  OW  HW  HW  OW  HW  HW  OW  HW  HW  OW  HW  HW  OW  HW  HW  OW  
HW  HW  OW  HW  HW  OW  HW  HW  OW  HW  HW  OW  HW  HW  OW  HW  HW  OW  HW  HW  
OW  HW  HW  OW  HW  HW  OW  HW  HW  OW  HW  HW  OW  HW  HW  OW  HW  HW  OW  HW  
HW  OW  HW  HW  OW  HW  HW  OW  HW  HW  OW  HW  HW  OW  HW  HW  OW  HW  HW  OW  
HW  HW  OW  HW  HW  OW  HW  HW  OW  HW  HW  OW  HW  HW  OW  HW  HW  OW  HW  HW  
OW  HW  HW  OW  HW  HW  OW  HW  HW  OW  HW  HW  OW  HW  HW  OW  HW  HW  OW  HW  
HW  OW  HW  HW  OW  HW  HW  OW  HW  HW  OW  HW  HW  OW  HW  HW  OW  HW  HW  OW  
HW  HW  OW  HW  HW  OW  HW  HW  OW  HW  HW  OW  HW  HW  OW  HW  HW  OW  HW  HW  
OW  HW  HW  OW  HW  HW  OW  HW  HW  OW  HW  HW  OW  HW  HW  OW  HW  HW  OW  HW  
HW  OW  HW  HW  OW  HW  HW  OW  HW  HW  OW  HW  HW  OW  HW  HW  OW  HW  HW  OW  
HW  HW  OW  HW  HW  OW  HW  HW  OW  HW  HW  OW  HW  HW  OW  HW  HW  OW  HW  HW  
OW  HW  HW  OW  HW  HW  OW  HW  HW  OW  HW  HW  OW  HW  HW  OW  HW  HW  OW  HW  
HW  OW  HW  HW  OW  HW  HW  OW  HW  HW  OW  HW  HW  OW  HW  HW  OW  HW  HW  OW  
HW  HW  OW  HW  HW  OW  HW  HW  OW  HW  HW  OW  HW  HW  OW  HW  HW  OW  HW  HW  
OW  HW  HW  OW  HW  HW  OW  HW  HW  OW  HW  HW  OW  HW  HW  OW  HW  HW  OW  HW  
HW  OW  HW  HW  OW  HW  HW  OW  HW  HW  OW  HW  HW  OW  HW  HW  OW  HW  HW  OW  
HW  HW  OW  HW  HW  OW  HW  HW  OW  HW  HW  OW  HW  HW  OW  HW  HW  OW  HW  HW  
OW  HW  HW  OW  HW  HW  OW  HW  HW  OW  HW  HW  OW  HW  HW  OW  HW  HW  OW  HW  
HW  OW  HW  HW  OW  HW  HW  OW  HW  HW  OW  HW  HW  OW  HW  HW  OW  HW  HW  OW  
HW  HW  OW  HW  HW  OW  HW  HW  OW  HW  HW  OW  HW  HW  OW  HW  HW  OW  HW  HW  
OW  HW  HW  OW  HW  HW  OW  HW  HW  OW  HW  HW  OW  HW  HW  OW  HW  HW  OW  HW  
HW  OW  HW  HW  OW  HW  HW  OW  HW  HW  OW  HW  HW  OW  HW  HW  OW  HW  HW  OW  
HW  HW  OW  HW  HW  OW  HW  HW  OW  HW  HW  OW  HW  HW  OW  HW  HW  OW  HW  HW  
OW  HW  HW  OW  HW  HW  OW  HW  HW  OW  HW  HW  OW  HW  HW  OW  HW  HW  OW  HW  
HW  OW  HW  HW  OW  HW  HW  OW  HW  HW  OW  HW  HW  OW  HW  HW  OW  HW  HW  OW  
HW  HW  OW  HW  HW  OW  HW  HW  OW  HW  HW  OW  HW  HW  OW  HW  HW  OW  HW  HW  
OW  HW  HW  OW  HW  HW  OW  HW  HW  OW  HW  HW  OW  HW  HW  OW  HW  HW  OW  HW  
HW  OW  HW  HW  OW  HW  HW  OW  HW  HW  OW  HW  HW  OW  HW  HW  OW  HW  HW  OW  
HW  HW  OW  HW  HW  OW  HW  HW  OW  HW  HW  OW  HW  HW  OW  HW  HW  OW  HW  HW  
OW  HW  HW  OW  HW  HW  OW  HW  HW  OW  HW  HW  OW  HW  HW  OW  HW  HW  OW  HW  
HW  OW  HW  HW  OW  HW  HW  OW  HW  HW  OW  HW  HW  OW  HW  HW  OW  HW  HW  OW  
HW  HW  OW  HW  HW  OW  HW  HW  OW  HW  HW  OW  HW  HW  OW  HW  HW  OW  HW  HW  
OW  HW  HW  OW  HW  HW  OW  HW  HW  OW  HW  HW  OW  HW  HW  OW  HW  HW  OW  HW  
HW  OW  HW  HW  OW  HW  HW  OW  HW  HW  OW  HW  HW  OW  HW  HW  OW  HW  HW  OW  
HW  HW  OW  HW  HW  OW  HW  HW  OW  HW  HW  OW  HW  HW  OW  HW  HW  OW  HW  HW  
OW  HW  HW  OW  HW  HW  OW  HW  HW  OW  HW  HW  OW  HW  HW  OW  HW  HW  OW  HW  
HW  OW  HW  HW  OW  HW  HW  OW  HW  HW  OW  HW  HW  OW  HW  HW  OW  HW  HW  OW  
HW  HW  OW  HW  HW  OW  HW  HW  OW  HW  HW  OW  HW  HW  OW  HW  HW  OW  HW  HW  
OW  HW  HW  OW  HW  HW  OW  HW  HW  OW  HW  HW  OW  HW  HW  OW  HW  HW  OW  HW  
HW  OW  HW  HW  OW  HW  HW  OW  HW  HW  OW  HW  HW  OW  HW  HW  OW  HW  HW  OW  
HW  HW  OW  HW  HW  OW  HW  HW  OW  HW  HW  OW  HW  HW  OW  HW  HW  OW  HW  HW  
OW  HW  HW  OW  HW  HW  OW  HW  HW  OW  HW  HW  OW  HW  HW  OW  HW  HW  OW  HW  
HW  OW  HW  HW  OW  HW  HW  OW  HW  HW  OW  HW  HW  OW  HW  HW  OW  HW  HW  OW  
HW  HW  OW  HW  HW  OW  HW  HW  OW  HW  HW  OW  HW  HW  OW  HW  HW  OW  HW  HW  
OW  HW  HW  OW  HW  HW  OW  HW  HW  OW  HW  HW  OW  HW  HW  OW  HW  HW  OW  HW  
HW  OW  HW  HW  OW  HW  HW  OW  HW  HW  OW  HW  HW  OW  HW  HW  OW  HW  HW  OW  
HW  HW  OW  HW  HW  OW  HW  HW  OW  HW  HW  OW  HW  HW  OW  HW  HW  OW  HW  HW  
OW  HW  HW  OW  HW  HW  OW  HW  HW  OW  HW  HW  OW  HW  HW  OW  HW  HW  OW  HW  
HW  OW  HW  HW  OW  HW  HW  OW  HW  HW  OW  HW  HW  OW  HW  HW  OW  HW  HW  OW  
HW  HW  OW  HW  HW  OW  HW  HW  OW  HW  HW  OW  HW  HW  OW  HW  HW  OW  HW  HW  
OW  HW  HW  OW  HW  HW  OW  HW  HW  OW  HW  HW  OW  HW  HW  OW  HW  HW  OW  HW  
HW  OW  HW  HW  OW  HW  HW  OW  HW  HW  OW  HW  HW  OW  HW  HW  OW  HW  HW  OW  
HW  HW  OW  HW  HW  OW  HW  HW  OW  HW  HW  OW  HW  HW  OW  HW  HW  OW  HW  HW  
OW  HW  HW  OW  HW  HW  OW  HW  HW  OW  HW  HW  OW  HW  HW  OW  HW  HW  OW  HW  
HW  OW  HW  HW  OW  HW  HW  OW  HW  HW  OW  HW  HW  OW  HW  HW  OW  HW  HW  OW  
HW  HW  OW  HW  HW  OW  HW  HW  OW  HW  HW  OW  HW  HW  OW  HW  HW  OW  HW  HW  
OW  HW  HW  OW  HW  HW  OW  HW  HW  OW  HW  HW  OW  HW  HW  OW  HW  HW  OW  HW  
HW  OW  HW  HW  OW  HW  HW  OW  HW  HW  OW  HW  HW  OW  HW  HW  OW  HW  HW  OW  
HW  HW  OW  HW  HW  OW  HW  HW  OW  HW  HW  OW  HW  HW  OW  HW  HW  OW  HW  HW  
OW  HW  HW  OW  HW  HW  OW  HW  HW  OW  HW  HW  OW  HW  HW  OW  HW  HW  OW  HW  
HW  OW  HW  HW  OW  HW  HW  OW  HW  HW  OW  HW  HW  OW  HW  HW  OW  HW  HW  OW  
HW  HW  OW  HW  HW  OW  HW  HW  OW  HW  HW  OW  HW  HW  OW  HW  HW  OW  HW  HW  
OW  HW  HW  OW  HW  HW  OW  HW  HW  OW  HW  HW  OW  HW  HW  OW  HW  HW  OW  HW  
HW  OW  HW  HW  OW  HW  HW  OW  HW  HW  OW  HW  HW  OW  HW  HW  OW  HW  HW  OW  
HW  HW  OW  HW  HW  OW  HW  HW  OW  HW  HW  OW  HW  HW  OW  HW  HW  OW  HW  HW  
OW  HW  HW  OW  HW  HW  OW  HW  HW  OW  HW  HW  OW  HW  HW  OW  HW  HW  OW  HW  
HW  OW  HW  HW  OW  HW  HW  OW  HW  HW  OW  HW  HW  OW  HW  HW  OW  HW  HW  OW  
HW  HW  OW  HW  HW  OW  HW  HW  OW  HW  HW  OW  HW  HW  OW  HW  HW  OW  HW  HW  
OW  HW  HW  OW  HW  HW  OW  HW  HW  OW  HW  HW  OW  HW  HW  OW  HW  HW  OW  HW  
HW  OW  HW  HW  OW  HW  HW  OW  HW  HW  OW  HW  HW  OW  HW  HW  OW  HW  HW  OW  
HW  HW  OW  HW  HW  OW  HW  HW  OW  HW  HW  OW  HW  HW  OW  HW  HW  OW  HW  HW  
OW  HW  HW  OW  HW  HW  OW  HW  HW  OW  HW  HW  OW  HW  HW  OW  HW  HW  OW  HW  
HW  OW  HW  HW  OW  HW  HW  OW  HW  HW  OW  HW  HW  OW  HW  HW  OW  HW  HW  OW  
HW  HW  OW  HW  HW  OW  HW  HW  OW  HW  HW  OW  HW  HW  OW  HW  HW  OW  HW  HW  
OW  HW  HW  OW  HW  HW  OW  HW  HW  OW  HW  HW  OW  HW  HW  OW  HW  HW  OW  HW  
HW  OW  HW  HW  OW  HW  HW  OW  HW  HW  OW  HW  HW  OW  HW  HW  OW  HW  HW  OW  
HW  HW  OW  HW  HW  OW  HW  HW  OW  HW  HW  OW  HW  HW  OW  HW  HW  OW  HW  HW  
OW  HW  HW  OW  HW  HW  OW  HW  HW  OW  HW  HW  OW  HW  HW  OW  HW  HW  OW  HW  
HW  OW  HW  HW  OW  HW  HW  OW  HW  HW  OW  HW  HW  OW  HW  HW  OW  HW  HW  OW  
HW  HW  OW  HW  HW  OW  HW  HW  OW  HW  HW  OW  HW  HW  OW  HW  HW  OW  HW  HW  
OW  HW  HW  OW  HW  HW  OW  HW  HW  OW  HW  HW  OW  HW  HW  OW  HW  HW  OW  HW  
HW  OW  HW  HW  OW  HW  HW  OW  HW  HW  OW  HW  HW  OW  HW  HW  OW  HW  HW  OW  
HW  HW  OW  HW  HW  OW  HW  HW  OW  HW  HW  OW  HW  HW  OW  HW  HW  OW  HW  HW  
OW  HW  HW  OW  HW  HW  OW  HW  HW  OW  HW  HW  OW  HW  HW  OW  HW  HW  OW  HW  
HW  OW  HW  HW  OW  HW  HW  OW  HW  HW  OW  HW  HW  OW  HW  HW  OW  HW  HW  OW  
HW  HW  OW  HW  HW  OW  HW  HW  OW  HW  HW  OW  HW  HW  OW  HW  HW  OW  HW  HW  
OW  HW  HW  OW  HW  HW  OW  HW  HW  OW  HW  HW  OW  HW  HW  OW  HW  HW  OW  HW  
HW  OW  HW  HW  OW  HW  HW  OW  HW  HW  OW  HW  HW  OW  HW  HW  OW  HW  HW  OW  
HW  HW  OW  HW  HW  OW  HW  HW  OW  HW  HW  OW  HW  HW  OW  HW  HW  OW  HW  HW  
OW  HW  HW  OW  HW  HW  OW  HW  HW  OW  HW  HW  OW  HW  HW  OW  HW  HW  OW  HW  
HW  OW  HW  HW  OW  HW  HW  OW  HW  HW  OW  HW  HW  OW  HW  HW  OW  HW  HW  OW  
HW  HW  OW  HW  HW  OW  HW  HW  OW  HW  HW  OW  HW  HW  OW  HW  HW  OW  HW  HW  
OW  HW  HW  OW  HW  HW  OW  HW  HW  OW  HW  HW  OW  HW  HW  OW  HW  HW  OW  HW  
HW  OW  HW  HW  OW  HW  HW  OW  HW  HW  OW  HW  HW  OW  HW  HW  OW  HW  HW  OW  
HW  HW  OW  HW  HW  OW  HW  HW  OW  HW  HW  OW  HW  HW  OW  HW  HW  OW  HW  HW  
OW  HW  HW  OW  HW  HW  OW  HW  HW  OW  HW  HW  OW  HW  HW  OW  HW  HW  OW  HW  
HW  OW  HW  HW  OW  HW  HW  OW  HW  HW  OW  HW  HW  OW  HW  HW  OW  HW  HW  OW  
HW  HW  OW  HW  HW  OW  HW  HW  OW  HW  HW  OW  HW  HW  OW  HW  HW  OW  HW  HW  
OW  HW  HW  OW  HW  HW  OW  HW  HW  OW  HW  HW  OW  HW  HW  OW  HW  HW  OW  HW  
HW  OW  HW  HW  OW  HW  HW  OW  HW  HW  OW  HW  HW  OW  HW  HW  OW  HW  HW  OW  
HW  HW  OW  HW  HW  OW  HW  HW  OW  HW  HW  OW  HW  HW  OW  HW  HW  OW  HW  HW  
OW  HW  HW  OW  HW  HW  OW  HW  HW  OW  HW  HW  OW  HW  HW  OW  HW  HW  OW  HW  
HW  OW  HW  HW  OW  HW  HW  OW  HW  HW  OW  HW  HW  OW  HW  HW  OW  HW  HW  OW  
HW  HW  OW  HW  HW  OW  HW  HW  OW  HW  HW  OW  HW  HW  OW  HW  HW  OW  HW  HW  
OW  HW  HW  OW  HW  HW  OW  HW  HW  OW  HW  HW  OW  HW  HW  OW  HW  HW  OW  HW  
HW  OW  HW  HW  OW  HW  HW  OW  HW  HW  OW  HW  HW  OW  HW  HW  OW  HW  HW  OW  
HW  HW  OW  HW  HW  OW  HW  HW  OW  HW  HW  OW  HW  HW  OW  HW  HW  OW  HW  HW  
OW  HW  HW  OW  HW  HW  OW  HW  HW  OW  HW  HW  OW  HW  HW  OW  HW  HW  OW  HW  
HW  OW  HW  HW  OW  HW  HW  OW  HW  HW  OW  HW  HW  OW  HW  HW  OW  HW  HW  OW  
HW  HW  OW  HW  HW  OW  HW  HW  OW  HW  HW  OW  HW  HW  OW  HW  HW  OW  HW  HW  
OW  HW  HW  OW  HW  HW  OW  HW  HW  OW  HW  HW  OW  HW  HW  OW  HW  HW  OW  HW  
HW  OW  HW  HW  OW  HW  HW  OW  HW  HW  OW  HW  HW  OW  HW  HW  OW  HW  HW  OW  
HW  HW  OW  HW  HW  OW  HW  HW  OW  HW  HW  OW  HW  HW  OW  HW  HW  OW  HW  HW  
OW  HW  HW  OW  HW  HW  OW  HW  HW  OW  HW  HW  OW  HW  HW  OW  HW  HW  OW  HW  
HW  OW  HW  HW  OW  HW  HW  OW  HW  HW  OW  HW  HW  OW  HW  HW  OW  HW  HW  OW  
HW  HW  OW  HW  HW  OW  HW  HW  OW  HW  HW  OW  HW  HW  OW  HW  HW  OW  HW  HW  
OW  HW  HW  OW  HW  HW  OW  HW  HW  OW  HW  HW  OW  HW  HW  OW  HW  HW  OW  HW  
HW  OW  HW  HW  OW  HW  HW  OW  HW  HW  OW  HW  HW  OW  HW  HW  OW  HW  HW  OW  
HW  HW  OW  HW  HW  OW  HW  HW  OW  HW  HW  OW  HW  HW  OW  HW  HW  OW  HW  HW  
OW  HW  HW  OW  HW  HW  OW  HW  HW  OW  HW  HW  OW  HW  HW  OW  HW  HW  OW  HW  
HW  OW  HW  HW  OW  HW  HW  OW  HW  HW  OW  HW  HW  OW  HW  HW  OW  HW  HW  OW  
HW  HW  OW  HW  HW  OW  HW  HW  OW  HW  HW  OW  HW  HW  OW  HW  HW  OW  HW  HW  
OW  HW  HW  OW  HW  HW  OW  HW  HW  OW  HW  HW  OW  HW  HW  OW  HW  HW  OW  HW  
HW  OW  HW  HW  OW  HW  HW  OW  HW  HW  OW  HW  HW  OW  HW  HW  OW  HW  HW  OW  
HW  HW  OW  HW  HW  OW  HW  HW  OW  HW  HW  OW  HW  HW  OW  HW  HW  OW  HW  HW  
OW  HW  HW  OW  HW  HW  OW  HW  HW  OW  HW  HW  OW  HW  HW  OW  HW  HW  OW  HW  
HW  OW  HW  HW  OW  HW  HW  OW  HW  HW  OW  HW  HW  OW  HW  HW  OW  HW  HW  OW  
HW  HW  OW  HW  HW  OW  HW  HW  OW  HW  HW  OW  HW  HW  OW  HW  HW  OW  HW  HW  
OW  HW  HW  OW  HW  HW  OW  HW  HW  OW  HW  HW  OW  HW  HW  OW  HW  HW  OW  HW  
HW  OW  HW  HW  OW  HW  HW  OW  HW  HW  OW  HW  HW  OW  HW  HW  OW  HW  HW  OW  
HW  HW  OW  HW  HW  OW  HW  HW  OW  HW  HW  OW  HW  HW  OW  HW  HW  OW  HW  HW  
OW  HW  HW  OW  HW  HW  OW  HW  HW  OW  HW  HW  OW  HW  HW  OW  HW  HW  OW  HW  
HW  OW  HW  HW  OW  HW  HW  OW  HW  HW  OW  HW  HW  OW  HW  HW  OW  HW  HW  OW  
HW  HW  OW  HW  HW  OW  HW  HW  OW  HW  HW  OW  HW  HW  OW  HW  HW  OW  HW  HW  
OW  HW  HW  OW  HW  HW  OW  HW  HW  OW  HW  HW  OW  HW  HW  OW  HW  HW  OW  HW  
HW  OW  HW  HW  OW  HW  HW  OW  HW  HW  OW  HW  HW  OW  HW  HW  OW  HW  HW  OW  
HW  HW  OW  HW  HW  OW  HW  HW  OW  HW  HW  OW  HW  HW  OW  HW  HW  OW  HW  HW  
OW  HW  HW  OW  HW  HW  OW  HW  HW  OW  HW  HW  OW  HW  HW  OW  HW  HW  OW  HW  
HW  OW  HW  HW  OW  HW  HW  OW  HW  HW  OW  HW  HW  OW  HW  HW  OW  HW  HW  OW  
HW  HW  OW  HW  HW  OW  HW  HW  OW  HW  HW  OW  HW  HW  OW  HW  HW  OW  HW  HW  
OW  HW  HW  OW  HW  HW  OW  HW  HW  OW  HW  HW  OW  HW  HW  OW  HW  HW  OW  HW  
HW  OW  HW  HW  OW  HW  HW  OW  HW  HW  OW  HW  HW  OW  HW  HW  OW  HW  HW  OW  
HW  HW  OW  HW  HW  OW  HW  HW  OW  HW  HW  OW  HW  HW  OW  HW  HW  OW  HW  HW  
OW  HW  HW  OW  HW  HW  OW  HW  HW  OW  HW  HW  OW  HW  HW  OW  HW  HW  OW  HW  
HW  OW  HW  HW  OW  HW  HW  OW  HW  HW  OW  HW  HW  OW  HW  HW  OW  HW  HW  OW  
HW  HW  OW  HW  HW  OW  HW  HW  OW  HW  HW  OW  HW  HW  OW  HW  HW  OW  HW  HW  
OW  HW  HW  OW  HW  HW  OW  HW  HW  OW  HW  HW  OW  HW  HW  OW  HW  HW  OW  HW  
HW  OW  HW  HW  OW  HW  HW  OW  HW  HW  OW  HW  HW  OW  HW  HW  OW  HW  HW  OW  
HW  HW  OW  HW  HW  OW  HW  HW  OW  HW  HW  OW  HW  HW  OW  HW  HW  OW  HW  HW  
OW  HW  HW  OW  HW  HW  OW  HW  HW  OW  HW  HW  OW  HW  HW  OW  HW  HW  OW  HW  
HW  OW  HW  HW  OW  HW  HW  OW  HW  HW  OW  HW  HW  OW  HW  HW  OW  HW  HW  OW  
HW  HW  OW  HW  HW  OW  HW  HW  OW  HW  HW  OW  HW  HW  OW  HW  HW  OW  HW  HW  
OW  HW  HW  OW  HW  HW  OW  HW  HW  OW  HW  HW  OW  HW  HW  OW  HW  HW  OW  HW  
HW  OW  HW  HW  OW  HW  HW  OW  HW  HW  OW  HW  HW  OW  HW  HW  OW  HW  HW  OW  
HW  HW  OW  HW  HW  OW  HW  HW  OW  HW  HW  OW  HW  HW  OW  HW  HW  OW  HW  HW  
OW  HW  HW  OW  HW  HW  OW  HW  HW  OW  HW  HW  OW  HW  HW  OW  HW  HW  OW  HW  
HW  OW  HW  HW  OW  HW  HW  OW  HW  HW  OW  HW  HW  OW  HW  HW  OW  HW  HW  OW  
HW  HW  OW  HW  HW  OW  HW  HW  OW  HW  HW  OW  HW  HW  OW  HW  HW  OW  HW  HW  
OW  HW  HW  OW  HW  HW  OW  HW  HW  OW  HW  HW  OW  HW  HW  OW  HW  HW  OW  HW  
HW  OW  HW  HW  OW  HW  HW  OW  HW  HW  OW  HW  HW  OW  HW  HW  OW  HW  HW  OW  
HW  HW  OW  HW  HW  OW  HW  HW  OW  HW  HW  OW  HW  HW  OW  HW  HW  OW  HW  HW  
OW  HW  HW  OW  HW  HW  OW  HW  HW  OW  HW  HW  OW  HW  HW  OW  HW  HW  OW  HW  
HW  OW  HW  HW  OW  HW  HW  OW  HW  HW  OW  HW  HW  OW  HW  HW  OW  HW  HW  OW  
HW  HW  OW  HW  HW  OW  HW  HW  OW  HW  HW  OW  HW  HW  OW  HW  HW  OW  HW  HW  
OW  HW  HW  OW  HW  HW  OW  HW  HW  OW  HW  HW  OW  HW  HW  OW  HW  HW  OW  HW  
HW  OW  HW  HW  OW  HW  HW  OW  HW  HW  OW  HW  HW  OW  HW  HW  OW  HW  HW  OW  
HW  HW  OW  HW  HW  OW  HW  HW  OW  HW  HW  OW  HW  HW  OW  HW  HW  OW  HW  HW  
OW  HW  HW  OW  HW  HW  OW  HW  HW  OW  HW  HW  OW  HW  HW  OW  HW  HW  OW  HW  
HW  OW  HW  HW  OW  HW  HW  OW  HW  HW  OW  HW  HW  OW  HW  HW  OW  HW  HW  OW  
HW  HW  OW  HW  HW  OW  HW  HW  OW  HW  HW  OW  HW  HW  OW  HW  HW  OW  HW  HW  
OW  HW  HW  OW  HW  HW  OW  HW  HW  OW  HW  HW  OW  HW  HW  OW  HW  HW  OW  HW  
HW  OW  HW  HW  OW  HW  HW  OW  HW  HW  OW  HW  HW  OW  HW  HW  OW  HW  HW  OW  
HW  HW  OW  HW  HW  OW  HW  HW  OW  HW  HW  OW  HW  HW  OW  HW  HW  OW  HW  HW  
OW  HW  HW  OW  HW  HW  OW  HW  HW  OW  HW  HW  OW  HW  HW  OW  HW  HW  OW  HW  
HW  OW  HW  HW  OW  HW  HW  OW  HW  HW  OW  HW  HW  OW  HW  HW  OW  HW  HW  OW  
HW  HW  OW  HW  HW  OW  HW  HW  OW  HW  HW  OW  HW  HW  OW  HW  HW  OW  HW  HW  
OW  HW  HW  OW  HW  HW  OW  HW  HW  OW  HW  HW  OW  HW  HW  OW  HW  HW  OW  HW  
HW  OW  HW  HW  OW  HW  HW  OW  HW  HW  OW  HW  HW  OW  HW  HW  OW  HW  HW  OW  
HW  HW  OW  HW  HW  OW  HW  HW  OW  HW  HW  OW  HW  HW  OW  HW  HW  OW  HW  HW  
OW  HW  HW  OW  HW  HW  OW  HW  HW  OW  HW  HW  OW  HW  HW  OW  HW  HW  OW  HW  
HW  OW  HW  HW  OW  HW  HW  OW  HW  HW  OW  HW  HW  OW  HW  HW  OW  HW  HW  OW  
HW  HW  OW  HW  HW  OW  HW  HW  OW  HW  HW  OW  HW  HW  OW  HW  HW  OW  HW  HW  
OW  HW  HW  OW  HW  HW  OW  HW  HW  OW  HW  HW  OW  HW  HW  OW  HW  HW  OW  HW  
HW  OW  HW  HW  OW  HW  HW  OW  HW  HW  OW  HW  HW  OW  HW  HW  OW  HW  HW  OW  
HW  HW  OW  HW  HW  OW  HW  HW  OW  HW  HW  OW  HW  HW  OW  HW  HW  OW  HW  HW  
OW  HW  HW  OW  HW  HW  OW  HW  HW  OW  HW  HW  OW  HW  HW  OW  HW  HW  OW  HW  
HW  OW  HW  HW  OW  HW  HW  OW  HW  HW  OW  HW  HW  OW  HW  HW  OW  HW  HW  OW  
HW  HW  OW  HW  HW  OW  HW  HW  OW  HW  HW  OW  HW  HW  OW  HW  HW  OW  HW  HW  
OW  HW  HW  OW  HW  HW  OW  HW  HW  OW  HW  HW  OW  HW  HW  OW  HW  HW  OW  HW  
HW  OW  HW  HW  OW  HW  HW  OW  HW  HW  OW  HW  HW  OW  HW  HW  OW  HW  HW  OW  
HW  HW  OW  HW  HW  OW  HW  HW  OW  HW  HW  OW  HW  HW  OW  HW  HW  OW  HW  HW  
OW  HW  HW  OW  HW  HW  OW  HW  HW  OW  HW  HW  OW  HW  HW  OW  HW  HW  OW  HW  
HW  OW  HW  HW  OW  HW  HW  OW  HW  HW  OW  HW  HW  OW  HW  HW  OW  HW  HW  OW  
HW  HW  OW  HW  HW  OW  HW  HW  OW  HW  HW  OW  HW  HW  OW  HW  HW  OW  HW  HW  
OW  HW  HW  OW  HW  HW  OW  HW  HW  OW  HW  HW  OW  HW  HW  OW  HW  HW  OW  HW  
HW  OW  HW  HW  OW  HW  HW  OW  HW  HW  OW  HW  HW  OW  HW  HW  OW  HW  HW  OW  
HW  HW  OW  HW  HW  OW  HW  HW  OW  HW  HW  OW  HW  HW  OW  HW  HW  OW  HW  HW  
OW  HW  HW  OW  HW  HW  OW  HW  HW  OW  HW  HW  OW  HW  HW  OW  HW  HW  OW  HW  
HW  OW  HW  HW  OW  HW  HW  OW  HW  HW  OW  HW  HW  OW  HW  HW  OW  HW  HW  OW  
HW  HW  OW  HW  HW  OW  HW  HW  OW  HW  HW  OW  HW  HW  OW  HW  HW  OW  HW  HW  
OW  HW  HW  OW  HW  HW  OW  HW  HW  OW  HW  HW  OW  HW  HW  OW  HW  HW  OW  HW  
HW  OW  HW  HW  OW  HW  HW  OW  HW  HW  OW  HW  HW  OW  HW  HW  OW  HW  HW  OW  
HW  HW  OW  HW  HW  OW  HW  HW  OW  HW  HW  OW  HW  HW  OW  HW  HW  OW  HW  HW  
OW  HW  HW  OW  HW  HW  OW  HW  HW  OW  HW  HW  OW  HW  HW  OW  HW  HW  OW  HW  
HW  OW  HW  HW  OW  HW  HW  OW  HW  HW  OW  HW  HW  OW  HW  HW  OW  HW  HW  OW  
HW  HW  OW  HW  HW  OW  HW  HW  OW  HW  HW  OW  HW  HW  OW  HW  HW  OW  HW  HW  
OW  HW  HW  OW  HW  HW  OW  HW  HW  OW  HW  HW  OW  HW  HW  OW  HW  HW  OW  HW  
HW  OW  HW  HW  OW  HW  HW  OW  HW  HW  OW  HW  HW  OW  HW  HW  OW  HW  HW  OW  
HW  HW  OW  HW  HW  OW  HW  HW  OW  HW  HW  OW  HW  HW  OW  HW  HW  OW  HW  HW  
OW  HW  HW  OW  HW  HW  OW  HW  HW  OW  HW  HW  OW  HW  HW  OW  HW  HW  OW  HW  
HW  OW  HW  HW  OW  HW  HW  OW  HW  HW  OW  HW  HW  OW  HW  HW  OW  HW  HW  OW  
HW  HW  OW  HW  HW  OW  HW  HW  OW  HW  HW  OW  HW  HW  OW  HW  HW  OW  HW  HW  
OW  HW  HW  OW  HW  HW  OW  HW  HW  OW  HW  HW  OW  HW  HW  OW  HW  HW  OW  HW  
HW  OW  HW  HW  OW  HW  HW  OW  HW  HW  OW  HW  HW  OW  HW  HW  OW  HW  HW  OW  
HW  HW  OW  HW  HW  OW  HW  HW  OW  HW  HW  OW  HW  HW  OW  HW  HW  OW  HW  HW  
OW  HW  HW  OW  HW  HW  OW  HW  HW  OW  HW  HW  OW  HW  HW  OW  HW  HW  OW  HW  
HW  OW  HW  HW  OW  HW  HW  OW  HW  HW  OW  HW  HW  OW  HW  HW  OW  HW  HW  OW  
HW  HW  OW  HW  HW  OW  HW  HW  OW  HW  HW  OW  HW  HW  OW  HW  HW  OW  HW  HW  
OW  HW  HW  OW  HW  HW  OW  HW  HW  OW  HW  HW  OW  HW  HW  OW  HW  HW  OW  HW  
HW  OW  HW  HW  OW  HW  HW  OW  HW  HW  OW  HW  HW  OW  HW  HW  OW  HW  HW  OW  
HW  HW  OW  HW  HW  OW  HW  HW  OW  HW  HW  OW  HW  HW  OW  HW  HW  OW  HW  HW  
OW  HW  HW  OW  HW  HW  OW  HW  HW  OW  HW  HW  OW  HW  HW  OW  HW  HW  OW  HW  
HW  OW  HW  HW  OW  HW  HW  OW  HW  HW  OW  HW  HW  OW  HW  HW  OW  HW  HW  OW  
HW  HW  OW  HW  HW  OW  HW  HW  OW  HW  HW  OW  HW  HW  OW  HW  HW  OW  HW  HW  
OW  HW  HW  OW  HW  HW  OW  HW  HW  OW  HW  HW  OW  HW  HW  OW  HW  HW  OW  HW  
HW  OW  HW  HW  OW  HW  HW  OW  HW  HW  OW  HW  HW  OW  HW  HW  OW  HW  HW  OW  
HW  HW  OW  HW  HW  OW  HW  HW  OW  HW  HW  OW  HW  HW  OW  HW  HW  OW  HW  HW  
OW  HW  HW  OW  HW  HW  OW  HW  HW  OW  HW  HW  OW  HW  HW  OW  HW  HW  OW  HW  
HW  OW  HW  HW  OW  HW  HW  OW  HW  HW  OW  HW  HW  OW  HW  HW  OW  HW  HW  OW  
HW  HW  OW  HW  HW  OW  HW  HW  OW  HW  HW  OW  HW  HW  OW  HW  HW  OW  HW  HW  
OW  HW  HW  OW  HW  HW  OW  HW  HW  OW  HW  HW  OW  HW  HW  OW  HW  HW  OW  HW  
HW  OW  HW  HW  OW  HW  HW  OW  HW  HW  OW  HW  HW  OW  HW  HW  OW  HW  HW  OW  
HW  HW  OW  HW  HW  OW  HW  HW  OW  HW  HW  OW  HW  HW  OW  HW  HW  OW  HW  HW  
OW  HW  HW  OW  HW  HW  OW  HW  HW  OW  HW  HW  OW  HW  HW  OW  HW  HW  OW  HW  
HW  OW  HW  HW  OW  HW  HW  OW  HW  HW  OW  HW  HW  OW  HW  HW  OW  HW  HW  OW  
HW  HW  OW  HW  HW  OW  HW  HW  OW  HW  HW  OW  HW  HW  OW  HW  HW  OW  HW  HW  
OW  HW  HW  OW  HW  HW  OW  HW  HW  OW  HW  HW  OW  HW  HW  OW  HW  HW  OW  HW  
HW  OW  HW  HW  OW  HW  HW  OW  HW  HW  OW  HW  HW  OW  HW  HW  OW  HW  HW  OW  
HW  HW  OW  HW  HW  OW  HW  HW  OW  HW  HW  OW  HW  HW  OW  HW  HW  OW  HW  HW  
OW  HW  HW  OW  HW  HW  OW  HW  HW  OW  HW  HW  OW  HW  HW  OW  HW  HW  OW  HW  
HW  OW  HW  HW  OW  HW  HW  OW  HW  HW  OW  HW  HW  OW  HW  HW  OW  HW  HW  OW  
HW  HW  OW  HW  HW  OW  HW  HW  OW  HW  HW  OW  HW  HW  OW  HW  HW  OW  HW  HW  
OW  HW  HW  OW  HW  HW  OW  HW  HW  OW  HW  HW  OW  HW  HW  OW  HW  HW  OW  HW  
HW  OW  HW  HW  OW  HW  HW  OW  HW  HW  OW  HW  HW  OW  HW  HW  OW  HW  HW  OW  
HW  HW  OW  HW  HW  OW  HW  HW  OW  HW  HW  OW  HW  HW  OW  HW  HW  OW  HW  HW  
OW  HW  HW  OW  HW  HW  OW  HW  HW  OW  HW  HW  OW  HW  HW  OW  HW  HW  OW  HW  
HW  OW  HW  HW  OW  HW  HW  OW  HW  HW  OW  HW  HW  OW  HW  HW  OW  HW  HW  OW  
HW  HW  OW  HW  HW  OW  HW  HW  OW  HW  HW  OW  HW  HW  OW  HW  HW  OW  HW  HW  
OW  HW  HW  OW  HW  HW  OW  HW  HW  OW  HW  HW  OW  HW  HW  OW  HW  HW  OW  HW  
HW  OW  HW  HW  OW  HW  HW  OW  HW  HW  OW  HW  HW  OW  HW  HW  OW  HW  HW  OW  
HW  HW  OW  HW  HW  OW  HW  HW  OW  HW  HW  OW  HW  HW  OW  HW  HW  OW  HW  HW  
OW  HW  HW  OW  HW  HW  OW  HW  HW  OW  HW  HW  OW  HW  HW  OW  HW  HW  OW  HW  
HW  OW  HW  HW  OW  HW  HW  OW  HW  HW  OW  HW  HW  OW  HW  HW  OW  HW  HW  OW  
HW  HW  OW  HW  HW  OW  HW  HW  OW  HW  HW  OW  HW  HW  OW  HW  HW  OW  HW  HW  
OW  HW  HW  OW  HW  HW  OW  HW  HW  OW  HW  HW  OW  HW  HW  OW  HW  HW  OW  HW  
HW  OW  HW  HW  OW  HW  HW  OW  HW  HW  OW  HW  HW  OW  HW  HW  OW  HW  HW  OW  
HW  HW  OW  HW  HW  OW  HW  HW  OW  HW  HW  OW  HW  HW  OW  HW  HW  OW  HW  HW  
OW  HW  HW  OW  HW  HW  OW  HW  HW  OW  HW  HW  OW  HW  HW  OW  HW  HW  OW  HW  
HW  OW  HW  HW  OW  HW  HW  OW  HW  HW  OW  HW  HW  OW  HW  HW  OW  HW  HW  OW  
HW  HW  OW  HW  HW  OW  HW  HW  OW  HW  HW  OW  HW  HW  OW  HW  HW  OW  HW  HW  
OW  HW  HW  OW  HW  HW  OW  HW  HW  OW  HW  HW  OW  HW  HW  OW  HW  HW  OW  HW  
HW  OW  HW  HW  OW  HW  HW  OW  HW  HW  OW  HW  HW  OW  HW  HW  OW  HW  HW  OW  
HW  HW  OW  HW  HW  OW  HW  HW  OW  HW  HW  OW  HW  HW  OW  HW  HW  OW  HW  HW  
OW  HW  HW  OW  HW  HW  OW  HW  HW  OW  HW  HW  OW  HW  HW  OW  HW  HW  OW  HW  
HW  OW  HW  HW  OW  HW  HW  OW  HW  HW  OW  HW  HW  OW  HW  HW  OW  HW  HW  OW  
HW  HW  OW  HW  HW  OW  HW  HW  OW  HW  HW  OW  HW  HW  OW  HW  HW  OW  HW  HW  
OW  HW  HW  OW  HW  HW  OW  HW  HW  OW  HW  HW  OW  HW  HW  OW  HW  HW  OW  HW  
HW  OW  HW  HW  OW  HW  HW  OW  HW  HW  OW  HW  HW  OW  HW  HW  OW  HW  HW  OW  
HW  HW  OW  HW  HW  OW  HW  HW  OW  HW  HW  OW  HW  HW  OW  HW  HW  OW  HW  HW  
OW  HW  HW  OW  HW  HW  OW  HW  HW  OW  HW  HW  OW  HW  HW  OW  HW  HW  OW  HW  
HW  OW  HW  HW  OW  HW  HW  OW  HW  HW  OW  HW  HW  OW  HW  HW  OW  HW  HW  OW  
HW  HW  OW  HW  HW  OW  HW  HW  OW  HW  HW  OW  HW  HW  OW  HW  HW  OW  HW  HW  
OW  HW  HW  OW  HW  HW  OW  HW  HW  OW  HW  HW  OW  HW  HW  OW  HW  HW  OW  HW  
HW  OW  HW  HW  OW  HW  HW  OW  HW  HW  OW  HW  HW  OW  HW  HW  OW  HW  HW  OW  
HW  HW  OW  HW  HW  OW  HW  HW  OW  HW  HW  OW  HW  HW  OW  HW  HW  OW  HW  HW  
OW  HW  HW  OW  HW  HW  OW  HW  HW  OW  HW  HW  OW  HW  HW  OW  HW  HW  OW  HW  
HW  OW  HW  HW  OW  HW  HW  OW  HW  HW  OW  HW  HW  OW  HW  HW  OW  HW  HW  OW  
HW  HW  OW  HW  HW  OW  HW  HW  OW  HW  HW  OW  HW  HW  OW  HW  HW  OW  HW  HW  
OW  HW  HW  OW  HW  HW  OW  HW  HW  OW  HW  HW  OW  HW  HW  OW  HW  HW  OW  HW  
HW  OW  HW  HW  OW  HW  HW  OW  HW  HW  OW  HW  HW  OW  HW  HW  OW  HW  HW  OW  
HW  HW  OW  HW  HW  OW  HW  HW  OW  HW  HW  OW  HW  HW  OW  HW  HW  OW  HW  HW  
OW  HW  HW  OW  HW  HW  OW  HW  HW  OW  HW  HW  OW  HW  HW  OW  HW  HW  OW  HW  
HW  OW  HW  HW  OW  HW  HW  OW  HW  HW  OW  HW  HW  OW  HW  HW  OW  HW  HW  OW  
HW  HW  OW  HW  HW  OW  HW  HW  OW  HW  HW  OW  HW  HW  OW  HW  HW  OW  HW  HW  
OW  HW  HW  OW  HW  HW  OW  HW  HW  OW  HW  HW  OW  HW  HW  OW  HW  HW  OW  HW  
HW  OW  HW  HW  OW  HW  HW  OW  HW  HW  OW  HW  HW  OW  HW  HW  OW  HW  HW  OW  
HW  HW  OW  HW  HW  OW  HW  HW  OW  HW  HW  OW  HW  HW  OW  HW  HW  OW  HW  HW  
OW  HW  HW  OW  HW  HW  OW  HW  HW  OW  HW  HW  OW  HW  HW  OW  HW  HW  OW  HW  
HW  OW  HW  HW  OW  HW  HW  OW  HW  HW  OW  HW  HW  OW  HW  HW  OW  HW  HW  OW  
HW  HW  OW  HW  HW  OW  HW  HW  OW  HW  HW  OW  HW  HW  OW  HW  HW  OW  HW  HW  
OW  HW  HW  OW  HW  HW  OW  HW  HW  OW  HW  HW  OW  HW  HW  OW  HW  HW  OW  HW  
HW  OW  HW  HW  OW  HW  HW  OW  HW  HW  OW  HW  HW  OW  HW  HW  OW  HW  HW  OW  
HW  HW  OW  HW  HW  OW  HW  HW  OW  HW  HW  OW  HW  HW  OW  HW  HW  OW  HW  HW  
OW  HW  HW  OW  HW  HW  OW  HW  HW  OW  HW  HW  OW  HW  HW  OW  HW  HW  OW  HW  
HW  OW  HW  HW  OW  HW  HW  OW  HW  HW  OW  HW  HW  OW  HW  HW  OW  HW  HW  OW  
HW  HW  OW  HW  HW  OW  HW  HW  OW  HW  HW  OW  HW  HW  OW  HW  HW  OW  HW  HW  
OW  HW  HW  OW  HW  HW  OW  HW  HW  OW  HW  HW  OW  HW  HW  OW  HW  HW  OW  HW  
HW  OW  HW  HW  OW  HW  HW  OW  HW  HW  OW  HW  HW  OW  HW  HW  OW  HW  HW  OW  
HW  HW  OW  HW  HW  OW  HW  HW  OW  HW  HW  OW  HW  HW  OW  HW  HW  OW  HW  HW  
OW  HW  HW  OW  HW  HW  OW  HW  HW  OW  HW  HW  OW  HW  HW  OW  HW  HW  OW  HW  
HW  OW  HW  HW  OW  HW  HW  OW  HW  HW  OW  HW  HW  OW  HW  HW  OW  HW  HW  OW  
HW  HW  OW  HW  HW  OW  HW  HW  OW  HW  HW  OW  HW  HW  OW  HW  HW  OW  HW  HW  
OW  HW  HW  OW  HW  HW  OW  HW  HW  OW  HW  HW  OW  HW  HW  OW  HW  HW  OW  HW  
HW  OW  HW  HW  OW  HW  HW  OW  HW  HW  OW  HW  HW  OW  HW  HW  OW  HW  HW  OW  
HW  HW  OW  HW  HW  OW  HW  HW  OW  HW  HW  OW  HW  HW  OW  HW  HW  OW  HW  HW  
OW  HW  HW  OW  HW  HW  OW  HW  HW  OW  HW  HW  OW  HW  HW  OW  HW  HW  OW  HW  
HW  OW  HW  HW  OW  HW  HW  OW  HW  HW  OW  HW  HW  OW  HW  HW  OW  HW  HW  OW  
HW  HW  OW  HW  HW  OW  HW  HW  OW  HW  HW  OW  HW  HW  OW  HW  HW  OW  HW  HW  
OW  HW  HW  OW  HW  HW  OW  HW  HW  OW  HW  HW  OW  HW  HW  OW  HW  HW  OW  HW  
HW  OW  HW  HW  OW  HW  HW  OW  HW  HW  OW  HW  HW  OW  HW  HW  OW  HW  HW  OW  
HW  HW  OW  HW  HW  OW  HW  HW  OW  HW  HW  OW  HW  HW  OW  HW  HW  OW  HW  HW  
OW  HW  HW  OW  HW  HW  OW  HW  HW  OW  HW  HW  OW  HW  HW  OW  HW  HW  OW  HW  
HW  OW  HW  HW  OW  HW  HW  OW  HW  HW  OW  HW  HW  OW  HW  HW  OW  HW  HW  OW  
HW  HW  OW  HW  HW  OW  HW  HW  OW  HW  HW  OW  HW  HW  OW  HW  HW  OW  HW  HW  
OW  HW  HW  OW  HW  HW  OW  HW  HW  OW  HW  HW  OW  HW  HW  OW  HW  HW  OW  HW  
HW  OW  HW  HW  OW  HW  HW  OW  HW  HW  OW  HW  HW  OW  HW  HW  OW  HW  HW  OW  
HW  HW  OW  HW  HW  OW  HW  HW  OW  HW  HW  OW  HW  HW  OW  HW  HW  OW  HW  HW  
OW  HW  HW  OW  HW  HW  OW  HW  HW  OW  HW  HW  OW  HW  HW  OW  HW  HW  OW  HW  
HW  OW  HW  HW  OW  HW  HW  OW  HW  HW  OW  HW  HW  OW  HW  HW  OW  HW  HW  OW  
HW  HW  OW  HW  HW  OW  HW  HW  OW  HW  HW  OW  HW  HW  OW  HW  HW  OW  HW  HW  
OW  HW  HW  OW  HW  HW  OW  HW  HW  OW  HW  HW  OW  HW  HW  OW  HW  HW  OW  HW  
HW  OW  HW  HW  OW  HW  HW  OW  HW  HW  OW  HW  HW  OW  HW  HW  OW  HW  HW  OW  
HW  HW  OW  HW  HW  OW  HW  HW  OW  HW  HW  OW  HW  HW  OW  HW  HW  OW  HW  HW  
OW  HW  HW  OW  HW  HW  OW  HW  HW  OW  HW  HW  OW  HW  HW  OW  HW  HW  OW  HW  
HW  OW  HW  HW  OW  HW  HW  OW  HW  HW  OW  HW  HW  OW  HW  HW  OW  HW  HW  OW  
HW  HW  OW  HW  HW  OW  HW  HW  OW  HW  HW  OW  HW  HW  OW  HW  HW  OW  HW  HW  
OW  HW  HW  OW  HW  HW  OW  HW  HW  OW  HW  HW  OW  HW  HW  OW  HW  HW  OW  HW  
HW  OW  HW  HW  OW  HW  HW  OW  HW  HW  OW  HW  HW  OW  HW  HW  OW  HW  HW  OW  
HW  HW  OW  HW  HW  OW  HW  HW  OW  HW  HW  OW  HW  HW  OW  HW  HW  OW  HW  HW  
OW  HW  HW  OW  HW  HW  OW  HW  HW  OW  HW  HW  OW  HW  HW  OW  HW  HW  OW  HW  
HW  OW  HW  HW  OW  HW  HW  OW  HW  HW  OW  HW  HW  OW  HW  HW  OW  HW  HW  OW  
HW  HW  OW  HW  HW  OW  HW  HW  OW  HW  HW  OW  HW  HW  OW  HW  HW  OW  HW  HW  
OW  HW  HW  OW  HW  HW  OW  HW  HW  OW  HW  HW  OW  HW  HW  OW  HW  HW  OW  HW  
HW  OW  HW  HW  OW  HW  HW  OW  HW  HW  OW  HW  HW  OW  HW  HW  OW  HW  HW  OW  
HW  HW  OW  HW  HW  OW  HW  HW  OW  HW  HW  OW  HW  HW  OW  HW  HW  OW  HW  HW  
OW  HW  HW  OW  HW  HW  OW  HW  HW  OW  HW  HW  OW  HW  HW  OW  HW  HW  OW  HW  
HW  OW  HW  HW  OW  HW  HW  OW  HW  HW  OW  HW  HW  OW  HW  HW  OW  HW  HW  OW  
HW  HW  OW  HW  HW  OW  HW  HW  OW  HW  HW  OW  HW  HW  OW  HW  HW  OW  HW  HW  
OW  HW  HW  OW  HW  HW  OW  HW  HW  OW  HW  HW  OW  HW  HW  OW  HW  HW  OW  HW  
HW  OW  HW  HW  OW  HW  HW  OW  HW  HW  OW  HW  HW  OW  HW  HW  OW  HW  HW  OW  
HW  HW  OW  HW  HW  OW  HW  HW  OW  HW  HW  OW  HW  HW  OW  HW  HW  OW  HW  HW  
OW  HW  HW  OW  HW  HW  OW  HW  HW  OW  HW  HW  OW  HW  HW  OW  HW  HW  OW  HW  
HW  OW  HW  HW  OW  HW  HW  OW  HW  HW  OW  HW  HW  OW  HW  HW  OW  HW  HW  OW  
HW  HW  OW  HW  HW  OW  HW  HW  OW  HW  HW  OW  HW  HW  OW  HW  HW  OW  HW  HW  
OW  HW  HW  OW  HW  HW  OW  HW  HW  OW  HW  HW  OW  HW  HW  OW  HW  HW  OW  HW  
HW  OW  HW  HW  OW  HW  HW  OW  HW  HW  OW  HW  HW  OW  HW  HW  OW  HW  HW  OW  
HW  HW  OW  HW  HW  OW  HW  HW  OW  HW  HW  OW  HW  HW  OW  HW  HW  OW  HW  HW  
OW  HW  HW  OW  HW  HW  OW  HW  HW  OW  HW  HW  OW  HW  HW  OW  HW  HW  OW  HW  
HW  OW  HW  HW  OW  HW  HW  OW  HW  HW  OW  HW  HW  OW  HW  HW  OW  HW  HW  OW  
HW  HW  OW  HW  HW  OW  HW  HW  OW  HW  HW  OW  HW  HW  OW  HW  HW  OW  HW  HW  
OW  HW  HW  OW  HW  HW  OW  HW  HW  OW  HW  HW  OW  HW  HW  OW  HW  HW  OW  HW  
HW  OW  HW  HW  OW  HW  HW  OW  HW  HW  OW  HW  HW  OW  HW  HW  OW  HW  HW  OW  
HW  HW  OW  HW  HW  OW  HW  HW  OW  HW  HW  OW  HW  HW  OW  HW  HW  OW  HW  HW  
OW  HW  HW  OW  HW  HW  OW  HW  HW  OW  HW  HW  OW  HW  HW  OW  HW  HW  OW  HW  
HW  OW  HW  HW  OW  HW  HW  OW  HW  HW  OW  HW  HW  OW  HW  HW  OW  HW  HW  OW  
HW  HW  OW  HW  HW  OW  HW  HW  OW  HW  HW  OW  HW  HW  OW  HW  HW  OW  HW  HW  
OW  HW  HW  OW  HW  HW  OW  HW  HW  OW  HW  HW  OW  HW  HW  OW  HW  HW  OW  HW  
HW  OW  HW  HW  OW  HW  HW  OW  HW  HW  OW  HW  HW  OW  HW  HW  OW  HW  HW  OW  
HW  HW  OW  HW  HW  OW  HW  HW  OW  HW  HW  OW  HW  HW  OW  HW  HW  OW  HW  HW  
OW  HW  HW  OW  HW  HW  OW  HW  HW  OW  HW  HW  OW  HW  HW  OW  HW  HW  OW  HW  
HW  OW  HW  HW  OW  HW  HW  OW  HW  HW  OW  HW  HW  OW  HW  HW  OW  HW  HW  OW  
HW  HW  OW  HW  HW  OW  HW  HW  OW  HW  HW  OW  HW  HW  OW  HW  HW  OW  HW  HW  
OW  HW  HW  OW  HW  HW  OW  HW  HW  OW  HW  HW  OW  HW  HW  OW  HW  HW  OW  HW  
HW  OW  HW  HW  OW  HW  HW  OW  HW  HW  OW  HW  HW  OW  HW  HW  OW  HW  HW  OW  
HW  HW  OW  HW  HW  OW  HW  HW  OW  HW  HW  OW  HW  HW  OW  HW  HW  OW  HW  HW  
OW  HW  HW  OW  HW  HW  OW  HW  HW  OW  HW  HW  OW  HW  HW  OW  HW  HW  OW  HW  
HW  OW  HW  HW  OW  HW  HW  OW  HW  HW  OW  HW  HW  OW  HW  HW  OW  HW  HW  OW  
HW  HW  OW  HW  HW  OW  HW  HW  OW  HW  HW  OW  HW  HW  OW  HW  HW  OW  HW  HW  
OW  HW  HW  OW  HW  HW  OW  HW  HW  OW  HW  HW  OW  HW  HW  OW  HW  HW  OW  HW  
HW  OW  HW  HW  OW  HW  HW  OW  HW  HW  OW  HW  HW  OW  HW  HW  OW  HW  HW  OW  
HW  HW  OW  HW  HW  OW  HW  HW  OW  HW  HW  OW  HW  HW  OW  HW  HW  OW  HW  HW  
OW  HW  HW  OW  HW  HW  OW  HW  HW  OW  HW  HW  OW  HW  HW  OW  HW  HW  OW  HW  
HW  OW  HW  HW  OW  HW  HW  OW  HW  HW  OW  HW  HW  OW  HW  HW  OW  HW  HW  OW  
HW  HW  OW  HW  HW  OW  HW  HW  OW  HW  HW  OW  HW  HW  OW  HW  HW  OW  HW  HW  
OW  HW  HW  OW  HW  HW  OW  HW  HW  OW  HW  HW  OW  HW  HW  OW  HW  HW  OW  HW  
HW  OW  HW  HW  OW  HW  HW  OW  HW  HW  OW  HW  HW  OW  HW  HW  OW  HW  HW  OW  
HW  HW  OW  HW  HW  OW  HW  HW  OW  HW  HW  OW  HW  HW  OW  HW  HW  OW  HW  HW  
OW  HW  HW  OW  HW  HW  OW  HW  HW  OW  HW  HW  OW  HW  HW  OW  HW  HW  OW  HW  
HW  OW  HW  HW  OW  HW  HW  OW  HW  HW  OW  HW  HW  OW  HW  HW  OW  HW  HW  OW  
HW  HW  OW  HW  HW  OW  HW  HW  OW  HW  HW  OW  HW  HW  OW  HW  HW  OW  HW  HW  
OW  HW  HW  OW  HW  HW  OW  HW  HW  OW  HW  HW  OW  HW  HW  OW  HW  HW  OW  HW  
HW  OW  HW  HW  OW  HW  HW  OW  HW  HW  OW  HW  HW  OW  HW  HW  OW  HW  HW  OW  
HW  HW  OW  HW  HW  OW  HW  HW  OW  HW  HW  OW  HW  HW  OW  HW  HW  OW  HW  HW  
OW  HW  HW  OW  HW  HW  OW  HW  HW  OW  HW  HW  OW  HW  HW  OW  HW  HW  OW  HW  
HW  OW  HW  HW  OW  HW  HW  OW  HW  HW  OW  HW  HW  OW  HW  HW  OW  HW  HW  OW  
HW  HW  OW  HW  HW  OW  HW  HW  OW  HW  HW  OW  HW  HW  OW  HW  HW  OW  HW  HW  
OW  HW  HW  OW  HW  HW  OW  HW  HW  OW  HW  HW  OW  HW  HW  OW  HW  HW  OW  HW  
HW  OW  HW  HW  OW  HW  HW  OW  HW  HW  OW  HW  HW  OW  HW  HW  OW  HW  HW  OW  
HW  HW  OW  HW  HW  OW  HW  HW  OW  HW  HW  OW  HW  HW  OW  HW  HW  OW  HW  HW  
OW  HW  HW  OW  HW  HW  OW  HW  HW  OW  HW  HW  OW  HW  HW  OW  HW  HW  OW  HW  
HW  OW  HW  HW  OW  HW  HW  OW  HW  HW  OW  HW  HW  OW  HW  HW  OW  HW  HW  OW  
HW  HW  OW  HW  HW  OW  HW  HW  OW  HW  HW  OW  HW  HW  OW  HW  HW  OW  HW  HW  
OW  HW  HW  OW  HW  HW  OW  HW  HW  OW  HW  HW  OW  HW  HW  OW  HW  HW  OW  HW  
HW  OW  HW  HW  OW  HW  HW  OW  HW  HW  OW  HW  HW  OW  HW  HW  OW  HW  HW  OW  
HW  HW  OW  HW  HW  OW  HW  HW  OW  HW  HW  OW  HW  HW  OW  HW  HW  OW  HW  HW  
OW  HW  HW  OW  HW  HW  OW  HW  HW  OW  HW  HW  OW  HW  HW  OW  HW  HW  OW  HW  
HW  OW  HW  HW  OW  HW  HW  OW  HW  HW  OW  HW  HW  OW  HW  HW  OW  HW  HW  OW  
HW  HW  OW  HW  HW  OW  HW  HW  OW  HW  HW  OW  HW  HW  OW  HW  HW  OW  HW  HW  
OW  HW  HW  OW  HW  HW  OW  HW  HW  OW  HW  HW  OW  HW  HW  OW  HW  HW  OW  HW  
HW  OW  HW  HW  OW  HW  HW  OW  HW  HW  OW  HW  HW  OW  HW  HW  OW  HW  HW  OW  
HW  HW  OW  HW  HW  OW  HW  HW  OW  HW  HW  OW  HW  HW  OW  HW  HW  OW  HW  HW  
OW  HW  HW  OW  HW  HW  OW  HW  HW  OW  HW  HW  OW  HW  HW  OW  HW  HW  OW  HW  
HW  OW  HW  HW  OW  HW  HW  OW  HW  HW  OW  HW  HW  OW  HW  HW  OW  HW  HW  OW  
HW  HW  OW  HW  HW  OW  HW  HW  OW  HW  HW  OW  HW  HW  OW  HW  HW  OW  HW  HW  
OW  HW  HW  OW  HW  HW  OW  HW  HW  OW  HW  HW  OW  HW  HW  OW  HW  HW  OW  HW  
HW  OW  HW  HW  OW  HW  HW  OW  HW  HW  OW  HW  HW  OW  HW  HW  OW  HW  HW  OW  
HW  HW  OW  HW  HW  OW  HW  HW  OW  HW  HW  OW  HW  HW  OW  HW  HW  OW  HW  HW  
OW  HW  HW  OW  HW  HW  OW  HW  HW  OW  HW  HW  OW  HW  HW  OW  HW  HW  OW  HW  
HW  OW  HW  HW  OW  HW  HW  OW  HW  HW  OW  HW  HW  OW  HW  HW  OW  HW  HW  OW  
HW  HW  OW  HW  HW  OW  HW  HW  OW  HW  HW  OW  HW  HW  OW  HW  HW  OW  HW  HW  
OW  HW  HW  OW  HW  HW  OW  HW  HW  OW  HW  HW  OW  HW  HW  OW  HW  HW  OW  HW  
HW  OW  HW  HW  OW  HW  HW  OW  HW  HW  OW  HW  HW  OW  HW  HW  OW  HW  HW  OW  
HW  HW  OW  HW  HW  OW  HW  HW  OW  HW  HW  OW  HW  HW  OW  HW  HW  OW  HW  HW  
OW  HW  HW  OW  HW  HW  OW  HW  HW  OW  HW  HW  OW  HW  HW  OW  HW  HW  OW  HW  
HW  OW  HW  HW  OW  HW  HW  OW  HW  HW  OW  HW  HW  OW  HW  HW  OW  HW  HW  OW  
HW  HW  OW  HW  HW  OW  HW  HW  OW  HW  HW  OW  HW  HW  OW  HW  HW  OW  HW  HW  
OW  HW  HW  OW  HW  HW  OW  HW  HW  OW  HW  HW  OW  HW  HW  OW  HW  HW  OW  HW  
HW  OW  HW  HW  OW  HW  HW  OW  HW  HW  OW  HW  HW  OW  HW  HW  OW  HW  HW  OW  
HW  HW  OW  HW  HW  OW  HW  HW  OW  HW  HW  OW  HW  HW  OW  HW  HW  OW  HW  HW  
OW  HW  HW  OW  HW  HW  OW  HW  HW  OW  HW  HW  OW  HW  HW  OW  HW  HW  OW  HW  
HW  OW  HW  HW  OW  HW  HW  OW  HW  HW  OW  HW  HW  OW  HW  HW  OW  HW  HW  OW  
HW  HW  OW  HW  HW  OW  HW  HW  OW  HW  HW  OW  HW  HW  OW  HW  HW  OW  HW  HW  
OW  HW  HW  OW  HW  HW  OW  HW  HW  OW  HW  HW  OW  HW  HW  OW  HW  HW  OW  HW  
HW  OW  HW  HW  OW  HW  HW  OW  HW  HW  OW  HW  HW  OW  HW  HW  OW  HW  HW  OW  
HW  HW  OW  HW  HW  OW  HW  HW  OW  HW  HW  OW  HW  HW  OW  HW  HW  OW  HW  HW  
OW  HW  HW  OW  HW  HW  OW  HW  HW  OW  HW  HW  OW  HW  HW  OW  HW  HW  OW  HW  
HW  OW  HW  HW  OW  HW  HW  OW  HW  HW  OW  HW  HW  OW  HW  HW  OW  HW  HW  OW  
HW  HW  OW  HW  HW  OW  HW  HW  OW  HW  HW  OW  HW  HW  OW  HW  HW  OW  HW  HW  
OW  HW  HW  OW  HW  HW  OW  HW  HW  OW  HW  HW  OW  HW  HW  OW  HW  HW  OW  HW  
HW  OW  HW  HW  OW  HW  HW  OW  HW  HW  OW  HW  HW  OW  HW  HW  OW  HW  HW  OW  
HW  HW  OW  HW  HW  OW  HW  HW  OW  HW  HW  OW  HW  HW  OW  HW  HW  OW  HW  HW  
OW  HW  HW  OW  HW  HW  OW  HW  HW  OW  HW  HW  OW  HW  HW  OW  HW  HW  OW  HW  
HW  OW  HW  HW  OW  HW  HW  OW  HW  HW  OW  HW  HW  OW  HW  HW  OW  HW  HW  OW  
HW  HW  OW  HW  HW  OW  HW  HW  OW  HW  HW  OW  HW  HW  OW  HW  HW  OW  HW  HW  
OW  HW  HW  OW  HW  HW  OW  HW  HW  OW  HW  HW  OW  HW  HW  OW  HW  HW  OW  HW  
HW  OW  HW  HW  OW  HW  HW  OW  HW  HW  OW  HW  HW  OW  HW  HW  OW  HW  HW  OW  
HW  HW  OW  HW  HW  OW  HW  HW  OW  HW  HW  OW  HW  HW  OW  HW  HW  OW  HW  HW  
OW  HW  HW  OW  HW  HW  OW  HW  HW  OW  HW  HW  OW  HW  HW  OW  HW  HW  OW  HW  
HW  OW  HW  HW  OW  HW  HW  OW  HW  HW  OW  HW  HW  OW  HW  HW  OW  HW  HW  OW  
HW  HW  OW  HW  HW  OW  HW  HW  OW  HW  HW  OW  HW  HW  OW  HW  HW  OW  HW  HW  
OW  HW  HW  OW  HW  HW  OW  HW  HW  OW  HW  HW  OW  HW  HW  OW  HW  HW  OW  HW  
HW  OW  HW  HW  OW  HW  HW  OW  HW  HW  OW  HW  HW  OW  HW  HW  OW  HW  HW  OW  
HW  HW  OW  HW  HW  OW  HW  HW  OW  HW  HW  OW  HW  HW  OW  HW  HW  OW  HW  HW  
OW  HW  HW  OW  HW  HW  OW  HW  HW  OW  HW  HW  OW  HW  HW  OW  HW  HW  OW  HW  
HW  OW  HW  HW  OW  HW  HW  OW  HW  HW  OW  HW  HW  OW  HW  HW  OW  HW  HW  OW  
HW  HW  OW  HW  HW  OW  HW  HW  OW  HW  HW  OW  HW  HW  OW  HW  HW  OW  HW  HW  
OW  HW  HW  OW  HW  HW  OW  HW  HW  OW  HW  HW  OW  HW  HW  OW  HW  HW  OW  HW  
HW  OW  HW  HW  OW  HW  HW  OW  HW  HW  OW  HW  HW  OW  HW  HW  OW  HW  HW  OW  
HW  HW  OW  HW  HW  OW  HW  HW  OW  HW  HW  OW  HW  HW  OW  HW  HW  OW  HW  HW  
OW  HW  HW  OW  HW  HW  OW  HW  HW  OW  HW  HW  OW  HW  HW  OW  HW  HW  OW  HW  
HW  OW  HW  HW  OW  HW  HW  OW  HW  HW  OW  HW  HW  OW  HW  HW  OW  HW  HW  OW  
HW  HW  OW  HW  HW  OW  HW  HW  OW  HW  HW  OW  HW  HW  OW  HW  HW  OW  HW  HW  
OW  HW  HW  OW  HW  HW  OW  HW  HW  OW  HW  HW  OW  HW  HW  OW  HW  HW  OW  HW  
HW  OW  HW  HW  OW  HW  HW  OW  HW  HW  OW  HW  HW  OW  HW  HW  OW  HW  HW  OW  
HW  HW  OW  HW  HW  OW  HW  HW  OW  HW  HW  OW  HW  HW  OW  HW  HW  OW  HW  HW  
OW  HW  HW  OW  HW  HW  OW  HW  HW  OW  HW  HW  OW  HW  HW  OW  HW  HW  OW  HW  
HW  OW  HW  HW  OW  HW  HW  OW  HW  HW  OW  HW  HW  OW  HW  HW  OW  HW  HW  OW  
HW  HW  OW  HW  HW  OW  HW  HW  OW  HW  HW  OW  HW  HW  OW  HW  HW  OW  HW  HW  
OW  HW  HW  OW  HW  HW  OW  HW  HW  OW  HW  HW  OW  HW  HW  OW  HW  HW  OW  HW  
HW  OW  HW  HW  OW  HW  HW  OW  HW  HW  OW  HW  HW  OW  HW  HW  OW  HW  HW  OW  
HW  HW  OW  HW  HW  OW  HW  HW  OW  HW  HW  OW  HW  HW  OW  HW  HW  OW  HW  HW  
OW  HW  HW  OW  HW  HW  OW  HW  HW  OW  HW  HW  OW  HW  HW  OW  HW  HW  OW  HW  
HW  OW  HW  HW  OW  HW  HW  OW  HW  HW  OW  HW  HW  OW  HW  HW  OW  HW  HW  OW  
HW  HW  OW  HW  HW  OW  HW  HW  OW  HW  HW  OW  HW  HW  OW  HW  HW  OW  HW  HW  
OW  HW  HW  OW  HW  HW  OW  HW  HW  OW  HW  HW  OW  HW  HW  OW  HW  HW  OW  HW  
HW  OW  HW  HW  OW  HW  HW  OW  HW  HW  OW  HW  HW  OW  HW  HW  OW  HW  HW  OW  
HW  HW  OW  HW  HW  OW  HW  HW  OW  HW  HW  OW  HW  HW  OW  HW  HW  OW  HW  HW  
OW  HW  HW  OW  HW  HW  OW  HW  HW  OW  HW  HW  OW  HW  HW  OW  HW  HW  OW  HW  
HW  OW  HW  HW  OW  HW  HW  OW  HW  HW  OW  HW  HW  OW  HW  HW  OW  HW  HW  OW  
HW  HW  OW  HW  HW  OW  HW  HW  OW  HW  HW  OW  HW  HW  OW  HW  HW  OW  HW  HW  
OW  HW  HW  OW  HW  HW  OW  HW  HW  OW  HW  HW  OW  HW  HW  OW  HW  HW  OW  HW  
HW  OW  HW  HW  OW  HW  HW  OW  HW  HW  OW  HW  HW  OW  HW  HW  OW  HW  HW  OW  
HW  HW  OW  HW  HW  OW  HW  HW  OW  HW  HW  OW  HW  HW  OW  HW  HW  OW  HW  HW  
OW  HW  HW  OW  HW  HW  OW  HW  HW  OW  HW  HW  OW  HW  HW  OW  HW  HW  OW  HW  
HW  OW  HW  HW  OW  HW  HW  OW  HW  HW  OW  HW  HW  OW  HW  HW  OW  HW  HW  OW  
HW  HW  OW  HW  HW  OW  HW  HW  OW  HW  HW  OW  HW  HW  OW  HW  HW  OW  HW  HW  
OW  HW  HW  OW  HW  HW  OW  HW  HW  OW  HW  HW  OW  HW  HW  OW  HW  HW  OW  HW  
HW  OW  HW  HW  OW  HW  HW  OW  HW  HW  OW  HW  HW  OW  HW  HW  OW  HW  HW  OW  
HW  HW  OW  HW  HW  OW  HW  HW  OW  HW  HW  OW  HW  HW  OW  HW  HW  OW  HW  HW  
OW  HW  HW  OW  HW  HW  OW  HW  HW  OW  HW  HW  OW  HW  HW  OW  HW  HW  OW  HW  
HW  OW  HW  HW  OW  HW  HW  OW  HW  HW  OW  HW  HW  OW  HW  HW  OW  HW  HW  OW  
HW  HW  OW  HW  HW  OW  HW  HW  OW  HW  HW  OW  HW  HW  OW  HW  HW  OW  HW  HW  
OW  HW  HW  OW  HW  HW  OW  HW  HW  OW  HW  HW  OW  HW  HW  OW  HW  HW  OW  HW  
HW  OW  HW  HW  OW  HW  HW  OW  HW  HW  OW  HW  HW  OW  HW  HW  OW  HW  HW  OW  
HW  HW  OW  HW  HW  OW  HW  HW  OW  HW  HW  OW  HW  HW  OW  HW  HW  OW  HW  HW  
OW  HW  HW  OW  HW  HW  OW  HW  HW  OW  HW  HW  OW  HW  HW  OW  HW  HW  OW  HW  
HW  OW  HW  HW  OW  HW  HW  OW  HW  HW  OW  HW  HW  OW  HW  HW  OW  HW  HW  OW  
HW  HW  OW  HW  HW  OW  HW  HW  OW  HW  HW  OW  HW  HW  OW  HW  HW  OW  HW  HW  
OW  HW  HW  OW  HW  HW  OW  HW  HW  OW  HW  HW  OW  HW  HW  OW  HW  HW  OW  HW  
HW  OW  HW  HW  OW  HW  HW  OW  HW  HW  OW  HW  HW  OW  HW  HW  OW  HW  HW  OW  
HW  HW  OW  HW  HW  OW  HW  HW  OW  HW  HW  OW  HW  HW  OW  HW  HW  OW  HW  HW  
OW  HW  HW  OW  HW  HW  OW  HW  HW  OW  HW  HW  OW  HW  HW  OW  HW  HW  OW  HW  
HW  OW  HW  HW  OW  HW  HW  OW  HW  HW  OW  HW  HW  OW  HW  HW  OW  HW  HW  OW  
HW  HW  OW  HW  HW  OW  HW  HW  OW  HW  HW  OW  HW  HW  OW  HW  HW  OW  HW  HW  
OW  HW  HW  OW  HW  HW  OW  HW  HW  OW  HW  HW  OW  HW  HW  OW  HW  HW  OW  HW  
HW  OW  HW  HW  OW  HW  HW  OW  HW  HW  OW  HW  HW  OW  HW  HW  OW  HW  HW  OW  
HW  HW  OW  HW  HW  OW  HW  HW  OW  HW  HW  OW  HW  HW  OW  HW  HW  OW  HW  HW  
OW  HW  HW  OW  HW  HW  OW  HW  HW  OW  HW  HW  OW  HW  HW  OW  HW  HW  OW  HW  
HW  OW  HW  HW  OW  HW  HW  OW  HW  HW  OW  HW  HW  OW  HW  HW  OW  HW  HW  OW  
HW  HW  OW  HW  HW  OW  HW  HW  OW  HW  HW  OW  HW  HW  OW  HW  HW  OW  HW  HW  
OW  HW  HW  OW  HW  HW  OW  HW  HW  OW  HW  HW  OW  HW  HW  OW  HW  HW  OW  HW  
HW  OW  HW  HW  OW  HW  HW  OW  HW  HW  OW  HW  HW  OW  HW  HW  OW  HW  HW  OW  
HW  HW  OW  HW  HW  OW  HW  HW  OW  HW  HW  OW  HW  HW  OW  HW  HW  OW  HW  HW  
OW  HW  HW  OW  HW  HW  OW  HW  HW  OW  HW  HW  OW  HW  HW  OW  HW  HW  OW  HW  
HW  OW  HW  HW  OW  HW  HW  OW  HW  HW  OW  HW  HW  OW  HW  HW  OW  HW  HW  OW  
HW  HW  OW  HW  HW  OW  HW  HW  OW  HW  HW  OW  HW  HW  OW  HW  HW  OW  HW  HW  
OW  HW  HW  OW  HW  HW  OW  HW  HW  OW  HW  HW  OW  HW  HW  OW  HW  HW  OW  HW  
HW  OW  HW  HW  OW  HW  HW  OW  HW  HW  OW  HW  HW  OW  HW  HW  OW  HW  HW  OW  
HW  HW  OW  HW  HW  OW  HW  HW  OW  HW  HW  OW  HW  HW  OW  HW  HW  OW  HW  HW  
OW  HW  HW  OW  HW  HW  OW  HW  HW  OW  HW  HW  OW  HW  HW  OW  HW  HW  OW  HW  
HW  OW  HW  HW  OW  HW  HW  OW  HW  HW  OW  HW  HW  OW  HW  HW  OW  HW  HW  OW  
HW  HW  OW  HW  HW  OW  HW  HW  OW  HW  HW  OW  HW  HW  OW  HW  HW  OW  HW  HW  
OW  HW  HW  OW  HW  HW  OW  HW  HW  OW  HW  HW  OW  HW  HW  OW  HW  HW  OW  HW  
HW  OW  HW  HW  OW  HW  HW  OW  HW  HW  OW  HW  HW  OW  HW  HW  OW  HW  HW  OW  
HW  HW  OW  HW  HW  OW  HW  HW  OW  HW  HW  OW  HW  HW  OW  HW  HW  OW  HW  HW  
OW  HW  HW  OW  HW  HW  OW  HW  HW  OW  HW  HW  OW  HW  HW  OW  HW  HW  OW  HW  
HW  OW  HW  HW  OW  HW  HW  OW  HW  HW  OW  HW  HW  OW  HW  HW  OW  HW  HW  OW  
HW  HW  OW  HW  HW  OW  HW  HW  OW  HW  HW  OW  HW  HW  OW  HW  HW  OW  HW  HW  
OW  HW  HW  OW  HW  HW  OW  HW  HW  OW  HW  HW  OW  HW  HW  OW  HW  HW  OW  HW  
HW  OW  HW  HW  OW  HW  HW  OW  HW  HW  OW  HW  HW  OW  HW  HW  OW  HW  HW  OW  
HW  HW  OW  HW  HW  OW  HW  HW  OW  HW  HW  OW  HW  HW  OW  HW  HW  OW  HW  HW  
OW  HW  HW  OW  HW  HW  OW  HW  HW  OW  HW  HW  OW  HW  HW  OW  HW  HW  OW  HW  
HW  OW  HW  HW  OW  HW  HW  OW  HW  HW  OW  HW  HW  OW  HW  HW  OW  HW  HW  OW  
HW  HW  OW  HW  HW  OW  HW  HW  OW  HW  HW  OW  HW  HW  OW  HW  HW  OW  HW  HW  
OW  HW  HW  OW  HW  HW  OW  HW  HW  OW  HW  HW  OW  HW  HW  OW  HW  HW  OW  HW  
HW  OW  HW  HW  OW  HW  HW  OW  HW  HW  OW  HW  HW  OW  HW  HW  OW  HW  HW  OW  
HW  HW  OW  HW  HW  OW  HW  HW  OW  HW  HW  OW  HW  HW  OW  HW  HW  OW  HW  HW  
OW  HW  HW  OW  HW  HW  OW  HW  HW  OW  HW  HW  OW  HW  HW  OW  HW  HW  OW  HW  
HW  OW  HW  HW  OW  HW  HW  OW  HW  HW  OW  HW  HW  OW  HW  HW  OW  HW  HW  OW  
HW  HW  OW  HW  HW  OW  HW  HW  OW  HW  HW  OW  HW  HW  OW  HW  HW  OW  HW  HW  
OW  HW  HW  OW  HW  HW  OW  HW  HW  OW  HW  HW  OW  HW  HW  OW  HW  HW  OW  HW  
HW  OW  HW  HW  OW  HW  HW  OW  HW  HW  OW  HW  HW  OW  HW  HW  OW  HW  HW  OW  
HW  HW  OW  HW  HW  OW  HW  HW  OW  HW  HW  OW  HW  HW  OW  HW  HW  OW  HW  HW  
OW  HW  HW  OW  HW  HW  OW  HW  HW  OW  HW  HW  OW  HW  HW  OW  HW  HW  OW  HW  
HW  OW  HW  HW  OW  HW  HW  OW  HW  HW  OW  HW  HW  OW  HW  HW  OW  HW  HW  OW  
HW  HW  OW  HW  HW  OW  HW  HW  OW  HW  HW  OW  HW  HW  OW  HW  HW  OW  HW  HW  
OW  HW  HW  OW  HW  HW  OW  HW  HW  OW  HW  HW  OW  HW  HW  OW  HW  HW  OW  HW  
HW  OW  HW  HW  OW  HW  HW  OW  HW  HW  OW  HW  HW  OW  HW  HW  OW  HW  HW  OW  
HW  HW  OW  HW  HW  OW  HW  HW  OW  HW  HW  OW  HW  HW  OW  HW  HW  OW  HW  HW  
OW  HW  HW  OW  HW  HW  OW  HW  HW  OW  HW  HW  OW  HW  HW  OW  HW  HW  OW  HW  
HW  OW  HW  HW  OW  HW  HW  OW  HW  HW  OW  HW  HW  OW  HW  HW  OW  HW  HW  OW  
HW  HW  OW  HW  HW  OW  HW  HW  OW  HW  HW  OW  HW  HW  OW  HW  HW  OW  HW  HW  
OW  HW  HW  OW  HW  HW  OW  HW  HW  OW  HW  HW  OW  HW  HW  OW  HW  HW  OW  HW  
HW  OW  HW  HW  OW  HW  HW  OW  HW  HW  OW  HW  HW  OW  HW  HW  OW  HW  HW  OW  
HW  HW  OW  HW  HW  OW  HW  HW  OW  HW  HW  OW  HW  HW  OW  HW  HW  OW  HW  HW  
OW  HW  HW  OW  HW  HW  OW  HW  HW  OW  HW  HW  OW  HW  HW  OW  HW  HW  OW  HW  
HW  OW  HW  HW  OW  HW  HW  OW  HW  HW  OW  HW  HW  OW  HW  HW  OW  HW  HW  OW  
HW  HW  OW  HW  HW  OW  HW  HW  OW  HW  HW  OW  HW  HW  OW  HW  HW  OW  HW  HW  
OW  HW  HW  OW  HW  HW  OW  HW  HW  OW  HW  HW  OW  HW  HW  OW  HW  HW  OW  HW  
HW  OW  HW  HW  OW  HW  HW  OW  HW  HW  OW  HW  HW  OW  HW  HW  OW  HW  HW  OW  
HW  HW  OW  HW  HW  OW  HW  HW  OW  HW  HW  OW  HW  HW  OW  HW  HW  OW  HW  HW  
OW  HW  HW  OW  HW  HW  OW  HW  HW  OW  HW  HW  OW  HW  HW  OW  HW  HW  OW  HW  
HW  OW  HW  HW  OW  HW  HW  OW  HW  HW  OW  HW  HW  OW  HW  HW  OW  HW  HW  OW  
HW  HW  OW  HW  HW  OW  HW  HW  OW  HW  HW  OW  HW  HW  OW  HW  HW  OW  HW  HW  
OW  HW  HW  OW  HW  HW  OW  HW  HW  OW  HW  HW  OW  HW  HW  OW  HW  HW  OW  HW  
HW  OW  HW  HW  OW  HW  HW  OW  HW  HW  OW  HW  HW  OW  HW  HW  OW  HW  HW  OW  
HW  HW  OW  HW  HW  OW  HW  HW  OW  HW  HW  OW  HW  HW  OW  HW  HW  OW  HW  HW  
OW  HW  HW  OW  HW  HW  OW  HW  HW  OW  HW  HW  OW  HW  HW  OW  HW  HW  OW  HW  
HW  OW  HW  HW  OW  HW  HW  OW  HW  HW  OW  HW  HW  OW  HW  HW  OW  HW  HW  OW  
HW  HW  OW  HW  HW  OW  HW  HW  OW  HW  HW  OW  HW  HW  OW  HW  HW  OW  HW  HW  
OW  HW  HW  OW  HW  HW  OW  HW  HW  OW  HW  HW  OW  HW  HW  OW  HW  HW  OW  HW  
HW  OW  HW  HW  OW  HW  HW  OW  HW  HW  OW  HW  HW  OW  HW  HW  OW  HW  HW  OW  
HW  HW  OW  HW  HW  OW  HW  HW  OW  HW  HW  OW  HW  HW  OW  HW  HW  OW  HW  HW  
OW  HW  HW  OW  HW  HW  OW  HW  HW  OW  HW  HW  OW  HW  HW  OW  HW  HW  OW  HW  
HW  OW  HW  HW  OW  HW  HW  OW  HW  HW  OW  HW  HW  OW  HW  HW  OW  HW  HW  OW  
HW  HW  OW  HW  HW  OW  HW  HW  OW  HW  HW  OW  HW  HW  OW  HW  HW  OW  HW  HW  
OW  HW  HW  OW  HW  HW  OW  HW  HW  OW  HW  HW  OW  HW  HW  OW  HW  HW  OW  HW  
HW  OW  HW  HW  OW  HW  HW  OW  HW  HW  OW  HW  HW  OW  HW  HW  OW  HW  HW  OW  
HW  HW  OW  HW  HW  OW  HW  HW  OW  HW  HW  OW  HW  HW  OW  HW  HW  OW  HW  HW  
OW  HW  HW  OW  HW  HW  OW  HW  HW  OW  HW  HW  OW  HW  HW  OW  HW  HW  OW  HW  
HW  OW  HW  HW  OW  HW  HW  OW  HW  HW  OW  HW  HW  OW  HW  HW  OW  HW  HW  OW  
HW  HW  OW  HW  HW  OW  HW  HW  OW  HW  HW  OW  HW  HW  OW  HW  HW  OW  HW  HW  
OW  HW  HW  OW  HW  HW  OW  HW  HW  OW  HW  HW  OW  HW  HW  OW  HW  HW  OW  HW  
HW  OW  HW  HW  OW  HW  HW  OW  HW  HW  OW  HW  HW  OW  HW  HW  OW  HW  HW  OW  
HW  HW  OW  HW  HW  OW  HW  HW  OW  HW  HW  OW  HW  HW  OW  HW  HW  OW  HW  HW  
OW  HW  HW  OW  HW  HW  OW  HW  HW  OW  HW  HW  OW  HW  HW  OW  HW  HW  OW  HW  
HW  OW  HW  HW  OW  HW  HW  OW  HW  HW  OW  HW  HW  OW  HW  HW  OW  HW  HW  OW  
HW  HW  OW  HW  HW  OW  HW  HW  OW  HW  HW  OW  HW  HW  OW  HW  HW  OW  HW  HW  
OW  HW  HW  OW  HW  HW  OW  HW  HW  OW  HW  HW  OW  HW  HW  OW  HW  HW  OW  HW  
HW  OW  HW  HW  OW  HW  HW  OW  HW  HW  OW  HW  HW  OW  HW  HW  OW  HW  HW  OW  
HW  HW  OW  HW  HW  OW  HW  HW  OW  HW  HW  OW  HW  HW  OW  HW  HW  OW  HW  HW  
OW  HW  HW  OW  HW  HW  OW  HW  HW  OW  HW  HW  OW  HW  HW  OW  HW  HW  OW  HW  
HW  OW  HW  HW  OW  HW  HW  OW  HW  HW  OW  HW  HW  OW  HW  HW  OW  HW  HW  OW  
HW  HW  OW  HW  HW  OW  HW  HW  OW  HW  HW  OW  HW  HW  OW  HW  HW  OW  HW  HW  
OW  HW  HW  OW  HW  HW  OW  HW  HW  OW  HW  HW  OW  HW  HW  OW  HW  HW  OW  HW  
HW  OW  HW  HW  OW  HW  HW  OW  HW  HW  OW  HW  HW  OW  HW  HW  OW  HW  HW  OW  
HW  HW  OW  HW  HW  OW  HW  HW  OW  HW  HW  OW  HW  HW  OW  HW  HW  OW  HW  HW  
OW  HW  HW  OW  HW  HW  OW  HW  HW  OW  HW  HW  OW  HW  HW  OW  HW  HW  OW  HW  
HW  OW  HW  HW  OW  HW  HW  OW  HW  HW  OW  HW  HW  OW  HW  HW  OW  HW  HW  OW  
HW  HW  OW  HW  HW  OW  HW  HW  OW  HW  HW  OW  HW  HW  OW  HW  HW  OW  HW  HW  
OW  HW  HW  OW  HW  HW  OW  HW  HW  OW  HW  HW  OW  HW  HW  OW  HW  HW  OW  HW  
HW  OW  HW  HW  OW  HW  HW  OW  HW  HW  OW  HW  HW  OW  HW  HW  OW  HW  HW  OW  
HW  HW  OW  HW  HW  OW  HW  HW  OW  HW  HW  OW  HW  HW  OW  HW  HW  OW  HW  HW  
OW  HW  HW  OW  HW  HW  OW  HW  HW  OW  HW  HW  OW  HW  HW  OW  HW  HW  OW  HW  
HW  OW  HW  HW  OW  HW  HW  OW  HW  HW  OW  HW  HW  OW  HW  HW  OW  HW  HW  OW  
HW  HW  OW  HW  HW  OW  HW  HW  OW  HW  HW  OW  HW  HW  OW  HW  HW  OW  HW  HW  
OW  HW  HW  OW  HW  HW  OW  HW  HW  OW  HW  HW  OW  HW  HW  OW  HW  HW  OW  HW  
HW  OW  HW  HW  OW  HW  HW  OW  HW  HW  OW  HW  HW  OW  HW  HW  OW  HW  HW  OW  
HW  HW  OW  HW  HW  OW  HW  HW  OW  HW  HW  OW  HW  HW  OW  HW  HW  OW  HW  HW  
OW  HW  HW  OW  HW  HW  OW  HW  HW  OW  HW  HW  OW  HW  HW  OW  HW  HW  OW  HW  
HW  OW  HW  HW  OW  HW  HW  OW  HW  HW  OW  HW  HW  OW  HW  HW  OW  HW  HW  OW  
HW  HW  OW  HW  HW  OW  HW  HW  OW  HW  HW  OW  HW  HW  OW  HW  HW  OW  HW  HW  
OW  HW  HW  OW  HW  HW  OW  HW  HW  OW  HW  HW  OW  HW  HW  OW  HW  HW  OW  HW  
HW  OW  HW  HW  OW  HW  HW  OW  HW  HW  OW  HW  HW  OW  HW  HW  OW  HW  HW  OW  
HW  HW  OW  HW  HW  OW  HW  HW  OW  HW  HW  OW  HW  HW  OW  HW  HW  OW  HW  HW  
OW  HW  HW  OW  HW  HW  OW  HW  HW  OW  HW  HW  OW  HW  HW  OW  HW  HW  OW  HW  
HW  OW  HW  HW  OW  HW  HW  OW  HW  HW  OW  HW  HW  OW  HW  HW  OW  HW  HW  OW  
HW  HW  OW  HW  HW  OW  HW  HW  OW  HW  HW  OW  HW  HW  OW  HW  HW  OW  HW  HW  
OW  HW  HW  OW  HW  HW  OW  HW  HW  OW  HW  HW  OW  HW  HW  OW  HW  HW  OW  HW  
HW  OW  HW  HW  OW  HW  HW  OW  HW  HW  OW  HW  HW  OW  HW  HW  OW  HW  HW  OW  
HW  HW  OW  HW  HW  OW  HW  HW  OW  HW  HW  OW  HW  HW  OW  HW  HW  OW  HW  HW  
OW  HW  HW  OW  HW  HW  OW  HW  HW  OW  HW  HW  OW  HW  HW  OW  HW  HW  OW  HW  
HW  OW  HW  HW  OW  HW  HW  OW  HW  HW  OW  HW  HW  OW  HW  HW  OW  HW  HW  OW  
HW  HW  OW  HW  HW  OW  HW  HW  OW  HW  HW  OW  HW  HW  OW  HW  HW  OW  HW  HW  
OW  HW  HW  OW  HW  HW  OW  HW  HW  OW  HW  HW  OW  HW  HW  OW  HW  HW  OW  HW  
HW  OW  HW  HW  OW  HW  HW  OW  HW  HW  OW  HW  HW  OW  HW  HW  OW  HW  HW  OW  
HW  HW  OW  HW  HW  OW  HW  HW  OW  HW  HW  OW  HW  HW  OW  HW  HW  OW  HW  HW  
OW  HW  HW  OW  HW  HW  OW  HW  HW  OW  HW  HW  OW  HW  HW  OW  HW  HW  OW  HW  
HW  OW  HW  HW  OW  HW  HW  OW  HW  HW  OW  HW  HW  OW  HW  HW  OW  HW  HW  OW  
HW  HW  OW  HW  HW  OW  HW  HW  OW  HW  HW  OW  HW  HW  OW  HW  HW  OW  HW  HW  
OW  HW  HW  OW  HW  HW  OW  HW  HW  OW  HW  HW  OW  HW  HW  OW  HW  HW  OW  HW  
HW  OW  HW  HW  OW  HW  HW  OW  HW  HW  OW  HW  HW  OW  HW  HW  OW  HW  HW  OW  
HW  HW  OW  HW  HW  OW  HW  HW  OW  HW  HW  OW  HW  HW  OW  HW  HW  OW  HW  HW  
OW  HW  HW  OW  HW  HW  OW  HW  HW  OW  HW  HW  OW  HW  HW  OW  HW  HW  OW  HW  
HW  OW  HW  HW  OW  HW  HW  OW  HW  HW  OW  HW  HW  OW  HW  HW  OW  HW  HW  OW  
HW  HW  OW  HW  HW  OW  HW  HW  OW  HW  HW  OW  HW  HW  OW  HW  HW  OW  HW  HW  
OW  HW  HW  OW  HW  HW  OW  HW  HW  OW  HW  HW  OW  HW  HW  OW  HW  HW  OW  HW  
HW  OW  HW  HW  OW  HW  HW  OW  HW  HW  OW  HW  HW  OW  HW  HW  OW  HW  HW  OW  
HW  HW  OW  HW  HW  OW  HW  HW  OW  HW  HW  OW  HW  HW  OW  HW  HW  OW  HW  HW  
OW  HW  HW  OW  HW  HW  OW  HW  HW  OW  HW  HW  OW  HW  HW  OW  HW  HW  OW  HW  
HW  OW  HW  HW  OW  HW  HW  OW  HW  HW  OW  HW  HW  OW  HW  HW  OW  HW  HW  OW  
HW  HW  OW  HW  HW  OW  HW  HW  OW  HW  HW  OW  HW  HW  OW  HW  HW  OW  HW  HW  
OW  HW  HW  OW  HW  HW  OW  HW  HW  OW  HW  HW  OW  HW  HW  OW  HW  HW  OW  HW  
HW  OW  HW  HW  OW  HW  HW  OW  HW  HW  OW  HW  HW  OW  HW  HW  OW  HW  HW  OW  
HW  HW  OW  HW  HW  OW  HW  HW  OW  HW  HW  OW  HW  HW  OW  HW  HW  OW  HW  HW  
OW  HW  HW  OW  HW  HW  OW  HW  HW  OW  HW  HW  OW  HW  HW  OW  HW  HW  OW  HW  
HW  OW  HW  HW  OW  HW  HW  OW  HW  HW  OW  HW  HW  OW  HW  HW  OW  HW  HW  OW  
HW  HW  OW  HW  HW  OW  HW  HW  OW  HW  HW  OW  HW  HW  OW  HW  HW  OW  HW  HW  
OW  HW  HW  OW  HW  HW  OW  HW  HW  OW  HW  HW  OW  HW  HW  OW  HW  HW  OW  HW  
HW  OW  HW  HW  OW  HW  HW  OW  HW  HW  OW  HW  HW  OW  HW  HW  OW  HW  HW  OW  
HW  HW  OW  HW  HW  OW  HW  HW  OW  HW  HW  OW  HW  HW  OW  HW  HW  OW  HW  HW  
OW  HW  HW  OW  HW  HW  OW  HW  HW  OW  HW  HW  OW  HW  HW  OW  HW  HW  OW  HW  
HW  OW  HW  HW  OW  HW  HW  OW  HW  HW  OW  HW  HW  OW  HW  HW  OW  HW  HW  OW  
HW  HW  OW  HW  HW  OW  HW  HW  OW  HW  HW  OW  HW  HW  OW  HW  HW  OW  HW  HW  
OW  HW  HW  OW  HW  HW  OW  HW  HW  OW  HW  HW  OW  HW  HW  OW  HW  HW  OW  HW  
HW  OW  HW  HW  OW  HW  HW  OW  HW  HW  OW  HW  HW  OW  HW  HW  OW  HW  HW  OW  
HW  HW  OW  HW  HW  OW  HW  HW  OW  HW  HW  OW  HW  HW  OW  HW  HW  OW  HW  HW  
OW  HW  HW  OW  HW  HW  OW  HW  HW  OW  HW  HW  OW  HW  HW  OW  HW  HW  OW  HW  
HW  OW  HW  HW  OW  HW  HW  OW  HW  HW  OW  HW  HW  OW  HW  HW  OW  HW  HW  OW  
HW  HW  OW  HW  HW  OW  HW  HW  OW  HW  HW  OW  HW  HW  OW  HW  HW  OW  HW  HW  
OW  HW  HW  OW  HW  HW  OW  HW  HW  OW  HW  HW  OW  HW  HW  OW  HW  HW  OW  HW  
HW  OW  HW  HW  OW  HW  HW  OW  HW  HW  OW  HW  HW  OW  HW  HW  OW  HW  HW  OW  
HW  HW  OW  HW  HW  OW  HW  HW  OW  HW  HW  OW  HW  HW  OW  HW  HW  OW  HW  HW  
OW  HW  HW  OW  HW  HW  OW  HW  HW  OW  HW  HW  OW  HW  HW  OW  HW  HW  OW  HW  
HW  OW  HW  HW  OW  HW  HW  OW  HW  HW  OW  HW  HW  OW  HW  HW  OW  HW  HW  OW  
HW  HW  OW  HW  HW  OW  HW  HW  OW  HW  HW  OW  HW  HW  OW  HW  HW  OW  HW  HW  
OW  HW  HW  OW  HW  HW  OW  HW  HW  OW  HW  HW  OW  HW  HW  OW  HW  HW  OW  HW  
HW  OW  HW  HW  OW  HW  HW  OW  HW  HW  OW  HW  HW  OW  HW  HW  OW  HW  HW  OW  
HW  HW  OW  HW  HW  OW  HW  HW  OW  HW  HW  OW  HW  HW  OW  HW  HW  OW  HW  HW  
OW  HW  HW  OW  HW  HW  OW  HW  HW  OW  HW  HW  OW  HW  HW  OW  HW  HW  OW  HW  
HW  OW  HW  HW  OW  HW  HW  OW  HW  HW  OW  HW  HW  OW  HW  HW  OW  HW  HW  OW  
HW  HW  OW  HW  HW  OW  HW  HW  OW  HW  HW  OW  HW  HW  OW  HW  HW  OW  HW  HW  
OW  HW  HW  OW  HW  HW  OW  HW  HW  OW  HW  HW  OW  HW  HW  OW  HW  HW  OW  HW  
HW  OW  HW  HW  OW  HW  HW  OW  HW  HW  OW  HW  HW  OW  HW  HW  OW  HW  HW  OW  
HW  HW  OW  HW  HW  OW  HW  HW  OW  HW  HW  OW  HW  HW  OW  HW  HW  OW  HW  HW  
OW  HW  HW  OW  HW  HW  OW  HW  HW  OW  HW  HW  OW  HW  HW  OW  HW  HW  OW  HW  
HW  OW  HW  HW  OW  HW  HW  OW  HW  HW  OW  HW  HW  OW  HW  HW  OW  HW  HW  OW  
HW  HW  OW  HW  HW  OW  HW  HW  OW  HW  HW  OW  HW  HW  OW  HW  HW  OW  HW  HW  
OW  HW  HW  OW  HW  HW  OW  HW  HW  OW  HW  HW  OW  HW  HW  OW  HW  HW  OW  HW  
HW  OW  HW  HW  OW  HW  HW  OW  HW  HW  OW  HW  HW  OW  HW  HW  OW  HW  HW  OW  
HW  HW  OW  HW  HW  OW  HW  HW  OW  HW  HW  OW  HW  HW  OW  HW  HW  OW  HW  HW  
OW  HW  HW  OW  HW  HW  OW  HW  HW  OW  HW  HW  OW  HW  HW  OW  HW  HW  OW  HW  
HW  OW  HW  HW  OW  HW  HW  OW  HW  HW  OW  HW  HW  OW  HW  HW  OW  HW  HW  OW  
HW  HW  OW  HW  HW  OW  HW  HW  OW  HW  HW  OW  HW  HW  OW  HW  HW  OW  HW  HW  
OW  HW  HW  OW  HW  HW  OW  HW  HW  OW  HW  HW  OW  HW  HW  OW  HW  HW  OW  HW  
HW  OW  HW  HW  OW  HW  HW  OW  HW  HW  OW  HW  HW  OW  HW  HW  OW  HW  HW  OW  
HW  HW  OW  HW  HW  OW  HW  HW  OW  HW  HW  OW  HW  HW  OW  HW  HW  OW  HW  HW  
OW  HW  HW  OW  HW  HW  OW  HW  HW  OW  HW  HW  OW  HW  HW  OW  HW  HW  OW  HW  
HW  OW  HW  HW  OW  HW  HW  OW  HW  HW  OW  HW  HW  OW  HW  HW  OW  HW  HW  OW  
HW  HW  OW  HW  HW  OW  HW  HW  OW  HW  HW  OW  HW  HW  OW  HW  HW  OW  HW  HW  
OW  HW  HW  OW  HW  HW  OW  HW  HW  OW  HW  HW  OW  HW  HW  OW  HW  HW  OW  HW  
HW  OW  HW  HW  OW  HW  HW  OW  HW  HW  OW  HW  HW  OW  HW  HW  OW  HW  HW  OW  
HW  HW  OW  HW  HW  OW  HW  HW  OW  HW  HW  OW  HW  HW  OW  HW  HW  OW  HW  HW  
OW  HW  HW  OW  HW  HW  OW  HW  HW  OW  HW  HW  OW  HW  HW  OW  HW  HW  OW  HW  
HW  OW  HW  HW  OW  HW  HW  OW  HW  HW  OW  HW  HW  OW  HW  HW  OW  HW  HW  OW  
HW  HW  OW  HW  HW  OW  HW  HW  OW  HW  HW  OW  HW  HW  OW  HW  HW  OW  HW  HW  
OW  HW  HW  OW  HW  HW  OW  HW  HW  OW  HW  HW  OW  HW  HW  OW  HW  HW  OW  HW  
HW  OW  HW  HW  OW  HW  HW  OW  HW  HW  OW  HW  HW  OW  HW  HW  OW  HW  HW  OW  
HW  HW  OW  HW  HW  OW  HW  HW  OW  HW  HW  OW  HW  HW  OW  HW  HW  OW  HW  HW  
OW  HW  HW  OW  HW  HW  OW  HW  HW  OW  HW  HW  OW  HW  HW  OW  HW  HW  OW  HW  
HW  OW  HW  HW  OW  HW  HW  OW  HW  HW  OW  HW  HW  OW  HW  HW  OW  HW  HW  OW  
HW  HW  OW  HW  HW  OW  HW  HW  OW  HW  HW  OW  HW  HW  OW  HW  HW  OW  HW  HW  
OW  HW  HW  OW  HW  HW  OW  HW  HW  OW  HW  HW  OW  HW  HW  OW  HW  HW  OW  HW  
HW  OW  HW  HW  OW  HW  HW  OW  HW  HW  OW  HW  HW  OW  HW  HW  OW  HW  HW  OW  
HW  HW  OW  HW  HW  OW  HW  HW  OW  HW  HW  OW  HW  HW  OW  HW  HW  OW  HW  HW  
OW  HW  HW  OW  HW  HW  OW  HW  HW  OW  HW  HW  OW  HW  HW  OW  HW  HW  OW  HW  
HW  OW  HW  HW  OW  HW  HW  OW  HW  HW  OW  HW  HW  OW  HW  HW  OW  HW  HW  OW  
HW  HW  OW  HW  HW  OW  HW  HW  OW  HW  HW  OW  HW  HW  OW  HW  HW  OW  HW  HW  
OW  HW  HW  OW  HW  HW  OW  HW  HW  OW  HW  HW  OW  HW  HW  OW  HW  HW  OW  HW  
HW  OW  HW  HW  OW  HW  HW  OW  HW  HW  OW  HW  HW  OW  HW  HW  OW  HW  HW  OW  
HW  HW  OW  HW  HW  OW  HW  HW  OW  HW  HW  OW  HW  HW  OW  HW  HW  OW  HW  HW  
OW  HW  HW  OW  HW  HW  OW  HW  HW  OW  HW  HW  OW  HW  HW  OW  HW  HW  OW  HW  
HW  OW  HW  HW  OW  HW  HW  OW  HW  HW  OW  HW  HW  OW  HW  HW  OW  HW  HW  OW  
HW  HW  OW  HW  HW  OW  HW  HW  OW  HW  HW  OW  HW  HW  OW  HW  HW  OW  HW  HW  
OW  HW  HW  OW  HW  HW  OW  HW  HW  OW  HW  HW  OW  HW  HW  OW  HW  HW  OW  HW  
HW  OW  HW  HW  OW  HW  HW  OW  HW  HW  OW  HW  HW  OW  HW  HW  OW  HW  HW  OW  
HW  HW  OW  HW  HW  OW  HW  HW  OW  HW  HW  OW  HW  HW  OW  HW  HW  OW  HW  HW  
OW  HW  HW  OW  HW  HW  OW  HW  HW  OW  HW  HW  OW  HW  HW  OW  HW  HW  OW  HW  
HW  OW  HW  HW  OW  HW  HW  OW  HW  HW  OW  HW  HW  OW  HW  HW  OW  HW  HW  OW  
HW  HW  OW  HW  HW  OW  HW  HW  OW  HW  HW  OW  HW  HW  OW  HW  HW  OW  HW  HW  
OW  HW  HW  OW  HW  HW  OW  HW  HW  OW  HW  HW  OW  HW  HW  OW  HW  HW  OW  HW  
HW  OW  HW  HW  OW  HW  HW  OW  HW  HW  OW  HW  HW  OW  HW  HW  OW  HW  HW  OW  
HW  HW  OW  HW  HW  OW  HW  HW  OW  HW  HW  OW  HW  HW  OW  HW  HW  OW  HW  HW  
OW  HW  HW  OW  HW  HW  OW  HW  HW  OW  HW  HW  OW  HW  HW  OW  HW  HW  OW  HW  
HW  OW  HW  HW  OW  HW  HW  OW  HW  HW  OW  HW  HW  OW  HW  HW  OW  HW  HW  OW  
HW  HW  OW  HW  HW  OW  HW  HW  OW  HW  HW  OW  HW  HW  OW  HW  HW  OW  HW  HW  
OW  HW  HW  OW  HW  HW  OW  HW  HW  OW  HW  HW  OW  HW  HW  OW  HW  HW  OW  HW  
HW  OW  HW  HW  OW  HW  HW  OW  HW  HW  OW  HW  HW  OW  HW  HW  OW  HW  HW  OW  
HW  HW  OW  HW  HW  OW  HW  HW  OW  HW  HW  OW  HW  HW  OW  HW  HW  OW  HW  HW  
OW  HW  HW  OW  HW  HW  OW  HW  HW  OW  HW  HW  OW  HW  HW  OW  HW  HW  OW  HW  
HW  OW  HW  HW  OW  HW  HW  OW  HW  HW  OW  HW  HW  OW  HW  HW  OW  HW  HW  OW  
HW  HW  OW  HW  HW  OW  HW  HW  OW  HW  HW  OW  HW  HW  OW  HW  HW  OW  HW  HW  
OW  HW  HW  OW  HW  HW  OW  HW  HW  OW  HW  HW  OW  HW  HW  OW  HW  HW  OW  HW  
HW  OW  HW  HW  OW  HW  HW  OW  HW  HW  OW  HW  HW  OW  HW  HW  OW  HW  HW  OW  
HW  HW  OW  HW  HW  OW  HW  HW  OW  HW  HW  OW  HW  HW  OW  HW  HW  OW  HW  HW  
OW  HW  HW  OW  HW  HW  OW  HW  HW  OW  HW  HW  OW  HW  HW  OW  HW  HW  OW  HW  
HW  OW  HW  HW  OW  HW  HW  OW  HW  HW  OW  HW  HW  OW  HW  HW  OW  HW  HW  OW  
HW  HW  OW  HW  HW  OW  HW  HW  OW  HW  HW  OW  HW  HW  OW  HW  HW  OW  HW  HW  
OW  HW  HW  OW  HW  HW  OW  HW  HW  OW  HW  HW  OW  HW  HW  OW  HW  HW  OW  HW  
HW  OW  HW  HW  OW  HW  HW  OW  HW  HW  OW  HW  HW  OW  HW  HW  OW  HW  HW  OW  
HW  HW  OW  HW  HW  OW  HW  HW  OW  HW  HW  OW  HW  HW  OW  HW  HW  OW  HW  HW  
OW  HW  HW  OW  HW  HW  OW  HW  HW  OW  HW  HW  OW  HW  HW  OW  HW  HW  OW  HW  
HW  OW  HW  HW  OW  HW  HW  OW  HW  HW  OW  HW  HW  OW  HW  HW  OW  HW  HW  OW  
HW  HW  OW  HW  HW  OW  HW  HW  OW  HW  HW  OW  HW  HW  OW  HW  HW  OW  HW  HW  
OW  HW  HW  OW  HW  HW  OW  HW  HW  OW  HW  HW  OW  HW  HW  OW  HW  HW  OW  HW  
HW  OW  HW  HW  OW  HW  HW  OW  HW  HW  OW  HW  HW  OW  HW  HW  OW  HW  HW  OW  
HW  HW  OW  HW  HW  OW  HW  HW  OW  HW  HW  OW  HW  HW  OW  HW  HW  OW  HW  HW  
OW  HW  HW  OW  HW  HW  OW  HW  HW  OW  HW  HW  OW  HW  HW  OW  HW  HW  OW  HW  
HW  OW  HW  HW  OW  HW  HW  OW  HW  HW  OW  HW  HW  OW  HW  HW  OW  HW  HW  OW  
HW  HW  OW  HW  HW  OW  HW  HW  OW  HW  HW  OW  HW  HW  OW  HW  HW  OW  HW  HW  
OW  HW  HW  OW  HW  HW  OW  HW  HW  OW  HW  HW  OW  HW  HW  OW  HW  HW  OW  HW  
HW  OW  HW  HW  OW  HW  HW  OW  HW  HW  OW  HW  HW  OW  HW  HW  OW  HW  HW  OW  
HW  HW  OW  HW  HW  OW  HW  HW  OW  HW  HW  OW  HW  HW  OW  HW  HW  OW  HW  HW  
OW  HW  HW  OW  HW  HW  OW  HW  HW  OW  HW  HW  OW  HW  HW  OW  HW  HW  OW  HW  
HW  OW  HW  HW  OW  HW  HW  OW  HW  HW  OW  HW  HW  OW  HW  HW  OW  HW  HW  OW  
HW  HW  OW  HW  HW  OW  HW  HW  OW  HW  HW  OW  HW  HW  OW  HW  HW  OW  HW  HW  
OW  HW  HW  OW  HW  HW  OW  HW  HW  OW  HW  HW  OW  HW  HW  OW  HW  HW  OW  HW  
HW  OW  HW  HW  OW  HW  HW  OW  HW  HW  OW  HW  HW  OW  HW  HW  OW  HW  HW  OW  
HW  HW  OW  HW  HW  OW  HW  HW  OW  HW  HW  OW  HW  HW  OW  HW  HW  OW  HW  HW  
OW  HW  HW  OW  HW  HW  OW  HW  HW  OW  HW  HW  OW  HW  HW  OW  HW  HW  OW  HW  
HW  OW  HW  HW  OW  HW  HW  OW  HW  HW  OW  HW  HW  OW  HW  HW  OW  HW  HW  OW  
HW  HW  OW  HW  HW  OW  HW  HW  OW  HW  HW  OW  HW  HW  OW  HW  HW  OW  HW  HW  
OW  HW  HW  OW  HW  HW  OW  HW  HW  OW  HW  HW  OW  HW  HW  OW  HW  HW  OW  HW  
HW  OW  HW  HW  OW  HW  HW  OW  HW  HW  OW  HW  HW  OW  HW  HW  OW  HW  HW  OW  
HW  HW  OW  HW  HW  OW  HW  HW  OW  HW  HW  OW  HW  HW  OW  HW  HW  OW  HW  HW  
OW  HW  HW  OW  HW  HW  OW  HW  HW  OW  HW  HW  OW  HW  HW  OW  HW  HW  OW  HW  
HW  OW  HW  HW  OW  HW  HW  OW  HW  HW  OW  HW  HW  OW  HW  HW  OW  HW  HW  OW  
HW  HW  OW  HW  HW  OW  HW  HW  OW  HW  HW  OW  HW  HW  OW  HW  HW  OW  HW  HW  
OW  HW  HW  OW  HW  HW  OW  HW  HW  OW  HW  HW  OW  HW  HW  OW  HW  HW  OW  HW  
HW  OW  HW  HW  OW  HW  HW  OW  HW  HW  OW  HW  HW  OW  HW  HW  OW  HW  HW  OW  
HW  HW  OW  HW  HW  OW  HW  HW  OW  HW  HW  OW  HW  HW  OW  HW  HW  OW  HW  HW  
OW  HW  HW  OW  HW  HW  OW  HW  HW  OW  HW  HW  OW  HW  HW  OW  HW  HW  OW  HW  
HW  OW  HW  HW  OW  HW  HW  OW  HW  HW  OW  HW  HW  OW  HW  HW  OW  HW  HW  OW  
HW  HW  OW  HW  HW  OW  HW  HW  OW  HW  HW  OW  HW  HW  OW  HW  HW  OW  HW  HW  
OW  HW  HW  OW  HW  HW  OW  HW  HW  OW  HW  HW  OW  HW  HW  OW  HW  HW  OW  HW  
HW  OW  HW  HW  OW  HW  HW  OW  HW  HW  OW  HW  HW  OW  HW  HW  OW  HW  HW  OW  
HW  HW  OW  HW  HW  OW  HW  HW  OW  HW  HW  OW  HW  HW  OW  HW  HW  OW  HW  HW  
OW  HW  HW  OW  HW  HW  OW  HW  HW  OW  HW  HW  OW  HW  HW  OW  HW  HW  OW  HW  
HW  OW  HW  HW  OW  HW  HW  OW  HW  HW  OW  HW  HW  OW  HW  HW  OW  HW  HW  OW  
HW  HW  OW  HW  HW  OW  HW  HW  OW  HW  HW  OW  HW  HW  OW  HW  HW  OW  HW  HW  
OW  HW  HW  OW  HW  HW  OW  HW  HW  OW  HW  HW  OW  HW  HW  OW  HW  HW  OW  HW  
HW  OW  HW  HW  OW  HW  HW  OW  HW  HW  OW  HW  HW  OW  HW  HW  OW  HW  HW  OW  
HW  HW  OW  HW  HW  OW  HW  HW  OW  HW  HW  OW  HW  HW  OW  HW  HW  OW  HW  HW  
OW  HW  HW  OW  HW  HW  OW  HW  HW  OW  HW  HW  OW  HW  HW  OW  HW  HW  OW  HW  
HW  OW  HW  HW  OW  HW  HW  OW  HW  HW  OW  HW  HW  OW  HW  HW  OW  HW  HW  OW  
HW  HW  OW  HW  HW  OW  HW  HW  OW  HW  HW  OW  HW  HW  OW  HW  HW  OW  HW  HW  
OW  HW  HW  OW  HW  HW  OW  HW  HW  OW  HW  HW  OW  HW  HW  OW  HW  HW  OW  HW  
HW  OW  HW  HW  OW  HW  HW  OW  HW  HW  OW  HW  HW  OW  HW  HW  OW  HW  HW  OW  
HW  HW  OW  HW  HW  OW  HW  HW  OW  HW  HW  OW  HW  HW  OW  HW  HW  OW  HW  HW  
OW  HW  HW  OW  HW  HW  OW  HW  HW  OW  HW  HW  OW  HW  HW  OW  HW  HW  OW  HW  
HW  OW  HW  HW  OW  HW  HW  OW  HW  HW  OW  HW  HW  OW  HW  HW  OW  HW  HW  OW  
HW  HW  OW  HW  HW  OW  HW  HW  OW  HW  HW  OW  HW  HW  OW  HW  HW  OW  HW  HW  
OW  HW  HW  OW  HW  HW  OW  HW  HW  OW  HW  HW  OW  HW  HW  OW  HW  HW  OW  HW  
HW  OW  HW  HW  OW  HW  HW  OW  HW  HW  OW  HW  HW  OW  HW  HW  OW  HW  HW  OW  
HW  HW  OW  HW  HW  OW  HW  HW  OW  HW  HW  OW  HW  HW  OW  HW  HW  OW  HW  HW  
OW  HW  HW  OW  HW  HW  OW  HW  HW  OW  HW  HW  OW  HW  HW  OW  HW  HW  OW  HW  
HW  OW  HW  HW  OW  HW  HW  OW  HW  HW  OW  HW  HW  OW  HW  HW  OW  HW  HW  OW  
HW  HW  OW  HW  HW  OW  HW  HW  OW  HW  HW  OW  HW  HW  OW  HW  HW  OW  HW  HW  
OW  HW  HW  OW  HW  HW  OW  HW  HW  OW  HW  HW  OW  HW  HW  OW  HW  HW  OW  HW  
HW  OW  HW  HW  OW  HW  HW  OW  HW  HW  OW  HW  HW  OW  HW  HW  OW  HW  HW  OW  
HW  HW  OW  HW  HW  OW  HW  HW  OW  HW  HW  OW  HW  HW  OW  HW  HW  OW  HW  HW  
OW  HW  HW  OW  HW  HW  OW  HW  HW  OW  HW  HW  OW  HW  HW  OW  HW  HW  OW  HW  
HW  OW  HW  HW  OW  HW  HW  OW  HW  HW  OW  HW  HW  OW  HW  HW  OW  HW  HW  OW  
HW  HW  OW  HW  HW  OW  HW  HW  OW  HW  HW  OW  HW  HW  OW  HW  HW  OW  HW  HW  
OW  HW  HW  OW  HW  HW  OW  HW  HW  OW  HW  HW  OW  HW  HW  OW  HW  HW  OW  HW  
HW  OW  HW  HW  OW  HW  HW  OW  HW  HW  OW  HW  HW  OW  HW  HW  OW  HW  HW  OW  
HW  HW  OW  HW  HW  OW  HW  HW  OW  HW  HW  OW  HW  HW  OW  HW  HW  OW  HW  HW  
OW  HW  HW  OW  HW  HW  OW  HW  HW  OW  HW  HW  OW  HW  HW  OW  HW  HW  OW  HW  
HW  OW  HW  HW  OW  HW  HW  OW  HW  HW  OW  HW  HW  OW  HW  HW  OW  HW  HW  OW  
HW  HW  OW  HW  HW  OW  HW  HW  OW  HW  HW  OW  HW  HW  OW  HW  HW  OW  HW  HW  
OW  HW  HW  OW  HW  HW  OW  HW  HW  OW  HW  HW  OW  HW  HW  OW  HW  HW  OW  HW  
HW  OW  HW  HW  OW  HW  HW  OW  HW  HW  OW  HW  HW  OW  HW  HW  OW  HW  HW  OW  
HW  HW  OW  HW  HW  OW  HW  HW  OW  HW  HW  OW  HW  HW  OW  HW  HW  OW  HW  HW  
OW  HW  HW  OW  HW  HW  OW  HW  HW  OW  HW  HW  OW  HW  HW  OW  HW  HW  OW  HW  
HW  OW  HW  HW  OW  HW  HW  OW  HW  HW  OW  HW  HW  OW  HW  HW  OW  HW  HW  OW  
HW  HW  OW  HW  HW  OW  HW  HW  OW  HW  HW  OW  HW  HW  OW  HW  HW  OW  HW  HW  
OW  HW  HW  OW  HW  HW  OW  HW  HW  OW  HW  HW  OW  HW  HW  OW  HW  HW  OW  HW  
HW  OW  HW  HW  OW  HW  HW  OW  HW  HW  OW  HW  HW  OW  HW  HW  OW  HW  HW  OW  
HW  HW  OW  HW  HW  OW  HW  HW  OW  HW  HW  OW  HW  HW  OW  HW  HW  OW  HW  HW  
OW  HW  HW  OW  HW  HW  OW  HW  HW  OW  HW  HW  OW  HW  HW  OW  HW  HW  OW  HW  
HW  OW  HW  HW  OW  HW  HW  OW  HW  HW  OW  HW  HW  OW  HW  HW  OW  HW  HW  OW  
HW  HW  OW  HW  HW  OW  HW  HW  OW  HW  HW  OW  HW  HW  OW  HW  HW  OW  HW  HW  
OW  HW  HW  OW  HW  HW  OW  HW  HW  OW  HW  HW  OW  HW  HW  OW  HW  HW  OW  HW  
HW  OW  HW  HW  OW  HW  HW  OW  HW  HW  OW  HW  HW  OW  HW  HW  OW  HW  HW  OW  
HW  HW  OW  HW  HW  OW  HW  HW  OW  HW  HW  OW  HW  HW  OW  HW  HW  OW  HW  HW  
OW  HW  HW  OW  HW  HW  OW  HW  HW  OW  HW  HW  OW  HW  HW  OW  HW  HW  OW  HW  
HW  OW  HW  HW  OW  HW  HW  OW  HW  HW  OW  HW  HW  OW  HW  HW  OW  HW  HW  OW  
HW  HW  OW  HW  HW  OW  HW  HW  OW  HW  HW  OW  HW  HW  OW  HW  HW  OW  HW  HW  
OW  HW  HW  OW  HW  HW  OW  HW  HW  OW  HW  HW  OW  HW  HW  OW  HW  HW  OW  HW  
HW  OW  HW  HW  OW  HW  HW  OW  HW  HW  OW  HW  HW  OW  HW  HW  OW  HW  HW  OW  
HW  HW  OW  HW  HW  OW  HW  HW  OW  HW  HW  OW  HW  HW  OW  HW  HW  OW  HW  HW  
OW  HW  HW  OW  HW  HW  OW  HW  HW  OW  HW  HW  OW  HW  HW  OW  HW  HW  OW  HW  
HW  OW  HW  HW  OW  HW  HW  OW  HW  HW  OW  HW  HW  OW  HW  HW  OW  HW  HW  OW  
HW  HW  OW  HW  HW  OW  HW  HW  OW  HW  HW  OW  HW  HW  OW  HW  HW  OW  HW  HW  
OW  HW  HW  OW  HW  HW  OW  HW  HW  OW  HW  HW  OW  HW  HW  OW  HW  HW  OW  HW  
HW  OW  HW  HW  OW  HW  HW  OW  HW  HW  OW  HW  HW  OW  HW  HW  OW  HW  HW  OW  
HW  HW  OW  HW  HW  OW  HW  HW  OW  HW  HW  OW  HW  HW  OW  HW  HW  OW  HW  HW  
OW  HW  HW  OW  HW  HW  OW  HW  HW  OW  HW  HW  OW  HW  HW  OW  HW  HW  OW  HW  
HW  OW  HW  HW  OW  HW  HW  OW  HW  HW  OW  HW  HW  OW  HW  HW  OW  HW  HW  OW  
HW  HW  OW  HW  HW  OW  HW  HW  OW  HW  HW  OW  HW  HW  OW  HW  HW  OW  HW  HW  
OW  HW  HW  OW  HW  HW  OW  HW  HW  OW  HW  HW  OW  HW  HW  OW  HW  HW  OW  HW  
HW  OW  HW  HW  OW  HW  HW  OW  HW  HW  OW  HW  HW  OW  HW  HW  OW  HW  HW  OW  
HW  HW  OW  HW  HW  OW  HW  HW  OW  HW  HW  OW  HW  HW  OW  HW  HW  OW  HW  HW  
OW  HW  HW  OW  HW  HW  OW  HW  HW  OW  HW  HW  OW  HW  HW  OW  HW  HW  OW  HW  
HW  OW  HW  HW  OW  HW  HW  OW  HW  HW  OW  HW  HW  OW  HW  HW  OW  HW  HW  OW  
HW  HW  OW  HW  HW  OW  HW  HW  OW  HW  HW  OW  HW  HW  OW  HW  HW  OW  HW  HW  
OW  HW  HW  OW  HW  HW  OW  HW  HW  OW  HW  HW  OW  HW  HW  OW  HW  HW  OW  HW  
HW  OW  HW  HW  OW  HW  HW  OW  HW  HW  OW  HW  HW  OW  HW  HW  OW  HW  HW  OW  
HW  HW  OW  HW  HW  OW  HW  HW  OW  HW  HW  OW  HW  HW  OW  HW  HW  OW  HW  HW  
OW  HW  HW  OW  HW  HW  OW  HW  HW  OW  HW  HW  OW  HW  HW  OW  HW  HW  OW  HW  
HW  OW  HW  HW  OW  HW  HW  OW  HW  HW  OW  HW  HW  OW  HW  HW  OW  HW  HW  OW  
HW  HW  OW  HW  HW  OW  HW  HW  OW  HW  HW  OW  HW  HW  OW  HW  HW  OW  HW  HW  
OW  HW  HW  OW  HW  HW  OW  HW  HW  OW  HW  HW  OW  HW  HW  OW  HW  HW  OW  HW  
HW  OW  HW  HW  OW  HW  HW  OW  HW  HW  OW  HW  HW  OW  HW  HW  OW  HW  HW  OW  
HW  HW  OW  HW  HW  OW  HW  HW  OW  HW  HW  OW  HW  HW  OW  HW  HW  OW  HW  HW  
OW  HW  HW  OW  HW  HW  OW  HW  HW  OW  HW  HW  OW  HW  HW  OW  HW  HW  OW  HW  
HW  OW  HW  HW  OW  HW  HW  OW  HW  HW  OW  HW  HW  OW  HW  HW  OW  HW  HW  OW  
HW  HW  OW  HW  HW  OW  HW  HW  OW  HW  HW  OW  HW  HW  OW  HW  HW  OW  HW  HW  
OW  HW  HW  OW  HW  HW  OW  HW  HW  OW  HW  HW  OW  HW  HW  OW  HW  HW  OW  HW  
HW  OW  HW  HW  OW  HW  HW  OW  HW  HW  OW  HW  HW  OW  HW  HW  OW  HW  HW  OW  
HW  HW  OW  HW  HW  OW  HW  HW  OW  HW  HW  OW  HW  HW  OW  HW  HW  OW  HW  HW  
OW  HW  HW  OW  HW  HW  OW  HW  HW  OW  HW  HW  OW  HW  HW  OW  HW  HW  OW  HW  
HW  OW  HW  HW  OW  HW  HW  OW  HW  HW  OW  HW  HW  OW  HW  HW  OW  HW  HW  OW  
HW  HW  OW  HW  HW  OW  HW  HW  OW  HW  HW  OW  HW  HW  OW  HW  HW  OW  HW  HW  
OW  HW  HW  OW  HW  HW  OW  HW  HW  OW  HW  HW  OW  HW  HW  OW  HW  HW  OW  HW  
HW  OW  HW  HW  OW  HW  HW  OW  HW  HW  OW  HW  HW  OW  HW  HW  OW  HW  HW  OW  
HW  HW  OW  HW  HW  OW  HW  HW  OW  HW  HW  OW  HW  HW  OW  HW  HW  OW  HW  HW  
OW  HW  HW  OW  HW  HW  OW  HW  HW  OW  HW  HW  OW  HW  HW  OW  HW  HW  OW  HW  
HW  OW  HW  HW  OW  HW  HW  OW  HW  HW  OW  HW  HW  OW  HW  HW  OW  HW  HW  OW  
HW  HW  OW  HW  HW  OW  HW  HW  OW  HW  HW  OW  HW  HW  OW  HW  HW  OW  HW  HW  
OW  HW  HW  OW  HW  HW  OW  HW  HW  OW  HW  HW  OW  HW  HW  OW  HW  HW  OW  HW  
HW  OW  HW  HW  OW  HW  HW  OW  HW  HW  OW  HW  HW  OW  HW  HW  OW  HW  HW  OW  
HW  HW  OW  HW  HW  OW  HW  HW  OW  HW  HW  OW  HW  HW  OW  HW  HW  OW  HW  HW  
OW  HW  HW  OW  HW  HW  OW  HW  HW  OW  HW  HW  OW  HW  HW  OW  HW  HW  OW  HW  
HW  OW  HW  HW  OW  HW  HW  OW  HW  HW  OW  HW  HW  OW  HW  HW  OW  HW  HW  OW  
HW  HW  OW  HW  HW  OW  HW  HW  OW  HW  HW  OW  HW  HW  OW  HW  HW  OW  HW  HW  
OW  HW  HW  OW  HW  HW  OW  HW  HW  OW  HW  HW  OW  HW  HW  OW  HW  HW  OW  HW  
HW  OW  HW  HW  OW  HW  HW  OW  HW  HW  OW  HW  HW  OW  HW  HW  OW  HW  HW  OW  
HW  HW  OW  HW  HW  OW  HW  HW  OW  HW  HW  OW  HW  HW  OW  HW  HW  OW  HW  HW  
OW  HW  HW  OW  HW  HW  OW  HW  HW  OW  HW  HW  OW  HW  HW  OW  HW  HW  OW  HW  
HW  OW  HW  HW  OW  HW  HW  OW  HW  HW  OW  HW  HW  OW  HW  HW  OW  HW  HW  OW  
HW  HW  OW  HW  HW  OW  HW  HW  OW  HW  HW  OW  HW  HW  OW  HW  HW  OW  HW  HW  
OW  HW  HW  OW  HW  HW  OW  HW  HW  OW  HW  HW  OW  HW  HW  OW  HW  HW  OW  HW  
HW  OW  HW  HW  OW  HW  HW  OW  HW  HW  OW  HW  HW  OW  HW  HW  OW  HW  HW  OW  
HW  HW  OW  HW  HW  OW  HW  HW  OW  HW  HW  OW  HW  HW  OW  HW  HW  OW  HW  HW  
OW  HW  HW  OW  HW  HW  OW  HW  HW  OW  HW  HW  OW  HW  HW  OW  HW  HW  OW  HW  
HW  OW  HW  HW  OW  HW  HW  OW  HW  HW  OW  HW  HW  OW  HW  HW  OW  HW  HW  OW  
HW  HW  OW  HW  HW  OW  HW  HW  OW  HW  HW  OW  HW  HW  OW  HW  HW  OW  HW  HW  
OW  HW  HW  OW  HW  HW  OW  HW  HW  OW  HW  HW  OW  HW  HW  OW  HW  HW  OW  HW  
HW  OW  HW  HW  OW  HW  HW  OW  HW  HW  OW  HW  HW  OW  HW  HW  OW  HW  HW  OW  
HW  HW  OW  HW  HW  OW  HW  HW  OW  HW  HW  OW  HW  HW  OW  HW  HW  OW  HW  HW  
OW  HW  HW  OW  HW  HW  OW  HW  HW  OW  HW  HW  OW  HW  HW  OW  HW  HW  OW  HW  
HW  OW  HW  HW  OW  HW  HW  OW  HW  HW  OW  HW  HW  OW  HW  HW  OW  HW  HW  OW  
HW  HW  OW  HW  HW  OW  HW  HW  OW  HW  HW  OW  HW  HW  OW  HW  HW  OW  HW  HW  
OW  HW  HW  OW  HW  HW  OW  HW  HW  OW  HW  HW  OW  HW  HW  OW  HW  HW  OW  HW  
HW  OW  HW  HW  OW  HW  HW  OW  HW  HW  OW  HW  HW  OW  HW  HW  OW  HW  HW  OW  
HW  HW  OW  HW  HW  OW  HW  HW  OW  HW  HW  OW  HW  HW  OW  HW  HW  OW  HW  HW  
OW  HW  HW  OW  HW  HW  OW  HW  HW  OW  HW  HW  OW  HW  HW  OW  HW  HW  OW  HW  
HW  OW  HW  HW  OW  HW  HW  OW  HW  HW  OW  HW  HW  OW  HW  HW  OW  HW  HW  OW  
HW  HW  OW  HW  HW  OW  HW  HW  OW  HW  HW  OW  HW  HW  OW  HW  HW  OW  HW  HW  
OW  HW  HW  OW  HW  HW  OW  HW  HW  OW  HW  HW  OW  HW  HW  OW  HW  HW  OW  HW  
HW  OW  HW  HW  OW  HW  HW  OW  HW  HW  OW  HW  HW  OW  HW  HW  OW  HW  HW  OW  
HW  HW  OW  HW  HW  OW  HW  HW  OW  HW  HW  OW  HW  HW  OW  HW  HW  OW  HW  HW  
OW  HW  HW  OW  HW  HW  OW  HW  HW  OW  HW  HW  OW  HW  HW  OW  HW  HW  OW  HW  
HW  OW  HW  HW  OW  HW  HW  OW  HW  HW  OW  HW  HW  OW  HW  HW  OW  HW  HW  OW  
HW  HW  OW  HW  HW  OW  HW  HW  OW  HW  HW  OW  HW  HW  OW  HW  HW  OW  HW  HW  
OW  HW  HW  OW  HW  HW  OW  HW  HW  OW  HW  HW  OW  HW  HW  OW  HW  HW  OW  HW  
HW  OW  HW  HW  OW  HW  HW  OW  HW  HW  OW  HW  HW  OW  HW  HW  OW  HW  HW  OW  
HW  HW  OW  HW  HW  OW  HW  HW  OW  HW  HW  OW  HW  HW  OW  HW  HW  OW  HW  HW  
OW  HW  HW  OW  HW  HW  OW  HW  HW  OW  HW  HW  OW  HW  HW  OW  HW  HW  OW  HW  
HW  OW  HW  HW  OW  HW  HW  OW  HW  HW  OW  HW  HW  OW  HW  HW  OW  HW  HW  OW  
HW  HW  OW  HW  HW  OW  HW  HW  OW  HW  HW  OW  HW  HW  OW  HW  HW  OW  HW  HW  
OW  HW  HW  OW  HW  HW  OW  HW  HW  OW  HW  HW  OW  HW  HW  OW  HW  HW  OW  HW  
HW  OW  HW  HW  OW  HW  HW  OW  HW  HW  OW  HW  HW  OW  HW  HW  OW  HW  HW  OW  
HW  HW  OW  HW  HW  OW  HW  HW  OW  HW  HW  OW  HW  HW  OW  HW  HW  OW  HW  HW  
OW  HW  HW  OW  HW  HW  OW  HW  HW  OW  HW  HW  OW  HW  HW  OW  HW  HW  OW  HW  
HW  OW  HW  HW  OW  HW  HW  OW  HW  HW  OW  HW  HW  OW  HW  HW  OW  HW  HW  OW  
HW  HW  OW  HW  HW  OW  HW  HW  OW  HW  HW  OW  HW  HW  OW  HW  HW  OW  HW  HW  
OW  HW  HW  OW  HW  HW  OW  HW  HW  OW  HW  HW  OW  HW  HW  OW  HW  HW  OW  HW  
HW  OW  HW  HW  OW  HW  HW  OW  HW  HW  OW  HW  HW  OW  HW  HW  OW  HW  HW  OW  
HW  HW  OW  HW  HW  OW  HW  HW  OW  HW  HW  OW  HW  HW  OW  HW  HW  OW  HW  HW  
OW  HW  HW  OW  HW  HW  OW  HW  HW  OW  HW  HW  OW  HW  HW  OW  HW  HW  OW  HW  
HW  OW  HW  HW  OW  HW  HW  OW  HW  HW  OW  HW  HW  OW  HW  HW  OW  HW  HW  OW  
HW  HW  OW  HW  HW  OW  HW  HW  OW  HW  HW  OW  HW  HW  OW  HW  HW  OW  HW  HW  
OW  HW  HW  OW  HW  HW  OW  HW  HW  OW  HW  HW  OW  HW  HW  OW  HW  HW  OW  HW  
HW  OW  HW  HW  OW  HW  HW  OW  HW  HW  OW  HW  HW  OW  HW  HW  OW  HW  HW  OW  
HW  HW  OW  HW  HW  OW  HW  HW  OW  HW  HW  OW  HW  HW  OW  HW  HW  OW  HW  HW  
OW  HW  HW  OW  HW  HW  OW  HW  HW  OW  HW  HW  OW  HW  HW  OW  HW  HW  OW  HW  
HW  OW  HW  HW  OW  HW  HW  OW  HW  HW  OW  HW  HW  OW  HW  HW  OW  HW  HW  OW  
HW  HW  OW  HW  HW  OW  HW  HW  OW  HW  HW  OW  HW  HW  OW  HW  HW  OW  HW  HW  
OW  HW  HW  OW  HW  HW  OW  HW  HW  OW  HW  HW  OW  HW  HW  OW  HW  HW  OW  HW  
HW  OW  HW  HW  OW  HW  HW  OW  HW  HW  OW  HW  HW  OW  HW  HW  OW  HW  HW  OW  
HW  HW  OW  HW  HW  OW  HW  HW  OW  HW  HW  OW  HW  HW  OW  HW  HW  OW  HW  HW  
OW  HW  HW  OW  HW  HW  OW  HW  HW  OW  HW  HW  OW  HW  HW  OW  HW  HW  OW  HW  
HW  OW  HW  HW  OW  HW  HW  OW  HW  HW  OW  HW  HW  OW  HW  HW  OW  HW  HW  OW  
HW  HW  OW  HW  HW  OW  HW  HW  OW  HW  HW  OW  HW  HW  OW  HW  HW  OW  HW  HW  
OW  HW  HW  OW  HW  HW  OW  HW  HW  OW  HW  HW  OW  HW  HW  OW  HW  HW  OW  HW  
HW  OW  HW  HW  OW  HW  HW  OW  HW  HW  OW  HW  HW  OW  HW  HW  OW  HW  HW  OW  
HW  HW  OW  HW  HW  OW  HW  HW  OW  HW  HW  OW  HW  HW  OW  HW  HW  OW  HW  HW  
OW  HW  HW  OW  HW  HW  OW  HW  HW  OW  HW  HW  OW  HW  HW  OW  HW  HW  OW  HW  
HW  OW  HW  HW  OW  HW  HW  OW  HW  HW  OW  HW  HW  OW  HW  HW  OW  HW  HW  OW  
HW  HW  OW  HW  HW  OW  HW  HW  OW  HW  HW  OW  HW  HW  OW  HW  HW  OW  HW  HW  
OW  HW  HW  OW  HW  HW  OW  HW  HW  OW  HW  HW  OW  HW  HW  OW  HW  HW  OW  HW  
HW  OW  HW  HW  OW  HW  HW  OW  HW  HW  OW  HW  HW  OW  HW  HW  OW  HW  HW  OW  
HW  HW  OW  HW  HW  OW  HW  HW  OW  HW  HW  OW  HW  HW  OW  HW  HW  OW  HW  HW  
OW  HW  HW  OW  HW  HW  OW  HW  HW  OW  HW  HW  OW  HW  HW  OW  HW  HW  OW  HW  
HW  OW  HW  HW  OW  HW  HW  OW  HW  HW  OW  HW  HW  OW  HW  HW  OW  HW  HW  OW  
HW  HW  OW  HW  HW  OW  HW  HW  OW  HW  HW  OW  HW  HW  OW  HW  HW  OW  HW  HW  
OW  HW  HW  OW  HW  HW  OW  HW  HW  OW  HW  HW  OW  HW  HW  OW  HW  HW  OW  HW  
HW  OW  HW  HW  OW  HW  HW  OW  HW  HW  OW  HW  HW  OW  HW  HW  OW  HW  HW  OW  
HW  HW  OW  HW  HW  OW  HW  HW  OW  HW  HW  OW  HW  HW  OW  HW  HW  OW  HW  HW  
OW  HW  HW  OW  HW  HW  OW  HW  HW  OW  HW  HW  OW  HW  HW  OW  HW  HW  OW  HW  
HW  OW  HW  HW  OW  HW  HW  OW  HW  HW  OW  HW  HW  OW  HW  HW  OW  HW  HW  OW  
HW  HW  OW  HW  HW  OW  HW  HW  OW  HW  HW  OW  HW  HW  OW  HW  HW  OW  HW  HW  
OW  HW  HW  OW  HW  HW  OW  HW  HW  OW  HW  HW  OW  HW  HW  OW  HW  HW  OW  HW  
HW  OW  HW  HW  OW  HW  HW  OW  HW  HW  OW  HW  HW  OW  HW  HW  OW  HW  HW  OW  
HW  HW  OW  HW  HW  OW  HW  HW  OW  HW  HW  OW  HW  HW  OW  HW  HW  OW  HW  HW  
OW  HW  HW  OW  HW  HW  OW  HW  HW  OW  HW  HW  OW  HW  HW  OW  HW  HW  OW  HW  
HW  OW  HW  HW  OW  HW  HW  OW  HW  HW  OW  HW  HW  OW  HW  HW  OW  HW  HW  OW  
HW  HW  OW  HW  HW  OW  HW  HW  OW  HW  HW  OW  HW  HW  OW  HW  HW  OW  HW  HW  
OW  HW  HW  OW  HW  HW  OW  HW  HW  OW  HW  HW  OW  HW  HW  OW  HW  HW  OW  HW  
HW  OW  HW  HW  OW  HW  HW  OW  HW  HW  OW  HW  HW  OW  HW  HW  OW  HW  HW  OW  
HW  HW  OW  HW  HW  OW  HW  HW  OW  HW  HW  OW  HW  HW  OW  HW  HW  OW  HW  HW  
OW  HW  HW  OW  HW  HW  OW  HW  HW  OW  HW  HW  OW  HW  HW  OW  HW  HW  OW  HW  
HW  OW  HW  HW  OW  HW  HW  OW  HW  HW  OW  HW  HW  OW  HW  HW  OW  HW  HW  OW  
HW  HW  OW  HW  HW  OW  HW  HW  OW  HW  HW  OW  HW  HW  OW  HW  HW  OW  HW  HW  
OW  HW  HW  OW  HW  HW  OW  HW  HW  OW  HW  HW  OW  HW  HW  OW  HW  HW  OW  HW  
HW  OW  HW  HW  OW  HW  HW  OW  HW  HW  OW  HW  HW  OW  HW  HW  OW  HW  HW  OW  
HW  HW  OW  HW  HW  OW  HW  HW  OW  HW  HW  OW  HW  HW  OW  HW  HW  OW  HW  HW  
OW  HW  HW  OW  HW  HW  OW  HW  HW  OW  HW  HW  OW  HW  HW  OW  HW  HW  OW  HW  
HW  OW  HW  HW  OW  HW  HW  OW  HW  HW  OW  HW  HW  OW  HW  HW  OW  HW  HW  OW  
HW  HW  OW  HW  HW  OW  HW  HW  OW  HW  HW  OW  HW  HW  OW  HW  HW  OW  HW  HW  
OW  HW  HW  OW  HW  HW  OW  HW  HW  OW  HW  HW  OW  HW  HW  OW  HW  HW  OW  HW  
HW  OW  HW  HW  OW  HW  HW  OW  HW  HW  OW  HW  HW  OW  HW  HW  OW  HW  HW  OW  
HW  HW  OW  HW  HW  OW  HW  HW  OW  HW  HW  OW  HW  HW  OW  HW  HW  OW  HW  HW  
OW  HW  HW  OW  HW  HW  OW  HW  HW  OW  HW  HW  OW  HW  HW  OW  HW  HW  OW  HW  
HW  OW  HW  HW  OW  HW  HW  OW  HW  HW  OW  HW  HW  OW  HW  HW  OW  HW  HW  OW  
HW  HW  OW  HW  HW  OW  HW  HW  OW  HW  HW  OW  HW  HW  OW  HW  HW  OW  HW  HW  
OW  HW  HW  OW  HW  HW  OW  HW  HW  OW  HW  HW  OW  HW  HW  OW  HW  HW  OW  HW  
HW  OW  HW  HW  OW  HW  HW  OW  HW  HW  OW  HW  HW  OW  HW  HW  OW  HW  HW  OW  
HW  HW  OW  HW  HW  OW  HW  HW  OW  HW  HW  OW  HW  HW  OW  HW  HW  OW  HW  HW  
OW  HW  HW  OW  HW  HW  OW  HW  HW  OW  HW  HW  OW  HW  HW  OW  HW  HW  OW  HW  
HW  OW  HW  HW  OW  HW  HW  OW  HW  HW  OW  HW  HW  OW  HW  HW  OW  HW  HW  OW  
HW  HW  OW  HW  HW  OW  HW  HW  OW  HW  HW  OW  HW  HW  OW  HW  HW  OW  HW  HW  
OW  HW  HW  OW  HW  HW  OW  HW  HW  OW  HW  HW  OW  HW  HW  OW  HW  HW  OW  HW  
HW  OW  HW  HW  OW  HW  HW  OW  HW  HW  OW  HW  HW  OW  HW  HW  OW  HW  HW  OW  
HW  HW  OW  HW  HW  OW  HW  HW  OW  HW  HW  OW  HW  HW  OW  HW  HW  OW  HW  HW  
OW  HW  HW  OW  HW  HW  OW  HW  HW  OW  HW  HW  OW  HW  HW  OW  HW  HW  OW  HW  
HW  OW  HW  HW  OW  HW  HW  OW  HW  HW  OW  HW  HW  OW  HW  HW  OW  HW  HW  OW  
HW  HW  OW  HW  HW  OW  HW  HW  OW  HW  HW  OW  HW  HW  OW  HW  HW  OW  HW  HW  
OW  HW  HW  OW  HW  HW  OW  HW  HW  OW  HW  HW  OW  HW  HW  OW  HW  HW  OW  HW  
HW  OW  HW  HW  OW  HW  HW  OW  HW  HW  OW  HW  HW  OW  HW  HW  OW  HW  HW  OW  
HW  HW  OW  HW  HW  OW  HW  HW  OW  HW  HW  OW  HW  HW  OW  HW  HW  OW  HW  HW  
OW  HW  HW  OW  HW  HW  OW  HW  HW  OW  HW  HW  OW  HW  HW  OW  HW  HW  OW  HW  
HW  OW  HW  HW  OW  HW  HW  OW  HW  HW  OW  HW  HW  OW  HW  HW  OW  HW  HW  OW  
HW  HW  OW  HW  HW  OW  HW  HW  OW  HW  HW  OW  HW  HW  OW  HW  HW  OW  HW  HW  
OW  HW  HW  OW  HW  HW  OW  HW  HW  OW  HW  HW  OW  HW  HW  OW  HW  HW  OW  HW  
HW  OW  HW  HW  OW  HW  HW  OW  HW  HW  OW  HW  HW  OW  HW  HW  OW  HW  HW  OW  
HW  HW  OW  HW  HW  OW  HW  HW  OW  HW  HW  OW  HW  HW  OW  HW  HW  OW  HW  HW  
OW  HW  HW  OW  HW  HW  OW  HW  HW  OW  HW  HW  OW  HW  HW  OW  HW  HW  OW  HW  
HW  OW  HW  HW  OW  HW  HW  OW  HW  HW  OW  HW  HW  OW  HW  HW  OW  HW  HW  OW  
HW  HW  OW  HW  HW  OW  HW  HW  OW  HW  HW  OW  HW  HW  OW  HW  HW  OW  HW  HW  
OW  HW  HW  OW  HW  HW  OW  HW  HW  OW  HW  HW  OW  HW  HW  OW  HW  HW  OW  HW  
HW  OW  HW  HW  OW  HW  HW  OW  HW  HW  OW  HW  HW  OW  HW  HW  OW  HW  HW  OW  
HW  HW  OW  HW  HW  OW  HW  HW  OW  HW  HW  OW  HW  HW  OW  HW  HW  OW  HW  HW  
OW  HW  HW  OW  HW  HW  OW  HW  HW  OW  HW  HW  OW  HW  HW  OW  HW  HW  OW  HW  
HW  OW  HW  HW  OW  HW  HW  OW  HW  HW  OW  HW  HW  OW  HW  HW  OW  HW  HW  OW  
HW  HW  OW  HW  HW  OW  HW  HW  OW  HW  HW  OW  HW  HW  OW  HW  HW  OW  HW  HW  
OW  HW  HW  OW  HW  HW  OW  HW  HW  OW  HW  HW  OW  HW  HW  OW  HW  HW  OW  HW  
HW  OW  HW  HW  OW  HW  HW  OW  HW  HW  OW  HW  HW  OW  HW  HW  OW  HW  HW  OW  
HW  HW  OW  HW  HW  OW  HW  HW  OW  HW  HW  OW  HW  HW  OW  HW  HW  OW  HW  HW  
OW  HW  HW  OW  HW  HW  OW  HW  HW  OW  HW  HW  OW  HW  HW  OW  HW  HW  OW  HW  
HW  OW  HW  HW  OW  HW  HW  OW  HW  HW  OW  HW  HW  OW  HW  HW  OW  HW  HW  OW  
HW  HW  OW  HW  HW  OW  HW  HW  OW  HW  HW  OW  HW  HW  OW  HW  HW  OW  HW  HW  
OW  HW  HW  OW  HW  HW  OW  HW  HW  OW  HW  HW  OW  HW  HW  OW  HW  HW  OW  HW  
HW  OW  HW  HW  OW  HW  HW  OW  HW  HW  OW  HW  HW  OW  HW  HW  OW  HW  HW  OW  
HW  HW  OW  HW  HW  OW  HW  HW  OW  HW  HW  OW  HW  HW  OW  HW  HW  OW  HW  HW  
OW  HW  HW  OW  HW  HW  OW  HW  HW  OW  HW  HW  OW  HW  HW  OW  HW  HW  OW  HW  
HW  OW  HW  HW  OW  HW  HW  OW  HW  HW  OW  HW  HW  OW  HW  HW  OW  HW  HW  OW  
HW  HW  OW  HW  HW  OW  HW  HW  OW  HW  HW  OW  HW  HW  OW  HW  HW  OW  HW  HW  
OW  HW  HW  OW  HW  HW  OW  HW  HW  OW  HW  HW  OW  HW  HW  OW  HW  HW  OW  HW  
HW  OW  HW  HW  OW  HW  HW  OW  HW  HW  OW  HW  HW  OW  HW  HW  OW  HW  HW  OW  
HW  HW  OW  HW  HW  OW  HW  HW  OW  HW  HW  OW  HW  HW  OW  HW  HW  OW  HW  HW  
OW  HW  HW  OW  HW  HW  OW  HW  HW  OW  HW  HW  OW  HW  HW  OW  HW  HW  OW  HW  
HW  OW  HW  HW  OW  HW  HW  OW  HW  HW  OW  HW  HW  OW  HW  HW  OW  HW  HW  OW  
HW  HW  OW  HW  HW  OW  HW  HW  OW  HW  HW  OW  HW  HW  OW  HW  HW  OW  HW  HW  
OW  HW  HW  OW  HW  HW  OW  HW  HW  OW  HW  HW  OW  HW  HW  OW  HW  HW  OW  HW  
HW  OW  HW  HW  OW  HW  HW  OW  HW  HW  OW  HW  HW  OW  HW  HW  OW  HW  HW  OW  
HW  HW  OW  HW  HW  OW  HW  HW  OW  HW  HW  OW  HW  HW  OW  HW  HW  OW  HW  HW  
OW  HW  HW  OW  HW  HW  OW  HW  HW  OW  HW  HW  OW  HW  HW  OW  HW  HW  OW  HW  
HW  OW  HW  HW  OW  HW  HW  OW  HW  HW  OW  HW  HW  OW  HW  HW  OW  HW  HW  OW  
HW  HW  OW  HW  HW  OW  HW  HW  OW  HW  HW  OW  HW  HW  OW  HW  HW  OW  HW  HW  
OW  HW  HW  OW  HW  HW  OW  HW  HW  OW  HW  HW  OW  HW  HW  OW  HW  HW  OW  HW  
HW  OW  HW  HW  OW  HW  HW  OW  HW  HW  OW  HW  HW  OW  HW  HW  OW  HW  HW  OW  
HW  HW  OW  HW  HW  OW  HW  HW  OW  HW  HW  OW  HW  HW  OW  HW  HW  OW  HW  HW  
OW  HW  HW  OW  HW  HW  OW  HW  HW  OW  HW  HW  OW  HW  HW  OW  HW  HW  OW  HW  
HW  OW  HW  HW  OW  HW  HW  OW  HW  HW  OW  HW  HW  OW  HW  HW  OW  HW  HW  OW  
HW  HW  OW  HW  HW  OW  HW  HW  OW  HW  HW  OW  HW  HW  OW  HW  HW  OW  HW  HW  
OW  HW  HW  OW  HW  HW  OW  HW  HW  OW  HW  HW  OW  HW  HW  OW  HW  HW  OW  HW  
HW  OW  HW  HW  OW  HW  HW  OW  HW  HW  OW  HW  HW  OW  HW  HW  OW  HW  HW  OW  
HW  HW  OW  HW  HW  OW  HW  HW  OW  HW  HW  OW  HW  HW  OW  HW  HW  OW  HW  HW  
OW  HW  HW  OW  HW  HW  OW  HW  HW  OW  HW  HW  OW  HW  HW  OW  HW  HW  OW  HW  
HW  OW  HW  HW  OW  HW  HW  OW  HW  HW  OW  HW  HW  OW  HW  HW  OW  HW  HW  OW  
HW  HW  OW  HW  HW  OW  HW  HW  OW  HW  HW  OW  HW  HW  OW  HW  HW  OW  HW  HW  
OW  HW  HW  OW  HW  HW  OW  HW  HW  OW  HW  HW  OW  HW  HW  OW  HW  HW  OW  HW  
HW  OW  HW  HW  OW  HW  HW  OW  HW  HW  OW  HW  HW  OW  HW  HW  OW  HW  HW  OW  
HW  HW  OW  HW  HW  OW  HW  HW  OW  HW  HW  OW  HW  HW  OW  HW  HW  OW  HW  HW  
OW  HW  HW  OW  HW  HW  OW  HW  HW  OW  HW  HW  OW  HW  HW  OW  HW  HW  OW  HW  
HW  OW  HW  HW  OW  HW  HW  OW  HW  HW  OW  HW  HW  OW  HW  HW  OW  HW  HW  OW  
HW  HW  OW  HW  HW  OW  HW  HW  OW  HW  HW  OW  HW  HW  OW  HW  HW  OW  HW  HW  
OW  HW  HW  OW  HW  HW  OW  HW  HW  OW  HW  HW  OW  HW  HW  OW  HW  HW  OW  HW  
HW  OW  HW  HW  OW  HW  HW  OW  HW  HW  OW  HW  HW  OW  HW  HW  OW  HW  HW  OW  
HW  HW  OW  HW  HW  OW  HW  HW  OW  HW  HW  OW  HW  HW  OW  HW  HW  OW  HW  HW  
OW  HW  HW  OW  HW  HW  OW  HW  HW  OW  HW  HW  OW  HW  HW  OW  HW  HW  OW  HW  
HW  OW  HW  HW  OW  HW  HW  OW  HW  HW  OW  HW  HW  OW  HW  HW  OW  HW  HW  OW  
HW  HW  OW  HW  HW  OW  HW  HW  OW  HW  HW  OW  HW  HW  OW  HW  HW  OW  HW  HW  
OW  HW  HW  OW  HW  HW  OW  HW  HW  OW  HW  HW  OW  HW  HW  OW  HW  HW  OW  HW  
HW  OW  HW  HW  OW  HW  HW  OW  HW  HW  OW  HW  HW  OW  HW  HW  OW  HW  HW  OW  
HW  HW  OW  HW  HW  OW  HW  HW  OW  HW  HW  OW  HW  HW  OW  HW  HW  OW  HW  HW  
OW  HW  HW  OW  HW  HW  OW  HW  HW  OW  HW  HW  OW  HW  HW  OW  HW  HW  OW  HW  
HW  OW  HW  HW  OW  HW  HW  OW  HW  HW  OW  HW  HW  OW  HW  HW  OW  HW  HW  OW  
HW  HW  OW  HW  HW  OW  HW  HW  OW  HW  HW  OW  HW  HW  OW  HW  HW  OW  HW  HW  
OW  HW  HW  OW  HW  HW  OW  HW  HW  OW  HW  HW  OW  HW  HW  OW  HW  HW  OW  HW  
HW  OW  HW  HW  OW  HW  HW  OW  HW  HW  OW  HW  HW  OW  HW  HW  OW  HW  HW  OW  
HW  HW  OW  HW  HW  OW  HW  HW  OW  HW  HW  OW  HW  HW  OW  HW  HW  OW  HW  HW  
OW  HW  HW  OW  HW  HW  OW  HW  HW  OW  HW  HW  OW  HW  HW  OW  HW  HW  OW  HW  
HW  OW  HW  HW  OW  HW  HW  OW  HW  HW  OW  HW  HW  OW  HW  HW  OW  HW  HW  OW  
HW  HW  OW  HW  HW  OW  HW  HW  OW  HW  HW  OW  HW  HW  OW  HW  HW  OW  HW  HW  
OW  HW  HW  OW  HW  HW  OW  HW  HW  OW  HW  HW  OW  HW  HW  OW  HW  HW  OW  HW  
HW  OW  HW  HW  OW  HW  HW  OW  HW  HW  OW  HW  HW  OW  HW  HW  OW  HW  HW  OW  
HW  HW  OW  HW  HW  OW  HW  HW  OW  HW  HW  OW  HW  HW  OW  HW  HW  OW  HW  HW  
OW  HW  HW  OW  HW  HW  OW  HW  HW  OW  HW  HW  OW  HW  HW  OW  HW  HW  OW  HW  
HW  OW  HW  HW  OW  HW  HW  OW  HW  HW  OW  HW  HW  OW  HW  HW  OW  HW  HW  OW  
HW  HW  OW  HW  HW  OW  HW  HW  OW  HW  HW  OW  HW  HW  OW  HW  HW  OW  HW  HW  
OW  HW  HW  OW  HW  HW  OW  HW  HW  OW  HW  HW  OW  HW  HW  OW  HW  HW  OW  HW  
HW  OW  HW  HW  OW  HW  HW  OW  HW  HW  OW  HW  HW  OW  HW  HW  OW  HW  HW  OW  
HW  HW  OW  HW  HW  OW  HW  HW  OW  HW  HW  OW  HW  HW  OW  HW  HW  OW  HW  HW  
OW  HW  HW  OW  HW  HW  OW  HW  HW  OW  HW  HW  OW  HW  HW  OW  HW  HW  OW  HW  
HW  OW  HW  HW  OW  HW  HW  OW  HW  HW  OW  HW  HW  OW  HW  HW  OW  HW  HW  OW  
HW  HW  OW  HW  HW  OW  HW  HW  OW  HW  HW  OW  HW  HW  OW  HW  HW  OW  HW  HW  
OW  HW  HW  OW  HW  HW  OW  HW  HW  OW  HW  HW  OW  HW  HW  OW  HW  HW  OW  HW  
HW  OW  HW  HW  OW  HW  HW  OW  HW  HW  OW  HW  HW  OW  HW  HW  OW  HW  HW  OW  
HW  HW  OW  HW  HW  OW  HW  HW  OW  HW  HW  OW  HW  HW  OW  HW  HW  OW  HW  HW  
OW  HW  HW  OW  HW  HW  OW  HW  HW  OW  HW  HW  OW  HW  HW  OW  HW  HW  OW  HW  
HW  OW  HW  HW  OW  HW  HW  OW  HW  HW  OW  HW  HW  OW  HW  HW  OW  HW  HW  OW  
HW  HW  OW  HW  HW  OW  HW  HW  OW  HW  HW  OW  HW  HW  OW  HW  HW  OW  HW  HW  
OW  HW  HW  OW  HW  HW  OW  HW  HW  OW  HW  HW  OW  HW  HW  OW  HW  HW  OW  HW  
HW  OW  HW  HW  OW  HW  HW  OW  HW  HW  OW  HW  HW  OW  HW  HW  OW  HW  HW  OW  
HW  HW  OW  HW  HW  OW  HW  HW  OW  HW  HW  OW  HW  HW  OW  HW  HW  OW  HW  HW  
OW  HW  HW  OW  HW  HW  OW  HW  HW  OW  HW  HW  OW  HW  HW  OW  HW  HW  OW  HW  
HW  OW  HW  HW  OW  HW  HW  OW  HW  HW  OW  HW  HW  OW  HW  HW  OW  HW  HW  OW  
HW  HW  OW  HW  HW  OW  HW  HW  OW  HW  HW  OW  HW  HW  OW  HW  HW  OW  HW  HW  
OW  HW  HW  OW  HW  HW  OW  HW  HW  OW  HW  HW  OW  HW  HW  OW  HW  HW  OW  HW  
HW  OW  HW  HW  OW  HW  HW  OW  HW  HW  OW  HW  HW  OW  HW  HW  OW  HW  HW  OW  
HW  HW  OW  HW  HW  OW  HW  HW  OW  HW  HW  OW  HW  HW  OW  HW  HW  OW  HW  HW  
OW  HW  HW  OW  HW  HW  OW  HW  HW  OW  HW  HW  OW  HW  HW  OW  HW  HW  OW  HW  
HW  OW  HW  HW  OW  HW  HW  OW  HW  HW  OW  HW  HW  OW  HW  HW  OW  HW  HW  OW  
HW  HW  OW  HW  HW  OW  HW  HW  OW  HW  HW  OW  HW  HW  OW  HW  HW  OW  HW  HW  
OW  HW  HW  OW  HW  HW  OW  HW  HW  OW  HW  HW  OW  HW  HW  OW  HW  HW  OW  HW  
HW  OW  HW  HW  OW  HW  HW  OW  HW  HW  OW  HW  HW  OW  HW  HW  OW  HW  HW  OW  
HW  HW  OW  HW  HW  OW  HW  HW  OW  HW  HW  OW  HW  HW  OW  HW  HW  OW  HW  HW  
OW  HW  HW  OW  HW  HW  OW  HW  HW  OW  HW  HW  OW  HW  HW  OW  HW  HW  OW  HW  
HW  OW  HW  HW  OW  HW  HW  OW  HW  HW  OW  HW  HW  OW  HW  HW  OW  HW  HW  OW  
HW  HW  OW  HW  HW  OW  HW  HW  OW  HW  HW  OW  HW  HW  OW  HW  HW  OW  HW  HW  
OW  HW  HW  OW  HW  HW  OW  HW  HW  OW  HW  HW  OW  HW  HW  OW  HW  HW  OW  HW  
HW  OW  HW  HW  OW  HW  HW  OW  HW  HW  OW  HW  HW  OW  HW  HW  OW  HW  HW  OW  
HW  HW  OW  HW  HW  OW  HW  HW  OW  HW  HW  OW  HW  HW  OW  HW  HW  OW  HW  HW  
OW  HW  HW  OW  HW  HW  OW  HW  HW  OW  HW  HW  OW  HW  HW  OW  HW  HW  OW  HW  
HW  OW  HW  HW  OW  HW  HW  OW  HW  HW  OW  HW  HW  OW  HW  HW  OW  HW  HW  OW  
HW  HW  OW  HW  HW  OW  HW  HW  OW  HW  HW  OW  HW  HW  OW  HW  HW  OW  HW  HW  
OW  HW  HW  OW  HW  HW  OW  HW  HW  OW  HW  HW  OW  HW  HW  OW  HW  HW  OW  HW  
HW  OW  HW  HW  OW  HW  HW  OW  HW  HW  OW  HW  HW  OW  HW  HW  OW  HW  HW  OW  
HW  HW  OW  HW  HW  OW  HW  HW  OW  HW  HW  OW  HW  HW  OW  HW  HW  OW  HW  HW  
OW  HW  HW  OW  HW  HW  OW  HW  HW  OW  HW  HW  OW  HW  HW  OW  HW  HW  OW  HW  
HW  OW  HW  HW  OW  HW  HW  OW  HW  HW  OW  HW  HW  OW  HW  HW  OW  HW  HW  OW  
HW  HW  OW  HW  HW  OW  HW  HW  OW  HW  HW  OW  HW  HW  OW  HW  HW  OW  HW  HW  
OW  HW  HW  OW  HW  HW  OW  HW  HW  OW  HW  HW  OW  HW  HW  OW  HW  HW  OW  HW  
HW  OW  HW  HW  OW  HW  HW  OW  HW  HW  OW  HW  HW  OW  HW  HW  OW  HW  HW  OW  
HW  HW  OW  HW  HW  OW  HW  HW  OW  HW  HW  OW  HW  HW  OW  HW  HW  OW  HW  HW  
OW  HW  HW  OW  HW  HW  OW  HW  HW  OW  HW  HW  OW  HW  HW  OW  HW  HW  OW  HW  
HW  OW  HW  HW  OW  HW  HW  OW  HW  HW  OW  HW  HW  OW  HW  HW  OW  HW  HW  OW  
HW  HW  OW  HW  HW  OW  HW  HW  OW  HW  HW  OW  HW  HW  OW  HW  HW  OW  HW  HW  
OW  HW  HW  OW  HW  HW  OW  HW  HW  OW  HW  HW  OW  HW  HW  OW  HW  HW  OW  HW  
HW  OW  HW  HW  OW  HW  HW  OW  HW  HW  OW  HW  HW  OW  HW  HW  OW  HW  HW  OW  
HW  HW  OW  HW  HW  OW  HW  HW  OW  HW  HW  OW  HW  HW  OW  HW  HW  OW  HW  HW  
OW  HW  HW  OW  HW  HW  OW  HW  HW  OW  HW  HW  OW  HW  HW  OW  HW  HW  OW  HW  
HW  OW  HW  HW  OW  HW  HW  OW  HW  HW  OW  HW  HW  OW  HW  HW  OW  HW  HW  OW  
HW  HW  OW  HW  HW  OW  HW  HW  OW  HW  HW  OW  HW  HW  OW  HW  HW  OW  HW  HW  
OW  HW  HW  OW  HW  HW  OW  HW  HW  OW  HW  HW  OW  HW  HW  OW  HW  HW  OW  HW  
HW  OW  HW  HW  OW  HW  HW  OW  HW  HW  OW  HW  HW  OW  HW  HW  OW  HW  HW  OW  
HW  HW  OW  HW  HW  OW  HW  HW  OW  HW  HW  OW  HW  HW  OW  HW  HW  OW  HW  HW  
OW  HW  HW  OW  HW  HW  OW  HW  HW  OW  HW  HW  OW  HW  HW  OW  HW  HW  OW  HW  
HW  OW  HW  HW  OW  HW  HW  OW  HW  HW  OW  HW  HW  OW  HW  HW  OW  HW  HW  OW  
HW  HW  OW  HW  HW  OW  HW  HW  OW  HW  HW  OW  HW  HW  OW  HW  HW  OW  HW  HW  
OW  HW  HW  OW  HW  HW  OW  HW  HW  OW  HW  HW  OW  HW  HW  OW  HW  HW  OW  HW  
HW  OW  HW  HW  OW  HW  HW  OW  HW  HW  OW  HW  HW  OW  HW  HW  OW  HW  HW  OW  
HW  HW  OW  HW  HW  OW  HW  HW  OW  HW  HW  OW  HW  HW  OW  HW  HW  OW  HW  HW  
OW  HW  HW  OW  HW  HW  OW  HW  HW  OW  HW  HW  OW  HW  HW  OW  HW  HW  OW  HW  
HW  OW  HW  HW  OW  HW  HW  OW  HW  HW  OW  HW  HW  OW  HW  HW  OW  HW  HW  OW  
HW  HW  OW  HW  HW  OW  HW  HW  OW  HW  HW  OW  HW  HW  OW  HW  HW  OW  HW  HW  
OW  HW  HW  OW  HW  HW  OW  HW  HW  OW  HW  HW  OW  HW  HW  OW  HW  HW  OW  HW  
HW  OW  HW  HW  OW  HW  HW  OW  HW  HW  OW  HW  HW  OW  HW  HW  OW  HW  HW  OW  
HW  HW  OW  HW  HW  OW  HW  HW  OW  HW  HW  OW  HW  HW  OW  HW  HW  OW  HW  HW  
OW  HW  HW  OW  HW  HW  OW  HW  HW  OW  HW  HW  OW  HW  HW  OW  HW  HW  OW  HW  
HW  OW  HW  HW  OW  HW  HW  OW  HW  HW  OW  HW  HW  OW  HW  HW  OW  HW  HW  OW  
HW  HW  OW  HW  HW  OW  HW  HW  OW  HW  HW  OW  HW  HW  OW  HW  HW  OW  HW  HW  
OW  HW  HW  OW  HW  HW  OW  HW  HW  OW  HW  HW  OW  HW  HW  OW  HW  HW  OW  HW  
HW  OW  HW  HW  OW  HW  HW  OW  HW  HW  OW  HW  HW  OW  HW  HW  OW  HW  HW  OW  
HW  HW  OW  HW  HW  OW  HW  HW  OW  HW  HW  OW  HW  HW  OW  HW  HW  OW  HW  HW  
OW  HW  HW  OW  HW  HW  OW  HW  HW  OW  HW  HW  OW  HW  HW  OW  HW  HW  OW  HW  
HW  OW  HW  HW  OW  HW  HW  OW  HW  HW  OW  HW  HW  OW  HW  HW  OW  HW  HW  OW  
HW  HW  OW  HW  HW  OW  HW  HW  OW  HW  HW  OW  HW  HW  OW  HW  HW  OW  HW  HW  
OW  HW  HW  OW  HW  HW  OW  HW  HW  OW  HW  HW  OW  HW  HW  OW  HW  HW  OW  HW  
HW  OW  HW  HW  OW  HW  HW  OW  HW  HW  OW  HW  HW  OW  HW  HW  OW  HW  HW  OW  
HW  HW  OW  HW  HW  OW  HW  HW  OW  HW  HW  OW  HW  HW  OW  HW  HW  OW  HW  HW  
OW  HW  HW  OW  HW  HW  OW  HW  HW  OW  HW  HW  OW  HW  HW  OW  HW  HW  OW  HW  
HW  OW  HW  HW  OW  HW  HW  OW  HW  HW  OW  HW  HW  OW  HW  HW  OW  HW  HW  OW  
HW  HW  OW  HW  HW  OW  HW  HW  OW  HW  HW  OW  HW  HW  OW  HW  HW  OW  HW  HW  
OW  HW  HW  OW  HW  HW  OW  HW  HW  OW  HW  HW  OW  HW  HW  OW  HW  HW  OW  HW  
HW  OW  HW  HW  OW  HW  HW  OW  HW  HW  OW  HW  HW  OW  HW  HW  OW  HW  HW  OW  
HW  HW  OW  HW  HW  OW  HW  HW  OW  HW  HW  OW  HW  HW  OW  HW  HW  OW  HW  HW  
OW  HW  HW  OW  HW  HW  OW  HW  HW  OW  HW  HW  OW  HW  HW  OW  HW  HW  OW  HW  
HW  OW  HW  HW  OW  HW  HW  OW  HW  HW  OW  HW  HW  OW  HW  HW  OW  HW  HW  OW  
HW  HW  OW  HW  HW  OW  HW  HW  OW  HW  HW  OW  HW  HW  OW  HW  HW  OW  HW  HW  
OW  HW  HW  OW  HW  HW  OW  HW  HW  OW  HW  HW  OW  HW  HW  OW  HW  HW  OW  HW  
HW  OW  HW  HW  OW  HW  HW  OW  HW  HW  OW  HW  HW  OW  HW  HW  OW  HW  HW  OW  
HW  HW  OW  HW  HW  OW  HW  HW  OW  HW  HW  OW  HW  HW  OW  HW  HW  OW  HW  HW  
OW  HW  HW  OW  HW  HW  OW  HW  HW  OW  HW  HW  OW  HW  HW  OW  HW  HW  OW  HW  
HW  OW  HW  HW  OW  HW  HW  OW  HW  HW  OW  HW  HW  OW  HW  HW  OW  HW  HW  OW  
HW  HW  OW  HW  HW  OW  HW  HW  OW  HW  HW  OW  HW  HW  OW  HW  HW  OW  HW  HW  
OW  HW  HW  OW  HW  HW  OW  HW  HW  OW  HW  HW  OW  HW  HW  OW  HW  HW  OW  HW  
HW  OW  HW  HW  OW  HW  HW  OW  HW  HW  OW  HW  HW  OW  HW  HW  OW  HW  HW  OW  
HW  HW  OW  HW  HW  OW  HW  HW  OW  HW  HW  OW  HW  HW  OW  HW  HW  OW  HW  HW  
OW  HW  HW  OW  HW  HW  OW  HW  HW  OW  HW  HW  OW  HW  HW  OW  HW  HW  OW  HW  
HW  OW  HW  HW  OW  HW  HW  OW  HW  HW  OW  HW  HW  OW  HW  HW  OW  HW  HW  OW  
HW  HW  OW  HW  HW  OW  HW  HW  OW  HW  HW  OW  HW  HW  OW  HW  HW  OW  HW  HW  
OW  HW  HW  OW  HW  HW  OW  HW  HW  OW  HW  HW  OW  HW  HW  OW  HW  HW  OW  HW  
HW  OW  HW  HW  OW  HW  HW  OW  HW  HW  OW  HW  HW  OW  HW  HW  OW  HW  HW  OW  
HW  HW  OW  HW  HW  OW  HW  HW  OW  HW  HW  OW  HW  HW  OW  HW  HW  OW  HW  HW  
OW  HW  HW  OW  HW  HW  OW  HW  HW  OW  HW  HW  OW  HW  HW  OW  HW  HW  OW  HW  
HW  OW  HW  HW  OW  HW  HW  OW  HW  HW  OW  HW  HW  OW  HW  HW  OW  HW  HW  OW  
HW  HW  OW  HW  HW  OW  HW  HW  OW  HW  HW  OW  HW  HW  OW  HW  HW  OW  HW  HW  
OW  HW  HW  OW  HW  HW  OW  HW  HW  OW  HW  HW  OW  HW  HW  OW  HW  HW  OW  HW  
HW  OW  HW  HW  OW  HW  HW  OW  HW  HW  OW  HW  HW  OW  HW  HW  OW  HW  HW  OW  
HW  HW  OW  HW  HW  OW  HW  HW  OW  HW  HW  OW  HW  HW  OW  HW  HW  OW  HW  HW  
OW  HW  HW  OW  HW  HW  OW  HW  HW  OW  HW  HW  OW  HW  HW  OW  HW  HW  OW  HW  
HW  OW  HW  HW  OW  HW  HW  OW  HW  HW  OW  HW  HW  OW  HW  HW  OW  HW  HW  OW  
HW  HW  OW  HW  HW  OW  HW  HW  OW  HW  HW  OW  HW  HW  OW  HW  HW  OW  HW  HW  
OW  HW  HW  OW  HW  HW  OW  HW  HW  OW  HW  HW  OW  HW  HW  OW  HW  HW  OW  HW  
HW  OW  HW  HW  OW  HW  HW  OW  HW  HW  OW  HW  HW  OW  HW  HW  OW  HW  HW  OW  
HW  HW  OW  HW  HW  OW  HW  HW  OW  HW  HW  OW  HW  HW  OW  HW  HW  OW  HW  HW  
OW  HW  HW  OW  HW  HW  OW  HW  HW  OW  HW  HW  OW  HW  HW  OW  HW  HW  OW  HW  
HW  OW  HW  HW  OW  HW  HW  OW  HW  HW  OW  HW  HW  OW  HW  HW  OW  HW  HW  OW  
HW  HW  OW  HW  HW  OW  HW  HW  OW  HW  HW  OW  HW  HW  OW  HW  HW  OW  HW  HW  
OW  HW  HW  OW  HW  HW  OW  HW  HW  OW  HW  HW  OW  HW  HW  OW  HW  HW  OW  HW  
HW  OW  HW  HW  OW  HW  HW  OW  HW  HW  OW  HW  HW  OW  HW  HW  OW  HW  HW  OW  
HW  HW  OW  HW  HW  OW  HW  HW  OW  HW  HW  OW  HW  HW  OW  HW  HW  OW  HW  HW  
OW  HW  HW  OW  HW  HW  OW  HW  HW  OW  HW  HW  OW  HW  HW  OW  HW  HW  OW  HW  
HW  OW  HW  HW  OW  HW  HW  OW  HW  HW  OW  HW  HW  OW  HW  HW  OW  HW  HW  OW  
HW  HW  OW  HW  HW  OW  HW  HW  OW  HW  HW  OW  HW  HW  OW  HW  HW  OW  HW  HW  
OW  HW  HW  OW  HW  HW  OW  HW  HW  OW  HW  HW  OW  HW  HW  OW  HW  HW  OW  HW  
HW  OW  HW  HW  OW  HW  HW  OW  HW  HW  OW  HW  HW  OW  HW  HW  OW  HW  HW  OW  
HW  HW  OW  HW  HW  OW  HW  HW  OW  HW  HW  OW  HW  HW  OW  HW  HW  OW  HW  HW  
OW  HW  HW  OW  HW  HW  OW  HW  HW  OW  HW  HW  OW  HW  HW  OW  HW  HW  OW  HW  
HW  OW  HW  HW  OW  HW  HW  OW  HW  HW  OW  HW  HW  OW  HW  HW  OW  HW  HW  OW  
HW  HW  OW  HW  HW  OW  HW  HW  OW  HW  HW  OW  HW  HW  OW  HW  HW  OW  HW  HW  
OW  HW  HW  OW  HW  HW  OW  HW  HW  OW  HW  HW  OW  HW  HW  OW  HW  HW  OW  HW  
HW  OW  HW  HW  OW  HW  HW  OW  HW  HW  OW  HW  HW  OW  HW  HW  OW  HW  HW  OW  
HW  HW  OW  HW  HW  OW  HW  HW  OW  HW  HW  OW  HW  HW  OW  HW  HW  OW  HW  HW  
OW  HW  HW  OW  HW  HW  OW  HW  HW  OW  HW  HW  OW  HW  HW  OW  HW  HW  OW  HW  
HW  OW  HW  HW  OW  HW  HW  OW  HW  HW  OW  HW  HW  OW  HW  HW  OW  HW  HW  OW  
HW  HW  OW  HW  HW  OW  HW  HW  OW  HW  HW  OW  HW  HW  OW  HW  HW  OW  HW  HW  
OW  HW  HW  OW  HW  HW  OW  HW  HW  OW  HW  HW  OW  HW  HW  OW  HW  HW  OW  HW  
HW  OW  HW  HW  OW  HW  HW  OW  HW  HW  OW  HW  HW  OW  HW  HW  OW  HW  HW  OW  
HW  HW  OW  HW  HW  OW  HW  HW  OW  HW  HW  OW  HW  HW  OW  HW  HW  OW  HW  HW  
OW  HW  HW  OW  HW  HW  OW  HW  HW  OW  HW  HW  OW  HW  HW  OW  HW  HW  OW  HW  
HW  OW  HW  HW  OW  HW  HW  OW  HW  HW  OW  HW  HW  OW  HW  HW  OW  HW  HW  OW  
HW  HW  OW  HW  HW  OW  HW  HW  OW  HW  HW  OW  HW  HW  OW  HW  HW  OW  HW  HW  
OW  HW  HW  OW  HW  HW  OW  HW  HW  OW  HW  HW  OW  HW  HW  OW  HW  HW  OW  HW  
HW  OW  HW  HW  OW  HW  HW  OW  HW  HW  OW  HW  HW  OW  HW  HW  OW  HW  HW  OW  
HW  HW  OW  HW  HW  OW  HW  HW  OW  HW  HW  OW  HW  HW  OW  HW  HW  OW  HW  HW  
OW  HW  HW  OW  HW  HW  OW  HW  HW  OW  HW  HW  OW  HW  HW  OW  HW  HW  OW  HW  
HW  OW  HW  HW  OW  HW  HW  OW  HW  HW  OW  HW  HW  OW  HW  HW  OW  HW  HW  OW  
HW  HW  OW  HW  HW  OW  HW  HW  OW  HW  HW  OW  HW  HW  OW  HW  HW  OW  HW  HW  
OW  HW  HW  OW  HW  HW  OW  HW  HW  OW  HW  HW  OW  HW  HW  OW  HW  HW  OW  HW  
HW  OW  HW  HW  OW  HW  HW  OW  HW  HW  OW  HW  HW  OW  HW  HW  OW  HW  HW  OW  
HW  HW  OW  HW  HW  OW  HW  HW  OW  HW  HW  OW  HW  HW  OW  HW  HW  OW  HW  HW  
OW  HW  HW  OW  HW  HW  OW  HW  HW  OW  HW  HW  OW  HW  HW  OW  HW  HW  OW  HW  
HW  OW  HW  HW  OW  HW  HW  OW  HW  HW  OW  HW  HW  OW  HW  HW  OW  HW  HW  OW  
HW  HW  OW  HW  HW  OW  HW  HW  OW  HW  HW  OW  HW  HW  OW  HW  HW  OW  HW  HW  
OW  HW  HW  OW  HW  HW  OW  HW  HW  OW  HW  HW  OW  HW  HW  OW  HW  HW  OW  HW  
HW  OW  HW  HW  OW  HW  HW  OW  HW  HW  OW  HW  HW  OW  HW  HW  OW  HW  HW  OW  
HW  HW  OW  HW  HW  OW  HW  HW  OW  HW  HW  OW  HW  HW  OW  HW  HW  OW  HW  HW  
OW  HW  HW  OW  HW  HW  OW  HW  HW  OW  HW  HW  OW  HW  HW  OW  HW  HW  OW  HW  
HW  OW  HW  HW  OW  HW  HW  OW  HW  HW  OW  HW  HW  OW  HW  HW  OW  HW  HW  OW  
HW  HW  OW  HW  HW  OW  HW  HW  OW  HW  HW  OW  HW  HW  OW  HW  HW  OW  HW  HW  
OW  HW  HW  OW  HW  HW  OW  HW  HW  OW  HW  HW  OW  HW  HW  OW  HW  HW  OW  HW  
HW  OW  HW  HW  OW  HW  HW  OW  HW  HW  OW  HW  HW  OW  HW  HW  OW  HW  HW  OW  
HW  HW  OW  HW  HW  OW  HW  HW  OW  HW  HW  OW  HW  HW  OW  HW  HW  OW  HW  HW  
OW  HW  HW  OW  HW  HW  OW  HW  HW  OW  HW  HW  OW  HW  HW  OW  HW  HW  OW  HW  
HW  OW  HW  HW  OW  HW  HW  OW  HW  HW  OW  HW  HW  OW  HW  HW  OW  HW  HW  OW  
HW  HW  OW  HW  HW  OW  HW  HW  OW  HW  HW  OW  HW  HW  OW  HW  HW  OW  HW  HW  
OW  HW  HW  OW  HW  HW  OW  HW  HW  OW  HW  HW  OW  HW  HW  OW  HW  HW  OW  HW  
HW  OW  HW  HW  OW  HW  HW  OW  HW  HW  OW  HW  HW  OW  HW  HW  OW  HW  HW  OW  
HW  HW  OW  HW  HW  OW  HW  HW  OW  HW  HW  OW  HW  HW  OW  HW  HW  OW  HW  HW  
OW  HW  HW  OW  HW  HW  OW  HW  HW  OW  HW  HW  OW  HW  HW  OW  HW  HW  OW  HW  
HW  OW  HW  HW  OW  HW  HW  OW  HW  HW  OW  HW  HW  OW  HW  HW  OW  HW  HW  OW  
HW  HW  OW  HW  HW  OW  HW  HW  OW  HW  HW  OW  HW  HW  OW  HW  HW  OW  HW  HW  
OW  HW  HW  OW  HW  HW  OW  HW  HW  OW  HW  HW  OW  HW  HW  OW  HW  HW  OW  HW  
HW  OW  HW  HW  OW  HW  HW  OW  HW  HW  OW  HW  HW  OW  HW  HW  OW  HW  HW  OW  
HW  HW  OW  HW  HW  OW  HW  HW  OW  HW  HW  OW  HW  HW  OW  HW  HW  OW  HW  HW  
OW  HW  HW  OW  HW  HW  OW  HW  HW  OW  HW  HW  OW  HW  HW  OW  HW  HW  OW  HW  
HW  OW  HW  HW  OW  HW  HW  OW  HW  HW  OW  HW  HW  OW  HW  HW  OW  HW  HW  OW  
HW  HW  OW  HW  HW  OW  HW  HW  OW  HW  HW  OW  HW  HW  OW  HW  HW  OW  HW  HW  
OW  HW  HW  OW  HW  HW  OW  HW  HW  OW  HW  HW  OW  HW  HW  OW  HW  HW  OW  HW  
HW  OW  HW  HW  OW  HW  HW  OW  HW  HW  OW  HW  HW  OW  HW  HW  OW  HW  HW  OW  
HW  HW  OW  HW  HW  OW  HW  HW  OW  HW  HW  OW  HW  HW  OW  HW  HW  OW  HW  HW  
OW  HW  HW  OW  HW  HW  OW  HW  HW  OW  HW  HW  OW  HW  HW  OW  HW  HW  OW  HW  
HW  OW  HW  HW  OW  HW  HW  OW  HW  HW  OW  HW  HW  OW  HW  HW  OW  HW  HW  OW  
HW  HW  OW  HW  HW  OW  HW  HW  OW  HW  HW  OW  HW  HW  OW  HW  HW  OW  HW  HW  
OW  HW  HW  OW  HW  HW  OW  HW  HW  OW  HW  HW  OW  HW  HW  OW  HW  HW  OW  HW  
HW  OW  HW  HW  OW  HW  HW  OW  HW  HW  OW  HW  HW  OW  HW  HW  OW  HW  HW  OW  
HW  HW  OW  HW  HW  OW  HW  HW  OW  HW  HW  OW  HW  HW  OW  HW  HW  OW  HW  HW  
OW  HW  HW  OW  HW  HW  OW  HW  HW  OW  HW  HW  OW  HW  HW  OW  HW  HW  OW  HW  
HW  OW  HW  HW  OW  HW  HW  OW  HW  HW  OW  HW  HW  OW  HW  HW  OW  HW  HW  OW  
HW  HW  OW  HW  HW  OW  HW  HW  OW  HW  HW  OW  HW  HW  OW  HW  HW  OW  HW  HW  
OW  HW  HW  OW  HW  HW  OW  HW  HW  OW  HW  HW  OW  HW  HW  OW  HW  HW  OW  HW  
HW  OW  HW  HW  OW  HW  HW  OW  HW  HW  OW  HW  HW  OW  HW  HW  OW  HW  HW  OW  
HW  HW  OW  HW  HW  OW  HW  HW  OW  HW  HW  OW  HW  HW  OW  HW  HW  OW  HW  HW  
OW  HW  HW  OW  HW  HW  OW  HW  HW  OW  HW  HW  OW  HW  HW  OW  HW  HW  OW  HW  
HW  OW  HW  HW  OW  HW  HW  OW  HW  HW  OW  HW  HW  OW  HW  HW  OW  HW  HW  OW  
HW  HW  OW  HW  HW  OW  HW  HW  OW  HW  HW  OW  HW  HW  OW  HW  HW  OW  HW  HW  
OW  HW  HW  OW  HW  HW  OW  HW  HW  OW  HW  HW  OW  HW  HW  OW  HW  HW  OW  HW  
HW  OW  HW  HW  OW  HW  HW  OW  HW  HW  OW  HW  HW  OW  HW  HW  OW  HW  HW  OW  
HW  HW  OW  HW  HW  OW  HW  HW  OW  HW  HW  OW  HW  HW  OW  HW  HW  OW  HW  HW  
OW  HW  HW  OW  HW  HW  OW  HW  HW  OW  HW  HW  OW  HW  HW  OW  HW  HW  OW  HW  
HW  OW  HW  HW  OW  HW  HW  OW  HW  HW  OW  HW  HW  OW  HW  HW  OW  HW  HW  OW  
HW  HW  OW  HW  HW  OW  HW  HW  OW  HW  HW  OW  HW  HW  OW  HW  HW  OW  HW  HW  
OW  HW  HW  OW  HW  HW  OW  HW  HW  OW  HW  HW  OW  HW  HW  OW  HW  HW  OW  HW  
HW  OW  HW  HW  OW  HW  HW  OW  HW  HW  OW  HW  HW  OW  HW  HW  OW  HW  HW  OW  
HW  HW  OW  HW  HW  OW  HW  HW  OW  HW  HW  OW  HW  HW  OW  HW  HW  OW  HW  HW  
OW  HW  HW  OW  HW  HW  OW  HW  HW  OW  HW  HW  OW  HW  HW  OW  HW  HW  OW  HW  
HW  OW  HW  HW  OW  HW  HW  OW  HW  HW  OW  HW  HW  OW  HW  HW  OW  HW  HW  OW  
HW  HW  OW  HW  HW  OW  HW  HW  OW  HW  HW  OW  HW  HW  OW  HW  HW  OW  HW  HW  
OW  HW  HW  OW  HW  HW  OW  HW  HW  OW  HW  HW  OW  HW  HW  OW  HW  HW  OW  HW  
HW  OW  HW  HW  OW  HW  HW  OW  HW  HW  OW  HW  HW  OW  HW  HW  OW  HW  HW  OW  
HW  HW  OW  HW  HW  OW  HW  HW  OW  HW  HW  OW  HW  HW  OW  HW  HW  OW  HW  HW  
OW  HW  HW  OW  HW  HW  OW  HW  HW  OW  HW  HW  OW  HW  HW  OW  HW  HW  OW  HW  
HW  OW  HW  HW  OW  HW  HW  OW  HW  HW  OW  HW  HW  OW  HW  HW  OW  HW  HW  OW  
HW  HW  OW  HW  HW  OW  HW  HW  OW  HW  HW  OW  HW  HW  OW  HW  HW  OW  HW  HW  
OW  HW  HW  OW  HW  HW  OW  HW  HW  OW  HW  HW  OW  HW  HW  OW  HW  HW  OW  HW  
HW  OW  HW  HW  OW  HW  HW  OW  HW  HW  OW  HW  HW  OW  HW  HW  OW  HW  HW  OW  
HW  HW  OW  HW  HW  OW  HW  HW  OW  HW  HW  OW  HW  HW  OW  HW  HW  OW  HW  HW  
OW  HW  HW  OW  HW  HW  OW  HW  HW  OW  HW  HW  OW  HW  HW  OW  HW  HW  OW  HW  
HW  OW  HW  HW  OW  HW  HW  OW  HW  HW  OW  HW  HW  OW  HW  HW  OW  HW  HW  OW  
HW  HW  OW  HW  HW  OW  HW  HW  OW  HW  HW  OW  HW  HW  OW  HW  HW  OW  HW  HW  
OW  HW  HW  OW  HW  HW  OW  HW  HW  OW  HW  HW  OW  HW  HW  OW  HW  HW  OW  HW  
HW  OW  HW  HW  OW  HW  HW  OW  HW  HW  OW  HW  HW  OW  HW  HW  OW  HW  HW  OW  
HW  HW  OW  HW  HW  OW  HW  HW  OW  HW  HW  OW  HW  HW  OW  HW  HW  OW  HW  HW  
OW  HW  HW  OW  HW  HW  OW  HW  HW  OW  HW  HW  OW  HW  HW  OW  HW  HW  OW  HW  
HW  OW  HW  HW  OW  HW  HW  OW  HW  HW  OW  HW  HW  OW  HW  HW  OW  HW  HW  OW  
HW  HW  OW  HW  HW  OW  HW  HW  OW  HW  HW  OW  HW  HW  OW  HW  HW  OW  HW  HW  
OW  HW  HW  OW  HW  HW  OW  HW  HW  OW  HW  HW  OW  HW  HW  OW  HW  HW  OW  HW  
HW  OW  HW  HW  OW  HW  HW  OW  HW  HW  OW  HW  HW  OW  HW  HW  OW  HW  HW  OW  
HW  HW  OW  HW  HW  OW  HW  HW  OW  HW  HW  OW  HW  HW  OW  HW  HW  OW  HW  HW  
OW  HW  HW  OW  HW  HW  OW  HW  HW  OW  HW  HW  OW  HW  HW  OW  HW  HW  OW  HW  
HW  OW  HW  HW  OW  HW  HW  OW  HW  HW  OW  HW  HW  OW  HW  HW  OW  HW  HW  OW  
HW  HW  OW  HW  HW  OW  HW  HW  OW  HW  HW  OW  HW  HW  OW  HW  HW  OW  HW  HW  
OW  HW  HW  OW  HW  HW  OW  HW  HW  OW  HW  HW  OW  HW  HW  OW  HW  HW  OW  HW  
HW  OW  HW  HW  OW  HW  HW  OW  HW  HW  OW  HW  HW  OW  HW  HW  OW  HW  HW  OW  
HW  HW  OW  HW  HW  OW  HW  HW  OW  HW  HW  OW  HW  HW  OW  HW  HW  OW  HW  HW  
OW  HW  HW  OW  HW  HW  OW  HW  HW  OW  HW  HW  OW  HW  HW  OW  HW  HW  OW  HW  
HW  OW  HW  HW  OW  HW  HW  OW  HW  HW  OW  HW  HW  OW  HW  HW  OW  HW  HW  OW  
HW  HW  OW  HW  HW  OW  HW  HW  OW  HW  HW  OW  HW  HW  OW  HW  HW  OW  HW  HW  
OW  HW  HW  OW  HW  HW  OW  HW  HW  OW  HW  HW  OW  HW  HW  OW  HW  HW  OW  HW  
HW  OW  HW  HW  OW  HW  HW  OW  HW  HW  OW  HW  HW  OW  HW  HW  OW  HW  HW  OW  
HW  HW  OW  HW  HW  OW  HW  HW  OW  HW  HW  OW  HW  HW  OW  HW  HW  OW  HW  HW  
OW  HW  HW  OW  HW  HW  OW  HW  HW  OW  HW  HW  OW  HW  HW  OW  HW  HW  OW  HW  
HW  OW  HW  HW  OW  HW  HW  OW  HW  HW  OW  HW  HW  OW  HW  HW  OW  HW  HW  OW  
HW  HW  OW  HW  HW  OW  HW  HW  OW  HW  HW  OW  HW  HW  OW  HW  HW  OW  HW  HW  
OW  HW  HW  OW  HW  HW  OW  HW  HW  OW  HW  HW  OW  HW  HW  OW  HW  HW  OW  HW  
HW  OW  HW  HW  OW  HW  HW  OW  HW  HW  OW  HW  HW  OW  HW  HW  OW  HW  HW  OW  
HW  HW  OW  HW  HW  OW  HW  HW  OW  HW  HW  OW  HW  HW  OW  HW  HW  OW  HW  HW  
OW  HW  HW  OW  HW  HW  OW  HW  HW  OW  HW  HW  OW  HW  HW  OW  HW  HW  OW  HW  
HW  OW  HW  HW  OW  HW  HW  OW  HW  HW  OW  HW  HW  OW  HW  HW  OW  HW  HW  OW  
HW  HW  OW  HW  HW  OW  HW  HW  OW  HW  HW  OW  HW  HW  OW  HW  HW  OW  HW  HW  
OW  HW  HW  OW  HW  HW  OW  HW  HW  OW  HW  HW  OW  HW  HW  OW  HW  HW  OW  HW  
HW  OW  HW  HW  OW  HW  HW  OW  HW  HW  OW  HW  HW  OW  HW  HW  OW  HW  HW  OW  
HW  HW  OW  HW  HW  OW  HW  HW  OW  HW  HW  OW  HW  HW  OW  HW  HW  OW  HW  HW  
OW  HW  HW  OW  HW  HW  OW  HW  HW  OW  HW  HW  OW  HW  HW  OW  HW  HW  OW  HW  
HW  OW  HW  HW  OW  HW  HW  OW  HW  HW  OW  HW  HW  OW  HW  HW  OW  HW  HW  OW  
HW  HW  OW  HW  HW  OW  HW  HW  OW  HW  HW  OW  HW  HW  OW  HW  HW  OW  HW  HW  
OW  HW  HW  OW  HW  HW  OW  HW  HW  OW  HW  HW  OW  HW  HW  OW  HW  HW  OW  HW  
HW  OW  HW  HW  OW  HW  HW  OW  HW  HW  OW  HW  HW  OW  HW  HW  OW  HW  HW  OW  
HW  HW  OW  HW  HW  OW  HW  HW  OW  HW  HW  OW  HW  HW  OW  HW  HW  OW  HW  HW  
OW  HW  HW  OW  HW  HW  OW  HW  HW  OW  HW  HW  OW  HW  HW  OW  HW  HW  OW  HW  
HW  OW  HW  HW  OW  HW  HW  OW  HW  HW  OW  HW  HW  OW  HW  HW  OW  HW  HW  OW  
HW  HW  OW  HW  HW  OW  HW  HW  OW  HW  HW  OW  HW  HW  OW  HW  HW  OW  HW  HW  
OW  HW  HW  OW  HW  HW  OW  HW  HW  OW  HW  HW  OW  HW  HW  OW  HW  HW  OW  HW  
HW  OW  HW  HW  OW  HW  HW  OW  HW  HW  OW  HW  HW  OW  HW  HW  OW  HW  HW  OW  
HW  HW  OW  HW  HW  OW  HW  HW  OW  HW  HW  OW  HW  HW  OW  HW  HW  OW  HW  HW  
OW  HW  HW  OW  HW  HW  OW  HW  HW  OW  HW  HW  OW  HW  HW  OW  HW  HW  OW  HW  
HW  OW  HW  HW  OW  HW  HW  OW  HW  HW  OW  HW  HW  OW  HW  HW  OW  HW  HW  OW  
HW  HW  OW  HW  HW  OW  HW  HW  OW  HW  HW  OW  HW  HW  OW  HW  HW  OW  HW  HW  
OW  HW  HW  OW  HW  HW  OW  HW  HW  OW  HW  HW  OW  HW  HW  OW  HW  HW  OW  HW  
HW  OW  HW  HW  OW  HW  HW  OW  HW  HW  OW  HW  HW  OW  HW  HW  OW  HW  HW  OW  
HW  HW  OW  HW  HW  OW  HW  HW  OW  HW  HW  OW  HW  HW  OW  HW  HW  OW  HW  HW  
OW  HW  HW  OW  HW  HW  OW  HW  HW  OW  HW  HW  OW  HW  HW  OW  HW  HW  OW  HW  
HW  OW  HW  HW  OW  HW  HW  OW  HW  HW  OW  HW  HW  OW  HW  HW  OW  HW  HW  OW  
HW  HW  OW  HW  HW  OW  HW  HW  OW  HW  HW  OW  HW  HW  OW  HW  HW  OW  HW  HW  
OW  HW  HW  OW  HW  HW  OW  HW  HW  OW  HW  HW  OW  HW  HW  OW  HW  HW  OW  HW  
HW  OW  HW  HW  OW  HW  HW  OW  HW  HW  OW  HW  HW  OW  HW  HW  OW  HW  HW  OW  
HW  HW  OW  HW  HW  OW  HW  HW  OW  HW  HW  OW  HW  HW  OW  HW  HW  OW  HW  HW  
OW  HW  HW  OW  HW  HW  OW  HW  HW  OW  HW  HW  OW  HW  HW  OW  HW  HW  OW  HW  
HW  OW  HW  HW  OW  HW  HW  OW  HW  HW  OW  HW  HW  OW  HW  HW  OW  HW  HW  OW  
HW  HW  OW  HW  HW  OW  HW  HW  OW  HW  HW  OW  HW  HW  OW  HW  HW  OW  HW  HW  
OW  HW  HW  OW  HW  HW  OW  HW  HW  OW  HW  HW  OW  HW  HW  OW  HW  HW  OW  HW  
HW  OW  HW  HW  OW  HW  HW  OW  HW  HW  OW  HW  HW  OW  HW  HW  OW  HW  HW  OW  
HW  HW  OW  HW  HW  OW  HW  HW  OW  HW  HW  OW  HW  HW  OW  HW  HW  OW  HW  HW  
OW  HW  HW  OW  HW  HW  OW  HW  HW  OW  HW  HW  OW  HW  HW  OW  HW  HW  OW  HW  
HW  OW  HW  HW  OW  HW  HW  OW  HW  HW  OW  HW  HW  OW  HW  HW  OW  HW  HW  OW  
HW  HW  OW  HW  HW  OW  HW  HW  OW  HW  HW  OW  HW  HW  OW  HW  HW  OW  HW  HW  
OW  HW  HW  OW  HW  HW  OW  HW  HW  OW  HW  HW  OW  HW  HW  OW  HW  HW  OW  HW  
HW  OW  HW  HW  OW  HW  HW  OW  HW  HW  OW  HW  HW  OW  HW  HW  OW  HW  HW  OW  
HW  HW  OW  HW  HW  OW  HW  HW  OW  HW  HW  OW  HW  HW  OW  HW  HW  OW  HW  HW  
OW  HW  HW  OW  HW  HW  OW  HW  HW  OW  HW  HW  OW  HW  HW  OW  HW  HW  OW  HW  
HW  OW  HW  HW  OW  HW  HW  OW  HW  HW  OW  HW  HW  OW  HW  HW  OW  HW  HW  OW  
HW  HW  OW  HW  HW  OW  HW  HW  OW  HW  HW  OW  HW  HW  OW  HW  HW  OW  HW  HW  
OW  HW  HW  OW  HW  HW  OW  HW  HW  OW  HW  HW  OW  HW  HW  OW  HW  HW  OW  HW  
HW  OW  HW  HW  OW  HW  HW  OW  HW  HW  OW  HW  HW  OW  HW  HW  OW  HW  HW  OW  
HW  HW  OW  HW  HW  OW  HW  HW  OW  HW  HW  OW  HW  HW  OW  HW  HW  OW  HW  HW  
OW  HW  HW  OW  HW  HW  OW  HW  HW  OW  HW  HW  OW  HW  HW  OW  HW  HW  OW  HW  
HW  OW  HW  HW  OW  HW  HW  OW  HW  HW  OW  HW  HW  OW  HW  HW  OW  HW  HW  OW  
HW  HW  OW  HW  HW  OW  HW  HW  OW  HW  HW  OW  HW  HW  OW  HW  HW  OW  HW  HW  
OW  HW  HW  OW  HW  HW  OW  HW  HW  OW  HW  HW  OW  HW  HW  OW  HW  HW  OW  HW  
HW  OW  HW  HW  OW  HW  HW  OW  HW  HW  OW  HW  HW  OW  HW  HW  OW  HW  HW  OW  
HW  HW  OW  HW  HW  OW  HW  HW  OW  HW  HW  OW  HW  HW  OW  HW  HW  OW  HW  HW  
OW  HW  HW  OW  HW  HW  OW  HW  HW  OW  HW  HW  OW  HW  HW  OW  HW  HW  OW  HW  
HW  OW  HW  HW  OW  HW  HW  OW  HW  HW  OW  HW  HW  OW  HW  HW  OW  HW  HW  OW  
HW  HW  OW  HW  HW  OW  HW  HW  OW  HW  HW  OW  HW  HW  OW  HW  HW  OW  HW  HW  
OW  HW  HW  OW  HW  HW  OW  HW  HW  OW  HW  HW  OW  HW  HW  OW  HW  HW  OW  HW  
HW  OW  HW  HW  OW  HW  HW  OW  HW  HW  OW  HW  HW  OW  HW  HW  OW  HW  HW  OW  
HW  HW  OW  HW  HW  OW  HW  HW  OW  HW  HW  OW  HW  HW  OW  HW  HW  OW  HW  HW  
OW  HW  HW  OW  HW  HW  OW  HW  HW  OW  HW  HW  OW  HW  HW  OW  HW  HW  OW  HW  
HW  OW  HW  HW  OW  HW  HW  OW  HW  HW  OW  HW  HW  OW  HW  HW  OW  HW  HW  OW  
HW  HW  OW  HW  HW  OW  HW  HW  OW  HW  HW  OW  HW  HW  OW  HW  HW  OW  HW  HW  
OW  HW  HW  OW  HW  HW  OW  HW  HW  OW  HW  HW  OW  HW  HW  OW  HW  HW  OW  HW  
HW  OW  HW  HW  OW  HW  HW  OW  HW  HW  OW  HW  HW  OW  HW  HW  OW  HW  HW  OW  
HW  HW  OW  HW  HW  OW  HW  HW  OW  HW  HW  OW  HW  HW  OW  HW  HW  OW  HW  HW  
OW  HW  HW  OW  HW  HW  OW  HW  HW  OW  HW  HW  OW  HW  HW  OW  HW  HW  OW  HW  
HW  OW  HW  HW  OW  HW  HW  OW  HW  HW  OW  HW  HW  OW  HW  HW  OW  HW  HW  OW  
HW  HW  OW  HW  HW  OW  HW  HW  OW  HW  HW  OW  HW  HW  OW  HW  HW  OW  HW  HW  
OW  HW  HW  OW  HW  HW  OW  HW  HW  OW  HW  HW  OW  HW  HW  OW  HW  HW  OW  HW  
HW  OW  HW  HW  OW  HW  HW  OW  HW  HW  OW  HW  HW  OW  HW  HW  OW  HW  HW  OW  
HW  HW  OW  HW  HW  OW  HW  HW  OW  HW  HW  OW  HW  HW  OW  HW  HW  OW  HW  HW  
OW  HW  HW  OW  HW  HW  OW  HW  HW  OW  HW  HW  OW  HW  HW  OW  HW  HW  OW  HW  
HW  OW  HW  HW  OW  HW  HW  OW  HW  HW  OW  HW  HW  OW  HW  HW  OW  HW  HW  OW  
HW  HW  OW  HW  HW  OW  HW  HW  OW  HW  HW  OW  HW  HW  OW  HW  HW  OW  HW  HW  
OW  HW  HW  OW  HW  HW  OW  HW  HW  OW  HW  HW  OW  HW  HW  OW  HW  HW  OW  HW  
HW  OW  HW  HW  OW  HW  HW  OW  HW  HW  OW  HW  HW  OW  HW  HW  OW  HW  HW  OW  
HW  HW  OW  HW  HW  OW  HW  HW  OW  HW  HW  OW  HW  HW  OW  HW  HW  OW  HW  HW  
OW  HW  HW  OW  HW  HW  OW  HW  HW  OW  HW  HW  OW  HW  HW  OW  HW  HW  OW  HW  
HW  OW  HW  HW  OW  HW  HW  OW  HW  HW  OW  HW  HW  OW  HW  HW  OW  HW  HW  OW  
HW  HW  OW  HW  HW  OW  HW  HW  OW  HW  HW  OW  HW  HW  OW  HW  HW  OW  HW  HW  
OW  HW  HW  OW  HW  HW  OW  HW  HW  OW  HW  HW  OW  HW  HW  OW  HW  HW  OW  HW  
HW  OW  HW  HW  OW  HW  HW  OW  HW  HW  OW  HW  HW  OW  HW  HW  OW  HW  HW  OW  
HW  HW  OW  HW  HW  OW  HW  HW  OW  HW  HW  OW  HW  HW  OW  HW  HW  OW  HW  HW  
OW  HW  HW  OW  HW  HW  OW  HW  HW  OW  HW  HW  OW  HW  HW  OW  HW  HW  OW  HW  
HW  OW  HW  HW  OW  HW  HW  OW  HW  HW  OW  HW  HW  OW  HW  HW  OW  HW  HW  OW  
HW  HW  OW  HW  HW  OW  HW  HW  OW  HW  HW  OW  HW  HW  OW  HW  HW  OW  HW  HW  
OW  HW  HW  OW  HW  HW  OW  HW  HW  OW  HW  HW  OW  HW  HW  OW  HW  HW  OW  HW  
HW  OW  HW  HW  OW  HW  HW  OW  HW  HW  OW  HW  HW  OW  HW  HW  OW  HW  HW  OW  
HW  HW  OW  HW  HW  OW  HW  HW  OW  HW  HW  OW  HW  HW  OW  HW  HW  OW  HW  HW  
OW  HW  HW  OW  HW  HW  OW  HW  HW  OW  HW  HW  OW  HW  HW  OW  HW  HW  OW  HW  
HW  OW  HW  HW  OW  HW  HW  OW  HW  HW  OW  HW  HW  OW  HW  HW  OW  HW  HW  OW  
HW  HW  OW  HW  HW  OW  HW  HW  OW  HW  HW  OW  HW  HW  OW  HW  HW  OW  HW  HW  
OW  HW  HW  OW  HW  HW  OW  HW  HW  OW  HW  HW  OW  HW  HW  OW  HW  HW  OW  HW  
HW  OW  HW  HW  OW  HW  HW  OW  HW  HW  OW  HW  HW  OW  HW  HW  OW  HW  HW  OW  
HW  HW  OW  HW  HW  OW  HW  HW  OW  HW  HW  OW  HW  HW  OW  HW  HW  OW  HW  HW  
OW  HW  HW  OW  HW  HW  OW  HW  HW  OW  HW  HW  OW  HW  HW  OW  HW  HW  OW  HW  
HW  OW  HW  HW  OW  HW  HW  OW  HW  HW  OW  HW  HW  OW  HW  HW  OW  HW  HW  OW  
HW  HW  OW  HW  HW  OW  HW  HW  OW  HW  HW  OW  HW  HW  OW  HW  HW  OW  HW  HW  
OW  HW  HW  OW  HW  HW  OW  HW  HW  OW  HW  HW  OW  HW  HW  OW  HW  HW  OW  HW  
HW  OW  HW  HW  OW  HW  HW  OW  HW  HW  OW  HW  HW  OW  HW  HW  OW  HW  HW  OW  
HW  HW  OW  HW  HW  OW  HW  HW  OW  HW  HW  OW  HW  HW  OW  HW  HW  OW  HW  HW  
OW  HW  HW  OW  HW  HW  OW  HW  HW  OW  HW  HW  OW  HW  HW  OW  HW  HW  OW  HW  
HW  OW  HW  HW  OW  HW  HW  OW  HW  HW  OW  HW  HW  OW  HW  HW  OW  HW  HW  OW  
HW  HW  OW  HW  HW  OW  HW  HW  OW  HW  HW  OW  HW  HW  OW  HW  HW  OW  HW  HW  
OW  HW  HW  OW  HW  HW  OW  HW  HW  OW  HW  HW  OW  HW  HW  OW  HW  HW  OW  HW  
HW  OW  HW  HW  OW  HW  HW  OW  HW  HW  OW  HW  HW  OW  HW  HW  OW  HW  HW  OW  
HW  HW  OW  HW  HW  OW  HW  HW  OW  HW  HW  OW  HW  HW  OW  HW  HW  OW  HW  HW  
OW  HW  HW  OW  HW  HW  OW  HW  HW  OW  HW  HW  OW  HW  HW  OW  HW  HW  OW  HW  
HW  OW  HW  HW  OW  HW  HW  OW  HW  HW  OW  HW  HW  OW  HW  HW  OW  HW  HW  OW  
HW  HW  OW  HW  HW  OW  HW  HW  OW  HW  HW  OW  HW  HW  OW  HW  HW  OW  HW  HW  
OW  HW  HW  OW  HW  HW  OW  HW  HW  OW  HW  HW  OW  HW  HW  OW  HW  HW  OW  HW  
HW  OW  HW  HW  OW  HW  HW  OW  HW  HW  OW  HW  HW  OW  HW  HW  OW  HW  HW  OW  
HW  HW  OW  HW  HW  OW  HW  HW  OW  HW  HW  OW  HW  HW  OW  HW  HW  OW  HW  HW  
OW  HW  HW  OW  HW  HW  OW  HW  HW  OW  HW  HW  OW  HW  HW  OW  HW  HW  OW  HW  
HW  OW  HW  HW  OW  HW  HW  OW  HW  HW  OW  HW  HW  OW  HW  HW  OW  HW  HW  OW  
HW  HW  OW  HW  HW  OW  HW  HW  OW  HW  HW  OW  HW  HW  OW  HW  HW  OW  HW  HW  
OW  HW  HW  OW  HW  HW  OW  HW  HW  OW  HW  HW  OW  HW  HW  OW  HW  HW  OW  HW  
HW  OW  HW  HW  OW  HW  HW  OW  HW  HW  OW  HW  HW  OW  HW  HW  OW  HW  HW  OW  
HW  HW  OW  HW  HW  OW  HW  HW  OW  HW  HW  OW  HW  HW  OW  HW  HW  OW  HW  HW  
OW  HW  HW  OW  HW  HW  OW  HW  HW  OW  HW  HW  OW  HW  HW  OW  HW  HW  OW  HW  
HW  OW  HW  HW  OW  HW  HW  OW  HW  HW  OW  HW  HW  OW  HW  HW  OW  HW  HW  OW  
HW  HW  OW  HW  HW  OW  HW  HW  OW  HW  HW  OW  HW  HW  OW  HW  HW  OW  HW  HW  
OW  HW  HW  OW  HW  HW  OW  HW  HW  OW  HW  HW  OW  HW  HW  OW  HW  HW  OW  HW  
HW  OW  HW  HW  OW  HW  HW  OW  HW  HW  OW  HW  HW  OW  HW  HW  OW  HW  HW  OW  
HW  HW  OW  HW  HW  OW  HW  HW  OW  HW  HW  OW  HW  HW  OW  HW  HW  OW  HW  HW  
OW  HW  HW  OW  HW  HW  OW  HW  HW  OW  HW  HW  OW  HW  HW  OW  HW  HW  OW  HW  
HW  OW  HW  HW  OW  HW  HW  OW  HW  HW  OW  HW  HW  OW  HW  HW  OW  HW  HW  OW  
HW  HW  OW  HW  HW  OW  HW  HW  OW  HW  HW  OW  HW  HW  OW  HW  HW  OW  HW  HW  
OW  HW  HW  OW  HW  HW  OW  HW  HW  OW  HW  HW  OW  HW  HW  OW  HW  HW  OW  HW  
HW  OW  HW  HW  OW  HW  HW  OW  HW  HW  OW  HW  HW  OW  HW  HW  OW  HW  HW  OW  
HW  HW  OW  HW  HW  OW  HW  HW  OW  HW  HW  OW  HW  HW  OW  HW  HW  OW  HW  HW  
OW  HW  HW  OW  HW  HW  OW  HW  HW  OW  HW  HW  OW  HW  HW  OW  HW  HW  OW  HW  
HW  OW  HW  HW  OW  HW  HW  OW  HW  HW  OW  HW  HW  OW  HW  HW  OW  HW  HW  OW  
HW  HW  OW  HW  HW  OW  HW  HW  OW  HW  HW  OW  HW  HW  OW  HW  HW  OW  HW  HW  
OW  HW  HW  OW  HW  HW  OW  HW  HW  OW  HW  HW  OW  HW  HW  OW  HW  HW  OW  HW  
HW  OW  HW  HW  OW  HW  HW  OW  HW  HW  OW  HW  HW  OW  HW  HW  OW  HW  HW  OW  
HW  HW  OW  HW  HW  OW  HW  HW  OW  HW  HW  OW  HW  HW  OW  HW  HW  OW  HW  HW  
OW  HW  HW  OW  HW  HW  OW  HW  HW  OW  HW  HW  OW  HW  HW  OW  HW  HW  OW  HW  
HW  OW  HW  HW  OW  HW  HW  OW  HW  HW  OW  HW  HW  OW  HW  HW  OW  HW  HW  OW  
HW  HW  OW  HW  HW  OW  HW  HW  OW  HW  HW  OW  HW  HW  OW  HW  HW  OW  HW  HW  
OW  HW  HW  OW  HW  HW  OW  HW  HW  OW  HW  HW  OW  HW  HW  OW  HW  HW  OW  HW  
HW  OW  HW  HW  OW  HW  HW  OW  HW  HW  OW  HW  HW  OW  HW  HW  OW  HW  HW  OW  
HW  HW  OW  HW  HW  OW  HW  HW  OW  HW  HW  OW  HW  HW  OW  HW  HW  OW  HW  HW  
OW  HW  HW  OW  HW  HW  OW  HW  HW  OW  HW  HW  OW  HW  HW  OW  HW  HW  OW  HW  
HW  OW  HW  HW  OW  HW  HW  OW  HW  HW  OW  HW  HW  OW  HW  HW  OW  HW  HW  OW  
HW  HW  OW  HW  HW  OW  HW  HW  OW  HW  HW  OW  HW  HW  OW  HW  HW  OW  HW  HW  
OW  HW  HW  OW  HW  HW  OW  HW  HW  OW  HW  HW  OW  HW  HW  OW  HW  HW  OW  HW  
HW  OW  HW  HW  OW  HW  HW  OW  HW  HW  OW  HW  HW  OW  HW  HW  OW  HW  HW  OW  
HW  HW  OW  HW  HW  OW  HW  HW  OW  HW  HW  OW  HW  HW  OW  HW  HW  OW  HW  HW  
OW  HW  HW  OW  HW  HW  OW  HW  HW  OW  HW  HW  OW  HW  HW  OW  HW  HW  OW  HW  
HW  OW  HW  HW  OW  HW  HW  OW  HW  HW  OW  HW  HW  OW  HW  HW  OW  HW  HW  OW  
HW  HW  OW  HW  HW  OW  HW  HW  OW  HW  HW  OW  HW  HW  OW  HW  HW  OW  HW  HW  
OW  HW  HW  OW  HW  HW  OW  HW  HW  OW  HW  HW  OW  HW  HW  OW  HW  HW  OW  HW  
HW  OW  HW  HW  OW  HW  HW  OW  HW  HW  OW  HW  HW  OW  HW  HW  OW  HW  HW  OW  
HW  HW  OW  HW  HW  OW  HW  HW  OW  HW  HW  OW  HW  HW  OW  HW  HW  OW  HW  HW  
OW  HW  HW  OW  HW  HW  OW  HW  HW  OW  HW  HW  OW  HW  HW  OW  HW  HW  OW  HW  
HW  OW  HW  HW  OW  HW  HW  OW  HW  HW  OW  HW  HW  OW  HW  HW  OW  HW  HW  OW  
HW  HW  OW  HW  HW  OW  HW  HW  OW  HW  HW  OW  HW  HW  OW  HW  HW  OW  HW  HW  
OW  HW  HW  OW  HW  HW  OW  HW  HW  OW  HW  HW  OW  HW  HW  OW  HW  HW  OW  HW  
HW  OW  HW  HW  OW  HW  HW  OW  HW  HW  OW  HW  HW  OW  HW  HW  OW  HW  HW  OW  
HW  HW  OW  HW  HW  OW  HW  HW  OW  HW  HW  OW  HW  HW  OW  HW  HW  OW  HW  HW  
OW  HW  HW  OW  HW  HW  OW  HW  HW  OW  HW  HW  OW  HW  HW  OW  HW  HW  OW  HW  
HW  OW  HW  HW  OW  HW  HW  OW  HW  HW  OW  HW  HW  OW  HW  HW  OW  HW  HW  OW  
HW  HW  OW  HW  HW  OW  HW  HW  OW  HW  HW  OW  HW  HW  OW  HW  HW  OW  HW  HW  
OW  HW  HW  OW  HW  HW  OW  HW  HW  OW  HW  HW  OW  HW  HW  OW  HW  HW  OW  HW  
HW  OW  HW  HW  OW  HW  HW  OW  HW  HW  OW  HW  HW  OW  HW  HW  OW  HW  HW  OW  
HW  HW  OW  HW  HW  OW  HW  HW  OW  HW  HW  OW  HW  HW  OW  HW  HW  OW  HW  HW  
OW  HW  HW  OW  HW  HW  OW  HW  HW  OW  HW  HW  OW  HW  HW  OW  HW  HW  OW  HW  
HW  OW  HW  HW  OW  HW  HW  OW  HW  HW  OW  HW  HW  OW  HW  HW  OW  HW  HW  OW  
HW  HW  OW  HW  HW  OW  HW  HW  OW  HW  HW  OW  HW  HW  OW  HW  HW  OW  HW  HW  
OW  HW  HW  OW  HW  HW  OW  HW  HW  OW  HW  HW  OW  HW  HW  OW  HW  HW  OW  HW  
HW  OW  HW  HW  OW  HW  HW  OW  HW  HW  OW  HW  HW  OW  HW  HW  OW  HW  HW  OW  
HW  HW  OW  HW  HW  OW  HW  HW  OW  HW  HW  OW  HW  HW  OW  HW  HW  OW  HW  HW  
OW  HW  HW  OW  HW  HW  OW  HW  HW  OW  HW  HW  OW  HW  HW  OW  HW  HW  OW  HW  
HW  OW  HW  HW  OW  HW  HW  OW  HW  HW  OW  HW  HW  OW  HW  HW  OW  HW  HW  OW  
HW  HW  OW  HW  HW  OW  HW  HW  OW  HW  HW  OW  HW  HW  OW  HW  HW  OW  HW  HW  
OW  HW  HW  OW  HW  HW  OW  HW  HW  OW  HW  HW  OW  HW  HW  OW  HW  HW  OW  HW  
HW  OW  HW  HW  OW  HW  HW  OW  HW  HW  OW  HW  HW  OW  HW  HW  OW  HW  HW  OW  
HW  HW  OW  HW  HW  OW  HW  HW  OW  HW  HW  OW  HW  HW  OW  HW  HW  OW  HW  HW  
OW  HW  HW  OW  HW  HW  OW  HW  HW  OW  HW  HW  OW  HW  HW  OW  HW  HW  OW  HW  
HW  OW  HW  HW  OW  HW  HW  OW  HW  HW  OW  HW  HW  OW  HW  HW  OW  HW  HW  OW  
HW  HW  OW  HW  HW  OW  HW  HW  OW  HW  HW  OW  HW  HW  OW  HW  HW  OW  HW  HW  
OW  HW  HW  OW  HW  HW  OW  HW  HW  OW  HW  HW  OW  HW  HW  OW  HW  HW  OW  HW  
HW  OW  HW  HW  OW  HW  HW  OW  HW  HW  OW  HW  HW  OW  HW  HW  OW  HW  HW  OW  
HW  HW  OW  HW  HW  OW  HW  HW  OW  HW  HW  OW  HW  HW  OW  HW  HW  OW  HW  HW  
OW  HW  HW  OW  HW  HW  OW  HW  HW  OW  HW  HW  OW  HW  HW  OW  HW  HW  OW  HW  
HW  OW  HW  HW  OW  HW  HW  OW  HW  HW  OW  HW  HW  OW  HW  HW  OW  HW  HW  OW  
HW  HW  OW  HW  HW  OW  HW  HW  OW  HW  HW  OW  HW  HW  OW  HW  HW  OW  HW  HW  
OW  HW  HW  OW  HW  HW  OW  HW  HW  OW  HW  HW  OW  HW  HW  OW  HW  HW  OW  HW  
HW  OW  HW  HW  OW  HW  HW  OW  HW  HW  OW  HW  HW  OW  HW  HW  OW  HW  HW  OW  
HW  HW  OW  HW  HW  OW  HW  HW  OW  HW  HW  OW  HW  HW  OW  HW  HW  OW  HW  HW  
OW  HW  HW  OW  HW  HW  OW  HW  HW  OW  HW  HW  OW  HW  HW  OW  HW  HW  OW  HW  
HW  OW  HW  HW  OW  HW  HW  OW  HW  HW  OW  HW  HW  OW  HW  HW  OW  HW  HW  OW  
HW  HW  OW  HW  HW  OW  HW  HW  OW  HW  HW  OW  HW  HW  OW  HW  HW  OW  HW  HW  
OW  HW  HW  OW  HW  HW  OW  HW  HW  OW  HW  HW  OW  HW  HW  OW  HW  HW  OW  HW  
HW  OW  HW  HW  OW  HW  HW  OW  HW  HW  OW  HW  HW  OW  HW  HW  OW  HW  HW  OW  
HW  HW  OW  HW  HW  OW  HW  HW  OW  HW  HW  OW  HW  HW  OW  HW  HW  OW  HW  HW  
OW  HW  HW  OW  HW  HW  OW  HW  HW  OW  HW  HW  OW  HW  HW  OW  HW  HW  OW  HW  
HW  OW  HW  HW  OW  HW  HW  OW  HW  HW  OW  HW  HW  OW  HW  HW  OW  HW  HW  OW  
HW  HW  OW  HW  HW  OW  HW  HW  OW  HW  HW  OW  HW  HW  OW  HW  HW  OW  HW  HW  
OW  HW  HW  OW  HW  HW  OW  HW  HW  OW  HW  HW  OW  HW  HW  OW  HW  HW  OW  HW  
HW  OW  HW  HW  OW  HW  HW  OW  HW  HW  OW  HW  HW  OW  HW  HW  OW  HW  HW  OW  
HW  HW  OW  HW  HW  OW  HW  HW  OW  HW  HW  OW  HW  HW  OW  HW  HW  OW  HW  HW  
OW  HW  HW  OW  HW  HW  OW  HW  HW  OW  HW  HW  OW  HW  HW  OW  HW  HW  OW  HW  
HW  OW  HW  HW  OW  HW  HW  OW  HW  HW  OW  HW  HW  OW  HW  HW  OW  HW  HW  OW  
HW  HW  OW  HW  HW  OW  HW  HW  OW  HW  HW  OW  HW  HW  OW  HW  HW  OW  HW  HW  
OW  HW  HW  OW  HW  HW  OW  HW  HW  OW  HW  HW  OW  HW  HW  OW  HW  HW  OW  HW  
HW  OW  HW  HW  OW  HW  HW  OW  HW  HW  OW  HW  HW  OW  HW  HW  OW  HW  HW  OW  
HW  HW  OW  HW  HW  OW  HW  HW  OW  HW  HW  OW  HW  HW  OW  HW  HW  OW  HW  HW  
OW  HW  HW  OW  HW  HW  OW  HW  HW  OW  HW  HW  OW  HW  HW  OW  HW  HW  OW  HW  
HW  OW  HW  HW  OW  HW  HW  OW  HW  HW  OW  HW  HW  OW  HW  HW  OW  HW  HW  OW  
HW  HW  OW  HW  HW  OW  HW  HW  OW  HW  HW  OW  HW  HW  OW  HW  HW  OW  HW  HW  
OW  HW  HW  OW  HW  HW  OW  HW  HW  OW  HW  HW  OW  HW  HW  OW  HW  HW  OW  HW  
HW  OW  HW  HW  OW  HW  HW  OW  HW  HW  OW  HW  HW  OW  HW  HW  OW  HW  HW  OW  
HW  HW  OW  HW  HW  OW  HW  HW  OW  HW  HW  OW  HW  HW  OW  HW  HW  OW  HW  HW  
OW  HW  HW  OW  HW  HW  OW  HW  HW  OW  HW  HW  OW  HW  HW  OW  HW  HW  OW  HW  
HW  OW  HW  HW  OW  HW  HW  OW  HW  HW  OW  HW  HW  OW  HW  HW  OW  HW  HW  OW  
HW  HW  OW  HW  HW  OW  HW  HW  OW  HW  HW  OW  HW  HW  OW  HW  HW  OW  HW  HW  
OW  HW  HW  OW  HW  HW  OW  HW  HW  OW  HW  HW  OW  HW  HW  OW  HW  HW  OW  HW  
HW  OW  HW  HW  OW  HW  HW  OW  HW  HW  OW  HW  HW  OW  HW  HW  OW  HW  HW  OW  
HW  HW  OW  HW  HW  OW  HW  HW  OW  HW  HW  OW  HW  HW  OW  HW  HW  OW  HW  HW  
OW  HW  HW  OW  HW  HW  OW  HW  HW  OW  HW  HW  OW  HW  HW  OW  HW  HW  OW  HW  
HW  OW  HW  HW  OW  HW  HW  OW  HW  HW  OW  HW  HW  OW  HW  HW  OW  HW  HW  OW  
HW  HW  OW  HW  HW  OW  HW  HW  OW  HW  HW  OW  HW  HW  OW  HW  HW  OW  HW  HW  
OW  HW  HW  OW  HW  HW  OW  HW  HW  OW  HW  HW  OW  HW  HW  OW  HW  HW  OW  HW  
HW  OW  HW  HW  OW  HW  HW  OW  HW  HW  OW  HW  HW  OW  HW  HW  OW  HW  HW  OW  
HW  HW  OW  HW  HW  OW  HW  HW  OW  HW  HW  OW  HW  HW  OW  HW  HW  OW  HW  HW  
OW  HW  HW  OW  HW  HW  OW  HW  HW  OW  HW  HW  OW  HW  HW  OW  HW  HW  OW  HW  
HW  OW  HW  HW  OW  HW  HW  OW  HW  HW  OW  HW  HW  OW  HW  HW  OW  HW  HW  OW  
HW  HW  OW  HW  HW  OW  HW  HW  OW  HW  HW  OW  HW  HW  OW  HW  HW  OW  HW  HW  
OW  HW  HW  OW  HW  HW  OW  HW  HW  OW  HW  HW  OW  HW  HW  OW  HW  HW  OW  HW  
HW  OW  HW  HW  OW  HW  HW  OW  HW  HW  OW  HW  HW  OW  HW  HW  OW  HW  HW  OW  
HW  HW  OW  HW  HW  OW  HW  HW  OW  HW  HW  OW  HW  HW  OW  HW  HW  OW  HW  HW  
OW  HW  HW  OW  HW  HW  OW  HW  HW  OW  HW  HW  OW  HW  HW  OW  HW  HW  OW  HW  
HW  OW  HW  HW  OW  HW  HW  OW  HW  HW  OW  HW  HW  OW  HW  HW  OW  HW  HW  OW  
HW  HW  OW  HW  HW  OW  HW  HW  OW  HW  HW  OW  HW  HW  OW  HW  HW  OW  HW  HW  
OW  HW  HW  OW  HW  HW  OW  HW  HW  OW  HW  HW  OW  HW  HW  OW  HW  HW  OW  HW  
HW  OW  HW  HW  OW  HW  HW  OW  HW  HW  OW  HW  HW  OW  HW  HW  OW  HW  HW  OW  
HW  HW  OW  HW  HW  OW  HW  HW  OW  HW  HW  OW  HW  HW  OW  HW  HW  OW  HW  HW  
OW  HW  HW  OW  HW  HW  OW  HW  HW  OW  HW  HW  OW  HW  HW  OW  HW  HW  OW  HW  
HW  OW  HW  HW  OW  HW  HW  OW  HW  HW  OW  HW  HW  OW  HW  HW  OW  HW  HW  OW  
HW  HW  OW  HW  HW  OW  HW  HW  OW  HW  HW  OW  HW  HW  OW  HW  HW  OW  HW  HW  
OW  HW  HW  OW  HW  HW  OW  HW  HW  OW  HW  HW  OW  HW  HW  OW  HW  HW  OW  HW  
HW  OW  HW  HW  OW  HW  HW  OW  HW  HW  OW  HW  HW  OW  HW  HW  OW  HW  HW  OW  
HW  HW  OW  HW  HW  OW  HW  HW  OW  HW  HW  OW  HW  HW  OW  HW  HW  OW  HW  HW  
OW  HW  HW  OW  HW  HW  OW  HW  HW  OW  HW  HW  OW  HW  HW  OW  HW  HW  OW  HW  
HW  OW  HW  HW  OW  HW  HW  OW  HW  HW  OW  HW  HW  OW  HW  HW  OW  HW  HW  OW  
HW  HW  OW  HW  HW  OW  HW  HW  OW  HW  HW  OW  HW  HW  OW  HW  HW  OW  HW  HW  
OW  HW  HW  OW  HW  HW  OW  HW  HW  OW  HW  HW  OW  HW  HW  OW  HW  HW  OW  HW  
HW  OW  HW  HW  OW  HW  HW  OW  HW  HW  OW  HW  HW  OW  HW  HW  OW  HW  HW  OW  
HW  HW  OW  HW  HW  OW  HW  HW  OW  HW  HW  OW  HW  HW  OW  HW  HW  OW  HW  HW  
OW  HW  HW  OW  HW  HW  OW  HW  HW  OW  HW  HW  OW  HW  HW  OW  HW  HW  OW  HW  
HW  OW  HW  HW  OW  HW  HW  OW  HW  HW  OW  HW  HW  OW  HW  HW  OW  HW  HW  OW  
HW  HW  OW  HW  HW  OW  HW  HW  OW  HW  HW  OW  HW  HW  OW  HW  HW  OW  HW  HW  
OW  HW  HW  OW  HW  HW  OW  HW  HW  OW  HW  HW  OW  HW  HW  OW  HW  HW  OW  HW  
HW  OW  HW  HW  OW  HW  HW  OW  HW  HW  OW  HW  HW  OW  HW  HW  OW  HW  HW  OW  
HW  HW  OW  HW  HW  OW  HW  HW  OW  HW  HW  OW  HW  HW  OW  HW  HW  OW  HW  HW  
OW  HW  HW  OW  HW  HW  OW  HW  HW  OW  HW  HW  OW  HW  HW  OW  HW  HW  OW  HW  
HW  OW  HW  HW  OW  HW  HW  OW  HW  HW  OW  HW  HW  OW  HW  HW  OW  HW  HW  OW  
HW  HW  OW  HW  HW  OW  HW  HW  OW  HW  HW  OW  HW  HW  OW  HW  HW  OW  HW  HW  
OW  HW  HW  OW  HW  HW  OW  HW  HW  OW  HW  HW  OW  HW  HW  OW  HW  HW  OW  HW  
HW  OW  HW  HW  OW  HW  HW  OW  HW  HW  OW  HW  HW  OW  HW  HW  OW  HW  HW  OW  
HW  HW  OW  HW  HW  OW  HW  HW  OW  HW  HW  OW  HW  HW  OW  HW  HW  OW  HW  HW  
OW  HW  HW  OW  HW  HW  OW  HW  HW  OW  HW  HW  OW  HW  HW  OW  HW  HW  OW  HW  
HW  OW  HW  HW  OW  HW  HW  OW  HW  HW  OW  HW  HW  OW  HW  HW  OW  HW  HW  OW  
HW  HW  OW  HW  HW  OW  HW  HW  OW  HW  HW  OW  HW  HW  OW  HW  HW  OW  HW  HW  
OW  HW  HW  OW  HW  HW  OW  HW  HW  OW  HW  HW  OW  HW  HW  OW  HW  HW  OW  HW  
HW  OW  HW  HW  OW  HW  HW  OW  HW  HW  OW  HW  HW  OW  HW  HW  OW  HW  HW  OW  
HW  HW  OW  HW  HW  OW  HW  HW  OW  HW  HW  OW  HW  HW  OW  HW  HW  OW  HW  HW  
OW  HW  HW  OW  HW  HW  OW  HW  HW  OW  HW  HW  OW  HW  HW  OW  HW  HW  OW  HW  
HW  OW  HW  HW  OW  HW  HW  OW  HW  HW  OW  HW  HW  OW  HW  HW  OW  HW  HW  OW  
HW  HW  OW  HW  HW  OW  HW  HW  OW  HW  HW  OW  HW  HW  OW  HW  HW  OW  HW  HW  
OW  HW  HW  OW  HW  HW  OW  HW  HW  OW  HW  HW  OW  HW  HW  OW  HW  HW  OW  HW  
HW  OW  HW  HW  OW  HW  HW  OW  HW  HW  OW  HW  HW  OW  HW  HW  OW  HW  HW  OW  
HW  HW  OW  HW  HW  OW  HW  HW  OW  HW  HW  OW  HW  HW  OW  HW  HW  OW  HW  HW  
OW  HW  HW  OW  HW  HW  OW  HW  HW  OW  HW  HW  OW  HW  HW  OW  HW  HW  OW  HW  
HW  OW  HW  HW  OW  HW  HW  OW  HW  HW  OW  HW  HW  OW  HW  HW  OW  HW  HW  OW  
HW  HW  OW  HW  HW  OW  HW  HW  OW  HW  HW  OW  HW  HW  OW  HW  HW  OW  HW  HW  
OW  HW  HW  OW  HW  HW  OW  HW  HW  OW  HW  HW  OW  HW  HW  OW  HW  HW  OW  HW  
HW  OW  HW  HW  OW  HW  HW  OW  HW  HW  OW  HW  HW  OW  HW  HW  OW  HW  HW  OW  
HW  HW  OW  HW  HW  OW  HW  HW  OW  HW  HW  OW  HW  HW  OW  HW  HW  OW  HW  HW  
OW  HW  HW  OW  HW  HW  OW  HW  HW  OW  HW  HW  OW  HW  HW  OW  HW  HW  OW  HW  
HW  OW  HW  HW  OW  HW  HW  OW  HW  HW  OW  HW  HW  OW  HW  HW  OW  HW  HW  OW  
HW  HW  OW  HW  HW  OW  HW  HW  OW  HW  HW  OW  HW  HW  OW  HW  HW  OW  HW  HW  
OW  HW  HW  OW  HW  HW  OW  HW  HW  OW  HW  HW  OW  HW  HW  OW  HW  HW  OW  HW  
HW  OW  HW  HW  OW  HW  HW  OW  HW  HW  OW  HW  HW  OW  HW  HW  OW  HW  HW  OW  
HW  HW  OW  HW  HW  OW  HW  HW  OW  HW  HW  OW  HW  HW  OW  HW  HW  OW  HW  HW  
OW  HW  HW  OW  HW  HW  OW  HW  HW  OW  HW  HW  OW  HW  HW  OW  HW  HW  OW  HW  
HW  OW  HW  HW  OW  HW  HW  OW  HW  HW  OW  HW  HW  OW  HW  HW  OW  HW  HW  OW  
HW  HW  OW  HW  HW  OW  HW  HW  OW  HW  HW  OW  HW  HW  OW  HW  HW  OW  HW  HW  
OW  HW  HW  OW  HW  HW  OW  HW  HW  OW  HW  HW  OW  HW  HW  OW  HW  HW  OW  HW  
HW  OW  HW  HW  OW  HW  HW  OW  HW  HW  OW  HW  HW  OW  HW  HW  OW  HW  HW  OW  
HW  HW  OW  HW  HW  OW  HW  HW  OW  HW  HW  OW  HW  HW  OW  HW  HW  OW  HW  HW  
OW  HW  HW  OW  HW  HW  OW  HW  HW  OW  HW  HW  OW  HW  HW  OW  HW  HW  OW  HW  
HW  OW  HW  HW  OW  HW  HW  OW  HW  HW  OW  HW  HW  OW  HW  HW  OW  HW  HW  OW  
HW  HW  OW  HW  HW  OW  HW  HW  OW  HW  HW  OW  HW  HW  OW  HW  HW  OW  HW  HW  
OW  HW  HW  OW  HW  HW  OW  HW  HW  OW  HW  HW  OW  HW  HW  OW  HW  HW  OW  HW  
HW  OW  HW  HW  OW  HW  HW  OW  HW  HW  OW  HW  HW  OW  HW  HW  OW  HW  HW  OW  
HW  HW  OW  HW  HW  OW  HW  HW  OW  HW  HW  OW  HW  HW  OW  HW  HW  OW  HW  HW  
OW  HW  HW  OW  HW  HW  OW  HW  HW  OW  HW  HW  OW  HW  HW  OW  HW  HW  OW  HW  
HW  OW  HW  HW  OW  HW  HW  OW  HW  HW  OW  HW  HW  OW  HW  HW  OW  HW  HW  OW  
HW  HW  OW  HW  HW  OW  HW  HW  OW  HW  HW  OW  HW  HW  OW  HW  HW  OW  HW  HW  
OW  HW  HW  OW  HW  HW  OW  HW  HW  OW  HW  HW  OW  HW  HW  OW  HW  HW  OW  HW  
HW  OW  HW  HW  OW  HW  HW  OW  HW  HW  OW  HW  HW  OW  HW  HW  OW  HW  HW  OW  
HW  HW  OW  HW  HW  OW  HW  HW  OW  HW  HW  OW  HW  HW  OW  HW  HW  OW  HW  HW  
OW  HW  HW  OW  HW  HW  OW  HW  HW  OW  HW  HW  OW  HW  HW  OW  HW  HW  OW  HW  
HW  OW  HW  HW  OW  HW  HW  OW  HW  HW  OW  HW  HW  OW  HW  HW  OW  HW  HW  OW  
HW  HW  OW  HW  HW  OW  HW  HW  OW  HW  HW  OW  HW  HW  OW  HW  HW  OW  HW  HW  
OW  HW  HW  OW  HW  HW  OW  HW  HW  OW  HW  HW  OW  HW  HW  OW  HW  HW  OW  HW  
HW  OW  HW  HW  OW  HW  HW  OW  HW  HW  OW  HW  HW  OW  HW  HW  OW  HW  HW  OW  
HW  HW  OW  HW  HW  OW  HW  HW  OW  HW  HW  OW  HW  HW  OW  HW  HW  OW  HW  HW  
OW  HW  HW  OW  HW  HW  OW  HW  HW  OW  HW  HW  OW  HW  HW  OW  HW  HW  OW  HW  
HW  OW  HW  HW  OW  HW  HW  OW  HW  HW  OW  HW  HW  OW  HW  HW  OW  HW  HW  OW  
HW  HW  OW  HW  HW  OW  HW  HW  OW  HW  HW  OW  HW  HW  OW  HW  HW  OW  HW  HW  
OW  HW  HW  OW  HW  HW  OW  HW  HW  OW  HW  HW  OW  HW  HW  OW  HW  HW  OW  HW  
HW  OW  HW  HW  OW  HW  HW  OW  HW  HW  OW  HW  HW  OW  HW  HW  OW  HW  HW  OW  
HW  HW  OW  HW  HW  OW  HW  HW  OW  HW  HW  OW  HW  HW  OW  HW  HW  OW  HW  HW  
OW  HW  HW  OW  HW  HW  OW  HW  HW  OW  HW  HW  OW  HW  HW  OW  HW  HW  OW  HW  
HW  OW  HW  HW  OW  HW  HW  OW  HW  HW  OW  HW  HW  OW  HW  HW  OW  HW  HW  OW  
HW  HW  OW  HW  HW  OW  HW  HW  OW  HW  HW  OW  HW  HW  OW  HW  HW  OW  HW  HW  
OW  HW  HW  OW  HW  HW  OW  HW  HW  OW  HW  HW  OW  HW  HW  OW  HW  HW  OW  HW  
HW  OW  HW  HW  OW  HW  HW  OW  HW  HW  OW  HW  HW  OW  HW  HW  OW  HW  HW  OW  
HW  HW  OW  HW  HW  OW  HW  HW  OW  HW  HW  OW  HW  HW  OW  HW  HW  OW  HW  HW  
OW  HW  HW  OW  HW  HW  OW  HW  HW  OW  HW  HW  OW  HW  HW  OW  HW  HW  OW  HW  
HW  OW  HW  HW  OW  HW  HW  OW  HW  HW  OW  HW  HW  OW  HW  HW  OW  HW  HW  OW  
HW  HW  OW  HW  HW  OW  HW  HW  OW  HW  HW  OW  HW  HW  OW  HW  HW  OW  HW  HW  
OW  HW  HW  OW  HW  HW  OW  HW  HW  OW  HW  HW  OW  HW  HW  OW  HW  HW  OW  HW  
HW  OW  HW  HW  OW  HW  HW  OW  HW  HW  OW  HW  HW  OW  HW  HW  OW  HW  HW  OW  
HW  HW  OW  HW  HW  OW  HW  HW  OW  HW  HW  OW  HW  HW  OW  HW  HW  OW  HW  HW  
OW  HW  HW  OW  HW  HW  OW  HW  HW  OW  HW  HW  OW  HW  HW  OW  HW  HW  OW  HW  
HW  OW  HW  HW  OW  HW  HW  OW  HW  HW  OW  HW  HW  OW  HW  HW  OW  HW  HW  OW  
HW  HW  OW  HW  HW  OW  HW  HW  OW  HW  HW  OW  HW  HW  OW  HW  HW  OW  HW  HW  
OW  HW  HW  OW  HW  HW  OW  HW  HW  OW  HW  HW  OW  HW  HW  OW  HW  HW  OW  HW  
HW  OW  HW  HW  OW  HW  HW  OW  HW  HW  OW  HW  HW  OW  HW  HW  OW  HW  HW  OW  
HW  HW  OW  HW  HW  OW  HW  HW  OW  HW  HW  OW  HW  HW  OW  HW  HW  OW  HW  HW  
OW  HW  HW  OW  HW  HW  OW  HW  HW  OW  HW  HW  OW  HW  HW  OW  HW  HW  OW  HW  
HW  OW  HW  HW  OW  HW  HW  OW  HW  HW  OW  HW  HW  OW  HW  HW  OW  HW  HW  OW  
HW  HW  OW  HW  HW  OW  HW  HW  OW  HW  HW  OW  HW  HW  OW  HW  HW  OW  HW  HW  
OW  HW  HW  OW  HW  HW  OW  HW  HW  OW  HW  HW  OW  HW  HW  OW  HW  HW  OW  HW  
HW  OW  HW  HW  OW  HW  HW  OW  HW  HW  OW  HW  HW  OW  HW  HW  OW  HW  HW  OW  
HW  HW  OW  HW  HW  OW  HW  HW  OW  HW  HW  OW  HW  HW  OW  HW  HW  OW  HW  HW  
OW  HW  HW  OW  HW  HW  OW  HW  HW  OW  HW  HW  OW  HW  HW  OW  HW  HW  OW  HW  
HW  OW  HW  HW  OW  HW  HW  OW  HW  HW  OW  HW  HW  OW  HW  HW  OW  HW  HW  OW  
HW  HW  OW  HW  HW  OW  HW  HW  OW  HW  HW  OW  HW  HW  OW  HW  HW  OW  HW  HW  
OW  HW  HW  OW  HW  HW  OW  HW  HW  OW  HW  HW  OW  HW  HW  OW  HW  HW  OW  HW  
HW  OW  HW  HW  OW  HW  HW  OW  HW  HW  OW  HW  HW  OW  HW  HW  OW  HW  HW  OW  
HW  HW  OW  HW  HW  OW  HW  HW  OW  HW  HW  OW  HW  HW  OW  HW  HW  OW  HW  HW  
OW  HW  HW  OW  HW  HW  OW  HW  HW  OW  HW  HW  OW  HW  HW  OW  HW  HW  OW  HW  
HW  OW  HW  HW  OW  HW  HW  OW  HW  HW  OW  HW  HW  OW  HW  HW  OW  HW  HW  OW  
HW  HW  OW  HW  HW  OW  HW  HW  OW  HW  HW  OW  HW  HW  OW  HW  HW  OW  HW  HW  
OW  HW  HW  OW  HW  HW  OW  HW  HW  OW  HW  HW  OW  HW  HW  OW  HW  HW  OW  HW  
HW  OW  HW  HW  OW  HW  HW  OW  HW  HW  OW  HW  HW  OW  HW  HW  OW  HW  HW  OW  
HW  HW  OW  HW  HW  OW  HW  HW  OW  HW  HW  OW  HW  HW  OW  HW  HW  OW  HW  HW  
OW  HW  HW  OW  HW  HW  OW  HW  HW  OW  HW  HW  OW  HW  HW  OW  HW  HW  OW  HW  
HW  OW  HW  HW  OW  HW  HW  OW  HW  HW  OW  HW  HW  OW  HW  HW  OW  HW  HW  OW  
HW  HW  OW  HW  HW  OW  HW  HW  OW  HW  HW  OW  HW  HW  OW  HW  HW  OW  HW  HW  
OW  HW  HW  OW  HW  HW  OW  HW  HW  OW  HW  HW  OW  HW  HW  OW  HW  HW  OW  HW  
HW  OW  HW  HW  OW  HW  HW  OW  HW  HW  OW  HW  HW  OW  HW  HW  OW  HW  HW  OW  
HW  HW  OW  HW  HW  OW  HW  HW  OW  HW  HW  OW  HW  HW  OW  HW  HW  OW  HW  HW  
OW  HW  HW  OW  HW  HW  OW  HW  HW  OW  HW  HW  OW  HW  HW  OW  HW  HW  OW  HW  
HW  OW  HW  HW  OW  HW  HW  OW  HW  HW  OW  HW  HW  OW  HW  HW  OW  HW  HW  OW  
HW  HW  OW  HW  HW  OW  HW  HW  OW  HW  HW  OW  HW  HW  OW  HW  HW  OW  HW  HW  
OW  HW  HW  OW  HW  HW  OW  HW  HW  OW  HW  HW  OW  HW  HW  OW  HW  HW  OW  HW  
HW  OW  HW  HW  OW  HW  HW  OW  HW  HW  OW  HW  HW  OW  HW  HW  OW  HW  HW  OW  
HW  HW  OW  HW  HW  OW  HW  HW  OW  HW  HW  OW  HW  HW  OW  HW  HW  OW  HW  HW  
OW  HW  HW  OW  HW  HW  OW  HW  HW  OW  HW  HW  OW  HW  HW  OW  HW  HW  OW  HW  
HW  OW  HW  HW  OW  HW  HW  OW  HW  HW  OW  HW  HW  OW  HW  HW  OW  HW  HW  OW  
HW  HW  OW  HW  HW  OW  HW  HW  OW  HW  HW  OW  HW  HW  OW  HW  HW  OW  HW  HW  
OW  HW  HW  OW  HW  HW  OW  HW  HW  OW  HW  HW  OW  HW  HW  OW  HW  HW  OW  HW  
HW  OW  HW  HW  OW  HW  HW  OW  HW  HW  OW  HW  HW  OW  HW  HW  OW  HW  HW  OW  
HW  HW  OW  HW  HW  OW  HW  HW  OW  HW  HW  OW  HW  HW  OW  HW  HW  OW  HW  HW  
OW  HW  HW  OW  HW  HW  OW  HW  HW  OW  HW  HW  OW  HW  HW  OW  HW  HW  OW  HW  
HW  OW  HW  HW  OW  HW  HW  OW  HW  HW  OW  HW  HW  OW  HW  HW  OW  HW  HW  OW  
HW  HW  OW  HW  HW  OW  HW  HW  OW  HW  HW  OW  HW  HW  OW  HW  HW  OW  HW  HW  
OW  HW  HW  OW  HW  HW  OW  HW  HW  OW  HW  HW  OW  HW  HW  OW  HW  HW  OW  HW  
HW  OW  HW  HW  OW  HW  HW  OW  HW  HW  OW  HW  HW  OW  HW  HW  OW  HW  HW  OW  
HW  HW  OW  HW  HW  OW  HW  HW  OW  HW  HW  OW  HW  HW  OW  HW  HW  OW  HW  HW  
OW  HW  HW  OW  HW  HW  OW  HW  HW  OW  HW  HW  OW  HW  HW  OW  HW  HW  OW  HW  
HW  OW  HW  HW  OW  HW  HW  OW  HW  HW  OW  HW  HW  OW  HW  HW  OW  HW  HW  OW  
HW  HW  OW  HW  HW  OW  HW  HW  OW  HW  HW  OW  HW  HW  OW  HW  HW  OW  HW  HW  
OW  HW  HW  OW  HW  HW  OW  HW  HW  OW  HW  HW  OW  HW  HW  OW  HW  HW  OW  HW  
HW  OW  HW  HW  OW  HW  HW  OW  HW  HW  OW  HW  HW  OW  HW  HW  OW  HW  HW  OW  
HW  HW  OW  HW  HW  OW  HW  HW  OW  HW  HW  OW  HW  HW  OW  HW  HW  OW  HW  HW  
OW  HW  HW  OW  HW  HW  OW  HW  HW  OW  HW  HW  OW  HW  HW  OW  HW  HW  OW  HW  
HW  OW  HW  HW  OW  HW  HW  OW  HW  HW  OW  HW  HW  OW  HW  HW  OW  HW  HW  OW  
HW  HW  OW  HW  HW  OW  HW  HW  OW  HW  HW  OW  HW  HW  OW  HW  HW  OW  HW  HW  
OW  HW  HW  OW  HW  HW  OW  HW  HW  OW  HW  HW  OW  HW  HW  OW  HW  HW  OW  HW  
HW  OW  HW  HW  OW  HW  HW  OW  HW  HW  OW  HW  HW  OW  HW  HW  OW  HW  HW  OW  
HW  HW  OW  HW  HW  OW  HW  HW  OW  HW  HW  OW  HW  HW  OW  HW  HW  OW  HW  HW  
OW  HW  HW  OW  HW  HW  OW  HW  HW  OW  HW  HW  OW  HW  HW  OW  HW  HW  OW  HW  
HW  OW  HW  HW  OW  HW  HW  OW  HW  HW  OW  HW  HW  OW  HW  HW  OW  HW  HW  OW  
HW  HW  OW  HW  HW  OW  HW  HW  OW  HW  HW  OW  HW  HW  OW  HW  HW  OW  HW  HW  
OW  HW  HW  OW  HW  HW  OW  HW  HW  OW  HW  HW  OW  HW  HW  OW  HW  HW  OW  HW  
HW  OW  HW  HW  OW  HW  HW  OW  HW  HW  OW  HW  HW  OW  HW  HW  OW  HW  HW  OW  
HW  HW  OW  HW  HW  OW  HW  HW  OW  HW  HW  OW  HW  HW  OW  HW  HW  OW  HW  HW  
OW  HW  HW  OW  HW  HW  OW  HW  HW  OW  HW  HW  OW  HW  HW  OW  HW  HW  OW  HW  
HW  OW  HW  HW  OW  HW  HW  OW  HW  HW  OW  HW  HW  OW  HW  HW  OW  HW  HW  OW  
HW  HW  OW  HW  HW  OW  HW  HW  OW  HW  HW  OW  HW  HW  OW  HW  HW  OW  HW  HW  
OW  HW  HW  OW  HW  HW  OW  HW  HW  OW  HW  HW  OW  HW  HW  OW  HW  HW  OW  HW  
HW  OW  HW  HW  OW  HW  HW  OW  HW  HW  OW  HW  HW  OW  HW  HW  OW  HW  HW  OW  
HW  HW  OW  HW  HW  OW  HW  HW  OW  HW  HW  OW  HW  HW  OW  HW  HW  OW  HW  HW  
OW  HW  HW  OW  HW  HW  OW  HW  HW  OW  HW  HW  OW  HW  HW  OW  HW  HW  OW  HW  
HW  OW  HW  HW  OW  HW  HW  OW  HW  HW  OW  HW  HW  OW  HW  HW  OW  HW  HW  OW  
HW  HW  OW  HW  HW  OW  HW  HW  OW  HW  HW  OW  HW  HW  OW  HW  HW  OW  HW  HW  
OW  HW  HW  OW  HW  HW  OW  HW  HW  OW  HW  HW  OW  HW  HW  OW  HW  HW  OW  HW  
HW  OW  HW  HW  OW  HW  HW  OW  HW  HW  OW  HW  HW  OW  HW  HW  OW  HW  HW  OW  
HW  HW  OW  HW  HW  OW  HW  HW  OW  HW  HW  OW  HW  HW  OW  HW  HW  OW  HW  HW  
OW  HW  HW  OW  HW  HW  OW  HW  HW  OW  HW  HW  OW  HW  HW  OW  HW  HW  OW  HW  
HW  OW  HW  HW  OW  HW  HW  OW  HW  HW  OW  HW  HW  OW  HW  HW  OW  HW  HW  OW  
HW  HW  OW  HW  HW  OW  HW  HW  OW  HW  HW  OW  HW  HW  OW  HW  HW  OW  HW  HW  
OW  HW  HW  OW  HW  HW  OW  HW  HW  OW  HW  HW  OW  HW  HW  OW  HW  HW  OW  HW  
HW  OW  HW  HW  OW  HW  HW  OW  HW  HW  OW  HW  HW  OW  HW  HW  OW  HW  HW  OW  
HW  HW  OW  HW  HW  OW  HW  HW  OW  HW  HW  OW  HW  HW  OW  HW  HW  OW  HW  HW  
OW  HW  HW  OW  HW  HW  OW  HW  HW  OW  HW  HW  OW  HW  HW  OW  HW  HW  OW  HW  
HW  OW  HW  HW  OW  HW  HW  OW  HW  HW  OW  HW  HW  OW  HW  HW  OW  HW  HW  OW  
HW  HW  OW  HW  HW  OW  HW  HW  OW  HW  HW  OW  HW  HW  OW  HW  HW  OW  HW  HW  
OW  HW  HW  OW  HW  HW  OW  HW  HW  OW  HW  HW  OW  HW  HW  OW  HW  HW  OW  HW  
HW  OW  HW  HW  OW  HW  HW  OW  HW  HW  OW  HW  HW  OW  HW  HW  OW  HW  HW  OW  
HW  HW  OW  HW  HW  OW  HW  HW  OW  HW  HW  OW  HW  HW  OW  HW  HW  OW  HW  HW  
OW  HW  HW  OW  HW  HW  OW  HW  HW  OW  HW  HW  OW  HW  HW  OW  HW  HW  OW  HW  
HW  OW  HW  HW  OW  HW  HW  OW  HW  HW  OW  HW  HW  OW  HW  HW  OW  HW  HW  OW  
HW  HW  OW  HW  HW  OW  HW  HW  OW  HW  HW  OW  HW  HW  OW  HW  HW  OW  HW  HW  
OW  HW  HW  OW  HW  HW  OW  HW  HW  OW  HW  HW  OW  HW  HW  OW  HW  HW  OW  HW  
HW  OW  HW  HW  OW  HW  HW  OW  HW  HW  OW  HW  HW  OW  HW  HW  OW  HW  HW  OW  
HW  HW  OW  HW  HW  OW  HW  HW  OW  HW  HW  OW  HW  HW  OW  HW  HW  OW  HW  HW  
OW  HW  HW  OW  HW  HW  OW  HW  HW  OW  HW  HW  OW  HW  HW  OW  HW  HW  OW  HW  
HW  OW  HW  HW  OW  HW  HW  OW  HW  HW  OW  HW  HW  OW  HW  HW  OW  HW  HW  OW  
HW  HW  OW  HW  HW  OW  HW  HW  OW  HW  HW  OW  HW  HW  OW  HW  HW  OW  HW  HW  
OW  HW  HW  OW  HW  HW  OW  HW  HW  OW  HW  HW  OW  HW  HW  OW  HW  HW  OW  HW  
HW  OW  HW  HW  OW  HW  HW  OW  HW  HW  OW  HW  HW  OW  HW  HW  OW  HW  HW  OW  
HW  HW  OW  HW  HW  OW  HW  HW  OW  HW  HW  OW  HW  HW  OW  HW  HW  OW  HW  HW  
OW  HW  HW  OW  HW  HW  OW  HW  HW  OW  HW  HW  OW  HW  HW  OW  HW  HW  OW  HW  
HW  OW  HW  HW  OW  HW  HW  OW  HW  HW  OW  HW  HW  OW  HW  HW  OW  HW  HW  OW  
HW  HW  OW  HW  HW  OW  HW  HW  OW  HW  HW  OW  HW  HW  OW  HW  HW  OW  HW  HW  
OW  HW  HW  OW  HW  HW  OW  HW  HW  OW  HW  HW  OW  HW  HW  OW  HW  HW  OW  HW  
HW  OW  HW  HW  OW  HW  HW  OW  HW  HW  OW  HW  HW  OW  HW  HW  OW  HW  HW  OW  
HW  HW  OW  HW  HW  OW  HW  HW  OW  HW  HW  OW  HW  HW  OW  HW  HW  OW  HW  HW  
OW  HW  HW  OW  HW  HW  OW  HW  HW  OW  HW  HW  OW  HW  HW  OW  HW  HW  OW  HW  
HW  OW  HW  HW  OW  HW  HW  OW  HW  HW  OW  HW  HW  OW  HW  HW  OW  HW  HW  OW  
HW  HW  OW  HW  HW  OW  HW  HW  OW  HW  HW  OW  HW  HW  OW  HW  HW  OW  HW  HW  
OW  HW  HW  OW  HW  HW  OW  HW  HW  OW  HW  HW  OW  HW  HW  OW  HW  HW  OW  HW  
HW  OW  HW  HW  OW  HW  HW  OW  HW  HW  OW  HW  HW  OW  HW  HW  OW  HW  HW  OW  
HW  HW  OW  HW  HW  OW  HW  HW  OW  HW  HW  OW  HW  HW  OW  HW  HW  OW  HW  HW  
OW  HW  HW  OW  HW  HW  OW  HW  HW  OW  HW  HW  OW  HW  HW  OW  HW  HW  OW  HW  
HW  OW  HW  HW  OW  HW  HW  OW  HW  HW  OW  HW  HW  OW  HW  HW  OW  HW  HW  OW  
HW  HW  OW  HW  HW  OW  HW  HW  OW  HW  HW  OW  HW  HW  OW  HW  HW  OW  HW  HW  
OW  HW  HW  OW  HW  HW  OW  HW  HW  OW  HW  HW  OW  HW  HW  OW  HW  HW  OW  HW  
HW  OW  HW  HW  OW  HW  HW  OW  HW  HW  OW  HW  HW  OW  HW  HW  OW  HW  HW  OW  
HW  HW  OW  HW  HW  OW  HW  HW  OW  HW  HW  OW  HW  HW  OW  HW  HW  OW  HW  HW  
OW  HW  HW  OW  HW  HW  OW  HW  HW  OW  HW  HW  OW  HW  HW  OW  HW  HW  OW  HW  
HW  OW  HW  HW  OW  HW  HW  OW  HW  HW  OW  HW  HW  OW  HW  HW  OW  HW  HW  OW  
HW  HW  OW  HW  HW  OW  HW  HW  OW  HW  HW  OW  HW  HW  OW  HW  HW  OW  HW  HW  
OW  HW  HW  OW  HW  HW  OW  HW  HW  OW  HW  HW  OW  HW  HW  OW  HW  HW  OW  HW  
HW  OW  HW  HW  OW  HW  HW  OW  HW  HW  OW  HW  HW  OW  HW  HW  OW  HW  HW  OW  
HW  HW  OW  HW  HW  OW  HW  HW  OW  HW  HW  OW  HW  HW  OW  HW  HW  OW  HW  HW  
OW  HW  HW  OW  HW  HW  OW  HW  HW  OW  HW  HW  OW  HW  HW  OW  HW  HW  OW  HW  
HW  OW  HW  HW  OW  HW  HW  OW  HW  HW  OW  HW  HW  OW  HW  HW  OW  HW  HW  OW  
HW  HW  OW  HW  HW  OW  HW  HW  OW  HW  HW  OW  HW  HW  OW  HW  HW  OW  HW  HW  
OW  HW  HW  OW  HW  HW  OW  HW  HW  OW  HW  HW  OW  HW  HW  OW  HW  HW  OW  HW  
HW  OW  HW  HW  OW  HW  HW  OW  HW  HW  OW  HW  HW  OW  HW  HW  OW  HW  HW  OW  
HW  HW  OW  HW  HW  OW  HW  HW  OW  HW  HW  OW  HW  HW  OW  HW  HW  OW  HW  HW  
OW  HW  HW  OW  HW  HW  OW  HW  HW  OW  HW  HW  OW  HW  HW  OW  HW  HW  OW  HW  
HW  OW  HW  HW  OW  HW  HW  OW  HW  HW  OW  HW  HW  OW  HW  HW  OW  HW  HW  OW  
HW  HW  OW  HW  HW  OW  HW  HW  OW  HW  HW  OW  HW  HW  OW  HW  HW  OW  HW  HW  
OW  HW  HW  OW  HW  HW  OW  HW  HW  OW  HW  HW  OW  HW  HW  OW  HW  HW  OW  HW  
HW  OW  HW  HW  OW  HW  HW  OW  HW  HW  OW  HW  HW  OW  HW  HW  OW  HW  HW  OW  
HW  HW  OW  HW  HW  OW  HW  HW  OW  HW  HW  OW  HW  HW  OW  HW  HW  OW  HW  HW  
OW  HW  HW  OW  HW  HW  OW  HW  HW  OW  HW  HW  OW  HW  HW  OW  HW  HW  OW  HW  
HW  OW  HW  HW  OW  HW  HW  OW  HW  HW  OW  HW  HW  OW  HW  HW  OW  HW  HW  OW  
HW  HW  OW  HW  HW  OW  HW  HW  OW  HW  HW  OW  HW  HW  OW  HW  HW  OW  HW  HW  
OW  HW  HW  OW  HW  HW  OW  HW  HW  OW  HW  HW  OW  HW  HW  OW  HW  HW  OW  HW  
HW  OW  HW  HW  OW  HW  HW  OW  HW  HW  OW  HW  HW  OW  HW  HW  OW  HW  HW  OW  
HW  HW  OW  HW  HW  OW  HW  HW  OW  HW  HW  OW  HW  HW  OW  HW  HW  OW  HW  HW  
OW  HW  HW  OW  HW  HW  OW  HW  HW  OW  HW  HW  OW  HW  HW  OW  HW  HW  OW  HW  
HW  OW  HW  HW  OW  HW  HW  OW  HW  HW  OW  HW  HW  OW  HW  HW  OW  HW  HW  OW  
HW  HW  OW  HW  HW  OW  HW  HW  OW  HW  HW  OW  HW  HW  OW  HW  HW  OW  HW  HW  
OW  HW  HW  OW  HW  HW  OW  HW  HW  OW  HW  HW  OW  HW  HW  OW  HW  HW  OW  HW  
HW  OW  HW  HW  OW  HW  HW  OW  HW  HW  OW  HW  HW  OW  HW  HW  OW  HW  HW  OW  
HW  HW  OW  HW  HW  OW  HW  HW  OW  HW  HW  OW  HW  HW  OW  HW  HW  OW  HW  HW  
OW  HW  HW  OW  HW  HW  OW  HW  HW  OW  HW  HW  OW  HW  HW  OW  HW  HW  OW  HW  
HW  OW  HW  HW  OW  HW  HW  OW  HW  HW  OW  HW  HW  OW  HW  HW  OW  HW  HW  OW  
HW  HW  OW  HW  HW  OW  HW  HW  OW  HW  HW  OW  HW  HW  OW  HW  HW  OW  HW  HW  
OW  HW  HW  OW  HW  HW  OW  HW  HW  OW  HW  HW  OW  HW  HW  OW  HW  HW  OW  HW  
HW  OW  HW  HW  OW  HW  HW  OW  HW  HW  OW  HW  HW  OW  HW  HW  OW  HW  HW  OW  
HW  HW  OW  HW  HW  OW  HW  HW  OW  HW  HW  OW  HW  HW  OW  HW  HW  OW  HW  HW  
OW  HW  HW  OW  HW  HW  OW  HW  HW  OW  HW  HW  OW  HW  HW  OW  HW  HW  OW  HW  
HW  OW  HW  HW  OW  HW  HW  OW  HW  HW  OW  HW  HW  OW  HW  HW  OW  HW  HW  OW  
HW  HW  OW  HW  HW  OW  HW  HW  OW  HW  HW  OW  HW  HW  OW  HW  HW  OW  HW  HW  
OW  HW  HW  OW  HW  HW  OW  HW  HW  OW  HW  HW  OW  HW  HW  OW  HW  HW  OW  HW  
HW  OW  HW  HW  OW  HW  HW  OW  HW  HW  OW  HW  HW  OW  HW  HW  OW  HW  HW  OW  
HW  HW  OW  HW  HW  
%FLAG TREE_CHAIN_CLASSIFICATION                                                 
%FORMAT(20a4)                                                                   
BLA BLA BLA BLA BLA BLA BLA BLA BLA BLA BLA BLA BLA BLA BLA BLA BLA BLA BLA BLA 
BLA BLA BLA BLA BLA BLA BLA BLA BLA BLA BLA BLA BLA BLA BLA BLA BLA BLA BLA BLA 
BLA BLA BLA BLA BLA BLA BLA BLA BLA BLA BLA BLA BLA BLA BLA BLA BLA BLA BLA BLA 
BLA BLA BLA BLA BLA BLA BLA BLA BLA BLA BLA BLA BLA BLA BLA BLA BLA BLA BLA BLA 
BLA BLA BLA BLA BLA BLA BLA BLA BLA BLA BLA BLA BLA BLA BLA BLA BLA BLA BLA BLA 
BLA BLA BLA BLA BLA BLA BLA BLA BLA BLA BLA BLA BLA BLA BLA BLA BLA BLA BLA BLA 
BLA BLA BLA BLA BLA BLA BLA BLA BLA BLA BLA BLA BLA BLA BLA BLA BLA BLA BLA BLA 
BLA BLA BLA BLA BLA BLA BLA BLA BLA BLA BLA BLA BLA BLA BLA BLA BLA BLA BLA BLA 
BLA BLA BLA BLA BLA BLA BLA BLA BLA BLA BLA BLA BLA BLA BLA BLA BLA BLA BLA BLA 
BLA BLA BLA BLA BLA BLA BLA BLA BLA BLA BLA BLA BLA BLA BLA BLA BLA BLA BLA BLA 
BLA BLA BLA BLA BLA BLA BLA BLA BLA BLA BLA BLA BLA BLA BLA BLA BLA BLA BLA BLA 
BLA BLA BLA BLA BLA BLA BLA BLA BLA BLA BLA BLA BLA BLA BLA BLA BLA BLA BLA BLA 
BLA BLA BLA BLA BLA BLA BLA BLA BLA BLA BLA BLA BLA BLA BLA BLA BLA BLA BLA BLA 
BLA BLA BLA BLA BLA BLA BLA BLA BLA BLA BLA BLA BLA BLA BLA BLA BLA BLA BLA BLA 
BLA BLA BLA BLA BLA BLA BLA BLA BLA BLA BLA BLA BLA BLA BLA BLA BLA BLA BLA BLA 
BLA BLA BLA BLA BLA BLA BLA BLA BLA BLA BLA BLA BLA BLA BLA BLA BLA BLA BLA BLA 
BLA BLA BLA BLA BLA BLA BLA BLA BLA BLA BLA BLA BLA BLA BLA BLA BLA BLA BLA BLA 
BLA BLA BLA BLA BLA BLA BLA BLA BLA BLA BLA BLA BLA BLA BLA BLA BLA BLA BLA BLA 
BLA BLA BLA BLA BLA BLA BLA BLA BLA BLA BLA BLA BLA BLA BLA BLA BLA BLA BLA BLA 
BLA BLA BLA BLA BLA BLA BLA BLA BLA BLA BLA BLA BLA BLA BLA BLA BLA BLA BLA BLA 
BLA BLA BLA BLA BLA BLA BLA BLA BLA BLA BLA BLA BLA BLA BLA BLA BLA BLA BLA BLA 
BLA BLA BLA BLA BLA BLA BLA BLA BLA BLA BLA BLA BLA BLA BLA BLA BLA BLA BLA BLA 
BLA BLA BLA BLA BLA BLA BLA BLA BLA BLA BLA BLA BLA BLA BLA BLA BLA BLA BLA BLA 
BLA BLA BLA BLA BLA BLA BLA BLA BLA BLA BLA BLA BLA BLA BLA BLA BLA BLA BLA BLA 
BLA BLA BLA BLA BLA BLA BLA BLA BLA BLA BLA BLA BLA BLA BLA BLA BLA BLA BLA BLA 
BLA BLA BLA BLA BLA BLA BLA BLA BLA BLA BLA BLA BLA BLA BLA BLA BLA BLA BLA BLA 
BLA BLA BLA BLA BLA BLA BLA BLA BLA BLA BLA BLA BLA BLA BLA BLA BLA BLA BLA BLA 
BLA BLA BLA BLA BLA BLA BLA BLA BLA BLA BLA BLA BLA BLA BLA BLA BLA BLA BLA BLA 
BLA BLA BLA BLA BLA BLA BLA BLA BLA BLA BLA BLA BLA BLA BLA BLA BLA BLA BLA BLA 
BLA BLA BLA BLA BLA BLA BLA BLA BLA BLA BLA BLA BLA BLA BLA BLA BLA BLA BLA BLA 
BLA BLA BLA BLA BLA BLA BLA BLA BLA BLA BLA BLA BLA BLA BLA BLA BLA BLA BLA BLA 
BLA BLA BLA BLA BLA BLA BLA BLA BLA BLA BLA BLA BLA BLA BLA BLA BLA BLA BLA BLA 
BLA BLA BLA BLA BLA BLA BLA BLA BLA BLA BLA BLA BLA BLA BLA BLA BLA BLA BLA BLA 
BLA BLA BLA BLA BLA BLA BLA BLA BLA BLA BLA BLA BLA BLA BLA BLA BLA BLA BLA BLA 
BLA BLA BLA BLA BLA BLA BLA BLA BLA BLA BLA BLA BLA BLA BLA BLA BLA BLA BLA BLA 
BLA BLA BLA BLA BLA BLA BLA BLA BLA BLA BLA BLA BLA BLA BLA BLA BLA BLA BLA BLA 
BLA BLA BLA BLA BLA BLA BLA BLA BLA BLA BLA BLA BLA BLA BLA BLA BLA BLA BLA BLA 
BLA BLA BLA BLA BLA BLA BLA BLA BLA BLA BLA BLA BLA BLA BLA BLA BLA BLA BLA BLA 
BLA BLA BLA BLA BLA BLA BLA BLA BLA BLA BLA BLA BLA BLA BLA BLA BLA BLA BLA BLA 
BLA BLA BLA BLA BLA BLA BLA BLA BLA BLA BLA BLA BLA BLA BLA BLA BLA BLA BLA BLA 
BLA BLA BLA BLA BLA BLA BLA BLA BLA BLA BLA BLA BLA BLA BLA BLA BLA BLA BLA BLA 
BLA BLA BLA BLA BLA BLA BLA BLA BLA BLA BLA BLA BLA BLA BLA BLA BLA BLA BLA BLA 
BLA BLA BLA BLA BLA BLA BLA BLA BLA BLA BLA BLA BLA BLA BLA BLA BLA BLA BLA BLA 
BLA BLA BLA BLA BLA BLA BLA BLA BLA BLA BLA BLA BLA BLA BLA BLA BLA BLA BLA BLA 
BLA BLA BLA BLA BLA BLA BLA BLA BLA BLA BLA BLA BLA BLA BLA BLA BLA BLA BLA BLA 
BLA BLA BLA BLA BLA BLA BLA BLA BLA BLA BLA BLA BLA BLA BLA BLA BLA BLA BLA BLA 
BLA BLA BLA BLA BLA BLA BLA BLA BLA BLA BLA BLA BLA BLA BLA BLA BLA BLA BLA BLA 
BLA BLA BLA BLA BLA BLA BLA BLA BLA BLA BLA BLA BLA BLA BLA BLA BLA BLA BLA BLA 
BLA BLA BLA BLA BLA BLA BLA BLA BLA BLA BLA BLA BLA BLA BLA BLA BLA BLA BLA BLA 
BLA BLA BLA BLA BLA BLA BLA BLA BLA BLA BLA BLA BLA BLA BLA BLA BLA BLA BLA BLA 
BLA BLA BLA BLA BLA BLA BLA BLA BLA BLA BLA BLA BLA BLA BLA BLA BLA BLA BLA BLA 
BLA BLA BLA BLA BLA BLA BLA BLA BLA BLA BLA BLA BLA BLA BLA BLA BLA BLA BLA BLA 
BLA BLA BLA BLA BLA BLA BLA BLA BLA BLA BLA BLA BLA BLA BLA BLA BLA BLA BLA BLA 
BLA BLA BLA BLA BLA BLA BLA BLA BLA BLA BLA BLA BLA BLA BLA BLA BLA BLA BLA BLA 
BLA BLA BLA BLA BLA BLA BLA BLA BLA BLA BLA BLA BLA BLA BLA BLA BLA BLA BLA BLA 
BLA BLA BLA BLA BLA BLA BLA BLA BLA BLA BLA BLA BLA BLA BLA BLA BLA BLA BLA BLA 
BLA BLA BLA BLA BLA BLA BLA BLA BLA BLA BLA BLA BLA BLA BLA BLA BLA BLA BLA BLA 
BLA BLA BLA BLA BLA BLA BLA BLA BLA BLA BLA BLA BLA BLA BLA BLA BLA BLA BLA BLA 
BLA BLA BLA BLA BLA BLA BLA BLA BLA BLA BLA BLA BLA BLA BLA BLA BLA BLA BLA BLA 
BLA BLA BLA BLA BLA BLA BLA BLA BLA BLA BLA BLA BLA BLA BLA BLA BLA BLA BLA BLA 
BLA BLA BLA BLA BLA BLA BLA BLA BLA BLA BLA BLA BLA BLA BLA BLA BLA BLA BLA BLA 
BLA BLA BLA BLA BLA BLA BLA BLA BLA BLA BLA BLA BLA BLA BLA BLA BLA BLA BLA BLA 
BLA BLA BLA BLA BLA BLA BLA BLA BLA BLA BLA BLA BLA BLA BLA BLA BLA BLA BLA BLA 
BLA BLA BLA BLA BLA BLA BLA BLA BLA BLA BLA BLA BLA BLA BLA BLA BLA BLA BLA BLA 
BLA BLA BLA BLA BLA BLA BLA BLA BLA BLA BLA BLA BLA BLA BLA BLA BLA BLA BLA BLA 
BLA BLA BLA BLA BLA BLA BLA BLA BLA BLA BLA BLA BLA BLA BLA BLA BLA BLA BLA BLA 
BLA BLA BLA BLA BLA BLA BLA BLA BLA BLA BLA BLA BLA BLA BLA BLA BLA BLA BLA BLA 
BLA BLA BLA BLA BLA BLA BLA BLA BLA BLA BLA BLA BLA BLA BLA BLA BLA BLA BLA BLA 
BLA BLA BLA BLA BLA BLA BLA BLA BLA BLA BLA BLA BLA BLA BLA BLA BLA BLA BLA BLA 
BLA BLA BLA BLA BLA BLA BLA BLA BLA BLA BLA BLA BLA BLA BLA BLA BLA BLA BLA BLA 
BLA BLA BLA BLA BLA BLA BLA BLA BLA BLA BLA BLA BLA BLA BLA BLA BLA BLA BLA BLA 
BLA BLA BLA BLA BLA BLA BLA BLA BLA BLA BLA BLA BLA BLA BLA BLA BLA BLA BLA BLA 
BLA BLA BLA BLA BLA BLA BLA BLA BLA BLA BLA BLA BLA BLA BLA BLA BLA BLA BLA BLA 
BLA BLA BLA BLA BLA BLA BLA BLA BLA BLA BLA BLA BLA BLA BLA BLA BLA BLA BLA BLA 
BLA BLA BLA BLA BLA BLA BLA BLA BLA BLA BLA BLA BLA BLA BLA BLA BLA BLA BLA BLA 
BLA BLA BLA BLA BLA BLA BLA BLA BLA BLA BLA BLA BLA BLA BLA BLA BLA BLA BLA BLA 
BLA BLA BLA BLA BLA BLA BLA BLA BLA BLA BLA BLA BLA BLA BLA BLA BLA BLA BLA BLA 
BLA BLA BLA BLA BLA BLA BLA BLA BLA BLA BLA BLA BLA BLA BLA BLA BLA BLA BLA BLA 
BLA BLA BLA BLA BLA BLA BLA BLA BLA BLA BLA BLA BLA BLA BLA BLA BLA BLA BLA BLA 
BLA BLA BLA BLA BLA BLA BLA BLA BLA BLA BLA BLA BLA BLA BLA BLA BLA BLA BLA BLA 
BLA BLA BLA BLA BLA BLA BLA BLA BLA BLA BLA BLA BLA BLA BLA BLA BLA BLA BLA BLA 
BLA BLA BLA BLA BLA BLA BLA BLA BLA BLA BLA BLA BLA BLA BLA BLA BLA BLA BLA BLA 
BLA BLA BLA BLA BLA BLA BLA BLA BLA BLA BLA BLA BLA BLA BLA BLA BLA BLA BLA BLA 
BLA BLA BLA BLA BLA BLA BLA BLA BLA BLA BLA BLA BLA BLA BLA BLA BLA BLA BLA BLA 
BLA BLA BLA BLA BLA BLA BLA BLA BLA BLA BLA BLA BLA BLA BLA BLA BLA BLA BLA BLA 
BLA BLA BLA BLA BLA BLA BLA BLA BLA BLA BLA BLA BLA BLA BLA BLA BLA BLA BLA BLA 
BLA BLA BLA BLA BLA BLA BLA BLA BLA BLA BLA BLA BLA BLA BLA BLA BLA BLA BLA BLA 
BLA BLA BLA BLA BLA BLA BLA BLA BLA BLA BLA BLA BLA BLA BLA BLA BLA BLA BLA BLA 
BLA BLA BLA BLA BLA BLA BLA BLA BLA BLA BLA BLA BLA BLA BLA BLA BLA BLA BLA BLA 
BLA BLA BLA BLA BLA BLA BLA BLA BLA BLA BLA BLA BLA BLA BLA BLA BLA BLA BLA BLA 
BLA BLA BLA BLA BLA BLA BLA BLA BLA BLA BLA BLA BLA BLA BLA BLA BLA BLA BLA BLA 
BLA BLA BLA BLA BLA BLA BLA BLA BLA BLA BLA BLA BLA BLA BLA BLA BLA BLA BLA BLA 
BLA BLA BLA BLA BLA BLA BLA BLA BLA BLA BLA BLA BLA BLA BLA BLA BLA BLA BLA BLA 
BLA BLA BLA BLA BLA BLA BLA BLA BLA BLA BLA BLA BLA BLA BLA BLA BLA BLA BLA BLA 
BLA BLA BLA BLA BLA BLA BLA BLA BLA BLA BLA BLA BLA BLA BLA BLA BLA BLA BLA BLA 
BLA BLA BLA BLA BLA BLA BLA BLA BLA BLA BLA BLA BLA BLA BLA BLA BLA BLA BLA BLA 
BLA BLA BLA BLA BLA BLA BLA BLA BLA BLA BLA BLA BLA BLA BLA BLA BLA BLA BLA BLA 
BLA BLA BLA BLA BLA BLA BLA BLA BLA BLA BLA BLA BLA BLA BLA BLA BLA BLA BLA BLA 
BLA BLA BLA BLA BLA BLA BLA BLA BLA BLA BLA BLA BLA BLA BLA BLA BLA BLA BLA BLA 
BLA BLA BLA BLA BLA BLA BLA BLA BLA BLA BLA BLA BLA BLA BLA BLA BLA BLA BLA BLA 
BLA BLA BLA BLA BLA BLA BLA BLA BLA BLA BLA BLA BLA BLA BLA BLA BLA BLA BLA BLA 
BLA BLA BLA BLA BLA BLA BLA BLA BLA BLA BLA BLA BLA BLA BLA BLA BLA BLA BLA BLA 
BLA BLA BLA BLA BLA BLA BLA BLA BLA BLA BLA BLA BLA BLA BLA BLA BLA BLA BLA BLA 
BLA BLA BLA BLA BLA BLA BLA BLA BLA BLA BLA BLA BLA BLA BLA BLA BLA BLA BLA BLA 
BLA BLA BLA BLA BLA BLA BLA BLA BLA BLA BLA BLA BLA BLA BLA BLA BLA BLA BLA BLA 
BLA BLA BLA BLA BLA BLA BLA BLA BLA BLA BLA BLA BLA BLA BLA BLA BLA BLA BLA BLA 
BLA BLA BLA BLA BLA BLA BLA BLA BLA BLA BLA BLA BLA BLA BLA BLA BLA BLA BLA BLA 
BLA BLA BLA BLA BLA BLA BLA BLA BLA BLA BLA BLA BLA BLA BLA BLA BLA BLA BLA BLA 
BLA BLA BLA BLA BLA BLA BLA BLA BLA BLA BLA BLA BLA BLA BLA BLA BLA BLA BLA BLA 
BLA BLA BLA BLA BLA BLA BLA BLA BLA BLA BLA BLA BLA BLA BLA BLA BLA BLA BLA BLA 
BLA BLA BLA BLA BLA BLA BLA BLA BLA BLA BLA BLA BLA BLA BLA BLA BLA BLA BLA BLA 
BLA BLA BLA BLA BLA BLA BLA BLA BLA BLA BLA BLA BLA BLA BLA BLA BLA BLA BLA BLA 
BLA BLA BLA BLA BLA BLA BLA BLA BLA BLA BLA BLA BLA BLA BLA BLA BLA BLA BLA BLA 
BLA BLA BLA BLA BLA BLA BLA BLA BLA BLA BLA BLA BLA BLA BLA BLA BLA BLA BLA BLA 
BLA BLA BLA BLA BLA BLA BLA BLA BLA BLA BLA BLA BLA BLA BLA BLA BLA BLA BLA BLA 
BLA BLA BLA BLA BLA BLA BLA BLA BLA BLA BLA BLA BLA BLA BLA BLA BLA BLA BLA BLA 
BLA BLA BLA BLA BLA BLA BLA BLA BLA BLA BLA BLA BLA BLA BLA BLA BLA BLA BLA BLA 
BLA BLA BLA BLA BLA BLA BLA BLA BLA BLA BLA BLA BLA BLA BLA BLA BLA BLA BLA BLA 
BLA BLA BLA BLA BLA BLA BLA BLA BLA BLA BLA BLA BLA BLA BLA BLA BLA BLA BLA BLA 
BLA BLA BLA BLA BLA BLA BLA BLA BLA BLA BLA BLA BLA BLA BLA BLA BLA BLA BLA BLA 
BLA BLA BLA BLA BLA BLA BLA BLA BLA BLA BLA BLA BLA BLA BLA BLA BLA BLA BLA BLA 
BLA BLA BLA BLA BLA BLA BLA BLA BLA BLA BLA BLA BLA BLA BLA BLA BLA BLA BLA BLA 
BLA BLA BLA BLA BLA BLA BLA BLA BLA BLA BLA BLA BLA BLA BLA BLA BLA BLA BLA BLA 
BLA BLA BLA BLA BLA BLA BLA BLA BLA BLA BLA BLA BLA BLA BLA BLA BLA BLA BLA BLA 
BLA BLA BLA BLA BLA BLA BLA BLA BLA BLA BLA BLA BLA BLA BLA BLA BLA BLA BLA BLA 
BLA BLA BLA BLA BLA BLA BLA BLA BLA BLA BLA BLA BLA BLA BLA BLA BLA BLA BLA BLA 
BLA BLA BLA BLA BLA BLA BLA BLA BLA BLA BLA BLA BLA BLA BLA BLA BLA BLA BLA BLA 
BLA BLA BLA BLA BLA BLA BLA BLA BLA BLA BLA BLA BLA BLA BLA BLA BLA BLA BLA BLA 
BLA BLA BLA BLA BLA BLA BLA BLA BLA BLA BLA BLA BLA BLA BLA BLA BLA BLA BLA BLA 
BLA BLA BLA BLA BLA BLA BLA BLA BLA BLA BLA BLA BLA BLA BLA BLA BLA BLA BLA BLA 
BLA BLA BLA BLA BLA BLA BLA BLA BLA BLA BLA BLA BLA BLA BLA BLA BLA BLA BLA BLA 
BLA BLA BLA BLA BLA BLA BLA BLA BLA BLA BLA BLA BLA BLA BLA BLA BLA BLA BLA BLA 
BLA BLA BLA BLA BLA BLA BLA BLA BLA BLA BLA BLA BLA BLA BLA BLA BLA BLA BLA BLA 
BLA BLA BLA BLA BLA BLA BLA BLA BLA BLA BLA BLA BLA BLA BLA BLA BLA BLA BLA BLA 
BLA BLA BLA BLA BLA BLA BLA BLA BLA BLA BLA BLA BLA BLA BLA BLA BLA BLA BLA BLA 
BLA BLA BLA BLA BLA BLA BLA BLA BLA BLA BLA BLA BLA BLA BLA BLA BLA BLA BLA BLA 
BLA BLA BLA BLA BLA BLA BLA BLA BLA BLA BLA BLA BLA BLA BLA BLA BLA BLA BLA BLA 
BLA BLA BLA BLA BLA BLA BLA BLA BLA BLA BLA BLA BLA BLA BLA BLA BLA BLA BLA BLA 
BLA BLA BLA BLA BLA BLA BLA BLA BLA BLA BLA BLA BLA BLA BLA BLA BLA BLA BLA BLA 
BLA BLA BLA BLA BLA BLA BLA BLA BLA BLA BLA BLA BLA BLA BLA BLA BLA BLA BLA BLA 
BLA BLA BLA BLA BLA BLA BLA BLA BLA BLA BLA BLA BLA BLA BLA BLA BLA BLA BLA BLA 
BLA BLA BLA BLA BLA BLA BLA BLA BLA BLA BLA BLA BLA BLA BLA BLA BLA BLA BLA BLA 
BLA BLA BLA BLA BLA BLA BLA BLA BLA BLA BLA BLA BLA BLA BLA BLA BLA BLA BLA BLA 
BLA BLA BLA BLA BLA BLA BLA BLA BLA BLA BLA BLA BLA BLA BLA BLA BLA BLA BLA BLA 
BLA BLA BLA BLA BLA BLA BLA BLA BLA BLA BLA BLA BLA BLA BLA BLA BLA BLA BLA BLA 
BLA BLA BLA BLA BLA BLA BLA BLA BLA BLA BLA BLA BLA BLA BLA BLA BLA BLA BLA BLA 
BLA BLA BLA BLA BLA BLA BLA BLA BLA BLA BLA BLA BLA BLA BLA BLA BLA BLA BLA BLA 
BLA BLA BLA BLA BLA BLA BLA BLA BLA BLA BLA BLA BLA BLA BLA BLA BLA BLA BLA BLA 
BLA BLA BLA BLA BLA BLA BLA BLA BLA BLA BLA BLA BLA BLA BLA BLA BLA BLA BLA BLA 
BLA BLA BLA BLA BLA BLA BLA BLA BLA BLA BLA BLA BLA BLA BLA BLA BLA BLA BLA BLA 
BLA BLA BLA BLA BLA BLA BLA BLA BLA BLA BLA BLA BLA BLA BLA BLA BLA BLA BLA BLA 
BLA BLA BLA BLA BLA BLA BLA BLA BLA BLA BLA BLA BLA BLA BLA BLA BLA BLA BLA BLA 
BLA BLA BLA BLA BLA BLA BLA BLA BLA BLA BLA BLA BLA BLA BLA BLA BLA BLA BLA BLA 
BLA BLA BLA BLA BLA BLA BLA BLA BLA BLA BLA BLA BLA BLA BLA BLA BLA BLA BLA BLA 
BLA BLA BLA BLA BLA BLA BLA BLA BLA BLA BLA BLA BLA BLA BLA BLA BLA BLA BLA BLA 
BLA BLA BLA BLA BLA BLA BLA BLA BLA BLA BLA BLA BLA BLA BLA BLA BLA BLA BLA BLA 
BLA BLA BLA BLA BLA BLA BLA BLA BLA BLA BLA BLA BLA BLA BLA BLA BLA BLA BLA BLA 
BLA BLA BLA BLA BLA BLA BLA BLA BLA BLA BLA BLA BLA BLA BLA BLA BLA BLA BLA BLA 
BLA BLA BLA BLA BLA BLA BLA BLA BLA BLA BLA BLA BLA BLA BLA BLA BLA BLA BLA BLA 
BLA BLA BLA BLA BLA BLA BLA BLA BLA BLA BLA BLA BLA BLA BLA BLA BLA BLA BLA BLA 
BLA BLA BLA BLA BLA BLA BLA BLA BLA BLA BLA BLA BLA BLA BLA BLA BLA BLA BLA BLA 
BLA BLA BLA BLA BLA BLA BLA BLA BLA BLA BLA BLA BLA BLA BLA BLA BLA BLA BLA BLA 
BLA BLA BLA BLA BLA BLA BLA BLA BLA BLA BLA BLA BLA BLA BLA BLA BLA BLA BLA BLA 
BLA BLA BLA BLA BLA BLA BLA BLA BLA BLA BLA BLA BLA BLA BLA BLA BLA BLA BLA BLA 
BLA BLA BLA BLA BLA BLA BLA BLA BLA BLA BLA BLA BLA BLA BLA BLA BLA BLA BLA BLA 
BLA BLA BLA BLA BLA BLA BLA BLA BLA BLA BLA BLA BLA BLA BLA BLA BLA BLA BLA BLA 
BLA BLA BLA BLA BLA BLA BLA BLA BLA BLA BLA BLA BLA BLA BLA BLA BLA BLA BLA BLA 
BLA BLA BLA BLA BLA BLA BLA BLA BLA BLA BLA BLA BLA BLA BLA BLA BLA BLA BLA BLA 
BLA BLA BLA BLA BLA BLA BLA BLA BLA BLA BLA BLA BLA BLA BLA BLA BLA BLA BLA BLA 
BLA BLA BLA BLA BLA BLA BLA BLA BLA BLA BLA BLA BLA BLA BLA BLA BLA BLA BLA BLA 
BLA BLA BLA BLA BLA BLA BLA BLA BLA BLA BLA BLA BLA BLA BLA BLA BLA BLA BLA BLA 
BLA BLA BLA BLA BLA BLA BLA BLA BLA BLA BLA BLA BLA BLA BLA BLA BLA BLA BLA BLA 
BLA BLA BLA BLA BLA BLA BLA BLA BLA BLA BLA BLA BLA BLA BLA BLA BLA BLA BLA BLA 
BLA BLA BLA BLA BLA BLA BLA BLA BLA BLA BLA BLA BLA BLA BLA BLA BLA BLA BLA BLA 
BLA BLA BLA BLA BLA BLA BLA BLA BLA BLA BLA BLA BLA BLA BLA BLA BLA BLA BLA BLA 
BLA BLA BLA BLA BLA BLA BLA BLA BLA BLA BLA BLA BLA BLA BLA BLA BLA BLA BLA BLA 
BLA BLA BLA BLA BLA BLA BLA BLA BLA BLA BLA BLA BLA BLA BLA BLA BLA BLA BLA BLA 
BLA BLA BLA BLA BLA BLA BLA BLA BLA BLA BLA BLA BLA BLA BLA BLA BLA BLA BLA BLA 
BLA BLA BLA BLA BLA BLA BLA BLA BLA BLA BLA BLA BLA BLA BLA BLA BLA BLA BLA BLA 
BLA BLA BLA BLA BLA BLA BLA BLA BLA BLA BLA BLA BLA BLA BLA BLA BLA BLA BLA BLA 
BLA BLA BLA BLA BLA BLA BLA BLA BLA BLA BLA BLA BLA BLA BLA BLA BLA BLA BLA BLA 
BLA BLA BLA BLA BLA BLA BLA BLA BLA BLA BLA BLA BLA BLA BLA BLA BLA BLA BLA BLA 
BLA BLA BLA BLA BLA BLA BLA BLA BLA BLA BLA BLA BLA BLA BLA BLA BLA BLA BLA BLA 
BLA BLA BLA BLA BLA BLA BLA BLA BLA BLA BLA BLA BLA BLA BLA BLA BLA BLA BLA BLA 
BLA BLA BLA BLA BLA BLA BLA BLA BLA BLA BLA BLA BLA BLA BLA BLA BLA BLA BLA BLA 
BLA BLA BLA BLA BLA BLA BLA BLA BLA BLA BLA BLA BLA BLA BLA BLA BLA BLA BLA BLA 
BLA BLA BLA BLA BLA BLA BLA BLA BLA BLA BLA BLA BLA BLA BLA BLA BLA BLA BLA BLA 
BLA BLA BLA BLA BLA BLA BLA BLA BLA BLA BLA BLA BLA BLA BLA BLA BLA BLA BLA BLA 
BLA BLA BLA BLA BLA BLA BLA BLA BLA BLA BLA BLA BLA BLA BLA BLA BLA BLA BLA BLA 
BLA BLA BLA BLA BLA BLA BLA BLA BLA BLA BLA BLA BLA BLA BLA BLA BLA BLA BLA BLA 
BLA BLA BLA BLA BLA BLA BLA BLA BLA BLA BLA BLA BLA BLA BLA BLA BLA BLA BLA BLA 
BLA BLA BLA BLA BLA BLA BLA BLA BLA BLA BLA BLA BLA BLA BLA BLA BLA BLA BLA BLA 
BLA BLA BLA BLA BLA BLA BLA BLA BLA BLA BLA BLA BLA BLA BLA BLA BLA BLA BLA BLA 
BLA BLA BLA BLA BLA BLA BLA BLA BLA BLA BLA BLA BLA BLA BLA BLA BLA BLA BLA BLA 
BLA BLA BLA BLA BLA BLA BLA BLA BLA BLA BLA BLA BLA BLA BLA BLA BLA BLA BLA BLA 
BLA BLA BLA BLA BLA BLA BLA BLA BLA BLA BLA BLA BLA BLA BLA BLA BLA BLA BLA BLA 
BLA BLA BLA BLA BLA BLA BLA BLA BLA BLA BLA BLA BLA BLA BLA BLA BLA BLA BLA BLA 
BLA BLA BLA BLA BLA BLA BLA BLA BLA BLA BLA BLA BLA BLA BLA BLA BLA BLA BLA BLA 
BLA BLA BLA BLA BLA BLA BLA BLA BLA BLA BLA BLA BLA BLA BLA BLA BLA BLA BLA BLA 
BLA BLA BLA BLA BLA BLA BLA BLA BLA BLA BLA BLA BLA BLA BLA BLA BLA BLA BLA BLA 
BLA BLA BLA BLA BLA BLA BLA BLA BLA BLA BLA BLA BLA BLA BLA BLA BLA BLA BLA BLA 
BLA BLA BLA BLA BLA BLA BLA BLA BLA BLA BLA BLA BLA BLA BLA BLA BLA BLA BLA BLA 
BLA BLA BLA BLA BLA BLA BLA BLA BLA BLA BLA BLA BLA BLA BLA BLA BLA BLA BLA BLA 
BLA BLA BLA BLA BLA BLA BLA BLA BLA BLA BLA BLA BLA BLA BLA BLA BLA BLA BLA BLA 
BLA BLA BLA BLA BLA BLA BLA BLA BLA BLA BLA BLA BLA BLA BLA BLA BLA BLA BLA BLA 
BLA BLA BLA BLA BLA BLA BLA BLA BLA BLA BLA BLA BLA BLA BLA BLA BLA BLA BLA BLA 
BLA BLA BLA BLA BLA BLA BLA BLA BLA BLA BLA BLA BLA BLA BLA BLA BLA BLA BLA BLA 
BLA BLA BLA BLA BLA BLA BLA BLA BLA BLA BLA BLA BLA BLA BLA BLA BLA BLA BLA BLA 
BLA BLA BLA BLA BLA BLA BLA BLA BLA BLA BLA BLA BLA BLA BLA BLA BLA BLA BLA BLA 
BLA BLA BLA BLA BLA BLA BLA BLA BLA BLA BLA BLA BLA BLA BLA BLA BLA BLA BLA BLA 
BLA BLA BLA BLA BLA BLA BLA BLA BLA BLA BLA BLA BLA BLA BLA BLA BLA BLA BLA BLA 
BLA BLA BLA BLA BLA BLA BLA BLA BLA BLA BLA BLA BLA BLA BLA BLA BLA BLA BLA BLA 
BLA BLA BLA BLA BLA BLA BLA BLA BLA BLA BLA BLA BLA BLA BLA BLA BLA BLA BLA BLA 
BLA BLA BLA BLA BLA BLA BLA BLA BLA BLA BLA BLA BLA BLA BLA BLA BLA BLA BLA BLA 
BLA BLA BLA BLA BLA BLA BLA BLA BLA BLA BLA BLA BLA BLA BLA BLA BLA BLA BLA BLA 
BLA BLA BLA BLA BLA BLA BLA BLA BLA BLA BLA BLA BLA BLA BLA BLA BLA BLA BLA BLA 
BLA BLA BLA BLA BLA BLA BLA BLA BLA BLA BLA BLA BLA BLA BLA BLA BLA BLA BLA BLA 
BLA BLA BLA BLA BLA BLA BLA BLA BLA BLA BLA BLA BLA BLA BLA BLA BLA BLA BLA BLA 
BLA BLA BLA BLA BLA BLA BLA BLA BLA BLA BLA BLA BLA BLA BLA BLA BLA BLA BLA BLA 
BLA BLA BLA BLA BLA BLA BLA BLA BLA BLA BLA BLA BLA BLA BLA BLA BLA BLA BLA BLA 
BLA BLA BLA BLA BLA BLA BLA BLA BLA BLA BLA BLA BLA BLA BLA BLA BLA BLA BLA BLA 
BLA BLA BLA BLA BLA BLA BLA BLA BLA BLA BLA BLA BLA BLA BLA BLA BLA BLA BLA BLA 
BLA BLA BLA BLA BLA BLA BLA BLA BLA BLA BLA BLA BLA BLA BLA BLA BLA BLA BLA BLA 
BLA BLA BLA BLA BLA BLA BLA BLA BLA BLA BLA BLA BLA BLA BLA BLA BLA BLA BLA BLA 
BLA BLA BLA BLA BLA BLA BLA BLA BLA BLA BLA BLA BLA BLA BLA BLA BLA BLA BLA BLA 
BLA BLA BLA BLA BLA BLA BLA BLA BLA BLA BLA BLA BLA BLA BLA BLA BLA BLA BLA BLA 
BLA BLA BLA BLA BLA BLA BLA BLA BLA BLA BLA BLA BLA BLA BLA BLA BLA BLA BLA BLA 
BLA BLA BLA BLA BLA BLA BLA BLA BLA BLA BLA BLA BLA BLA BLA BLA BLA BLA BLA BLA 
BLA BLA BLA BLA BLA BLA BLA BLA BLA BLA BLA BLA BLA BLA BLA BLA BLA BLA BLA BLA 
BLA BLA BLA BLA BLA BLA BLA BLA BLA BLA BLA BLA BLA BLA BLA BLA BLA BLA BLA BLA 
BLA BLA BLA BLA BLA BLA BLA BLA BLA BLA BLA BLA BLA BLA BLA BLA BLA BLA BLA BLA 
BLA BLA BLA BLA BLA BLA BLA BLA BLA BLA BLA BLA BLA BLA BLA BLA BLA BLA BLA BLA 
BLA BLA BLA BLA BLA BLA BLA BLA BLA BLA BLA BLA BLA BLA BLA BLA BLA BLA BLA BLA 
BLA BLA BLA BLA BLA BLA BLA BLA BLA BLA BLA BLA BLA BLA BLA BLA BLA BLA BLA BLA 
BLA BLA BLA BLA BLA BLA BLA BLA BLA BLA BLA BLA BLA BLA BLA BLA BLA BLA BLA BLA 
BLA BLA BLA BLA BLA BLA BLA BLA BLA BLA BLA BLA BLA BLA BLA BLA BLA BLA BLA BLA 
BLA BLA BLA BLA BLA BLA BLA BLA BLA BLA BLA BLA BLA BLA BLA BLA BLA BLA BLA BLA 
BLA BLA BLA BLA BLA BLA BLA BLA BLA BLA BLA BLA BLA BLA BLA BLA BLA BLA BLA BLA 
BLA BLA BLA BLA BLA BLA BLA BLA BLA BLA BLA BLA BLA BLA BLA BLA BLA BLA BLA BLA 
BLA BLA BLA BLA BLA BLA BLA BLA BLA BLA BLA BLA BLA BLA BLA BLA BLA BLA BLA BLA 
BLA BLA BLA BLA BLA BLA BLA BLA BLA BLA BLA BLA BLA BLA BLA BLA BLA BLA BLA BLA 
BLA BLA BLA BLA BLA BLA BLA BLA BLA BLA BLA BLA BLA BLA BLA BLA BLA BLA BLA BLA 
BLA BLA BLA BLA BLA BLA BLA BLA BLA BLA BLA BLA BLA BLA BLA BLA BLA BLA BLA BLA 
BLA BLA BLA BLA BLA BLA BLA BLA BLA BLA BLA BLA BLA BLA BLA BLA BLA BLA BLA BLA 
BLA BLA BLA BLA BLA BLA BLA BLA BLA BLA BLA BLA BLA BLA BLA BLA BLA BLA BLA BLA 
BLA BLA BLA BLA BLA BLA BLA BLA BLA BLA BLA BLA BLA BLA BLA BLA BLA BLA BLA BLA 
BLA BLA BLA BLA BLA BLA BLA BLA BLA BLA BLA BLA BLA BLA BLA BLA BLA BLA BLA BLA 
BLA BLA BLA BLA BLA BLA BLA BLA BLA BLA BLA BLA BLA BLA BLA BLA BLA BLA BLA BLA 
BLA BLA BLA BLA BLA BLA BLA BLA BLA BLA BLA BLA BLA BLA BLA BLA BLA BLA BLA BLA 
BLA BLA BLA BLA BLA BLA BLA BLA BLA BLA BLA BLA BLA BLA BLA BLA BLA BLA BLA BLA 
BLA BLA BLA BLA BLA BLA BLA BLA BLA BLA BLA BLA BLA BLA BLA BLA BLA BLA BLA BLA 
BLA BLA BLA BLA BLA BLA BLA BLA BLA BLA BLA BLA BLA BLA BLA BLA BLA BLA BLA BLA 
BLA BLA BLA BLA BLA BLA BLA BLA BLA BLA BLA BLA BLA BLA BLA BLA BLA BLA BLA BLA 
BLA BLA BLA BLA BLA BLA BLA BLA BLA BLA BLA BLA BLA BLA BLA BLA BLA BLA BLA BLA 
BLA BLA BLA BLA BLA BLA BLA BLA BLA BLA BLA BLA BLA BLA BLA BLA BLA BLA BLA BLA 
BLA BLA BLA BLA BLA BLA BLA BLA BLA BLA BLA BLA BLA BLA BLA BLA BLA BLA BLA BLA 
BLA BLA BLA BLA BLA BLA BLA BLA BLA BLA BLA BLA BLA BLA BLA BLA BLA BLA BLA BLA 
BLA BLA BLA BLA BLA BLA BLA BLA BLA BLA BLA BLA BLA BLA BLA BLA BLA BLA BLA BLA 
BLA BLA BLA BLA BLA BLA BLA BLA BLA BLA BLA BLA BLA BLA BLA BLA BLA BLA BLA BLA 
BLA BLA BLA BLA BLA BLA BLA BLA BLA BLA BLA BLA BLA BLA BLA BLA BLA BLA BLA BLA 
BLA BLA BLA BLA BLA BLA BLA BLA BLA BLA BLA BLA BLA BLA BLA BLA BLA BLA BLA BLA 
BLA BLA BLA BLA BLA BLA BLA BLA BLA BLA BLA BLA BLA BLA BLA BLA BLA BLA BLA BLA 
BLA BLA BLA BLA BLA BLA BLA BLA BLA BLA BLA BLA BLA BLA BLA BLA BLA BLA BLA BLA 
BLA BLA BLA BLA BLA BLA BLA BLA BLA BLA BLA BLA BLA BLA BLA BLA BLA BLA BLA BLA 
BLA BLA BLA BLA BLA BLA BLA BLA BLA BLA BLA BLA BLA BLA BLA BLA BLA BLA BLA BLA 
BLA BLA BLA BLA BLA BLA BLA BLA BLA BLA BLA BLA BLA BLA BLA BLA BLA BLA BLA BLA 
BLA BLA BLA BLA BLA BLA BLA BLA BLA BLA BLA BLA BLA BLA BLA BLA BLA BLA BLA BLA 
BLA BLA BLA BLA BLA BLA BLA BLA BLA BLA BLA BLA BLA BLA BLA BLA BLA BLA BLA BLA 
BLA BLA BLA BLA BLA BLA BLA BLA BLA BLA BLA BLA BLA BLA BLA BLA BLA BLA BLA BLA 
BLA BLA BLA BLA BLA BLA BLA BLA BLA BLA BLA BLA BLA BLA BLA BLA BLA BLA BLA BLA 
BLA BLA BLA BLA BLA BLA BLA BLA BLA BLA BLA BLA BLA BLA BLA BLA BLA BLA BLA BLA 
BLA BLA BLA BLA BLA BLA BLA BLA BLA BLA BLA BLA BLA BLA BLA BLA BLA BLA BLA BLA 
BLA BLA BLA BLA BLA BLA BLA BLA BLA BLA BLA BLA BLA BLA BLA BLA BLA BLA BLA BLA 
BLA BLA BLA BLA BLA BLA BLA BLA BLA BLA BLA BLA BLA BLA BLA BLA BLA BLA BLA BLA 
BLA BLA BLA BLA BLA BLA BLA BLA BLA BLA BLA BLA BLA BLA BLA BLA BLA BLA BLA BLA 
BLA BLA BLA BLA BLA BLA BLA BLA BLA BLA BLA BLA BLA BLA BLA BLA BLA BLA BLA BLA 
BLA BLA BLA BLA BLA BLA BLA BLA BLA BLA BLA BLA BLA BLA BLA BLA BLA BLA BLA BLA 
BLA BLA BLA BLA BLA BLA BLA BLA BLA BLA BLA BLA BLA BLA BLA BLA BLA BLA BLA BLA 
BLA BLA BLA BLA BLA BLA BLA BLA BLA BLA BLA BLA BLA BLA BLA BLA BLA BLA BLA BLA 
BLA BLA BLA BLA BLA BLA BLA BLA BLA BLA BLA BLA BLA BLA BLA BLA BLA BLA BLA BLA 
BLA BLA BLA BLA BLA BLA BLA BLA BLA BLA BLA BLA BLA BLA BLA BLA BLA BLA BLA BLA 
BLA BLA BLA BLA BLA BLA BLA BLA BLA BLA BLA BLA BLA BLA BLA BLA BLA BLA BLA BLA 
BLA BLA BLA BLA BLA BLA BLA BLA BLA BLA BLA BLA BLA BLA BLA BLA BLA BLA BLA BLA 
BLA BLA BLA BLA BLA BLA BLA BLA BLA BLA BLA BLA BLA BLA BLA BLA BLA BLA BLA BLA 
BLA BLA BLA BLA BLA BLA BLA BLA BLA BLA BLA BLA BLA BLA BLA BLA BLA BLA BLA BLA 
BLA BLA BLA BLA BLA BLA BLA BLA BLA BLA BLA BLA BLA BLA BLA BLA BLA BLA BLA BLA 
BLA BLA BLA BLA BLA BLA BLA BLA BLA BLA BLA BLA BLA BLA BLA BLA BLA BLA BLA BLA 
BLA BLA BLA BLA BLA BLA BLA BLA BLA BLA BLA BLA BLA BLA BLA BLA BLA BLA BLA BLA 
BLA BLA BLA BLA BLA BLA BLA BLA BLA BLA BLA BLA BLA BLA BLA BLA BLA BLA BLA BLA 
BLA BLA BLA BLA BLA BLA BLA BLA BLA BLA BLA BLA BLA BLA BLA BLA BLA BLA BLA BLA 
BLA BLA BLA BLA BLA BLA BLA BLA BLA BLA BLA BLA BLA BLA BLA BLA BLA BLA BLA BLA 
BLA BLA BLA BLA BLA BLA BLA BLA BLA BLA BLA BLA BLA BLA BLA BLA BLA BLA BLA BLA 
BLA BLA BLA BLA BLA BLA BLA BLA BLA BLA BLA BLA BLA BLA BLA BLA BLA BLA BLA BLA 
BLA BLA BLA BLA BLA BLA BLA BLA BLA BLA BLA BLA BLA BLA BLA BLA BLA BLA BLA BLA 
BLA BLA BLA BLA BLA BLA BLA BLA BLA BLA BLA BLA BLA BLA BLA BLA BLA BLA BLA BLA 
BLA BLA BLA BLA BLA BLA BLA BLA BLA BLA BLA BLA BLA BLA BLA BLA BLA BLA BLA BLA 
BLA BLA BLA BLA BLA BLA BLA BLA BLA BLA BLA BLA BLA BLA BLA BLA BLA BLA BLA BLA 
BLA BLA BLA BLA BLA BLA BLA BLA BLA BLA BLA BLA BLA BLA BLA BLA BLA BLA BLA BLA 
BLA BLA BLA BLA BLA BLA BLA BLA BLA BLA BLA BLA BLA BLA BLA BLA BLA BLA BLA BLA 
BLA BLA BLA BLA BLA BLA BLA BLA BLA BLA BLA BLA BLA BLA BLA BLA BLA BLA BLA BLA 
BLA BLA BLA BLA BLA BLA BLA BLA BLA BLA BLA BLA BLA BLA BLA BLA BLA BLA BLA BLA 
BLA BLA BLA BLA BLA BLA BLA BLA BLA BLA BLA BLA BLA BLA BLA BLA BLA BLA BLA BLA 
BLA BLA BLA BLA BLA BLA BLA BLA BLA BLA BLA BLA BLA BLA BLA BLA BLA BLA BLA BLA 
BLA BLA BLA BLA BLA BLA BLA BLA BLA BLA BLA BLA BLA BLA BLA BLA BLA BLA BLA BLA 
BLA BLA BLA BLA BLA BLA BLA BLA BLA BLA BLA BLA BLA BLA BLA BLA BLA BLA BLA BLA 
BLA BLA BLA BLA BLA BLA BLA BLA BLA BLA BLA BLA BLA BLA BLA BLA BLA BLA BLA BLA 
BLA BLA BLA BLA BLA BLA BLA BLA BLA BLA BLA BLA BLA BLA BLA BLA BLA BLA BLA BLA 
BLA BLA BLA BLA BLA BLA BLA BLA BLA BLA BLA BLA BLA BLA BLA BLA BLA BLA BLA BLA 
BLA BLA BLA BLA BLA BLA BLA BLA BLA BLA BLA BLA BLA BLA BLA BLA BLA BLA BLA BLA 
BLA BLA BLA BLA BLA BLA BLA BLA BLA BLA BLA BLA BLA BLA BLA BLA BLA BLA BLA BLA 
BLA BLA BLA BLA BLA BLA BLA BLA BLA BLA BLA BLA BLA BLA BLA BLA BLA BLA BLA BLA 
BLA BLA BLA BLA BLA BLA BLA BLA BLA BLA BLA BLA BLA BLA BLA BLA BLA BLA BLA BLA 
BLA BLA BLA BLA BLA BLA BLA BLA BLA BLA BLA BLA BLA BLA BLA BLA BLA BLA BLA BLA 
BLA BLA BLA BLA BLA BLA BLA BLA BLA BLA BLA BLA BLA BLA BLA BLA BLA BLA BLA BLA 
BLA BLA BLA BLA BLA BLA BLA BLA BLA BLA BLA BLA BLA BLA BLA BLA BLA BLA BLA BLA 
BLA BLA BLA BLA BLA BLA BLA BLA BLA BLA BLA BLA BLA BLA BLA BLA BLA BLA BLA BLA 
BLA BLA BLA BLA BLA BLA BLA BLA BLA BLA BLA BLA BLA BLA BLA BLA BLA BLA BLA BLA 
BLA BLA BLA BLA BLA BLA BLA BLA BLA BLA BLA BLA BLA BLA BLA BLA BLA BLA BLA BLA 
BLA BLA BLA BLA BLA BLA BLA BLA BLA BLA BLA BLA BLA BLA BLA BLA BLA BLA BLA BLA 
BLA BLA BLA BLA BLA BLA BLA BLA BLA BLA BLA BLA BLA BLA BLA BLA BLA BLA BLA BLA 
BLA BLA BLA BLA BLA BLA BLA BLA BLA BLA BLA BLA BLA BLA BLA BLA BLA BLA BLA BLA 
BLA BLA BLA BLA BLA BLA BLA BLA BLA BLA BLA BLA BLA BLA BLA BLA BLA BLA BLA BLA 
BLA BLA BLA BLA BLA BLA BLA BLA BLA BLA BLA BLA BLA BLA BLA BLA BLA BLA BLA BLA 
BLA BLA BLA BLA BLA BLA BLA BLA BLA BLA BLA BLA BLA BLA BLA BLA BLA BLA BLA BLA 
BLA BLA BLA BLA BLA BLA BLA BLA BLA BLA BLA BLA BLA BLA BLA BLA BLA BLA BLA BLA 
BLA BLA BLA BLA BLA BLA BLA BLA BLA BLA BLA BLA BLA BLA BLA BLA BLA BLA BLA BLA 
BLA BLA BLA BLA BLA BLA BLA BLA BLA BLA BLA BLA BLA BLA BLA BLA BLA BLA BLA BLA 
BLA BLA BLA BLA BLA BLA BLA BLA BLA BLA BLA BLA BLA BLA BLA BLA BLA BLA BLA BLA 
BLA BLA BLA BLA BLA BLA BLA BLA BLA BLA BLA BLA BLA BLA BLA BLA BLA BLA BLA BLA 
BLA BLA BLA BLA BLA BLA BLA BLA BLA BLA BLA BLA BLA BLA BLA BLA BLA BLA BLA BLA 
BLA BLA BLA BLA BLA BLA BLA BLA BLA BLA BLA BLA BLA BLA BLA BLA BLA BLA BLA BLA 
BLA BLA BLA BLA BLA BLA BLA BLA BLA BLA BLA BLA BLA BLA BLA BLA BLA BLA BLA BLA 
BLA BLA BLA BLA BLA BLA BLA BLA BLA BLA BLA BLA BLA BLA BLA BLA BLA BLA BLA BLA 
BLA BLA BLA BLA BLA BLA BLA BLA BLA BLA BLA BLA BLA BLA BLA BLA BLA BLA BLA BLA 
BLA BLA BLA BLA BLA BLA BLA BLA BLA BLA BLA BLA BLA BLA BLA BLA BLA BLA BLA BLA 
BLA BLA BLA BLA BLA BLA BLA BLA BLA BLA BLA BLA BLA BLA BLA BLA BLA BLA BLA BLA 
BLA BLA BLA BLA BLA BLA BLA BLA BLA BLA BLA BLA BLA BLA BLA BLA BLA BLA BLA BLA 
BLA BLA BLA BLA BLA BLA BLA BLA BLA BLA BLA BLA BLA BLA BLA BLA BLA BLA BLA BLA 
BLA BLA BLA BLA BLA BLA BLA BLA BLA BLA BLA BLA BLA BLA BLA BLA BLA BLA BLA BLA 
BLA BLA BLA BLA BLA BLA BLA BLA BLA BLA BLA BLA BLA BLA BLA BLA BLA BLA BLA BLA 
BLA BLA BLA BLA BLA BLA BLA BLA BLA BLA BLA BLA BLA BLA BLA BLA BLA BLA BLA BLA 
BLA BLA BLA BLA BLA BLA BLA BLA BLA BLA BLA BLA BLA BLA BLA BLA BLA BLA BLA BLA 
BLA BLA BLA BLA BLA BLA BLA BLA BLA BLA BLA BLA BLA BLA BLA BLA BLA BLA BLA BLA 
BLA BLA BLA BLA BLA BLA BLA BLA BLA BLA BLA BLA BLA BLA BLA BLA BLA BLA BLA BLA 
BLA BLA BLA BLA BLA BLA BLA BLA BLA BLA BLA BLA BLA BLA BLA BLA BLA BLA BLA BLA 
BLA BLA BLA BLA BLA BLA BLA BLA BLA BLA BLA BLA BLA BLA BLA BLA BLA BLA BLA BLA 
BLA BLA BLA BLA BLA BLA BLA BLA BLA BLA BLA BLA BLA BLA BLA BLA BLA BLA BLA BLA 
BLA BLA BLA BLA BLA BLA BLA BLA BLA BLA BLA BLA BLA BLA BLA BLA BLA BLA BLA BLA 
BLA BLA BLA BLA BLA BLA BLA BLA BLA BLA BLA BLA BLA BLA BLA BLA BLA BLA BLA BLA 
BLA BLA BLA BLA BLA BLA BLA BLA BLA BLA BLA BLA BLA BLA BLA BLA BLA BLA BLA BLA 
BLA BLA BLA BLA BLA BLA BLA BLA BLA BLA BLA BLA BLA BLA BLA BLA BLA BLA BLA BLA 
BLA BLA BLA BLA BLA BLA BLA BLA BLA BLA BLA BLA BLA BLA BLA BLA BLA BLA BLA BLA 
BLA BLA BLA BLA BLA BLA BLA BLA BLA BLA BLA BLA BLA BLA BLA BLA BLA BLA BLA BLA 
BLA BLA BLA BLA BLA BLA BLA BLA BLA BLA BLA BLA BLA BLA BLA BLA BLA BLA BLA BLA 
BLA BLA BLA BLA BLA BLA BLA BLA BLA BLA BLA BLA BLA BLA BLA BLA BLA BLA BLA BLA 
BLA BLA BLA BLA BLA BLA BLA BLA BLA BLA BLA BLA BLA BLA BLA BLA BLA BLA BLA BLA 
BLA BLA BLA BLA BLA BLA BLA BLA BLA BLA BLA BLA BLA BLA BLA BLA BLA BLA BLA BLA 
BLA BLA BLA BLA BLA BLA BLA BLA BLA BLA BLA BLA BLA BLA BLA BLA BLA BLA BLA BLA 
BLA BLA BLA BLA BLA BLA BLA BLA BLA BLA BLA BLA BLA BLA BLA BLA BLA BLA BLA BLA 
BLA BLA BLA BLA BLA BLA BLA BLA BLA BLA BLA BLA BLA BLA BLA BLA BLA BLA BLA BLA 
BLA BLA BLA BLA BLA BLA BLA BLA BLA BLA BLA BLA BLA BLA BLA BLA BLA BLA BLA BLA 
BLA BLA BLA BLA BLA BLA BLA BLA BLA BLA BLA BLA BLA BLA BLA BLA BLA BLA BLA BLA 
BLA BLA BLA BLA BLA BLA BLA BLA BLA BLA BLA BLA BLA BLA BLA BLA BLA BLA BLA BLA 
BLA BLA BLA BLA BLA BLA BLA BLA BLA BLA BLA BLA BLA BLA BLA BLA BLA BLA BLA BLA 
BLA BLA BLA BLA BLA BLA BLA BLA BLA BLA BLA BLA BLA BLA BLA BLA BLA BLA BLA BLA 
BLA BLA BLA BLA BLA BLA BLA BLA BLA BLA BLA BLA BLA BLA BLA BLA BLA BLA BLA BLA 
BLA BLA BLA BLA BLA BLA BLA BLA BLA BLA BLA BLA BLA BLA BLA BLA BLA BLA BLA BLA 
BLA BLA BLA BLA BLA BLA BLA BLA BLA BLA BLA BLA BLA BLA BLA BLA BLA BLA BLA BLA 
BLA BLA BLA BLA BLA BLA BLA BLA BLA BLA BLA BLA BLA BLA BLA BLA BLA BLA BLA BLA 
BLA BLA BLA BLA BLA BLA BLA BLA BLA BLA BLA BLA BLA BLA BLA BLA BLA BLA BLA BLA 
BLA BLA BLA BLA BLA BLA BLA BLA BLA BLA BLA BLA BLA BLA BLA BLA BLA BLA BLA BLA 
BLA BLA BLA BLA BLA BLA BLA BLA BLA BLA BLA BLA BLA BLA BLA BLA BLA BLA BLA BLA 
BLA BLA BLA BLA BLA BLA BLA BLA BLA BLA BLA BLA BLA BLA BLA BLA BLA BLA BLA BLA 
BLA BLA BLA BLA BLA BLA BLA BLA BLA BLA BLA BLA BLA BLA BLA BLA BLA BLA BLA BLA 
BLA BLA BLA BLA BLA BLA BLA BLA BLA BLA BLA BLA BLA BLA BLA BLA BLA BLA BLA BLA 
BLA BLA BLA BLA BLA BLA BLA BLA BLA BLA BLA BLA BLA BLA BLA BLA BLA BLA BLA BLA 
BLA BLA BLA BLA BLA BLA BLA BLA BLA BLA BLA BLA BLA BLA BLA BLA BLA BLA BLA BLA 
BLA BLA BLA BLA BLA BLA BLA BLA BLA BLA BLA BLA BLA BLA BLA BLA BLA BLA BLA BLA 
BLA BLA BLA BLA BLA BLA BLA BLA BLA BLA BLA BLA BLA BLA BLA BLA BLA BLA BLA BLA 
BLA BLA BLA BLA BLA BLA BLA BLA BLA BLA BLA BLA BLA BLA BLA BLA BLA BLA BLA BLA 
BLA BLA BLA BLA BLA BLA BLA BLA BLA BLA BLA BLA BLA BLA BLA BLA BLA BLA BLA BLA 
BLA BLA BLA BLA BLA BLA BLA BLA BLA BLA BLA BLA BLA BLA BLA BLA BLA BLA BLA BLA 
BLA BLA BLA BLA BLA BLA BLA BLA BLA BLA BLA BLA BLA BLA BLA BLA BLA BLA BLA BLA 
BLA BLA BLA BLA BLA BLA BLA BLA BLA BLA BLA BLA BLA BLA BLA BLA BLA BLA BLA BLA 
BLA BLA BLA BLA BLA BLA BLA BLA BLA BLA BLA BLA BLA BLA BLA BLA BLA BLA BLA BLA 
BLA BLA BLA BLA BLA BLA BLA BLA BLA BLA BLA BLA BLA BLA BLA BLA BLA BLA BLA BLA 
BLA BLA BLA BLA BLA BLA BLA BLA BLA BLA BLA BLA BLA BLA BLA BLA BLA BLA BLA BLA 
BLA BLA BLA BLA BLA BLA BLA BLA BLA BLA BLA BLA BLA BLA BLA BLA BLA BLA BLA BLA 
BLA BLA BLA BLA BLA BLA BLA BLA BLA BLA BLA BLA BLA BLA BLA BLA BLA BLA BLA BLA 
BLA BLA BLA BLA BLA BLA BLA BLA BLA BLA BLA BLA BLA BLA BLA BLA BLA BLA BLA BLA 
BLA BLA BLA BLA BLA BLA BLA BLA BLA BLA BLA BLA BLA BLA BLA BLA BLA BLA BLA BLA 
BLA BLA BLA BLA BLA BLA BLA BLA BLA BLA BLA BLA BLA BLA BLA BLA BLA BLA BLA BLA 
BLA BLA BLA BLA BLA BLA BLA BLA BLA BLA BLA BLA BLA BLA BLA BLA BLA BLA BLA BLA 
BLA BLA BLA BLA BLA BLA BLA BLA BLA BLA BLA BLA BLA BLA BLA BLA BLA BLA BLA BLA 
BLA BLA BLA BLA BLA BLA BLA BLA BLA BLA BLA BLA BLA BLA BLA BLA BLA BLA BLA BLA 
BLA BLA BLA BLA BLA BLA BLA BLA BLA BLA BLA BLA BLA BLA BLA BLA BLA BLA BLA BLA 
BLA BLA BLA BLA BLA BLA BLA BLA BLA BLA BLA BLA BLA BLA BLA BLA BLA BLA BLA BLA 
BLA BLA BLA BLA BLA BLA BLA BLA BLA BLA BLA BLA BLA BLA BLA BLA BLA BLA BLA BLA 
BLA BLA BLA BLA BLA BLA BLA BLA BLA BLA BLA BLA BLA BLA BLA BLA BLA BLA BLA BLA 
BLA BLA BLA BLA BLA BLA BLA BLA BLA BLA BLA BLA BLA BLA BLA BLA BLA BLA BLA BLA 
BLA BLA BLA BLA BLA BLA BLA BLA BLA BLA BLA BLA BLA BLA BLA BLA BLA BLA BLA BLA 
BLA BLA BLA BLA BLA BLA BLA BLA BLA BLA BLA BLA BLA BLA BLA BLA BLA BLA BLA BLA 
BLA BLA BLA BLA BLA BLA BLA BLA BLA BLA BLA BLA BLA BLA BLA BLA BLA BLA BLA BLA 
BLA BLA BLA BLA BLA BLA BLA BLA BLA BLA BLA BLA BLA BLA BLA BLA BLA BLA BLA BLA 
BLA BLA BLA BLA BLA BLA BLA BLA BLA BLA BLA BLA BLA BLA BLA BLA BLA BLA BLA BLA 
BLA BLA BLA BLA BLA BLA BLA BLA BLA BLA BLA BLA BLA BLA BLA BLA BLA BLA BLA BLA 
BLA BLA BLA BLA BLA BLA BLA BLA BLA BLA BLA BLA BLA BLA BLA BLA BLA BLA BLA BLA 
BLA BLA BLA BLA BLA BLA BLA BLA BLA BLA BLA BLA BLA BLA BLA BLA BLA BLA BLA BLA 
BLA BLA BLA BLA BLA BLA BLA BLA BLA BLA BLA BLA BLA BLA BLA BLA BLA BLA BLA BLA 
BLA BLA BLA BLA BLA BLA BLA BLA BLA BLA BLA BLA BLA BLA BLA BLA BLA BLA BLA BLA 
BLA BLA BLA BLA BLA BLA BLA BLA BLA BLA BLA BLA BLA BLA BLA BLA BLA BLA BLA BLA 
BLA BLA BLA BLA BLA BLA BLA BLA BLA BLA BLA BLA BLA BLA BLA BLA BLA BLA BLA BLA 
BLA BLA BLA BLA BLA BLA BLA BLA BLA BLA BLA BLA BLA BLA BLA BLA BLA BLA BLA BLA 
BLA BLA BLA BLA BLA BLA BLA BLA BLA BLA BLA BLA BLA BLA BLA BLA BLA BLA BLA BLA 
BLA BLA BLA BLA BLA BLA BLA BLA BLA BLA BLA BLA BLA BLA BLA BLA BLA BLA BLA BLA 
BLA BLA BLA BLA BLA BLA BLA BLA BLA BLA BLA BLA BLA BLA BLA BLA BLA BLA BLA BLA 
BLA BLA BLA BLA BLA BLA BLA BLA BLA BLA BLA BLA BLA BLA BLA BLA BLA BLA BLA BLA 
BLA BLA BLA BLA BLA BLA BLA BLA BLA BLA BLA BLA BLA BLA BLA BLA BLA BLA BLA BLA 
BLA BLA BLA BLA BLA BLA BLA BLA BLA BLA BLA BLA BLA BLA BLA BLA BLA BLA BLA BLA 
BLA BLA BLA BLA BLA BLA BLA BLA BLA BLA BLA BLA BLA BLA BLA BLA BLA BLA BLA BLA 
BLA BLA BLA BLA BLA BLA BLA BLA BLA BLA BLA BLA BLA BLA BLA BLA BLA BLA BLA BLA 
BLA BLA BLA BLA BLA BLA BLA BLA BLA BLA BLA BLA BLA BLA BLA BLA BLA BLA BLA BLA 
BLA BLA BLA BLA BLA BLA BLA BLA BLA BLA BLA BLA BLA BLA BLA BLA BLA BLA BLA BLA 
BLA BLA BLA BLA BLA BLA BLA BLA BLA BLA BLA BLA BLA BLA BLA BLA BLA BLA BLA BLA 
BLA BLA BLA BLA BLA BLA BLA BLA BLA BLA BLA BLA BLA BLA BLA BLA BLA BLA BLA BLA 
BLA BLA BLA BLA BLA BLA BLA BLA BLA BLA BLA BLA BLA BLA BLA BLA BLA BLA BLA BLA 
BLA BLA BLA BLA BLA BLA BLA BLA BLA BLA BLA BLA BLA BLA BLA BLA BLA BLA BLA BLA 
BLA BLA BLA BLA BLA BLA BLA BLA BLA BLA BLA BLA BLA BLA BLA BLA BLA BLA BLA BLA 
BLA BLA BLA BLA BLA BLA BLA BLA BLA BLA BLA BLA BLA BLA BLA BLA BLA BLA BLA BLA 
BLA BLA BLA BLA BLA BLA BLA BLA BLA BLA BLA BLA BLA BLA BLA BLA BLA BLA BLA BLA 
BLA BLA BLA BLA BLA BLA BLA BLA BLA BLA BLA BLA BLA BLA BLA BLA BLA BLA BLA BLA 
BLA BLA BLA BLA BLA BLA BLA BLA BLA BLA BLA BLA BLA BLA BLA BLA BLA BLA BLA BLA 
BLA BLA BLA BLA BLA BLA BLA BLA BLA BLA BLA BLA BLA BLA BLA BLA BLA BLA BLA BLA 
BLA BLA BLA BLA BLA BLA BLA BLA BLA BLA BLA BLA BLA BLA BLA BLA BLA BLA BLA BLA 
BLA BLA BLA BLA BLA BLA BLA BLA BLA BLA BLA BLA BLA BLA BLA BLA BLA BLA BLA BLA 
BLA BLA BLA BLA BLA BLA BLA BLA BLA BLA BLA BLA BLA BLA BLA BLA BLA BLA BLA BLA 
BLA BLA BLA BLA BLA BLA BLA BLA BLA BLA BLA BLA BLA BLA BLA BLA BLA BLA BLA BLA 
BLA BLA BLA BLA BLA BLA BLA BLA BLA BLA BLA BLA BLA BLA BLA BLA BLA BLA BLA BLA 
BLA BLA BLA BLA BLA BLA BLA BLA BLA BLA BLA BLA BLA BLA BLA BLA BLA BLA BLA BLA 
BLA BLA BLA BLA BLA BLA BLA BLA BLA BLA BLA BLA BLA BLA BLA BLA BLA BLA BLA BLA 
BLA BLA BLA BLA BLA BLA BLA BLA BLA BLA BLA BLA BLA BLA BLA BLA BLA BLA BLA BLA 
BLA BLA BLA BLA BLA BLA BLA BLA BLA BLA BLA BLA BLA BLA BLA BLA BLA BLA BLA BLA 
BLA BLA BLA BLA BLA BLA BLA BLA BLA BLA BLA BLA BLA BLA BLA BLA BLA BLA BLA BLA 
BLA BLA BLA BLA BLA BLA BLA BLA BLA BLA BLA BLA BLA BLA BLA BLA BLA BLA BLA BLA 
BLA BLA BLA BLA BLA BLA BLA BLA BLA BLA BLA BLA BLA BLA BLA BLA BLA BLA BLA BLA 
BLA BLA BLA BLA BLA BLA BLA BLA BLA BLA BLA BLA BLA BLA BLA BLA BLA BLA BLA BLA 
BLA BLA BLA BLA BLA BLA BLA BLA BLA BLA BLA BLA BLA BLA BLA BLA BLA BLA BLA BLA 
BLA BLA BLA BLA BLA BLA BLA BLA BLA BLA BLA BLA BLA BLA BLA BLA BLA BLA BLA BLA 
BLA BLA BLA BLA BLA BLA BLA BLA BLA BLA BLA BLA BLA BLA BLA BLA BLA BLA BLA BLA 
BLA BLA BLA BLA BLA BLA BLA BLA BLA BLA BLA BLA BLA BLA BLA BLA BLA BLA BLA BLA 
BLA BLA BLA BLA BLA BLA BLA BLA BLA BLA BLA BLA BLA BLA BLA BLA BLA BLA BLA BLA 
BLA BLA BLA BLA BLA BLA BLA BLA BLA BLA BLA BLA BLA BLA BLA BLA BLA BLA BLA BLA 
BLA BLA BLA BLA BLA BLA BLA BLA BLA BLA BLA BLA BLA BLA BLA BLA BLA BLA BLA BLA 
BLA BLA BLA BLA BLA BLA BLA BLA BLA BLA BLA BLA BLA BLA BLA BLA BLA BLA BLA BLA 
BLA BLA BLA BLA BLA BLA BLA BLA BLA BLA BLA BLA BLA BLA BLA BLA BLA BLA BLA BLA 
BLA BLA BLA BLA BLA BLA BLA BLA BLA BLA BLA BLA BLA BLA BLA BLA BLA BLA BLA BLA 
BLA BLA BLA BLA BLA BLA BLA BLA BLA BLA BLA BLA BLA BLA BLA BLA BLA BLA BLA BLA 
BLA BLA BLA BLA BLA BLA BLA BLA BLA BLA BLA BLA BLA BLA BLA BLA BLA BLA BLA BLA 
BLA BLA BLA BLA BLA BLA BLA BLA BLA BLA BLA BLA BLA BLA BLA BLA BLA BLA BLA BLA 
BLA BLA BLA BLA BLA BLA BLA BLA BLA BLA BLA BLA BLA BLA BLA BLA BLA BLA BLA BLA 
BLA BLA BLA BLA BLA BLA BLA BLA BLA BLA BLA BLA BLA BLA BLA BLA BLA BLA BLA BLA 
BLA BLA BLA BLA BLA BLA BLA BLA BLA BLA BLA BLA BLA BLA BLA BLA BLA BLA BLA BLA 
BLA BLA BLA BLA BLA BLA BLA BLA BLA BLA BLA BLA BLA BLA BLA BLA BLA BLA BLA BLA 
BLA BLA BLA BLA BLA BLA BLA BLA BLA BLA BLA BLA BLA BLA BLA BLA BLA BLA BLA BLA 
BLA BLA BLA BLA BLA BLA BLA BLA BLA BLA BLA BLA BLA BLA BLA BLA BLA BLA BLA BLA 
BLA BLA BLA BLA BLA BLA BLA BLA BLA BLA BLA BLA BLA BLA BLA BLA BLA BLA BLA BLA 
BLA BLA BLA BLA BLA BLA BLA BLA BLA BLA BLA BLA BLA BLA BLA BLA BLA BLA BLA BLA 
BLA BLA BLA BLA BLA BLA BLA BLA BLA BLA BLA BLA BLA BLA BLA BLA BLA BLA BLA BLA 
BLA BLA BLA BLA BLA BLA BLA BLA BLA BLA BLA BLA BLA BLA BLA BLA BLA BLA BLA BLA 
BLA BLA BLA BLA BLA BLA BLA BLA BLA BLA BLA BLA BLA BLA BLA BLA BLA BLA BLA BLA 
BLA BLA BLA BLA BLA BLA BLA BLA BLA BLA BLA BLA BLA BLA BLA BLA BLA BLA BLA BLA 
BLA BLA BLA BLA BLA BLA BLA BLA BLA BLA BLA BLA BLA BLA BLA BLA BLA BLA BLA BLA 
BLA BLA BLA BLA BLA BLA BLA BLA BLA BLA BLA BLA BLA BLA BLA BLA BLA BLA BLA BLA 
BLA BLA BLA BLA BLA BLA BLA BLA BLA BLA BLA BLA BLA BLA BLA BLA BLA BLA BLA BLA 
BLA BLA BLA BLA BLA BLA BLA BLA BLA BLA BLA BLA BLA BLA BLA BLA BLA BLA BLA BLA 
BLA BLA BLA BLA BLA BLA BLA BLA BLA BLA BLA BLA BLA BLA BLA BLA BLA BLA BLA BLA 
BLA BLA BLA BLA BLA BLA BLA BLA BLA BLA BLA BLA BLA BLA BLA BLA BLA BLA BLA BLA 
BLA BLA BLA BLA BLA BLA BLA BLA BLA BLA BLA BLA BLA BLA BLA BLA BLA BLA BLA BLA 
BLA BLA BLA BLA BLA BLA BLA BLA BLA BLA BLA BLA BLA BLA BLA BLA BLA BLA BLA BLA 
BLA BLA BLA BLA BLA BLA BLA BLA BLA BLA BLA BLA BLA BLA BLA BLA BLA BLA BLA BLA 
BLA BLA BLA BLA BLA BLA BLA BLA BLA BLA BLA BLA BLA BLA BLA BLA BLA BLA BLA BLA 
BLA BLA BLA BLA BLA BLA BLA BLA BLA BLA BLA BLA BLA BLA BLA BLA BLA BLA BLA BLA 
BLA BLA BLA BLA BLA BLA BLA BLA BLA BLA BLA BLA BLA BLA BLA BLA BLA BLA BLA BLA 
BLA BLA BLA BLA BLA BLA BLA BLA BLA BLA BLA BLA BLA BLA BLA BLA BLA BLA BLA BLA 
BLA BLA BLA BLA BLA BLA BLA BLA BLA BLA BLA BLA BLA BLA BLA BLA BLA BLA BLA BLA 
BLA BLA BLA BLA BLA BLA BLA BLA BLA BLA BLA BLA BLA BLA BLA BLA BLA BLA BLA BLA 
BLA BLA BLA BLA BLA BLA BLA BLA BLA BLA BLA BLA BLA BLA BLA BLA BLA BLA BLA BLA 
BLA BLA BLA BLA BLA BLA BLA BLA BLA BLA BLA BLA BLA BLA BLA BLA BLA BLA BLA BLA 
BLA BLA BLA BLA BLA BLA BLA BLA BLA BLA BLA BLA BLA BLA BLA BLA BLA BLA BLA BLA 
BLA BLA BLA BLA BLA BLA BLA BLA BLA BLA BLA BLA BLA BLA BLA BLA BLA BLA BLA BLA 
BLA BLA BLA BLA BLA BLA BLA BLA BLA BLA BLA BLA BLA BLA BLA BLA BLA BLA BLA BLA 
BLA BLA BLA BLA BLA BLA BLA BLA BLA BLA BLA BLA BLA BLA BLA BLA BLA BLA BLA BLA 
BLA BLA BLA BLA BLA BLA BLA BLA BLA BLA BLA BLA BLA BLA BLA BLA BLA BLA BLA BLA 
BLA BLA BLA BLA BLA BLA BLA BLA BLA BLA BLA BLA BLA BLA BLA BLA BLA BLA BLA BLA 
BLA BLA BLA BLA BLA BLA BLA BLA BLA BLA BLA BLA BLA BLA BLA BLA BLA BLA BLA BLA 
BLA BLA BLA BLA BLA BLA BLA BLA BLA BLA BLA BLA BLA BLA BLA BLA BLA BLA BLA BLA 
BLA BLA BLA BLA BLA BLA BLA BLA BLA BLA BLA BLA BLA BLA BLA BLA BLA BLA BLA BLA 
BLA BLA BLA BLA BLA BLA BLA BLA BLA BLA BLA BLA BLA BLA BLA BLA BLA BLA BLA BLA 
BLA BLA BLA BLA BLA BLA BLA BLA BLA BLA BLA BLA BLA BLA BLA BLA BLA BLA BLA BLA 
BLA BLA BLA BLA BLA BLA BLA BLA BLA BLA BLA BLA BLA BLA BLA BLA BLA BLA BLA BLA 
BLA BLA BLA BLA BLA BLA BLA BLA BLA BLA BLA BLA BLA BLA BLA BLA BLA BLA BLA BLA 
BLA BLA BLA BLA BLA BLA BLA BLA BLA BLA BLA BLA BLA BLA BLA BLA BLA BLA BLA BLA 
BLA BLA BLA BLA BLA BLA BLA BLA BLA BLA BLA BLA BLA BLA BLA BLA BLA BLA BLA BLA 
BLA BLA BLA BLA BLA BLA BLA BLA BLA BLA BLA BLA BLA BLA BLA BLA BLA BLA BLA BLA 
BLA BLA BLA BLA BLA BLA BLA BLA BLA BLA BLA BLA BLA BLA BLA BLA BLA BLA BLA BLA 
BLA BLA BLA BLA BLA BLA BLA BLA BLA BLA BLA BLA BLA BLA BLA BLA BLA BLA BLA BLA 
BLA BLA BLA BLA BLA BLA BLA BLA BLA BLA BLA BLA BLA BLA BLA BLA BLA BLA BLA BLA 
BLA BLA BLA BLA BLA BLA BLA BLA BLA BLA BLA BLA BLA BLA BLA BLA BLA BLA BLA BLA 
BLA BLA BLA BLA BLA BLA BLA BLA BLA BLA BLA BLA BLA BLA BLA BLA BLA BLA BLA BLA 
BLA BLA BLA BLA BLA BLA BLA BLA BLA BLA BLA BLA BLA BLA BLA BLA BLA BLA BLA BLA 
BLA BLA BLA BLA BLA BLA BLA BLA BLA BLA BLA BLA BLA BLA BLA BLA BLA BLA BLA BLA 
BLA BLA BLA BLA BLA BLA BLA BLA BLA BLA BLA BLA BLA BLA BLA BLA BLA BLA BLA BLA 
BLA BLA BLA BLA BLA BLA BLA BLA BLA BLA BLA BLA BLA BLA BLA BLA BLA BLA BLA BLA 
BLA BLA BLA BLA BLA BLA BLA BLA BLA BLA BLA BLA BLA BLA BLA BLA BLA BLA BLA BLA 
BLA BLA BLA BLA BLA BLA BLA BLA BLA BLA BLA BLA BLA BLA BLA BLA BLA BLA BLA BLA 
BLA BLA BLA BLA BLA BLA BLA BLA BLA BLA BLA BLA BLA BLA BLA BLA BLA BLA BLA BLA 
BLA BLA BLA BLA BLA BLA BLA BLA BLA BLA BLA BLA BLA BLA BLA BLA BLA BLA BLA BLA 
BLA BLA BLA BLA BLA BLA BLA BLA BLA BLA BLA BLA BLA BLA BLA BLA BLA BLA BLA BLA 
BLA BLA BLA BLA BLA BLA BLA BLA BLA BLA BLA BLA BLA BLA BLA BLA BLA BLA BLA BLA 
BLA BLA BLA BLA BLA BLA BLA BLA BLA BLA BLA BLA BLA BLA BLA BLA BLA BLA BLA BLA 
BLA BLA BLA BLA BLA BLA BLA BLA BLA BLA BLA BLA BLA BLA BLA BLA BLA BLA BLA BLA 
BLA BLA BLA BLA BLA BLA BLA BLA BLA BLA BLA BLA BLA BLA BLA BLA BLA BLA BLA BLA 
BLA BLA BLA BLA BLA BLA BLA BLA BLA BLA BLA BLA BLA BLA BLA BLA BLA BLA BLA BLA 
BLA BLA BLA BLA BLA BLA BLA BLA BLA BLA BLA BLA BLA BLA BLA BLA BLA BLA BLA BLA 
BLA BLA BLA BLA BLA BLA BLA BLA BLA BLA BLA BLA BLA BLA BLA BLA BLA BLA BLA BLA 
BLA BLA BLA BLA BLA BLA BLA BLA BLA BLA BLA BLA BLA BLA BLA BLA BLA BLA BLA BLA 
BLA BLA BLA BLA BLA BLA BLA BLA BLA BLA BLA BLA BLA BLA BLA BLA BLA BLA BLA BLA 
BLA BLA BLA BLA BLA BLA BLA BLA BLA BLA BLA BLA BLA BLA BLA BLA BLA BLA BLA BLA 
BLA BLA BLA BLA BLA BLA BLA BLA BLA BLA BLA BLA BLA BLA BLA BLA BLA BLA BLA BLA 
BLA BLA BLA BLA BLA BLA BLA BLA BLA BLA BLA BLA BLA BLA BLA BLA BLA BLA BLA BLA 
BLA BLA BLA BLA BLA BLA BLA BLA BLA BLA BLA BLA BLA BLA BLA BLA BLA BLA BLA BLA 
BLA BLA BLA BLA BLA BLA BLA BLA BLA BLA BLA BLA BLA BLA BLA BLA BLA BLA BLA BLA 
BLA BLA BLA BLA BLA BLA BLA BLA BLA BLA BLA BLA BLA BLA BLA BLA BLA BLA BLA BLA 
BLA BLA BLA BLA BLA BLA BLA BLA BLA BLA BLA BLA BLA BLA BLA BLA BLA BLA BLA BLA 
BLA BLA BLA BLA BLA BLA BLA BLA BLA BLA BLA BLA BLA BLA BLA BLA BLA BLA BLA BLA 
BLA BLA BLA BLA BLA BLA BLA BLA BLA BLA BLA BLA BLA BLA BLA BLA BLA BLA BLA BLA 
BLA BLA BLA BLA BLA BLA BLA BLA BLA BLA BLA BLA BLA BLA BLA BLA BLA BLA BLA BLA 
BLA BLA BLA BLA BLA BLA BLA BLA BLA BLA BLA BLA BLA BLA BLA BLA BLA BLA BLA BLA 
BLA BLA BLA BLA BLA BLA BLA BLA BLA BLA BLA BLA BLA BLA BLA BLA BLA BLA BLA BLA 
BLA BLA BLA BLA BLA BLA BLA BLA BLA BLA BLA BLA BLA BLA BLA BLA BLA BLA BLA BLA 
BLA BLA BLA BLA BLA BLA BLA BLA BLA BLA BLA BLA BLA BLA BLA BLA BLA BLA BLA BLA 
BLA BLA BLA BLA BLA BLA BLA BLA BLA BLA BLA BLA BLA BLA BLA BLA BLA BLA BLA BLA 
BLA BLA BLA BLA BLA BLA BLA BLA BLA BLA BLA BLA BLA BLA BLA BLA BLA BLA BLA BLA 
BLA BLA BLA BLA BLA BLA BLA BLA BLA BLA BLA BLA BLA BLA BLA BLA BLA BLA BLA BLA 
BLA BLA BLA BLA BLA BLA BLA BLA BLA BLA BLA BLA BLA BLA BLA BLA BLA BLA BLA BLA 
BLA BLA BLA BLA BLA BLA BLA BLA BLA BLA BLA BLA BLA BLA BLA BLA BLA BLA BLA BLA 
BLA BLA BLA BLA BLA BLA BLA BLA BLA BLA BLA BLA BLA BLA BLA BLA BLA BLA BLA BLA 
BLA BLA BLA BLA BLA BLA BLA BLA BLA BLA BLA BLA BLA BLA BLA BLA BLA BLA BLA BLA 
BLA BLA BLA BLA BLA BLA BLA BLA BLA BLA BLA BLA BLA BLA BLA BLA BLA BLA BLA BLA 
BLA BLA BLA BLA BLA BLA BLA BLA BLA BLA BLA BLA BLA BLA BLA BLA BLA BLA BLA BLA 
BLA BLA BLA BLA BLA BLA BLA BLA BLA BLA BLA BLA BLA BLA BLA BLA BLA BLA BLA BLA 
BLA BLA BLA BLA BLA BLA BLA BLA BLA BLA BLA BLA BLA BLA BLA BLA BLA BLA BLA BLA 
BLA BLA BLA BLA BLA BLA BLA BLA BLA BLA BLA BLA BLA BLA BLA BLA BLA BLA BLA BLA 
BLA BLA BLA BLA BLA BLA BLA BLA BLA BLA BLA BLA BLA BLA BLA BLA BLA BLA BLA BLA 
BLA BLA BLA BLA BLA BLA BLA BLA BLA BLA BLA BLA BLA BLA BLA BLA BLA BLA BLA BLA 
BLA BLA BLA BLA BLA BLA BLA BLA BLA BLA BLA BLA BLA BLA BLA BLA BLA BLA BLA BLA 
BLA BLA BLA BLA BLA BLA BLA BLA BLA BLA BLA BLA BLA BLA BLA BLA BLA BLA BLA BLA 
BLA BLA BLA BLA BLA BLA BLA BLA BLA BLA BLA BLA BLA BLA BLA BLA BLA BLA BLA BLA 
BLA BLA BLA BLA BLA BLA BLA BLA BLA BLA BLA BLA BLA BLA BLA BLA BLA BLA BLA BLA 
BLA BLA BLA BLA BLA BLA BLA BLA BLA BLA BLA BLA BLA BLA BLA BLA BLA BLA BLA BLA 
BLA BLA BLA BLA BLA BLA BLA BLA BLA BLA BLA BLA BLA BLA BLA BLA BLA BLA BLA BLA 
BLA BLA BLA BLA BLA BLA BLA BLA BLA BLA BLA BLA BLA BLA BLA BLA BLA BLA BLA BLA 
BLA BLA BLA BLA BLA BLA BLA BLA BLA BLA BLA BLA BLA BLA BLA BLA BLA BLA BLA BLA 
BLA BLA BLA BLA BLA BLA BLA BLA BLA BLA BLA BLA BLA BLA BLA BLA BLA BLA BLA BLA 
BLA BLA BLA BLA BLA BLA BLA BLA BLA BLA BLA BLA BLA BLA BLA BLA BLA BLA BLA BLA 
BLA BLA BLA BLA BLA BLA BLA BLA BLA BLA BLA BLA BLA BLA BLA BLA BLA BLA BLA BLA 
BLA BLA BLA BLA BLA BLA BLA BLA BLA BLA BLA BLA BLA BLA BLA BLA BLA BLA BLA BLA 
BLA BLA BLA BLA BLA BLA BLA BLA BLA BLA BLA BLA BLA BLA BLA BLA BLA BLA BLA BLA 
BLA BLA BLA BLA BLA BLA BLA BLA BLA BLA BLA BLA BLA BLA BLA BLA BLA BLA BLA BLA 
BLA BLA BLA BLA BLA BLA BLA BLA BLA BLA BLA BLA BLA BLA BLA BLA BLA BLA BLA BLA 
BLA BLA BLA BLA BLA BLA BLA BLA BLA BLA BLA BLA BLA BLA BLA BLA BLA BLA BLA BLA 
BLA BLA BLA BLA BLA BLA BLA BLA BLA BLA BLA BLA BLA BLA BLA BLA BLA BLA BLA BLA 
BLA BLA BLA BLA BLA BLA BLA BLA BLA BLA BLA BLA BLA BLA BLA BLA BLA BLA BLA BLA 
BLA BLA BLA BLA BLA BLA BLA BLA BLA BLA BLA BLA BLA BLA BLA BLA BLA BLA BLA BLA 
BLA BLA BLA BLA BLA BLA BLA BLA BLA BLA BLA BLA BLA BLA BLA BLA BLA BLA BLA BLA 
BLA BLA BLA BLA BLA BLA BLA BLA BLA BLA BLA BLA BLA BLA BLA BLA BLA BLA BLA BLA 
BLA BLA BLA BLA BLA BLA BLA BLA BLA BLA BLA BLA BLA BLA BLA BLA BLA BLA BLA BLA 
BLA BLA BLA BLA BLA BLA BLA BLA BLA BLA BLA BLA BLA BLA BLA BLA BLA BLA BLA BLA 
BLA BLA BLA BLA BLA BLA BLA BLA BLA BLA BLA BLA BLA BLA BLA BLA BLA BLA BLA BLA 
BLA BLA BLA BLA BLA BLA BLA BLA BLA BLA BLA BLA BLA BLA BLA BLA BLA BLA BLA BLA 
BLA BLA BLA BLA BLA BLA BLA BLA BLA BLA BLA BLA BLA BLA BLA BLA BLA BLA BLA BLA 
BLA BLA BLA BLA BLA BLA BLA BLA BLA BLA BLA BLA BLA BLA BLA BLA BLA BLA BLA BLA 
BLA BLA BLA BLA BLA BLA BLA BLA BLA BLA BLA BLA BLA BLA BLA BLA BLA BLA BLA BLA 
BLA BLA BLA BLA BLA BLA BLA BLA BLA BLA BLA BLA BLA BLA BLA BLA BLA BLA BLA BLA 
BLA BLA BLA BLA BLA BLA BLA BLA BLA BLA BLA BLA BLA BLA BLA BLA BLA BLA BLA BLA 
BLA BLA BLA BLA BLA BLA BLA BLA BLA BLA BLA BLA BLA BLA BLA BLA BLA BLA BLA BLA 
BLA BLA BLA BLA BLA BLA BLA BLA BLA BLA BLA BLA BLA BLA BLA BLA BLA BLA BLA BLA 
BLA BLA BLA BLA BLA BLA BLA BLA BLA BLA BLA BLA BLA BLA BLA BLA BLA BLA BLA BLA 
BLA BLA BLA BLA BLA BLA BLA BLA BLA BLA BLA BLA BLA BLA BLA BLA BLA BLA BLA BLA 
BLA BLA BLA BLA BLA BLA BLA BLA BLA BLA BLA BLA BLA BLA BLA BLA BLA BLA BLA BLA 
BLA BLA BLA BLA BLA BLA BLA BLA BLA BLA BLA BLA BLA BLA BLA BLA BLA BLA BLA BLA 
BLA BLA BLA BLA BLA BLA BLA BLA BLA BLA BLA BLA BLA BLA BLA BLA BLA BLA BLA BLA 
BLA BLA BLA BLA BLA BLA BLA BLA BLA BLA BLA BLA BLA BLA BLA BLA BLA BLA BLA BLA 
BLA BLA BLA BLA BLA BLA BLA BLA BLA BLA BLA BLA BLA BLA BLA BLA BLA BLA BLA BLA 
BLA BLA BLA BLA BLA BLA BLA BLA BLA BLA BLA BLA BLA BLA BLA BLA BLA BLA BLA BLA 
BLA BLA BLA BLA BLA BLA BLA BLA BLA BLA BLA BLA BLA BLA BLA BLA BLA BLA BLA BLA 
BLA BLA BLA BLA BLA BLA BLA BLA BLA BLA BLA BLA BLA BLA BLA BLA BLA BLA BLA BLA 
BLA BLA BLA BLA BLA BLA BLA BLA BLA BLA BLA BLA BLA BLA BLA BLA BLA BLA BLA BLA 
BLA BLA BLA BLA BLA BLA BLA BLA BLA BLA BLA BLA BLA BLA BLA BLA BLA BLA BLA BLA 
BLA BLA BLA BLA BLA BLA BLA BLA BLA BLA BLA BLA BLA BLA BLA BLA BLA BLA BLA BLA 
BLA BLA BLA BLA BLA BLA BLA BLA BLA BLA BLA BLA BLA BLA BLA BLA BLA BLA BLA BLA 
BLA BLA BLA BLA BLA BLA BLA BLA BLA BLA BLA BLA BLA BLA BLA BLA BLA BLA BLA BLA 
BLA BLA BLA BLA BLA BLA BLA BLA BLA BLA BLA BLA BLA BLA BLA BLA BLA BLA BLA BLA 
BLA BLA BLA BLA BLA BLA BLA BLA BLA BLA BLA BLA BLA BLA BLA BLA BLA BLA BLA BLA 
BLA BLA BLA BLA BLA BLA BLA BLA BLA BLA BLA BLA BLA BLA BLA BLA BLA BLA BLA BLA 
BLA BLA BLA BLA BLA BLA BLA BLA BLA BLA BLA BLA BLA BLA BLA BLA BLA BLA BLA BLA 
BLA BLA BLA BLA BLA BLA BLA BLA BLA BLA BLA BLA BLA BLA BLA BLA BLA BLA BLA BLA 
BLA BLA BLA BLA BLA BLA BLA BLA BLA BLA BLA BLA BLA BLA BLA BLA BLA BLA BLA BLA 
BLA BLA BLA BLA BLA BLA BLA BLA BLA BLA BLA BLA BLA BLA BLA BLA BLA BLA BLA BLA 
BLA BLA BLA BLA BLA BLA BLA BLA BLA BLA BLA BLA BLA BLA BLA BLA BLA BLA BLA BLA 
BLA BLA BLA BLA BLA BLA BLA BLA BLA BLA BLA BLA BLA BLA BLA BLA BLA BLA BLA BLA 
BLA BLA BLA BLA BLA BLA BLA BLA BLA BLA BLA BLA BLA BLA BLA BLA BLA BLA BLA BLA 
BLA BLA BLA BLA BLA BLA BLA BLA BLA BLA BLA BLA BLA BLA BLA BLA BLA BLA BLA BLA 
BLA BLA BLA BLA BLA BLA BLA BLA BLA BLA BLA BLA BLA BLA BLA BLA BLA BLA BLA BLA 
BLA BLA BLA BLA BLA BLA BLA BLA BLA BLA BLA BLA BLA BLA BLA BLA BLA BLA BLA BLA 
BLA BLA BLA BLA BLA BLA BLA BLA BLA BLA BLA BLA BLA BLA BLA BLA BLA BLA BLA BLA 
BLA BLA BLA BLA BLA BLA BLA BLA BLA BLA BLA BLA BLA BLA BLA BLA BLA BLA BLA BLA 
BLA BLA BLA BLA BLA BLA BLA BLA BLA BLA BLA BLA BLA BLA BLA BLA BLA BLA BLA BLA 
BLA BLA BLA BLA BLA BLA BLA BLA BLA BLA BLA BLA BLA BLA BLA BLA BLA BLA BLA BLA 
BLA BLA BLA BLA BLA BLA BLA BLA BLA BLA BLA BLA BLA BLA BLA BLA BLA BLA BLA BLA 
BLA BLA BLA BLA BLA BLA BLA BLA BLA BLA BLA BLA BLA BLA BLA BLA BLA BLA BLA BLA 
BLA BLA BLA BLA BLA BLA BLA BLA BLA BLA BLA BLA BLA BLA BLA BLA BLA BLA BLA BLA 
BLA BLA BLA BLA BLA BLA BLA BLA BLA BLA BLA BLA BLA BLA BLA BLA BLA BLA BLA BLA 
BLA BLA BLA BLA BLA BLA BLA BLA BLA BLA BLA BLA BLA BLA BLA BLA BLA BLA BLA BLA 
BLA BLA BLA BLA BLA BLA BLA BLA BLA BLA BLA BLA BLA BLA BLA BLA BLA BLA BLA BLA 
BLA BLA BLA BLA BLA BLA BLA BLA BLA BLA BLA BLA BLA BLA BLA BLA BLA BLA BLA BLA 
BLA BLA BLA BLA BLA BLA BLA BLA BLA BLA BLA BLA BLA BLA BLA BLA BLA BLA BLA BLA 
BLA BLA BLA BLA BLA BLA BLA BLA BLA BLA BLA BLA BLA BLA BLA BLA BLA BLA BLA BLA 
BLA BLA BLA BLA BLA BLA BLA BLA BLA BLA BLA BLA BLA BLA BLA BLA BLA BLA BLA BLA 
BLA BLA BLA BLA BLA BLA BLA BLA BLA BLA BLA BLA BLA BLA BLA BLA BLA BLA BLA BLA 
BLA BLA BLA BLA BLA BLA BLA BLA BLA BLA BLA BLA BLA BLA BLA BLA BLA BLA BLA BLA 
BLA BLA BLA BLA BLA BLA BLA BLA BLA BLA BLA BLA BLA BLA BLA BLA BLA BLA BLA BLA 
BLA BLA BLA BLA BLA BLA BLA BLA BLA BLA BLA BLA BLA BLA BLA BLA BLA BLA BLA BLA 
BLA BLA BLA BLA BLA BLA BLA BLA BLA BLA BLA BLA BLA BLA BLA BLA BLA BLA BLA BLA 
BLA BLA BLA BLA BLA BLA BLA BLA BLA BLA BLA BLA BLA BLA BLA BLA BLA BLA BLA BLA 
BLA BLA BLA BLA BLA BLA BLA BLA BLA BLA BLA BLA BLA BLA BLA BLA BLA BLA BLA BLA 
BLA BLA BLA BLA BLA BLA BLA BLA BLA BLA BLA BLA BLA BLA BLA BLA BLA BLA BLA BLA 
BLA BLA BLA BLA BLA BLA BLA BLA BLA BLA BLA BLA BLA BLA BLA BLA BLA BLA BLA BLA 
BLA BLA BLA BLA BLA BLA BLA BLA BLA BLA BLA BLA BLA BLA BLA BLA BLA BLA BLA BLA 
BLA BLA BLA BLA BLA BLA BLA BLA BLA BLA BLA BLA BLA BLA BLA BLA BLA BLA BLA BLA 
BLA BLA BLA BLA BLA BLA BLA BLA BLA BLA BLA BLA BLA BLA BLA BLA BLA BLA BLA BLA 
BLA BLA BLA BLA BLA BLA BLA BLA BLA BLA BLA BLA BLA BLA BLA BLA BLA BLA BLA BLA 
BLA BLA BLA BLA BLA BLA BLA BLA BLA BLA BLA BLA BLA BLA BLA BLA BLA BLA BLA BLA 
BLA BLA BLA BLA BLA BLA BLA BLA BLA BLA BLA BLA BLA BLA BLA BLA BLA BLA BLA BLA 
BLA BLA BLA BLA BLA BLA BLA BLA BLA BLA BLA BLA BLA BLA BLA BLA BLA BLA BLA BLA 
BLA BLA BLA BLA BLA BLA BLA BLA BLA BLA BLA BLA BLA BLA BLA BLA BLA BLA BLA BLA 
BLA BLA BLA BLA BLA BLA BLA BLA BLA BLA BLA BLA BLA BLA BLA BLA BLA BLA BLA BLA 
BLA BLA BLA BLA BLA BLA BLA BLA BLA BLA BLA BLA BLA BLA BLA BLA BLA BLA BLA BLA 
BLA BLA BLA BLA BLA BLA BLA BLA BLA BLA BLA BLA BLA BLA BLA BLA BLA BLA BLA BLA 
BLA BLA BLA BLA BLA BLA BLA BLA BLA BLA BLA BLA BLA BLA BLA BLA BLA BLA BLA BLA 
BLA BLA BLA BLA BLA BLA BLA BLA BLA BLA BLA BLA BLA BLA BLA BLA BLA BLA BLA BLA 
BLA BLA BLA BLA BLA BLA BLA BLA BLA BLA BLA BLA BLA BLA BLA BLA BLA BLA BLA BLA 
BLA BLA BLA BLA BLA BLA BLA BLA BLA BLA BLA BLA BLA BLA BLA BLA BLA BLA BLA BLA 
BLA BLA BLA BLA BLA BLA BLA BLA BLA BLA BLA BLA BLA BLA BLA BLA BLA BLA BLA BLA 
BLA BLA BLA BLA BLA BLA BLA BLA BLA BLA BLA BLA BLA BLA BLA BLA BLA BLA BLA BLA 
BLA BLA BLA BLA BLA BLA BLA BLA BLA BLA BLA BLA BLA BLA BLA BLA BLA BLA BLA BLA 
BLA BLA BLA BLA BLA BLA BLA BLA BLA BLA BLA BLA BLA BLA BLA BLA BLA BLA BLA BLA 
BLA BLA BLA BLA BLA BLA BLA BLA BLA BLA BLA BLA BLA BLA BLA BLA BLA BLA BLA BLA 
BLA BLA BLA BLA BLA BLA BLA BLA BLA BLA BLA BLA BLA BLA BLA BLA BLA BLA BLA BLA 
BLA BLA BLA BLA BLA BLA BLA BLA BLA BLA BLA BLA BLA BLA BLA BLA BLA BLA BLA BLA 
BLA BLA BLA BLA BLA BLA BLA BLA BLA BLA BLA BLA BLA BLA BLA BLA BLA BLA BLA BLA 
BLA BLA BLA BLA BLA BLA BLA BLA BLA BLA BLA BLA BLA BLA BLA BLA BLA BLA BLA BLA 
BLA BLA BLA BLA BLA BLA BLA BLA BLA BLA BLA BLA BLA BLA BLA BLA BLA BLA BLA BLA 
BLA BLA BLA BLA BLA BLA BLA BLA BLA BLA BLA BLA BLA BLA BLA BLA BLA BLA BLA BLA 
BLA BLA BLA BLA BLA BLA BLA BLA BLA BLA BLA BLA BLA BLA BLA BLA BLA BLA BLA BLA 
BLA BLA BLA BLA BLA BLA BLA BLA BLA BLA BLA BLA BLA BLA BLA BLA BLA BLA BLA BLA 
BLA BLA BLA BLA BLA BLA BLA BLA BLA BLA BLA BLA BLA BLA BLA BLA BLA BLA BLA BLA 
BLA BLA BLA BLA BLA BLA BLA BLA BLA BLA BLA BLA BLA BLA BLA BLA BLA BLA BLA BLA 
BLA BLA BLA BLA BLA BLA BLA BLA BLA BLA BLA BLA BLA BLA BLA BLA BLA BLA BLA BLA 
BLA BLA BLA BLA BLA BLA BLA BLA BLA BLA BLA BLA BLA BLA BLA BLA BLA BLA BLA BLA 
BLA BLA BLA BLA BLA BLA BLA BLA BLA BLA BLA BLA BLA BLA BLA BLA BLA BLA BLA BLA 
BLA BLA BLA BLA BLA BLA BLA BLA BLA BLA BLA BLA BLA BLA BLA BLA BLA BLA BLA BLA 
BLA BLA BLA BLA BLA BLA BLA BLA BLA BLA BLA BLA BLA BLA BLA BLA BLA BLA BLA BLA 
BLA BLA BLA BLA BLA BLA BLA BLA BLA BLA BLA BLA BLA BLA BLA BLA BLA BLA BLA BLA 
BLA BLA BLA BLA BLA BLA BLA BLA BLA BLA BLA BLA BLA BLA BLA BLA BLA BLA BLA BLA 
BLA BLA BLA BLA BLA BLA BLA BLA BLA BLA BLA BLA BLA BLA BLA BLA BLA BLA BLA BLA 
BLA BLA BLA BLA BLA BLA BLA BLA BLA BLA BLA BLA BLA BLA BLA BLA BLA BLA BLA BLA 
BLA BLA BLA BLA BLA BLA BLA BLA BLA BLA BLA BLA BLA BLA BLA BLA BLA BLA BLA BLA 
BLA BLA BLA BLA BLA BLA BLA BLA BLA BLA BLA BLA BLA BLA BLA BLA BLA BLA BLA BLA 
BLA BLA BLA BLA BLA BLA BLA BLA BLA BLA BLA BLA BLA BLA BLA BLA BLA BLA BLA BLA 
BLA BLA BLA BLA BLA BLA BLA BLA BLA BLA BLA BLA BLA BLA BLA BLA BLA BLA BLA BLA 
BLA BLA BLA BLA BLA BLA BLA BLA BLA BLA BLA BLA BLA BLA BLA BLA BLA BLA BLA BLA 
BLA BLA BLA BLA BLA BLA BLA BLA BLA BLA BLA BLA BLA BLA BLA BLA BLA BLA BLA BLA 
BLA BLA BLA BLA BLA BLA BLA BLA BLA BLA BLA BLA BLA BLA BLA BLA BLA BLA BLA BLA 
BLA BLA BLA BLA BLA BLA BLA BLA BLA BLA BLA BLA BLA BLA BLA BLA BLA BLA BLA BLA 
BLA BLA BLA BLA BLA BLA BLA BLA BLA BLA BLA BLA BLA BLA BLA BLA BLA BLA BLA BLA 
BLA BLA BLA BLA BLA BLA BLA BLA BLA BLA BLA BLA BLA BLA BLA BLA BLA BLA BLA BLA 
BLA BLA BLA BLA BLA BLA BLA BLA BLA BLA BLA BLA BLA BLA BLA BLA BLA BLA BLA BLA 
BLA BLA BLA BLA BLA BLA BLA BLA BLA BLA BLA BLA BLA BLA BLA BLA BLA BLA BLA BLA 
BLA BLA BLA BLA BLA BLA BLA BLA BLA BLA BLA BLA BLA BLA BLA BLA BLA BLA BLA BLA 
BLA BLA BLA BLA BLA BLA BLA BLA BLA BLA BLA BLA BLA BLA BLA BLA BLA BLA BLA BLA 
BLA BLA BLA BLA BLA BLA BLA BLA BLA BLA BLA BLA BLA BLA BLA BLA BLA BLA BLA BLA 
BLA BLA BLA BLA BLA BLA BLA BLA BLA BLA BLA BLA BLA BLA BLA BLA BLA BLA BLA BLA 
BLA BLA BLA BLA BLA BLA BLA BLA BLA BLA BLA BLA BLA BLA BLA BLA BLA BLA BLA BLA 
BLA BLA BLA BLA BLA BLA BLA BLA BLA BLA BLA BLA BLA BLA BLA BLA BLA BLA BLA BLA 
BLA BLA BLA BLA BLA BLA BLA BLA BLA BLA BLA BLA BLA BLA BLA BLA BLA BLA BLA BLA 
BLA BLA BLA BLA BLA BLA BLA BLA BLA BLA BLA BLA BLA BLA BLA BLA BLA BLA BLA BLA 
BLA BLA BLA BLA BLA BLA BLA BLA BLA BLA BLA BLA BLA BLA BLA BLA BLA BLA BLA BLA 
BLA BLA BLA BLA BLA BLA BLA BLA BLA BLA BLA BLA BLA BLA BLA BLA BLA BLA BLA BLA 
BLA BLA BLA BLA BLA BLA BLA BLA BLA BLA BLA BLA BLA BLA BLA BLA BLA BLA BLA BLA 
BLA BLA BLA BLA BLA BLA BLA BLA BLA BLA BLA BLA BLA BLA BLA BLA BLA BLA BLA BLA 
BLA BLA BLA BLA BLA BLA BLA BLA BLA BLA BLA BLA BLA BLA BLA BLA BLA BLA BLA BLA 
BLA BLA BLA BLA BLA BLA BLA BLA BLA BLA BLA BLA BLA BLA BLA BLA BLA BLA BLA BLA 
BLA BLA BLA BLA BLA BLA BLA BLA BLA BLA BLA BLA BLA BLA BLA BLA BLA BLA BLA BLA 
BLA BLA BLA BLA BLA BLA BLA BLA BLA BLA BLA BLA BLA BLA BLA BLA BLA BLA BLA BLA 
BLA BLA BLA BLA BLA BLA BLA BLA BLA BLA BLA BLA BLA BLA BLA BLA BLA BLA BLA BLA 
BLA BLA BLA BLA BLA BLA BLA BLA BLA BLA BLA BLA BLA BLA BLA BLA BLA BLA BLA BLA 
BLA BLA BLA BLA BLA BLA BLA BLA BLA BLA BLA BLA BLA BLA BLA BLA BLA BLA BLA BLA 
BLA BLA BLA BLA BLA BLA BLA BLA BLA BLA BLA BLA BLA BLA BLA BLA BLA BLA BLA BLA 
BLA BLA BLA BLA BLA BLA BLA BLA BLA BLA BLA BLA BLA BLA BLA BLA BLA BLA BLA BLA 
BLA BLA BLA BLA BLA BLA BLA BLA BLA BLA BLA BLA BLA BLA BLA BLA BLA BLA BLA BLA 
BLA BLA BLA BLA BLA BLA BLA BLA BLA BLA BLA BLA BLA BLA BLA BLA BLA BLA BLA BLA 
BLA BLA BLA BLA BLA BLA BLA BLA BLA BLA BLA BLA BLA BLA BLA BLA BLA BLA BLA BLA 
BLA BLA BLA BLA BLA BLA BLA BLA BLA BLA BLA BLA BLA BLA BLA BLA BLA BLA BLA BLA 
BLA BLA BLA BLA BLA BLA BLA BLA BLA BLA BLA BLA BLA BLA BLA BLA BLA BLA BLA BLA 
BLA BLA BLA BLA BLA BLA BLA BLA BLA BLA BLA BLA BLA BLA BLA BLA BLA BLA BLA BLA 
BLA BLA BLA BLA BLA BLA BLA BLA BLA BLA BLA BLA BLA BLA BLA BLA BLA BLA BLA BLA 
BLA BLA BLA BLA BLA BLA BLA BLA BLA BLA BLA BLA BLA BLA BLA BLA BLA BLA BLA BLA 
BLA BLA BLA BLA BLA BLA BLA BLA BLA BLA BLA BLA BLA BLA BLA BLA BLA BLA BLA BLA 
BLA BLA BLA BLA BLA BLA BLA BLA BLA BLA BLA BLA BLA BLA BLA BLA BLA BLA BLA BLA 
BLA BLA BLA BLA BLA BLA BLA BLA BLA BLA BLA BLA BLA BLA BLA BLA BLA BLA BLA BLA 
BLA BLA BLA BLA BLA BLA BLA BLA BLA BLA BLA BLA BLA BLA BLA BLA BLA BLA BLA BLA 
BLA BLA BLA BLA BLA BLA BLA BLA BLA BLA BLA BLA BLA BLA BLA BLA BLA BLA BLA BLA 
BLA BLA BLA BLA BLA BLA BLA BLA BLA BLA BLA BLA BLA BLA BLA BLA BLA BLA BLA BLA 
BLA BLA BLA BLA BLA BLA BLA BLA BLA BLA BLA BLA BLA BLA BLA BLA BLA BLA BLA BLA 
BLA BLA BLA BLA BLA BLA BLA BLA BLA BLA BLA BLA BLA BLA BLA BLA BLA BLA BLA BLA 
BLA BLA BLA BLA BLA BLA BLA BLA BLA BLA BLA BLA BLA BLA BLA BLA BLA BLA BLA BLA 
BLA BLA BLA BLA BLA BLA BLA BLA BLA BLA BLA BLA BLA BLA BLA BLA BLA BLA BLA BLA 
BLA BLA BLA BLA BLA BLA BLA BLA BLA BLA BLA BLA BLA BLA BLA BLA BLA BLA BLA BLA 
BLA BLA BLA BLA BLA BLA BLA BLA BLA BLA BLA BLA BLA BLA BLA BLA BLA BLA BLA BLA 
BLA BLA BLA BLA BLA BLA BLA BLA BLA BLA BLA BLA BLA BLA BLA BLA BLA BLA BLA BLA 
BLA BLA BLA BLA BLA BLA BLA BLA BLA BLA BLA BLA BLA BLA BLA BLA BLA BLA BLA BLA 
BLA BLA BLA BLA BLA BLA BLA BLA BLA BLA BLA BLA BLA BLA BLA BLA BLA BLA BLA BLA 
BLA BLA BLA BLA BLA BLA BLA BLA BLA BLA BLA BLA BLA BLA BLA BLA BLA BLA BLA BLA 
BLA BLA BLA BLA BLA BLA BLA BLA BLA BLA BLA BLA BLA BLA BLA BLA BLA BLA BLA BLA 
BLA BLA BLA BLA BLA BLA BLA BLA BLA BLA BLA BLA BLA BLA BLA BLA BLA BLA BLA BLA 
BLA BLA BLA BLA BLA BLA BLA BLA BLA BLA BLA BLA BLA BLA BLA BLA BLA BLA BLA BLA 
BLA BLA BLA BLA BLA BLA BLA BLA BLA BLA BLA BLA BLA BLA BLA BLA BLA BLA BLA BLA 
BLA BLA BLA BLA BLA BLA BLA BLA BLA BLA BLA BLA BLA BLA BLA BLA BLA BLA BLA BLA 
BLA BLA BLA BLA BLA BLA BLA BLA BLA BLA BLA BLA BLA BLA BLA BLA BLA BLA BLA BLA 
BLA BLA BLA BLA BLA BLA BLA BLA BLA BLA BLA BLA BLA BLA BLA BLA BLA BLA BLA BLA 
BLA BLA BLA BLA BLA BLA BLA BLA BLA BLA BLA BLA BLA BLA BLA BLA BLA BLA BLA BLA 
BLA BLA BLA BLA BLA BLA BLA BLA BLA BLA BLA BLA BLA BLA BLA BLA BLA BLA BLA BLA 
BLA BLA BLA BLA BLA BLA BLA BLA BLA BLA BLA BLA BLA BLA BLA BLA BLA BLA BLA BLA 
BLA BLA BLA BLA BLA BLA BLA BLA BLA BLA BLA BLA BLA BLA BLA BLA BLA BLA BLA BLA 
BLA BLA BLA BLA BLA BLA BLA BLA BLA BLA BLA BLA BLA BLA BLA BLA BLA BLA BLA BLA 
BLA BLA BLA BLA BLA BLA BLA BLA BLA BLA BLA BLA BLA BLA BLA BLA BLA BLA BLA BLA 
BLA BLA BLA BLA BLA BLA BLA BLA BLA BLA BLA BLA BLA BLA BLA BLA BLA BLA BLA BLA 
BLA BLA BLA BLA BLA BLA BLA BLA BLA BLA BLA BLA BLA BLA BLA BLA BLA BLA BLA BLA 
BLA BLA BLA BLA BLA BLA BLA BLA BLA BLA BLA BLA BLA BLA BLA BLA BLA BLA BLA BLA 
BLA BLA BLA BLA BLA BLA BLA BLA BLA BLA BLA BLA BLA BLA BLA BLA BLA BLA BLA BLA 
BLA BLA BLA BLA BLA BLA BLA BLA BLA BLA BLA BLA BLA BLA BLA BLA BLA BLA BLA BLA 
BLA BLA BLA BLA BLA BLA BLA BLA BLA BLA BLA BLA BLA BLA BLA BLA BLA BLA BLA BLA 
BLA BLA BLA BLA BLA BLA BLA BLA BLA BLA BLA BLA BLA BLA BLA BLA BLA BLA BLA BLA 
BLA BLA BLA BLA BLA BLA BLA BLA BLA BLA BLA BLA BLA BLA BLA BLA BLA BLA BLA BLA 
BLA BLA BLA BLA BLA BLA BLA BLA BLA BLA BLA BLA BLA BLA BLA BLA BLA BLA BLA BLA 
BLA BLA BLA BLA BLA BLA BLA BLA BLA BLA BLA BLA BLA BLA BLA BLA BLA BLA BLA BLA 
BLA BLA BLA BLA BLA BLA BLA BLA BLA BLA BLA BLA BLA BLA BLA BLA BLA BLA BLA BLA 
BLA BLA BLA BLA BLA BLA BLA BLA BLA BLA BLA BLA BLA BLA BLA BLA BLA BLA BLA BLA 
BLA BLA BLA BLA BLA BLA BLA BLA BLA BLA BLA BLA BLA BLA BLA BLA BLA BLA BLA BLA 
BLA BLA BLA BLA BLA BLA BLA BLA BLA BLA BLA BLA BLA BLA BLA BLA BLA BLA BLA BLA 
BLA BLA BLA BLA BLA BLA BLA BLA BLA BLA BLA BLA BLA BLA BLA BLA BLA BLA BLA BLA 
BLA BLA BLA BLA BLA BLA BLA BLA BLA BLA BLA BLA BLA BLA BLA BLA BLA BLA BLA BLA 
BLA BLA BLA BLA BLA BLA BLA BLA BLA BLA BLA BLA BLA BLA BLA BLA BLA BLA BLA BLA 
BLA BLA BLA BLA BLA BLA BLA BLA BLA BLA BLA BLA BLA BLA BLA BLA BLA BLA BLA BLA 
BLA BLA BLA BLA BLA BLA BLA BLA BLA BLA BLA BLA BLA BLA BLA BLA BLA BLA BLA BLA 
BLA BLA BLA BLA BLA BLA BLA BLA BLA BLA BLA BLA BLA BLA BLA BLA BLA BLA BLA BLA 
BLA BLA BLA BLA BLA BLA BLA BLA BLA BLA BLA BLA BLA BLA BLA BLA BLA BLA BLA BLA 
BLA BLA BLA BLA BLA BLA BLA BLA BLA BLA BLA BLA BLA BLA BLA BLA BLA BLA BLA BLA 
BLA BLA BLA BLA BLA BLA BLA BLA BLA BLA BLA BLA BLA BLA BLA BLA BLA BLA BLA BLA 
BLA BLA BLA BLA BLA BLA BLA BLA BLA BLA BLA BLA BLA BLA BLA BLA BLA BLA BLA BLA 
BLA BLA BLA BLA BLA BLA BLA BLA BLA BLA BLA BLA BLA BLA BLA BLA BLA BLA BLA BLA 
BLA BLA BLA BLA BLA BLA BLA BLA BLA BLA BLA BLA BLA BLA BLA BLA BLA BLA BLA BLA 
BLA BLA BLA BLA BLA BLA BLA BLA BLA BLA BLA BLA BLA BLA BLA BLA BLA BLA BLA BLA 
BLA BLA BLA BLA BLA BLA BLA BLA BLA BLA BLA BLA BLA BLA BLA BLA BLA BLA BLA BLA 
BLA BLA BLA BLA BLA BLA BLA BLA BLA BLA BLA BLA BLA BLA BLA BLA BLA BLA BLA BLA 
BLA BLA BLA BLA BLA BLA BLA BLA BLA BLA BLA BLA BLA BLA BLA BLA BLA BLA BLA BLA 
BLA BLA BLA BLA BLA BLA BLA BLA BLA BLA BLA BLA BLA BLA BLA BLA BLA BLA BLA BLA 
BLA BLA BLA BLA BLA BLA BLA BLA BLA BLA BLA BLA BLA BLA BLA BLA BLA BLA BLA BLA 
BLA BLA BLA BLA BLA BLA BLA BLA BLA BLA BLA BLA BLA BLA BLA BLA BLA BLA BLA BLA 
BLA BLA BLA BLA BLA BLA BLA BLA BLA BLA BLA BLA BLA BLA BLA BLA BLA BLA BLA BLA 
BLA BLA BLA BLA BLA BLA BLA BLA BLA BLA BLA BLA BLA BLA BLA BLA BLA BLA BLA BLA 
BLA BLA BLA BLA BLA BLA BLA BLA BLA BLA BLA BLA BLA BLA BLA BLA BLA BLA BLA BLA 
BLA BLA BLA BLA BLA BLA BLA BLA BLA BLA BLA BLA BLA BLA BLA BLA BLA BLA BLA BLA 
BLA BLA BLA BLA BLA BLA BLA BLA BLA BLA BLA BLA BLA BLA BLA BLA BLA BLA BLA BLA 
BLA BLA BLA BLA BLA BLA BLA BLA BLA BLA BLA BLA BLA BLA BLA BLA BLA BLA BLA BLA 
BLA BLA BLA BLA BLA BLA BLA BLA BLA BLA BLA BLA BLA BLA BLA BLA BLA BLA BLA BLA 
BLA BLA BLA BLA BLA BLA BLA BLA BLA BLA BLA BLA BLA BLA BLA BLA BLA BLA BLA BLA 
BLA BLA BLA BLA BLA BLA BLA BLA BLA BLA BLA BLA BLA BLA BLA BLA BLA BLA BLA BLA 
BLA BLA BLA BLA BLA BLA BLA BLA BLA BLA BLA BLA BLA BLA BLA BLA BLA BLA BLA BLA 
BLA BLA BLA BLA BLA BLA BLA BLA BLA BLA BLA BLA BLA BLA BLA BLA BLA BLA BLA BLA 
BLA BLA BLA BLA BLA BLA BLA BLA BLA BLA BLA BLA BLA BLA BLA BLA BLA BLA BLA BLA 
BLA BLA BLA BLA BLA BLA BLA BLA BLA BLA BLA BLA BLA BLA BLA BLA BLA BLA BLA BLA 
BLA BLA BLA BLA BLA BLA BLA BLA BLA BLA BLA BLA BLA BLA BLA BLA BLA BLA BLA BLA 
BLA BLA BLA BLA BLA BLA BLA BLA BLA BLA BLA BLA BLA BLA BLA BLA BLA BLA BLA BLA 
BLA BLA BLA BLA BLA BLA BLA BLA BLA BLA BLA BLA BLA BLA BLA BLA BLA BLA BLA BLA 
BLA BLA BLA BLA BLA BLA BLA BLA BLA BLA BLA BLA BLA BLA BLA BLA BLA BLA BLA BLA 
BLA BLA BLA BLA BLA BLA BLA BLA BLA BLA BLA BLA BLA BLA BLA BLA BLA BLA BLA BLA 
BLA BLA BLA BLA BLA BLA BLA BLA BLA BLA BLA BLA BLA BLA BLA BLA BLA BLA BLA BLA 
BLA BLA BLA BLA BLA BLA BLA BLA BLA BLA BLA BLA BLA BLA BLA BLA BLA BLA BLA BLA 
BLA BLA BLA BLA BLA BLA BLA BLA BLA BLA BLA BLA BLA BLA BLA BLA BLA BLA BLA BLA 
BLA BLA BLA BLA BLA BLA BLA BLA BLA BLA BLA BLA BLA BLA BLA BLA BLA BLA BLA BLA 
BLA BLA BLA BLA BLA BLA BLA BLA BLA BLA BLA BLA BLA BLA BLA BLA BLA BLA BLA BLA 
BLA BLA BLA BLA BLA BLA BLA BLA BLA BLA BLA BLA BLA BLA BLA BLA BLA BLA BLA BLA 
BLA BLA BLA BLA BLA BLA BLA BLA BLA BLA BLA BLA BLA BLA BLA BLA BLA BLA BLA BLA 
BLA BLA BLA BLA BLA BLA BLA BLA BLA BLA BLA BLA BLA BLA BLA BLA BLA BLA BLA BLA 
BLA BLA BLA BLA BLA BLA BLA BLA BLA BLA BLA BLA BLA BLA BLA BLA BLA BLA BLA BLA 
BLA BLA BLA BLA BLA BLA BLA BLA BLA BLA BLA BLA BLA BLA BLA BLA BLA BLA BLA BLA 
BLA BLA BLA BLA BLA BLA BLA BLA BLA BLA BLA BLA BLA BLA BLA BLA BLA BLA BLA BLA 
BLA BLA BLA BLA BLA BLA BLA BLA BLA BLA BLA BLA BLA BLA BLA BLA BLA BLA BLA BLA 
BLA BLA BLA BLA BLA BLA BLA BLA BLA BLA BLA BLA BLA BLA BLA BLA BLA BLA BLA BLA 
BLA BLA BLA BLA BLA BLA BLA BLA BLA BLA BLA BLA BLA BLA BLA BLA BLA BLA BLA BLA 
BLA BLA BLA BLA BLA BLA BLA BLA BLA BLA BLA BLA BLA BLA BLA BLA BLA BLA BLA BLA 
BLA BLA BLA BLA BLA BLA BLA BLA BLA BLA BLA BLA BLA BLA BLA BLA BLA BLA BLA BLA 
BLA BLA BLA BLA BLA BLA BLA BLA BLA BLA BLA BLA BLA BLA BLA BLA BLA BLA BLA BLA 
BLA BLA BLA BLA BLA BLA BLA BLA BLA BLA BLA BLA BLA BLA BLA BLA BLA BLA BLA BLA 
BLA BLA BLA BLA BLA BLA BLA BLA BLA BLA BLA BLA BLA BLA BLA BLA BLA BLA BLA BLA 
BLA BLA BLA BLA BLA BLA BLA BLA BLA BLA BLA BLA BLA BLA BLA BLA BLA BLA BLA BLA 
BLA BLA BLA BLA BLA BLA BLA BLA BLA BLA BLA BLA BLA BLA BLA BLA BLA BLA BLA BLA 
BLA BLA BLA BLA BLA BLA BLA BLA BLA BLA BLA BLA BLA BLA BLA BLA BLA BLA BLA BLA 
BLA BLA BLA BLA BLA BLA BLA BLA BLA BLA BLA BLA BLA BLA BLA BLA BLA BLA BLA BLA 
BLA BLA BLA BLA BLA BLA BLA BLA BLA BLA BLA BLA BLA BLA BLA BLA BLA BLA BLA BLA 
BLA BLA BLA BLA BLA BLA BLA BLA BLA BLA BLA BLA BLA BLA BLA BLA BLA BLA BLA BLA 
BLA BLA BLA BLA BLA BLA BLA BLA BLA BLA BLA BLA BLA BLA BLA BLA BLA BLA BLA BLA 
BLA BLA BLA BLA BLA BLA BLA BLA BLA BLA BLA BLA BLA BLA BLA BLA BLA BLA BLA BLA 
BLA BLA BLA BLA BLA BLA BLA BLA BLA BLA BLA BLA BLA BLA BLA BLA BLA BLA BLA BLA 
BLA BLA BLA BLA BLA BLA BLA BLA BLA BLA BLA BLA BLA BLA BLA BLA BLA BLA BLA BLA 
BLA BLA BLA BLA BLA BLA BLA BLA BLA BLA BLA BLA BLA BLA BLA BLA BLA BLA BLA BLA 
BLA BLA BLA BLA BLA BLA BLA BLA BLA BLA BLA BLA BLA BLA BLA BLA BLA BLA BLA BLA 
BLA BLA BLA BLA BLA BLA BLA BLA BLA BLA BLA BLA BLA BLA BLA BLA BLA BLA BLA BLA 
BLA BLA BLA BLA BLA BLA BLA BLA BLA BLA BLA BLA BLA BLA BLA BLA BLA BLA BLA BLA 
BLA BLA BLA BLA BLA BLA BLA BLA BLA BLA BLA BLA BLA BLA BLA BLA BLA BLA BLA BLA 
BLA BLA BLA BLA BLA BLA BLA BLA BLA BLA BLA BLA BLA BLA BLA BLA BLA BLA BLA BLA 
BLA BLA BLA BLA BLA BLA BLA BLA BLA BLA BLA BLA BLA BLA BLA BLA BLA BLA BLA BLA 
BLA BLA BLA BLA BLA BLA BLA BLA BLA BLA BLA BLA BLA BLA BLA BLA BLA BLA BLA BLA 
BLA BLA BLA BLA BLA BLA BLA BLA BLA BLA BLA BLA BLA BLA BLA BLA BLA BLA BLA BLA 
BLA BLA BLA BLA BLA BLA BLA BLA BLA BLA BLA BLA BLA BLA BLA BLA BLA BLA BLA BLA 
BLA BLA BLA BLA BLA BLA BLA BLA BLA BLA BLA BLA BLA BLA BLA BLA BLA BLA BLA BLA 
BLA BLA BLA BLA BLA BLA BLA BLA BLA BLA BLA BLA BLA BLA BLA BLA BLA BLA BLA BLA 
BLA BLA BLA BLA BLA BLA BLA BLA BLA BLA BLA BLA BLA BLA BLA BLA BLA BLA BLA BLA 
BLA BLA BLA BLA BLA BLA BLA BLA BLA BLA BLA BLA BLA BLA BLA BLA BLA BLA BLA BLA 
BLA BLA BLA BLA BLA BLA BLA BLA BLA BLA BLA BLA BLA BLA BLA BLA BLA BLA BLA BLA 
BLA BLA BLA BLA BLA BLA BLA BLA BLA BLA BLA BLA BLA BLA BLA BLA BLA BLA BLA BLA 
BLA BLA BLA BLA BLA BLA BLA BLA BLA BLA BLA BLA BLA BLA BLA BLA BLA BLA BLA BLA 
BLA BLA BLA BLA BLA BLA BLA BLA BLA BLA BLA BLA BLA BLA BLA BLA BLA BLA BLA BLA 
BLA BLA BLA BLA BLA BLA BLA BLA BLA BLA BLA BLA BLA BLA BLA BLA BLA BLA BLA BLA 
BLA BLA BLA BLA BLA BLA BLA BLA BLA BLA BLA BLA BLA BLA BLA BLA BLA BLA BLA BLA 
BLA BLA BLA BLA BLA BLA BLA BLA BLA BLA BLA BLA BLA BLA BLA BLA BLA BLA BLA BLA 
BLA BLA BLA BLA BLA BLA BLA BLA BLA BLA BLA BLA BLA BLA BLA BLA BLA BLA BLA BLA 
BLA BLA BLA BLA BLA BLA BLA BLA BLA BLA BLA BLA BLA BLA BLA BLA BLA BLA BLA BLA 
BLA BLA BLA BLA BLA BLA BLA BLA BLA BLA BLA BLA BLA BLA BLA BLA BLA BLA BLA BLA 
BLA BLA BLA BLA BLA BLA BLA BLA BLA BLA BLA BLA BLA BLA BLA BLA BLA BLA BLA BLA 
BLA BLA BLA BLA BLA BLA BLA BLA BLA BLA BLA BLA BLA BLA BLA BLA BLA BLA BLA BLA 
BLA BLA BLA BLA BLA BLA BLA BLA BLA BLA BLA BLA BLA BLA BLA BLA BLA BLA BLA BLA 
BLA BLA BLA BLA BLA BLA BLA BLA BLA BLA BLA BLA BLA BLA BLA BLA BLA BLA BLA BLA 
BLA BLA BLA BLA BLA BLA BLA BLA BLA BLA BLA BLA BLA BLA BLA BLA BLA BLA BLA BLA 
BLA BLA BLA BLA BLA BLA BLA BLA BLA BLA BLA BLA BLA BLA BLA BLA BLA BLA BLA BLA 
BLA BLA BLA BLA BLA BLA BLA BLA BLA BLA BLA BLA BLA BLA BLA BLA BLA BLA BLA BLA 
BLA BLA BLA BLA BLA BLA BLA BLA BLA BLA BLA BLA BLA BLA BLA BLA BLA BLA BLA BLA 
BLA BLA BLA BLA BLA BLA BLA BLA BLA BLA BLA BLA BLA BLA BLA BLA BLA BLA BLA BLA 
BLA BLA BLA BLA BLA BLA BLA BLA BLA BLA BLA BLA BLA BLA BLA BLA BLA BLA BLA BLA 
BLA BLA BLA BLA BLA BLA BLA BLA BLA BLA BLA BLA BLA BLA BLA BLA BLA BLA BLA BLA 
BLA BLA BLA BLA BLA BLA BLA BLA BLA BLA BLA BLA BLA BLA BLA BLA BLA BLA BLA BLA 
BLA BLA BLA BLA BLA BLA BLA BLA BLA BLA BLA BLA BLA BLA BLA BLA BLA BLA BLA BLA 
BLA BLA BLA BLA BLA BLA BLA BLA BLA BLA BLA BLA BLA BLA BLA BLA BLA BLA BLA BLA 
BLA BLA BLA BLA BLA BLA BLA BLA BLA BLA BLA BLA BLA BLA BLA BLA BLA BLA BLA BLA 
BLA BLA BLA BLA BLA BLA BLA BLA BLA BLA BLA BLA BLA BLA BLA BLA BLA BLA BLA BLA 
BLA BLA BLA BLA BLA BLA BLA BLA BLA BLA BLA BLA BLA BLA BLA BLA BLA BLA BLA BLA 
BLA BLA BLA BLA BLA BLA BLA BLA BLA BLA BLA BLA BLA BLA BLA BLA BLA BLA BLA BLA 
BLA BLA BLA BLA BLA BLA BLA BLA BLA BLA BLA BLA BLA BLA BLA BLA BLA BLA BLA BLA 
BLA BLA BLA BLA BLA BLA BLA BLA BLA BLA BLA BLA BLA BLA BLA BLA BLA BLA BLA BLA 
BLA BLA BLA BLA BLA BLA BLA BLA BLA BLA BLA BLA BLA BLA BLA BLA BLA BLA BLA BLA 
BLA BLA BLA BLA BLA BLA BLA BLA BLA BLA BLA BLA BLA BLA BLA BLA BLA BLA BLA BLA 
BLA BLA BLA BLA BLA BLA BLA BLA BLA BLA BLA BLA BLA BLA BLA BLA BLA BLA BLA BLA 
BLA BLA BLA BLA BLA BLA BLA BLA BLA BLA BLA BLA BLA BLA BLA BLA BLA BLA BLA BLA 
BLA BLA BLA BLA BLA BLA BLA BLA BLA BLA BLA BLA BLA BLA BLA BLA BLA BLA BLA BLA 
BLA BLA BLA BLA BLA BLA BLA BLA BLA BLA BLA BLA BLA BLA BLA BLA BLA BLA BLA BLA 
BLA BLA BLA BLA BLA BLA BLA BLA BLA BLA BLA BLA BLA BLA BLA BLA BLA BLA BLA BLA 
BLA BLA BLA BLA BLA BLA BLA BLA BLA BLA BLA BLA BLA BLA BLA BLA BLA BLA BLA BLA 
BLA BLA BLA BLA BLA BLA BLA BLA BLA BLA BLA BLA BLA BLA BLA BLA BLA BLA BLA BLA 
BLA BLA BLA BLA BLA BLA BLA BLA BLA BLA BLA BLA BLA BLA BLA BLA BLA BLA BLA BLA 
BLA BLA BLA BLA BLA BLA BLA BLA BLA BLA BLA BLA BLA BLA BLA BLA BLA BLA BLA BLA 
BLA BLA BLA BLA BLA BLA BLA BLA BLA BLA BLA BLA BLA BLA BLA BLA BLA BLA BLA BLA 
BLA BLA BLA BLA BLA BLA BLA BLA BLA BLA BLA BLA BLA BLA BLA BLA BLA BLA BLA BLA 
BLA BLA BLA BLA BLA BLA BLA BLA BLA BLA BLA BLA BLA BLA BLA BLA BLA BLA BLA BLA 
BLA BLA BLA BLA BLA BLA BLA BLA BLA BLA BLA BLA BLA BLA BLA BLA BLA BLA BLA BLA 
BLA BLA BLA BLA BLA BLA BLA BLA BLA BLA BLA BLA BLA BLA BLA BLA BLA BLA BLA BLA 
BLA BLA BLA BLA BLA BLA BLA BLA BLA BLA BLA BLA BLA BLA BLA BLA BLA BLA BLA BLA 
BLA BLA BLA BLA BLA BLA BLA BLA BLA BLA BLA BLA BLA BLA BLA BLA BLA BLA BLA BLA 
BLA BLA BLA BLA BLA BLA BLA BLA BLA BLA BLA BLA BLA BLA BLA BLA BLA BLA BLA BLA 
BLA BLA BLA BLA BLA BLA BLA BLA BLA BLA BLA BLA BLA BLA BLA BLA BLA BLA BLA BLA 
BLA BLA BLA BLA BLA BLA BLA BLA BLA BLA BLA BLA BLA BLA BLA BLA BLA BLA BLA BLA 
BLA BLA BLA BLA BLA BLA BLA BLA BLA BLA BLA BLA BLA BLA BLA BLA BLA BLA BLA BLA 
BLA BLA BLA BLA BLA BLA BLA BLA BLA BLA BLA BLA BLA BLA BLA BLA BLA BLA BLA BLA 
BLA BLA BLA BLA BLA BLA BLA BLA BLA BLA BLA BLA BLA BLA BLA BLA BLA BLA BLA BLA 
BLA BLA BLA BLA BLA BLA BLA BLA BLA BLA BLA BLA BLA BLA BLA BLA BLA BLA BLA BLA 
BLA BLA BLA BLA BLA BLA BLA BLA BLA BLA BLA BLA BLA BLA BLA BLA BLA BLA BLA BLA 
BLA BLA BLA BLA BLA BLA BLA BLA BLA BLA BLA BLA BLA BLA BLA BLA BLA BLA BLA BLA 
BLA BLA BLA BLA BLA BLA BLA BLA BLA BLA BLA BLA BLA BLA BLA BLA BLA BLA BLA BLA 
BLA BLA BLA BLA BLA BLA BLA BLA BLA BLA BLA BLA BLA BLA BLA BLA BLA BLA BLA BLA 
BLA BLA BLA BLA BLA BLA BLA BLA BLA BLA BLA BLA BLA BLA BLA BLA BLA BLA BLA BLA 
BLA BLA BLA BLA BLA BLA BLA BLA BLA BLA BLA BLA BLA BLA BLA BLA BLA BLA BLA BLA 
BLA BLA BLA BLA BLA BLA BLA BLA BLA BLA BLA BLA BLA BLA BLA BLA BLA BLA BLA BLA 
BLA BLA BLA BLA BLA BLA BLA BLA BLA BLA BLA BLA BLA BLA BLA BLA BLA BLA BLA BLA 
BLA BLA BLA BLA BLA BLA BLA BLA BLA BLA BLA BLA BLA BLA BLA BLA BLA BLA BLA BLA 
BLA BLA BLA BLA BLA BLA BLA BLA BLA BLA BLA BLA BLA BLA BLA BLA BLA BLA BLA BLA 
BLA BLA BLA BLA BLA BLA BLA BLA BLA BLA BLA BLA BLA BLA BLA BLA BLA BLA BLA BLA 
BLA BLA BLA BLA BLA BLA BLA BLA BLA BLA BLA BLA BLA BLA BLA BLA BLA BLA BLA BLA 
BLA BLA BLA BLA BLA BLA BLA BLA BLA BLA BLA BLA BLA BLA BLA BLA BLA BLA BLA BLA 
BLA BLA BLA BLA BLA BLA BLA BLA BLA BLA BLA BLA BLA BLA BLA BLA BLA BLA BLA BLA 
BLA BLA BLA BLA BLA BLA BLA BLA BLA BLA BLA BLA BLA BLA BLA BLA BLA BLA BLA BLA 
BLA BLA BLA BLA BLA BLA BLA BLA BLA BLA BLA BLA BLA BLA BLA BLA BLA BLA BLA BLA 
BLA BLA BLA BLA BLA BLA BLA BLA BLA BLA BLA BLA BLA BLA BLA BLA BLA BLA BLA BLA 
BLA BLA BLA BLA BLA BLA BLA BLA BLA BLA BLA BLA BLA BLA BLA BLA BLA BLA BLA BLA 
BLA BLA BLA BLA BLA BLA BLA BLA BLA BLA BLA BLA BLA BLA BLA BLA BLA BLA BLA BLA 
BLA BLA BLA BLA BLA BLA BLA BLA BLA BLA BLA BLA BLA BLA BLA BLA BLA BLA BLA BLA 
BLA BLA BLA BLA BLA BLA BLA BLA BLA BLA BLA BLA BLA BLA BLA BLA BLA BLA BLA BLA 
BLA BLA BLA BLA BLA BLA BLA BLA BLA BLA BLA BLA BLA BLA BLA BLA BLA BLA BLA BLA 
BLA BLA BLA BLA BLA BLA BLA BLA BLA BLA BLA BLA BLA BLA BLA BLA BLA BLA BLA BLA 
BLA BLA BLA BLA BLA BLA BLA BLA BLA BLA BLA BLA BLA BLA BLA BLA BLA BLA BLA BLA 
BLA BLA BLA BLA BLA BLA BLA BLA BLA BLA BLA BLA BLA BLA BLA BLA BLA BLA BLA BLA 
BLA BLA BLA BLA BLA BLA BLA BLA BLA BLA BLA BLA BLA BLA BLA BLA BLA BLA BLA BLA 
BLA BLA BLA BLA BLA BLA BLA BLA BLA BLA BLA BLA BLA BLA BLA BLA BLA BLA BLA BLA 
BLA BLA BLA BLA BLA BLA BLA BLA BLA BLA BLA BLA BLA BLA BLA BLA BLA BLA BLA BLA 
BLA BLA BLA BLA BLA BLA BLA BLA BLA BLA BLA BLA BLA BLA BLA BLA BLA BLA BLA BLA 
BLA BLA BLA BLA BLA BLA BLA BLA BLA BLA BLA BLA BLA BLA BLA BLA BLA BLA BLA BLA 
BLA BLA BLA BLA BLA BLA BLA BLA BLA BLA BLA BLA BLA BLA BLA BLA BLA BLA BLA BLA 
BLA BLA BLA BLA BLA BLA BLA BLA BLA BLA BLA BLA BLA BLA BLA BLA BLA BLA BLA BLA 
BLA BLA BLA BLA BLA BLA BLA BLA BLA BLA BLA BLA BLA BLA BLA BLA BLA BLA BLA BLA 
BLA BLA BLA BLA BLA BLA BLA BLA BLA BLA BLA BLA BLA BLA BLA BLA BLA BLA BLA BLA 
BLA BLA BLA BLA BLA BLA BLA BLA BLA BLA BLA BLA BLA BLA BLA BLA BLA BLA BLA BLA 
BLA BLA BLA BLA BLA BLA BLA BLA BLA BLA BLA BLA BLA BLA BLA BLA BLA BLA BLA BLA 
BLA BLA BLA BLA BLA BLA BLA BLA BLA BLA BLA BLA BLA BLA BLA BLA BLA BLA BLA BLA 
BLA BLA BLA BLA BLA BLA BLA BLA BLA BLA BLA BLA BLA BLA BLA BLA BLA BLA BLA BLA 
BLA BLA BLA BLA BLA BLA BLA BLA BLA BLA BLA BLA BLA BLA BLA BLA BLA BLA BLA BLA 
BLA BLA BLA BLA BLA BLA BLA BLA BLA BLA BLA BLA BLA BLA BLA BLA BLA BLA BLA BLA 
BLA BLA BLA BLA BLA BLA BLA BLA BLA BLA BLA BLA BLA BLA BLA BLA BLA BLA BLA BLA 
BLA BLA BLA BLA BLA BLA BLA BLA BLA BLA BLA BLA BLA BLA BLA BLA BLA BLA BLA BLA 
BLA BLA BLA BLA BLA BLA BLA BLA BLA BLA BLA BLA BLA BLA BLA BLA BLA BLA BLA BLA 
BLA BLA BLA BLA BLA BLA BLA BLA BLA BLA BLA BLA BLA BLA BLA BLA BLA BLA BLA BLA 
BLA BLA BLA BLA BLA BLA BLA BLA BLA BLA BLA BLA BLA BLA BLA BLA BLA BLA BLA BLA 
BLA BLA BLA BLA BLA BLA BLA BLA BLA BLA BLA BLA BLA BLA BLA BLA BLA BLA BLA BLA 
BLA BLA BLA BLA BLA BLA BLA BLA BLA BLA BLA BLA BLA BLA BLA BLA BLA BLA BLA BLA 
BLA BLA BLA BLA BLA BLA BLA BLA BLA BLA BLA BLA BLA BLA BLA BLA BLA BLA BLA BLA 
BLA BLA BLA BLA BLA BLA BLA BLA BLA BLA BLA BLA BLA BLA BLA BLA BLA BLA BLA BLA 
BLA BLA BLA BLA BLA BLA BLA BLA BLA BLA BLA BLA BLA BLA BLA BLA BLA BLA BLA BLA 
BLA BLA BLA BLA BLA BLA BLA BLA BLA BLA BLA BLA BLA BLA BLA BLA BLA BLA BLA BLA 
BLA BLA BLA BLA BLA BLA BLA BLA BLA BLA BLA BLA BLA BLA BLA BLA BLA BLA BLA BLA 
BLA BLA BLA BLA BLA BLA BLA BLA BLA BLA BLA BLA BLA BLA BLA BLA BLA BLA BLA BLA 
BLA BLA BLA BLA BLA BLA BLA BLA BLA BLA BLA BLA BLA BLA BLA BLA BLA BLA BLA BLA 
BLA BLA BLA BLA BLA BLA BLA BLA BLA BLA BLA BLA BLA BLA BLA BLA BLA BLA BLA BLA 
BLA BLA BLA BLA BLA BLA BLA BLA BLA BLA BLA BLA BLA BLA BLA BLA BLA BLA BLA BLA 
BLA BLA BLA BLA BLA BLA BLA BLA BLA BLA BLA BLA BLA BLA BLA BLA BLA BLA BLA BLA 
BLA BLA BLA BLA BLA BLA BLA BLA BLA BLA BLA BLA BLA BLA BLA BLA BLA BLA BLA BLA 
BLA BLA BLA BLA BLA BLA BLA BLA BLA BLA BLA BLA BLA BLA BLA BLA BLA BLA BLA BLA 
BLA BLA BLA BLA BLA BLA BLA BLA BLA BLA BLA BLA BLA BLA BLA BLA BLA BLA BLA BLA 
BLA BLA BLA BLA BLA BLA BLA BLA BLA BLA BLA BLA BLA BLA BLA BLA BLA BLA BLA BLA 
BLA BLA BLA BLA BLA BLA BLA BLA BLA BLA BLA BLA BLA BLA BLA BLA BLA BLA BLA BLA 
BLA BLA BLA BLA BLA BLA BLA BLA BLA BLA BLA BLA BLA BLA BLA BLA BLA BLA BLA BLA 
BLA BLA BLA BLA BLA BLA BLA BLA BLA BLA BLA BLA BLA BLA BLA BLA BLA BLA BLA BLA 
BLA BLA BLA BLA BLA BLA BLA BLA BLA BLA BLA BLA BLA BLA BLA BLA BLA BLA BLA BLA 
BLA BLA BLA BLA BLA BLA BLA BLA BLA BLA BLA BLA BLA BLA BLA BLA BLA BLA BLA BLA 
BLA BLA BLA BLA BLA BLA BLA BLA BLA BLA BLA BLA BLA BLA BLA BLA BLA BLA BLA BLA 
BLA BLA BLA BLA BLA BLA BLA BLA BLA BLA BLA BLA BLA BLA BLA BLA BLA BLA BLA BLA 
BLA BLA BLA BLA BLA BLA BLA BLA BLA BLA BLA BLA BLA BLA BLA BLA BLA BLA BLA BLA 
BLA BLA BLA BLA BLA BLA BLA BLA BLA BLA BLA BLA BLA BLA BLA BLA BLA BLA BLA BLA 
BLA BLA BLA BLA BLA BLA BLA BLA BLA BLA BLA BLA BLA BLA BLA BLA BLA BLA BLA BLA 
BLA BLA BLA BLA BLA BLA BLA BLA BLA BLA BLA BLA BLA BLA BLA BLA BLA BLA BLA BLA 
BLA BLA BLA BLA BLA BLA BLA BLA BLA BLA BLA BLA BLA BLA BLA BLA BLA BLA BLA BLA 
BLA BLA BLA BLA BLA BLA BLA BLA BLA BLA BLA BLA BLA BLA BLA BLA BLA BLA BLA BLA 
BLA BLA BLA BLA BLA BLA BLA BLA BLA BLA BLA BLA BLA BLA BLA BLA BLA BLA BLA BLA 
BLA BLA BLA BLA BLA BLA BLA BLA BLA BLA BLA BLA BLA BLA BLA BLA BLA BLA BLA BLA 
BLA BLA BLA BLA BLA BLA BLA BLA BLA BLA BLA BLA BLA BLA BLA BLA BLA BLA BLA BLA 
BLA BLA BLA BLA BLA BLA BLA BLA BLA BLA BLA BLA BLA BLA BLA BLA BLA BLA BLA BLA 
BLA BLA BLA BLA BLA BLA BLA BLA BLA BLA BLA BLA BLA BLA BLA BLA BLA BLA BLA BLA 
BLA BLA BLA BLA BLA BLA BLA BLA BLA BLA BLA BLA BLA BLA BLA BLA BLA BLA BLA BLA 
BLA BLA BLA BLA BLA BLA BLA BLA BLA BLA BLA BLA BLA BLA BLA BLA BLA BLA BLA BLA 
BLA BLA BLA BLA BLA BLA BLA BLA BLA BLA BLA BLA BLA BLA BLA BLA BLA BLA BLA BLA 
BLA BLA BLA BLA BLA BLA BLA BLA BLA BLA BLA BLA BLA BLA BLA BLA BLA BLA BLA BLA 
BLA BLA BLA BLA BLA BLA BLA BLA BLA BLA BLA BLA BLA BLA BLA BLA BLA BLA BLA BLA 
BLA BLA BLA BLA BLA BLA BLA BLA BLA BLA BLA BLA BLA BLA BLA BLA BLA BLA BLA BLA 
BLA BLA BLA BLA BLA BLA BLA BLA BLA BLA BLA BLA BLA BLA BLA BLA BLA BLA BLA BLA 
BLA BLA BLA BLA BLA BLA BLA BLA BLA BLA BLA BLA BLA BLA BLA BLA BLA BLA BLA BLA 
BLA BLA BLA BLA BLA BLA BLA BLA BLA BLA BLA BLA BLA BLA BLA BLA BLA BLA BLA BLA 
BLA BLA BLA BLA BLA BLA BLA BLA BLA BLA BLA BLA BLA BLA BLA BLA BLA BLA BLA BLA 
BLA BLA BLA BLA BLA BLA BLA BLA BLA BLA BLA BLA BLA BLA BLA BLA BLA BLA BLA BLA 
BLA BLA BLA BLA BLA BLA BLA BLA BLA BLA BLA BLA BLA BLA BLA BLA BLA BLA BLA BLA 
BLA BLA BLA BLA BLA BLA BLA BLA BLA BLA BLA BLA BLA BLA BLA BLA BLA BLA BLA BLA 
BLA BLA BLA BLA BLA BLA BLA BLA BLA BLA BLA BLA BLA BLA BLA BLA BLA BLA BLA BLA 
BLA BLA BLA BLA BLA BLA BLA BLA BLA BLA BLA BLA BLA BLA BLA BLA BLA BLA BLA BLA 
BLA BLA BLA BLA BLA BLA BLA BLA BLA BLA BLA BLA BLA BLA BLA BLA BLA BLA BLA BLA 
BLA BLA BLA BLA BLA BLA BLA BLA BLA BLA BLA BLA BLA BLA BLA BLA BLA BLA BLA BLA 
BLA BLA BLA BLA BLA BLA BLA BLA BLA BLA BLA BLA BLA BLA BLA BLA BLA BLA BLA BLA 
BLA BLA BLA BLA BLA BLA BLA BLA BLA BLA BLA BLA BLA BLA BLA BLA BLA BLA BLA BLA 
BLA BLA BLA BLA BLA BLA BLA BLA BLA BLA BLA BLA BLA BLA BLA BLA BLA BLA BLA BLA 
BLA BLA BLA BLA BLA BLA BLA BLA BLA BLA BLA BLA BLA BLA BLA BLA BLA BLA BLA BLA 
BLA BLA BLA BLA BLA BLA BLA BLA BLA BLA BLA BLA BLA BLA BLA BLA BLA BLA BLA BLA 
BLA BLA BLA BLA BLA BLA BLA BLA BLA BLA BLA BLA BLA BLA BLA BLA BLA BLA BLA BLA 
BLA BLA BLA BLA BLA BLA BLA BLA BLA BLA BLA BLA BLA BLA BLA BLA BLA BLA BLA BLA 
BLA BLA BLA BLA BLA BLA BLA BLA BLA BLA BLA BLA BLA BLA BLA BLA BLA BLA BLA BLA 
BLA BLA BLA BLA BLA BLA BLA BLA BLA BLA BLA BLA BLA BLA BLA BLA BLA BLA BLA BLA 
BLA BLA BLA BLA BLA BLA BLA BLA BLA BLA BLA BLA BLA BLA BLA BLA BLA BLA BLA BLA 
BLA BLA BLA BLA BLA BLA BLA BLA BLA BLA BLA BLA BLA BLA BLA BLA BLA BLA BLA BLA 
BLA BLA BLA BLA BLA BLA BLA BLA BLA BLA BLA BLA BLA BLA BLA BLA BLA BLA BLA BLA 
BLA BLA BLA BLA BLA BLA BLA BLA BLA BLA BLA BLA BLA BLA BLA BLA BLA BLA BLA BLA 
BLA BLA BLA BLA BLA BLA BLA BLA BLA BLA BLA BLA BLA BLA BLA BLA BLA BLA BLA BLA 
BLA BLA BLA BLA BLA BLA BLA BLA BLA BLA BLA BLA BLA BLA BLA BLA BLA BLA BLA BLA 
BLA BLA BLA BLA BLA BLA BLA BLA BLA BLA BLA BLA BLA BLA BLA BLA BLA BLA BLA BLA 
BLA BLA BLA BLA BLA BLA BLA BLA BLA BLA BLA BLA BLA BLA BLA BLA BLA BLA BLA BLA 
BLA BLA BLA BLA BLA BLA BLA BLA BLA BLA BLA BLA BLA BLA BLA BLA BLA BLA BLA BLA 
BLA BLA BLA BLA BLA BLA BLA BLA BLA BLA BLA BLA BLA BLA BLA BLA BLA BLA BLA BLA 
BLA BLA BLA BLA BLA BLA BLA BLA BLA BLA BLA BLA BLA BLA BLA BLA BLA BLA BLA BLA 
BLA BLA BLA BLA BLA BLA BLA BLA BLA BLA BLA BLA BLA BLA BLA BLA BLA BLA BLA BLA 
BLA BLA BLA BLA BLA BLA BLA BLA BLA BLA BLA BLA BLA BLA BLA BLA BLA BLA BLA BLA 
BLA BLA BLA BLA BLA BLA BLA BLA BLA BLA BLA BLA BLA BLA BLA BLA BLA BLA BLA BLA 
BLA BLA BLA BLA BLA BLA BLA BLA BLA BLA BLA BLA BLA BLA BLA BLA BLA BLA BLA BLA 
BLA BLA BLA BLA BLA BLA BLA BLA BLA BLA BLA BLA BLA BLA BLA BLA BLA BLA BLA BLA 
BLA BLA BLA BLA BLA BLA BLA BLA BLA BLA BLA BLA BLA BLA BLA BLA BLA BLA BLA BLA 
BLA BLA BLA BLA BLA BLA BLA BLA BLA BLA BLA BLA BLA BLA BLA BLA BLA BLA BLA BLA 
BLA BLA BLA BLA BLA BLA BLA BLA BLA BLA BLA BLA BLA BLA BLA BLA BLA BLA BLA BLA 
BLA BLA BLA BLA BLA BLA BLA BLA BLA BLA BLA BLA BLA BLA BLA BLA BLA BLA BLA BLA 
BLA BLA BLA BLA BLA BLA BLA BLA BLA BLA BLA BLA BLA BLA BLA BLA BLA BLA BLA BLA 
BLA BLA BLA BLA BLA BLA BLA BLA BLA BLA BLA BLA BLA BLA BLA BLA BLA BLA BLA BLA 
BLA BLA BLA BLA BLA BLA BLA BLA BLA BLA BLA BLA BLA BLA BLA BLA BLA BLA BLA BLA 
BLA BLA BLA BLA BLA BLA BLA BLA BLA BLA BLA BLA BLA BLA BLA BLA BLA BLA BLA BLA 
BLA BLA BLA BLA BLA BLA BLA BLA BLA BLA BLA BLA BLA BLA BLA BLA BLA BLA BLA BLA 
BLA BLA BLA BLA BLA BLA BLA BLA BLA BLA BLA BLA BLA BLA BLA BLA BLA BLA BLA BLA 
BLA BLA BLA BLA BLA BLA BLA BLA BLA BLA BLA BLA BLA BLA BLA BLA BLA BLA BLA BLA 
BLA BLA BLA BLA BLA BLA BLA BLA BLA BLA BLA BLA BLA BLA BLA BLA BLA BLA BLA BLA 
BLA BLA BLA BLA BLA BLA BLA BLA BLA BLA BLA BLA BLA BLA BLA BLA BLA BLA BLA BLA 
BLA BLA BLA BLA BLA BLA BLA BLA BLA BLA BLA BLA BLA BLA BLA BLA BLA BLA BLA BLA 
BLA BLA BLA BLA BLA BLA BLA BLA BLA BLA BLA BLA BLA BLA BLA BLA BLA BLA BLA BLA 
BLA BLA BLA BLA BLA BLA BLA BLA BLA BLA BLA BLA BLA BLA BLA BLA BLA BLA BLA BLA 
BLA BLA BLA BLA BLA BLA BLA BLA BLA BLA BLA BLA BLA BLA BLA BLA BLA BLA BLA BLA 
BLA BLA BLA BLA BLA BLA BLA BLA BLA BLA BLA BLA BLA BLA BLA BLA BLA BLA BLA BLA 
BLA BLA BLA BLA BLA BLA BLA BLA BLA BLA BLA BLA BLA BLA BLA BLA BLA BLA BLA BLA 
BLA BLA BLA BLA BLA BLA BLA BLA BLA BLA BLA BLA BLA BLA BLA BLA BLA BLA BLA BLA 
BLA BLA BLA BLA BLA BLA BLA BLA BLA BLA BLA BLA BLA BLA BLA BLA BLA BLA BLA BLA 
BLA BLA BLA BLA BLA BLA BLA BLA BLA BLA BLA BLA BLA BLA BLA BLA BLA BLA BLA BLA 
BLA BLA BLA BLA BLA BLA BLA BLA BLA BLA BLA BLA BLA BLA BLA BLA BLA BLA BLA BLA 
BLA BLA BLA BLA BLA BLA BLA BLA BLA BLA BLA BLA BLA BLA BLA BLA BLA BLA BLA BLA 
BLA BLA BLA BLA BLA BLA BLA BLA BLA BLA BLA BLA BLA BLA BLA BLA BLA BLA BLA BLA 
BLA BLA BLA BLA BLA BLA BLA BLA BLA BLA BLA BLA BLA BLA BLA BLA BLA BLA BLA BLA 
BLA BLA BLA BLA BLA BLA BLA BLA BLA BLA BLA BLA BLA BLA BLA BLA BLA BLA BLA BLA 
BLA BLA BLA BLA BLA BLA BLA BLA BLA BLA BLA BLA BLA BLA BLA BLA BLA BLA BLA BLA 
BLA BLA BLA BLA BLA BLA BLA BLA BLA BLA BLA BLA BLA BLA BLA BLA BLA BLA BLA BLA 
BLA BLA BLA BLA BLA BLA BLA BLA BLA BLA BLA BLA BLA BLA BLA BLA BLA BLA BLA BLA 
BLA BLA BLA BLA BLA BLA BLA BLA BLA BLA BLA BLA BLA BLA BLA BLA BLA BLA BLA BLA 
BLA BLA BLA BLA BLA BLA BLA BLA BLA BLA BLA BLA BLA BLA BLA BLA BLA BLA BLA BLA 
BLA BLA BLA BLA BLA BLA BLA BLA BLA BLA BLA BLA BLA BLA BLA BLA BLA BLA BLA BLA 
BLA BLA BLA BLA BLA BLA BLA BLA BLA BLA BLA BLA BLA BLA BLA BLA BLA BLA BLA BLA 
BLA BLA BLA BLA BLA BLA BLA BLA BLA BLA BLA BLA BLA BLA BLA BLA BLA BLA BLA BLA 
BLA BLA BLA BLA BLA BLA BLA BLA BLA BLA BLA BLA BLA BLA BLA BLA BLA BLA BLA BLA 
BLA BLA BLA BLA BLA BLA BLA BLA BLA BLA BLA BLA BLA BLA BLA BLA BLA BLA BLA BLA 
BLA BLA BLA BLA BLA BLA BLA BLA BLA BLA BLA BLA BLA BLA BLA BLA BLA BLA BLA BLA 
BLA BLA BLA BLA BLA BLA BLA BLA BLA BLA BLA BLA BLA BLA BLA BLA BLA BLA BLA BLA 
BLA BLA BLA BLA BLA BLA BLA BLA BLA BLA BLA BLA BLA BLA BLA BLA BLA BLA BLA BLA 
BLA BLA BLA BLA BLA BLA BLA BLA BLA BLA BLA BLA BLA BLA BLA BLA BLA BLA BLA BLA 
BLA BLA BLA BLA BLA BLA BLA BLA BLA BLA BLA BLA BLA BLA BLA BLA BLA BLA BLA BLA 
BLA BLA BLA BLA BLA BLA BLA BLA BLA BLA BLA BLA BLA BLA BLA BLA BLA BLA BLA BLA 
BLA BLA BLA BLA BLA BLA BLA BLA BLA BLA BLA BLA BLA BLA BLA BLA BLA BLA BLA BLA 
BLA BLA BLA BLA BLA BLA BLA BLA BLA BLA BLA BLA BLA BLA BLA BLA BLA BLA BLA BLA 
BLA BLA BLA BLA BLA BLA BLA BLA BLA BLA BLA BLA BLA BLA BLA BLA BLA BLA BLA BLA 
BLA BLA BLA BLA BLA BLA BLA BLA BLA BLA BLA BLA BLA BLA BLA BLA BLA BLA BLA BLA 
BLA BLA BLA BLA BLA BLA BLA BLA BLA BLA BLA BLA BLA BLA BLA BLA BLA BLA BLA BLA 
BLA BLA BLA BLA BLA BLA BLA BLA BLA BLA BLA BLA BLA BLA BLA BLA BLA BLA BLA BLA 
BLA BLA BLA BLA BLA BLA BLA BLA BLA BLA BLA BLA BLA BLA BLA BLA BLA BLA BLA BLA 
BLA BLA BLA BLA BLA BLA BLA BLA BLA BLA BLA BLA BLA BLA BLA BLA BLA BLA BLA BLA 
BLA BLA BLA BLA BLA BLA BLA BLA BLA BLA BLA BLA BLA BLA BLA BLA BLA BLA BLA BLA 
BLA BLA BLA BLA BLA BLA BLA BLA BLA BLA BLA BLA BLA BLA BLA BLA BLA BLA BLA BLA 
BLA BLA BLA BLA BLA BLA BLA BLA BLA BLA BLA BLA BLA BLA BLA BLA BLA BLA BLA BLA 
BLA BLA BLA BLA BLA BLA BLA BLA BLA BLA BLA BLA BLA BLA BLA BLA BLA BLA BLA BLA 
BLA BLA BLA BLA BLA BLA BLA BLA BLA BLA BLA BLA BLA BLA BLA BLA BLA BLA BLA BLA 
BLA BLA BLA BLA BLA BLA BLA BLA BLA BLA BLA BLA BLA BLA BLA BLA BLA BLA BLA BLA 
BLA BLA BLA BLA BLA BLA BLA BLA BLA BLA BLA BLA BLA BLA BLA BLA BLA BLA BLA BLA 
BLA BLA BLA BLA BLA BLA BLA BLA BLA BLA BLA BLA BLA BLA BLA BLA BLA BLA BLA BLA 
BLA BLA BLA BLA BLA BLA BLA BLA BLA BLA BLA BLA BLA BLA BLA BLA BLA BLA BLA BLA 
BLA BLA BLA BLA BLA BLA BLA BLA BLA BLA BLA BLA BLA BLA BLA BLA BLA BLA BLA BLA 
BLA BLA BLA BLA BLA BLA BLA BLA BLA BLA BLA BLA BLA BLA BLA BLA BLA BLA BLA BLA 
BLA BLA BLA BLA BLA BLA BLA BLA BLA BLA BLA BLA BLA BLA BLA BLA BLA BLA BLA BLA 
BLA BLA BLA BLA BLA BLA BLA BLA BLA BLA BLA BLA BLA BLA BLA BLA BLA BLA BLA BLA 
BLA BLA BLA BLA BLA BLA BLA BLA BLA BLA BLA BLA BLA BLA BLA BLA BLA BLA BLA BLA 
BLA BLA BLA BLA BLA BLA BLA BLA BLA BLA BLA BLA BLA BLA BLA BLA BLA BLA BLA BLA 
BLA BLA BLA BLA BLA BLA BLA BLA BLA BLA BLA BLA BLA BLA BLA BLA BLA BLA BLA BLA 
BLA BLA BLA BLA BLA BLA BLA BLA BLA BLA BLA BLA BLA BLA BLA BLA BLA BLA BLA BLA 
BLA BLA BLA BLA BLA BLA BLA BLA BLA BLA BLA BLA BLA BLA BLA BLA BLA BLA BLA BLA 
BLA BLA BLA BLA BLA BLA BLA BLA BLA BLA BLA BLA BLA BLA BLA BLA BLA BLA BLA BLA 
BLA BLA BLA BLA BLA BLA BLA BLA BLA BLA BLA BLA BLA BLA BLA BLA BLA BLA BLA BLA 
BLA BLA BLA BLA BLA BLA BLA BLA BLA BLA BLA BLA BLA BLA BLA BLA BLA BLA BLA BLA 
BLA BLA BLA BLA BLA BLA BLA BLA BLA BLA BLA BLA BLA BLA BLA BLA BLA BLA BLA BLA 
BLA BLA BLA BLA BLA BLA BLA BLA BLA BLA BLA BLA BLA BLA BLA BLA BLA BLA BLA BLA 
BLA BLA BLA BLA BLA BLA BLA BLA BLA BLA BLA BLA BLA BLA BLA BLA BLA BLA BLA BLA 
BLA BLA BLA BLA BLA BLA BLA BLA BLA BLA BLA BLA BLA BLA BLA BLA BLA BLA BLA BLA 
BLA BLA BLA BLA BLA BLA BLA BLA BLA BLA BLA BLA BLA BLA BLA BLA BLA BLA BLA BLA 
BLA BLA BLA BLA BLA BLA BLA BLA BLA BLA BLA BLA BLA BLA BLA BLA BLA BLA BLA BLA 
BLA BLA BLA BLA BLA BLA BLA BLA BLA BLA BLA BLA BLA BLA BLA BLA BLA BLA BLA BLA 
BLA BLA BLA BLA BLA BLA BLA BLA BLA BLA BLA BLA BLA BLA BLA BLA BLA BLA BLA BLA 
BLA BLA BLA BLA BLA BLA BLA BLA BLA BLA BLA BLA BLA BLA BLA BLA BLA BLA BLA BLA 
BLA BLA BLA BLA BLA BLA BLA BLA BLA BLA BLA BLA BLA BLA BLA BLA BLA BLA BLA BLA 
BLA BLA BLA BLA BLA BLA BLA BLA BLA BLA BLA BLA BLA BLA BLA BLA BLA BLA BLA BLA 
BLA BLA BLA BLA BLA BLA BLA BLA BLA BLA BLA BLA BLA BLA BLA BLA BLA BLA BLA BLA 
BLA BLA BLA BLA BLA BLA BLA BLA BLA BLA BLA BLA BLA BLA BLA BLA BLA BLA BLA BLA 
BLA BLA BLA BLA BLA BLA BLA BLA BLA BLA BLA BLA BLA BLA BLA BLA BLA BLA BLA BLA 
BLA BLA BLA BLA BLA BLA BLA BLA BLA BLA BLA BLA BLA BLA BLA BLA BLA BLA BLA BLA 
BLA BLA BLA BLA BLA BLA BLA BLA BLA BLA BLA BLA BLA BLA BLA BLA BLA BLA BLA BLA 
BLA BLA BLA BLA BLA BLA BLA BLA BLA BLA BLA BLA BLA BLA BLA BLA BLA BLA BLA BLA 
BLA BLA BLA BLA BLA BLA BLA BLA BLA BLA BLA BLA BLA BLA BLA BLA BLA BLA BLA BLA 
BLA BLA BLA BLA BLA BLA BLA BLA BLA BLA BLA BLA BLA BLA BLA BLA BLA BLA BLA BLA 
BLA BLA BLA BLA BLA BLA BLA BLA BLA BLA BLA BLA BLA BLA BLA BLA BLA BLA BLA BLA 
BLA BLA BLA BLA BLA BLA BLA BLA BLA BLA BLA BLA BLA BLA BLA BLA BLA BLA BLA BLA 
BLA BLA BLA BLA BLA BLA BLA BLA BLA BLA BLA BLA BLA BLA BLA BLA BLA BLA BLA BLA 
BLA BLA BLA BLA BLA BLA BLA BLA BLA BLA BLA BLA BLA BLA BLA BLA BLA BLA BLA BLA 
BLA BLA BLA BLA BLA BLA BLA BLA BLA BLA BLA BLA BLA BLA BLA BLA BLA BLA BLA BLA 
BLA BLA BLA BLA BLA BLA BLA BLA BLA BLA BLA BLA BLA BLA BLA BLA BLA BLA BLA BLA 
BLA BLA BLA BLA BLA BLA BLA BLA BLA BLA BLA BLA BLA BLA BLA BLA BLA BLA BLA BLA 
BLA BLA BLA BLA BLA BLA BLA BLA BLA BLA BLA BLA BLA BLA BLA BLA BLA BLA BLA BLA 
BLA BLA BLA BLA BLA BLA BLA BLA BLA BLA BLA BLA BLA BLA BLA BLA BLA BLA BLA BLA 
BLA BLA BLA BLA BLA BLA BLA BLA BLA BLA BLA BLA BLA BLA BLA BLA BLA BLA BLA BLA 
BLA BLA BLA BLA BLA BLA BLA BLA BLA BLA BLA BLA BLA BLA BLA BLA BLA BLA BLA BLA 
BLA BLA BLA BLA BLA BLA BLA BLA BLA BLA BLA BLA BLA BLA BLA BLA BLA BLA BLA BLA 
BLA BLA BLA BLA BLA BLA BLA BLA BLA BLA BLA BLA BLA BLA BLA BLA BLA BLA BLA BLA 
BLA BLA BLA BLA BLA BLA BLA BLA BLA BLA BLA BLA BLA BLA BLA BLA BLA BLA BLA BLA 
BLA BLA BLA BLA BLA BLA BLA BLA BLA BLA BLA BLA BLA BLA BLA BLA BLA BLA BLA BLA 
BLA BLA BLA BLA BLA BLA BLA BLA BLA BLA BLA BLA BLA BLA BLA BLA BLA BLA BLA BLA 
BLA BLA BLA BLA BLA BLA BLA BLA BLA BLA BLA BLA BLA BLA BLA BLA BLA BLA BLA BLA 
BLA BLA BLA BLA BLA BLA BLA BLA BLA BLA BLA BLA BLA BLA BLA BLA BLA BLA BLA BLA 
BLA BLA BLA BLA BLA BLA BLA BLA BLA BLA BLA BLA BLA BLA BLA BLA BLA BLA BLA BLA 
BLA BLA BLA BLA BLA BLA BLA BLA BLA BLA BLA BLA BLA BLA BLA BLA BLA BLA BLA BLA 
BLA BLA BLA BLA BLA BLA BLA BLA BLA BLA BLA BLA BLA BLA BLA BLA BLA BLA BLA BLA 
BLA BLA BLA BLA BLA BLA BLA BLA BLA BLA BLA BLA BLA BLA BLA BLA BLA BLA BLA BLA 
BLA BLA BLA BLA BLA BLA BLA BLA BLA BLA BLA BLA BLA BLA BLA BLA BLA BLA BLA BLA 
BLA BLA BLA BLA BLA BLA BLA BLA BLA BLA BLA BLA BLA BLA BLA BLA BLA BLA BLA BLA 
BLA BLA BLA BLA BLA BLA BLA BLA BLA BLA BLA BLA BLA BLA BLA BLA BLA BLA BLA BLA 
BLA BLA BLA BLA BLA BLA BLA BLA BLA BLA BLA BLA BLA BLA BLA BLA BLA BLA BLA BLA 
BLA BLA BLA BLA BLA BLA BLA BLA BLA BLA BLA BLA BLA BLA BLA BLA BLA BLA BLA BLA 
BLA BLA BLA BLA BLA BLA BLA BLA BLA BLA BLA BLA BLA BLA BLA BLA BLA BLA BLA BLA 
BLA BLA BLA BLA BLA BLA BLA BLA BLA BLA BLA BLA BLA BLA BLA BLA BLA BLA BLA BLA 
BLA BLA BLA BLA BLA BLA BLA BLA BLA BLA BLA BLA BLA BLA BLA BLA BLA BLA BLA BLA 
BLA BLA BLA BLA BLA BLA BLA BLA BLA BLA BLA BLA BLA BLA BLA BLA BLA BLA BLA BLA 
BLA BLA BLA BLA BLA BLA BLA BLA BLA BLA BLA BLA BLA BLA BLA BLA BLA BLA BLA BLA 
BLA BLA BLA BLA BLA BLA BLA BLA BLA BLA BLA BLA BLA BLA BLA BLA BLA BLA BLA BLA 
BLA BLA BLA BLA BLA BLA BLA BLA BLA BLA BLA BLA BLA BLA BLA BLA BLA BLA BLA BLA 
BLA BLA BLA BLA BLA BLA BLA BLA BLA BLA BLA BLA BLA BLA BLA BLA BLA BLA BLA BLA 
BLA BLA BLA BLA BLA BLA BLA BLA BLA BLA BLA BLA BLA BLA BLA BLA BLA BLA BLA BLA 
BLA BLA BLA BLA BLA BLA BLA BLA BLA BLA BLA BLA BLA BLA BLA BLA BLA BLA BLA BLA 
BLA BLA BLA BLA BLA BLA BLA BLA BLA BLA BLA BLA BLA BLA BLA BLA BLA BLA BLA BLA 
BLA BLA BLA BLA BLA BLA BLA BLA BLA BLA BLA BLA BLA BLA BLA BLA BLA BLA BLA BLA 
BLA BLA BLA BLA BLA BLA BLA BLA BLA BLA BLA BLA BLA BLA BLA BLA BLA BLA BLA BLA 
BLA BLA BLA BLA BLA BLA BLA BLA BLA BLA BLA BLA BLA BLA BLA BLA BLA BLA BLA BLA 
BLA BLA BLA BLA BLA BLA BLA BLA BLA BLA BLA BLA BLA BLA BLA BLA BLA BLA BLA BLA 
BLA BLA BLA BLA BLA BLA BLA BLA BLA BLA BLA BLA BLA BLA BLA BLA BLA BLA BLA BLA 
BLA BLA BLA BLA BLA BLA BLA BLA BLA BLA BLA BLA BLA BLA BLA BLA BLA BLA BLA BLA 
BLA BLA BLA BLA BLA BLA BLA BLA BLA BLA BLA BLA BLA BLA BLA BLA BLA BLA BLA BLA 
BLA BLA BLA BLA BLA BLA BLA BLA BLA BLA BLA BLA BLA BLA BLA BLA BLA BLA BLA BLA 
BLA BLA BLA BLA BLA BLA BLA BLA BLA BLA BLA BLA BLA BLA BLA BLA BLA BLA BLA BLA 
BLA BLA BLA BLA BLA BLA BLA BLA BLA BLA BLA BLA BLA BLA BLA BLA BLA BLA BLA BLA 
BLA BLA BLA BLA BLA BLA BLA BLA BLA BLA BLA BLA BLA BLA BLA BLA BLA BLA BLA BLA 
BLA BLA BLA BLA BLA BLA BLA BLA BLA BLA BLA BLA BLA BLA BLA BLA BLA BLA BLA BLA 
BLA BLA BLA BLA BLA BLA BLA BLA BLA BLA BLA BLA BLA BLA BLA BLA BLA BLA BLA BLA 
BLA BLA BLA BLA BLA BLA BLA BLA BLA BLA BLA BLA BLA BLA BLA BLA BLA BLA BLA BLA 
BLA BLA BLA BLA BLA BLA BLA BLA BLA BLA BLA BLA BLA BLA BLA BLA BLA BLA BLA BLA 
BLA BLA BLA BLA BLA BLA BLA BLA BLA BLA BLA BLA BLA BLA BLA BLA BLA BLA BLA BLA 
BLA BLA BLA BLA BLA BLA BLA BLA BLA BLA BLA BLA BLA BLA BLA BLA BLA BLA BLA BLA 
BLA BLA BLA BLA BLA BLA BLA BLA BLA BLA BLA BLA BLA BLA BLA BLA BLA BLA BLA BLA 
BLA BLA BLA BLA BLA BLA BLA BLA BLA BLA BLA BLA BLA BLA BLA BLA BLA BLA BLA BLA 
BLA BLA BLA BLA BLA BLA BLA BLA BLA BLA BLA BLA BLA BLA BLA BLA BLA BLA BLA BLA 
BLA BLA BLA BLA BLA BLA BLA BLA BLA BLA BLA BLA BLA BLA BLA BLA BLA BLA BLA BLA 
BLA BLA BLA BLA BLA BLA BLA BLA BLA BLA BLA BLA BLA BLA BLA BLA BLA BLA BLA BLA 
BLA BLA BLA BLA BLA BLA BLA BLA BLA BLA BLA BLA BLA BLA BLA BLA BLA BLA BLA BLA 
BLA BLA BLA BLA BLA BLA BLA BLA BLA BLA BLA BLA BLA BLA BLA BLA BLA BLA BLA BLA 
BLA BLA BLA BLA BLA BLA BLA BLA BLA BLA BLA BLA BLA BLA BLA BLA BLA BLA BLA BLA 
BLA BLA BLA BLA BLA BLA BLA BLA BLA BLA BLA BLA BLA BLA BLA BLA BLA BLA BLA BLA 
BLA BLA BLA BLA BLA BLA BLA BLA BLA BLA BLA BLA BLA BLA BLA BLA BLA BLA BLA BLA 
BLA BLA BLA BLA BLA BLA BLA BLA BLA BLA BLA BLA BLA BLA BLA BLA BLA BLA BLA BLA 
BLA BLA BLA BLA BLA BLA BLA BLA BLA BLA BLA BLA BLA BLA BLA BLA BLA BLA BLA BLA 
BLA BLA BLA BLA BLA BLA BLA BLA BLA BLA BLA BLA BLA BLA BLA BLA BLA BLA BLA BLA 
BLA BLA BLA BLA BLA BLA BLA BLA BLA BLA BLA BLA BLA BLA BLA BLA BLA BLA BLA BLA 
BLA BLA BLA BLA BLA BLA BLA BLA BLA BLA BLA BLA BLA BLA BLA BLA BLA BLA BLA BLA 
BLA BLA BLA BLA BLA BLA BLA BLA BLA BLA BLA BLA BLA BLA BLA BLA BLA BLA BLA BLA 
BLA BLA BLA BLA BLA BLA BLA BLA BLA BLA BLA BLA BLA BLA BLA BLA BLA BLA BLA BLA 
BLA BLA BLA BLA BLA BLA BLA BLA BLA BLA BLA BLA BLA BLA BLA BLA BLA BLA BLA BLA 
BLA BLA BLA BLA BLA BLA BLA BLA BLA BLA BLA BLA BLA BLA BLA BLA BLA BLA BLA BLA 
BLA BLA BLA BLA BLA BLA BLA BLA BLA BLA BLA BLA BLA BLA BLA BLA BLA BLA BLA BLA 
BLA BLA BLA BLA BLA BLA BLA BLA BLA BLA BLA BLA BLA BLA BLA BLA BLA BLA BLA BLA 
BLA BLA BLA BLA BLA BLA BLA BLA BLA BLA BLA BLA BLA BLA BLA BLA BLA BLA BLA BLA 
BLA BLA BLA BLA BLA BLA BLA BLA BLA BLA BLA BLA BLA BLA BLA BLA BLA BLA BLA BLA 
BLA BLA BLA BLA BLA BLA BLA BLA BLA BLA BLA BLA BLA BLA BLA BLA BLA BLA BLA BLA 
BLA BLA BLA BLA BLA BLA BLA BLA BLA BLA BLA BLA BLA BLA BLA BLA BLA BLA BLA BLA 
BLA BLA BLA BLA BLA BLA BLA BLA BLA BLA BLA BLA BLA BLA BLA BLA BLA BLA BLA BLA 
BLA BLA BLA BLA BLA BLA BLA BLA BLA BLA BLA BLA BLA BLA BLA BLA BLA BLA BLA BLA 
BLA BLA BLA BLA BLA BLA BLA BLA BLA BLA BLA BLA BLA BLA BLA BLA BLA BLA BLA BLA 
BLA BLA BLA BLA BLA BLA BLA BLA BLA BLA BLA BLA BLA BLA BLA BLA BLA BLA BLA BLA 
BLA BLA BLA BLA BLA BLA BLA BLA BLA BLA BLA BLA BLA BLA BLA BLA BLA BLA BLA BLA 
BLA BLA BLA BLA BLA BLA BLA BLA BLA BLA BLA BLA BLA BLA BLA BLA BLA BLA BLA BLA 
BLA BLA BLA BLA BLA BLA BLA BLA BLA BLA BLA BLA BLA BLA BLA BLA BLA BLA BLA BLA 
BLA BLA BLA BLA BLA BLA BLA BLA BLA BLA BLA BLA BLA BLA BLA BLA BLA BLA BLA BLA 
BLA BLA BLA BLA BLA BLA BLA BLA BLA BLA BLA BLA BLA BLA BLA BLA BLA BLA BLA BLA 
BLA BLA BLA BLA BLA BLA BLA BLA BLA BLA BLA BLA BLA BLA BLA BLA BLA BLA BLA BLA 
BLA BLA BLA BLA BLA BLA BLA BLA BLA BLA BLA BLA BLA BLA BLA BLA BLA BLA BLA BLA 
BLA BLA BLA BLA BLA BLA BLA BLA BLA BLA BLA BLA BLA BLA BLA BLA BLA BLA BLA BLA 
BLA BLA BLA BLA BLA BLA BLA BLA BLA BLA BLA BLA BLA BLA BLA BLA BLA BLA BLA BLA 
BLA BLA BLA BLA BLA BLA BLA BLA BLA BLA BLA BLA BLA BLA BLA BLA BLA BLA BLA BLA 
BLA BLA BLA BLA BLA BLA BLA BLA BLA BLA BLA BLA BLA BLA BLA BLA BLA BLA BLA BLA 
BLA BLA BLA BLA BLA BLA BLA BLA BLA BLA BLA BLA BLA BLA BLA BLA BLA BLA BLA BLA 
BLA BLA BLA BLA BLA BLA BLA BLA BLA BLA BLA BLA BLA BLA BLA BLA BLA BLA BLA BLA 
BLA BLA BLA BLA BLA BLA BLA BLA BLA BLA BLA BLA BLA BLA BLA BLA BLA BLA BLA BLA 
BLA BLA BLA BLA BLA BLA BLA BLA BLA BLA BLA BLA BLA BLA BLA BLA BLA BLA BLA BLA 
BLA BLA BLA BLA BLA BLA BLA BLA BLA BLA BLA BLA BLA BLA BLA BLA BLA BLA BLA BLA 
BLA BLA BLA BLA BLA BLA BLA BLA BLA BLA BLA BLA BLA BLA BLA BLA BLA BLA BLA BLA 
BLA BLA BLA BLA BLA BLA BLA BLA BLA BLA BLA BLA BLA BLA BLA BLA BLA BLA BLA BLA 
BLA BLA BLA BLA BLA BLA BLA BLA BLA BLA BLA BLA BLA BLA BLA BLA BLA BLA BLA BLA 
BLA BLA BLA BLA BLA BLA BLA BLA BLA BLA BLA BLA BLA BLA BLA BLA BLA BLA BLA BLA 
BLA BLA BLA BLA BLA BLA BLA BLA BLA BLA BLA BLA BLA BLA BLA BLA BLA BLA BLA BLA 
BLA BLA BLA BLA BLA BLA BLA BLA BLA BLA BLA BLA BLA BLA BLA BLA BLA BLA BLA BLA 
BLA BLA BLA BLA BLA BLA BLA BLA BLA BLA BLA BLA BLA BLA BLA BLA BLA BLA BLA BLA 
BLA BLA BLA BLA BLA BLA BLA BLA BLA BLA BLA BLA BLA BLA BLA BLA BLA BLA BLA BLA 
BLA BLA BLA BLA BLA BLA BLA BLA BLA BLA BLA BLA BLA BLA BLA BLA BLA BLA BLA BLA 
BLA BLA BLA BLA BLA BLA BLA BLA BLA BLA BLA BLA BLA BLA BLA BLA BLA BLA BLA BLA 
BLA BLA BLA BLA BLA BLA BLA BLA BLA BLA BLA BLA BLA BLA BLA BLA BLA BLA BLA BLA 
BLA BLA BLA BLA BLA BLA BLA BLA BLA BLA BLA BLA BLA BLA BLA BLA BLA BLA BLA BLA 
BLA BLA BLA BLA BLA BLA BLA BLA BLA BLA BLA BLA BLA BLA BLA BLA BLA BLA BLA BLA 
BLA BLA BLA BLA BLA BLA BLA BLA BLA BLA BLA BLA BLA BLA BLA BLA BLA BLA BLA BLA 
BLA BLA BLA BLA BLA BLA BLA BLA BLA BLA BLA BLA BLA BLA BLA BLA BLA BLA BLA BLA 
BLA BLA BLA BLA BLA BLA BLA BLA BLA BLA BLA BLA BLA BLA BLA BLA BLA BLA BLA BLA 
BLA BLA BLA BLA BLA BLA BLA BLA BLA BLA BLA BLA BLA BLA BLA BLA BLA BLA BLA BLA 
BLA BLA BLA BLA BLA BLA BLA BLA BLA BLA BLA BLA BLA BLA BLA BLA BLA BLA BLA BLA 
BLA BLA BLA BLA BLA BLA BLA BLA BLA BLA BLA BLA BLA BLA BLA BLA BLA BLA BLA BLA 
BLA BLA BLA BLA BLA BLA BLA BLA BLA BLA BLA BLA BLA BLA BLA BLA BLA BLA BLA BLA 
BLA BLA BLA BLA BLA BLA BLA BLA BLA BLA BLA BLA BLA BLA BLA BLA BLA BLA BLA BLA 
BLA BLA BLA BLA BLA BLA BLA BLA BLA BLA BLA BLA BLA BLA BLA BLA BLA BLA BLA BLA 
BLA BLA BLA BLA BLA BLA BLA BLA BLA BLA BLA BLA BLA BLA BLA BLA BLA BLA BLA BLA 
BLA BLA BLA BLA BLA BLA BLA BLA BLA BLA BLA BLA BLA BLA BLA BLA BLA BLA BLA BLA 
BLA BLA BLA BLA BLA BLA BLA BLA BLA BLA BLA BLA BLA BLA BLA BLA BLA BLA BLA BLA 
BLA BLA BLA BLA BLA BLA BLA BLA BLA BLA BLA BLA BLA BLA BLA BLA BLA BLA BLA BLA 
BLA BLA BLA BLA BLA BLA BLA BLA BLA BLA BLA BLA BLA BLA BLA BLA BLA BLA BLA BLA 
BLA BLA BLA BLA BLA BLA BLA BLA BLA BLA BLA BLA BLA BLA BLA BLA BLA BLA BLA BLA 
BLA BLA BLA BLA BLA BLA BLA BLA BLA BLA BLA BLA BLA BLA BLA BLA BLA BLA BLA BLA 
BLA BLA BLA BLA BLA BLA BLA BLA BLA BLA BLA BLA BLA BLA BLA BLA BLA BLA BLA BLA 
BLA BLA BLA BLA BLA BLA BLA BLA BLA BLA BLA BLA BLA BLA BLA BLA BLA BLA BLA BLA 
BLA BLA BLA BLA BLA BLA BLA BLA BLA BLA BLA BLA BLA BLA BLA BLA BLA BLA BLA BLA 
BLA BLA BLA BLA BLA BLA BLA BLA BLA BLA BLA BLA BLA BLA BLA BLA BLA BLA BLA BLA 
BLA BLA BLA BLA BLA BLA BLA BLA BLA BLA BLA BLA BLA BLA BLA BLA BLA BLA BLA BLA 
BLA BLA BLA BLA BLA BLA BLA BLA BLA BLA BLA BLA BLA BLA BLA BLA BLA BLA BLA BLA 
BLA BLA BLA BLA BLA BLA BLA BLA BLA BLA BLA BLA BLA BLA BLA BLA BLA BLA BLA BLA 
BLA BLA BLA BLA BLA BLA BLA BLA BLA BLA BLA BLA BLA BLA BLA BLA BLA BLA BLA BLA 
BLA BLA BLA BLA BLA BLA BLA BLA BLA BLA BLA BLA BLA BLA BLA BLA BLA BLA BLA BLA 
BLA BLA BLA BLA BLA BLA BLA BLA BLA BLA BLA BLA BLA BLA BLA BLA BLA BLA BLA BLA 
BLA BLA BLA BLA BLA BLA BLA BLA BLA BLA BLA BLA BLA BLA BLA BLA BLA BLA BLA BLA 
BLA BLA BLA BLA BLA BLA BLA BLA BLA BLA BLA BLA BLA BLA BLA BLA BLA BLA BLA BLA 
BLA BLA BLA BLA BLA BLA BLA BLA BLA BLA BLA BLA BLA BLA BLA BLA BLA BLA BLA BLA 
BLA BLA BLA BLA BLA BLA BLA BLA BLA BLA BLA BLA BLA BLA BLA BLA BLA BLA BLA BLA 
BLA BLA BLA BLA BLA BLA BLA BLA BLA BLA BLA BLA BLA BLA BLA BLA BLA BLA BLA BLA 
BLA BLA BLA BLA BLA BLA BLA BLA BLA BLA BLA BLA BLA BLA BLA BLA BLA BLA BLA BLA 
BLA BLA BLA BLA BLA BLA BLA BLA BLA BLA BLA BLA BLA BLA BLA BLA BLA BLA BLA BLA 
BLA BLA BLA BLA BLA BLA BLA BLA BLA BLA BLA BLA BLA BLA BLA BLA BLA BLA BLA BLA 
BLA BLA BLA BLA BLA BLA BLA BLA BLA BLA BLA BLA BLA BLA BLA BLA BLA BLA BLA BLA 
BLA BLA BLA BLA BLA BLA BLA BLA BLA BLA BLA BLA BLA BLA BLA BLA BLA BLA BLA BLA 
BLA BLA BLA BLA BLA BLA BLA BLA BLA BLA BLA BLA BLA BLA BLA BLA BLA BLA BLA BLA 
BLA BLA BLA BLA BLA BLA BLA BLA BLA BLA BLA BLA BLA BLA BLA BLA BLA BLA BLA BLA 
BLA BLA BLA BLA BLA BLA BLA BLA BLA BLA BLA BLA BLA BLA BLA BLA BLA BLA BLA BLA 
BLA BLA BLA BLA BLA BLA BLA BLA BLA BLA BLA BLA BLA BLA BLA BLA BLA BLA BLA BLA 
BLA BLA BLA BLA BLA BLA BLA BLA BLA BLA BLA BLA BLA BLA BLA BLA BLA BLA BLA BLA 
BLA BLA BLA BLA BLA BLA BLA BLA BLA BLA BLA BLA BLA BLA BLA BLA BLA BLA BLA BLA 
BLA BLA BLA BLA BLA BLA BLA BLA BLA BLA BLA BLA BLA BLA BLA BLA BLA BLA BLA BLA 
BLA BLA BLA BLA BLA BLA BLA BLA BLA BLA BLA BLA BLA BLA BLA BLA BLA BLA BLA BLA 
BLA BLA BLA BLA BLA BLA BLA BLA BLA BLA BLA BLA BLA BLA BLA BLA BLA BLA BLA BLA 
BLA BLA BLA BLA BLA BLA BLA BLA BLA BLA BLA BLA BLA BLA BLA BLA BLA BLA BLA BLA 
BLA BLA BLA BLA BLA BLA BLA BLA BLA BLA BLA BLA BLA BLA BLA BLA BLA BLA BLA BLA 
BLA BLA BLA BLA BLA BLA BLA BLA BLA BLA BLA BLA BLA BLA BLA BLA BLA BLA BLA BLA 
BLA BLA BLA BLA BLA BLA BLA BLA BLA BLA BLA BLA BLA BLA BLA BLA BLA BLA BLA BLA 
BLA BLA BLA BLA BLA BLA BLA BLA BLA BLA BLA BLA BLA BLA BLA BLA BLA BLA BLA BLA 
BLA BLA BLA BLA BLA BLA BLA BLA BLA BLA BLA BLA BLA BLA BLA BLA BLA BLA BLA BLA 
BLA BLA BLA BLA BLA BLA BLA BLA BLA BLA BLA BLA BLA BLA BLA BLA BLA BLA BLA BLA 
BLA BLA BLA BLA BLA BLA BLA BLA BLA BLA BLA BLA BLA BLA BLA BLA BLA BLA BLA BLA 
BLA BLA BLA BLA BLA BLA BLA BLA BLA BLA BLA BLA BLA BLA BLA BLA BLA BLA BLA BLA 
BLA BLA BLA BLA BLA BLA BLA BLA BLA BLA BLA BLA BLA BLA BLA BLA BLA BLA BLA BLA 
BLA BLA BLA BLA BLA BLA BLA BLA BLA BLA BLA BLA BLA BLA BLA BLA BLA BLA BLA BLA 
BLA BLA BLA BLA BLA BLA BLA BLA BLA BLA BLA BLA BLA BLA BLA BLA BLA BLA BLA BLA 
BLA BLA BLA BLA BLA BLA BLA BLA BLA BLA BLA BLA BLA BLA BLA BLA BLA BLA BLA BLA 
BLA BLA BLA BLA BLA BLA BLA BLA BLA BLA BLA BLA BLA BLA BLA BLA BLA BLA BLA BLA 
BLA BLA BLA BLA BLA BLA BLA BLA BLA BLA BLA BLA BLA BLA BLA BLA BLA BLA BLA BLA 
BLA BLA BLA BLA BLA BLA BLA BLA BLA BLA BLA BLA BLA BLA BLA BLA BLA BLA BLA BLA 
BLA BLA BLA BLA BLA BLA BLA BLA BLA BLA BLA BLA BLA BLA BLA BLA BLA BLA BLA BLA 
BLA BLA BLA BLA BLA BLA BLA BLA BLA BLA BLA BLA BLA BLA BLA BLA BLA BLA BLA BLA 
BLA BLA BLA BLA BLA BLA BLA BLA BLA BLA BLA BLA BLA BLA BLA BLA BLA BLA BLA BLA 
BLA BLA BLA BLA BLA BLA BLA BLA BLA BLA BLA BLA BLA BLA BLA BLA BLA BLA BLA BLA 
BLA BLA BLA BLA BLA BLA BLA BLA BLA BLA BLA BLA BLA BLA BLA BLA BLA BLA BLA BLA 
BLA BLA BLA BLA BLA BLA BLA BLA BLA BLA BLA BLA BLA BLA BLA BLA BLA BLA BLA BLA 
BLA BLA BLA BLA BLA BLA BLA BLA BLA BLA BLA BLA BLA BLA BLA BLA BLA BLA BLA BLA 
BLA BLA BLA BLA BLA BLA BLA BLA BLA BLA BLA BLA BLA BLA BLA BLA BLA BLA BLA BLA 
BLA BLA BLA BLA BLA BLA BLA BLA BLA BLA BLA BLA BLA BLA BLA BLA BLA BLA BLA BLA 
BLA BLA BLA BLA BLA BLA BLA BLA BLA BLA BLA BLA BLA BLA BLA BLA BLA BLA BLA BLA 
BLA BLA BLA BLA BLA BLA BLA BLA BLA BLA BLA BLA BLA BLA BLA BLA BLA BLA BLA BLA 
BLA BLA BLA BLA BLA BLA BLA BLA BLA BLA BLA BLA BLA BLA BLA BLA BLA BLA BLA BLA 
BLA BLA BLA BLA BLA BLA BLA BLA BLA BLA BLA BLA BLA BLA BLA BLA BLA BLA BLA BLA 
BLA BLA BLA BLA BLA BLA BLA BLA BLA BLA BLA BLA BLA BLA BLA BLA BLA BLA BLA BLA 
BLA BLA BLA BLA BLA BLA BLA BLA BLA BLA BLA BLA BLA BLA BLA BLA BLA BLA BLA BLA 
BLA BLA BLA BLA BLA BLA BLA BLA BLA BLA BLA BLA BLA BLA BLA BLA BLA BLA BLA BLA 
BLA BLA BLA BLA BLA BLA BLA BLA BLA BLA BLA BLA BLA BLA BLA BLA BLA BLA BLA BLA 
BLA BLA BLA BLA BLA BLA BLA BLA BLA BLA BLA BLA BLA BLA BLA BLA BLA BLA BLA BLA 
BLA BLA BLA BLA BLA BLA BLA BLA BLA BLA BLA BLA BLA BLA BLA BLA BLA BLA BLA BLA 
BLA BLA BLA BLA BLA BLA BLA BLA BLA BLA BLA BLA BLA BLA BLA BLA BLA BLA BLA BLA 
BLA BLA BLA BLA BLA BLA BLA BLA BLA BLA BLA BLA BLA BLA BLA BLA BLA BLA BLA BLA 
BLA BLA BLA BLA BLA BLA BLA BLA BLA BLA BLA BLA BLA BLA BLA BLA BLA BLA BLA BLA 
BLA BLA BLA BLA BLA BLA BLA BLA BLA BLA BLA BLA BLA BLA BLA BLA BLA BLA BLA BLA 
BLA BLA BLA BLA BLA BLA BLA BLA BLA BLA BLA BLA BLA BLA BLA BLA BLA BLA BLA BLA 
BLA BLA BLA BLA BLA BLA BLA BLA BLA BLA BLA BLA BLA BLA BLA BLA BLA BLA BLA BLA 
BLA BLA BLA BLA BLA BLA BLA BLA BLA BLA BLA BLA BLA BLA BLA BLA BLA BLA BLA BLA 
BLA BLA BLA BLA BLA BLA BLA BLA BLA BLA BLA BLA BLA BLA BLA BLA BLA BLA BLA BLA 
BLA BLA BLA BLA BLA BLA BLA BLA BLA BLA BLA BLA BLA BLA BLA BLA BLA BLA BLA BLA 
BLA BLA BLA BLA BLA BLA BLA BLA BLA BLA BLA BLA BLA BLA BLA BLA BLA BLA BLA BLA 
BLA BLA BLA BLA BLA BLA BLA BLA BLA BLA BLA BLA BLA BLA BLA BLA BLA BLA BLA BLA 
BLA BLA BLA BLA BLA BLA BLA BLA BLA BLA BLA BLA BLA BLA BLA BLA BLA BLA BLA BLA 
BLA BLA BLA BLA BLA BLA BLA BLA BLA BLA BLA BLA BLA BLA BLA BLA BLA BLA BLA BLA 
BLA BLA BLA BLA BLA BLA BLA BLA BLA BLA BLA BLA BLA BLA BLA BLA BLA BLA BLA BLA 
BLA BLA BLA BLA BLA BLA BLA BLA BLA BLA BLA BLA BLA BLA BLA BLA BLA BLA BLA BLA 
BLA BLA BLA BLA BLA BLA BLA BLA BLA BLA BLA BLA BLA BLA BLA BLA BLA BLA BLA BLA 
BLA BLA BLA BLA BLA BLA BLA BLA BLA BLA BLA BLA BLA BLA BLA BLA BLA BLA BLA BLA 
BLA BLA BLA BLA BLA BLA BLA BLA BLA BLA BLA BLA BLA BLA BLA BLA BLA BLA BLA BLA 
BLA BLA BLA BLA BLA BLA BLA BLA BLA BLA BLA BLA BLA BLA BLA BLA BLA BLA BLA BLA 
BLA BLA BLA BLA BLA BLA BLA BLA BLA BLA BLA BLA BLA BLA BLA BLA BLA BLA BLA BLA 
BLA BLA BLA BLA BLA BLA BLA BLA BLA BLA BLA BLA BLA BLA BLA BLA BLA BLA BLA BLA 
BLA BLA BLA BLA BLA BLA BLA BLA BLA BLA BLA BLA BLA BLA BLA BLA BLA BLA BLA BLA 
BLA BLA BLA BLA BLA BLA BLA BLA BLA BLA BLA BLA BLA BLA BLA BLA BLA BLA BLA BLA 
BLA BLA BLA BLA BLA BLA BLA BLA BLA BLA BLA BLA BLA BLA BLA BLA BLA BLA BLA BLA 
BLA BLA BLA BLA BLA BLA BLA BLA BLA BLA BLA BLA BLA BLA BLA BLA BLA BLA BLA BLA 
BLA BLA BLA BLA BLA BLA BLA BLA BLA BLA BLA BLA BLA BLA BLA BLA BLA BLA BLA BLA 
BLA BLA BLA BLA BLA BLA BLA BLA BLA BLA BLA BLA BLA BLA BLA BLA BLA BLA BLA BLA 
BLA BLA BLA BLA BLA BLA BLA BLA BLA BLA BLA BLA BLA BLA BLA BLA BLA BLA BLA BLA 
BLA BLA BLA BLA BLA BLA BLA BLA BLA BLA BLA BLA BLA BLA BLA BLA BLA BLA BLA BLA 
BLA BLA BLA BLA BLA BLA BLA BLA BLA BLA BLA BLA BLA BLA BLA BLA BLA BLA BLA BLA 
BLA BLA BLA BLA BLA BLA BLA BLA BLA BLA BLA BLA BLA BLA BLA BLA BLA BLA BLA BLA 
BLA BLA BLA BLA BLA BLA BLA BLA BLA BLA BLA BLA BLA BLA BLA BLA BLA BLA BLA BLA 
BLA BLA BLA BLA BLA BLA BLA BLA BLA BLA BLA BLA BLA BLA BLA BLA BLA BLA BLA BLA 
BLA BLA BLA BLA BLA BLA BLA BLA BLA BLA BLA BLA BLA BLA BLA BLA BLA BLA BLA BLA 
BLA BLA BLA BLA BLA BLA BLA BLA BLA BLA BLA BLA BLA BLA BLA BLA BLA BLA BLA BLA 
BLA BLA BLA BLA BLA BLA BLA BLA BLA BLA BLA BLA BLA BLA BLA BLA BLA BLA BLA BLA 
BLA BLA BLA BLA BLA BLA BLA BLA BLA BLA BLA BLA BLA BLA BLA BLA BLA BLA BLA BLA 
BLA BLA BLA BLA BLA BLA BLA BLA BLA BLA BLA BLA BLA BLA BLA BLA BLA BLA BLA BLA 
BLA BLA BLA BLA BLA BLA BLA BLA BLA BLA BLA BLA BLA BLA BLA BLA BLA BLA BLA BLA 
BLA BLA BLA BLA BLA BLA BLA BLA BLA BLA BLA BLA BLA BLA BLA BLA BLA BLA BLA BLA 
BLA BLA BLA BLA BLA BLA BLA BLA BLA BLA BLA BLA BLA BLA BLA BLA BLA BLA BLA BLA 
BLA BLA BLA BLA BLA BLA BLA BLA BLA BLA BLA BLA BLA BLA BLA BLA BLA BLA BLA BLA 
BLA BLA BLA BLA BLA BLA BLA BLA BLA BLA BLA BLA BLA BLA BLA BLA BLA BLA BLA BLA 
BLA BLA BLA BLA BLA BLA BLA BLA BLA BLA BLA BLA BLA BLA BLA BLA BLA BLA BLA BLA 
BLA BLA BLA BLA BLA BLA BLA BLA BLA BLA BLA BLA BLA BLA BLA BLA BLA BLA BLA BLA 
BLA BLA BLA BLA BLA BLA BLA BLA BLA BLA BLA BLA BLA BLA BLA BLA BLA BLA BLA BLA 
BLA BLA BLA BLA BLA BLA BLA BLA BLA BLA BLA BLA BLA BLA BLA BLA BLA BLA BLA BLA 
BLA BLA BLA BLA BLA BLA BLA BLA BLA BLA BLA BLA BLA BLA BLA BLA BLA BLA BLA BLA 
BLA BLA BLA BLA BLA BLA BLA BLA BLA BLA BLA BLA BLA BLA BLA BLA BLA BLA BLA BLA 
BLA BLA BLA BLA BLA BLA BLA BLA BLA BLA BLA BLA BLA BLA BLA BLA BLA BLA BLA BLA 
BLA BLA BLA BLA BLA BLA BLA BLA BLA BLA BLA BLA BLA BLA BLA BLA BLA BLA BLA BLA 
BLA BLA BLA BLA BLA BLA BLA BLA BLA BLA BLA BLA BLA BLA BLA BLA BLA BLA BLA BLA 
BLA BLA BLA BLA BLA BLA BLA BLA BLA BLA BLA BLA BLA BLA BLA BLA BLA BLA BLA BLA 
BLA BLA BLA BLA BLA BLA BLA BLA BLA BLA BLA BLA BLA BLA BLA BLA BLA BLA BLA BLA 
BLA BLA BLA BLA BLA BLA BLA BLA BLA BLA BLA BLA BLA BLA BLA BLA BLA BLA BLA BLA 
BLA BLA BLA BLA BLA BLA BLA BLA BLA BLA BLA BLA BLA BLA BLA BLA BLA BLA BLA BLA 
BLA BLA BLA BLA BLA BLA BLA BLA BLA BLA BLA BLA BLA BLA BLA BLA BLA BLA BLA BLA 
BLA BLA BLA BLA BLA BLA BLA BLA BLA BLA BLA BLA BLA BLA BLA BLA BLA BLA BLA BLA 
BLA BLA BLA BLA BLA BLA BLA BLA BLA BLA BLA BLA BLA BLA BLA BLA BLA BLA BLA BLA 
BLA BLA BLA BLA BLA BLA BLA BLA BLA BLA BLA BLA BLA BLA BLA BLA BLA BLA BLA BLA 
BLA BLA BLA BLA BLA BLA BLA BLA BLA BLA BLA BLA BLA BLA BLA BLA BLA BLA BLA BLA 
BLA BLA BLA BLA BLA BLA BLA BLA BLA BLA BLA BLA BLA BLA BLA BLA BLA BLA BLA BLA 
BLA BLA BLA BLA BLA BLA BLA BLA BLA BLA BLA BLA BLA BLA BLA BLA BLA BLA BLA BLA 
BLA BLA BLA BLA BLA BLA BLA BLA BLA BLA BLA BLA BLA BLA BLA BLA BLA BLA BLA BLA 
BLA BLA BLA BLA BLA BLA BLA BLA BLA BLA BLA BLA BLA BLA BLA BLA BLA BLA BLA BLA 
BLA BLA BLA BLA BLA BLA BLA BLA BLA BLA BLA BLA BLA BLA BLA BLA BLA BLA BLA BLA 
BLA BLA BLA BLA BLA BLA BLA BLA BLA BLA BLA BLA BLA BLA BLA BLA BLA BLA BLA BLA 
BLA BLA BLA BLA BLA BLA BLA BLA BLA BLA BLA BLA BLA BLA BLA BLA BLA BLA BLA BLA 
BLA BLA BLA BLA BLA BLA BLA BLA BLA BLA BLA BLA BLA BLA BLA BLA BLA BLA BLA BLA 
BLA BLA BLA BLA BLA BLA BLA BLA BLA BLA BLA BLA BLA BLA BLA BLA BLA BLA BLA BLA 
BLA BLA BLA BLA BLA BLA BLA BLA BLA BLA BLA BLA BLA BLA BLA BLA BLA BLA BLA BLA 
BLA BLA BLA BLA BLA BLA BLA BLA BLA BLA BLA BLA BLA BLA BLA BLA BLA BLA BLA BLA 
BLA BLA BLA BLA BLA BLA BLA BLA BLA BLA BLA BLA BLA BLA BLA BLA BLA BLA BLA BLA 
BLA BLA BLA BLA BLA BLA BLA BLA BLA BLA BLA BLA BLA BLA BLA BLA BLA BLA BLA BLA 
BLA BLA BLA BLA BLA BLA BLA BLA BLA BLA BLA BLA BLA BLA BLA BLA BLA BLA BLA BLA 
BLA BLA BLA BLA BLA BLA BLA BLA BLA BLA BLA BLA BLA BLA BLA BLA BLA BLA BLA BLA 
BLA BLA BLA BLA BLA BLA BLA BLA BLA BLA BLA BLA BLA BLA BLA BLA BLA BLA BLA BLA 
BLA BLA BLA BLA BLA BLA BLA BLA BLA BLA BLA BLA BLA BLA BLA BLA BLA BLA BLA BLA 
BLA BLA BLA BLA BLA BLA BLA BLA BLA BLA BLA BLA BLA BLA BLA BLA BLA BLA BLA BLA 
BLA BLA BLA BLA BLA BLA BLA BLA BLA BLA BLA BLA BLA BLA BLA BLA BLA BLA BLA BLA 
BLA BLA BLA BLA BLA BLA BLA BLA BLA BLA BLA BLA BLA BLA BLA BLA BLA BLA BLA BLA 
BLA BLA BLA BLA BLA BLA BLA BLA BLA BLA BLA BLA BLA BLA BLA BLA BLA BLA BLA BLA 
BLA BLA BLA BLA BLA BLA BLA BLA BLA BLA BLA BLA BLA BLA BLA BLA BLA BLA BLA BLA 
BLA BLA BLA BLA BLA BLA BLA BLA BLA BLA BLA BLA BLA BLA BLA BLA BLA BLA BLA BLA 
BLA BLA BLA BLA BLA BLA BLA BLA BLA BLA BLA BLA BLA BLA BLA BLA BLA BLA BLA BLA 
BLA BLA BLA BLA BLA BLA BLA BLA BLA BLA BLA BLA BLA BLA BLA BLA BLA BLA BLA BLA 
BLA BLA BLA BLA BLA BLA BLA BLA BLA BLA BLA BLA BLA BLA BLA BLA BLA BLA BLA BLA 
BLA BLA BLA BLA BLA BLA BLA BLA BLA BLA BLA BLA BLA BLA BLA BLA BLA BLA BLA BLA 
BLA BLA BLA BLA BLA BLA BLA BLA BLA BLA BLA BLA BLA BLA BLA BLA BLA BLA BLA BLA 
BLA BLA BLA BLA BLA BLA BLA BLA BLA BLA BLA BLA BLA BLA BLA BLA BLA BLA BLA BLA 
BLA BLA BLA BLA BLA BLA BLA BLA BLA BLA BLA BLA BLA BLA BLA BLA BLA BLA BLA BLA 
BLA BLA BLA BLA BLA BLA BLA BLA BLA BLA BLA BLA BLA BLA BLA BLA BLA BLA BLA BLA 
BLA BLA BLA BLA BLA BLA BLA BLA BLA BLA BLA BLA BLA BLA BLA BLA BLA BLA BLA BLA 
BLA BLA BLA BLA BLA BLA BLA BLA BLA BLA BLA BLA BLA BLA BLA BLA BLA BLA BLA BLA 
BLA BLA BLA BLA BLA BLA BLA BLA BLA BLA BLA BLA BLA BLA BLA BLA BLA BLA BLA BLA 
BLA BLA BLA BLA BLA BLA BLA BLA BLA BLA BLA BLA BLA BLA BLA BLA BLA BLA BLA BLA 
BLA BLA BLA BLA BLA BLA BLA BLA BLA BLA BLA BLA BLA BLA BLA BLA BLA BLA BLA BLA 
BLA BLA BLA BLA BLA BLA BLA BLA BLA BLA BLA BLA BLA BLA BLA BLA BLA BLA BLA BLA 
BLA BLA BLA BLA BLA BLA BLA BLA BLA BLA BLA BLA BLA BLA BLA BLA BLA BLA BLA BLA 
BLA BLA BLA BLA BLA BLA BLA BLA BLA BLA BLA BLA BLA BLA BLA BLA BLA BLA BLA BLA 
BLA BLA BLA BLA BLA BLA BLA BLA BLA BLA BLA BLA BLA BLA BLA BLA BLA BLA BLA BLA 
BLA BLA BLA BLA BLA BLA BLA BLA BLA BLA BLA BLA BLA BLA BLA BLA BLA BLA BLA BLA 
BLA BLA BLA BLA BLA BLA BLA BLA BLA BLA BLA BLA BLA BLA BLA BLA BLA BLA BLA BLA 
BLA BLA BLA BLA BLA BLA BLA BLA BLA BLA BLA BLA BLA BLA BLA BLA BLA BLA BLA BLA 
BLA BLA BLA BLA BLA BLA BLA BLA BLA BLA BLA BLA BLA BLA BLA BLA BLA BLA BLA BLA 
BLA BLA BLA BLA BLA BLA BLA BLA BLA BLA BLA BLA BLA BLA BLA BLA BLA BLA BLA BLA 
BLA BLA BLA BLA BLA BLA BLA BLA BLA BLA BLA BLA BLA BLA BLA BLA BLA BLA BLA BLA 
BLA BLA BLA BLA BLA BLA BLA BLA BLA BLA BLA BLA BLA BLA BLA BLA BLA BLA BLA BLA 
BLA BLA BLA BLA BLA BLA BLA BLA BLA BLA BLA BLA BLA BLA BLA BLA BLA BLA BLA BLA 
BLA BLA BLA BLA BLA BLA BLA BLA BLA BLA BLA BLA BLA BLA BLA BLA BLA BLA BLA BLA 
BLA BLA BLA BLA BLA BLA BLA BLA BLA BLA BLA BLA BLA BLA BLA BLA BLA BLA BLA BLA 
BLA BLA BLA BLA BLA BLA BLA BLA BLA BLA BLA BLA BLA BLA BLA BLA BLA BLA BLA BLA 
BLA BLA BLA BLA BLA BLA BLA BLA BLA BLA BLA BLA BLA BLA BLA BLA BLA BLA BLA BLA 
BLA BLA BLA BLA BLA BLA BLA BLA BLA BLA BLA BLA BLA BLA BLA BLA BLA BLA BLA BLA 
BLA BLA BLA BLA BLA BLA BLA BLA BLA BLA BLA BLA BLA BLA BLA BLA BLA BLA BLA BLA 
BLA BLA BLA BLA BLA BLA BLA BLA BLA BLA BLA BLA BLA BLA BLA BLA BLA BLA BLA BLA 
BLA BLA BLA BLA BLA BLA BLA BLA BLA BLA BLA BLA BLA BLA BLA BLA BLA BLA BLA BLA 
BLA BLA BLA BLA BLA BLA BLA BLA BLA BLA BLA BLA BLA BLA BLA BLA BLA BLA BLA BLA 
BLA BLA BLA BLA BLA BLA BLA BLA BLA BLA BLA BLA BLA BLA BLA BLA BLA BLA BLA BLA 
BLA BLA BLA BLA BLA BLA BLA BLA BLA BLA BLA BLA BLA BLA BLA BLA BLA BLA BLA BLA 
BLA BLA BLA BLA BLA BLA BLA BLA BLA BLA BLA BLA BLA BLA BLA BLA BLA BLA BLA BLA 
BLA BLA BLA BLA BLA BLA BLA BLA BLA BLA BLA BLA BLA BLA BLA BLA BLA BLA BLA BLA 
BLA BLA BLA BLA BLA BLA BLA BLA BLA BLA BLA BLA BLA BLA BLA BLA BLA BLA BLA BLA 
BLA BLA BLA BLA BLA BLA BLA BLA BLA BLA BLA BLA BLA BLA BLA BLA BLA BLA BLA BLA 
BLA BLA BLA BLA BLA BLA BLA BLA BLA BLA BLA BLA BLA BLA BLA BLA BLA BLA BLA BLA 
BLA BLA BLA BLA BLA BLA BLA BLA BLA BLA BLA BLA BLA BLA BLA BLA BLA BLA BLA BLA 
BLA BLA BLA BLA BLA BLA BLA BLA BLA BLA BLA BLA BLA BLA BLA BLA BLA BLA BLA BLA 
BLA BLA BLA BLA BLA BLA BLA BLA BLA BLA BLA BLA BLA BLA BLA BLA BLA BLA BLA BLA 
BLA BLA BLA BLA BLA BLA BLA BLA BLA BLA BLA BLA BLA BLA BLA BLA BLA BLA BLA BLA 
BLA BLA BLA BLA BLA BLA BLA BLA BLA BLA BLA BLA BLA BLA BLA BLA BLA BLA BLA BLA 
BLA BLA BLA BLA BLA BLA BLA BLA BLA BLA BLA BLA BLA BLA BLA BLA BLA BLA BLA BLA 
BLA BLA BLA BLA BLA BLA BLA BLA BLA BLA BLA BLA BLA BLA BLA BLA BLA BLA BLA BLA 
BLA BLA BLA BLA BLA BLA BLA BLA BLA BLA BLA BLA BLA BLA BLA BLA BLA BLA BLA BLA 
BLA BLA BLA BLA BLA BLA BLA BLA BLA BLA BLA BLA BLA BLA BLA BLA BLA BLA BLA BLA 
BLA BLA BLA BLA BLA BLA BLA BLA BLA BLA BLA BLA BLA BLA BLA BLA BLA BLA BLA BLA 
BLA BLA BLA BLA BLA BLA BLA BLA BLA BLA BLA BLA BLA BLA BLA BLA BLA BLA BLA BLA 
BLA BLA BLA BLA BLA BLA BLA BLA BLA BLA BLA BLA BLA BLA BLA BLA BLA BLA BLA BLA 
BLA BLA BLA BLA BLA BLA BLA BLA BLA BLA BLA BLA BLA BLA BLA BLA BLA BLA BLA BLA 
BLA BLA BLA BLA BLA BLA BLA BLA BLA BLA BLA BLA BLA BLA BLA BLA BLA BLA BLA BLA 
BLA BLA BLA BLA BLA BLA BLA BLA BLA BLA BLA BLA BLA BLA BLA BLA BLA BLA BLA BLA 
BLA BLA BLA BLA BLA BLA BLA BLA BLA BLA BLA BLA BLA BLA BLA BLA BLA BLA BLA BLA 
BLA BLA BLA BLA BLA BLA BLA BLA BLA BLA BLA BLA BLA BLA BLA BLA BLA BLA BLA BLA 
BLA BLA BLA BLA BLA BLA BLA BLA BLA BLA BLA BLA BLA BLA BLA BLA BLA BLA BLA BLA 
BLA BLA BLA BLA BLA BLA BLA BLA BLA BLA BLA BLA BLA BLA BLA BLA BLA BLA BLA BLA 
BLA BLA BLA BLA BLA BLA BLA BLA BLA BLA BLA BLA BLA BLA BLA BLA BLA BLA BLA BLA 
BLA BLA BLA BLA BLA BLA BLA BLA BLA BLA BLA BLA BLA BLA BLA BLA BLA BLA BLA BLA 
BLA BLA BLA BLA BLA BLA BLA BLA BLA BLA BLA BLA BLA BLA BLA BLA BLA BLA BLA BLA 
BLA BLA BLA BLA BLA BLA BLA BLA BLA BLA BLA BLA BLA BLA BLA BLA BLA BLA BLA BLA 
BLA BLA BLA BLA BLA BLA BLA BLA BLA BLA BLA BLA BLA BLA BLA BLA BLA BLA BLA BLA 
BLA BLA BLA BLA BLA BLA BLA BLA BLA BLA BLA BLA BLA BLA BLA BLA BLA BLA BLA BLA 
BLA BLA BLA BLA BLA BLA BLA BLA BLA BLA BLA BLA BLA BLA BLA BLA BLA BLA BLA BLA 
BLA BLA BLA BLA BLA BLA BLA BLA BLA BLA BLA BLA BLA BLA BLA BLA BLA BLA BLA BLA 
BLA BLA BLA BLA BLA BLA BLA BLA BLA BLA BLA BLA BLA BLA BLA BLA BLA BLA BLA BLA 
BLA BLA BLA BLA BLA BLA BLA BLA BLA BLA BLA BLA BLA BLA BLA BLA BLA BLA BLA BLA 
BLA BLA BLA BLA BLA BLA BLA BLA BLA BLA BLA BLA BLA BLA BLA BLA BLA BLA BLA BLA 
BLA BLA BLA BLA BLA BLA BLA BLA BLA BLA BLA BLA BLA BLA BLA BLA BLA BLA BLA BLA 
BLA BLA BLA BLA BLA BLA BLA BLA BLA BLA BLA BLA BLA BLA BLA BLA BLA BLA BLA BLA 
BLA BLA BLA BLA BLA BLA BLA BLA BLA BLA BLA BLA BLA BLA BLA BLA BLA BLA BLA BLA 
BLA BLA BLA BLA BLA BLA BLA BLA BLA BLA BLA BLA BLA BLA BLA BLA BLA BLA BLA BLA 
BLA BLA BLA BLA BLA BLA BLA BLA BLA BLA BLA BLA BLA BLA BLA BLA BLA BLA BLA BLA 
BLA BLA BLA BLA BLA BLA BLA BLA BLA BLA BLA BLA BLA BLA BLA BLA BLA BLA BLA BLA 
BLA BLA BLA BLA BLA BLA BLA BLA BLA BLA BLA BLA BLA BLA BLA BLA BLA BLA BLA BLA 
BLA BLA BLA BLA BLA BLA BLA BLA BLA BLA BLA BLA BLA BLA BLA BLA BLA BLA BLA BLA 
BLA BLA BLA BLA BLA BLA BLA BLA BLA BLA BLA BLA BLA BLA BLA BLA BLA BLA BLA BLA 
BLA BLA BLA BLA BLA BLA BLA BLA BLA BLA BLA BLA BLA BLA BLA BLA BLA BLA BLA BLA 
BLA BLA BLA BLA BLA BLA BLA BLA BLA BLA BLA BLA BLA BLA BLA BLA BLA BLA BLA BLA 
BLA BLA BLA BLA BLA BLA BLA BLA BLA BLA BLA BLA BLA BLA BLA BLA BLA BLA BLA BLA 
BLA BLA BLA BLA BLA BLA BLA BLA BLA BLA BLA BLA BLA BLA BLA BLA BLA BLA BLA BLA 
BLA BLA BLA BLA BLA BLA BLA BLA BLA BLA BLA BLA BLA BLA BLA BLA BLA BLA BLA BLA 
BLA BLA BLA BLA BLA BLA BLA BLA BLA BLA BLA BLA BLA BLA BLA BLA BLA BLA BLA BLA 
BLA BLA BLA BLA BLA BLA BLA BLA BLA BLA BLA BLA BLA BLA BLA BLA BLA BLA BLA BLA 
BLA BLA BLA BLA BLA BLA BLA BLA BLA BLA BLA BLA BLA BLA BLA BLA BLA BLA BLA BLA 
BLA BLA BLA BLA BLA BLA BLA BLA BLA BLA BLA BLA BLA BLA BLA BLA BLA BLA BLA BLA 
BLA BLA BLA BLA BLA BLA BLA BLA BLA BLA BLA BLA BLA BLA BLA BLA BLA BLA BLA BLA 
BLA BLA BLA BLA BLA BLA BLA BLA BLA BLA BLA BLA BLA BLA BLA BLA BLA BLA BLA BLA 
BLA BLA BLA BLA BLA BLA BLA BLA BLA BLA BLA BLA BLA BLA BLA BLA BLA BLA BLA BLA 
BLA BLA BLA BLA BLA BLA BLA BLA BLA BLA BLA BLA BLA BLA BLA BLA BLA BLA BLA BLA 
BLA BLA BLA BLA BLA BLA BLA BLA BLA BLA BLA BLA BLA BLA BLA BLA BLA BLA BLA BLA 
BLA BLA BLA BLA BLA BLA BLA BLA BLA BLA BLA BLA BLA BLA BLA BLA BLA BLA BLA BLA 
BLA BLA BLA BLA BLA BLA BLA BLA BLA BLA BLA BLA BLA BLA BLA BLA BLA BLA BLA BLA 
BLA BLA BLA BLA BLA BLA BLA BLA BLA BLA BLA BLA BLA BLA BLA BLA BLA BLA BLA BLA 
BLA BLA BLA BLA BLA BLA BLA BLA BLA BLA BLA BLA BLA BLA BLA BLA BLA BLA BLA BLA 
BLA BLA BLA BLA BLA BLA BLA BLA BLA BLA BLA BLA BLA BLA BLA BLA BLA BLA BLA BLA 
BLA BLA BLA BLA BLA BLA BLA BLA BLA BLA BLA BLA BLA BLA BLA BLA BLA BLA BLA BLA 
BLA BLA BLA BLA BLA BLA BLA BLA BLA BLA BLA BLA BLA BLA BLA BLA BLA BLA BLA BLA 
BLA BLA BLA BLA BLA BLA BLA BLA BLA BLA BLA BLA BLA BLA BLA BLA BLA BLA BLA BLA 
BLA BLA BLA BLA BLA BLA BLA BLA BLA BLA BLA BLA BLA BLA BLA BLA BLA BLA BLA BLA 
BLA BLA BLA BLA BLA BLA BLA BLA BLA BLA BLA BLA BLA BLA BLA BLA BLA BLA BLA BLA 
BLA BLA BLA BLA BLA BLA BLA BLA BLA BLA BLA BLA BLA BLA BLA BLA BLA BLA BLA BLA 
BLA BLA BLA BLA BLA BLA BLA BLA BLA BLA BLA BLA BLA BLA BLA BLA BLA BLA BLA BLA 
BLA BLA BLA BLA BLA BLA BLA BLA BLA BLA BLA BLA BLA BLA BLA BLA BLA BLA BLA BLA 
BLA BLA BLA BLA BLA BLA BLA BLA BLA BLA BLA BLA BLA BLA BLA BLA BLA BLA BLA BLA 
BLA BLA BLA BLA BLA BLA BLA BLA BLA BLA BLA BLA BLA BLA BLA BLA BLA BLA BLA BLA 
BLA BLA BLA BLA BLA BLA BLA BLA BLA BLA BLA BLA BLA BLA BLA BLA BLA BLA BLA BLA 
BLA BLA BLA BLA BLA BLA BLA BLA BLA BLA BLA BLA BLA BLA BLA BLA BLA BLA BLA BLA 
BLA BLA BLA BLA BLA BLA BLA BLA BLA BLA BLA BLA BLA BLA BLA BLA BLA BLA BLA BLA 
BLA BLA BLA BLA BLA BLA BLA BLA BLA BLA BLA BLA BLA BLA BLA BLA BLA BLA BLA BLA 
BLA BLA BLA BLA BLA BLA BLA BLA BLA BLA BLA BLA BLA BLA BLA BLA BLA BLA BLA BLA 
BLA BLA BLA BLA BLA BLA BLA BLA BLA BLA BLA BLA BLA BLA BLA BLA BLA BLA BLA BLA 
BLA BLA BLA BLA BLA BLA BLA BLA BLA BLA BLA BLA BLA BLA BLA BLA BLA BLA BLA BLA 
BLA BLA BLA BLA BLA BLA BLA BLA BLA BLA BLA BLA BLA BLA BLA BLA BLA BLA BLA BLA 
BLA BLA BLA BLA BLA BLA BLA BLA BLA BLA BLA BLA BLA BLA BLA BLA BLA BLA BLA BLA 
BLA BLA BLA BLA BLA BLA BLA BLA BLA BLA BLA BLA BLA BLA BLA BLA BLA BLA BLA BLA 
BLA BLA BLA BLA BLA BLA BLA BLA BLA BLA BLA BLA BLA BLA BLA BLA BLA BLA BLA BLA 
BLA BLA BLA BLA BLA BLA BLA BLA BLA BLA BLA BLA BLA BLA BLA BLA BLA BLA BLA BLA 
BLA BLA BLA BLA BLA BLA BLA BLA BLA BLA BLA BLA BLA BLA BLA BLA BLA BLA BLA BLA 
BLA BLA BLA BLA BLA BLA BLA BLA BLA BLA BLA BLA BLA BLA BLA BLA BLA BLA BLA BLA 
BLA BLA BLA BLA BLA BLA BLA BLA BLA BLA BLA BLA BLA BLA BLA BLA BLA BLA BLA BLA 
BLA BLA BLA BLA BLA BLA BLA BLA BLA BLA BLA BLA BLA BLA BLA BLA BLA BLA BLA BLA 
BLA BLA BLA BLA BLA BLA BLA BLA BLA BLA BLA BLA BLA BLA BLA BLA BLA BLA BLA BLA 
BLA BLA BLA BLA BLA BLA BLA BLA BLA BLA BLA BLA BLA BLA BLA BLA BLA BLA BLA BLA 
BLA BLA BLA BLA BLA BLA BLA BLA BLA BLA BLA BLA BLA BLA BLA BLA BLA BLA BLA BLA 
BLA BLA BLA BLA BLA BLA BLA BLA BLA BLA BLA BLA BLA BLA BLA BLA BLA BLA BLA BLA 
BLA BLA BLA BLA BLA BLA BLA BLA BLA BLA BLA BLA BLA BLA BLA BLA BLA BLA BLA BLA 
BLA BLA BLA BLA BLA BLA BLA BLA BLA BLA BLA BLA BLA BLA BLA BLA BLA BLA BLA BLA 
BLA BLA BLA BLA BLA BLA BLA BLA BLA BLA BLA BLA BLA BLA BLA BLA BLA BLA BLA BLA 
BLA BLA BLA BLA BLA BLA BLA BLA BLA BLA BLA BLA BLA BLA BLA BLA BLA BLA BLA BLA 
BLA BLA BLA BLA BLA BLA BLA BLA BLA BLA BLA BLA BLA BLA BLA BLA BLA BLA BLA BLA 
BLA BLA BLA BLA BLA BLA BLA BLA BLA BLA BLA BLA BLA BLA BLA BLA BLA BLA BLA BLA 
BLA BLA BLA BLA BLA BLA BLA BLA BLA BLA BLA BLA BLA BLA BLA BLA BLA BLA BLA BLA 
BLA BLA BLA BLA BLA BLA BLA BLA BLA BLA BLA BLA BLA BLA BLA BLA BLA BLA BLA BLA 
BLA BLA BLA BLA BLA BLA BLA BLA BLA BLA BLA BLA BLA BLA BLA BLA BLA BLA BLA BLA 
BLA BLA BLA BLA BLA BLA BLA BLA BLA BLA BLA BLA BLA BLA BLA BLA BLA BLA BLA BLA 
BLA BLA BLA BLA BLA BLA BLA BLA BLA BLA BLA BLA BLA BLA BLA BLA BLA BLA BLA BLA 
BLA BLA BLA BLA BLA BLA BLA BLA BLA BLA BLA BLA BLA BLA BLA BLA BLA BLA BLA BLA 
BLA BLA BLA BLA BLA BLA BLA BLA BLA BLA BLA BLA BLA BLA BLA BLA BLA BLA BLA BLA 
BLA BLA BLA BLA BLA BLA BLA BLA BLA BLA BLA BLA BLA BLA BLA BLA BLA BLA BLA BLA 
BLA BLA BLA BLA BLA BLA BLA BLA BLA BLA BLA BLA BLA BLA BLA BLA BLA BLA BLA BLA 
BLA BLA BLA BLA BLA BLA BLA BLA BLA BLA BLA BLA BLA BLA BLA BLA BLA BLA BLA BLA 
BLA BLA BLA BLA BLA BLA BLA BLA BLA BLA BLA BLA BLA BLA BLA BLA BLA BLA BLA BLA 
BLA BLA BLA BLA BLA BLA BLA BLA BLA BLA BLA BLA BLA BLA BLA BLA BLA BLA BLA BLA 
BLA BLA BLA BLA BLA BLA BLA BLA BLA BLA BLA BLA BLA BLA BLA BLA BLA BLA BLA BLA 
BLA BLA BLA BLA BLA BLA BLA BLA BLA BLA BLA BLA BLA BLA BLA BLA BLA BLA BLA BLA 
BLA BLA BLA BLA BLA BLA BLA BLA BLA BLA BLA BLA BLA BLA BLA BLA BLA BLA BLA BLA 
BLA BLA BLA BLA BLA BLA BLA BLA BLA BLA BLA BLA BLA BLA BLA BLA BLA BLA BLA BLA 
BLA BLA BLA BLA BLA BLA BLA BLA BLA BLA BLA BLA BLA BLA BLA BLA BLA BLA BLA BLA 
BLA BLA BLA BLA BLA BLA BLA BLA BLA BLA BLA BLA BLA BLA BLA BLA BLA BLA BLA BLA 
BLA BLA BLA BLA BLA BLA BLA BLA BLA BLA BLA BLA BLA BLA BLA BLA BLA BLA BLA BLA 
BLA BLA BLA BLA BLA BLA BLA BLA BLA BLA BLA BLA BLA BLA BLA BLA BLA BLA BLA BLA 
BLA BLA BLA BLA BLA BLA BLA BLA BLA BLA BLA BLA BLA BLA BLA BLA BLA BLA BLA BLA 
BLA BLA BLA BLA BLA BLA BLA BLA BLA BLA BLA BLA BLA BLA BLA BLA BLA BLA BLA BLA 
BLA BLA BLA BLA BLA BLA BLA BLA BLA BLA BLA BLA BLA BLA BLA BLA BLA BLA BLA BLA 
BLA BLA BLA BLA BLA BLA BLA BLA BLA BLA BLA BLA BLA BLA BLA BLA BLA BLA BLA BLA 
BLA BLA BLA BLA BLA BLA BLA BLA BLA BLA BLA BLA BLA BLA BLA BLA BLA BLA BLA BLA 
BLA BLA BLA BLA BLA BLA BLA BLA BLA BLA BLA BLA BLA BLA BLA BLA BLA BLA BLA BLA 
BLA BLA BLA BLA BLA BLA BLA BLA BLA BLA BLA BLA BLA BLA BLA BLA BLA BLA BLA BLA 
BLA BLA BLA BLA BLA BLA BLA BLA BLA BLA BLA BLA BLA BLA BLA BLA BLA BLA BLA BLA 
BLA BLA BLA BLA BLA BLA BLA BLA BLA BLA BLA BLA BLA BLA BLA BLA BLA BLA BLA BLA 
BLA BLA BLA BLA BLA BLA BLA BLA BLA BLA BLA BLA BLA BLA BLA BLA BLA BLA BLA BLA 
BLA BLA BLA BLA BLA BLA BLA BLA BLA BLA BLA BLA BLA BLA BLA BLA BLA BLA BLA BLA 
BLA BLA BLA BLA BLA BLA BLA BLA BLA BLA BLA BLA BLA BLA BLA BLA BLA BLA BLA BLA 
BLA BLA BLA BLA BLA BLA BLA BLA BLA BLA BLA BLA BLA BLA BLA BLA BLA BLA BLA BLA 
BLA BLA BLA BLA BLA BLA BLA BLA BLA BLA BLA BLA BLA BLA BLA BLA BLA BLA BLA BLA 
BLA BLA BLA BLA BLA BLA BLA BLA BLA BLA BLA BLA BLA BLA BLA BLA BLA BLA BLA BLA 
BLA BLA BLA BLA BLA BLA BLA BLA BLA BLA BLA BLA BLA BLA BLA BLA BLA BLA BLA BLA 
BLA BLA BLA BLA BLA BLA BLA BLA BLA BLA BLA BLA BLA BLA BLA BLA BLA BLA BLA BLA 
BLA BLA BLA BLA BLA BLA BLA BLA BLA BLA BLA BLA BLA BLA BLA BLA BLA BLA BLA BLA 
BLA BLA BLA BLA BLA BLA BLA BLA BLA BLA BLA BLA BLA BLA BLA BLA BLA BLA BLA BLA 
BLA BLA BLA BLA BLA BLA BLA BLA BLA BLA BLA BLA BLA BLA BLA BLA BLA BLA BLA BLA 
BLA BLA BLA BLA BLA BLA BLA BLA BLA BLA BLA BLA BLA BLA BLA BLA BLA BLA BLA BLA 
BLA BLA BLA BLA BLA BLA BLA BLA BLA BLA BLA BLA BLA BLA BLA BLA BLA BLA BLA BLA 
BLA BLA BLA BLA BLA BLA BLA BLA BLA BLA BLA BLA BLA BLA BLA BLA BLA BLA BLA BLA 
BLA BLA BLA BLA BLA BLA BLA BLA BLA BLA BLA BLA BLA BLA BLA BLA BLA BLA BLA BLA 
BLA BLA BLA BLA BLA BLA BLA BLA BLA BLA BLA BLA BLA BLA BLA BLA BLA BLA BLA BLA 
BLA BLA BLA BLA BLA BLA BLA BLA BLA BLA BLA BLA BLA BLA BLA BLA BLA BLA BLA BLA 
BLA BLA BLA BLA BLA BLA BLA BLA BLA BLA BLA BLA BLA BLA BLA BLA BLA BLA BLA BLA 
BLA BLA BLA BLA BLA BLA BLA BLA BLA BLA BLA BLA BLA BLA BLA BLA BLA BLA BLA BLA 
BLA BLA BLA BLA BLA BLA BLA BLA BLA BLA BLA BLA BLA BLA BLA BLA BLA BLA BLA BLA 
BLA BLA BLA BLA BLA BLA BLA BLA BLA BLA BLA BLA BLA BLA BLA BLA BLA BLA BLA BLA 
BLA BLA BLA BLA BLA BLA BLA BLA BLA BLA BLA BLA BLA BLA BLA BLA BLA BLA BLA BLA 
BLA BLA BLA BLA BLA BLA BLA BLA BLA BLA BLA BLA BLA BLA BLA BLA BLA BLA BLA BLA 
BLA BLA BLA BLA BLA BLA BLA BLA BLA BLA BLA BLA BLA BLA BLA BLA BLA BLA BLA BLA 
BLA BLA BLA BLA BLA BLA BLA BLA BLA BLA BLA BLA BLA BLA BLA BLA BLA BLA BLA BLA 
BLA BLA BLA BLA BLA BLA BLA BLA BLA BLA BLA BLA BLA BLA BLA BLA BLA BLA BLA BLA 
BLA BLA BLA BLA BLA BLA BLA BLA BLA BLA BLA BLA BLA BLA BLA BLA BLA BLA BLA BLA 
BLA BLA BLA BLA BLA BLA BLA BLA BLA BLA BLA BLA BLA BLA BLA BLA BLA BLA BLA BLA 
BLA BLA BLA BLA BLA BLA BLA BLA BLA BLA BLA BLA BLA BLA BLA BLA BLA BLA BLA BLA 
BLA BLA BLA BLA BLA BLA BLA BLA BLA BLA BLA BLA BLA BLA BLA BLA BLA BLA BLA BLA 
BLA BLA BLA BLA BLA BLA BLA BLA BLA BLA BLA BLA BLA BLA BLA BLA BLA BLA BLA BLA 
BLA BLA BLA BLA BLA BLA BLA BLA BLA BLA BLA BLA BLA BLA BLA BLA BLA BLA BLA BLA 
BLA BLA BLA BLA BLA BLA BLA BLA BLA BLA BLA BLA BLA BLA BLA BLA BLA BLA BLA BLA 
BLA BLA BLA BLA BLA BLA BLA BLA BLA BLA BLA BLA BLA BLA BLA BLA BLA BLA BLA BLA 
BLA BLA BLA BLA BLA BLA BLA BLA BLA BLA BLA BLA BLA BLA BLA BLA BLA BLA BLA BLA 
BLA BLA BLA BLA BLA BLA BLA BLA BLA BLA BLA BLA BLA BLA BLA BLA BLA BLA BLA BLA 
BLA BLA BLA BLA BLA BLA BLA BLA BLA BLA BLA BLA BLA BLA BLA BLA BLA BLA BLA BLA 
BLA BLA BLA BLA BLA BLA BLA BLA BLA BLA BLA BLA BLA BLA BLA BLA BLA BLA BLA BLA 
BLA BLA BLA BLA BLA BLA BLA BLA BLA BLA BLA BLA BLA BLA BLA BLA BLA BLA BLA BLA 
BLA BLA BLA BLA BLA BLA BLA BLA BLA BLA BLA BLA BLA BLA BLA BLA BLA BLA BLA BLA 
BLA BLA BLA BLA BLA BLA BLA BLA BLA BLA BLA BLA BLA BLA BLA BLA BLA BLA BLA BLA 
BLA BLA BLA BLA BLA BLA BLA BLA BLA BLA BLA BLA BLA BLA BLA BLA BLA BLA BLA BLA 
BLA BLA BLA BLA BLA BLA BLA BLA BLA BLA BLA BLA BLA BLA BLA BLA BLA BLA BLA BLA 
BLA BLA BLA BLA BLA BLA BLA BLA BLA BLA BLA BLA BLA BLA BLA BLA BLA BLA BLA BLA 
BLA BLA BLA BLA BLA BLA BLA BLA BLA BLA BLA BLA BLA BLA BLA BLA BLA BLA BLA BLA 
BLA BLA BLA BLA BLA BLA BLA BLA BLA BLA BLA BLA BLA BLA BLA BLA BLA BLA BLA BLA 
BLA BLA BLA BLA BLA BLA BLA BLA BLA BLA BLA BLA BLA BLA BLA BLA BLA BLA BLA BLA 
BLA BLA BLA BLA BLA BLA BLA BLA BLA BLA BLA BLA BLA BLA BLA BLA BLA BLA BLA BLA 
BLA BLA BLA BLA BLA BLA BLA BLA BLA BLA BLA BLA BLA BLA BLA BLA BLA BLA BLA BLA 
BLA BLA BLA BLA BLA BLA BLA BLA BLA BLA BLA BLA BLA BLA BLA BLA BLA BLA BLA BLA 
BLA BLA BLA BLA BLA BLA BLA BLA BLA BLA BLA BLA BLA BLA BLA BLA BLA BLA BLA BLA 
BLA BLA BLA BLA BLA BLA BLA BLA BLA BLA BLA BLA BLA BLA BLA BLA BLA BLA BLA BLA 
BLA BLA BLA BLA BLA BLA BLA BLA BLA BLA BLA BLA BLA BLA BLA BLA BLA BLA BLA BLA 
BLA BLA BLA BLA BLA BLA BLA BLA BLA BLA BLA BLA BLA BLA BLA BLA BLA BLA BLA BLA 
BLA BLA BLA BLA BLA BLA BLA BLA BLA BLA BLA BLA BLA BLA BLA BLA BLA BLA BLA BLA 
BLA BLA BLA BLA BLA BLA BLA BLA BLA BLA BLA BLA BLA BLA BLA BLA BLA BLA BLA BLA 
BLA BLA BLA BLA BLA BLA BLA BLA BLA BLA BLA BLA BLA BLA BLA BLA BLA BLA BLA BLA 
BLA BLA BLA BLA BLA BLA BLA BLA BLA BLA BLA BLA BLA BLA BLA BLA BLA BLA BLA BLA 
BLA BLA BLA BLA BLA BLA BLA BLA BLA BLA BLA BLA BLA BLA BLA BLA BLA BLA BLA BLA 
BLA BLA BLA BLA BLA BLA BLA BLA BLA BLA BLA BLA BLA BLA BLA BLA BLA BLA BLA BLA 
BLA BLA BLA BLA BLA BLA BLA BLA BLA BLA BLA BLA BLA BLA BLA BLA BLA BLA BLA BLA 
BLA BLA BLA BLA BLA BLA BLA BLA BLA BLA BLA BLA BLA BLA BLA BLA BLA BLA BLA BLA 
BLA BLA BLA BLA BLA BLA BLA BLA BLA BLA BLA BLA BLA BLA BLA BLA BLA BLA BLA BLA 
BLA BLA BLA BLA BLA BLA BLA BLA BLA BLA BLA BLA BLA BLA BLA BLA BLA BLA BLA BLA 
BLA BLA BLA BLA BLA BLA BLA BLA BLA BLA BLA BLA BLA BLA BLA BLA BLA BLA BLA BLA 
BLA BLA BLA BLA BLA BLA BLA BLA BLA BLA BLA BLA BLA BLA BLA BLA BLA BLA BLA BLA 
BLA BLA BLA BLA BLA BLA BLA BLA BLA BLA BLA BLA BLA BLA BLA BLA BLA BLA BLA BLA 
BLA BLA BLA BLA BLA BLA BLA BLA BLA BLA BLA BLA BLA BLA BLA BLA BLA BLA BLA BLA 
BLA BLA BLA BLA BLA BLA BLA BLA BLA BLA BLA BLA BLA BLA BLA BLA BLA BLA BLA BLA 
BLA BLA BLA BLA BLA BLA BLA BLA BLA BLA BLA BLA BLA BLA BLA BLA BLA BLA BLA BLA 
BLA BLA BLA BLA BLA BLA BLA BLA BLA BLA BLA BLA BLA BLA BLA BLA BLA BLA BLA BLA 
BLA BLA BLA BLA BLA BLA BLA BLA BLA BLA BLA BLA BLA BLA BLA BLA BLA BLA BLA BLA 
BLA BLA BLA BLA BLA BLA BLA BLA BLA BLA BLA BLA BLA BLA BLA BLA BLA BLA BLA BLA 
BLA BLA BLA BLA BLA BLA BLA BLA BLA BLA BLA BLA BLA BLA BLA BLA BLA BLA BLA BLA 
BLA BLA BLA BLA BLA BLA BLA BLA BLA BLA BLA BLA BLA BLA BLA BLA BLA BLA BLA BLA 
BLA BLA BLA BLA BLA BLA BLA BLA BLA BLA BLA BLA BLA BLA BLA BLA BLA BLA BLA BLA 
BLA BLA BLA BLA BLA BLA BLA BLA BLA BLA BLA BLA BLA BLA BLA BLA BLA BLA BLA BLA 
BLA BLA BLA BLA BLA BLA BLA BLA BLA BLA BLA BLA BLA BLA BLA BLA BLA BLA BLA BLA 
BLA BLA BLA BLA BLA BLA BLA BLA BLA BLA BLA BLA BLA BLA BLA BLA BLA BLA BLA BLA 
BLA BLA BLA BLA BLA BLA BLA BLA BLA BLA BLA BLA BLA BLA BLA BLA BLA BLA BLA BLA 
BLA BLA BLA BLA BLA BLA BLA BLA BLA BLA BLA BLA BLA BLA BLA BLA BLA BLA BLA BLA 
BLA BLA BLA BLA BLA BLA BLA BLA BLA BLA BLA BLA BLA BLA BLA BLA BLA BLA BLA BLA 
BLA BLA BLA BLA BLA BLA BLA BLA BLA BLA BLA BLA BLA BLA BLA BLA BLA BLA BLA BLA 
BLA BLA BLA BLA BLA BLA BLA BLA BLA BLA BLA BLA BLA BLA BLA BLA BLA BLA BLA BLA 
BLA BLA BLA BLA BLA BLA BLA BLA BLA BLA BLA BLA BLA BLA BLA BLA BLA BLA BLA BLA 
BLA BLA BLA BLA BLA BLA BLA BLA BLA BLA BLA BLA BLA BLA BLA BLA BLA BLA BLA BLA 
BLA BLA BLA BLA BLA BLA BLA BLA BLA BLA BLA BLA BLA BLA BLA BLA BLA BLA BLA BLA 
BLA BLA BLA BLA BLA BLA BLA BLA BLA BLA BLA BLA BLA BLA BLA BLA BLA BLA BLA BLA 
BLA BLA BLA BLA BLA BLA BLA BLA BLA BLA BLA BLA BLA BLA BLA BLA BLA BLA BLA BLA 
BLA BLA BLA BLA BLA BLA BLA BLA BLA BLA BLA BLA BLA BLA BLA BLA BLA BLA BLA BLA 
BLA BLA BLA BLA BLA BLA BLA BLA BLA BLA BLA BLA BLA BLA BLA BLA BLA BLA BLA BLA 
BLA BLA BLA BLA BLA BLA BLA BLA BLA BLA BLA BLA BLA BLA BLA BLA BLA BLA BLA BLA 
BLA BLA BLA BLA BLA BLA BLA BLA BLA BLA BLA BLA BLA BLA BLA BLA BLA BLA BLA BLA 
BLA BLA BLA BLA BLA BLA BLA BLA BLA BLA BLA BLA BLA BLA BLA BLA BLA BLA BLA BLA 
BLA BLA BLA BLA BLA BLA BLA BLA BLA BLA BLA BLA BLA BLA BLA BLA BLA BLA BLA BLA 
BLA BLA BLA BLA BLA BLA BLA BLA BLA BLA BLA BLA BLA BLA BLA BLA BLA BLA BLA BLA 
BLA BLA BLA BLA BLA BLA BLA BLA BLA BLA BLA BLA BLA BLA BLA BLA BLA BLA BLA BLA 
BLA BLA BLA BLA BLA BLA BLA BLA BLA BLA BLA BLA BLA BLA BLA BLA BLA BLA BLA BLA 
BLA BLA BLA BLA BLA BLA BLA BLA BLA BLA BLA BLA BLA BLA BLA BLA BLA BLA BLA BLA 
BLA BLA BLA BLA BLA BLA BLA BLA BLA BLA BLA BLA BLA BLA BLA BLA BLA BLA BLA BLA 
BLA BLA BLA BLA BLA BLA BLA BLA BLA BLA BLA BLA BLA BLA BLA BLA BLA BLA BLA BLA 
BLA BLA BLA BLA BLA BLA BLA BLA BLA BLA BLA BLA BLA BLA BLA BLA BLA BLA BLA BLA 
BLA BLA BLA BLA BLA BLA BLA BLA BLA BLA BLA BLA BLA BLA BLA BLA BLA BLA BLA BLA 
BLA BLA BLA BLA BLA BLA BLA BLA BLA BLA BLA BLA BLA BLA BLA BLA BLA BLA BLA BLA 
BLA BLA BLA BLA BLA BLA BLA BLA BLA BLA BLA BLA BLA BLA BLA BLA BLA BLA BLA BLA 
BLA BLA BLA BLA BLA BLA BLA BLA BLA BLA BLA BLA BLA BLA BLA BLA BLA BLA BLA BLA 
BLA BLA BLA BLA BLA BLA BLA BLA BLA BLA BLA BLA BLA BLA BLA BLA BLA BLA BLA BLA 
BLA BLA BLA BLA BLA BLA BLA BLA BLA BLA BLA BLA BLA BLA BLA BLA BLA BLA BLA BLA 
BLA BLA BLA BLA BLA BLA BLA BLA BLA BLA BLA BLA BLA BLA BLA BLA BLA BLA BLA BLA 
BLA BLA BLA BLA BLA BLA BLA BLA BLA BLA BLA BLA BLA BLA BLA BLA BLA BLA BLA BLA 
BLA BLA BLA BLA BLA BLA BLA BLA BLA BLA BLA BLA BLA BLA BLA BLA BLA BLA BLA BLA 
BLA BLA BLA BLA BLA BLA BLA BLA BLA BLA BLA BLA BLA BLA BLA BLA BLA BLA BLA BLA 
BLA BLA BLA BLA BLA BLA BLA BLA BLA BLA BLA BLA BLA BLA BLA BLA BLA BLA BLA BLA 
BLA BLA BLA BLA BLA BLA BLA BLA BLA BLA BLA BLA BLA BLA BLA BLA BLA BLA BLA BLA 
BLA BLA BLA BLA BLA BLA BLA BLA BLA BLA BLA BLA BLA BLA BLA BLA BLA BLA BLA BLA 
BLA BLA BLA BLA BLA BLA BLA BLA BLA BLA BLA BLA BLA BLA BLA BLA BLA BLA BLA BLA 
BLA BLA BLA BLA BLA BLA BLA BLA BLA BLA BLA BLA BLA BLA BLA BLA BLA BLA BLA BLA 
BLA BLA BLA BLA BLA BLA BLA BLA BLA BLA BLA BLA BLA BLA BLA BLA BLA BLA BLA BLA 
BLA BLA BLA BLA BLA BLA BLA BLA BLA BLA BLA BLA BLA BLA BLA BLA BLA BLA BLA BLA 
BLA BLA BLA BLA BLA BLA BLA BLA BLA BLA BLA BLA BLA BLA BLA BLA BLA BLA BLA BLA 
BLA BLA BLA BLA BLA BLA BLA BLA BLA BLA BLA BLA BLA BLA BLA BLA BLA BLA BLA BLA 
BLA BLA BLA BLA BLA BLA BLA BLA BLA BLA BLA BLA BLA BLA BLA BLA BLA BLA BLA BLA 
BLA BLA BLA BLA BLA BLA BLA BLA BLA BLA BLA BLA BLA BLA BLA BLA BLA BLA BLA BLA 
BLA BLA BLA BLA BLA BLA BLA BLA BLA BLA BLA BLA BLA BLA BLA BLA BLA BLA BLA BLA 
BLA BLA BLA BLA BLA BLA BLA BLA BLA BLA BLA BLA BLA BLA BLA BLA BLA BLA BLA BLA 
BLA BLA BLA BLA BLA BLA BLA BLA BLA BLA BLA BLA BLA BLA BLA BLA BLA BLA BLA BLA 
BLA BLA BLA BLA BLA BLA BLA BLA BLA BLA BLA BLA BLA BLA BLA BLA BLA BLA BLA BLA 
BLA BLA BLA BLA BLA BLA BLA BLA BLA BLA BLA BLA BLA BLA BLA BLA BLA BLA BLA BLA 
BLA BLA BLA BLA BLA BLA BLA BLA BLA BLA BLA BLA BLA BLA BLA BLA BLA BLA BLA BLA 
BLA BLA BLA BLA BLA BLA BLA BLA BLA BLA BLA BLA BLA BLA BLA BLA BLA BLA BLA BLA 
BLA BLA BLA BLA BLA BLA BLA BLA BLA BLA BLA BLA BLA BLA BLA BLA BLA BLA BLA BLA 
BLA BLA BLA BLA BLA BLA BLA BLA BLA BLA BLA BLA BLA BLA BLA BLA BLA BLA BLA BLA 
BLA BLA BLA BLA BLA BLA BLA BLA BLA BLA BLA BLA BLA BLA BLA BLA BLA BLA BLA BLA 
BLA BLA BLA BLA BLA BLA BLA BLA BLA BLA BLA BLA BLA BLA BLA BLA BLA BLA BLA BLA 
BLA BLA BLA BLA BLA BLA BLA BLA BLA BLA BLA BLA BLA BLA BLA BLA BLA BLA BLA BLA 
BLA BLA BLA BLA BLA BLA BLA BLA BLA BLA BLA BLA BLA BLA BLA BLA BLA BLA BLA BLA 
BLA BLA BLA BLA BLA BLA BLA BLA BLA BLA BLA BLA BLA BLA BLA BLA BLA BLA BLA BLA 
BLA BLA BLA BLA BLA BLA BLA BLA BLA BLA BLA BLA BLA BLA BLA BLA BLA BLA BLA BLA 
BLA BLA BLA BLA BLA BLA BLA BLA BLA BLA BLA BLA BLA BLA BLA BLA BLA BLA BLA BLA 
BLA BLA BLA BLA BLA BLA BLA BLA BLA BLA BLA BLA BLA BLA BLA BLA BLA BLA BLA BLA 
BLA BLA BLA BLA BLA BLA BLA BLA BLA BLA BLA BLA BLA BLA BLA BLA BLA BLA BLA BLA 
BLA BLA BLA BLA BLA BLA BLA BLA BLA BLA BLA BLA BLA BLA BLA BLA BLA BLA BLA BLA 
BLA BLA BLA BLA BLA BLA BLA BLA BLA BLA BLA BLA BLA BLA BLA BLA BLA BLA BLA BLA 
BLA BLA BLA BLA BLA BLA BLA BLA BLA BLA BLA BLA BLA BLA BLA BLA BLA BLA BLA BLA 
BLA BLA BLA BLA BLA BLA BLA BLA BLA BLA BLA BLA BLA BLA BLA BLA BLA BLA BLA BLA 
BLA BLA BLA BLA BLA BLA BLA BLA BLA BLA BLA BLA BLA BLA BLA BLA BLA BLA BLA BLA 
BLA BLA BLA BLA BLA BLA BLA BLA BLA BLA BLA BLA BLA BLA BLA BLA BLA BLA BLA BLA 
BLA BLA BLA BLA BLA BLA BLA BLA BLA BLA BLA BLA BLA BLA BLA BLA BLA BLA BLA BLA 
BLA BLA BLA BLA BLA BLA BLA BLA BLA BLA BLA BLA BLA BLA BLA BLA BLA BLA BLA BLA 
BLA BLA BLA BLA BLA BLA BLA BLA BLA BLA BLA BLA BLA BLA BLA BLA BLA BLA BLA BLA 
BLA BLA BLA BLA BLA BLA BLA BLA BLA BLA BLA BLA BLA BLA BLA BLA BLA BLA BLA BLA 
BLA BLA BLA BLA BLA BLA BLA BLA BLA BLA BLA BLA BLA BLA BLA BLA BLA BLA BLA BLA 
BLA BLA BLA BLA BLA BLA BLA BLA BLA BLA BLA BLA BLA BLA BLA BLA BLA BLA BLA BLA 
BLA BLA BLA BLA BLA BLA BLA BLA BLA BLA BLA BLA BLA BLA BLA BLA BLA BLA BLA BLA 
BLA BLA BLA BLA BLA BLA BLA BLA BLA BLA BLA BLA BLA BLA BLA BLA BLA BLA BLA BLA 
BLA BLA BLA BLA BLA BLA BLA BLA BLA BLA BLA BLA BLA BLA BLA BLA BLA BLA BLA BLA 
BLA BLA BLA BLA BLA BLA BLA BLA BLA BLA BLA BLA BLA BLA BLA BLA BLA BLA BLA BLA 
BLA BLA BLA BLA BLA BLA BLA BLA BLA BLA BLA BLA BLA BLA BLA BLA BLA BLA BLA BLA 
BLA BLA BLA BLA BLA BLA BLA BLA BLA BLA BLA BLA BLA BLA BLA BLA BLA BLA BLA BLA 
BLA BLA BLA BLA BLA BLA BLA BLA BLA BLA BLA BLA BLA BLA BLA BLA BLA BLA BLA BLA 
BLA BLA BLA BLA BLA BLA BLA BLA BLA BLA BLA BLA BLA BLA BLA BLA BLA BLA BLA BLA 
BLA BLA BLA BLA BLA BLA BLA BLA BLA BLA BLA BLA BLA BLA BLA BLA BLA BLA BLA BLA 
BLA BLA BLA BLA BLA BLA BLA BLA BLA BLA BLA BLA BLA BLA BLA BLA BLA BLA BLA BLA 
BLA BLA BLA BLA BLA BLA BLA BLA BLA BLA BLA BLA BLA BLA BLA BLA BLA BLA BLA BLA 
BLA BLA BLA BLA BLA BLA BLA BLA BLA BLA BLA BLA BLA BLA BLA BLA BLA BLA BLA BLA 
BLA BLA BLA BLA BLA BLA BLA BLA BLA BLA BLA BLA BLA BLA BLA BLA BLA BLA BLA BLA 
BLA BLA BLA BLA BLA BLA BLA BLA BLA BLA BLA BLA BLA BLA BLA BLA BLA BLA BLA BLA 
BLA BLA BLA BLA BLA BLA BLA BLA BLA BLA BLA BLA BLA BLA BLA BLA BLA BLA BLA BLA 
BLA BLA BLA BLA BLA BLA BLA BLA BLA BLA BLA BLA BLA BLA BLA BLA BLA BLA BLA BLA 
BLA BLA BLA BLA BLA BLA BLA BLA BLA BLA BLA BLA BLA BLA BLA BLA BLA BLA BLA BLA 
BLA BLA BLA BLA BLA BLA BLA BLA BLA BLA BLA BLA BLA BLA BLA BLA BLA BLA BLA BLA 
BLA BLA BLA BLA BLA BLA BLA BLA BLA BLA BLA BLA BLA BLA BLA BLA BLA BLA BLA BLA 
BLA BLA BLA BLA BLA BLA BLA BLA BLA BLA BLA BLA BLA BLA BLA BLA BLA BLA BLA BLA 
BLA BLA BLA BLA BLA BLA BLA BLA BLA BLA BLA BLA BLA BLA BLA BLA BLA BLA BLA BLA 
BLA BLA BLA BLA BLA BLA BLA BLA BLA BLA BLA BLA BLA BLA BLA BLA BLA BLA BLA BLA 
BLA BLA BLA BLA BLA BLA BLA BLA BLA BLA BLA BLA BLA BLA BLA BLA BLA BLA BLA BLA 
BLA BLA BLA BLA BLA BLA BLA BLA BLA BLA BLA BLA BLA BLA BLA BLA BLA BLA BLA BLA 
BLA BLA BLA BLA BLA BLA BLA BLA BLA BLA BLA BLA BLA BLA BLA BLA BLA BLA BLA BLA 
BLA BLA BLA BLA BLA BLA BLA BLA BLA BLA BLA BLA BLA BLA BLA BLA BLA BLA BLA BLA 
BLA BLA BLA BLA BLA BLA BLA BLA BLA BLA BLA BLA BLA BLA BLA BLA BLA BLA BLA BLA 
BLA BLA BLA BLA BLA BLA BLA BLA BLA BLA BLA BLA BLA BLA BLA BLA BLA BLA BLA BLA 
BLA BLA BLA BLA BLA BLA BLA BLA BLA BLA BLA BLA BLA BLA BLA BLA BLA BLA BLA BLA 
BLA BLA BLA BLA BLA BLA BLA BLA BLA BLA BLA BLA BLA BLA BLA BLA BLA BLA BLA BLA 
BLA BLA BLA BLA BLA BLA BLA BLA BLA BLA BLA BLA BLA BLA BLA BLA BLA BLA BLA BLA 
BLA BLA BLA BLA BLA BLA BLA BLA BLA BLA BLA BLA BLA BLA BLA BLA BLA BLA BLA BLA 
BLA BLA BLA BLA BLA BLA BLA BLA BLA BLA BLA BLA BLA BLA BLA BLA BLA BLA BLA BLA 
BLA BLA BLA BLA BLA BLA BLA BLA BLA BLA BLA BLA BLA BLA BLA BLA BLA BLA BLA BLA 
BLA BLA BLA BLA BLA BLA BLA BLA BLA BLA BLA BLA BLA BLA BLA BLA BLA BLA BLA BLA 
BLA BLA BLA BLA BLA BLA BLA BLA BLA BLA BLA BLA BLA BLA BLA BLA BLA BLA BLA BLA 
BLA BLA BLA BLA BLA BLA BLA BLA BLA BLA BLA BLA BLA BLA BLA BLA BLA BLA BLA BLA 
BLA BLA BLA BLA BLA BLA BLA BLA BLA BLA BLA BLA BLA BLA BLA BLA BLA BLA BLA BLA 
BLA BLA BLA BLA BLA BLA BLA BLA BLA BLA BLA BLA BLA BLA BLA BLA BLA BLA BLA BLA 
BLA BLA BLA BLA BLA BLA BLA BLA BLA BLA BLA BLA BLA BLA BLA BLA BLA BLA BLA BLA 
BLA BLA BLA BLA BLA BLA BLA BLA BLA BLA BLA BLA BLA BLA BLA BLA BLA BLA BLA BLA 
BLA BLA BLA BLA BLA BLA BLA BLA BLA BLA BLA BLA BLA BLA BLA BLA BLA BLA BLA BLA 
BLA BLA BLA BLA BLA BLA BLA BLA BLA BLA BLA BLA BLA BLA BLA BLA BLA BLA BLA BLA 
BLA BLA BLA BLA BLA BLA BLA BLA BLA BLA BLA BLA BLA BLA BLA BLA BLA BLA BLA BLA 
BLA BLA BLA BLA BLA BLA BLA BLA BLA BLA BLA BLA BLA BLA BLA BLA BLA BLA BLA BLA 
BLA BLA BLA BLA BLA BLA BLA BLA BLA BLA BLA BLA BLA BLA BLA BLA BLA BLA BLA BLA 
BLA BLA BLA BLA BLA BLA BLA BLA BLA BLA BLA BLA BLA BLA BLA BLA BLA BLA BLA BLA 
BLA BLA BLA BLA BLA BLA BLA BLA BLA BLA BLA BLA BLA BLA BLA BLA BLA BLA BLA BLA 
BLA BLA BLA BLA BLA BLA BLA BLA BLA BLA BLA BLA BLA BLA BLA BLA BLA BLA BLA BLA 
BLA BLA BLA BLA BLA BLA BLA BLA BLA BLA BLA BLA BLA BLA BLA BLA BLA BLA BLA BLA 
BLA BLA BLA BLA BLA BLA BLA BLA BLA BLA BLA BLA BLA BLA BLA BLA BLA BLA BLA BLA 
BLA BLA BLA BLA BLA BLA BLA BLA BLA BLA BLA BLA BLA BLA BLA BLA BLA BLA BLA BLA 
BLA BLA BLA BLA BLA BLA BLA BLA BLA BLA BLA BLA BLA BLA BLA BLA BLA BLA BLA BLA 
BLA BLA BLA BLA BLA BLA BLA BLA BLA BLA BLA BLA BLA BLA BLA BLA BLA BLA BLA BLA 
BLA BLA BLA BLA BLA BLA BLA BLA BLA BLA BLA BLA BLA BLA BLA BLA BLA BLA BLA BLA 
BLA BLA BLA BLA BLA BLA BLA BLA BLA BLA BLA BLA BLA BLA BLA BLA BLA BLA BLA BLA 
BLA BLA BLA BLA BLA BLA BLA BLA BLA BLA BLA BLA BLA BLA BLA BLA BLA BLA BLA BLA 
BLA BLA BLA BLA BLA BLA BLA BLA BLA BLA BLA BLA BLA BLA BLA BLA BLA BLA BLA BLA 
BLA BLA BLA BLA BLA BLA BLA BLA BLA BLA BLA BLA BLA BLA BLA BLA BLA BLA BLA BLA 
BLA BLA BLA BLA BLA BLA BLA BLA BLA BLA BLA BLA BLA BLA BLA BLA BLA BLA BLA BLA 
BLA BLA BLA BLA BLA BLA BLA BLA BLA BLA BLA BLA BLA BLA BLA BLA BLA BLA BLA BLA 
BLA BLA BLA BLA BLA BLA BLA BLA BLA BLA BLA BLA BLA BLA BLA BLA BLA BLA BLA BLA 
BLA BLA BLA BLA BLA BLA BLA BLA BLA BLA BLA BLA BLA BLA BLA BLA BLA BLA BLA BLA 
BLA BLA BLA BLA BLA BLA BLA BLA BLA BLA BLA BLA BLA BLA BLA BLA BLA BLA BLA BLA 
BLA BLA BLA BLA BLA BLA BLA BLA BLA BLA BLA BLA BLA BLA BLA BLA BLA BLA BLA BLA 
BLA BLA BLA BLA BLA BLA BLA BLA BLA BLA BLA BLA BLA BLA BLA BLA BLA BLA BLA BLA 
BLA BLA BLA BLA BLA BLA BLA BLA BLA BLA BLA BLA BLA BLA BLA BLA BLA BLA BLA BLA 
BLA BLA BLA BLA BLA BLA BLA BLA BLA BLA BLA BLA BLA BLA BLA BLA BLA BLA BLA BLA 
BLA BLA BLA BLA BLA BLA BLA BLA BLA BLA BLA BLA BLA BLA BLA BLA BLA BLA BLA BLA 
BLA BLA BLA BLA BLA BLA BLA BLA BLA BLA BLA BLA BLA BLA BLA BLA BLA BLA BLA BLA 
BLA BLA BLA BLA BLA BLA BLA BLA BLA BLA BLA BLA BLA BLA BLA BLA BLA BLA BLA BLA 
BLA BLA BLA BLA BLA BLA BLA BLA BLA BLA BLA BLA BLA BLA BLA BLA BLA BLA BLA BLA 
BLA BLA BLA BLA BLA BLA BLA BLA BLA BLA BLA BLA BLA BLA BLA BLA BLA BLA BLA BLA 
BLA BLA BLA BLA BLA BLA BLA BLA BLA BLA BLA BLA BLA BLA BLA BLA BLA BLA BLA BLA 
BLA BLA BLA BLA BLA BLA BLA BLA BLA BLA BLA BLA BLA BLA BLA BLA BLA BLA BLA BLA 
BLA BLA BLA BLA BLA BLA BLA BLA BLA BLA BLA BLA BLA BLA BLA BLA BLA BLA BLA BLA 
BLA BLA BLA BLA BLA BLA BLA BLA BLA BLA BLA BLA BLA BLA BLA BLA BLA BLA BLA BLA 
BLA BLA BLA BLA BLA BLA BLA BLA BLA BLA BLA BLA BLA BLA BLA BLA BLA BLA BLA BLA 
BLA BLA BLA BLA BLA BLA BLA BLA BLA BLA BLA BLA BLA BLA BLA BLA BLA BLA BLA BLA 
BLA BLA BLA BLA BLA BLA BLA BLA BLA BLA BLA BLA BLA BLA BLA BLA BLA BLA BLA BLA 
BLA BLA BLA BLA BLA BLA BLA BLA BLA BLA BLA BLA BLA BLA BLA BLA BLA BLA BLA BLA 
BLA BLA BLA BLA BLA BLA BLA BLA BLA BLA BLA BLA BLA BLA BLA BLA BLA BLA BLA BLA 
BLA BLA BLA BLA BLA BLA BLA BLA BLA BLA BLA BLA BLA BLA BLA BLA BLA BLA BLA BLA 
BLA BLA BLA BLA BLA BLA BLA BLA BLA BLA BLA BLA BLA BLA BLA BLA BLA BLA BLA BLA 
BLA BLA BLA BLA BLA BLA BLA BLA BLA BLA BLA BLA BLA BLA BLA BLA BLA BLA BLA BLA 
BLA BLA BLA BLA BLA BLA BLA BLA BLA BLA BLA BLA BLA BLA BLA BLA BLA BLA BLA BLA 
BLA BLA BLA BLA BLA BLA BLA BLA BLA BLA BLA BLA BLA BLA BLA BLA BLA BLA BLA BLA 
BLA BLA BLA BLA BLA BLA BLA BLA BLA BLA BLA BLA BLA BLA BLA BLA BLA BLA BLA BLA 
BLA BLA BLA BLA BLA BLA BLA BLA BLA BLA BLA BLA BLA BLA BLA BLA BLA BLA BLA BLA 
BLA BLA BLA BLA BLA BLA BLA BLA BLA BLA BLA BLA BLA BLA BLA BLA BLA BLA BLA BLA 
BLA BLA BLA BLA BLA BLA BLA BLA BLA BLA BLA BLA BLA BLA BLA BLA BLA BLA BLA BLA 
BLA BLA BLA BLA BLA BLA BLA BLA BLA BLA BLA BLA BLA BLA BLA BLA BLA BLA BLA BLA 
BLA BLA BLA BLA BLA BLA BLA BLA BLA BLA BLA BLA BLA BLA BLA BLA BLA BLA BLA BLA 
BLA BLA BLA BLA BLA BLA BLA BLA BLA BLA BLA BLA BLA BLA BLA BLA BLA BLA BLA BLA 
BLA BLA BLA BLA BLA BLA BLA BLA BLA BLA BLA BLA BLA BLA BLA BLA BLA BLA BLA BLA 
BLA BLA BLA BLA BLA BLA BLA BLA BLA BLA BLA BLA BLA BLA BLA BLA BLA BLA BLA BLA 
BLA BLA BLA BLA BLA BLA BLA BLA BLA BLA BLA BLA BLA BLA BLA BLA BLA BLA BLA BLA 
BLA BLA BLA BLA BLA BLA BLA BLA BLA BLA BLA BLA BLA BLA BLA BLA BLA BLA BLA BLA 
BLA BLA BLA BLA BLA BLA BLA BLA BLA BLA BLA BLA BLA BLA BLA BLA BLA BLA BLA BLA 
BLA BLA BLA BLA BLA BLA BLA BLA BLA BLA BLA BLA BLA BLA BLA BLA BLA BLA BLA BLA 
BLA BLA BLA BLA BLA BLA BLA BLA BLA BLA BLA BLA BLA BLA BLA BLA BLA BLA BLA BLA 
BLA BLA BLA BLA BLA BLA BLA BLA BLA BLA BLA BLA BLA BLA BLA BLA BLA BLA BLA BLA 
BLA BLA BLA BLA BLA BLA BLA BLA BLA BLA BLA BLA BLA BLA BLA BLA BLA BLA BLA BLA 
BLA BLA BLA BLA BLA BLA BLA BLA BLA BLA BLA BLA BLA BLA BLA BLA BLA BLA BLA BLA 
BLA BLA BLA BLA BLA BLA BLA BLA BLA BLA BLA BLA BLA BLA BLA BLA BLA BLA BLA BLA 
BLA BLA BLA BLA BLA BLA BLA BLA BLA BLA BLA BLA BLA BLA BLA BLA BLA BLA BLA BLA 
BLA BLA BLA BLA BLA BLA BLA BLA BLA BLA BLA BLA BLA BLA BLA BLA BLA BLA BLA BLA 
BLA BLA BLA BLA BLA BLA BLA BLA BLA BLA BLA BLA BLA BLA BLA BLA BLA BLA BLA BLA 
BLA BLA BLA BLA BLA BLA BLA BLA BLA BLA BLA BLA BLA BLA BLA BLA BLA BLA BLA BLA 
BLA BLA BLA BLA BLA BLA BLA BLA BLA BLA BLA BLA BLA BLA BLA BLA BLA BLA BLA BLA 
BLA BLA BLA BLA BLA BLA BLA BLA BLA BLA BLA BLA BLA BLA BLA BLA BLA BLA BLA BLA 
BLA BLA BLA BLA BLA BLA BLA BLA BLA BLA BLA BLA BLA BLA BLA BLA BLA BLA BLA BLA 
BLA BLA BLA BLA BLA BLA BLA BLA BLA BLA BLA BLA BLA BLA BLA BLA BLA BLA BLA BLA 
BLA BLA BLA BLA BLA BLA BLA BLA BLA BLA BLA BLA BLA BLA BLA BLA BLA BLA BLA BLA 
BLA BLA BLA BLA BLA BLA BLA BLA BLA BLA BLA BLA BLA BLA BLA BLA BLA BLA BLA BLA 
BLA BLA BLA BLA BLA BLA BLA BLA BLA BLA BLA BLA BLA BLA BLA BLA BLA BLA BLA BLA 
BLA BLA BLA BLA BLA BLA BLA BLA BLA BLA BLA BLA BLA BLA BLA BLA BLA BLA BLA BLA 
BLA BLA BLA BLA BLA BLA BLA BLA BLA BLA BLA BLA BLA BLA BLA BLA BLA BLA BLA BLA 
BLA BLA BLA BLA BLA BLA BLA BLA BLA BLA BLA BLA BLA BLA BLA BLA BLA BLA BLA BLA 
BLA BLA BLA BLA BLA BLA BLA BLA BLA BLA BLA BLA BLA BLA BLA BLA BLA BLA BLA BLA 
BLA BLA BLA BLA BLA BLA BLA BLA BLA BLA BLA BLA BLA BLA BLA BLA BLA BLA BLA BLA 
BLA BLA BLA BLA BLA BLA BLA BLA BLA BLA BLA BLA BLA BLA BLA BLA BLA BLA BLA BLA 
BLA BLA BLA BLA BLA BLA BLA BLA BLA BLA BLA BLA BLA BLA BLA BLA BLA BLA BLA BLA 
BLA BLA BLA BLA BLA BLA BLA BLA BLA BLA BLA BLA BLA BLA BLA BLA BLA BLA BLA BLA 
BLA BLA BLA BLA BLA BLA BLA BLA BLA BLA BLA BLA BLA BLA BLA BLA BLA BLA BLA BLA 
BLA BLA BLA BLA BLA BLA BLA BLA BLA BLA BLA BLA BLA BLA BLA BLA BLA BLA BLA BLA 
BLA BLA BLA BLA BLA BLA BLA BLA BLA BLA BLA BLA BLA BLA BLA BLA BLA BLA BLA BLA 
BLA BLA BLA BLA BLA BLA BLA BLA BLA BLA BLA BLA BLA BLA BLA BLA BLA BLA BLA BLA 
BLA BLA BLA BLA BLA BLA BLA BLA BLA BLA BLA BLA BLA BLA BLA BLA BLA BLA BLA BLA 
BLA BLA BLA BLA BLA BLA BLA BLA BLA BLA BLA BLA BLA BLA BLA BLA BLA BLA BLA BLA 
BLA BLA BLA BLA BLA BLA BLA BLA BLA BLA BLA BLA BLA BLA BLA BLA BLA BLA BLA BLA 
BLA BLA BLA BLA BLA BLA BLA BLA BLA BLA BLA BLA BLA BLA BLA BLA BLA BLA BLA BLA 
BLA BLA BLA BLA BLA BLA BLA BLA BLA BLA BLA BLA BLA BLA BLA BLA BLA BLA BLA BLA 
BLA BLA BLA BLA BLA BLA BLA BLA BLA BLA BLA BLA BLA BLA BLA BLA BLA BLA BLA BLA 
BLA BLA BLA BLA BLA BLA BLA BLA BLA BLA BLA BLA BLA BLA BLA BLA BLA BLA BLA BLA 
BLA BLA BLA BLA BLA BLA BLA BLA BLA BLA BLA BLA BLA BLA BLA BLA BLA BLA BLA BLA 
BLA BLA BLA BLA BLA BLA BLA BLA BLA BLA BLA BLA BLA BLA BLA BLA BLA BLA BLA BLA 
BLA BLA BLA BLA BLA BLA BLA BLA BLA BLA BLA BLA BLA BLA BLA BLA BLA BLA BLA BLA 
BLA BLA BLA BLA BLA BLA BLA BLA BLA BLA BLA BLA BLA BLA BLA BLA BLA BLA BLA BLA 
BLA BLA BLA BLA BLA BLA BLA BLA BLA BLA BLA BLA BLA BLA BLA BLA BLA BLA BLA BLA 
BLA BLA BLA BLA BLA BLA BLA BLA BLA BLA BLA BLA BLA BLA BLA BLA BLA BLA BLA BLA 
BLA BLA BLA BLA BLA BLA BLA BLA BLA BLA BLA BLA BLA BLA BLA BLA BLA BLA BLA BLA 
BLA BLA BLA BLA BLA BLA BLA BLA BLA BLA BLA BLA BLA BLA BLA BLA BLA BLA BLA BLA 
BLA BLA BLA BLA BLA BLA BLA BLA BLA BLA BLA BLA BLA BLA BLA BLA BLA BLA BLA BLA 
BLA BLA BLA BLA BLA BLA BLA BLA BLA BLA BLA BLA BLA BLA BLA BLA BLA BLA BLA BLA 
BLA BLA BLA BLA BLA BLA BLA BLA BLA BLA BLA BLA BLA BLA BLA BLA BLA BLA BLA BLA 
BLA BLA BLA BLA BLA BLA BLA BLA BLA BLA BLA BLA BLA BLA BLA BLA BLA BLA BLA BLA 
BLA BLA BLA BLA BLA BLA BLA BLA BLA BLA BLA BLA BLA BLA BLA BLA BLA BLA BLA BLA 
BLA BLA BLA BLA BLA BLA BLA BLA BLA BLA BLA BLA BLA BLA BLA BLA BLA BLA BLA BLA 
BLA BLA BLA BLA BLA BLA BLA BLA BLA BLA BLA BLA BLA BLA BLA BLA BLA BLA BLA BLA 
BLA BLA BLA BLA BLA BLA BLA BLA BLA BLA BLA BLA BLA BLA BLA BLA BLA BLA BLA BLA 
BLA BLA BLA BLA BLA BLA BLA BLA BLA BLA BLA BLA BLA BLA BLA BLA BLA BLA BLA BLA 
BLA BLA BLA BLA BLA BLA BLA BLA BLA BLA BLA BLA BLA BLA BLA BLA BLA BLA BLA BLA 
BLA BLA BLA BLA BLA BLA BLA BLA BLA BLA BLA BLA BLA BLA BLA BLA BLA BLA BLA BLA 
BLA BLA BLA BLA BLA BLA BLA BLA BLA BLA BLA BLA BLA BLA BLA BLA BLA BLA BLA BLA 
BLA BLA BLA BLA BLA BLA BLA BLA BLA BLA BLA BLA BLA BLA BLA BLA BLA BLA BLA BLA 
BLA BLA BLA BLA BLA BLA BLA BLA BLA BLA BLA BLA BLA BLA BLA BLA BLA BLA BLA BLA 
BLA BLA BLA BLA BLA BLA BLA BLA BLA BLA BLA BLA BLA BLA BLA BLA BLA BLA BLA BLA 
BLA BLA BLA BLA BLA BLA BLA BLA BLA BLA BLA BLA BLA BLA BLA BLA BLA BLA BLA BLA 
BLA BLA BLA BLA BLA BLA BLA BLA BLA BLA BLA BLA BLA BLA BLA BLA BLA BLA BLA BLA 
BLA BLA BLA BLA BLA BLA BLA BLA BLA BLA BLA BLA BLA BLA BLA BLA BLA BLA BLA BLA 
BLA BLA BLA BLA BLA BLA BLA BLA BLA BLA BLA BLA BLA BLA BLA BLA BLA BLA BLA BLA 
BLA BLA BLA BLA BLA BLA BLA BLA BLA BLA BLA BLA BLA BLA BLA BLA BLA BLA BLA BLA 
BLA BLA BLA BLA BLA BLA BLA BLA BLA BLA BLA BLA BLA BLA BLA BLA BLA BLA BLA BLA 
BLA BLA BLA BLA BLA BLA BLA BLA BLA BLA BLA BLA BLA BLA BLA BLA BLA BLA BLA BLA 
BLA BLA BLA BLA BLA BLA BLA BLA BLA BLA BLA BLA BLA BLA BLA BLA BLA BLA BLA BLA 
BLA BLA BLA BLA BLA BLA BLA BLA BLA BLA BLA BLA BLA BLA BLA BLA BLA BLA BLA BLA 
BLA BLA BLA BLA BLA BLA BLA BLA BLA BLA BLA BLA BLA BLA BLA BLA BLA BLA BLA BLA 
BLA BLA BLA BLA BLA BLA BLA BLA BLA BLA BLA BLA BLA BLA BLA BLA BLA BLA BLA BLA 
BLA BLA BLA BLA BLA BLA BLA BLA BLA BLA BLA BLA BLA BLA BLA BLA BLA BLA BLA BLA 
BLA BLA BLA BLA BLA BLA BLA BLA BLA BLA BLA BLA BLA BLA BLA BLA BLA BLA BLA BLA 
BLA BLA BLA BLA BLA BLA BLA BLA BLA BLA BLA BLA BLA BLA BLA BLA BLA BLA BLA BLA 
BLA BLA BLA BLA BLA BLA BLA BLA BLA BLA BLA BLA BLA BLA BLA BLA BLA BLA BLA BLA 
BLA BLA BLA BLA BLA BLA BLA BLA BLA BLA BLA BLA BLA BLA BLA BLA BLA BLA BLA BLA 
BLA BLA BLA BLA BLA BLA BLA BLA BLA BLA BLA BLA BLA BLA BLA BLA BLA BLA BLA BLA 
BLA BLA BLA BLA BLA BLA BLA BLA BLA BLA BLA BLA BLA BLA BLA BLA BLA BLA BLA BLA 
BLA BLA BLA BLA BLA BLA BLA BLA BLA BLA BLA BLA BLA BLA BLA BLA BLA BLA BLA BLA 
BLA BLA BLA BLA BLA BLA BLA BLA BLA BLA BLA BLA BLA BLA BLA BLA BLA BLA BLA BLA 
BLA BLA BLA BLA BLA BLA BLA BLA BLA BLA BLA BLA BLA BLA BLA BLA BLA BLA BLA BLA 
BLA BLA BLA BLA BLA BLA BLA BLA BLA BLA BLA BLA BLA BLA BLA BLA BLA BLA BLA BLA 
BLA BLA BLA BLA BLA BLA BLA BLA BLA BLA BLA BLA BLA BLA BLA BLA BLA BLA BLA BLA 
BLA BLA BLA BLA BLA BLA BLA BLA BLA BLA BLA BLA BLA BLA BLA BLA BLA BLA BLA BLA 
BLA BLA BLA BLA BLA BLA BLA BLA BLA BLA BLA BLA BLA BLA BLA BLA BLA BLA BLA BLA 
BLA BLA BLA BLA BLA BLA BLA BLA BLA BLA BLA BLA BLA BLA BLA BLA BLA BLA BLA BLA 
BLA BLA BLA BLA BLA BLA BLA BLA BLA BLA BLA BLA BLA BLA BLA BLA BLA BLA BLA BLA 
BLA BLA BLA BLA BLA BLA BLA BLA BLA BLA BLA BLA BLA BLA BLA BLA BLA BLA BLA BLA 
BLA BLA BLA BLA BLA BLA BLA BLA BLA BLA BLA BLA BLA BLA BLA BLA BLA BLA BLA BLA 
BLA BLA BLA BLA BLA BLA BLA BLA BLA BLA BLA BLA BLA BLA BLA BLA BLA BLA BLA BLA 
BLA BLA BLA BLA BLA BLA BLA BLA BLA BLA BLA BLA BLA BLA BLA BLA BLA BLA BLA BLA 
BLA BLA BLA BLA BLA BLA BLA BLA BLA BLA BLA BLA BLA BLA BLA BLA BLA BLA BLA BLA 
BLA BLA BLA BLA BLA BLA BLA BLA BLA BLA BLA BLA BLA BLA BLA BLA BLA BLA BLA BLA 
BLA BLA BLA BLA BLA BLA BLA BLA BLA BLA BLA BLA BLA BLA BLA BLA BLA BLA BLA BLA 
BLA BLA BLA BLA BLA BLA BLA BLA BLA BLA BLA BLA BLA BLA BLA BLA BLA BLA BLA BLA 
BLA BLA BLA BLA BLA BLA BLA BLA BLA BLA BLA BLA BLA BLA BLA BLA BLA BLA BLA BLA 
BLA BLA BLA BLA BLA BLA BLA BLA BLA BLA BLA BLA BLA BLA BLA BLA BLA BLA BLA BLA 
BLA BLA BLA BLA BLA BLA BLA BLA BLA BLA BLA BLA BLA BLA BLA BLA BLA BLA BLA BLA 
BLA BLA BLA BLA BLA BLA BLA BLA BLA BLA BLA BLA BLA BLA BLA BLA BLA BLA BLA BLA 
BLA BLA BLA BLA BLA BLA BLA BLA BLA BLA BLA BLA BLA BLA BLA BLA BLA BLA BLA BLA 
BLA BLA BLA BLA BLA BLA BLA BLA BLA BLA BLA BLA BLA BLA BLA BLA BLA BLA BLA BLA 
BLA BLA BLA BLA BLA BLA BLA BLA BLA BLA BLA BLA BLA BLA BLA BLA BLA BLA BLA BLA 
BLA BLA BLA BLA BLA BLA BLA BLA BLA BLA BLA BLA BLA BLA BLA BLA BLA BLA BLA BLA 
BLA BLA BLA BLA BLA BLA BLA BLA BLA BLA BLA BLA BLA BLA BLA BLA BLA BLA BLA BLA 
BLA BLA BLA BLA BLA BLA BLA BLA BLA BLA BLA BLA BLA BLA BLA BLA BLA BLA BLA BLA 
BLA BLA BLA BLA BLA BLA BLA BLA BLA BLA BLA BLA BLA BLA BLA BLA BLA BLA BLA BLA 
BLA BLA BLA BLA BLA BLA BLA BLA BLA BLA BLA BLA BLA BLA BLA BLA BLA BLA BLA BLA 
BLA BLA BLA BLA BLA BLA BLA BLA BLA BLA BLA BLA BLA BLA BLA BLA BLA BLA BLA BLA 
BLA BLA BLA BLA BLA BLA BLA BLA BLA BLA BLA BLA BLA BLA BLA BLA BLA BLA BLA BLA 
BLA BLA BLA BLA BLA BLA BLA BLA BLA BLA BLA BLA BLA BLA BLA BLA BLA BLA BLA BLA 
BLA BLA BLA BLA BLA BLA BLA BLA BLA BLA BLA BLA BLA BLA BLA BLA BLA BLA BLA BLA 
BLA BLA BLA BLA BLA BLA BLA BLA BLA BLA BLA BLA BLA BLA BLA BLA BLA BLA BLA BLA 
BLA BLA BLA BLA BLA BLA BLA BLA BLA BLA BLA BLA BLA BLA BLA BLA BLA BLA BLA BLA 
BLA BLA BLA BLA BLA BLA BLA BLA BLA BLA BLA BLA BLA BLA BLA BLA BLA BLA BLA BLA 
BLA BLA BLA BLA BLA BLA BLA BLA BLA BLA BLA BLA BLA BLA BLA BLA BLA BLA BLA BLA 
BLA BLA BLA BLA BLA BLA BLA BLA BLA BLA BLA BLA BLA BLA BLA BLA BLA BLA BLA BLA 
BLA BLA BLA BLA BLA BLA BLA BLA BLA BLA BLA BLA BLA BLA BLA BLA BLA BLA BLA BLA 
BLA BLA BLA BLA BLA BLA BLA BLA BLA BLA BLA BLA BLA BLA BLA BLA BLA BLA BLA BLA 
BLA BLA BLA BLA BLA BLA BLA BLA BLA BLA BLA BLA BLA BLA BLA BLA BLA BLA BLA BLA 
BLA BLA BLA BLA BLA BLA BLA BLA BLA BLA BLA BLA BLA BLA BLA BLA BLA BLA BLA BLA 
BLA BLA BLA BLA BLA BLA BLA BLA BLA BLA BLA BLA BLA BLA BLA BLA BLA BLA BLA BLA 
BLA BLA BLA BLA BLA BLA BLA BLA BLA BLA BLA BLA BLA BLA BLA BLA BLA BLA BLA BLA 
BLA BLA BLA BLA BLA BLA BLA BLA BLA BLA BLA BLA BLA BLA BLA BLA BLA BLA BLA BLA 
BLA BLA BLA BLA BLA BLA BLA BLA BLA BLA BLA BLA BLA BLA BLA BLA BLA BLA BLA BLA 
BLA BLA BLA BLA BLA BLA BLA BLA BLA BLA BLA BLA BLA BLA BLA BLA BLA BLA BLA BLA 
BLA BLA BLA BLA BLA BLA BLA BLA BLA BLA BLA BLA BLA BLA BLA BLA BLA BLA BLA BLA 
BLA BLA BLA BLA BLA BLA BLA BLA BLA BLA BLA BLA BLA BLA BLA BLA BLA BLA BLA BLA 
BLA BLA BLA BLA BLA BLA BLA BLA BLA BLA BLA BLA BLA BLA BLA BLA BLA BLA BLA BLA 
BLA BLA BLA BLA BLA BLA BLA BLA BLA BLA BLA BLA BLA BLA BLA BLA BLA BLA BLA BLA 
BLA BLA BLA BLA BLA BLA BLA BLA BLA BLA BLA BLA BLA BLA BLA BLA BLA BLA BLA BLA 
BLA BLA BLA BLA BLA BLA BLA BLA BLA BLA BLA BLA BLA BLA BLA BLA BLA BLA BLA BLA 
BLA BLA BLA BLA BLA BLA BLA BLA BLA BLA BLA BLA BLA BLA BLA BLA BLA BLA BLA BLA 
BLA BLA BLA BLA BLA BLA BLA BLA BLA BLA BLA BLA BLA BLA BLA BLA BLA BLA BLA BLA 
BLA BLA BLA BLA BLA BLA BLA BLA BLA BLA BLA BLA BLA BLA BLA BLA BLA BLA BLA BLA 
BLA BLA BLA BLA BLA BLA BLA BLA BLA BLA BLA BLA BLA BLA BLA BLA BLA BLA BLA BLA 
BLA BLA BLA BLA BLA BLA BLA BLA BLA BLA BLA BLA BLA BLA BLA BLA BLA BLA BLA BLA 
BLA BLA BLA BLA BLA BLA BLA BLA BLA BLA BLA BLA BLA BLA BLA BLA BLA BLA BLA BLA 
BLA BLA BLA BLA BLA BLA BLA BLA BLA BLA BLA BLA BLA BLA BLA BLA BLA BLA BLA BLA 
BLA BLA BLA BLA BLA BLA BLA BLA BLA BLA BLA BLA BLA BLA BLA BLA BLA BLA BLA BLA 
BLA BLA BLA BLA BLA BLA BLA BLA BLA BLA BLA BLA BLA BLA BLA BLA BLA BLA BLA BLA 
BLA BLA BLA BLA BLA BLA BLA BLA BLA BLA BLA BLA BLA BLA BLA BLA BLA BLA BLA BLA 
BLA BLA BLA BLA BLA BLA BLA BLA BLA BLA BLA BLA BLA BLA BLA BLA BLA BLA BLA BLA 
BLA BLA BLA BLA BLA BLA BLA BLA BLA BLA BLA BLA BLA BLA BLA BLA BLA BLA BLA BLA 
BLA BLA BLA BLA BLA BLA BLA BLA BLA BLA BLA BLA BLA BLA BLA BLA BLA BLA BLA BLA 
BLA BLA BLA BLA BLA BLA BLA BLA BLA BLA BLA BLA BLA BLA BLA BLA BLA BLA BLA BLA 
BLA BLA BLA BLA BLA BLA BLA BLA BLA BLA BLA BLA BLA BLA BLA BLA BLA BLA BLA BLA 
BLA BLA BLA BLA BLA BLA BLA BLA BLA BLA BLA BLA BLA BLA BLA BLA BLA BLA BLA BLA 
BLA BLA BLA BLA BLA BLA BLA BLA BLA BLA BLA BLA BLA BLA BLA BLA BLA BLA BLA BLA 
BLA BLA BLA BLA BLA BLA BLA BLA BLA BLA BLA BLA BLA BLA BLA BLA BLA BLA BLA BLA 
BLA BLA BLA BLA BLA BLA BLA BLA BLA BLA BLA BLA BLA BLA BLA BLA BLA BLA BLA BLA 
BLA BLA BLA BLA BLA BLA BLA BLA BLA BLA BLA BLA BLA BLA BLA BLA BLA BLA BLA BLA 
BLA BLA BLA BLA BLA BLA BLA BLA BLA BLA BLA BLA BLA BLA BLA BLA BLA BLA BLA BLA 
BLA BLA BLA BLA BLA BLA BLA BLA BLA BLA BLA BLA BLA BLA BLA BLA BLA BLA BLA BLA 
BLA BLA BLA BLA BLA BLA BLA BLA BLA BLA BLA BLA BLA BLA BLA BLA BLA BLA BLA BLA 
BLA BLA BLA BLA BLA BLA BLA BLA BLA BLA BLA BLA BLA BLA BLA BLA BLA BLA BLA BLA 
BLA BLA BLA BLA BLA BLA BLA BLA BLA BLA BLA BLA BLA BLA BLA BLA BLA BLA BLA BLA 
BLA BLA BLA BLA BLA BLA BLA BLA BLA BLA BLA BLA BLA BLA BLA BLA BLA BLA BLA BLA 
BLA BLA BLA BLA BLA BLA BLA BLA BLA BLA BLA BLA BLA BLA BLA BLA BLA BLA BLA BLA 
BLA BLA BLA BLA BLA BLA BLA BLA BLA BLA BLA BLA BLA BLA BLA BLA BLA BLA BLA BLA 
BLA BLA BLA BLA BLA BLA BLA BLA BLA BLA BLA BLA BLA BLA BLA BLA BLA BLA BLA BLA 
BLA BLA BLA BLA BLA BLA BLA BLA BLA BLA BLA BLA BLA BLA BLA BLA BLA BLA BLA BLA 
BLA BLA BLA BLA BLA BLA BLA BLA BLA BLA BLA BLA BLA BLA BLA BLA BLA BLA BLA BLA 
BLA BLA BLA BLA BLA BLA BLA BLA BLA BLA BLA BLA BLA BLA BLA BLA BLA BLA BLA BLA 
BLA BLA BLA BLA BLA BLA BLA BLA BLA BLA BLA BLA BLA BLA BLA BLA BLA BLA BLA BLA 
BLA BLA BLA BLA BLA BLA BLA BLA BLA BLA BLA BLA BLA BLA BLA BLA BLA BLA BLA BLA 
BLA BLA BLA BLA BLA BLA BLA BLA BLA BLA BLA BLA BLA BLA BLA BLA BLA BLA BLA BLA 
BLA BLA BLA BLA BLA BLA BLA BLA BLA BLA BLA BLA BLA BLA BLA BLA BLA BLA BLA BLA 
BLA BLA BLA BLA BLA BLA BLA BLA BLA BLA BLA BLA BLA BLA BLA BLA BLA BLA BLA BLA 
BLA BLA BLA BLA BLA BLA BLA BLA BLA BLA BLA BLA BLA BLA BLA BLA BLA BLA BLA BLA 
BLA BLA BLA BLA BLA BLA BLA BLA BLA BLA BLA BLA BLA BLA BLA BLA BLA BLA BLA BLA 
BLA BLA BLA BLA BLA BLA BLA BLA BLA BLA BLA BLA BLA BLA BLA BLA BLA BLA BLA BLA 
BLA BLA BLA BLA BLA BLA BLA BLA BLA BLA BLA BLA BLA BLA BLA BLA BLA BLA BLA BLA 
BLA BLA BLA BLA BLA BLA BLA BLA BLA BLA BLA BLA BLA BLA BLA BLA BLA BLA BLA BLA 
BLA BLA BLA BLA BLA BLA BLA BLA BLA BLA BLA BLA BLA BLA BLA BLA BLA BLA BLA BLA 
BLA BLA BLA BLA BLA BLA BLA BLA BLA BLA BLA BLA BLA BLA BLA BLA BLA BLA BLA BLA 
BLA BLA BLA BLA BLA BLA BLA BLA BLA BLA BLA BLA BLA BLA BLA BLA BLA BLA BLA BLA 
BLA BLA BLA BLA BLA BLA BLA BLA BLA BLA BLA BLA BLA BLA BLA BLA BLA BLA BLA BLA 
BLA BLA BLA BLA BLA BLA BLA BLA BLA BLA BLA BLA BLA BLA BLA BLA BLA BLA BLA BLA 
BLA BLA BLA BLA BLA BLA BLA BLA BLA BLA BLA BLA BLA BLA BLA BLA BLA BLA BLA BLA 
BLA BLA BLA BLA BLA BLA BLA BLA BLA BLA BLA BLA BLA BLA BLA BLA BLA BLA BLA BLA 
BLA BLA BLA BLA BLA BLA BLA BLA BLA BLA BLA BLA BLA BLA BLA BLA BLA BLA BLA BLA 
BLA BLA BLA BLA BLA BLA BLA BLA BLA BLA BLA BLA BLA BLA BLA BLA BLA BLA BLA BLA 
BLA BLA BLA BLA BLA BLA BLA BLA BLA BLA BLA BLA BLA BLA BLA BLA BLA BLA BLA BLA 
BLA BLA BLA BLA BLA BLA BLA BLA BLA BLA BLA BLA BLA BLA BLA BLA BLA BLA BLA BLA 
BLA BLA BLA BLA BLA BLA BLA BLA BLA BLA BLA BLA BLA BLA BLA BLA BLA BLA BLA BLA 
BLA BLA BLA BLA BLA BLA BLA BLA BLA BLA BLA BLA BLA BLA BLA BLA BLA BLA BLA BLA 
BLA BLA BLA BLA BLA BLA BLA BLA BLA BLA BLA BLA BLA BLA BLA BLA BLA BLA BLA BLA 
BLA BLA BLA BLA BLA BLA BLA BLA BLA BLA BLA BLA BLA BLA BLA BLA BLA BLA BLA BLA 
BLA BLA BLA BLA BLA BLA BLA BLA BLA BLA BLA BLA BLA BLA BLA BLA BLA BLA BLA BLA 
BLA BLA BLA BLA BLA BLA BLA BLA BLA BLA BLA BLA BLA BLA BLA BLA BLA BLA BLA BLA 
BLA BLA BLA BLA BLA BLA BLA BLA BLA BLA BLA BLA BLA BLA BLA BLA BLA BLA BLA BLA 
BLA BLA BLA BLA BLA BLA BLA BLA BLA BLA BLA BLA BLA BLA BLA BLA BLA BLA BLA BLA 
BLA BLA BLA BLA BLA BLA BLA BLA BLA BLA BLA BLA BLA BLA BLA BLA BLA BLA BLA BLA 
BLA BLA BLA BLA BLA BLA BLA BLA BLA BLA BLA BLA BLA BLA BLA BLA BLA BLA BLA BLA 
BLA BLA BLA BLA BLA BLA BLA BLA BLA BLA BLA BLA BLA BLA BLA BLA BLA BLA BLA BLA 
BLA BLA BLA BLA BLA BLA BLA BLA BLA BLA BLA BLA BLA BLA BLA BLA BLA BLA BLA BLA 
BLA BLA BLA BLA BLA BLA BLA BLA BLA BLA BLA BLA BLA BLA BLA BLA BLA BLA BLA BLA 
BLA BLA BLA BLA BLA BLA BLA BLA BLA BLA BLA BLA BLA BLA BLA BLA BLA BLA BLA BLA 
BLA BLA BLA BLA BLA BLA BLA BLA BLA BLA BLA BLA BLA BLA BLA BLA BLA BLA BLA BLA 
BLA BLA BLA BLA BLA BLA BLA BLA BLA BLA BLA BLA BLA BLA BLA BLA BLA BLA BLA BLA 
BLA BLA BLA BLA BLA BLA BLA BLA BLA BLA BLA BLA BLA BLA BLA BLA BLA BLA BLA BLA 
BLA BLA BLA BLA BLA BLA BLA BLA BLA BLA BLA BLA BLA BLA BLA BLA BLA BLA BLA BLA 
BLA BLA BLA BLA BLA BLA BLA BLA BLA BLA BLA BLA BLA BLA BLA BLA BLA BLA BLA BLA 
BLA BLA BLA BLA BLA BLA BLA BLA BLA BLA BLA BLA BLA BLA BLA BLA BLA BLA BLA BLA 
BLA BLA BLA BLA BLA BLA BLA BLA BLA BLA BLA BLA BLA BLA BLA BLA BLA BLA BLA BLA 
BLA BLA BLA BLA BLA BLA BLA BLA BLA BLA BLA BLA BLA BLA BLA BLA BLA BLA BLA BLA 
BLA BLA BLA BLA BLA BLA BLA BLA BLA BLA BLA BLA BLA BLA BLA BLA BLA BLA BLA BLA 
BLA BLA BLA BLA BLA BLA BLA BLA BLA BLA BLA BLA BLA BLA BLA BLA BLA BLA BLA BLA 
BLA BLA BLA BLA BLA BLA BLA BLA BLA BLA BLA BLA BLA BLA BLA BLA BLA BLA BLA BLA 
BLA BLA BLA BLA BLA BLA BLA BLA BLA BLA BLA BLA BLA BLA BLA BLA BLA BLA BLA BLA 
BLA BLA BLA BLA BLA BLA BLA BLA BLA BLA BLA BLA BLA BLA BLA BLA BLA BLA BLA BLA 
BLA BLA BLA BLA BLA BLA BLA BLA BLA BLA BLA BLA BLA BLA BLA BLA BLA BLA BLA BLA 
BLA BLA BLA BLA BLA BLA BLA BLA BLA BLA BLA BLA BLA BLA BLA BLA BLA BLA BLA BLA 
BLA BLA BLA BLA BLA BLA BLA BLA BLA BLA BLA BLA BLA BLA BLA BLA BLA BLA BLA BLA 
BLA BLA BLA BLA BLA BLA BLA BLA BLA BLA BLA BLA BLA BLA BLA BLA BLA BLA BLA BLA 
BLA BLA BLA BLA BLA BLA BLA BLA BLA BLA BLA BLA BLA BLA BLA BLA BLA BLA BLA BLA 
BLA BLA BLA BLA BLA BLA BLA BLA BLA BLA BLA BLA BLA BLA BLA BLA BLA BLA BLA BLA 
BLA BLA BLA BLA BLA BLA BLA BLA BLA BLA BLA BLA BLA BLA BLA BLA BLA BLA BLA BLA 
BLA BLA BLA BLA BLA BLA BLA BLA BLA BLA BLA BLA BLA BLA BLA BLA BLA BLA BLA BLA 
BLA BLA BLA BLA BLA BLA BLA BLA BLA BLA BLA BLA BLA BLA BLA BLA BLA BLA BLA BLA 
BLA BLA BLA BLA BLA BLA BLA BLA BLA BLA BLA BLA BLA BLA BLA BLA BLA BLA BLA BLA 
BLA BLA BLA BLA BLA BLA BLA BLA BLA BLA BLA BLA BLA BLA BLA BLA BLA BLA BLA BLA 
BLA BLA BLA BLA BLA BLA BLA BLA BLA BLA BLA BLA BLA BLA BLA BLA BLA BLA BLA BLA 
BLA BLA BLA BLA BLA BLA BLA BLA BLA BLA BLA BLA BLA BLA BLA BLA BLA BLA BLA BLA 
BLA BLA BLA BLA BLA BLA BLA BLA BLA BLA BLA BLA BLA BLA BLA BLA BLA BLA BLA BLA 
BLA BLA BLA BLA BLA BLA BLA BLA BLA BLA BLA BLA BLA BLA BLA BLA BLA BLA BLA BLA 
BLA BLA BLA BLA BLA BLA BLA BLA BLA BLA BLA BLA BLA BLA BLA BLA BLA BLA BLA BLA 
BLA BLA BLA BLA BLA BLA BLA BLA BLA BLA BLA BLA BLA BLA BLA BLA BLA BLA BLA BLA 
BLA BLA BLA BLA BLA BLA BLA BLA BLA BLA BLA BLA BLA BLA BLA BLA BLA BLA BLA BLA 
BLA BLA BLA BLA BLA BLA BLA BLA BLA BLA BLA BLA BLA BLA BLA BLA BLA BLA BLA BLA 
BLA BLA BLA BLA BLA BLA BLA BLA BLA BLA BLA BLA BLA BLA BLA BLA BLA BLA BLA BLA 
BLA BLA BLA BLA BLA BLA BLA BLA BLA BLA BLA BLA BLA BLA BLA BLA BLA BLA BLA BLA 
BLA BLA BLA BLA BLA BLA BLA BLA BLA BLA BLA BLA BLA BLA BLA BLA BLA BLA BLA BLA 
BLA BLA BLA BLA BLA BLA BLA BLA BLA BLA BLA BLA BLA BLA BLA BLA BLA BLA BLA BLA 
BLA BLA BLA BLA BLA BLA BLA BLA BLA BLA BLA BLA BLA BLA BLA BLA BLA BLA BLA BLA 
BLA BLA BLA BLA BLA BLA BLA BLA BLA BLA BLA BLA BLA BLA BLA BLA BLA BLA BLA BLA 
BLA BLA BLA BLA BLA BLA BLA BLA BLA BLA BLA BLA BLA BLA BLA BLA BLA BLA BLA BLA 
BLA BLA BLA BLA BLA BLA BLA BLA BLA BLA BLA BLA BLA BLA BLA BLA BLA BLA BLA BLA 
BLA BLA BLA BLA BLA BLA BLA BLA BLA BLA BLA BLA BLA BLA BLA BLA BLA BLA BLA BLA 
BLA BLA BLA BLA BLA BLA BLA BLA BLA BLA BLA BLA BLA BLA BLA BLA BLA BLA BLA BLA 
BLA BLA BLA BLA BLA BLA BLA BLA BLA BLA BLA BLA BLA BLA BLA BLA BLA BLA BLA BLA 
BLA BLA BLA BLA BLA BLA BLA BLA BLA BLA BLA BLA BLA BLA BLA BLA BLA BLA BLA BLA 
BLA BLA BLA BLA BLA BLA BLA BLA BLA BLA BLA BLA BLA BLA BLA BLA BLA BLA BLA BLA 
BLA BLA BLA BLA BLA BLA BLA BLA BLA BLA BLA BLA BLA BLA BLA BLA BLA BLA BLA BLA 
BLA BLA BLA BLA BLA BLA BLA BLA BLA BLA BLA BLA BLA BLA BLA BLA BLA BLA BLA BLA 
BLA BLA BLA BLA BLA BLA BLA BLA BLA BLA BLA BLA BLA BLA BLA BLA BLA BLA BLA BLA 
BLA BLA BLA BLA BLA BLA BLA BLA BLA BLA BLA BLA BLA BLA BLA BLA BLA BLA BLA BLA 
BLA BLA BLA BLA BLA BLA BLA BLA BLA BLA BLA BLA BLA BLA BLA BLA BLA BLA BLA BLA 
BLA BLA BLA BLA BLA BLA BLA BLA BLA BLA BLA BLA BLA BLA BLA BLA BLA BLA BLA BLA 
BLA BLA BLA BLA BLA BLA BLA BLA BLA BLA BLA BLA BLA BLA BLA BLA BLA BLA BLA BLA 
BLA BLA BLA BLA BLA BLA BLA BLA BLA BLA BLA BLA BLA BLA BLA BLA BLA BLA BLA BLA 
BLA BLA BLA BLA BLA BLA BLA BLA BLA BLA BLA BLA BLA BLA BLA BLA BLA BLA BLA BLA 
BLA BLA BLA BLA BLA BLA BLA BLA BLA BLA BLA BLA BLA BLA BLA BLA BLA BLA BLA BLA 
BLA BLA BLA BLA BLA BLA BLA BLA BLA BLA BLA BLA BLA BLA BLA BLA BLA BLA BLA BLA 
BLA BLA BLA BLA BLA BLA BLA BLA BLA BLA BLA BLA BLA BLA BLA BLA BLA BLA BLA BLA 
BLA BLA BLA BLA BLA BLA BLA BLA BLA BLA BLA BLA BLA BLA BLA BLA BLA BLA BLA BLA 
BLA BLA BLA BLA BLA BLA BLA BLA BLA BLA BLA BLA BLA BLA BLA BLA BLA BLA BLA BLA 
BLA BLA BLA BLA BLA BLA BLA BLA BLA BLA BLA BLA BLA BLA BLA BLA BLA BLA BLA BLA 
BLA BLA BLA BLA BLA BLA BLA BLA BLA BLA BLA BLA BLA BLA BLA BLA BLA BLA BLA BLA 
BLA BLA BLA BLA BLA BLA BLA BLA BLA BLA BLA BLA BLA BLA BLA BLA BLA BLA BLA BLA 
BLA BLA BLA BLA BLA BLA BLA BLA BLA BLA BLA BLA BLA BLA BLA BLA BLA BLA BLA BLA 
BLA BLA BLA BLA BLA BLA BLA BLA BLA BLA BLA BLA BLA BLA BLA BLA BLA BLA BLA BLA 
BLA BLA BLA BLA BLA BLA BLA BLA BLA BLA BLA BLA BLA BLA BLA BLA BLA BLA BLA BLA 
BLA BLA BLA BLA BLA BLA BLA BLA BLA BLA BLA BLA BLA BLA BLA BLA BLA BLA BLA BLA 
BLA BLA BLA BLA BLA BLA BLA BLA BLA BLA BLA BLA BLA BLA BLA BLA BLA BLA BLA BLA 
BLA BLA BLA BLA BLA BLA BLA BLA BLA BLA BLA BLA BLA BLA BLA BLA BLA BLA BLA BLA 
BLA BLA BLA BLA BLA BLA BLA BLA BLA BLA BLA BLA BLA BLA BLA BLA BLA BLA BLA BLA 
BLA BLA BLA BLA BLA BLA BLA BLA BLA BLA BLA BLA BLA BLA BLA BLA BLA BLA BLA BLA 
BLA BLA BLA BLA BLA BLA BLA BLA BLA BLA BLA BLA BLA BLA BLA BLA BLA BLA BLA BLA 
BLA BLA BLA BLA BLA BLA BLA BLA BLA BLA BLA BLA BLA BLA BLA BLA BLA BLA BLA BLA 
BLA BLA BLA BLA BLA BLA BLA BLA BLA BLA BLA BLA BLA BLA BLA BLA BLA BLA BLA BLA 
BLA BLA BLA BLA BLA BLA BLA BLA BLA BLA BLA BLA BLA BLA BLA BLA BLA BLA BLA BLA 
BLA BLA BLA BLA BLA BLA BLA BLA BLA BLA BLA BLA BLA BLA BLA BLA BLA BLA BLA BLA 
BLA BLA BLA BLA BLA BLA BLA BLA BLA BLA BLA BLA BLA BLA BLA BLA BLA BLA BLA BLA 
BLA BLA BLA BLA BLA BLA BLA BLA BLA BLA BLA BLA BLA BLA BLA BLA BLA BLA BLA BLA 
BLA BLA BLA BLA BLA BLA BLA BLA BLA BLA BLA BLA BLA BLA BLA BLA BLA BLA BLA BLA 
BLA BLA BLA BLA BLA BLA BLA BLA BLA BLA BLA BLA BLA BLA BLA BLA BLA BLA BLA BLA 
BLA BLA BLA BLA BLA BLA BLA BLA BLA BLA BLA BLA BLA BLA BLA BLA BLA BLA BLA BLA 
BLA BLA BLA BLA BLA BLA BLA BLA BLA BLA BLA BLA BLA BLA BLA BLA BLA BLA BLA BLA 
BLA BLA BLA BLA BLA BLA BLA BLA BLA BLA BLA BLA BLA BLA BLA BLA BLA BLA BLA BLA 
BLA BLA BLA BLA BLA BLA BLA BLA BLA BLA BLA BLA BLA BLA BLA BLA BLA BLA BLA BLA 
BLA BLA BLA BLA BLA BLA BLA BLA BLA BLA BLA BLA BLA BLA BLA BLA BLA BLA BLA BLA 
BLA BLA BLA BLA BLA BLA BLA BLA BLA BLA BLA BLA BLA BLA BLA BLA BLA BLA BLA BLA 
BLA BLA BLA BLA BLA BLA BLA BLA BLA BLA BLA BLA BLA BLA BLA BLA BLA BLA BLA BLA 
BLA BLA BLA BLA BLA BLA BLA BLA BLA BLA BLA BLA BLA BLA BLA BLA BLA BLA BLA BLA 
BLA BLA BLA BLA BLA BLA BLA BLA BLA BLA BLA BLA BLA BLA BLA BLA BLA BLA BLA BLA 
BLA BLA BLA BLA BLA BLA BLA BLA BLA BLA BLA BLA BLA BLA BLA BLA BLA BLA BLA BLA 
BLA BLA BLA BLA BLA BLA BLA BLA BLA BLA BLA BLA BLA BLA BLA BLA BLA BLA BLA BLA 
BLA BLA BLA BLA BLA BLA BLA BLA BLA BLA BLA BLA BLA BLA BLA BLA BLA BLA BLA BLA 
BLA BLA BLA BLA BLA BLA BLA BLA BLA BLA BLA BLA BLA BLA BLA BLA BLA BLA BLA BLA 
BLA BLA BLA BLA BLA BLA BLA BLA BLA BLA BLA BLA BLA BLA BLA BLA BLA BLA BLA BLA 
BLA BLA BLA BLA BLA BLA BLA BLA BLA BLA BLA BLA BLA BLA BLA BLA BLA BLA BLA BLA 
BLA BLA BLA BLA BLA BLA BLA BLA BLA BLA BLA BLA BLA BLA BLA BLA BLA BLA BLA BLA 
BLA BLA BLA BLA BLA BLA BLA BLA BLA BLA BLA BLA BLA BLA BLA BLA BLA BLA BLA BLA 
BLA BLA BLA BLA BLA BLA BLA BLA BLA BLA BLA BLA BLA BLA BLA BLA BLA BLA BLA BLA 
BLA BLA BLA BLA BLA BLA BLA BLA BLA BLA BLA BLA BLA BLA BLA BLA BLA BLA BLA BLA 
BLA BLA BLA BLA BLA BLA BLA BLA BLA BLA BLA BLA BLA BLA BLA BLA BLA BLA BLA BLA 
BLA BLA BLA BLA BLA BLA BLA BLA BLA BLA BLA BLA BLA BLA BLA BLA BLA BLA BLA BLA 
BLA BLA BLA BLA BLA BLA BLA BLA BLA BLA BLA BLA BLA BLA BLA BLA BLA BLA BLA BLA 
BLA BLA BLA BLA BLA BLA BLA BLA BLA BLA BLA BLA BLA BLA BLA BLA BLA BLA BLA BLA 
BLA BLA BLA BLA BLA BLA BLA BLA BLA BLA BLA BLA BLA BLA BLA BLA BLA BLA BLA BLA 
BLA BLA BLA BLA BLA BLA BLA BLA BLA BLA BLA BLA BLA BLA BLA BLA BLA BLA BLA BLA 
BLA BLA BLA BLA BLA BLA BLA BLA BLA BLA BLA BLA BLA BLA BLA BLA BLA BLA BLA BLA 
BLA BLA BLA BLA BLA BLA BLA BLA BLA BLA BLA BLA BLA BLA BLA BLA BLA BLA BLA BLA 
BLA BLA BLA BLA BLA BLA BLA BLA BLA BLA BLA BLA BLA BLA BLA BLA BLA BLA BLA BLA 
BLA BLA BLA BLA BLA BLA BLA BLA BLA BLA BLA BLA BLA BLA BLA BLA BLA BLA BLA BLA 
BLA BLA BLA BLA BLA BLA BLA BLA BLA BLA BLA BLA BLA BLA BLA BLA BLA BLA BLA BLA 
BLA BLA BLA BLA BLA BLA BLA BLA BLA BLA BLA BLA BLA BLA BLA BLA BLA BLA BLA BLA 
BLA BLA BLA BLA BLA BLA BLA BLA BLA BLA BLA BLA BLA BLA BLA BLA BLA BLA BLA BLA 
BLA BLA BLA BLA BLA BLA BLA BLA BLA BLA BLA BLA BLA BLA BLA BLA BLA BLA BLA BLA 
BLA BLA BLA BLA BLA BLA BLA BLA BLA BLA BLA BLA BLA BLA BLA BLA BLA BLA BLA BLA 
BLA BLA BLA BLA BLA BLA BLA BLA BLA BLA BLA BLA BLA BLA BLA BLA BLA BLA BLA BLA 
BLA BLA BLA BLA BLA BLA BLA BLA BLA BLA BLA BLA BLA BLA BLA BLA BLA BLA BLA BLA 
BLA BLA BLA BLA BLA BLA BLA BLA BLA BLA BLA BLA BLA BLA BLA BLA BLA BLA BLA BLA 
BLA BLA BLA BLA BLA BLA BLA BLA BLA BLA BLA BLA BLA BLA BLA BLA BLA BLA BLA BLA 
BLA BLA BLA BLA BLA BLA BLA BLA BLA BLA BLA BLA BLA BLA BLA BLA BLA BLA BLA BLA 
BLA BLA BLA BLA BLA BLA BLA BLA BLA BLA BLA BLA BLA BLA BLA BLA BLA BLA BLA BLA 
BLA BLA BLA BLA BLA BLA BLA BLA BLA BLA BLA BLA BLA BLA BLA BLA BLA BLA BLA BLA 
BLA BLA BLA BLA BLA BLA BLA BLA BLA BLA BLA BLA BLA BLA BLA BLA BLA BLA BLA BLA 
BLA BLA BLA BLA BLA BLA BLA BLA BLA BLA BLA BLA BLA BLA BLA BLA BLA BLA BLA BLA 
BLA BLA BLA BLA BLA BLA BLA BLA BLA BLA BLA BLA BLA BLA BLA BLA BLA BLA BLA BLA 
BLA BLA BLA BLA BLA BLA BLA BLA BLA BLA BLA BLA BLA BLA BLA BLA BLA BLA BLA BLA 
BLA BLA BLA BLA BLA BLA BLA BLA BLA BLA BLA BLA BLA BLA BLA BLA BLA BLA BLA BLA 
BLA BLA BLA BLA BLA BLA BLA BLA BLA BLA BLA BLA BLA BLA BLA BLA BLA BLA BLA BLA 
BLA BLA BLA BLA BLA BLA BLA BLA BLA BLA BLA BLA BLA BLA BLA BLA BLA BLA BLA BLA 
BLA BLA BLA BLA BLA BLA BLA BLA BLA BLA BLA BLA BLA BLA BLA BLA BLA BLA BLA BLA 
BLA BLA BLA BLA BLA BLA BLA BLA BLA BLA BLA BLA BLA BLA BLA BLA BLA BLA BLA BLA 
BLA BLA BLA BLA BLA BLA BLA BLA BLA BLA BLA BLA BLA BLA BLA BLA BLA BLA BLA BLA 
BLA BLA BLA BLA BLA BLA BLA BLA BLA BLA BLA BLA BLA BLA BLA BLA BLA BLA BLA BLA 
BLA BLA BLA BLA BLA BLA BLA BLA BLA BLA BLA BLA BLA BLA BLA BLA BLA BLA BLA BLA 
BLA BLA BLA BLA BLA BLA BLA BLA BLA BLA BLA BLA BLA BLA BLA BLA BLA BLA BLA BLA 
BLA BLA BLA BLA BLA BLA BLA BLA BLA BLA BLA BLA BLA BLA BLA BLA BLA BLA BLA BLA 
BLA BLA BLA BLA BLA BLA BLA BLA BLA BLA BLA BLA BLA BLA BLA BLA BLA BLA BLA BLA 
BLA BLA BLA BLA BLA BLA BLA BLA BLA BLA BLA BLA BLA BLA BLA BLA BLA BLA BLA BLA 
BLA BLA BLA BLA BLA BLA BLA BLA BLA BLA BLA BLA BLA BLA BLA BLA BLA BLA BLA BLA 
BLA BLA BLA BLA BLA BLA BLA BLA BLA BLA BLA BLA BLA BLA BLA BLA BLA BLA BLA BLA 
BLA BLA BLA BLA BLA BLA BLA BLA BLA BLA BLA BLA BLA BLA BLA BLA BLA BLA BLA BLA 
BLA BLA BLA BLA BLA BLA BLA BLA BLA BLA BLA BLA BLA BLA BLA BLA BLA BLA BLA BLA 
BLA BLA BLA BLA BLA BLA BLA BLA BLA BLA BLA BLA BLA BLA BLA BLA BLA BLA BLA BLA 
BLA BLA BLA BLA BLA BLA BLA BLA BLA BLA BLA BLA BLA BLA BLA BLA BLA BLA BLA BLA 
BLA BLA BLA BLA BLA BLA BLA BLA BLA BLA BLA BLA BLA BLA BLA BLA BLA BLA BLA BLA 
BLA BLA BLA BLA BLA BLA BLA BLA BLA BLA BLA BLA BLA BLA BLA BLA BLA BLA BLA BLA 
BLA BLA BLA BLA BLA BLA BLA BLA BLA BLA BLA BLA BLA BLA BLA BLA BLA BLA BLA BLA 
BLA BLA BLA BLA BLA BLA BLA BLA BLA BLA BLA BLA BLA BLA BLA BLA BLA BLA BLA BLA 
BLA BLA BLA BLA BLA BLA BLA BLA BLA BLA BLA BLA BLA BLA BLA BLA BLA BLA BLA BLA 
BLA BLA BLA BLA BLA BLA BLA BLA BLA BLA BLA BLA BLA BLA BLA BLA BLA BLA BLA BLA 
BLA BLA BLA BLA BLA BLA BLA BLA BLA BLA BLA BLA BLA BLA BLA BLA BLA BLA BLA BLA 
BLA BLA BLA BLA BLA BLA BLA BLA BLA BLA BLA BLA BLA BLA BLA BLA BLA BLA BLA BLA 
BLA BLA BLA BLA BLA BLA BLA BLA BLA BLA BLA BLA BLA BLA BLA BLA BLA BLA BLA BLA 
BLA BLA BLA BLA BLA BLA BLA BLA BLA BLA BLA BLA BLA BLA BLA BLA BLA BLA BLA BLA 
BLA BLA BLA BLA BLA BLA BLA BLA BLA BLA BLA BLA BLA BLA BLA BLA BLA BLA BLA BLA 
BLA BLA BLA BLA BLA BLA BLA BLA BLA BLA BLA BLA BLA BLA BLA BLA BLA BLA BLA BLA 
BLA BLA BLA BLA BLA BLA BLA BLA BLA BLA BLA BLA BLA BLA BLA BLA BLA BLA BLA BLA 
BLA BLA BLA BLA BLA BLA BLA BLA BLA BLA BLA BLA BLA BLA BLA BLA BLA BLA BLA BLA 
BLA BLA BLA BLA BLA BLA BLA BLA BLA BLA BLA BLA BLA BLA BLA BLA BLA BLA BLA BLA 
BLA BLA BLA BLA BLA BLA BLA BLA BLA BLA BLA BLA BLA BLA BLA BLA BLA BLA BLA BLA 
BLA BLA BLA BLA BLA BLA BLA BLA BLA BLA BLA BLA BLA BLA BLA BLA BLA BLA BLA BLA 
BLA BLA BLA BLA BLA BLA BLA BLA BLA BLA BLA BLA BLA BLA BLA BLA BLA BLA BLA BLA 
BLA BLA BLA BLA BLA BLA BLA BLA BLA BLA BLA BLA BLA BLA BLA BLA BLA BLA BLA BLA 
BLA BLA BLA BLA BLA BLA BLA BLA BLA BLA BLA BLA BLA BLA BLA BLA BLA BLA BLA BLA 
BLA BLA BLA BLA BLA BLA BLA BLA BLA BLA BLA BLA BLA BLA BLA BLA BLA BLA BLA BLA 
BLA BLA BLA BLA BLA BLA BLA BLA BLA BLA BLA BLA BLA BLA BLA BLA BLA BLA BLA BLA 
BLA BLA BLA BLA BLA BLA BLA BLA BLA BLA BLA BLA BLA BLA BLA BLA BLA BLA BLA BLA 
BLA BLA BLA BLA BLA BLA BLA BLA BLA BLA BLA BLA BLA BLA BLA BLA BLA BLA BLA BLA 
BLA BLA BLA BLA BLA BLA BLA BLA BLA BLA BLA BLA BLA BLA BLA BLA BLA BLA BLA BLA 
BLA BLA BLA BLA BLA BLA BLA BLA BLA BLA BLA BLA BLA BLA BLA BLA BLA BLA BLA BLA 
BLA BLA BLA BLA BLA BLA BLA BLA BLA BLA BLA BLA BLA BLA BLA BLA BLA BLA BLA BLA 
BLA BLA BLA BLA BLA BLA BLA BLA BLA BLA BLA BLA BLA BLA BLA BLA BLA BLA BLA BLA 
BLA BLA BLA BLA BLA BLA BLA BLA BLA BLA BLA BLA BLA BLA BLA BLA BLA BLA BLA BLA 
BLA BLA BLA BLA BLA BLA BLA BLA BLA BLA BLA BLA BLA BLA BLA BLA BLA BLA BLA BLA 
BLA BLA BLA BLA BLA BLA BLA BLA BLA BLA BLA BLA BLA BLA BLA BLA BLA BLA BLA BLA 
BLA BLA BLA BLA BLA BLA BLA BLA BLA BLA BLA BLA BLA BLA BLA BLA BLA BLA BLA BLA 
BLA BLA BLA BLA BLA BLA BLA BLA BLA BLA BLA BLA BLA BLA BLA BLA BLA BLA BLA BLA 
BLA BLA BLA BLA BLA BLA BLA BLA BLA BLA BLA BLA BLA BLA BLA BLA BLA BLA BLA BLA 
BLA BLA BLA BLA BLA BLA BLA BLA BLA BLA BLA BLA BLA BLA BLA BLA BLA BLA BLA BLA 
BLA BLA BLA BLA BLA BLA BLA BLA BLA BLA BLA BLA BLA BLA BLA BLA BLA BLA BLA BLA 
BLA BLA BLA BLA BLA BLA BLA BLA BLA BLA BLA BLA BLA BLA BLA BLA BLA BLA BLA BLA 
BLA BLA BLA BLA BLA BLA BLA BLA BLA BLA BLA BLA BLA BLA BLA BLA BLA BLA BLA BLA 
BLA BLA BLA BLA BLA BLA BLA BLA BLA BLA BLA BLA BLA BLA BLA BLA BLA BLA BLA BLA 
BLA BLA BLA BLA BLA BLA BLA BLA BLA BLA BLA BLA BLA BLA BLA BLA BLA BLA BLA BLA 
BLA BLA BLA BLA BLA BLA BLA BLA BLA BLA BLA BLA BLA BLA BLA BLA BLA BLA BLA BLA 
BLA BLA BLA BLA BLA BLA BLA BLA BLA BLA BLA BLA BLA BLA BLA BLA BLA BLA BLA BLA 
BLA BLA BLA BLA BLA BLA BLA BLA BLA BLA BLA BLA BLA BLA BLA BLA BLA BLA BLA BLA 
BLA BLA BLA BLA BLA BLA BLA BLA BLA BLA BLA BLA BLA BLA BLA BLA BLA BLA BLA BLA 
BLA BLA BLA BLA BLA BLA BLA BLA BLA BLA BLA BLA BLA BLA BLA BLA BLA BLA BLA BLA 
BLA BLA BLA BLA BLA BLA BLA BLA BLA BLA BLA BLA BLA BLA BLA BLA BLA BLA BLA BLA 
BLA BLA BLA BLA BLA BLA BLA BLA BLA BLA BLA BLA BLA BLA BLA BLA BLA BLA BLA BLA 
BLA BLA BLA BLA BLA BLA BLA BLA BLA BLA BLA BLA BLA BLA BLA BLA BLA BLA BLA BLA 
BLA BLA BLA BLA BLA BLA BLA BLA BLA BLA BLA BLA BLA BLA BLA BLA BLA BLA BLA BLA 
BLA BLA BLA BLA BLA BLA BLA BLA BLA BLA BLA BLA BLA BLA BLA BLA BLA BLA BLA BLA 
BLA BLA BLA BLA BLA BLA BLA BLA BLA BLA BLA BLA BLA BLA BLA BLA BLA BLA BLA BLA 
BLA BLA BLA BLA BLA BLA BLA BLA BLA BLA BLA BLA BLA BLA BLA BLA BLA BLA BLA BLA 
BLA BLA BLA BLA BLA BLA BLA BLA BLA BLA BLA BLA BLA BLA BLA BLA BLA BLA BLA BLA 
BLA BLA BLA BLA BLA BLA BLA BLA BLA BLA BLA BLA BLA BLA BLA BLA BLA BLA BLA BLA 
BLA BLA BLA BLA BLA BLA BLA BLA BLA BLA BLA BLA BLA BLA BLA BLA BLA BLA BLA BLA 
BLA BLA BLA BLA BLA BLA BLA BLA BLA BLA BLA BLA BLA BLA BLA BLA BLA BLA BLA BLA 
BLA BLA BLA BLA BLA BLA BLA BLA BLA BLA BLA BLA BLA BLA BLA BLA BLA BLA BLA BLA 
BLA BLA BLA BLA BLA BLA BLA BLA BLA BLA BLA BLA BLA BLA BLA BLA BLA BLA BLA BLA 
BLA BLA BLA BLA BLA BLA BLA BLA BLA BLA BLA BLA BLA BLA BLA BLA BLA BLA BLA BLA 
BLA BLA BLA BLA BLA BLA BLA BLA BLA BLA BLA BLA BLA BLA BLA BLA BLA BLA BLA BLA 
BLA BLA BLA BLA BLA BLA BLA BLA BLA BLA BLA BLA BLA BLA BLA BLA BLA BLA BLA BLA 
BLA BLA BLA BLA BLA BLA BLA BLA BLA BLA BLA BLA BLA BLA BLA BLA BLA BLA BLA BLA 
BLA BLA BLA BLA BLA BLA BLA BLA BLA BLA BLA BLA BLA BLA BLA BLA BLA BLA BLA BLA 
BLA BLA BLA BLA BLA BLA BLA BLA BLA BLA BLA BLA BLA BLA BLA BLA BLA BLA BLA BLA 
BLA BLA BLA BLA BLA BLA BLA BLA BLA BLA BLA BLA BLA BLA BLA BLA BLA BLA BLA BLA 
BLA BLA BLA BLA BLA BLA BLA BLA BLA BLA BLA BLA BLA BLA BLA BLA BLA BLA BLA BLA 
BLA BLA BLA BLA BLA BLA BLA BLA BLA BLA BLA BLA BLA BLA BLA BLA BLA BLA BLA BLA 
BLA BLA BLA BLA BLA BLA BLA BLA BLA BLA BLA BLA BLA BLA BLA BLA BLA BLA BLA BLA 
BLA BLA BLA BLA BLA BLA BLA BLA BLA BLA BLA BLA BLA BLA BLA BLA BLA BLA BLA BLA 
BLA BLA BLA BLA BLA BLA BLA BLA BLA BLA BLA BLA BLA BLA BLA BLA BLA BLA BLA BLA 
BLA BLA BLA BLA BLA BLA BLA BLA BLA BLA BLA BLA BLA BLA BLA BLA BLA BLA BLA BLA 
BLA BLA BLA BLA BLA BLA BLA BLA BLA BLA BLA BLA BLA BLA BLA BLA BLA BLA BLA BLA 
BLA BLA BLA BLA BLA BLA BLA BLA BLA BLA BLA BLA BLA BLA BLA BLA BLA BLA BLA BLA 
BLA BLA BLA BLA BLA BLA BLA BLA BLA BLA BLA BLA BLA BLA BLA BLA BLA BLA BLA BLA 
BLA BLA BLA BLA BLA BLA BLA BLA BLA BLA BLA BLA BLA BLA BLA BLA BLA BLA BLA BLA 
BLA BLA BLA BLA BLA BLA BLA BLA BLA BLA BLA BLA BLA BLA BLA BLA BLA BLA BLA BLA 
BLA BLA BLA BLA BLA BLA BLA BLA BLA BLA BLA BLA BLA BLA BLA BLA BLA BLA BLA BLA 
BLA BLA BLA BLA BLA BLA BLA BLA BLA BLA BLA BLA BLA BLA BLA BLA BLA BLA BLA BLA 
BLA BLA BLA BLA BLA BLA BLA BLA BLA BLA BLA BLA BLA BLA BLA BLA BLA BLA BLA BLA 
BLA BLA BLA BLA BLA BLA BLA BLA BLA BLA BLA BLA BLA BLA BLA BLA BLA BLA BLA BLA 
BLA BLA BLA BLA BLA BLA BLA BLA BLA BLA BLA BLA BLA BLA BLA BLA BLA BLA BLA BLA 
BLA BLA BLA BLA BLA BLA BLA BLA BLA BLA BLA BLA BLA BLA BLA BLA BLA BLA BLA BLA 
BLA BLA BLA BLA BLA BLA BLA BLA BLA BLA BLA BLA BLA BLA BLA BLA BLA BLA BLA BLA 
BLA BLA BLA BLA BLA BLA BLA BLA BLA BLA BLA BLA BLA BLA BLA BLA BLA BLA BLA BLA 
BLA BLA BLA BLA BLA BLA BLA BLA BLA BLA BLA BLA BLA BLA BLA BLA BLA BLA BLA BLA 
BLA BLA BLA BLA BLA BLA BLA BLA BLA BLA BLA BLA BLA BLA BLA BLA BLA BLA BLA BLA 
BLA BLA BLA BLA BLA BLA BLA BLA BLA BLA BLA BLA BLA BLA BLA BLA BLA BLA BLA BLA 
BLA BLA BLA BLA BLA BLA BLA BLA BLA BLA BLA BLA BLA BLA BLA BLA BLA BLA BLA BLA 
BLA BLA BLA BLA BLA BLA BLA BLA BLA BLA BLA BLA BLA BLA BLA BLA BLA BLA BLA BLA 
BLA BLA BLA BLA BLA BLA BLA BLA BLA BLA BLA BLA BLA BLA BLA BLA BLA BLA BLA BLA 
BLA BLA BLA BLA BLA BLA BLA BLA BLA BLA BLA BLA BLA BLA BLA BLA BLA BLA BLA BLA 
BLA BLA BLA BLA BLA BLA BLA BLA BLA BLA BLA BLA BLA BLA BLA BLA BLA BLA BLA BLA 
BLA BLA BLA BLA BLA BLA BLA BLA BLA BLA BLA BLA BLA BLA BLA BLA BLA BLA BLA BLA 
BLA BLA BLA BLA BLA BLA BLA BLA BLA BLA BLA BLA BLA BLA BLA BLA BLA BLA BLA BLA 
BLA BLA BLA BLA BLA BLA BLA BLA BLA BLA BLA BLA BLA BLA BLA BLA BLA BLA BLA BLA 
BLA BLA BLA BLA BLA BLA BLA BLA BLA BLA BLA BLA BLA BLA BLA BLA BLA BLA BLA BLA 
BLA BLA BLA BLA BLA BLA BLA BLA BLA BLA BLA BLA BLA BLA BLA BLA BLA BLA BLA BLA 
BLA BLA BLA BLA BLA BLA BLA BLA BLA BLA BLA BLA BLA BLA BLA BLA BLA BLA BLA BLA 
BLA BLA BLA BLA BLA BLA BLA BLA BLA BLA BLA BLA BLA BLA BLA BLA BLA BLA BLA BLA 
BLA BLA BLA BLA BLA BLA BLA BLA BLA BLA BLA BLA BLA BLA BLA BLA BLA BLA BLA BLA 
BLA BLA BLA BLA BLA BLA BLA BLA BLA BLA BLA BLA BLA BLA BLA BLA BLA BLA BLA BLA 
BLA BLA BLA BLA BLA BLA BLA BLA BLA BLA BLA BLA BLA BLA BLA BLA BLA BLA BLA BLA 
BLA BLA BLA BLA BLA BLA BLA BLA BLA BLA BLA BLA BLA BLA BLA BLA BLA BLA BLA BLA 
BLA BLA BLA BLA BLA BLA BLA BLA BLA BLA BLA BLA BLA BLA BLA BLA BLA BLA BLA BLA 
BLA BLA BLA BLA BLA BLA BLA BLA BLA BLA BLA BLA BLA BLA BLA BLA BLA BLA BLA BLA 
BLA BLA BLA BLA BLA BLA BLA BLA BLA BLA BLA BLA BLA BLA BLA BLA BLA BLA BLA BLA 
BLA BLA BLA BLA BLA BLA BLA BLA BLA BLA BLA BLA BLA BLA BLA BLA BLA BLA BLA BLA 
BLA BLA BLA BLA BLA BLA BLA BLA BLA BLA BLA BLA BLA BLA BLA BLA BLA BLA BLA BLA 
BLA BLA BLA BLA BLA BLA BLA BLA BLA BLA BLA BLA BLA BLA BLA BLA BLA BLA BLA BLA 
BLA BLA BLA BLA BLA BLA BLA BLA BLA BLA BLA BLA BLA BLA BLA BLA BLA BLA BLA BLA 
BLA BLA BLA BLA BLA BLA BLA BLA BLA BLA BLA BLA BLA BLA BLA BLA BLA BLA BLA BLA 
BLA BLA BLA BLA BLA BLA BLA BLA BLA BLA BLA BLA BLA BLA BLA BLA BLA BLA BLA BLA 
BLA BLA BLA BLA BLA BLA BLA BLA BLA BLA BLA BLA BLA BLA BLA BLA BLA BLA BLA BLA 
BLA BLA BLA BLA BLA BLA BLA BLA BLA BLA BLA BLA BLA BLA BLA BLA BLA BLA BLA BLA 
BLA BLA BLA BLA BLA BLA BLA BLA BLA BLA BLA BLA BLA BLA BLA BLA BLA BLA BLA BLA 
BLA BLA BLA BLA BLA BLA BLA BLA BLA BLA BLA BLA BLA BLA BLA BLA BLA BLA BLA BLA 
BLA BLA BLA BLA BLA BLA BLA BLA BLA BLA BLA BLA BLA BLA BLA BLA BLA BLA BLA BLA 
BLA BLA BLA BLA BLA BLA BLA BLA BLA BLA BLA BLA BLA BLA BLA BLA BLA BLA BLA BLA 
BLA BLA BLA BLA BLA BLA BLA BLA BLA BLA BLA BLA BLA BLA BLA BLA BLA BLA BLA BLA 
BLA BLA BLA BLA BLA BLA BLA BLA BLA BLA BLA BLA BLA BLA BLA BLA BLA BLA BLA BLA 
BLA BLA BLA BLA BLA BLA BLA BLA BLA BLA BLA BLA BLA BLA BLA BLA BLA BLA BLA BLA 
BLA BLA BLA BLA BLA BLA BLA BLA BLA BLA BLA BLA BLA BLA BLA BLA BLA BLA BLA BLA 
BLA BLA BLA BLA BLA BLA BLA BLA BLA BLA BLA BLA BLA BLA BLA BLA BLA BLA BLA BLA 
BLA BLA BLA BLA BLA BLA BLA BLA BLA BLA BLA BLA BLA BLA BLA BLA BLA BLA BLA BLA 
BLA BLA BLA BLA BLA BLA BLA BLA BLA BLA BLA BLA BLA BLA BLA BLA BLA BLA BLA BLA 
BLA BLA BLA BLA BLA BLA BLA BLA BLA BLA BLA BLA BLA BLA BLA BLA BLA BLA BLA BLA 
BLA BLA BLA BLA BLA BLA BLA BLA BLA BLA BLA BLA BLA BLA BLA BLA BLA BLA BLA BLA 
BLA BLA BLA BLA BLA BLA BLA BLA BLA BLA BLA BLA BLA BLA BLA BLA BLA BLA BLA BLA 
BLA BLA BLA BLA BLA BLA BLA BLA BLA BLA BLA BLA BLA BLA BLA BLA BLA BLA BLA BLA 
BLA BLA BLA BLA BLA BLA BLA BLA BLA BLA BLA BLA BLA BLA BLA BLA BLA BLA BLA BLA 
BLA BLA BLA BLA BLA BLA BLA BLA BLA BLA BLA BLA BLA BLA BLA BLA BLA BLA BLA BLA 
BLA BLA BLA BLA BLA BLA BLA BLA BLA BLA BLA BLA BLA BLA BLA BLA BLA BLA BLA BLA 
BLA BLA BLA BLA BLA BLA BLA BLA BLA BLA BLA BLA BLA BLA BLA BLA BLA BLA BLA BLA 
BLA BLA BLA BLA BLA BLA BLA BLA BLA BLA BLA BLA BLA BLA BLA BLA BLA BLA BLA BLA 
BLA BLA BLA BLA BLA BLA BLA BLA BLA BLA BLA BLA BLA BLA BLA BLA BLA BLA BLA BLA 
BLA BLA BLA BLA BLA BLA BLA BLA BLA BLA BLA BLA BLA BLA BLA BLA BLA BLA BLA BLA 
BLA BLA BLA BLA BLA BLA BLA BLA BLA BLA BLA BLA BLA BLA BLA BLA BLA BLA BLA BLA 
BLA BLA BLA BLA BLA BLA BLA BLA BLA BLA BLA BLA BLA BLA BLA BLA BLA BLA BLA BLA 
BLA BLA BLA BLA BLA BLA BLA BLA BLA BLA BLA BLA BLA BLA BLA BLA BLA BLA BLA BLA 
BLA BLA BLA BLA BLA BLA BLA BLA BLA BLA BLA BLA BLA BLA BLA BLA BLA BLA BLA BLA 
BLA BLA BLA BLA BLA BLA BLA BLA BLA BLA BLA BLA BLA BLA BLA BLA BLA BLA BLA BLA 
BLA BLA BLA BLA BLA BLA BLA BLA BLA BLA BLA BLA BLA BLA BLA BLA BLA BLA BLA BLA 
BLA BLA BLA BLA BLA BLA BLA BLA BLA BLA BLA BLA BLA BLA BLA BLA BLA BLA BLA BLA 
BLA BLA BLA BLA BLA BLA BLA BLA BLA BLA BLA BLA BLA BLA BLA BLA BLA BLA BLA BLA 
BLA BLA BLA BLA BLA BLA BLA BLA BLA BLA BLA BLA BLA BLA BLA BLA BLA BLA BLA BLA 
BLA BLA BLA BLA BLA BLA BLA BLA BLA BLA BLA BLA BLA BLA BLA BLA BLA BLA BLA BLA 
BLA BLA BLA BLA BLA BLA BLA BLA BLA BLA BLA BLA BLA BLA BLA BLA BLA BLA BLA BLA 
BLA BLA BLA BLA BLA BLA BLA BLA BLA BLA BLA BLA BLA BLA BLA BLA BLA BLA BLA BLA 
BLA BLA BLA BLA BLA BLA BLA BLA BLA BLA BLA BLA BLA BLA BLA BLA BLA BLA BLA BLA 
BLA BLA BLA BLA BLA BLA BLA BLA BLA BLA BLA BLA BLA BLA BLA BLA BLA BLA BLA BLA 
BLA BLA BLA BLA BLA BLA BLA BLA BLA BLA BLA BLA BLA BLA BLA BLA BLA BLA BLA BLA 
BLA BLA BLA BLA BLA BLA BLA BLA BLA BLA BLA BLA BLA BLA BLA BLA BLA BLA BLA BLA 
BLA BLA BLA BLA BLA BLA BLA BLA BLA BLA BLA BLA BLA BLA BLA BLA BLA BLA BLA BLA 
BLA BLA BLA BLA BLA BLA BLA BLA BLA BLA BLA BLA BLA BLA BLA BLA BLA BLA BLA BLA 
BLA BLA BLA BLA BLA BLA BLA BLA BLA BLA BLA BLA BLA BLA BLA BLA BLA BLA BLA BLA 
BLA BLA BLA BLA BLA BLA BLA BLA BLA BLA BLA BLA BLA BLA BLA BLA BLA BLA BLA BLA 
BLA BLA BLA BLA BLA BLA BLA BLA BLA BLA BLA BLA BLA BLA BLA BLA BLA BLA BLA BLA 
BLA BLA BLA BLA BLA BLA BLA BLA BLA BLA BLA BLA BLA BLA BLA BLA BLA BLA BLA BLA 
BLA BLA BLA BLA BLA BLA BLA BLA BLA BLA BLA BLA BLA BLA BLA BLA BLA BLA BLA BLA 
BLA BLA BLA BLA BLA BLA BLA BLA BLA BLA BLA BLA BLA BLA BLA BLA BLA BLA BLA BLA 
BLA BLA BLA BLA BLA BLA BLA BLA BLA BLA BLA BLA BLA BLA BLA BLA BLA BLA BLA BLA 
BLA BLA BLA BLA BLA BLA BLA BLA BLA BLA BLA BLA BLA BLA BLA BLA BLA BLA BLA BLA 
BLA BLA BLA BLA BLA BLA BLA BLA BLA BLA BLA BLA BLA BLA BLA BLA BLA BLA BLA BLA 
BLA BLA BLA BLA BLA BLA BLA BLA BLA BLA BLA BLA BLA BLA BLA BLA BLA BLA BLA BLA 
BLA BLA BLA BLA BLA BLA BLA BLA BLA BLA BLA BLA BLA BLA BLA BLA BLA BLA BLA BLA 
BLA BLA BLA BLA BLA BLA BLA BLA BLA BLA BLA BLA BLA BLA BLA BLA BLA BLA BLA BLA 
BLA BLA BLA BLA BLA BLA BLA BLA BLA BLA BLA BLA BLA BLA BLA BLA BLA BLA BLA BLA 
BLA BLA BLA BLA BLA BLA BLA BLA BLA BLA BLA BLA BLA BLA BLA BLA BLA BLA BLA BLA 
BLA BLA BLA BLA BLA BLA BLA BLA BLA BLA BLA BLA BLA BLA BLA BLA BLA BLA BLA BLA 
BLA BLA BLA BLA BLA BLA BLA BLA BLA BLA BLA BLA BLA BLA BLA BLA BLA BLA BLA BLA 
BLA BLA BLA BLA BLA BLA BLA BLA BLA BLA BLA BLA BLA BLA BLA BLA BLA BLA BLA BLA 
BLA BLA BLA BLA BLA BLA BLA BLA BLA BLA BLA BLA BLA BLA BLA BLA BLA BLA BLA BLA 
BLA BLA BLA BLA BLA BLA BLA BLA BLA BLA BLA BLA BLA BLA BLA BLA BLA BLA BLA BLA 
BLA BLA BLA BLA BLA BLA BLA BLA BLA BLA BLA BLA BLA BLA BLA BLA BLA BLA BLA BLA 
BLA BLA BLA BLA BLA BLA BLA BLA BLA BLA BLA BLA BLA BLA BLA BLA BLA BLA BLA BLA 
BLA BLA BLA BLA BLA BLA BLA BLA BLA BLA BLA BLA BLA BLA BLA BLA BLA BLA BLA BLA 
BLA BLA BLA BLA BLA BLA BLA BLA BLA BLA BLA BLA BLA BLA BLA BLA BLA BLA BLA BLA 
BLA BLA BLA BLA BLA BLA BLA BLA BLA BLA BLA BLA BLA BLA BLA BLA BLA BLA BLA BLA 
BLA BLA BLA BLA BLA BLA BLA BLA BLA BLA BLA BLA BLA BLA BLA BLA BLA BLA BLA BLA 
BLA BLA BLA BLA BLA BLA BLA BLA BLA BLA BLA BLA BLA BLA BLA BLA BLA BLA BLA BLA 
BLA BLA BLA BLA BLA BLA BLA BLA BLA BLA BLA BLA BLA BLA BLA BLA BLA BLA BLA BLA 
BLA BLA BLA BLA BLA BLA BLA BLA BLA BLA BLA BLA BLA BLA BLA BLA BLA BLA BLA BLA 
BLA BLA BLA BLA BLA BLA BLA BLA BLA BLA BLA BLA BLA BLA BLA BLA BLA BLA BLA BLA 
BLA BLA BLA BLA BLA BLA BLA BLA BLA BLA BLA BLA BLA BLA BLA BLA BLA BLA BLA BLA 
BLA BLA BLA BLA BLA BLA BLA BLA BLA BLA BLA BLA BLA BLA BLA BLA BLA BLA BLA BLA 
BLA BLA BLA BLA BLA BLA BLA BLA BLA BLA BLA BLA BLA BLA BLA BLA BLA BLA BLA BLA 
BLA BLA BLA BLA BLA BLA BLA BLA BLA BLA BLA BLA BLA BLA BLA BLA BLA BLA BLA BLA 
BLA BLA BLA BLA BLA BLA BLA BLA BLA BLA BLA BLA BLA BLA BLA BLA BLA BLA BLA BLA 
BLA BLA BLA BLA BLA BLA BLA BLA BLA BLA BLA BLA BLA BLA BLA BLA BLA BLA BLA BLA 
BLA BLA BLA BLA BLA BLA BLA BLA BLA BLA BLA BLA BLA BLA BLA BLA BLA BLA BLA BLA 
BLA BLA BLA BLA BLA BLA BLA BLA BLA BLA BLA BLA BLA BLA BLA BLA BLA BLA BLA BLA 
BLA BLA BLA BLA BLA BLA BLA BLA BLA BLA BLA BLA BLA BLA BLA BLA BLA BLA BLA BLA 
BLA BLA BLA BLA BLA BLA BLA BLA BLA BLA BLA BLA BLA BLA BLA BLA BLA BLA BLA BLA 
BLA BLA BLA BLA BLA BLA BLA BLA BLA BLA BLA BLA BLA BLA BLA BLA BLA BLA BLA BLA 
BLA BLA BLA BLA BLA BLA BLA BLA BLA BLA BLA BLA BLA BLA BLA BLA BLA BLA BLA BLA 
BLA BLA BLA BLA BLA BLA BLA BLA BLA BLA BLA BLA BLA BLA BLA BLA BLA BLA BLA BLA 
BLA BLA BLA BLA BLA BLA BLA BLA BLA BLA BLA BLA BLA BLA BLA BLA BLA BLA BLA BLA 
BLA BLA BLA BLA BLA BLA BLA BLA BLA BLA BLA BLA BLA BLA BLA BLA BLA BLA BLA BLA 
BLA BLA BLA BLA BLA BLA BLA BLA BLA BLA BLA BLA BLA BLA BLA BLA BLA BLA BLA BLA 
BLA BLA BLA BLA BLA BLA BLA BLA BLA BLA BLA BLA BLA BLA BLA BLA BLA BLA BLA BLA 
BLA BLA BLA BLA BLA BLA BLA BLA BLA BLA BLA BLA BLA BLA BLA BLA BLA BLA BLA BLA 
BLA BLA BLA BLA BLA BLA BLA BLA BLA BLA BLA BLA BLA BLA BLA BLA BLA BLA BLA BLA 
BLA BLA BLA BLA BLA BLA BLA BLA BLA BLA BLA BLA BLA BLA BLA BLA BLA BLA BLA BLA 
BLA BLA BLA BLA BLA BLA BLA BLA BLA BLA BLA BLA BLA BLA BLA BLA BLA BLA BLA BLA 
BLA BLA BLA BLA BLA BLA BLA BLA BLA BLA BLA BLA BLA BLA BLA BLA BLA BLA BLA BLA 
BLA BLA BLA BLA BLA BLA BLA BLA BLA BLA BLA BLA BLA BLA BLA BLA BLA BLA BLA BLA 
BLA BLA BLA BLA BLA BLA BLA BLA BLA BLA BLA BLA BLA BLA BLA BLA BLA BLA BLA BLA 
BLA BLA BLA BLA BLA BLA BLA BLA BLA BLA BLA BLA BLA BLA BLA BLA BLA BLA BLA BLA 
BLA BLA BLA BLA BLA BLA BLA BLA BLA BLA BLA BLA BLA BLA BLA BLA BLA BLA BLA BLA 
BLA BLA BLA BLA BLA BLA BLA BLA BLA BLA BLA BLA BLA BLA BLA BLA BLA BLA BLA BLA 
BLA BLA BLA BLA BLA BLA BLA BLA BLA BLA BLA BLA BLA BLA BLA BLA BLA BLA BLA BLA 
BLA BLA BLA BLA BLA BLA BLA BLA BLA BLA BLA BLA BLA BLA BLA BLA BLA BLA BLA BLA 
BLA BLA BLA BLA BLA BLA BLA BLA BLA BLA BLA BLA BLA BLA BLA BLA BLA BLA BLA BLA 
BLA BLA BLA BLA BLA BLA BLA BLA BLA BLA BLA BLA BLA BLA BLA BLA BLA BLA BLA BLA 
BLA BLA BLA BLA BLA BLA BLA BLA BLA BLA BLA BLA BLA BLA BLA BLA BLA BLA BLA BLA 
BLA BLA BLA BLA BLA BLA BLA BLA BLA BLA BLA BLA BLA BLA BLA BLA BLA BLA BLA BLA 
BLA BLA BLA BLA BLA BLA BLA BLA BLA BLA BLA BLA BLA BLA BLA BLA BLA BLA BLA BLA 
BLA BLA BLA BLA BLA BLA BLA BLA BLA BLA BLA BLA BLA BLA BLA BLA BLA BLA BLA BLA 
BLA BLA BLA BLA BLA BLA BLA BLA BLA BLA BLA BLA BLA BLA BLA BLA BLA BLA BLA BLA 
BLA BLA BLA BLA BLA BLA BLA BLA BLA BLA BLA BLA BLA BLA BLA BLA BLA BLA BLA BLA 
BLA BLA BLA BLA BLA BLA BLA BLA BLA BLA BLA BLA BLA BLA BLA BLA BLA BLA BLA BLA 
BLA BLA BLA BLA BLA BLA BLA BLA BLA BLA BLA BLA BLA BLA BLA BLA BLA BLA BLA BLA 
BLA BLA BLA BLA BLA BLA BLA BLA BLA BLA BLA BLA BLA BLA BLA BLA BLA BLA BLA BLA 
BLA BLA BLA BLA BLA BLA BLA BLA BLA BLA BLA BLA BLA BLA BLA BLA BLA BLA BLA BLA 
BLA BLA BLA BLA BLA BLA BLA BLA BLA BLA BLA BLA BLA BLA BLA BLA BLA BLA BLA BLA 
BLA BLA BLA BLA BLA BLA BLA BLA BLA BLA BLA BLA BLA BLA BLA BLA BLA BLA BLA BLA 
BLA BLA BLA BLA BLA BLA BLA BLA BLA BLA BLA BLA BLA BLA BLA BLA BLA BLA BLA BLA 
BLA BLA BLA BLA BLA BLA BLA BLA BLA BLA BLA BLA BLA BLA BLA BLA BLA BLA BLA BLA 
BLA BLA BLA BLA BLA BLA BLA BLA BLA BLA BLA BLA BLA BLA BLA BLA BLA BLA BLA BLA 
BLA BLA BLA BLA BLA BLA BLA BLA BLA BLA BLA BLA BLA BLA BLA BLA BLA BLA BLA BLA 
BLA BLA BLA BLA BLA BLA BLA BLA BLA BLA BLA BLA BLA BLA BLA BLA BLA BLA BLA BLA 
BLA BLA BLA BLA BLA BLA BLA BLA BLA BLA BLA BLA BLA BLA BLA BLA BLA BLA BLA BLA 
BLA BLA BLA BLA BLA BLA BLA BLA BLA BLA BLA BLA BLA BLA BLA BLA BLA BLA BLA BLA 
BLA BLA BLA BLA BLA BLA BLA BLA BLA BLA BLA BLA BLA BLA BLA BLA BLA BLA BLA BLA 
BLA BLA BLA BLA BLA BLA BLA BLA BLA BLA BLA BLA BLA BLA BLA BLA BLA BLA BLA BLA 
BLA BLA BLA BLA BLA BLA BLA BLA BLA BLA BLA BLA BLA BLA BLA BLA BLA BLA BLA BLA 
BLA BLA BLA BLA BLA BLA BLA BLA BLA BLA BLA BLA BLA BLA BLA BLA BLA BLA BLA BLA 
BLA BLA BLA BLA BLA BLA BLA BLA BLA BLA BLA BLA BLA BLA BLA BLA BLA BLA BLA BLA 
BLA BLA BLA BLA BLA BLA BLA BLA BLA BLA BLA BLA BLA BLA BLA BLA BLA BLA BLA BLA 
BLA BLA BLA BLA BLA BLA BLA BLA BLA BLA BLA BLA BLA BLA BLA BLA BLA BLA BLA BLA 
BLA BLA BLA BLA BLA BLA BLA BLA BLA BLA BLA BLA BLA BLA BLA BLA BLA BLA BLA BLA 
BLA BLA BLA BLA BLA BLA BLA BLA BLA BLA BLA BLA BLA BLA BLA BLA BLA BLA BLA BLA 
BLA BLA BLA BLA BLA BLA BLA BLA BLA BLA BLA BLA BLA BLA BLA BLA BLA BLA BLA BLA 
BLA BLA BLA BLA BLA BLA BLA BLA BLA BLA BLA BLA BLA BLA BLA BLA BLA BLA BLA BLA 
BLA BLA BLA BLA BLA BLA BLA BLA BLA BLA BLA BLA BLA BLA BLA BLA BLA BLA BLA BLA 
BLA BLA BLA BLA BLA BLA BLA BLA BLA BLA BLA BLA BLA BLA BLA BLA BLA BLA BLA BLA 
BLA BLA BLA BLA BLA BLA BLA BLA BLA BLA BLA BLA BLA BLA BLA BLA BLA BLA BLA BLA 
BLA BLA BLA BLA BLA BLA BLA BLA BLA BLA BLA BLA BLA BLA BLA BLA BLA BLA BLA BLA 
BLA BLA BLA BLA BLA BLA BLA BLA BLA BLA BLA BLA BLA BLA BLA BLA BLA BLA BLA BLA 
BLA BLA BLA BLA BLA BLA BLA BLA BLA BLA BLA BLA BLA BLA BLA BLA BLA BLA BLA BLA 
BLA BLA BLA BLA BLA BLA BLA BLA BLA BLA BLA BLA BLA BLA BLA BLA BLA BLA BLA BLA 
BLA BLA BLA BLA BLA BLA BLA BLA BLA BLA BLA BLA BLA BLA BLA BLA BLA BLA BLA BLA 
BLA BLA BLA BLA BLA BLA BLA BLA BLA BLA BLA BLA BLA BLA BLA BLA BLA BLA BLA BLA 
BLA BLA BLA BLA BLA BLA BLA BLA BLA BLA BLA BLA BLA BLA BLA BLA BLA BLA BLA BLA 
BLA BLA BLA BLA BLA BLA BLA BLA BLA BLA BLA BLA BLA BLA BLA BLA BLA BLA BLA BLA 
BLA BLA BLA BLA BLA BLA BLA BLA BLA BLA BLA BLA BLA BLA BLA BLA BLA BLA BLA BLA 
BLA BLA BLA BLA BLA BLA BLA BLA BLA BLA BLA BLA BLA BLA BLA BLA BLA BLA BLA BLA 
BLA BLA BLA BLA BLA BLA BLA BLA BLA BLA BLA BLA BLA BLA BLA BLA BLA BLA BLA BLA 
BLA BLA BLA BLA BLA BLA BLA BLA BLA BLA BLA BLA BLA BLA BLA BLA BLA BLA BLA BLA 
BLA BLA BLA BLA BLA BLA BLA BLA BLA BLA BLA BLA BLA BLA BLA BLA BLA BLA BLA BLA 
BLA BLA BLA BLA BLA BLA BLA BLA BLA BLA BLA BLA BLA BLA BLA BLA BLA BLA BLA BLA 
BLA BLA BLA BLA BLA BLA BLA BLA BLA BLA BLA BLA BLA BLA BLA BLA BLA BLA BLA BLA 
BLA BLA BLA BLA BLA BLA BLA BLA BLA BLA BLA BLA BLA BLA BLA BLA BLA BLA BLA BLA 
BLA BLA BLA BLA BLA BLA BLA BLA BLA BLA BLA BLA BLA BLA BLA BLA BLA BLA BLA BLA 
BLA BLA BLA BLA BLA BLA BLA BLA BLA BLA BLA BLA BLA BLA BLA BLA BLA BLA BLA BLA 
BLA BLA BLA BLA BLA BLA BLA BLA BLA BLA BLA BLA BLA BLA BLA BLA BLA BLA BLA BLA 
BLA BLA BLA BLA BLA BLA BLA BLA BLA BLA BLA BLA BLA BLA BLA BLA BLA BLA BLA BLA 
BLA BLA BLA BLA BLA BLA BLA BLA BLA BLA BLA BLA BLA BLA BLA BLA BLA BLA BLA BLA 
BLA BLA BLA BLA BLA BLA BLA BLA BLA BLA BLA BLA BLA BLA BLA BLA BLA BLA BLA BLA 
BLA BLA BLA BLA BLA BLA BLA BLA BLA BLA BLA BLA BLA BLA BLA BLA BLA BLA BLA BLA 
BLA BLA BLA BLA BLA BLA BLA BLA BLA BLA BLA BLA BLA BLA BLA BLA BLA BLA BLA BLA 
BLA BLA BLA BLA BLA BLA BLA BLA BLA BLA BLA BLA BLA BLA BLA BLA BLA BLA BLA BLA 
BLA BLA BLA BLA BLA BLA BLA BLA BLA BLA BLA BLA BLA BLA BLA BLA BLA BLA BLA BLA 
BLA BLA BLA BLA BLA BLA BLA BLA BLA BLA BLA BLA BLA BLA BLA BLA BLA BLA BLA BLA 
BLA BLA BLA BLA BLA BLA BLA BLA BLA BLA BLA BLA BLA BLA BLA BLA BLA BLA BLA BLA 
BLA BLA BLA BLA BLA BLA BLA BLA BLA BLA BLA BLA BLA BLA BLA BLA BLA BLA BLA BLA 
BLA BLA BLA BLA BLA BLA BLA BLA BLA BLA BLA BLA BLA BLA BLA BLA BLA BLA BLA BLA 
BLA BLA BLA BLA BLA BLA BLA BLA BLA BLA BLA BLA BLA BLA BLA BLA BLA BLA BLA BLA 
BLA BLA BLA BLA BLA BLA BLA BLA BLA BLA BLA BLA BLA BLA BLA BLA BLA BLA BLA BLA 
BLA BLA BLA BLA BLA BLA BLA BLA BLA BLA BLA BLA BLA BLA BLA BLA BLA BLA BLA BLA 
BLA BLA BLA BLA BLA BLA BLA BLA BLA BLA BLA BLA BLA BLA BLA BLA BLA BLA BLA BLA 
BLA BLA BLA BLA BLA BLA BLA BLA BLA BLA BLA BLA BLA BLA BLA BLA BLA BLA BLA BLA 
BLA BLA BLA BLA BLA BLA BLA BLA BLA BLA BLA BLA BLA BLA BLA BLA BLA BLA BLA BLA 
BLA BLA BLA BLA BLA BLA BLA BLA BLA BLA BLA BLA BLA BLA BLA BLA BLA BLA BLA BLA 
BLA BLA BLA BLA BLA BLA BLA BLA BLA BLA BLA BLA BLA BLA BLA BLA BLA BLA BLA BLA 
BLA BLA BLA BLA BLA BLA BLA BLA BLA BLA BLA BLA BLA BLA BLA BLA BLA BLA BLA BLA 
BLA BLA BLA BLA BLA BLA BLA BLA BLA BLA BLA BLA BLA BLA BLA BLA BLA BLA BLA BLA 
BLA BLA BLA BLA BLA BLA BLA BLA BLA BLA BLA BLA BLA BLA BLA BLA BLA BLA BLA BLA 
BLA BLA BLA BLA BLA BLA BLA BLA BLA BLA BLA BLA BLA BLA BLA BLA BLA BLA BLA BLA 
BLA BLA BLA BLA BLA BLA BLA BLA BLA BLA BLA BLA BLA BLA BLA BLA BLA BLA BLA BLA 
BLA BLA BLA BLA BLA BLA BLA BLA BLA BLA BLA BLA BLA BLA BLA BLA BLA BLA BLA BLA 
BLA BLA BLA BLA BLA BLA BLA BLA BLA BLA BLA BLA BLA BLA BLA BLA BLA BLA BLA BLA 
BLA BLA BLA BLA BLA BLA BLA BLA BLA BLA BLA BLA BLA BLA BLA BLA BLA BLA BLA BLA 
BLA BLA BLA BLA BLA BLA BLA BLA BLA BLA BLA BLA BLA BLA BLA BLA BLA BLA BLA BLA 
BLA BLA BLA BLA BLA BLA BLA BLA BLA BLA BLA BLA BLA BLA BLA BLA BLA BLA BLA BLA 
BLA BLA BLA BLA BLA BLA BLA BLA BLA BLA BLA BLA BLA BLA BLA BLA BLA BLA BLA BLA 
BLA BLA BLA BLA BLA BLA BLA BLA BLA BLA BLA BLA BLA BLA BLA BLA BLA BLA BLA BLA 
BLA BLA BLA BLA BLA BLA BLA BLA BLA BLA BLA BLA BLA BLA BLA BLA BLA BLA BLA BLA 
BLA BLA BLA BLA BLA BLA BLA BLA BLA BLA BLA BLA BLA BLA BLA BLA BLA BLA BLA BLA 
BLA BLA BLA BLA BLA BLA BLA BLA BLA BLA BLA BLA BLA BLA BLA BLA BLA BLA BLA BLA 
BLA BLA BLA BLA BLA BLA BLA BLA BLA BLA BLA BLA BLA BLA BLA BLA BLA BLA BLA BLA 
BLA BLA BLA BLA BLA BLA BLA BLA BLA BLA BLA BLA BLA BLA BLA BLA BLA BLA BLA BLA 
BLA BLA BLA BLA BLA BLA BLA BLA BLA BLA BLA BLA BLA BLA BLA BLA BLA BLA BLA BLA 
BLA BLA BLA BLA BLA BLA BLA BLA BLA BLA BLA BLA BLA BLA BLA BLA BLA BLA BLA BLA 
BLA BLA BLA BLA BLA BLA BLA BLA BLA BLA BLA BLA BLA BLA BLA BLA BLA BLA BLA BLA 
BLA BLA BLA BLA BLA BLA BLA BLA BLA BLA BLA BLA BLA BLA BLA BLA BLA BLA BLA BLA 
BLA BLA BLA BLA BLA BLA BLA BLA BLA BLA BLA BLA BLA BLA BLA BLA BLA BLA BLA BLA 
BLA BLA BLA BLA BLA BLA BLA BLA BLA BLA BLA BLA BLA BLA BLA BLA BLA BLA BLA BLA 
BLA BLA BLA BLA BLA BLA BLA BLA BLA BLA BLA BLA BLA BLA BLA BLA BLA BLA BLA BLA 
BLA BLA BLA BLA BLA BLA BLA BLA BLA BLA BLA BLA BLA BLA BLA BLA BLA BLA BLA BLA 
BLA BLA BLA BLA BLA BLA BLA BLA BLA BLA BLA BLA BLA BLA BLA BLA BLA BLA BLA BLA 
BLA BLA BLA BLA BLA BLA BLA BLA BLA BLA BLA BLA BLA BLA BLA BLA BLA BLA BLA BLA 
BLA BLA BLA BLA BLA BLA BLA BLA BLA BLA BLA BLA BLA BLA BLA BLA BLA BLA BLA BLA 
BLA BLA BLA BLA BLA BLA BLA BLA BLA BLA BLA BLA BLA BLA BLA BLA BLA BLA BLA BLA 
BLA BLA BLA BLA BLA BLA BLA BLA BLA BLA BLA BLA BLA BLA BLA BLA BLA BLA BLA BLA 
BLA BLA BLA BLA BLA BLA BLA BLA BLA BLA BLA BLA BLA BLA BLA BLA BLA BLA BLA BLA 
BLA BLA BLA BLA BLA BLA BLA BLA BLA BLA BLA BLA BLA BLA BLA BLA BLA BLA BLA BLA 
BLA BLA BLA BLA BLA BLA BLA BLA BLA BLA BLA BLA BLA BLA BLA BLA BLA BLA BLA BLA 
BLA BLA BLA BLA BLA BLA BLA BLA BLA BLA BLA BLA BLA BLA BLA BLA BLA BLA BLA BLA 
BLA BLA BLA BLA BLA BLA BLA BLA BLA BLA BLA BLA BLA BLA BLA BLA BLA BLA BLA BLA 
BLA BLA BLA BLA BLA BLA BLA BLA BLA BLA BLA BLA BLA BLA BLA BLA BLA BLA BLA BLA 
BLA BLA BLA BLA BLA BLA BLA BLA BLA BLA BLA BLA BLA BLA BLA BLA BLA BLA BLA BLA 
BLA BLA BLA BLA BLA BLA BLA BLA BLA BLA BLA BLA BLA BLA BLA BLA BLA BLA BLA BLA 
BLA BLA BLA BLA BLA BLA BLA BLA BLA BLA BLA BLA BLA BLA BLA BLA BLA BLA BLA BLA 
BLA BLA BLA BLA BLA BLA BLA BLA BLA BLA BLA BLA BLA BLA BLA BLA BLA BLA BLA BLA 
BLA BLA BLA BLA BLA BLA BLA BLA BLA BLA BLA BLA BLA BLA BLA BLA BLA BLA BLA BLA 
BLA BLA BLA BLA BLA BLA BLA BLA BLA BLA BLA BLA BLA BLA BLA BLA BLA BLA BLA BLA 
BLA BLA BLA BLA BLA BLA BLA BLA BLA BLA BLA BLA BLA BLA BLA BLA BLA BLA BLA BLA 
BLA BLA BLA BLA BLA BLA BLA BLA BLA BLA BLA BLA BLA BLA BLA BLA BLA BLA BLA BLA 
BLA BLA BLA BLA BLA BLA BLA BLA BLA BLA BLA BLA BLA BLA BLA BLA BLA BLA BLA BLA 
BLA BLA BLA BLA BLA BLA BLA BLA BLA BLA BLA BLA BLA BLA BLA BLA BLA BLA BLA BLA 
BLA BLA BLA BLA BLA BLA BLA BLA BLA BLA BLA BLA BLA BLA BLA BLA BLA BLA BLA BLA 
BLA BLA BLA BLA BLA BLA BLA BLA BLA BLA BLA BLA BLA BLA BLA BLA BLA BLA BLA BLA 
BLA BLA BLA BLA BLA BLA BLA BLA BLA BLA BLA BLA BLA BLA BLA BLA BLA BLA BLA BLA 
BLA BLA BLA BLA BLA BLA BLA BLA BLA BLA BLA BLA BLA BLA BLA BLA BLA BLA BLA BLA 
BLA BLA BLA BLA BLA BLA BLA BLA BLA BLA BLA BLA BLA BLA BLA BLA BLA BLA BLA BLA 
BLA BLA BLA BLA BLA BLA BLA BLA BLA BLA BLA BLA BLA BLA BLA BLA BLA BLA BLA BLA 
BLA BLA BLA BLA BLA BLA BLA BLA BLA BLA BLA BLA BLA BLA BLA BLA BLA BLA BLA BLA 
BLA BLA BLA BLA BLA BLA BLA BLA BLA BLA BLA BLA BLA BLA BLA BLA BLA BLA BLA BLA 
BLA BLA BLA BLA BLA BLA BLA BLA BLA BLA BLA BLA BLA BLA BLA BLA BLA BLA BLA BLA 
BLA BLA BLA BLA BLA BLA BLA BLA BLA BLA BLA BLA BLA BLA BLA BLA BLA BLA BLA BLA 
BLA BLA BLA BLA BLA BLA BLA BLA BLA BLA BLA BLA BLA BLA BLA BLA BLA BLA BLA BLA 
BLA BLA BLA BLA BLA BLA BLA BLA BLA BLA BLA BLA BLA BLA BLA BLA BLA BLA BLA BLA 
BLA BLA BLA BLA BLA BLA BLA BLA BLA BLA BLA BLA BLA BLA BLA BLA BLA BLA BLA BLA 
BLA BLA BLA BLA BLA BLA BLA BLA BLA BLA BLA BLA BLA BLA BLA BLA BLA BLA BLA BLA 
BLA BLA BLA BLA BLA BLA BLA BLA BLA BLA BLA BLA BLA BLA BLA BLA BLA BLA BLA BLA 
BLA BLA BLA BLA BLA BLA BLA BLA BLA BLA BLA BLA BLA BLA BLA BLA BLA BLA BLA BLA 
BLA BLA BLA BLA BLA BLA BLA BLA BLA BLA BLA BLA BLA BLA BLA BLA BLA BLA BLA BLA 
BLA BLA BLA BLA BLA BLA BLA BLA BLA BLA BLA BLA BLA BLA BLA BLA BLA BLA BLA BLA 
BLA BLA BLA BLA BLA BLA BLA BLA BLA BLA BLA BLA BLA BLA BLA BLA BLA BLA BLA BLA 
BLA BLA BLA BLA BLA BLA BLA BLA BLA BLA BLA BLA BLA BLA BLA BLA BLA BLA BLA BLA 
BLA BLA BLA BLA BLA BLA BLA BLA BLA BLA BLA BLA BLA BLA BLA BLA BLA BLA BLA BLA 
BLA BLA BLA BLA BLA BLA BLA BLA BLA BLA BLA BLA BLA BLA BLA BLA BLA BLA BLA BLA 
BLA BLA BLA BLA BLA BLA BLA BLA BLA BLA BLA BLA BLA BLA BLA BLA BLA BLA BLA BLA 
BLA BLA BLA BLA BLA BLA BLA BLA BLA BLA BLA BLA BLA BLA BLA BLA BLA BLA BLA BLA 
BLA BLA BLA BLA BLA BLA BLA BLA BLA BLA BLA BLA BLA BLA BLA BLA BLA BLA BLA BLA 
BLA BLA BLA BLA BLA BLA BLA BLA BLA BLA BLA BLA BLA BLA BLA BLA BLA BLA BLA BLA 
BLA BLA BLA BLA BLA BLA BLA BLA BLA BLA BLA BLA BLA BLA BLA BLA BLA BLA BLA BLA 
BLA BLA BLA BLA BLA BLA BLA BLA BLA BLA BLA BLA BLA BLA BLA BLA BLA BLA BLA BLA 
BLA BLA BLA BLA BLA BLA BLA BLA BLA BLA BLA BLA BLA BLA BLA BLA BLA BLA BLA BLA 
BLA BLA BLA BLA BLA BLA BLA BLA BLA BLA BLA BLA BLA BLA BLA BLA BLA BLA BLA BLA 
BLA BLA BLA BLA BLA BLA BLA BLA BLA BLA BLA BLA BLA BLA BLA BLA BLA BLA BLA BLA 
BLA BLA BLA BLA BLA BLA BLA BLA BLA BLA BLA BLA BLA BLA BLA BLA BLA BLA BLA BLA 
BLA BLA BLA BLA BLA BLA BLA BLA BLA BLA BLA BLA BLA BLA BLA BLA BLA BLA BLA BLA 
BLA BLA BLA BLA BLA BLA BLA BLA BLA BLA BLA BLA BLA BLA BLA BLA BLA BLA BLA BLA 
BLA BLA BLA BLA BLA BLA BLA BLA BLA BLA BLA BLA BLA BLA BLA BLA BLA BLA BLA BLA 
BLA BLA BLA BLA BLA BLA BLA BLA BLA BLA BLA BLA BLA BLA BLA BLA BLA BLA BLA BLA 
BLA BLA BLA BLA BLA BLA BLA BLA BLA BLA BLA BLA BLA BLA BLA BLA BLA BLA BLA BLA 
BLA BLA BLA BLA BLA BLA BLA BLA BLA BLA BLA BLA BLA BLA BLA BLA BLA BLA BLA BLA 
BLA BLA BLA BLA BLA BLA BLA BLA BLA BLA BLA BLA BLA BLA BLA BLA BLA BLA BLA BLA 
BLA BLA BLA BLA BLA BLA BLA BLA BLA BLA BLA BLA BLA BLA BLA BLA BLA BLA BLA BLA 
BLA BLA BLA BLA BLA BLA BLA BLA BLA BLA BLA BLA BLA BLA BLA BLA BLA BLA BLA BLA 
BLA BLA BLA BLA BLA BLA BLA BLA BLA BLA BLA BLA BLA BLA BLA BLA BLA BLA BLA BLA 
BLA BLA BLA BLA BLA BLA BLA BLA BLA BLA BLA BLA BLA BLA BLA BLA BLA BLA BLA BLA 
BLA BLA BLA BLA BLA BLA BLA BLA BLA BLA BLA BLA BLA BLA BLA BLA BLA BLA BLA BLA 
BLA BLA BLA BLA BLA BLA BLA BLA BLA BLA BLA BLA BLA BLA BLA BLA BLA BLA BLA BLA 
BLA BLA BLA BLA BLA BLA BLA BLA BLA BLA BLA BLA BLA BLA BLA BLA BLA BLA BLA BLA 
BLA BLA BLA BLA BLA BLA BLA BLA BLA BLA BLA BLA BLA BLA BLA BLA BLA BLA BLA BLA 
BLA BLA BLA BLA BLA BLA BLA BLA BLA BLA BLA BLA BLA BLA BLA BLA BLA BLA BLA BLA 
BLA BLA BLA BLA BLA BLA BLA BLA BLA BLA BLA BLA BLA BLA BLA BLA BLA BLA BLA BLA 
BLA BLA BLA BLA BLA BLA BLA BLA BLA BLA BLA BLA BLA BLA BLA BLA BLA BLA BLA BLA 
BLA BLA BLA BLA BLA BLA BLA BLA BLA BLA BLA BLA BLA BLA BLA BLA BLA BLA BLA BLA 
BLA BLA BLA BLA BLA BLA BLA BLA BLA BLA BLA BLA BLA BLA BLA BLA BLA BLA BLA BLA 
BLA BLA BLA BLA BLA BLA BLA BLA BLA BLA BLA BLA BLA BLA BLA BLA BLA BLA BLA BLA 
BLA BLA BLA BLA BLA BLA BLA BLA BLA BLA BLA BLA BLA BLA BLA BLA BLA BLA BLA BLA 
BLA BLA BLA BLA BLA BLA BLA BLA BLA BLA BLA BLA BLA BLA BLA BLA BLA BLA BLA BLA 
BLA BLA BLA BLA BLA BLA BLA BLA BLA BLA BLA BLA BLA BLA BLA BLA BLA BLA BLA BLA 
BLA BLA BLA BLA BLA BLA BLA BLA BLA BLA BLA BLA BLA BLA BLA BLA BLA BLA BLA BLA 
BLA BLA BLA BLA BLA BLA BLA BLA BLA BLA BLA BLA BLA BLA BLA BLA BLA BLA BLA BLA 
BLA BLA BLA BLA BLA BLA BLA BLA BLA BLA BLA BLA BLA BLA BLA BLA BLA BLA BLA BLA 
BLA BLA BLA BLA BLA BLA BLA BLA BLA BLA BLA BLA BLA BLA BLA BLA BLA BLA BLA BLA 
BLA BLA BLA BLA BLA BLA BLA BLA BLA BLA BLA BLA BLA BLA BLA BLA BLA BLA BLA BLA 
BLA BLA BLA BLA BLA BLA BLA BLA BLA BLA BLA BLA BLA BLA BLA BLA BLA BLA BLA BLA 
BLA BLA BLA BLA BLA BLA BLA BLA BLA BLA BLA BLA BLA BLA BLA BLA BLA BLA BLA BLA 
BLA BLA BLA BLA BLA BLA BLA BLA BLA BLA BLA BLA BLA BLA BLA BLA BLA BLA BLA BLA 
BLA BLA BLA BLA BLA BLA BLA BLA BLA BLA BLA BLA BLA BLA BLA BLA BLA BLA BLA BLA 
BLA BLA BLA BLA BLA BLA BLA BLA BLA BLA BLA BLA BLA BLA BLA BLA BLA BLA BLA BLA 
BLA BLA BLA BLA BLA BLA BLA BLA BLA BLA BLA BLA BLA BLA BLA BLA BLA BLA BLA BLA 
BLA BLA BLA BLA BLA BLA BLA BLA BLA BLA BLA BLA BLA BLA BLA BLA BLA BLA BLA BLA 
BLA BLA BLA BLA BLA BLA BLA BLA BLA BLA BLA BLA BLA BLA BLA BLA BLA BLA BLA BLA 
BLA BLA BLA BLA BLA BLA BLA BLA BLA BLA BLA BLA BLA BLA BLA BLA BLA BLA BLA BLA 
BLA BLA BLA BLA BLA BLA BLA BLA BLA BLA BLA BLA BLA BLA BLA BLA BLA BLA BLA BLA 
BLA BLA BLA BLA BLA BLA BLA BLA BLA BLA BLA BLA BLA BLA BLA BLA BLA BLA BLA BLA 
BLA BLA BLA BLA BLA BLA BLA BLA BLA BLA BLA BLA BLA BLA BLA BLA BLA BLA BLA BLA 
BLA BLA BLA BLA BLA BLA BLA BLA BLA BLA BLA BLA BLA BLA BLA BLA BLA BLA BLA BLA 
BLA BLA BLA BLA BLA BLA BLA BLA BLA BLA BLA BLA BLA BLA BLA BLA BLA BLA BLA BLA 
BLA BLA BLA BLA BLA BLA BLA BLA BLA BLA BLA BLA BLA BLA BLA BLA BLA BLA BLA BLA 
BLA BLA BLA BLA BLA BLA BLA BLA BLA BLA BLA BLA BLA BLA BLA BLA BLA BLA BLA BLA 
BLA BLA BLA BLA BLA BLA BLA BLA BLA BLA BLA BLA BLA BLA BLA BLA BLA BLA BLA BLA 
BLA BLA BLA BLA BLA BLA BLA BLA BLA BLA BLA BLA BLA BLA BLA BLA BLA BLA BLA BLA 
BLA BLA BLA BLA BLA BLA BLA BLA BLA BLA BLA BLA BLA BLA BLA BLA BLA BLA BLA BLA 
BLA BLA BLA BLA BLA BLA BLA BLA BLA BLA BLA BLA BLA BLA BLA BLA BLA BLA BLA BLA 
BLA BLA BLA BLA BLA BLA BLA BLA BLA BLA BLA BLA BLA BLA BLA BLA BLA BLA BLA BLA 
BLA BLA BLA BLA BLA BLA BLA BLA BLA BLA BLA BLA BLA BLA BLA BLA BLA BLA BLA BLA 
BLA BLA BLA BLA BLA BLA BLA BLA BLA BLA BLA BLA BLA BLA BLA BLA BLA BLA BLA BLA 
BLA BLA BLA BLA BLA BLA BLA BLA BLA BLA BLA BLA BLA BLA BLA BLA BLA BLA BLA BLA 
BLA BLA BLA BLA BLA BLA BLA BLA BLA BLA BLA BLA BLA BLA BLA BLA BLA BLA BLA BLA 
BLA BLA BLA BLA BLA BLA BLA BLA BLA BLA BLA BLA BLA BLA BLA BLA BLA BLA BLA BLA 
BLA BLA BLA BLA BLA BLA BLA BLA BLA BLA BLA BLA BLA BLA BLA BLA BLA BLA BLA BLA 
BLA BLA BLA BLA BLA BLA BLA BLA BLA BLA BLA BLA BLA BLA BLA BLA BLA BLA BLA BLA 
BLA BLA BLA BLA BLA BLA BLA BLA BLA BLA BLA BLA BLA BLA BLA BLA BLA BLA BLA BLA 
BLA BLA BLA BLA BLA BLA BLA BLA BLA BLA BLA BLA BLA BLA BLA BLA BLA BLA BLA BLA 
BLA BLA BLA BLA BLA BLA BLA BLA BLA BLA BLA BLA BLA BLA BLA BLA BLA BLA BLA BLA 
BLA BLA BLA BLA BLA BLA BLA BLA BLA BLA BLA BLA BLA BLA BLA BLA BLA BLA BLA BLA 
BLA BLA BLA BLA BLA BLA BLA BLA BLA BLA BLA BLA BLA BLA BLA BLA BLA BLA BLA BLA 
BLA BLA BLA BLA BLA BLA BLA BLA BLA BLA BLA BLA BLA BLA BLA BLA BLA BLA BLA BLA 
BLA BLA BLA BLA BLA BLA BLA BLA BLA BLA BLA BLA BLA BLA BLA BLA BLA BLA BLA BLA 
BLA BLA BLA BLA BLA BLA BLA BLA BLA BLA BLA BLA BLA BLA BLA BLA BLA BLA BLA BLA 
BLA BLA BLA BLA BLA BLA BLA BLA BLA BLA BLA BLA BLA BLA BLA BLA BLA BLA BLA BLA 
BLA BLA BLA BLA BLA BLA BLA BLA BLA BLA BLA BLA BLA BLA BLA BLA BLA BLA BLA BLA 
BLA BLA BLA BLA BLA BLA BLA BLA BLA BLA BLA BLA BLA BLA BLA BLA BLA BLA BLA BLA 
BLA BLA BLA BLA BLA BLA BLA BLA BLA BLA BLA BLA BLA BLA BLA BLA BLA BLA BLA BLA 
BLA BLA BLA BLA BLA BLA BLA BLA BLA BLA BLA BLA BLA BLA BLA BLA BLA BLA BLA BLA 
BLA BLA BLA BLA BLA BLA BLA BLA BLA BLA BLA BLA BLA BLA BLA BLA BLA BLA BLA BLA 
BLA BLA BLA BLA BLA BLA BLA BLA BLA BLA BLA BLA BLA BLA BLA BLA BLA BLA BLA BLA 
BLA BLA BLA BLA BLA BLA BLA BLA BLA BLA BLA BLA BLA BLA BLA BLA BLA BLA BLA BLA 
BLA BLA BLA BLA BLA BLA BLA BLA BLA BLA BLA BLA BLA BLA BLA BLA BLA BLA BLA BLA 
BLA BLA BLA BLA BLA BLA BLA BLA BLA BLA BLA BLA BLA BLA BLA BLA BLA BLA BLA BLA 
BLA BLA BLA BLA BLA BLA BLA BLA BLA BLA BLA BLA BLA BLA BLA BLA BLA BLA BLA BLA 
BLA BLA BLA BLA BLA BLA BLA BLA BLA BLA BLA BLA BLA BLA BLA BLA BLA BLA BLA BLA 
BLA BLA BLA BLA BLA BLA BLA BLA BLA BLA BLA BLA BLA BLA BLA BLA BLA BLA BLA BLA 
BLA BLA BLA BLA BLA BLA BLA BLA BLA BLA BLA BLA BLA BLA BLA BLA BLA BLA BLA BLA 
BLA BLA BLA BLA BLA BLA BLA BLA BLA BLA BLA BLA BLA BLA BLA BLA BLA BLA BLA BLA 
BLA BLA BLA BLA BLA BLA BLA BLA BLA BLA BLA BLA BLA BLA BLA BLA BLA BLA BLA BLA 
BLA BLA BLA BLA BLA BLA BLA BLA BLA BLA BLA BLA BLA BLA BLA BLA BLA BLA BLA BLA 
BLA BLA BLA BLA BLA BLA BLA BLA BLA BLA BLA BLA BLA BLA BLA BLA BLA BLA BLA BLA 
BLA BLA BLA BLA BLA BLA BLA BLA BLA BLA BLA BLA BLA BLA BLA BLA BLA BLA BLA BLA 
BLA BLA BLA BLA BLA BLA BLA BLA BLA BLA BLA BLA BLA BLA BLA BLA BLA BLA BLA BLA 
BLA BLA BLA BLA BLA BLA BLA BLA BLA BLA BLA BLA BLA BLA BLA BLA BLA BLA BLA BLA 
BLA BLA BLA BLA BLA BLA BLA BLA BLA BLA BLA BLA BLA BLA BLA BLA BLA BLA BLA BLA 
BLA BLA BLA BLA BLA BLA BLA BLA BLA BLA BLA BLA BLA BLA BLA BLA BLA BLA BLA BLA 
BLA BLA BLA BLA BLA BLA BLA BLA BLA BLA BLA BLA BLA BLA BLA BLA BLA BLA BLA BLA 
BLA BLA BLA BLA BLA BLA BLA BLA BLA BLA BLA BLA BLA BLA BLA BLA BLA BLA BLA BLA 
BLA BLA BLA BLA BLA BLA BLA BLA BLA BLA BLA BLA BLA BLA BLA BLA BLA BLA BLA BLA 
BLA BLA BLA BLA BLA BLA BLA BLA BLA BLA BLA BLA BLA BLA BLA BLA BLA BLA BLA BLA 
BLA BLA BLA BLA BLA BLA BLA BLA BLA BLA BLA BLA BLA BLA BLA BLA BLA BLA BLA BLA 
BLA BLA BLA BLA BLA BLA BLA BLA BLA BLA BLA BLA BLA BLA BLA BLA BLA BLA BLA BLA 
BLA BLA BLA BLA BLA BLA BLA BLA BLA BLA BLA BLA BLA BLA BLA BLA BLA BLA BLA BLA 
BLA BLA BLA BLA BLA BLA BLA BLA BLA BLA BLA BLA BLA BLA BLA BLA BLA BLA BLA BLA 
BLA BLA BLA BLA BLA BLA BLA BLA BLA BLA BLA BLA BLA BLA BLA BLA BLA BLA BLA BLA 
BLA BLA BLA BLA BLA BLA BLA BLA BLA BLA BLA BLA BLA BLA BLA BLA BLA BLA BLA BLA 
BLA BLA BLA BLA BLA BLA BLA BLA BLA BLA BLA BLA BLA BLA BLA BLA BLA BLA BLA BLA 
BLA BLA BLA BLA BLA BLA BLA BLA BLA BLA BLA BLA BLA BLA BLA BLA BLA BLA BLA BLA 
BLA BLA BLA BLA BLA BLA BLA BLA BLA BLA BLA BLA BLA BLA BLA BLA BLA BLA BLA BLA 
BLA BLA BLA BLA BLA BLA BLA BLA BLA BLA BLA BLA BLA BLA BLA BLA BLA BLA BLA BLA 
BLA BLA BLA BLA BLA BLA BLA BLA BLA BLA BLA BLA BLA BLA BLA BLA BLA BLA BLA BLA 
BLA BLA BLA BLA BLA BLA BLA BLA BLA BLA BLA BLA BLA BLA BLA BLA BLA BLA BLA BLA 
BLA BLA BLA BLA BLA BLA BLA BLA BLA BLA BLA BLA BLA BLA BLA BLA BLA BLA BLA BLA 
BLA BLA BLA BLA BLA BLA BLA BLA BLA BLA BLA BLA BLA BLA BLA BLA BLA BLA BLA BLA 
BLA BLA BLA BLA BLA BLA BLA BLA BLA BLA BLA BLA BLA BLA BLA BLA BLA BLA BLA BLA 
BLA BLA BLA BLA BLA BLA BLA BLA BLA BLA BLA BLA BLA BLA BLA BLA BLA BLA BLA BLA 
BLA BLA BLA BLA BLA BLA BLA BLA BLA BLA BLA BLA BLA BLA BLA BLA BLA BLA BLA BLA 
BLA BLA BLA BLA BLA BLA BLA BLA BLA BLA BLA BLA BLA BLA BLA BLA BLA BLA BLA BLA 
BLA BLA BLA BLA BLA BLA BLA BLA BLA BLA BLA BLA BLA BLA BLA BLA BLA BLA BLA BLA 
BLA BLA BLA BLA BLA BLA BLA BLA BLA BLA BLA BLA BLA BLA BLA BLA BLA BLA BLA BLA 
BLA BLA BLA BLA BLA BLA BLA BLA BLA BLA BLA BLA BLA BLA BLA BLA BLA BLA BLA BLA 
BLA BLA BLA BLA BLA BLA BLA BLA BLA BLA BLA BLA BLA BLA BLA BLA BLA BLA BLA BLA 
BLA BLA BLA BLA BLA BLA BLA BLA BLA BLA BLA BLA BLA BLA BLA BLA BLA BLA BLA BLA 
BLA BLA BLA BLA BLA BLA BLA BLA BLA BLA BLA BLA BLA BLA BLA BLA BLA BLA BLA BLA 
BLA BLA BLA BLA BLA BLA BLA BLA BLA BLA BLA BLA BLA BLA BLA BLA BLA BLA BLA BLA 
BLA BLA BLA BLA BLA BLA BLA BLA BLA BLA BLA BLA BLA BLA BLA BLA BLA BLA BLA BLA 
BLA BLA BLA BLA BLA BLA BLA BLA BLA BLA BLA BLA BLA BLA BLA BLA BLA BLA BLA BLA 
BLA BLA BLA BLA BLA BLA BLA BLA BLA BLA BLA BLA BLA BLA BLA BLA BLA BLA BLA BLA 
BLA BLA BLA BLA BLA BLA BLA BLA BLA BLA BLA BLA BLA BLA BLA BLA BLA BLA BLA BLA 
BLA BLA BLA BLA BLA BLA BLA BLA BLA BLA BLA BLA BLA BLA BLA BLA BLA BLA BLA BLA 
BLA BLA BLA BLA BLA BLA BLA BLA BLA BLA BLA BLA BLA BLA BLA BLA BLA BLA BLA BLA 
BLA BLA BLA BLA BLA BLA BLA BLA BLA BLA BLA BLA BLA BLA BLA BLA BLA BLA BLA BLA 
BLA BLA BLA BLA BLA BLA BLA BLA BLA BLA BLA BLA BLA BLA BLA BLA BLA BLA BLA BLA 
BLA BLA BLA BLA BLA BLA BLA BLA BLA BLA BLA BLA BLA BLA BLA BLA BLA BLA BLA BLA 
BLA BLA BLA BLA BLA BLA BLA BLA BLA BLA BLA BLA BLA BLA BLA BLA BLA BLA BLA BLA 
BLA BLA BLA BLA BLA BLA BLA BLA BLA BLA BLA BLA BLA BLA BLA BLA BLA BLA BLA BLA 
BLA BLA BLA BLA BLA BLA BLA BLA BLA BLA BLA BLA BLA BLA BLA BLA BLA BLA BLA BLA 
BLA BLA BLA BLA BLA BLA BLA BLA BLA BLA BLA BLA BLA BLA BLA BLA BLA BLA BLA BLA 
BLA BLA BLA BLA BLA BLA BLA BLA BLA BLA BLA BLA BLA BLA BLA BLA BLA BLA BLA BLA 
BLA BLA BLA BLA BLA BLA BLA BLA BLA BLA BLA BLA BLA BLA BLA BLA BLA BLA BLA BLA 
BLA BLA BLA BLA BLA BLA BLA BLA BLA BLA BLA BLA BLA BLA BLA BLA BLA BLA BLA BLA 
BLA BLA BLA BLA BLA BLA BLA BLA BLA BLA BLA BLA BLA BLA BLA BLA BLA BLA BLA BLA 
BLA BLA BLA BLA BLA BLA BLA BLA BLA BLA BLA BLA BLA BLA BLA BLA BLA BLA BLA BLA 
BLA BLA BLA BLA BLA BLA BLA BLA BLA BLA BLA BLA BLA BLA BLA BLA BLA BLA BLA BLA 
BLA BLA BLA BLA BLA BLA BLA BLA BLA BLA BLA BLA BLA BLA BLA BLA BLA BLA BLA BLA 
BLA BLA BLA BLA BLA BLA BLA BLA BLA BLA BLA BLA BLA BLA BLA BLA BLA BLA BLA BLA 
BLA BLA BLA BLA BLA BLA BLA BLA BLA BLA BLA BLA BLA BLA BLA BLA BLA BLA BLA BLA 
BLA BLA BLA BLA BLA BLA BLA BLA BLA BLA BLA BLA BLA BLA BLA BLA BLA BLA BLA BLA 
BLA BLA BLA BLA BLA BLA BLA BLA BLA BLA BLA BLA BLA BLA BLA BLA BLA BLA BLA BLA 
BLA BLA BLA BLA BLA BLA BLA BLA BLA BLA BLA BLA BLA BLA BLA BLA BLA BLA BLA BLA 
BLA BLA BLA BLA BLA BLA BLA BLA BLA BLA BLA BLA BLA BLA BLA BLA BLA BLA BLA BLA 
BLA BLA BLA BLA BLA BLA BLA BLA BLA BLA BLA BLA BLA BLA BLA BLA BLA BLA BLA BLA 
BLA BLA BLA BLA BLA BLA BLA BLA BLA BLA BLA BLA BLA BLA BLA BLA BLA BLA BLA BLA 
BLA BLA BLA BLA BLA BLA BLA BLA BLA BLA BLA BLA BLA BLA BLA BLA BLA BLA BLA BLA 
BLA BLA BLA BLA BLA BLA BLA BLA BLA BLA BLA BLA BLA BLA BLA BLA BLA BLA BLA BLA 
BLA BLA BLA BLA BLA BLA BLA BLA BLA BLA BLA BLA BLA BLA BLA BLA BLA BLA BLA BLA 
BLA BLA BLA BLA BLA BLA BLA BLA BLA BLA BLA BLA BLA BLA BLA BLA BLA BLA BLA BLA 
BLA BLA BLA BLA BLA BLA BLA BLA BLA BLA BLA BLA BLA BLA BLA BLA BLA BLA BLA BLA 
BLA BLA BLA BLA BLA BLA BLA BLA BLA BLA BLA BLA BLA BLA BLA BLA BLA BLA BLA BLA 
BLA BLA BLA BLA BLA BLA BLA BLA BLA BLA BLA BLA BLA BLA BLA BLA BLA BLA BLA BLA 
BLA BLA BLA BLA BLA BLA BLA BLA BLA BLA BLA BLA BLA BLA BLA BLA BLA BLA BLA BLA 
BLA BLA BLA BLA BLA BLA BLA BLA BLA BLA BLA BLA BLA BLA BLA BLA BLA BLA BLA BLA 
BLA BLA BLA BLA BLA BLA BLA BLA BLA BLA BLA BLA BLA BLA BLA BLA BLA BLA BLA BLA 
BLA BLA BLA BLA BLA BLA BLA BLA BLA BLA BLA BLA BLA BLA BLA BLA BLA BLA BLA BLA 
BLA BLA BLA BLA BLA BLA BLA BLA BLA BLA BLA BLA BLA BLA BLA BLA BLA BLA BLA BLA 
BLA BLA BLA BLA BLA BLA BLA BLA BLA BLA BLA BLA BLA BLA BLA BLA BLA BLA BLA BLA 
BLA BLA BLA BLA BLA BLA BLA BLA BLA BLA BLA BLA BLA BLA BLA BLA BLA BLA BLA BLA 
BLA BLA BLA BLA BLA BLA BLA BLA BLA BLA BLA BLA BLA BLA BLA BLA BLA BLA BLA BLA 
BLA BLA BLA BLA BLA BLA BLA BLA BLA BLA BLA BLA BLA BLA BLA BLA BLA BLA BLA BLA 
BLA BLA BLA BLA BLA BLA BLA BLA BLA BLA BLA BLA BLA BLA BLA BLA BLA BLA BLA BLA 
BLA BLA BLA BLA BLA BLA BLA BLA BLA BLA BLA BLA BLA BLA BLA BLA BLA BLA BLA BLA 
BLA BLA BLA BLA BLA BLA BLA BLA BLA BLA BLA BLA BLA BLA BLA BLA BLA BLA BLA BLA 
BLA BLA BLA BLA BLA BLA BLA BLA BLA BLA BLA BLA BLA BLA BLA BLA BLA BLA BLA BLA 
BLA BLA BLA BLA BLA BLA BLA BLA BLA BLA BLA BLA BLA BLA BLA BLA BLA BLA BLA BLA 
BLA BLA BLA BLA BLA BLA BLA BLA BLA BLA BLA BLA BLA BLA BLA BLA BLA BLA BLA BLA 
BLA BLA BLA BLA BLA BLA BLA BLA BLA BLA BLA BLA BLA BLA BLA BLA BLA BLA BLA BLA 
BLA BLA BLA BLA BLA BLA BLA BLA BLA BLA BLA BLA BLA BLA BLA BLA BLA BLA BLA BLA 
BLA BLA BLA BLA BLA BLA BLA BLA BLA BLA BLA BLA BLA BLA BLA BLA BLA BLA BLA BLA 
BLA BLA BLA BLA BLA BLA BLA BLA BLA BLA BLA BLA BLA BLA BLA BLA BLA BLA BLA BLA 
BLA BLA BLA BLA BLA BLA BLA BLA BLA BLA BLA BLA BLA BLA BLA BLA BLA BLA BLA BLA 
BLA BLA BLA BLA BLA BLA BLA BLA BLA BLA BLA BLA BLA BLA BLA BLA BLA BLA BLA BLA 
BLA BLA BLA BLA BLA BLA BLA BLA BLA BLA BLA BLA BLA BLA BLA BLA BLA BLA BLA BLA 
BLA BLA BLA BLA BLA BLA BLA BLA BLA BLA BLA BLA BLA BLA BLA BLA BLA BLA BLA BLA 
BLA BLA BLA BLA BLA BLA BLA BLA BLA BLA BLA BLA BLA BLA BLA BLA BLA BLA BLA BLA 
BLA BLA BLA BLA BLA BLA BLA BLA BLA BLA BLA BLA BLA BLA BLA BLA BLA BLA BLA BLA 
BLA BLA BLA BLA BLA BLA BLA BLA BLA BLA BLA BLA BLA BLA BLA BLA BLA BLA BLA BLA 
BLA BLA BLA BLA BLA BLA BLA BLA BLA BLA BLA BLA BLA BLA BLA BLA BLA BLA BLA BLA 
BLA BLA BLA BLA BLA BLA BLA BLA BLA BLA BLA BLA BLA BLA BLA BLA BLA BLA BLA BLA 
BLA BLA BLA BLA BLA BLA BLA BLA BLA BLA BLA BLA BLA BLA BLA BLA BLA BLA BLA BLA 
BLA BLA BLA BLA BLA BLA BLA BLA BLA BLA BLA BLA BLA BLA BLA BLA BLA BLA BLA BLA 
BLA BLA BLA BLA BLA BLA BLA BLA BLA BLA BLA BLA BLA BLA BLA BLA BLA BLA BLA BLA 
BLA BLA BLA BLA BLA BLA BLA BLA BLA BLA BLA BLA BLA BLA BLA BLA BLA BLA BLA BLA 
BLA BLA BLA BLA BLA BLA BLA BLA BLA BLA BLA BLA BLA BLA BLA BLA BLA BLA BLA BLA 
BLA BLA BLA BLA BLA BLA BLA BLA BLA BLA BLA BLA BLA BLA BLA BLA BLA BLA BLA BLA 
BLA BLA BLA BLA BLA BLA BLA BLA BLA BLA BLA BLA BLA BLA BLA BLA BLA BLA BLA BLA 
BLA BLA BLA BLA BLA BLA BLA BLA BLA BLA BLA BLA BLA BLA BLA BLA BLA BLA BLA BLA 
BLA BLA BLA BLA BLA BLA BLA BLA BLA BLA BLA BLA BLA BLA BLA BLA BLA BLA BLA BLA 
BLA BLA BLA BLA BLA BLA BLA BLA BLA BLA BLA BLA BLA BLA BLA BLA BLA BLA BLA BLA 
BLA BLA BLA BLA BLA BLA BLA BLA BLA BLA BLA BLA BLA BLA BLA BLA BLA BLA BLA BLA 
BLA BLA BLA BLA BLA BLA BLA BLA BLA BLA BLA BLA BLA BLA BLA BLA BLA BLA BLA BLA 
BLA BLA BLA BLA BLA BLA BLA BLA BLA BLA BLA BLA BLA BLA BLA BLA BLA BLA BLA BLA 
BLA BLA BLA BLA BLA BLA BLA BLA BLA BLA BLA BLA BLA BLA BLA BLA BLA BLA BLA BLA 
BLA BLA BLA BLA BLA BLA BLA BLA BLA BLA BLA BLA BLA BLA BLA BLA BLA BLA BLA BLA 
BLA BLA BLA BLA BLA BLA BLA BLA BLA BLA BLA BLA BLA BLA BLA BLA BLA BLA BLA BLA 
BLA BLA BLA BLA BLA BLA BLA BLA BLA BLA BLA BLA BLA BLA BLA BLA BLA BLA BLA BLA 
BLA BLA BLA BLA BLA BLA BLA BLA BLA BLA BLA BLA BLA BLA BLA BLA BLA BLA BLA BLA 
BLA BLA BLA BLA BLA BLA BLA BLA BLA BLA BLA BLA BLA BLA BLA BLA BLA BLA BLA BLA 
BLA BLA BLA BLA BLA BLA BLA BLA BLA BLA BLA BLA BLA BLA BLA BLA BLA BLA BLA BLA 
BLA BLA BLA BLA BLA BLA BLA BLA BLA BLA BLA BLA BLA BLA BLA BLA BLA BLA BLA BLA 
BLA BLA BLA BLA BLA BLA BLA BLA BLA BLA BLA BLA BLA BLA BLA BLA BLA BLA BLA BLA 
BLA BLA BLA BLA BLA BLA BLA BLA BLA BLA BLA BLA BLA BLA BLA BLA BLA BLA BLA BLA 
BLA BLA BLA BLA BLA BLA BLA BLA BLA BLA BLA BLA BLA BLA BLA BLA BLA BLA BLA BLA 
BLA BLA BLA BLA BLA BLA BLA BLA BLA BLA BLA BLA BLA BLA BLA BLA BLA BLA BLA BLA 
BLA BLA BLA BLA BLA BLA BLA BLA BLA BLA BLA BLA BLA BLA BLA BLA BLA BLA BLA BLA 
BLA BLA BLA BLA BLA BLA BLA BLA BLA BLA BLA BLA BLA BLA BLA BLA BLA BLA BLA BLA 
BLA BLA BLA BLA BLA BLA BLA BLA BLA BLA BLA BLA BLA BLA BLA BLA BLA BLA BLA BLA 
BLA BLA BLA BLA BLA BLA BLA BLA BLA BLA BLA BLA BLA BLA BLA BLA BLA BLA BLA BLA 
BLA BLA BLA BLA BLA BLA BLA BLA BLA BLA BLA BLA BLA BLA BLA BLA BLA BLA BLA BLA 
BLA BLA BLA BLA BLA BLA BLA BLA BLA BLA BLA BLA BLA BLA BLA BLA BLA BLA BLA BLA 
BLA BLA BLA BLA BLA BLA BLA BLA BLA BLA BLA BLA BLA BLA BLA BLA BLA BLA BLA BLA 
BLA BLA BLA BLA BLA BLA BLA BLA BLA BLA BLA BLA BLA BLA BLA BLA BLA BLA BLA BLA 
BLA BLA BLA BLA BLA BLA BLA BLA BLA BLA BLA BLA BLA BLA BLA BLA BLA BLA BLA BLA 
BLA BLA BLA BLA BLA BLA BLA BLA BLA BLA BLA BLA BLA BLA BLA BLA BLA BLA BLA BLA 
BLA BLA BLA BLA BLA BLA BLA BLA BLA BLA BLA BLA BLA BLA BLA BLA BLA BLA BLA BLA 
BLA BLA BLA BLA BLA BLA BLA BLA BLA BLA BLA BLA BLA BLA BLA BLA BLA BLA BLA BLA 
BLA BLA BLA BLA BLA BLA BLA BLA BLA BLA BLA BLA BLA BLA BLA BLA BLA BLA BLA BLA 
BLA BLA BLA BLA BLA BLA BLA BLA BLA BLA BLA BLA BLA BLA BLA BLA BLA BLA BLA BLA 
BLA BLA BLA BLA BLA BLA BLA BLA BLA BLA BLA BLA BLA BLA BLA BLA BLA BLA BLA BLA 
BLA BLA BLA BLA BLA BLA BLA BLA BLA BLA BLA BLA BLA BLA BLA BLA BLA BLA BLA BLA 
BLA BLA BLA BLA BLA BLA BLA BLA BLA BLA BLA BLA BLA BLA BLA BLA BLA BLA BLA BLA 
BLA BLA BLA BLA BLA BLA BLA BLA BLA BLA BLA BLA BLA BLA BLA BLA BLA BLA BLA BLA 
BLA BLA BLA BLA BLA BLA BLA BLA BLA BLA BLA BLA BLA BLA BLA BLA BLA BLA BLA BLA 
BLA BLA BLA BLA BLA BLA BLA BLA BLA BLA BLA BLA BLA BLA BLA BLA BLA BLA BLA BLA 
BLA BLA BLA BLA BLA BLA BLA BLA BLA BLA BLA BLA BLA BLA BLA BLA BLA BLA BLA BLA 
BLA BLA BLA BLA BLA BLA BLA BLA BLA BLA BLA BLA BLA BLA BLA BLA BLA BLA BLA BLA 
BLA BLA BLA BLA BLA BLA BLA BLA BLA BLA BLA BLA BLA BLA BLA BLA BLA BLA BLA BLA 
BLA BLA BLA BLA BLA BLA BLA BLA BLA BLA BLA BLA BLA BLA BLA BLA BLA BLA BLA BLA 
BLA BLA BLA BLA BLA BLA BLA BLA BLA BLA BLA BLA BLA BLA BLA BLA BLA BLA BLA BLA 
BLA BLA BLA BLA BLA BLA BLA BLA BLA BLA BLA BLA BLA BLA BLA BLA BLA BLA BLA BLA 
BLA BLA BLA BLA BLA BLA BLA BLA BLA BLA BLA BLA BLA BLA BLA BLA BLA BLA BLA BLA 
BLA BLA BLA BLA BLA BLA BLA BLA BLA BLA BLA BLA BLA BLA BLA BLA BLA BLA BLA BLA 
BLA BLA BLA BLA BLA BLA BLA BLA BLA BLA BLA BLA BLA BLA BLA BLA BLA BLA BLA BLA 
BLA BLA BLA BLA BLA BLA BLA BLA BLA BLA BLA BLA BLA BLA BLA BLA BLA BLA BLA BLA 
BLA BLA BLA BLA BLA BLA BLA BLA BLA BLA BLA BLA BLA BLA BLA BLA BLA BLA BLA BLA 
BLA BLA BLA BLA BLA BLA BLA BLA BLA BLA BLA BLA BLA BLA BLA BLA BLA BLA BLA BLA 
BLA BLA BLA BLA BLA BLA BLA BLA BLA BLA BLA BLA BLA BLA BLA BLA BLA BLA BLA BLA 
BLA BLA BLA BLA BLA BLA BLA BLA BLA BLA BLA BLA BLA BLA BLA BLA BLA BLA BLA BLA 
BLA BLA BLA BLA BLA BLA BLA BLA BLA BLA BLA BLA BLA BLA BLA BLA BLA BLA BLA BLA 
BLA BLA BLA BLA BLA BLA BLA BLA BLA BLA BLA BLA BLA BLA BLA BLA BLA BLA BLA BLA 
BLA BLA BLA BLA BLA BLA BLA BLA BLA BLA BLA BLA BLA BLA BLA BLA BLA BLA BLA BLA 
BLA BLA BLA BLA BLA BLA BLA BLA BLA BLA BLA BLA BLA BLA BLA BLA BLA BLA BLA BLA 
BLA BLA BLA BLA BLA BLA BLA BLA BLA BLA BLA BLA BLA BLA BLA BLA BLA BLA BLA BLA 
BLA BLA BLA BLA BLA BLA BLA BLA BLA BLA BLA BLA BLA BLA BLA BLA BLA BLA BLA BLA 
BLA BLA BLA BLA BLA BLA BLA BLA BLA BLA BLA BLA BLA BLA BLA BLA BLA BLA BLA BLA 
BLA BLA BLA BLA BLA BLA BLA BLA BLA BLA BLA BLA BLA BLA BLA BLA BLA BLA BLA BLA 
BLA BLA BLA BLA BLA BLA BLA BLA BLA BLA BLA BLA BLA BLA BLA BLA BLA BLA BLA BLA 
BLA BLA BLA BLA BLA BLA BLA BLA BLA BLA BLA BLA BLA BLA BLA BLA BLA BLA BLA BLA 
BLA BLA BLA BLA BLA BLA BLA BLA BLA BLA BLA BLA BLA BLA BLA BLA BLA BLA BLA BLA 
BLA BLA BLA BLA BLA BLA BLA BLA BLA BLA BLA BLA BLA BLA BLA BLA BLA BLA BLA BLA 
BLA BLA BLA BLA BLA BLA BLA BLA BLA BLA BLA BLA BLA BLA BLA BLA BLA BLA BLA BLA 
BLA BLA BLA BLA BLA BLA BLA BLA BLA BLA BLA BLA BLA BLA BLA BLA BLA BLA BLA BLA 
BLA BLA BLA BLA BLA BLA BLA BLA BLA BLA BLA BLA BLA BLA BLA BLA BLA BLA BLA BLA 
BLA BLA BLA BLA BLA BLA BLA BLA BLA BLA BLA BLA BLA BLA BLA BLA BLA BLA BLA BLA 
BLA BLA BLA BLA BLA BLA BLA BLA BLA BLA BLA BLA BLA BLA BLA BLA BLA BLA BLA BLA 
BLA BLA BLA BLA BLA BLA BLA BLA BLA BLA BLA BLA BLA BLA BLA BLA BLA BLA BLA BLA 
BLA BLA BLA BLA BLA BLA BLA BLA BLA BLA BLA BLA BLA BLA BLA BLA BLA BLA BLA BLA 
BLA BLA BLA BLA BLA BLA BLA BLA BLA BLA BLA BLA BLA BLA BLA BLA BLA BLA BLA BLA 
BLA BLA BLA BLA BLA BLA BLA BLA BLA BLA BLA BLA BLA BLA BLA BLA BLA BLA BLA BLA 
BLA BLA BLA BLA BLA BLA BLA BLA BLA BLA BLA BLA BLA BLA BLA BLA BLA BLA BLA BLA 
BLA BLA BLA BLA BLA BLA BLA BLA BLA BLA BLA BLA BLA BLA BLA BLA BLA BLA BLA BLA 
BLA BLA BLA BLA BLA BLA BLA BLA BLA BLA BLA BLA BLA BLA BLA BLA BLA BLA BLA BLA 
BLA BLA BLA BLA BLA BLA BLA BLA BLA BLA BLA BLA BLA BLA BLA BLA BLA BLA BLA BLA 
BLA BLA BLA BLA BLA BLA BLA BLA BLA BLA BLA BLA BLA BLA BLA BLA BLA BLA BLA BLA 
BLA BLA BLA BLA BLA BLA BLA BLA BLA BLA BLA BLA BLA BLA BLA BLA BLA BLA BLA BLA 
BLA BLA BLA BLA BLA BLA BLA BLA BLA BLA BLA BLA BLA BLA BLA BLA BLA BLA BLA BLA 
BLA BLA BLA BLA BLA BLA BLA BLA BLA BLA BLA BLA BLA BLA BLA BLA BLA BLA BLA BLA 
BLA BLA BLA BLA BLA BLA BLA BLA BLA BLA BLA BLA BLA BLA BLA BLA BLA BLA BLA BLA 
BLA BLA BLA BLA BLA BLA BLA BLA BLA BLA BLA BLA BLA BLA BLA BLA BLA BLA BLA BLA 
BLA BLA BLA BLA BLA BLA BLA BLA BLA BLA BLA BLA BLA BLA BLA BLA BLA BLA BLA BLA 
BLA BLA BLA BLA BLA BLA BLA BLA BLA BLA BLA BLA BLA BLA BLA BLA BLA BLA BLA BLA 
BLA BLA BLA BLA BLA BLA BLA BLA BLA BLA BLA BLA BLA BLA BLA BLA BLA BLA BLA BLA 
BLA BLA BLA BLA BLA BLA BLA BLA BLA BLA BLA BLA BLA BLA BLA BLA BLA BLA BLA BLA 
BLA BLA BLA BLA BLA BLA BLA BLA BLA BLA BLA BLA BLA BLA BLA BLA BLA BLA BLA BLA 
BLA BLA BLA BLA BLA BLA BLA BLA BLA BLA BLA BLA BLA BLA BLA BLA BLA BLA BLA BLA 
BLA BLA BLA BLA BLA BLA BLA BLA BLA BLA BLA BLA BLA BLA BLA BLA BLA BLA BLA BLA 
BLA BLA BLA BLA BLA BLA BLA BLA BLA BLA BLA BLA BLA BLA BLA BLA BLA BLA BLA BLA 
BLA BLA BLA BLA BLA BLA BLA BLA BLA BLA BLA BLA BLA BLA BLA BLA BLA BLA BLA BLA 
BLA BLA BLA BLA BLA BLA BLA BLA BLA BLA BLA BLA BLA BLA BLA BLA BLA BLA BLA BLA 
BLA BLA BLA BLA BLA BLA BLA BLA BLA BLA BLA BLA BLA BLA BLA BLA BLA BLA BLA BLA 
BLA BLA BLA BLA BLA BLA BLA BLA BLA BLA BLA BLA BLA BLA BLA BLA BLA BLA BLA BLA 
BLA BLA BLA BLA BLA BLA BLA BLA BLA BLA BLA BLA BLA BLA BLA BLA BLA BLA BLA BLA 
BLA BLA BLA BLA BLA BLA BLA BLA BLA BLA BLA BLA BLA BLA BLA BLA BLA BLA BLA BLA 
BLA BLA BLA BLA BLA BLA BLA BLA BLA BLA BLA BLA BLA BLA BLA BLA BLA BLA BLA BLA 
BLA BLA BLA BLA BLA BLA BLA BLA BLA BLA BLA BLA BLA BLA BLA BLA BLA BLA BLA BLA 
BLA BLA BLA BLA BLA BLA BLA BLA BLA BLA BLA BLA BLA BLA BLA BLA BLA BLA BLA BLA 
BLA BLA BLA BLA BLA BLA BLA BLA BLA BLA BLA BLA BLA BLA BLA BLA BLA BLA BLA BLA 
BLA BLA BLA BLA BLA BLA BLA BLA BLA BLA BLA BLA BLA BLA BLA BLA BLA BLA BLA BLA 
BLA BLA BLA BLA BLA BLA BLA BLA BLA BLA BLA BLA BLA BLA BLA BLA BLA BLA BLA BLA 
BLA BLA BLA BLA BLA BLA BLA BLA BLA BLA BLA BLA BLA BLA BLA BLA BLA BLA BLA BLA 
BLA BLA BLA BLA BLA BLA BLA BLA BLA BLA BLA BLA BLA BLA BLA BLA BLA BLA BLA BLA 
BLA BLA BLA BLA BLA BLA BLA BLA BLA BLA BLA BLA BLA BLA BLA BLA BLA BLA BLA BLA 
BLA BLA BLA BLA BLA BLA BLA BLA BLA BLA BLA BLA BLA BLA BLA BLA BLA BLA BLA BLA 
BLA BLA BLA BLA BLA BLA BLA BLA BLA BLA BLA BLA BLA BLA BLA BLA BLA BLA BLA BLA 
BLA BLA BLA BLA BLA BLA BLA BLA BLA BLA BLA BLA BLA BLA BLA BLA BLA BLA BLA BLA 
BLA BLA BLA BLA BLA BLA BLA BLA BLA BLA BLA BLA BLA BLA BLA BLA BLA BLA BLA BLA 
BLA BLA BLA BLA BLA BLA BLA BLA BLA BLA BLA BLA BLA BLA BLA BLA BLA BLA BLA BLA 
BLA BLA BLA BLA BLA BLA BLA BLA BLA BLA BLA BLA BLA BLA BLA BLA BLA BLA BLA BLA 
BLA BLA BLA BLA BLA BLA BLA BLA BLA BLA BLA BLA BLA BLA BLA BLA BLA BLA BLA BLA 
BLA BLA BLA BLA BLA BLA BLA BLA BLA BLA BLA BLA BLA BLA BLA BLA BLA BLA BLA BLA 
BLA BLA BLA BLA BLA BLA BLA BLA BLA BLA BLA BLA BLA BLA BLA BLA BLA BLA BLA BLA 
BLA BLA BLA BLA BLA BLA BLA BLA BLA BLA BLA BLA BLA BLA BLA BLA BLA BLA BLA BLA 
BLA BLA BLA BLA BLA BLA BLA BLA BLA BLA BLA BLA BLA BLA BLA BLA BLA BLA BLA BLA 
BLA BLA BLA BLA BLA BLA BLA BLA BLA BLA BLA BLA BLA BLA BLA BLA BLA BLA BLA BLA 
BLA BLA BLA BLA BLA BLA BLA BLA BLA BLA BLA BLA BLA BLA BLA BLA BLA BLA BLA BLA 
BLA BLA BLA BLA BLA BLA BLA BLA BLA BLA BLA BLA BLA BLA BLA BLA BLA BLA BLA BLA 
BLA BLA BLA BLA BLA BLA BLA BLA BLA BLA BLA BLA BLA BLA BLA BLA BLA BLA BLA BLA 
BLA BLA BLA BLA BLA BLA BLA BLA BLA BLA BLA BLA BLA BLA BLA BLA BLA BLA BLA BLA 
BLA BLA BLA BLA BLA BLA BLA BLA BLA BLA BLA BLA BLA BLA BLA BLA BLA BLA BLA BLA 
BLA BLA BLA BLA BLA BLA BLA BLA BLA BLA BLA BLA BLA BLA BLA BLA BLA BLA BLA BLA 
BLA BLA BLA BLA BLA BLA BLA BLA BLA BLA BLA BLA BLA BLA BLA BLA BLA BLA BLA BLA 
BLA BLA BLA BLA BLA BLA BLA BLA BLA BLA BLA BLA BLA BLA BLA BLA BLA BLA BLA BLA 
BLA BLA BLA BLA BLA BLA BLA BLA BLA BLA BLA BLA BLA BLA BLA BLA BLA BLA BLA BLA 
BLA BLA BLA BLA BLA BLA BLA BLA BLA BLA BLA BLA BLA BLA BLA BLA BLA BLA BLA BLA 
BLA BLA BLA BLA BLA BLA BLA BLA BLA BLA BLA BLA BLA BLA BLA BLA BLA BLA BLA BLA 
BLA BLA BLA BLA BLA BLA BLA BLA BLA BLA BLA BLA BLA BLA BLA BLA BLA BLA BLA BLA 
BLA BLA BLA BLA BLA BLA BLA BLA BLA BLA BLA BLA BLA BLA BLA BLA BLA BLA BLA BLA 
BLA BLA BLA BLA BLA BLA BLA BLA BLA BLA BLA BLA BLA BLA BLA BLA BLA BLA BLA BLA 
BLA BLA BLA BLA BLA BLA BLA BLA BLA BLA BLA BLA BLA BLA BLA BLA BLA BLA BLA BLA 
BLA BLA BLA BLA BLA BLA BLA BLA BLA BLA BLA BLA BLA BLA BLA BLA BLA BLA BLA BLA 
BLA BLA BLA BLA BLA BLA BLA BLA BLA BLA BLA BLA BLA BLA BLA BLA BLA BLA BLA BLA 
BLA BLA BLA BLA BLA BLA BLA BLA BLA BLA BLA BLA BLA BLA BLA BLA BLA BLA BLA BLA 
BLA BLA BLA BLA BLA BLA BLA BLA BLA BLA BLA BLA BLA BLA BLA BLA BLA BLA BLA BLA 
BLA BLA BLA BLA BLA BLA BLA BLA BLA BLA BLA BLA BLA BLA BLA BLA BLA BLA BLA BLA 
BLA BLA BLA BLA BLA BLA BLA BLA BLA BLA BLA BLA BLA BLA BLA BLA BLA BLA BLA BLA 
BLA BLA BLA BLA BLA BLA BLA BLA BLA BLA BLA BLA BLA BLA BLA BLA BLA BLA BLA BLA 
BLA BLA BLA BLA BLA BLA BLA BLA BLA BLA BLA BLA BLA BLA BLA BLA BLA BLA BLA BLA 
BLA BLA BLA BLA BLA BLA BLA BLA BLA BLA BLA BLA BLA BLA BLA BLA BLA BLA BLA BLA 
BLA BLA BLA BLA BLA BLA BLA BLA BLA BLA BLA BLA BLA BLA BLA BLA BLA BLA BLA BLA 
BLA BLA BLA BLA BLA BLA BLA BLA BLA BLA BLA BLA BLA BLA BLA BLA BLA BLA BLA BLA 
BLA BLA BLA BLA BLA BLA BLA BLA BLA BLA BLA BLA BLA BLA BLA BLA BLA BLA BLA BLA 
BLA BLA BLA BLA BLA BLA BLA BLA BLA BLA BLA BLA BLA BLA BLA BLA BLA BLA BLA BLA 
BLA BLA BLA BLA BLA BLA BLA BLA BLA BLA BLA BLA BLA BLA BLA BLA BLA BLA BLA BLA 
BLA BLA BLA BLA BLA BLA BLA BLA BLA BLA BLA BLA BLA BLA BLA BLA BLA BLA BLA BLA 
BLA BLA BLA BLA BLA BLA BLA BLA BLA BLA BLA BLA BLA BLA BLA BLA BLA BLA BLA BLA 
BLA BLA BLA BLA BLA BLA BLA BLA BLA BLA BLA BLA BLA BLA BLA BLA BLA BLA BLA BLA 
BLA BLA BLA BLA BLA BLA BLA BLA BLA BLA BLA BLA BLA BLA BLA BLA BLA BLA BLA BLA 
BLA BLA BLA BLA BLA BLA BLA BLA BLA BLA BLA BLA BLA BLA BLA BLA BLA BLA BLA BLA 
BLA BLA BLA BLA BLA BLA BLA BLA BLA BLA BLA BLA BLA BLA BLA BLA BLA BLA BLA BLA 
BLA BLA BLA BLA BLA BLA BLA BLA BLA BLA BLA BLA BLA BLA BLA BLA BLA BLA BLA BLA 
BLA BLA BLA BLA BLA BLA BLA BLA BLA BLA BLA BLA BLA BLA BLA BLA BLA BLA BLA BLA 
BLA BLA BLA BLA BLA BLA BLA BLA BLA BLA BLA BLA BLA BLA BLA BLA BLA BLA BLA BLA 
BLA BLA BLA BLA BLA BLA BLA BLA BLA BLA BLA BLA BLA BLA BLA BLA BLA BLA BLA BLA 
BLA BLA BLA BLA BLA BLA BLA BLA BLA BLA BLA BLA BLA BLA BLA BLA BLA BLA BLA BLA 
BLA BLA BLA BLA BLA BLA BLA BLA BLA BLA BLA BLA BLA BLA BLA BLA BLA BLA BLA BLA 
BLA BLA BLA BLA BLA BLA BLA BLA BLA BLA BLA BLA BLA BLA BLA BLA BLA BLA BLA BLA 
BLA BLA BLA BLA BLA BLA BLA BLA BLA BLA BLA BLA BLA BLA BLA BLA BLA BLA BLA BLA 
BLA BLA BLA BLA BLA BLA BLA BLA BLA BLA BLA BLA BLA BLA BLA BLA BLA BLA BLA BLA 
BLA BLA BLA BLA BLA BLA BLA BLA BLA BLA BLA BLA BLA BLA BLA BLA BLA BLA BLA BLA 
BLA BLA BLA BLA BLA BLA BLA BLA BLA BLA BLA BLA BLA BLA BLA BLA BLA BLA BLA BLA 
BLA BLA BLA BLA BLA BLA BLA BLA BLA BLA BLA BLA BLA BLA BLA BLA BLA BLA BLA BLA 
BLA BLA BLA BLA BLA BLA BLA BLA BLA BLA BLA BLA BLA BLA BLA BLA BLA BLA BLA BLA 
BLA BLA BLA BLA BLA BLA BLA BLA BLA BLA BLA BLA BLA BLA BLA BLA BLA BLA BLA BLA 
BLA BLA BLA BLA BLA BLA BLA BLA BLA BLA BLA BLA BLA BLA BLA BLA BLA BLA BLA BLA 
BLA BLA BLA BLA BLA BLA BLA BLA BLA BLA BLA BLA BLA BLA BLA BLA BLA BLA BLA BLA 
BLA BLA BLA BLA BLA BLA BLA BLA BLA BLA BLA BLA BLA BLA BLA BLA BLA BLA BLA BLA 
BLA BLA BLA BLA BLA BLA BLA BLA BLA BLA BLA BLA BLA BLA BLA BLA BLA BLA BLA BLA 
BLA BLA BLA BLA BLA BLA BLA BLA BLA BLA BLA BLA BLA BLA BLA BLA BLA BLA BLA BLA 
BLA BLA BLA BLA BLA BLA BLA BLA BLA BLA BLA BLA BLA BLA BLA BLA BLA BLA BLA BLA 
BLA BLA BLA BLA BLA BLA BLA BLA BLA BLA BLA BLA BLA BLA BLA BLA BLA BLA BLA BLA 
BLA BLA BLA BLA BLA BLA BLA BLA BLA BLA BLA BLA BLA BLA BLA BLA BLA BLA BLA BLA 
BLA BLA BLA BLA BLA BLA BLA BLA BLA BLA BLA BLA BLA BLA BLA BLA BLA BLA BLA BLA 
BLA BLA BLA BLA BLA BLA BLA BLA BLA BLA BLA BLA BLA BLA BLA BLA BLA BLA BLA BLA 
BLA BLA BLA BLA BLA BLA BLA BLA BLA BLA BLA BLA BLA BLA BLA BLA BLA BLA BLA BLA 
BLA BLA BLA BLA BLA BLA BLA BLA BLA BLA BLA BLA BLA BLA BLA BLA BLA BLA BLA BLA 
BLA BLA BLA BLA BLA BLA BLA BLA BLA BLA BLA BLA BLA BLA BLA BLA BLA BLA BLA BLA 
BLA BLA BLA BLA BLA BLA BLA BLA BLA BLA BLA BLA BLA BLA BLA BLA BLA BLA BLA BLA 
BLA BLA BLA BLA BLA BLA BLA BLA BLA BLA BLA BLA BLA BLA BLA BLA BLA BLA BLA BLA 
BLA BLA BLA BLA BLA BLA BLA BLA BLA BLA BLA BLA BLA BLA BLA BLA BLA BLA BLA BLA 
BLA BLA BLA BLA BLA BLA BLA BLA BLA BLA BLA BLA BLA BLA BLA BLA BLA BLA BLA BLA 
BLA BLA BLA BLA BLA BLA BLA BLA BLA BLA BLA BLA BLA BLA BLA BLA BLA BLA BLA BLA 
BLA BLA BLA BLA BLA BLA BLA BLA BLA BLA BLA BLA BLA BLA BLA BLA BLA BLA BLA BLA 
BLA BLA BLA BLA BLA BLA BLA BLA BLA BLA BLA BLA BLA BLA BLA BLA BLA BLA BLA BLA 
BLA BLA BLA BLA BLA BLA BLA BLA BLA BLA BLA BLA BLA BLA BLA BLA BLA BLA BLA BLA 
BLA BLA BLA BLA BLA BLA BLA BLA BLA BLA BLA BLA BLA BLA BLA BLA BLA BLA BLA BLA 
BLA BLA BLA BLA BLA BLA BLA BLA BLA BLA BLA BLA BLA BLA BLA BLA BLA BLA BLA BLA 
BLA BLA BLA BLA BLA BLA BLA BLA BLA BLA BLA BLA BLA BLA BLA BLA BLA BLA BLA BLA 
BLA BLA BLA BLA BLA BLA BLA BLA BLA BLA BLA BLA BLA BLA BLA BLA BLA BLA BLA BLA 
BLA BLA BLA BLA BLA BLA BLA BLA BLA BLA BLA BLA BLA BLA BLA BLA BLA BLA BLA BLA 
BLA BLA BLA BLA BLA BLA BLA BLA BLA BLA BLA BLA BLA BLA BLA BLA BLA BLA BLA BLA 
BLA BLA BLA BLA BLA BLA BLA BLA BLA BLA BLA BLA BLA BLA BLA BLA BLA BLA BLA BLA 
BLA BLA BLA BLA BLA BLA BLA BLA BLA BLA BLA BLA BLA BLA BLA BLA BLA BLA BLA BLA 
BLA BLA BLA BLA BLA BLA BLA BLA BLA BLA BLA BLA BLA BLA BLA BLA BLA BLA BLA BLA 
BLA BLA BLA BLA BLA BLA BLA BLA BLA BLA BLA BLA BLA BLA BLA BLA BLA BLA BLA BLA 
BLA BLA BLA BLA BLA BLA BLA BLA BLA BLA BLA BLA BLA BLA BLA BLA BLA BLA BLA BLA 
BLA BLA BLA BLA BLA BLA BLA BLA BLA BLA BLA BLA BLA BLA BLA BLA BLA BLA BLA BLA 
BLA BLA BLA BLA BLA BLA BLA BLA BLA BLA BLA BLA BLA BLA BLA BLA BLA BLA BLA BLA 
BLA BLA BLA BLA BLA BLA BLA BLA BLA BLA BLA BLA BLA BLA BLA BLA BLA BLA BLA BLA 
BLA BLA BLA BLA BLA BLA BLA BLA BLA BLA BLA BLA BLA BLA BLA BLA BLA BLA BLA BLA 
BLA BLA BLA BLA BLA BLA BLA BLA BLA BLA BLA BLA BLA BLA BLA BLA BLA BLA BLA BLA 
BLA BLA BLA BLA BLA BLA BLA BLA BLA BLA BLA BLA BLA BLA BLA BLA BLA BLA BLA BLA 
BLA BLA BLA BLA BLA BLA BLA BLA BLA BLA BLA BLA BLA BLA BLA BLA BLA BLA BLA BLA 
BLA BLA BLA BLA BLA BLA BLA BLA BLA BLA BLA BLA BLA BLA BLA BLA BLA BLA BLA BLA 
BLA BLA BLA BLA BLA BLA BLA BLA BLA BLA BLA BLA BLA BLA BLA BLA BLA BLA BLA BLA 
BLA BLA BLA BLA BLA BLA BLA BLA BLA BLA BLA BLA BLA BLA BLA BLA BLA BLA BLA BLA 
BLA BLA BLA BLA BLA BLA BLA BLA BLA BLA BLA BLA BLA BLA BLA BLA BLA BLA BLA BLA 
BLA BLA BLA BLA BLA BLA BLA BLA BLA BLA BLA BLA BLA BLA BLA BLA BLA BLA BLA BLA 
BLA BLA BLA BLA BLA BLA BLA BLA BLA BLA BLA BLA BLA BLA BLA BLA BLA BLA BLA BLA 
BLA BLA BLA BLA BLA BLA BLA BLA BLA BLA BLA BLA BLA BLA BLA BLA BLA BLA BLA BLA 
BLA BLA BLA BLA BLA BLA BLA BLA BLA BLA BLA BLA BLA BLA BLA BLA BLA BLA BLA BLA 
BLA BLA BLA BLA BLA BLA BLA BLA BLA BLA BLA BLA BLA BLA BLA BLA BLA BLA BLA BLA 
BLA BLA BLA BLA BLA BLA BLA BLA BLA BLA BLA BLA BLA BLA BLA BLA BLA BLA BLA BLA 
BLA BLA BLA BLA BLA BLA BLA BLA BLA BLA BLA BLA BLA BLA BLA BLA BLA BLA BLA BLA 
BLA BLA BLA BLA BLA BLA BLA BLA BLA BLA BLA BLA BLA BLA BLA BLA BLA BLA BLA BLA 
BLA BLA BLA BLA BLA BLA BLA BLA BLA BLA BLA BLA BLA BLA BLA BLA BLA BLA BLA BLA 
BLA BLA BLA BLA BLA BLA BLA BLA BLA BLA BLA BLA BLA BLA BLA BLA BLA BLA BLA BLA 
BLA BLA BLA BLA BLA BLA BLA BLA BLA BLA BLA BLA BLA BLA BLA BLA BLA BLA BLA BLA 
BLA BLA BLA BLA BLA BLA BLA BLA BLA BLA BLA BLA BLA BLA BLA BLA BLA BLA BLA BLA 
BLA BLA BLA BLA BLA BLA BLA BLA BLA BLA BLA BLA BLA BLA BLA BLA BLA BLA BLA BLA 
BLA BLA BLA BLA BLA BLA BLA BLA BLA BLA BLA BLA BLA BLA BLA BLA BLA BLA BLA BLA 
BLA BLA BLA BLA BLA BLA BLA BLA BLA BLA BLA BLA BLA BLA BLA BLA BLA BLA BLA BLA 
BLA BLA BLA BLA BLA BLA BLA BLA BLA BLA BLA BLA BLA BLA BLA BLA BLA BLA BLA BLA 
BLA BLA BLA BLA BLA BLA BLA BLA BLA BLA BLA BLA BLA BLA BLA BLA BLA BLA BLA BLA 
BLA BLA BLA BLA BLA BLA BLA BLA BLA BLA BLA BLA BLA BLA BLA BLA BLA BLA BLA BLA 
BLA BLA BLA BLA BLA BLA BLA BLA BLA BLA BLA BLA BLA BLA BLA BLA BLA BLA BLA BLA 
BLA BLA BLA BLA BLA BLA BLA BLA BLA BLA BLA BLA BLA BLA BLA BLA BLA BLA BLA BLA 
BLA BLA BLA BLA BLA BLA BLA BLA BLA BLA BLA BLA BLA BLA BLA BLA BLA BLA BLA BLA 
BLA BLA BLA BLA BLA BLA BLA BLA BLA BLA BLA BLA BLA BLA BLA BLA BLA BLA BLA BLA 
BLA BLA BLA BLA BLA BLA BLA BLA BLA BLA BLA BLA BLA BLA BLA BLA BLA BLA BLA BLA 
BLA BLA BLA BLA BLA BLA BLA BLA BLA BLA BLA BLA BLA BLA BLA BLA BLA BLA BLA BLA 
BLA BLA BLA BLA BLA BLA BLA BLA BLA BLA BLA BLA BLA BLA BLA BLA BLA BLA BLA BLA 
BLA BLA BLA BLA BLA BLA BLA BLA BLA BLA BLA BLA BLA BLA BLA BLA BLA BLA BLA BLA 
BLA BLA BLA BLA BLA BLA BLA BLA BLA BLA BLA BLA BLA BLA BLA BLA BLA BLA BLA BLA 
BLA BLA BLA BLA BLA BLA BLA BLA BLA BLA BLA BLA BLA BLA BLA BLA BLA BLA BLA BLA 
BLA BLA BLA BLA BLA BLA BLA BLA BLA BLA BLA BLA BLA BLA BLA BLA BLA BLA BLA BLA 
BLA BLA BLA BLA BLA BLA BLA BLA BLA BLA BLA BLA BLA BLA BLA BLA BLA BLA BLA BLA 
BLA BLA BLA BLA BLA BLA BLA BLA BLA BLA BLA BLA BLA BLA BLA BLA BLA BLA BLA BLA 
BLA BLA BLA BLA BLA BLA BLA BLA BLA BLA BLA BLA BLA BLA BLA BLA BLA BLA BLA BLA 
BLA BLA BLA BLA BLA BLA BLA BLA BLA BLA BLA BLA BLA BLA BLA BLA BLA BLA BLA BLA 
BLA BLA BLA BLA BLA BLA BLA BLA BLA BLA BLA BLA BLA BLA BLA BLA BLA BLA BLA BLA 
BLA BLA BLA BLA BLA BLA BLA BLA BLA BLA BLA BLA BLA BLA BLA BLA BLA BLA BLA BLA 
BLA BLA BLA BLA BLA BLA BLA BLA BLA BLA BLA BLA BLA BLA BLA BLA BLA BLA BLA BLA 
BLA BLA BLA BLA BLA BLA BLA BLA BLA BLA BLA BLA BLA BLA BLA BLA BLA BLA BLA BLA 
BLA BLA BLA BLA BLA BLA BLA BLA BLA BLA BLA BLA BLA BLA BLA BLA BLA BLA BLA BLA 
BLA BLA BLA BLA BLA BLA BLA BLA BLA BLA BLA BLA BLA BLA BLA BLA BLA BLA BLA BLA 
BLA BLA BLA BLA BLA BLA BLA BLA BLA BLA BLA BLA BLA BLA BLA BLA BLA BLA BLA BLA 
BLA BLA BLA BLA BLA BLA BLA BLA BLA BLA BLA BLA BLA BLA BLA BLA BLA BLA BLA BLA 
BLA BLA BLA BLA BLA BLA BLA BLA BLA BLA BLA BLA BLA BLA BLA BLA BLA BLA BLA BLA 
BLA BLA BLA BLA BLA BLA BLA BLA BLA BLA BLA BLA BLA BLA BLA BLA BLA BLA BLA BLA 
BLA BLA BLA BLA BLA BLA BLA BLA BLA BLA BLA BLA BLA BLA BLA BLA BLA BLA BLA BLA 
BLA BLA BLA BLA BLA BLA BLA BLA BLA BLA BLA BLA BLA BLA BLA BLA BLA BLA BLA BLA 
BLA BLA BLA BLA BLA BLA BLA BLA BLA BLA BLA BLA BLA BLA BLA BLA BLA BLA BLA BLA 
BLA BLA BLA BLA BLA BLA BLA BLA BLA BLA BLA BLA BLA BLA BLA BLA BLA BLA BLA BLA 
BLA BLA BLA BLA BLA BLA BLA BLA BLA BLA BLA BLA BLA BLA BLA BLA BLA BLA BLA BLA 
BLA BLA BLA BLA BLA BLA BLA BLA BLA BLA BLA BLA BLA BLA BLA BLA BLA BLA BLA BLA 
BLA BLA BLA BLA BLA BLA BLA BLA BLA BLA BLA BLA BLA BLA BLA BLA BLA BLA BLA BLA 
BLA BLA BLA BLA BLA BLA BLA BLA BLA BLA BLA BLA BLA BLA BLA BLA BLA BLA BLA BLA 
BLA BLA BLA BLA BLA BLA BLA BLA BLA BLA BLA BLA BLA BLA BLA BLA BLA BLA BLA BLA 
BLA BLA BLA BLA BLA BLA BLA BLA BLA BLA BLA BLA BLA BLA BLA BLA BLA BLA BLA BLA 
BLA BLA BLA BLA BLA BLA BLA BLA BLA BLA BLA BLA BLA BLA BLA BLA BLA BLA BLA BLA 
BLA BLA BLA BLA BLA BLA BLA BLA BLA BLA BLA BLA BLA BLA BLA BLA BLA BLA BLA BLA 
BLA BLA BLA BLA BLA BLA BLA BLA BLA BLA BLA BLA BLA BLA BLA BLA BLA BLA BLA BLA 
BLA BLA BLA BLA BLA BLA BLA BLA BLA BLA BLA BLA BLA BLA BLA BLA BLA BLA BLA BLA 
BLA BLA BLA BLA BLA BLA BLA BLA BLA BLA BLA BLA BLA BLA BLA BLA BLA BLA BLA BLA 
BLA BLA BLA BLA BLA BLA BLA BLA BLA BLA BLA BLA BLA BLA BLA BLA BLA BLA BLA BLA 
BLA BLA BLA BLA BLA BLA BLA BLA BLA BLA BLA BLA BLA BLA BLA BLA BLA BLA BLA BLA 
BLA BLA BLA BLA BLA BLA BLA BLA BLA BLA BLA BLA BLA BLA BLA BLA BLA BLA BLA BLA 
BLA BLA BLA BLA BLA BLA BLA BLA BLA BLA BLA BLA BLA BLA BLA BLA BLA BLA BLA BLA 
BLA BLA BLA BLA BLA BLA BLA BLA BLA BLA BLA BLA BLA BLA BLA BLA BLA BLA BLA BLA 
BLA BLA BLA BLA BLA BLA BLA BLA BLA BLA BLA BLA BLA BLA BLA BLA BLA BLA BLA BLA 
BLA BLA BLA BLA BLA BLA BLA BLA BLA BLA BLA BLA BLA BLA BLA BLA BLA BLA BLA BLA 
BLA BLA BLA BLA BLA BLA BLA BLA BLA BLA BLA BLA BLA BLA BLA BLA BLA BLA BLA BLA 
BLA BLA BLA BLA BLA BLA BLA BLA BLA BLA BLA BLA BLA BLA BLA BLA BLA BLA BLA BLA 
BLA BLA BLA BLA BLA BLA BLA BLA BLA BLA BLA BLA BLA BLA BLA BLA BLA BLA BLA BLA 
BLA BLA BLA BLA BLA BLA BLA BLA BLA BLA BLA BLA BLA BLA BLA BLA BLA BLA BLA BLA 
BLA BLA BLA BLA BLA BLA BLA BLA BLA BLA BLA BLA BLA BLA BLA BLA BLA BLA BLA BLA 
BLA BLA BLA BLA BLA BLA BLA BLA BLA BLA BLA BLA BLA BLA BLA BLA BLA BLA BLA BLA 
BLA BLA BLA BLA BLA BLA BLA BLA BLA BLA BLA BLA BLA BLA BLA BLA BLA BLA BLA BLA 
BLA BLA BLA BLA BLA BLA BLA BLA BLA BLA BLA BLA BLA BLA BLA BLA BLA BLA BLA BLA 
BLA BLA BLA BLA BLA BLA BLA BLA BLA BLA BLA BLA BLA BLA BLA BLA BLA BLA BLA BLA 
BLA BLA BLA BLA BLA BLA BLA BLA BLA BLA BLA BLA BLA BLA BLA BLA BLA BLA BLA BLA 
BLA BLA BLA BLA BLA BLA BLA BLA BLA BLA BLA BLA BLA BLA BLA BLA BLA BLA BLA BLA 
BLA BLA BLA BLA BLA BLA BLA BLA BLA BLA BLA BLA BLA BLA BLA BLA BLA BLA BLA BLA 
BLA BLA BLA BLA BLA BLA BLA BLA BLA BLA BLA BLA BLA BLA BLA BLA BLA BLA BLA BLA 
BLA BLA BLA BLA BLA BLA BLA BLA BLA BLA BLA BLA BLA BLA BLA BLA BLA BLA BLA BLA 
BLA BLA BLA BLA BLA BLA BLA BLA BLA BLA BLA BLA BLA BLA BLA BLA BLA BLA BLA BLA 
BLA BLA BLA BLA BLA BLA BLA BLA BLA BLA BLA BLA BLA BLA BLA BLA BLA BLA BLA BLA 
BLA BLA BLA BLA BLA BLA BLA BLA BLA BLA BLA BLA BLA BLA BLA BLA BLA BLA BLA BLA 
BLA BLA BLA BLA BLA BLA BLA BLA BLA BLA BLA BLA BLA BLA BLA BLA BLA BLA BLA BLA 
BLA BLA BLA BLA BLA BLA BLA BLA BLA BLA BLA BLA BLA BLA BLA BLA BLA BLA BLA BLA 
BLA BLA BLA BLA BLA BLA BLA BLA BLA BLA BLA BLA BLA BLA BLA BLA BLA BLA BLA BLA 
BLA BLA BLA BLA BLA BLA BLA BLA BLA BLA BLA BLA BLA BLA BLA BLA BLA BLA BLA BLA 
BLA BLA BLA BLA BLA BLA BLA BLA BLA BLA BLA BLA BLA BLA BLA BLA BLA BLA BLA BLA 
BLA BLA BLA BLA BLA BLA BLA BLA BLA BLA BLA BLA BLA BLA BLA BLA BLA BLA BLA BLA 
BLA BLA BLA BLA BLA BLA BLA BLA BLA BLA BLA BLA BLA BLA BLA BLA BLA BLA BLA BLA 
BLA BLA BLA BLA BLA BLA BLA BLA BLA BLA BLA BLA BLA BLA BLA BLA BLA BLA BLA BLA 
BLA BLA BLA BLA BLA BLA BLA BLA BLA BLA BLA BLA BLA BLA BLA BLA BLA BLA BLA BLA 
BLA BLA BLA BLA BLA BLA BLA BLA BLA BLA BLA BLA BLA BLA BLA BLA BLA BLA BLA BLA 
BLA BLA BLA BLA BLA BLA BLA BLA BLA BLA BLA BLA BLA BLA BLA BLA BLA BLA BLA BLA 
BLA BLA BLA BLA BLA BLA BLA BLA BLA BLA BLA BLA BLA BLA BLA BLA BLA BLA BLA BLA 
BLA BLA BLA BLA BLA BLA BLA BLA BLA BLA BLA BLA BLA BLA BLA BLA BLA BLA BLA BLA 
BLA BLA BLA BLA BLA BLA BLA BLA BLA BLA BLA BLA BLA BLA BLA BLA BLA BLA BLA BLA 
BLA BLA BLA BLA BLA BLA BLA BLA BLA BLA BLA BLA BLA BLA BLA BLA BLA BLA BLA BLA 
BLA BLA BLA BLA BLA BLA BLA BLA BLA BLA BLA BLA BLA BLA BLA BLA BLA BLA BLA BLA 
BLA BLA BLA BLA BLA BLA BLA BLA BLA BLA BLA BLA BLA BLA BLA BLA BLA BLA BLA BLA 
BLA BLA BLA BLA BLA BLA BLA BLA BLA BLA BLA BLA BLA BLA BLA BLA BLA BLA BLA BLA 
BLA BLA BLA BLA BLA BLA BLA BLA BLA BLA BLA BLA BLA BLA BLA BLA BLA BLA BLA BLA 
BLA BLA BLA BLA BLA BLA BLA BLA BLA BLA BLA BLA BLA BLA BLA BLA BLA BLA BLA BLA 
BLA BLA BLA BLA BLA BLA BLA BLA BLA BLA BLA BLA BLA BLA BLA BLA BLA BLA BLA BLA 
BLA BLA BLA BLA BLA BLA BLA BLA BLA BLA BLA BLA BLA BLA BLA BLA BLA BLA BLA BLA 
BLA BLA BLA BLA BLA BLA BLA BLA BLA BLA BLA BLA BLA BLA BLA BLA BLA BLA BLA BLA 
BLA BLA BLA BLA BLA BLA BLA BLA BLA BLA BLA BLA BLA BLA BLA BLA BLA BLA BLA BLA 
BLA BLA BLA BLA BLA BLA BLA BLA BLA BLA BLA BLA BLA BLA BLA BLA BLA BLA BLA BLA 
BLA BLA BLA BLA BLA BLA BLA BLA BLA BLA BLA BLA BLA BLA BLA BLA BLA BLA BLA BLA 
BLA BLA BLA BLA BLA BLA BLA BLA BLA BLA BLA BLA BLA BLA BLA BLA BLA BLA BLA BLA 
BLA BLA BLA BLA BLA BLA BLA BLA BLA BLA BLA BLA BLA BLA BLA BLA BLA BLA BLA BLA 
BLA BLA BLA BLA BLA BLA BLA BLA BLA BLA BLA BLA BLA BLA BLA BLA BLA BLA BLA BLA 
BLA BLA BLA BLA BLA BLA BLA BLA BLA BLA BLA BLA BLA BLA BLA BLA BLA BLA BLA BLA 
BLA BLA BLA BLA BLA BLA BLA BLA BLA BLA BLA BLA BLA BLA BLA BLA BLA BLA BLA BLA 
BLA BLA BLA BLA BLA BLA BLA BLA BLA BLA BLA BLA BLA BLA BLA BLA BLA BLA BLA BLA 
BLA BLA BLA BLA BLA BLA BLA BLA BLA BLA BLA BLA BLA BLA BLA BLA BLA BLA BLA BLA 
BLA BLA BLA BLA BLA BLA BLA BLA BLA BLA BLA BLA BLA BLA BLA BLA BLA BLA BLA BLA 
BLA BLA BLA BLA BLA BLA BLA BLA BLA BLA BLA BLA BLA BLA BLA BLA BLA BLA BLA BLA 
BLA BLA BLA BLA BLA BLA BLA BLA BLA BLA BLA BLA BLA BLA BLA BLA BLA BLA BLA BLA 
BLA BLA BLA BLA BLA BLA BLA BLA BLA BLA BLA BLA BLA BLA BLA BLA BLA BLA BLA BLA 
BLA BLA BLA BLA BLA BLA BLA BLA BLA BLA BLA BLA BLA BLA BLA BLA BLA BLA BLA BLA 
BLA BLA BLA BLA BLA BLA BLA BLA BLA BLA BLA BLA BLA BLA BLA BLA BLA BLA BLA BLA 
BLA BLA BLA BLA BLA BLA BLA BLA BLA BLA BLA BLA BLA BLA BLA BLA BLA BLA BLA BLA 
BLA BLA BLA BLA BLA BLA BLA BLA BLA BLA BLA BLA BLA BLA BLA BLA BLA BLA BLA BLA 
BLA BLA BLA BLA BLA BLA BLA BLA BLA BLA BLA BLA BLA BLA BLA BLA BLA BLA BLA BLA 
BLA BLA BLA BLA BLA BLA BLA BLA BLA BLA BLA BLA BLA BLA BLA BLA BLA BLA BLA BLA 
BLA BLA BLA BLA BLA BLA BLA BLA BLA BLA BLA BLA BLA BLA BLA BLA BLA BLA BLA BLA 
BLA BLA BLA BLA BLA BLA BLA BLA BLA BLA BLA BLA BLA BLA BLA BLA BLA BLA BLA BLA 
BLA BLA BLA BLA BLA BLA BLA BLA BLA BLA BLA BLA BLA BLA BLA BLA BLA BLA BLA BLA 
BLA BLA BLA BLA BLA BLA BLA BLA BLA BLA BLA BLA BLA BLA BLA BLA BLA BLA BLA BLA 
BLA BLA BLA BLA BLA BLA BLA BLA BLA BLA BLA BLA BLA BLA BLA BLA BLA BLA BLA BLA 
BLA BLA BLA BLA BLA BLA BLA BLA BLA BLA BLA BLA BLA BLA BLA BLA BLA BLA BLA BLA 
BLA BLA BLA BLA BLA BLA BLA BLA BLA BLA BLA BLA BLA BLA BLA BLA BLA BLA BLA BLA 
BLA BLA BLA BLA BLA BLA BLA BLA BLA BLA BLA BLA BLA BLA BLA BLA BLA BLA BLA BLA 
BLA BLA BLA BLA BLA BLA BLA BLA BLA BLA BLA BLA BLA BLA BLA BLA BLA BLA BLA BLA 
BLA BLA BLA BLA BLA BLA BLA BLA BLA BLA BLA BLA BLA BLA BLA BLA BLA BLA BLA BLA 
BLA BLA BLA BLA BLA BLA BLA BLA BLA BLA BLA BLA BLA BLA BLA BLA BLA BLA BLA BLA 
BLA BLA BLA BLA BLA BLA BLA BLA BLA BLA BLA BLA BLA BLA BLA BLA BLA BLA BLA BLA 
BLA BLA BLA BLA BLA BLA BLA BLA BLA BLA BLA BLA BLA BLA BLA BLA BLA BLA BLA BLA 
BLA BLA BLA BLA BLA BLA BLA BLA BLA BLA BLA BLA BLA BLA BLA BLA BLA BLA BLA BLA 
BLA BLA BLA BLA BLA BLA BLA BLA BLA BLA BLA BLA BLA BLA BLA BLA BLA BLA BLA BLA 
BLA BLA BLA BLA BLA BLA BLA BLA BLA BLA BLA BLA BLA BLA BLA BLA BLA BLA BLA BLA 
BLA BLA BLA BLA BLA BLA BLA BLA BLA BLA BLA BLA BLA BLA BLA BLA BLA BLA BLA BLA 
BLA BLA BLA BLA BLA BLA BLA BLA BLA BLA BLA BLA BLA BLA BLA BLA BLA BLA BLA BLA 
BLA BLA BLA BLA BLA BLA BLA BLA BLA BLA BLA BLA BLA BLA BLA BLA BLA BLA BLA BLA 
BLA BLA BLA BLA BLA BLA BLA BLA BLA BLA BLA BLA BLA BLA BLA BLA BLA BLA BLA BLA 
BLA BLA BLA BLA BLA BLA BLA BLA BLA BLA BLA BLA BLA BLA BLA BLA BLA BLA BLA BLA 
BLA BLA BLA BLA BLA BLA BLA BLA BLA BLA BLA BLA BLA BLA BLA BLA BLA BLA BLA BLA 
BLA BLA BLA BLA BLA BLA BLA BLA BLA BLA BLA BLA BLA BLA BLA BLA BLA BLA BLA BLA 
BLA BLA BLA BLA BLA BLA BLA BLA BLA BLA BLA BLA BLA BLA BLA BLA BLA BLA BLA BLA 
BLA BLA BLA BLA BLA BLA BLA BLA BLA BLA BLA BLA BLA BLA BLA BLA BLA BLA BLA BLA 
BLA BLA BLA BLA BLA BLA BLA BLA BLA BLA BLA BLA BLA BLA BLA BLA BLA BLA BLA BLA 
BLA BLA BLA BLA BLA BLA BLA BLA BLA BLA BLA BLA BLA BLA BLA BLA BLA BLA BLA BLA 
BLA BLA BLA BLA BLA BLA BLA BLA BLA BLA BLA BLA BLA BLA BLA BLA BLA BLA BLA BLA 
BLA BLA BLA BLA BLA BLA BLA BLA BLA BLA BLA BLA BLA BLA BLA BLA BLA BLA BLA BLA 
BLA BLA BLA BLA BLA BLA BLA BLA BLA BLA BLA BLA BLA BLA BLA BLA BLA BLA BLA BLA 
BLA BLA BLA BLA BLA BLA BLA BLA BLA BLA BLA BLA BLA BLA BLA BLA BLA BLA BLA BLA 
BLA BLA BLA BLA BLA BLA BLA BLA BLA BLA BLA BLA BLA BLA BLA BLA BLA BLA BLA BLA 
BLA BLA BLA BLA BLA BLA BLA BLA BLA BLA BLA BLA BLA BLA BLA BLA BLA BLA BLA BLA 
BLA BLA BLA BLA BLA BLA BLA BLA BLA BLA BLA BLA BLA BLA BLA BLA BLA BLA BLA BLA 
BLA BLA BLA BLA BLA BLA BLA BLA BLA BLA BLA BLA BLA BLA BLA BLA BLA BLA BLA BLA 
BLA BLA BLA BLA BLA BLA BLA BLA BLA BLA BLA BLA BLA BLA BLA BLA BLA BLA BLA BLA 
BLA BLA BLA BLA BLA BLA BLA BLA BLA BLA BLA BLA BLA BLA BLA BLA BLA BLA BLA BLA 
BLA BLA BLA BLA BLA BLA BLA BLA BLA BLA BLA BLA BLA BLA BLA BLA BLA BLA BLA BLA 
BLA BLA BLA BLA BLA BLA BLA BLA BLA BLA BLA BLA BLA BLA BLA BLA BLA BLA BLA BLA 
BLA BLA BLA BLA BLA BLA BLA BLA BLA BLA BLA BLA BLA BLA BLA BLA BLA BLA BLA BLA 
BLA BLA BLA BLA BLA BLA BLA BLA BLA BLA BLA BLA BLA BLA BLA BLA BLA BLA BLA BLA 
BLA BLA BLA BLA BLA BLA BLA BLA BLA BLA BLA BLA BLA BLA BLA BLA BLA BLA BLA BLA 
BLA BLA BLA BLA BLA BLA BLA BLA BLA BLA BLA BLA BLA BLA BLA BLA BLA BLA BLA BLA 
BLA BLA BLA BLA BLA BLA BLA BLA BLA BLA BLA BLA BLA BLA BLA BLA BLA BLA BLA BLA 
BLA BLA BLA BLA BLA BLA BLA BLA BLA BLA BLA BLA BLA BLA BLA BLA BLA BLA BLA BLA 
BLA BLA BLA BLA BLA BLA BLA BLA BLA BLA BLA BLA BLA BLA BLA BLA BLA BLA BLA BLA 
BLA BLA BLA BLA BLA BLA BLA BLA BLA BLA BLA BLA BLA BLA BLA BLA BLA BLA BLA BLA 
BLA BLA BLA BLA BLA BLA BLA BLA BLA BLA BLA BLA BLA BLA BLA BLA BLA BLA BLA BLA 
BLA BLA BLA BLA BLA BLA BLA BLA BLA BLA BLA BLA BLA BLA BLA BLA BLA BLA BLA BLA 
BLA BLA BLA BLA BLA BLA BLA BLA BLA BLA BLA BLA BLA BLA BLA BLA BLA BLA BLA BLA 
BLA BLA BLA BLA BLA BLA BLA BLA BLA BLA BLA BLA BLA BLA BLA BLA BLA BLA BLA BLA 
BLA BLA BLA BLA BLA BLA BLA BLA BLA BLA BLA BLA BLA BLA BLA BLA BLA BLA BLA BLA 
BLA BLA BLA BLA BLA BLA BLA BLA BLA BLA BLA BLA BLA BLA BLA BLA BLA BLA BLA BLA 
BLA BLA BLA BLA BLA BLA BLA BLA BLA BLA BLA BLA BLA BLA BLA BLA BLA BLA BLA BLA 
BLA BLA BLA BLA BLA BLA BLA BLA BLA BLA BLA BLA BLA BLA BLA BLA BLA BLA BLA BLA 
BLA BLA BLA BLA BLA BLA BLA BLA BLA BLA BLA BLA BLA BLA BLA BLA BLA BLA BLA BLA 
BLA BLA BLA BLA BLA BLA BLA BLA BLA BLA BLA BLA BLA BLA BLA BLA BLA BLA BLA BLA 
BLA BLA BLA BLA BLA BLA BLA BLA BLA BLA BLA BLA BLA BLA BLA BLA BLA BLA BLA BLA 
BLA BLA BLA BLA BLA BLA BLA BLA BLA BLA BLA BLA BLA BLA BLA BLA BLA BLA BLA BLA 
BLA BLA BLA BLA BLA BLA BLA BLA BLA BLA BLA BLA BLA BLA BLA BLA BLA BLA BLA BLA 
BLA BLA BLA BLA BLA BLA BLA BLA BLA BLA BLA BLA BLA BLA BLA BLA BLA BLA BLA BLA 
BLA BLA BLA BLA BLA BLA BLA BLA BLA BLA BLA BLA BLA BLA BLA BLA BLA BLA BLA BLA 
BLA BLA BLA BLA BLA BLA BLA BLA BLA BLA BLA BLA BLA BLA BLA BLA BLA BLA BLA BLA 
BLA BLA BLA BLA BLA BLA BLA BLA BLA BLA BLA BLA BLA BLA BLA BLA BLA BLA BLA BLA 
BLA BLA BLA BLA BLA BLA BLA BLA BLA BLA BLA BLA BLA BLA BLA BLA BLA BLA BLA BLA 
BLA BLA BLA BLA BLA BLA BLA BLA BLA BLA BLA BLA BLA BLA BLA BLA BLA BLA BLA BLA 
BLA BLA BLA BLA BLA BLA BLA BLA BLA BLA BLA BLA BLA BLA BLA BLA BLA BLA BLA BLA 
BLA BLA BLA BLA BLA BLA BLA BLA BLA BLA BLA BLA BLA BLA BLA BLA BLA BLA BLA BLA 
BLA BLA BLA BLA BLA BLA BLA BLA BLA BLA BLA BLA BLA BLA BLA BLA BLA BLA BLA BLA 
BLA BLA BLA BLA BLA BLA BLA BLA BLA BLA BLA BLA BLA BLA BLA BLA BLA BLA BLA BLA 
BLA BLA BLA BLA BLA BLA BLA BLA BLA BLA BLA BLA BLA BLA BLA BLA BLA BLA BLA BLA 
BLA BLA BLA BLA BLA BLA BLA BLA BLA BLA BLA BLA BLA BLA BLA BLA BLA BLA BLA BLA 
BLA BLA BLA BLA BLA BLA BLA BLA BLA BLA BLA BLA BLA BLA BLA BLA BLA BLA BLA BLA 
BLA BLA BLA BLA BLA BLA BLA BLA BLA BLA BLA BLA BLA BLA BLA BLA BLA BLA BLA BLA 
BLA BLA BLA BLA BLA BLA BLA BLA BLA BLA BLA BLA BLA BLA BLA BLA BLA BLA BLA BLA 
BLA BLA BLA BLA BLA BLA BLA BLA BLA BLA BLA BLA BLA BLA BLA BLA BLA BLA BLA BLA 
BLA BLA BLA BLA BLA BLA BLA BLA BLA BLA BLA BLA BLA BLA BLA BLA BLA BLA BLA BLA 
BLA BLA BLA BLA BLA BLA BLA BLA BLA BLA BLA BLA BLA BLA BLA BLA BLA BLA BLA BLA 
BLA BLA BLA BLA BLA BLA BLA BLA BLA BLA BLA BLA BLA BLA BLA BLA BLA BLA BLA BLA 
BLA BLA BLA BLA BLA BLA BLA BLA BLA BLA BLA BLA BLA BLA BLA BLA BLA BLA BLA BLA 
BLA BLA BLA BLA BLA BLA BLA BLA BLA BLA BLA BLA BLA BLA BLA BLA BLA BLA BLA BLA 
BLA BLA BLA BLA BLA BLA BLA BLA BLA BLA BLA BLA BLA BLA BLA BLA BLA BLA BLA BLA 
BLA BLA BLA BLA BLA BLA BLA BLA BLA BLA BLA BLA BLA BLA BLA BLA BLA BLA BLA BLA 
BLA BLA BLA BLA BLA BLA BLA BLA BLA BLA BLA BLA BLA BLA BLA BLA BLA BLA BLA BLA 
BLA BLA BLA BLA BLA BLA BLA BLA BLA BLA BLA BLA BLA BLA BLA BLA BLA BLA BLA BLA 
BLA BLA BLA BLA BLA BLA BLA BLA BLA BLA BLA BLA BLA BLA BLA BLA BLA BLA BLA BLA 
BLA BLA BLA BLA BLA BLA BLA BLA BLA BLA BLA BLA BLA BLA BLA BLA BLA BLA BLA BLA 
BLA BLA BLA BLA BLA BLA BLA BLA BLA BLA BLA BLA BLA BLA BLA BLA BLA BLA BLA BLA 
BLA BLA BLA BLA BLA BLA BLA BLA BLA BLA BLA BLA BLA BLA BLA BLA BLA BLA BLA BLA 
BLA BLA BLA BLA BLA BLA BLA BLA BLA BLA BLA BLA BLA BLA BLA BLA BLA BLA BLA BLA 
BLA BLA BLA BLA BLA BLA BLA BLA BLA BLA BLA BLA BLA BLA BLA BLA BLA BLA BLA BLA 
BLA BLA BLA BLA BLA BLA BLA BLA BLA BLA BLA BLA BLA BLA BLA BLA BLA BLA BLA BLA 
BLA BLA BLA BLA BLA BLA BLA BLA BLA BLA BLA BLA BLA BLA BLA BLA BLA BLA BLA BLA 
BLA BLA BLA BLA BLA BLA BLA BLA BLA BLA BLA BLA BLA BLA BLA BLA BLA BLA BLA BLA 
BLA BLA BLA BLA BLA BLA BLA BLA BLA BLA BLA BLA BLA BLA BLA BLA BLA BLA BLA BLA 
BLA BLA BLA BLA BLA BLA BLA BLA BLA BLA BLA BLA BLA BLA BLA BLA BLA BLA BLA BLA 
BLA BLA BLA BLA BLA BLA BLA BLA BLA BLA BLA BLA BLA BLA BLA BLA BLA BLA BLA BLA 
BLA BLA BLA BLA BLA BLA BLA BLA BLA BLA BLA BLA BLA BLA BLA BLA BLA BLA BLA BLA 
BLA BLA BLA BLA BLA BLA BLA BLA BLA BLA BLA BLA BLA BLA BLA BLA BLA BLA BLA BLA 
BLA BLA BLA BLA BLA BLA BLA BLA BLA BLA BLA BLA BLA BLA BLA BLA BLA BLA BLA BLA 
BLA BLA BLA BLA BLA BLA BLA BLA BLA BLA BLA BLA BLA BLA BLA BLA BLA BLA BLA BLA 
BLA BLA BLA BLA BLA BLA BLA BLA BLA BLA BLA BLA BLA BLA BLA BLA BLA BLA BLA BLA 
BLA BLA BLA BLA BLA BLA BLA BLA BLA BLA BLA BLA BLA BLA BLA BLA BLA BLA BLA BLA 
BLA BLA BLA BLA BLA BLA BLA BLA BLA BLA BLA BLA BLA BLA BLA BLA BLA BLA BLA BLA 
BLA BLA BLA BLA BLA BLA BLA BLA BLA BLA BLA BLA BLA BLA BLA BLA BLA BLA BLA BLA 
BLA BLA BLA BLA BLA BLA BLA BLA BLA BLA BLA BLA BLA BLA BLA BLA BLA BLA BLA BLA 
BLA BLA BLA BLA BLA BLA BLA BLA BLA BLA BLA BLA BLA BLA BLA BLA BLA BLA BLA BLA 
BLA BLA BLA BLA BLA BLA BLA BLA BLA BLA BLA BLA BLA BLA BLA BLA BLA BLA BLA BLA 
BLA BLA BLA BLA BLA BLA BLA BLA BLA BLA BLA BLA BLA BLA BLA BLA BLA BLA BLA BLA 
BLA BLA BLA BLA BLA BLA BLA BLA BLA BLA BLA BLA BLA BLA BLA BLA BLA BLA BLA BLA 
BLA BLA BLA BLA BLA BLA BLA BLA BLA BLA BLA BLA BLA BLA BLA BLA BLA BLA BLA BLA 
BLA BLA BLA BLA BLA BLA BLA BLA BLA BLA BLA BLA BLA BLA BLA BLA BLA BLA BLA BLA 
BLA BLA BLA BLA BLA BLA BLA BLA BLA BLA BLA BLA BLA BLA BLA BLA BLA BLA BLA BLA 
BLA BLA BLA BLA BLA BLA BLA BLA BLA BLA BLA BLA BLA BLA BLA BLA BLA BLA BLA BLA 
BLA BLA BLA BLA BLA BLA BLA BLA BLA BLA BLA BLA BLA BLA BLA BLA BLA BLA BLA BLA 
BLA BLA BLA BLA BLA BLA BLA BLA BLA BLA BLA BLA BLA BLA BLA BLA BLA BLA BLA BLA 
BLA BLA BLA BLA BLA BLA BLA BLA BLA BLA BLA BLA BLA BLA BLA BLA BLA BLA BLA BLA 
BLA BLA BLA BLA BLA BLA BLA BLA BLA BLA BLA BLA BLA BLA BLA BLA BLA BLA BLA BLA 
BLA BLA BLA BLA BLA BLA BLA BLA BLA BLA BLA BLA BLA BLA BLA BLA BLA BLA BLA BLA 
BLA BLA BLA BLA BLA BLA BLA BLA BLA BLA BLA BLA BLA BLA BLA BLA BLA BLA BLA BLA 
BLA BLA BLA BLA BLA BLA BLA BLA BLA BLA BLA BLA BLA BLA BLA BLA BLA BLA BLA BLA 
BLA BLA BLA BLA BLA BLA BLA BLA BLA BLA BLA BLA BLA BLA BLA BLA BLA BLA BLA BLA 
BLA BLA BLA BLA BLA BLA BLA BLA BLA BLA BLA BLA BLA BLA BLA BLA BLA BLA BLA BLA 
BLA BLA BLA BLA BLA BLA BLA BLA BLA BLA BLA BLA BLA BLA BLA BLA BLA BLA BLA BLA 
BLA BLA BLA BLA BLA BLA BLA BLA BLA BLA BLA BLA BLA BLA BLA BLA BLA BLA BLA BLA 
BLA BLA BLA BLA BLA BLA BLA BLA BLA BLA BLA BLA BLA BLA BLA BLA BLA BLA BLA BLA 
BLA BLA BLA BLA BLA BLA BLA BLA BLA BLA BLA BLA BLA BLA BLA BLA BLA BLA BLA BLA 
BLA BLA BLA BLA BLA BLA BLA BLA BLA BLA BLA BLA BLA BLA BLA BLA BLA BLA BLA BLA 
BLA BLA BLA BLA BLA BLA BLA BLA BLA BLA BLA BLA BLA BLA BLA BLA BLA BLA BLA BLA 
BLA BLA BLA BLA BLA BLA BLA BLA BLA BLA BLA BLA BLA BLA BLA BLA BLA BLA BLA BLA 
BLA BLA BLA BLA BLA BLA BLA BLA BLA BLA BLA BLA BLA BLA BLA BLA BLA BLA BLA BLA 
BLA BLA BLA BLA BLA BLA BLA BLA BLA BLA BLA BLA BLA BLA BLA BLA BLA BLA BLA BLA 
BLA BLA BLA BLA BLA BLA BLA BLA BLA BLA BLA BLA BLA BLA BLA BLA BLA BLA BLA BLA 
BLA BLA BLA BLA BLA BLA BLA BLA BLA BLA BLA BLA BLA BLA BLA BLA BLA BLA BLA BLA 
BLA BLA BLA BLA BLA BLA BLA BLA BLA BLA BLA BLA BLA BLA BLA BLA BLA BLA BLA BLA 
BLA BLA BLA BLA BLA BLA BLA BLA BLA BLA BLA BLA BLA BLA BLA BLA BLA BLA BLA BLA 
BLA BLA BLA BLA BLA BLA BLA BLA BLA BLA BLA BLA BLA BLA BLA BLA BLA BLA BLA BLA 
BLA BLA BLA BLA BLA BLA BLA BLA BLA BLA BLA BLA BLA BLA BLA BLA BLA BLA BLA BLA 
BLA BLA BLA BLA BLA BLA BLA BLA BLA BLA BLA BLA BLA BLA BLA BLA BLA BLA BLA BLA 
BLA BLA BLA BLA BLA BLA BLA BLA BLA BLA BLA BLA BLA BLA BLA BLA BLA BLA BLA BLA 
BLA BLA BLA BLA BLA BLA BLA BLA BLA BLA BLA BLA BLA BLA BLA BLA BLA BLA BLA BLA 
BLA BLA BLA BLA BLA BLA BLA BLA BLA BLA BLA BLA BLA BLA BLA BLA BLA BLA BLA BLA 
BLA BLA BLA BLA BLA BLA BLA BLA BLA BLA BLA BLA BLA BLA BLA BLA BLA BLA BLA BLA 
BLA BLA BLA BLA BLA BLA BLA BLA BLA BLA BLA BLA BLA BLA BLA BLA BLA BLA BLA BLA 
BLA BLA BLA BLA BLA BLA BLA BLA BLA BLA BLA BLA BLA BLA BLA BLA BLA BLA BLA BLA 
BLA BLA BLA BLA BLA BLA BLA BLA BLA BLA BLA BLA BLA BLA BLA BLA BLA BLA BLA BLA 
BLA BLA BLA BLA BLA BLA BLA BLA BLA BLA BLA BLA BLA BLA BLA BLA BLA BLA BLA BLA 
BLA BLA BLA BLA BLA BLA BLA BLA BLA BLA BLA BLA BLA BLA BLA BLA BLA BLA BLA BLA 
BLA BLA BLA BLA BLA BLA BLA BLA BLA BLA BLA BLA BLA BLA BLA BLA BLA BLA BLA BLA 
BLA BLA BLA BLA BLA BLA BLA BLA BLA BLA BLA BLA BLA BLA BLA BLA BLA BLA BLA BLA 
BLA BLA BLA BLA BLA BLA BLA BLA BLA BLA BLA BLA BLA BLA BLA BLA BLA BLA BLA BLA 
BLA BLA BLA BLA BLA BLA BLA BLA BLA BLA BLA BLA BLA BLA BLA BLA BLA BLA BLA BLA 
BLA BLA BLA BLA BLA BLA BLA BLA BLA BLA BLA BLA BLA BLA BLA BLA BLA BLA BLA BLA 
BLA BLA BLA BLA BLA BLA BLA BLA BLA BLA BLA BLA BLA BLA BLA BLA BLA BLA BLA BLA 
BLA BLA BLA BLA BLA BLA BLA BLA BLA BLA BLA BLA BLA BLA BLA BLA BLA BLA BLA BLA 
BLA BLA BLA BLA BLA BLA BLA BLA BLA BLA BLA BLA BLA BLA BLA BLA BLA BLA BLA BLA 
BLA BLA BLA BLA BLA BLA BLA BLA BLA BLA BLA BLA BLA BLA BLA BLA BLA BLA BLA BLA 
BLA BLA BLA BLA BLA BLA BLA BLA BLA BLA BLA BLA BLA BLA BLA BLA BLA BLA BLA BLA 
BLA BLA BLA BLA BLA BLA BLA BLA BLA BLA BLA BLA BLA BLA BLA BLA BLA BLA BLA BLA 
BLA BLA BLA BLA BLA BLA BLA BLA BLA BLA BLA BLA BLA BLA BLA BLA BLA BLA BLA BLA 
BLA BLA BLA BLA BLA BLA BLA BLA BLA BLA BLA BLA BLA BLA BLA BLA BLA BLA BLA BLA 
BLA BLA BLA BLA BLA BLA BLA BLA BLA BLA BLA BLA BLA BLA BLA BLA BLA BLA BLA BLA 
BLA BLA BLA BLA BLA BLA BLA BLA BLA BLA BLA BLA BLA BLA BLA BLA BLA BLA BLA BLA 
BLA BLA BLA BLA BLA BLA BLA BLA BLA BLA BLA BLA BLA BLA BLA BLA BLA BLA BLA BLA 
BLA BLA BLA BLA BLA BLA BLA BLA BLA BLA BLA BLA BLA BLA BLA BLA BLA BLA BLA BLA 
BLA BLA BLA BLA BLA BLA BLA BLA BLA BLA BLA BLA BLA BLA BLA BLA BLA BLA BLA BLA 
BLA BLA BLA BLA BLA BLA BLA BLA BLA BLA BLA BLA BLA BLA BLA BLA BLA BLA BLA BLA 
BLA BLA BLA BLA BLA BLA BLA BLA BLA BLA BLA BLA BLA BLA BLA BLA BLA BLA BLA BLA 
BLA BLA BLA BLA BLA BLA BLA BLA BLA BLA BLA BLA BLA BLA BLA BLA BLA BLA BLA BLA 
BLA BLA BLA BLA BLA BLA BLA BLA BLA BLA BLA BLA BLA BLA BLA BLA BLA BLA BLA BLA 
BLA BLA BLA BLA BLA BLA BLA BLA BLA BLA BLA BLA BLA BLA BLA BLA BLA BLA BLA BLA 
BLA BLA BLA BLA BLA BLA BLA BLA BLA BLA BLA BLA BLA BLA BLA BLA BLA BLA BLA BLA 
BLA BLA BLA BLA BLA BLA BLA BLA BLA BLA BLA BLA BLA BLA BLA BLA BLA BLA BLA BLA 
BLA BLA BLA BLA BLA BLA BLA BLA BLA BLA BLA BLA BLA BLA BLA BLA BLA BLA BLA BLA 
BLA BLA BLA BLA BLA BLA BLA BLA BLA BLA BLA BLA BLA BLA BLA BLA BLA BLA BLA BLA 
BLA BLA BLA BLA BLA BLA BLA BLA BLA BLA BLA BLA BLA BLA BLA BLA BLA BLA BLA BLA 
BLA BLA BLA BLA BLA BLA BLA BLA BLA BLA BLA BLA BLA BLA BLA BLA BLA BLA BLA BLA 
BLA BLA BLA BLA BLA BLA BLA BLA BLA BLA BLA BLA BLA BLA BLA BLA BLA BLA BLA BLA 
BLA BLA BLA BLA BLA BLA BLA BLA BLA BLA BLA BLA BLA BLA BLA BLA BLA BLA BLA BLA 
BLA BLA BLA BLA BLA BLA BLA BLA BLA BLA BLA BLA BLA BLA BLA BLA BLA BLA BLA BLA 
BLA BLA BLA BLA BLA BLA BLA BLA BLA BLA BLA BLA BLA BLA BLA BLA BLA BLA BLA BLA 
BLA BLA BLA BLA BLA BLA BLA BLA BLA BLA BLA BLA BLA BLA BLA BLA BLA BLA BLA BLA 
BLA BLA BLA BLA BLA BLA BLA BLA BLA BLA BLA BLA BLA BLA BLA BLA BLA BLA BLA BLA 
BLA BLA BLA BLA BLA BLA BLA BLA BLA BLA BLA BLA BLA BLA BLA BLA BLA BLA BLA BLA 
BLA BLA BLA BLA BLA BLA BLA BLA BLA BLA BLA BLA BLA BLA BLA BLA BLA BLA BLA BLA 
BLA BLA BLA BLA BLA BLA BLA BLA BLA BLA BLA BLA BLA BLA BLA BLA BLA BLA BLA BLA 
BLA BLA BLA BLA BLA BLA BLA BLA BLA BLA BLA BLA BLA BLA BLA BLA BLA BLA BLA BLA 
BLA BLA BLA BLA BLA BLA BLA BLA BLA BLA BLA BLA BLA BLA BLA BLA BLA BLA BLA BLA 
BLA BLA BLA BLA BLA BLA BLA BLA BLA BLA BLA BLA BLA BLA BLA BLA BLA BLA BLA BLA 
BLA BLA BLA BLA BLA BLA BLA BLA BLA BLA BLA BLA BLA BLA BLA BLA BLA BLA BLA BLA 
BLA BLA BLA BLA BLA BLA BLA BLA BLA BLA BLA BLA BLA BLA BLA BLA BLA BLA BLA BLA 
BLA BLA BLA BLA BLA BLA BLA BLA BLA BLA BLA BLA BLA BLA BLA BLA BLA BLA BLA BLA 
BLA BLA BLA BLA BLA BLA BLA BLA BLA BLA BLA BLA BLA BLA BLA BLA BLA BLA BLA BLA 
BLA BLA BLA BLA BLA BLA BLA BLA BLA BLA BLA BLA BLA BLA BLA BLA BLA BLA BLA BLA 
BLA BLA BLA BLA BLA BLA BLA BLA BLA BLA BLA BLA BLA BLA BLA BLA BLA BLA BLA BLA 
BLA BLA BLA BLA BLA BLA BLA BLA BLA BLA BLA BLA BLA BLA BLA BLA BLA BLA BLA BLA 
BLA BLA BLA BLA BLA BLA BLA BLA BLA BLA BLA BLA BLA BLA BLA BLA BLA BLA BLA BLA 
BLA BLA BLA BLA BLA BLA BLA BLA BLA BLA BLA BLA BLA BLA BLA BLA BLA BLA BLA BLA 
BLA BLA BLA BLA BLA BLA BLA BLA BLA BLA BLA BLA BLA BLA BLA BLA BLA BLA BLA BLA 
BLA BLA BLA BLA BLA BLA BLA BLA BLA BLA BLA BLA BLA BLA BLA BLA BLA BLA BLA BLA 
BLA BLA BLA BLA BLA BLA BLA BLA BLA BLA BLA BLA BLA BLA BLA BLA BLA BLA BLA BLA 
BLA BLA BLA BLA BLA BLA BLA BLA BLA BLA BLA BLA BLA BLA BLA BLA BLA BLA BLA BLA 
BLA BLA BLA BLA BLA BLA BLA BLA BLA BLA BLA BLA BLA BLA BLA BLA BLA BLA BLA BLA 
BLA BLA BLA BLA BLA BLA BLA BLA BLA BLA BLA BLA BLA BLA BLA BLA BLA BLA BLA BLA 
BLA BLA BLA BLA BLA BLA BLA BLA BLA BLA BLA BLA BLA BLA BLA BLA BLA BLA BLA BLA 
BLA BLA BLA BLA BLA BLA BLA BLA BLA BLA BLA BLA BLA BLA BLA BLA BLA BLA BLA BLA 
BLA BLA BLA BLA BLA BLA BLA BLA BLA BLA BLA BLA BLA BLA BLA BLA BLA BLA BLA BLA 
BLA BLA BLA BLA BLA BLA BLA BLA BLA BLA BLA BLA BLA BLA BLA BLA BLA BLA BLA BLA 
BLA BLA BLA BLA BLA BLA BLA BLA BLA BLA BLA BLA BLA BLA BLA BLA BLA BLA BLA BLA 
BLA BLA BLA BLA BLA BLA BLA BLA BLA BLA BLA BLA BLA BLA BLA BLA BLA BLA BLA BLA 
BLA BLA BLA BLA BLA BLA BLA BLA BLA BLA BLA BLA BLA BLA BLA BLA BLA BLA BLA BLA 
BLA BLA BLA BLA BLA BLA BLA BLA BLA BLA BLA BLA BLA BLA BLA BLA BLA BLA BLA BLA 
BLA BLA BLA BLA BLA BLA BLA BLA BLA BLA BLA BLA BLA BLA BLA BLA BLA BLA BLA BLA 
BLA BLA BLA BLA BLA BLA BLA BLA BLA BLA BLA BLA BLA BLA BLA BLA BLA BLA BLA BLA 
BLA BLA BLA BLA BLA BLA BLA BLA BLA BLA BLA BLA BLA BLA BLA BLA BLA BLA BLA BLA 
BLA BLA BLA BLA BLA BLA BLA BLA BLA BLA BLA BLA BLA BLA BLA BLA BLA BLA BLA BLA 
BLA BLA BLA BLA BLA BLA BLA BLA BLA BLA BLA BLA BLA BLA BLA BLA BLA BLA BLA BLA 
BLA BLA BLA BLA BLA BLA BLA BLA BLA BLA BLA BLA BLA BLA BLA BLA BLA BLA BLA BLA 
BLA BLA BLA BLA BLA BLA BLA BLA BLA BLA BLA BLA BLA BLA BLA BLA BLA BLA BLA BLA 
BLA BLA BLA BLA BLA BLA BLA BLA BLA BLA BLA BLA BLA BLA BLA BLA BLA BLA BLA BLA 
BLA BLA BLA BLA BLA BLA BLA BLA BLA BLA BLA BLA BLA BLA BLA BLA BLA BLA BLA BLA 
BLA BLA BLA BLA BLA BLA BLA BLA BLA BLA BLA BLA BLA BLA BLA BLA BLA BLA BLA BLA 
BLA BLA BLA BLA BLA BLA BLA BLA BLA BLA BLA BLA BLA BLA BLA BLA BLA BLA BLA BLA 
BLA BLA BLA BLA BLA BLA BLA BLA BLA BLA BLA BLA BLA BLA BLA BLA BLA BLA BLA BLA 
BLA BLA BLA BLA BLA BLA BLA BLA BLA BLA BLA BLA BLA BLA BLA BLA BLA BLA BLA BLA 
BLA BLA BLA BLA BLA BLA BLA BLA BLA BLA BLA BLA BLA BLA BLA BLA BLA BLA BLA BLA 
BLA BLA BLA BLA BLA BLA BLA BLA BLA BLA BLA BLA BLA BLA BLA BLA BLA BLA BLA BLA 
BLA BLA BLA BLA BLA BLA BLA BLA BLA BLA BLA BLA BLA BLA BLA BLA BLA BLA BLA BLA 
BLA BLA BLA BLA BLA BLA BLA BLA BLA BLA BLA BLA BLA BLA BLA BLA BLA BLA BLA BLA 
BLA BLA BLA BLA BLA BLA BLA BLA BLA BLA BLA BLA BLA BLA BLA BLA BLA BLA BLA BLA 
BLA BLA BLA BLA BLA BLA BLA BLA BLA BLA BLA BLA BLA BLA BLA BLA BLA BLA BLA BLA 
BLA BLA BLA BLA BLA BLA BLA BLA BLA BLA BLA BLA BLA BLA BLA BLA BLA BLA BLA BLA 
BLA BLA BLA BLA BLA BLA BLA BLA BLA BLA BLA BLA BLA BLA BLA BLA BLA BLA BLA BLA 
BLA BLA BLA BLA BLA BLA BLA BLA BLA BLA BLA BLA BLA BLA BLA BLA BLA BLA BLA BLA 
BLA BLA BLA BLA BLA BLA BLA BLA BLA BLA BLA BLA BLA BLA BLA BLA BLA BLA BLA BLA 
BLA BLA BLA BLA BLA BLA BLA BLA BLA BLA BLA BLA BLA BLA BLA BLA BLA BLA BLA BLA 
BLA BLA BLA BLA BLA BLA BLA BLA BLA BLA BLA BLA BLA BLA BLA BLA BLA BLA BLA BLA 
BLA BLA BLA BLA BLA BLA BLA BLA BLA BLA BLA BLA BLA BLA BLA BLA BLA BLA BLA BLA 
BLA BLA BLA BLA BLA BLA BLA BLA BLA BLA BLA BLA BLA BLA BLA BLA BLA BLA BLA BLA 
BLA BLA BLA BLA BLA BLA BLA BLA BLA BLA BLA BLA BLA BLA BLA BLA BLA BLA BLA BLA 
BLA BLA BLA BLA BLA BLA BLA BLA BLA BLA BLA BLA BLA BLA BLA BLA BLA BLA BLA BLA 
BLA BLA BLA BLA BLA BLA BLA BLA BLA BLA BLA BLA BLA BLA BLA BLA BLA BLA BLA BLA 
BLA BLA BLA BLA BLA BLA BLA BLA BLA BLA BLA BLA BLA BLA BLA BLA BLA BLA BLA BLA 
BLA BLA BLA BLA BLA BLA BLA BLA BLA BLA BLA BLA BLA BLA BLA BLA BLA BLA BLA BLA 
BLA BLA BLA BLA BLA BLA BLA BLA BLA BLA BLA BLA BLA BLA BLA BLA BLA BLA BLA BLA 
BLA BLA BLA BLA BLA BLA BLA BLA BLA BLA BLA BLA BLA BLA BLA BLA BLA BLA BLA BLA 
BLA BLA BLA BLA BLA BLA BLA BLA BLA BLA BLA BLA BLA BLA BLA BLA BLA BLA BLA BLA 
BLA BLA BLA BLA BLA BLA BLA BLA BLA BLA BLA BLA BLA BLA BLA BLA BLA BLA BLA BLA 
BLA BLA BLA BLA BLA BLA BLA BLA BLA BLA BLA BLA BLA BLA BLA BLA BLA BLA BLA BLA 
BLA BLA BLA BLA BLA BLA BLA BLA BLA BLA BLA BLA BLA BLA BLA BLA BLA BLA BLA BLA 
BLA BLA BLA BLA BLA BLA BLA BLA BLA BLA BLA BLA BLA BLA BLA BLA BLA BLA BLA BLA 
BLA BLA BLA BLA BLA BLA BLA BLA BLA BLA BLA BLA BLA BLA BLA BLA BLA BLA BLA BLA 
BLA BLA BLA BLA BLA BLA BLA BLA BLA BLA BLA BLA BLA BLA BLA BLA BLA BLA BLA BLA 
BLA BLA BLA BLA BLA BLA BLA BLA BLA BLA BLA BLA BLA BLA BLA BLA BLA BLA BLA BLA 
BLA BLA BLA BLA BLA BLA BLA BLA BLA BLA BLA BLA BLA BLA BLA BLA BLA BLA BLA BLA 
BLA BLA BLA BLA BLA BLA BLA BLA BLA BLA BLA BLA BLA BLA BLA BLA BLA BLA BLA BLA 
BLA BLA BLA BLA BLA BLA BLA BLA BLA BLA BLA BLA BLA BLA BLA BLA BLA BLA BLA BLA 
BLA BLA BLA BLA BLA BLA BLA BLA BLA BLA BLA BLA BLA BLA BLA BLA BLA BLA BLA BLA 
BLA BLA BLA BLA BLA BLA BLA BLA BLA BLA BLA BLA BLA BLA BLA BLA BLA BLA BLA BLA 
BLA BLA BLA BLA BLA BLA BLA BLA BLA BLA BLA BLA BLA BLA BLA BLA BLA BLA BLA BLA 
BLA BLA BLA BLA BLA BLA BLA BLA BLA BLA BLA BLA BLA BLA BLA BLA BLA BLA BLA BLA 
BLA BLA BLA BLA BLA BLA BLA BLA BLA BLA BLA BLA BLA BLA BLA BLA BLA BLA BLA BLA 
BLA BLA BLA BLA BLA BLA BLA BLA BLA BLA BLA BLA BLA BLA BLA BLA BLA BLA BLA BLA 
BLA BLA BLA BLA BLA BLA BLA BLA BLA BLA BLA BLA BLA BLA BLA BLA BLA BLA BLA BLA 
BLA BLA BLA BLA BLA BLA BLA BLA BLA BLA BLA BLA BLA BLA BLA BLA BLA BLA BLA BLA 
BLA BLA BLA BLA BLA BLA BLA BLA BLA BLA BLA BLA BLA BLA BLA BLA BLA BLA BLA BLA 
BLA BLA BLA BLA BLA BLA BLA BLA BLA BLA BLA BLA BLA BLA BLA BLA BLA BLA BLA BLA 
BLA BLA BLA BLA BLA BLA BLA BLA BLA BLA BLA BLA BLA BLA BLA BLA BLA BLA BLA BLA 
BLA BLA BLA BLA BLA BLA BLA BLA BLA BLA BLA BLA BLA BLA BLA BLA BLA BLA BLA BLA 
BLA BLA BLA BLA BLA BLA BLA BLA BLA BLA BLA BLA BLA BLA BLA BLA BLA BLA BLA BLA 
BLA BLA BLA BLA BLA BLA BLA BLA BLA BLA BLA BLA BLA BLA BLA BLA BLA BLA BLA BLA 
BLA BLA BLA BLA BLA BLA BLA BLA BLA BLA BLA BLA BLA BLA BLA BLA BLA BLA BLA BLA 
BLA BLA BLA BLA BLA BLA BLA BLA BLA BLA BLA BLA BLA BLA BLA BLA BLA BLA BLA BLA 
BLA BLA BLA BLA BLA BLA BLA BLA BLA BLA BLA BLA BLA BLA BLA BLA BLA BLA BLA BLA 
BLA BLA BLA BLA BLA BLA BLA BLA BLA BLA BLA BLA BLA BLA BLA BLA BLA BLA BLA BLA 
BLA BLA BLA BLA BLA BLA BLA BLA BLA BLA BLA BLA BLA BLA BLA BLA BLA BLA BLA BLA 
BLA BLA BLA BLA BLA BLA BLA BLA BLA BLA BLA BLA BLA BLA BLA BLA BLA BLA BLA BLA 
BLA BLA BLA BLA BLA BLA BLA BLA BLA BLA BLA BLA BLA BLA BLA BLA BLA BLA BLA BLA 
BLA BLA BLA BLA BLA BLA BLA BLA BLA BLA BLA BLA BLA BLA BLA BLA BLA BLA BLA BLA 
BLA BLA BLA BLA BLA BLA BLA BLA BLA BLA BLA BLA BLA BLA BLA BLA BLA BLA BLA BLA 
BLA BLA BLA BLA BLA BLA BLA BLA BLA BLA BLA BLA BLA BLA BLA BLA BLA BLA BLA BLA 
BLA BLA BLA BLA BLA BLA BLA BLA BLA BLA BLA BLA BLA BLA BLA BLA BLA BLA BLA BLA 
BLA BLA BLA BLA BLA BLA BLA BLA BLA BLA BLA BLA BLA BLA BLA BLA BLA BLA BLA BLA 
BLA BLA BLA BLA BLA BLA BLA BLA BLA BLA BLA BLA BLA BLA BLA BLA BLA BLA BLA BLA 
BLA BLA BLA BLA BLA BLA BLA BLA BLA BLA BLA BLA BLA BLA BLA BLA BLA BLA BLA BLA 
BLA BLA BLA BLA BLA BLA BLA BLA BLA BLA BLA BLA BLA BLA BLA BLA BLA BLA BLA BLA 
BLA BLA BLA BLA BLA BLA BLA BLA BLA BLA BLA BLA BLA BLA BLA BLA BLA BLA BLA BLA 
BLA BLA BLA BLA BLA BLA BLA BLA BLA BLA BLA BLA BLA BLA BLA BLA BLA BLA BLA BLA 
BLA BLA BLA BLA BLA BLA BLA BLA BLA BLA BLA BLA BLA BLA BLA BLA BLA BLA BLA BLA 
BLA BLA BLA BLA BLA BLA BLA BLA BLA BLA BLA BLA BLA BLA BLA BLA BLA BLA BLA BLA 
BLA BLA BLA BLA BLA BLA BLA BLA BLA BLA BLA BLA BLA BLA BLA BLA BLA BLA BLA BLA 
BLA BLA BLA BLA BLA BLA BLA BLA BLA BLA BLA BLA BLA BLA BLA BLA BLA BLA BLA BLA 
BLA BLA BLA BLA BLA BLA BLA BLA BLA BLA BLA BLA BLA BLA BLA BLA BLA BLA BLA BLA 
BLA BLA BLA BLA BLA BLA BLA BLA BLA BLA BLA BLA BLA BLA BLA BLA BLA BLA BLA BLA 
BLA BLA BLA BLA BLA BLA BLA BLA BLA BLA BLA BLA BLA BLA BLA BLA BLA BLA BLA BLA 
BLA BLA BLA BLA BLA BLA BLA BLA BLA BLA BLA BLA BLA BLA BLA BLA BLA BLA BLA BLA 
BLA BLA BLA BLA BLA BLA BLA BLA BLA BLA BLA BLA BLA BLA BLA BLA BLA BLA BLA BLA 
BLA BLA BLA BLA BLA BLA BLA BLA BLA BLA BLA BLA BLA BLA BLA BLA BLA BLA BLA BLA 
BLA BLA BLA BLA BLA BLA BLA BLA BLA BLA BLA BLA BLA BLA BLA BLA BLA BLA BLA BLA 
BLA BLA BLA BLA BLA BLA BLA BLA BLA BLA BLA BLA BLA BLA BLA BLA BLA BLA BLA BLA 
BLA BLA BLA BLA BLA BLA BLA BLA BLA BLA BLA BLA BLA BLA BLA BLA BLA BLA BLA BLA 
BLA BLA BLA BLA BLA BLA BLA BLA BLA BLA BLA BLA BLA BLA BLA BLA BLA BLA BLA BLA 
BLA BLA BLA BLA BLA BLA BLA BLA BLA BLA BLA BLA BLA BLA BLA BLA BLA BLA BLA BLA 
BLA BLA BLA BLA BLA BLA BLA BLA BLA BLA BLA BLA BLA BLA BLA BLA BLA BLA BLA BLA 
BLA BLA BLA BLA BLA BLA BLA BLA BLA BLA BLA BLA BLA BLA BLA BLA BLA BLA BLA BLA 
BLA BLA BLA BLA BLA BLA BLA BLA BLA BLA BLA BLA BLA BLA BLA BLA BLA BLA BLA BLA 
BLA BLA BLA BLA BLA BLA BLA BLA BLA BLA BLA BLA BLA BLA BLA BLA BLA BLA BLA BLA 
BLA BLA BLA BLA BLA BLA BLA BLA BLA BLA BLA BLA BLA BLA BLA BLA BLA BLA BLA BLA 
BLA BLA BLA BLA BLA BLA BLA BLA BLA BLA BLA BLA BLA BLA BLA BLA BLA BLA BLA BLA 
BLA BLA BLA BLA BLA BLA BLA BLA BLA BLA BLA BLA BLA BLA BLA BLA BLA BLA BLA BLA 
BLA BLA BLA BLA BLA BLA BLA BLA BLA BLA BLA BLA BLA BLA BLA BLA BLA BLA BLA BLA 
BLA BLA BLA BLA BLA BLA BLA BLA BLA BLA BLA BLA BLA BLA BLA BLA BLA BLA BLA BLA 
BLA BLA BLA BLA BLA BLA BLA BLA BLA BLA BLA BLA BLA BLA BLA BLA BLA BLA BLA BLA 
BLA BLA BLA BLA BLA BLA BLA BLA BLA BLA BLA BLA BLA BLA BLA BLA BLA BLA BLA BLA 
BLA BLA BLA BLA BLA BLA BLA BLA BLA BLA BLA BLA BLA BLA BLA BLA BLA BLA BLA BLA 
BLA BLA BLA BLA BLA BLA BLA BLA BLA BLA BLA BLA BLA BLA BLA BLA BLA BLA BLA BLA 
BLA BLA BLA BLA BLA BLA BLA BLA BLA BLA BLA BLA BLA BLA BLA BLA BLA BLA BLA BLA 
BLA BLA BLA BLA BLA BLA BLA BLA BLA BLA BLA BLA BLA BLA BLA BLA BLA BLA BLA BLA 
BLA BLA BLA BLA BLA BLA BLA BLA BLA BLA BLA BLA BLA BLA BLA BLA BLA BLA BLA BLA 
BLA BLA BLA BLA BLA BLA BLA BLA BLA BLA BLA BLA BLA BLA BLA BLA BLA BLA BLA BLA 
BLA BLA BLA BLA BLA BLA BLA BLA BLA BLA BLA BLA BLA BLA BLA BLA BLA BLA BLA BLA 
BLA BLA BLA BLA BLA BLA BLA BLA BLA BLA BLA BLA BLA BLA BLA BLA BLA BLA BLA BLA 
BLA BLA BLA BLA BLA BLA BLA BLA BLA BLA BLA BLA BLA BLA BLA BLA BLA BLA BLA BLA 
BLA BLA BLA BLA BLA BLA BLA BLA BLA BLA BLA BLA BLA BLA BLA BLA BLA BLA BLA BLA 
BLA BLA BLA BLA BLA BLA BLA BLA BLA BLA BLA BLA BLA BLA BLA BLA BLA BLA BLA BLA 
BLA BLA BLA BLA BLA BLA BLA BLA BLA BLA BLA BLA BLA BLA BLA BLA BLA BLA BLA BLA 
BLA BLA BLA BLA BLA BLA BLA BLA BLA BLA BLA BLA BLA BLA BLA BLA BLA BLA BLA BLA 
BLA BLA BLA BLA BLA BLA BLA BLA BLA BLA BLA BLA BLA BLA BLA BLA BLA BLA BLA BLA 
BLA BLA BLA BLA BLA BLA BLA BLA BLA BLA BLA BLA BLA BLA BLA BLA BLA BLA BLA BLA 
BLA BLA BLA BLA BLA BLA BLA BLA BLA BLA BLA BLA BLA BLA BLA BLA BLA BLA BLA BLA 
BLA BLA BLA BLA BLA BLA BLA BLA BLA BLA BLA BLA BLA BLA BLA BLA BLA BLA BLA BLA 
BLA BLA BLA BLA BLA BLA BLA BLA BLA BLA BLA BLA BLA BLA BLA BLA BLA BLA BLA BLA 
BLA BLA BLA BLA BLA BLA BLA BLA BLA BLA BLA BLA BLA BLA BLA BLA BLA BLA BLA BLA 
BLA BLA BLA BLA BLA BLA BLA BLA BLA BLA BLA BLA BLA BLA BLA BLA BLA BLA BLA BLA 
BLA BLA BLA BLA BLA BLA BLA BLA BLA BLA BLA BLA BLA BLA BLA BLA BLA BLA BLA BLA 
BLA BLA BLA BLA BLA BLA BLA BLA BLA BLA BLA BLA BLA BLA BLA BLA BLA BLA BLA BLA 
BLA BLA BLA BLA BLA BLA BLA BLA BLA BLA BLA BLA BLA BLA BLA BLA BLA BLA BLA BLA 
BLA BLA BLA BLA BLA BLA BLA BLA BLA BLA BLA BLA BLA BLA BLA BLA BLA BLA BLA BLA 
BLA BLA BLA BLA BLA BLA BLA BLA BLA BLA BLA BLA BLA BLA BLA BLA BLA BLA BLA BLA 
BLA BLA BLA BLA BLA BLA BLA BLA BLA BLA BLA BLA BLA BLA BLA BLA BLA BLA BLA BLA 
BLA BLA BLA BLA BLA BLA BLA BLA BLA BLA BLA BLA BLA BLA BLA BLA BLA BLA BLA BLA 
BLA BLA BLA BLA BLA BLA BLA BLA BLA BLA BLA BLA BLA BLA BLA BLA BLA BLA BLA BLA 
BLA BLA BLA BLA BLA BLA BLA BLA BLA BLA BLA BLA BLA BLA BLA BLA BLA BLA BLA BLA 
BLA BLA BLA BLA BLA BLA BLA BLA BLA BLA BLA BLA BLA BLA BLA BLA BLA BLA BLA BLA 
BLA BLA BLA BLA BLA BLA BLA BLA BLA BLA BLA BLA BLA BLA BLA BLA BLA BLA BLA BLA 
BLA BLA BLA BLA BLA BLA BLA BLA BLA BLA BLA BLA BLA BLA BLA BLA BLA BLA BLA BLA 
BLA BLA BLA BLA BLA BLA BLA BLA BLA BLA BLA BLA BLA BLA BLA BLA BLA BLA BLA BLA 
BLA BLA BLA BLA BLA BLA BLA BLA BLA BLA BLA BLA BLA BLA BLA BLA BLA BLA BLA BLA 
BLA BLA BLA BLA BLA BLA BLA BLA BLA BLA BLA BLA BLA BLA BLA BLA BLA BLA BLA BLA 
BLA BLA BLA BLA BLA BLA BLA BLA BLA BLA BLA BLA BLA BLA BLA BLA BLA BLA BLA BLA 
BLA BLA BLA BLA BLA BLA BLA BLA BLA BLA BLA BLA BLA BLA BLA BLA BLA BLA BLA BLA 
BLA BLA BLA BLA BLA BLA BLA BLA BLA BLA BLA BLA BLA BLA BLA BLA BLA BLA BLA BLA 
BLA BLA BLA BLA BLA BLA BLA BLA BLA BLA BLA BLA BLA BLA BLA BLA BLA BLA BLA BLA 
BLA BLA BLA BLA BLA BLA BLA BLA BLA BLA BLA BLA BLA BLA BLA BLA BLA BLA BLA BLA 
BLA BLA BLA BLA BLA BLA BLA BLA BLA BLA BLA BLA BLA BLA BLA BLA BLA BLA BLA BLA 
BLA BLA BLA BLA BLA BLA BLA BLA BLA BLA BLA BLA BLA BLA BLA BLA BLA BLA BLA BLA 
BLA BLA BLA BLA BLA BLA BLA BLA BLA BLA BLA BLA BLA BLA BLA BLA BLA BLA BLA BLA 
BLA BLA BLA BLA BLA BLA BLA BLA BLA BLA BLA BLA BLA BLA BLA BLA BLA BLA BLA BLA 
BLA BLA BLA BLA BLA BLA BLA BLA BLA BLA BLA BLA BLA BLA BLA BLA BLA BLA BLA BLA 
BLA BLA BLA BLA BLA BLA BLA BLA BLA BLA BLA BLA BLA BLA BLA BLA BLA BLA BLA BLA 
BLA BLA BLA BLA BLA BLA BLA BLA BLA BLA BLA BLA BLA BLA BLA BLA BLA BLA BLA BLA 
BLA BLA BLA BLA BLA BLA BLA BLA BLA BLA BLA BLA BLA BLA BLA BLA BLA BLA BLA BLA 
BLA BLA BLA BLA BLA BLA BLA BLA BLA BLA BLA BLA BLA BLA BLA BLA BLA BLA BLA BLA 
BLA BLA BLA BLA BLA BLA BLA BLA BLA BLA BLA BLA BLA BLA BLA BLA BLA BLA BLA BLA 
BLA BLA BLA BLA BLA BLA BLA BLA BLA BLA BLA BLA BLA BLA BLA BLA BLA BLA BLA BLA 
BLA BLA BLA BLA BLA BLA BLA BLA BLA BLA BLA BLA BLA BLA BLA BLA BLA BLA BLA BLA 
BLA BLA BLA BLA BLA BLA BLA BLA BLA BLA BLA BLA BLA BLA BLA BLA BLA BLA BLA BLA 
BLA BLA BLA BLA BLA BLA BLA BLA BLA BLA BLA BLA BLA BLA BLA BLA BLA BLA BLA BLA 
BLA BLA BLA BLA BLA BLA BLA BLA BLA BLA BLA BLA BLA BLA BLA BLA BLA BLA BLA BLA 
BLA BLA BLA BLA BLA BLA BLA BLA BLA BLA BLA BLA BLA BLA BLA BLA BLA BLA BLA BLA 
BLA BLA BLA BLA BLA BLA BLA BLA BLA BLA BLA BLA BLA BLA BLA BLA BLA BLA BLA BLA 
BLA BLA BLA BLA BLA BLA BLA BLA BLA BLA BLA BLA BLA BLA BLA BLA BLA BLA BLA BLA 
BLA BLA BLA BLA BLA BLA BLA BLA BLA BLA BLA BLA BLA BLA BLA BLA BLA BLA BLA BLA 
BLA BLA BLA BLA BLA BLA BLA BLA BLA BLA BLA BLA BLA BLA BLA BLA BLA BLA BLA BLA 
BLA BLA BLA BLA BLA BLA BLA BLA BLA BLA BLA BLA BLA BLA BLA BLA BLA BLA BLA BLA 
BLA BLA BLA BLA BLA BLA BLA BLA BLA BLA BLA BLA BLA BLA BLA BLA BLA BLA BLA BLA 
BLA BLA BLA BLA BLA BLA BLA BLA BLA BLA BLA BLA BLA BLA BLA BLA BLA BLA BLA BLA 
BLA BLA BLA BLA BLA BLA BLA BLA BLA BLA BLA BLA BLA BLA BLA BLA BLA BLA BLA BLA 
BLA BLA BLA BLA BLA BLA BLA BLA BLA BLA BLA BLA BLA BLA BLA BLA BLA BLA BLA BLA 
BLA BLA BLA BLA BLA BLA BLA BLA BLA BLA BLA BLA BLA BLA BLA BLA BLA BLA BLA BLA 
BLA BLA BLA BLA BLA BLA BLA BLA BLA BLA BLA BLA BLA BLA BLA BLA BLA BLA BLA BLA 
BLA BLA BLA BLA BLA BLA BLA BLA BLA BLA BLA BLA BLA BLA BLA BLA BLA BLA BLA BLA 
BLA BLA BLA BLA BLA BLA BLA BLA BLA BLA BLA BLA BLA BLA BLA BLA BLA BLA BLA BLA 
BLA BLA BLA BLA BLA BLA BLA BLA BLA BLA BLA BLA BLA BLA BLA BLA BLA BLA BLA BLA 
BLA BLA BLA BLA BLA BLA BLA BLA BLA BLA BLA BLA BLA BLA BLA BLA BLA BLA BLA BLA 
BLA BLA BLA BLA BLA BLA BLA BLA BLA BLA BLA BLA BLA BLA BLA BLA BLA BLA BLA BLA 
BLA BLA BLA BLA BLA BLA BLA BLA BLA BLA BLA BLA BLA BLA BLA BLA BLA BLA BLA BLA 
BLA BLA BLA BLA BLA BLA BLA BLA BLA BLA BLA BLA BLA BLA BLA BLA BLA BLA BLA BLA 
BLA BLA BLA BLA BLA BLA BLA BLA BLA BLA BLA BLA BLA BLA BLA BLA BLA BLA BLA BLA 
BLA BLA BLA BLA BLA BLA BLA BLA BLA BLA BLA BLA BLA BLA BLA BLA BLA BLA BLA BLA 
BLA BLA BLA BLA BLA BLA BLA BLA BLA BLA BLA BLA BLA BLA BLA BLA BLA BLA BLA BLA 
BLA BLA BLA BLA BLA BLA BLA BLA BLA BLA BLA BLA BLA BLA BLA BLA BLA BLA BLA BLA 
BLA BLA BLA BLA BLA BLA BLA BLA BLA BLA BLA BLA BLA BLA BLA BLA BLA BLA BLA BLA 
BLA BLA BLA BLA BLA BLA BLA BLA BLA BLA BLA BLA BLA BLA BLA BLA BLA BLA BLA BLA 
BLA BLA BLA BLA BLA BLA BLA BLA BLA BLA BLA BLA BLA BLA BLA BLA BLA BLA BLA BLA 
BLA BLA BLA BLA BLA BLA BLA BLA BLA BLA BLA BLA BLA BLA BLA BLA BLA BLA BLA BLA 
BLA BLA BLA BLA BLA BLA BLA BLA BLA BLA BLA BLA BLA BLA BLA BLA BLA BLA BLA BLA 
BLA BLA BLA BLA BLA BLA BLA BLA BLA BLA BLA BLA BLA BLA BLA BLA BLA BLA BLA BLA 
BLA BLA BLA BLA BLA BLA BLA BLA BLA BLA BLA BLA BLA BLA BLA BLA BLA BLA BLA BLA 
BLA BLA BLA BLA BLA BLA BLA BLA BLA BLA BLA BLA BLA BLA BLA BLA BLA BLA BLA BLA 
BLA BLA BLA BLA BLA BLA BLA BLA BLA BLA BLA BLA BLA BLA BLA BLA BLA BLA BLA BLA 
BLA BLA BLA BLA BLA BLA BLA BLA BLA BLA BLA BLA BLA BLA BLA BLA BLA BLA BLA BLA 
BLA BLA BLA BLA BLA BLA BLA BLA BLA BLA BLA BLA BLA BLA BLA BLA BLA BLA BLA BLA 
BLA BLA BLA BLA BLA BLA BLA BLA BLA BLA BLA BLA BLA BLA BLA BLA BLA BLA BLA BLA 
BLA BLA BLA BLA BLA BLA BLA BLA BLA BLA BLA BLA BLA BLA BLA BLA BLA BLA BLA BLA 
BLA BLA BLA BLA BLA BLA BLA BLA BLA BLA BLA BLA BLA BLA BLA BLA BLA BLA BLA BLA 
BLA BLA BLA BLA BLA BLA BLA BLA BLA BLA BLA BLA BLA BLA BLA BLA BLA BLA BLA BLA 
BLA BLA BLA BLA BLA BLA BLA BLA BLA BLA BLA BLA BLA BLA BLA BLA BLA BLA BLA BLA 
BLA BLA BLA BLA BLA BLA BLA BLA BLA BLA BLA BLA BLA BLA BLA BLA BLA BLA BLA BLA 
BLA BLA BLA BLA BLA BLA BLA BLA BLA BLA BLA BLA BLA BLA BLA BLA BLA BLA BLA BLA 
BLA BLA BLA BLA BLA BLA BLA BLA BLA BLA BLA BLA BLA BLA BLA BLA BLA BLA BLA BLA 
BLA BLA BLA BLA BLA BLA BLA BLA BLA BLA BLA BLA BLA BLA BLA BLA BLA BLA BLA BLA 
BLA BLA BLA BLA BLA BLA BLA BLA BLA BLA BLA BLA BLA BLA BLA BLA BLA BLA BLA BLA 
BLA BLA BLA BLA BLA BLA BLA BLA BLA BLA BLA BLA BLA BLA BLA BLA BLA BLA BLA BLA 
BLA BLA BLA BLA BLA BLA BLA BLA BLA BLA BLA BLA BLA BLA BLA BLA BLA BLA BLA BLA 
BLA BLA BLA BLA BLA BLA BLA BLA BLA BLA BLA BLA BLA BLA BLA BLA BLA BLA BLA BLA 
BLA BLA BLA BLA BLA BLA BLA BLA BLA BLA BLA BLA BLA BLA BLA BLA BLA BLA BLA BLA 
BLA BLA BLA BLA BLA BLA BLA BLA BLA BLA BLA BLA BLA BLA BLA BLA BLA BLA BLA BLA 
BLA BLA BLA BLA BLA BLA BLA BLA BLA BLA BLA BLA BLA BLA BLA BLA BLA BLA BLA BLA 
BLA BLA BLA BLA BLA BLA BLA BLA BLA BLA BLA BLA BLA BLA BLA BLA BLA BLA BLA BLA 
BLA BLA BLA BLA BLA BLA BLA BLA BLA BLA BLA BLA BLA BLA BLA BLA BLA BLA BLA BLA 
BLA BLA BLA BLA BLA BLA BLA BLA BLA BLA BLA BLA BLA BLA BLA BLA BLA BLA BLA BLA 
BLA BLA BLA BLA BLA BLA BLA BLA BLA BLA BLA BLA BLA BLA BLA BLA BLA BLA BLA BLA 
BLA BLA BLA BLA BLA BLA BLA BLA BLA BLA BLA BLA BLA BLA BLA BLA BLA BLA BLA BLA 
BLA BLA BLA BLA BLA BLA BLA BLA BLA BLA BLA BLA BLA BLA BLA BLA BLA BLA BLA BLA 
BLA BLA BLA BLA BLA BLA BLA BLA BLA BLA BLA BLA BLA BLA BLA BLA BLA BLA BLA BLA 
BLA BLA BLA BLA BLA BLA BLA BLA BLA BLA BLA BLA BLA BLA BLA BLA BLA BLA BLA BLA 
BLA BLA BLA BLA BLA BLA BLA BLA BLA BLA BLA BLA BLA BLA BLA BLA BLA BLA BLA BLA 
BLA BLA BLA BLA BLA BLA BLA BLA BLA BLA BLA BLA BLA BLA BLA BLA BLA BLA BLA BLA 
BLA BLA BLA BLA BLA BLA BLA BLA BLA BLA BLA BLA BLA BLA BLA BLA BLA BLA BLA BLA 
BLA BLA BLA BLA BLA BLA BLA BLA BLA BLA BLA BLA BLA BLA BLA BLA BLA BLA BLA BLA 
BLA BLA BLA BLA BLA BLA BLA BLA BLA BLA BLA BLA BLA BLA BLA BLA BLA BLA BLA BLA 
BLA BLA BLA BLA BLA BLA BLA BLA BLA BLA BLA BLA BLA BLA BLA BLA BLA BLA BLA BLA 
BLA BLA BLA BLA BLA BLA BLA BLA BLA BLA BLA BLA BLA BLA BLA BLA BLA BLA BLA BLA 
BLA BLA BLA BLA BLA BLA BLA BLA BLA BLA BLA BLA BLA BLA BLA BLA BLA BLA BLA BLA 
BLA BLA BLA BLA BLA BLA BLA BLA BLA BLA BLA BLA BLA BLA BLA BLA BLA BLA BLA BLA 
BLA BLA BLA BLA BLA BLA BLA BLA BLA BLA BLA BLA BLA BLA BLA BLA BLA BLA BLA BLA 
BLA BLA BLA BLA BLA BLA BLA BLA BLA BLA BLA BLA BLA BLA BLA BLA BLA BLA BLA BLA 
BLA BLA BLA BLA BLA BLA BLA BLA BLA BLA BLA BLA BLA BLA BLA BLA BLA BLA BLA BLA 
BLA BLA BLA BLA BLA BLA BLA BLA BLA BLA BLA BLA BLA BLA BLA BLA BLA BLA BLA BLA 
BLA BLA BLA BLA BLA BLA BLA BLA BLA BLA BLA BLA BLA BLA BLA BLA BLA BLA BLA BLA 
BLA BLA BLA BLA BLA BLA BLA BLA BLA BLA BLA BLA BLA BLA BLA BLA BLA BLA BLA BLA 
BLA BLA BLA BLA BLA BLA BLA BLA BLA BLA BLA BLA BLA BLA BLA BLA BLA BLA BLA BLA 
BLA BLA BLA BLA BLA BLA BLA BLA BLA BLA BLA BLA BLA BLA BLA BLA BLA BLA BLA BLA 
BLA BLA BLA BLA BLA BLA BLA BLA BLA BLA BLA BLA BLA BLA BLA BLA BLA BLA BLA BLA 
BLA BLA BLA BLA BLA BLA BLA BLA BLA BLA BLA BLA BLA BLA BLA BLA BLA BLA BLA BLA 
BLA BLA BLA BLA BLA BLA BLA BLA BLA BLA BLA BLA BLA BLA BLA BLA BLA BLA BLA BLA 
BLA BLA BLA BLA BLA BLA BLA BLA BLA BLA BLA BLA BLA BLA BLA BLA BLA BLA BLA BLA 
BLA BLA BLA BLA BLA BLA BLA BLA BLA BLA BLA BLA BLA BLA BLA BLA BLA BLA BLA BLA 
BLA BLA BLA BLA BLA BLA BLA BLA BLA BLA BLA BLA BLA BLA BLA BLA BLA BLA BLA BLA 
BLA BLA BLA BLA BLA BLA BLA BLA BLA BLA BLA BLA BLA BLA BLA BLA BLA BLA BLA BLA 
BLA BLA BLA BLA BLA BLA BLA BLA BLA BLA BLA BLA BLA BLA BLA BLA BLA BLA BLA BLA 
BLA BLA BLA BLA BLA BLA BLA BLA BLA BLA BLA BLA BLA BLA BLA BLA BLA BLA BLA BLA 
BLA BLA BLA BLA BLA BLA BLA BLA BLA BLA BLA BLA BLA BLA BLA BLA BLA BLA BLA BLA 
BLA BLA BLA BLA BLA BLA BLA BLA BLA BLA BLA BLA BLA BLA BLA BLA BLA BLA BLA BLA 
BLA BLA BLA BLA BLA BLA BLA BLA BLA BLA BLA BLA BLA BLA BLA BLA BLA BLA BLA BLA 
BLA BLA BLA BLA BLA BLA BLA BLA BLA BLA BLA BLA BLA BLA BLA BLA BLA BLA BLA BLA 
BLA BLA BLA BLA BLA BLA BLA BLA BLA BLA BLA BLA BLA BLA BLA BLA BLA BLA BLA BLA 
BLA BLA BLA BLA BLA BLA BLA BLA BLA BLA BLA BLA BLA BLA BLA BLA BLA BLA BLA BLA 
BLA BLA BLA BLA BLA BLA BLA BLA BLA BLA BLA BLA BLA BLA BLA BLA BLA BLA BLA BLA 
BLA BLA BLA BLA BLA BLA BLA BLA BLA BLA BLA BLA BLA BLA BLA BLA BLA BLA BLA BLA 
BLA BLA BLA BLA BLA BLA BLA BLA BLA BLA BLA BLA BLA BLA BLA BLA BLA BLA BLA BLA 
BLA BLA BLA BLA BLA BLA BLA BLA BLA BLA BLA BLA BLA BLA BLA BLA BLA BLA BLA BLA 
BLA BLA BLA BLA BLA BLA BLA BLA BLA BLA BLA BLA BLA BLA BLA BLA BLA BLA BLA BLA 
BLA BLA BLA BLA BLA BLA BLA BLA BLA BLA BLA BLA BLA BLA BLA BLA BLA BLA BLA BLA 
BLA BLA BLA BLA BLA BLA BLA BLA BLA BLA BLA BLA BLA BLA BLA BLA BLA BLA BLA BLA 
BLA BLA BLA BLA BLA BLA BLA BLA BLA BLA BLA BLA BLA BLA BLA BLA BLA BLA BLA BLA 
BLA BLA BLA BLA BLA BLA BLA BLA BLA BLA BLA BLA BLA BLA BLA BLA BLA BLA BLA BLA 
BLA BLA BLA BLA BLA BLA BLA BLA BLA BLA BLA BLA BLA BLA BLA BLA BLA BLA BLA BLA 
BLA BLA BLA BLA BLA BLA BLA BLA BLA BLA BLA BLA BLA BLA BLA BLA BLA BLA BLA BLA 
BLA BLA BLA BLA BLA BLA BLA BLA BLA BLA BLA BLA BLA BLA BLA BLA BLA BLA BLA BLA 
BLA BLA BLA BLA BLA BLA BLA BLA BLA BLA BLA BLA BLA BLA BLA BLA BLA BLA BLA BLA 
BLA BLA BLA BLA BLA BLA BLA BLA BLA BLA BLA BLA BLA BLA BLA BLA BLA BLA BLA BLA 
BLA BLA BLA BLA BLA BLA BLA BLA BLA BLA BLA BLA BLA BLA BLA BLA BLA BLA BLA BLA 
BLA BLA BLA BLA BLA BLA BLA BLA BLA BLA BLA BLA BLA BLA BLA BLA BLA BLA BLA BLA 
BLA BLA BLA BLA BLA BLA BLA BLA BLA BLA BLA BLA BLA BLA BLA BLA BLA BLA BLA BLA 
BLA BLA BLA BLA BLA BLA BLA BLA BLA BLA BLA BLA BLA BLA BLA BLA BLA BLA BLA BLA 
BLA BLA BLA BLA BLA BLA BLA BLA BLA BLA BLA BLA BLA BLA BLA BLA BLA BLA BLA BLA 
BLA BLA BLA BLA BLA BLA BLA BLA BLA BLA BLA BLA BLA BLA BLA BLA BLA BLA BLA BLA 
BLA BLA BLA BLA BLA BLA BLA BLA BLA BLA BLA BLA BLA BLA BLA BLA BLA BLA BLA BLA 
BLA BLA BLA BLA BLA BLA BLA BLA BLA BLA BLA BLA BLA BLA BLA BLA BLA BLA BLA BLA 
BLA BLA BLA BLA BLA BLA BLA BLA BLA BLA BLA BLA BLA BLA BLA BLA BLA BLA BLA BLA 
BLA BLA BLA BLA BLA BLA BLA BLA BLA BLA BLA BLA BLA BLA BLA BLA BLA BLA BLA BLA 
BLA BLA BLA BLA BLA BLA BLA BLA BLA BLA BLA BLA BLA BLA BLA BLA BLA BLA BLA BLA 
BLA BLA BLA BLA BLA BLA BLA BLA BLA BLA BLA BLA BLA BLA BLA BLA BLA BLA BLA BLA 
BLA BLA BLA BLA BLA BLA BLA BLA BLA BLA BLA BLA BLA BLA BLA BLA BLA BLA BLA BLA 
BLA BLA BLA BLA BLA BLA BLA BLA BLA BLA BLA BLA BLA BLA BLA BLA BLA BLA BLA BLA 
BLA BLA BLA BLA BLA BLA BLA BLA BLA BLA BLA BLA BLA BLA BLA BLA BLA BLA BLA BLA 
BLA BLA BLA BLA BLA BLA BLA BLA BLA BLA BLA BLA BLA BLA BLA BLA BLA BLA BLA BLA 
BLA BLA BLA BLA BLA BLA BLA BLA BLA BLA BLA BLA BLA BLA BLA BLA BLA BLA BLA BLA 
BLA BLA BLA BLA BLA BLA BLA BLA BLA BLA BLA BLA BLA BLA BLA BLA BLA BLA BLA BLA 
BLA BLA BLA BLA BLA BLA BLA BLA BLA BLA BLA BLA BLA BLA BLA BLA BLA BLA BLA BLA 
BLA BLA BLA BLA BLA BLA BLA BLA BLA BLA BLA BLA BLA BLA BLA BLA BLA BLA BLA BLA 
BLA BLA BLA BLA BLA BLA BLA BLA BLA BLA BLA BLA BLA BLA BLA BLA BLA BLA BLA BLA 
BLA BLA BLA BLA BLA BLA BLA BLA BLA BLA BLA BLA BLA BLA BLA BLA BLA BLA BLA BLA 
BLA BLA BLA BLA BLA BLA BLA BLA BLA BLA BLA BLA BLA BLA BLA BLA BLA BLA BLA BLA 
BLA BLA BLA BLA BLA BLA BLA BLA BLA BLA BLA BLA BLA BLA BLA BLA BLA BLA BLA BLA 
BLA BLA BLA BLA BLA BLA BLA BLA BLA BLA BLA BLA BLA BLA BLA BLA BLA BLA BLA BLA 
BLA BLA BLA BLA BLA BLA BLA BLA BLA BLA BLA BLA BLA BLA BLA BLA BLA BLA BLA BLA 
BLA BLA BLA BLA BLA BLA BLA BLA BLA BLA BLA BLA BLA BLA BLA BLA BLA BLA BLA BLA 
BLA BLA BLA BLA BLA BLA BLA BLA BLA BLA BLA BLA BLA BLA BLA BLA BLA BLA BLA BLA 
BLA BLA BLA BLA BLA BLA BLA BLA BLA BLA BLA BLA BLA BLA BLA BLA BLA BLA BLA BLA 
BLA BLA BLA BLA BLA BLA BLA BLA BLA BLA BLA BLA BLA BLA BLA BLA BLA BLA BLA BLA 
BLA BLA BLA BLA BLA BLA BLA BLA BLA BLA BLA BLA BLA BLA BLA BLA BLA BLA BLA BLA 
BLA BLA BLA BLA BLA BLA BLA BLA BLA BLA BLA BLA BLA BLA BLA BLA BLA BLA BLA BLA 
BLA BLA BLA BLA BLA BLA BLA BLA BLA BLA BLA BLA BLA BLA BLA BLA BLA BLA BLA BLA 
BLA BLA BLA BLA BLA BLA BLA BLA BLA BLA BLA BLA BLA BLA BLA BLA BLA BLA BLA BLA 
BLA BLA BLA BLA BLA BLA BLA BLA BLA BLA BLA BLA BLA BLA BLA BLA BLA BLA BLA BLA 
BLA BLA BLA BLA BLA BLA BLA BLA BLA BLA BLA BLA BLA BLA BLA BLA BLA BLA BLA BLA 
BLA BLA BLA BLA BLA BLA BLA BLA BLA BLA BLA BLA BLA BLA BLA BLA BLA BLA BLA BLA 
BLA BLA BLA BLA BLA BLA BLA BLA BLA BLA BLA BLA BLA BLA BLA BLA BLA BLA BLA BLA 
BLA BLA BLA BLA BLA BLA BLA BLA BLA BLA BLA BLA BLA BLA BLA BLA BLA BLA BLA BLA 
BLA BLA BLA BLA BLA BLA BLA BLA BLA BLA BLA BLA BLA BLA BLA BLA BLA BLA BLA BLA 
BLA BLA BLA BLA BLA BLA BLA BLA BLA BLA BLA BLA BLA BLA BLA BLA BLA BLA BLA BLA 
BLA BLA BLA BLA BLA BLA BLA BLA BLA BLA BLA BLA BLA BLA BLA BLA BLA BLA BLA BLA 
BLA BLA BLA BLA BLA BLA BLA BLA BLA BLA BLA BLA BLA BLA BLA BLA BLA BLA BLA BLA 
BLA BLA BLA BLA BLA BLA BLA BLA BLA BLA BLA BLA BLA BLA BLA BLA BLA BLA BLA BLA 
BLA BLA BLA BLA BLA BLA BLA BLA BLA BLA BLA BLA BLA BLA BLA BLA BLA BLA BLA BLA 
BLA BLA BLA BLA BLA BLA BLA BLA BLA BLA BLA BLA BLA BLA BLA BLA BLA BLA BLA BLA 
BLA BLA BLA BLA BLA BLA BLA BLA BLA BLA BLA BLA BLA BLA BLA BLA BLA BLA BLA BLA 
BLA BLA BLA BLA BLA BLA BLA BLA BLA BLA BLA BLA BLA BLA BLA BLA BLA BLA BLA BLA 
BLA BLA BLA BLA BLA BLA BLA BLA BLA BLA BLA BLA BLA BLA BLA BLA BLA BLA BLA BLA 
BLA BLA BLA BLA BLA BLA BLA BLA BLA BLA BLA BLA BLA BLA BLA BLA BLA BLA BLA BLA 
BLA BLA BLA BLA BLA BLA BLA BLA BLA BLA BLA BLA BLA BLA BLA BLA BLA BLA BLA BLA 
BLA BLA BLA BLA BLA BLA BLA BLA BLA BLA BLA BLA BLA BLA BLA BLA BLA BLA BLA BLA 
BLA BLA BLA BLA BLA BLA BLA BLA BLA BLA BLA BLA BLA BLA BLA BLA BLA BLA BLA BLA 
BLA BLA BLA BLA BLA BLA BLA BLA BLA BLA BLA BLA BLA BLA BLA BLA BLA BLA BLA BLA 
BLA BLA BLA BLA BLA BLA BLA BLA BLA BLA BLA BLA BLA BLA BLA BLA BLA BLA BLA BLA 
BLA BLA BLA BLA BLA BLA BLA BLA BLA BLA BLA BLA BLA BLA BLA BLA BLA BLA BLA BLA 
BLA BLA BLA BLA BLA BLA BLA BLA BLA BLA BLA BLA BLA BLA BLA BLA BLA BLA BLA BLA 
BLA BLA BLA BLA BLA BLA BLA BLA BLA BLA BLA BLA BLA BLA BLA BLA BLA BLA BLA BLA 
BLA BLA BLA BLA BLA BLA BLA BLA BLA BLA BLA BLA BLA BLA BLA BLA BLA BLA BLA BLA 
BLA BLA BLA BLA BLA BLA BLA BLA BLA BLA BLA BLA BLA BLA BLA BLA BLA BLA BLA BLA 
BLA BLA BLA BLA BLA BLA BLA BLA BLA BLA BLA BLA BLA BLA BLA BLA BLA BLA BLA BLA 
BLA BLA BLA BLA BLA BLA BLA BLA BLA BLA BLA BLA BLA BLA BLA BLA BLA BLA BLA BLA 
BLA BLA BLA BLA BLA BLA BLA BLA BLA BLA BLA BLA BLA BLA BLA BLA BLA BLA BLA BLA 
BLA BLA BLA BLA BLA BLA BLA BLA BLA BLA BLA BLA BLA BLA BLA BLA BLA BLA BLA BLA 
BLA BLA BLA BLA BLA BLA BLA BLA BLA BLA BLA BLA BLA BLA BLA BLA BLA BLA BLA BLA 
BLA BLA BLA BLA BLA BLA BLA BLA BLA BLA BLA BLA BLA BLA BLA BLA BLA BLA BLA BLA 
BLA BLA BLA BLA BLA BLA BLA BLA BLA BLA BLA BLA BLA BLA BLA BLA BLA BLA BLA BLA 
BLA BLA BLA BLA BLA BLA BLA BLA BLA BLA BLA BLA BLA BLA BLA BLA BLA BLA BLA BLA 
BLA BLA BLA BLA BLA BLA BLA BLA BLA BLA BLA BLA BLA BLA BLA BLA BLA BLA BLA BLA 
BLA BLA BLA BLA BLA BLA BLA BLA BLA BLA BLA BLA BLA BLA BLA BLA BLA BLA BLA BLA 
BLA BLA BLA BLA BLA BLA BLA BLA BLA BLA BLA BLA BLA BLA BLA BLA BLA BLA BLA BLA 
BLA BLA BLA BLA BLA BLA BLA BLA BLA BLA BLA BLA BLA BLA BLA BLA BLA BLA BLA BLA 
BLA BLA BLA BLA BLA BLA BLA BLA BLA BLA BLA BLA BLA BLA BLA BLA BLA BLA BLA BLA 
BLA BLA BLA BLA BLA BLA BLA BLA BLA BLA BLA BLA BLA BLA BLA BLA BLA BLA BLA BLA 
BLA BLA BLA BLA BLA BLA BLA BLA BLA BLA BLA BLA BLA BLA BLA BLA BLA BLA BLA BLA 
BLA BLA BLA BLA BLA BLA BLA BLA BLA BLA BLA BLA BLA BLA BLA BLA BLA BLA BLA BLA 
BLA BLA BLA BLA BLA BLA BLA BLA BLA BLA BLA BLA BLA BLA BLA BLA BLA BLA BLA BLA 
BLA BLA BLA BLA BLA BLA BLA BLA BLA BLA BLA BLA BLA BLA BLA BLA BLA BLA BLA BLA 
BLA BLA BLA BLA BLA BLA BLA BLA BLA BLA BLA BLA BLA BLA BLA BLA BLA BLA BLA BLA 
BLA BLA BLA BLA BLA BLA BLA BLA BLA BLA BLA BLA BLA BLA BLA BLA BLA BLA BLA BLA 
BLA BLA BLA BLA BLA BLA BLA BLA BLA BLA BLA BLA BLA BLA BLA BLA BLA BLA BLA BLA 
BLA BLA BLA BLA BLA BLA BLA BLA BLA BLA BLA BLA BLA BLA BLA BLA BLA BLA BLA BLA 
BLA BLA BLA BLA BLA BLA BLA BLA BLA BLA BLA BLA BLA BLA BLA BLA BLA BLA BLA BLA 
BLA BLA BLA BLA BLA BLA BLA BLA BLA BLA BLA BLA BLA BLA BLA BLA BLA BLA BLA BLA 
BLA BLA BLA BLA BLA BLA BLA BLA BLA BLA BLA BLA BLA BLA BLA BLA BLA BLA BLA BLA 
BLA BLA BLA BLA BLA BLA BLA BLA BLA BLA BLA BLA BLA BLA BLA BLA BLA BLA BLA BLA 
BLA BLA BLA BLA BLA BLA BLA BLA BLA BLA BLA BLA BLA BLA BLA BLA BLA BLA BLA BLA 
BLA BLA BLA BLA BLA BLA BLA BLA BLA BLA BLA BLA BLA BLA BLA BLA BLA BLA BLA BLA 
BLA BLA BLA BLA BLA BLA BLA BLA BLA BLA BLA BLA BLA BLA BLA BLA BLA BLA BLA BLA 
BLA BLA BLA BLA BLA BLA BLA BLA BLA BLA BLA BLA BLA BLA BLA BLA BLA BLA BLA BLA 
BLA BLA BLA BLA BLA BLA BLA BLA BLA BLA BLA BLA BLA BLA BLA BLA BLA BLA BLA BLA 
BLA BLA BLA BLA BLA BLA BLA BLA BLA BLA BLA BLA BLA BLA BLA BLA BLA BLA BLA BLA 
BLA BLA BLA BLA BLA BLA BLA BLA BLA BLA BLA BLA BLA BLA BLA BLA BLA BLA BLA BLA 
BLA BLA BLA BLA BLA BLA BLA BLA BLA BLA BLA BLA BLA BLA BLA BLA BLA BLA BLA BLA 
BLA BLA BLA BLA BLA BLA BLA BLA BLA BLA BLA BLA BLA BLA BLA BLA BLA BLA BLA BLA 
BLA BLA BLA BLA BLA BLA BLA BLA BLA BLA BLA BLA BLA BLA BLA BLA BLA BLA BLA BLA 
BLA BLA BLA BLA BLA BLA BLA BLA BLA BLA BLA BLA BLA BLA BLA BLA BLA BLA BLA BLA 
BLA BLA BLA BLA BLA BLA BLA BLA BLA BLA BLA BLA BLA BLA BLA BLA BLA BLA BLA BLA 
BLA BLA BLA BLA BLA BLA BLA BLA BLA BLA BLA BLA BLA BLA BLA BLA BLA BLA BLA BLA 
BLA BLA BLA BLA BLA BLA BLA BLA BLA BLA BLA BLA BLA BLA BLA BLA BLA BLA BLA BLA 
BLA BLA BLA BLA BLA BLA BLA BLA BLA BLA BLA BLA BLA BLA BLA BLA BLA BLA BLA BLA 
BLA BLA BLA BLA BLA BLA BLA BLA BLA BLA BLA BLA BLA BLA BLA BLA BLA BLA BLA BLA 
BLA BLA BLA BLA BLA BLA BLA BLA BLA BLA BLA BLA BLA BLA BLA BLA BLA BLA BLA BLA 
BLA BLA BLA BLA BLA BLA BLA BLA BLA BLA BLA BLA BLA BLA BLA BLA BLA BLA BLA BLA 
BLA BLA BLA BLA BLA BLA BLA BLA BLA BLA BLA BLA BLA BLA BLA BLA BLA BLA BLA BLA 
BLA BLA BLA BLA BLA BLA BLA BLA BLA BLA BLA BLA BLA BLA BLA BLA BLA BLA BLA BLA 
BLA BLA BLA BLA BLA BLA BLA BLA BLA BLA BLA BLA BLA BLA BLA BLA BLA BLA BLA BLA 
BLA BLA BLA BLA BLA BLA BLA BLA BLA BLA BLA BLA BLA BLA BLA BLA BLA BLA BLA BLA 
BLA BLA BLA BLA BLA BLA BLA BLA BLA BLA BLA BLA BLA BLA BLA BLA BLA BLA BLA BLA 
BLA BLA BLA BLA BLA BLA BLA BLA BLA BLA BLA BLA BLA BLA BLA BLA BLA BLA BLA BLA 
BLA BLA BLA BLA BLA BLA BLA BLA BLA BLA BLA BLA BLA BLA BLA BLA BLA BLA BLA BLA 
BLA BLA BLA BLA BLA BLA BLA BLA BLA BLA BLA BLA BLA BLA BLA BLA BLA BLA BLA BLA 
BLA BLA BLA BLA BLA BLA BLA BLA BLA BLA BLA BLA BLA BLA BLA BLA BLA BLA BLA BLA 
BLA BLA BLA BLA BLA BLA BLA BLA BLA BLA BLA BLA BLA BLA BLA BLA BLA BLA BLA BLA 
BLA BLA BLA BLA BLA BLA BLA BLA BLA BLA BLA BLA BLA BLA BLA BLA BLA BLA BLA BLA 
BLA BLA BLA BLA BLA BLA BLA BLA BLA BLA BLA BLA BLA BLA BLA BLA BLA BLA BLA BLA 
BLA BLA BLA BLA BLA BLA BLA BLA BLA BLA BLA BLA BLA BLA BLA BLA BLA BLA BLA BLA 
BLA BLA BLA BLA BLA BLA BLA BLA BLA BLA BLA BLA BLA BLA BLA BLA BLA BLA BLA BLA 
BLA BLA BLA BLA BLA BLA BLA BLA BLA BLA BLA BLA BLA BLA BLA BLA BLA BLA BLA BLA 
BLA BLA BLA BLA BLA BLA BLA BLA BLA BLA BLA BLA BLA BLA BLA BLA BLA BLA BLA BLA 
BLA BLA BLA BLA BLA BLA BLA BLA BLA BLA BLA BLA BLA BLA BLA BLA BLA BLA BLA BLA 
BLA BLA BLA BLA BLA BLA BLA BLA BLA BLA BLA BLA BLA BLA BLA BLA BLA BLA BLA BLA 
BLA BLA BLA BLA BLA BLA BLA BLA BLA BLA BLA BLA BLA BLA BLA BLA BLA BLA BLA BLA 
BLA BLA BLA BLA BLA BLA BLA BLA BLA BLA BLA BLA BLA BLA BLA BLA BLA BLA BLA BLA 
BLA BLA BLA BLA BLA BLA BLA BLA BLA BLA BLA BLA BLA BLA BLA BLA BLA BLA BLA BLA 
BLA BLA BLA BLA BLA BLA BLA BLA BLA BLA BLA BLA BLA BLA BLA BLA BLA BLA BLA BLA 
BLA BLA BLA BLA BLA BLA BLA BLA BLA BLA BLA BLA BLA BLA BLA BLA BLA BLA BLA BLA 
BLA BLA BLA BLA BLA BLA BLA BLA BLA BLA BLA BLA BLA BLA BLA BLA BLA BLA BLA BLA 
BLA BLA BLA BLA BLA BLA BLA BLA BLA BLA BLA BLA BLA BLA BLA BLA BLA BLA BLA BLA 
BLA BLA BLA BLA BLA BLA BLA BLA BLA BLA BLA BLA BLA BLA BLA BLA BLA BLA BLA BLA 
BLA BLA BLA BLA BLA BLA BLA BLA BLA BLA BLA BLA BLA BLA BLA BLA BLA BLA BLA BLA 
BLA BLA BLA BLA BLA BLA BLA BLA BLA BLA BLA BLA BLA BLA BLA BLA BLA BLA BLA BLA 
BLA BLA BLA BLA BLA BLA BLA BLA BLA BLA BLA BLA BLA BLA BLA BLA BLA BLA BLA BLA 
BLA BLA BLA BLA BLA BLA BLA BLA BLA BLA BLA BLA BLA BLA BLA BLA BLA BLA BLA BLA 
BLA BLA BLA BLA BLA BLA BLA BLA BLA BLA BLA BLA BLA BLA BLA BLA BLA BLA BLA BLA 
BLA BLA BLA BLA BLA BLA BLA BLA BLA BLA BLA BLA BLA BLA BLA BLA BLA BLA BLA BLA 
BLA BLA BLA BLA BLA BLA BLA BLA BLA BLA BLA BLA BLA BLA BLA BLA BLA BLA BLA BLA 
BLA BLA BLA BLA BLA BLA BLA BLA BLA BLA BLA BLA BLA BLA BLA BLA BLA BLA BLA BLA 
BLA BLA BLA BLA BLA BLA BLA BLA BLA BLA BLA BLA BLA BLA BLA BLA BLA BLA BLA BLA 
BLA BLA BLA BLA BLA BLA BLA BLA BLA BLA BLA BLA BLA BLA BLA BLA BLA BLA BLA BLA 
BLA BLA BLA BLA BLA BLA BLA BLA BLA BLA BLA BLA BLA BLA BLA BLA BLA BLA BLA BLA 
BLA BLA BLA BLA BLA BLA BLA BLA BLA BLA BLA BLA BLA BLA BLA BLA BLA BLA BLA BLA 
BLA BLA BLA BLA BLA BLA BLA BLA BLA BLA BLA BLA BLA BLA BLA BLA BLA BLA BLA BLA 
BLA BLA BLA BLA BLA BLA BLA BLA BLA BLA BLA BLA BLA BLA BLA BLA BLA BLA BLA BLA 
BLA BLA BLA BLA BLA BLA BLA BLA BLA BLA BLA BLA BLA BLA BLA BLA BLA BLA BLA BLA 
BLA BLA BLA BLA BLA BLA BLA BLA BLA BLA BLA BLA BLA BLA BLA BLA BLA BLA BLA BLA 
BLA BLA BLA BLA BLA BLA BLA BLA BLA BLA BLA BLA BLA BLA BLA BLA BLA BLA BLA BLA 
BLA BLA BLA BLA BLA BLA BLA BLA BLA BLA BLA BLA BLA BLA BLA BLA BLA BLA BLA BLA 
BLA BLA BLA BLA BLA BLA BLA BLA BLA BLA BLA BLA BLA BLA BLA BLA BLA BLA BLA BLA 
BLA BLA BLA BLA BLA BLA BLA BLA BLA BLA BLA BLA BLA BLA BLA BLA BLA BLA BLA BLA 
BLA BLA BLA BLA BLA BLA BLA BLA BLA BLA BLA BLA BLA BLA BLA BLA BLA BLA BLA BLA 
BLA BLA BLA BLA BLA BLA BLA BLA BLA BLA BLA BLA BLA BLA BLA BLA BLA BLA BLA BLA 
BLA BLA BLA BLA BLA BLA BLA BLA BLA BLA BLA BLA BLA BLA BLA BLA BLA BLA BLA BLA 
BLA BLA BLA BLA BLA BLA BLA BLA BLA BLA BLA BLA BLA BLA BLA BLA BLA BLA BLA BLA 
BLA BLA BLA BLA BLA BLA BLA BLA BLA BLA BLA BLA BLA BLA BLA BLA BLA BLA BLA BLA 
BLA BLA BLA BLA BLA BLA BLA BLA BLA BLA BLA BLA BLA BLA BLA BLA BLA BLA BLA BLA 
BLA BLA BLA BLA BLA BLA BLA BLA BLA BLA BLA BLA BLA BLA BLA BLA BLA BLA BLA BLA 
BLA BLA BLA BLA BLA BLA BLA BLA BLA BLA BLA BLA BLA BLA BLA BLA BLA BLA BLA BLA 
BLA BLA BLA BLA BLA BLA BLA BLA BLA BLA BLA BLA BLA BLA BLA BLA BLA BLA BLA BLA 
BLA BLA BLA BLA BLA BLA BLA BLA BLA BLA BLA BLA BLA BLA BLA BLA BLA BLA BLA BLA 
BLA BLA BLA BLA BLA BLA BLA BLA BLA BLA BLA BLA BLA BLA BLA BLA BLA BLA BLA BLA 
BLA BLA BLA BLA BLA BLA BLA BLA BLA BLA BLA BLA BLA BLA BLA BLA BLA BLA BLA BLA 
BLA BLA BLA BLA BLA BLA BLA BLA BLA BLA BLA BLA BLA BLA BLA BLA BLA BLA BLA BLA 
BLA BLA BLA BLA BLA BLA BLA BLA BLA BLA BLA BLA BLA BLA BLA BLA BLA BLA BLA BLA 
BLA BLA BLA BLA BLA BLA BLA BLA BLA BLA BLA BLA BLA BLA BLA BLA BLA BLA BLA BLA 
BLA BLA BLA BLA BLA BLA BLA BLA BLA BLA BLA BLA BLA BLA BLA BLA BLA BLA BLA BLA 
BLA BLA BLA BLA BLA BLA BLA BLA BLA BLA BLA BLA BLA BLA BLA BLA BLA BLA BLA BLA 
BLA BLA BLA BLA BLA BLA BLA BLA BLA BLA BLA BLA BLA BLA BLA BLA BLA BLA BLA BLA 
BLA BLA BLA BLA BLA BLA BLA BLA BLA BLA BLA BLA BLA BLA BLA BLA BLA BLA BLA BLA 
BLA BLA BLA BLA BLA BLA BLA BLA BLA BLA BLA BLA BLA BLA BLA BLA BLA BLA BLA BLA 
BLA BLA BLA BLA BLA BLA BLA BLA BLA BLA BLA BLA BLA BLA BLA BLA BLA BLA BLA BLA 
BLA BLA BLA BLA BLA BLA BLA BLA BLA BLA BLA BLA BLA BLA BLA BLA BLA BLA BLA BLA 
BLA BLA BLA BLA BLA BLA BLA BLA BLA BLA BLA BLA BLA BLA BLA BLA BLA BLA BLA BLA 
BLA BLA BLA BLA BLA BLA BLA BLA BLA BLA BLA BLA BLA BLA BLA BLA BLA BLA BLA BLA 
BLA BLA BLA BLA BLA BLA BLA BLA BLA BLA BLA BLA BLA BLA BLA BLA BLA BLA BLA BLA 
BLA BLA BLA BLA BLA BLA BLA BLA BLA BLA BLA BLA BLA BLA BLA BLA BLA BLA BLA BLA 
BLA BLA BLA BLA BLA BLA BLA BLA BLA BLA BLA BLA BLA BLA BLA BLA BLA BLA BLA BLA 
BLA BLA BLA BLA BLA BLA BLA BLA BLA BLA BLA BLA BLA BLA BLA BLA BLA BLA BLA BLA 
BLA BLA BLA BLA BLA BLA BLA BLA BLA BLA BLA BLA BLA BLA BLA BLA BLA BLA BLA BLA 
BLA BLA BLA BLA BLA BLA BLA BLA BLA BLA BLA BLA BLA BLA BLA BLA BLA BLA BLA BLA 
BLA BLA BLA BLA BLA BLA BLA BLA BLA BLA BLA BLA BLA BLA BLA BLA BLA BLA BLA BLA 
BLA BLA BLA BLA BLA BLA BLA BLA BLA BLA BLA BLA BLA BLA BLA BLA BLA BLA BLA BLA 
BLA BLA BLA BLA BLA BLA BLA BLA BLA BLA BLA BLA BLA BLA BLA BLA BLA BLA BLA BLA 
BLA BLA BLA BLA BLA BLA BLA BLA BLA BLA BLA BLA BLA BLA BLA BLA BLA BLA BLA BLA 
BLA BLA BLA BLA BLA BLA BLA BLA BLA BLA BLA BLA BLA BLA BLA BLA BLA BLA BLA BLA 
BLA BLA BLA BLA BLA BLA BLA BLA BLA BLA BLA BLA BLA BLA BLA BLA BLA BLA BLA BLA 
BLA BLA BLA BLA BLA BLA BLA BLA BLA BLA BLA BLA BLA BLA BLA BLA BLA BLA BLA BLA 
BLA BLA BLA BLA BLA BLA BLA BLA BLA BLA BLA BLA BLA BLA BLA BLA BLA BLA BLA BLA 
BLA BLA BLA BLA BLA BLA BLA BLA BLA BLA BLA BLA BLA BLA BLA BLA BLA BLA BLA BLA 
BLA BLA BLA BLA BLA BLA BLA BLA BLA BLA BLA BLA BLA BLA BLA BLA BLA BLA BLA BLA 
BLA BLA BLA BLA BLA BLA BLA BLA BLA BLA BLA BLA BLA BLA BLA BLA BLA BLA BLA BLA 
BLA BLA BLA BLA BLA BLA BLA BLA BLA BLA BLA BLA BLA BLA BLA BLA BLA BLA BLA BLA 
BLA BLA BLA BLA BLA BLA BLA BLA BLA BLA BLA BLA BLA BLA BLA BLA BLA BLA BLA BLA 
BLA BLA BLA BLA BLA BLA BLA BLA BLA BLA BLA BLA BLA BLA BLA BLA BLA BLA BLA BLA 
BLA BLA BLA BLA BLA BLA BLA BLA BLA BLA BLA BLA BLA BLA BLA BLA BLA BLA BLA BLA 
BLA BLA BLA BLA BLA BLA BLA BLA BLA BLA BLA BLA BLA BLA BLA BLA BLA BLA BLA BLA 
BLA BLA BLA BLA BLA BLA BLA BLA BLA BLA BLA BLA BLA BLA BLA BLA BLA BLA BLA BLA 
BLA BLA BLA BLA BLA BLA BLA BLA BLA BLA BLA BLA BLA BLA BLA BLA BLA BLA BLA BLA 
BLA BLA BLA BLA BLA BLA BLA BLA BLA BLA BLA BLA BLA BLA BLA BLA BLA BLA BLA BLA 
BLA BLA BLA BLA BLA BLA BLA BLA BLA BLA BLA BLA BLA BLA BLA BLA BLA BLA BLA BLA 
BLA BLA BLA BLA BLA BLA BLA BLA BLA BLA BLA BLA BLA BLA BLA BLA BLA BLA BLA BLA 
BLA BLA BLA BLA BLA BLA BLA BLA BLA BLA BLA BLA BLA BLA BLA BLA BLA BLA BLA BLA 
BLA BLA BLA BLA BLA BLA BLA BLA BLA BLA BLA BLA BLA BLA BLA BLA BLA BLA BLA BLA 
BLA BLA BLA BLA BLA BLA BLA BLA BLA BLA BLA BLA BLA BLA BLA BLA BLA BLA BLA BLA 
BLA BLA BLA BLA BLA BLA BLA BLA BLA BLA BLA BLA BLA BLA BLA BLA BLA BLA BLA BLA 
BLA BLA BLA BLA BLA BLA BLA BLA BLA BLA BLA BLA BLA BLA BLA BLA BLA BLA BLA BLA 
BLA BLA BLA BLA BLA BLA BLA BLA BLA BLA BLA BLA BLA BLA BLA BLA BLA BLA BLA BLA 
BLA BLA BLA BLA BLA BLA BLA BLA BLA BLA BLA BLA BLA BLA BLA BLA BLA BLA BLA BLA 
BLA BLA BLA BLA BLA BLA BLA BLA BLA BLA BLA BLA BLA BLA BLA BLA BLA BLA BLA BLA 
BLA BLA BLA BLA BLA BLA BLA BLA BLA BLA BLA BLA BLA BLA BLA BLA BLA BLA BLA BLA 
BLA BLA BLA BLA BLA BLA BLA BLA BLA BLA BLA BLA BLA BLA BLA BLA BLA BLA BLA BLA 
BLA BLA BLA BLA BLA BLA BLA BLA BLA BLA BLA BLA BLA BLA BLA BLA BLA BLA BLA BLA 
BLA BLA BLA BLA BLA BLA BLA BLA BLA BLA BLA BLA BLA BLA BLA BLA BLA BLA BLA BLA 
BLA BLA BLA BLA BLA BLA BLA BLA BLA BLA BLA BLA BLA BLA BLA BLA BLA BLA BLA BLA 
BLA BLA BLA BLA BLA BLA BLA BLA BLA BLA BLA BLA BLA BLA BLA BLA BLA BLA BLA BLA 
BLA BLA BLA BLA BLA BLA BLA BLA BLA BLA BLA BLA BLA BLA BLA BLA BLA BLA BLA BLA 
BLA BLA BLA BLA BLA BLA BLA BLA BLA BLA BLA BLA BLA BLA BLA BLA BLA BLA BLA BLA 
BLA BLA BLA BLA BLA BLA BLA BLA BLA BLA BLA BLA BLA BLA BLA BLA BLA BLA BLA BLA 
BLA BLA BLA BLA BLA BLA BLA BLA BLA BLA BLA BLA BLA BLA BLA BLA BLA BLA BLA BLA 
BLA BLA BLA BLA BLA BLA BLA BLA BLA BLA BLA BLA BLA BLA BLA BLA BLA BLA BLA BLA 
BLA BLA BLA BLA BLA BLA BLA BLA BLA BLA BLA BLA BLA BLA BLA BLA BLA BLA BLA BLA 
BLA BLA BLA BLA BLA BLA BLA BLA BLA BLA BLA BLA BLA BLA BLA BLA BLA BLA BLA BLA 
BLA BLA BLA BLA BLA BLA BLA BLA BLA BLA BLA BLA BLA BLA BLA BLA BLA BLA BLA BLA 
BLA BLA BLA BLA BLA BLA BLA BLA BLA BLA BLA BLA BLA BLA BLA BLA BLA BLA BLA BLA 
BLA BLA BLA BLA BLA BLA BLA BLA BLA BLA BLA BLA BLA BLA BLA BLA BLA BLA BLA BLA 
BLA BLA BLA BLA BLA BLA BLA BLA BLA BLA BLA BLA BLA BLA BLA BLA BLA BLA BLA BLA 
BLA BLA BLA BLA BLA BLA BLA BLA BLA BLA BLA BLA BLA BLA BLA BLA BLA BLA BLA BLA 
BLA BLA BLA BLA BLA BLA BLA BLA BLA BLA BLA BLA BLA BLA BLA BLA BLA BLA BLA BLA 
BLA BLA BLA BLA BLA BLA BLA BLA BLA BLA BLA BLA BLA BLA BLA BLA BLA BLA BLA BLA 
BLA BLA BLA BLA BLA BLA BLA BLA BLA BLA BLA BLA BLA BLA BLA BLA BLA BLA BLA BLA 
BLA BLA BLA BLA BLA BLA BLA BLA BLA BLA BLA BLA BLA BLA BLA BLA BLA BLA BLA BLA 
BLA BLA BLA BLA BLA BLA BLA BLA BLA BLA BLA BLA BLA BLA BLA BLA BLA BLA BLA BLA 
BLA BLA BLA BLA BLA BLA BLA BLA BLA BLA BLA BLA BLA BLA BLA BLA BLA BLA BLA BLA 
BLA BLA BLA BLA BLA BLA BLA BLA BLA BLA BLA BLA BLA BLA BLA BLA BLA BLA BLA BLA 
BLA BLA BLA BLA BLA BLA BLA BLA BLA BLA BLA BLA BLA BLA BLA BLA BLA BLA BLA BLA 
BLA BLA BLA BLA BLA BLA BLA BLA BLA BLA BLA BLA BLA BLA BLA BLA BLA BLA BLA BLA 
BLA BLA BLA BLA BLA BLA BLA BLA BLA BLA BLA BLA BLA BLA BLA BLA BLA BLA BLA BLA 
BLA BLA BLA BLA BLA BLA BLA BLA BLA BLA BLA BLA BLA BLA BLA BLA BLA BLA BLA BLA 
BLA BLA BLA BLA BLA BLA BLA BLA BLA BLA BLA BLA BLA BLA BLA BLA BLA BLA BLA BLA 
BLA BLA BLA BLA BLA BLA BLA BLA BLA BLA BLA BLA BLA BLA BLA BLA BLA BLA BLA BLA 
BLA BLA BLA BLA BLA BLA BLA BLA BLA BLA BLA BLA BLA BLA BLA BLA BLA BLA BLA BLA 
BLA BLA BLA BLA BLA BLA BLA BLA BLA BLA BLA BLA BLA BLA BLA BLA BLA BLA BLA BLA 
BLA BLA BLA BLA BLA BLA BLA BLA BLA BLA BLA BLA BLA BLA BLA BLA BLA BLA BLA BLA 
BLA BLA BLA BLA BLA BLA BLA BLA BLA BLA BLA BLA BLA BLA BLA BLA BLA BLA BLA BLA 
BLA BLA BLA BLA BLA BLA BLA BLA BLA BLA BLA BLA BLA BLA BLA BLA BLA BLA BLA BLA 
BLA BLA BLA BLA BLA 
%FLAG JOIN_ARRAY                                                                
%FORMAT(10I8)                                                                   
       0       0       0       0       0       0       0       0       0       0
       0       0       0       0       0       0       0       0       0       0
       0       0       0       0       0       0       0       0       0       0
       0       0       0       0       0       0       0       0       0       0
       0       0       0       0       0       0       0       0       0       0
       0       0       0       0       0       0       0       0       0       0
       0       0       0       0       0       0       0       0       0       0
       0       0       0       0       0       0       0       0       0       0
       0       0       0       0       0       0       0       0       0       0
       0       0       0       0       0       0       0       0       0       0
       0       0       0       0       0       0       0       0       0       0
       0       0       0       0       0       0       0       0       0       0
       0       0       0       0       0       0       0       0       0       0
       0       0       0       0       0       0       0       0       0       0
       0       0       0       0       0       0       0       0       0       0
       0       0       0       0       0       0       0       0       0       0
       0       0       0       0       0       0       0       0       0       0
       0       0       0       0       0       0       0       0       0       0
       0       0       0       0       0       0       0       0       0       0
       0       0       0       0       0       0       0       0       0       0
       0       0       0       0       0       0       0       0       0       0
       0       0       0       0       0       0       0       0       0       0
       0       0       0       0       0       0       0       0       0       0
       0       0       0       0       0       0       0       0       0       0
       0       0       0       0       0       0       0       0       0       0
       0       0       0       0       0       0       0       0       0       0
       0       0       0       0       0       0       0       0       0       0
       0       0       0       0       0       0       0       0       0       0
       0       0       0       0       0       0       0       0       0       0
       0       0       0       0       0       0       0       0       0       0
       0       0       0       0       0       0       0       0       0       0
       0       0       0       0       0       0       0       0       0       0
       0       0       0       0       0       0       0       0       0       0
       0       0       0       0       0       0       0       0       0       0
       0       0       0       0       0       0       0       0       0       0
       0       0       0       0       0       0       0       0       0       0
       0       0       0       0       0       0       0       0       0       0
       0       0       0       0       0       0       0       0       0       0
       0       0       0       0       0       0       0       0       0       0
       0       0       0       0       0       0       0       0       0       0
       0       0       0       0       0       0       0       0       0       0
       0       0       0       0       0       0       0       0       0       0
       0       0       0       0       0       0       0       0       0       0
       0       0       0       0       0       0       0       0       0       0
       0       0       0       0       0       0       0       0       0       0
       0       0       0       0       0       0       0       0       0       0
       0       0       0       0       0       0       0       0       0       0
       0       0       0       0       0       0       0       0       0       0
       0       0       0       0       0       0       0       0       0       0
       0       0       0       0       0       0       0       0       0       0
       0       0       0       0       0       0       0       0       0       0
       0       0       0       0       0       0       0       0       0       0
       0       0       0       0       0       0       0       0       0       0
       0       0       0       0       0       0       0       0       0       0
       0       0       0       0       0       0       0       0       0       0
       0       0       0       0       0       0       0       0       0       0
       0       0       0       0       0       0       0       0       0       0
       0       0       0       0       0       0       0       0       0       0
       0       0       0       0       0       0       0       0       0       0
       0       0       0       0       0       0       0       0       0       0
       0       0       0       0       0       0       0       0       0       0
       0       0       0       0       0       0       0       0       0       0
       0       0       0       0       0       0       0       0       0       0
       0       0       0       0       0       0       0       0       0       0
       0       0       0       0       0       0       0       0       0       0
       0       0       0       0       0       0       0       0       0       0
       0       0       0       0       0       0       0       0       0       0
       0       0       0       0       0       0       0       0       0       0
       0       0       0       0       0       0       0       0       0       0
       0       0       0       0       0       0       0       0       0       0
       0       0       0       0       0       0       0       0       0       0
       0       0       0       0       0       0       0       0       0       0
       0       0       0       0       0       0       0       0       0       0
       0       0       0       0       0       0       0       0       0       0
       0       0       0       0       0       0       0       0       0       0
       0       0       0       0       0       0       0       0       0       0
       0       0       0       0       0       0       0       0       0       0
       0       0       0       0       0       0       0       0       0       0
       0       0       0       0       0       0       0       0       0       0
       0       0       0       0       0       0       0       0       0       0
       0       0       0       0       0       0       0       0       0       0
       0       0       0       0       0       0       0       0       0       0
       0       0       0       0       0       0       0       0       0       0
       0       0       0       0       0       0       0       0       0       0
       0       0       0       0       0       0       0       0       0       0
       0       0       0       0       0       0       0       0       0       0
       0       0       0       0       0       0       0       0       0       0
       0       0       0       0       0       0       0       0       0       0
       0       0       0       0       0       0       0       0       0       0
       0       0       0       0       0       0       0       0       0       0
       0       0       0       0       0       0       0       0       0       0
       0       0       0       0       0       0       0       0       0       0
       0       0       0       0       0       0       0       0       0       0
       0       0       0       0       0       0       0       0       0       0
       0       0       0       0       0       0       0       0       0       0
       0       0       0       0       0       0       0       0       0       0
       0       0       0       0       0       0       0       0       0       0
       0       0       0       0       0       0       0       0       0       0
       0       0       0       0       0       0       0       0       0       0
       0       0       0       0       0       0       0       0       0       0
       0       0       0       0       0       0       0       0       0       0
       0       0       0       0       0       0       0       0       0       0
       0       0       0       0       0       0       0       0       0       0
       0       0       0       0       0       0       0       0       0       0
       0       0       0       0       0       0       0       0       0       0
       0       0       0       0       0       0       0       0       0       0
       0       0       0       0       0       0       0       0       0       0
       0       0       0       0       0       0       0       0       0       0
       0       0       0       0       0       0       0       0       0       0
       0       0       0       0       0       0       0       0       0       0
       0       0       0       0       0       0       0       0       0       0
       0       0       0       0       0       0       0       0       0       0
       0       0       0       0       0       0       0       0       0       0
       0       0       0       0       0       0       0       0       0       0
       0       0       0       0       0       0       0       0       0       0
       0       0       0       0       0       0       0       0       0       0
       0       0       0       0       0       0       0       0       0       0
       0       0       0       0       0       0       0       0       0       0
       0       0       0       0       0       0       0       0       0       0
       0       0       0       0       0       0       0       0       0       0
       0       0       0       0       0       0       0       0       0       0
       0       0       0       0       0       0       0       0       0       0
       0       0       0       0       0       0       0       0       0       0
       0       0       0       0       0       0       0       0       0       0
       0       0       0       0       0       0       0       0       0       0
       0       0       0       0       0       0       0       0       0       0
       0       0       0       0       0       0       0       0       0       0
       0       0       0       0       0       0       0       0       0       0
       0       0       0       0       0       0       0       0       0       0
       0       0       0       0       0       0       0       0       0       0
       0       0       0       0       0       0       0       0       0       0
       0       0       0       0       0       0       0       0       0       0
       0       0       0       0       0       0       0       0       0       0
       0       0       0       0       0       0       0       0       0       0
       0       0       0       0       0       0       0       0       0       0
       0       0       0       0       0       0       0       0       0       0
       0       0       0       0       0       0       0       0       0       0
       0       0       0       0       0       0       0       0       0       0
       0       0       0       0       0       0       0       0       0       0
       0       0       0       0       0       0       0       0       0       0
       0       0       0       0       0       0       0       0       0       0
       0       0       0       0       0       0       0       0       0       0
       0       0       0       0       0       0       0       0       0       0
       0       0       0       0       0       0       0       0       0       0
       0       0       0       0       0       0       0       0       0       0
       0       0       0       0       0       0       0       0       0       0
       0       0       0       0       0       0       0       0       0       0
       0       0       0       0       0       0       0       0       0       0
       0       0       0       0       0       0       0       0       0       0
       0       0       0       0       0       0       0       0       0       0
       0       0       0       0       0       0       0       0       0       0
       0       0       0       0       0       0       0       0       0       0
       0       0       0       0       0       0       0       0       0       0
       0       0       0       0       0       0       0       0       0       0
       0       0       0       0       0       0       0       0       0       0
       0       0       0       0       0       0       0       0       0       0
       0       0       0       0       0       0       0       0       0       0
       0       0       0       0       0       0       0       0       0       0
       0       0       0       0       0       0       0       0       0       0
       0       0       0       0       0       0       0       0       0       0
       0       0       0       0       0       0       0       0       0       0
       0       0       0       0       0       0       0       0       0       0
       0       0       0       0       0       0       0       0       0       0
       0       0       0       0       0       0       0       0       0       0
       0       0       0       0       0       0       0       0       0       0
       0       0       0       0       0       0       0       0       0       0
       0       0       0       0       0       0       0       0       0       0
       0       0       0       0       0       0       0       0       0       0
       0       0       0       0       0       0       0       0       0       0
       0       0       0       0       0       0       0       0       0       0
       0       0       0       0       0       0       0       0       0       0
       0       0       0       0       0       0       0       0       0       0
       0       0       0       0       0       0       0       0       0       0
       0       0       0       0       0       0       0       0       0       0
       0       0       0       0       0       0       0       0       0       0
       0       0       0       0       0       0       0       0       0       0
       0       0       0       0       0       0       0       0       0       0
       0       0       0       0       0       0       0       0       0       0
       0       0       0       0       0       0       0       0       0       0
       0       0       0       0       0       0       0       0       0       0
       0       0       0       0       0       0       0       0       0       0
       0       0       0       0       0       0       0       0       0       0
       0       0       0       0       0       0       0       0       0       0
       0       0       0       0       0       0       0       0       0       0
       0       0       0       0       0       0       0       0       0       0
       0       0       0       0       0       0       0       0       0       0
       0       0       0       0       0       0       0       0       0       0
       0       0       0       0       0       0       0       0       0       0
       0       0       0       0       0       0       0       0       0       0
       0       0       0       0       0       0       0       0       0       0
       0       0       0       0       0       0       0       0       0       0
       0       0       0       0       0       0       0       0       0       0
       0       0       0       0       0       0       0       0       0       0
       0       0       0       0       0       0       0       0       0       0
       0       0       0       0       0       0       0       0       0       0
       0       0       0       0       0       0       0       0       0       0
       0       0       0       0       0       0       0       0       0       0
       0       0       0       0       0       0       0       0       0       0
       0       0       0       0       0       0       0       0       0       0
       0       0       0       0       0       0       0       0       0       0
       0       0       0       0       0       0       0       0       0       0
       0       0       0       0       0       0       0       0       0       0
       0       0       0       0       0       0       0       0       0       0
       0       0       0       0       0       0       0       0       0       0
       0       0       0       0       0       0       0       0       0       0
       0       0       0       0       0       0       0       0       0       0
       0       0       0       0       0       0       0       0       0       0
       0       0       0       0       0       0       0       0       0       0
       0       0       0       0       0       0       0       0       0       0
       0       0       0       0       0       0       0       0       0       0
       0       0       0       0       0       0       0       0       0       0
       0       0       0       0       0       0       0       0       0       0
       0       0       0       0       0       0       0       0       0       0
       0       0       0       0       0       0       0       0       0       0
       0       0       0       0       0       0       0       0       0       0
       0       0       0       0       0       0       0       0       0       0
       0       0       0       0       0       0       0       0       0       0
       0       0       0       0       0       0       0       0       0       0
       0       0       0       0       0       0       0       0       0       0
       0       0       0       0       0       0       0       0       0       0
       0       0       0       0       0       0       0       0       0       0
       0       0       0       0       0       0       0       0       0       0
       0       0       0       0       0       0       0       0       0       0
       0       0       0       0       0       0       0       0       0       0
       0       0       0       0       0       0       0       0       0       0
       0       0       0       0       0       0       0       0       0       0
       0       0       0       0       0       0       0       0       0       0
       0       0       0       0       0       0       0       0       0       0
       0       0       0       0       0       0       0       0       0       0
       0       0       0       0       0       0       0       0       0       0
       0       0       0       0       0       0       0       0       0       0
       0       0       0       0       0       0       0       0       0       0
       0       0       0       0       0       0       0       0       0       0
       0       0       0       0       0       0       0       0       0       0
       0       0       0       0       0       0       0       0       0       0
       0       0       0       0       0       0       0       0       0       0
       0       0       0       0       0       0       0       0       0       0
       0       0       0       0       0       0       0       0       0       0
       0       0       0       0       0       0       0       0       0       0
       0       0       0       0       0       0       0       0       0       0
       0       0       0       0       0       0       0       0       0       0
       0       0       0       0       0       0       0       0       0       0
       0       0       0       0       0       0       0       0       0       0
       0       0       0       0       0       0       0       0       0       0
       0       0       0       0       0       0       0       0       0       0
       0       0       0       0       0       0       0       0       0       0
       0       0       0       0       0       0       0       0       0       0
       0       0       0       0       0       0       0       0       0       0
       0       0       0       0       0       0       0       0       0       0
       0       0       0       0       0       0       0       0       0       0
       0       0       0       0       0       0       0       0       0       0
       0       0       0       0       0       0       0       0       0       0
       0       0       0       0       0       0       0       0       0       0
       0       0       0       0       0       0       0       0       0       0
       0       0       0       0       0       0       0       0       0       0
       0       0       0       0       0       0       0       0       0       0
       0       0       0       0       0       0       0       0       0       0
       0       0       0       0       0       0       0       0       0       0
       0       0       0       0       0       0       0       0       0       0
       0       0       0       0       0       0       0       0       0       0
       0       0       0       0       0       0       0       0       0       0
       0       0       0       0       0       0       0       0       0       0
       0       0       0       0       0       0       0       0       0       0
       0       0       0       0       0       0       0       0       0       0
       0       0       0       0       0       0       0       0       0       0
       0       0       0       0       0       0       0       0       0       0
       0       0       0       0       0       0       0       0       0       0
       0       0       0       0       0       0       0       0       0       0
       0       0       0       0       0       0       0       0       0       0
       0       0       0       0       0       0       0       0       0       0
       0       0       0       0       0       0       0       0       0       0
       0       0       0       0       0       0       0       0       0       0
       0       0       0       0       0       0       0       0       0       0
       0       0       0       0       0       0       0       0       0       0
       0       0       0       0       0       0       0       0       0       0
       0       0       0       0       0       0       0       0       0       0
       0       0       0       0       0       0       0       0       0       0
       0       0       0       0       0       0       0       0       0       0
       0       0       0       0       0       0       0       0       0       0
       0       0       0       0       0       0       0       0       0       0
       0       0       0       0       0       0       0       0       0       0
       0       0       0       0       0       0       0       0       0       0
       0       0       0       0       0       0       0       0       0       0
       0       0       0       0       0       0       0       0       0       0
       0       0       0       0       0       0       0       0       0       0
       0       0       0       0       0       0       0       0       0       0
       0       0       0       0       0       0       0       0       0       0
       0       0       0       0       0       0       0       0       0       0
       0       0       0       0       0       0       0       0       0       0
       0       0       0       0       0       0       0       0       0       0
       0       0       0       0       0       0       0       0       0       0
       0       0       0       0       0       0       0       0       0       0
       0       0       0       0       0       0       0       0       0       0
       0       0       0       0       0       0       0       0       0       0
       0       0       0       0       0       0       0       0       0       0
       0       0       0       0       0       0       0       0       0       0
       0       0       0       0       0       0       0       0       0       0
       0       0       0       0       0       0       0       0       0       0
       0       0       0       0       0       0       0       0       0       0
       0       0       0       0       0       0       0       0       0       0
       0       0       0       0       0       0       0       0       0       0
       0       0       0       0       0       0       0       0       0       0
       0       0       0       0       0       0       0       0       0       0
       0       0       0       0       0       0       0       0       0       0
       0       0       0       0       0       0       0       0       0       0
       0       0       0       0       0       0       0       0       0       0
       0       0       0       0       0       0       0       0       0       0
       0       0       0       0       0       0       0       0       0       0
       0       0       0       0       0       0       0       0       0       0
       0       0       0       0       0       0       0       0       0       0
       0       0       0       0       0       0       0       0       0       0
       0       0       0       0       0       0       0       0       0       0
       0       0       0       0       0       0       0       0       0       0
       0       0       0       0       0       0       0       0       0       0
       0       0       0       0       0       0       0       0       0       0
       0       0       0       0       0       0       0       0       0       0
       0       0       0       0       0       0       0       0       0       0
       0       0       0       0       0       0       0       0       0       0
       0       0       0       0       0       0       0       0       0       0
       0       0       0       0       0       0       0       0       0       0
       0       0       0       0       0       0       0       0       0       0
       0       0       0       0       0       0       0       0       0       0
       0       0       0       0       0       0       0       0       0       0
       0       0       0       0       0       0       0       0       0       0
       0       0       0       0       0       0       0       0       0       0
       0       0       0       0       0       0       0       0       0       0
       0       0       0       0       0       0       0       0       0       0
       0       0       0       0       0       0       0       0       0       0
       0       0       0       0       0       0       0       0       0       0
       0       0       0       0       0       0       0       0       0       0
       0       0       0       0       0       0       0       0       0       0
       0       0       0       0       0       0       0       0       0       0
       0       0       0       0       0       0       0       0       0       0
       0       0       0       0       0       0       0       0       0       0
       0       0       0       0       0       0       0       0       0       0
       0       0       0       0       0       0       0       0       0       0
       0       0       0       0       0       0       0       0       0       0
       0       0       0       0       0       0       0       0       0       0
       0       0       0       0       0       0       0       0       0       0
       0       0       0       0       0       0       0       0       0       0
       0       0       0       0       0       0       0       0       0       0
       0       0       0       0       0       0       0       0       0       0
       0       0       0       0       0       0       0       0       0       0
       0       0       0       0       0       0       0       0       0       0
       0       0       0       0       0       0       0       0       0       0
       0       0       0       0       0       0       0       0       0       0
       0       0       0       0       0       0       0       0       0       0
       0       0       0       0       0       0       0       0       0       0
       0       0       0       0       0       0       0       0       0       0
       0       0       0       0       0       0       0       0       0       0
       0       0       0       0       0       0       0       0       0       0
       0       0       0       0       0       0       0       0       0       0
       0       0       0       0       0       0       0       0       0       0
       0       0       0       0       0       0       0       0       0       0
       0       0       0       0       0       0       0       0       0       0
       0       0       0       0       0       0       0       0       0       0
       0       0       0       0       0       0       0       0       0       0
       0       0       0       0       0       0       0       0       0       0
       0       0       0       0       0       0       0       0       0       0
       0       0       0       0       0       0       0       0       0       0
       0       0       0       0       0       0       0       0       0       0
       0       0       0       0       0       0       0       0       0       0
       0       0       0       0       0       0       0       0       0       0
       0       0       0       0       0       0       0       0       0       0
       0       0       0       0       0       0       0       0       0       0
       0       0       0       0       0       0       0       0       0       0
       0       0       0       0       0       0       0       0       0       0
       0       0       0       0       0       0       0       0       0       0
       0       0       0       0       0       0       0       0       0       0
       0       0       0       0       0       0       0       0       0       0
       0       0       0       0       0       0       0       0       0       0
       0       0       0       0       0       0       0       0       0       0
       0       0       0       0       0       0       0       0       0       0
       0       0       0       0       0       0       0       0       0       0
       0       0       0       0       0       0       0       0       0       0
       0       0       0       0       0       0       0       0       0       0
       0       0       0       0       0       0       0       0       0       0
       0       0       0       0       0       0       0       0       0       0
       0       0       0       0       0       0       0       0       0       0
       0       0       0       0       0       0       0       0       0       0
       0       0       0       0       0       0       0       0       0       0
       0       0       0       0       0       0       0       0       0       0
       0       0       0       0       0       0       0       0       0       0
       0       0       0       0       0       0       0       0       0       0
       0       0       0       0       0       0       0       0       0       0
       0       0       0       0       0       0       0       0       0       0
       0       0       0       0       0       0       0       0       0       0
       0       0       0       0       0       0       0       0       0       0
       0       0       0       0       0       0       0       0       0       0
       0       0       0       0       0       0       0       0       0       0
       0       0       0       0       0       0       0       0       0       0
       0       0       0       0       0       0       0       0       0       0
       0       0       0       0       0       0       0       0       0       0
       0       0       0       0       0       0       0       0       0       0
       0       0       0       0       0       0       0       0       0       0
       0       0       0       0       0       0       0       0       0       0
       0       0       0       0       0       0       0       0       0       0
       0       0       0       0       0       0       0       0       0       0
       0       0       0       0       0       0       0       0       0       0
       0       0       0       0       0       0       0       0       0       0
       0       0       0       0       0       0       0       0       0       0
       0       0       0       0       0       0       0       0       0       0
       0       0       0       0       0       0       0       0       0       0
       0       0       0       0       0       0       0       0       0       0
       0       0       0       0       0       0       0       0       0       0
       0       0       0       0       0       0       0       0       0       0
       0       0       0       0       0       0       0       0       0       0
       0       0       0       0       0       0       0       0       0       0
       0       0       0       0       0       0       0       0       0       0
       0       0       0       0       0       0       0       0       0       0
       0       0       0       0       0       0       0       0       0       0
       0       0       0       0       0       0       0       0       0       0
       0       0       0       0       0       0       0       0       0       0
       0       0       0       0       0       0       0       0       0       0
       0       0       0       0       0       0       0       0       0       0
       0       0       0       0       0       0       0       0       0       0
       0       0       0       0       0       0       0       0       0       0
       0       0       0       0       0       0       0       0       0       0
       0       0       0       0       0       0       0       0       0       0
       0       0       0       0       0       0       0       0       0       0
       0       0       0       0       0       0       0       0       0       0
       0       0       0       0       0       0       0       0       0       0
       0       0       0       0       0       0       0       0       0       0
       0       0       0       0       0       0       0       0       0       0
       0       0       0       0       0       0       0       0       0       0
       0       0       0       0       0       0       0       0       0       0
       0       0       0       0       0       0       0       0       0       0
       0       0       0       0       0       0       0       0       0       0
       0       0       0       0       0       0       0       0       0       0
       0       0       0       0       0       0       0       0       0       0
       0       0       0       0       0       0       0       0       0       0
       0       0       0       0       0       0       0       0       0       0
       0       0       0       0       0       0       0       0       0       0
       0       0       0       0       0       0       0       0       0       0
       0       0       0       0       0       0       0       0       0       0
       0       0       0       0       0       0       0       0       0       0
       0       0       0       0       0       0       0       0       0       0
       0       0       0       0       0       0       0       0       0       0
       0       0       0       0       0       0       0       0       0       0
       0       0       0       0       0       0       0       0       0       0
       0       0       0       0       0       0       0       0       0       0
       0       0       0       0       0       0       0       0       0       0
       0       0       0       0       0       0       0       0       0       0
       0       0       0       0       0       0       0       0       0       0
       0       0       0       0       0       0       0       0       0       0
       0       0       0       0       0       0       0       0       0       0
       0       0       0       0       0       0       0       0       0       0
       0       0       0       0       0       0       0       0       0       0
       0       0       0       0       0       0       0       0       0       0
       0       0       0       0       0       0       0       0       0       0
       0       0       0       0       0       0       0       0       0       0
       0       0       0       0       0       0       0       0       0       0
       0       0       0       0       0       0       0       0       0       0
       0       0       0       0       0       0       0       0       0       0
       0       0       0       0       0       0       0       0       0       0
       0       0       0       0       0       0       0       0       0       0
       0       0       0       0       0       0       0       0       0       0
       0       0       0       0       0       0       0       0       0       0
       0       0       0       0       0       0       0       0       0       0
       0       0       0       0       0       0       0       0       0       0
       0       0       0       0       0       0       0       0       0       0
       0       0       0       0       0       0       0       0       0       0
       0       0       0       0       0       0       0       0       0       0
       0       0       0       0       0       0       0       0       0       0
       0       0       0       0       0       0       0       0       0       0
       0       0       0       0       0       0       0       0       0       0
       0       0       0       0       0       0       0       0       0       0
       0       0       0       0       0       0       0       0       0       0
       0       0       0       0       0       0       0       0       0       0
       0       0       0       0       0       0       0       0       0       0
       0       0       0       0       0       0       0       0       0       0
       0       0       0       0       0       0       0       0       0       0
       0       0       0       0       0       0       0       0       0       0
       0       0       0       0       0       0       0       0       0       0
       0       0       0       0       0       0       0       0       0       0
       0       0       0       0       0       0       0       0       0       0
       0       0       0       0       0       0       0       0       0       0
       0       0       0       0       0       0       0       0       0       0
       0       0       0       0       0       0       0       0       0       0
       0       0       0       0       0       0       0       0       0       0
       0       0       0       0       0       0       0       0       0       0
       0       0       0       0       0       0       0       0       0       0
       0       0       0       0       0       0       0       0       0       0
       0       0       0       0       0       0       0       0       0       0
       0       0       0       0       0       0       0       0       0       0
       0       0       0       0       0       0       0       0       0       0
       0       0       0       0       0       0       0       0       0       0
       0       0       0       0       0       0       0       0       0       0
       0       0       0       0       0       0       0       0       0       0
       0       0       0       0       0       0       0       0       0       0
       0       0       0       0       0       0       0       0       0       0
       0       0       0       0       0       0       0       0       0       0
       0       0       0       0       0       0       0       0       0       0
       0       0       0       0       0       0       0       0       0       0
       0       0       0       0       0       0       0       0       0       0
       0       0       0       0       0       0       0       0       0       0
       0       0       0       0       0       0       0       0       0       0
       0       0       0       0       0       0       0       0       0       0
       0       0       0       0       0       0       0       0       0       0
       0       0       0       0       0       0       0       0       0       0
       0       0       0       0       0       0       0       0       0       0
       0       0       0       0       0       0       0       0       0       0
       0       0       0       0       0       0       0       0       0       0
       0       0       0       0       0       0       0       0       0       0
       0       0       0       0       0       0       0       0       0       0
       0       0       0       0       0       0       0       0       0       0
       0       0       0       0       0       0       0       0       0       0
       0       0       0       0       0       0       0       0       0       0
       0       0       0       0       0       0       0       0       0       0
       0       0       0       0       0       0       0       0       0       0
       0       0       0       0       0       0       0       0       0       0
       0       0       0       0       0       0       0       0       0       0
       0       0       0       0       0       0       0       0       0       0
       0       0       0       0       0       0       0       0       0       0
       0       0       0       0       0       0       0       0       0       0
       0       0       0       0       0       0       0       0       0       0
       0       0       0       0       0       0       0       0       0       0
       0       0       0       0       0       0       0       0       0       0
       0       0       0       0       0       0       0       0       0       0
       0       0       0       0       0       0       0       0       0       0
       0       0       0       0       0       0       0       0       0       0
       0       0       0       0       0       0       0       0       0       0
       0       0       0       0       0       0       0       0       0       0
       0       0       0       0       0       0       0       0       0       0
       0       0       0       0       0       0       0       0       0       0
       0       0       0       0       0       0       0       0       0       0
       0       0       0       0       0       0       0       0       0       0
       0       0       0       0       0       0       0       0       0       0
       0       0       0       0       0       0       0       0       0       0
       0       0       0       0       0       0       0       0       0       0
       0       0       0       0       0       0       0       0       0       0
       0       0       0       0       0       0       0       0       0       0
       0       0       0       0       0       0       0       0       0       0
       0       0       0       0       0       0       0       0       0       0
       0       0       0       0       0       0       0       0       0       0
       0       0       0       0       0       0       0       0       0       0
       0       0       0       0       0       0       0       0       0       0
       0       0       0       0       0       0       0       0       0       0
       0       0       0       0       0       0       0       0       0       0
       0       0       0       0       0       0       0       0       0       0
       0       0       0       0       0       0       0       0       0       0
       0       0       0       0       0       0       0       0       0       0
       0       0       0       0       0       0       0       0       0       0
       0       0       0       0       0       0       0       0       0       0
       0       0       0       0       0       0       0       0       0       0
       0       0       0       0       0       0       0       0       0       0
       0       0       0       0       0       0       0       0       0       0
       0       0       0       0       0       0       0       0       0       0
       0       0       0       0       0       0       0       0       0       0
       0       0       0       0       0       0       0       0       0       0
       0       0       0       0       0       0       0       0       0       0
       0       0       0       0       0       0       0       0       0       0
       0       0       0       0       0       0       0       0       0       0
       0       0       0       0       0       0       0       0       0       0
       0       0       0       0       0       0       0       0       0       0
       0       0       0       0       0       0       0       0       0       0
       0       0       0       0       0       0       0       0       0       0
       0       0       0       0       0       0       0       0       0       0
       0       0       0       0       0       0       0       0       0       0
       0       0       0       0       0       0       0       0       0       0
       0       0       0       0       0       0       0       0       0       0
       0       0       0       0       0       0       0       0       0       0
       0       0       0       0       0       0       0       0       0       0
       0       0       0       0       0       0       0       0       0       0
       0       0       0       0       0       0       0       0       0       0
       0       0       0       0       0       0       0       0       0       0
       0       0       0       0       0       0       0       0       0       0
       0       0       0       0       0       0       0       0       0       0
       0       0       0       0       0       0       0       0       0       0
       0       0       0       0       0       0       0       0       0       0
       0       0       0       0       0       0       0       0       0       0
       0       0       0       0       0       0       0       0       0       0
       0       0       0       0       0       0       0       0       0       0
       0       0       0       0       0       0       0       0       0       0
       0       0       0       0       0       0       0       0       0       0
       0       0       0       0       0       0       0       0       0       0
       0       0       0       0       0       0       0       0       0       0
       0       0       0       0       0       0       0       0       0       0
       0       0       0       0       0       0       0       0       0       0
       0       0       0       0       0       0       0       0       0       0
       0       0       0       0       0       0       0       0       0       0
       0       0       0       0       0       0       0       0       0       0
       0       0       0       0       0       0       0       0       0       0
       0       0       0       0       0       0       0       0       0       0
       0       0       0       0       0       0       0       0       0       0
       0       0       0       0       0       0       0       0       0       0
       0       0       0       0       0       0       0       0       0       0
       0       0       0       0       0       0       0       0       0       0
       0       0       0       0       0       0       0       0       0       0
       0       0       0       0       0       0       0       0       0       0
       0       0       0       0       0       0       0       0       0       0
       0       0       0       0       0       0       0       0       0       0
       0       0       0       0       0       0       0       0       0       0
       0       0       0       0       0       0       0       0       0       0
       0       0       0       0       0       0       0       0       0       0
       0       0       0       0       0       0       0       0       0       0
       0       0       0       0       0       0       0       0       0       0
       0       0       0       0       0       0       0       0       0       0
       0       0       0       0       0       0       0       0       0       0
       0       0       0       0       0       0       0       0       0       0
       0       0       0       0       0       0       0       0       0       0
       0       0       0       0       0       0       0       0       0       0
       0       0       0       0       0       0       0       0       0       0
       0       0       0       0       0       0       0       0       0       0
       0       0       0       0       0       0       0       0       0       0
       0       0       0       0       0       0       0       0       0       0
       0       0       0       0       0       0       0       0       0       0
       0       0       0       0       0       0       0       0       0       0
       0       0       0       0       0       0       0       0       0       0
       0       0       0       0       0       0       0       0       0       0
       0       0       0       0       0       0       0       0       0       0
       0       0       0       0       0       0       0       0       0       0
       0       0       0       0       0       0       0       0       0       0
       0       0       0       0       0       0       0       0       0       0
       0       0       0       0       0       0       0       0       0       0
       0       0       0       0       0       0       0       0       0       0
       0       0       0       0       0       0       0       0       0       0
       0       0       0       0       0       0       0       0       0       0
       0       0       0       0       0       0       0       0       0       0
       0       0       0       0       0       0       0       0       0       0
       0       0       0       0       0       0       0       0       0       0
       0       0       0       0       0       0       0       0       0       0
       0       0       0       0       0       0       0       0       0       0
       0       0       0       0       0       0       0       0       0       0
       0       0       0       0       0       0       0       0       0       0
       0       0       0       0       0       0       0       0       0       0
       0       0       0       0       0       0       0       0       0       0
       0       0       0       0       0       0       0       0       0       0
       0       0       0       0       0       0       0       0       0       0
       0       0       0       0       0       0       0       0       0       0
       0       0       0       0       0       0       0       0       0       0
       0       0       0       0       0       0       0       0       0       0
       0       0       0       0       0       0       0       0       0       0
       0       0       0       0       0       0       0       0       0       0
       0       0       0       0       0       0       0       0       0       0
       0       0       0       0       0       0       0       0       0       0
       0       0       0       0       0       0       0       0       0       0
       0       0       0       0       0       0       0       0       0       0
       0       0       0       0       0       0       0       0       0       0
       0       0       0       0       0       0       0       0       0       0
       0       0       0       0       0       0       0       0       0       0
       0       0       0       0       0       0       0       0       0       0
       0       0       0       0       0       0       0       0       0       0
       0       0       0       0       0       0       0       0       0       0
       0       0       0       0       0       0       0       0       0       0
       0       0       0       0       0       0       0       0       0       0
       0       0       0       0       0       0       0       0       0       0
       0       0       0       0       0       0       0       0       0       0
       0       0       0       0       0       0       0       0       0       0
       0       0       0       0       0       0       0       0       0       0
       0       0       0       0       0       0       0       0       0       0
       0       0       0       0       0       0       0       0       0       0
       0       0       0       0       0       0       0       0       0       0
       0       0       0       0       0       0       0       0       0       0
       0       0       0       0       0       0       0       0       0       0
       0       0       0       0       0       0       0       0       0       0
       0       0       0       0       0       0       0       0       0       0
       0       0       0       0       0       0       0       0       0       0
       0       0       0       0       0       0       0       0       0       0
       0       0       0       0       0       0       0       0       0       0
       0       0       0       0       0       0       0       0       0       0
       0       0       0       0       0       0       0       0       0       0
       0       0       0       0       0       0       0       0       0       0
       0       0       0       0       0       0       0       0       0       0
       0       0       0       0       0       0       0       0       0       0
       0       0       0       0       0       0       0       0       0       0
       0       0       0       0       0       0       0       0       0       0
       0       0       0       0       0       0       0       0       0       0
       0       0       0       0       0       0       0       0       0       0
       0       0       0       0       0       0       0       0       0       0
       0       0       0       0       0       0       0       0       0       0
       0       0       0       0       0       0       0       0       0       0
       0       0       0       0       0       0       0       0       0       0
       0       0       0       0       0       0       0       0       0       0
       0       0       0       0       0       0       0       0       0       0
       0       0       0       0       0       0       0       0       0       0
       0       0       0       0       0       0       0       0       0       0
       0       0       0       0       0       0       0       0       0       0
       0       0       0       0       0       0       0       0       0       0
       0       0       0       0       0       0       0       0       0       0
       0       0       0       0       0       0       0       0       0       0
       0       0       0       0       0       0       0       0       0       0
       0       0       0       0       0       0       0       0       0       0
       0       0       0       0       0       0       0       0       0       0
       0       0       0       0       0       0       0       0       0       0
       0       0       0       0       0       0       0       0       0       0
       0       0       0       0       0       0       0       0       0       0
       0       0       0       0       0       0       0       0       0       0
       0       0       0       0       0       0       0       0       0       0
       0       0       0       0       0       0       0       0       0       0
       0       0       0       0       0       0       0       0       0       0
       0       0       0       0       0       0       0       0       0       0
       0       0       0       0       0       0       0       0       0       0
       0       0       0       0       0       0       0       0       0       0
       0       0       0       0       0       0       0       0       0       0
       0       0       0       0       0       0       0       0       0       0
       0       0       0       0       0       0       0       0       0       0
       0       0       0       0       0       0       0       0       0       0
       0       0       0       0       0       0       0       0       0       0
       0       0       0       0       0       0       0       0       0       0
       0       0       0       0       0       0       0       0       0       0
       0       0       0       0       0       0       0       0       0       0
       0       0       0       0       0       0       0       0       0       0
       0       0       0       0       0       0       0       0       0       0
       0       0       0       0       0       0       0       0       0       0
       0       0       0       0       0       0       0       0       0       0
       0       0       0       0       0       0       0       0       0       0
       0       0       0       0       0       0       0       0       0       0
       0       0       0       0       0       0       0       0       0       0
       0       0       0       0       0       0       0       0       0       0
       0       0       0       0       0       0       0       0       0       0
       0       0       0       0       0       0       0       0       0       0
       0       0       0       0       0       0       0       0       0       0
       0       0       0       0       0       0       0       0       0       0
       0       0       0       0       0       0       0       0       0       0
       0       0       0       0       0       0       0       0       0       0
       0       0       0       0       0       0       0       0       0       0
       0       0       0       0       0       0       0       0       0       0
       0       0       0       0       0       0       0       0       0       0
       0       0       0       0       0       0       0       0       0       0
       0       0       0       0       0       0       0       0       0       0
       0       0       0       0       0       0       0       0       0       0
       0       0       0       0       0       0       0       0       0       0
       0       0       0       0       0       0       0       0       0       0
       0       0       0       0       0       0       0       0       0       0
       0       0       0       0       0       0       0       0       0       0
       0       0       0       0       0       0       0       0       0       0
       0       0       0       0       0       0       0       0       0       0
       0       0       0       0       0       0       0       0       0       0
       0       0       0       0       0       0       0       0       0       0
       0       0       0       0       0       0       0       0       0       0
       0       0       0       0       0       0       0       0       0       0
       0       0       0       0       0       0       0       0       0       0
       0       0       0       0       0       0       0       0       0       0
       0       0       0       0       0       0       0       0       0       0
       0       0       0       0       0       0       0       0       0       0
       0       0       0       0       0       0       0       0       0       0
       0       0       0       0       0       0       0       0       0       0
       0       0       0       0       0       0       0       0       0       0
       0       0       0       0       0       0       0       0       0       0
       0       0       0       0       0       0       0       0       0       0
       0       0       0       0       0       0       0       0       0       0
       0       0       0       0       0       0       0       0       0       0
       0       0       0       0       0       0       0       0       0       0
       0       0       0       0       0       0       0       0       0       0
       0       0       0       0       0       0       0       0       0       0
       0       0       0       0       0       0       0       0       0       0
       0       0       0       0       0       0       0       0       0       0
       0       0       0       0       0       0       0       0       0       0
       0       0       0       0       0       0       0       0       0       0
       0       0       0       0       0       0       0       0       0       0
       0       0       0       0       0       0       0       0       0       0
       0       0       0       0       0       0       0       0       0       0
       0       0       0       0       0       0       0       0       0       0
       0       0       0       0       0       0       0       0       0       0
       0       0       0       0       0       0       0       0       0       0
       0       0       0       0       0       0       0       0       0       0
       0       0       0       0       0       0       0       0       0       0
       0       0       0       0       0       0       0       0       0       0
       0       0       0       0       0       0       0       0       0       0
       0       0       0       0       0       0       0       0       0       0
       0       0       0       0       0       0       0       0       0       0
       0       0       0       0       0       0       0       0       0       0
       0       0       0       0       0       0       0       0       0       0
       0       0       0       0       0       0       0       0       0       0
       0       0       0       0       0       0       0       0       0       0
       0       0       0       0       0       0       0       0       0       0
       0       0       0       0       0       0       0       0       0       0
       0       0       0       0       0       0       0       0       0       0
       0       0       0       0       0       0       0       0       0       0
       0       0       0       0       0       0       0       0       0       0
       0       0       0       0       0       0       0       0       0       0
       0       0       0       0       0       0       0       0       0       0
       0       0       0       0       0       0       0       0       0       0
       0       0       0       0       0       0       0       0       0       0
       0       0       0       0       0       0       0       0       0       0
       0       0       0       0       0       0       0       0       0       0
       0       0       0       0       0       0       0       0       0       0
       0       0       0       0       0       0       0       0       0       0
       0       0       0       0       0       0       0       0       0       0
       0       0       0       0       0       0       0       0       0       0
       0       0       0       0       0       0       0       0       0       0
       0       0       0       0       0       0       0       0       0       0
       0       0       0       0       0       0       0       0       0       0
       0       0       0       0       0       0       0       0       0       0
       0       0       0       0       0       0       0       0       0       0
       0       0       0       0       0       0       0       0       0       0
       0       0       0       0       0       0       0       0       0       0
       0       0       0       0       0       0       0       0       0       0
       0       0       0       0       0       0       0       0       0       0
       0       0       0       0       0       0       0       0       0       0
       0       0       0       0       0       0       0       0       0       0
       0       0       0       0       0       0       0       0       0       0
       0       0       0       0       0       0       0       0       0       0
       0       0       0       0       0       0       0       0       0       0
       0       0       0       0       0       0       0       0       0       0
       0       0       0       0       0       0       0       0       0       0
       0       0       0       0       0       0       0       0       0       0
       0       0       0       0       0       0       0       0       0       0
       0       0       0       0       0       0       0       0       0       0
       0       0       0       0       0       0       0       0       0       0
       0       0       0       0       0       0       0       0       0       0
       0       0       0       0       0       0       0       0       0       0
       0       0       0       0       0       0       0       0       0       0
       0       0       0       0       0       0       0       0       0       0
       0       0       0       0       0       0       0       0       0       0
       0       0       0       0       0       0       0       0       0       0
       0       0       0       0       0       0       0       0       0       0
       0       0       0       0       0       0       0       0       0       0
       0       0       0       0       0       0       0       0       0       0
       0       0       0       0       0       0       0       0       0       0
       0       0       0       0       0       0       0       0       0       0
       0       0       0       0       0       0       0       0       0       0
       0       0       0       0       0       0       0       0       0       0
       0       0       0       0       0       0       0       0       0       0
       0       0       0       0       0       0       0       0       0       0
       0       0       0       0       0       0       0       0       0       0
       0       0       0       0       0       0       0       0       0       0
       0       0       0       0       0       0       0       0       0       0
       0       0       0       0       0       0       0       0       0       0
       0       0       0       0       0       0       0       0       0       0
       0       0       0       0       0       0       0       0       0       0
       0       0       0       0       0       0       0       0       0       0
       0       0       0       0       0       0       0       0       0       0
       0       0       0       0       0       0       0       0       0       0
       0       0       0       0       0       0       0       0       0       0
       0       0       0       0       0       0       0       0       0       0
       0       0       0       0       0       0       0       0       0       0
       0       0       0       0       0       0       0       0       0       0
       0       0       0       0       0       0       0       0       0       0
       0       0       0       0       0       0       0       0       0       0
       0       0       0       0       0       0       0       0       0       0
       0       0       0       0       0       0       0       0       0       0
       0       0       0       0       0       0       0       0       0       0
       0       0       0       0       0       0       0       0       0       0
       0       0       0       0       0       0       0       0       0       0
       0       0       0       0       0       0       0       0       0       0
       0       0       0       0       0       0       0       0       0       0
       0       0       0       0       0       0       0       0       0       0
       0       0       0       0       0       0       0       0       0       0
       0       0       0       0       0       0       0       0       0       0
       0       0       0       0       0       0       0       0       0       0
       0       0       0       0       0       0       0       0       0       0
       0       0       0       0       0       0       0       0       0       0
       0       0       0       0       0       0       0       0       0       0
       0       0       0       0       0       0       0       0       0       0
       0       0       0       0       0       0       0       0       0       0
       0       0       0       0       0       0       0       0       0       0
       0       0       0       0       0       0       0       0       0       0
       0       0       0       0       0       0       0       0       0       0
       0       0       0       0       0       0       0       0       0       0
       0       0       0       0       0       0       0       0       0       0
       0       0       0       0       0       0       0       0       0       0
       0       0       0       0       0       0       0       0       0       0
       0       0       0       0       0       0       0       0       0       0
       0       0       0       0       0       0       0       0       0       0
       0       0       0       0       0       0       0       0       0       0
       0       0       0       0       0       0       0       0       0       0
       0       0       0       0       0       0       0       0       0       0
       0       0       0       0       0       0       0       0       0       0
       0       0       0       0       0       0       0       0       0       0
       0       0       0       0       0       0       0       0       0       0
       0       0       0       0       0       0       0       0       0       0
       0       0       0       0       0       0       0       0       0       0
       0       0       0       0       0       0       0       0       0       0
       0       0       0       0       0       0       0       0       0       0
       0       0       0       0       0       0       0       0       0       0
       0       0       0       0       0       0       0       0       0       0
       0       0       0       0       0       0       0       0       0       0
       0       0       0       0       0       0       0       0       0       0
       0       0       0       0       0       0       0       0       0       0
       0       0       0       0       0       0       0       0       0       0
       0       0       0       0       0       0       0       0       0       0
       0       0       0       0       0       0       0       0       0       0
       0       0       0       0       0       0       0       0       0       0
       0       0       0       0       0       0       0       0       0       0
       0       0       0       0       0       0       0       0       0       0
       0       0       0       0       0       0       0       0       0       0
       0       0       0       0       0       0       0       0       0       0
       0       0       0       0       0       0       0       0       0       0
       0       0       0       0       0       0       0       0       0       0
       0       0       0       0       0       0       0       0       0       0
       0       0       0       0       0       0       0       0       0       0
       0       0       0       0       0       0       0       0       0       0
       0       0       0       0       0       0       0       0       0       0
       0       0       0       0       0       0       0       0       0       0
       0       0       0       0       0       0       0       0       0       0
       0       0       0       0       0       0       0       0       0       0
       0       0       0       0       0       0       0       0       0       0
       0       0       0       0       0       0       0       0       0       0
       0       0       0       0       0       0       0       0       0       0
       0       0       0       0       0       0       0       0       0       0
       0       0       0       0       0       0       0       0       0       0
       0       0       0       0       0       0       0       0       0       0
       0       0       0       0       0       0       0       0       0       0
       0       0       0       0       0       0       0       0       0       0
       0       0       0       0       0       0       0       0       0       0
       0       0       0       0       0       0       0       0       0       0
       0       0       0       0       0       0       0       0       0       0
       0       0       0       0       0       0       0       0       0       0
       0       0       0       0       0       0       0       0       0       0
       0       0       0       0       0       0       0       0       0       0
       0       0       0       0       0       0       0       0       0       0
       0       0       0       0       0       0       0       0       0       0
       0       0       0       0       0       0       0       0       0       0
       0       0       0       0       0       0       0       0       0       0
       0       0       0       0       0       0       0       0       0       0
       0       0       0       0       0       0       0       0       0       0
       0       0       0       0       0       0       0       0       0       0
       0       0       0       0       0       0       0       0       0       0
       0       0       0       0       0       0       0       0       0       0
       0       0       0       0       0       0       0       0       0       0
       0       0       0       0       0       0       0       0       0       0
       0       0       0       0       0       0       0       0       0       0
       0       0       0       0       0       0       0       0       0       0
       0       0       0       0       0       0       0       0       0       0
       0       0       0       0       0       0       0       0       0       0
       0       0       0       0       0       0       0       0       0       0
       0       0       0       0       0       0       0       0       0       0
       0       0       0       0       0       0       0       0       0       0
       0       0       0       0       0       0       0       0       0       0
       0       0       0       0       0       0       0       0       0       0
       0       0       0       0       0       0       0       0       0       0
       0       0       0       0       0       0       0       0       0       0
       0       0       0       0       0       0       0       0       0       0
       0       0       0       0       0       0       0       0       0       0
       0       0       0       0       0       0       0       0       0       0
       0       0       0       0       0       0       0       0       0       0
       0       0       0       0       0       0       0       0       0       0
       0       0       0       0       0       0       0       0       0       0
       0       0       0       0       0       0       0       0       0       0
       0       0       0       0       0       0       0       0       0       0
       0       0       0       0       0       0       0       0       0       0
       0       0       0       0       0       0       0       0       0       0
       0       0       0       0       0       0       0       0       0       0
       0       0       0       0       0       0       0       0       0       0
       0       0       0       0       0       0       0       0       0       0
       0       0       0       0       0       0       0       0       0       0
       0       0       0       0       0       0       0       0       0       0
       0       0       0       0       0       0       0       0       0       0
       0       0       0       0       0       0       0       0       0       0
       0       0       0       0       0       0       0       0       0       0
       0       0       0       0       0       0       0       0       0       0
       0       0       0       0       0       0       0       0       0       0
       0       0       0       0       0       0       0       0       0       0
       0       0       0       0       0       0       0       0       0       0
       0       0       0       0       0       0       0       0       0       0
       0       0       0       0       0       0       0       0       0       0
       0       0       0       0       0       0       0       0       0       0
       0       0       0       0       0       0       0       0       0       0
       0       0       0       0       0       0       0       0       0       0
       0       0       0       0       0       0       0       0       0       0
       0       0       0       0       0       0       0       0       0       0
       0       0       0       0       0       0       0       0       0       0
       0       0       0       0       0       0       0       0       0       0
       0       0       0       0       0       0       0       0       0       0
       0       0       0       0       0       0       0       0       0       0
       0       0       0       0       0       0       0       0       0       0
       0       0       0       0       0       0       0       0       0       0
       0       0       0       0       0       0       0       0       0       0
       0       0       0       0       0       0       0       0       0       0
       0       0       0       0       0       0       0       0       0       0
       0       0       0       0       0       0       0       0       0       0
       0       0       0       0       0       0       0       0       0       0
       0       0       0       0       0       0       0       0       0       0
       0       0       0       0       0       0       0       0       0       0
       0       0       0       0       0       0       0       0       0       0
       0       0       0       0       0       0       0       0       0       0
       0       0       0       0       0       0       0       0       0       0
       0       0       0       0       0       0       0       0       0       0
       0       0       0       0       0       0       0       0       0       0
       0       0       0       0       0       0       0       0       0       0
       0       0       0       0       0       0       0       0       0       0
       0       0       0       0       0       0       0       0       0       0
       0       0       0       0       0       0       0       0       0       0
       0       0       0       0       0       0       0       0       0       0
       0       0       0       0       0       0       0       0       0       0
       0       0       0       0       0       0       0       0       0       0
       0       0       0       0       0       0       0       0       0       0
       0       0       0       0       0       0       0       0       0       0
       0       0       0       0       0       0       0       0       0       0
       0       0       0       0       0       0       0       0       0       0
       0       0       0       0       0       0       0       0       0       0
       0       0       0       0       0       0       0       0       0       0
       0       0       0       0       0       0       0       0       0       0
       0       0       0       0       0       0       0       0       0       0
       0       0       0       0       0       0       0       0       0       0
       0       0       0       0       0       0       0       0       0       0
       0       0       0       0       0       0       0       0       0       0
       0       0       0       0       0       0       0       0       0       0
       0       0       0       0       0       0       0       0       0       0
       0       0       0       0       0       0       0       0       0       0
       0       0       0       0       0       0       0       0       0       0
       0       0       0       0       0       0       0       0       0       0
       0       0       0       0       0       0       0       0       0       0
       0       0       0       0       0       0       0       0       0       0
       0       0       0       0       0       0       0       0       0       0
       0       0       0       0       0       0       0       0       0       0
       0       0       0       0       0       0       0       0       0       0
       0       0       0       0       0       0       0       0       0       0
       0       0       0       0       0       0       0       0       0       0
       0       0       0       0       0       0       0       0       0       0
       0       0       0       0       0       0       0       0       0       0
       0       0       0       0       0       0       0       0       0       0
       0       0       0       0       0       0       0       0       0       0
       0       0       0       0       0       0       0       0       0       0
       0       0       0       0       0       0       0       0       0       0
       0       0       0       0       0       0       0       0       0       0
       0       0       0       0       0       0       0       0       0       0
       0       0       0       0       0       0       0       0       0       0
       0       0       0       0       0       0       0       0       0       0
       0       0       0       0       0       0       0       0       0       0
       0       0       0       0       0       0       0       0       0       0
       0       0       0       0       0       0       0       0       0       0
       0       0       0       0       0       0       0       0       0       0
       0       0       0       0       0       0       0       0       0       0
       0       0       0       0       0       0       0       0       0       0
       0       0       0       0       0       0       0       0       0       0
       0       0       0       0       0       0       0       0       0       0
       0       0       0       0       0       0       0       0       0       0
       0       0       0       0       0       0       0       0       0       0
       0       0       0       0       0       0       0       0       0       0
       0       0       0       0       0       0       0       0       0       0
       0       0       0       0       0       0       0       0       0       0
       0       0       0       0       0       0       0       0       0       0
       0       0       0       0       0       0       0       0       0       0
       0       0       0       0       0       0       0       0       0       0
       0       0       0       0       0       0       0       0       0       0
       0       0       0       0       0       0       0       0       0       0
       0       0       0       0       0       0       0       0       0       0
       0       0       0       0       0       0       0       0       0       0
       0       0       0       0       0       0       0       0       0       0
       0       0       0       0       0       0       0       0       0       0
       0       0       0       0       0       0       0       0       0       0
       0       0       0       0       0       0       0       0       0       0
       0       0       0       0       0       0       0       0       0       0
       0       0       0       0       0       0       0       0       0       0
       0       0       0       0       0       0       0       0       0       0
       0       0       0       0       0       0       0       0       0       0
       0       0       0       0       0       0       0       0       0       0
       0       0       0       0       0       0       0       0       0       0
       0       0       0       0       0       0       0       0       0       0
       0       0       0       0       0       0       0       0       0       0
       0       0       0       0       0       0       0       0       0       0
       0       0       0       0       0       0       0       0       0       0
       0       0       0       0       0       0       0       0       0       0
       0       0       0       0       0       0       0       0       0       0
       0       0       0       0       0       0       0       0       0       0
       0       0       0       0       0       0       0       0       0       0
       0       0       0       0       0       0       0       0       0       0
       0       0       0       0       0       0       0       0       0       0
       0       0       0       0       0       0       0       0       0       0
       0       0       0       0       0       0       0       0       0       0
       0       0       0       0       0       0       0       0       0       0
       0       0       0       0       0       0       0       0       0       0
       0       0       0       0       0       0       0       0       0       0
       0       0       0       0       0       0       0       0       0       0
       0       0       0       0       0       0       0       0       0       0
       0       0       0       0       0       0       0       0       0       0
       0       0       0       0       0       0       0       0       0       0
       0       0       0       0       0       0       0       0       0       0
       0       0       0       0       0       0       0       0       0       0
       0       0       0       0       0       0       0       0       0       0
       0       0       0       0       0       0       0       0       0       0
       0       0       0       0       0       0       0       0       0       0
       0       0       0       0       0       0       0       0       0       0
       0       0       0       0       0       0       0       0       0       0
       0       0       0       0       0       0       0       0       0       0
       0       0       0       0       0       0       0       0       0       0
       0       0       0       0       0       0       0       0       0       0
       0       0       0       0       0       0       0       0       0       0
       0       0       0       0       0       0       0       0       0       0
       0       0       0       0       0       0       0       0       0       0
       0       0       0       0       0       0       0       0       0       0
       0       0       0       0       0       0       0       0       0       0
       0       0       0       0       0       0       0       0       0       0
       0       0       0       0       0       0       0       0       0       0
       0       0       0       0       0       0       0       0       0       0
       0       0       0       0       0       0       0       0       0       0
       0       0       0       0       0       0       0       0       0       0
       0       0       0       0       0       0       0       0       0       0
       0       0       0       0       0       0       0       0       0       0
       0       0       0       0       0       0       0       0       0       0
       0       0       0       0       0       0       0       0       0       0
       0       0       0       0       0       0       0       0       0       0
       0       0       0       0       0       0       0       0       0       0
       0       0       0       0       0       0       0       0       0       0
       0       0       0       0       0       0       0       0       0       0
       0       0       0       0       0       0       0       0       0       0
       0       0       0       0       0       0       0       0       0       0
       0       0       0       0       0       0       0       0       0       0
       0       0       0       0       0       0       0       0       0       0
       0       0       0       0       0       0       0       0       0       0
       0       0       0       0       0       0       0       0       0       0
       0       0       0       0       0       0       0       0       0       0
       0       0       0       0       0       0       0       0       0       0
       0       0       0       0       0       0       0       0       0       0
       0       0       0       0       0       0       0       0       0       0
       0       0       0       0       0       0       0       0       0       0
       0       0       0       0       0       0       0       0       0       0
       0       0       0       0       0       0       0       0       0       0
       0       0       0       0       0       0       0       0       0       0
       0       0       0       0       0       0       0       0       0       0
       0       0       0       0       0       0       0       0       0       0
       0       0       0       0       0       0       0       0       0       0
       0       0       0       0       0       0       0       0       0       0
       0       0       0       0       0       0       0       0       0       0
       0       0       0       0       0       0       0       0       0       0
       0       0       0       0       0       0       0       0       0       0
       0       0       0       0       0       0       0       0       0       0
       0       0       0       0       0       0       0       0       0       0
       0       0       0       0       0       0       0       0       0       0
       0       0       0       0       0       0       0       0       0       0
       0       0       0       0       0       0       0       0       0       0
       0       0       0       0       0       0       0       0       0       0
       0       0       0       0       0       0       0       0       0       0
       0       0       0       0       0       0       0       0       0       0
       0       0       0       0       0       0       0       0       0       0
       0       0       0       0       0       0       0       0       0       0
       0       0       0       0       0       0       0       0       0       0
       0       0       0       0       0       0       0       0       0       0
       0       0       0       0       0       0       0       0       0       0
       0       0       0       0       0       0       0       0       0       0
       0       0       0       0       0       0       0       0       0       0
       0       0       0       0       0       0       0       0       0       0
       0       0       0       0       0       0       0       0       0       0
       0       0       0       0       0       0       0       0       0       0
       0       0       0       0       0       0       0       0       0       0
       0       0       0       0       0       0       0       0       0       0
       0       0       0       0       0       0       0       0       0       0
       0       0       0       0       0       0       0       0       0       0
       0       0       0       0       0       0       0       0       0       0
       0       0       0       0       0       0       0       0       0       0
       0       0       0       0       0       0       0       0       0       0
       0       0       0       0       0       0       0       0       0       0
       0       0       0       0       0       0       0       0       0       0
       0       0       0       0       0       0       0       0       0       0
       0       0       0       0       0       0       0       0       0       0
       0       0       0       0       0       0       0       0       0       0
       0       0       0       0       0       0       0       0       0       0
       0       0       0       0       0       0       0       0       0       0
       0       0       0       0       0       0       0       0       0       0
       0       0       0       0       0       0       0       0       0       0
       0       0       0       0       0       0       0       0       0       0
       0       0       0       0       0       0       0       0       0       0
       0       0       0       0       0       0       0       0       0       0
       0       0       0       0       0       0       0       0       0       0
       0       0       0       0       0       0       0       0       0       0
       0       0       0       0       0       0       0       0       0       0
       0       0       0       0       0       0       0       0       0       0
       0       0       0       0       0       0       0       0       0       0
       0       0       0       0       0       0       0       0       0       0
       0       0       0       0       0       0       0       0       0       0
       0       0       0       0       0       0       0       0       0       0
       0       0       0       0       0       0       0       0       0       0
       0       0       0       0       0       0       0       0       0       0
       0       0       0       0       0       0       0       0       0       0
       0       0       0       0       0       0       0       0       0       0
       0       0       0       0       0       0       0       0       0       0
       0       0       0       0       0       0       0       0       0       0
       0       0       0       0       0       0       0       0       0       0
       0       0       0       0       0       0       0       0       0       0
       0       0       0       0       0       0       0       0       0       0
       0       0       0       0       0       0       0       0       0       0
       0       0       0       0       0       0       0       0       0       0
       0       0       0       0       0       0       0       0       0       0
       0       0       0       0       0       0       0       0       0       0
       0       0       0       0       0       0       0       0       0       0
       0       0       0       0       0       0       0       0       0       0
       0       0       0       0       0       0       0       0       0       0
       0       0       0       0       0       0       0       0       0       0
       0       0       0       0       0       0       0       0       0       0
       0       0       0       0       0       0       0       0       0       0
       0       0       0       0       0       0       0       0       0       0
       0       0       0       0       0       0       0       0       0       0
       0       0       0       0       0       0       0       0       0       0
       0       0       0       0       0       0       0       0       0       0
       0       0       0       0       0       0       0       0       0       0
       0       0       0       0       0       0       0       0       0       0
       0       0       0       0       0       0       0       0       0       0
       0       0       0       0       0       0       0       0       0       0
       0       0       0       0       0       0       0       0       0       0
       0       0       0       0       0       0       0       0       0       0
       0       0       0       0       0       0       0       0       0       0
       0       0       0       0       0       0       0       0       0       0
       0       0       0       0       0       0       0       0       0       0
       0       0       0       0       0       0       0       0       0       0
       0       0       0       0       0       0       0       0       0       0
       0       0       0       0       0       0       0       0       0       0
       0       0       0       0       0       0       0       0       0       0
       0       0       0       0       0       0       0       0       0       0
       0       0       0       0       0       0       0       0       0       0
       0       0       0       0       0       0       0       0       0       0
       0       0       0       0       0       0       0       0       0       0
       0       0       0       0       0       0       0       0       0       0
       0       0       0       0       0       0       0       0       0       0
       0       0       0       0       0       0       0       0       0       0
       0       0       0       0       0       0       0       0       0       0
       0       0       0       0       0       0       0       0       0       0
       0       0       0       0       0       0       0       0       0       0
       0       0       0       0       0       0       0       0       0       0
       0       0       0       0       0       0       0       0       0       0
       0       0       0       0       0       0       0       0       0       0
       0       0       0       0       0       0       0       0       0       0
       0       0       0       0       0       0       0       0       0       0
       0       0       0       0       0       0       0       0       0       0
       0       0       0       0       0       0       0       0       0       0
       0       0       0       0       0       0       0       0       0       0
       0       0       0       0       0       0       0       0       0       0
       0       0       0       0       0       0       0       0       0       0
       0       0       0       0       0       0       0       0       0       0
       0       0       0       0       0       0       0       0       0       0
       0       0       0       0       0       0       0       0       0       0
       0       0       0       0       0       0       0       0       0       0
       0       0       0       0       0       0       0       0       0       0
       0       0       0       0       0       0       0       0       0       0
       0       0       0       0       0       0       0       0       0       0
       0       0       0       0       0       0       0       0       0       0
       0       0       0       0       0       0       0       0       0       0
       0       0       0       0       0       0       0       0       0       0
       0       0       0       0       0       0       0       0       0       0
       0       0       0       0       0       0       0       0       0       0
       0       0       0       0       0       0       0       0       0       0
       0       0       0       0       0       0       0       0       0       0
       0       0       0       0       0       0       0       0       0       0
       0       0       0       0       0       0       0       0       0       0
       0       0       0       0       0       0       0       0       0       0
       0       0       0       0       0       0       0       0       0       0
       0       0       0       0       0       0       0       0       0       0
       0       0       0       0       0       0       0       0       0       0
       0       0       0       0       0       0       0       0       0       0
       0       0       0       0       0       0       0       0       0       0
       0       0       0       0       0       0       0       0       0       0
       0       0       0       0       0       0       0       0       0       0
       0       0       0       0       0       0       0       0       0       0
       0       0       0       0       0       0       0       0       0       0
       0       0       0       0       0       0       0       0       0       0
       0       0       0       0       0       0       0       0       0       0
       0       0       0       0       0       0       0       0       0       0
       0       0       0       0       0       0       0       0       0       0
       0       0       0       0       0       0       0       0       0       0
       0       0       0       0       0       0       0       0       0       0
       0       0       0       0       0       0       0       0       0       0
       0       0       0       0       0       0       0       0       0       0
       0       0       0       0       0       0       0       0       0       0
       0       0       0       0       0       0       0       0       0       0
       0       0       0       0       0       0       0       0       0       0
       0       0       0       0       0       0       0       0       0       0
       0       0       0       0       0       0       0       0       0       0
       0       0       0       0       0       0       0       0       0       0
       0       0       0       0       0       0       0       0       0       0
       0       0       0       0       0       0       0       0       0       0
       0       0       0       0       0       0       0       0       0       0
       0       0       0       0       0       0       0       0       0       0
       0       0       0       0       0       0       0       0       0       0
       0       0       0       0       0       0       0       0       0       0
       0       0       0       0       0       0       0       0       0       0
       0       0       0       0       0       0       0       0       0       0
       0       0       0       0       0       0       0       0       0       0
       0       0       0       0       0       0       0       0       0       0
       0       0       0       0       0       0       0       0       0       0
       0       0       0       0       0       0       0       0       0       0
       0       0       0       0       0       0       0       0       0       0
       0       0       0       0       0       0       0       0       0       0
       0       0       0       0       0       0       0       0       0       0
       0       0       0       0       0       0       0       0       0       0
       0       0       0       0       0       0       0       0       0       0
       0       0       0       0       0       0       0       0       0       0
       0       0       0       0       0       0       0       0       0       0
       0       0       0       0       0       0       0       0       0       0
       0       0       0       0       0       0       0       0       0       0
       0       0       0       0       0       0       0       0       0       0
       0       0       0       0       0       0       0       0       0       0
       0       0       0       0       0       0       0       0       0       0
       0       0       0       0       0       0       0       0       0       0
       0       0       0       0       0       0       0       0       0       0
       0       0       0       0       0       0       0       0       0       0
       0       0       0       0       0       0       0       0       0       0
       0       0       0       0       0       0       0       0       0       0
       0       0       0       0       0       0       0       0       0       0
       0       0       0       0       0       0       0       0       0       0
       0       0       0       0       0       0       0       0       0       0
       0       0       0       0       0       0       0       0       0       0
       0       0       0       0       0       0       0       0       0       0
       0       0       0       0       0       0       0       0       0       0
       0       0       0       0       0       0       0       0       0       0
       0       0       0       0       0       0       0       0       0       0
       0       0       0       0       0       0       0       0       0       0
       0       0       0       0       0       0       0       0       0       0
       0       0       0       0       0       0       0       0       0       0
       0       0       0       0       0       0       0       0       0       0
       0       0       0       0       0       0       0       0       0       0
       0       0       0       0       0       0       0       0       0       0
       0       0       0       0       0       0       0       0       0       0
       0       0       0       0       0       0       0       0       0       0
       0       0       0       0       0       0       0       0       0       0
       0       0       0       0       0       0       0       0       0       0
       0       0       0       0       0       0       0       0       0       0
       0       0       0       0       0       0       0       0       0       0
       0       0       0       0       0       0       0       0       0       0
       0       0       0       0       0       0       0       0       0       0
       0       0       0       0       0       0       0       0       0       0
       0       0       0       0       0       0       0       0       0       0
       0       0       0       0       0       0       0       0       0       0
       0       0       0       0       0       0       0       0       0       0
       0       0       0       0       0       0       0       0       0       0
       0       0       0       0       0       0       0       0       0       0
       0       0       0       0       0       0       0       0       0       0
       0       0       0       0       0       0       0       0       0       0
       0       0       0       0       0       0       0       0       0       0
       0       0       0       0       0       0       0       0       0       0
       0       0       0       0       0       0       0       0       0       0
       0       0       0       0       0       0       0       0       0       0
       0       0       0       0       0       0       0       0       0       0
       0       0       0       0       0       0       0       0       0       0
       0       0       0       0       0       0       0       0       0       0
       0       0       0       0       0       0       0       0       0       0
       0       0       0       0       0       0       0       0       0       0
       0       0       0       0       0       0       0       0       0       0
       0       0       0       0       0       0       0       0       0       0
       0       0       0       0       0       0       0       0       0       0
       0       0       0       0       0       0       0       0       0       0
       0       0       0       0       0       0       0       0       0       0
       0       0       0       0       0       0       0       0       0       0
       0       0       0       0       0       0       0       0       0       0
       0       0       0       0       0       0       0       0       0       0
       0       0       0       0       0       0       0       0       0       0
       0       0       0       0       0       0       0       0       0       0
       0       0       0       0       0       0       0       0       0       0
       0       0       0       0       0       0       0       0       0       0
       0       0       0       0       0       0       0       0       0       0
       0       0       0       0       0       0       0       0       0       0
       0       0       0       0       0       0       0       0       0       0
       0       0       0       0       0       0       0       0       0       0
       0       0       0       0       0       0       0       0       0       0
       0       0       0       0       0       0       0       0       0       0
       0       0       0       0       0       0       0       0       0       0
       0       0       0       0       0       0       0       0       0       0
       0       0       0       0       0       0       0       0       0       0
       0       0       0       0       0       0       0       0       0       0
       0       0       0       0       0       0       0       0       0       0
       0       0       0       0       0       0       0       0       0       0
       0       0       0       0       0       0       0       0       0       0
       0       0       0       0       0       0       0       0       0       0
       0       0       0       0       0       0       0       0       0       0
       0       0       0       0       0       0       0       0       0       0
       0       0       0       0       0       0       0       0       0       0
       0       0       0       0       0       0       0       0       0       0
       0       0       0       0       0       0       0       0       0       0
       0       0       0       0       0       0       0       0       0       0
       0       0       0       0       0       0       0       0       0       0
       0       0       0       0       0       0       0       0       0       0
       0       0       0       0       0       0       0       0       0       0
       0       0       0       0       0       0       0       0       0       0
       0       0       0       0       0       0       0       0       0       0
       0       0       0       0       0       0       0       0       0       0
       0       0       0       0       0       0       0       0       0       0
       0       0       0       0       0       0       0       0       0       0
       0       0       0       0       0       0       0       0       0       0
       0       0       0       0       0       0       0       0       0       0
       0       0       0       0       0       0       0       0       0       0
       0       0       0       0       0       0       0       0       0       0
       0       0       0       0       0       0       0       0       0       0
       0       0       0       0       0       0       0       0       0       0
       0       0       0       0       0       0       0       0       0       0
       0       0       0       0       0       0       0       0       0       0
       0       0       0       0       0       0       0       0       0       0
       0       0       0       0       0       0       0       0       0       0
       0       0       0       0       0       0       0       0       0       0
       0       0       0       0       0       0       0       0       0       0
       0       0       0       0       0       0       0       0       0       0
       0       0       0       0       0       0       0       0       0       0
       0       0       0       0       0       0       0       0       0       0
       0       0       0       0       0       0       0       0       0       0
       0       0       0       0       0       0       0       0       0       0
       0       0       0       0       0       0       0       0       0       0
       0       0       0       0       0       0       0       0       0       0
       0       0       0       0       0       0       0       0       0       0
       0       0       0       0       0       0       0       0       0       0
       0       0       0       0       0       0       0       0       0       0
       0       0       0       0       0       0       0       0       0       0
       0       0       0       0       0       0       0       0       0       0
       0       0       0       0       0       0       0       0       0       0
       0       0       0       0       0       0       0       0       0       0
       0       0       0       0       0       0       0       0       0       0
       0       0       0       0       0       0       0       0       0       0
       0       0       0       0       0       0       0       0       0       0
       0       0       0       0       0       0       0       0       0       0
       0       0       0       0       0       0       0       0       0       0
       0       0       0       0       0       0       0       0       0       0
       0       0       0       0       0       0       0       0       0       0
       0       0       0       0       0       0       0       0       0       0
       0       0       0       0       0       0       0       0       0       0
       0       0       0       0       0       0       0       0       0       0
       0       0       0       0       0       0       0       0       0       0
       0       0       0       0       0       0       0       0       0       0
       0       0       0       0       0       0       0       0       0       0
       0       0       0       0       0       0       0       0       0       0
       0       0       0       0       0       0       0       0       0       0
       0       0       0       0       0       0       0       0       0       0
       0       0       0       0       0       0       0       0       0       0
       0       0       0       0       0       0       0       0       0       0
       0       0       0       0       0       0       0       0       0       0
       0       0       0       0       0       0       0       0       0       0
       0       0       0       0       0       0       0       0       0       0
       0       0       0       0       0       0       0       0       0       0
       0       0       0       0       0       0       0       0       0       0
       0       0       0       0       0       0       0       0       0       0
       0       0       0       0       0       0       0       0       0       0
       0       0       0       0       0       0       0       0       0       0
       0       0       0       0       0       0       0       0       0       0
       0       0       0       0       0       0       0       0       0       0
       0       0       0       0       0       0       0       0       0       0
       0       0       0       0       0       0       0       0       0       0
       0       0       0       0       0       0       0       0       0       0
       0       0       0       0       0       0       0       0       0       0
       0       0       0       0       0       0       0       0       0       0
       0       0       0       0       0       0       0       0       0       0
       0       0       0       0       0       0       0       0       0       0
       0       0       0       0       0       0       0       0       0       0
       0       0       0       0       0       0       0       0       0       0
       0       0       0       0       0       0       0       0       0       0
       0       0       0       0       0       0       0       0       0       0
       0       0       0       0       0       0       0       0       0       0
       0       0       0       0       0       0       0       0       0       0
       0       0       0       0       0       0       0       0       0       0
       0       0       0       0       0       0       0       0       0       0
       0       0       0       0       0       0       0       0       0       0
       0       0       0       0       0       0       0       0       0       0
       0       0       0       0       0       0       0       0       0       0
       0       0       0       0       0       0       0       0       0       0
       0       0       0       0       0       0       0       0       0       0
       0       0       0       0       0       0       0       0       0       0
       0       0       0       0       0       0       0       0       0       0
       0       0       0       0       0       0       0       0       0       0
       0       0       0       0       0       0       0       0       0       0
       0       0       0       0       0       0       0       0       0       0
       0       0       0       0       0       0       0       0       0       0
       0       0       0       0       0       0       0       0       0       0
       0       0       0       0       0       0       0       0       0       0
       0       0       0       0       0       0       0       0       0       0
       0       0       0       0       0       0       0       0       0       0
       0       0       0       0       0       0       0       0       0       0
       0       0       0       0       0       0       0       0       0       0
       0       0       0       0       0       0       0       0       0       0
       0       0       0       0       0       0       0       0       0       0
       0       0       0       0       0       0       0       0       0       0
       0       0       0       0       0       0       0       0       0       0
       0       0       0       0       0       0       0       0       0       0
       0       0       0       0       0       0       0       0       0       0
       0       0       0       0       0       0       0       0       0       0
       0       0       0       0       0       0       0       0       0       0
       0       0       0       0       0       0       0       0       0       0
       0       0       0       0       0       0       0       0       0       0
       0       0       0       0       0       0       0       0       0       0
       0       0       0       0       0       0       0       0       0       0
       0       0       0       0       0       0       0       0       0       0
       0       0       0       0       0       0       0       0       0       0
       0       0       0       0       0       0       0       0       0       0
       0       0       0       0       0       0       0       0       0       0
       0       0       0       0       0       0       0       0       0       0
       0       0       0       0       0       0       0       0       0       0
       0       0       0       0       0       0       0       0       0       0
       0       0       0       0       0       0       0       0       0       0
       0       0       0       0       0       0       0       0       0       0
       0       0       0       0       0       0       0       0       0       0
       0       0       0       0       0       0       0       0       0       0
       0       0       0       0       0       0       0       0       0       0
       0       0       0       0       0       0       0       0       0       0
       0       0       0       0       0       0       0       0       0       0
       0       0       0       0       0       0       0       0       0       0
       0       0       0       0       0       0       0       0       0       0
       0       0       0       0       0       0       0       0       0       0
       0       0       0       0       0       0       0       0       0       0
       0       0       0       0       0       0       0       0       0       0
       0       0       0       0       0       0       0       0       0       0
       0       0       0       0       0       0       0       0       0       0
       0       0       0       0       0       0       0       0       0       0
       0       0       0       0       0       0       0       0       0       0
       0       0       0       0       0       0       0       0       0       0
       0       0       0       0       0       0       0       0       0       0
       0       0       0       0       0       0       0       0       0       0
       0       0       0       0       0       0       0       0       0       0
       0       0       0       0       0       0       0       0       0       0
       0       0       0       0       0       0       0       0       0       0
       0       0       0       0       0       0       0       0       0       0
       0       0       0       0       0       0       0       0       0       0
       0       0       0       0       0       0       0       0       0       0
       0       0       0       0       0       0       0       0       0       0
       0       0       0       0       0       0       0       0       0       0
       0       0       0       0       0       0       0       0       0       0
       0       0       0       0       0       0       0       0       0       0
       0       0       0       0       0       0       0       0       0       0
       0       0       0       0       0       0       0       0       0       0
       0       0       0       0       0       0       0       0       0       0
       0       0       0       0       0       0       0       0       0       0
       0       0       0       0       0       0       0       0       0       0
       0       0       0       0       0       0       0       0       0       0
       0       0       0       0       0       0       0       0       0       0
       0       0       0       0       0       0       0       0       0       0
       0       0       0       0       0       0       0       0       0       0
       0       0       0       0       0       0       0       0       0       0
       0       0       0       0       0       0       0       0       0       0
       0       0       0       0       0       0       0       0       0       0
       0       0       0       0       0       0       0       0       0       0
       0       0       0       0       0       0       0       0       0       0
       0       0       0       0       0       0       0       0       0       0
       0       0       0       0       0       0       0       0       0       0
       0       0       0       0       0       0       0       0       0       0
       0       0       0       0       0       0       0       0       0       0
       0       0       0       0       0       0       0       0       0       0
       0       0       0       0       0       0       0       0       0       0
       0       0       0       0       0       0       0       0       0       0
       0       0       0       0       0       0       0       0       0       0
       0       0       0       0       0       0       0       0       0       0
       0       0       0       0       0       0       0       0       0       0
       0       0       0       0       0       0       0       0       0       0
       0       0       0       0       0       0       0       0       0       0
       0       0       0       0       0       0       0       0       0       0
       0       0       0       0       0       0       0       0       0       0
       0       0       0       0       0       0       0       0       0       0
       0       0       0       0       0       0       0       0       0       0
       0       0       0       0       0       0       0       0       0       0
       0       0       0       0       0       0       0       0       0       0
       0       0       0       0       0       0       0       0       0       0
       0       0       0       0       0       0       0       0       0       0
       0       0       0       0       0       0       0       0       0       0
       0       0       0       0       0       0       0       0       0       0
       0       0       0       0       0       0       0       0       0       0
       0       0       0       0       0       0       0       0       0       0
       0       0       0       0       0       0       0       0       0       0
       0       0       0       0       0       0       0       0       0       0
       0       0       0       0       0       0       0       0       0       0
       0       0       0       0       0       0       0       0       0       0
       0       0       0       0       0       0       0       0       0       0
       0       0       0       0       0       0       0       0       0       0
       0       0       0       0       0       0       0       0       0       0
       0       0       0       0       0       0       0       0       0       0
       0       0       0       0       0       0       0       0       0       0
       0       0       0       0       0       0       0       0       0       0
       0       0       0       0       0       0       0       0       0       0
       0       0       0       0       0       0       0       0       0       0
       0       0       0       0       0       0       0       0       0       0
       0       0       0       0       0       0       0       0       0       0
       0       0       0       0       0       0       0       0       0       0
       0       0       0       0       0       0       0       0       0       0
       0       0       0       0       0       0       0       0       0       0
       0       0       0       0       0       0       0       0       0       0
       0       0       0       0       0       0       0       0       0       0
       0       0       0       0       0       0       0       0       0       0
       0       0       0       0       0       0       0       0       0       0
       0       0       0       0       0       0       0       0       0       0
       0       0       0       0       0       0       0       0       0       0
       0       0       0       0       0       0       0       0       0       0
       0       0       0       0       0       0       0       0       0       0
       0       0       0       0       0       0       0       0       0       0
       0       0       0       0       0       0       0       0       0       0
       0       0       0       0       0       0       0       0       0       0
       0       0       0       0       0       0       0       0       0       0
       0       0       0       0       0       0       0       0       0       0
       0       0       0       0       0       0       0       0       0       0
       0       0       0       0       0       0       0       0       0       0
       0       0       0       0       0       0       0       0       0       0
       0       0       0       0       0       0       0       0       0       0
       0       0       0       0       0       0       0       0       0       0
       0       0       0       0       0       0       0       0       0       0
       0       0       0       0       0       0       0       0       0       0
       0       0       0       0       0       0       0       0       0       0
       0       0       0       0       0       0       0       0       0       0
       0       0       0       0       0       0       0       0       0       0
       0       0       0       0       0       0       0       0       0       0
       0       0       0       0       0       0       0       0       0       0
       0       0       0       0       0       0       0       0       0       0
       0       0       0       0       0       0       0       0       0       0
       0       0       0       0       0       0       0       0       0       0
       0       0       0       0       0       0       0       0       0       0
       0       0       0       0       0       0       0       0       0       0
       0       0       0       0       0       0       0       0       0       0
       0       0       0       0       0       0       0       0       0       0
       0       0       0       0       0       0       0       0       0       0
       0       0       0       0       0       0       0       0       0       0
       0       0       0       0       0       0       0       0       0       0
       0       0       0       0       0       0       0       0       0       0
       0       0       0       0       0       0       0       0       0       0
       0       0       0       0       0       0       0       0       0       0
       0       0       0       0       0       0       0       0       0       0
       0       0       0       0       0       0       0       0       0       0
       0       0       0       0       0       0       0       0       0       0
       0       0       0       0       0       0       0       0       0       0
       0       0       0       0       0       0       0       0       0       0
       0       0       0       0       0       0       0       0       0       0
       0       0       0       0       0       0       0       0       0       0
       0       0       0       0       0       0       0       0       0       0
       0       0       0       0       0       0       0       0       0       0
       0       0       0       0       0       0       0       0       0       0
       0       0       0       0       0       0       0       0       0       0
       0       0       0       0       0       0       0       0       0       0
       0       0       0       0       0       0       0       0       0       0
       0       0       0       0       0       0       0       0       0       0
       0       0       0       0       0       0       0       0       0       0
       0       0       0       0       0       0       0       0       0       0
       0       0       0       0       0       0       0       0       0       0
       0       0       0       0       0       0       0       0       0       0
       0       0       0       0       0       0       0       0       0       0
       0       0       0       0       0       0       0       0       0       0
       0       0       0       0       0       0       0       0       0       0
       0       0       0       0       0       0       0       0       0       0
       0       0       0       0       0       0       0       0       0       0
       0       0       0       0       0       0       0       0       0       0
       0       0       0       0       0       0       0       0       0       0
       0       0       0       0       0       0       0       0       0       0
       0       0       0       0       0       0       0       0       0       0
       0       0       0       0       0       0       0       0       0       0
       0       0       0       0       0       0       0       0       0       0
       0       0       0       0       0       0       0       0       0       0
       0       0       0       0       0       0       0       0       0       0
       0       0       0       0       0       0       0       0       0       0
       0       0       0       0       0       0       0       0       0       0
       0       0       0       0       0       0       0       0       0       0
       0       0       0       0       0       0       0       0       0       0
       0       0       0       0       0       0       0       0       0       0
       0       0       0       0       0       0       0       0       0       0
       0       0       0       0       0       0       0       0       0       0
       0       0       0       0       0       0       0       0       0       0
       0       0       0       0       0       0       0       0       0       0
       0       0       0       0       0       0       0       0       0       0
       0       0       0       0       0       0       0       0       0       0
       0       0       0       0       0       0       0       0       0       0
       0       0       0       0       0       0       0       0       0       0
       0       0       0       0       0       0       0       0       0       0
       0       0       0       0       0       0       0       0       0       0
       0       0       0       0       0       0       0       0       0       0
       0       0       0       0       0       0       0       0       0       0
       0       0       0       0       0       0       0       0       0       0
       0       0       0       0       0       0       0       0       0       0
       0       0       0       0       0       0       0       0       0       0
       0       0       0       0       0       0       0       0       0       0
       0       0       0       0       0       0       0       0       0       0
       0       0       0       0       0       0       0       0       0       0
       0       0       0       0       0       0       0       0       0       0
       0       0       0       0       0       0       0       0       0       0
       0       0       0       0       0       0       0       0       0       0
       0       0       0       0       0       0       0       0       0       0
       0       0       0       0       0       0       0       0       0       0
       0       0       0       0       0       0       0       0       0       0
       0       0       0       0       0       0       0       0       0       0
       0       0       0       0       0       0       0       0       0       0
       0       0       0       0       0       0       0       0       0       0
       0       0       0       0       0       0       0       0       0       0
       0       0       0       0       0       0       0       0       0       0
       0       0       0       0       0       0       0       0       0       0
       0       0       0       0       0       0       0       0       0       0
       0       0       0       0       0       0       0       0       0       0
       0       0       0       0       0       0       0       0       0       0
       0       0       0       0       0       0       0       0       0       0
       0       0       0       0       0       0       0       0       0       0
       0       0       0       0       0       0       0       0       0       0
       0       0       0       0       0       0       0       0       0       0
       0       0       0       0       0       0       0       0       0       0
       0       0       0       0       0       0       0       0       0       0
       0       0       0       0       0       0       0       0       0       0
       0       0       0       0       0       0       0       0       0       0
       0       0       0       0       0       0       0       0       0       0
       0       0       0       0       0       0       0       0       0       0
       0       0       0       0       0       0       0       0       0       0
       0       0       0       0       0       0       0       0       0       0
       0       0       0       0       0       0       0       0       0       0
       0       0       0       0       0       0       0       0       0       0
       0       0       0       0       0       0       0       0       0       0
       0       0       0       0       0       0       0       0       0       0
       0       0       0       0       0       0       0       0       0       0
       0       0       0       0       0       0       0       0       0       0
       0       0       0       0       0       0       0       0       0       0
       0       0       0       0       0       0       0       0       0       0
       0       0       0       0       0       0       0       0       0       0
       0       0       0       0       0       0       0       0       0       0
       0       0       0       0       0       0       0       0       0       0
       0       0       0       0       0       0       0       0       0       0
       0       0       0       0       0       0       0       0       0       0
       0       0       0       0       0       0       0       0       0       0
       0       0       0       0       0       0       0       0       0       0
       0       0       0       0       0       0       0       0       0       0
       0       0       0       0       0       0       0       0       0       0
       0       0       0       0       0       0       0       0       0       0
       0       0       0       0       0       0       0       0       0       0
       0       0       0       0       0       0       0       0       0       0
       0       0       0       0       0       0       0       0       0       0
       0       0       0       0       0       0       0       0       0       0
       0       0       0       0       0       0       0       0       0       0
       0       0       0       0       0       0       0       0       0       0
       0       0       0       0       0       0       0       0       0       0
       0       0       0       0       0       0       0       0       0       0
       0       0       0       0       0       0       0       0       0       0
       0       0       0       0       0       0       0       0       0       0
       0       0       0       0       0       0       0       0       0       0
       0       0       0       0       0       0       0       0       0       0
       0       0       0       0       0       0       0       0       0       0
       0       0       0       0       0       0       0       0       0       0
       0       0       0       0       0       0       0       0       0       0
       0       0       0       0       0       0       0       0       0       0
       0       0       0       0       0       0       0       0       0       0
       0       0       0       0       0       0       0       0       0       0
       0       0       0       0       0       0       0       0       0       0
       0       0       0       0       0       0       0       0       0       0
       0       0       0       0       0       0       0       0       0       0
       0       0       0       0       0       0       0       0       0       0
       0       0       0       0       0       0       0       0       0       0
       0       0       0       0       0       0       0       0       0       0
       0       0       0       0       0       0       0       0       0       0
       0       0       0       0       0       0       0       0       0       0
       0       0       0       0       0       0       0       0       0       0
       0       0       0       0       0       0       0       0       0       0
       0       0       0       0       0       0       0       0       0       0
       0       0       0       0       0       0       0       0       0       0
       0       0       0       0       0       0       0       0       0       0
       0       0       0       0       0       0       0       0       0       0
       0       0       0       0       0       0       0       0       0       0
       0       0       0       0       0       0       0       0       0       0
       0       0       0       0       0       0       0       0       0       0
       0       0       0       0       0       0       0       0       0       0
       0       0       0       0       0       0       0       0       0       0
       0       0       0       0       0       0       0       0       0       0
       0       0       0       0       0       0       0       0       0       0
       0       0       0       0       0       0       0       0       0       0
       0       0       0       0       0       0       0       0       0       0
       0       0       0       0       0       0       0       0       0       0
       0       0       0       0       0       0       0       0       0       0
       0       0       0       0       0       0       0       0       0       0
       0       0       0       0       0       0       0       0       0       0
       0       0       0       0       0       0       0       0       0       0
       0       0       0       0       0       0       0       0       0       0
       0       0       0       0       0       0       0       0       0       0
       0       0       0       0       0       0       0       0       0       0
       0       0       0       0       0       0       0       0       0       0
       0       0       0       0       0       0       0       0       0       0
       0       0       0       0       0       0       0       0       0       0
       0       0       0       0       0       0       0       0       0       0
       0       0       0       0       0       0       0       0       0       0
       0       0       0       0       0       0       0       0       0       0
       0       0       0       0       0       0       0       0       0       0
       0       0       0       0       0       0       0       0       0       0
       0       0       0       0       0       0       0       0       0       0
       0       0       0       0       0       0       0       0       0       0
       0       0       0       0       0       0       0       0       0       0
       0       0       0       0       0       0       0       0       0       0
       0       0       0       0       0       0       0       0       0       0
       0       0       0       0       0       0       0       0       0       0
       0       0       0       0       0       0       0       0       0       0
       0       0       0       0       0       0       0       0       0       0
       0       0       0       0       0       0       0       0       0       0
       0       0       0       0       0       0       0       0       0       0
       0       0       0       0       0       0       0       0       0       0
       0       0       0       0       0       0       0       0       0       0
       0       0       0       0       0       0       0       0       0       0
       0       0       0       0       0       0       0       0       0       0
       0       0       0       0       0       0       0       0       0       0
       0       0       0       0       0       0       0       0       0       0
       0       0       0       0       0       0       0       0       0       0
       0       0       0       0       0       0       0       0       0       0
       0       0       0       0       0       0       0       0       0       0
       0       0       0       0       0       0       0       0       0       0
       0       0       0       0       0       0       0       0       0       0
       0       0       0       0       0       0       0       0       0       0
       0       0       0       0       0       0       0       0       0       0
       0       0       0       0       0       0       0       0       0       0
       0       0       0       0       0       0       0       0       0       0
       0       0       0       0       0       0       0       0       0       0
       0       0       0       0       0       0       0       0       0       0
       0       0       0       0       0       0       0       0       0       0
       0       0       0       0       0       0       0       0       0       0
       0       0       0       0       0       0       0       0       0       0
       0       0       0       0       0       0       0       0       0       0
       0       0       0       0       0       0       0       0       0       0
       0       0       0       0       0       0       0       0       0       0
       0       0       0       0       0       0       0       0       0       0
       0       0       0       0       0       0       0       0       0       0
       0       0       0       0       0       0       0       0       0       0
       0       0       0       0       0       0       0       0       0       0
       0       0       0       0       0       0       0       0       0       0
       0       0       0       0       0       0       0       0       0       0
       0       0       0       0       0       0       0       0       0       0
       0       0       0       0       0       0       0       0       0       0
       0       0       0       0       0       0       0       0       0       0
       0       0       0       0       0       0       0       0       0       0
       0       0       0       0       0       0       0       0       0       0
       0       0       0       0       0       0       0       0       0       0
       0       0       0       0       0       0       0       0       0       0
       0       0       0       0       0       0       0       0       0       0
       0       0       0       0       0       0       0       0       0       0
       0       0       0       0       0       0       0       0       0       0
       0       0       0       0       0       0       0       0       0       0
       0       0       0       0       0       0       0       0       0       0
       0       0       0       0       0       0       0       0       0       0
       0       0       0       0       0       0       0       0       0       0
       0       0       0       0       0       0       0       0       0       0
       0       0       0       0       0       0       0       0       0       0
       0       0       0       0       0       0       0       0       0       0
       0       0       0       0       0       0       0       0       0       0
       0       0       0       0       0       0       0       0       0       0
       0       0       0       0       0       0       0       0       0       0
       0       0       0       0       0       0       0       0       0       0
       0       0       0       0       0       0       0       0       0       0
       0       0       0       0       0       0       0       0       0       0
       0       0       0       0       0       0       0       0       0       0
       0       0       0       0       0       0       0       0       0       0
       0       0       0       0       0       0       0       0       0       0
       0       0       0       0       0       0       0       0       0       0
       0       0       0       0       0       0       0       0       0       0
       0       0       0       0       0       0       0       0       0       0
       0       0       0       0       0       0       0       0       0       0
       0       0       0       0       0       0       0       0       0       0
       0       0       0       0       0       0       0       0       0       0
       0       0       0       0       0       0       0       0       0       0
       0       0       0       0       0       0       0       0       0       0
       0       0       0       0       0       0       0       0       0       0
       0       0       0       0       0       0       0       0       0       0
       0       0       0       0       0       0       0       0       0       0
       0       0       0       0       0       0       0       0       0       0
       0       0       0       0       0       0       0       0       0       0
       0       0       0       0       0       0       0       0       0       0
       0       0       0       0       0       0       0       0       0       0
       0       0       0       0       0       0       0       0       0       0
       0       0       0       0       0       0       0       0       0       0
       0       0       0       0       0       0       0       0       0       0
       0       0       0       0       0       0       0       0       0       0
       0       0       0       0       0       0       0       0       0       0
       0       0       0       0       0       0       0       0       0       0
       0       0       0       0       0       0       0       0       0       0
       0       0       0       0       0       0       0       0       0       0
       0       0       0       0       0       0       0       0       0       0
       0       0       0       0       0       0       0       0       0       0
       0       0       0       0       0       0       0       0       0       0
       0       0       0       0       0       0       0       0       0       0
       0       0       0       0       0       0       0       0       0       0
       0       0       0       0       0       0       0       0       0       0
       0       0       0       0       0       0       0       0       0       0
       0       0       0       0       0       0       0       0       0       0
       0       0       0       0       0       0       0       0       0       0
       0       0       0       0       0       0       0       0       0       0
       0       0       0       0       0       0       0       0       0       0
       0       0       0       0       0       0       0       0       0       0
       0       0       0       0       0       0       0       0       0       0
       0       0       0       0       0       0       0       0       0       0
       0       0       0       0       0       0       0       0       0       0
       0       0       0       0       0       0       0       0       0       0
       0       0       0       0       0       0       0       0       0       0
       0       0       0       0       0       0       0       0       0       0
       0       0       0       0       0       0       0       0       0       0
       0       0       0       0       0       0       0       0       0       0
       0       0       0       0       0       0       0       0       0       0
       0       0       0       0       0       0       0       0       0       0
       0       0       0       0       0       0       0       0       0       0
       0       0       0       0       0       0       0       0       0       0
       0       0       0       0       0       0       0       0       0       0
       0       0       0       0       0       0       0       0       0       0
       0       0       0       0       0       0       0       0       0       0
       0       0       0       0       0       0       0       0       0       0
       0       0       0       0       0       0       0       0       0       0
       0       0       0       0       0       0       0       0       0       0
       0       0       0       0       0       0       0       0       0       0
       0       0       0       0       0       0       0       0       0       0
       0       0       0       0       0       0       0       0       0       0
       0       0       0       0       0       0       0       0       0       0
       0       0       0       0       0       0       0       0       0       0
       0       0       0       0       0       0       0       0       0       0
       0       0       0       0       0       0       0       0       0       0
       0       0       0       0       0       0       0       0       0       0
       0       0       0       0       0       0       0       0       0       0
       0       0       0       0       0       0       0       0       0       0
       0       0       0       0       0       0       0       0       0       0
       0       0       0       0       0       0       0       0       0       0
       0       0       0       0       0       0       0       0       0       0
       0       0       0       0       0       0       0       0       0       0
       0       0       0       0       0       0       0       0       0       0
       0       0       0       0       0       0       0       0       0       0
       0       0       0       0       0       0       0       0       0       0
       0       0       0       0       0       0       0       0       0       0
       0       0       0       0       0       0       0       0       0       0
       0       0       0       0       0       0       0       0       0       0
       0       0       0       0       0       0       0       0       0       0
       0       0       0       0       0       0       0       0       0       0
       0       0       0       0       0       0       0       0       0       0
       0       0       0       0       0       0       0       0       0       0
       0       0       0       0       0       0       0       0       0       0
       0       0       0       0       0       0       0       0       0       0
       0       0       0       0       0       0       0       0       0       0
       0       0       0       0       0       0       0       0       0       0
       0       0       0       0       0       0       0       0       0       0
       0       0       0       0       0       0       0       0       0       0
       0       0       0       0       0       0       0       0       0       0
       0       0       0       0       0       0       0       0       0       0
       0       0       0       0       0       0       0       0       0       0
       0       0       0       0       0       0       0       0       0       0
       0       0       0       0       0       0       0       0       0       0
       0       0       0       0       0       0       0       0       0       0
       0       0       0       0       0       0       0       0       0       0
       0       0       0       0       0       0       0       0       0       0
       0       0       0       0       0       0       0       0       0       0
       0       0       0       0       0       0       0       0       0       0
       0       0       0       0       0       0       0       0       0       0
       0       0       0       0       0       0       0       0       0       0
       0       0       0       0       0       0       0       0       0       0
       0       0       0       0       0       0       0       0       0       0
       0       0       0       0       0       0       0       0       0       0
       0       0       0       0       0       0       0       0       0       0
       0       0       0       0       0       0       0       0       0       0
       0       0       0       0       0       0       0       0       0       0
       0       0       0       0       0       0       0       0       0       0
       0       0       0       0       0       0       0       0       0       0
       0       0       0       0       0       0       0       0       0       0
       0       0       0       0       0       0       0       0       0       0
       0       0       0       0       0       0       0       0       0       0
       0       0       0       0       0       0       0       0       0       0
       0       0       0       0       0       0       0       0       0       0
       0       0       0       0       0       0       0       0       0       0
       0       0       0       0       0       0       0       0       0       0
       0       0       0       0       0       0       0       0       0       0
       0       0       0       0       0       0       0       0       0       0
       0       0       0       0       0       0       0       0       0       0
       0       0       0       0       0       0       0       0       0       0
       0       0       0       0       0       0       0       0       0       0
       0       0       0       0       0       0       0       0       0       0
       0       0       0       0       0       0       0       0       0       0
       0       0       0       0       0       0       0       0       0       0
       0       0       0       0       0       0       0       0       0       0
       0       0       0       0       0       0       0       0       0       0
       0       0       0       0       0       0       0       0       0       0
       0       0       0       0       0       0       0       0       0       0
       0       0       0       0       0       0       0       0       0       0
       0       0       0       0       0       0       0       0       0       0
       0       0       0       0       0       0       0       0       0       0
       0       0       0       0       0       0       0       0       0       0
       0       0       0       0       0       0       0       0       0       0
       0       0       0       0       0       0       0       0       0       0
       0       0       0       0       0       0       0       0       0       0
       0       0       0       0       0       0       0       0       0       0
       0       0       0       0       0       0       0       0       0       0
       0       0       0       0       0       0       0       0       0       0
       0       0       0       0       0       0       0       0       0       0
       0       0       0       0       0       0       0       0       0       0
       0       0       0       0       0       0       0       0       0       0
       0       0       0       0       0       0       0       0       0       0
       0       0       0       0       0       0       0       0       0       0
       0       0       0       0       0       0       0       0       0       0
       0       0       0       0       0       0       0       0       0       0
       0       0       0       0       0       0       0       0       0       0
       0       0       0       0       0       0       0       0       0       0
       0       0       0       0       0       0       0       0       0       0
       0       0       0       0       0       0       0       0       0       0
       0       0       0       0       0       0       0       0       0       0
       0       0       0       0       0       0       0       0       0       0
       0       0       0       0       0       0       0       0       0       0
       0       0       0       0       0       0       0       0       0       0
       0       0       0       0       0       0       0       0       0       0
       0       0       0       0       0       0       0       0       0       0
       0       0       0       0       0       0       0       0       0       0
       0       0       0       0       0       0       0       0       0       0
       0       0       0       0       0       0       0       0       0       0
       0       0       0       0       0       0       0       0       0       0
       0       0       0       0       0       0       0       0       0       0
       0       0       0       0       0       0       0       0       0       0
       0       0       0       0       0       0       0       0       0       0
       0       0       0       0       0       0       0       0       0       0
       0       0       0       0       0       0       0       0       0       0
       0       0       0       0       0       0       0       0       0       0
       0       0       0       0       0       0       0       0       0       0
       0       0       0       0       0       0       0       0       0       0
       0       0       0       0       0       0       0       0       0       0
       0       0       0       0       0       0       0       0       0       0
       0       0       0       0       0       0       0       0       0       0
       0       0       0       0       0       0       0       0       0       0
       0       0       0       0       0       0       0       0       0       0
       0       0       0       0       0       0       0       0       0       0
       0       0       0       0       0       0       0       0       0       0
       0       0       0       0       0       0       0       0       0       0
       0       0       0       0       0       0       0       0       0       0
       0       0       0       0       0       0       0       0       0       0
       0       0       0       0       0       0       0       0       0       0
       0       0       0       0       0       0       0       0       0       0
       0       0       0       0       0       0       0       0       0       0
       0       0       0       0       0       0       0       0       0       0
       0       0       0       0       0       0       0       0       0       0
       0       0       0       0       0       0       0       0       0       0
       0       0       0       0       0       0       0       0       0       0
       0       0       0       0       0       0       0       0       0       0
       0       0       0       0       0       0       0       0       0       0
       0       0       0       0       0       0       0       0       0       0
       0       0       0       0       0       0       0       0       0       0
       0       0       0       0       0       0       0       0       0       0
       0       0       0       0       0       0       0       0       0       0
       0       0       0       0       0       0       0       0       0       0
       0       0       0       0       0       0       0       0       0       0
       0       0       0       0       0       0       0       0       0       0
       0       0       0       0       0       0       0       0       0       0
       0       0       0       0       0       0       0       0       0       0
       0       0       0       0       0       0       0       0       0       0
       0       0       0       0       0       0       0       0       0       0
       0       0       0       0       0       0       0       0       0       0
       0       0       0       0       0       0       0       0       0       0
       0       0       0       0       0       0       0       0       0       0
       0       0       0       0       0       0       0       0       0       0
       0       0       0       0       0       0       0       0       0       0
       0       0       0       0       0       0       0       0       0       0
       0       0       0       0       0       0       0       0       0       0
       0       0       0       0       0       0       0       0       0       0
       0       0       0       0       0       0       0       0       0       0
       0       0       0       0       0       0       0       0       0       0
       0       0       0       0       0       0       0       0       0       0
       0       0       0       0       0       0       0       0       0       0
       0       0       0       0       0       0       0       0       0       0
       0       0       0       0       0       0       0       0       0       0
       0       0       0       0       0       0       0       0       0       0
       0       0       0       0       0       0       0       0       0       0
       0       0       0       0       0       0       0       0       0       0
       0       0       0       0       0       0       0       0       0       0
       0       0       0       0       0       0       0       0       0       0
       0       0       0       0       0       0       0       0       0       0
       0       0       0       0       0       0       0       0       0       0
       0       0       0       0       0       0       0       0       0       0
       0       0       0       0       0       0       0       0       0       0
       0       0       0       0       0       0       0       0       0       0
       0       0       0       0       0       0       0       0       0       0
       0       0       0       0       0       0       0       0       0       0
       0       0       0       0       0       0       0       0       0       0
       0       0       0       0       0       0       0       0       0       0
       0       0       0       0       0       0       0       0       0       0
       0       0       0       0       0       0       0       0       0       0
       0       0       0       0       0       0       0       0       0       0
       0       0       0       0       0       0       0       0       0       0
       0       0       0       0       0       0       0       0       0       0
       0       0       0       0       0       0       0       0       0       0
       0       0       0       0       0       0       0       0       0       0
       0       0       0       0       0       0       0       0       0       0
       0       0       0       0       0       0       0       0       0       0
       0       0       0       0       0       0       0       0       0       0
       0       0       0       0       0       0       0       0       0       0
       0       0       0       0       0       0       0       0       0       0
       0       0       0       0       0       0       0       0       0       0
       0       0       0       0       0       0       0       0       0       0
       0       0       0       0       0       0       0       0       0       0
       0       0       0       0       0       0       0       0       0       0
       0       0       0       0       0       0       0       0       0       0
       0       0       0       0       0       0       0       0       0       0
       0       0       0       0       0       0       0       0       0       0
       0       0       0       0       0       0       0       0       0       0
       0       0       0       0       0       0       0       0       0       0
       0       0       0       0       0       0       0       0       0       0
       0       0       0       0       0       0       0       0       0       0
       0       0       0       0       0       0       0       0       0       0
       0       0       0       0       0       0       0       0       0       0
       0       0       0       0       0       0       0       0       0       0
       0       0       0       0       0       0       0       0       0       0
       0       0       0       0       0       0       0       0       0       0
       0       0       0       0       0       0       0       0       0       0
       0       0       0       0       0       0       0       0       0       0
       0       0       0       0       0       0       0       0       0       0
       0       0       0       0       0       0       0       0       0       0
       0       0       0       0       0       0       0       0       0       0
       0       0       0       0       0       0       0       0       0       0
       0       0       0       0       0       0       0       0       0       0
       0       0       0       0       0       0       0       0       0       0
       0       0       0       0       0       0       0       0       0       0
       0       0       0       0       0       0       0       0       0       0
       0       0       0       0       0       0       0       0       0       0
       0       0       0       0       0       0       0       0       0       0
       0       0       0       0       0       0       0       0       0       0
       0       0       0       0       0       0       0       0       0       0
       0       0       0       0       0       0       0       0       0       0
       0       0       0       0       0       0       0       0       0       0
       0       0       0       0       0       0       0       0       0       0
       0       0       0       0       0       0       0       0       0       0
       0       0       0       0       0       0       0       0       0       0
       0       0       0       0       0       0       0       0       0       0
       0       0       0       0       0       0       0       0       0       0
       0       0       0       0       0       0       0       0       0       0
       0       0       0       0       0       0       0       0       0       0
       0       0       0       0       0       0       0       0       0       0
       0       0       0       0       0       0       0       0       0       0
       0       0       0       0       0       0       0       0       0       0
       0       0       0       0       0       0       0       0       0       0
       0       0       0       0       0       0       0       0       0       0
       0       0       0       0       0       0       0       0       0       0
       0       0       0       0       0       0       0       0       0       0
       0       0       0       0       0       0       0       0       0       0
       0       0       0       0       0       0       0       0       0       0
       0       0       0       0       0       0       0       0       0       0
       0       0       0       0       0       0       0       0       0       0
       0       0       0       0       0       0       0       0       0       0
       0       0       0       0       0       0       0       0       0       0
       0       0       0       0       0       0       0       0       0       0
       0       0       0       0       0       0       0       0       0       0
       0       0       0       0       0       0       0       0       0       0
       0       0       0       0       0       0       0       0       0       0
       0       0       0       0       0       0       0       0       0       0
       0       0       0       0       0       0       0       0       0       0
       0       0       0       0       0       0       0       0       0       0
       0       0       0       0       0       0       0       0       0       0
       0       0       0       0       0       0       0       0       0       0
       0       0       0       0       0       0       0       0       0       0
       0       0       0       0       0       0       0       0       0       0
       0       0       0       0       0       0       0       0       0       0
       0       0       0       0       0       0       0       0       0       0
       0       0       0       0       0       0       0       0       0       0
       0       0       0       0       0       0       0       0       0       0
       0       0       0       0       0       0       0       0       0       0
       0       0       0       0       0       0       0       0       0       0
       0       0       0       0       0       0       0       0       0       0
       0       0       0       0       0       0       0       0       0       0
       0       0       0       0       0       0       0       0       0       0
       0       0       0       0       0       0       0       0       0       0
       0       0       0       0       0       0       0       0       0       0
       0       0       0       0       0       0       0       0       0       0
       0       0       0       0       0       0       0       0       0       0
       0       0       0       0       0       0       0       0       0       0
       0       0       0       0       0       0       0       0       0       0
       0       0       0       0       0       0       0       0       0       0
       0       0       0       0       0       0       0       0       0       0
       0       0       0       0       0       0       0       0       0       0
       0       0       0       0       0       0       0       0       0       0
       0       0       0       0       0       0       0       0       0       0
       0       0       0       0       0       0       0       0       0       0
       0       0       0       0       0       0       0       0       0       0
       0       0       0       0       0       0       0       0       0       0
       0       0       0       0       0       0       0       0       0       0
       0       0       0       0       0       0       0       0       0       0
       0       0       0       0       0       0       0       0       0       0
       0       0       0       0       0       0       0       0       0       0
       0       0       0       0       0       0       0       0       0       0
       0       0       0       0       0       0       0       0       0       0
       0       0       0       0       0       0       0       0       0       0
       0       0       0       0       0       0       0       0       0       0
       0       0       0       0       0       0       0       0       0       0
       0       0       0       0       0       0       0       0       0       0
       0       0       0       0       0       0       0       0       0       0
       0       0       0       0       0       0       0       0       0       0
       0       0       0       0       0       0       0       0       0       0
       0       0       0       0       0       0       0       0       0       0
       0       0       0       0       0       0       0       0       0       0
       0       0       0       0       0       0       0       0       0       0
       0       0       0       0       0       0       0       0       0       0
       0       0       0       0       0       0       0       0       0       0
       0       0       0       0       0       0       0       0       0       0
       0       0       0       0       0       0       0       0       0       0
       0       0       0       0       0       0       0       0       0       0
       0       0       0       0       0       0       0       0       0       0
       0       0       0       0       0       0       0       0       0       0
       0       0       0       0       0       0       0       0       0       0
       0       0       0       0       0       0       0       0       0       0
       0       0       0       0       0       0       0       0       0       0
       0       0       0       0       0       0       0       0       0       0
       0       0       0       0       0       0       0       0       0       0
       0       0       0       0       0       0       0       0       0       0
       0       0       0       0       0       0       0       0       0       0
       0       0       0       0       0       0       0       0       0       0
       0       0       0       0       0       0       0       0       0       0
       0       0       0       0       0       0       0       0       0       0
       0       0       0       0       0       0       0       0       0       0
       0       0       0       0       0       0       0       0       0       0
       0       0       0       0       0       0       0       0       0       0
       0       0       0       0       0       0       0       0       0       0
       0       0       0       0       0       0       0       0       0       0
       0       0       0       0       0       0       0       0       0       0
       0       0       0       0       0       0       0       0       0       0
       0       0       0       0       0       0       0       0       0       0
       0       0       0       0       0       0       0       0       0       0
       0       0       0       0       0       0       0       0       0       0
       0       0       0       0       0       0       0       0       0       0
       0       0       0       0       0       0       0       0       0       0
       0       0       0       0       0       0       0       0       0       0
       0       0       0       0       0       0       0       0       0       0
       0       0       0       0       0       0       0       0       0       0
       0       0       0       0       0       0       0       0       0       0
       0       0       0       0       0       0       0       0       0       0
       0       0       0       0       0       0       0       0       0       0
       0       0       0       0       0       0       0       0       0       0
       0       0       0       0       0       0       0       0       0       0
       0       0       0       0       0       0       0       0       0       0
       0       0       0       0       0       0       0       0       0       0
       0       0       0       0       0       0       0       0       0       0
       0       0       0       0       0       0       0       0       0       0
       0       0       0       0       0       0       0       0       0       0
       0       0       0       0       0       0       0       0       0       0
       0       0       0       0       0       0       0       0       0       0
       0       0       0       0       0       0       0       0       0       0
       0       0       0       0       0       0       0       0       0       0
       0       0       0       0       0       0       0       0       0       0
       0       0       0       0       0       0       0       0       0       0
       0       0       0       0       0       0       0       0       0       0
       0       0       0       0       0       0       0       0       0       0
       0       0       0       0       0       0       0       0       0       0
       0       0       0       0       0       0       0       0       0       0
       0       0       0       0       0       0       0       0       0       0
       0       0       0       0       0       0       0       0       0       0
       0       0       0       0       0       0       0       0       0       0
       0       0       0       0       0       0       0       0       0       0
       0       0       0       0       0       0       0       0       0       0
       0       0       0       0       0       0       0       0       0       0
       0       0       0       0       0       0       0       0       0       0
       0       0       0       0       0       0       0       0       0       0
       0       0       0       0       0       0       0       0       0       0
       0       0       0       0       0       0       0       0       0       0
       0       0       0       0       0       0       0       0       0       0
       0       0       0       0       0       0       0       0       0       0
       0       0       0       0       0       0       0       0       0       0
       0       0       0       0       0       0       0       0       0       0
       0       0       0       0       0       0       0       0       0       0
       0       0       0       0       0       0       0       0       0       0
       0       0       0       0       0       0       0       0       0       0
       0       0       0       0       0       0       0       0       0       0
       0       0       0       0       0       0       0       0       0       0
       0       0       0       0       0       0       0       0       0       0
       0       0       0       0       0       0       0       0       0       0
       0       0       0       0       0       0       0       0       0       0
       0       0       0       0       0       0       0       0       0       0
       0       0       0       0       0       0       0       0       0       0
       0       0       0       0       0       0       0       0       0       0
       0       0       0       0       0       0       0       0       0       0
       0       0       0       0       0       0       0       0       0       0
       0       0       0       0       0       0       0       0       0       0
       0       0       0       0       0       0       0       0       0       0
       0       0       0       0       0       0       0       0       0       0
       0       0       0       0       0       0       0       0       0       0
       0       0       0       0       0       0       0       0       0       0
       0       0       0       0       0       0       0       0       0       0
       0       0       0       0       0       0       0       0       0       0
       0       0       0       0       0       0       0       0       0       0
       0       0       0       0       0       0       0       0       0       0
       0       0       0       0       0       0       0       0       0       0
       0       0       0       0       0       0       0       0       0       0
       0       0       0       0       0       0       0       0       0       0
       0       0       0       0       0       0       0       0       0       0
       0       0       0       0       0       0       0       0       0       0
       0       0       0       0       0       0       0       0       0       0
       0       0       0       0       0       0       0       0       0       0
       0       0       0       0       0       0       0       0       0       0
       0       0       0       0       0       0       0       0       0       0
       0       0       0       0       0       0       0       0       0       0
       0       0       0       0       0       0       0       0       0       0
       0       0       0       0       0       0       0       0       0       0
       0       0       0       0       0       0       0       0       0       0
       0       0       0       0       0       0       0       0       0       0
       0       0       0       0       0       0       0       0       0       0
       0       0       0       0       0       0       0       0       0       0
       0       0       0       0       0       0       0       0       0       0
       0       0       0       0       0       0       0       0       0       0
       0       0       0       0       0       0       0       0       0       0
       0       0       0       0       0       0       0       0       0       0
       0       0       0       0       0       0       0       0       0       0
       0       0       0       0       0       0       0       0       0       0
       0       0       0       0       0       0       0       0       0       0
       0       0       0       0       0       0       0       0       0       0
       0       0       0       0       0       0       0       0       0       0
       0       0       0       0       0       0       0       0       0       0
       0       0       0       0       0       0       0       0       0       0
       0       0       0       0       0       0       0       0       0       0
       0       0       0       0       0       0       0       0       0       0
       0       0       0       0       0       0       0       0       0       0
       0       0       0       0       0       0       0       0       0       0
       0       0       0       0       0       0       0       0       0       0
       0       0       0       0       0       0       0       0       0       0
       0       0       0       0       0       0       0       0       0       0
       0       0       0       0       0       0       0       0       0       0
       0       0       0       0       0       0       0       0       0       0
       0       0       0       0       0       0       0       0       0       0
       0       0       0       0       0       0       0       0       0       0
       0       0       0       0       0       0       0       0       0       0
       0       0       0       0       0       0       0       0       0       0
       0       0       0       0       0       0       0       0       0       0
       0       0       0       0       0       0       0       0       0       0
       0       0       0       0       0       0       0       0       0       0
       0       0       0       0       0       0       0       0       0       0
       0       0       0       0       0       0       0       0       0       0
       0       0       0       0       0       0       0       0       0       0
       0       0       0       0       0       0       0       0       0       0
       0       0       0       0       0       0       0       0       0       0
       0       0       0       0       0       0       0       0       0       0
       0       0       0       0       0       0       0       0       0       0
       0       0       0       0       0       0       0       0       0       0
       0       0       0       0       0       0       0       0       0       0
       0       0       0       0       0       0       0       0       0       0
       0       0       0       0       0       0       0       0       0       0
       0       0       0       0       0       0       0       0       0       0
       0       0       0       0       0       0       0       0       0       0
       0       0       0       0       0       0       0       0       0       0
       0       0       0       0       0       0       0       0       0       0
       0       0       0       0       0       0       0       0       0       0
       0       0       0       0       0       0       0       0       0       0
       0       0       0       0       0       0       0       0       0       0
       0       0       0       0       0       0       0       0       0       0
       0       0       0       0       0       0       0       0       0       0
       0       0       0       0       0       0       0       0       0       0
       0       0       0       0       0       0       0       0       0       0
       0       0       0       0       0       0       0       0       0       0
       0       0       0       0       0       0       0       0       0       0
       0       0       0       0       0       0       0       0       0       0
       0       0       0       0       0       0       0       0       0       0
       0       0       0       0       0       0       0       0       0       0
       0       0       0       0       0       0       0       0       0       0
       0       0       0       0       0       0       0       0       0       0
       0       0       0       0       0       0       0       0       0       0
       0       0       0       0       0       0       0       0       0       0
       0       0       0       0       0       0       0       0       0       0
       0       0       0       0       0       0       0       0       0       0
       0       0       0       0       0       0       0       0       0       0
       0       0       0       0       0       0       0       0       0       0
       0       0       0       0       0       0       0       0       0       0
       0       0       0       0       0       0       0       0       0       0
       0       0       0       0       0       0       0       0       0       0
       0       0       0       0       0       0       0       0       0       0
       0       0       0       0       0       0       0       0       0       0
       0       0       0       0       0       0       0       0       0       0
       0       0       0       0       0       0       0       0       0       0
       0       0       0       0       0       0       0       0       0       0
       0       0       0       0       0       0       0       0       0       0
       0       0       0       0       0       0       0       0       0       0
       0       0       0       0       0       0       0       0       0       0
       0       0       0       0       0       0       0       0       0       0
       0       0       0       0       0       0       0       0       0       0
       0       0       0       0       0       0       0       0       0       0
       0       0       0       0       0       0       0       0       0       0
       0       0       0       0       0       0       0       0       0       0
       0       0       0       0       0       0       0       0       0       0
       0       0       0       0       0       0       0       0       0       0
       0       0       0       0       0       0       0       0       0       0
       0       0       0       0       0       0       0       0       0       0
       0       0       0       0       0       0       0       0       0       0
       0       0       0       0       0       0       0       0       0       0
       0       0       0       0       0       0       0       0       0       0
       0       0       0       0       0       0       0       0       0       0
       0       0       0       0       0       0       0       0       0       0
       0       0       0       0       0       0       0       0       0       0
       0       0       0       0       0       0       0       0       0       0
       0       0       0       0       0       0       0       0       0       0
       0       0       0       0       0       0       0       0       0       0
       0       0       0       0       0       0       0       0       0       0
       0       0       0       0       0       0       0       0       0       0
       0       0       0       0       0       0       0       0       0       0
       0       0       0       0       0       0       0       0       0       0
       0       0       0       0       0       0       0       0       0       0
       0       0       0       0       0       0       0       0       0       0
       0       0       0       0       0       0       0       0       0       0
       0       0       0       0       0       0       0       0       0       0
       0       0       0       0       0       0       0       0       0       0
       0       0       0       0       0       0       0       0       0       0
       0       0       0       0       0       0       0       0       0       0
       0       0       0       0       0       0       0       0       0       0
       0       0       0       0       0       0       0       0       0       0
       0       0       0       0       0       0       0       0       0       0
       0       0       0       0       0       0       0       0       0       0
       0       0       0       0       0       0       0       0       0       0
       0       0       0       0       0       0       0       0       0       0
       0       0       0       0       0       0       0       0       0       0
       0       0       0       0       0       0       0       0       0       0
       0       0       0       0       0       0       0       0       0       0
       0       0       0       0       0       0       0       0       0       0
       0       0       0       0       0       0       0       0       0       0
       0       0       0       0       0       0       0       0       0       0
       0       0       0       0       0       0       0       0       0       0
       0       0       0       0       0       0       0       0       0       0
       0       0       0       0       0       0       0       0       0       0
       0       0       0       0       0       0       0       0       0       0
       0       0       0       0       0       0       0       0       0       0
       0       0       0       0       0       0       0       0       0       0
       0       0       0       0       0       0       0       0       0       0
       0       0       0       0       0       0       0       0       0       0
       0       0       0       0       0       0       0       0       0       0
       0       0       0       0       0       0       0       0       0       0
       0       0       0       0       0       0       0       0       0       0
       0       0       0       0       0       0       0       0       0       0
       0       0       0       0       0       0       0       0       0       0
       0       0       0       0       0       0       0       0       0       0
       0       0       0       0       0       0       0       0       0       0
       0       0       0       0       0       0       0       0       0       0
       0       0       0       0       0       0       0       0       0       0
       0       0       0       0       0       0       0       0       0       0
       0       0       0       0       0       0       0       0       0       0
       0       0       0       0       0       0       0       0       0       0
       0       0       0       0       0       0       0       0       0       0
       0       0       0       0       0       0       0       0       0       0
       0       0       0       0       0       0       0       0       0       0
       0       0       0       0       0       0       0       0       0       0
       0       0       0       0       0       0       0       0       0       0
       0       0       0       0       0       0       0       0       0       0
       0       0       0       0       0       0       0       0       0       0
       0       0       0       0       0       0       0       0       0       0
       0       0       0       0       0       0       0       0       0       0
       0       0       0       0       0       0       0       0       0       0
       0       0       0       0       0       0       0       0       0       0
       0       0       0       0       0       0       0       0       0       0
       0       0       0       0       0       0       0       0       0       0
       0       0       0       0       0       0       0       0       0       0
       0       0       0       0       0       0       0       0       0       0
       0       0       0       0       0       0       0       0       0       0
       0       0       0       0       0       0       0       0       0       0
       0       0       0       0       0       0       0       0       0       0
       0       0       0       0       0       0       0       0       0       0
       0       0       0       0       0       0       0       0       0       0
       0       0       0       0       0       0       0       0       0       0
       0       0       0       0       0       0       0       0       0       0
       0       0       0       0       0       0       0       0       0       0
       0       0       0       0       0       0       0       0       0       0
       0       0       0       0       0       0       0       0       0       0
       0       0       0       0       0       0       0       0       0       0
       0       0       0       0       0       0       0       0       0       0
       0       0       0       0       0       0       0       0       0       0
       0       0       0       0       0       0       0       0       0       0
       0       0       0       0       0       0       0       0       0       0
       0       0       0       0       0       0       0       0       0       0
       0       0       0       0       0       0       0       0       0       0
       0       0       0       0       0       0       0       0       0       0
       0       0       0       0       0       0       0       0       0       0
       0       0       0       0       0       0       0       0       0       0
       0       0       0       0       0       0       0       0       0       0
       0       0       0       0       0       0       0       0       0       0
       0       0       0       0       0       0       0       0       0       0
       0       0       0       0       0       0       0       0       0       0
       0       0       0       0       0       0       0       0       0       0
       0       0       0       0       0       0       0       0       0       0
       0       0       0       0       0       0       0       0       0       0
       0       0       0       0       0       0       0       0       0       0
       0       0       0       0       0       0       0       0       0       0
       0       0       0       0       0       0       0       0       0       0
       0       0       0       0       0       0       0       0       0       0
       0       0       0       0       0       0       0       0       0       0
       0       0       0       0       0       0       0       0       0       0
       0       0       0       0       0       0       0       0       0       0
       0       0       0       0       0       0       0       0       0       0
       0       0       0       0       0       0       0       0       0       0
       0       0       0       0       0       0       0       0       0       0
       0       0       0       0       0       0       0       0       0       0
       0       0       0       0       0       0       0       0       0       0
       0       0       0       0       0       0       0       0       0       0
       0       0       0       0       0       0       0       0       0       0
       0       0       0       0       0       0       0       0       0       0
       0       0       0       0       0       0       0       0       0       0
       0       0       0       0       0       0       0       0       0       0
       0       0       0       0       0       0       0       0       0       0
       0       0       0       0       0       0       0       0       0       0
       0       0       0       0       0       0       0       0       0       0
       0       0       0       0       0       0       0       0       0       0
       0       0       0       0       0       0       0       0       0       0
       0       0       0       0       0       0       0       0       0       0
       0       0       0       0       0       0       0       0       0       0
       0       0       0       0       0       0       0       0       0       0
       0       0       0       0       0       0       0       0       0       0
       0       0       0       0       0       0       0       0       0       0
       0       0       0       0       0       0       0       0       0       0
       0       0       0       0       0       0       0       0       0       0
       0       0       0       0       0       0       0       0       0       0
       0       0       0       0       0       0       0       0       0       0
       0       0       0       0       0       0       0       0       0       0
       0       0       0       0       0       0       0       0       0       0
       0       0       0       0       0       0       0       0       0       0
       0       0       0       0       0       0       0       0       0       0
       0       0       0       0       0       0       0       0       0       0
       0       0       0       0       0       0       0       0       0       0
       0       0       0       0       0       0       0       0       0       0
       0       0       0       0       0       0       0       0       0       0
       0       0       0       0       0       0       0       0       0       0
       0       0       0       0       0       0       0       0       0       0
       0       0       0       0       0       0       0       0       0       0
       0       0       0       0       0       0       0       0       0       0
       0       0       0       0       0       0       0       0       0       0
       0       0       0       0       0       0       0       0       0       0
       0       0       0       0       0       0       0       0       0       0
       0       0       0       0       0       0       0       0       0       0
       0       0       0       0       0       0       0       0       0       0
       0       0       0       0       0       0       0       0       0       0
       0       0       0       0       0       0       0       0       0       0
       0       0       0       0       0       0       0       0       0       0
       0       0       0       0       0       0       0       0       0       0
       0       0       0       0       0       0       0       0       0       0
       0       0       0       0       0       0       0       0       0       0
       0       0       0       0       0       0       0       0       0       0
       0       0       0       0       0       0       0       0       0       0
       0       0       0       0       0       0       0       0       0       0
       0       0       0       0       0       0       0       0       0       0
       0       0       0       0       0       0       0       0       0       0
       0       0       0       0       0       0       0       0       0       0
       0       0       0       0       0       0       0       0       0       0
       0       0       0       0       0       0       0       0       0       0
       0       0       0       0       0       0       0       0       0       0
       0       0       0       0       0       0       0       0       0       0
       0       0       0       0       0       0       0       0       0       0
       0       0       0       0       0       0       0       0       0       0
       0       0       0       0       0       0       0       0       0       0
       0       0       0       0       0       0       0       0       0       0
       0       0       0       0       0       0       0       0       0       0
       0       0       0       0       0       0       0       0       0       0
       0       0       0       0       0       0       0       0       0       0
       0       0       0       0       0       0       0       0       0       0
       0       0       0       0       0       0       0       0       0       0
       0       0       0       0       0       0       0       0       0       0
       0       0       0       0       0       0       0       0       0       0
       0       0       0       0       0       0       0       0       0       0
       0       0       0       0       0       0       0       0       0       0
       0       0       0       0       0       0       0       0       0       0
       0       0       0       0       0       0       0       0       0       0
       0       0       0       0       0       0       0       0       0       0
       0       0       0       0       0       0       0       0       0       0
       0       0       0       0       0       0       0       0       0       0
       0       0       0       0       0       0       0       0       0       0
       0       0       0       0       0       0       0       0       0       0
       0       0       0       0       0       0       0       0       0       0
       0       0       0       0       0       0       0       0       0       0
       0       0       0       0       0       0       0       0       0       0
       0       0       0       0       0       0       0       0       0       0
       0       0       0       0       0       0       0       0       0       0
       0       0       0       0       0       0       0       0       0       0
       0       0       0       0       0       0       0       0       0       0
       0       0       0       0       0       0       0       0       0       0
       0       0       0       0       0       0       0       0       0       0
       0       0       0       0       0       0       0       0       0       0
       0       0       0       0       0       0       0       0       0       0
       0       0       0       0       0       0       0       0       0       0
       0       0       0       0       0       0       0       0       0       0
       0       0       0       0       0       0       0       0       0       0
       0       0       0       0       0       0       0       0       0       0
       0       0       0       0       0       0       0       0       0       0
       0       0       0       0       0       0       0       0       0       0
       0       0       0       0       0       0       0       0       0       0
       0       0       0       0       0       0       0       0       0       0
       0       0       0       0       0       0       0       0       0       0
       0       0       0       0       0       0       0       0       0       0
       0       0       0       0       0       0       0       0       0       0
       0       0       0       0       0       0       0       0       0       0
       0       0       0       0       0       0       0       0       0       0
       0       0       0       0       0       0       0       0       0       0
       0       0       0       0       0       0       0       0       0       0
       0       0       0       0       0       0       0       0       0       0
       0       0       0       0       0       0       0       0       0       0
       0       0       0       0       0       0       0       0       0       0
       0       0       0       0       0       0       0       0       0       0
       0       0       0       0       0       0       0       0       0       0
       0       0       0       0       0       0       0       0       0       0
       0       0       0       0       0       0       0       0       0       0
       0       0       0       0       0       0       0       0       0       0
       0       0       0       0       0       0       0       0       0       0
       0       0       0       0       0       0       0       0       0       0
       0       0       0       0       0       0       0       0       0       0
       0       0       0       0       0       0       0       0       0       0
       0       0       0       0       0       0       0       0       0       0
       0       0       0       0       0       0       0       0       0       0
       0       0       0       0       0       0       0       0       0       0
       0       0       0       0       0       0       0       0       0       0
       0       0       0       0       0       0       0       0       0       0
       0       0       0       0       0       0       0       0       0       0
       0       0       0       0       0       0       0       0       0       0
       0       0       0       0       0       0       0       0       0       0
       0       0       0       0       0       0       0       0       0       0
       0       0       0       0       0       0       0       0       0       0
       0       0       0       0       0       0       0       0       0       0
       0       0       0       0       0       0       0       0       0       0
       0       0       0       0       0       0       0       0       0       0
       0       0       0       0       0       0       0       0       0       0
       0       0       0       0       0       0       0       0       0       0
       0       0       0       0       0       0       0       0       0       0
       0       0       0       0       0       0       0       0       0       0
       0       0       0       0       0       0       0       0       0       0
       0       0       0       0       0       0       0       0       0       0
       0       0       0       0       0       0       0       0       0       0
       0       0       0       0       0       0       0       0       0       0
       0       0       0       0       0       0       0       0       0       0
       0       0       0       0       0       0       0       0       0       0
       0       0       0       0       0       0       0       0       0       0
       0       0       0       0       0       0       0       0       0       0
       0       0       0       0       0       0       0       0       0       0
       0       0       0       0       0       0       0       0       0       0
       0       0       0       0       0       0       0       0       0       0
       0       0       0       0       0       0       0       0       0       0
       0       0       0       0       0       0       0       0       0       0
       0       0       0       0       0       0       0       0       0       0
       0       0       0       0       0       0       0       0       0       0
       0       0       0       0       0       0       0       0       0       0
       0       0       0       0       0       0       0       0       0       0
       0       0       0       0       0       0       0       0       0       0
       0       0       0       0       0       0       0       0       0       0
       0       0       0       0       0       0       0       0       0       0
       0       0       0       0       0       0       0       0       0       0
       0       0       0       0       0       0       0       0       0       0
       0       0       0       0       0       0       0       0       0       0
       0       0       0       0       0       0       0       0       0       0
       0       0       0       0       0       0       0       0       0       0
       0       0       0       0       0       0       0       0       0       0
       0       0       0       0       0       0       0       0       0       0
       0       0       0       0       0       0       0       0       0       0
       0       0       0       0       0       0       0       0       0       0
       0       0       0       0       0       0       0       0       0       0
       0       0       0       0       0       0       0       0       0       0
       0       0       0       0       0       0       0       0       0       0
       0       0       0       0       0       0       0       0       0       0
       0       0       0       0       0       0       0       0       0       0
       0       0       0       0       0       0       0       0       0       0
       0       0       0       0       0       0       0       0       0       0
       0       0       0       0       0       0       0       0       0       0
       0       0       0       0       0       0       0       0       0       0
       0       0       0       0       0       0       0       0       0       0
       0       0       0       0       0       0       0       0       0       0
       0       0       0       0       0       0       0       0       0       0
       0       0       0       0       0       0       0       0       0       0
       0       0       0       0       0       0       0       0       0       0
       0       0       0       0       0       0       0       0       0       0
       0       0       0       0       0       0       0       0       0       0
       0       0       0       0       0       0       0       0       0       0
       0       0       0       0       0       0       0       0       0       0
       0       0       0       0       0       0       0       0       0       0
       0       0       0       0       0       0       0       0       0       0
       0       0       0       0       0       0       0       0       0       0
       0       0       0       0       0       0       0       0       0       0
       0       0       0       0       0       0       0       0       0       0
       0       0       0       0       0       0       0       0       0       0
       0       0       0       0       0       0       0       0       0       0
       0       0       0       0       0       0       0       0       0       0
       0       0       0       0       0       0       0       0       0       0
       0       0       0       0       0       0       0       0       0       0
       0       0       0       0       0       0       0       0       0       0
       0       0       0       0       0       0       0       0       0       0
       0       0       0       0       0       0       0       0       0       0
       0       0       0       0       0       0       0       0       0       0
       0       0       0       0       0       0       0       0       0       0
       0       0       0       0       0       0       0       0       0       0
       0       0       0       0       0       0       0       0       0       0
       0       0       0       0       0       0       0       0       0       0
       0       0       0       0       0       0       0       0       0       0
       0       0       0       0       0       0       0       0       0       0
       0       0       0       0       0       0       0       0       0       0
       0       0       0       0       0       0       0       0       0       0
       0       0       0       0       0       0       0       0       0       0
       0       0       0       0       0       0       0       0       0       0
       0       0       0       0       0       0       0       0       0       0
       0       0       0       0       0       0       0       0       0       0
       0       0       0       0       0       0       0       0       0       0
       0       0       0       0       0       0       0       0       0       0
       0       0       0       0       0       0       0       0       0       0
       0       0       0       0       0       0       0       0       0       0
       0       0       0       0       0       0       0       0       0       0
       0       0       0       0       0       0       0       0       0       0
       0       0       0       0       0       0       0       0       0       0
       0       0       0       0       0       0       0       0       0       0
       0       0       0       0       0       0       0       0       0       0
       0       0       0       0       0       0       0       0       0       0
       0       0       0       0       0       0       0       0       0       0
       0       0       0       0       0       0       0       0       0       0
       0       0       0       0       0       0       0       0       0       0
       0       0       0       0       0       0       0       0       0       0
       0       0       0       0       0       0       0       0       0       0
       0       0       0       0       0       0       0       0       0       0
       0       0       0       0       0       0       0       0       0       0
       0       0       0       0       0       0       0       0       0       0
       0       0       0       0       0       0       0       0       0       0
       0       0       0       0       0       0       0       0       0       0
       0       0       0       0       0       0       0       0       0       0
       0       0       0       0       0       0       0       0       0       0
       0       0       0       0       0       0       0       0       0       0
       0       0       0       0       0       0       0       0       0       0
       0       0       0       0       0       0       0       0       0       0
       0       0       0       0       0       0       0       0       0       0
       0       0       0       0       0       0       0       0       0       0
       0       0       0       0       0       0       0       0       0       0
       0       0       0       0       0       0       0       0       0       0
       0       0       0       0       0       0       0       0       0       0
       0       0       0       0       0       0       0       0       0       0
       0       0       0       0       0       0       0       0       0       0
       0       0       0       0       0       0       0       0       0       0
       0       0       0       0       0       0       0       0       0       0
       0       0       0       0       0       0       0       0       0       0
       0       0       0       0       0       0       0       0       0       0
       0       0       0       0       0       0       0       0       0       0
       0       0       0       0       0       0       0       0       0       0
       0       0       0       0       0       0       0       0       0       0
       0       0       0       0       0       0       0       0       0       0
       0       0       0       0       0       0       0       0       0       0
       0       0       0       0       0       0       0       0       0       0
       0       0       0       0       0       0       0       0       0       0
       0       0       0       0       0       0       0       0       0       0
       0       0       0       0       0       0       0       0       0       0
       0       0       0       0       0       0       0       0       0       0
       0       0       0       0       0       0       0       0       0       0
       0       0       0       0       0       0       0       0       0       0
       0       0       0       0       0       0       0       0       0       0
       0       0       0       0       0       0       0       0       0       0
       0       0       0       0       0       0       0       0       0       0
       0       0       0       0       0       0       0       0       0       0
       0       0       0       0       0       0       0       0       0       0
       0       0       0       0       0       0       0       0       0       0
       0       0       0       0       0       0       0       0       0       0
       0       0       0       0       0       0       0       0       0       0
       0       0       0       0       0       0       0       0       0       0
       0       0       0       0       0       0       0       0       0       0
       0       0       0       0       0       0       0       0       0       0
       0       0       0       0       0       0       0       0       0       0
       0       0       0       0       0       0       0       0       0       0
       0       0       0       0       0       0       0       0       0       0
       0       0       0       0       0       0       0       0       0       0
       0       0       0       0       0       0       0       0       0       0
       0       0       0       0       0       0       0       0       0       0
       0       0       0       0       0       0       0       0       0       0
       0       0       0       0       0       0       0       0       0       0
       0       0       0       0       0       0       0       0       0       0
       0       0       0       0       0       0       0       0       0       0
       0       0       0       0       0       0       0       0       0       0
       0       0       0       0       0       0       0       0       0       0
       0       0       0       0       0       0       0       0       0       0
       0       0       0       0       0       0       0       0       0       0
       0       0       0       0       0       0       0       0       0       0
       0       0       0       0       0       0       0       0       0       0
       0       0       0       0       0       0       0       0       0       0
       0       0       0       0       0       0       0       0       0       0
       0       0       0       0       0       0       0       0       0       0
       0       0       0       0       0       0       0       0       0       0
       0       0       0       0       0       0       0       0       0       0
       0       0       0       0       0       0       0       0       0       0
       0       0       0       0       0       0       0       0       0       0
       0       0       0       0       0       0       0       0       0       0
       0       0       0       0       0       0       0       0       0       0
       0       0       0       0       0       0       0       0       0       0
       0       0       0       0       0       0       0       0       0       0
       0       0       0       0       0       0       0       0       0       0
       0       0       0       0       0       0       0       0       0       0
       0       0       0       0       0       0       0       0       0       0
       0       0       0       0       0       0       0       0       0       0
       0       0       0       0       0       0       0       0       0       0
       0       0       0       0       0       0       0       0       0       0
       0       0       0       0       0       0       0       0       0       0
       0       0       0       0       0       0       0       0       0       0
       0       0       0       0       0       0       0       0       0       0
       0       0       0       0       0       0       0       0       0       0
       0       0       0       0       0       0       0       0       0       0
       0       0       0       0       0       0       0       0       0       0
       0       0       0       0       0       0       0       0       0       0
       0       0       0       0       0       0       0       0       0       0
       0       0       0       0       0       0       0       0       0       0
       0       0       0       0       0       0       0       0       0       0
       0       0       0       0       0       0       0       0       0       0
       0       0       0       0       0       0       0       0       0       0
       0       0       0       0       0       0       0       0       0       0
       0       0       0       0       0       0       0       0       0       0
       0       0       0       0       0       0       0       0       0       0
       0       0       0       0       0       0       0       0       0       0
       0       0       0       0       0       0       0       0       0       0
       0       0       0       0       0       0       0       0       0       0
       0       0       0       0       0       0       0       0       0       0
       0       0       0       0       0       0       0       0       0       0
       0       0       0       0       0       0       0       0       0       0
       0       0       0       0       0       0       0       0       0       0
       0       0       0       0       0       0       0       0       0       0
       0       0       0       0       0       0       0       0       0       0
       0       0       0       0       0       0       0       0       0       0
       0       0       0       0       0       0       0       0       0       0
       0       0       0       0       0       0       0       0       0       0
       0       0       0       0       0       0       0       0       0       0
       0       0       0       0       0       0       0       0       0       0
       0       0       0       0       0       0       0       0       0       0
       0       0       0       0       0       0       0       0       0       0
       0       0       0       0       0       0       0       0       0       0
       0       0       0       0       0       0       0       0       0       0
       0       0       0       0       0       0       0       0       0       0
       0       0       0       0       0       0       0       0       0       0
       0       0       0       0       0       0       0       0       0       0
       0       0       0       0       0       0       0       0       0       0
       0       0       0       0       0       0       0       0       0       0
       0       0       0       0       0       0       0       0       0       0
       0       0       0       0       0       0       0       0       0       0
       0       0       0       0       0       0       0       0       0       0
       0       0       0       0       0       0       0       0       0       0
       0       0       0       0       0       0       0       0       0       0
       0       0       0       0       0       0       0       0       0       0
       0       0       0       0       0       0       0       0       0       0
       0       0       0       0       0       0       0       0       0       0
       0       0       0       0       0       0       0       0       0       0
       0       0       0       0       0       0       0       0       0       0
       0       0       0       0       0       0       0       0       0       0
       0       0       0       0       0       0       0       0       0       0
       0       0       0       0       0       0       0       0       0       0
       0       0       0       0       0       0       0       0       0       0
       0       0       0       0       0       0       0       0       0       0
       0       0       0       0       0       0       0       0       0       0
       0       0       0       0       0       0       0       0       0       0
       0       0       0       0       0       0       0       0       0       0
       0       0       0       0       0       0       0       0       0       0
       0       0       0       0       0       0       0       0       0       0
       0       0       0       0       0       0       0       0       0       0
       0       0       0       0       0       0       0       0       0       0
       0       0       0       0       0       0       0       0       0       0
       0       0       0       0       0       0       0       0       0       0
       0       0       0       0       0       0       0       0       0       0
       0       0       0       0       0       0       0       0       0       0
       0       0       0       0       0       0       0       0       0       0
       0       0       0       0       0       0       0       0       0       0
       0       0       0       0       0       0       0       0       0       0
       0       0       0       0       0       0       0       0       0       0
       0       0       0       0       0       0       0       0       0       0
       0       0       0       0       0       0       0       0       0       0
       0       0       0       0       0       0       0       0       0       0
       0       0       0       0       0       0       0       0       0       0
       0       0       0       0       0       0       0       0       0       0
       0       0       0       0       0       0       0       0       0       0
       0       0       0       0       0       0       0       0       0       0
       0       0       0       0       0       0       0       0       0       0
       0       0       0       0       0       0       0       0       0       0
       0       0       0       0       0       0       0       0       0       0
       0       0       0       0       0       0       0       0       0       0
       0       0       0       0       0       0       0       0       0       0
       0       0       0       0       0       0       0       0       0       0
       0       0       0       0       0       0       0       0       0       0
       0       0       0       0       0       0       0       0       0       0
       0       0       0       0       0       0       0       0       0       0
       0       0       0       0       0       0       0       0       0       0
       0       0       0       0       0       0       0       0       0       0
       0       0       0       0       0       0       0       0       0       0
       0       0       0       0       0       0       0       0       0       0
       0       0       0       0       0       0       0       0       0       0
       0       0       0       0       0       0       0       0       0       0
       0       0       0       0       0       0       0       0       0       0
       0       0       0       0       0       0       0       0       0       0
       0       0       0       0       0       0       0       0       0       0
       0       0       0       0       0       0       0       0       0       0
       0       0       0       0       0       0       0       0       0       0
       0       0       0       0       0       0       0       0       0       0
       0       0       0       0       0       0       0       0       0       0
       0       0       0       0       0       0       0       0       0       0
       0       0       0       0       0       0       0       0       0       0
       0       0       0       0       0       0       0       0       0       0
       0       0       0       0       0       0       0       0       0       0
       0       0       0       0       0       0       0       0       0       0
       0       0       0       0       0       0       0       0       0       0
       0       0       0       0       0       0       0       0       0       0
       0       0       0       0       0       0       0       0       0       0
       0       0       0       0       0       0       0       0       0       0
       0       0       0       0       0       0       0       0       0       0
       0       0       0       0       0       0       0       0       0       0
       0       0       0       0       0       0       0       0       0       0
       0       0       0       0       0       0       0       0       0       0
       0       0       0       0       0       0       0       0       0       0
       0       0       0       0       0       0       0       0       0       0
       0       0       0       0       0       0       0       0       0       0
       0       0       0       0       0       0       0       0       0       0
       0       0       0       0       0       0       0       0       0       0
       0       0       0       0       0       0       0       0       0       0
       0       0       0       0       0       0       0       0       0       0
       0       0       0       0       0       0       0       0       0       0
       0       0       0       0       0       0       0       0       0       0
       0       0       0       0       0       0       0       0       0       0
       0       0       0       0       0       0       0       0       0       0
       0       0       0       0       0       0       0       0       0       0
       0       0       0       0       0       0       0       0       0       0
       0       0       0       0       0       0       0       0       0       0
       0       0       0       0       0       0       0       0       0       0
       0       0       0       0       0       0       0       0       0       0
       0       0       0       0       0       0       0       0       0       0
       0       0       0       0       0       0       0       0       0       0
       0       0       0       0       0       0       0       0       0       0
       0       0       0       0       0       0       0       0       0       0
       0       0       0       0       0       0       0       0       0       0
       0       0       0       0       0       0       0       0       0       0
       0       0       0       0       0       0       0       0       0       0
       0       0       0       0       0       0       0       0       0       0
       0       0       0       0       0       0       0       0       0       0
       0       0       0       0       0       0       0       0       0       0
       0       0       0       0       0       0       0       0       0       0
       0       0       0       0       0       0       0       0       0       0
       0       0       0       0       0       0       0       0       0       0
       0       0       0       0       0       0       0       0       0       0
       0       0       0       0       0       0       0       0       0       0
       0       0       0       0       0       0       0       0       0       0
       0       0       0       0       0       0       0       0       0       0
       0       0       0       0       0       0       0       0       0       0
       0       0       0       0       0       0       0       0       0       0
       0       0       0       0       0       0       0       0       0       0
       0       0       0       0       0       0       0       0       0       0
       0       0       0       0       0       0       0       0       0       0
       0       0       0       0       0       0       0       0       0       0
       0       0       0       0       0       0       0       0       0       0
       0       0       0       0       0       0       0       0       0       0
       0       0       0       0       0       0       0       0       0       0
       0       0       0       0       0       0       0       0       0       0
       0       0       0       0       0       0       0       0       0       0
       0       0       0       0       0       0       0       0       0       0
       0       0       0       0       0       0       0       0       0       0
       0       0       0       0       0       0       0       0       0       0
       0       0       0       0       0       0       0       0       0       0
       0       0       0       0       0       0       0       0       0       0
       0       0       0       0       0       0       0       0       0       0
       0       0       0       0       0       0       0       0       0       0
       0       0       0       0       0       0       0       0       0       0
       0       0       0       0       0       0       0       0       0       0
       0       0       0       0       0       0       0       0       0       0
       0       0       0       0       0       0       0       0       0       0
       0       0       0       0       0       0       0       0       0       0
       0       0       0       0       0       0       0       0       0       0
       0       0       0       0       0       0       0       0       0       0
       0       0       0       0       0       0       0       0       0       0
       0       0       0       0       0       0       0       0       0       0
       0       0       0       0       0       0       0       0       0       0
       0       0       0       0       0       0       0       0       0       0
       0       0       0       0       0       0       0       0       0       0
       0       0       0       0       0       0       0       0       0       0
       0       0       0       0       0       0       0       0       0       0
       0       0       0       0       0       0       0       0       0       0
       0       0       0       0       0       0       0       0       0       0
       0       0       0       0       0       0       0       0       0       0
       0       0       0       0       0       0       0       0       0       0
       0       0       0       0       0       0       0       0       0       0
       0       0       0       0       0       0       0       0       0       0
       0       0       0       0       0       0       0       0       0       0
       0       0       0       0       0       0       0       0       0       0
       0       0       0       0       0       0       0       0       0       0
       0       0       0       0       0       0       0       0       0       0
       0       0       0       0       0       0       0       0       0       0
       0       0       0       0       0       0       0       0       0       0
       0       0       0       0       0       0       0       0       0       0
       0       0       0       0       0       0       0       0       0       0
       0       0       0       0       0       0       0       0       0       0
       0       0       0       0       0       0       0       0       0       0
       0       0       0       0       0       0       0       0       0       0
       0       0       0       0       0       0       0       0       0       0
       0       0       0       0       0       0       0       0       0       0
       0       0       0       0       0       0       0       0       0       0
       0       0       0       0       0       0       0       0       0       0
       0       0       0       0       0       0       0       0       0       0
       0       0       0       0       0       0       0       0       0       0
       0       0       0       0       0       0       0       0       0       0
       0       0       0       0       0       0       0       0       0       0
       0       0       0       0       0       0       0       0       0       0
       0       0       0       0       0       0       0       0       0       0
       0       0       0       0       0       0       0       0       0       0
       0       0       0       0       0       0       0       0       0       0
       0       0       0       0       0       0       0       0       0       0
       0       0       0       0       0       0       0       0       0       0
       0       0       0       0       0       0       0       0       0       0
       0       0       0       0       0       0       0       0       0       0
       0       0       0       0       0       0       0       0       0       0
       0       0       0       0       0       0       0       0       0       0
       0       0       0       0       0       0       0       0       0       0
       0       0       0       0       0       0       0       0       0       0
       0       0       0       0       0       0       0       0       0       0
       0       0       0       0       0       0       0       0       0       0
       0       0       0       0       0       0       0       0       0       0
       0       0       0       0       0       0       0       0       0       0
       0       0       0       0       0       0       0       0       0       0
       0       0       0       0       0       0       0       0       0       0
       0       0       0       0       0       0       0       0       0       0
       0       0       0       0       0       0       0       0       0       0
       0       0       0       0       0       0       0       0       0       0
       0       0       0       0       0       0       0       0       0       0
       0       0       0       0       0       0       0       0       0       0
       0       0       0       0       0       0       0       0       0       0
       0       0       0       0       0       0       0       0       0       0
       0       0       0       0       0       0       0       0       0       0
       0       0       0       0       0       0       0       0       0       0
       0       0       0       0       0       0       0       0       0       0
       0       0       0       0       0       0       0       0       0       0
       0       0       0       0       0       0       0       0       0       0
       0       0       0       0       0       0       0       0       0       0
       0       0       0       0       0       0       0       0       0       0
       0       0       0       0       0       0       0       0       0       0
       0       0       0       0       0       0       0       0       0       0
       0       0       0       0       0       0       0       0       0       0
       0       0       0       0       0       0       0       0       0       0
       0       0       0       0       0       0       0       0       0       0
       0       0       0       0       0       0       0       0       0       0
       0       0       0       0       0       0       0       0       0       0
       0       0       0       0       0       0       0       0       0       0
       0       0       0       0       0       0       0       0       0       0
       0       0       0       0       0       0       0       0       0       0
       0       0       0       0       0       0       0       0       0       0
       0       0       0       0       0       0       0       0       0       0
       0       0       0       0       0       0       0       0       0       0
       0       0       0       0       0       0       0       0       0       0
       0       0       0       0       0       0       0       0       0       0
       0       0       0       0       0       0       0       0       0       0
       0       0       0       0       0       0       0       0       0       0
       0       0       0       0       0       0       0       0       0       0
       0       0       0       0       0       0       0       0       0       0
       0       0       0       0       0       0       0       0       0       0
       0       0       0       0       0       0       0       0       0       0
       0       0       0       0       0       0       0       0       0       0
       0       0       0       0       0       0       0       0       0       0
       0       0       0       0       0       0       0       0       0       0
       0       0       0       0       0       0       0       0       0       0
       0       0       0       0       0       0       0       0       0       0
       0       0       0       0       0       0       0       0       0       0
       0       0       0       0       0       0       0       0       0       0
       0       0       0       0       0       0       0       0       0       0
       0       0       0       0       0       0       0       0       0       0
       0       0       0       0       0       0       0       0       0       0
       0       0       0       0       0       0       0       0       0       0
       0       0       0       0       0       0       0       0       0       0
       0       0       0       0       0       0       0       0       0       0
       0       0       0       0       0       0       0       0       0       0
       0       0       0       0       0       0       0       0       0       0
       0       0       0       0       0       0       0       0       0       0
       0       0       0       0       0       0       0       0       0       0
       0       0       0       0       0       0       0       0       0       0
       0       0       0       0       0       0       0       0       0       0
       0       0       0       0       0       0       0       0       0       0
       0       0       0       0       0       0       0       0       0       0
       0       0       0       0       0       0       0       0       0       0
       0       0       0       0       0       0       0       0       0       0
       0       0       0       0       0       0       0       0       0       0
       0       0       0       0       0       0       0       0       0       0
       0       0       0       0       0       0       0       0       0       0
       0       0       0       0       0       0       0       0       0       0
       0       0       0       0       0       0       0       0       0       0
       0       0       0       0       0       0       0       0       0       0
       0       0       0       0       0       0       0       0       0       0
       0       0       0       0       0       0       0       0       0       0
       0       0       0       0       0       0       0       0       0       0
       0       0       0       0       0       0       0       0       0       0
       0       0       0       0       0       0       0       0       0       0
       0       0       0       0       0       0       0       0       0       0
       0       0       0       0       0       0       0       0       0       0
       0       0       0       0       0       0       0       0       0       0
       0       0       0       0       0       0       0       0       0       0
       0       0       0       0       0       0       0       0       0       0
       0       0       0       0       0       0       0       0       0       0
       0       0       0       0       0       0       0       0       0       0
       0       0       0       0       0       0       0       0       0       0
       0       0       0       0       0       0       0       0       0       0
       0       0       0       0       0       0       0       0       0       0
       0       0       0       0       0       0       0       0       0       0
       0       0       0       0       0       0       0       0       0       0
       0       0       0       0       0       0       0       0       0       0
       0       0       0       0       0       0       0       0       0       0
       0       0       0       0       0       0       0       0       0       0
       0       0       0       0       0       0       0       0       0       0
       0       0       0       0       0       0       0       0       0       0
       0       0       0       0       0       0       0       0       0       0
       0       0       0       0       0       0       0       0       0       0
       0       0       0       0       0       0       0       0       0       0
       0       0       0       0       0       0       0       0       0       0
       0       0       0       0       0       0       0       0       0       0
       0       0       0       0       0       0       0       0       0       0
       0       0       0       0       0       0       0       0       0       0
       0       0       0       0       0       0       0       0       0       0
       0       0       0       0       0       0       0       0       0       0
       0       0       0       0       0       0       0       0       0       0
       0       0       0       0       0       0       0       0       0       0
       0       0       0       0       0       0       0       0       0       0
       0       0       0       0       0       0       0       0       0       0
       0       0       0       0       0       0       0       0       0       0
       0       0       0       0       0       0       0       0       0       0
       0       0       0       0       0       0       0       0       0       0
       0       0       0       0       0       0       0       0       0       0
       0       0       0       0       0       0       0       0       0       0
       0       0       0       0       0       0       0       0       0       0
       0       0       0       0       0       0       0       0       0       0
       0       0       0       0       0       0       0       0       0       0
       0       0       0       0       0       0       0       0       0       0
       0       0       0       0       0       0       0       0       0       0
       0       0       0       0       0       0       0       0       0       0
       0       0       0       0       0       0       0       0       0       0
       0       0       0       0       0       0       0       0       0       0
       0       0       0       0       0       0       0       0       0       0
       0       0       0       0       0       0       0       0       0       0
       0       0       0       0       0       0       0       0       0       0
       0       0       0       0       0       0       0       0       0       0
       0       0       0       0       0       0       0       0       0       0
       0       0       0       0       0       0       0       0       0       0
       0       0       0       0       0       0       0       0       0       0
       0       0       0       0       0       0       0       0       0       0
       0       0       0       0       0       0       0       0       0       0
       0       0       0       0       0       0       0       0       0       0
       0       0       0       0       0       0       0       0       0       0
       0       0       0       0       0       0       0       0       0       0
       0       0       0       0       0       0       0       0       0       0
       0       0       0       0       0       0       0       0       0       0
       0       0       0       0       0       0       0       0       0       0
       0       0       0       0       0       0       0       0       0       0
       0       0       0       0       0       0       0       0       0       0
       0       0       0       0       0       0       0       0       0       0
       0       0       0       0       0       0       0       0       0       0
       0       0       0       0       0       0       0       0       0       0
       0       0       0       0       0       0       0       0       0       0
       0       0       0       0       0       0       0       0       0       0
       0       0       0       0       0       0       0       0       0       0
       0       0       0       0       0       0       0       0       0       0
       0       0       0       0       0       0       0       0       0       0
       0       0       0       0       0       0       0       0       0       0
       0       0       0       0       0       0       0       0       0       0
       0       0       0       0       0       0       0       0       0       0
       0       0       0       0       0       0       0       0       0       0
       0       0       0       0       0       0       0       0       0       0
       0       0       0       0       0       0       0       0       0       0
       0       0       0       0       0       0       0       0       0       0
       0       0       0       0       0       0       0       0       0       0
       0       0       0       0       0       0       0       0       0       0
       0       0       0       0       0       0       0       0       0       0
       0       0       0       0       0       0       0       0       0       0
       0       0       0       0       0       0       0       0       0       0
       0       0       0       0       0       0       0       0       0       0
       0       0       0       0       0       0       0       0       0       0
       0       0       0       0       0       0       0       0       0       0
       0       0       0       0       0       0       0       0       0       0
       0       0       0       0       0       0       0       0       0       0
       0       0       0       0       0       0       0       0       0       0
       0       0       0       0       0       0       0       0       0       0
       0       0       0       0       0       0       0       0       0       0
       0       0       0       0       0       0       0       0       0       0
       0       0       0       0       0       0       0       0       0       0
       0       0       0       0       0       0       0       0       0       0
       0       0       0       0       0       0       0       0       0       0
       0       0       0       0       0       0       0       0       0       0
       0       0       0       0       0       0       0       0       0       0
       0       0       0       0       0       0       0       0       0       0
       0       0       0       0       0       0       0       0       0       0
       0       0       0       0       0       0       0       0       0       0
       0       0       0       0       0       0       0       0       0       0
       0       0       0       0       0       0       0       0       0       0
       0       0       0       0       0       0       0       0       0       0
       0       0       0       0       0       0       0       0       0       0
       0       0       0       0       0       0       0       0       0       0
       0       0       0       0       0       0       0       0       0       0
       0       0       0       0       0       0       0       0       0       0
       0       0       0       0       0       0       0       0       0       0
       0       0       0       0       0       0       0       0       0       0
       0       0       0       0       0       0       0       0       0       0
       0       0       0       0       0       0       0       0       0       0
       0       0       0       0       0       0       0       0       0       0
       0       0       0       0       0       0       0       0       0       0
       0       0       0       0       0       0       0       0       0       0
       0       0       0       0       0       0       0       0       0       0
       0       0       0       0       0       0       0       0       0       0
       0       0       0       0       0       0       0       0       0       0
       0       0       0       0       0       0       0       0       0       0
       0       0       0       0       0       0       0       0       0       0
       0       0       0       0       0       0       0       0       0       0
       0       0       0       0       0       0       0       0       0       0
       0       0       0       0       0       0       0       0       0       0
       0       0       0       0       0       0       0       0       0       0
       0       0       0       0       0       0       0       0       0       0
       0       0       0       0       0       0       0       0       0       0
       0       0       0       0       0       0       0       0       0       0
       0       0       0       0       0       0       0       0       0       0
       0       0       0       0       0       0       0       0       0       0
       0       0       0       0       0       0       0       0       0       0
       0       0       0       0       0       0       0       0       0       0
       0       0       0       0       0       0       0       0       0       0
       0       0       0       0       0       0       0       0       0       0
       0       0       0       0       0       0       0       0       0       0
       0       0       0       0       0       0       0       0       0       0
       0       0       0       0       0       0       0       0       0       0
       0       0       0       0       0       0       0       0       0       0
       0       0       0       0       0       0       0       0       0       0
       0       0       0       0       0       0       0       0       0       0
       0       0       0       0       0       0       0       0       0       0
       0       0       0       0       0       0       0       0       0       0
       0       0       0       0       0       0       0       0       0       0
       0       0       0       0       0       0       0       0       0       0
       0       0       0       0       0       0       0       0       0       0
       0       0       0       0       0       0       0       0       0       0
       0       0       0       0       0       0       0       0       0       0
       0       0       0       0       0       0       0       0       0       0
       0       0       0       0       0       0       0       0       0       0
       0       0       0       0       0       0       0       0       0       0
       0       0       0       0       0       0       0       0       0       0
       0       0       0       0       0       0       0       0       0       0
       0       0       0       0       0       0       0       0       0       0
       0       0       0       0       0       0       0       0       0       0
       0       0       0       0       0       0       0       0       0       0
       0       0       0       0       0       0       0       0       0       0
       0       0       0       0       0       0       0       0       0       0
       0       0       0       0       0       0       0       0       0       0
       0       0       0       0       0       0       0       0       0       0
       0       0       0       0       0       0       0       0       0       0
       0       0       0       0       0       0       0       0       0       0
       0       0       0       0       0       0       0       0       0       0
       0       0       0       0       0       0       0       0       0       0
       0       0       0       0       0       0       0       0       0       0
       0       0       0       0       0       0       0       0       0       0
       0       0       0       0       0       0       0       0       0       0
       0       0       0       0       0       0       0       0       0       0
       0       0       0       0       0       0       0       0       0       0
       0       0       0       0       0       0       0       0       0       0
       0       0       0       0       0       0       0       0       0       0
       0       0       0       0       0       0       0       0       0       0
       0       0       0       0       0       0       0       0       0       0
       0       0       0       0       0       0       0       0       0       0
       0       0       0       0       0       0       0       0       0       0
       0       0       0       0       0       0       0       0       0       0
       0       0       0       0       0       0       0       0       0       0
       0       0       0       0       0       0       0       0       0       0
       0       0       0       0       0       0       0       0       0       0
       0       0       0       0       0       0       0       0       0       0
       0       0       0       0       0       0       0       0       0       0
       0       0       0       0       0       0       0       0       0       0
       0       0       0       0       0       0       0       0       0       0
       0       0       0       0       0       0       0       0       0       0
       0       0       0       0       0       0       0       0       0       0
       0       0       0       0       0       0       0       0       0       0
       0       0       0       0       0       0       0       0       0       0
       0       0       0       0       0       0       0       0       0       0
       0       0       0       0       0       0       0       0       0       0
       0       0       0       0       0       0       0       0       0       0
       0       0       0       0       0       0       0       0       0       0
       0       0       0       0       0       0       0       0       0       0
       0       0       0       0       0       0       0       0       0       0
       0       0       0       0       0       0       0       0       0       0
       0       0       0       0       0       0       0       0       0       0
       0       0       0       0       0       0       0       0       0       0
       0       0       0       0       0       0       0       0       0       0
       0       0       0       0       0       0       0       0       0       0
       0       0       0       0       0       0       0       0       0       0
       0       0       0       0       0       0       0       0       0       0
       0       0       0       0       0       0       0       0       0       0
       0       0       0       0       0       0       0       0       0       0
       0       0       0       0       0       0       0       0       0       0
       0       0       0       0       0       0       0       0       0       0
       0       0       0       0       0       0       0       0       0       0
       0       0       0       0       0       0       0       0       0       0
       0       0       0       0       0       0       0       0       0       0
       0       0       0       0       0       0       0       0       0       0
       0       0       0       0       0       0       0       0       0       0
       0       0       0       0       0       0       0       0       0       0
       0       0       0       0       0       0       0       0       0       0
       0       0       0       0       0       0       0       0       0       0
       0       0       0       0       0       0       0       0       0       0
       0       0       0       0       0       0       0       0       0       0
       0       0       0       0       0       0       0       0       0       0
       0       0       0       0       0       0       0       0       0       0
       0       0       0       0       0       0       0       0       0       0
       0       0       0       0       0       0       0       0       0       0
       0       0       0       0       0       0       0       0       0       0
       0       0       0       0       0       0       0       0       0       0
       0       0       0       0       0       0       0       0       0       0
       0       0       0       0       0       0       0       0       0       0
       0       0       0       0       0       0       0       0       0       0
       0       0       0       0       0       0       0       0       0       0
       0       0       0       0       0       0       0       0       0       0
       0       0       0       0       0       0       0       0       0       0
       0       0       0       0       0       0       0       0       0       0
       0       0       0       0       0       0       0       0       0       0
       0       0       0       0       0       0       0       0       0       0
       0       0       0       0       0       0       0       0       0       0
       0       0       0       0       0       0       0       0       0       0
       0       0       0       0       0       0       0       0       0       0
       0       0       0       0       0       0       0       0       0       0
       0       0       0       0       0       0       0       0       0       0
       0       0       0       0       0       0       0       0       0       0
       0       0       0       0       0       0       0       0       0       0
       0       0       0       0       0       0       0       0       0       0
       0       0       0       0       0       0       0       0       0       0
       0       0       0       0       0       0       0       0       0       0
       0       0       0       0       0       0       0       0       0       0
       0       0       0       0       0       0       0       0       0       0
       0       0       0       0       0       0       0       0       0       0
       0       0       0       0       0       0       0       0       0       0
       0       0       0       0       0       0       0       0       0       0
       0       0       0       0       0       0       0       0       0       0
       0       0       0       0       0       0       0       0       0       0
       0       0       0       0       0       0       0       0       0       0
       0       0       0       0       0       0       0       0       0       0
       0       0       0       0       0       0       0       0       0       0
       0       0       0       0       0       0       0       0       0       0
       0       0       0       0       0       0       0       0       0       0
       0       0       0       0       0       0       0       0       0       0
       0       0       0       0       0       0       0       0       0       0
       0       0       0       0       0       0       0       0       0       0
       0       0       0       0       0       0       0       0       0       0
       0       0       0       0       0       0       0       0       0       0
       0       0       0       0       0       0       0       0       0       0
       0       0       0       0       0       0       0       0       0       0
       0       0       0       0       0       0       0       0       0       0
       0       0       0       0       0       0       0       0       0       0
       0       0       0       0       0       0       0       0       0       0
       0       0       0       0       0       0       0       0       0       0
       0       0       0       0       0       0       0       0       0       0
       0       0       0       0       0       0       0       0       0       0
       0       0       0       0       0       0       0       0       0       0
       0       0       0       0       0       0       0       0       0       0
       0       0       0       0       0       0       0       0       0       0
       0       0       0       0       0       0       0       0       0       0
       0       0       0       0       0       0       0       0       0       0
       0       0       0       0       0       0       0       0       0       0
       0       0       0       0       0       0       0       0       0       0
       0       0       0       0       0       0       0       0       0       0
       0       0       0       0       0       0       0       0       0       0
       0       0       0       0       0       0       0       0       0       0
       0       0       0       0       0       0       0       0       0       0
       0       0       0       0       0       0       0       0       0       0
       0       0       0       0       0       0       0       0       0       0
       0       0       0       0       0       0       0       0       0       0
       0       0       0       0       0       0       0       0       0       0
       0       0       0       0       0       0       0       0       0       0
       0       0       0       0       0       0       0       0       0       0
       0       0       0       0       0       0       0       0       0       0
       0       0       0       0       0       0       0       0       0       0
       0       0       0       0       0       0       0       0       0       0
       0       0       0       0       0       0       0       0       0       0
       0       0       0       0       0       0       0       0       0       0
       0       0       0       0       0       0       0       0       0       0
       0       0       0       0       0       0       0       0       0       0
       0       0       0       0       0       0       0       0       0       0
       0       0       0       0       0       0       0       0       0       0
       0       0       0       0       0       0       0       0       0       0
       0       0       0       0       0       0       0       0       0       0
       0       0       0       0       0       0       0       0       0       0
       0       0       0       0       0       0       0       0       0       0
       0       0       0       0       0       0       0       0       0       0
       0       0       0       0       0       0       0       0       0       0
       0       0       0       0       0       0       0       0       0       0
       0       0       0       0       0       0       0       0       0       0
       0       0       0       0       0       0       0       0       0       0
       0       0       0       0       0       0       0       0       0       0
       0       0       0       0       0       0       0       0       0       0
       0       0       0       0       0       0       0       0       0       0
       0       0       0       0       0       0       0       0       0       0
       0       0       0       0       0       0       0       0       0       0
       0       0       0       0       0       0       0       0       0       0
       0       0       0       0       0       0       0       0       0       0
       0       0       0       0       0       0       0       0       0       0
       0       0       0       0       0       0       0       0       0       0
       0       0       0       0       0       0       0       0       0       0
       0       0       0       0       0       0       0       0       0       0
       0       0       0       0       0       0       0       0       0       0
       0       0       0       0       0       0       0       0       0       0
       0       0       0       0       0       0       0       0       0       0
       0       0       0       0       0       0       0       0       0       0
       0       0       0       0       0       0       0       0       0       0
       0       0       0       0       0       0       0       0       0       0
       0       0       0       0       0       0       0       0       0       0
       0       0       0       0       0       0       0       0       0       0
       0       0       0       0       0       0       0       0       0       0
       0       0       0       0       0       0       0       0       0       0
       0       0       0       0       0       0       0       0       0       0
       0       0       0       0       0       0       0       0       0       0
       0       0       0       0       0       0       0       0       0       0
       0       0       0       0       0       0       0       0       0       0
       0       0       0       0       0       0       0       0       0       0
       0       0       0       0       0       0       0       0       0       0
       0       0       0       0       0       0       0       0       0       0
       0       0       0       0       0       0       0       0       0       0
       0       0       0       0       0       0       0       0       0       0
       0       0       0       0       0       0       0       0       0       0
       0       0       0       0       0       0       0       0       0       0
       0       0       0       0       0       0       0       0       0       0
       0       0       0       0       0       0       0       0       0       0
       0       0       0       0       0       0       0       0       0       0
       0       0       0       0       0       0       0       0       0       0
       0       0       0       0       0       0       0       0       0       0
       0       0       0       0       0       0       0       0       0       0
       0       0       0       0       0       0       0       0       0       0
       0       0       0       0       0       0       0       0       0       0
       0       0       0       0       0       0       0       0       0       0
       0       0       0       0       0       0       0       0       0       0
       0       0       0       0       0       0       0       0       0       0
       0       0       0       0       0       0       0       0       0       0
       0       0       0       0       0       0       0       0       0       0
       0       0       0       0       0       0       0       0       0       0
       0       0       0       0       0       0       0       0       0       0
       0       0       0       0       0       0       0       0       0       0
       0       0       0       0       0       0       0       0       0       0
       0       0       0       0       0       0       0       0       0       0
       0       0       0       0       0       0       0       0       0       0
       0       0       0       0       0       0       0       0       0       0
       0       0       0       0       0       0       0       0       0       0
       0       0       0       0       0       0       0       0       0       0
       0       0       0       0       0       0       0       0       0       0
       0       0       0       0       0       0       0       0       0       0
       0       0       0       0       0       0       0       0       0       0
       0       0       0       0       0       0       0       0       0       0
       0       0       0       0       0       0       0       0       0       0
       0       0       0       0       0       0       0       0       0       0
       0       0       0       0       0       0       0       0       0       0
       0       0       0       0       0       0       0       0       0       0
       0       0       0       0       0       0       0       0       0       0
       0       0       0       0       0       0       0       0       0       0
       0       0       0       0       0       0       0       0       0       0
       0       0       0       0       0       0       0       0       0       0
       0       0       0       0       0       0       0       0       0       0
       0       0       0       0       0       0       0       0       0       0
       0       0       0       0       0       0       0       0       0       0
       0       0       0       0       0       0       0       0       0       0
       0       0       0       0       0       0       0       0       0       0
       0       0       0       0       0       0       0       0       0       0
       0       0       0       0       0       0       0       0       0       0
       0       0       0       0       0       0       0       0       0       0
       0       0       0       0       0       0       0       0       0       0
       0       0       0       0       0       0       0       0       0       0
       0       0       0       0       0       0       0       0       0       0
       0       0       0       0       0       0       0       0       0       0
       0       0       0       0       0       0       0       0       0       0
       0       0       0       0       0       0       0       0       0       0
       0       0       0       0       0       0       0       0       0       0
       0       0       0       0       0       0       0       0       0       0
       0       0       0       0       0       0       0       0       0       0
       0       0       0       0       0       0       0       0       0       0
       0       0       0       0       0       0       0       0       0       0
       0       0       0       0       0       0       0       0       0       0
       0       0       0       0       0       0       0       0       0       0
       0       0       0       0       0       0       0       0       0       0
       0       0       0       0       0       0       0       0       0       0
       0       0       0       0       0       0       0       0       0       0
       0       0       0       0       0       0       0       0       0       0
       0       0       0       0       0       0       0       0       0       0
       0       0       0       0       0       0       0       0       0       0
       0       0       0       0       0       0       0       0       0       0
       0       0       0       0       0       0       0       0       0       0
       0       0       0       0       0       0       0       0       0       0
       0       0       0       0       0       0       0       0       0       0
       0       0       0       0       0       0       0       0       0       0
       0       0       0       0       0       0       0       0       0       0
       0       0       0       0       0       0       0       0       0       0
       0       0       0       0       0       0       0       0       0       0
       0       0       0       0       0       0       0       0       0       0
       0       0       0       0       0       0       0       0       0       0
       0       0       0       0       0       0       0       0       0       0
       0       0       0       0       0       0       0       0       0       0
       0       0       0       0       0       0       0       0       0       0
       0       0       0       0       0       0       0       0       0       0
       0       0       0       0       0       0       0       0       0       0
       0       0       0       0       0       0       0       0       0       0
       0       0       0       0       0       0       0       0       0       0
       0       0       0       0       0       0       0       0       0       0
       0       0       0       0       0       0       0       0       0       0
       0       0       0       0       0       0       0       0       0       0
       0       0       0       0       0       0       0       0       0       0
       0       0       0       0       0       0       0       0       0       0
       0       0       0       0       0       0       0       0       0       0
       0       0       0       0       0       0       0       0       0       0
       0       0       0       0       0       0       0       0       0       0
       0       0       0       0       0       0       0       0       0       0
       0       0       0       0       0       0       0       0       0       0
       0       0       0       0       0       0       0       0       0       0
       0       0       0       0       0       0       0       0       0       0
       0       0       0       0       0       0       0       0       0       0
       0       0       0       0       0       0       0       0       0       0
       0       0       0       0       0       0       0       0       0       0
       0       0       0       0       0       0       0       0       0       0
       0       0       0       0       0       0       0       0       0       0
       0       0       0       0       0       0       0       0       0       0
       0       0       0       0       0       0       0       0       0       0
       0       0       0       0       0       0       0       0       0       0
       0       0       0       0       0       0       0       0       0       0
       0       0       0       0       0       0       0       0       0       0
       0       0       0       0       0       0       0       0       0       0
       0       0       0       0       0       0       0       0       0       0
       0       0       0       0       0       0       0       0       0       0
       0       0       0       0       0       0       0       0       0       0
       0       0       0       0       0       0       0       0       0       0
       0       0       0       0       0       0       0       0       0       0
       0       0       0       0       0       0       0       0       0       0
       0       0       0       0       0       0       0       0       0       0
       0       0       0       0       0       0       0       0       0       0
       0       0       0       0       0       0       0       0       0       0
       0       0       0       0       0       0       0       0       0       0
       0       0       0       0       0       0       0       0       0       0
       0       0       0       0       0       0       0       0       0       0
       0       0       0       0       0       0       0       0       0       0
       0       0       0       0       0       0       0       0       0       0
       0       0       0       0       0       0       0       0       0       0
       0       0       0       0       0       0       0       0       0       0
       0       0       0       0       0       0       0       0       0       0
       0       0       0       0       0       0       0       0       0       0
       0       0       0       0       0       0       0       0       0       0
       0       0       0       0       0       0       0       0       0       0
       0       0       0       0       0       0       0       0       0       0
       0       0       0       0       0       0       0       0       0       0
       0       0       0       0       0       0       0       0       0       0
       0       0       0       0       0       0       0       0       0       0
       0       0       0       0       0       0       0       0       0       0
       0       0       0       0       0       0       0       0       0       0
       0       0       0       0       0       0       0       0       0       0
       0       0       0       0       0       0       0       0       0       0
       0       0       0       0       0       0       0       0       0       0
       0       0       0       0       0       0       0       0       0       0
       0       0       0       0       0       0       0       0       0       0
       0       0       0       0       0       0       0       0       0       0
       0       0       0       0       0       0       0       0       0       0
       0       0       0       0       0       0       0       0       0       0
       0       0       0       0       0       0       0       0       0       0
       0       0       0       0       0       0       0       0       0       0
       0       0       0       0       0       0       0       0       0       0
       0       0       0       0       0       0       0       0       0       0
       0       0       0       0       0       0       0       0       0       0
       0       0       0       0       0       0       0       0       0       0
       0       0       0       0       0       0       0       0       0       0
       0       0       0       0       0       0       0       0       0       0
       0       0       0       0       0       0       0       0       0       0
       0       0       0       0       0       0       0       0       0       0
       0       0       0       0       0       0       0       0       0       0
       0       0       0       0       0       0       0       0       0       0
       0       0       0       0       0       0       0       0       0       0
       0       0       0       0       0       0       0       0       0       0
       0       0       0       0       0       0       0       0       0       0
       0       0       0       0       0       0       0       0       0       0
       0       0       0       0       0       0       0       0       0       0
       0       0       0       0       0       0       0       0       0       0
       0       0       0       0       0       0       0       0       0       0
       0       0       0       0       0       0       0       0       0       0
       0       0       0       0       0       0       0       0       0       0
       0       0       0       0       0       0       0       0       0       0
       0       0       0       0       0       0       0       0       0       0
       0       0       0       0       0       0       0       0       0       0
       0       0       0       0       0       0       0       0       0       0
       0       0       0       0       0       0       0       0       0       0
       0       0       0       0       0       0       0       0       0       0
       0       0       0       0       0       0       0       0       0       0
       0       0       0       0       0       0       0       0       0       0
       0       0       0       0       0       0       0       0       0       0
       0       0       0       0       0       0       0       0       0       0
       0       0       0       0       0       0       0       0       0       0
       0       0       0       0       0       0       0       0       0       0
       0       0       0       0       0       0       0       0       0       0
       0       0       0       0       0       0       0       0       0       0
       0       0       0       0       0       0       0       0       0       0
       0       0       0       0       0       0       0       0       0       0
       0       0       0       0       0       0       0       0       0       0
       0       0       0       0       0       0       0       0       0       0
       0       0       0       0       0       0       0       0       0       0
       0       0       0       0       0       0       0       0       0       0
       0       0       0       0       0       0       0       0       0       0
       0       0       0       0       0       0       0       0       0       0
       0       0       0       0       0       0       0       0       0       0
       0       0       0       0       0       0       0       0       0       0
       0       0       0       0       0       0       0       0       0       0
       0       0       0       0       0       0       0       0       0       0
       0       0       0       0       0       0       0       0       0       0
       0       0       0       0       0       0       0       0       0       0
       0       0       0       0       0       0       0       0       0       0
       0       0       0       0       0       0       0       0       0       0
       0       0       0       0       0       0       0       0       0       0
       0       0       0       0       0       0       0       0       0       0
       0       0       0       0       0       0       0       0       0       0
       0       0       0       0       0       0       0       0       0       0
       0       0       0       0       0       0       0       0       0       0
       0       0       0       0       0       0       0       0       0       0
       0       0       0       0       0       0       0       0       0       0
       0       0       0       0       0       0       0       0       0       0
       0       0       0       0       0       0       0       0       0       0
       0       0       0       0       0       0       0       0       0       0
       0       0       0       0       0       0       0       0       0       0
       0       0       0       0       0       0       0       0       0       0
       0       0       0       0       0       0       0       0       0       0
       0       0       0       0       0       0       0       0       0       0
       0       0       0       0       0       0       0       0       0       0
       0       0       0       0       0       0       0       0       0       0
       0       0       0       0       0       0       0       0       0       0
       0       0       0       0       0       0       0       0       0       0
       0       0       0       0       0       0       0       0       0       0
       0       0       0       0       0       0       0       0       0       0
       0       0       0       0       0       0       0       0       0       0
       0       0       0       0       0       0       0       0       0       0
       0       0       0       0       0       0       0       0       0       0
       0       0       0       0       0       0       0       0       0       0
       0       0       0       0       0       0       0       0       0       0
       0       0       0       0       0       0       0       0       0       0
       0       0       0       0       0       0       0       0       0       0
       0       0       0       0       0       0       0       0       0       0
       0       0       0       0       0       0       0       0       0       0
       0       0       0       0       0       0       0       0       0       0
       0       0       0       0       0       0       0       0       0       0
       0       0       0       0       0       0       0       0       0       0
       0       0       0       0       0       0       0       0       0       0
       0       0       0       0       0       0       0       0       0       0
       0       0       0       0       0       0       0       0       0       0
       0       0       0       0       0       0       0       0       0       0
       0       0       0       0       0       0       0       0       0       0
       0       0       0       0       0       0       0       0       0       0
       0       0       0       0       0       0       0       0       0       0
       0       0       0       0       0       0       0       0       0       0
       0       0       0       0       0       0       0       0       0       0
       0       0       0       0       0       0       0       0       0       0
       0       0       0       0       0       0       0       0       0       0
       0       0       0       0       0       0       0       0       0       0
       0       0       0       0       0       0       0       0       0       0
       0       0       0       0       0       0       0       0       0       0
       0       0       0       0       0       0       0       0       0       0
       0       0       0       0       0       0       0       0       0       0
       0       0       0       0       0       0       0       0       0       0
       0       0       0       0       0       0       0       0       0       0
       0       0       0       0       0       0       0       0       0       0
       0       0       0       0       0       0       0       0       0       0
       0       0       0       0       0       0       0       0       0       0
       0       0       0       0       0       0       0       0       0       0
       0       0       0       0       0       0       0       0       0       0
       0       0       0       0       0       0       0       0       0       0
       0       0       0       0       0       0       0       0       0       0
       0       0       0       0       0       0       0       0       0       0
       0       0       0       0       0       0       0       0       0       0
       0       0       0       0       0       0       0       0       0       0
       0       0       0       0       0       0       0       0       0       0
       0       0       0       0       0       0       0       0       0       0
       0       0       0       0       0       0       0       0       0       0
       0       0       0       0       0       0       0       0       0       0
       0       0       0       0       0       0       0       0       0       0
       0       0       0       0       0       0       0       0       0       0
       0       0       0       0       0       0       0       0       0       0
       0       0       0       0       0       0       0       0       0       0
       0       0       0       0       0       0       0       0       0       0
       0       0       0       0       0       0       0       0       0       0
       0       0       0       0       0       0       0       0       0       0
       0       0       0       0       0       0       0       0       0       0
       0       0       0       0       0       0       0       0       0       0
       0       0       0       0       0       0       0       0       0       0
       0       0       0       0       0       0       0       0       0       0
       0       0       0       0       0       0       0       0       0       0
       0       0       0       0       0       0       0       0       0       0
       0       0       0       0       0       0       0       0       0       0
       0       0       0       0       0       0       0       0       0       0
       0       0       0       0       0       0       0       0       0       0
       0       0       0       0       0       0       0       0       0       0
       0       0       0       0       0       0       0       0       0       0
       0       0       0       0       0       0       0       0       0       0
       0       0       0       0       0       0       0       0       0       0
       0       0       0       0       0       0       0       0       0       0
       0       0       0       0       0       0       0       0       0       0
       0       0       0       0       0       0       0       0       0       0
       0       0       0       0       0       0       0       0       0       0
       0       0       0       0       0       0       0       0       0       0
       0       0       0       0       0       0       0       0       0       0
       0       0       0       0       0       0       0       0       0       0
       0       0       0       0       0       0       0       0       0       0
       0       0       0       0       0       0       0       0       0       0
       0       0       0       0       0       0       0       0       0       0
       0       0       0       0       0       0       0       0       0       0
       0       0       0       0       0       0       0       0       0       0
       0       0       0       0       0       0       0       0       0       0
       0       0       0       0       0       0       0       0       0       0
       0       0       0       0       0       0       0       0       0       0
       0       0       0       0       0       0       0       0       0       0
       0       0       0       0       0       0       0       0       0       0
       0       0       0       0       0       0       0       0       0       0
       0       0       0       0       0       0       0       0       0       0
       0       0       0       0       0       0       0       0       0       0
       0       0       0       0       0       0       0       0       0       0
       0       0       0       0       0       0       0       0       0       0
       0       0       0       0       0       0       0       0       0       0
       0       0       0       0       0       0       0       0       0       0
       0       0       0       0       0       0       0       0       0       0
       0       0       0       0       0       0       0       0       0       0
       0       0       0       0       0       0       0       0       0       0
       0       0       0       0       0       0       0       0       0       0
       0       0       0       0       0       0       0       0       0       0
       0       0       0       0       0       0       0       0       0       0
       0       0       0       0       0       0       0       0       0       0
       0       0       0       0       0       0       0       0       0       0
       0       0       0       0       0       0       0       0       0       0
       0       0       0       0       0       0       0       0       0       0
       0       0       0       0       0       0       0       0       0       0
       0       0       0       0       0       0       0       0       0       0
       0       0       0       0       0       0       0       0       0       0
       0       0       0       0       0       0       0       0       0       0
       0       0       0       0       0       0       0       0       0       0
       0       0       0       0       0       0       0       0       0       0
       0       0       0       0       0       0       0       0       0       0
       0       0       0       0       0       0       0       0       0       0
       0       0       0       0       0       0       0       0       0       0
       0       0       0       0       0       0       0       0       0       0
       0       0       0       0       0       0       0       0       0       0
       0       0       0       0       0       0       0       0       0       0
       0       0       0       0       0       0       0       0       0       0
       0       0       0       0       0       0       0       0       0       0
       0       0       0       0       0       0       0       0       0       0
       0       0       0       0       0       0       0       0       0       0
       0       0       0       0       0       0       0       0       0       0
       0       0       0       0       0       0       0       0       0       0
       0       0       0       0       0       0       0       0       0       0
       0       0       0       0       0       0       0       0       0       0
       0       0       0       0       0       0       0       0       0       0
       0       0       0       0       0       0       0       0       0       0
       0       0       0       0       0       0       0       0       0       0
       0       0       0       0       0       0       0       0       0       0
       0       0       0       0       0       0       0       0       0       0
       0       0       0       0       0       0       0       0       0       0
       0       0       0       0       0       0       0       0       0       0
       0       0       0       0       0       0       0       0       0       0
       0       0       0       0       0       0       0       0       0       0
       0       0       0       0       0       0       0       0       0       0
       0       0       0       0       0       0       0       0       0       0
       0       0       0       0       0       0       0       0       0       0
       0       0       0       0       0       0       0       0       0       0
       0       0       0       0       0       0       0       0       0       0
       0       0       0       0       0       0       0       0       0       0
       0       0       0       0       0       0       0       0       0       0
       0       0       0       0       0       0       0       0       0       0
       0       0       0       0       0       0       0       0       0       0
       0       0       0       0       0       0       0       0       0       0
       0       0       0       0       0       0       0       0       0       0
       0       0       0       0       0       0       0       0       0       0
       0       0       0       0       0       0       0       0       0       0
       0       0       0       0       0       0       0       0       0       0
       0       0       0       0       0       0       0       0       0       0
       0       0       0       0       0       0       0       0       0       0
       0       0       0       0       0       0       0       0       0       0
       0       0       0       0       0       0       0       0       0       0
       0       0       0       0       0       0       0       0       0       0
       0       0       0       0       0       0       0       0       0       0
       0       0       0       0       0       0       0       0       0       0
       0       0       0       0       0       0       0       0       0       0
       0       0       0       0       0       0       0       0       0       0
       0       0       0       0       0       0       0       0       0       0
       0       0       0       0       0       0       0       0       0       0
       0       0       0       0       0       0       0       0       0       0
       0       0       0       0       0       0       0       0       0       0
       0       0       0       0       0       0       0       0       0       0
       0       0       0       0       0       0       0       0       0       0
       0       0       0       0       0       0       0       0       0       0
       0       0       0       0       0       0       0       0       0       0
       0       0       0       0       0       0       0       0       0       0
       0       0       0       0       0       0       0       0       0       0
       0       0       0       0       0       0       0       0       0       0
       0       0       0       0       0       0       0       0       0       0
       0       0       0       0       0       0       0       0       0       0
       0       0       0       0       0       0       0       0       0       0
       0       0       0       0       0       0       0       0       0       0
       0       0       0       0       0       0       0       0       0       0
       0       0       0       0       0       0       0       0       0       0
       0       0       0       0       0       0       0       0       0       0
       0       0       0       0       0       0       0       0       0       0
       0       0       0       0       0       0       0       0       0       0
       0       0       0       0       0       0       0       0       0       0
       0       0       0       0       0       0       0       0       0       0
       0       0       0       0       0       0       0       0       0       0
       0       0       0       0       0       0       0       0       0       0
       0       0       0       0       0       0       0       0       0       0
       0       0       0       0       0       0       0       0       0       0
       0       0       0       0       0       0       0       0       0       0
       0       0       0       0       0       0       0       0       0       0
       0       0       0       0       0       0       0       0       0       0
       0       0       0       0       0       0       0       0       0       0
       0       0       0       0       0       0       0       0       0       0
       0       0       0       0       0       0       0       0       0       0
       0       0       0       0       0       0       0       0       0       0
       0       0       0       0       0       0       0       0       0       0
       0       0       0       0       0       0       0       0       0       0
       0       0       0       0       0       0       0       0       0       0
       0       0       0       0       0       0       0       0       0       0
       0       0       0       0       0       0       0       0       0       0
       0       0       0       0       0       0       0       0       0       0
       0       0       0       0       0       0       0       0       0       0
       0       0       0       0       0       0       0       0       0       0
       0       0       0       0       0       0       0       0       0       0
       0       0       0       0       0       0       0       0       0       0
       0       0       0       0       0       0       0       0       0       0
       0       0       0       0       0       0       0       0       0       0
       0       0       0       0       0       0       0       0       0       0
       0       0       0       0       0       0       0       0       0       0
       0       0       0       0       0       0       0       0       0       0
       0       0       0       0       0       0       0       0       0       0
       0       0       0       0       0       0       0       0       0       0
       0       0       0       0       0       0       0       0       0       0
       0       0       0       0       0       0       0       0       0       0
       0       0       0       0       0       0       0       0       0       0
       0       0       0       0       0       0       0       0       0       0
       0       0       0       0       0       0       0       0       0       0
       0       0       0       0       0       0       0       0       0       0
       0       0       0       0       0       0       0       0       0       0
       0       0       0       0       0       0       0       0       0       0
       0       0       0       0       0       0       0       0       0       0
       0       0       0       0       0       0       0       0       0       0
       0       0       0       0       0       0       0       0       0       0
       0       0       0       0       0       0       0       0       0       0
       0       0       0       0       0       0       0       0       0       0
       0       0       0       0       0       0       0       0       0       0
       0       0       0       0       0       0       0       0       0       0
       0       0       0       0       0       0       0       0       0       0
       0       0       0       0       0       0       0       0       0       0
       0       0       0       0       0       0       0       0       0       0
       0       0       0       0       0       0       0       0       0       0
       0       0       0       0       0       0       0       0       0       0
       0       0       0       0       0       0       0       0       0       0
       0       0       0       0       0       0       0       0       0       0
       0       0       0       0       0       0       0       0       0       0
       0       0       0       0       0       0       0       0       0       0
       0       0       0       0       0       0       0       0       0       0
       0       0       0       0       0       0       0       0       0       0
       0       0       0       0       0       0       0       0       0       0
       0       0       0       0       0       0       0       0       0       0
       0       0       0       0       0       0       0       0       0       0
       0       0       0       0       0       0       0       0       0       0
       0       0       0       0       0       0       0       0       0       0
       0       0       0       0       0       0       0       0       0       0
       0       0       0       0       0       0       0       0       0       0
       0       0       0       0       0       0       0       0       0       0
       0       0       0       0       0       0       0       0       0       0
       0       0       0       0       0       0       0       0       0       0
       0       0       0       0       0       0       0       0       0       0
       0       0       0       0       0       0       0       0       0       0
       0       0       0       0       0       0       0       0       0       0
       0       0       0       0       0       0       0       0       0       0
       0       0       0       0       0       0       0       0       0       0
       0       0       0       0       0       0       0       0       0       0
       0       0       0       0       0       0       0       0       0       0
       0       0       0       0       0       0       0       0       0       0
       0       0       0       0       0       0       0       0       0       0
       0       0       0       0       0       0       0       0       0       0
       0       0       0       0       0       0       0       0       0       0
       0       0       0       0       0       0       0       0       0       0
       0       0       0       0       0       0       0       0       0       0
       0       0       0       0       0       0       0       0       0       0
       0       0       0       0       0       0       0       0       0       0
       0       0       0       0       0       0       0       0       0       0
       0       0       0       0       0       0       0       0       0       0
       0       0       0       0       0       0       0       0       0       0
       0       0       0       0       0       0       0       0       0       0
       0       0       0       0       0       0       0       0       0       0
       0       0       0       0       0       0       0       0       0       0
       0       0       0       0       0       0       0       0       0       0
       0       0       0       0       0       0       0       0       0       0
       0       0       0       0       0       0       0       0       0       0
       0       0       0       0       0       0       0       0       0       0
       0       0       0       0       0       0       0       0       0       0
       0       0       0       0       0       0       0       0       0       0
       0       0       0       0       0       0       0       0       0       0
       0       0       0       0       0       0       0       0       0       0
       0       0       0       0       0       0       0       0       0       0
       0       0       0       0       0       0       0       0       0       0
       0       0       0       0       0       0       0       0       0       0
       0       0       0       0       0       0       0       0       0       0
       0       0       0       0       0       0       0       0       0       0
       0       0       0       0       0       0       0       0       0       0
       0       0       0       0       0       0       0       0       0       0
       0       0       0       0       0       0       0       0       0       0
       0       0       0       0       0       0       0       0       0       0
       0       0       0       0       0       0       0       0       0       0
       0       0       0       0       0       0       0       0       0       0
       0       0       0       0       0       0       0       0       0       0
       0       0       0       0       0       0       0       0       0       0
       0       0       0       0       0       0       0       0       0       0
       0       0       0       0       0       0       0       0       0       0
       0       0       0       0       0       0       0       0       0       0
       0       0       0       0       0       0       0       0       0       0
       0       0       0       0       0       0       0       0       0       0
       0       0       0       0       0       0       0       0       0       0
       0       0       0       0       0       0       0       0       0       0
       0       0       0       0       0       0       0       0       0       0
       0       0       0       0       0       0       0       0       0       0
       0       0       0       0       0       0       0       0       0       0
       0       0       0       0       0       0       0       0       0       0
       0       0       0       0       0       0       0       0       0       0
       0       0       0       0       0       0       0       0       0       0
       0       0       0       0       0       0       0       0       0       0
       0       0       0       0       0       0       0       0       0       0
       0       0       0       0       0       0       0       0       0       0
       0       0       0       0       0       0       0       0       0       0
       0       0       0       0       0       0       0       0       0       0
       0       0       0       0       0       0       0       0       0       0
       0       0       0       0       0       0       0       0       0       0
       0       0       0       0       0       0       0       0       0       0
       0       0       0       0       0       0       0       0       0       0
       0       0       0       0       0       0       0       0       0       0
       0       0       0       0       0       0       0       0       0       0
       0       0       0       0       0       0       0       0       0       0
       0       0       0       0       0       0       0       0       0       0
       0       0       0       0       0       0       0       0       0       0
       0       0       0       0       0       0       0       0       0       0
       0       0       0       0       0       0       0       0       0       0
       0       0       0       0       0       0       0       0       0       0
       0       0       0       0       0       0       0       0       0       0
       0       0       0       0       0       0       0       0       0       0
       0       0       0       0       0       0       0       0       0       0
       0       0       0       0       0       0       0       0       0       0
       0       0       0       0       0       0       0       0       0       0
       0       0       0       0       0       0       0       0       0       0
       0       0       0       0       0       0       0       0       0       0
       0       0       0       0       0       0       0       0       0       0
       0       0       0       0       0       0       0       0       0       0
       0       0       0       0       0       0       0       0       0       0
       0       0       0       0       0       0       0       0       0       0
       0       0       0       0       0       0       0       0       0       0
       0       0       0       0       0       0       0       0       0       0
       0       0       0       0       0       0       0       0       0       0
       0       0       0       0       0       0       0       0       0       0
       0       0       0       0       0       0       0       0       0       0
       0       0       0       0       0       0       0       0       0       0
       0       0       0       0       0       0       0       0       0       0
       0       0       0       0       0       0       0       0       0       0
       0       0       0       0       0       0       0       0       0       0
       0       0       0       0       0       0       0       0       0       0
       0       0       0       0       0       0       0       0       0       0
       0       0       0       0       0       0       0       0       0       0
       0       0       0       0       0       0       0       0       0       0
       0       0       0       0       0       0       0       0       0       0
       0       0       0       0       0       0       0       0       0       0
       0       0       0       0       0       0       0       0       0       0
       0       0       0       0       0       0       0       0       0       0
       0       0       0       0       0       0       0       0       0       0
       0       0       0       0       0       0       0       0       0       0
       0       0       0       0       0       0       0       0       0       0
       0       0       0       0       0       0       0       0       0       0
       0       0       0       0       0       0       0       0       0       0
       0       0       0       0       0       0       0       0       0       0
       0       0       0       0       0       0       0       0       0       0
       0       0       0       0       0       0       0       0       0       0
       0       0       0       0       0       0       0       0       0       0
       0       0       0       0       0       0       0       0       0       0
       0       0       0       0       0       0       0       0       0       0
       0       0       0       0       0       0       0       0       0       0
       0       0       0       0       0       0       0       0       0       0
       0       0       0       0       0       0       0       0       0       0
       0       0       0       0       0       0       0       0       0       0
       0       0       0       0       0       0       0       0       0       0
       0       0       0       0       0       0       0       0       0       0
       0       0       0       0       0       0       0       0       0       0
       0       0       0       0       0       0       0       0       0       0
       0       0       0       0       0       0       0       0       0       0
       0       0       0       0       0       0       0       0       0       0
       0       0       0       0       0       0       0       0       0       0
       0       0       0       0       0       0       0       0       0       0
       0       0       0       0       0       0       0       0       0       0
       0       0       0       0       0       0       0       0       0       0
       0       0       0       0       0       0       0       0       0       0
       0       0       0       0       0       0       0       0       0       0
       0       0       0       0       0       0       0       0       0       0
       0       0       0       0       0       0       0       0       0       0
       0       0       0       0       0       0       0       0       0       0
       0       0       0       0       0       0       0       0       0       0
       0       0       0       0       0       0       0       0       0       0
       0       0       0       0       0       0       0       0       0       0
       0       0       0       0       0       0       0       0       0       0
       0       0       0       0       0       0       0       0       0       0
       0       0       0       0       0       0       0       0       0       0
       0       0       0       0       0       0       0       0       0       0
       0       0       0       0       0       0       0       0       0       0
       0       0       0       0       0       0       0       0       0       0
       0       0       0       0       0       0       0       0       0       0
       0       0       0       0       0       0       0       0       0       0
       0       0       0       0       0       0       0       0       0       0
       0       0       0       0       0       0       0       0       0       0
       0       0       0       0       0       0       0       0       0       0
       0       0       0       0       0       0       0       0       0       0
       0       0       0       0       0       0       0       0       0       0
       0       0       0       0       0       0       0       0       0       0
       0       0       0       0       0       0       0       0       0       0
       0       0       0       0       0       0       0       0       0       0
       0       0       0       0       0       0       0       0       0       0
       0       0       0       0       0       0       0       0       0       0
       0       0       0       0       0       0       0       0       0       0
       0       0       0       0       0       0       0       0       0       0
       0       0       0       0       0       0       0       0       0       0
       0       0       0       0       0       0       0       0       0       0
       0       0       0       0       0       0       0       0       0       0
       0       0       0       0       0       0       0       0       0       0
       0       0       0       0       0       0       0       0       0       0
       0       0       0       0       0       0       0       0       0       0
       0       0       0       0       0       0       0       0       0       0
       0       0       0       0       0       0       0       0       0       0
       0       0       0       0       0       0       0       0       0       0
       0       0       0       0       0       0       0       0       0       0
       0       0       0       0       0       0       0       0       0       0
       0       0       0       0       0       0       0       0       0       0
       0       0       0       0       0       0       0       0       0       0
       0       0       0       0       0       0       0       0       0       0
       0       0       0       0       0       0       0       0       0       0
       0       0       0       0       0       0       0       0       0       0
       0       0       0       0       0       0       0       0       0       0
       0       0       0       0       0       0       0       0       0       0
       0       0       0       0       0       0       0       0       0       0
       0       0       0       0       0       0       0       0       0       0
       0       0       0       0       0       0       0       0       0       0
       0       0       0       0       0       0       0       0       0       0
       0       0       0       0       0       0       0       0       0       0
       0       0       0       0       0       0       0       0       0       0
       0       0       0       0       0       0       0       0       0       0
       0       0       0       0       0       0       0       0       0       0
       0       0       0       0       0       0       0       0       0       0
       0       0       0       0       0       0       0       0       0       0
       0       0       0       0       0       0       0       0       0       0
       0       0       0       0       0       0       0       0       0       0
       0       0       0       0       0       0       0       0       0       0
       0       0       0       0       0       0       0       0       0       0
       0       0       0       0       0       0       0       0       0       0
       0       0       0       0       0       0       0       0       0       0
       0       0       0       0       0       0       0       0       0       0
       0       0       0       0       0       0       0       0       0       0
       0       0       0       0       0       0       0       0       0       0
       0       0       0       0       0       0       0       0       0       0
       0       0       0       0       0       0       0       0       0       0
       0       0       0       0       0       0       0       0       0       0
       0       0       0       0       0       0       0       0       0       0
       0       0       0       0       0       0       0       0       0       0
       0       0       0       0       0       0       0       0       0       0
       0       0       0       0       0       0       0       0       0       0
       0       0       0       0       0       0       0       0       0       0
       0       0       0       0       0       0       0       0       0       0
       0       0       0       0       0       0       0       0       0       0
       0       0       0       0       0       0       0       0       0       0
       0       0       0       0       0       0       0       0       0       0
       0       0       0       0       0       0       0       0       0       0
       0       0       0       0       0       0       0       0       0       0
       0       0       0       0       0       0       0       0       0       0
       0       0       0       0       0       0       0       0       0       0
       0       0       0       0       0       0       0       0       0       0
       0       0       0       0       0       0       0       0       0       0
       0       0       0       0       0       0       0       0       0       0
       0       0       0       0       0       0       0       0       0       0
       0       0       0       0       0       0       0       0       0       0
       0       0       0       0       0       0       0       0       0       0
       0       0       0       0       0       0       0       0       0       0
       0       0       0       0       0       0       0       0       0       0
       0       0       0       0       0       0       0       0       0       0
       0       0       0       0       0       0       0       0       0       0
       0       0       0       0       0       0       0       0       0       0
       0       0       0       0       0       0       0       0       0       0
       0       0       0       0       0       0       0       0       0       0
       0       0       0       0       0       0       0       0       0       0
       0       0       0       0       0       0       0       0       0       0
       0       0       0       0       0       0       0       0       0       0
       0       0       0       0       0       0       0       0       0       0
       0       0       0       0       0       0       0       0       0       0
       0       0       0       0       0       0       0       0       0       0
       0       0       0       0       0       0       0       0       0       0
       0       0       0       0       0       0       0       0       0       0
       0       0       0       0       0       0       0       0       0       0
       0       0       0       0       0       0       0       0       0       0
       0       0       0       0       0       0       0       0       0       0
       0       0       0       0       0       0       0       0       0       0
       0       0       0       0       0       0       0       0       0       0
       0       0       0       0       0       0       0       0       0       0
       0       0       0       0       0       0       0       0       0       0
       0       0       0       0       0       0       0       0       0       0
       0       0       0       0       0       0       0       0       0       0
       0       0       0       0       0       0       0       0       0       0
       0       0       0       0       0       0       0       0       0       0
       0       0       0       0       0       0       0       0       0       0
       0       0       0       0       0       0       0       0       0       0
       0       0       0       0       0       0       0       0       0       0
       0       0       0       0       0       0       0       0       0       0
       0       0       0       0       0       0       0       0       0       0
       0       0       0       0       0       0       0       0       0       0
       0       0       0       0       0       0       0       0       0       0
       0       0       0       0       0       0       0       0       0       0
       0       0       0       0       0       0       0       0       0       0
       0       0       0       0       0       0       0       0       0       0
       0       0       0       0       0       0       0       0       0       0
       0       0       0       0       0       0       0       0       0       0
       0       0       0       0       0       0       0       0       0       0
       0       0       0       0       0       0       0       0       0       0
       0       0       0       0       0       0       0       0       0       0
       0       0       0       0       0       0       0       0       0       0
       0       0       0       0       0       0       0       0       0       0
       0       0       0       0       0       0       0       0       0       0
       0       0       0       0       0       0       0       0       0       0
       0       0       0       0       0       0       0       0       0       0
       0       0       0       0       0       0       0       0       0       0
       0       0       0       0       0       0       0       0       0       0
       0       0       0       0       0       0       0       0       0       0
       0       0       0       0       0       0       0       0       0       0
       0       0       0       0       0       0       0       0       0       0
       0       0       0       0       0       0       0       0       0       0
       0       0       0       0       0       0       0       0       0       0
       0       0       0       0       0       0       0       0       0       0
       0       0       0       0       0       0       0       0       0       0
       0       0       0       0       0       0       0       0       0       0
       0       0       0       0       0       0       0       0       0       0
       0       0       0       0       0       0       0       0       0       0
       0       0       0       0       0       0       0       0       0       0
       0       0       0       0       0       0       0       0       0       0
       0       0       0       0       0       0       0       0       0       0
       0       0       0       0       0       0       0       0       0       0
       0       0       0       0       0       0       0       0       0       0
       0       0       0       0       0       0       0       0       0       0
       0       0       0       0       0       0       0       0       0       0
       0       0       0       0       0       0       0       0       0       0
       0       0       0       0       0       0       0       0       0       0
       0       0       0       0       0       0       0       0       0       0
       0       0       0       0       0       0       0       0       0       0
       0       0       0       0       0       0       0       0       0       0
       0       0       0       0       0       0       0       0       0       0
       0       0       0       0       0       0       0       0       0       0
       0       0       0       0       0       0       0       0       0       0
       0       0       0       0       0       0       0       0       0       0
       0       0       0       0       0       0       0       0       0       0
       0       0       0       0       0       0       0       0       0       0
       0       0       0       0       0       0       0       0       0       0
       0       0       0       0       0       0       0       0       0       0
       0       0       0       0       0       0       0       0       0       0
       0       0       0       0       0       0       0       0       0       0
       0       0       0       0       0       0       0       0       0       0
       0       0       0       0       0       0       0       0       0       0
       0       0       0       0       0       0       0       0       0       0
       0       0       0       0       0       0       0       0       0       0
       0       0       0       0       0       0       0       0       0       0
       0       0       0       0       0       0       0       0       0       0
       0       0       0       0       0       0       0       0       0       0
       0       0       0       0       0       0       0       0       0       0
       0       0       0       0       0       0       0       0       0       0
       0       0       0       0       0       0       0       0       0       0
       0       0       0       0       0       0       0       0       0       0
       0       0       0       0       0       0       0       0       0       0
       0       0       0       0       0       0       0       0       0       0
       0       0       0       0       0       0       0       0       0       0
       0       0       0       0       0       0       0       0       0       0
       0       0       0       0       0       0       0       0       0       0
       0       0       0       0       0       0       0       0       0       0
       0       0       0       0       0       0       0       0       0       0
       0       0       0       0       0       0       0       0       0       0
       0       0       0       0       0       0       0       0       0       0
       0       0       0       0       0       0       0       0       0       0
       0       0       0       0       0       0       0       0       0       0
       0       0       0       0       0       0       0       0       0       0
       0       0       0       0       0       0       0       0       0       0
       0       0       0       0       0       0       0       0       0       0
       0       0       0       0       0       0       0       0       0       0
       0       0       0       0       0       0       0       0       0       0
       0       0       0       0       0       0       0       0       0       0
       0       0       0       0       0       0       0       0       0       0
       0       0       0       0       0       0       0       0       0       0
       0       0       0       0       0       0       0       0       0       0
       0       0       0       0       0       0       0       0       0       0
       0       0       0       0       0       0       0       0       0       0
       0       0       0       0       0       0       0       0       0       0
       0       0       0       0       0       0       0       0       0       0
       0       0       0       0       0       0       0       0       0       0
       0       0       0       0       0       0       0       0       0       0
       0       0       0       0       0       0       0       0       0       0
       0       0       0       0       0       0       0       0       0       0
       0       0       0       0       0       0       0       0       0       0
       0       0       0       0       0       0       0       0       0       0
       0       0       0       0       0       0       0       0       0       0
       0       0       0       0       0       0       0       0       0       0
       0       0       0       0       0       0       0       0       0       0
       0       0       0       0       0       0       0       0       0       0
       0       0       0       0       0       0       0       0       0       0
       0       0       0       0       0       0       0       0       0       0
       0       0       0       0       0       0       0       0       0       0
       0       0       0       0       0       0       0       0       0       0
       0       0       0       0       0       0       0       0       0       0
       0       0       0       0       0       0       0       0       0       0
       0       0       0       0       0       0       0       0       0       0
       0       0       0       0       0       0       0       0       0       0
       0       0       0       0       0       0       0       0       0       0
       0       0       0       0       0       0       0       0       0       0
       0       0       0       0       0       0       0       0       0       0
       0       0       0       0       0       0       0       0       0       0
       0       0       0       0       0       0       0       0       0       0
       0       0       0       0       0       0       0       0       0       0
       0       0       0       0       0       0       0       0       0       0
       0       0       0       0       0       0       0       0       0       0
       0       0       0       0       0       0       0       0       0       0
       0       0       0       0       0       0       0       0       0       0
       0       0       0       0       0       0       0       0       0       0
       0       0       0       0       0       0       0       0       0       0
       0       0       0       0       0       0       0       0       0       0
       0       0       0       0       0       0       0       0       0       0
       0       0       0       0       0       0       0       0       0       0
       0       0       0       0       0       0       0       0       0       0
       0       0       0       0       0       0       0       0       0       0
       0       0       0       0       0       0       0       0       0       0
       0       0       0       0       0       0       0       0       0       0
       0       0       0       0       0       0       0       0       0       0
       0       0       0       0       0       0       0       0       0       0
       0       0       0       0       0       0       0       0       0       0
       0       0       0       0       0       0       0       0       0       0
       0       0       0       0       0       0       0       0       0       0
       0       0       0       0       0       0       0       0       0       0
       0       0       0       0       0       0       0       0       0       0
       0       0       0       0       0       0       0       0       0       0
       0       0       0       0       0       0       0       0       0       0
       0       0       0       0       0       0       0       0       0       0
       0       0       0       0       0       0       0       0       0       0
       0       0       0       0       0       0       0       0       0       0
       0       0       0       0       0       0       0       0       0       0
       0       0       0       0       0       0       0       0       0       0
       0       0       0       0       0       0       0       0       0       0
       0       0       0       0       0       0       0       0       0       0
       0       0       0       0       0       0       0       0       0       0
       0       0       0       0       0       0       0       0       0       0
       0       0       0       0       0       0       0       0       0       0
       0       0       0       0       0       0       0       0       0       0
       0       0       0       0       0       0       0       0       0       0
       0       0       0       0       0       0       0       0       0       0
       0       0       0       0       0       0       0       0       0       0
       0       0       0       0       0       0       0       0       0       0
       0       0       0       0       0       0       0       0       0       0
       0       0       0       0       0       0       0       0       0       0
       0       0       0       0       0       0       0       0       0       0
       0       0       0       0       0       0       0       0       0       0
       0       0       0       0       0       0       0       0       0       0
       0       0       0       0       0       0       0       0       0       0
       0       0       0       0       0       0       0       0       0       0
       0       0       0       0       0       0       0       0       0       0
       0       0       0       0       0       0       0       0       0       0
       0       0       0       0       0       0       0       0       0       0
       0       0       0       0       0       0       0       0       0       0
       0       0       0       0       0       0       0       0       0       0
       0       0       0       0       0       0       0       0       0       0
       0       0       0       0       0       0       0       0       0       0
       0       0       0       0       0       0       0       0       0       0
       0       0       0       0       0       0       0       0       0       0
       0       0       0       0       0       0       0       0       0       0
       0       0       0       0       0       0       0       0       0       0
       0       0       0       0       0       0       0       0       0       0
       0       0       0       0       0       0       0       0       0       0
       0       0       0       0       0       0       0       0       0       0
       0       0       0       0       0       0       0       0       0       0
       0       0       0       0       0       0       0       0       0       0
       0       0       0       0       0       0       0       0       0       0
       0       0       0       0       0       0       0       0       0       0
       0       0       0       0       0       0       0       0       0       0
       0       0       0       0       0       0       0       0       0       0
       0       0       0       0       0       0       0       0       0       0
       0       0       0       0       0       0       0       0       0       0
       0       0       0       0       0       0       0       0       0       0
       0       0       0       0       0       0       0       0       0       0
       0       0       0       0       0       0       0       0       0       0
       0       0       0       0       0       0       0       0       0       0
       0       0       0       0       0       0       0       0       0       0
       0       0       0       0       0       0       0       0       0       0
       0       0       0       0       0       0       0       0       0       0
       0       0       0       0       0       0       0       0       0       0
       0       0       0       0       0       0       0       0       0       0
       0       0       0       0       0       0       0       0       0       0
       0       0       0       0       0       0       0       0       0       0
       0       0       0       0       0       0       0       0       0       0
       0       0       0       0       0       0       0       0       0       0
       0       0       0       0       0       0       0       0       0       0
       0       0       0       0       0       0       0       0       0       0
       0       0       0       0       0       0       0       0       0       0
       0       0       0       0       0       0       0       0       0       0
       0       0       0       0       0       0       0       0       0       0
       0       0       0       0       0       0       0       0       0       0
       0       0       0       0       0       0       0       0       0       0
       0       0       0       0       0       0       0       0       0       0
       0       0       0       0       0       0       0       0       0       0
       0       0       0       0       0       0       0       0       0       0
       0       0       0       0       0       0       0       0       0       0
       0       0       0       0       0       0       0       0       0       0
       0       0       0       0       0       0       0       0       0       0
       0       0       0       0       0       0       0       0       0       0
       0       0       0       0       0       0       0       0       0       0
       0       0       0       0       0       0       0       0       0       0
       0       0       0       0       0       0       0       0       0       0
       0       0       0       0       0       0       0       0       0       0
       0       0       0       0       0       0       0       0       0       0
       0       0       0       0       0       0       0       0       0       0
       0       0       0       0       0       0       0       0       0       0
       0       0       0       0       0       0       0       0       0       0
       0       0       0       0       0       0       0       0       0       0
       0       0       0       0       0       0       0       0       0       0
       0       0       0       0       0       0       0       0       0       0
       0       0       0       0       0       0       0       0       0       0
       0       0       0       0       0       0       0       0       0       0
       0       0       0       0       0       0       0       0       0       0
       0       0       0       0       0       0       0       0       0       0
       0       0       0       0       0       0       0       0       0       0
       0       0       0       0       0       0       0       0       0       0
       0       0       0       0       0       0       0       0       0       0
       0       0       0       0       0       0       0       0       0       0
       0       0       0       0       0       0       0       0       0       0
       0       0       0       0       0       0       0       0       0       0
       0       0       0       0       0       0       0       0       0       0
       0       0       0       0       0       0       0       0       0       0
       0       0       0       0       0       0       0       0       0       0
       0       0       0       0       0       0       0       0       0       0
       0       0       0       0       0       0       0       0       0       0
       0       0       0       0       0       0       0       0       0       0
       0       0       0       0       0       0       0       0       0       0
       0       0       0       0       0       0       0       0       0       0
       0       0       0       0       0       0       0       0       0       0
       0       0       0       0       0       0       0       0       0       0
       0       0       0       0       0       0       0       0       0       0
       0       0       0       0       0       0       0       0       0       0
       0       0       0       0       0       0       0       0       0       0
       0       0       0       0       0       0       0       0       0       0
       0       0       0       0       0       0       0       0       0       0
       0       0       0       0       0       0       0       0       0       0
       0       0       0       0       0       0       0       0       0       0
       0       0       0       0       0       0       0       0       0       0
       0       0       0       0       0       0       0       0       0       0
       0       0       0       0       0       0       0       0       0       0
       0       0       0       0       0       0       0       0       0       0
       0       0       0       0       0       0       0       0       0       0
       0       0       0       0       0       0       0       0       0       0
       0       0       0       0       0       0       0       0       0       0
       0       0       0       0       0       0       0       0       0       0
       0       0       0       0       0       0       0       0       0       0
       0       0       0       0       0       0       0       0       0       0
       0       0       0       0       0       0       0       0       0       0
       0       0       0       0       0       0       0       0       0       0
       0       0       0       0       0       0       0       0       0       0
       0       0       0       0       0       0       0       0       0       0
       0       0       0       0       0       0       0       0       0       0
       0       0       0       0       0       0       0       0       0       0
       0       0       0       0       0       0       0       0       0       0
       0       0       0       0       0       0       0       0       0       0
       0       0       0       0       0       0       0       0       0       0
       0       0       0       0       0       0       0       0       0       0
       0       0       0       0       0       0       0       0       0       0
       0       0       0       0       0       0       0       0       0       0
       0       0       0       0       0       0       0       0       0       0
       0       0       0       0       0       0       0       0       0       0
       0       0       0       0       0       0       0       0       0       0
       0       0       0       0       0       0       0       0       0       0
       0       0       0       0       0       0       0       0       0       0
       0       0       0       0       0       0       0       0       0       0
       0       0       0       0       0       0       0       0       0       0
       0       0       0       0       0       0       0       0       0       0
       0       0       0       0       0       0       0       0       0       0
       0       0       0       0       0       0       0       0       0       0
       0       0       0       0       0       0       0       0       0       0
       0       0       0       0       0       0       0       0       0       0
       0       0       0       0       0       0       0       0       0       0
       0       0       0       0       0       0       0       0       0       0
       0       0       0       0       0       0       0       0       0       0
       0       0       0       0       0       0       0       0       0       0
       0       0       0       0       0       0       0       0       0       0
       0       0       0       0       0       0       0       0       0       0
       0       0       0       0       0       0       0       0       0       0
       0       0       0       0       0       0       0       0       0       0
       0       0       0       0       0       0       0       0       0       0
       0       0       0       0       0       0       0       0       0       0
       0       0       0       0       0       0       0       0       0       0
       0       0       0       0       0       0       0       0       0       0
       0       0       0       0       0       0       0       0       0       0
       0       0       0       0       0       0       0       0       0       0
       0       0       0       0       0       0       0       0       0       0
       0       0       0       0       0       0       0       0       0       0
       0       0       0       0       0       0       0       0       0       0
       0       0       0       0       0       0       0       0       0       0
       0       0       0       0       0       0       0       0       0       0
       0       0       0       0       0       0       0       0       0       0
       0       0       0       0       0       0       0       0       0       0
       0       0       0       0       0       0       0       0       0       0
       0       0       0       0       0       0       0       0       0       0
       0       0       0       0       0       0       0       0       0       0
       0       0       0       0       0       0       0       0       0       0
       0       0       0       0       0       0       0       0       0       0
       0       0       0       0       0       0       0       0       0       0
       0       0       0       0       0       0       0       0       0       0
       0       0       0       0       0       0       0       0       0       0
       0       0       0       0       0       0       0       0       0       0
       0       0       0       0       0       0       0       0       0       0
       0       0       0       0       0       0       0       0       0       0
       0       0       0       0       0       0       0       0       0       0
       0       0       0       0       0       0       0       0       0       0
       0       0       0       0       0       0       0       0       0       0
       0       0       0       0       0       0       0       0       0       0
       0       0       0       0       0       0       0       0       0       0
       0       0       0       0       0       0       0       0       0       0
       0       0       0       0       0       0       0       0       0       0
       0       0       0       0       0       0       0       0       0       0
       0       0       0       0       0       0       0       0       0       0
       0       0       0       0       0       0       0       0       0       0
       0       0       0       0       0       0       0       0       0       0
       0       0       0       0       0       0       0       0       0       0
       0       0       0       0       0       0       0       0       0       0
       0       0       0       0       0       0       0       0       0       0
       0       0       0       0       0       0       0       0       0       0
       0       0       0       0       0       0       0       0       0       0
       0       0       0       0       0       0       0       0       0       0
       0       0       0       0       0       0       0       0       0       0
       0       0       0       0       0       0       0       0       0       0
       0       0       0       0       0       0       0       0       0       0
       0       0       0       0       0       0       0       0       0       0
       0       0       0       0       0       0       0       0       0       0
       0       0       0       0       0       0       0       0       0       0
       0       0       0       0       0       0       0       0       0       0
       0       0       0       0       0       0       0       0       0       0
       0       0       0       0       0       0       0       0       0       0
       0       0       0       0       0       0       0       0       0       0
       0       0       0       0       0       0       0       0       0       0
       0       0       0       0       0       0       0       0       0       0
       0       0       0       0       0       0       0       0       0       0
       0       0       0       0       0       0       0       0       0       0
       0       0       0       0       0       0       0       0       0       0
       0       0       0       0       0       0       0       0       0       0
       0       0       0       0       0       0       0       0       0       0
       0       0       0       0       0       0       0       0       0       0
       0       0       0       0       0       0       0       0       0       0
       0       0       0       0       0       0       0       0       0       0
       0       0       0       0       0       0       0       0       0       0
       0       0       0       0       0       0       0       0       0       0
       0       0       0       0       0       0       0       0       0       0
       0       0       0       0       0       0       0       0       0       0
       0       0       0       0       0       0       0       0       0       0
       0       0       0       0       0       0       0       0       0       0
       0       0       0       0       0       0       0       0       0       0
       0       0       0       0       0       0       0       0       0       0
       0       0       0       0       0       0       0       0       0       0
       0       0       0       0       0       0       0       0       0       0
       0       0       0       0       0       0       0       0       0       0
       0       0       0       0       0       0       0       0       0       0
       0       0       0       0       0       0       0       0       0       0
       0       0       0       0       0       0       0       0       0       0
       0       0       0       0       0       0       0       0       0       0
       0       0       0       0       0       0       0       0       0       0
       0       0       0       0       0       0       0       0       0       0
       0       0       0       0       0       0       0       0       0       0
       0       0       0       0       0       0       0       0       0       0
       0       0       0       0       0       0       0       0       0       0
       0       0       0       0       0       0       0       0       0       0
       0       0       0       0       0       0       0       0       0       0
       0       0       0       0       0       0       0       0       0       0
       0       0       0       0       0       0       0       0       0       0
       0       0       0       0       0       0       0       0       0       0
       0       0       0       0       0       0       0       0       0       0
       0       0       0       0       0       0       0       0       0       0
       0       0       0       0       0       0       0       0       0       0
       0       0       0       0       0       0       0       0       0       0
       0       0       0       0       0       0       0       0       0       0
       0       0       0       0       0       0       0       0       0       0
       0       0       0       0       0       0       0       0       0       0
       0       0       0       0       0       0       0       0       0       0
       0       0       0       0       0       0       0       0       0       0
       0       0       0       0       0       0       0       0       0       0
       0       0       0       0       0       0       0       0       0       0
       0       0       0       0       0       0       0       0       0       0
       0       0       0       0       0       0       0       0       0       0
       0       0       0       0       0       0       0       0       0       0
       0       0       0       0       0       0       0       0       0       0
       0       0       0       0       0       0       0       0       0       0
       0       0       0       0       0       0       0       0       0       0
       0       0       0       0       0       0       0       0       0       0
       0       0       0       0       0       0       0       0       0       0
       0       0       0       0       0       0       0       0       0       0
       0       0       0       0       0       0       0       0       0       0
       0       0       0       0       0       0       0       0       0       0
       0       0       0       0       0       0       0       0       0       0
       0       0       0       0       0       0       0       0       0       0
       0       0       0       0       0       0       0       0       0       0
       0       0       0       0       0       0       0       0       0       0
       0       0       0       0       0       0       0       0       0       0
       0       0       0       0       0       0       0       0       0       0
       0       0       0       0       0       0       0       0       0       0
       0       0       0       0       0       0       0       0       0       0
       0       0       0       0       0       0       0       0       0       0
       0       0       0       0       0       0       0       0       0       0
       0       0       0       0       0       0       0       0       0       0
       0       0       0       0       0       0       0       0       0       0
       0       0       0       0       0       0       0       0       0       0
       0       0       0       0       0       0       0       0       0       0
       0       0       0       0       0       0       0       0       0       0
       0       0       0       0       0       0       0       0       0       0
       0       0       0       0       0       0       0       0       0       0
       0       0       0       0       0       0       0       0       0       0
       0       0       0       0       0       0       0       0       0       0
       0       0       0       0       0       0       0       0       0       0
       0       0       0       0       0       0       0       0       0       0
       0       0       0       0       0       0       0       0       0       0
       0       0       0       0       0       0       0       0       0       0
       0       0       0       0       0       0       0       0       0       0
       0       0       0       0       0       0       0       0       0       0
       0       0       0       0       0       0       0       0       0       0
       0       0       0       0       0       0       0       0       0       0
       0       0       0       0       0       0       0       0       0       0
       0       0       0       0       0       0       0       0       0       0
       0       0       0       0       0       0       0       0       0       0
       0       0       0       0       0       0       0       0       0       0
       0       0       0       0       0       0       0       0       0       0
       0       0       0       0       0       0       0       0       0       0
       0       0       0       0       0       0       0       0       0       0
       0       0       0       0       0       0       0       0       0       0
       0       0       0       0       0       0       0       0       0       0
       0       0       0       0       0       0       0       0       0       0
       0       0       0       0       0       0       0       0       0       0
       0       0       0       0       0       0       0       0       0       0
       0       0       0       0       0       0       0       0       0       0
       0       0       0       0       0       0       0       0       0       0
       0       0       0       0       0       0       0       0       0       0
       0       0       0       0       0       0       0       0       0       0
       0       0       0       0       0       0       0       0       0       0
       0       0       0       0       0       0       0       0       0       0
       0       0       0       0       0       0       0       0       0       0
       0       0       0       0       0       0       0       0       0       0
       0       0       0       0       0       0       0       0       0       0
       0       0       0       0       0       0       0       0       0       0
       0       0       0       0       0       0       0       0       0       0
       0       0       0       0       0       0       0       0       0       0
       0       0       0       0       0       0       0       0       0       0
       0       0       0       0       0       0       0       0       0       0
       0       0       0       0       0       0       0       0       0       0
       0       0       0       0       0       0       0       0       0       0
       0       0       0       0       0       0       0       0       0       0
       0       0       0       0       0       0       0       0       0       0
       0       0       0       0       0       0       0       0       0       0
       0       0       0       0       0       0       0       0       0       0
       0       0       0       0       0       0       0       0       0       0
       0       0       0       0       0       0       0       0       0       0
       0       0       0       0       0       0       0       0       0       0
       0       0       0       0       0       0       0       0       0       0
       0       0       0       0       0       0       0       0       0       0
       0       0       0       0       0       0       0       0       0       0
       0       0       0       0       0       0       0       0       0       0
       0       0       0       0       0       0       0       0       0       0
       0       0       0       0       0       0       0       0       0       0
       0       0       0       0       0       0       0       0       0       0
       0       0       0       0       0       0       0       0       0       0
       0       0       0       0       0       0       0       0       0       0
       0       0       0       0       0       0       0       0       0       0
       0       0       0       0       0       0       0       0       0       0
       0       0       0       0       0       0       0       0       0       0
       0       0       0       0       0       0       0       0       0       0
       0       0       0       0       0       0       0       0       0       0
       0       0       0       0       0       0       0       0       0       0
       0       0       0       0       0       0       0       0       0       0
       0       0       0       0       0       0       0       0       0       0
       0       0       0       0       0       0       0       0       0       0
       0       0       0       0       0       0       0       0       0       0
       0       0       0       0       0       0       0       0       0       0
       0       0       0       0       0       0       0       0       0       0
       0       0       0       0       0       0       0       0       0       0
       0       0       0       0       0       0       0       0       0       0
       0       0       0       0       0       0       0       0       0       0
       0       0       0       0       0       0       0       0       0       0
       0       0       0       0       0       0       0       0       0       0
       0       0       0       0       0       0       0       0       0       0
       0       0       0       0       0       0       0       0       0       0
       0       0       0       0       0       0       0       0       0       0
       0       0       0       0       0       0       0       0       0       0
       0       0       0       0       0       0       0       0       0       0
       0       0       0       0       0       0       0       0       0       0
       0       0       0       0       0       0       0       0       0       0
       0       0       0       0       0       0       0       0       0       0
       0       0       0       0       0       0       0       0       0       0
       0       0       0       0       0       0       0       0       0       0
       0       0       0       0       0       0       0       0       0       0
       0       0       0       0       0       0       0       0       0       0
       0       0       0       0       0       0       0       0       0       0
       0       0       0       0       0       0       0       0       0       0
       0       0       0       0       0       0       0       0       0       0
       0       0       0       0       0       0       0       0       0       0
       0       0       0       0       0       0       0       0       0       0
       0       0       0       0       0       0       0       0       0       0
       0       0       0       0       0       0       0       0       0       0
       0       0       0       0       0       0       0       0       0       0
       0       0       0       0       0       0       0       0       0       0
       0       0       0       0       0       0       0       0       0       0
       0       0       0       0       0       0       0       0       0       0
       0       0       0       0       0       0       0       0       0       0
       0       0       0       0       0       0       0       0       0       0
       0       0       0       0       0       0       0       0       0       0
       0       0       0       0       0       0       0       0       0       0
       0       0       0       0       0       0       0       0       0       0
       0       0       0       0       0       0       0       0       0       0
       0       0       0       0       0       0       0       0       0       0
       0       0       0       0       0       0       0       0       0       0
       0       0       0       0       0       0       0       0       0       0
       0       0       0       0       0       0       0       0       0       0
       0       0       0       0       0       0       0       0       0       0
       0       0       0       0       0       0       0       0       0       0
       0       0       0       0       0       0       0       0       0       0
       0       0       0       0       0       0       0       0       0       0
       0       0       0       0       0       0       0       0       0       0
       0       0       0       0       0       0       0       0       0       0
       0       0       0       0       0       0       0       0       0       0
       0       0       0       0       0       0       0       0       0       0
       0       0       0       0       0       0       0       0       0       0
       0       0       0       0       0       0       0       0       0       0
       0       0       0       0       0       0       0       0       0       0
       0       0       0       0       0       0       0       0       0       0
       0       0       0       0       0       0       0       0       0       0
       0       0       0       0       0       0       0       0       0       0
       0       0       0       0       0       0       0       0       0       0
       0       0       0       0       0       0       0       0       0       0
       0       0       0       0       0       0       0       0       0       0
       0       0       0       0       0       0       0       0       0       0
       0       0       0       0       0       0       0       0       0       0
       0       0       0       0       0       0       0       0       0       0
       0       0       0       0       0       0       0       0       0       0
       0       0       0       0       0       0       0       0       0       0
       0       0       0       0       0       0       0       0       0       0
       0       0       0       0       0       0       0       0       0       0
       0       0       0       0       0       0       0       0       0       0
       0       0       0       0       0       0       0       0       0       0
       0       0       0       0       0       0       0       0       0       0
       0       0       0       0       0       0       0       0       0       0
       0       0       0       0       0       0       0       0       0       0
       0       0       0       0       0       0       0       0       0       0
       0       0       0       0       0       0       0       0       0       0
       0       0       0       0       0       0       0       0       0       0
       0       0       0       0       0       0       0       0       0       0
       0       0       0       0       0       0       0       0       0       0
       0       0       0       0       0       0       0       0       0       0
       0       0       0       0       0       0       0       0       0       0
       0       0       0       0       0       0       0       0       0       0
       0       0       0       0       0       0       0       0       0       0
       0       0       0       0       0       0       0       0       0       0
       0       0       0       0       0       0       0       0       0       0
       0       0       0       0       0       0       0       0       0       0
       0       0       0       0       0       0       0       0       0       0
       0       0       0       0       0       0       0       0       0       0
       0       0       0       0       0       0       0       0       0       0
       0       0       0       0       0       0       0       0       0       0
       0       0       0       0       0       0       0       0       0       0
       0       0       0       0       0       0       0       0       0       0
       0       0       0       0       0       0       0       0       0       0
       0       0       0       0       0       0       0       0       0       0
       0       0       0       0       0       0       0       0       0       0
       0       0       0       0       0       0       0       0       0       0
       0       0       0       0       0       0       0       0       0       0
       0       0       0       0       0       0       0       0       0       0
       0       0       0       0       0       0       0       0       0       0
       0       0       0       0       0       0       0       0       0       0
       0       0       0       0       0       0       0       0       0       0
       0       0       0       0       0       0       0       0       0       0
       0       0       0       0       0       0       0       0       0       0
       0       0       0       0       0       0       0       0       0       0
       0       0       0       0       0       0       0       0       0       0
       0       0       0       0       0       0       0       0       0       0
       0       0       0       0       0       0       0       0       0       0
       0       0       0       0       0       0       0       0       0       0
       0       0       0       0       0       0       0       0       0       0
       0       0       0       0       0       0       0       0       0       0
       0       0       0       0       0       0       0       0       0       0
       0       0       0       0       0       0       0       0       0       0
       0       0       0       0       0       0       0       0       0       0
       0       0       0       0       0       0       0       0       0       0
       0       0       0       0       0       0       0       0       0       0
       0       0       0       0       0       0       0       0       0       0
       0       0       0       0       0       0       0       0       0       0
       0       0       0       0       0       0       0       0       0       0
       0       0       0       0       0       0       0       0       0       0
       0       0       0       0       0       0       0       0       0       0
       0       0       0       0       0       0       0       0       0       0
       0       0       0       0       0       0       0       0       0       0
       0       0       0       0       0       0       0       0       0       0
       0       0       0       0       0       0       0       0       0       0
       0       0       0       0       0       0       0       0       0       0
       0       0       0       0       0       0       0       0       0       0
       0       0       0       0       0       0       0       0       0       0
       0       0       0       0       0       0       0       0       0       0
       0       0       0       0       0       0       0       0       0       0
       0       0       0       0       0       0       0       0       0       0
       0       0       0       0       0       0       0       0       0       0
       0       0       0       0       0       0       0       0       0       0
       0       0       0       0       0       0       0       0       0       0
       0       0       0       0       0       0       0       0       0       0
       0       0       0       0       0       0       0       0       0       0
       0       0       0       0       0       0       0       0       0       0
       0       0       0       0       0       0       0       0       0       0
       0       0       0       0       0       0       0       0       0       0
       0       0       0       0       0       0       0       0       0       0
       0       0       0       0       0       0       0       0       0       0
       0       0       0       0       0       0       0       0       0       0
       0       0       0       0       0       0       0       0       0       0
       0       0       0       0       0       0       0       0       0       0
       0       0       0       0       0       0       0       0       0       0
       0       0       0       0       0       0       0       0       0       0
       0       0       0       0       0       0       0       0       0       0
       0       0       0       0       0       0       0       0       0       0
       0       0       0       0       0       0       0       0       0       0
       0       0       0       0       0       0       0       0       0       0
       0       0       0       0       0       0       0       0       0       0
       0       0       0       0       0       0       0       0       0       0
       0       0       0       0       0       0       0       0       0       0
       0       0       0       0       0       0       0       0       0       0
       0       0       0       0       0       0       0       0       0       0
       0       0       0       0       0       0       0       0       0       0
       0       0       0       0       0       0       0       0       0       0
       0       0       0       0       0       0       0       0       0       0
       0       0       0       0       0       0       0       0       0       0
       0       0       0       0       0       0       0       0       0       0
       0       0       0       0       0       0       0       0       0       0
       0       0       0       0       0       0       0       0       0       0
       0       0       0       0       0       0       0       0       0       0
       0       0       0       0       0       0       0       0       0       0
       0       0       0       0       0       0       0       0       0       0
       0       0       0       0       0       0       0       0       0       0
       0       0       0       0       0       0       0       0       0       0
       0       0       0       0       0       0       0       0       0       0
       0       0       0       0       0       0       0       0       0       0
       0       0       0       0       0       0       0       0       0       0
       0       0       0       0       0       0       0       0       0       0
       0       0       0       0       0       0       0       0       0       0
       0       0       0       0       0       0       0       0       0       0
       0       0       0       0       0       0       0       0       0       0
       0       0       0       0       0       0       0       0       0       0
       0       0       0       0       0       0       0       0       0       0
       0       0       0       0       0       0       0       0       0       0
       0       0       0       0       0       0       0       0       0       0
       0       0       0       0       0       0       0       0       0       0
       0       0       0       0       0       0       0       0       0       0
       0       0       0       0       0       0       0       0       0       0
       0       0       0       0       0       0       0       0       0       0
       0       0       0       0       0       0       0       0       0       0
       0       0       0       0       0       0       0       0       0       0
       0       0       0       0       0       0       0       0       0       0
       0       0       0       0       0       0       0       0       0       0
       0       0       0       0       0       0       0       0       0       0
       0       0       0       0       0       0       0       0       0       0
       0       0       0       0       0       0       0       0       0       0
       0       0       0       0       0       0       0       0       0       0
       0       0       0       0       0       0       0       0       0       0
       0       0       0       0       0       0       0       0       0       0
       0       0       0       0       0       0       0       0       0       0
       0       0       0       0       0       0       0       0       0       0
       0       0       0       0       0       0       0       0       0       0
       0       0       0       0       0       0       0       0       0       0
       0       0       0       0       0       0       0       0       0       0
       0       0       0       0       0       0       0       0       0       0
       0       0       0       0       0       0       0       0       0       0
       0       0       0       0       0       0       0       0       0       0
       0       0       0       0       0       0       0       0       0       0
       0       0       0       0       0       0       0       0       0       0
       0       0       0       0       0       0       0       0       0       0
       0       0       0       0       0       0       0       0       0       0
       0       0       0       0       0       0       0       0       0       0
       0       0       0       0       0       0       0       0       0       0
       0       0       0       0       0       0       0       0       0       0
       0       0       0       0       0       0       0       0       0       0
       0       0       0       0       0       0       0       0       0       0
       0       0       0       0       0       0       0       0       0       0
       0       0       0       0       0       0       0       0       0       0
       0       0       0       0       0       0       0       0       0       0
       0       0       0       0       0       0       0       0       0       0
       0       0       0       0       0       0       0       0       0       0
       0       0       0       0       0       0       0       0       0       0
       0       0       0       0       0       0       0       0       0       0
       0       0       0       0       0       0       0       0       0       0
       0       0       0       0       0       0       0       0       0       0
       0       0       0       0       0       0       0       0       0       0
       0       0       0       0       0       0       0       0       0       0
       0       0       0       0       0       0       0       0       0       0
       0       0       0       0       0       0       0       0       0       0
       0       0       0       0       0       0       0       0       0       0
       0       0       0       0       0       0       0       0       0       0
       0       0       0       0       0       0       0       0       0       0
       0       0       0       0       0       0       0       0       0       0
       0       0       0       0       0       0       0       0       0       0
       0       0       0       0       0       0       0       0       0       0
       0       0       0       0       0       0       0       0       0       0
       0       0       0       0       0       0       0       0       0       0
       0       0       0       0       0       0       0       0       0       0
       0       0       0       0       0       0       0       0       0       0
       0       0       0       0       0       0       0       0       0       0
       0       0       0       0       0       0       0       0       0       0
       0       0       0       0       0       0       0       0       0       0
       0       0       0       0       0       0       0       0       0       0
       0       0       0       0       0       0       0       0       0       0
       0       0       0       0       0       0       0       0       0       0
       0       0       0       0       0       0       0       0       0       0
       0       0       0       0       0       0       0       0       0       0
       0       0       0       0       0       0       0       0       0       0
       0       0       0       0       0       0       0       0       0       0
       0       0       0       0       0       0       0       0       0       0
       0       0       0       0       0       0       0       0       0       0
       0       0       0       0       0       0       0       0       0       0
       0       0       0       0       0       0       0       0       0       0
       0       0       0       0       0       0       0       0       0       0
       0       0       0       0       0       0       0       0       0       0
       0       0       0       0       0       0       0       0       0       0
       0       0       0       0       0       0       0       0       0       0
       0       0       0       0       0       0       0       0       0       0
       0       0       0       0       0       0       0       0       0       0
       0       0       0       0       0       0       0       0       0       0
       0       0       0       0       0       0       0       0       0       0
       0       0       0       0       0       0       0       0       0       0
       0       0       0       0       0       0       0       0       0       0
       0       0       0       0       0       0       0       0       0       0
       0       0       0       0       0       0       0       0       0       0
       0       0       0       0       0       0       0       0       0       0
       0       0       0       0       0       0       0       0       0       0
       0       0       0       0       0       0       0       0       0       0
       0       0       0       0       0       0       0       0       0       0
       0       0       0       0       0       0       0       0       0       0
       0       0       0       0       0       0       0       0       0       0
       0       0       0       0       0       0       0       0       0       0
       0       0       0       0       0       0       0       0       0       0
       0       0       0       0       0       0       0       0       0       0
       0       0       0       0       0       0       0       0       0       0
       0       0       0       0       0       0       0       0       0       0
       0       0       0       0       0       0       0       0       0       0
       0       0       0       0       0       0       0       0       0       0
       0       0       0       0       0       0       0       0       0       0
       0       0       0       0       0       0       0       0       0       0
       0       0       0       0       0       0       0       0       0       0
       0       0       0       0       0       0       0       0       0       0
       0       0       0       0       0       0       0       0       0       0
       0       0       0       0       0       0       0       0       0       0
       0       0       0       0       0       0       0       0       0       0
       0       0       0       0       0       0       0       0       0       0
       0       0       0       0       0       0       0       0       0       0
       0       0       0       0       0       0       0       0       0       0
       0       0       0       0       0       0       0       0       0       0
       0       0       0       0       0       0       0       0       0       0
       0       0       0       0       0       0       0       0       0       0
       0       0       0       0       0       0       0       0       0       0
       0       0       0       0       0       0       0       0       0       0
       0       0       0       0       0       0       0       0       0       0
       0       0       0       0       0       0       0       0       0       0
       0       0       0       0       0       0       0       0       0       0
       0       0       0       0       0       0       0       0       0       0
       0       0       0       0       0       0       0       0       0       0
       0       0       0       0       0       0       0       0       0       0
       0       0       0       0       0       0       0       0       0       0
       0       0       0       0       0       0       0       0       0       0
       0       0       0       0       0       0       0       0       0       0
       0       0       0       0       0       0       0       0       0       0
       0       0       0       0       0       0       0       0       0       0
       0       0       0       0       0       0       0       0       0       0
       0       0       0       0       0       0       0       0       0       0
       0       0       0       0       0       0       0       0       0       0
       0       0       0       0       0       0       0       0       0       0
       0       0       0       0       0       0       0       0       0       0
       0       0       0       0       0       0       0       0       0       0
       0       0       0       0       0       0       0       0       0       0
       0       0       0       0       0       0       0       0       0       0
       0       0       0       0       0       0       0       0       0       0
       0       0       0       0       0       0       0       0       0       0
       0       0       0       0       0       0       0       0       0       0
       0       0       0       0       0       0       0       0       0       0
       0       0       0       0       0       0       0       0       0       0
       0       0       0       0       0       0       0       0       0       0
       0       0       0       0       0       0       0       0       0       0
       0       0       0       0       0       0       0       0       0       0
       0       0       0       0       0       0       0       0       0       0
       0       0       0       0       0       0       0       0       0       0
       0       0       0       0       0       0       0       0       0       0
       0       0       0       0       0       0       0       0       0       0
       0       0       0       0       0       0       0       0       0       0
       0       0       0       0       0       0       0       0       0       0
       0       0       0       0       0       0       0       0       0       0
       0       0       0       0       0       0       0       0       0       0
       0       0       0       0       0       0       0       0       0       0
       0       0       0       0       0       0       0       0       0       0
       0       0       0       0       0       0       0       0       0       0
       0       0       0       0       0       0       0       0       0       0
       0       0       0       0       0       0       0       0       0       0
       0       0       0       0       0       0       0       0       0       0
       0       0       0       0       0       0       0       0       0       0
       0       0       0       0       0       0       0       0       0       0
       0       0       0       0       0       0       0       0       0       0
       0       0       0       0       0       0       0       0       0       0
       0       0       0       0       0       0       0       0       0       0
       0       0       0       0       0       0       0       0       0       0
       0       0       0       0       0       0       0       0       0       0
       0       0       0       0       0       0       0       0       0       0
       0       0       0       0       0       0       0       0       0       0
       0       0       0       0       0       0       0       0       0       0
       0       0       0       0       0       0       0       0       0       0
       0       0       0       0       0       0       0       0       0       0
       0       0       0       0       0       0       0       0       0       0
       0       0       0       0       0       0       0       0       0       0
       0       0       0       0       0       0       0       0       0       0
       0       0       0       0       0       0       0       0       0       0
       0       0       0       0       0       0       0       0       0       0
       0       0       0       0       0       0       0       0       0       0
       0       0       0       0       0       0       0       0       0       0
       0       0       0       0       0       0       0       0       0       0
       0       0       0       0       0       0       0       0       0       0
       0       0       0       0       0       0       0       0       0       0
       0       0       0       0       0       0       0       0       0       0
       0       0       0       0       0       0       0       0       0       0
       0       0       0       0       0       0       0       0       0       0
       0       0       0       0       0       0       0       0       0       0
       0       0       0       0       0       0       0       0       0       0
       0       0       0       0       0       0       0       0       0       0
       0       0       0       0       0       0       0       0       0       0
       0       0       0       0       0       0       0       0       0       0
       0       0       0       0       0       0       0       0       0       0
       0       0       0       0       0       0       0       0       0       0
       0       0       0       0       0       0       0       0       0       0
       0       0       0       0       0       0       0       0       0       0
       0       0       0       0       0       0       0       0       0       0
       0       0       0       0       0       0       0       0       0       0
       0       0       0       0       0       0       0       0       0       0
       0       0       0       0       0       0       0       0       0       0
       0       0       0       0       0       0       0       0       0       0
       0       0       0       0       0       0       0       0       0       0
       0       0       0       0       0       0       0       0       0       0
       0       0       0       0       0       0       0       0       0       0
       0       0       0       0       0       0       0       0       0       0
       0       0       0       0       0       0       0       0       0       0
       0       0       0       0       0       0       0       0       0       0
       0       0       0       0       0       0       0       0       0       0
       0       0       0       0       0       0       0       0       0       0
       0       0       0       0       0       0       0       0       0       0
       0       0       0       0       0       0       0       0       0       0
       0       0       0       0       0       0       0       0       0       0
       0       0       0       0       0       0       0       0       0       0
       0       0       0       0       0       0       0       0       0       0
       0       0       0       0       0       0       0       0       0       0
       0       0       0       0       0       0       0       0       0       0
       0       0       0       0       0       0       0       0       0       0
       0       0       0       0       0       0       0       0       0       0
       0       0       0       0       0       0       0       0       0       0
       0       0       0       0       0       0       0       0       0       0
       0       0       0       0       0       0       0       0       0       0
       0       0       0       0       0       0       0       0       0       0
       0       0       0       0       0       0       0       0       0       0
       0       0       0       0       0       0       0       0       0       0
       0       0       0       0       0       0       0       0       0       0
       0       0       0       0       0       0       0       0       0       0
       0       0       0       0       0       0       0       0       0       0
       0       0       0       0       0       0       0       0       0       0
       0       0       0       0       0       0       0       0       0       0
       0       0       0       0       0       0       0       0       0       0
       0       0       0       0       0       0       0       0       0       0
       0       0       0       0       0       0       0       0       0       0
       0       0       0       0       0       0       0       0       0       0
       0       0       0       0       0       0       0       0       0       0
       0       0       0       0       0       0       0       0       0       0
       0       0       0       0       0       0       0       0       0       0
       0       0       0       0       0       0       0       0       0       0
       0       0       0       0       0       0       0       0       0       0
       0       0       0       0       0       0       0       0       0       0
       0       0       0       0       0       0       0       0       0       0
       0       0       0       0       0       0       0       0       0       0
       0       0       0       0       0       0       0       0       0       0
       0       0       0       0       0       0       0       0       0       0
       0       0       0       0       0       0       0       0       0       0
       0       0       0       0       0       0       0       0       0       0
       0       0       0       0       0       0       0       0       0       0
       0       0       0       0       0       0       0       0       0       0
       0       0       0       0       0       0       0       0       0       0
       0       0       0       0       0       0       0       0       0       0
       0       0       0       0       0       0       0       0       0       0
       0       0       0       0       0       0       0       0       0       0
       0       0       0       0       0       0       0       0       0       0
       0       0       0       0       0       0       0       0       0       0
       0       0       0       0       0       0       0       0       0       0
       0       0       0       0       0       0       0       0       0       0
       0       0       0       0       0       0       0       0       0       0
       0       0       0       0       0       0       0       0       0       0
       0       0       0       0       0       0       0       0       0       0
       0       0       0       0       0       0       0       0       0       0
       0       0       0       0       0       0       0       0       0       0
       0       0       0       0       0       0       0       0       0       0
       0       0       0       0       0       0       0       0       0       0
       0       0       0       0       0       0       0       0       0       0
       0       0       0       0       0       0       0       0       0       0
       0       0       0       0       0       0       0       0       0       0
       0       0       0       0       0       0       0       0       0       0
       0       0       0       0       0       0       0       0       0       0
       0       0       0       0       0       0       0       0       0       0
       0       0       0       0       0       0       0       0       0       0
       0       0       0       0       0       0       0       0       0       0
       0       0       0       0       0       0       0       0       0       0
       0       0       0       0       0       0       0       0       0       0
       0       0       0       0       0       0       0       0       0       0
       0       0       0       0       0       0       0       0       0       0
       0       0       0       0       0       0       0       0       0       0
       0       0       0       0       0       0       0       0       0       0
       0       0       0       0       0       0       0       0       0       0
       0       0       0       0       0       0       0       0       0       0
       0       0       0       0       0       0       0       0       0       0
       0       0       0       0       0       0       0       0       0       0
       0       0       0       0       0       0       0       0       0       0
       0       0       0       0       0       0       0       0       0       0
       0       0       0       0       0       0       0       0       0       0
       0       0       0       0       0       0       0       0       0       0
       0       0       0       0       0       0       0       0       0       0
       0       0       0       0       0       0       0       0       0       0
       0       0       0       0       0       0       0       0       0       0
       0       0       0       0       0       0       0       0       0       0
       0       0       0       0       0       0       0       0       0       0
       0       0       0       0       0       0       0       0       0       0
       0       0       0       0       0       0       0       0       0       0
       0       0       0       0       0       0       0       0       0       0
       0       0       0       0       0       0       0       0       0       0
       0       0       0       0       0       0       0       0       0       0
       0       0       0       0       0       0       0       0       0       0
       0       0       0       0       0       0       0       0       0       0
       0       0       0       0       0       0       0       0       0       0
       0       0       0       0       0       0       0       0       0       0
       0       0       0       0       0       0       0       0       0       0
       0       0       0       0       0       0       0       0       0       0
       0       0       0       0       0       0       0       0       0       0
       0       0       0       0       0       0       0       0       0       0
       0       0       0       0       0       0       0       0       0       0
       0       0       0       0       0       0       0       0       0       0
       0       0       0       0       0       0       0       0       0       0
       0       0       0       0       0       0       0       0       0       0
       0       0       0       0       0       0       0       0       0       0
       0       0       0       0       0       0       0       0       0       0
       0       0       0       0       0       0       0       0       0       0
       0       0       0       0       0       0       0       0       0       0
       0       0       0       0       0       0       0       0       0       0
       0       0       0       0       0       0       0       0       0       0
       0       0       0       0       0       0       0       0       0       0
       0       0       0       0       0       0       0       0       0       0
       0       0       0       0       0       0       0       0       0       0
       0       0       0       0       0       0       0       0       0       0
       0       0       0       0       0       0       0       0       0       0
       0       0       0       0       0       0       0       0       0       0
       0       0       0       0       0       0       0       0       0       0
       0       0       0       0       0       0       0       0       0       0
       0       0       0       0       0       0       0       0       0       0
       0       0       0       0       0       0       0       0       0       0
       0       0       0       0       0       0       0       0       0       0
       0       0       0       0       0       0       0       0       0       0
       0       0       0       0       0       0       0       0       0       0
       0       0       0       0       0       0       0       0       0       0
       0       0       0       0       0       0       0       0       0       0
       0       0       0       0       0       0       0       0       0       0
       0       0       0       0       0       0       0       0       0       0
       0       0       0       0       0       0       0       0       0       0
       0       0       0       0       0       0       0       0       0       0
       0       0       0       0       0       0       0       0       0       0
       0       0       0       0       0       0       0       0       0       0
       0       0       0       0       0       0       0       0       0       0
       0       0       0       0       0       0       0       0       0       0
       0       0       0       0       0       0       0       0       0       0
       0       0       0       0       0       0       0       0       0       0
       0       0       0       0       0       0       0       0       0       0
       0       0       0       0       0       0       0       0       0       0
       0       0       0       0       0       0       0       0       0       0
       0       0       0       0       0       0       0       0       0       0
       0       0       0       0       0       0       0       0       0       0
       0       0       0       0       0       0       0       0       0       0
       0       0       0       0       0       0       0       0       0       0
       0       0       0       0       0       0       0       0       0       0
       0       0       0       0       0       0       0       0       0       0
       0       0       0       0       0       0       0       0       0       0
       0       0       0       0       0       0       0       0       0       0
       0       0       0       0       0       0       0       0       0       0
       0       0       0       0       0       0       0       0       0       0
       0       0       0       0       0       0       0       0       0       0
       0       0       0       0       0       0       0       0       0       0
       0       0       0       0       0       0       0       0       0       0
       0       0       0       0       0       0       0       0       0       0
       0       0       0       0       0       0       0       0       0       0
       0       0       0       0       0       0       0       0       0       0
       0       0       0       0       0       0       0       0       0       0
       0       0       0       0       0       0       0       0       0       0
       0       0       0       0       0       0       0       0       0       0
       0       0       0       0       0       0       0       0       0       0
       0       0       0       0       0       0       0       0       0       0
       0       0       0       0       0       0       0       0       0       0
       0       0       0       0       0       0       0       0       0       0
       0       0       0       0       0       0       0       0       0       0
       0       0       0       0       0       0       0       0       0       0
       0       0       0       0       0       0       0       0       0       0
       0       0       0       0       0       0       0       0       0       0
       0       0       0       0       0       0       0       0       0       0
       0       0       0       0       0       0       0       0       0       0
       0       0       0       0       0       0       0       0       0       0
       0       0       0       0       0       0       0       0       0       0
       0       0       0       0       0       0       0       0       0       0
       0       0       0       0       0       0       0       0       0       0
       0       0       0       0       0       0       0       0       0       0
       0       0       0       0       0       0       0       0       0       0
       0       0       0       0       0       0       0       0       0       0
       0       0       0       0       0       0       0       0       0       0
       0       0       0       0       0       0       0       0       0       0
       0       0       0       0       0       0       0       0       0       0
       0       0       0       0       0       0       0       0       0       0
       0       0       0       0       0       0       0       0       0       0
       0       0       0       0       0       0       0       0       0       0
       0       0       0       0       0       0       0       0       0       0
       0       0       0       0       0       0       0       0       0       0
       0       0       0       0       0       0       0       0       0       0
       0       0       0       0       0       0       0       0       0       0
       0       0       0       0       0       0       0       0       0       0
       0       0       0       0       0       0       0       0       0       0
       0       0       0       0       0       0       0       0       0       0
       0       0       0       0       0       0       0       0       0       0
       0       0       0       0       0       0       0       0       0       0
       0       0       0       0       0       0       0       0       0       0
       0       0       0       0       0       0       0       0       0       0
       0       0       0       0       0       0       0       0       0       0
       0       0       0       0       0       0       0       0       0       0
       0       0       0       0       0       0       0       0       0       0
       0       0       0       0       0       0       0       0       0       0
       0       0       0       0       0       0       0       0       0       0
       0       0       0       0       0       0       0       0       0       0
       0       0       0       0       0       0       0       0       0       0
       0       0       0       0       0       0       0       0       0       0
       0       0       0       0       0       0       0       0       0       0
       0       0       0       0       0       0       0       0       0       0
       0       0       0       0       0       0       0       0       0       0
       0       0       0       0       0       0       0       0       0       0
       0       0       0       0       0       0       0       0       0       0
       0       0       0       0       0       0       0       0       0       0
       0       0       0       0       0       0       0       0       0       0
       0       0       0       0       0       0       0       0       0       0
       0       0       0       0       0       0       0       0       0       0
       0       0       0       0       0       0       0       0       0       0
       0       0       0       0       0       0       0       0       0       0
       0       0       0       0       0       0       0       0       0       0
       0       0       0       0       0       0       0       0       0       0
       0       0       0       0       0       0       0       0       0       0
       0       0       0       0       0       0       0       0       0       0
       0       0       0       0       0       0       0       0       0       0
       0       0       0       0       0       0       0       0       0       0
       0       0       0       0       0       0       0       0       0       0
       0       0       0       0       0       0       0       0       0       0
       0       0       0       0       0       0       0       0       0       0
       0       0       0       0       0       0       0       0       0       0
       0       0       0       0       0       0       0       0       0       0
       0       0       0       0       0       0       0       0       0       0
       0       0       0       0       0       0       0       0       0       0
       0       0       0       0       0       0       0       0       0       0
       0       0       0       0       0       0       0       0       0       0
       0       0       0       0       0       0       0       0       0       0
       0       0       0       0       0       0       0       0       0       0
       0       0       0       0       0       0       0       0       0       0
       0       0       0       0       0       0       0       0       0       0
       0       0       0       0       0       0       0       0       0       0
       0       0       0       0       0       0       0       0       0       0
       0       0       0       0       0       0       0       0       0       0
       0       0       0       0       0       0       0       0       0       0
       0       0       0       0       0       0       0       0       0       0
       0       0       0       0       0       0       0       0       0       0
       0       0       0       0       0       0       0       0       0       0
       0       0       0       0       0       0       0       0       0       0
       0       0       0       0       0       0       0       0       0       0
       0       0       0       0       0       0       0       0       0       0
       0       0       0       0       0       0       0       0       0       0
       0       0       0       0       0       0       0       0       0       0
       0       0       0       0       0       0       0       0       0       0
       0       0       0       0       0       0       0       0       0       0
       0       0       0       0       0       0       0       0       0       0
       0       0       0       0       0       0       0       0       0       0
       0       0       0       0       0       0       0       0       0       0
       0       0       0       0       0       0       0       0       0       0
       0       0       0       0       0       0       0       0       0       0
       0       0       0       0       0       0       0       0       0       0
       0       0       0       0       0       0       0       0       0       0
       0       0       0       0       0       0       0       0       0       0
       0       0       0       0       0       0       0       0       0       0
       0       0       0       0       0       0       0       0       0       0
       0       0       0       0       0       0       0       0       0       0
       0       0       0       0       0       0       0       0       0       0
       0       0       0       0       0       0       0       0       0       0
       0       0       0       0       0       0       0       0       0       0
       0       0       0       0       0       0       0       0       0       0
       0       0       0       0       0       0       0       0       0       0
       0       0       0       0       0       0       0       0       0       0
       0       0       0       0       0       0       0       0       0       0
       0       0       0       0       0       0       0       0       0       0
       0       0       0       0       0       0       0       0       0       0
       0       0       0       0       0       0       0       0       0       0
       0       0       0       0       0       0       0       0       0       0
       0       0       0       0       0       0       0       0       0       0
       0       0       0       0       0       0       0       0       0       0
       0       0       0       0       0       0       0       0       0       0
       0       0       0       0       0       0       0       0       0       0
       0       0       0       0       0       0       0       0       0       0
       0       0       0       0       0       0       0       0       0       0
       0       0       0       0       0       0       0       0       0       0
       0       0       0       0       0       0       0       0       0       0
       0       0       0       0       0       0       0       0       0       0
       0       0       0       0       0       0       0       0       0       0
       0       0       0       0       0       0       0       0       0       0
       0       0       0       0       0       0       0       0       0       0
       0       0       0       0       0       0       0       0       0       0
       0       0       0       0       0       0       0       0       0       0
       0       0       0       0       0       0       0       0       0       0
       0       0       0       0       0       0       0       0       0       0
       0       0       0       0       0       0       0       0       0       0
       0       0       0       0       0       0       0       0       0       0
       0       0       0       0       0       0       0       0       0       0
       0       0       0       0       0       0       0       0       0       0
       0       0       0       0       0       0       0       0       0       0
       0       0       0       0       0       0       0       0       0       0
       0       0       0       0       0       0       0       0       0       0
       0       0       0       0       0       0       0       0       0       0
       0       0       0       0       0       0       0       0       0       0
       0       0       0       0       0       0       0       0       0       0
       0       0       0       0       0       0       0       0       0       0
       0       0       0       0       0       0       0       0       0       0
       0       0       0       0       0       0       0       0       0       0
       0       0       0       0       0       0       0       0       0       0
       0       0       0       0       0       0       0       0       0       0
       0       0       0       0       0       0       0       0       0       0
       0       0       0       0       0       0       0       0       0       0
       0       0       0       0       0       0       0       0       0       0
       0       0       0       0       0       0       0       0       0       0
       0       0       0       0       0       0       0       0       0       0
       0       0       0       0       0       0       0       0       0       0
       0       0       0       0       0       0       0       0       0       0
       0       0       0       0       0       0       0       0       0       0
       0       0       0       0       0       0       0       0       0       0
       0       0       0       0       0       0       0       0       0       0
       0       0       0       0       0       0       0       0       0       0
       0       0       0       0       0       0       0       0       0       0
       0       0       0       0       0       0       0       0       0       0
       0       0       0       0       0       0       0       0       0       0
       0       0       0       0       0       0       0       0       0       0
       0       0       0       0       0       0       0       0       0       0
       0       0       0       0       0       0       0       0       0       0
       0       0       0       0       0       0       0       0       0       0
       0       0       0       0       0       0       0       0       0       0
       0       0       0       0       0       0       0       0       0       0
       0       0       0       0       0       0       0       0       0       0
       0       0       0       0       0       0       0       0       0       0
       0       0       0       0       0       0       0       0       0       0
       0       0       0       0       0       0       0       0       0       0
       0       0       0       0       0       0       0       0       0       0
       0       0       0       0       0       0       0       0       0       0
       0       0       0       0       0       0       0       0       0       0
       0       0       0       0       0       0       0       0       0       0
       0       0       0       0       0       0       0       0       0       0
       0       0       0       0       0       0       0       0       0       0
       0       0       0       0       0       0       0       0       0       0
       0       0       0       0       0       0       0       0       0       0
       0       0       0       0       0       0       0       0       0       0
       0       0       0       0       0       0       0       0       0       0
       0       0       0       0       0       0       0       0       0       0
       0       0       0       0       0       0       0       0       0       0
       0       0       0       0       0       0       0       0       0       0
       0       0       0       0       0       0       0       0       0       0
       0       0       0       0       0       0       0       0       0       0
       0       0       0       0       0       0       0       0       0       0
       0       0       0       0       0       0       0       0       0       0
       0       0       0       0       0       0       0       0       0       0
       0       0       0       0       0       0       0       0       0       0
       0       0       0       0       0       0       0       0       0       0
       0       0       0       0       0       0       0       0       0       0
       0       0       0       0       0       0       0       0       0       0
       0       0       0       0       0       0       0       0       0       0
       0       0       0       0       0       0       0       0       0       0
       0       0       0       0       0       0       0       0       0       0
       0       0       0       0       0       0       0       0       0       0
       0       0       0       0       0       0       0       0       0       0
       0       0       0       0       0       0       0       0       0       0
       0       0       0       0       0       0       0       0       0       0
       0       0       0       0       0       0       0       0       0       0
       0       0       0       0       0       0       0       0       0       0
       0       0       0       0       0       0       0       0       0       0
       0       0       0       0       0       0       0       0       0       0
       0       0       0       0       0       0       0       0       0       0
       0       0       0       0       0       0       0       0       0       0
       0       0       0       0       0       0       0       0       0       0
       0       0       0       0       0       0       0       0       0       0
       0       0       0       0       0       0       0       0       0       0
       0       0       0       0       0       0       0       0       0       0
       0       0       0       0       0       0       0       0       0       0
       0       0       0       0       0       0       0       0       0       0
       0       0       0       0       0       0       0       0       0       0
       0       0       0       0       0       0       0       0       0       0
       0       0       0       0       0       0       0       0       0       0
       0       0       0       0       0       0       0       0       0       0
       0       0       0       0       0       0       0       0       0       0
       0       0       0       0       0       0       0       0       0       0
       0       0       0       0       0       0       0       0       0       0
       0       0       0       0       0       0       0       0       0       0
       0       0       0       0       0       0       0       0       0       0
       0       0       0       0       0       0       0       0       0       0
       0       0       0       0       0       0       0       0       0       0
       0       0       0       0       0       0       0       0       0       0
       0       0       0       0       0       0       0       0       0       0
       0       0       0       0       0       0       0       0       0       0
       0       0       0       0       0       0       0       0       0       0
       0       0       0       0       0       0       0       0       0       0
       0       0       0       0       0       0       0       0       0       0
       0       0       0       0       0       0       0       0       0       0
       0       0       0       0       0       0       0       0       0       0
       0       0       0       0       0       0       0       0       0       0
       0       0       0       0       0       0       0       0       0       0
       0       0       0       0       0       0       0       0       0       0
       0       0       0       0       0       0       0       0       0       0
       0       0       0       0       0       0       0       0       0       0
       0       0       0       0       0       0       0       0       0       0
       0       0       0       0       0       0       0       0       0       0
       0       0       0       0       0       0       0       0       0       0
       0       0       0       0       0       0       0       0       0       0
       0       0       0       0       0       0       0       0       0       0
       0       0       0       0       0       0       0       0       0       0
       0       0       0       0       0       0       0       0       0       0
       0       0       0       0       0       0       0       0       0       0
       0       0       0       0       0       0       0       0       0       0
       0       0       0       0       0       0       0       0       0       0
       0       0       0       0       0       0       0       0       0       0
       0       0       0       0       0       0       0       0       0       0
       0       0       0       0       0       0       0       0       0       0
       0       0       0       0       0       0       0       0       0       0
       0       0       0       0       0       0       0       0       0       0
       0       0       0       0       0       0       0       0       0       0
       0       0       0       0       0       0       0       0       0       0
       0       0       0       0       0       0       0       0       0       0
       0       0       0       0       0       0       0       0       0       0
       0       0       0       0       0       0       0       0       0       0
       0       0       0       0       0       0       0       0       0       0
       0       0       0       0       0       0       0       0       0       0
       0       0       0       0       0       0       0       0       0       0
       0       0       0       0       0       0       0       0       0       0
       0       0       0       0       0       0       0       0       0       0
       0       0       0       0       0       0       0       0       0       0
       0       0       0       0       0       0       0       0       0       0
       0       0       0       0       0       0       0       0       0       0
       0       0       0       0       0       0       0       0       0       0
       0       0       0       0       0       0       0       0       0       0
       0       0       0       0       0       0       0       0       0       0
       0       0       0       0       0       0       0       0       0       0
       0       0       0       0       0       0       0       0       0       0
       0       0       0       0       0       0       0       0       0       0
       0       0       0       0       0       0       0       0       0       0
       0       0       0       0       0       0       0       0       0       0
       0       0       0       0       0       0       0       0       0       0
       0       0       0       0       0       0       0       0       0       0
       0       0       0       0       0       0       0       0       0       0
       0       0       0       0       0       0       0       0       0       0
       0       0       0       0       0       0       0       0       0       0
       0       0       0       0       0       0       0       0       0       0
       0       0       0       0       0       0       0       0       0       0
       0       0       0       0       0       0       0       0       0       0
       0       0       0       0       0       0       0       0       0       0
       0       0       0       0       0       0       0       0       0       0
       0       0       0       0       0       0       0       0       0       0
       0       0       0       0       0       0       0       0       0       0
       0       0       0       0       0       0       0       0       0       0
       0       0       0       0       0       0       0       0       0       0
       0       0       0       0       0       0       0       0       0       0
       0       0       0       0       0       0       0       0       0       0
       0       0       0       0       0       0       0       0       0       0
       0       0       0       0       0       0       0       0       0       0
       0       0       0       0       0       0       0       0       0       0
       0       0       0       0       0       0       0       0       0       0
       0       0       0       0       0       0       0       0       0       0
       0       0       0       0       0       0       0       0       0       0
       0       0       0       0       0       0       0       0       0       0
       0       0       0       0       0       0       0       0       0       0
       0       0       0       0       0       0       0       0       0       0
       0       0       0       0       0       0       0       0       0       0
       0       0       0       0       0       0       0       0       0       0
       0       0       0       0       0       0       0       0       0       0
       0       0       0       0       0       0       0       0       0       0
       0       0       0       0       0       0       0       0       0       0
       0       0       0       0       0       0       0       0       0       0
       0       0       0       0       0       0       0       0       0       0
       0       0       0       0       0       0       0       0       0       0
       0       0       0       0       0       0       0       0       0       0
       0       0       0       0       0       0       0       0       0       0
       0       0       0       0       0       0       0       0       0       0
       0       0       0       0       0       0       0       0       0       0
       0       0       0       0       0       0       0       0       0       0
       0       0       0       0       0       0       0       0       0       0
       0       0       0       0       0       0       0       0       0       0
       0       0       0       0       0       0       0       0       0       0
       0       0       0       0       0       0       0       0       0       0
       0       0       0       0       0       0       0       0       0       0
       0       0       0       0       0       0       0       0       0       0
       0       0       0       0       0       0       0       0       0       0
       0       0       0       0       0       0       0       0       0       0
       0       0       0       0       0       0       0       0       0       0
       0       0       0       0       0       0       0       0       0       0
       0       0       0       0       0       0       0       0       0       0
       0       0       0       0       0       0       0       0       0       0
       0       0       0       0       0       0       0       0       0       0
       0       0       0       0       0       0       0       0       0       0
       0       0       0       0       0       0       0       0       0       0
       0       0       0       0       0       0       0       0       0       0
       0       0       0       0       0       0       0       0       0       0
       0       0       0       0       0       0       0       0       0       0
       0       0       0       0       0       0       0       0       0       0
       0       0       0       0       0       0       0       0       0       0
       0       0       0       0       0       0       0       0       0       0
       0       0       0       0       0       0       0       0       0       0
       0       0       0       0       0       0       0       0       0       0
       0       0       0       0       0       0       0       0       0       0
       0       0       0       0       0       0       0       0       0       0
       0       0       0       0       0       0       0       0       0       0
       0       0       0       0       0       0       0       0       0       0
       0       0       0       0       0       0       0       0       0       0
       0       0       0       0       0       0       0       0       0       0
       0       0       0       0       0       0       0       0       0       0
       0       0       0       0       0       0       0       0       0       0
       0       0       0       0       0       0       0       0       0       0
       0       0       0       0       0       0       0       0       0       0
       0       0       0       0       0       0       0       0       0       0
       0       0       0       0       0       0       0       0       0       0
       0       0       0       0       0       0       0       0       0       0
       0       0       0       0       0       0       0       0       0       0
       0       0       0       0       0       0       0       0       0       0
       0       0       0       0       0       0       0       0       0       0
       0       0       0       0       0       0       0       0       0       0
       0       0       0       0       0       0       0       0       0       0
       0       0       0       0       0       0       0       0       0       0
       0       0       0       0       0       0       0       0       0       0
       0       0       0       0       0       0       0       0       0       0
       0       0       0       0       0       0       0       0       0       0
       0       0       0       0       0       0       0       0       0       0
       0       0       0       0       0       0       0       0       0       0
       0       0       0       0       0       0       0       0       0       0
       0       0       0       0       0       0       0       0       0       0
       0       0       0       0       0       0       0       0       0       0
       0       0       0       0       0       0       0       0       0       0
       0       0       0       0       0       0       0       0       0       0
       0       0       0       0       0       0       0       0       0       0
       0       0       0       0       0       0       0       0       0       0
       0       0       0       0       0       0       0       0       0       0
       0       0       0       0       0       0       0       0       0       0
       0       0       0       0       0       0       0       0       0       0
       0       0       0       0       0       0       0       0       0       0
       0       0       0       0       0       0       0       0       0       0
       0       0       0       0       0       0       0       0       0       0
       0       0       0       0       0       0       0       0       0       0
       0       0       0       0       0       0       0       0       0       0
       0       0       0       0       0       0       0       0       0       0
       0       0       0       0       0       0       0       0       0       0
       0       0       0       0       0       0       0       0       0       0
       0       0       0       0       0       0       0       0       0       0
       0       0       0       0       0       0       0       0       0       0
       0       0       0       0       0       0       0       0       0       0
       0       0       0       0       0       0       0       0       0       0
       0       0       0       0       0       0       0       0       0       0
       0       0       0       0       0       0       0       0       0       0
       0       0       0       0       0       0       0       0       0       0
       0       0       0       0       0       0       0       0       0       0
       0       0       0       0       0       0       0       0       0       0
       0       0       0       0       0       0       0       0       0       0
       0       0       0       0       0       0       0       0       0       0
       0       0       0       0       0       0       0       0       0       0
       0       0       0       0       0       0       0       0       0       0
       0       0       0       0       0       0       0       0       0       0
       0       0       0       0       0       0       0       0       0       0
       0       0       0       0       0       0       0       0       0       0
       0       0       0       0       0       0       0       0       0       0
       0       0       0       0       0       0       0       0       0       0
       0       0       0       0       0       0       0       0       0       0
       0       0       0       0       0       0       0       0       0       0
       0       0       0       0       0       0       0       0       0       0
       0       0       0       0       0       0       0       0       0       0
       0       0       0       0       0       0       0       0       0       0
       0       0       0       0       0       0       0       0       0       0
       0       0       0       0       0       0       0       0       0       0
       0       0       0       0       0       0       0       0       0       0
       0       0       0       0       0       0       0       0       0       0
       0       0       0       0       0       0       0       0       0       0
       0       0       0       0       0       0       0       0       0       0
       0       0       0       0       0       0       0       0       0       0
       0       0       0       0       0       0       0       0       0       0
       0       0       0       0       0       0       0       0       0       0
       0       0       0       0       0       0       0       0       0       0
       0       0       0       0       0       0       0       0       0       0
       0       0       0       0       0       0       0       0       0       0
       0       0       0       0       0       0       0       0       0       0
       0       0       0       0       0       0       0       0       0       0
       0       0       0       0       0       0       0       0       0       0
       0       0       0       0       0       0       0       0       0       0
       0       0       0       0       0       0       0       0       0       0
       0       0       0       0       0       0       0       0       0       0
       0       0       0       0       0       0       0       0       0       0
       0       0       0       0       0       0       0       0       0       0
       0       0       0       0       0       0       0       0       0       0
       0       0       0       0       0       0       0       0       0       0
       0       0       0       0       0       0       0       0       0       0
       0       0       0       0       0       0       0       0       0       0
       0       0       0       0       0       0       0       0       0       0
       0       0       0       0       0       0       0       0       0       0
       0       0       0       0       0       0       0       0       0       0
       0       0       0       0       0       0       0       0       0       0
       0       0       0       0       0       0       0       0       0       0
       0       0       0       0       0       0       0       0       0       0
       0       0       0       0       0       0       0       0       0       0
       0       0       0       0       0       0       0       0       0       0
       0       0       0       0       0       0       0       0       0       0
       0       0       0       0       0       0       0       0       0       0
       0       0       0       0       0       0       0       0       0       0
       0       0       0       0       0       0       0       0       0       0
       0       0       0       0       0       0       0       0       0       0
       0       0       0       0       0       0       0       0       0       0
       0       0       0       0       0       0       0       0       0       0
       0       0       0       0       0       0       0       0       0       0
       0       0       0       0       0       0       0       0       0       0
       0       0       0       0       0       0       0       0       0       0
       0       0       0       0       0       0       0       0       0       0
       0       0       0       0       0       0       0       0       0       0
       0       0       0       0       0       0       0       0       0       0
       0       0       0       0       0       0       0       0       0       0
       0       0       0       0       0       0       0       0       0       0
       0       0       0       0       0       0       0       0       0       0
       0       0       0       0       0       0       0       0       0       0
       0       0       0       0       0       0       0       0       0       0
       0       0       0       0       0       0       0       0       0       0
       0       0       0       0       0       0       0       0       0       0
       0       0       0       0       0       0       0       0       0       0
       0       0       0       0       0       0       0       0       0       0
       0       0       0       0       0       0       0       0       0       0
       0       0       0       0       0       0       0       0       0       0
       0       0       0       0       0       0       0       0       0       0
       0       0       0       0       0       0       0       0       0       0
       0       0       0       0       0       0       0       0       0       0
       0       0       0       0       0       0       0       0       0       0
       0       0       0       0       0       0       0       0       0       0
       0       0       0       0       0       0       0       0       0       0
       0       0       0       0       0       0       0       0       0       0
       0       0       0       0       0       0       0       0       0       0
       0       0       0       0       0       0       0       0       0       0
       0       0       0       0       0       0       0       0       0       0
       0       0       0       0       0       0       0       0       0       0
       0       0       0       0       0       0       0       0       0       0
       0       0       0       0       0       0       0       0       0       0
       0       0       0       0       0       0       0       0       0       0
       0       0       0       0       0       0       0       0       0       0
       0       0       0       0       0       0       0       0       0       0
       0       0       0       0       0       0       0       0       0       0
       0       0       0       0       0       0       0       0       0       0
       0       0       0       0       0       0       0       0       0       0
       0       0       0       0       0       0       0       0       0       0
       0       0       0       0       0       0       0       0       0       0
       0       0       0       0       0       0       0       0       0       0
       0       0       0       0       0       0       0       0       0       0
       0       0       0       0       0       0       0       0       0       0
       0       0       0       0       0       0       0       0       0       0
       0       0       0       0       0       0       0       0       0       0
       0       0       0       0       0       0       0       0       0       0
       0       0       0       0       0       0       0       0       0       0
       0       0       0       0       0       0       0       0       0       0
       0       0       0       0       0       0       0       0       0       0
       0       0       0       0       0       0       0       0       0       0
       0       0       0       0       0       0       0       0       0       0
       0       0       0       0       0       0       0       0       0       0
       0       0       0       0       0       0       0       0       0       0
       0       0       0       0       0       0       0       0       0       0
       0       0       0       0       0       0       0       0       0       0
       0       0       0       0       0       0       0       0       0       0
       0       0       0       0       0       0       0       0       0       0
       0       0       0       0       0       0       0       0       0       0
       0       0       0       0       0       0       0       0       0       0
       0       0       0       0       0       0       0       0       0       0
       0       0       0       0       0       0       0       0       0       0
       0       0       0       0       0       0       0       0       0       0
       0       0       0       0       0       0       0       0       0       0
       0       0       0       0       0       0       0       0       0       0
       0       0       0       0       0       0       0       0       0       0
       0       0       0       0       0       0       0       0       0       0
       0       0       0       0       0       0       0       0       0       0
       0       0       0       0       0       0       0       0       0       0
       0       0       0       0       0       0       0       0       0       0
       0       0       0       0       0       0       0       0       0       0
       0       0       0       0       0       0       0       0       0       0
       0       0       0       0       0       0       0       0       0       0
       0       0       0       0       0       0       0       0       0       0
       0       0       0       0       0       0       0       0       0       0
       0       0       0       0       0       0       0       0       0       0
       0       0       0       0       0       0       0       0       0       0
       0       0       0       0       0       0       0       0       0       0
       0       0       0       0       0       0       0       0       0       0
       0       0       0       0       0       0       0       0       0       0
       0       0       0       0       0       0       0       0       0       0
       0       0       0       0       0       0       0       0       0       0
       0       0       0       0       0       0       0       0       0       0
       0       0       0       0       0       0       0       0       0       0
       0       0       0       0       0       0       0       0       0       0
       0       0       0       0       0       0       0       0       0       0
       0       0       0       0       0       0       0       0       0       0
       0       0       0       0       0       0       0       0       0       0
       0       0       0       0       0       0       0       0       0       0
       0       0       0       0       0       0       0       0       0       0
       0       0       0       0       0       0       0       0       0       0
       0       0       0       0       0       0       0       0       0       0
       0       0       0       0       0       0       0       0       0       0
       0       0       0       0       0       0       0       0       0       0
       0       0       0       0       0       0       0       0       0       0
       0       0       0       0       0       0       0       0       0       0
       0       0       0       0       0       0       0       0       0       0
       0       0       0       0       0       0       0       0       0       0
       0       0       0       0       0       0       0       0       0       0
       0       0       0       0       0       0       0       0       0       0
       0       0       0       0       0       0       0       0       0       0
       0       0       0       0       0       0       0       0       0       0
       0       0       0       0       0       0       0       0       0       0
       0       0       0       0       0       0       0       0       0       0
       0       0       0       0       0       0       0       0       0       0
       0       0       0       0       0       0       0       0       0       0
       0       0       0       0       0       0       0       0       0       0
       0       0       0       0       0       0       0       0       0       0
       0       0       0       0       0       0       0       0       0       0
       0       0       0       0       0       0       0       0       0       0
       0       0       0       0       0       0       0       0       0       0
       0       0       0       0       0       0       0       0       0       0
       0       0       0       0       0       0       0       0       0       0
       0       0       0       0       0       0       0       0       0       0
       0       0       0       0       0       0       0       0       0       0
       0       0       0       0       0       0       0       0       0       0
       0       0       0       0       0       0       0       0       0       0
       0       0       0       0       0       0       0       0       0       0
       0       0       0       0       0       0       0       0       0       0
       0       0       0       0       0       0       0       0       0       0
       0       0       0       0       0       0       0       0       0       0
       0       0       0       0       0       0       0       0       0       0
       0       0       0       0       0       0       0       0       0       0
       0       0       0       0       0       0       0       0       0       0
       0       0       0       0       0       0       0       0       0       0
       0       0       0       0       0       0       0       0       0       0
       0       0       0       0       0       0       0       0       0       0
       0       0       0       0       0       0       0       0       0       0
       0       0       0       0       0       0       0       0       0       0
       0       0       0       0       0       0       0       0       0       0
       0       0       0       0       0       0       0       0       0       0
       0       0       0       0       0       0       0       0       0       0
       0       0       0       0       0       0       0       0       0       0
       0       0       0       0       0       0       0       0       0       0
       0       0       0       0       0       0       0       0       0       0
       0       0       0       0       0       0       0       0       0       0
       0       0       0       0       0       0       0       0       0       0
       0       0       0       0       0       0       0       0       0       0
       0       0       0       0       0       0       0       0       0       0
       0       0       0       0       0       0       0       0       0       0
       0       0       0       0       0       0       0       0       0       0
       0       0       0       0       0       0       0       0       0       0
       0       0       0       0       0       0       0       0       0       0
       0       0       0       0       0       0       0       0       0       0
       0       0       0       0       0       0       0       0       0       0
       0       0       0       0       0       0       0       0       0       0
       0       0       0       0       0       0       0       0       0       0
       0       0       0       0       0       0       0       0       0       0
       0       0       0       0       0       0       0       0       0       0
       0       0       0       0       0       0       0       0       0       0
       0       0       0       0       0       0       0       0       0       0
       0       0       0       0       0       0       0       0       0       0
       0       0       0       0       0       0       0       0       0       0
       0       0       0       0       0       0       0       0       0       0
       0       0       0       0       0       0       0       0       0       0
       0       0       0       0       0       0       0       0       0       0
       0       0       0       0       0       0       0       0       0       0
       0       0       0       0       0       0       0       0       0       0
       0       0       0       0       0       0       0       0       0       0
       0       0       0       0       0       0       0       0       0       0
       0       0       0       0       0       0       0       0       0       0
       0       0       0       0       0       0       0       0       0       0
       0       0       0       0       0       0       0       0       0       0
       0       0       0       0       0       0       0       0       0       0
       0       0       0       0       0       0       0       0       0       0
       0       0       0       0       0       0       0       0       0       0
       0       0       0       0       0       0       0       0       0       0
       0       0       0       0       0       0       0       0       0       0
       0       0       0       0       0       0       0       0       0       0
       0       0       0       0       0       0       0       0       0       0
       0       0       0       0       0       0       0       0       0       0
       0       0       0       0       0       0       0       0       0       0
       0       0       0       0       0       0       0       0       0       0
       0       0       0       0       0       0       0       0       0       0
       0       0       0       0       0       0       0       0       0       0
       0       0       0       0       0       0       0       0       0       0
       0       0       0       0       0       0       0       0       0       0
       0       0       0       0       0       0       0       0       0       0
       0       0       0       0       0       0       0       0       0       0
       0       0       0       0       0       0       0       0       0       0
       0       0       0       0       0       0       0       0       0       0
       0       0       0       0       0       0       0       0       0       0
       0       0       0       0       0       0       0       0       0       0
       0       0       0       0       0       0       0       0       0       0
       0       0       0       0       0       0       0       0       0       0
       0       0       0       0       0       0       0       0       0       0
       0       0       0       0       0       0       0       0       0       0
       0       0       0       0       0       0       0       0       0       0
       0       0       0       0       0       0       0       0       0       0
       0       0       0       0       0       0       0       0       0       0
       0       0       0       0       0       0       0       0       0       0
       0       0       0       0       0       0       0       0       0       0
       0       0       0       0       0       0       0       0       0       0
       0       0       0       0       0       0       0       0       0       0
       0       0       0       0       0       0       0       0       0       0
       0       0       0       0       0       0       0       0       0       0
       0       0       0       0       0       0       0       0       0       0
       0       0       0       0       0       0       0       0       0       0
       0       0       0       0       0       0       0       0       0       0
       0       0       0       0       0       0       0       0       0       0
       0       0       0       0       0       0       0       0       0       0
       0       0       0       0       0       0       0       0       0       0
       0       0       0       0       0       0       0       0       0       0
       0       0       0       0       0       0       0       0       0       0
       0       0       0       0       0       0       0       0       0       0
       0       0       0       0       0       0       0       0       0       0
       0       0       0       0       0       0       0       0       0       0
       0       0       0       0       0       0       0       0       0       0
       0       0       0       0       0       0       0       0       0       0
       0       0       0       0       0       0       0       0       0       0
       0       0       0       0       0       0       0       0       0       0
       0       0       0       0       0       0       0       0       0       0
       0       0       0       0       0       0       0       0       0       0
       0       0       0       0       0       0       0       0       0       0
       0       0       0       0       0       0       0       0       0       0
       0       0       0       0       0       0       0       0       0       0
       0       0       0       0       0       0       0       0       0       0
       0       0       0       0       0       0       0       0       0       0
       0       0       0       0       0       0       0       0       0       0
       0       0       0       0       0       0       0       0       0       0
       0       0       0       0       0       0       0       0       0       0
       0       0       0       0       0       0       0       0       0       0
       0       0       0       0       0       0       0       0       0       0
       0       0       0       0       0       0       0       0       0       0
       0       0       0       0       0       0       0       0       0       0
       0       0       0       0       0       0       0       0       0       0
       0       0       0       0       0       0       0       0       0       0
       0       0       0       0       0       0       0       0       0       0
       0       0       0       0       0       0       0       0       0       0
       0       0       0       0       0       0       0       0       0       0
       0       0       0       0       0       0       0       0       0       0
       0       0       0       0       0       0       0       0       0       0
       0       0       0       0       0       0       0       0       0       0
       0       0       0       0       0       0       0       0       0       0
       0       0       0       0       0       0       0       0       0       0
       0       0       0       0       0       0       0       0       0       0
       0       0       0       0       0       0       0       0       0       0
       0       0       0       0       0       0       0       0       0       0
       0       0       0       0       0       0       0       0       0       0
       0       0       0       0       0       0       0       0       0       0
       0       0       0       0       0       0       0       0       0       0
       0       0       0       0       0       0       0       0       0       0
       0       0       0       0       0       0       0       0       0       0
       0       0       0       0       0       0       0       0       0       0
       0       0       0       0       0       0       0       0       0       0
       0       0       0       0       0       0       0       0       0       0
       0       0       0       0       0       0       0       0       0       0
       0       0       0       0       0       0       0       0       0       0
       0       0       0       0       0       0       0       0       0       0
       0       0       0       0       0       0       0       0       0       0
       0       0       0       0       0       0       0       0       0       0
       0       0       0       0       0       0       0       0       0       0
       0       0       0       0       0       0       0       0       0       0
       0       0       0       0       0       0       0       0       0       0
       0       0       0       0       0       0       0       0       0       0
       0       0       0       0       0       0       0       0       0       0
       0       0       0       0       0       0       0       0       0       0
       0       0       0       0       0       0       0       0       0       0
       0       0       0       0       0       0       0       0       0       0
       0       0       0       0       0       0       0       0       0       0
       0       0       0       0       0       0       0       0       0       0
       0       0       0       0       0       0       0       0       0       0
       0       0       0       0       0       0       0       0       0       0
       0       0       0       0       0       0       0       0       0       0
       0       0       0       0       0       0       0       0       0       0
       0       0       0       0       0       0       0       0       0       0
       0       0       0       0       0       0       0       0       0       0
       0       0       0       0       0       0       0       0       0       0
       0       0       0       0       0       0       0       0       0       0
       0       0       0       0       0       0       0       0       0       0
       0       0       0       0       0       0       0       0       0       0
       0       0       0       0       0       0       0       0       0       0
       0       0       0       0       0       0       0       0       0       0
       0       0       0       0       0       0       0       0       0       0
       0       0       0       0       0       0       0       0       0       0
       0       0       0       0       0       0       0       0       0       0
       0       0       0       0       0       0       0       0       0       0
       0       0       0       0       0       0       0       0       0       0
       0       0       0       0       0       0       0       0       0       0
       0       0       0       0       0       0       0       0       0       0
       0       0       0       0       0       0       0       0       0       0
       0       0       0       0       0       0       0       0       0       0
       0       0       0       0       0       0       0       0       0       0
       0       0       0       0       0       0       0       0       0       0
       0       0       0       0       0       0       0       0       0       0
       0       0       0       0       0       0       0       0       0       0
       0       0       0       0       0       0       0       0       0       0
       0       0       0       0       0       0       0       0       0       0
       0       0       0       0       0       0       0       0       0       0
       0       0       0       0       0       0       0       0       0       0
       0       0       0       0       0       0       0       0       0       0
       0       0       0       0       0       0       0       0       0       0
       0       0       0       0       0       0       0       0       0       0
       0       0       0       0       0       0       0       0       0       0
       0       0       0       0       0       0       0       0       0       0
       0       0       0       0       0       0       0       0       0       0
       0       0       0       0       0       0       0       0       0       0
       0       0       0       0       0       0       0       0       0       0
       0       0       0       0       0       0       0       0       0       0
       0       0       0       0       0       0       0       0       0       0
       0       0       0       0       0       0       0       0       0       0
       0       0       0       0       0       0       0       0       0       0
       0       0       0       0       0       0       0       0       0       0
       0       0       0       0       0       0       0       0       0       0
       0       0       0       0       0       0       0       0       0       0
       0       0       0       0       0       0       0       0       0       0
       0       0       0       0       0       0       0       0       0       0
       0       0       0       0       0       0       0       0       0       0
       0       0       0       0       0       0       0       0       0       0
       0       0       0       0       0       0       0       0       0       0
       0       0       0       0       0       0       0       0       0       0
       0       0       0       0       0       0       0       0       0       0
       0       0       0       0       0       0       0       0       0       0
       0       0       0       0       0       0       0       0       0       0
       0       0       0       0       0       0       0       0       0       0
       0       0       0       0       0       0       0       0       0       0
       0       0       0       0       0       0       0       0       0       0
       0       0       0       0       0       0       0       0       0       0
       0       0       0       0       0       0       0       0       0       0
       0       0       0       0       0       0       0       0       0       0
       0       0       0       0       0       0       0       0       0       0
       0       0       0       0       0       0       0       0       0       0
       0       0       0       0       0       0       0       0       0       0
       0       0       0       0       0       0       0       0       0       0
       0       0       0       0       0       0       0       0       0       0
       0       0       0       0       0       0       0       0       0       0
       0       0       0       0       0       0       0       0       0       0
       0       0       0       0       0       0       0       0       0       0
       0       0       0       0       0       0       0       0       0       0
       0       0       0       0       0       0       0       0       0       0
       0       0       0       0       0       0       0       0       0       0
       0       0       0       0       0       0       0       0       0       0
       0       0       0       0       0       0       0       0       0       0
       0       0       0       0       0       0       0       0       0       0
       0       0       0       0       0       0       0       0       0       0
       0       0       0       0       0       0       0       0       0       0
       0       0       0       0       0       0       0       0       0       0
       0       0       0       0       0       0       0       0       0       0
       0       0       0       0       0       0       0       0       0       0
       0       0       0       0       0       0       0       0       0       0
       0       0       0       0       0       0       0       0       0       0
       0       0       0       0       0       0       0       0       0       0
       0       0       0       0       0       0       0       0       0       0
       0       0       0       0       0       0       0       0       0       0
       0       0       0       0       0       0       0       0       0       0
       0       0       0       0       0       0       0       0       0       0
       0       0       0       0       0       0       0       0       0       0
       0       0       0       0       0       0       0       0       0       0
       0       0       0       0       0       0       0       0       0       0
       0       0       0       0       0       0       0       0       0       0
       0       0       0       0       0       0       0       0       0       0
       0       0       0       0       0       0       0       0       0       0
       0       0       0       0       0       0       0       0       0       0
       0       0       0       0       0       0       0       0       0       0
       0       0       0       0       0       0       0       0       0       0
       0       0       0       0       0       0       0       0       0       0
       0       0       0       0       0       0       0       0       0       0
       0       0       0       0       0       0       0       0       0       0
       0       0       0       0       0       0       0       0       0       0
       0       0       0       0       0       0       0       0       0       0
       0       0       0       0       0       0       0       0       0       0
       0       0       0       0       0       0       0       0       0       0
       0       0       0       0       0       0       0       0       0       0
       0       0       0       0       0       0       0       0       0       0
       0       0       0       0       0       0       0       0       0       0
       0       0       0       0       0       0       0       0       0       0
       0       0       0       0       0       0       0       0       0       0
       0       0       0       0       0       0       0       0       0       0
       0       0       0       0       0       0       0       0       0       0
       0       0       0       0       0       0       0       0       0       0
       0       0       0       0       0       0       0       0       0       0
       0       0       0       0       0       0       0       0       0       0
       0       0       0       0       0       0       0       0       0       0
       0       0       0       0       0       0       0       0       0       0
       0       0       0       0       0       0       0       0       0       0
       0       0       0       0       0       0       0       0       0       0
       0       0       0       0       0       0       0       0       0       0
       0       0       0       0       0       0       0       0       0       0
       0       0       0       0       0       0       0       0       0       0
       0       0       0       0       0       0       0       0       0       0
       0       0       0       0       0       0       0       0       0       0
       0       0       0       0       0       0       0       0       0       0
       0       0       0       0       0       0       0       0       0       0
       0       0       0       0       0       0       0       0       0       0
       0       0       0       0       0       0       0       0       0       0
       0       0       0       0       0       0       0       0       0       0
       0       0       0       0       0       0       0       0       0       0
       0       0       0       0       0       0       0       0       0       0
       0       0       0       0       0       0       0       0       0       0
       0       0       0       0       0       0       0       0       0       0
       0       0       0       0       0       0       0       0       0       0
       0       0       0       0       0       0       0       0       0       0
       0       0       0       0       0       0       0       0       0       0
       0       0       0       0       0       0       0       0       0       0
       0       0       0       0       0       0       0       0       0       0
       0       0       0       0       0       0       0       0       0       0
       0       0       0       0       0       0       0       0       0       0
       0       0       0       0       0       0       0       0       0       0
       0       0       0       0       0       0       0       0       0       0
       0       0       0       0       0       0       0       0       0       0
       0       0       0       0       0       0       0       0       0       0
       0       0       0       0       0       0       0       0       0       0
       0       0       0       0       0       0       0       0       0       0
       0       0       0       0       0       0       0       0       0       0
       0       0       0       0       0       0       0       0       0       0
       0       0       0       0       0       0       0       0       0       0
       0       0       0       0       0       0       0       0       0       0
       0       0       0       0       0       0       0       0       0       0
       0       0       0       0       0       0       0       0       0       0
       0       0       0       0       0       0       0       0       0       0
       0       0       0       0       0       0       0       0       0       0
       0       0       0       0       0       0       0       0       0       0
       0       0       0       0       0       0       0       0       0       0
       0       0       0       0       0       0       0       0       0       0
       0       0       0       0       0       0       0       0       0       0
       0       0       0       0       0       0       0       0       0       0
       0       0       0       0       0       0       0       0       0       0
       0       0       0       0       0       0       0       0       0       0
       0       0       0       0       0       0       0       0       0       0
       0       0       0       0       0       0       0       0       0       0
       0       0       0       0       0       0       0       0       0       0
       0       0       0       0       0       0       0       0       0       0
       0       0       0       0       0       0       0       0       0       0
       0       0       0       0       0       0       0       0       0       0
       0       0       0       0       0       0       0       0       0       0
       0       0       0       0       0       0       0       0       0       0
       0       0       0       0       0       0       0       0       0       0
       0       0       0       0       0       0       0       0       0       0
       0       0       0       0       0       0       0       0       0       0
       0       0       0       0       0       0       0       0       0       0
       0       0       0       0       0       0       0       0       0       0
       0       0       0       0       0       0       0       0       0       0
       0       0       0       0       0       0       0       0       0       0
       0       0       0       0       0       0       0       0       0       0
       0       0       0       0       0       0       0       0       0       0
       0       0       0       0       0       0       0       0       0       0
       0       0       0       0       0       0       0       0       0       0
       0       0       0       0       0       0       0       0       0       0
       0       0       0       0       0       0       0       0       0       0
       0       0       0       0       0       0       0       0       0       0
       0       0       0       0       0       0       0       0       0       0
       0       0       0       0       0       0       0       0       0       0
       0       0       0       0       0       0       0       0       0       0
       0       0       0       0       0       0       0       0       0       0
       0       0       0       0       0       0       0       0       0       0
       0       0       0       0       0       0       0       0       0       0
       0       0       0       0       0       0       0       0       0       0
       0       0       0       0       0       0       0       0       0       0
       0       0       0       0       0       0       0       0       0       0
       0       0       0       0       0       0       0       0       0       0
       0       0       0       0       0       0       0       0       0       0
       0       0       0       0       0       0       0       0       0       0
       0       0       0       0       0       0       0       0       0       0
       0       0       0       0       0       0       0       0       0       0
       0       0       0       0       0       0       0       0       0       0
       0       0       0       0       0       0       0       0       0       0
       0       0       0       0       0       0       0       0       0       0
       0       0       0       0       0       0       0       0       0       0
       0       0       0       0       0       0       0       0       0       0
       0       0       0       0       0       0       0       0       0       0
       0       0       0       0       0       0       0       0       0       0
       0       0       0       0       0       0       0       0       0       0
       0       0       0       0       0       0       0       0       0       0
       0       0       0       0       0       0       0       0       0       0
       0       0       0       0       0       0       0       0       0       0
       0       0       0       0       0       0       0       0       0       0
       0       0       0       0       0       0       0       0       0       0
       0       0       0       0       0       0       0       0       0       0
       0       0       0       0       0       0       0       0       0       0
       0       0       0       0       0       0       0       0       0       0
       0       0       0       0       0       0       0       0       0       0
       0       0       0       0       0       0       0       0       0       0
       0       0       0       0       0       0       0       0       0       0
       0       0       0       0       0       0       0       0       0       0
       0       0       0       0       0       0       0       0       0       0
       0       0       0       0       0       0       0       0       0       0
       0       0       0       0       0       0       0       0       0       0
       0       0       0       0       0       0       0       0       0       0
       0       0       0       0       0       0       0       0       0       0
       0       0       0       0       0       0       0       0       0       0
       0       0       0       0       0       0       0       0       0       0
       0       0       0       0       0       0       0       0       0       0
       0       0       0       0       0       0       0       0       0       0
       0       0       0       0       0       0       0       0       0       0
       0       0       0       0       0       0       0       0       0       0
       0       0       0       0       0       0       0       0       0       0
       0       0       0       0       0       0       0       0       0       0
       0       0       0       0       0       0       0       0       0       0
       0       0       0       0       0       0       0       0       0       0
       0       0       0       0       0       0       0       0       0       0
       0       0       0       0       0       0       0       0       0       0
       0       0       0       0       0       0       0       0       0       0
       0       0       0       0       0       0       0       0       0       0
       0       0       0       0       0       0       0       0       0       0
       0       0       0       0       0       0       0       0       0       0
       0       0       0       0       0       0       0       0       0       0
       0       0       0       0       0       0       0       0       0       0
       0       0       0       0       0       0       0       0       0       0
       0       0       0       0       0       0       0       0       0       0
       0       0       0       0       0       0       0       0       0       0
       0       0       0       0       0       0       0       0       0       0
       0       0       0       0       0       0       0       0       0       0
       0       0       0       0       0       0       0       0       0       0
       0       0       0       0       0       0       0       0       0       0
       0       0       0       0       0       0       0       0       0       0
       0       0       0       0       0       0       0       0       0       0
       0       0       0       0       0       0       0       0       0       0
       0       0       0       0       0       0       0       0       0       0
       0       0       0       0       0       0       0       0       0       0
       0       0       0       0       0       0       0       0       0       0
       0       0       0       0       0       0       0       0       0       0
       0       0       0       0       0       0       0       0       0       0
       0       0       0       0       0       0       0       0       0       0
       0       0       0       0       0       0       0       0       0       0
       0       0       0       0       0       0       0       0       0       0
       0       0       0       0       0       0       0       0       0       0
       0       0       0       0       0       0       0       0       0       0
       0       0       0       0       0       0       0       0       0       0
       0       0       0       0       0       0       0       0       0       0
       0       0       0       0       0       0       0       0       0       0
       0       0       0       0       0       0       0       0       0       0
       0       0       0       0       0       0       0       0       0       0
       0       0       0       0       0       0       0       0       0       0
       0       0       0       0       0       0       0       0       0       0
       0       0       0       0       0       0       0       0       0       0
       0       0       0       0       0       0       0       0       0       0
       0       0       0       0       0       0       0       0       0       0
       0       0       0       0       0       0       0       0       0       0
       0       0       0       0       0       0       0       0       0       0
       0       0       0       0       0       0       0       0       0       0
       0       0       0       0       0       0       0       0       0       0
       0       0       0       0       0       0       0       0       0       0
       0       0       0       0       0       0       0       0       0       0
       0       0       0       0       0       0       0       0       0       0
       0       0       0       0       0       0       0       0       0       0
       0       0       0       0       0       0       0       0       0       0
       0       0       0       0       0       0       0       0       0       0
       0       0       0       0       0       0       0       0       0       0
       0       0       0       0       0       0       0       0       0       0
       0       0       0       0       0       0       0       0       0       0
       0       0       0       0       0       0       0       0       0       0
       0       0       0       0       0       0       0       0       0       0
       0       0       0       0       0       0       0       0       0       0
       0       0       0       0       0       0       0       0       0       0
       0       0       0       0       0       0       0       0       0       0
       0       0       0       0       0       0       0       0       0       0
       0       0       0       0       0       0       0       0       0       0
       0       0       0       0       0       0       0       0       0       0
       0       0       0       0       0       0       0       0       0       0
       0       0       0       0       0       0       0       0       0       0
       0       0       0       0       0       0       0       0       0       0
       0       0       0       0       0       0       0       0       0       0
       0       0       0       0       0       0       0       0       0       0
       0       0       0       0       0       0       0       0       0       0
       0       0       0       0       0       0       0       0       0       0
       0       0       0       0       0       0       0       0       0       0
       0       0       0       0       0       0       0       0       0       0
       0       0       0       0       0       0       0       0       0       0
       0       0       0       0       0       0       0       0       0       0
       0       0       0       0       0       0       0       0       0       0
       0       0       0       0       0       0       0       0       0       0
       0       0       0       0       0       0       0       0       0       0
       0       0       0       0       0       0       0       0       0       0
       0       0       0       0       0       0       0       0       0       0
       0       0       0       0       0       0       0       0       0       0
       0       0       0       0       0       0       0       0       0       0
       0       0       0       0       0       0       0       0       0       0
       0       0       0       0       0       0       0       0       0       0
       0       0       0       0       0       0       0       0       0       0
       0       0       0       0       0       0       0       0       0       0
       0       0       0       0       0       0       0       0       0       0
       0       0       0       0       0       0       0       0       0       0
       0       0       0       0       0       0       0       0       0       0
       0       0       0       0       0       0       0       0       0       0
       0       0       0       0       0       0       0       0       0       0
       0       0       0       0       0       0       0       0       0       0
       0       0       0       0       0       0       0       0       0       0
       0       0       0       0       0       0       0       0       0       0
       0       0       0       0       0       0       0       0       0       0
       0       0       0       0       0       0       0       0       0       0
       0       0       0       0       0       0       0       0       0       0
       0       0       0       0       0       0       0       0       0       0
       0       0       0       0       0       0       0       0       0       0
       0       0       0       0       0       0       0       0       0       0
       0       0       0       0       0       0       0       0       0       0
       0       0       0       0       0       0       0       0       0       0
       0       0       0       0       0       0       0       0       0       0
       0       0       0       0       0       0       0       0       0       0
       0       0       0       0       0       0       0       0       0       0
       0       0       0       0       0       0       0       0       0       0
       0       0       0       0       0       0       0       0       0       0
       0       0       0       0       0       0       0       0       0       0
       0       0       0       0       0       0       0       0       0       0
       0       0       0       0       0       0       0       0       0       0
       0       0       0       0       0       0       0       0       0       0
       0       0       0       0       0       0       0       0       0       0
       0       0       0       0       0       0       0       0       0       0
       0       0       0       0       0       0       0       0       0       0
       0       0       0       0       0       0       0       0       0       0
       0       0       0       0       0       0       0       0       0       0
       0       0       0       0       0       0       0       0       0       0
       0       0       0       0       0       0       0       0       0       0
       0       0       0       0       0       0       0       0       0       0
       0       0       0       0       0       0       0       0       0       0
       0       0       0       0       0       0       0       0       0       0
       0       0       0       0       0       0       0       0       0       0
       0       0       0       0       0       0       0       0       0       0
       0       0       0       0       0       0       0       0       0       0
       0       0       0       0       0       0       0       0       0       0
       0       0       0       0       0       0       0       0       0       0
       0       0       0       0       0       0       0       0       0       0
       0       0       0       0       0       0       0       0       0       0
       0       0       0       0       0       0       0       0       0       0
       0       0       0       0       0       0       0       0       0       0
       0       0       0       0       0       0       0       0       0       0
       0       0       0       0       0       0       0       0       0       0
       0       0       0       0       0       0       0       0       0       0
       0       0       0       0       0       0       0       0       0       0
       0       0       0       0       0       0       0       0       0       0
       0       0       0       0       0       0       0       0       0       0
       0       0       0       0       0       0       0       0       0       0
       0       0       0       0       0       0       0       0       0       0
       0       0       0       0       0       0       0       0       0       0
       0       0       0       0       0       0       0       0       0       0
       0       0       0       0       0       0       0       0       0       0
       0       0       0       0       0       0       0       0       0       0
       0       0       0       0       0       0       0       0       0       0
       0       0       0       0       0       0       0       0       0       0
       0       0       0       0       0       0       0       0       0       0
       0       0       0       0       0       0       0       0       0       0
       0       0       0       0       0       0       0       0       0       0
       0       0       0       0       0       0       0       0       0       0
       0       0       0       0       0       0       0       0       0       0
       0       0       0       0       0       0       0       0       0       0
       0       0       0       0       0       0       0       0       0       0
       0       0       0       0       0       0       0       0       0       0
       0       0       0       0       0       0       0       0       0       0
       0       0       0       0       0       0       0       0       0       0
       0       0       0       0       0       0       0       0       0       0
       0       0       0       0       0       0       0       0       0       0
       0       0       0       0       0       0       0       0       0       0
       0       0       0       0       0       0       0       0       0       0
       0       0       0       0       0       0       0       0       0       0
       0       0       0       0       0       0       0       0       0       0
       0       0       0       0       0       0       0       0       0       0
       0       0       0       0       0       0       0       0       0       0
       0       0       0       0       0       0       0       0       0       0
       0       0       0       0       0       0       0       0       0       0
       0       0       0       0       0       0       0       0       0       0
       0       0       0       0       0       0       0       0       0       0
       0       0       0       0       0       0       0       0       0       0
       0       0       0       0       0       0       0       0       0       0
       0       0       0       0       0       0       0       0       0       0
       0       0       0       0       0       0       0       0       0       0
       0       0       0       0       0       0       0       0       0       0
       0       0       0       0       0       0       0       0       0       0
       0       0       0       0       0       0       0       0       0       0
       0       0       0       0       0       0       0       0       0       0
       0       0       0       0       0       0       0       0       0       0
       0       0       0       0       0       0       0       0       0       0
       0       0       0       0       0       0       0       0       0       0
       0       0       0       0       0       0       0       0       0       0
       0       0       0       0       0       0       0       0       0       0
       0       0       0       0       0       0       0       0       0       0
       0       0       0       0       0       0       0       0       0       0
       0       0       0       0       0       0       0       0       0       0
       0       0       0       0       0       0       0       0       0       0
       0       0       0       0       0       0       0       0       0       0
       0       0       0       0       0       0       0       0       0       0
       0       0       0       0       0       0       0       0       0       0
       0       0       0       0       0       0       0       0       0       0
       0       0       0       0       0       0       0       0       0       0
       0       0       0       0       0       0       0       0       0       0
       0       0       0       0       0       0       0       0       0       0
       0       0       0       0       0       0       0       0       0       0
       0       0       0       0       0       0       0       0       0       0
       0       0       0       0       0       0       0       0       0       0
       0       0       0       0       0       0       0       0       0       0
       0       0       0       0       0       0       0       0       0       0
       0       0       0       0       0       0       0       0       0       0
       0       0       0       0       0       0       0       0       0       0
       0       0       0       0       0       0       0       0       0       0
       0       0       0       0       0       0       0       0       0       0
       0       0       0       0       0       0       0       0       0       0
       0       0       0       0       0       0       0       0       0       0
       0       0       0       0       0       0       0       0       0       0
       0       0       0       0       0       0       0       0       0       0
       0       0       0       0       0       0       0       0       0       0
       0       0       0       0       0       0       0       0       0       0
       0       0       0       0       0       0       0       0       0       0
       0       0       0       0       0       0       0       0       0       0
       0       0       0       0       0       0       0       0       0       0
       0       0       0       0       0       0       0       0       0       0
       0       0       0       0       0       0       0       0       0       0
       0       0       0       0       0       0       0       0       0       0
       0       0       0       0       0       0       0       0       0       0
       0       0       0       0       0       0       0       0       0       0
       0       0       0       0       0       0       0       0       0       0
       0       0       0       0       0       0       0       0       0       0
       0       0       0       0       0       0       0       0       0       0
       0       0       0       0       0       0       0       0       0       0
       0       0       0       0       0       0       0       0       0       0
       0       0       0       0       0       0       0       0       0       0
       0       0       0       0       0       0       0       0       0       0
       0       0       0       0       0       0       0       0       0       0
       0       0       0       0       0       0       0       0       0       0
       0       0       0       0       0       0       0       0       0       0
       0       0       0       0       0       0       0       0       0       0
       0       0       0       0       0       0       0       0       0       0
       0       0       0       0       0       0       0       0       0       0
       0       0       0       0       0       0       0       0       0       0
       0       0       0       0       0       0       0       0       0       0
       0       0       0       0       0       0       0       0       0       0
       0       0       0       0       0       0       0       0       0       0
       0       0       0       0       0       0       0       0       0       0
       0       0       0       0       0       0       0       0       0       0
       0       0       0       0       0       0       0       0       0       0
       0       0       0       0       0       0       0       0       0       0
       0       0       0       0       0       0       0       0       0       0
       0       0       0       0       0       0       0       0       0       0
       0       0       0       0       0       0       0       0       0       0
       0       0       0       0       0       0       0       0       0       0
       0       0       0       0       0       0       0       0       0       0
       0       0       0       0       0       0       0       0       0       0
       0       0       0       0       0       0       0       0       0       0
       0       0       0       0       0       0       0       0       0       0
       0       0       0       0       0       0       0       0       0       0
       0       0       0       0       0       0       0       0       0       0
       0       0       0       0       0       0       0       0       0       0
       0       0       0       0       0       0       0       0       0       0
       0       0       0       0       0       0       0       0       0       0
       0       0       0       0       0       0       0       0       0       0
       0       0       0       0       0       0       0       0       0       0
       0       0       0       0       0       0       0       0       0       0
       0       0       0       0       0       0       0       0       0       0
       0       0       0       0       0       0       0       0       0       0
       0       0       0       0       0       0       0       0       0       0
       0       0       0       0       0       0       0       0       0       0
       0       0       0       0       0       0       0       0       0       0
       0       0       0       0       0       0       0       0       0       0
       0       0       0       0       0       0       0       0       0       0
       0       0       0       0       0       0       0       0       0       0
       0       0       0       0       0       0       0       0       0       0
       0       0       0       0       0       0       0       0       0       0
       0       0       0       0       0       0       0       0       0       0
       0       0       0       0       0       0       0       0       0       0
       0       0       0       0       0       0       0       0       0       0
       0       0       0       0       0       0       0       0       0       0
       0       0       0       0       0       0       0       0       0       0
       0       0       0       0       0       0       0       0       0       0
       0       0       0       0       0       0       0       0       0       0
       0       0       0       0       0       0       0       0       0       0
       0       0       0       0       0       0       0       0       0       0
       0       0       0       0       0       0       0       0       0       0
       0       0       0       0       0       0       0       0       0       0
       0       0       0       0       0       0       0       0       0       0
       0       0       0       0       0       0       0       0       0       0
       0       0       0       0       0       0       0       0       0       0
       0       0       0       0       0       0       0       0       0       0
       0       0       0       0       0       0       0       0       0       0
       0       0       0       0       0       0       0       0       0       0
       0       0       0       0       0       0       0       0       0       0
       0       0       0       0       0       0       0       0       0       0
       0       0       0       0       0       0       0       0       0       0
       0       0       0       0       0       0       0       0       0       0
       0       0       0       0       0       0       0       0       0       0
       0       0       0       0       0       0       0       0       0       0
       0       0       0       0       0       0       0       0       0       0
       0       0       0       0       0       0       0       0       0       0
       0       0       0       0       0       0       0       0       0       0
       0       0       0       0       0       0       0       0       0       0
       0       0       0       0       0       0       0       0       0       0
       0       0       0       0       0       0       0       0       0       0
       0       0       0       0       0       0       0       0       0       0
       0       0       0       0       0       0       0       0       0       0
       0       0       0       0       0       0       0       0       0       0
       0       0       0       0       0       0       0       0       0       0
       0       0       0       0       0       0       0       0       0       0
       0       0       0       0       0       0       0       0       0       0
       0       0       0       0       0       0       0       0       0       0
       0       0       0       0       0       0       0       0       0       0
       0       0       0       0       0       0       0       0       0       0
       0       0       0       0       0       0       0       0       0       0
       0       0       0       0       0       0       0       0       0       0
       0       0       0       0       0       0       0       0       0       0
       0       0       0       0       0       0       0       0       0       0
       0       0       0       0       0       0       0       0       0       0
       0       0       0       0       0       0       0       0       0       0
       0       0       0       0       0       0       0       0       0       0
       0       0       0       0       0       0       0       0       0       0
       0       0       0       0       0       0       0       0       0       0
       0       0       0       0       0       0       0       0       0       0
       0       0       0       0       0       0       0       0       0       0
       0       0       0       0       0       0       0       0       0       0
       0       0       0       0       0       0       0       0       0       0
       0       0       0       0       0       0       0       0       0       0
       0       0       0       0       0       0       0       0       0       0
       0       0       0       0       0       0       0       0       0       0
       0       0       0       0       0       0       0       0       0       0
       0       0       0       0       0       0       0       0       0       0
       0       0       0       0       0       0       0       0       0       0
       0       0       0       0       0       0       0       0       0       0
       0       0       0       0       0       0       0       0       0       0
       0       0       0       0       0       0       0       0       0       0
       0       0       0       0       0       0       0       0       0       0
       0       0       0       0       0       0       0       0       0       0
       0       0       0       0       0       0       0       0       0       0
       0       0       0       0       0       0       0       0       0       0
       0       0       0       0       0       0       0       0       0       0
       0       0       0       0       0       0       0       0       0       0
       0       0       0       0       0       0       0       0       0       0
       0       0       0       0       0       0       0       0       0       0
       0       0       0       0       0       0       0       0       0       0
       0       0       0       0       0       0       0       0       0       0
       0       0       0       0       0       0       0       0       0       0
       0       0       0       0       0       0       0       0       0       0
       0       0       0       0       0       0       0       0       0       0
       0       0       0       0       0       0       0       0       0       0
       0       0       0       0       0       0       0       0       0       0
       0       0       0       0       0       0       0       0       0       0
       0       0       0       0       0       0       0       0       0       0
       0       0       0       0       0       0       0       0       0       0
       0       0       0       0       0       0       0       0       0       0
       0       0       0       0       0       0       0       0       0       0
       0       0       0       0       0       0       0       0       0       0
       0       0       0       0       0       0       0       0       0       0
       0       0       0       0       0       0       0       0       0       0
       0       0       0       0       0       0       0       0       0       0
       0       0       0       0       0       0       0       0       0       0
       0       0       0       0       0       0       0       0       0       0
       0       0       0       0       0       0       0       0       0       0
       0       0       0       0       0       0       0       0       0       0
       0       0       0       0       0       0       0       0       0       0
       0       0       0       0       0       0       0       0       0       0
       0       0       0       0       0       0       0       0       0       0
       0       0       0       0       0       0       0       0       0       0
       0       0       0       0       0       0       0       0       0       0
       0       0       0       0       0       0       0       0       0       0
       0       0       0       0       0       0       0       0       0       0
       0       0       0       0       0       0       0       0       0       0
       0       0       0       0       0       0       0       0       0       0
       0       0       0       0       0       0       0       0       0       0
       0       0       0       0       0       0       0       0       0       0
       0       0       0       0       0       0       0       0       0       0
       0       0       0       0       0       0       0       0       0       0
       0       0       0       0       0       0       0       0       0       0
       0       0       0       0       0       0       0       0       0       0
       0       0       0       0       0       0       0       0       0       0
       0       0       0       0       0       0       0       0       0       0
       0       0       0       0       0       0       0       0       0       0
       0       0       0       0       0       0       0       0       0       0
       0       0       0       0       0       0       0       0       0       0
       0       0       0       0       0       0       0       0       0       0
       0       0       0       0       0       0       0       0       0       0
       0       0       0       0       0       0       0       0       0       0
       0       0       0       0       0       0       0       0       0       0
       0       0       0       0       0       0       0       0       0       0
       0       0       0       0       0       0       0       0       0       0
       0       0       0       0       0       0       0       0       0       0
       0       0       0       0       0       0       0       0       0       0
       0       0       0       0       0       0       0       0       0       0
       0       0       0       0       0       0       0       0       0       0
       0       0       0       0       0       0       0       0       0       0
       0       0       0       0       0       0       0       0       0       0
       0       0       0       0       0       0       0       0       0       0
       0       0       0       0       0       0       0       0       0       0
       0       0       0       0       0       0       0       0       0       0
       0       0       0       0       0       0       0       0       0       0
       0       0       0       0       0       0       0       0       0       0
       0       0       0       0       0       0       0       0       0       0
       0       0       0       0       0       0       0       0       0       0
       0       0       0       0       0       0       0       0       0       0
       0       0       0       0       0       0       0       0       0       0
       0       0       0       0       0       0       0       0       0       0
       0       0       0       0       0       0       0       0       0       0
       0       0       0       0       0       0       0       0       0       0
       0       0       0       0       0       0       0       0       0       0
       0       0       0       0       0       0       0       0       0       0
       0       0       0       0       0       0       0       0       0       0
       0       0       0       0       0       0       0       0       0       0
       0       0       0       0       0       0       0       0       0       0
       0       0       0       0       0       0       0       0       0       0
       0       0       0       0       0       0       0       0       0       0
       0       0       0       0       0       0       0       0       0       0
       0       0       0       0       0       0       0       0       0       0
       0       0       0       0       0       0       0       0       0       0
       0       0       0       0       0       0       0       0       0       0
       0       0       0       0       0       0       0       0       0       0
       0       0       0       0       0       0       0       0       0       0
       0       0       0       0       0       0       0       0       0       0
       0       0       0       0       0       0       0       0       0       0
       0       0       0       0       0       0       0       0       0       0
       0       0       0       0       0       0       0       0       0       0
       0       0       0       0       0       0       0       0       0       0
       0       0       0       0       0       0       0       0       0       0
       0       0       0       0       0       0       0       0       0       0
       0       0       0       0       0       0       0       0       0       0
       0       0       0       0       0       0       0       0       0       0
       0       0       0       0       0       0       0       0       0       0
       0       0       0       0       0       0       0       0       0       0
       0       0       0       0       0       0       0       0       0       0
       0       0       0       0       0       0       0       0       0       0
       0       0       0       0       0       0       0       0       0       0
       0       0       0       0       0       0       0       0       0       0
       0       0       0       0       0       0       0       0       0       0
       0       0       0       0       0       0       0       0       0       0
       0       0       0       0       0       0       0       0       0       0
       0       0       0       0       0       0       0       0       0       0
       0       0       0       0       0       0       0       0       0       0
       0       0       0       0       0       0       0       0       0       0
       0       0       0       0       0       0       0       0       0       0
       0       0       0       0       0       0       0       0       0       0
       0       0       0       0       0       0       0       0       0       0
       0       0       0       0       0       0       0       0       0       0
       0       0       0       0       0       0       0       0       0       0
       0       0       0       0       0       0       0       0       0       0
       0       0       0       0       0       0       0       0       0       0
       0       0       0       0       0       0       0       0       0       0
       0       0       0       0       0       0       0       0       0       0
       0       0       0       0       0       0       0       0       0       0
       0       0       0       0       0       0       0       0       0       0
       0       0       0       0       0       0       0       0       0       0
       0       0       0       0       0       0       0       0       0       0
       0       0       0       0       0       0       0       0       0       0
       0       0       0       0       0       0       0       0       0       0
       0       0       0       0       0       0       0       0       0       0
       0       0       0       0       0       0       0       0       0       0
       0       0       0       0       0       0       0       0       0       0
       0       0       0       0       0       0       0       0       0       0
       0       0       0       0       0       0       0       0       0       0
       0       0       0       0       0       0       0       0       0       0
       0       0       0       0       0       0       0       0       0       0
       0       0       0       0       0       0       0       0       0       0
       0       0       0       0       0       0       0       0       0       0
       0       0       0       0       0       0       0       0       0       0
       0       0       0       0       0       0       0       0       0       0
       0       0       0       0       0       0       0       0       0       0
       0       0       0       0       0       0       0       0       0       0
       0       0       0       0       0       0       0       0       0       0
       0       0       0       0       0       0       0       0       0       0
       0       0       0       0       0       0       0       0       0       0
       0       0       0       0       0       0       0       0       0       0
       0       0       0       0       0       0       0       0       0       0
       0       0       0       0       0       0       0       0       0       0
       0       0       0       0       0       0       0       0       0       0
       0       0       0       0       0       0       0       0       0       0
       0       0       0       0       0       0       0       0       0       0
       0       0       0       0       0       0       0       0       0       0
       0       0       0       0       0       0       0       0       0       0
       0       0       0       0       0       0       0       0       0       0
       0       0       0       0       0       0       0       0       0       0
       0       0       0       0       0       0       0       0       0       0
       0       0       0       0       0       0       0       0       0       0
       0       0       0       0       0       0       0       0       0       0
       0       0       0       0       0       0       0       0       0       0
       0       0       0       0       0       0       0       0       0       0
       0       0       0       0       0       0       0       0       0       0
       0       0       0       0       0       0       0       0       0       0
       0       0       0       0       0       0       0       0       0       0
       0       0       0       0       0       0       0       0       0       0
       0       0       0       0       0       0       0       0       0       0
       0       0       0       0       0       0       0       0       0       0
       0       0       0       0       0       0       0       0       0       0
       0       0       0       0       0       0       0       0       0       0
       0       0       0       0       0       0       0       0       0       0
       0       0       0       0       0       0       0       0       0       0
       0       0       0       0       0       0       0       0       0       0
       0       0       0       0       0       0       0       0       0       0
       0       0       0       0       0       0       0       0       0       0
       0       0       0       0       0       0       0       0       0       0
       0       0       0       0       0       0       0       0       0       0
       0       0       0       0       0       0       0       0       0       0
       0       0       0       0       0       0       0       0       0       0
       0       0       0       0       0       0       0       0       0       0
       0       0       0       0       0       0       0       0       0       0
       0       0       0       0       0       0       0       0       0       0
       0       0       0       0       0       0       0       0       0       0
       0       0       0       0       0       0       0       0       0       0
       0       0       0       0       0       0       0       0       0       0
       0       0       0       0       0       0       0       0       0       0
       0       0       0       0       0       0       0       0       0       0
       0       0       0       0       0       0       0       0       0       0
       0       0       0       0       0       0       0       0       0       0
       0       0       0       0       0       0       0       0       0       0
       0       0       0       0       0       0       0       0       0       0
       0       0       0       0       0       0       0       0       0       0
       0       0       0       0       0       0       0       0       0       0
       0       0       0       0       0       0       0       0       0       0
       0       0       0       0       0       0       0       0       0       0
       0       0       0       0       0       0       0       0       0       0
       0       0       0       0       0       0       0       0       0       0
       0       0       0       0       0       0       0       0       0       0
       0       0       0       0       0       0       0       0       0       0
       0       0       0       0       0       0       0       0       0       0
       0       0       0       0       0       0       0       0       0       0
       0       0       0       0       0       0       0       0       0       0
       0       0       0       0       0       0       0       0       0       0
       0       0       0       0       0       0       0       0       0       0
       0       0       0       0       0       0       0       0       0       0
       0       0       0       0       0       0       0       0       0       0
       0       0       0       0       0       0       0       0       0       0
       0       0       0       0       0       0       0       0       0       0
       0       0       0       0       0       0       0       0       0       0
       0       0       0       0       0       0       0       0       0       0
       0       0       0       0       0       0       0       0       0       0
       0       0       0       0       0       0       0       0       0       0
       0       0       0       0       0       0       0       0       0       0
       0       0       0       0       0       0       0       0       0       0
       0       0       0       0       0       0       0       0       0       0
       0       0       0       0       0       0       0       0       0       0
       0       0       0       0       0       0       0       0       0       0
       0       0       0       0       0       0       0       0       0       0
       0       0       0       0       0       0       0       0       0       0
       0       0       0       0       0       0       0       0       0       0
       0       0       0       0       0       0       0       0       0       0
       0       0       0       0       0       0       0       0       0       0
       0       0       0       0       0       0       0       0       0       0
       0       0       0       0       0       0       0       0       0       0
       0       0       0       0       0       0       0       0       0       0
       0       0       0       0       0       0       0       0       0       0
       0       0       0       0       0       0       0       0       0       0
       0       0       0       0       0       0       0       0       0       0
       0       0       0       0       0       0       0       0       0       0
       0       0       0       0       0       0       0       0       0       0
       0       0       0       0       0       0       0       0       0       0
       0       0       0       0       0       0       0       0       0       0
       0       0       0       0       0       0       0       0       0       0
       0       0       0       0       0       0       0       0       0       0
       0       0       0       0       0       0       0       0       0       0
       0       0       0       0       0       0       0       0       0       0
       0       0       0       0       0       0       0       0       0       0
       0       0       0       0       0       0       0       0       0       0
       0       0       0       0       0       0       0       0       0       0
       0       0       0       0       0       0       0       0       0       0
       0       0       0       0       0       0       0       0       0       0
       0       0       0       0       0       0       0       0       0       0
       0       0       0       0       0       0       0       0       0       0
       0       0       0       0       0       0       0       0       0       0
       0       0       0       0       0       0       0       0       0       0
       0       0       0       0       0       0       0       0       0       0
       0       0       0       0       0       0       0       0       0       0
       0       0       0       0       0       0       0       0       0       0
       0       0       0       0       0       0       0       0       0       0
       0       0       0       0       0       0       0       0       0       0
       0       0       0       0       0       0       0       0       0       0
       0       0       0       0       0       0       0       0       0       0
       0       0       0       0       0       0       0       0       0       0
       0       0       0       0       0       0       0       0       0       0
       0       0       0       0       0       0       0       0       0       0
       0       0       0       0       0       0       0       0       0       0
       0       0       0       0       0       0       0       0       0       0
       0       0       0       0       0       0       0       0       0       0
       0       0       0       0       0       0       0       0       0       0
       0       0       0       0       0       0       0       0       0       0
       0       0       0       0       0       0       0       0       0       0
       0       0       0       0       0       0       0       0       0       0
       0       0       0       0       0       0       0       0       0       0
       0       0       0       0       0       0       0       0       0       0
       0       0       0       0       0       0       0       0       0       0
       0       0       0       0       0       0       0       0       0       0
       0       0       0       0       0       0       0       0       0       0
       0       0       0       0       0       0       0       0       0       0
       0       0       0       0       0       0       0       0       0       0
       0       0       0       0       0       0       0       0       0       0
       0       0       0       0       0       0       0       0       0       0
       0       0       0       0       0       0       0       0       0       0
       0       0       0       0       0       0       0       0       0       0
       0       0       0       0       0       0       0       0       0       0
       0       0       0       0       0       0       0       0       0       0
       0       0       0       0       0       0       0       0       0       0
       0       0       0       0       0       0       0       0       0       0
       0       0       0       0       0       0       0       0       0       0
       0       0       0       0       0       0       0       0       0       0
       0       0       0       0       0       0       0       0       0       0
       0       0       0       0       0       0       0       0       0       0
       0       0       0       0       0       0       0       0       0       0
       0       0       0       0       0       0       0       0       0       0
       0       0       0       0       0       0       0       0       0       0
       0       0       0       0       0       0       0       0       0       0
       0       0       0       0       0       0       0       0       0       0
       0       0       0       0       0       0       0       0       0       0
       0       0       0       0       0       0       0       0       0       0
       0       0       0       0       0       0       0       0       0       0
       0       0       0       0       0       0       0       0       0       0
       0       0       0       0       0       0       0       0       0       0
       0       0       0       0       0       0       0       0       0       0
       0       0       0       0       0       0       0       0       0       0
       0       0       0       0       0       0       0       0       0       0
       0       0       0       0       0       0       0       0       0       0
       0       0       0       0       0       0       0       0       0       0
       0       0       0       0       0       0       0       0       0       0
       0       0       0       0       0       0       0       0       0       0
       0       0       0       0       0       0       0       0       0       0
       0       0       0       0       0       0       0       0       0       0
       0       0       0       0       0       0       0       0       0       0
       0       0       0       0       0       0       0       0       0       0
       0       0       0       0       0       0       0       0       0       0
       0       0       0       0       0       0       0       0       0       0
       0       0       0       0       0       0       0       0       0       0
       0       0       0       0       0       0       0       0       0       0
       0       0       0       0       0       0       0       0       0       0
       0       0       0       0       0       0       0       0       0       0
       0       0       0       0       0       0       0       0       0       0
       0       0       0       0       0       0       0       0       0       0
       0       0       0       0       0       0       0       0       0       0
       0       0       0       0       0       0       0       0       0       0
       0       0       0       0       0       0       0       0       0       0
       0       0       0       0       0       0       0       0       0       0
       0       0       0       0       0       0       0       0       0       0
       0       0       0       0       0       0       0       0       0       0
       0       0       0       0       0       0       0       0       0       0
       0       0       0       0       0       0       0       0       0       0
       0       0       0       0       0       0       0       0       0       0
       0       0       0       0       0       0       0       0       0       0
       0       0       0       0       0       0       0       0       0       0
       0       0       0       0       0       0       0       0       0       0
       0       0       0       0       0       0       0       0       0       0
       0       0       0       0       0       0       0       0       0       0
       0       0       0       0       0       0       0       0       0       0
       0       0       0       0       0       0       0       0       0       0
       0       0       0       0       0       0       0       0       0       0
       0       0       0       0       0       0       0       0       0       0
       0       0       0       0       0       0       0       0       0       0
       0       0       0       0       0       0       0       0       0       0
       0       0       0       0       0       0       0       0       0       0
       0       0       0       0       0       0       0       0       0       0
       0       0       0       0       0       0       0       0       0       0
       0       0       0       0       0       0       0       0       0       0
       0       0       0       0       0       0       0       0       0       0
       0       0       0       0       0       0       0       0       0       0
       0       0       0       0       0       0       0       0       0       0
       0       0       0       0       0       0       0       0       0       0
       0       0       0       0       0       0       0       0       0       0
       0       0       0       0       0       0       0       0       0       0
       0       0       0       0       0       0       0       0       0       0
       0       0       0       0       0       0       0       0       0       0
       0       0       0       0       0       0       0       0       0       0
       0       0       0       0       0       0       0       0       0       0
       0       0       0       0       0       0       0       0       0       0
       0       0       0       0       0       0       0       0       0       0
       0       0       0       0       0       0       0       0       0       0
       0       0       0       0       0       0       0       0       0       0
       0       0       0       0       0       0       0       0       0       0
       0       0       0       0       0       0       0       0       0       0
       0       0       0       0       0       0       0       0       0       0
       0       0       0       0       0       0       0       0       0       0
       0       0       0       0       0       0       0       0       0       0
       0       0       0       0       0       0       0       0       0       0
       0       0       0       0       0       0       0       0       0       0
       0       0       0       0       0       0       0       0       0       0
       0       0       0       0       0       0       0       0       0       0
       0       0       0       0       0       0       0       0       0       0
       0       0       0       0       0       0       0       0       0       0
       0       0       0       0       0       0       0       0       0       0
       0       0       0       0       0       0       0       0       0       0
       0       0       0       0       0       0       0       0       0       0
       0       0       0       0       0       0       0       0       0       0
       0       0       0       0       0       0       0       0       0       0
       0       0       0       0       0       0       0       0       0       0
       0       0       0       0       0       0       0       0       0       0
       0       0       0       0       0       0       0       0       0       0
       0       0       0       0       0       0       0       0       0       0
       0       0       0       0       0       0       0       0       0       0
       0       0       0       0       0       0       0       0       0       0
       0       0       0       0       0       0       0       0       0       0
       0       0       0       0       0       0       0       0       0       0
       0       0       0       0       0       0       0       0       0       0
       0       0       0       0       0       0       0       0       0       0
       0       0       0       0       0       0       0       0       0       0
       0       0       0       0       0       0       0       0       0       0
       0       0       0       0       0       0       0       0       0       0
       0       0       0       0       0       0       0       0       0       0
       0       0       0       0       0       0       0       0       0       0
       0       0       0       0       0       0       0       0       0       0
       0       0       0       0       0       0       0       0       0       0
       0       0       0       0       0       0       0       0       0       0
       0       0       0       0       0       0       0       0       0       0
       0       0       0       0       0       0       0       0       0       0
       0       0       0       0       0       0       0       0       0       0
       0       0       0       0       0       0       0       0       0       0
       0       0       0       0       0       0       0       0       0       0
       0       0       0       0       0       0       0       0       0       0
       0       0       0       0       0       0       0       0       0       0
       0       0       0       0       0       0       0       0       0       0
       0       0       0       0       0       0       0       0       0       0
       0       0       0       0       0       0       0       0       0       0
       0       0       0       0       0       0       0       0       0       0
       0       0       0       0       0       0       0       0       0       0
       0       0       0       0       0       0       0       0       0       0
       0       0       0       0       0       0       0       0       0       0
       0       0       0       0       0       0       0       0       0       0
       0       0       0       0       0       0       0       0       0       0
       0       0       0       0       0       0       0       0       0       0
       0       0       0       0       0       0       0       0       0       0
       0       0       0       0       0       0       0       0       0       0
       0       0       0       0       0       0       0       0       0       0
       0       0       0       0       0       0       0       0       0       0
       0       0       0       0       0       0       0       0       0       0
       0       0       0       0       0       0       0       0       0       0
       0       0       0       0       0       0       0       0       0       0
       0       0       0       0       0       0       0       0       0       0
       0       0       0       0       0       0       0       0       0       0
       0       0       0       0       0       0       0       0       0       0
       0       0       0       0       0       0       0       0       0       0
       0       0       0       0       0       0       0       0       0       0
       0       0       0       0       0       0       0       0       0       0
       0       0       0       0       0       0       0       0       0       0
       0       0       0       0       0       0       0       0       0       0
       0       0       0       0       0       0       0       0       0       0
       0       0       0       0       0       0       0       0       0       0
       0       0       0       0       0       0       0       0       0       0
       0       0       0       0       0       0       0       0       0       0
       0       0       0       0       0       0       0       0       0       0
       0       0       0       0       0       0       0       0       0       0
       0       0       0       0       0       0       0       0       0       0
       0       0       0       0       0       0       0       0       0       0
       0       0       0       0       0       0       0       0       0       0
       0       0       0       0       0       0       0       0       0       0
       0       0       0       0       0       0       0       0       0       0
       0       0       0       0       0       0       0       0       0       0
       0       0       0       0       0       0       0       0       0       0
       0       0       0       0       0       0       0       0       0       0
       0       0       0       0       0       0       0       0       0       0
       0       0       0       0       0       0       0       0       0       0
       0       0       0       0       0       0       0       0       0       0
       0       0       0       0       0       0       0       0       0       0
       0       0       0       0       0       0       0       0       0       0
       0       0       0       0       0       0       0       0       0       0
       0       0       0       0       0       0       0       0       0       0
       0       0       0       0       0       0       0       0       0       0
       0       0       0       0       0       0       0       0       0       0
       0       0       0       0       0       0       0       0       0       0
       0       0       0       0       0       0       0       0       0       0
       0       0       0       0       0       0       0       0       0       0
       0       0       0       0       0       0       0       0       0       0
       0       0       0       0       0       0       0       0       0       0
       0       0       0       0       0       0       0       0       0       0
       0       0       0       0       0       0       0       0       0       0
       0       0       0       0       0       0       0       0       0       0
       0       0       0       0       0       0       0       0       0       0
       0       0       0       0       0       0       0       0       0       0
       0       0       0       0       0       0       0       0       0       0
       0       0       0       0       0       0       0       0       0       0
       0       0       0       0       0       0       0       0       0       0
       0       0       0       0       0       0       0       0       0       0
       0       0       0       0       0       0       0       0       0       0
       0       0       0       0       0       0       0       0       0       0
       0       0       0       0       0       0       0       0       0       0
       0       0       0       0       0       0       0       0       0       0
       0       0       0       0       0       0       0       0       0       0
       0       0       0       0       0       0       0       0       0       0
       0       0       0       0       0       0       0       0       0       0
       0       0       0       0       0       0       0       0       0       0
       0       0       0       0       0       0       0       0       0       0
       0       0       0       0       0       0       0       0       0       0
       0       0       0       0       0       0       0       0       0       0
       0       0       0       0       0       0       0       0       0       0
       0       0       0       0       0       0       0       0       0       0
       0       0       0       0       0       0       0       0       0       0
       0       0       0       0       0       0       0       0       0       0
       0       0       0       0       0       0       0       0       0       0
       0       0       0       0       0       0       0       0       0       0
       0       0       0       0       0       0       0       0       0       0
       0       0       0       0       0       0       0       0       0       0
       0       0       0       0       0       0       0       0       0       0
       0       0       0       0       0       0       0       0       0       0
       0       0       0       0       0       0       0       0       0       0
       0       0       0       0       0       0       0       0       0       0
       0       0       0       0       0       0       0       0       0       0
       0       0       0       0       0       0       0       0       0       0
       0       0       0       0       0       0       0       0       0       0
       0       0       0       0       0       0       0       0       0       0
       0       0       0       0       0       0       0       0       0       0
       0       0       0       0       0       0       0       0       0       0
       0       0       0       0       0       0       0       0       0       0
       0       0       0       0       0       0       0       0       0       0
       0       0       0       0       0       0       0       0       0       0
       0       0       0       0       0       0       0       0       0       0
       0       0       0       0       0       0       0       0       0       0
       0       0       0       0       0       0       0       0       0       0
       0       0       0       0       0       0       0       0       0       0
       0       0       0       0       0       0       0       0       0       0
       0       0       0       0       0       0       0       0       0       0
       0       0       0       0       0       0       0       0       0       0
       0       0       0       0       0       0       0       0       0       0
       0       0       0       0       0       0       0       0       0       0
       0       0       0       0       0       0       0       0       0       0
       0       0       0       0       0       0       0       0       0       0
       0       0       0       0       0       0       0       0       0       0
       0       0       0       0       0       0       0       0       0       0
       0       0       0       0       0       0       0       0       0       0
       0       0       0       0       0       0       0       0       0       0
       0       0       0       0       0       0       0       0       0       0
       0       0       0       0       0       0       0       0       0       0
       0       0       0       0       0       0       0       0       0       0
       0       0       0       0       0       0       0       0       0       0
       0       0       0       0       0       0       0       0       0       0
       0       0       0       0       0       0       0       0       0       0
       0       0       0       0       0       0       0       0       0       0
       0       0       0       0       0       0       0       0       0       0
       0       0       0       0       0       0       0       0       0       0
       0       0       0       0       0       0       0       0       0       0
       0       0       0       0       0       0       0       0       0       0
       0       0       0       0       0       0       0       0       0       0
       0       0       0       0       0       0       0       0       0       0
       0       0       0       0       0       0       0       0       0       0
       0       0       0       0       0       0       0       0       0       0
       0       0       0       0       0       0       0       0       0       0
       0       0       0       0       0       0       0       0       0       0
       0       0       0       0       0       0       0       0       0       0
       0       0       0       0       0       0       0       0       0       0
       0       0       0       0       0       0       0       0       0       0
       0       0       0       0       0       0       0       0       0       0
       0       0       0       0       0       0       0       0       0       0
       0       0       0       0       0       0       0       0       0       0
       0       0       0       0       0       0       0       0       0       0
       0       0       0       0       0       0       0       0       0       0
       0       0       0       0       0       0       0       0       0       0
       0       0       0       0       0       0       0       0       0       0
       0       0       0       0       0       0       0       0       0       0
       0       0       0       0       0       0       0       0       0       0
       0       0       0       0       0       0       0       0       0       0
       0       0       0       0       0       0       0       0       0       0
       0       0       0       0       0       0       0       0       0       0
       0       0       0       0       0       0       0       0       0       0
       0       0       0       0       0       0       0       0       0       0
       0       0       0       0       0       0       0       0       0       0
       0       0       0       0       0       0       0       0       0       0
       0       0       0       0       0       0       0       0       0       0
       0       0       0       0       0       0       0       0       0       0
       0       0       0       0       0       0       0       0       0       0
       0       0       0       0       0       0       0       0       0       0
       0       0       0       0       0       0       0       0       0       0
       0       0       0       0       0       0       0       0       0       0
       0       0       0       0       0       0       0       0       0       0
       0       0       0       0       0       0       0       0       0       0
       0       0       0       0       0       0       0       0       0       0
       0       0       0       0       0       0       0       0       0       0
       0       0       0       0       0       0       0       0       0       0
       0       0       0       0       0       0       0       0       0       0
       0       0       0       0       0       0       0       0       0       0
       0       0       0       0       0       0       0       0       0       0
       0       0       0       0       0       0       0       0       0       0
       0       0       0       0       0       0       0       0       0       0
       0       0       0       0       0       0       0       0       0       0
       0       0       0       0       0       0       0       0       0       0
       0       0       0       0       0       0       0       0       0       0
       0       0       0       0       0       0       0       0       0       0
       0       0       0       0       0       0       0       0       0       0
       0       0       0       0       0       0       0       0       0       0
       0       0       0       0       0       0       0       0       0       0
       0       0       0       0       0       0       0       0       0       0
       0       0       0       0       0       0       0       0       0       0
       0       0       0       0       0       0       0       0       0       0
       0       0       0       0       0       0       0       0       0       0
       0       0       0       0       0       0       0       0       0       0
       0       0       0       0       0       0       0       0       0       0
       0       0       0       0       0       0       0       0       0       0
       0       0       0       0       0       0       0       0       0       0
       0       0       0       0       0       0       0       0       0       0
       0       0       0       0       0       0       0       0       0       0
       0       0       0       0       0       0       0       0       0       0
       0       0       0       0       0       0       0       0       0       0
       0       0       0       0       0       0       0       0       0       0
       0       0       0       0       0       0       0       0       0       0
       0       0       0       0       0       0       0       0       0       0
       0       0       0       0       0       0       0       0       0       0
       0       0       0       0       0       0       0       0       0       0
       0       0       0       0       0       0       0       0       0       0
       0       0       0       0       0       0       0       0       0       0
       0       0       0       0       0       0       0       0       0       0
       0       0       0       0       0       0       0       0       0       0
       0       0       0       0       0       0       0       0       0       0
       0       0       0       0       0       0       0       0       0       0
       0       0       0       0       0       0       0       0       0       0
       0       0       0       0       0       0       0       0       0       0
       0       0       0       0       0       0       0       0       0       0
       0       0       0       0       0       0       0       0       0       0
       0       0       0       0       0       0       0       0       0       0
       0       0       0       0       0       0       0       0       0       0
       0       0       0       0       0       0       0       0       0       0
       0       0       0       0       0       0       0       0       0       0
       0       0       0       0       0       0       0       0       0       0
       0       0       0       0       0       0       0       0       0       0
       0       0       0       0       0       0       0       0       0       0
       0       0       0       0       0       0       0       0       0       0
       0       0       0       0       0       0       0       0       0       0
       0       0       0       0       0       0       0       0       0       0
       0       0       0       0       0       0       0       0       0       0
       0       0       0       0       0       0       0       0       0       0
       0       0       0       0       0       0       0       0       0       0
       0       0       0       0       0       0       0       0       0       0
       0       0       0       0       0       0       0       0       0       0
       0       0       0       0       0       0       0       0       0       0
       0       0       0       0       0       0       0       0       0       0
       0       0       0       0       0       0       0       0       0       0
       0       0       0       0       0       0       0       0       0       0
       0       0       0       0       0       0       0       0       0       0
       0       0       0       0       0       0       0       0       0       0
       0       0       0       0       0       0       0       0       0       0
       0       0       0       0       0       0       0       0       0       0
       0       0       0       0       0       0       0       0       0       0
       0       0       0       0       0       0       0       0       0       0
       0       0       0       0       0       0       0       0       0       0
       0       0       0       0       0       0       0       0       0       0
       0       0       0       0       0       0       0       0       0       0
       0       0       0       0       0       0       0       0       0       0
       0       0       0       0       0       0       0       0       0       0
       0       0       0       0       0       0       0       0       0       0
       0       0       0       0       0       0       0       0       0       0
       0       0       0       0       0       0       0       0       0       0
       0       0       0       0       0       0       0       0       0       0
       0       0       0       0       0       0       0       0       0       0
       0       0       0       0       0       0       0       0       0       0
       0       0       0       0       0       0       0       0       0       0
       0       0       0       0       0       0       0       0       0       0
       0       0       0       0       0       0       0       0       0       0
       0       0       0       0       0       0       0       0       0       0
       0       0       0       0       0       0       0       0       0       0
       0       0       0       0       0       0       0       0       0       0
       0       0       0       0       0       0       0       0       0       0
       0       0       0       0       0       0       0       0       0       0
       0       0       0       0       0       0       0       0       0       0
       0       0       0       0       0       0       0       0       0       0
       0       0       0       0       0       0       0       0       0       0
       0       0       0       0       0       0       0       0       0       0
       0       0       0       0       0       0       0       0       0       0
       0       0       0       0       0       0       0       0       0       0
       0       0       0       0       0       0       0       0       0       0
       0       0       0       0       0       0       0       0       0       0
       0       0       0       0       0       0       0       0       0       0
       0       0       0       0       0       0       0       0       0       0
       0       0       0       0       0       0       0       0       0       0
       0       0       0       0       0       0       0       0       0       0
       0       0       0       0       0       0       0       0       0       0
       0       0       0       0       0       0       0       0       0       0
       0       0       0       0       0       0       0       0       0       0
       0       0       0       0       0       0       0       0       0       0
       0       0       0       0       0       0       0       0       0       0
       0       0       0       0       0       0       0       0       0       0
       0       0       0       0       0       0       0       0       0       0
       0       0       0       0       0       0       0       0       0       0
       0       0       0       0       0       0       0       0       0       0
       0       0       0       0       0       0       0       0       0       0
       0       0       0       0       0       0       0       0       0       0
       0       0       0       0       0       0       0       0       0       0
       0       0       0       0       0       0       0       0       0       0
       0       0       0       0       0       0       0       0       0       0
       0       0       0       0       0       0       0       0       0       0
       0       0       0       0       0       0       0       0       0       0
       0       0       0       0       0       0       0       0       0       0
       0       0       0       0       0       0       0       0       0       0
       0       0       0       0       0       0       0       0       0       0
       0       0       0       0       0       0       0       0       0       0
       0       0       0       0       0       0       0       0       0       0
       0       0       0       0       0       0       0       0       0       0
       0       0       0       0       0       0       0       0       0       0
       0       0       0       0       0       0       0       0       0       0
       0       0       0       0       0       0       0       0       0       0
       0       0       0       0       0       0       0       0       0       0
       0       0       0       0       0       0       0       0       0       0
       0       0       0       0       0       0       0       0       0       0
       0       0       0       0       0       0       0       0       0       0
       0       0       0       0       0       0       0       0       0       0
       0       0       0       0       0       0       0       0       0       0
       0       0       0       0       0       0       0       0       0       0
       0       0       0       0       0       0       0       0       0       0
       0       0       0       0       0       0       0       0       0       0
       0       0       0       0       0       0       0       0       0       0
       0       0       0       0       0       0       0       0       0       0
       0       0       0       0       0       0       0       0       0       0
       0       0       0       0       0       0       0       0       0       0
       0       0       0       0       0       0       0       0       0       0
       0       0       0       0       0       0       0       0       0       0
       0       0       0       0       0       0       0       0       0       0
       0       0       0       0       0       0       0       0       0       0
       0       0       0       0       0       0       0       0       0       0
       0       0       0       0       0       0       0       0       0       0
       0       0       0       0       0       0       0       0       0       0
       0       0       0       0       0       0       0       0       0       0
       0       0       0       0       0       0       0       0       0       0
       0       0       0       0       0       0       0       0       0       0
       0       0       0       0       0       0       0       0       0       0
       0       0       0       0       0       0       0       0       0       0
       0       0       0       0       0       0       0       0       0       0
       0       0       0       0       0       0       0       0       0       0
       0       0       0       0       0       0       0       0       0       0
       0       0       0       0       0       0       0       0       0       0
       0       0       0       0       0       0       0       0       0       0
       0       0       0       0       0       0       0       0       0       0
       0       0       0       0       0       0       0       0       0       0
       0       0       0       0       0       0       0       0       0       0
       0       0       0       0       0       0       0       0       0       0
       0       0       0       0       0       0       0       0       0       0
       0       0       0       0       0       0       0       0       0       0
       0       0       0       0       0       0       0       0       0       0
       0       0       0       0       0       0       0       0       0       0
       0       0       0       0       0       0       0       0       0       0
       0       0       0       0       0       0       0       0       0       0
       0       0       0       0       0       0       0       0       0       0
       0       0       0       0       0       0       0       0       0       0
       0       0       0       0       0       0       0       0       0       0
       0       0       0       0       0       0       0       0       0       0
       0       0       0       0       0       0       0       0       0       0
       0       0       0       0       0       0       0       0       0       0
       0       0       0       0       0       0       0       0       0       0
       0       0       0       0       0       0       0       0       0       0
       0       0       0       0       0       0       0       0       0       0
       0       0       0       0       0       0       0       0       0       0
       0       0       0       0       0       0       0       0       0       0
       0       0       0       0       0       0       0       0       0       0
       0       0       0       0       0       0       0       0       0       0
       0       0       0       0       0       0       0       0       0       0
       0       0       0       0       0       0       0       0       0       0
       0       0       0       0       0       0       0       0       0       0
       0       0       0       0       0       0       0       0       0       0
       0       0       0       0       0       0       0       0       0       0
       0       0       0       0       0       0       0       0       0       0
       0       0       0       0       0       0       0       0       0       0
       0       0       0       0       0       0       0       0       0       0
       0       0       0       0       0       0       0       0       0       0
       0       0       0       0       0       0       0       0       0       0
       0       0       0       0       0       0       0       0       0       0
       0       0       0       0       0       0       0       0       0       0
       0       0       0       0       0       0       0       0       0       0
       0       0       0       0       0       0       0       0       0       0
       0       0       0       0       0       0       0       0       0       0
       0       0       0       0       0       0       0       0       0       0
       0       0       0       0       0       0       0       0       0       0
       0       0       0       0       0       0       0       0       0       0
       0       0       0       0       0       0       0       0       0       0
       0       0       0       0       0       0       0       0       0       0
       0       0       0       0       0       0       0       0       0       0
       0       0       0       0       0       0       0       0       0       0
       0       0       0       0       0       0       0       0       0       0
       0       0       0       0       0       0       0       0       0       0
       0       0       0       0       0       0       0       0       0       0
       0       0       0       0       0       0       0       0       0       0
       0       0       0       0       0       0       0       0       0       0
       0       0       0       0       0       0       0       0       0       0
       0       0       0       0       0       0       0       0       0       0
       0       0       0       0       0       0       0       0       0       0
       0       0       0       0       0       0       0       0       0       0
       0       0       0       0       0       0       0       0       0       0
       0       0       0       0       0       0       0       0       0       0
       0       0       0       0       0       0       0       0       0       0
       0       0       0       0       0       0       0       0       0       0
       0       0       0       0       0       0       0       0       0       0
       0       0       0       0       0       0       0       0       0       0
       0       0       0       0       0       0       0       0       0       0
       0       0       0       0       0       0       0       0       0       0
       0       0       0       0       0       0       0       0       0       0
       0       0       0       0       0       0       0       0       0       0
       0       0       0       0       0       0       0       0       0       0
       0       0       0       0       0       0       0       0       0       0
       0       0       0       0       0       0       0       0       0       0
       0       0       0       0       0       0       0       0       0       0
       0       0       0       0       0       0       0       0       0       0
       0       0       0       0       0       0       0       0       0       0
       0       0       0       0       0       0       0       0       0       0
       0       0       0       0       0       0       0       0       0       0
       0       0       0       0       0       0       0       0       0       0
       0       0       0       0       0       0       0       0       0       0
       0       0       0       0       0       0       0       0       0       0
       0       0       0       0       0       0       0       0       0       0
       0       0       0       0       0       0       0       0       0       0
       0       0       0       0       0       0       0       0       0       0
       0       0       0       0       0       0       0       0       0       0
       0       0       0       0       0       0       0       0       0       0
       0       0       0       0       0       0       0       0       0       0
       0       0       0       0       0       0       0       0       0       0
       0       0       0       0       0       0       0       0       0       0
       0       0       0       0       0       0       0       0       0       0
       0       0       0       0       0       0       0       0       0       0
       0       0       0       0       0       0       0       0       0       0
       0       0       0       0       0       0       0       0       0       0
       0       0       0       0       0       0       0       0       0       0
       0       0       0       0       0       0       0       0       0       0
       0       0       0       0       0       0       0       0       0       0
       0       0       0       0       0       0       0       0       0       0
       0       0       0       0       0       0       0       0       0       0
       0       0       0       0       0       0       0       0       0       0
       0       0       0       0       0       0       0       0       0       0
       0       0       0       0       0       0       0       0       0       0
       0       0       0       0       0       0       0       0       0       0
       0       0       0       0       0       0       0       0       0       0
       0       0       0       0       0       0       0       0       0       0
       0       0       0       0       0       0       0       0       0       0
       0       0       0       0       0       0       0       0       0       0
       0       0       0       0       0       0       0       0       0       0
       0       0       0       0       0       0       0       0       0       0
       0       0       0       0       0       0       0       0       0       0
       0       0       0       0       0       0       0       0       0       0
       0       0       0       0       0       0       0       0       0       0
       0       0       0       0       0       0       0       0       0       0
       0       0       0       0       0       0       0       0       0       0
       0       0       0       0       0       0       0       0       0       0
       0       0       0       0       0       0       0       0       0       0
       0       0       0       0       0       0       0       0       0       0
       0       0       0       0       0       0       0       0       0       0
       0       0       0       0       0       0       0       0       0       0
       0       0       0       0       0       0       0       0       0       0
       0       0       0       0       0       0       0       0       0       0
       0       0       0       0       0       0       0       0       0       0
       0       0       0       0       0       0       0       0       0       0
       0       0       0       0       0       0       0       0       0       0
       0       0       0       0       0       0       0       0       0       0
       0       0       0       0       0       0       0       0       0       0
       0       0       0       0       0       0       0       0       0       0
       0       0       0       0       0       0       0       0       0       0
       0       0       0       0       0       0       0       0       0       0
       0       0       0       0       0       0       0       0       0       0
       0       0       0       0       0       0       0       0       0       0
       0       0       0       0       0       0       0       0       0       0
       0       0       0       0       0       0       0       0       0       0
       0       0       0       0       0       0       0       0       0       0
       0       0       0       0       0       0       0       0       0       0
       0       0       0       0       0       0       0       0       0       0
       0       0       0       0       0       0       0       0       0       0
       0       0       0       0       0       0       0       0       0       0
       0       0       0       0       0       0       0       0       0       0
       0       0       0       0       0       0       0       0       0       0
       0       0       0       0       0       0       0       0       0       0
       0       0       0       0       0       0       0       0       0       0
       0       0       0       0       0       0       0       0       0       0
       0       0       0       0       0       0       0       0       0       0
       0       0       0       0       0       0       0       0       0       0
       0       0       0       0       0       0       0       0       0       0
       0       0       0       0       0       0       0       0       0       0
       0       0       0       0       0       0       0       0       0       0
       0       0       0       0       0       0       0       0       0       0
       0       0       0       0       0       0       0       0       0       0
       0       0       0       0       0       0       0       0       0       0
       0       0       0       0       0       0       0       0       0       0
       0       0       0       0       0       0       0       0       0       0
       0       0       0       0       0       0       0       0       0       0
       0       0       0       0       0       0       0       0       0       0
       0       0       0       0       0       0       0       0       0       0
       0       0       0       0       0       0       0       0       0       0
       0       0       0       0       0       0       0       0       0       0
       0       0       0       0       0       0       0       0       0       0
       0       0       0       0       0       0       0       0       0       0
       0       0       0       0       0       0       0       0       0       0
       0       0       0       0       0       0       0       0       0       0
       0       0       0       0       0       0       0       0       0       0
       0       0       0       0       0       0       0       0       0       0
       0       0       0       0       0       0       0       0       0       0
       0       0       0       0       0       0       0       0       0       0
       0       0       0       0       0       0       0       0       0       0
       0       0       0       0       0       0       0       0       0       0
       0       0       0       0       0       0       0       0       0       0
       0       0       0       0       0       0       0       0       0       0
       0       0       0       0       0       0       0       0       0       0
       0       0       0       0       0       0       0       0       0       0
       0       0       0       0       0       0       0       0       0       0
       0       0       0       0       0       0       0       0       0       0
       0       0       0       0       0       0       0       0       0       0
       0       0       0       0       0       0       0       0       0       0
       0       0       0       0       0       0       0       0       0       0
       0       0       0       0       0       0       0       0       0       0
       0       0       0       0       0       0       0       0       0       0
       0       0       0       0       0       0       0       0       0       0
       0       0       0       0       0       0       0       0       0       0
       0       0       0       0       0       0       0       0       0       0
       0       0       0       0       0       0       0       0       0       0
       0       0       0       0       0       0       0       0       0       0
       0       0       0       0       0       0       0       0       0       0
       0       0       0       0       0       0       0       0       0       0
       0       0       0       0       0       0       0       0       0       0
       0       0       0       0       0       0       0       0       0       0
       0       0       0       0       0       0       0       0       0       0
       0       0       0       0       0       0       0       0       0       0
       0       0       0       0       0       0       0       0       0       0
       0       0       0       0       0       0       0       0       0       0
       0       0       0       0       0       0       0       0       0       0
       0       0       0       0       0       0       0       0       0       0
       0       0       0       0       0       0       0       0       0       0
       0       0       0       0       0       0       0       0       0       0
       0       0       0       0       0       0       0       0       0       0
       0       0       0       0       0       0       0       0       0       0
       0       0       0       0       0       0       0       0       0       0
       0       0       0       0       0       0       0       0       0       0
       0       0       0       0       0       0       0       0       0       0
       0       0       0       0       0       0       0       0       0       0
       0       0       0       0       0       0       0       0       0       0
       0       0       0       0       0       0       0       0       0       0
       0       0       0       0       0       0       0       0       0       0
       0       0       0       0       0       0       0       0       0       0
       0       0       0       0       0       0       0       0       0       0
       0       0       0       0       0       0       0       0       0       0
       0       0       0       0       0       0       0       0       0       0
       0       0       0       0       0       0       0       0       0       0
       0       0       0       0       0       0       0       0       0       0
       0       0       0       0       0       0       0       0       0       0
       0       0       0       0       0       0       0       0       0       0
       0       0       0       0       0       0       0       0       0       0
       0       0       0       0       0       0       0       0       0       0
       0       0       0       0       0       0       0       0       0       0
       0       0       0       0       0       0       0       0       0       0
       0       0       0       0       0       0       0       0       0       0
       0       0       0       0       0       0       0       0       0       0
       0       0       0       0       0       0       0       0       0       0
       0       0       0       0       0       0       0       0       0       0
       0       0       0       0       0       0       0       0       0       0
       0       0       0       0       0       0       0       0       0       0
       0       0       0       0       0       0       0       0       0       0
       0       0       0       0       0       0       0       0       0       0
       0       0       0       0       0       0       0       0       0       0
       0       0       0       0       0       0       0       0       0       0
       0       0       0       0       0       0       0       0       0       0
       0       0       0       0       0       0       0       0       0       0
       0       0       0       0       0       0       0       0       0       0
       0       0       0       0       0       0       0       0       0       0
       0       0       0       0       0       0       0       0       0       0
       0       0       0       0       0       0       0       0       0       0
       0       0       0       0       0       0       0       0       0       0
       0       0       0       0       0       0       0       0       0       0
       0       0       0       0       0       0       0       0       0       0
       0       0       0       0       0       0       0       0       0       0
       0       0       0       0       0       0       0       0       0       0
       0       0       0       0       0       0       0       0       0       0
       0       0       0       0       0       0       0       0       0       0
       0       0       0       0       0       0       0       0       0       0
       0       0       0       0       0       0       0       0       0       0
       0       0       0       0       0       0       0       0       0       0
       0       0       0       0       0       0       0       0       0       0
       0       0       0       0       0       0       0       0       0       0
       0       0       0       0       0       0       0       0       0       0
       0       0       0       0       0       0       0       0       0       0
       0       0       0       0       0       0       0       0       0       0
       0       0       0       0       0       0       0       0       0       0
       0       0       0       0       0       0       0       0       0       0
       0       0       0       0       0       0       0       0       0       0
       0       0       0       0       0       0       0       0       0       0
       0       0       0       0       0       0       0       0       0       0
       0       0       0       0       0       0       0       0       0       0
       0       0       0       0       0       0       0       0       0       0
       0       0       0       0       0       0       0       0       0       0
       0       0       0       0       0       0       0       0       0       0
       0       0       0       0       0       0       0       0       0       0
       0       0       0       0       0       0       0       0       0       0
       0       0       0       0       0       0       0       0       0       0
       0       0       0       0       0       0       0       0       0       0
       0       0       0       0       0       0       0       0       0       0
       0       0       0       0       0       0       0       0       0       0
       0       0       0       0       0       0       0       0       0       0
       0       0       0       0       0       0       0       0       0       0
       0       0       0       0       0       0       0       0       0       0
       0       0       0       0       0       0       0       0       0       0
       0       0       0       0       0       0       0       0       0       0
       0       0       0       0       0       0       0       0       0       0
       0       0       0       0       0       0       0       0       0       0
       0       0       0       0       0       0       0       0       0       0
       0       0       0       0       0       0       0       0       0       0
       0       0       0       0       0       0       0       0       0       0
       0       0       0       0       0       0       0       0       0       0
       0       0       0       0       0       0       0       0       0       0
       0       0       0       0       0       0       0       0       0       0
       0       0       0       0       0       0       0       0       0       0
       0       0       0       0       0       0       0       0       0       0
       0       0       0       0       0       0       0       0       0       0
       0       0       0       0       0       0       0       0       0       0
       0       0       0       0       0       0       0       0       0       0
       0       0       0       0       0       0       0       0       0       0
       0       0       0       0       0       0       0       0       0       0
       0       0       0       0       0       0       0       0       0       0
       0       0       0       0       0       0       0       0       0       0
       0       0       0       0       0       0       0       0       0       0
       0       0       0       0       0       0       0       0       0       0
       0       0       0       0       0       0       0       0       0       0
       0       0       0       0       0       0       0       0       0       0
       0       0       0       0       0       0       0       0       0       0
       0       0       0       0       0       0       0       0       0       0
       0       0       0       0       0       0       0       0       0       0
       0       0       0       0       0       0       0       0       0       0
       0       0       0       0       0       0       0       0       0       0
       0       0       0       0       0       0       0       0       0       0
       0       0       0       0       0       0       0       0       0       0
       0       0       0       0       0       0       0       0       0       0
       0       0       0       0       0       0       0       0       0       0
       0       0       0       0       0       0       0       0       0       0
       0       0       0       0       0       0       0       0       0       0
       0       0       0       0       0       0       0       0       0       0
       0       0       0       0       0       0       0       0       0       0
       0       0       0       0       0       0       0       0       0       0
       0       0       0       0       0       0       0       0       0       0
       0       0       0       0       0       0       0       0       0       0
       0       0       0       0       0       0       0       0       0       0
       0       0       0       0       0       0       0       0       0       0
       0       0       0       0       0       0       0       0       0       0
       0       0       0       0       0       0       0       0       0       0
       0       0       0       0       0       0       0       0       0       0
       0       0       0       0       0       0       0       0       0       0
       0       0       0       0       0       0       0       0       0       0
       0       0       0       0       0       0       0       0       0       0
       0       0       0       0       0       0       0       0       0       0
       0       0       0       0       0       0       0       0       0       0
       0       0       0       0       0       0       0       0       0       0
       0       0       0       0       0       0       0       0       0       0
       0       0       0       0       0       0       0       0       0       0
       0       0       0       0       0       0       0       0       0       0
       0       0       0       0       0       0       0       0       0       0
       0       0       0       0       0       0       0       0       0       0
       0       0       0       0       0       0       0       0       0       0
       0       0       0       0       0       0       0       0       0       0
       0       0       0       0       0       0       0       0       0       0
       0       0       0       0       0       0       0       0       0       0
       0       0       0       0       0       0       0       0       0       0
       0       0       0       0       0       0       0       0       0       0
       0       0       0       0       0       0       0       0       0       0
       0       0       0       0       0       0       0       0       0       0
       0       0       0       0       0       0       0       0       0       0
       0       0       0       0       0       0       0       0       0       0
       0       0       0       0       0       0       0       0       0       0
       0       0       0       0       0       0       0       0       0       0
       0       0       0       0       0       0       0       0       0       0
       0       0       0       0       0       0       0       0       0       0
       0       0       0       0       0       0       0       0       0       0
       0       0       0       0       0       0       0       0       0       0
       0       0       0       0       0       0       0       0       0       0
       0       0       0       0       0       0       0       0       0       0
       0       0       0       0       0       0       0       0       0       0
       0       0       0       0       0       0       0       0       0       0
       0       0       0       0       0       0       0       0       0       0
       0       0       0       0       0       0       0       0       0       0
       0       0       0       0       0       0       0       0       0       0
       0       0       0       0       0       0       0       0       0       0
       0       0       0       0       0       0       0       0       0       0
       0       0       0       0       0       0       0       0       0       0
       0       0       0       0       0       0       0       0       0       0
       0       0       0       0       0       0       0       0       0       0
       0       0       0       0       0       0       0       0       0       0
       0       0       0       0       0       0       0       0       0       0
       0       0       0       0       0       0       0       0       0       0
       0       0       0       0       0       0       0       0       0       0
       0       0       0       0       0       0       0       0       0       0
       0       0       0       0       0       0       0       0       0       0
       0       0       0       0       0       0       0       0       0       0
       0       0       0       0       0       0       0       0       0       0
       0       0       0       0       0       0       0       0       0       0
       0       0       0       0       0       0       0       0       0       0
       0       0       0       0       0       0       0       0       0       0
       0       0       0       0       0       0       0       0       0       0
       0       0       0       0       0       0       0       0       0       0
       0       0       0       0       0       0       0       0       0       0
       0       0       0       0       0       0       0       0       0       0
       0       0       0       0       0       0       0       0       0       0
       0       0       0       0       0       0       0       0       0       0
       0       0       0       0       0       0       0       0       0       0
       0       0       0       0       0       0       0       0       0       0
       0       0       0       0       0       0       0       0       0       0
       0       0       0       0       0       0       0       0       0       0
       0       0       0       0       0       0       0       0       0       0
       0       0       0       0       0       0       0       0       0       0
       0       0       0       0       0       0       0       0       0       0
       0       0       0       0       0       0       0       0       0       0
       0       0       0       0       0       0       0       0       0       0
       0       0       0       0       0       0       0       0       0       0
       0       0       0       0       0       0       0       0       0       0
       0       0       0       0       0       0       0       0       0       0
       0       0       0       0       0       0       0       0       0       0
       0       0       0       0       0       0       0       0       0       0
       0       0       0       0       0       0       0       0       0       0
       0       0       0       0       0       0       0       0       0       0
       0       0       0       0       0       0       0       0       0       0
       0       0       0       0       0       0       0       0       0       0
       0       0       0       0       0       0       0       0       0       0
       0       0       0       0       0       0       0       0       0       0
       0       0       0       0       0       0       0       0       0       0
       0       0       0       0       0       0       0       0       0       0
       0       0       0       0       0       0       0       0       0       0
       0       0       0       0       0       0       0       0       0       0
       0       0       0       0       0       0       0       0       0       0
       0       0       0       0       0       0       0       0       0       0
       0       0       0       0       0       0       0       0       0       0
       0       0       0       0       0       0       0       0       0       0
       0       0       0       0       0       0       0       0       0       0
       0       0       0       0       0       0       0       0       0       0
       0       0       0       0       0       0       0       0       0       0
       0       0       0       0       0       0       0       0       0       0
       0       0       0       0       0       0       0       0       0       0
       0       0       0       0       0       0       0       0       0       0
       0       0       0       0       0       0       0       0       0       0
       0       0       0       0       0       0       0       0       0       0
       0       0       0       0       0       0       0       0       0       0
       0       0       0       0       0       0       0       0       0       0
       0       0       0       0       0       0       0       0       0       0
       0       0       0       0       0       0       0       0       0       0
       0       0       0       0       0       0       0       0       0       0
       0       0       0       0       0       0       0       0       0       0
       0       0       0       0       0       0       0       0       0       0
       0       0       0       0       0       0       0       0       0       0
       0       0       0       0       0       0       0       0       0       0
       0       0       0       0       0       0       0       0       0       0
       0       0       0       0       0       0       0       0       0       0
       0       0       0       0       0       0       0       0       0       0
       0       0       0       0       0       0       0       0       0       0
       0       0       0       0       0       0       0       0       0       0
       0       0       0       0       0       0       0       0       0       0
       0       0       0       0       0       0       0       0       0       0
       0       0       0       0       0       0       0       0       0       0
       0       0       0       0       0       0       0       0       0       0
       0       0       0       0       0       0       0       0       0       0
       0       0       0       0       0       0       0       0       0       0
       0       0       0       0       0       0       0       0       0       0
       0       0       0       0       0       0       0       0       0       0
       0       0       0       0       0       0       0       0       0       0
       0       0       0       0       0       0       0       0       0       0
       0       0       0       0       0       0       0       0       0       0
       0       0       0       0       0       0       0       0       0       0
       0       0       0       0       0       0       0       0       0       0
       0       0       0       0       0       0       0       0       0       0
       0       0       0       0       0       0       0       0       0       0
       0       0       0       0       0       0       0       0       0       0
       0       0       0       0       0       0       0       0       0       0
       0       0       0       0       0       0       0       0       0       0
       0       0       0       0       0       0       0       0       0       0
       0       0       0       0       0       0       0       0       0       0
       0       0       0       0       0       0       0       0       0       0
       0       0       0       0       0       0       0       0       0       0
       0       0       0       0       0       0       0       0       0       0
       0       0       0       0       0       0       0       0       0       0
       0       0       0       0       0       0       0       0       0       0
       0       0       0       0       0       0       0       0       0       0
       0       0       0       0       0       0       0       0       0       0
       0       0       0       0       0       0       0       0       0       0
       0       0       0       0       0       0       0       0       0       0
       0       0       0       0       0       0       0       0       0       0
       0       0       0       0       0       0       0       0       0       0
       0       0       0       0       0       0       0       0       0       0
       0       0       0       0       0       0       0       0       0       0
       0       0       0       0       0       0       0       0       0       0
       0       0       0       0       0       0       0       0       0       0
       0       0       0       0       0       0       0       0       0       0
       0       0       0       0       0       0       0       0       0       0
       0       0       0       0       0       0       0       0       0       0
       0       0       0       0       0       0       0       0       0       0
       0       0       0       0       0       0       0       0       0       0
       0       0       0       0       0       0       0       0       0       0
       0       0       0       0       0       0       0       0       0       0
       0       0       0       0       0       0       0       0       0       0
       0       0       0       0       0       0       0       0       0       0
       0       0       0       0       0       0       0       0       0       0
       0       0       0       0       0       0       0       0       0       0
       0       0       0       0       0       0       0       0       0       0
       0       0       0       0       0       0       0       0       0       0
       0       0       0       0       0       0       0       0       0       0
       0       0       0       0       0       0       0       0       0       0
       0       0       0       0       0       0       0       0       0       0
       0       0       0       0       0       0       0       0       0       0
       0       0       0       0       0       0       0       0       0       0
       0       0       0       0       0       0       0       0       0       0
       0       0       0       0       0       0       0       0       0       0
       0       0       0       0       0       0       0       0       0       0
       0       0       0       0       0       0       0       0       0       0
       0       0       0       0       0       0       0       0       0       0
       0       0       0       0       0       0       0       0       0       0
       0       0       0       0       0       0       0       0       0       0
       0       0       0       0       0       0       0       0       0       0
       0       0       0       0       0       0       0       0       0       0
       0       0       0       0       0       0       0       0       0       0
       0       0       0       0       0       0       0       0       0       0
       0       0       0       0       0       0       0       0       0       0
       0       0       0       0       0       0       0       0       0       0
       0       0       0       0       0       0       0       0       0       0
       0       0       0       0       0       0       0       0       0       0
       0       0       0       0       0       0       0       0       0       0
       0       0       0       0       0       0       0       0       0       0
       0       0       0       0       0       0       0       0       0       0
       0       0       0       0       0       0       0       0       0       0
       0       0       0       0       0       0       0       0       0       0
       0       0       0       0       0       0       0       0       0       0
       0       0       0       0       0       0       0       0       0       0
       0       0       0       0       0       0       0       0       0       0
       0       0       0       0       0       0       0       0       0       0
       0       0       0       0       0       0       0       0       0       0
       0       0       0       0       0       0       0       0       0       0
       0       0       0       0       0       0       0       0       0       0
       0       0       0       0       0       0       0       0       0       0
       0       0       0       0       0       0       0       0       0       0
       0       0       0       0       0       0       0       0       0       0
       0       0       0       0       0       0       0       0       0       0
       0       0       0       0       0       0       0       0       0       0
       0       0       0       0       0       0       0       0       0       0
       0       0       0       0       0       0       0       0       0       0
       0       0       0       0       0       0       0       0       0       0
       0       0       0       0       0       0       0       0       0       0
       0       0       0       0       0       0       0       0       0       0
       0       0       0       0       0       0       0       0       0       0
       0       0       0       0       0       0       0       0       0       0
       0       0       0       0       0       0       0       0       0       0
       0       0       0       0       0       0       0       0       0       0
       0       0       0       0       0       0       0       0       0       0
       0       0       0       0       0       0       0       0       0       0
       0       0       0       0       0       0       0       0       0       0
       0       0       0       0       0       0       0       0       0       0
       0       0       0       0       0       0       0       0       0       0
       0       0       0       0       0       0       0       0       0       0
       0       0       0       0       0       0       0       0       0       0
       0       0       0       0       0       0       0       0       0       0
       0       0       0       0       0       0       0       0       0       0
       0       0       0       0       0       0       0       0       0       0
       0       0       0       0       0       0       0       0       0       0
       0       0       0       0       0       0       0       0       0       0
       0       0       0       0       0       0       0       0       0       0
       0       0       0       0       0       0       0       0       0       0
       0       0       0       0       0       0       0       0       0       0
       0       0       0       0       0       0       0       0       0       0
       0       0       0       0       0       0       0       0       0       0
       0       0       0       0       0       0       0       0       0       0
       0       0       0       0       0       0       0       0       0       0
       0       0       0       0       0       0       0       0       0       0
       0       0       0       0       0       0       0       0       0       0
       0       0       0       0       0       0       0       0       0       0
       0       0       0       0       0       0       0       0       0       0
       0       0       0       0       0       0       0       0       0       0
       0       0       0       0       0       0       0       0       0       0
       0       0       0       0       0       0       0       0       0       0
       0       0       0       0       0       0       0       0       0       0
       0       0       0       0       0       0       0       0       0       0
       0       0       0       0       0       0       0       0       0       0
       0       0       0       0       0       0       0       0       0       0
       0       0       0       0       0       0       0       0       0       0
       0       0       0       0       0       0       0       0       0       0
       0       0       0       0       0       0       0       0       0       0
       0       0       0       0       0       0       0       0       0       0
       0       0       0       0       0       0       0       0       0       0
       0       0       0       0       0       0       0       0       0       0
       0       0       0       0       0       0       0       0       0       0
       0       0       0       0       0       0       0       0       0       0
       0       0       0       0       0       0       0       0       0       0
       0       0       0       0       0       0       0       0       0       0
       0       0       0       0       0       0       0       0       0       0
       0       0       0       0       0       0       0       0       0       0
       0       0       0       0       0       0       0       0       0       0
       0       0       0       0       0       0       0       0       0       0
       0       0       0       0       0       0       0       0       0       0
       0       0       0       0       0       0       0       0       0       0
       0       0       0       0       0       0       0       0       0       0
       0       0       0       0       0       0       0       0       0       0
       0       0       0       0       0       0       0       0       0       0
       0       0       0       0       0       0       0       0       0       0
       0       0       0       0       0       0       0       0       0       0
       0       0       0       0       0       0       0       0       0       0
       0       0       0       0       0       0       0       0       0       0
       0       0       0       0       0       0       0       0       0       0
       0       0       0       0       0       0       0       0       0       0
       0       0       0       0       0       0       0       0       0       0
       0       0       0       0       0       0       0       0       0       0
       0       0       0       0       0       0       0       0       0       0
       0       0       0       0       0       0       0       0       0       0
       0       0       0       0       0       0       0       0       0       0
       0       0       0       0       0
%FLAG IROTAT                                                                    
%FORMAT(10I8)                                                                   
       0       0       0       0       0       0       0       0       0       0
       0       0       0       0       0       0       0       0       0       0
       0       0       0       0       0       0       0       0       0       0
       0       0       0       0       0       0       0       0       0       0
       0       0       0       0       0       0       0       0       0       0
       0       0       0       0       0       0       0       0       0       0
       0       0       0       0       0       0       0       0       0       0
       0       0       0       0       0       0       0       0       0       0
       0       0       0       0       0       0       0       0       0       0
       0       0       0       0       0       0       0       0       0       0
       0       0       0       0       0       0       0       0       0       0
       0       0       0       0       0       0       0       0       0       0
       0       0       0       0       0       0       0       0       0       0
       0       0       0       0       0       0       0       0       0       0
       0       0       0       0       0       0       0       0       0       0
       0       0       0       0       0       0       0       0       0       0
       0       0       0       0       0       0       0       0       0       0
       0       0       0       0       0       0       0       0       0       0
       0       0       0       0       0       0       0       0       0       0
       0       0       0       0       0       0       0       0       0       0
       0       0       0       0       0       0       0       0       0       0
       0       0       0       0       0       0       0       0       0       0
       0       0       0       0       0       0       0       0       0       0
       0       0       0       0       0       0       0       0       0       0
       0       0       0       0       0       0       0       0       0       0
       0       0       0       0       0       0       0       0       0       0
       0       0       0       0       0       0       0       0       0       0
       0       0       0       0       0       0       0       0       0       0
       0       0       0       0       0       0       0       0       0       0
       0       0       0       0       0       0       0       0       0       0
       0       0       0       0       0       0       0       0       0       0
       0       0       0       0       0       0       0       0       0       0
       0       0       0       0       0       0       0       0       0       0
       0       0       0       0       0       0       0       0       0       0
       0       0       0       0       0       0       0       0       0       0
       0       0       0       0       0       0       0       0       0       0
       0       0       0       0       0       0       0       0       0       0
       0       0       0       0       0       0       0       0       0       0
       0       0       0       0       0       0       0       0       0       0
       0       0       0       0       0       0       0       0       0       0
       0       0       0       0       0       0       0       0       0       0
       0       0       0       0       0       0       0       0       0       0
       0       0       0       0       0       0       0       0       0       0
       0       0       0       0       0       0       0       0       0       0
       0       0       0       0       0       0       0       0       0       0
       0       0       0       0       0       0       0       0       0       0
       0       0       0       0       0       0       0       0       0       0
       0       0       0       0       0       0       0       0       0       0
       0       0       0       0       0       0       0       0       0       0
       0       0       0       0       0       0       0       0       0       0
       0       0       0       0       0       0       0       0       0       0
       0       0       0       0       0       0       0       0       0       0
       0       0       0       0       0       0       0       0       0       0
       0       0       0       0       0       0       0       0       0       0
       0       0       0       0       0       0       0       0       0       0
       0       0       0       0       0       0       0       0       0       0
       0       0       0       0       0       0       0       0       0       0
       0       0       0       0       0       0       0       0       0       0
       0       0       0       0       0       0       0       0       0       0
       0       0       0       0       0       0       0       0       0       0
       0       0       0       0       0       0       0       0       0       0
       0       0       0       0       0       0       0       0       0       0
       0       0       0       0       0       0       0       0       0       0
       0       0       0       0       0       0       0       0       0       0
       0       0       0       0       0       0       0       0       0       0
       0       0       0       0       0       0       0       0       0       0
       0       0       0       0       0       0       0       0       0       0
       0       0       0       0       0       0       0       0       0       0
       0       0       0       0       0       0       0       0       0       0
       0       0       0       0       0       0       0       0       0       0
       0       0       0       0       0       0       0       0       0       0
       0       0       0       0       0       0       0       0       0       0
       0       0       0       0       0       0       0       0       0       0
       0       0       0       0       0       0       0       0       0       0
       0       0       0       0       0       0       0       0       0       0
       0       0       0       0       0       0       0       0       0       0
       0       0       0       0       0       0       0       0       0       0
       0       0       0       0       0       0       0       0       0       0
       0       0       0       0       0       0       0       0       0       0
       0       0       0       0       0       0       0       0       0       0
       0       0       0       0       0       0       0       0       0       0
       0       0       0       0       0       0       0       0       0       0
       0       0       0       0       0       0       0       0       0       0
       0       0       0       0       0       0       0       0       0       0
       0       0       0       0       0       0       0       0       0       0
       0       0       0       0       0       0       0       0       0       0
       0       0       0       0       0       0       0       0       0       0
       0       0       0       0       0       0       0       0       0       0
       0       0       0       0       0       0       0       0       0       0
       0       0       0       0       0       0       0       0       0       0
       0       0       0       0       0       0       0       0       0       0
       0       0       0       0       0       0       0       0       0       0
       0       0       0       0       0       0       0       0       0       0
       0       0       0       0       0       0       0       0       0       0
       0       0       0       0       0       0       0       0       0       0
       0       0       0       0       0       0       0       0       0       0
       0       0       0       0       0       0       0       0       0       0
       0       0       0       0       0       0       0       0       0       0
       0       0       0       0       0       0       0       0       0       0
       0       0       0       0       0       0       0       0       0       0
       0       0       0       0       0       0       0       0       0       0
       0       0       0       0       0       0       0       0       0       0
       0       0       0       0       0       0       0       0       0       0
       0       0       0       0       0       0       0       0       0       0
       0       0       0       0       0       0       0       0       0       0
       0       0       0       0       0       0       0       0       0       0
       0       0       0       0       0       0       0       0       0       0
       0       0       0       0       0       0       0       0       0       0
       0       0       0       0       0       0       0       0       0       0
       0       0       0       0       0       0       0       0       0       0
       0       0       0       0       0       0       0       0       0       0
       0       0       0       0       0       0       0       0       0       0
       0       0       0       0       0       0       0       0       0       0
       0       0       0       0       0       0       0       0       0       0
       0       0       0       0       0       0       0       0       0       0
       0       0       0       0       0       0       0       0       0       0
       0       0       0       0       0       0       0       0       0       0
       0       0       0       0       0       0       0       0       0       0
       0       0       0       0       0       0       0       0       0       0
       0       0       0       0       0       0       0       0       0       0
       0       0       0       0       0       0       0       0       0       0
       0       0       0       0       0       0       0       0       0       0
       0       0       0       0       0       0       0       0       0       0
       0       0       0       0       0       0       0       0       0       0
       0       0       0       0       0       0       0       0       0       0
       0       0       0       0       0       0       0       0       0       0
       0       0       0       0       0       0       0       0       0       0
       0       0       0       0       0       0       0       0       0       0
       0       0       0       0       0       0       0       0       0       0
       0       0       0       0       0       0       0       0       0       0
       0       0       0       0       0       0       0       0       0       0
       0       0       0       0       0       0       0       0       0       0
       0       0       0       0       0       0       0       0       0       0
       0       0       0       0       0       0       0       0       0       0
       0       0       0       0       0       0       0       0       0       0
       0       0       0       0       0       0       0       0       0       0
       0       0       0       0       0       0       0       0       0       0
       0       0       0       0       0       0       0       0       0       0
       0       0       0       0       0       0       0       0       0       0
       0       0       0       0       0       0       0       0       0       0
       0       0       0       0       0       0       0       0       0       0
       0       0       0       0       0       0       0       0       0       0
       0       0       0       0       0       0       0       0       0       0
       0       0       0       0       0       0       0       0       0       0
       0       0       0       0       0       0       0       0       0       0
       0       0       0       0       0       0       0       0       0       0
       0       0       0       0       0       0       0       0       0       0
       0       0       0       0       0       0       0       0       0       0
       0       0       0       0       0       0       0       0       0       0
       0       0       0       0       0       0       0       0       0       0
       0       0       0       0       0       0       0       0       0       0
       0       0       0       0       0       0       0       0       0       0
       0       0       0       0       0       0       0       0       0       0
       0       0       0       0       0       0       0       0       0       0
       0       0       0       0       0       0       0       0       0       0
       0       0       0       0       0       0       0       0       0       0
       0       0       0       0       0       0       0       0       0       0
       0       0       0       0       0       0       0       0       0       0
       0       0       0       0       0       0       0       0       0       0
       0       0       0       0       0       0       0       0       0       0
       0       0       0       0       0       0       0       0       0       0
       0       0       0       0       0       0       0       0       0       0
       0       0       0       0       0       0       0       0       0       0
       0       0       0       0       0       0       0       0       0       0
       0       0       0       0       0       0       0       0       0       0
       0       0       0       0       0       0       0       0       0       0
       0       0       0       0       0       0       0       0       0       0
       0       0       0       0       0       0       0       0       0       0
       0       0       0       0       0       0       0       0       0       0
       0       0       0       0       0       0       0       0       0       0
       0       0       0       0       0       0       0       0       0       0
       0       0       0       0       0       0       0       0       0       0
       0       0       0       0       0       0       0       0       0       0
       0       0       0       0       0       0       0       0       0       0
       0       0       0       0       0       0       0       0       0       0
       0       0       0       0       0       0       0       0       0       0
       0       0       0       0       0       0       0       0       0       0
       0       0       0       0       0       0       0       0       0       0
       0       0       0       0       0       0       0       0       0       0
       0       0       0       0       0       0       0       0       0       0
       0       0       0       0       0       0       0       0       0       0
       0       0       0       0       0       0       0       0       0       0
       0       0       0       0       0       0       0       0       0       0
       0       0       0       0       0       0       0       0       0       0
       0       0       0       0       0       0       0       0       0       0
       0       0       0       0       0       0       0       0       0       0
       0       0       0       0       0       0       0       0       0       0
       0       0       0       0       0       0       0       0       0       0
       0       0       0       0       0       0       0       0       0       0
       0       0       0       0       0       0       0       0       0       0
       0       0       0       0       0       0       0       0       0       0
       0       0       0       0       0       0       0       0       0       0
       0       0       0       0       0       0       0       0       0       0
       0       0       0       0       0       0       0       0       0       0
       0       0       0       0       0       0       0       0       0       0
       0       0       0       0       0       0       0       0       0       0
       0       0       0       0       0       0       0       0       0       0
       0       0       0       0       0       0       0       0       0       0
       0       0       0       0       0       0       0       0       0       0
       0       0       0       0       0       0       0       0       0       0
       0       0       0       0       0       0       0       0       0       0
       0       0       0       0       0       0       0       0       0       0
       0       0       0       0       0       0       0       0       0       0
       0       0       0       0       0       0       0       0       0       0
       0       0       0       0       0       0       0       0       0       0
       0       0       0       0       0       0       0       0       0       0
       0       0       0       0       0       0       0       0       0       0
       0       0       0       0       0       0       0       0       0       0
       0       0       0       0       0       0       0       0       0       0
       0       0       0       0       0       0       0       0       0       0
       0       0       0       0       0       0       0       0       0       0
       0       0       0       0       0       0       0       0       0       0
       0       0       0       0       0       0       0       0       0       0
       0       0       0       0       0       0       0       0       0       0
       0       0       0       0       0       0       0       0       0       0
       0       0       0       0       0       0       0       0       0       0
       0       0       0       0       0       0       0       0       0       0
       0       0       0       0       0       0       0       0       0       0
       0       0       0       0       0       0       0       0       0       0
       0       0       0       0       0       0       0       0       0       0
       0       0       0       0       0       0       0       0       0       0
       0       0       0       0       0       0       0       0       0       0
       0       0       0       0       0       0       0       0       0       0
       0       0       0       0       0       0       0       0       0       0
       0       0       0       0       0       0       0       0       0       0
       0       0       0       0       0       0       0       0       0       0
       0       0       0       0       0       0       0       0       0       0
       0       0       0       0       0       0       0       0       0       0
       0       0       0       0       0       0       0       0       0       0
       0       0       0       0       0       0       0       0       0       0
       0       0       0       0       0       0       0       0       0       0
       0       0       0       0       0       0       0       0       0       0
       0       0       0       0       0       0       0       0       0       0
       0       0       0       0       0       0       0       0       0       0
       0       0       0       0       0       0       0       0       0       0
       0       0       0       0       0       0       0       0       0       0
       0       0       0       0       0       0       0       0       0       0
       0       0       0       0       0       0       0       0       0       0
       0       0       0       0       0       0       0       0       0       0
       0       0       0       0       0       0       0       0       0       0
       0       0       0       0       0       0       0       0       0       0
       0       0       0       0       0       0       0       0       0       0
       0       0       0       0       0       0       0       0       0       0
       0       0       0       0       0       0       0       0       0       0
       0       0       0       0       0       0       0       0       0       0
       0       0       0       0       0       0       0       0       0       0
       0       0       0       0       0       0       0       0       0       0
       0       0       0       0       0       0       0       0       0       0
       0       0       0       0       0       0       0       0       0       0
       0       0       0       0       0       0       0       0       0       0
       0       0       0       0       0       0       0       0       0       0
       0       0       0       0       0       0       0       0       0       0
       0       0       0       0       0       0       0       0       0       0
       0       0       0       0       0       0       0       0       0       0
       0       0       0       0       0       0       0       0       0       0
       0       0       0       0       0       0       0       0       0       0
       0       0       0       0       0       0       0       0       0       0
       0       0       0       0       0       0       0       0       0       0
       0       0       0       0       0       0       0       0       0       0
       0       0       0       0       0       0       0       0       0       0
       0       0       0       0       0       0       0       0       0       0
       0       0       0       0       0       0       0       0       0       0
       0       0       0       0       0       0       0       0       0       0
       0       0       0       0       0       0       0       0       0       0
       0       0       0       0       0       0       0       0       0       0
       0       0       0       0       0       0       0       0       0       0
       0       0       0       0       0       0       0       0       0       0
       0       0       0       0       0       0       0       0       0       0
       0       0       0       0       0       0       0       0       0       0
       0       0       0       0       0       0       0       0       0       0
       0       0       0       0       0       0       0       0       0       0
       0       0       0       0       0       0       0       0       0       0
       0       0       0       0       0       0       0       0       0       0
       0       0       0       0       0       0       0       0       0       0
       0       0       0       0       0       0       0       0       0       0
       0       0       0       0       0       0       0       0       0       0
       0       0       0       0       0       0       0       0       0       0
       0       0       0       0       0       0       0       0       0       0
       0       0       0       0       0       0       0       0       0       0
       0       0       0       0       0       0       0       0       0       0
       0       0       0       0       0       0       0       0       0       0
       0       0       0       0       0       0       0       0       0       0
       0       0       0       0       0       0       0       0       0       0
       0       0       0       0       0       0       0       0       0       0
       0       0       0       0       0       0       0       0       0       0
       0       0       0       0       0       0       0       0       0       0
       0       0       0       0       0       0       0       0       0       0
       0       0       0       0       0       0       0       0       0       0
       0       0       0       0       0       0       0       0       0       0
       0       0       0       0       0       0       0       0       0       0
       0       0       0       0       0       0       0       0       0       0
       0       0       0       0       0       0       0       0       0       0
       0       0       0       0       0       0       0       0       0       0
       0       0       0       0       0       0       0       0       0       0
       0       0       0       0       0       0       0       0       0       0
       0       0       0       0       0       0       0       0       0       0
       0       0       0       0       0       0       0       0       0       0
       0       0       0       0       0       0       0       0       0       0
       0       0       0       0       0       0       0       0       0       0
       0       0       0       0       0       0       0       0       0       0
       0       0       0       0       0       0       0       0       0       0
       0       0       0       0       0       0       0       0       0       0
       0       0       0       0       0       0       0       0       0       0
       0       0       0       0       0       0       0       0       0       0
       0       0       0       0       0       0       0       0       0       0
       0       0       0       0       0       0       0       0       0       0
       0       0       0       0       0       0       0       0       0       0
       0       0       0       0       0       0       0       0       0       0
       0       0       0       0       0       0       0       0       0       0
       0       0       0       0       0       0       0       0       0       0
       0       0       0       0       0       0       0       0       0       0
       0       0       0       0       0       0       0       0       0       0
       0       0       0       0       0       0       0       0       0       0
       0       0       0       0       0       0       0       0       0       0
       0       0       0       0       0       0       0       0       0       0
       0       0       0       0       0       0       0       0       0       0
       0       0       0       0       0       0       0       0       0       0
       0       0       0       0       0       0       0       0       0       0
       0       0       0       0       0       0       0       0       0       0
       0       0       0       0       0       0       0       0       0       0
       0       0       0       0       0       0       0       0       0       0
       0       0       0       0       0       0       0       0       0       0
       0       0       0       0       0       0       0       0       0       0
       0       0       0       0       0       0       0       0       0       0
       0       0       0       0       0       0       0       0       0       0
       0       0       0       0       0       0       0       0       0       0
       0       0       0       0       0       0       0       0       0       0
       0       0       0       0       0       0       0       0       0       0
       0       0       0       0       0       0       0       0       0       0
       0       0       0       0       0       0       0       0       0       0
       0       0       0       0       0       0       0       0       0       0
       0       0       0       0       0       0       0       0       0       0
       0       0       0       0       0       0       0       0       0       0
       0       0       0       0       0       0       0       0       0       0
       0       0       0       0       0       0       0       0       0       0
       0       0       0       0       0       0       0       0       0       0
       0       0       0       0       0       0       0       0       0       0
       0       0       0       0       0       0       0       0       0       0
       0       0       0       0       0       0       0       0       0       0
       0       0       0       0       0       0       0       0       0       0
       0       0       0       0       0       0       0       0       0       0
       0       0       0       0       0       0       0       0       0       0
       0       0       0       0       0       0       0       0       0       0
       0       0       0       0       0       0       0       0       0       0
       0       0       0       0       0       0       0       0       0       0
       0       0       0       0       0       0       0       0       0       0
       0       0       0       0       0       0       0       0       0       0
       0       0       0       0       0       0       0       0       0       0
       0       0       0       0       0       0       0       0       0       0
       0       0       0       0       0       0       0       0       0       0
       0       0       0       0       0       0       0       0       0       0
       0       0       0       0       0       0       0       0       0       0
       0       0       0       0       0       0       0       0       0       0
       0       0       0       0       0       0       0       0       0       0
       0       0       0       0       0       0       0       0       0       0
       0       0       0       0       0       0       0       0       0       0
       0       0       0       0       0       0       0       0       0       0
       0       0       0       0       0       0       0       0       0       0
       0       0       0       0       0       0       0       0       0       0
       0       0       0       0       0       0       0       0       0       0
       0       0       0       0       0       0       0       0       0       0
       0       0       0       0       0       0       0       0       0       0
       0       0       0       0       0       0       0       0       0       0
       0       0       0       0       0       0       0       0       0       0
       0       0       0       0       0       0       0       0       0       0
       0       0       0       0       0       0       0       0       0       0
       0       0       0       0       0       0       0       0       0       0
       0       0       0       0       0       0       0       0       0       0
       0       0       0       0       0       0       0       0       0       0
       0       0       0       0       0       0       0       0       0       0
       0       0       0       0       0       0       0       0       0       0
       0       0       0       0       0       0       0       0       0       0
       0       0       0       0       0       0       0       0       0       0
       0       0       0       0       0       0       0       0       0       0
       0       0       0       0       0       0       0       0       0       0
       0       0       0       0       0       0       0       0       0       0
       0       0       0       0       0       0       0       0       0       0
       0       0       0       0       0       0       0       0       0       0
       0       0       0       0       0       0       0       0       0       0
       0       0       0       0       0       0       0       0       0       0
       0       0       0       0       0       0       0       0       0       0
       0       0       0       0       0       0       0       0       0       0
       0       0       0       0       0       0       0       0       0       0
       0       0       0       0       0       0       0       0       0       0
       0       0       0       0       0       0       0       0       0       0
       0       0       0       0       0       0       0       0       0       0
       0       0       0       0       0       0       0       0       0       0
       0       0       0       0       0       0       0       0       0       0
       0       0       0       0       0       0       0       0       0       0
       0       0       0       0       0       0       0       0       0       0
       0       0       0       0       0       0       0       0       0       0
       0       0       0       0       0       0       0       0       0       0
       0       0       0       0       0       0       0       0       0       0
       0       0       0       0       0       0       0       0       0       0
       0       0       0       0       0       0       0       0       0       0
       0       0       0       0       0       0       0       0       0       0
       0       0       0       0       0       0       0       0       0       0
       0       0       0       0       0       0       0       0       0       0
       0       0       0       0       0       0       0       0       0       0
       0       0       0       0       0       0       0       0       0       0
       0       0       0       0       0       0       0       0       0       0
       0       0       0       0       0       0       0       0       0       0
       0       0       0       0       0       0       0       0       0       0
       0       0       0       0       0       0       0       0       0       0
       0       0       0       0       0       0       0       0       0       0
       0       0       0       0       0       0       0       0       0       0
       0       0       0       0       0       0       0       0       0       0
       0       0       0       0       0       0       0       0       0       0
       0       0       0       0       0       0       0       0       0       0
       0       0       0       0       0       0       0       0       0       0
       0       0       0       0       0       0       0       0       0       0
       0       0       0       0       0       0       0       0       0       0
       0       0       0       0       0       0       0       0       0       0
       0       0       0       0       0       0       0       0       0       0
       0       0       0       0       0       0       0       0       0       0
       0       0       0       0       0       0       0       0       0       0
       0       0       0       0       0       0       0       0       0       0
       0       0       0       0       0       0       0       0       0       0
       0       0       0       0       0       0       0       0       0       0
       0       0       0       0       0       0       0       0       0       0
       0       0       0       0       0       0       0       0       0       0
       0       0       0       0       0       0       0       0       0       0
       0       0       0       0       0       0       0       0       0       0
       0       0       0       0       0       0       0       0       0       0
       0       0       0       0       0       0       0       0       0       0
       0       0       0       0       0       0       0       0       0       0
       0       0       0       0       0       0       0       0       0       0
       0       0       0       0       0       0       0       0       0       0
       0       0       0       0       0       0       0       0       0       0
       0       0       0       0       0       0       0       0       0       0
       0       0       0       0       0       0       0       0       0       0
       0       0       0       0       0       0       0       0       0       0
       0       0       0       0       0       0       0       0       0       0
       0       0       0       0       0       0       0       0       0       0
       0       0       0       0       0       0       0       0       0       0
       0       0       0       0       0       0       0       0       0       0
       0       0       0       0       0       0       0       0       0       0
       0       0       0       0       0       0       0       0       0       0
       0       0       0       0       0       0       0       0       0       0
       0       0       0       0       0       0       0       0       0       0
       0       0       0       0       0       0       0       0       0       0
       0       0       0       0       0       0       0       0       0       0
       0       0       0       0       0       0       0       0       0       0
       0       0       0       0       0       0       0       0       0       0
       0       0       0       0       0       0       0       0       0       0
       0       0       0       0       0       0       0       0       0       0
       0       0       0       0       0       0       0       0       0       0
       0       0       0       0       0       0       0       0       0       0
       0       0       0       0       0       0       0       0       0       0
       0       0       0       0       0       0       0       0       0       0
       0       0       0       0       0       0       0       0       0       0
       0       0       0       0       0       0       0       0       0       0
       0       0       0       0       0       0       0       0       0       0
       0       0       0       0       0       0       0       0       0       0
       0       0       0       0       0       0       0       0       0       0
       0       0       0       0       0       0       0       0       0       0
       0       0       0       0       0       0       0       0       0       0
       0       0       0       0       0       0       0       0       0       0
       0       0       0       0       0       0       0       0       0       0
       0       0       0       0       0       0       0       0       0       0
       0       0       0       0       0       0       0       0       0       0
       0       0       0       0       0       0       0       0       0       0
       0       0       0       0       0       0       0       0       0       0
       0       0       0       0       0       0       0       0       0       0
       0       0       0       0       0       0       0       0       0       0
       0       0       0       0       0       0       0       0       0       0
       0       0       0       0       0       0       0       0       0       0
       0       0       0       0       0       0       0       0       0       0
       0       0       0       0       0       0       0       0       0       0
       0       0       0       0       0       0       0       0       0       0
       0       0       0       0       0       0       0       0       0       0
       0       0       0       0       0       0       0       0       0       0
       0       0       0       0       0       0       0       0       0       0
       0       0       0       0       0       0       0       0       0       0
       0       0       0       0       0       0       0       0       0       0
       0       0       0       0       0       0       0       0       0       0
       0       0       0       0       0       0       0       0       0       0
       0       0       0       0       0       0       0       0       0       0
       0       0       0       0       0       0       0       0       0       0
       0       0       0       0       0       0       0       0       0       0
       0       0       0       0       0       0       0       0       0       0
       0       0       0       0       0       0       0       0       0       0
       0       0       0       0       0       0       0       0       0       0
       0       0       0       0       0       0       0       0       0       0
       0       0       0       0       0       0       0       0       0       0
       0       0       0       0       0       0       0       0       0       0
       0       0       0       0       0       0       0       0       0       0
       0       0       0       0       0       0       0       0       0       0
       0       0       0       0       0       0       0       0       0       0
       0       0       0       0       0       0       0       0       0       0
       0       0       0       0       0       0       0       0       0       0
       0       0       0       0       0       0       0       0       0       0
       0       0       0       0       0       0       0       0       0       0
       0       0       0       0       0       0       0       0       0       0
       0       0       0       0       0       0       0       0       0       0
       0       0       0       0       0       0       0       0       0       0
       0       0       0       0       0       0       0       0       0       0
       0       0       0       0       0       0       0       0       0       0
       0       0       0       0       0       0       0       0       0       0
       0       0       0       0       0       0       0       0       0       0
       0       0       0       0       0       0       0       0       0       0
       0       0       0       0       0       0       0       0       0       0
       0       0       0       0       0       0       0       0       0       0
       0       0       0       0       0       0       0       0       0       0
       0       0       0       0       0       0       0       0       0       0
       0       0       0       0       0       0       0       0       0       0
       0       0       0       0       0       0       0       0       0       0
       0       0       0       0       0       0       0       0       0       0
       0       0       0       0       0       0       0       0       0       0
       0       0       0       0       0       0       0       0       0       0
       0       0       0       0       0       0       0       0       0       0
       0       0       0       0       0       0       0       0       0       0
       0       0       0       0       0       0       0       0       0       0
       0       0       0       0       0       0       0       0       0       0
       0       0       0       0       0       0       0       0       0       0
       0       0       0       0       0       0       0       0       0       0
       0       0       0       0       0       0       0       0       0       0
       0       0       0       0       0       0       0       0       0       0
       0       0       0       0       0       0       0       0       0       0
       0       0       0       0       0       0       0       0       0       0
       0       0       0       0       0       0       0       0       0       0
       0       0       0       0       0       0       0       0       0       0
       0       0       0       0       0       0       0       0       0       0
       0       0       0       0       0       0       0       0       0       0
       0       0       0       0       0       0       0       0       0       0
       0       0       0       0       0       0       0       0       0       0
       0       0       0       0       0       0       0       0       0       0
       0       0       0       0       0       0       0       0       0       0
       0       0       0       0       0       0       0       0       0       0
       0       0       0       0       0       0       0       0       0       0
       0       0       0       0       0       0       0       0       0       0
       0       0       0       0       0       0       0       0       0       0
       0       0       0       0       0       0       0       0       0       0
       0       0       0       0       0       0       0       0       0       0
       0       0       0       0       0       0       0       0       0       0
       0       0       0       0       0       0       0       0       0       0
       0       0       0       0       0       0       0       0       0       0
       0       0       0       0       0       0       0       0       0       0
       0       0       0       0       0       0       0       0       0       0
       0       0       0       0       0       0       0       0       0       0
       0       0       0       0       0       0       0       0       0       0
       0       0       0       0       0       0       0       0       0       0
       0       0       0       0       0       0       0       0       0       0
       0       0       0       0       0       0       0       0       0       0
       0       0       0       0       0       0       0       0       0       0
       0       0       0       0       0       0       0       0       0       0
       0       0       0       0       0       0       0       0       0       0
       0       0       0       0       0       0       0       0       0       0
       0       0       0       0       0       0       0       0       0       0
       0       0       0       0       0       0       0       0       0       0
       0       0       0       0       0       0       0       0       0       0
       0       0       0       0       0       0       0       0       0       0
       0       0       0       0       0       0       0       0       0       0
       0       0       0       0       0       0       0       0       0       0
       0       0       0       0       0       0       0       0       0       0
       0       0       0       0       0       0       0       0       0       0
       0       0       0       0       0       0       0       0       0       0
       0       0       0       0       0       0       0       0       0       0
       0       0       0       0       0       0       0       0       0       0
       0       0       0       0       0       0       0       0       0       0
       0       0       0       0       0       0       0       0       0       0
       0       0       0       0       0       0       0       0       0       0
       0       0       0       0       0       0       0       0       0       0
       0       0       0       0       0       0       0       0       0       0
       0       0       0       0       0       0       0       0       0       0
       0       0       0       0       0       0       0       0       0       0
       0       0       0       0       0       0       0       0       0       0
       0       0       0       0       0       0       0       0       0       0
       0       0       0       0       0       0       0       0       0       0
       0       0       0       0       0       0       0       0       0       0
       0       0       0       0       0       0       0       0       0       0
       0       0       0       0       0       0       0       0       0       0
       0       0       0       0       0       0       0       0       0       0
       0       0       0       0       0       0       0       0       0       0
       0       0       0       0       0       0       0       0       0       0
       0       0       0       0       0       0       0       0       0       0
       0       0       0       0       0       0       0       0       0       0
       0       0       0       0       0       0       0       0       0       0
       0       0       0       0       0       0       0       0       0       0
       0       0       0       0       0       0       0       0       0       0
       0       0       0       0       0       0       0       0       0       0
       0       0       0       0       0       0       0       0       0       0
       0       0       0       0       0       0       0       0       0       0
       0       0       0       0       0       0       0       0       0       0
       0       0       0       0       0       0       0       0       0       0
       0       0       0       0       0       0       0       0       0       0
       0       0       0       0       0       0       0       0       0       0
       0       0       0       0       0       0       0       0       0       0
       0       0       0       0       0       0       0       0       0       0
       0       0       0       0       0       0       0       0       0       0
       0       0       0       0       0       0       0       0       0       0
       0       0       0       0       0       0       0       0       0       0
       0       0       0       0       0       0       0       0       0       0
       0       0       0       0       0       0       0       0       0       0
       0       0       0       0       0       0       0       0       0       0
       0       0       0       0       0       0       0       0       0       0
       0       0       0       0       0       0       0       0       0       0
       0       0       0       0       0       0       0       0       0       0
       0       0       0       0       0       0       0       0       0       0
       0       0       0       0       0       0       0       0       0       0
       0       0       0       0       0       0       0       0       0       0
       0       0       0       0       0       0       0       0       0       0
       0       0       0       0       0       0       0       0       0       0
       0       0       0       0       0       0       0       0       0       0
       0       0       0       0       0       0       0       0       0       0
       0       0       0       0       0       0       0       0       0       0
       0       0       0       0       0       0       0       0       0       0
       0       0       0       0       0       0       0       0       0       0
       0       0       0       0       0       0       0       0       0       0
       0       0       0       0       0       0       0       0       0       0
       0       0       0       0       0       0       0       0       0       0
       0       0       0       0       0       0       0       0       0       0
       0       0       0       0       0       0       0       0       0       0
       0       0       0       0       0       0       0       0       0       0
       0       0       0       0       0       0       0       0       0       0
       0       0       0       0       0       0       0       0       0       0
       0       0       0       0       0       0       0       0       0       0
       0       0       0       0       0       0       0       0       0       0
       0       0       0       0       0       0       0       0       0       0
       0       0       0       0       0       0       0       0       0       0
       0       0       0       0       0       0       0       0       0       0
       0       0       0       0       0       0       0       0       0       0
       0       0       0       0       0       0       0       0       0       0
       0       0       0       0       0       0       0       0       0       0
       0       0       0       0       0       0       0       0       0       0
       0       0       0       0       0       0       0       0       0       0
       0       0       0       0       0       0       0       0       0       0
       0       0       0       0       0       0       0       0       0       0
       0       0       0       0       0       0       0       0       0       0
       0       0       0       0       0       0       0       0       0       0
       0       0       0       0       0       0       0       0       0       0
       0       0       0       0       0       0       0       0       0       0
       0       0       0       0       0       0       0       0       0       0
       0       0       0       0       0       0       0       0       0       0
       0       0       0       0       0       0       0       0       0       0
       0       0       0       0       0       0       0       0       0       0
       0       0       0       0       0       0       0       0       0       0
       0       0       0       0       0       0       0       0       0       0
       0       0       0       0       0       0       0       0       0       0
       0       0       0       0       0       0       0       0       0       0
       0       0       0       0       0       0       0       0       0       0
       0       0       0       0       0       0       0       0       0       0
       0       0       0       0       0       0       0       0       0       0
       0       0       0       0       0       0       0       0       0       0
       0       0       0       0       0       0       0       0       0       0
       0       0       0       0       0       0       0       0       0       0
       0       0       0       0       0       0       0       0       0       0
       0       0       0       0       0       0       0       0       0       0
       0       0       0       0       0       0       0       0       0       0
       0       0       0       0       0       0       0       0       0       0
       0       0       0       0       0       0       0       0       0       0
       0       0       0       0       0       0       0       0       0       0
       0       0       0       0       0       0       0       0       0       0
       0       0       0       0       0       0       0       0       0       0
       0       0       0       0       0       0       0       0       0       0
       0       0       0       0       0       0       0       0       0       0
       0       0       0       0       0       0       0       0       0       0
       0       0       0       0       0       0       0       0       0       0
       0       0       0       0       0       0       0       0       0       0
       0       0       0       0       0       0       0       0       0       0
       0       0       0       0       0       0       0       0       0       0
       0       0       0       0       0       0       0       0       0       0
       0       0       0       0       0       0       0       0       0       0
       0       0       0       0       0       0       0       0       0       0
       0       0       0       0       0       0       0       0       0       0
       0       0       0       0       0       0       0       0       0       0
       0       0       0       0       0       0       0       0       0       0
       0       0       0       0       0       0       0       0       0       0
       0       0       0       0       0       0       0       0       0       0
       0       0       0       0       0       0       0       0       0       0
       0       0       0       0       0       0       0       0       0       0
       0       0       0       0       0       0       0       0       0       0
       0       0       0       0       0       0       0       0       0       0
       0       0       0       0       0       0       0       0       0       0
       0       0       0       0       0       0       0       0       0       0
       0       0       0       0       0       0       0       0       0       0
       0       0       0       0       0       0       0       0       0       0
       0       0       0       0       0       0       0       0       0       0
       0       0       0       0       0       0       0       0       0       0
       0       0       0       0       0       0       0       0       0       0
       0       0       0       0       0       0       0       0       0       0
       0       0       0       0       0       0       0       0       0       0
       0       0       0       0       0       0       0       0       0       0
       0       0       0       0       0       0       0       0       0       0
       0       0       0       0       0       0       0       0       0       0
       0       0       0       0       0       0       0       0       0       0
       0       0       0       0       0       0       0       0       0       0
       0       0       0       0       0       0       0       0       0       0
       0       0       0       0       0       0       0       0       0       0
       0       0       0       0       0       0       0       0       0       0
       0       0       0       0       0       0       0       0       0       0
       0       0       0       0       0       0       0       0       0       0
       0       0       0       0       0       0       0       0       0       0
       0       0       0       0       0       0       0       0       0       0
       0       0       0       0       0       0       0       0       0       0
       0       0       0       0       0       0       0       0       0       0
       0       0       0       0       0       0       0       0       0       0
       0       0       0       0       0       0       0       0       0       0
       0       0       0       0       0       0       0       0       0       0
       0       0       0       0       0       0       0       0       0       0
       0       0       0       0       0       0       0       0       0       0
       0       0       0       0       0       0       0       0       0       0
       0       0       0       0       0       0       0       0       0       0
       0       0       0       0       0       0       0       0       0       0
       0       0       0       0       0       0       0       0       0       0
       0       0       0       0       0       0       0       0       0       0
       0       0       0       0       0       0       0       0       0       0
       0       0       0       0       0       0       0       0       0       0
       0       0       0       0       0       0       0       0       0       0
       0       0       0       0       0       0       0       0       0       0
       0       0       0       0       0       0       0       0       0       0
       0       0       0       0       0       0       0       0       0       0
       0       0       0       0       0       0       0       0       0       0
       0       0       0       0       0       0       0       0       0       0
       0       0       0       0       0       0       0       0       0       0
       0       0       0       0       0       0       0       0       0       0
       0       0       0       0       0       0       0       0       0       0
       0       0       0       0       0       0       0       0       0       0
       0       0       0       0       0       0       0       0       0       0
       0       0       0       0       0       0       0       0       0       0
       0       0       0       0       0       0       0       0       0       0
       0       0       0       0       0       0       0       0       0       0
       0       0       0       0       0       0       0       0       0       0
       0       0       0       0       0       0       0       0       0       0
       0       0       0       0       0       0       0       0       0       0
       0       0       0       0       0       0       0       0       0       0
       0       0       0       0       0       0       0       0       0       0
       0       0       0       0       0       0       0       0       0       0
       0       0       0       0       0       0       0       0       0       0
       0       0       0       0       0       0       0       0       0       0
       0       0       0       0       0       0       0       0       0       0
       0       0       0       0       0       0       0       0       0       0
       0       0       0       0       0       0       0       0       0       0
       0       0       0       0       0       0       0       0       0       0
       0       0       0       0       0       0       0       0       0       0
       0       0       0       0       0       0       0       0       0       0
       0       0       0       0       0       0       0       0       0       0
       0       0       0       0       0       0       0       0       0       0
       0       0       0       0       0       0       0       0       0       0
       0       0       0       0       0       0       0       0       0       0
       0       0       0       0       0       0       0       0       0       0
       0       0       0       0       0       0       0       0       0       0
       0       0       0       0       0       0       0       0       0       0
       0       0       0       0       0       0       0       0       0       0
       0       0       0       0       0       0       0       0       0       0
       0       0       0       0       0       0       0       0       0       0
       0       0       0       0       0       0       0       0       0       0
       0       0       0       0       0       0       0       0       0       0
       0       0       0       0       0       0       0       0       0       0
       0       0       0       0       0       0       0       0       0       0
       0       0       0       0       0       0       0       0       0       0
       0       0       0       0       0       0       0       0       0       0
       0       0       0       0       0       0       0       0       0       0
       0       0       0       0       0       0       0       0       0       0
       0       0       0       0       0       0       0       0       0       0
       0       0       0       0       0       0       0       0       0       0
       0       0       0       0       0       0       0       0       0       0
       0       0       0       0       0       0       0       0       0       0
       0       0       0       0       0       0       0       0       0       0
       0       0       0       0       0       0       0       0       0       0
       0       0       0       0       0       0       0       0       0       0
       0       0       0       0       0       0       0       0       0       0
       0       0       0       0       0       0       0       0       0       0
       0       0       0       0       0       0       0       0       0       0
       0       0       0       0       0       0       0       0       0       0
       0       0       0       0       0       0       0       0       0       0
       0       0       0       0       0       0       0       0       0       0
       0       0       0       0       0       0       0       0       0       0
       0       0       0       0       0       0       0       0       0       0
       0       0       0       0       0       0       0       0       0       0
       0       0       0       0       0       0       0       0       0       0
       0       0       0       0       0       0       0       0       0       0
       0       0       0       0       0       0       0       0       0       0
       0       0       0       0       0       0       0       0       0       0
       0       0       0       0       0       0       0       0       0       0
       0       0       0       0       0       0       0       0       0       0
       0       0       0       0       0       0       0       0       0       0
       0       0       0       0       0       0       0       0       0       0
       0       0       0       0       0       0       0       0       0       0
       0       0       0       0       0       0       0       0       0       0
       0       0       0       0       0       0       0       0       0       0
       0       0       0       0       0       0       0       0       0       0
       0       0       0       0       0       0       0       0       0       0
       0       0       0       0       0       0       0       0       0       0
       0       0       0       0       0       0       0       0       0       0
       0       0       0       0       0       0       0       0       0       0
       0       0       0       0       0       0       0       0       0       0
       0       0       0       0       0       0       0       0       0       0
       0       0       0       0       0       0       0       0       0       0
       0       0       0       0       0       0       0       0       0       0
       0       0       0       0       0       0       0       0       0       0
       0       0       0       0       0       0       0       0       0       0
       0       0       0       0       0       0       0       0       0       0
       0       0       0       0       0       0       0       0       0       0
       0       0       0       0       0       0       0       0       0       0
       0       0       0       0       0       0       0       0       0       0
       0       0       0       0       0       0       0       0       0       0
       0       0       0       0       0       0       0       0       0       0
       0       0       0       0       0       0       0       0       0       0
       0       0       0       0       0       0       0       0       0       0
       0       0       0       0       0       0       0       0       0       0
       0       0       0       0       0       0       0       0       0       0
       0       0       0       0       0       0       0       0       0       0
       0       0       0       0       0       0       0       0       0       0
       0       0       0       0       0       0       0       0       0       0
       0       0       0       0       0       0       0       0       0       0
       0       0       0       0       0       0       0       0       0       0
       0       0       0       0       0       0       0       0       0       0
       0       0       0       0       0       0       0       0       0       0
       0       0       0       0       0       0       0       0       0       0
       0       0       0       0       0       0       0       0       0       0
       0       0       0       0       0       0       0       0       0       0
       0       0       0       0       0       0       0       0       0       0
       0       0       0       0       0       0       0       0       0       0
       0       0       0       0       0       0       0       0       0       0
       0       0       0       0       0       0       0       0       0       0
       0       0       0       0       0       0       0       0       0       0
       0       0       0       0       0       0       0       0       0       0
       0       0       0       0       0       0       0       0       0       0
       0       0       0       0       0       0       0       0       0       0
       0       0       0       0       0       0       0       0       0       0
       0       0       0       0       0       0       0       0       0       0
       0       0       0       0       0       0       0       0       0       0
       0       0       0       0       0       0       0       0       0       0
       0       0       0       0       0       0       0       0       0       0
       0       0       0       0       0       0       0       0       0       0
       0       0       0       0       0       0       0       0       0       0
       0       0       0       0       0       0       0       0       0       0
       0       0       0       0       0       0       0       0       0       0
       0       0       0       0       0       0       0       0       0       0
       0       0       0       0       0       0       0       0       0       0
       0       0       0       0       0       0       0       0       0       0
       0       0       0       0       0       0       0       0       0       0
       0       0       0       0       0       0       0       0       0       0
       0       0       0       0       0       0       0       0       0       0
       0       0       0       0       0       0       0       0       0       0
       0       0       0       0       0       0       0       0       0       0
       0       0       0       0       0       0       0       0       0       0
       0       0       0       0       0       0       0       0       0       0
       0       0       0       0       0       0       0       0       0       0
       0       0       0       0       0       0       0       0       0       0
       0       0       0       0       0       0       0       0       0       0
       0       0       0       0       0       0       0       0       0       0
       0       0       0       0       0       0       0       0       0       0
       0       0       0       0       0       0       0       0       0       0
       0       0       0       0       0       0       0       0       0       0
       0       0       0       0       0       0       0       0       0       0
       0       0       0       0       0       0       0       0       0       0
       0       0       0       0       0       0       0       0       0       0
       0       0       0       0       0       0       0       0       0       0
       0       0       0       0       0       0       0       0       0       0
       0       0       0       0       0       0       0       0       0       0
       0       0       0       0       0       0       0       0       0       0
       0       0       0       0       0       0       0       0       0       0
       0       0       0       0       0       0       0       0       0       0
       0       0       0       0       0       0       0       0       0       0
       0       0       0       0       0       0       0       0       0       0
       0       0       0       0       0       0       0       0       0       0
       0       0       0       0       0       0       0       0       0       0
       0       0       0       0       0       0       0       0       0       0
       0       0       0       0       0       0       0       0       0       0
       0       0       0       0       0       0       0       0       0       0
       0       0       0       0       0       0       0       0       0       0
       0       0       0       0       0       0       0       0       0       0
       0       0       0       0       0       0       0       0       0       0
       0       0       0       0       0       0       0       0       0       0
       0       0       0       0       0       0       0       0       0       0
       0       0       0       0       0       0       0       0       0       0
       0       0       0       0       0       0       0       0       0       0
       0       0       0       0       0       0       0       0       0       0
       0       0       0       0       0       0       0       0       0       0
       0       0       0       0       0       0       0       0       0       0
       0       0       0       0       0       0       0       0       0       0
       0       0       0       0       0       0       0       0       0       0
       0       0       0       0       0       0       0       0       0       0
       0       0       0       0       0       0       0       0       0       0
       0       0       0       0       0       0       0       0       0       0
       0       0       0       0       0       0       0       0       0       0
       0       0       0       0       0       0       0       0       0       0
       0       0       0       0       0       0       0       0       0       0
       0       0       0       0       0       0       0       0       0       0
       0       0       0       0       0       0       0       0       0       0
       0       0       0       0       0       0       0       0       0       0
       0       0       0       0       0       0       0       0       0       0
       0       0       0       0       0       0       0       0       0       0
       0       0       0       0       0       0       0       0       0       0
       0       0       0       0       0       0       0       0       0       0
       0       0       0       0       0       0       0       0       0       0
       0       0       0       0       0       0       0       0       0       0
       0       0       0       0       0       0       0       0       0       0
       0       0       0       0       0       0       0       0       0       0
       0       0       0       0       0       0       0       0       0       0
       0       0       0       0       0       0       0       0       0       0
       0       0       0       0       0       0       0       0       0       0
       0       0       0       0       0       0       0       0       0       0
       0       0       0       0       0       0       0       0       0       0
       0       0       0       0       0       0       0       0       0       0
       0       0       0       0       0       0       0       0       0       0
       0       0       0       0       0       0       0       0       0       0
       0       0       0       0       0       0       0       0       0       0
       0       0       0       0       0       0       0       0       0       0
       0       0       0       0       0       0       0       0       0       0
       0       0       0       0       0       0       0       0       0       0
       0       0       0       0       0       0       0       0       0       0
       0       0       0       0       0       0       0       0       0       0
       0       0       0       0       0       0       0       0       0       0
       0       0       0       0       0       0       0       0       0       0
       0       0       0       0       0       0       0       0       0       0
       0       0       0       0       0       0       0       0       0       0
       0       0       0       0       0       0       0       0       0       0
       0       0       0       0       0       0       0       0       0       0
       0       0       0       0       0       0       0       0       0       0
       0       0       0       0       0       0       0       0       0       0
       0       0       0       0       0       0       0       0       0       0
       0       0       0       0       0       0       0       0       0       0
       0       0       0       0       0       0       0       0       0       0
       0       0       0       0       0       0       0       0       0       0
       0       0       0       0       0       0       0       0       0       0
       0       0       0       0       0       0       0       0       0       0
       0       0       0       0       0       0       0       0       0       0
       0       0       0       0       0       0       0       0       0       0
       0       0       0       0       0       0       0       0       0       0
       0       0       0       0       0       0       0       0       0       0
       0       0       0       0       0       0       0       0       0       0
       0       0       0       0       0       0       0       0       0       0
       0       0       0       0       0       0       0       0       0       0
       0       0       0       0       0       0       0       0       0       0
       0       0       0       0       0       0       0       0       0       0
       0       0       0       0       0       0       0       0       0       0
       0       0       0       0       0       0       0       0       0       0
       0       0       0       0       0       0       0       0       0       0
       0       0       0       0       0       0       0       0       0       0
       0       0       0       0       0       0       0       0       0       0
       0       0       0       0       0       0       0       0       0       0
       0       0       0       0       0       0       0       0       0       0
       0       0       0       0       0       0       0       0       0       0
       0       0       0       0       0       0       0       0       0       0
       0       0       0       0       0       0       0       0       0       0
       0       0       0       0       0       0       0       0       0       0
       0       0       0       0       0       0       0       0       0       0
       0       0       0       0       0       0       0       0       0       0
       0       0       0       0       0       0       0       0       0       0
       0       0       0       0       0       0       0       0       0       0
       0       0       0       0       0       0       0       0       0       0
       0       0       0       0       0       0       0       0       0       0
       0       0       0       0       0       0       0       0       0       0
       0       0       0       0       0       0       0       0       0       0
       0       0       0       0       0       0       0       0       0       0
       0       0       0       0       0       0       0       0       0       0
       0       0       0       0       0       0       0       0       0       0
       0       0       0       0       0       0       0       0       0       0
       0       0       0       0       0       0       0       0       0       0
       0       0       0       0       0       0       0       0       0       0
       0       0       0       0       0       0       0       0       0       0
       0       0       0       0       0       0       0       0       0       0
       0       0       0       0       0       0       0       0       0       0
       0       0       0       0       0       0       0       0       0       0
       0       0       0       0       0       0       0       0       0       0
       0       0       0       0       0       0       0       0       0       0
       0       0       0       0       0       0       0       0       0       0
       0       0       0       0       0       0       0       0       0       0
       0       0       0       0       0       0       0       0       0       0
       0       0       0       0       0       0       0       0       0       0
       0       0       0       0       0       0       0       0       0       0
       0       0       0       0       0       0       0       0       0       0
       0       0       0       0       0       0       0       0       0       0
       0       0       0       0       0       0       0       0       0       0
       0       0       0       0       0       0       0       0       0       0
       0       0       0       0       0       0       0       0       0       0
       0       0       0       0       0       0       0       0       0       0
       0       0       0       0       0       0       0       0       0       0
       0       0       0       0       0       0       0       0       0       0
       0       0       0       0       0       0       0       0       0       0
       0       0       0       0       0       0       0       0       0       0
       0       0       0       0       0       0       0       0       0       0
       0       0       0       0       0       0       0       0       0       0
       0       0       0       0       0       0       0       0       0       0
       0       0       0       0       0       0       0       0       0       0
       0       0       0       0       0       0       0       0       0       0
       0       0       0       0       0       0       0       0       0       0
       0       0       0       0       0       0       0       0       0       0
       0       0       0       0       0       0       0       0       0       0
       0       0       0       0       0       0       0       0       0       0
       0       0       0       0       0       0       0       0       0       0
       0       0       0       0       0       0       0       0       0       0
       0       0       0       0       0       0       0       0       0       0
       0       0       0       0       0       0       0       0       0       0
       0       0       0       0       0       0       0       0       0       0
       0       0       0       0       0       0       0       0       0       0
       0       0       0       0       0       0       0       0       0       0
       0       0       0       0       0       0       0       0       0       0
       0       0       0       0       0       0       0       0       0       0
       0       0       0       0       0       0       0       0       0       0
       0       0       0       0       0       0       0       0       0       0
       0       0       0       0       0       0       0       0       0       0
       0       0       0       0       0       0       0       0       0       0
       0       0       0       0       0       0       0       0       0       0
       0       0       0       0       0       0       0       0       0       0
       0       0       0       0       0       0       0       0       0       0
       0       0       0       0       0       0       0       0       0       0
       0       0       0       0       0       0       0       0       0       0
       0       0       0       0       0       0       0       0       0       0
       0       0       0       0       0       0       0       0       0       0
       0       0       0       0       0       0       0       0       0       0
       0       0       0       0       0       0       0       0       0       0
       0       0       0       0       0       0       0       0       0       0
       0       0       0       0       0       0       0       0       0       0
       0       0       0       0       0       0       0       0       0       0
       0       0       0       0       0       0       0       0       0       0
       0       0       0       0       0       0       0       0       0       0
       0       0       0       0       0       0       0       0       0       0
       0       0       0       0       0       0       0       0       0       0
       0       0       0       0       0       0       0       0       0       0
       0       0       0       0       0       0       0       0       0       0
       0       0       0       0       0       0       0       0       0       0
       0       0       0       0       0       0       0       0       0       0
       0       0       0       0       0       0       0       0       0       0
       0       0       0       0       0       0       0       0       0       0
       0       0       0       0       0       0       0       0       0       0
       0       0       0       0       0       0       0       0       0       0
       0       0       0       0       0       0       0       0       0       0
       0       0       0       0       0       0       0       0       0       0
       0       0       0       0       0       0       0       0       0       0
       0       0       0       0       0       0       0       0       0       0
       0       0       0       0       0       0       0       0       0       0
       0       0       0       0       0       0       0       0       0       0
       0       0       0       0       0       0       0       0       0       0
       0       0       0       0       0       0       0       0       0       0
       0       0       0       0       0       0       0       0       0       0
       0       0       0       0       0       0       0       0       0       0
       0       0       0       0       0       0       0       0       0       0
       0       0       0       0       0       0       0       0       0       0
       0       0       0       0       0       0       0       0       0       0
       0       0       0       0       0       0       0       0       0       0
       0       0       0       0       0       0       0       0       0       0
       0       0       0       0       0       0       0       0       0       0
       0       0       0       0       0       0       0       0       0       0
       0       0       0       0       0       0       0       0       0       0
       0       0       0       0       0       0       0       0       0       0
       0       0       0       0       0       0       0       0       0       0
       0       0       0       0       0       0       0       0       0       0
       0       0       0       0       0       0       0       0       0       0
       0       0       0       0       0       0       0       0       0       0
       0       0       0       0       0       0       0       0       0       0
       0       0       0       0       0       0       0       0       0       0
       0       0       0       0       0       0       0       0       0       0
       0       0       0       0       0       0       0       0       0       0
       0       0       0       0       0       0       0       0       0       0
       0       0       0       0       0       0       0       0       0       0
       0       0       0       0       0       0       0       0       0       0
       0       0       0       0       0       0       0       0       0       0
       0       0       0       0       0       0       0       0       0       0
       0       0       0       0       0       0       0       0       0       0
       0       0       0       0       0       0       0       0       0       0
       0       0       0       0       0       0       0       0       0       0
       0       0       0       0       0       0       0       0       0       0
       0       0       0       0       0       0       0       0       0       0
       0       0       0       0       0       0       0       0       0       0
       0       0       0       0       0       0       0       0       0       0
       0       0       0       0       0       0       0       0       0       0
       0       0       0       0       0       0       0       0       0       0
       0       0       0       0       0       0       0       0       0       0
       0       0       0       0       0       0       0       0       0       0
       0       0       0       0       0       0       0       0       0       0
       0       0       0       0       0       0       0       0       0       0
       0       0       0       0       0       0       0       0       0       0
       0       0       0       0       0       0       0       0       0       0
       0       0       0       0       0       0       0       0       0       0
       0       0       0       0       0       0       0       0       0       0
       0       0       0       0       0       0       0       0       0       0
       0       0       0       0       0       0       0       0       0       0
       0       0       0       0       0       0       0       0       0       0
       0       0       0       0       0       0       0       0       0       0
       0       0       0       0       0       0       0       0       0       0
       0       0       0       0       0       0       0       0       0       0
       0       0       0       0       0       0       0       0       0       0
       0       0       0       0       0       0       0       0       0       0
       0       0       0       0       0       0       0       0       0       0
       0       0       0       0       0       0       0       0       0       0
       0       0       0       0       0       0       0       0       0       0
       0       0       0       0       0       0       0       0       0       0
       0       0       0       0       0       0       0       0       0       0
       0       0       0       0       0       0       0       0       0       0
       0       0       0       0       0       0       0       0       0       0
       0       0       0       0       0       0       0       0       0       0
       0       0       0       0       0       0       0       0       0       0
       0       0       0       0       0       0       0       0       0       0
       0       0       0       0       0       0       0       0       0       0
       0       0       0       0       0       0       0       0       0       0
       0       0       0       0       0       0       0       0       0       0
       0       0       0       0       0       0       0       0       0       0
       0       0       0       0       0       0       0       0       0       0
       0       0       0       0       0       0       0       0       0       0
       0       0       0       0       0       0       0       0       0       0
       0       0       0       0       0       0       0       0       0       0
       0       0       0       0       0       0       0       0       0       0
       0       0       0       0       0       0       0       0       0       0
       0       0       0       0       0       0       0       0       0       0
       0       0       0       0       0       0       0       0       0       0
       0       0       0       0       0       0       0       0       0       0
       0       0       0       0       0       0       0       0       0       0
       0       0       0       0       0       0       0       0       0       0
       0       0       0       0       0       0       0       0       0       0
       0       0       0       0       0       0       0       0       0       0
       0       0       0       0       0       0       0       0       0       0
       0       0       0       0       0       0       0       0       0       0
       0       0       0       0       0       0       0       0       0       0
       0       0       0       0       0       0       0       0       0       0
       0       0       0       0       0       0       0       0       0       0
       0       0       0       0       0       0       0       0       0       0
       0       0       0       0       0       0       0       0       0       0
       0       0       0       0       0       0       0       0       0       0
       0       0       0       0       0       0       0       0       0       0
       0       0       0       0       0       0       0       0       0       0
       0       0       0       0       0       0       0       0       0       0
       0       0       0       0       0       0       0       0       0       0
       0       0       0       0       0       0       0       0       0       0
       0       0       0       0       0       0       0       0       0       0
       0       0       0       0       0       0       0       0       0       0
       0       0       0       0       0       0       0       0       0       0
       0       0       0       0       0       0       0       0       0       0
       0       0       0       0       0       0       0       0       0       0
       0       0       0       0       0       0       0       0       0       0
       0       0       0       0       0       0       0       0       0       0
       0       0       0       0       0       0       0       0       0       0
       0       0       0       0       0       0       0       0       0       0
       0       0       0       0       0       0       0       0       0       0
       0       0       0       0       0       0       0       0       0       0
       0       0       0       0       0       0       0       0       0       0
       0       0       0       0       0       0       0       0       0       0
       0       0       0       0       0       0       0       0       0       0
       0       0       0       0       0       0       0       0       0       0
       0       0       0       0       0       0       0       0       0       0
       0       0       0       0       0       0       0       0       0       0
       0       0       0       0       0       0       0       0       0       0
       0       0       0       0       0       0       0       0       0       0
       0       0       0       0       0       0       0       0       0       0
       0       0       0       0       0       0       0       0       0       0
       0       0       0       0       0       0       0       0       0       0
       0       0       0       0       0       0       0       0       0       0
       0       0       0       0       0       0       0       0       0       0
       0       0       0       0       0       0       0       0       0       0
       0       0       0       0       0       0       0       0       0       0
       0       0       0       0       0       0       0       0       0       0
       0       0       0       0       0       0       0       0       0       0
       0       0       0       0       0       0       0       0       0       0
       0       0       0       0       0       0       0       0       0       0
       0       0       0       0       0       0       0       0       0       0
       0       0       0       0       0       0       0       0       0       0
       0       0       0       0       0       0       0       0       0       0
       0       0       0       0       0       0       0       0       0       0
       0       0       0       0       0       0       0       0       0       0
       0       0       0       0       0       0       0       0       0       0
       0       0       0       0       0       0       0       0       0       0
       0       0       0       0       0       0       0       0       0       0
       0       0       0       0       0       0       0       0       0       0
       0       0       0       0       0       0       0       0       0       0
       0       0       0       0       0       0       0       0       0       0
       0       0       0       0       0       0       0       0       0       0
       0       0       0       0       0       0       0       0       0       0
       0       0       0       0       0       0       0       0       0       0
       0       0       0       0       0       0       0       0       0       0
       0       0       0       0       0       0       0       0       0       0
       0       0       0       0       0       0       0       0       0       0
       0       0       0       0       0       0       0       0       0       0
       0       0       0       0       0       0       0       0       0       0
       0       0       0       0       0       0       0       0       0       0
       0       0       0       0       0       0       0       0       0       0
       0       0       0       0       0       0       0       0       0       0
       0       0       0       0       0       0       0       0       0       0
       0       0       0       0       0       0       0       0       0       0
       0       0       0       0       0       0       0       0       0       0
       0       0       0       0       0       0       0       0       0       0
       0       0       0       0       0       0       0       0       0       0
       0       0       0       0       0       0       0       0       0       0
       0       0       0       0       0       0       0       0       0       0
       0       0       0       0       0       0       0       0       0       0
       0       0       0       0       0       0       0       0       0       0
       0       0       0       0       0       0       0       0       0       0
       0       0       0       0       0       0       0       0       0       0
       0       0       0       0       0       0       0       0       0       0
       0       0       0       0       0       0       0       0       0       0
       0       0       0       0       0       0       0       0       0       0
       0       0       0       0       0       0       0       0       0       0
       0       0       0       0       0       0       0       0       0       0
       0       0       0       0       0       0       0       0       0       0
       0       0       0       0       0       0       0       0       0       0
       0       0       0       0       0       0       0       0       0       0
       0       0       0       0       0       0       0       0       0       0
       0       0       0       0       0       0       0       0       0       0
       0       0       0       0       0       0       0       0       0       0
       0       0       0       0       0       0       0       0       0       0
       0       0       0       0       0       0       0       0       0       0
       0       0       0       0       0       0       0       0       0       0
       0       0       0       0       0       0       0       0       0       0
       0       0       0       0       0       0       0       0       0       0
       0       0       0       0       0       0       0       0       0       0
       0       0       0       0       0       0       0       0       0       0
       0       0       0       0       0       0       0       0       0       0
       0       0       0       0       0       0       0       0       0       0
       0       0       0       0       0       0       0       0       0       0
       0       0       0       0       0       0       0       0       0       0
       0       0       0       0       0       0       0       0       0       0
       0       0       0       0       0       0       0       0       0       0
       0       0       0       0       0       0       0       0       0       0
       0       0       0       0       0       0       0       0       0       0
       0       0       0       0       0       0       0       0       0       0
       0       0       0       0       0       0       0       0       0       0
       0       0       0       0       0       0       0       0       0       0
       0       0       0       0       0       0       0       0       0       0
       0       0       0       0       0       0       0       0       0       0
       0       0       0       0       0       0       0       0       0       0
       0       0       0       0       0       0       0       0       0       0
       0       0       0       0       0       0       0       0       0       0
       0       0       0       0       0       0       0       0       0       0
       0       0       0       0       0       0       0       0       0       0
       0       0       0       0       0       0       0       0       0       0
       0       0       0       0       0       0       0       0       0       0
       0       0       0       0       0       0       0       0       0       0
       0       0       0       0       0       0       0       0       0       0
       0       0       0       0       0       0       0       0       0       0
       0       0       0       0       0       0       0       0       0       0
       0       0       0       0       0       0       0       0       0       0
       0       0       0       0       0       0       0       0       0       0
       0       0       0       0       0       0       0       0       0       0
       0       0       0       0       0       0       0       0       0       0
       0       0       0       0       0       0       0       0       0       0
       0       0       0       0       0       0       0       0       0       0
       0       0       0       0       0       0       0       0       0       0
       0       0       0       0       0       0       0       0       0       0
       0       0       0       0       0       0       0       0       0       0
       0       0       0       0       0       0       0       0       0       0
       0       0       0       0       0       0       0       0       0       0
       0       0       0       0       0       0       0       0       0       0
       0       0       0       0       0       0       0       0       0       0
       0       0       0       0       0       0       0       0       0       0
       0       0       0       0       0       0       0       0       0       0
       0       0       0       0       0       0       0       0       0       0
       0       0       0       0       0       0       0       0       0       0
       0       0       0       0       0       0       0       0       0       0
       0       0       0       0       0       0       0       0       0       0
       0       0       0       0       0       0       0       0       0       0
       0       0       0       0       0       0       0       0       0       0
       0       0       0       0       0       0       0       0       0       0
       0       0       0       0       0       0       0       0       0       0
       0       0       0       0       0       0       0       0       0       0
       0       0       0       0       0       0       0       0       0       0
       0       0       0       0       0       0       0       0       0       0
       0       0       0       0       0       0       0       0       0       0
       0       0       0       0       0       0       0       0       0       0
       0       0       0       0       0       0       0       0       0       0
       0       0       0       0       0       0       0       0       0       0
       0       0       0       0       0       0       0       0       0       0
       0       0       0       0       0       0       0       0       0       0
       0       0       0       0       0       0       0       0       0       0
       0       0       0       0       0       0       0       0       0       0
       0       0       0       0       0       0       0       0       0       0
       0       0       0       0       0       0       0       0       0       0
       0       0       0       0       0       0       0       0       0       0
       0       0       0       0       0       0       0       0       0       0
       0       0       0       0       0       0       0       0       0       0
       0       0       0       0       0       0       0       0       0       0
       0       0       0       0       0       0       0       0       0       0
       0       0       0       0       0       0       0       0       0       0
       0       0       0       0       0       0       0       0       0       0
       0       0       0       0       0       0       0       0       0       0
       0       0       0       0       0       0       0       0       0       0
       0       0       0       0       0       0       0       0       0       0
       0       0       0       0       0       0       0       0       0       0
       0       0       0       0       0       0       0       0       0       0
       0       0       0       0       0       0       0       0       0       0
       0       0       0       0       0       0       0       0       0       0
       0       0       0       0       0       0       0       0       0       0
       0       0       0       0       0       0       0       0       0       0
       0       0       0       0       0       0       0       0       0       0
       0       0       0       0       0       0       0       0       0       0
       0       0       0       0       0       0       0       0       0       0
       0       0       0       0       0       0       0       0       0       0
       0       0       0       0       0       0       0       0       0       0
       0       0       0       0       0       0       0       0       0       0
       0       0       0       0       0       0       0       0       0       0
       0       0       0       0       0       0       0       0       0       0
       0       0       0       0       0       0       0       0       0       0
       0       0       0       0       0       0       0       0       0       0
       0       0       0       0       0       0       0       0       0       0
       0       0       0       0       0       0       0       0       0       0
       0       0       0       0       0       0       0       0       0       0
       0       0       0       0       0       0       0       0       0       0
       0       0       0       0       0       0       0       0       0       0
       0       0       0       0       0       0       0       0       0       0
       0       0       0       0       0       0       0       0       0       0
       0       0       0       0       0       0       0       0       0       0
       0       0       0       0       0       0       0       0       0       0
       0       0       0       0       0       0       0       0       0       0
       0       0       0       0       0       0       0       0       0       0
       0       0       0       0       0       0       0       0       0       0
       0       0       0       0       0       0       0       0       0       0
       0       0       0       0       0       0       0       0       0       0
       0       0       0       0       0       0       0       0       0       0
       0       0       0       0       0       0       0       0       0       0
       0       0       0       0       0       0       0       0       0       0
       0       0       0       0       0       0       0       0       0       0
       0       0       0       0       0       0       0       0       0       0
       0       0       0       0       0       0       0       0       0       0
       0       0       0       0       0       0       0       0       0       0
       0       0       0       0       0       0       0       0       0       0
       0       0       0       0       0       0       0       0       0       0
       0       0       0       0       0       0       0       0       0       0
       0       0       0       0       0       0       0       0       0       0
       0       0       0       0       0       0       0       0       0       0
       0       0       0       0       0       0       0       0       0       0
       0       0       0       0       0       0       0       0       0       0
       0       0       0       0       0       0       0       0       0       0
       0       0       0       0       0       0       0       0       0       0
       0       0       0       0       0       0       0       0       0       0
       0       0       0       0       0       0       0       0       0       0
       0       0       0       0       0       0       0       0       0       0
       0       0       0       0       0       0       0       0       0       0
       0       0       0       0       0       0       0       0       0       0
       0       0       0       0       0       0       0       0       0       0
       0       0       0       0       0       0       0       0       0       0
       0       0       0       0       0       0       0       0       0       0
       0       0       0       0       0       0       0       0       0       0
       0       0       0       0       0       0       0       0       0       0
       0       0       0       0       0       0       0       0       0       0
       0       0       0       0       0       0       0       0       0       0
       0       0       0       0       0       0       0       0       0       0
       0       0       0       0       0       0       0       0       0       0
       0       0       0       0       0       0       0       0       0       0
       0       0       0       0       0       0       0       0       0       0
       0       0       0       0       0       0       0       0       0       0
       0       0       0       0       0       0       0       0       0       0
       0       0       0       0       0       0       0       0       0       0
       0       0       0       0       0       0       0       0       0       0
       0       0       0       0       0       0       0       0       0       0
       0       0       0       0       0       0       0       0       0       0
       0       0       0       0       0       0       0       0       0       0
       0       0       0       0       0       0       0       0       0       0
       0       0       0       0       0       0       0       0       0       0
       0       0       0       0       0       0       0       0       0       0
       0       0       0       0       0       0       0       0       0       0
       0       0       0       0       0       0       0       0       0       0
       0       0       0       0       0       0       0       0       0       0
       0       0       0       0       0       0       0       0       0       0
       0       0       0       0       0       0       0       0       0       0
       0       0       0       0       0       0       0       0       0       0
       0       0       0       0       0       0       0       0       0       0
       0       0       0       0       0       0       0       0       0       0
       0       0       0       0       0       0       0       0       0       0
       0       0       0       0       0       0       0       0       0       0
       0       0       0       0       0       0       0       0       0       0
       0       0       0       0       0       0       0       0       0       0
       0       0       0       0       0       0       0       0       0       0
       0       0       0       0       0       0       0       0       0       0
       0       0       0       0       0       0       0       0       0       0
       0       0       0       0       0       0       0       0       0       0
       0       0       0       0       0       0       0       0       0       0
       0       0       0       0       0       0       0       0       0       0
       0       0       0       0       0       0       0       0       0       0
       0       0       0       0       0       0       0       0       0       0
       0       0       0       0       0       0       0       0       0       0
       0       0       0       0       0       0       0       0       0       0
       0       0       0       0       0       0       0       0       0       0
       0       0       0       0       0       0       0       0       0       0
       0       0       0       0       0       0       0       0       0       0
       0       0       0       0       0       0       0       0       0       0
       0       0       0       0       0       0       0       0       0       0
       0       0       0       0       0       0       0       0       0       0
       0       0       0       0       0       0       0       0       0       0
       0       0       0       0       0       0       0       0       0       0
       0       0       0       0       0       0       0       0       0       0
       0       0       0       0       0       0       0       0       0       0
       0       0       0       0       0       0       0       0       0       0
       0       0       0       0       0       0       0       0       0       0
       0       0       0       0       0       0       0       0       0       0
       0       0       0       0       0       0       0       0       0       0
       0       0       0       0       0       0       0       0       0       0
       0       0       0       0       0       0       0       0       0       0
       0       0       0       0       0       0       0       0       0       0
       0       0       0       0       0       0       0       0       0       0
       0       0       0       0       0       0       0       0       0       0
       0       0       0       0       0       0       0       0       0       0
       0       0       0       0       0       0       0       0       0       0
       0       0       0       0       0       0       0       0       0       0
       0       0       0       0       0       0       0       0       0       0
       0       0       0       0       0       0       0       0       0       0
       0       0       0       0       0       0       0       0       0       0
       0       0       0       0       0       0       0       0       0       0
       0       0       0       0       0       0       0       0       0       0
       0       0       0       0       0       0       0       0       0       0
       0       0       0       0       0       0       0       0       0       0
       0       0       0       0       0       0       0       0       0       0
       0       0       0       0       0       0       0       0       0       0
       0       0       0       0       0       0       0       0       0       0
       0       0       0       0       0       0       0       0       0       0
       0       0       0       0       0       0       0       0       0       0
       0       0       0       0       0       0       0       0       0       0
       0       0       0       0       0       0       0       0       0       0
       0       0       0       0       0       0       0       0       0       0
       0       0       0       0       0       0       0       0       0       0
       0       0       0       0       0       0       0       0       0       0
       0       0       0       0       0       0       0       0       0       0
       0       0       0       0       0       0       0       0       0       0
       0       0       0       0       0       0       0       0       0       0
       0       0       0       0       0       0       0       0       0       0
       0       0       0       0       0       0       0       0       0       0
       0       0       0       0       0       0       0       0       0       0
       0       0       0       0       0       0       0       0       0       0
       0       0       0       0       0       0       0       0       0       0
       0       0       0       0       0       0       0       0       0       0
       0       0       0       0       0       0       0       0       0       0
       0       0       0       0       0       0       0       0       0       0
       0       0       0       0       0       0       0       0       0       0
       0       0       0       0       0       0       0       0       0       0
       0       0       0       0       0       0       0       0       0       0
       0       0       0       0       0       0       0       0       0       0
       0       0       0       0       0       0       0       0       0       0
       0       0       0       0       0       0       0       0       0       0
       0       0       0       0       0       0       0       0       0       0
       0       0       0       0       0       0       0       0       0       0
       0       0       0       0       0       0       0       0       0       0
       0       0       0       0       0       0       0       0       0       0
       0       0       0       0       0       0       0       0       0       0
       0       0       0       0       0       0       0       0       0       0
       0       0       0       0       0       0       0       0       0       0
       0       0       0       0       0       0       0       0       0       0
       0       0       0       0       0       0       0       0       0       0
       0       0       0       0       0       0       0       0       0       0
       0       0       0       0       0       0       0       0       0       0
       0       0       0       0       0       0       0       0       0       0
       0       0       0       0       0       0       0       0       0       0
       0       0       0       0       0       0       0       0       0       0
       0       0       0       0       0       0       0       0       0       0
       0       0       0       0       0       0       0       0       0       0
       0       0       0       0       0       0       0       0       0       0
       0       0       0       0       0       0       0       0       0       0
       0       0       0       0       0       0       0       0       0       0
       0       0       0       0       0       0       0       0       0       0
       0       0       0       0       0       0       0       0       0       0
       0       0       0       0       0       0       0       0       0       0
       0       0       0       0       0       0       0       0       0       0
       0       0       0       0       0       0       0       0       0       0
       0       0       0       0       0       0       0       0       0       0
       0       0       0       0       0       0       0       0       0       0
       0       0       0       0       0       0       0       0       0       0
       0       0       0       0       0       0       0       0       0       0
       0       0       0       0       0       0       0       0       0       0
       0       0       0       0       0       0       0       0       0       0
       0       0       0       0       0       0       0       0       0       0
       0       0       0       0       0       0       0       0       0       0
       0       0       0       0       0       0       0       0       0       0
       0       0       0       0       0       0       0       0       0       0
       0       0       0       0       0       0       0       0       0       0
       0       0       0       0       0       0       0       0       0       0
       0       0       0       0       0       0       0       0       0       0
       0       0       0       0       0       0       0       0       0       0
       0       0       0       0       0       0       0       0       0       0
       0       0       0       0       0       0       0       0       0       0
       0       0       0       0       0       0       0       0       0       0
       0       0       0       0       0       0       0       0       0       0
       0       0       0       0       0       0       0       0       0       0
       0       0       0       0       0       0       0       0       0       0
       0       0       0       0       0       0       0       0       0       0
       0       0       0       0       0       0       0       0       0       0
       0       0       0       0       0       0       0       0       0       0
       0       0       0       0       0       0       0       0       0       0
       0       0       0       0       0       0       0       0       0       0
       0       0       0       0       0       0       0       0       0       0
       0       0       0       0       0       0       0       0       0       0
       0       0       0       0       0       0       0       0       0       0
       0       0       0       0       0       0       0       0       0       0
       0       0       0       0       0       0       0       0       0       0
       0       0       0       0       0       0       0       0       0       0
       0       0       0       0       0       0       0       0       0       0
       0       0       0       0       0       0       0       0       0       0
       0       0       0       0       0       0       0       0       0       0
       0       0       0       0       0       0       0       0       0       0
       0       0       0       0       0       0       0       0       0       0
       0       0       0       0       0       0       0       0       0       0
       0       0       0       0       0       0       0       0       0       0
       0       0       0       0       0       0       0       0       0       0
       0       0       0       0       0       0       0       0       0       0
       0       0       0       0       0       0       0       0       0       0
       0       0       0       0       0       0       0       0       0       0
       0       0       0       0       0       0       0       0       0       0
       0       0       0       0       0       0       0       0       0       0
       0       0       0       0       0       0       0       0       0       0
       0       0       0       0       0       0       0       0       0       0
       0       0       0       0       0       0       0       0       0       0
       0       0       0       0       0       0       0       0       0       0
       0       0       0       0       0       0       0       0       0       0
       0       0       0       0       0       0       0       0       0       0
       0       0       0       0       0       0       0       0       0       0
       0       0       0       0       0       0       0       0       0       0
       0       0       0       0       0       0       0       0       0       0
       0       0       0       0       0       0       0       0       0       0
       0       0       0       0       0       0       0       0       0       0
       0       0       0       0       0       0       0       0       0       0
       0       0       0       0       0       0       0       0       0       0
       0       0       0       0       0       0       0       0       0       0
       0       0       0       0       0       0       0       0       0       0
       0       0       0       0       0       0       0       0       0       0
       0       0       0       0       0       0       0       0       0       0
       0       0       0       0       0       0       0       0       0       0
       0       0       0       0       0       0       0       0       0       0
       0       0       0       0       0       0       0       0       0       0
       0       0       0       0       0       0       0       0       0       0
       0       0       0       0       0       0       0       0       0       0
       0       0       0       0       0       0       0       0       0       0
       0       0       0       0       0       0       0       0       0       0
       0       0       0       0       0       0       0       0       0       0
       0       0       0       0       0       0       0       0       0       0
       0       0       0       0       0       0       0       0       0       0
       0       0       0       0       0       0       0       0       0       0
       0       0       0       0       0       0       0       0       0       0
       0       0       0       0       0       0       0       0       0       0
       0       0       0       0       0       0       0       0       0       0
       0       0       0       0       0       0       0       0       0       0
       0       0       0       0       0       0       0       0       0       0
       0       0       0       0       0       0       0       0       0       0
       0       0       0       0       0       0       0       0       0       0
       0       0       0       0       0       0       0       0       0       0
       0       0       0       0       0       0       0       0       0       0
       0       0       0       0       0       0       0       0       0       0
       0       0       0       0       0       0       0       0       0       0
       0       0       0       0       0       0       0       0       0       0
       0       0       0       0       0       0       0       0       0       0
       0       0       0       0       0       0       0       0       0       0
       0       0       0       0       0       0       0       0       0       0
       0       0       0       0       0       0       0       0       0       0
       0       0       0       0       0       0       0       0       0       0
       0       0       0       0       0       0       0       0       0       0
       0       0       0       0       0       0       0       0       0       0
       0       0       0       0       0       0       0       0       0       0
       0       0       0       0       0       0       0       0       0       0
       0       0       0       0       0       0       0       0       0       0
       0       0       0       0       0       0       0       0       0       0
       0       0       0       0       0       0       0       0       0       0
       0       0       0       0       0       0       0       0       0       0
       0       0       0       0       0       0       0       0       0       0
       0       0       0       0       0       0       0       0       0       0
       0       0       0       0       0       0       0       0       0       0
       0       0       0       0       0       0       0       0       0       0
       0       0       0       0       0       0       0       0       0       0
       0       0       0       0       0       0       0       0       0       0
       0       0       0       0       0       0       0       0       0       0
       0       0       0       0       0       0       0       0       0       0
       0       0       0       0       0       0       0       0       0       0
       0       0       0       0       0       0       0       0       0       0
       0       0       0       0       0       0       0       0       0       0
       0       0       0       0       0       0       0       0       0       0
       0       0       0       0       0       0       0       0       0       0
       0       0       0       0       0       0       0       0       0       0
       0       0       0       0       0       0       0       0       0       0
       0       0       0       0       0       0       0       0       0       0
       0       0       0       0       0       0       0       0       0       0
       0       0       0       0       0       0       0       0       0       0
       0       0       0       0       0       0       0       0       0       0
       0       0       0       0       0       0       0       0       0       0
       0       0       0       0       0       0       0       0       0       0
       0       0       0       0       0       0       0       0       0       0
       0       0       0       0       0       0       0       0       0       0
       0       0       0       0       0       0       0       0       0       0
       0       0       0       0       0       0       0       0       0       0
       0       0       0       0       0       0       0       0       0       0
       0       0       0       0       0       0       0       0       0       0
       0       0       0       0       0       0       0       0       0       0
       0       0       0       0       0       0       0       0       0       0
       0       0       0       0       0       0       0       0       0       0
       0       0       0       0       0       0       0       0       0       0
       0       0       0       0       0       0       0       0       0       0
       0       0       0       0       0       0       0       0       0       0
       0       0       0       0       0       0       0       0       0       0
       0       0       0       0       0       0       0       0       0       0
       0       0       0       0       0       0       0       0       0       0
       0       0       0       0       0       0       0       0       0       0
       0       0       0       0       0       0       0       0       0       0
       0       0       0       0       0       0       0       0       0       0
       0       0       0       0       0       0       0       0       0       0
       0       0       0       0       0       0       0       0       0       0
       0       0       0       0       0       0       0       0       0       0
       0       0       0       0       0       0       0       0       0       0
       0       0       0       0       0       0       0       0       0       0
       0       0       0       0       0       0       0       0       0       0
       0       0       0       0       0       0       0       0       0       0
       0       0       0       0       0       0       0       0       0       0
       0       0       0       0       0       0       0       0       0       0
       0       0       0       0       0       0       0       0       0       0
       0       0       0       0       0       0       0       0       0       0
       0       0       0       0       0       0       0       0       0       0
       0       0       0       0       0       0       0       0       0       0
       0       0       0       0       0       0       0       0       0       0
       0       0       0       0       0       0       0       0       0       0
       0       0       0       0       0       0       0       0       0       0
       0       0       0       0       0       0       0       0       0       0
       0       0       0       0       0       0       0       0       0       0
       0       0       0       0       0       0       0       0       0       0
       0       0       0       0       0       0       0       0       0       0
       0       0       0       0       0       0       0       0       0       0
       0       0       0       0       0       0       0       0       0       0
       0       0       0       0       0       0       0       0       0       0
       0       0       0       0       0       0       0       0       0       0
       0       0       0       0       0       0       0       0       0       0
       0       0       0       0       0       0       0       0       0       0
       0       0       0       0       0       0       0       0       0       0
       0       0       0       0       0       0       0       0       0       0
       0       0       0       0       0       0       0       0       0       0
       0       0       0       0       0       0       0       0       0       0
       0       0       0       0       0       0       0       0       0       0
       0       0       0       0       0       0       0       0       0       0
       0       0       0       0       0       0       0       0       0       0
       0       0       0       0       0       0       0       0       0       0
       0       0       0       0       0       0       0       0       0       0
       0       0       0       0       0       0       0       0       0       0
       0       0       0       0       0       0       0       0       0       0
       0       0       0       0       0       0       0       0       0       0
       0       0       0       0       0       0       0       0       0       0
       0       0       0       0       0       0       0       0       0       0
       0       0       0       0       0       0       0       0       0       0
       0       0       0       0       0       0       0       0       0       0
       0       0       0       0       0       0       0       0       0       0
       0       0       0       0       0       0       0       0       0       0
       0       0       0       0       0       0       0       0       0       0
       0       0       0       0       0       0       0       0       0       0
       0       0       0       0       0       0       0       0       0       0
       0       0       0       0       0       0       0       0       0       0
       0       0       0       0       0       0       0       0       0       0
       0       0       0       0       0       0       0       0       0       0
       0       0       0       0       0       0       0       0       0       0
       0       0       0       0       0       0       0       0       0       0
       0       0       0       0       0       0       0       0       0       0
       0       0       0       0       0       0       0       0       0       0
       0       0       0       0       0       0       0       0       0       0
       0       0       0       0       0       0       0       0       0       0
       0       0       0       0       0       0       0       0       0       0
       0       0       0       0       0       0       0       0       0       0
       0       0       0       0       0       0       0       0       0       0
       0       0       0       0       0       0       0       0       0       0
       0       0       0       0       0       0       0       0       0       0
       0       0       0       0       0       0       0       0       0       0
       0       0       0       0       0       0       0       0       0       0
       0       0       0       0       0       0       0       0       0       0
       0       0       0       0       0       0       0       0       0       0
       0       0       0       0       0       0       0       0       0       0
       0       0       0       0       0       0       0       0       0       0
       0       0       0       0       0       0       0       0       0       0
       0       0       0       0       0       0       0       0       0       0
       0       0       0       0       0       0       0       0       0       0
       0       0       0       0       0       0       0       0       0       0
       0       0       0       0       0       0       0       0       0       0
       0       0       0       0       0       0       0       0       0       0
       0       0       0       0       0       0       0       0       0       0
       0       0       0       0       0       0       0       0       0       0
       0       0       0       0       0       0       0       0       0       0
       0       0       0       0       0       0       0       0       0       0
       0       0       0       0       0       0       0       0       0       0
       0       0       0       0       0       0       0       0       0       0
       0       0       0       0       0       0       0       0       0       0
       0       0       0       0       0       0       0       0       0       0
       0       0       0       0       0       0       0       0       0       0
       0       0       0       0       0       0       0       0       0       0
       0       0       0       0       0       0       0       0       0       0
       0       0       0       0       0       0       0       0       0       0
       0       0       0       0       0       0       0       0       0       0
       0       0       0       0       0       0       0       0       0       0
       0       0       0       0       0       0       0       0       0       0
       0       0       0       0       0       0       0       0       0       0
       0       0       0       0       0       0       0       0       0       0
       0       0       0       0       0       0       0       0       0       0
       0       0       0       0       0       0       0       0       0       0
       0       0       0       0       0       0       0       0       0       0
       0       0       0       0       0       0       0       0       0       0
       0       0       0       0       0       0       0       0       0       0
       0       0       0       0       0       0       0       0       0       0
       0       0       0       0       0       0       0       0       0       0
       0       0       0       0       0       0       0       0       0       0
       0       0       0       0       0       0       0       0       0       0
       0       0       0       0       0       0       0       0       0       0
       0       0       0       0       0       0       0       0       0       0
       0       0       0       0       0       0       0       0       0       0
       0       0       0       0       0       0       0       0       0       0
       0       0       0       0       0       0       0       0       0       0
       0       0       0       0       0       0       0       0       0       0
       0       0       0       0       0       0       0       0       0       0
       0       0       0       0       0       0       0       0       0       0
       0       0       0       0       0       0       0       0       0       0
       0       0       0       0       0       0       0       0       0       0
       0       0       0       0       0       0       0       0       0       0
       0       0       0       0       0       0       0       0       0       0
       0       0       0       0       0       0       0       0       0       0
       0       0       0       0       0       0       0       0       0       0
       0       0       0       0       0       0       0       0       0       0
       0       0       0       0       0       0       0       0       0       0
       0       0       0       0       0       0       0       0       0       0
       0       0       0       0       0       0       0       0       0       0
       0       0       0       0       0       0       0       0       0       0
       0       0       0       0       0       0       0       0       0       0
       0       0       0       0       0       0       0       0       0       0
       0       0       0       0       0       0       0       0       0       0
       0       0       0       0       0       0       0       0       0       0
       0       0       0       0       0       0       0       0       0       0
       0       0       0       0       0       0       0       0       0       0
       0       0       0       0       0       0       0       0       0       0
       0       0       0       0       0       0       0       0       0       0
       0       0       0       0       0       0       0       0       0       0
       0       0       0       0       0       0       0       0       0       0
       0       0       0       0       0       0       0       0       0       0
       0       0       0       0       0       0       0       0       0       0
       0       0       0       0       0       0       0       0       0       0
       0       0       0       0       0       0       0       0       0       0
       0       0       0       0       0       0       0       0       0       0
       0       0       0       0       0       0       0       0       0       0
       0       0       0       0       0       0       0       0       0       0
       0       0       0       0       0       0       0       0       0       0
       0       0       0       0       0       0       0       0       0       0
       0       0       0       0       0       0       0       0       0       0
       0       0       0       0       0       0       0       0       0       0
       0       0       0       0       0       0       0       0       0       0
       0       0       0       0       0       0       0       0       0       0
       0       0       0       0       0       0       0       0       0       0
       0       0       0       0       0       0       0       0       0       0
       0       0       0       0       0       0       0       0       0       0
       0       0       0       0       0       0       0       0       0       0
       0       0       0       0       0       0       0       0       0       0
       0       0       0       0       0       0       0       0       0       0
       0       0       0       0       0       0       0       0       0       0
       0       0       0       0       0       0       0       0       0       0
       0       0       0       0       0       0       0       0       0       0
       0       0       0       0       0       0       0       0       0       0
       0       0       0       0       0       0       0       0       0       0
       0       0       0       0       0       0       0       0       0       0
       0       0       0       0       0       0       0       0       0       0
       0       0       0       0       0       0       0       0       0       0
       0       0       0       0       0       0       0       0       0       0
       0       0       0       0       0       0       0       0       0       0
       0       0       0       0       0       0       0       0       0       0
       0       0       0       0       0       0       0       0       0       0
       0       0       0       0       0       0       0       0       0       0
       0       0       0       0       0       0       0       0       0       0
       0       0       0       0       0       0       0       0       0       0
       0       0       0       0       0       0       0       0       0       0
       0       0       0       0       0       0       0       0       0       0
       0       0       0       0       0       0       0       0       0       0
       0       0       0       0       0       0       0       0       0       0
       0       0       0       0       0       0       0       0       0       0
       0       0       0       0       0       0       0       0       0       0
       0       0       0       0       0       0       0       0       0       0
       0       0       0       0       0       0       0       0       0       0
       0       0       0       0       0       0       0       0       0       0
       0       0       0       0       0       0       0       0       0       0
       0       0       0       0       0       0       0       0       0       0
       0       0       0       0       0       0       0       0       0       0
       0       0       0       0       0       0       0       0       0       0
       0       0       0       0       0       0       0       0       0       0
       0       0       0       0       0       0       0       0       0       0
       0       0       0       0       0       0       0       0       0       0
       0       0       0       0       0       0       0       0       0       0
       0       0       0       0       0       0       0       0       0       0
       0       0       0       0       0       0       0       0       0       0
       0       0       0       0       0       0       0       0       0       0
       0       0       0       0       0       0       0       0       0       0
       0       0       0       0       0       0       0       0       0       0
       0       0       0       0       0       0       0       0       0       0
       0       0       0       0       0       0       0       0       0       0
       0       0       0       0       0       0       0       0       0       0
       0       0       0       0       0       0       0       0       0       0
       0       0       0       0       0       0       0       0       0       0
       0       0       0       0       0       0       0       0       0       0
       0       0       0       0       0       0       0       0       0       0
       0       0       0       0       0       0       0       0       0       0
       0       0       0       0       0       0       0       0       0       0
       0       0       0       0       0       0       0       0       0       0
       0       0       0       0       0       0       0       0       0       0
       0       0       0       0       0       0       0       0       0       0
       0       0       0       0       0       0       0       0       0       0
       0       0       0       0       0       0       0       0       0       0
       0       0       0       0       0       0       0       0       0       0
       0       0       0       0       0       0       0       0       0       0
       0       0       0       0       0       0       0       0       0       0
       0       0       0       0       0       0       0       0       0       0
       0       0       0       0       0       0       0       0       0       0
       0       0       0       0       0       0       0       0       0       0
       0       0       0       0       0       0       0       0       0       0
       0       0       0       0       0       0       0       0       0       0
       0       0       0       0       0       0       0       0       0       0
       0       0       0       0       0       0       0       0       0       0
       0       0       0       0       0       0       0       0       0       0
       0       0       0       0       0       0       0       0       0       0
       0       0       0       0       0       0       0       0       0       0
       0       0       0       0       0       0       0       0       0       0
       0       0       0       0       0       0       0       0       0       0
       0       0       0       0       0       0       0       0       0       0
       0       0       0       0       0       0       0       0       0       0
       0       0       0       0       0       0       0       0       0       0
       0       0       0       0       0       0       0       0       0       0
       0       0       0       0       0       0       0       0       0       0
       0       0       0       0       0       0       0       0       0       0
       0       0       0       0       0       0       0       0       0       0
       0       0       0       0       0       0       0       0       0       0
       0       0       0       0       0       0       0       0       0       0
       0       0       0       0       0       0       0       0       0       0
       0       0       0       0       0       0       0       0       0       0
       0       0       0       0       0       0       0       0       0       0
       0       0       0       0       0       0       0       0       0       0
       0       0       0       0       0       0       0       0       0       0
       0       0       0       0       0       0       0       0       0       0
       0       0       0       0       0       0       0       0       0       0
       0       0       0       0       0       0       0       0       0       0
       0       0       0       0       0       0       0       0       0       0
       0       0       0       0       0       0       0       0       0       0
       0       0       0       0       0       0       0       0       0       0
       0       0       0       0       0       0       0       0       0       0
       0       0       0       0       0       0       0       0       0       0
       0       0       0       0       0       0       0       0       0       0
       0       0       0       0       0       0       0       0       0       0
       0       0       0       0       0       0       0       0       0       0
       0       0       0       0       0       0       0       0       0       0
       0       0       0       0       0       0       0       0       0       0
       0       0       0       0       0       0       0       0       0       0
       0       0       0       0       0       0       0       0       0       0
       0       0       0       0       0       0       0       0       0       0
       0       0       0       0       0       0       0       0       0       0
       0       0       0       0       0       0       0       0       0       0
       0       0       0       0       0       0       0       0       0       0
       0       0       0       0       0       0       0       0       0       0
       0       0       0       0       0       0       0       0       0       0
       0       0       0       0       0       0       0       0       0       0
       0       0       0       0       0       0       0       0       0       0
       0       0       0       0       0       0       0       0       0       0
       0       0       0       0       0       0       0       0       0       0
       0       0       0       0       0       0       0       0       0       0
       0       0       0       0       0       0       0       0       0       0
       0       0       0       0       0       0       0       0       0       0
       0       0       0       0       0       0       0       0       0       0
       0       0       0       0       0       0       0       0       0       0
       0       0       0       0       0       0       0       0       0       0
       0       0       0       0       0       0       0       0       0       0
       0       0       0       0       0       0       0       0       0       0
       0       0       0       0       0       0       0       0       0       0
       0       0       0       0       0       0       0       0       0       0
       0       0       0       0       0       0       0       0       0       0
       0       0       0       0       0       0       0       0       0       0
       0       0       0       0       0       0       0       0       0       0
       0       0       0       0       0       0       0       0       0       0
       0       0       0       0       0       0       0       0       0       0
       0       0       0       0       0       0       0       0       0       0
       0       0       0       0       0       0       0       0       0       0
       0       0       0       0       0       0       0       0       0       0
       0       0       0       0       0       0       0       0       0       0
       0       0       0       0       0       0       0       0       0       0
       0       0       0       0       0       0       0       0       0       0
       0       0       0       0       0       0       0       0       0       0
       0       0       0       0       0       0       0       0       0       0
       0       0       0       0       0       0       0       0       0       0
       0       0       0       0       0       0       0       0       0       0
       0       0       0       0       0       0       0       0       0       0
       0       0       0       0       0       0       0       0       0       0
       0       0       0       0       0       0       0       0       0       0
       0       0       0       0       0       0       0       0       0       0
       0       0       0       0       0       0       0       0       0       0
       0       0       0       0       0       0       0       0       0       0
       0       0       0       0       0       0       0       0       0       0
       0       0       0       0       0       0       0       0       0       0
       0       0       0       0       0       0       0       0       0       0
       0       0       0       0       0       0       0       0       0       0
       0       0       0       0       0       0       0       0       0       0
       0       0       0       0       0       0       0       0       0       0
       0       0       0       0       0       0       0       0       0       0
       0       0       0       0       0       0       0       0       0       0
       0       0       0       0       0       0       0       0       0       0
       0       0       0       0       0       0       0       0       0       0
       0       0       0       0       0       0       0       0       0       0
       0       0       0       0       0       0       0       0       0       0
       0       0       0       0       0       0       0       0       0       0
       0       0       0       0       0       0       0       0       0       0
       0       0       0       0       0       0       0       0       0       0
       0       0       0       0       0       0       0       0       0       0
       0       0       0       0       0       0       0       0       0       0
       0       0       0       0       0       0       0       0       0       0
       0       0       0       0       0       0       0       0       0       0
       0       0       0       0       0       0       0       0       0       0
       0       0       0       0       0       0       0       0       0       0
       0       0       0       0       0       0       0       0       0       0
       0       0       0       0       0       0       0       0       0       0
       0       0       0       0       0       0       0       0       0       0
       0       0       0       0       0       0       0       0       0       0
       0       0       0       0       0       0       0       0       0       0
       0       0       0       0       0       0       0       0       0       0
       0       0       0       0       0       0       0       0       0       0
       0       0       0       0       0       0       0       0       0       0
       0       0       0       0       0       0       0       0       0       0
       0       0       0       0       0       0       0       0       0       0
       0       0       0       0       0       0       0       0       0       0
       0       0       0       0       0       0       0       0       0       0
       0       0       0       0       0       0       0       0       0       0
       0       0       0       0       0       0       0       0       0       0
       0       0       0       0       0       0       0       0       0       0
       0       0       0       0       0       0       0       0       0       0
       0       0       0       0       0       0       0       0       0       0
       0       0       0       0       0       0       0       0       0       0
       0       0       0       0       0       0       0       0       0       0
       0       0       0       0       0       0       0       0       0       0
       0       0       0       0       0       0       0       0       0       0
       0       0       0       0       0       0       0       0       0       0
       0       0       0       0       0       0       0       0       0       0
       0       0       0       0       0       0       0       0       0       0
       0       0       0       0       0       0       0       0       0       0
       0       0       0       0       0       0       0       0       0       0
       0       0       0       0       0       0       0       0       0       0
       0       0       0       0       0       0       0       0       0       0
       0       0       0       0       0       0       0       0       0       0
       0       0       0       0       0       0       0       0       0       0
       0       0       0       0       0       0       0       0       0       0
       0       0       0       0       0       0       0       0       0       0
       0       0       0       0       0       0       0       0       0       0
       0       0       0       0       0       0       0       0       0       0
       0       0       0       0       0       0       0       0       0       0
       0       0       0       0       0       0       0       0       0       0
       0       0       0       0       0       0       0       0       0       0
       0       0       0       0       0       0       0       0       0       0
       0       0       0       0       0       0       0       0       0       0
       0       0       0       0       0       0       0       0       0       0
       0       0       0       0       0       0       0       0       0       0
       0       0       0       0       0       0       0       0       0       0
       0       0       0       0       0       0       0       0       0       0
       0       0       0       0       0       0       0       0       0       0
       0       0       0       0       0       0       0       0       0       0
       0       0       0       0       0       0       0       0       0       0
       0       0       0       0       0       0       0       0       0       0
       0       0       0       0       0       0       0       0       0       0
       0       0       0       0       0       0       0       0       0       0
       0       0       0       0       0       0       0       0       0       0
       0       0       0       0       0       0       0       0       0       0
       0       0       0       0       0       0       0       0       0       0
       0       0       0       0       0       0       0       0       0       0
       0       0       0       0       0       0       0       0       0       0
       0       0       0       0       0       0       0       0       0       0
       0       0       0       0       0       0       0       0       0       0
       0       0       0       0       0       0       0       0       0       0
       0       0       0       0       0       0       0       0       0       0
       0       0       0       0       0       0       0       0       0       0
       0       0       0       0       0       0       0       0       0       0
       0       0       0       0       0       0       0       0       0       0
       0       0       0       0       0       0       0       0       0       0
       0       0       0       0       0       0       0       0       0       0
       0       0       0       0       0       0       0       0       0       0
       0       0       0       0       0       0       0       0       0       0
       0       0       0       0       0       0       0       0       0       0
       0       0       0       0       0       0       0       0       0       0
       0       0       0       0       0       0       0       0       0       0
       0       0       0       0       0       0       0       0       0       0
       0       0       0       0       0       0       0       0       0       0
       0       0       0       0       0       0       0       0       0       0
       0       0       0       0       0       0       0       0       0       0
       0       0       0       0       0       0       0       0       0       0
       0       0       0       0       0       0       0       0       0       0
       0       0       0       0       0       0       0       0       0       0
       0       0       0       0       0       0       0       0       0       0
       0       0       0       0       0       0       0       0       0       0
       0       0       0       0       0       0       0       0       0       0
       0       0       0       0       0       0       0       0       0       0
       0       0       0       0       0       0       0       0       0       0
       0       0       0       0       0       0       0       0       0       0
       0       0       0       0       0       0       0       0       0       0
       0       0       0       0       0       0       0       0       0       0
       0       0       0       0       0       0       0       0       0       0
       0       0       0       0       0       0       0       0       0       0
       0       0       0       0       0       0       0       0       0       0
       0       0       0       0       0       0       0       0       0       0
       0       0       0       0       0       0       0       0       0       0
       0       0       0       0       0       0       0       0       0       0
       0       0       0       0       0       0       0       0       0       0
       0       0       0       0       0       0       0       0       0       0
       0       0       0       0       0       0       0       0       0       0
       0       0       0       0       0       0       0       0       0       0
       0       0       0       0       0       0       0       0       0       0
       0       0       0       0       0       0       0       0       0       0
       0       0       0       0       0       0       0       0       0       0
       0       0       0       0       0       0       0       0       0       0
       0       0       0       0       0       0       0       0       0       0
       0       0       0       0       0       0       0       0       0       0
       0       0       0       0       0       0       0       0       0       0
       0       0       0       0       0       0       0       0       0       0
       0       0       0       0       0       0       0       0       0       0
       0       0       0       0       0       0       0       0       0       0
       0       0       0       0       0       0       0       0       0       0
       0       0       0       0       0       0       0       0       0       0
       0       0       0       0       0       0       0       0       0       0
       0       0       0       0       0       0       0       0       0       0
       0       0       0       0       0       0       0       0       0       0
       0       0       0       0       0       0       0       0       0       0
       0       0       0       0       0       0       0       0       0       0
       0       0       0       0       0       0       0       0       0       0
       0       0       0       0       0       0       0       0       0       0
       0       0       0       0       0       0       0       0       0       0
       0       0       0       0       0       0       0       0       0       0
       0       0       0       0       0       0       0       0       0       0
       0       0       0       0       0       0       0       0       0       0
       0       0       0       0       0       0       0       0       0       0
       0       0       0       0       0       0       0       0       0       0
       0       0       0       0       0       0       0       0       0       0
       0       0       0       0       0       0       0       0       0       0
       0       0       0       0       0       0       0       0       0       0
       0       0       0       0       0       0       0       0       0       0
       0       0       0       0       0       0       0       0       0       0
       0       0       0       0       0       0       0       0       0       0
       0       0       0       0       0       0       0       0       0       0
       0       0       0       0       0       0       0       0       0       0
       0       0       0       0       0       0       0       0       0       0
       0       0       0       0       0       0       0       0       0       0
       0       0       0       0       0       0       0       0       0       0
       0       0       0       0       0       0       0       0       0       0
       0       0       0       0       0       0       0       0       0       0
       0       0       0       0       0       0       0       0       0       0
       0       0       0       0       0       0       0       0       0       0
       0       0       0       0       0       0       0       0       0       0
       0       0       0       0       0       0       0       0       0       0
       0       0       0       0       0       0       0       0       0       0
       0       0       0       0       0       0       0       0       0       0
       0       0       0       0       0       0       0       0       0       0
       0       0       0       0       0       0       0       0       0       0
       0       0       0       0       0       0       0       0       0       0
       0       0       0       0       0       0       0       0       0       0
       0       0       0       0       0       0       0       0       0       0
       0       0       0       0       0       0       0       0       0       0
       0       0       0       0       0       0       0       0       0       0
       0       0       0       0       0       0       0       0       0       0
       0       0       0       0       0       0       0       0       0       0
       0       0       0       0       0       0       0       0       0       0
       0       0       0       0       0       0       0       0       0       0
       0       0       0       0       0       0       0       0       0       0
       0       0       0       0       0       0       0       0       0       0
       0       0       0       0       0       0       0       0       0       0
       0       0       0       0       0       0       0       0       0       0
       0       0       0       0       0       0       0       0       0       0
       0       0       0       0       0       0       0       0       0       0
       0       0       0       0       0       0       0       0       0       0
       0       0       0       0       0       0       0       0       0       0
       0       0       0       0       0       0       0       0       0       0
       0       0       0       0       0       0       0       0       0       0
       0       0       0       0       0       0       0       0       0       0
       0       0       0       0       0       0       0       0       0       0
       0       0       0       0       0       0       0       0       0       0
       0       0       0       0       0       0       0       0       0       0
       0       0       0       0       0       0       0       0       0       0
       0       0       0       0       0       0       0       0       0       0
       0       0       0       0       0       0       0       0       0       0
       0       0       0       0       0       0       0       0       0       0
       0       0       0       0       0       0       0       0       0       0
       0       0       0       0       0       0       0       0       0       0
       0       0       0       0       0       0       0       0       0       0
       0       0       0       0       0       0       0       0       0       0
       0       0       0       0       0       0       0       0       0       0
       0       0       0       0       0       0       0       0       0       0
       0       0       0       0       0       0       0       0       0       0
       0       0       0       0       0       0       0       0       0       0
       0       0       0       0       0       0       0       0       0       0
       0       0       0       0       0       0       0       0       0       0
       0       0       0       0       0       0       0       0       0       0
       0       0       0       0       0       0       0       0       0       0
       0       0       0       0       0       0       0       0       0       0
       0       0       0       0       0       0       0       0       0       0
       0       0       0       0       0       0       0       0       0       0
       0       0       0       0       0       0       0       0       0       0
       0       0       0       0       0       0       0       0       0       0
       0       0       0       0       0       0       0       0       0       0
       0       0       0       0       0       0       0       0       0       0
       0       0       0       0       0       0       0       0       0       0
       0       0       0       0       0       0       0       0       0       0
       0       0       0       0       0       0       0       0       0       0
       0       0       0       0       0       0       0       0       0       0
       0       0       0       0       0       0       0       0       0       0
       0       0       0       0       0       0       0       0       0       0
       0       0       0       0       0       0       0       0       0       0
       0       0       0       0       0       0       0       0       0       0
       0       0       0       0       0       0       0       0       0       0
       0       0       0       0       0       0       0       0       0       0
       0       0       0       0       0       0       0       0       0       0
       0       0       0       0       0       0       0       0       0       0
       0       0       0       0       0       0       0       0       0       0
       0       0       0       0       0       0       0       0       0       0
       0       0       0       0       0       0       0       0       0       0
       0       0       0       0       0       0       0       0       0       0
       0       0       0       0       0       0       0       0       0       0
       0       0       0       0       0       0       0       0       0       0
       0       0       0       0       0       0       0       0       0       0
       0       0       0       0       0       0       0       0       0       0
       0       0       0       0       0       0       0       0       0       0
       0       0       0       0       0       0       0       0       0       0
       0       0       0       0       0       0       0       0       0       0
       0       0       0       0       0       0       0       0       0       0
       0       0       0       0       0       0       0       0       0       0
       0       0       0       0       0       0       0       0       0       0
       0       0       0       0       0       0       0       0       0       0
       0       0       0       0       0       0       0       0       0       0
       0       0       0       0       0       0       0       0       0       0
       0       0       0       0       0       0       0       0       0       0
       0       0       0       0       0       0       0       0       0       0
       0       0       0       0       0       0       0       0       0       0
       0       0       0       0       0       0       0       0       0       0
       0       0       0       0       0       0       0       0       0       0
       0       0       0       0       0       0       0       0       0       0
       0       0       0       0       0       0       0       0       0       0
       0       0       0       0       0       0       0       0       0       0
       0       0       0       0       0       0       0       0       0       0
       0       0       0       0       0       0       0       0       0       0
       0       0       0       0       0       0       0       0       0       0
       0       0       0       0       0       0       0       0       0       0
       0       0       0       0       0       0       0       0       0       0
       0       0       0       0       0       0       0       0       0       0
       0       0       0       0       0       0       0       0       0       0
       0       0       0       0       0       0       0       0       0       0
       0       0       0       0       0       0       0       0       0       0
       0       0       0       0       0       0       0       0       0       0
       0       0       0       0       0       0       0       0       0       0
       0       0       0       0       0       0       0       0       0       0
       0       0       0       0       0       0       0       0       0       0
       0       0       0       0       0       0       0       0       0       0
       0       0       0       0       0       0       0       0       0       0
       0       0       0       0       0       0       0       0       0       0
       0       0       0       0       0       0       0       0       0       0
       0       0       0       0       0       0       0       0       0       0
       0       0       0       0       0       0       0       0       0       0
       0       0       0       0       0       0       0       0       0       0
       0       0       0       0       0       0       0       0       0       0
       0       0       0       0       0       0       0       0       0       0
       0       0       0       0       0       0       0       0       0       0
       0       0       0       0       0       0       0       0       0       0
       0       0       0       0       0       0       0       0       0       0
       0       0       0       0       0       0       0       0       0       0
       0       0       0       0       0       0       0       0       0       0
       0       0       0       0       0       0       0       0       0       0
       0       0       0       0       0       0       0       0       0       0
       0       0       0       0       0       0       0       0       0       0
       0       0       0       0       0       0       0       0       0       0
       0       0       0       0       0       0       0       0       0       0
       0       0       0       0       0       0       0       0       0       0
       0       0       0       0       0       0       0       0       0       0
       0       0       0       0       0       0       0       0       0       0
       0       0       0       0       0       0       0       0       0       0
       0       0       0       0       0       0       0       0       0       0
       0       0       0       0       0       0       0       0       0       0
       0       0       0       0       0       0       0       0       0       0
       0       0       0       0       0       0       0       0       0       0
       0       0       0       0       0       0       0       0       0       0
       0       0       0       0       0       0       0       0       0       0
       0       0       0       0       0       0       0       0       0       0
       0       0       0       0       0       0       0       0       0       0
       0       0       0       0       0       0       0       0       0       0
       0       0       0       0       0       0       0       0       0       0
       0       0       0       0       0       0       0       0       0       0
       0       0       0       0       0       0       0       0       0       0
       0       0       0       0       0       0       0       0       0       0
       0       0       0       0       0       0       0       0       0       0
       0       0       0       0       0       0       0       0       0       0
       0       0       0       0       0       0       0       0       0       0
       0       0       0       0       0       0       0       0       0       0
       0       0       0       0       0       0       0       0       0       0
       0       0       0       0       0       0       0       0       0       0
       0       0       0       0       0       0       0       0       0       0
       0       0       0       0       0       0       0       0       0       0
       0       0       0       0       0       0       0       0       0       0
       0       0       0       0       0       0       0       0       0       0
       0       0       0       0       0       0       0       0       0       0
       0       0       0       0       0       0       0       0       0       0
       0       0       0       0       0       0       0       0       0       0
       0       0       0       0       0       0       0       0       0       0
       0       0       0       0       0       0       0       0       0       0
       0       0       0       0       0       0       0       0       0       0
       0       0       0       0       0       0       0       0       0       0
       0       0       0       0       0       0       0       0       0       0
       0       0       0       0       0       0       0       0       0       0
       0       0       0       0       0       0       0       0       0       0
       0       0       0       0       0       0       0       0       0       0
       0       0       0       0       0       0       0       0       0       0
       0       0       0       0       0       0       0       0       0       0
       0       0       0       0       0       0       0       0       0       0
       0       0       0       0       0       0       0       0       0       0
       0       0       0       0       0       0       0       0       0       0
       0       0       0       0       0       0       0       0       0       0
       0       0       0       0       0       0       0       0       0       0
       0       0       0       0       0       0       0       0       0       0
       0       0       0       0       0       0       0       0       0       0
       0       0       0       0       0       0       0       0       0       0
       0       0       0       0       0       0       0       0       0       0
       0       0       0       0       0       0       0       0       0       0
       0       0       0       0       0       0       0       0       0       0
       0       0       0       0       0       0       0       0       0       0
       0       0       0       0       0       0       0       0       0       0
       0       0       0       0       0       0       0       0       0       0
       0       0       0       0       0       0       0       0       0       0
       0       0       0       0       0       0       0       0       0       0
       0       0       0       0       0       0       0       0       0       0
       0       0       0       0       0       0       0       0       0       0
       0       0       0       0       0       0       0       0       0       0
       0       0       0       0       0       0       0       0       0       0
       0       0       0       0       0       0       0       0       0       0
       0       0       0       0       0       0       0       0       0       0
       0       0       0       0       0       0       0       0       0       0
       0       0       0       0       0       0       0       0       0       0
       0       0       0       0       0       0       0       0       0       0
       0       0       0       0       0       0       0       0       0       0
       0       0       0       0       0       0       0       0       0       0
       0       0       0       0       0       0       0       0       0       0
       0       0       0       0       0       0       0       0       0       0
       0       0       0       0       0       0       0       0       0       0
       0       0       0       0       0       0       0       0       0       0
       0       0       0       0       0       0       0       0       0       0
       0       0       0       0       0       0       0       0       0       0
       0       0       0       0       0       0       0       0       0       0
       0       0       0       0       0       0       0       0       0       0
       0       0       0       0       0       0       0       0       0       0
       0       0       0       0       0       0       0       0       0       0
       0       0       0       0       0       0       0       0       0       0
       0       0       0       0       0       0       0       0       0       0
       0       0       0       0       0       0       0       0       0       0
       0       0       0       0       0       0       0       0       0       0
       0       0       0       0       0       0       0       0       0       0
       0       0       0       0       0       0       0       0       0       0
       0       0       0       0       0       0       0       0       0       0
       0       0       0       0       0       0       0       0       0       0
       0       0       0       0       0       0       0       0       0       0
       0       0       0       0       0       0       0       0       0       0
       0       0       0       0       0       0       0       0       0       0
       0       0       0       0       0       0       0       0       0       0
       0       0       0       0       0       0       0       0       0       0
       0       0       0       0       0       0       0       0       0       0
       0       0       0       0       0       0       0       0       0       0
       0       0       0       0       0       0       0       0       0       0
       0       0       0       0       0       0       0       0       0       0
       0       0       0       0       0       0       0       0       0       0
       0       0       0       0       0       0       0       0       0       0
       0       0       0       0       0       0       0       0       0       0
       0       0       0       0       0       0       0       0       0       0
       0       0       0       0       0       0       0       0       0       0
       0       0       0       0       0       0       0       0       0       0
       0       0       0       0       0       0       0       0       0       0
       0       0       0       0       0       0       0       0       0       0
       0       0       0       0       0       0       0       0       0       0
       0       0       0       0       0       0       0       0       0       0
       0       0       0       0       0       0       0       0       0       0
       0       0       0       0       0       0       0       0       0       0
       0       0       0       0       0       0       0       0       0       0
       0       0       0       0       0       0       0       0       0       0
       0       0       0       0       0       0       0       0       0       0
       0       0       0       0       0       0       0       0       0       0
       0       0       0       0       0       0       0       0       0       0
       0       0       0       0       0       0       0       0       0       0
       0       0       0       0       0       0       0       0       0       0
       0       0       0       0       0       0       0       0       0       0
       0       0       0       0       0       0       0       0       0       0
       0       0       0       0       0       0       0       0       0       0
       0       0       0       0       0       0       0       0       0       0
       0       0       0       0       0       0       0       0       0       0
       0       0       0       0       0       0       0       0       0       0
       0       0       0       0       0       0       0       0       0       0
       0       0       0       0       0       0       0       0       0       0
       0       0       0       0       0       0       0       0       0       0
       0       0       0       0       0       0       0       0       0       0
       0       0       0       0       0       0       0       0       0       0
       0       0       0       0       0       0       0       0       0       0
       0       0       0       0       0       0       0       0       0       0
       0       0       0       0       0       0       0       0       0       0
       0       0       0       0       0       0       0       0       0       0
       0       0       0       0       0       0       0       0       0       0
       0       0       0       0       0       0       0       0       0       0
       0       0       0       0       0       0       0       0       0       0
       0       0       0       0       0       0       0       0       0       0
       0       0       0       0       0       0       0       0       0       0
       0       0       0       0       0       0       0       0       0       0
       0       0       0       0       0       0       0       0       0       0
       0       0       0       0       0       0       0       0       0       0
       0       0       0       0       0       0       0       0       0       0
       0       0       0       0       0       0       0       0       0       0
       0       0       0       0       0       0       0       0       0       0
       0       0       0       0       0       0       0       0       0       0
       0       0       0       0       0       0       0       0       0       0
       0       0       0       0       0       0       0       0       0       0
       0       0       0       0       0       0       0       0       0       0
       0       0       0       0       0       0       0       0       0       0
       0       0       0       0       0       0       0       0       0       0
       0       0       0       0       0       0       0       0       0       0
       0       0       0       0       0       0       0       0       0       0
       0       0       0       0       0       0       0       0       0       0
       0       0       0       0       0       0       0       0       0       0
       0       0       0       0       0       0       0       0       0       0
       0       0       0       0       0       0       0       0       0       0
       0       0       0       0       0       0       0       0       0       0
       0       0       0       0       0       0       0       0       0       0
       0       0       0       0       0       0       0       0       0       0
       0       0       0       0       0       0       0       0       0       0
       0       0       0       0       0       0       0       0       0       0
       0       0       0       0       0       0       0       0       0       0
       0       0       0       0       0       0       0       0       0       0
       0       0       0       0       0       0       0       0       0       0
       0       0       0       0       0       0       0       0       0       0
       0       0       0       0       0       0       0       0       0       0
       0       0       0       0       0       0       0       0       0       0
       0       0       0       0       0       0       0       0       0       0
       0       0       0       0       0       0       0       0       0       0
       0       0       0       0       0       0       0       0       0       0
       0       0       0       0       0       0       0       0       0       0
       0       0       0       0       0       0       0       0       0       0
       0       0       0       0       0       0       0       0       0       0
       0       0       0       0       0       0       0       0       0       0
       0       0       0       0       0       0       0       0       0       0
       0       0       0       0       0       0       0       0       0       0
       0       0       0       0       0       0       0       0       0       0
       0       0       0       0       0       0       0       0       0       0
       0       0       0       0       0       0       0       0       0       0
       0       0       0       0       0       0       0       0       0       0
       0       0       0       0       0       0       0       0       0       0
       0       0       0       0       0       0       0       0       0       0
       0       0       0       0       0       0       0       0       0       0
       0       0       0       0       0       0       0       0       0       0
       0       0       0       0       0       0       0       0       0       0
       0       0       0       0       0       0       0       0       0       0
       0       0       0       0       0       0       0       0       0       0
       0       0       0       0       0       0       0       0       0       0
       0       0       0       0       0       0       0       0       0       0
       0       0       0       0       0       0       0       0       0       0
       0       0       0       0       0       0       0       0       0       0
       0       0       0       0       0       0       0       0       0       0
       0       0       0       0       0       0       0       0       0       0
       0       0       0       0       0       0       0       0       0       0
       0       0       0       0       0       0       0       0       0       0
       0       0       0       0       0       0       0       0       0       0
       0       0       0       0       0       0       0       0       0       0
       0       0       0       0       0       0       0       0       0       0
       0       0       0       0       0       0       0       0       0       0
       0       0       0       0       0       0       0       0       0       0
       0       0       0       0       0       0       0       0       0       0
       0       0       0       0       0       0       0       0       0       0
       0       0       0       0       0       0       0       0       0       0
       0       0       0       0       0       0       0       0       0       0
       0       0       0       0       0       0       0       0       0       0
       0       0       0       0       0       0       0       0       0       0
       0       0       0       0       0       0       0       0       0       0
       0       0       0       0       0       0       0       0       0       0
       0       0       0       0       0       0       0       0       0       0
       0       0       0       0       0       0       0       0       0       0
       0       0       0       0       0       0       0       0       0       0
       0       0       0       0       0       0       0       0       0       0
       0       0       0       0       0       0       0       0       0       0
       0       0       0       0       0       0       0       0       0       0
       0       0       0       0       0       0       0       0       0       0
       0       0       0       0       0       0       0       0       0       0
       0       0       0       0       0       0       0       0       0       0
       0       0       0       0       0       0       0       0       0       0
       0       0       0       0       0       0       0       0       0       0
       0       0       0       0       0       0       0       0       0       0
       0       0       0       0       0       0       0       0       0       0
       0       0       0       0       0       0       0       0       0       0
       0       0       0       0       0       0       0       0       0       0
       0       0       0       0       0       0       0       0       0       0
       0       0       0       0       0       0       0       0       0       0
       0       0       0       0       0       0       0       0       0       0
       0       0       0       0       0       0       0       0       0       0
       0       0       0       0       0       0       0       0       0       0
       0       0       0       0       0       0       0       0       0       0
       0       0       0       0       0       0       0       0       0       0
       0       0       0       0       0       0       0       0       0       0
       0       0       0       0       0       0       0       0       0       0
       0       0       0       0       0       0       0       0       0       0
       0       0       0       0       0       0       0       0       0       0
       0       0       0       0       0       0       0       0       0       0
       0       0       0       0       0       0       0       0       0       0
       0       0       0       0       0       0       0       0       0       0
       0       0       0       0       0       0       0       0       0       0
       0       0       0       0       0       0       0       0       0       0
       0       0       0       0       0       0       0       0       0       0
       0       0       0       0       0       0       0       0       0       0
       0       0       0       0       0       0       0       0       0       0
       0       0       0       0       0       0       0       0       0       0
       0       0       0       0       0       0       0       0       0       0
       0       0       0       0       0       0       0       0       0       0
       0       0       0       0       0       0       0       0       0       0
       0       0       0       0       0       0       0       0       0       0
       0       0       0       0       0       0       0       0       0       0
       0       0       0       0       0       0       0       0       0       0
       0       0       0       0       0       0       0       0       0       0
       0       0       0       0       0       0       0       0       0       0
       0       0       0       0       0       0       0       0       0       0
       0       0       0       0       0       0       0       0       0       0
       0       0       0       0       0       0       0       0       0       0
       0       0       0       0       0       0       0       0       0       0
       0       0       0       0       0       0       0       0       0       0
       0       0       0       0       0       0       0       0       0       0
       0       0       0       0       0       0       0       0       0       0
       0       0       0       0       0       0       0       0       0       0
       0       0       0       0       0       0       0       0       0       0
       0       0       0       0       0       0       0       0       0       0
       0       0       0       0       0       0       0       0       0       0
       0       0       0       0       0       0       0       0       0       0
       0       0       0       0       0       0       0       0       0       0
       0       0       0       0       0       0       0       0       0       0
       0       0       0       0       0       0       0       0       0       0
       0       0       0       0       0       0       0       0       0       0
       0       0       0       0       0       0       0       0       0       0
       0       0       0       0       0       0       0       0       0       0
       0       0       0       0       0       0       0       0       0       0
       0       0       0       0       0       0       0       0       0       0
       0       0       0       0       0       0       0       0       0       0
       0       0       0       0       0       0       0       0       0       0
       0       0       0       0       0       0       0       0       0       0
       0       0       0       0       0       0       0       0       0       0
       0       0       0       0       0       0       0       0       0       0
       0       0       0       0       0       0       0       0       0       0
       0       0       0       0       0       0       0       0       0       0
       0       0       0       0       0       0       0       0       0       0
       0       0       0       0       0       0       0       0       0       0
       0       0       0       0       0       0       0       0       0       0
       0       0       0       0       0       0       0       0       0       0
       0       0       0       0       0       0       0       0       0       0
       0       0       0       0       0       0       0       0       0       0
       0       0       0       0       0       0       0       0       0       0
       0       0       0       0       0       0       0       0       0       0
       0       0       0       0       0       0       0       0       0       0
       0       0       0       0       0       0       0       0       0       0
       0       0       0       0       0       0       0       0       0       0
       0       0       0       0       0       0       0       0       0       0
       0       0       0       0       0       0       0       0       0       0
       0       0       0       0       0       0       0       0       0       0
       0       0       0       0       0       0       0       0       0       0
       0       0       0       0       0       0       0       0       0       0
       0       0       0       0       0       0       0       0       0       0
       0       0       0       0       0       0       0       0       0       0
       0       0       0       0       0       0       0       0       0       0
       0       0       0       0       0       0       0       0       0       0
       0       0       0       0       0       0       0       0       0       0
       0       0       0       0       0       0       0       0       0       0
       0       0       0       0       0       0       0       0       0       0
       0       0       0       0       0       0       0       0       0       0
       0       0       0       0       0       0       0       0       0       0
       0       0       0       0       0       0       0       0       0       0
       0       0       0       0       0       0       0       0       0       0
       0       0       0       0       0       0       0       0       0       0
       0       0       0       0       0       0       0       0       0       0
       0       0       0       0       0       0       0       0       0       0
       0       0       0       0       0       0       0       0       0       0
       0       0       0       0       0       0       0       0       0       0
       0       0       0       0       0       0       0       0       0       0
       0       0       0       0       0       0       0       0       0       0
       0       0       0       0       0       0       0       0       0       0
       0       0       0       0       0       0       0       0       0       0
       0       0       0       0       0       0       0       0       0       0
       0       0       0       0       0       0       0       0       0       0
       0       0       0       0       0       0       0       0       0       0
       0       0       0       0       0       0       0       0       0       0
       0       0       0       0       0       0       0       0       0       0
       0       0       0       0       0       0       0       0       0       0
       0       0       0       0       0       0       0       0       0       0
       0       0       0       0       0       0       0       0       0       0
       0       0       0       0       0       0       0       0       0       0
       0       0       0       0       0       0       0       0       0       0
       0       0       0       0       0       0       0       0       0       0
       0       0       0       0       0       0       0       0       0       0
       0       0       0       0       0       0       0       0       0       0
       0       0       0       0       0       0       0       0       0       0
       0       0       0       0       0       0       0       0       0       0
       0       0       0       0       0       0       0       0       0       0
       0       0       0       0       0       0       0       0       0       0
       0       0       0       0       0       0       0       0       0       0
       0       0       0       0       0       0       0       0       0       0
       0       0       0       0       0       0       0       0       0       0
       0       0       0       0       0       0       0       0       0       0
       0       0       0       0       0       0       0       0       0       0
       0       0       0       0       0       0       0       0       0       0
       0       0       0       0       0       0       0       0       0       0
       0       0       0       0       0       0       0       0       0       0
       0       0       0       0       0       0       0       0       0       0
       0       0       0       0       0       0       0       0       0       0
       0       0       0       0       0       0       0       0       0       0
       0       0       0       0       0       0       0       0       0       0
       0       0       0       0       0       0       0       0       0       0
       0       0       0       0       0       0       0       0       0       0
       0       0       0       0       0       0       0       0       0       0
       0       0       0       0       0       0       0       0       0       0
       0       0       0       0       0       0       0       0       0       0
       0       0       0       0       0       0       0       0       0       0
       0       0       0       0       0       0       0       0       0       0
       0       0       0       0       0       0       0       0       0       0
       0       0       0       0       0       0       0       0       0       0
       0       0       0       0       0       0       0       0       0       0
       0       0       0       0       0       0       0       0       0       0
       0       0       0       0       0       0       0       0       0       0
       0       0       0       0       0       0       0       0       0       0
       0       0       0       0       0       0       0       0       0       0
       0       0       0       0       0       0       0       0       0       0
       0       0       0       0       0       0       0       0       0       0
       0       0       0       0       0       0       0       0       0       0
       0       0       0       0       0       0       0       0       0       0
       0       0       0       0       0       0       0       0       0       0
       0       0       0       0       0       0       0       0       0       0
       0       0       0       0       0       0       0       0       0       0
       0       0       0       0       0       0       0       0       0       0
       0       0       0       0       0       0       0       0       0       0
       0       0       0       0       0       0       0       0       0       0
       0       0       0       0       0       0       0       0       0       0
       0       0       0       0       0       0       0       0       0       0
       0       0       0       0       0       0       0       0       0       0
       0       0       0       0       0       0       0       0       0       0
       0       0       0       0       0       0       0       0       0       0
       0       0       0       0       0       0       0       0       0       0
       0       0       0       0       0       0       0       0       0       0
       0       0       0       0       0       0       0       0       0       0
       0       0       0       0       0       0       0       0       0       0
       0       0       0       0       0       0       0       0       0       0
       0       0       0       0       0       0       0       0       0       0
       0       0       0       0       0       0       0       0       0       0
       0       0       0       0       0       0       0       0       0       0
       0       0       0       0       0       0       0       0       0       0
       0       0       0       0       0       0       0       0       0       0
       0       0       0       0       0       0       0       0       0       0
       0       0       0       0       0       0       0       0       0       0
       0       0       0       0       0       0       0       0       0       0
       0       0       0       0       0       0       0       0       0       0
       0       0       0       0       0       0       0       0       0       0
       0       0       0       0       0       0       0       0       0       0
       0       0       0       0       0       0       0       0       0       0
       0       0       0       0       0       0       0       0       0       0
       0       0       0       0       0       0       0       0       0       0
       0       0       0       0       0       0       0       0       0       0
       0       0       0       0       0       0       0       0       0       0
       0       0       0       0       0       0       0       0       0       0
       0       0       0       0       0       0       0       0       0       0
       0       0       0       0       0       0       0       0       0       0
       0       0       0       0       0       0       0       0       0       0
       0       0       0       0       0       0       0       0       0       0
       0       0       0       0       0       0       0       0       0       0
       0       0       0       0       0       0       0       0       0       0
       0       0       0       0       0       0       0       0       0       0
       0       0       0       0       0       0       0       0       0       0
       0       0       0       0       0       0       0       0       0       0
       0       0       0       0       0       0       0       0       0       0
       0       0       0       0       0       0       0       0       0       0
       0       0       0       0       0       0       0       0       0       0
       0       0       0       0       0       0       0       0       0       0
       0       0       0       0       0       0       0       0       0       0
       0       0       0       0       0       0       0       0       0       0
       0       0       0       0       0       0       0       0       0       0
       0       0       0       0       0       0       0       0       0       0
       0       0       0       0       0       0       0       0       0       0
       0       0       0       0       0       0       0       0       0       0
       0       0       0       0       0       0       0       0       0       0
       0       0       0       0       0       0       0       0       0       0
       0       0       0       0       0       0       0       0       0       0
       0       0       0       0       0       0       0       0       0       0
       0       0       0       0       0       0       0       0       0       0
       0       0       0       0       0       0       0       0       0       0
       0       0       0       0       0       0       0       0       0       0
       0       0       0       0       0       0       0       0       0       0
       0       0       0       0       0       0       0       0       0       0
       0       0       0       0       0       0       0       0       0       0
       0       0       0       0       0       0       0       0       0       0
       0       0       0       0       0       0       0       0       0       0
       0       0       0       0       0       0       0       0       0       0
       0       0       0       0       0       0       0       0       0       0
       0       0       0       0       0       0       0       0       0       0
       0       0       0       0       0       0       0       0       0       0
       0       0       0       0       0       0       0       0       0       0
       0       0       0       0       0       0       0       0       0       0
       0       0       0       0       0       0       0       0       0       0
       0       0       0       0       0       0       0       0       0       0
       0       0       0       0       0       0       0       0       0       0
       0       0       0       0       0       0       0       0       0       0
       0       0       0       0       0       0       0       0       0       0
       0       0       0       0       0       0       0       0       0       0
       0       0       0       0       0       0       0       0       0       0
       0       0       0       0       0       0       0       0       0       0
       0       0       0       0       0       0       0       0       0       0
       0       0       0       0       0       0       0       0       0       0
       0       0       0       0       0       0       0       0       0       0
       0       0       0       0       0       0       0       0       0       0
       0       0       0       0       0       0       0       0       0       0
       0       0       0       0       0       0       0       0       0       0
       0       0       0       0       0       0       0       0       0       0
       0       0       0       0       0       0       0       0       0       0
       0       0       0       0       0       0       0       0       0       0
       0       0       0       0       0       0       0       0       0       0
       0       0       0       0       0       0       0       0       0       0
       0       0       0       0       0       0       0       0       0       0
       0       0       0       0       0       0       0       0       0       0
       0       0       0       0       0       0       0       0       0       0
       0       0       0       0       0       0       0       0       0       0
       0       0       0       0       0       0       0       0       0       0
       0       0       0       0       0       0       0       0       0       0
       0       0       0       0       0       0       0       0       0       0
       0       0       0       0       0       0       0       0       0       0
       0       0       0       0       0       0       0       0       0       0
       0       0       0       0       0       0       0       0       0       0
       0       0       0       0       0       0       0       0       0       0
       0       0       0       0       0       0       0       0       0       0
       0       0       0       0       0       0       0       0       0       0
       0       0       0       0       0       0       0       0       0       0
       0       0       0       0       0       0       0       0       0       0
       0       0       0       0       0       0       0       0       0       0
       0       0       0       0       0       0       0       0       0       0
       0       0       0       0       0       0       0       0       0       0
       0       0       0       0       0       0       0       0       0       0
       0       0       0       0       0       0       0       0       0       0
       0       0       0       0       0       0       0       0       0       0
       0       0       0       0       0       0       0       0       0       0
       0       0       0       0       0       0       0       0       0       0
       0       0       0       0       0       0       0       0       0       0
       0       0       0       0       0       0       0       0       0       0
       0       0       0       0       0       0       0       0       0       0
       0       0       0       0       0       0       0       0       0       0
       0       0       0       0       0       0       0       0       0       0
       0       0       0       0       0       0       0       0       0       0
       0       0       0       0       0       0       0       0       0       0
       0       0       0       0       0       0       0       0       0       0
       0       0       0       0       0       0       0       0       0       0
       0       0       0       0       0       0       0       0       0       0
       0       0       0       0       0       0       0       0       0       0
       0       0       0       0       0       0       0       0       0       0
       0       0       0       0       0       0       0       0       0       0
       0       0       0       0       0       0       0       0       0       0
       0       0       0       0       0       0       0       0       0       0
       0       0       0       0       0       0       0       0       0       0
       0       0       0       0       0       0       0       0       0       0
       0       0       0       0       0       0       0       0       0       0
       0       0       0       0       0       0       0       0       0       0
       0       0       0       0       0       0       0       0       0       0
       0       0       0       0       0       0       0       0       0       0
       0       0       0       0       0       0       0       0       0       0
       0       0       0       0       0       0       0       0       0       0
       0       0       0       0       0       0       0       0       0       0
       0       0       0       0       0       0       0       0       0       0
       0       0       0       0       0       0       0       0       0       0
       0       0       0       0       0       0       0       0       0       0
       0       0       0       0       0       0       0       0       0       0
       0       0       0       0       0       0       0       0       0       0
       0       0       0       0       0       0       0       0       0       0
       0       0       0       0       0       0       0       0       0       0
       0       0       0       0       0       0       0       0       0       0
       0       0       0       0       0       0       0       0       0       0
       0       0       0       0       0       0       0       0       0       0
       0       0       0       0       0       0       0       0       0       0
       0       0       0       0       0       0       0       0       0       0
       0       0       0       0       0       0       0       0       0       0
       0       0       0       0       0       0       0       0       0       0
       0       0       0       0       0       0       0       0       0       0
       0       0       0       0       0       0       0       0       0       0
       0       0       0       0       0       0       0       0       0       0
       0       0       0       0       0       0       0       0       0       0
       0       0       0       0       0       0       0       0       0       0
       0       0       0       0       0       0       0       0       0       0
       0       0       0       0       0       0       0       0       0       0
       0       0       0       0       0       0       0       0       0       0
       0       0       0       0       0       0       0       0       0       0
       0       0       0       0       0       0       0       0       0       0
       0       0       0       0       0       0       0       0       0       0
       0       0       0       0       0       0       0       0       0       0
       0       0       0       0       0       0       0       0       0       0
       0       0       0       0       0       0       0       0       0       0
       0       0       0       0       0       0       0       0       0       0
       0       0       0       0       0       0       0       0       0       0
       0       0       0       0       0       0       0       0       0       0
       0       0       0       0       0       0       0       0       0       0
       0       0       0       0       0       0       0       0       0       0
       0       0       0       0       0       0       0       0       0       0
       0       0       0       0       0       0       0       0       0       0
       0       0       0       0       0       0       0       0       0       0
       0       0       0       0       0       0       0       0       0       0
       0       0       0       0       0       0       0       0       0       0
       0       0       0       0       0       0       0       0       0       0
       0       0       0       0       0       0       0       0       0       0
       0       0       0       0       0       0       0       0       0       0
       0       0       0       0       0       0       0       0       0       0
       0       0       0       0       0       0       0       0       0       0
       0       0       0       0       0       0       0       0       0       0
       0       0       0       0       0       0       0       0       0       0
       0       0       0       0       0       0       0       0       0       0
       0       0       0       0       0       0       0       0       0       0
       0       0       0       0       0       0       0       0       0       0
       0       0       0       0       0       0       0       0       0       0
       0       0       0       0       0       0       0       0       0       0
       0       0       0       0       0       0       0       0       0       0
       0       0       0       0       0       0       0       0       0       0
       0       0       0       0       0       0       0       0       0       0
       0       0       0       0       0       0       0       0       0       0
       0       0       0       0       0       0       0       0       0       0
       0       0       0       0       0       0       0       0       0       0
       0       0       0       0       0       0       0       0       0       0
       0       0       0       0       0       0       0       0       0       0
       0       0       0       0       0       0       0       0       0       0
       0       0       0       0       0       0       0       0       0       0
       0       0       0       0       0       0       0       0       0       0
       0       0       0       0       0       0       0       0       0       0
       0       0       0       0       0       0       0       0       0       0
       0       0       0       0       0       0       0       0       0       0
       0       0       0       0       0       0       0       0       0       0
       0       0       0       0       0       0       0       0       0       0
       0       0       0       0       0       0       0       0       0       0
       0       0       0       0       0       0       0       0       0       0
       0       0       0       0       0       0       0       0       0       0
       0       0       0       0       0       0       0       0       0       0
       0       0       0       0       0       0       0       0       0       0
       0       0       0       0       0       0       0       0       0       0
       0       0       0       0       0       0       0       0       0       0
       0       0       0       0       0       0       0       0       0       0
       0       0       0       0       0       0       0       0       0       0
       0       0       0       0       0       0       0       0       0       0
       0       0       0       0       0       0       0       0       0       0
       0       0       0       0       0       0       0       0       0       0
       0       0       0       0       0       0       0       0       0       0
       0       0       0       0       0       0       0       0       0       0
       0       0       0       0       0       0       0       0       0       0
       0       0       0       0       0       0       0       0       0       0
       0       0       0       0       0       0       0       0       0       0
       0       0       0       0       0       0       0       0       0       0
       0       0       0       0       0       0       0       0       0       0
       0       0       0       0       0       0       0       0       0       0
       0       0       0       0       0       0       0       0       0       0
       0       0       0       0       0       0       0       0       0       0
       0       0       0       0       0       0       0       0       0       0
       0       0       0       0       0       0       0       0       0       0
       0       0       0       0       0       0       0       0       0       0
       0       0       0       0       0       0       0       0       0       0
       0       0       0       0       0       0       0       0       0       0
       0       0       0       0       0       0       0       0       0       0
       0       0       0       0       0       0       0       0       0       0
       0       0       0       0       0       0       0       0       0       0
       0       0       0       0       0       0       0       0       0       0
       0       0       0       0       0       0       0       0       0       0
       0       0       0       0       0       0       0       0       0       0
       0       0       0       0       0       0       0       0       0       0
       0       0       0       0       0       0       0       0       0       0
       0       0       0       0       0       0       0       0       0       0
       0       0       0       0       0       0       0       0       0       0
       0       0       0       0       0       0       0       0       0       0
       0       0       0       0       0       0       0       0       0       0
       0       0       0       0       0       0       0       0       0       0
       0       0       0       0       0       0       0       0       0       0
       0       0       0       0       0       0       0       0       0       0
       0       0       0       0       0       0       0       0       0       0
       0       0       0       0       0       0       0       0       0       0
       0       0       0       0       0       0       0       0       0       0
       0       0       0       0       0       0       0       0       0       0
       0       0       0       0       0       0       0       0       0       0
       0       0       0       0       0       0       0       0       0       0
       0       0       0       0       0       0       0       0       0       0
       0       0       0       0       0       0       0       0       0       0
       0       0       0       0       0       0       0       0       0       0
       0       0       0       0       0       0       0       0       0       0
       0       0       0       0       0       0       0       0       0       0
       0       0       0       0       0       0       0       0       0       0
       0       0       0       0       0       0       0       0       0       0
       0       0       0       0       0       0       0       0       0       0
       0       0       0       0       0       0       0       0       0       0
       0       0       0       0       0       0       0       0       0       0
       0       0       0       0       0       0       0       0       0       0
       0       0       0       0       0       0       0       0       0       0
       0       0       0       0       0       0       0       0       0       0
       0       0       0       0       0       0       0       0       0       0
       0       0       0       0       0       0       0       0       0       0
       0       0       0       0       0       0       0       0       0       0
       0       0       0       0       0       0       0       0       0       0
       0       0       0       0       0       0       0       0       0       0
       0       0       0       0       0       0       0       0       0       0
       0       0       0       0       0       0       0       0       0       0
       0       0       0       0       0       0       0       0       0       0
       0       0       0       0       0       0       0       0       0       0
       0       0       0       0       0       0       0       0       0       0
       0       0       0       0       0       0       0       0       0       0
       0       0       0       0       0       0       0       0       0       0
       0       0       0       0       0       0       0       0       0       0
       0       0       0       0       0       0       0       0       0       0
       0       0       0       0       0       0       0       0       0       0
       0       0       0       0       0       0       0       0       0       0
       0       0       0       0       0       0       0       0       0       0
       0       0       0       0       0       0       0       0       0       0
       0       0       0       0       0       0       0       0       0       0
       0       0       0       0       0       0       0       0       0       0
       0       0       0       0       0       0       0       0       0       0
       0       0       0       0       0       0       0       0       0       0
       0       0       0       0       0       0       0       0       0       0
       0       0       0       0       0       0       0       0       0       0
       0       0       0       0       0       0       0       0       0       0
       0       0       0       0       0       0       0       0       0       0
       0       0       0       0       0       0       0       0       0       0
       0       0       0       0       0       0       0       0       0       0
       0       0       0       0       0       0       0       0       0       0
       0       0       0       0       0       0       0       0       0       0
       0       0       0       0       0       0       0       0       0       0
       0       0       0       0       0       0       0       0       0       0
       0       0       0       0       0       0       0       0       0       0
       0       0       0       0       0       0       0       0       0       0
       0       0       0       0       0       0       0       0       0       0
       0       0       0       0       0       0       0       0       0       0
       0       0       0       0       0       0       0       0       0       0
       0       0       0       0       0       0       0       0       0       0
       0       0       0       0       0       0       0       0       0       0
       0       0       0       0       0       0       0       0       0       0
       0       0       0       0       0       0       0       0       0       0
       0       0       0       0       0       0       0       0       0       0
       0       0       0       0       0       0       0       0       0       0
       0       0       0       0       0       0       0       0       0       0
       0       0       0       0       0       0       0       0       0       0
       0       0       0       0       0       0       0       0       0       0
       0       0       0       0       0       0       0       0       0       0
       0       0       0       0       0       0       0       0       0       0
       0       0       0       0       0       0       0       0       0       0
       0       0       0       0       0       0       0       0       0       0
       0       0       0       0       0       0       0       0       0       0
       0       0       0       0       0       0       0       0       0       0
       0       0       0       0       0       0       0       0       0       0
       0       0       0       0       0       0       0       0       0       0
       0       0       0       0       0       0       0       0       0       0
       0       0       0       0       0       0       0       0       0       0
       0       0       0       0       0       0       0       0       0       0
       0       0       0       0       0       0       0       0       0       0
       0       0       0       0       0       0       0       0       0       0
       0       0       0       0       0       0       0       0       0       0
       0       0       0       0       0       0       0       0       0       0
       0       0       0       0       0       0       0       0       0       0
       0       0       0       0       0       0       0       0       0       0
       0       0       0       0       0       0       0       0       0       0
       0       0       0       0       0       0       0       0       0       0
       0       0       0       0       0       0       0       0       0       0
       0       0       0       0       0       0       0       0       0       0
       0       0       0       0       0       0       0       0       0       0
       0       0       0       0       0       0       0       0       0       0
       0       0       0       0       0       0       0       0       0       0
       0       0       0       0       0       0       0       0       0       0
       0       0       0       0       0       0       0       0       0       0
       0       0       0       0       0       0       0       0       0       0
       0       0       0       0       0       0       0       0       0       0
       0       0       0       0       0       0       0       0       0       0
       0       0       0       0       0       0       0       0       0       0
       0       0       0       0       0       0       0       0       0       0
       0       0       0       0       0       0       0       0       0       0
       0       0       0       0       0       0       0       0       0       0
       0       0       0       0       0       0       0       0       0       0
       0       0       0       0       0       0       0       0       0       0
       0       0       0       0       0       0       0       0       0       0
       0       0       0       0       0       0       0       0       0       0
       0       0       0       0       0       0       0       0       0       0
       0       0       0       0       0       0       0       0       0       0
       0       0       0       0       0       0       0       0       0       0
       0       0       0       0       0       0       0       0       0       0
       0       0       0       0       0       0       0       0       0       0
       0       0       0       0       0       0       0       0       0       0
       0       0       0       0       0       0       0       0       0       0
       0       0       0       0       0       0       0       0       0       0
       0       0       0       0       0       0       0       0       0       0
       0       0       0       0       0       0       0       0       0       0
       0       0       0       0       0       0       0       0       0       0
       0       0       0       0       0       0       0       0       0       0
       0       0       0       0       0       0       0       0       0       0
       0       0       0       0       0       0       0       0       0       0
       0       0       0       0       0       0       0       0       0       0
       0       0       0       0       0       0       0       0       0       0
       0       0       0       0       0       0       0       0       0       0
       0       0       0       0       0       0       0       0       0       0
       0       0       0       0       0       0       0       0       0       0
       0       0       0       0       0       0       0       0       0       0
       0       0       0       0       0       0       0       0       0       0
       0       0       0       0       0       0       0       0       0       0
       0       0       0       0       0       0       0       0       0       0
       0       0       0       0       0       0       0       0       0       0
       0       0       0       0       0       0       0       0       0       0
       0       0       0       0       0       0       0       0       0       0
       0       0       0       0       0       0       0       0       0       0
       0       0       0       0       0       0       0       0       0       0
       0       0       0       0       0       0       0       0       0       0
       0       0       0       0       0       0       0       0       0       0
       0       0       0       0       0       0       0       0       0       0
       0       0       0       0       0       0       0       0       0       0
       0       0       0       0       0       0       0       0       0       0
       0       0       0       0       0       0       0       0       0       0
       0       0       0       0       0       0       0       0       0       0
       0       0       0       0       0       0       0       0       0       0
       0       0       0       0       0       0       0       0       0       0
       0       0       0       0       0       0       0       0       0       0
       0       0       0       0       0       0       0       0       0       0
       0       0       0       0       0       0       0       0       0       0
       0       0       0       0       0       0       0       0       0       0
       0       0       0       0       0       0       0       0       0       0
       0       0       0       0       0       0       0       0       0       0
       0       0       0       0       0       0       0       0       0       0
       0       0       0       0       0       0       0       0       0       0
       0       0       0       0       0       0       0       0       0       0
       0       0       0       0       0       0       0       0       0       0
       0       0       0       0       0       0       0       0       0       0
       0       0       0       0       0       0       0       0       0       0
       0       0       0       0       0       0       0       0       0       0
       0       0       0       0       0       0       0       0       0       0
       0       0       0       0       0       0       0       0       0       0
       0       0       0       0       0       0       0       0       0       0
       0       0       0       0       0       0       0       0       0       0
       0       0       0       0       0       0       0       0       0       0
       0       0       0       0       0       0       0       0       0       0
       0       0       0       0       0       0       0       0       0       0
       0       0       0       0       0       0       0       0       0       0
       0       0       0       0       0       0       0       0       0       0
       0       0       0       0       0       0       0       0       0       0
       0       0       0       0       0       0       0       0       0       0
       0       0       0       0       0       0       0       0       0       0
       0       0       0       0       0       0       0       0       0       0
       0       0       0       0       0       0       0       0       0       0
       0       0       0       0       0       0       0       0       0       0
       0       0       0       0       0       0       0       0       0       0
       0       0       0       0       0       0       0       0       0       0
       0       0       0       0       0       0       0       0       0       0
       0       0       0       0       0       0       0       0       0       0
       0       0       0       0       0       0       0       0       0       0
       0       0       0       0       0       0       0       0       0       0
       0       0       0       0       0       0       0       0       0       0
       0       0       0       0       0       0       0       0       0       0
       0       0       0       0       0       0       0       0       0       0
       0       0       0       0       0       0       0       0       0       0
       0       0       0       0       0       0       0       0       0       0
       0       0       0       0       0       0       0       0       0       0
       0       0       0       0       0       0       0       0       0       0
       0       0       0       0       0       0       0       0       0       0
       0       0       0       0       0       0       0       0       0       0
       0       0       0       0       0       0       0       0       0       0
       0       0       0       0       0       0       0       0       0       0
       0       0       0       0       0       0       0       0       0       0
       0       0       0       0       0       0       0       0       0       0
       0       0       0       0       0       0       0       0       0       0
       0       0       0       0       0       0       0       0       0       0
       0       0       0       0       0       0       0       0       0       0
       0       0       0       0       0       0       0       0       0       0
       0       0       0       0       0       0       0       0       0       0
       0       0       0       0       0       0       0       0       0       0
       0       0       0       0       0       0       0       0       0       0
       0       0       0       0       0       0       0       0       0       0
       0       0       0       0       0       0       0       0       0       0
       0       0       0       0       0       0       0       0       0       0
       0       0       0       0       0       0       0       0       0       0
       0       0       0       0       0       0       0       0       0       0
       0       0       0       0       0       0       0       0       0       0
       0       0       0       0       0       0       0       0       0       0
       0       0       0       0       0       0       0       0       0       0
       0       0       0       0       0       0       0       0       0       0
       0       0       0       0       0       0       0       0       0       0
       0       0       0       0       0       0       0       0       0       0
       0       0       0       0       0       0       0       0       0       0
       0       0       0       0       0       0       0       0       0       0
       0       0       0       0       0       0       0       0       0       0
       0       0       0       0       0       0       0       0       0       0
       0       0       0       0       0       0       0       0       0       0
       0       0       0       0       0       0       0       0       0       0
       0       0       0       0       0       0       0       0       0       0
       0       0       0       0       0       0       0       0       0       0
       0       0       0       0       0       0       0       0       0       0
       0       0       0       0       0       0       0       0       0       0
       0       0       0       0       0       0       0       0       0       0
       0       0       0       0       0       0       0       0       0       0
       0       0       0       0       0       0       0       0       0       0
       0       0       0       0       0       0       0       0       0       0
       0       0       0       0       0       0       0       0       0       0
       0       0       0       0       0       0       0       0       0       0
       0       0       0       0       0       0       0       0       0       0
       0       0       0       0       0       0       0       0       0       0
       0       0       0       0       0       0       0       0       0       0
       0       0       0       0       0       0       0       0       0       0
       0       0       0       0       0       0       0       0       0       0
       0       0       0       0       0       0       0       0       0       0
       0       0       0       0       0       0       0       0       0       0
       0       0       0       0       0       0       0       0       0       0
       0       0       0       0       0       0       0       0       0       0
       0       0       0       0       0       0       0       0       0       0
       0       0       0       0       0       0       0       0       0       0
       0       0       0       0       0       0       0       0       0       0
       0       0       0       0       0       0       0       0       0       0
       0       0       0       0       0       0       0       0       0       0
       0       0       0       0       0       0       0       0       0       0
       0       0       0       0       0       0       0       0       0       0
       0       0       0       0       0       0       0       0       0       0
       0       0       0       0       0       0       0       0       0       0
       0       0       0       0       0       0       0       0       0       0
       0       0       0       0       0       0       0       0       0       0
       0       0       0       0       0       0       0       0       0       0
       0       0       0       0       0       0       0       0       0       0
       0       0       0       0       0       0       0       0       0       0
       0       0       0       0       0       0       0       0       0       0
       0       0       0       0       0       0       0       0       0       0
       0       0       0       0       0       0       0       0       0       0
       0       0       0       0       0       0       0       0       0       0
       0       0       0       0       0       0       0       0       0       0
       0       0       0       0       0       0       0       0       0       0
       0       0       0       0       0       0       0       0       0       0
       0       0       0       0       0       0       0       0       0       0
       0       0       0       0       0       0       0       0       0       0
       0       0       0       0       0       0       0       0       0       0
       0       0       0       0       0       0       0       0       0       0
       0       0       0       0       0       0       0       0       0       0
       0       0       0       0       0       0       0       0       0       0
       0       0       0       0       0       0       0       0       0       0
       0       0       0       0       0       0       0       0       0       0
       0       0       0       0       0       0       0       0       0       0
       0       0       0       0       0       0       0       0       0       0
       0       0       0       0       0       0       0       0       0       0
       0       0       0       0       0       0       0       0       0       0
       0       0       0       0       0       0       0       0       0       0
       0       0       0       0       0       0       0       0       0       0
       0       0       0       0       0       0       0       0       0       0
       0       0       0       0       0       0       0       0       0       0
       0       0       0       0       0       0       0       0       0       0
       0       0       0       0       0       0       0       0       0       0
       0       0       0       0       0       0       0       0       0       0
       0       0       0       0       0       0       0       0       0       0
       0       0       0       0       0       0       0       0       0       0
       0       0       0       0       0       0       0       0       0       0
       0       0       0       0       0       0       0       0       0       0
       0       0       0       0       0       0       0       0       0       0
       0       0       0       0       0       0       0       0       0       0
       0       0       0       0       0       0       0       0       0       0
       0       0       0       0       0       0       0       0       0       0
       0       0       0       0       0       0       0       0       0       0
       0       0       0       0       0       0       0       0       0       0
       0       0       0       0       0       0       0       0       0       0
       0       0       0       0       0       0       0       0       0       0
       0       0       0       0       0       0       0       0       0       0
       0       0       0       0       0       0       0       0       0       0
       0       0       0       0       0       0       0       0       0       0
       0       0       0       0       0       0       0       0       0       0
       0       0       0       0       0       0       0       0       0       0
       0       0       0       0       0       0       0       0       0       0
       0       0       0       0       0       0       0       0       0       0
       0       0       0       0       0       0       0       0       0       0
       0       0       0       0       0       0       0       0       0       0
       0       0       0       0       0       0       0       0       0       0
       0       0       0       0       0       0       0       0       0       0
       0       0       0       0       0       0       0       0       0       0
       0       0       0       0       0       0       0       0       0       0
       0       0       0       0       0       0       0       0       0       0
       0       0       0       0       0       0       0       0       0       0
       0       0       0       0       0       0       0       0       0       0
       0       0       0       0       0       0       0       0       0       0
       0       0       0       0       0       0       0       0       0       0
       0       0       0       0       0       0       0       0       0       0
       0       0       0       0       0       0       0       0       0       0
       0       0       0       0       0       0       0       0       0       0
       0       0       0       0       0       0       0       0       0       0
       0       0       0       0       0       0       0       0       0       0
       0       0       0       0       0       0       0       0       0       0
       0       0       0       0       0       0       0       0       0       0
       0       0       0       0       0       0       0       0       0       0
       0       0       0       0       0       0       0       0       0       0
       0       0       0       0       0       0       0       0       0       0
       0       0       0       0       0       0       0       0       0       0
       0       0       0       0       0       0       0       0       0       0
       0       0       0       0       0       0       0       0       0       0
       0       0       0       0       0       0       0       0       0       0
       0       0       0       0       0       0       0       0       0       0
       0       0       0       0       0       0       0       0       0       0
       0       0       0       0       0       0       0       0       0       0
       0       0       0       0       0       0       0       0       0       0
       0       0       0       0       0       0       0       0       0       0
       0       0       0       0       0       0       0       0       0       0
       0       0       0       0       0       0       0       0       0       0
       0       0       0       0       0       0       0       0       0       0
       0       0       0       0       0       0       0       0       0       0
       0       0       0       0       0       0       0       0       0       0
       0       0       0       0       0       0       0       0       0       0
       0       0       0       0       0       0       0       0       0       0
       0       0       0       0       0       0       0       0       0       0
       0       0       0       0       0       0       0       0       0       0
       0       0       0       0       0       0       0       0       0       0
       0       0       0       0       0       0       0       0       0       0
       0       0       0       0       0       0       0       0       0       0
       0       0       0       0       0       0       0       0       0       0
       0       0       0       0       0       0       0       0       0       0
       0       0       0       0       0       0       0       0       0       0
       0       0       0       0       0       0       0       0       0       0
       0       0       0       0       0       0       0       0       0       0
       0       0       0       0       0       0       0       0       0       0
       0       0       0       0       0       0       0       0       0       0
       0       0       0       0       0       0       0       0       0       0
       0       0       0       0       0       0       0       0       0       0
       0       0       0       0       0       0       0       0       0       0
       0       0       0       0       0       0       0       0       0       0
       0       0       0       0       0       0       0       0       0       0
       0       0       0       0       0       0       0       0       0       0
       0       0       0       0       0       0       0       0       0       0
       0       0       0       0       0       0       0       0       0       0
       0       0       0       0       0       0       0       0       0       0
       0       0       0       0       0       0       0       0       0       0
       0       0       0       0       0       0       0       0       0       0
       0       0       0       0       0       0       0       0       0       0
       0       0       0       0       0       0       0       0       0       0
       0       0       0       0       0       0       0       0       0       0
       0       0       0       0       0       0       0       0       0       0
       0       0       0       0       0       0       0       0       0       0
       0       0       0       0       0       0       0       0       0       0
       0       0       0       0       0       0       0       0       0       0
       0       0       0       0       0       0       0       0       0       0
       0       0       0       0       0       0       0       0       0       0
       0       0       0       0       0       0       0       0       0       0
       0       0       0       0       0       0       0       0       0       0
       0       0       0       0       0       0       0       0       0       0
       0       0       0       0       0       0       0       0       0       0
       0       0       0       0       0       0       0       0       0       0
       0       0       0       0       0       0       0       0       0       0
       0       0       0       0       0       0       0       0       0       0
       0       0       0       0       0       0       0       0       0       0
       0       0       0       0       0       0       0       0       0       0
       0       0       0       0       0       0       0       0       0       0
       0       0       0       0       0       0       0       0       0       0
       0       0       0       0       0       0       0       0       0       0
       0       0       0       0       0       0       0       0       0       0
       0       0       0       0       0       0       0       0       0       0
       0       0       0       0       0       0       0       0       0       0
       0       0       0       0       0       0       0       0       0       0
       0       0       0       0       0       0       0       0       0       0
       0       0       0       0       0       0       0       0       0       0
       0       0       0       0       0       0       0       0       0       0
       0       0       0       0       0       0       0       0       0       0
       0       0       0       0       0       0       0       0       0       0
       0       0       0       0       0       0       0       0       0       0
       0       0       0       0       0       0       0       0       0       0
       0       0       0       0       0       0       0       0       0       0
       0       0       0       0       0       0       0       0       0       0
       0       0       0       0       0       0       0       0       0       0
       0       0       0       0       0       0       0       0       0       0
       0       0       0       0       0       0       0       0       0       0
       0       0       0       0       0       0       0       0       0       0
       0       0       0       0       0       0       0       0       0       0
       0       0       0       0       0       0       0       0       0       0
       0       0       0       0       0       0       0       0       0       0
       0       0       0       0       0       0       0       0       0       0
       0       0       0       0       0       0       0       0       0       0
       0       0       0       0       0       0       0       0       0       0
       0       0       0       0       0       0       0       0       0       0
       0       0       0       0       0       0       0       0       0       0
       0       0       0       0       0       0       0       0       0       0
       0       0       0       0       0       0       0       0       0       0
       0       0       0       0       0       0       0       0       0       0
       0       0       0       0       0       0       0       0       0       0
       0       0       0       0       0       0       0       0       0       0
       0       0       0       0       0       0       0       0       0       0
       0       0       0       0       0       0       0       0       0       0
       0       0       0       0       0       0       0       0       0       0
       0       0       0       0       0       0       0       0       0       0
       0       0       0       0       0       0       0       0       0       0
       0       0       0       0       0       0       0       0       0       0
       0       0       0       0       0       0       0       0       0       0
       0       0       0       0       0       0       0       0       0       0
       0       0       0       0       0       0       0       0       0       0
       0       0       0       0       0       0       0       0       0       0
       0       0       0       0       0       0       0       0       0       0
       0       0       0       0       0       0       0       0       0       0
       0       0       0       0       0       0       0       0       0       0
       0       0       0       0       0       0       0       0       0       0
       0       0       0       0       0       0       0       0       0       0
       0       0       0       0       0       0       0       0       0       0
       0       0       0       0       0       0       0       0       0       0
       0       0       0       0       0       0       0       0       0       0
       0       0       0       0       0       0       0       0       0       0
       0       0       0       0       0       0       0       0       0       0
       0       0       0       0       0       0       0       0       0       0
       0       0       0       0       0       0       0       0       0       0
       0       0       0       0       0       0       0       0       0       0
       0       0       0       0       0       0       0       0       0       0
       0       0       0       0       0       0       0       0       0       0
       0       0       0       0       0       0       0       0       0       0
       0       0       0       0       0       0       0       0       0       0
       0       0       0       0       0       0       0       0       0       0
       0       0       0       0       0       0       0       0       0       0
       0       0       0       0       0       0       0       0       0       0
       0       0       0       0       0       0       0       0       0       0
       0       0       0       0       0       0       0       0       0       0
       0       0       0       0       0       0       0       0       0       0
       0       0       0       0       0       0       0       0       0       0
       0       0       0       0       0       0       0       0       0       0
       0       0       0       0       0       0       0       0       0       0
       0       0       0       0       0       0       0       0       0       0
       0       0       0       0       0       0       0       0       0       0
       0       0       0       0       0       0       0       0       0       0
       0       0       0       0       0       0       0       0       0       0
       0       0       0       0       0       0       0       0       0       0
       0       0       0       0       0       0       0       0       0       0
       0       0       0       0       0       0       0       0       0       0
       0       0       0       0       0       0       0       0       0       0
       0       0       0       0       0       0       0       0       0       0
       0       0       0       0       0       0       0       0       0       0
       0       0       0       0       0       0       0       0       0       0
       0       0       0       0       0       0       0       0       0       0
       0       0       0       0       0       0       0       0       0       0
       0       0       0       0       0       0       0       0       0       0
       0       0       0       0       0       0       0       0       0       0
       0       0       0       0       0       0       0       0       0       0
       0       0       0       0       0       0       0       0       0       0
       0       0       0       0       0       0       0       0       0       0
       0       0       0       0       0       0       0       0       0       0
       0       0       0       0       0       0       0       0       0       0
       0       0       0       0       0       0       0       0       0       0
       0       0       0       0       0       0       0       0       0       0
       0       0       0       0       0       0       0       0       0       0
       0       0       0       0       0       0       0       0       0       0
       0       0       0       0       0       0       0       0       0       0
       0       0       0       0       0       0       0       0       0       0
       0       0       0       0       0       0       0       0       0       0
       0       0       0       0       0       0       0       0       0       0
       0       0       0       0       0       0       0       0       0       0
       0       0       0       0       0       0       0       0       0       0
       0       0       0       0       0       0       0       0       0       0
       0       0       0       0       0       0       0       0       0       0
       0       0       0       0       0       0       0       0       0       0
       0       0       0       0       0       0       0       0       0       0
       0       0       0       0       0       0       0       0       0       0
       0       0       0       0       0       0       0       0       0       0
       0       0       0       0       0       0       0       0       0       0
       0       0       0       0       0       0       0       0       0       0
       0       0       0       0       0       0       0       0       0       0
       0       0       0       0       0       0       0       0       0       0
       0       0       0       0       0       0       0       0       0       0
       0       0       0       0       0       0       0       0       0       0
       0       0       0       0       0       0       0       0       0       0
       0       0       0       0       0       0       0       0       0       0
       0       0       0       0       0       0       0       0       0       0
       0       0       0       0       0       0       0       0       0       0
       0       0       0       0       0       0       0       0       0       0
       0       0       0       0       0       0       0       0       0       0
       0       0       0       0       0       0       0       0       0       0
       0       0       0       0       0       0       0       0       0       0
       0       0       0       0       0       0       0       0       0       0
       0       0       0       0       0       0       0       0       0       0
       0       0       0       0       0       0       0       0       0       0
       0       0       0       0       0       0       0       0       0       0
       0       0       0       0       0       0       0       0       0       0
       0       0       0       0       0       0       0       0       0       0
       0       0       0       0       0       0       0       0       0       0
       0       0       0       0       0       0       0       0       0       0
       0       0       0       0       0       0       0       0       0       0
       0       0       0       0       0       0       0       0       0       0
       0       0       0       0       0       0       0       0       0       0
       0       0       0       0       0       0       0       0       0       0
       0       0       0       0       0       0       0       0       0       0
       0       0       0       0       0       0       0       0       0       0
       0       0       0       0       0       0       0       0       0       0
       0       0       0       0       0       0       0       0       0       0
       0       0       0       0       0       0       0       0       0       0
       0       0       0       0       0       0       0       0       0       0
       0       0       0       0       0       0       0       0       0       0
       0       0       0       0       0       0       0       0       0       0
       0       0       0       0       0       0       0       0       0       0
       0       0       0       0       0       0       0       0       0       0
       0       0       0       0       0       0       0       0       0       0
       0       0       0       0       0       0       0       0       0       0
       0       0       0       0       0       0       0       0       0       0
       0       0       0       0       0       0       0       0       0       0
       0       0       0       0       0       0       0       0       0       0
       0       0       0       0       0       0       0       0       0       0
       0       0       0       0       0       0       0       0       0       0
       0       0       0       0       0       0       0       0       0       0
       0       0       0       0       0       0       0       0       0       0
       0       0       0       0       0       0       0       0       0       0
       0       0       0       0       0       0       0       0       0       0
       0       0       0       0       0       0       0       0       0       0
       0       0       0       0       0       0       0       0       0       0
       0       0       0       0       0       0       0       0       0       0
       0       0       0       0       0       0       0       0       0       0
       0       0       0       0       0       0       0       0       0       0
       0       0       0       0       0       0       0       0       0       0
       0       0       0       0       0       0       0       0       0       0
       0       0       0       0       0       0       0       0       0       0
       0       0       0       0       0       0       0       0       0       0
       0       0       0       0       0       0       0       0       0       0
       0       0       0       0       0       0       0       0       0       0
       0       0       0       0       0       0       0       0       0       0
       0       0       0       0       0       0       0       0       0       0
       0       0       0       0       0       0       0       0       0       0
       0       0       0       0       0       0       0       0       0       0
       0       0       0       0       0       0       0       0       0       0
       0       0       0       0       0       0       0       0       0       0
       0       0       0       0       0       0       0       0       0       0
       0       0       0       0       0       0       0       0       0       0
       0       0       0       0       0       0       0       0       0       0
       0       0       0       0       0       0       0       0       0       0
       0       0       0       0       0       0       0       0       0       0
       0       0       0       0       0       0       0       0       0       0
       0       0       0       0       0       0       0       0       0       0
       0       0       0       0       0       0       0       0       0       0
       0       0       0       0       0       0       0       0       0       0
       0       0       0       0       0       0       0       0       0       0
       0       0       0       0       0       0       0       0       0       0
       0       0       0       0       0       0       0       0       0       0
       0       0       0       0       0       0       0       0       0       0
       0       0       0       0       0       0       0       0       0       0
       0       0       0       0       0       0       0       0       0       0
       0       0       0       0       0       0       0       0       0       0
       0       0       0       0       0       0       0       0       0       0
       0       0       0       0       0       0       0       0       0       0
       0       0       0       0       0       0       0       0       0       0
       0       0       0       0       0       0       0       0       0       0
       0       0       0       0       0       0       0       0       0       0
       0       0       0       0       0       0       0       0       0       0
       0       0       0       0       0       0       0       0       0       0
       0       0       0       0       0       0       0       0       0       0
       0       0       0       0       0       0       0       0       0       0
       0       0       0       0       0       0       0       0       0       0
       0       0       0       0       0       0       0       0       0       0
       0       0       0       0       0       0       0       0       0       0
       0       0       0       0       0       0       0       0       0       0
       0       0       0       0       0       0       0       0       0       0
       0       0       0       0       0       0       0       0       0       0
       0       0       0       0       0       0       0       0       0       0
       0       0       0       0       0       0       0       0       0       0
       0       0       0       0       0       0       0       0       0       0
       0       0       0       0       0       0       0       0       0       0
       0       0       0       0       0       0       0       0       0       0
       0       0       0       0       0       0       0       0       0       0
       0       0       0       0       0       0       0       0       0       0
       0       0       0       0       0       0       0       0       0       0
       0       0       0       0       0       0       0       0       0       0
       0       0       0       0       0       0       0       0       0       0
       0       0       0       0       0       0       0       0       0       0
       0       0       0       0       0       0       0       0       0       0
       0       0       0       0       0       0       0       0       0       0
       0       0       0       0       0       0       0       0       0       0
       0       0       0       0       0       0       0       0       0       0
       0       0       0       0       0       0       0       0       0       0
       0       0       0       0       0       0       0       0       0       0
       0       0       0       0       0       0       0       0       0       0
       0       0       0       0       0       0       0       0       0       0
       0       0       0       0       0       0       0       0       0       0
       0       0       0       0       0       0       0       0       0       0
       0       0       0       0       0       0       0       0       0       0
       0       0       0       0       0       0       0       0       0       0
       0       0       0       0       0       0       0       0       0       0
       0       0       0       0       0       0       0       0       0       0
       0       0       0       0       0       0       0       0       0       0
       0       0       0       0       0       0       0       0       0       0
       0       0       0       0       0       0       0       0       0       0
       0       0       0       0       0       0       0       0       0       0
       0       0       0       0       0       0       0       0       0       0
       0       0       0       0       0       0       0       0       0       0
       0       0       0       0       0       0       0       0       0       0
       0       0       0       0       0       0       0       0       0       0
       0       0       0       0       0       0       0       0       0       0
       0       0       0       0       0       0       0       0       0       0
       0       0       0       0       0       0       0       0       0       0
       0       0       0       0       0       0       0       0       0       0
       0       0       0       0       0       0       0       0       0       0
       0       0       0       0       0       0       0       0       0       0
       0       0       0       0       0       0       0       0       0       0
       0       0       0       0       0       0       0       0       0       0
       0       0       0       0       0       0       0       0       0       0
       0       0       0       0       0       0       0       0       0       0
       0       0       0       0       0       0       0       0       0       0
       0       0       0       0       0       0       0       0       0       0
       0       0       0       0       0       0       0       0       0       0
       0       0       0       0       0       0       0       0       0       0
       0       0       0       0       0       0       0       0       0       0
       0       0       0       0       0       0       0       0       0       0
       0       0       0       0       0       0       0       0       0       0
       0       0       0       0       0       0       0       0       0       0
       0       0       0       0       0       0       0       0       0       0
       0       0       0       0       0       0       0       0       0       0
       0       0       0       0       0       0       0       0       0       0
       0       0       0       0       0       0       0       0       0       0
       0       0       0       0       0       0       0       0       0       0
       0       0       0       0       0       0       0       0       0       0
       0       0       0       0       0       0       0       0       0       0
       0       0       0       0       0       0       0       0       0       0
       0       0       0       0       0       0       0       0       0       0
       0       0       0       0       0       0       0       0       0       0
       0       0       0       0       0       0       0       0       0       0
       0       0       0       0       0       0       0       0       0       0
       0       0       0       0       0       0       0       0       0       0
       0       0       0       0       0       0       0       0       0       0
       0       0       0       0       0       0       0       0       0       0
       0       0       0       0       0       0       0       0       0       0
       0       0       0       0       0       0       0       0       0       0
       0       0       0       0       0       0       0       0       0       0
       0       0       0       0       0       0       0       0       0       0
       0       0       0       0       0       0       0       0       0       0
       0       0       0       0       0       0       0       0       0       0
       0       0       0       0       0       0       0       0       0       0
       0       0       0       0       0       0       0       0       0       0
       0       0       0       0       0       0       0       0       0       0
       0       0       0       0       0       0       0       0       0       0
       0       0       0       0       0       0       0       0       0       0
       0       0       0       0       0       0       0       0       0       0
       0       0       0       0       0       0       0       0       0       0
       0       0       0       0       0       0       0       0       0       0
       0       0       0       0       0       0       0       0       0       0
       0       0       0       0       0       0       0       0       0       0
       0       0       0       0       0       0       0       0       0       0
       0       0       0       0       0       0       0       0       0       0
       0       0       0       0       0       0       0       0       0       0
       0       0       0       0       0       0       0       0       0       0
       0       0       0       0       0       0       0       0       0       0
       0       0       0       0       0       0       0       0       0       0
       0       0       0       0       0       0       0       0       0       0
       0       0       0       0       0       0       0       0       0       0
       0       0       0       0       0       0       0       0       0       0
       0       0       0       0       0       0       0       0       0       0
       0       0       0       0       0       0       0       0       0       0
       0       0       0       0       0       0       0       0       0       0
       0       0       0       0       0       0       0       0       0       0
       0       0       0       0       0       0       0       0       0       0
       0       0       0       0       0       0       0       0       0       0
       0       0       0       0       0       0       0       0       0       0
       0       0       0       0       0       0       0       0       0       0
       0       0       0       0       0       0       0       0       0       0
       0       0       0       0       0       0       0       0       0       0
       0       0       0       0       0       0       0       0       0       0
       0       0       0       0       0       0       0       0       0       0
       0       0       0       0       0       0       0       0       0       0
       0       0       0       0       0       0       0       0       0       0
       0       0       0       0       0       0       0       0       0       0
       0       0       0       0       0       0       0       0       0       0
       0       0       0       0       0       0       0       0       0       0
       0       0       0       0       0       0       0       0       0       0
       0       0       0       0       0       0       0       0       0       0
       0       0       0       0       0       0       0       0       0       0
       0       0       0       0       0       0       0       0       0       0
       0       0       0       0       0       0       0       0       0       0
       0       0       0       0       0       0       0       0       0       0
       0       0       0       0       0       0       0       0       0       0
       0       0       0       0       0       0       0       0       0       0
       0       0       0       0       0       0       0       0       0       0
       0       0       0       0       0       0       0       0       0       0
       0       0       0       0       0       0       0       0       0       0
       0       0       0       0       0       0       0       0       0       0
       0       0       0       0       0       0       0       0       0       0
       0       0       0       0       0       0       0       0       0       0
       0       0       0       0       0       0       0       0       0       0
       0       0       0       0       0       0       0       0       0       0
       0       0       0       0       0       0       0       0       0       0
       0       0       0       0       0       0       0       0       0       0
       0       0       0       0       0       0       0       0       0       0
       0       0       0       0       0       0       0       0       0       0
       0       0       0       0       0       0       0       0       0       0
       0       0       0       0       0       0       0       0       0       0
       0       0       0       0       0       0       0       0       0       0
       0       0       0       0       0       0       0       0       0       0
       0       0       0       0       0       0       0       0       0       0
       0       0       0       0       0       0       0       0       0       0
       0       0       0       0       0       0       0       0       0       0
       0       0       0       0       0       0       0       0       0       0
       0       0       0       0       0       0       0       0       0       0
       0       0       0       0       0       0       0       0       0       0
       0       0       0       0       0       0       0       0       0       0
       0       0       0       0       0       0       0       0       0       0
       0       0       0       0       0       0       0       0       0       0
       0       0       0       0       0       0       0       0       0       0
       0       0       0       0       0       0       0       0       0       0
       0       0       0       0       0       0       0       0       0       0
       0       0       0       0       0       0       0       0       0       0
       0       0       0       0       0       0       0       0       0       0
       0       0       0       0       0       0       0       0       0       0
       0       0       0       0       0       0       0       0       0       0
       0       0       0       0       0       0       0       0       0       0
       0       0       0       0       0       0       0       0       0       0
       0       0       0       0       0       0       0       0       0       0
       0       0       0       0       0       0       0       0       0       0
       0       0       0       0       0       0       0       0       0       0
       0       0       0       0       0       0       0       0       0       0
       0       0       0       0       0       0       0       0       0       0
       0       0       0       0       0       0       0       0       0       0
       0       0       0       0       0       0       0       0       0       0
       0       0       0       0       0       0       0       0       0       0
       0       0       0       0       0       0       0       0       0       0
       0       0       0       0       0       0       0       0       0       0
       0       0       0       0       0       0       0       0       0       0
       0       0       0       0       0       0       0       0       0       0
       0       0       0       0       0       0       0       0       0       0
       0       0       0       0       0       0       0       0       0       0
       0       0       0       0       0       0       0       0       0       0
       0       0       0       0       0       0       0       0       0       0
       0       0       0       0       0       0       0       0       0       0
       0       0       0       0       0       0       0       0       0       0
       0       0       0       0       0       0       0       0       0       0
       0       0       0       0       0       0       0       0       0       0
       0       0       0       0       0       0       0       0       0       0
       0       0       0       0       0       0       0       0       0       0
       0       0       0       0       0       0       0       0       0       0
       0       0       0       0       0       0       0       0       0       0
       0       0       0       0       0       0       0       0       0       0
       0       0       0       0       0       0       0       0       0       0
       0       0       0       0       0       0       0       0       0       0
       0       0       0       0       0       0       0       0       0       0
       0       0       0       0       0       0       0       0       0       0
       0       0       0       0       0       0       0       0       0       0
       0       0       0       0       0       0       0       0       0       0
       0       0       0       0       0       0       0       0       0       0
       0       0       0       0       0       0       0       0       0       0
       0       0       0       0       0       0       0       0       0       0
       0       0       0       0       0       0       0       0       0       0
       0       0       0       0       0       0       0       0       0       0
       0       0       0       0       0       0       0       0       0       0
       0       0       0       0       0       0       0       0       0       0
       0       0       0       0       0       0       0       0       0       0
       0       0       0       0       0       0       0       0       0       0
       0       0       0       0       0       0       0       0       0       0
       0       0       0       0       0       0       0       0       0       0
       0       0       0       0       0       0       0       0       0       0
       0       0       0       0       0       0       0       0       0       0
       0       0       0       0       0       0       0       0       0       0
       0       0       0       0       0       0       0       0       0       0
       0       0       0       0       0       0       0       0       0       0
       0       0       0       0       0       0       0       0       0       0
       0       0       0       0       0       0       0       0       0       0
       0       0       0       0       0       0       0       0       0       0
       0       0       0       0       0       0       0       0       0       0
       0       0       0       0       0       0       0       0       0       0
       0       0       0       0       0       0       0       0       0       0
       0       0       0       0       0       0       0       0       0       0
       0       0       0       0       0       0       0       0       0       0
       0       0       0       0       0       0       0       0       0       0
       0       0       0       0       0       0       0       0       0       0
       0       0       0       0       0       0       0       0       0       0
       0       0       0       0       0       0       0       0       0       0
       0       0       0       0       0       0       0       0       0       0
       0       0       0       0       0       0       0       0       0       0
       0       0       0       0       0       0       0       0       0       0
       0       0       0       0       0       0       0       0       0       0
       0       0       0       0       0       0       0       0       0       0
       0       0       0       0       0       0       0       0       0       0
       0       0       0       0       0       0       0       0       0       0
       0       0       0       0       0       0       0       0       0       0
       0       0       0       0       0       0       0       0       0       0
       0       0       0       0       0       0       0       0       0       0
       0       0       0       0       0       0       0       0       0       0
       0       0       0       0       0       0       0       0       0       0
       0       0       0       0       0       0       0       0       0       0
       0       0       0       0       0       0       0       0       0       0
       0       0       0       0       0       0       0       0       0       0
       0       0       0       0       0       0       0       0       0       0
       0       0       0       0       0       0       0       0       0       0
       0       0       0       0       0       0       0       0       0       0
       0       0       0       0       0       0       0       0       0       0
       0       0       0       0       0       0       0       0       0       0
       0       0       0       0       0       0       0       0       0       0
       0       0       0       0       0       0       0       0       0       0
       0       0       0       0       0       0       0       0       0       0
       0       0       0       0       0       0       0       0       0       0
       0       0       0       0       0       0       0       0       0       0
       0       0       0       0       0       0       0       0       0       0
       0       0       0       0       0       0       0       0       0       0
       0       0       0       0       0       0       0       0       0       0
       0       0       0       0       0       0       0       0       0       0
       0       0       0       0       0       0       0       0       0       0
       0       0       0       0       0       0       0       0       0       0
       0       0       0       0       0       0       0       0       0       0
       0       0       0       0       0       0       0       0       0       0
       0       0       0       0       0       0       0       0       0       0
       0       0       0       0       0       0       0       0       0       0
       0       0       0       0       0       0       0       0       0       0
       0       0       0       0       0       0       0       0       0       0
       0       0       0       0       0       0       0       0       0       0
       0       0       0       0       0       0       0       0       0       0
       0       0       0       0       0       0       0       0       0       0
       0       0       0       0       0       0       0       0       0       0
       0       0       0       0       0       0       0       0       0       0
       0       0       0       0       0       0       0       0       0       0
       0       0       0       0       0       0       0       0       0       0
       0       0       0       0       0       0       0       0       0       0
       0       0       0       0       0       0       0       0       0       0
       0       0       0       0       0       0       0       0       0       0
       0       0       0       0       0       0       0       0       0       0
       0       0       0       0       0       0       0       0       0       0
       0       0       0       0       0       0       0       0       0       0
       0       0       0       0       0       0       0       0       0       0
       0       0       0       0       0       0       0       0       0       0
       0       0       0       0       0       0       0       0       0       0
       0       0       0       0       0       0       0       0       0       0
       0       0       0       0       0       0       0       0       0       0
       0       0       0       0       0       0       0       0       0       0
       0       0       0       0       0       0       0       0       0       0
       0       0       0       0       0       0       0       0       0       0
       0       0       0       0       0       0       0       0       0       0
       0       0       0       0       0       0       0       0       0       0
       0       0       0       0       0       0       0       0       0       0
       0       0       0       0       0       0       0       0       0       0
       0       0       0       0       0       0       0       0       0       0
       0       0       0       0       0       0       0       0       0       0
       0       0       0       0       0       0       0       0       0       0
       0       0       0       0       0       0       0       0       0       0
       0       0       0       0       0       0       0       0       0       0
       0       0       0       0       0       0       0       0       0       0
       0       0       0       0       0       0       0       0       0       0
       0       0       0       0       0       0       0       0       0       0
       0       0       0       0       0       0       0       0       0       0
       0       0       0       0       0       0       0       0       0       0
       0       0       0       0       0       0       0       0       0       0
       0       0       0       0       0       0       0       0       0       0
       0       0       0       0       0       0       0       0       0       0
       0       0       0       0       0       0       0       0       0       0
       0       0       0       0       0       0       0       0       0       0
       0       0       0       0       0       0       0       0       0       0
       0       0       0       0       0       0       0       0       0       0
       0       0       0       0       0       0       0       0       0       0
       0       0       0       0       0       0       0       0       0       0
       0       0       0       0       0       0       0       0       0       0
       0       0       0       0       0       0       0       0       0       0
       0       0       0       0       0       0       0       0       0       0
       0       0       0       0       0       0       0       0       0       0
       0       0       0       0       0       0       0       0       0       0
       0       0       0       0       0       0       0       0       0       0
       0       0       0       0       0       0       0       0       0       0
       0       0       0       0       0       0       0       0       0       0
       0       0       0       0       0       0       0       0       0       0
       0       0       0       0       0       0       0       0       0       0
       0       0       0       0       0       0       0       0       0       0
       0       0       0       0       0       0       0       0       0       0
       0       0       0       0       0       0       0       0       0       0
       0       0       0       0       0       0       0       0       0       0
       0       0       0       0       0       0       0       0       0       0
       0       0       0       0       0       0       0       0       0       0
       0       0       0       0       0       0       0       0       0       0
       0       0       0       0       0       0       0       0       0       0
       0       0       0       0       0       0       0       0       0       0
       0       0       0       0       0       0       0       0       0       0
       0       0       0       0       0       0       0       0       0       0
       0       0       0       0       0       0       0       0       0       0
       0       0       0       0       0       0       0       0       0       0
       0       0       0       0       0       0       0       0       0       0
       0       0       0       0       0       0       0       0       0       0
       0       0       0       0       0       0       0       0       0       0
       0       0       0       0       0       0       0       0       0       0
       0       0       0       0       0       0       0       0       0       0
       0       0       0       0       0       0       0       0       0       0
       0       0       0       0       0       0       0       0       0       0
       0       0       0       0       0       0       0       0       0       0
       0       0       0       0       0       0       0       0       0       0
       0       0       0       0       0       0       0       0       0       0
       0       0       0       0       0       0       0       0       0       0
       0       0       0       0       0       0       0       0       0       0
       0       0       0       0       0       0       0       0       0       0
       0       0       0       0       0       0       0       0       0       0
       0       0       0       0       0       0       0       0       0       0
       0       0       0       0       0       0       0       0       0       0
       0       0       0       0       0       0       0       0       0       0
       0       0       0       0       0       0       0       0       0       0
       0       0       0       0       0       0       0       0       0       0
       0       0       0       0       0       0       0       0       0       0
       0       0       0       0       0       0       0       0       0       0
       0       0       0       0       0       0       0       0       0       0
       0       0       0       0       0       0       0       0       0       0
       0       0       0       0       0       0       0       0       0       0
       0       0       0       0       0       0       0       0       0       0
       0       0       0       0       0       0       0       0       0       0
       0       0       0       0       0       0       0       0       0       0
       0       0       0       0       0       0       0       0       0       0
       0       0       0       0       0       0       0       0       0       0
       0       0       0       0       0       0       0       0       0       0
       0       0       0       0       0       0       0       0       0       0
       0       0       0       0       0       0       0       0       0       0
       0       0       0       0       0       0       0       0       0       0
       0       0       0       0       0       0       0       0       0       0
       0       0       0       0       0       0       0       0       0       0
       0       0       0       0       0       0       0       0       0       0
       0       0       0       0       0       0       0       0       0       0
       0       0       0       0       0       0       0       0       0       0
       0       0       0       0       0       0       0       0       0       0
       0       0       0       0       0       0       0       0       0       0
       0       0       0       0       0       0       0       0       0       0
       0       0       0       0       0       0       0       0       0       0
       0       0       0       0       0       0       0       0       0       0
       0       0       0       0       0       0       0       0       0       0
       0       0       0       0       0       0       0       0       0       0
       0       0       0       0       0       0       0       0       0       0
       0       0       0       0       0       0       0       0       0       0
       0       0       0       0       0       0       0       0       0       0
       0       0       0       0       0       0       0       0       0       0
       0       0       0       0       0       0       0       0       0       0
       0       0       0       0       0       0       0       0       0       0
       0       0       0       0       0       0       0       0       0       0
       0       0       0       0       0       0       0       0       0       0
       0       0       0       0       0       0       0       0       0       0
       0       0       0       0       0       0       0       0       0       0
       0       0       0       0       0       0       0       0       0       0
       0       0       0       0       0       0       0       0       0       0
       0       0       0       0       0       0       0       0       0       0
       0       0       0       0       0       0       0       0       0       0
       0       0       0       0       0       0       0       0       0       0
       0       0       0       0       0       0       0       0       0       0
       0       0       0       0       0       0       0       0       0       0
       0       0       0       0       0       0       0       0       0       0
       0       0       0       0       0       0       0       0       0       0
       0       0       0       0       0       0       0       0       0       0
       0       0       0       0       0       0       0       0       0       0
       0       0       0       0       0       0       0       0       0       0
       0       0       0       0       0       0       0       0       0       0
       0       0       0       0       0       0       0       0       0       0
       0       0       0       0       0       0       0       0       0       0
       0       0       0       0       0       0       0       0       0       0
       0       0       0       0       0       0       0       0       0       0
       0       0       0       0       0       0       0       0       0       0
       0       0       0       0       0       0       0       0       0       0
       0       0       0       0       0       0       0       0       0       0
       0       0       0       0       0       0       0       0       0       0
       0       0       0       0       0       0       0       0       0       0
       0       0       0       0       0       0       0       0       0       0
       0       0       0       0       0       0       0       0       0       0
       0       0       0       0       0       0       0       0       0       0
       0       0       0       0       0       0       0       0       0       0
       0       0       0       0       0       0       0       0       0       0
       0       0       0       0       0       0       0       0       0       0
       0       0       0       0       0       0       0       0       0       0
       0       0       0       0       0       0       0       0       0       0
       0       0       0       0       0       0       0       0       0       0
       0       0       0       0       0       0       0       0       0       0
       0       0       0       0       0       0       0       0       0       0
       0       0       0       0       0       0       0       0       0       0
       0       0       0       0       0       0       0       0       0       0
       0       0       0       0       0       0       0       0       0       0
       0       0       0       0       0       0       0       0       0       0
       0       0       0       0       0       0       0       0       0       0
       0       0       0       0       0       0       0       0       0       0
       0       0       0       0       0       0       0       0       0       0
       0       0       0       0       0       0       0       0       0       0
       0       0       0       0       0       0       0       0       0       0
       0       0       0       0       0       0       0       0       0       0
       0       0       0       0       0       0       0       0       0       0
       0       0       0       0       0       0       0       0       0       0
       0       0       0       0       0       0       0       0       0       0
       0       0       0       0       0       0       0       0       0       0
       0       0       0       0       0       0       0       0       0       0
       0       0       0       0       0       0       0       0       0       0
       0       0       0       0       0       0       0       0       0       0
       0       0       0       0       0       0       0       0       0       0
       0       0       0       0       0       0       0       0       0       0
       0       0       0       0       0       0       0       0       0       0
       0       0       0       0       0       0       0       0       0       0
       0       0       0       0       0       0       0       0       0       0
       0       0       0       0       0       0       0       0       0       0
       0       0       0       0       0       0       0       0       0       0
       0       0       0       0       0       0       0       0       0       0
       0       0       0       0       0       0       0       0       0       0
       0       0       0       0       0       0       0       0       0       0
       0       0       0       0       0       0       0       0       0       0
       0       0       0       0       0       0       0       0       0       0
       0       0       0       0       0       0       0       0       0       0
       0       0       0       0       0       0       0       0       0       0
       0       0       0       0       0       0       0       0       0       0
       0       0       0       0       0       0       0       0       0       0
       0       0       0       0       0       0       0       0       0       0
       0       0       0       0       0       0       0       0       0       0
       0       0       0       0       0       0       0       0       0       0
       0       0       0       0       0       0       0       0       0       0
       0       0       0       0       0       0       0       0       0       0
       0       0       0       0       0       0       0       0       0       0
       0       0       0       0       0       0       0       0       0       0
       0       0       0       0       0       0       0       0       0       0
       0       0       0       0       0       0       0       0       0       0
       0       0       0       0       0       0       0       0       0       0
       0       0       0       0       0       0       0       0       0       0
       0       0       0       0       0       0       0       0       0       0
       0       0       0       0       0       0       0       0       0       0
       0       0       0       0       0       0       0       0       0       0
       0       0       0       0       0       0       0       0       0       0
       0       0       0       0       0       0       0       0       0       0
       0       0       0       0       0       0       0       0       0       0
       0       0       0       0       0       0       0       0       0       0
       0       0       0       0       0       0       0       0       0       0
       0       0       0       0       0       0       0       0       0       0
       0       0       0       0       0       0       0       0       0       0
       0       0       0       0       0       0       0       0       0       0
       0       0       0       0       0       0       0       0       0       0
       0       0       0       0       0       0       0       0       0       0
       0       0       0       0       0       0       0       0       0       0
       0       0       0       0       0       0       0       0       0       0
       0       0       0       0       0       0       0       0       0       0
       0       0       0       0       0       0       0       0       0       0
       0       0       0       0       0       0       0       0       0       0
       0       0       0       0       0       0       0       0       0       0
       0       0       0       0       0       0       0       0       0       0
       0       0       0       0       0       0       0       0       0       0
       0       0       0       0       0       0       0       0       0       0
       0       0       0       0       0       0       0       0       0       0
       0       0       0       0       0       0       0       0       0       0
       0       0       0       0       0       0       0       0       0       0
       0       0       0       0       0       0       0       0       0       0
       0       0       0       0       0       0       0       0       0       0
       0       0       0       0       0       0       0       0       0       0
       0       0       0       0       0       0       0       0       0       0
       0       0       0       0       0       0       0       0       0       0
       0       0       0       0       0       0       0       0       0       0
       0       0       0       0       0       0       0       0       0       0
       0       0       0       0       0       0       0       0       0       0
       0       0       0       0       0       0       0       0       0       0
       0       0       0       0       0       0       0       0       0       0
       0       0       0       0       0       0       0       0       0       0
       0       0       0       0       0       0       0       0       0       0
       0       0       0       0       0       0       0       0       0       0
       0       0       0       0       0       0       0       0       0       0
       0       0       0       0       0       0       0       0       0       0
       0       0       0       0       0       0       0       0       0       0
       0       0       0       0       0       0       0       0       0       0
       0       0       0       0       0       0       0       0       0       0
       0       0       0       0       0       0       0       0       0       0
       0       0       0       0       0       0       0       0       0       0
       0       0       0       0       0       0       0       0       0       0
       0       0       0       0       0       0       0       0       0       0
       0       0       0       0       0       0       0       0       0       0
       0       0       0       0       0       0       0       0       0       0
       0       0       0       0       0       0       0       0       0       0
       0       0       0       0       0       0       0       0       0       0
       0       0       0       0       0       0       0       0       0       0
       0       0       0       0       0       0       0       0       0       0
       0       0       0       0       0       0       0       0       0       0
       0       0       0       0       0       0       0       0       0       0
       0       0       0       0       0       0       0       0       0       0
       0       0       0       0       0       0       0       0       0       0
       0       0       0       0       0       0       0       0       0       0
       0       0       0       0       0       0       0       0       0       0
       0       0       0       0       0       0       0       0       0       0
       0       0       0       0       0       0       0       0       0       0
       0       0       0       0       0       0       0       0       0       0
       0       0       0       0       0       0       0       0       0       0
       0       0       0       0       0       0       0       0       0       0
       0       0       0       0       0       0       0       0       0       0
       0       0       0       0       0       0       0       0       0       0
       0       0       0       0       0       0       0       0       0       0
       0       0       0       0       0       0       0       0       0       0
       0       0       0       0       0       0       0       0       0       0
       0       0       0       0       0       0       0       0       0       0
       0       0       0       0       0       0       0       0       0       0
       0       0       0       0       0       0       0       0       0       0
       0       0       0       0       0       0       0       0       0       0
       0       0       0       0       0       0       0       0       0       0
       0       0       0       0       0       0       0       0       0       0
       0       0       0       0       0       0       0       0       0       0
       0       0       0       0       0       0       0       0       0       0
       0       0       0       0       0       0       0       0       0       0
       0       0       0       0       0       0       0       0       0       0
       0       0       0       0       0       0       0       0       0       0
       0       0       0       0       0       0       0       0       0       0
       0       0       0       0       0       0       0       0       0       0
       0       0       0       0       0       0       0       0       0       0
       0       0       0       0       0       0       0       0       0       0
       0       0       0       0       0       0       0       0       0       0
       0       0       0       0       0       0       0       0       0       0
       0       0       0       0       0       0       0       0       0       0
       0       0       0       0       0       0       0       0       0       0
       0       0       0       0       0       0       0       0       0       0
       0       0       0       0       0       0       0       0       0       0
       0       0       0       0       0       0       0       0       0       0
       0       0       0       0       0       0       0       0       0       0
       0       0       0       0       0       0       0       0       0       0
       0       0       0       0       0       0       0       0       0       0
       0       0       0       0       0       0       0       0       0       0
       0       0       0       0       0       0       0       0       0       0
       0       0       0       0       0       0       0       0       0       0
       0       0       0       0       0       0       0       0       0       0
       0       0       0       0       0       0       0       0       0       0
       0       0       0       0       0       0       0       0       0       0
       0       0       0       0       0       0       0       0       0       0
       0       0       0       0       0       0       0       0       0       0
       0       0       0       0       0       0       0       0       0       0
       0       0       0       0       0       0       0       0       0       0
       0       0       0       0       0       0       0       0       0       0
       0       0       0       0       0       0       0       0       0       0
       0       0       0       0       0       0       0       0       0       0
       0       0       0       0       0       0       0       0       0       0
       0       0       0       0       0       0       0       0       0       0
       0       0       0       0       0       0       0       0       0       0
       0       0       0       0       0       0       0       0       0       0
       0       0       0       0       0       0       0       0       0       0
       0       0       0       0       0       0       0       0       0       0
       0       0       0       0       0       0       0       0       0       0
       0       0       0       0       0       0       0       0       0       0
       0       0       0       0       0       0       0       0       0       0
       0       0       0       0       0       0       0       0       0       0
       0       0       0       0       0       0       0       0       0       0
       0       0       0       0       0       0       0       0       0       0
       0       0       0       0       0       0       0       0       0       0
       0       0       0       0       0       0       0       0       0       0
       0       0       0       0       0       0       0       0       0       0
       0       0       0       0       0       0       0       0       0       0
       0       0       0       0       0       0       0       0       0       0
       0       0       0       0       0       0       0       0       0       0
       0       0       0       0       0       0       0       0       0       0
       0       0       0       0       0       0       0       0       0       0
       0       0       0       0       0       0       0       0       0       0
       0       0       0       0       0       0       0       0       0       0
       0       0       0       0       0       0       0       0       0       0
       0       0       0       0       0       0       0       0       0       0
       0       0       0       0       0       0       0       0       0       0
       0       0       0       0       0       0       0       0       0       0
       0       0       0       0       0       0       0       0       0       0
       0       0       0       0       0       0       0       0       0       0
       0       0       0       0       0       0       0       0       0       0
       0       0       0       0       0       0       0       0       0       0
       0       0       0       0       0       0       0       0       0       0
       0       0       0       0       0       0       0       0       0       0
       0       0       0       0       0       0       0       0       0       0
       0       0       0       0       0       0       0       0       0       0
       0       0       0       0       0       0       0       0       0       0
       0       0       0       0       0       0       0       0       0       0
       0       0       0       0       0       0       0       0       0       0
       0       0       0       0       0       0       0       0       0       0
       0       0       0       0       0       0       0       0       0       0
       0       0       0       0       0       0       0       0       0       0
       0       0       0       0       0       0       0       0       0       0
       0       0       0       0       0       0       0       0       0       0
       0       0       0       0       0       0       0       0       0       0
       0       0       0       0       0       0       0       0       0       0
       0       0       0       0       0       0       0       0       0       0
       0       0       0       0       0       0       0       0       0       0
       0       0       0       0       0       0       0       0       0       0
       0       0       0       0       0       0       0       0       0       0
       0       0       0       0       0       0       0       0       0       0
       0       0       0       0       0       0       0       0       0       0
       0       0       0       0       0       0       0       0       0       0
       0       0       0       0       0       0       0       0       0       0
       0       0       0       0       0       0       0       0       0       0
       0       0       0       0       0       0       0       0       0       0
       0       0       0       0       0       0       0       0       0       0
       0       0       0       0       0       0       0       0       0       0
       0       0       0       0       0       0       0       0       0       0
       0       0       0       0       0       0       0       0       0       0
       0       0       0       0       0       0       0       0       0       0
       0       0       0       0       0       0       0       0       0       0
       0       0       0       0       0       0       0       0       0       0
       0       0       0       0       0       0       0       0       0       0
       0       0       0       0       0       0       0       0       0       0
       0       0       0       0       0       0       0       0       0       0
       0       0       0       0       0       0       0       0       0       0
       0       0       0       0       0       0       0       0       0       0
       0       0       0       0       0       0       0       0       0       0
       0       0       0       0       0       0       0       0       0       0
       0       0       0       0       0       0       0       0       0       0
       0       0       0       0       0       0       0       0       0       0
       0       0       0       0       0       0       0       0       0       0
       0       0       0       0       0       0       0       0       0       0
       0       0       0       0       0       0       0       0       0       0
       0       0       0       0       0       0       0       0       0       0
       0       0       0       0       0       0       0       0       0       0
       0       0       0       0       0       0       0       0       0       0
       0       0       0       0       0       0       0       0       0       0
       0       0       0       0       0       0       0       0       0       0
       0       0       0       0       0       0       0       0       0       0
       0       0       0       0       0       0       0       0       0       0
       0       0       0       0       0       0       0       0       0       0
       0       0       0       0       0       0       0       0       0       0
       0       0       0       0       0       0       0       0       0       0
       0       0       0       0       0       0       0       0       0       0
       0       0       0       0       0       0       0       0       0       0
       0       0       0       0       0       0       0       0       0       0
       0       0       0       0       0       0       0       0       0       0
       0       0       0       0       0       0       0       0       0       0
       0       0       0       0       0       0       0       0       0       0
       0       0       0       0       0       0       0       0       0       0
       0       0       0       0       0       0       0       0       0       0
       0       0       0       0       0       0       0       0       0       0
       0       0       0       0       0       0       0       0       0       0
       0       0       0       0       0       0       0       0       0       0
       0       0       0       0       0       0       0       0       0       0
       0       0       0       0       0       0       0       0       0       0
       0       0       0       0       0       0       0       0       0       0
       0       0       0       0       0       0       0       0       0       0
       0       0       0       0       0       0       0       0       0       0
       0       0       0       0       0       0       0       0       0       0
       0       0       0       0       0       0       0       0       0       0
       0       0       0       0       0       0       0       0       0       0
       0       0       0       0       0       0       0       0       0       0
       0       0       0       0       0       0       0       0       0       0
       0       0       0       0       0       0       0       0       0       0
       0       0       0       0       0       0       0       0       0       0
       0       0       0       0       0       0       0       0       0       0
       0       0       0       0       0       0       0       0       0       0
       0       0       0       0       0       0       0       0       0       0
       0       0       0       0       0       0       0       0       0       0
       0       0       0       0       0       0       0       0       0       0
       0       0       0       0       0       0       0       0       0       0
       0       0       0       0       0       0       0       0       0       0
       0       0       0       0       0       0       0       0       0       0
       0       0       0       0       0       0       0       0       0       0
       0       0       0       0       0       0       0       0       0       0
       0       0       0       0       0       0       0       0       0       0
       0       0       0       0       0       0       0       0       0       0
       0       0       0       0       0       0       0       0       0       0
       0       0       0       0       0       0       0       0       0       0
       0       0       0       0       0       0       0       0       0       0
       0       0       0       0       0       0       0       0       0       0
       0       0       0       0       0       0       0       0       0       0
       0       0       0       0       0       0       0       0       0       0
       0       0       0       0       0       0       0       0       0       0
       0       0       0       0       0       0       0       0       0       0
       0       0       0       0       0       0       0       0       0       0
       0       0       0       0       0       0       0       0       0       0
       0       0       0       0       0       0       0       0       0       0
       0       0       0       0       0       0       0       0       0       0
       0       0       0       0       0       0       0       0       0       0
       0       0       0       0       0       0       0       0       0       0
       0       0       0       0       0       0       0       0       0       0
       0       0       0       0       0       0       0       0       0       0
       0       0       0       0       0       0       0       0       0       0
       0       0       0       0       0       0       0       0       0       0
       0       0       0       0       0       0       0       0       0       0
       0       0       0       0       0       0       0       0       0       0
       0       0       0       0       0       0       0       0       0       0
       0       0       0       0       0       0       0       0       0       0
       0       0       0       0       0       0       0       0       0       0
       0       0       0       0       0       0       0       0       0       0
       0       0       0       0       0       0       0       0       0       0
       0       0       0       0       0       0       0       0       0       0
       0       0       0       0       0       0       0       0       0       0
       0       0       0       0       0       0       0       0       0       0
       0       0       0       0       0       0       0       0       0       0
       0       0       0       0       0       0       0       0       0       0
       0       0       0       0       0       0       0       0       0       0
       0       0       0       0       0       0       0       0       0       0
       0       0       0       0       0       0       0       0       0       0
       0       0       0       0       0       0       0       0       0       0
       0       0       0       0       0       0       0       0       0       0
       0       0       0       0       0       0       0       0       0       0
       0       0       0       0       0       0       0       0       0       0
       0       0       0       0       0       0       0       0       0       0
       0       0       0       0       0       0       0       0       0       0
       0       0       0       0       0       0       0       0       0       0
       0       0       0       0       0       0       0       0       0       0
       0       0       0       0       0       0       0       0       0       0
       0       0       0       0       0       0       0       0       0       0
       0       0       0       0       0       0       0       0       0       0
       0       0       0       0       0       0       0       0       0       0
       0       0       0       0       0       0       0       0       0       0
       0       0       0       0       0       0       0       0       0       0
       0       0       0       0       0       0       0       0       0       0
       0       0       0       0       0       0       0       0       0       0
       0       0       0       0       0       0       0       0       0       0
       0       0       0       0       0       0       0       0       0       0
       0       0       0       0       0       0       0       0       0       0
       0       0       0       0       0       0       0       0       0       0
       0       0       0       0       0       0       0       0       0       0
       0       0       0       0       0       0       0       0       0       0
       0       0       0       0       0       0       0       0       0       0
       0       0       0       0       0       0       0       0       0       0
       0       0       0       0       0       0       0       0       0       0
       0       0       0       0       0       0       0       0       0       0
       0       0       0       0       0       0       0       0       0       0
       0       0       0       0       0       0       0       0       0       0
       0       0       0       0       0       0       0       0       0       0
       0       0       0       0       0       0       0       0       0       0
       0       0       0       0       0       0       0       0       0       0
       0       0       0       0       0       0       0       0       0       0
       0       0       0       0       0       0       0       0       0       0
       0       0       0       0       0       0       0       0       0       0
       0       0       0       0       0       0       0       0       0       0
       0       0       0       0       0       0       0       0       0       0
       0       0       0       0       0       0       0       0       0       0
       0       0       0       0       0       0       0       0       0       0
       0       0       0       0       0       0       0       0       0       0
       0       0       0       0       0       0       0       0       0       0
       0       0       0       0       0       0       0       0       0       0
       0       0       0       0       0       0       0       0       0       0
       0       0       0       0       0       0       0       0       0       0
       0       0       0       0       0       0       0       0       0       0
       0       0       0       0       0       0       0       0       0       0
       0       0       0       0       0       0       0       0       0       0
       0       0       0       0       0       0       0       0       0       0
       0       0       0       0       0       0       0       0       0       0
       0       0       0       0       0       0       0       0       0       0
       0       0       0       0       0       0       0       0       0       0
       0       0       0       0       0       0       0       0       0       0
       0       0       0       0       0       0       0       0       0       0
       0       0       0       0       0       0       0       0       0       0
       0       0       0       0       0       0       0       0       0       0
       0       0       0       0       0       0       0       0       0       0
       0       0       0       0       0       0       0       0       0       0
       0       0       0       0       0       0       0       0       0       0
       0       0       0       0       0       0       0       0       0       0
       0       0       0       0       0       0       0       0       0       0
       0       0       0       0       0       0       0       0       0       0
       0       0       0       0       0       0       0       0       0       0
       0       0       0       0       0       0       0       0       0       0
       0       0       0       0       0       0       0       0       0       0
       0       0       0       0       0       0       0       0       0       0
       0       0       0       0       0       0       0       0       0       0
       0       0       0       0       0       0       0       0       0       0
       0       0       0       0       0       0       0       0       0       0
       0       0       0       0       0       0       0       0       0       0
       0       0       0       0       0       0       0       0       0       0
       0       0       0       0       0       0       0       0       0       0
       0       0       0       0       0       0       0       0       0       0
       0       0       0       0       0       0       0       0       0       0
       0       0       0       0       0       0       0       0       0       0
       0       0       0       0       0       0       0       0       0       0
       0       0       0       0       0       0       0       0       0       0
       0       0       0       0       0       0       0       0       0       0
       0       0       0       0       0       0       0       0       0       0
       0       0       0       0       0       0       0       0       0       0
       0       0       0       0       0       0       0       0       0       0
       0       0       0       0       0       0       0       0       0       0
       0       0       0       0       0       0       0       0       0       0
       0       0       0       0       0       0       0       0       0       0
       0       0       0       0       0       0       0       0       0       0
       0       0       0       0       0       0       0       0       0       0
       0       0       0       0       0       0       0       0       0       0
       0       0       0       0       0       0       0       0       0       0
       0       0       0       0       0       0       0       0       0       0
       0       0       0       0       0       0       0       0       0       0
       0       0       0       0       0       0       0       0       0       0
       0       0       0       0       0       0       0       0       0       0
       0       0       0       0       0       0       0       0       0       0
       0       0       0       0       0       0       0       0       0       0
       0       0       0       0       0       0       0       0       0       0
       0       0       0       0       0       0       0       0       0       0
       0       0       0       0       0       0       0       0       0       0
       0       0       0       0       0       0       0       0       0       0
       0       0       0       0       0       0       0       0       0       0
       0       0       0       0       0       0       0       0       0       0
       0       0       0       0       0       0       0       0       0       0
       0       0       0       0       0       0       0       0       0       0
       0       0       0       0       0       0       0       0       0       0
       0       0       0       0       0       0       0       0       0       0
       0       0       0       0       0       0       0       0       0       0
       0       0       0       0       0       0       0       0       0       0
       0       0       0       0       0       0       0       0       0       0
       0       0       0       0       0       0       0       0       0       0
       0       0       0       0       0       0       0       0       0       0
       0       0       0       0       0       0       0       0       0       0
       0       0       0       0       0       0       0       0       0       0
       0       0       0       0       0       0       0       0       0       0
       0       0       0       0       0       0       0       0       0       0
       0       0       0       0       0       0       0       0       0       0
       0       0       0       0       0       0       0       0       0       0
       0       0       0       0       0       0       0       0       0       0
       0       0       0       0       0       0       0       0       0       0
       0       0       0       0       0       0       0       0       0       0
       0       0       0       0       0       0       0       0       0       0
       0       0       0       0       0       0       0       0       0       0
       0       0       0       0       0       0       0       0       0       0
       0       0       0       0       0       0       0       0       0       0
       0       0       0       0       0       0       0       0       0       0
       0       0       0       0       0       0       0       0       0       0
       0       0       0       0       0       0       0       0       0       0
       0       0       0       0       0       0       0       0       0       0
       0       0       0       0       0       0       0       0       0       0
       0       0       0       0       0       0       0       0       0       0
       0       0       0       0       0       0       0       0       0       0
       0       0       0       0       0       0       0       0       0       0
       0       0       0       0       0       0       0       0       0       0
       0       0       0       0       0       0       0       0       0       0
       0       0       0       0       0       0       0       0       0       0
       0       0       0       0       0       0       0       0       0       0
       0       0       0       0       0       0       0       0       0       0
       0       0       0       0       0       0       0       0       0       0
       0       0       0       0       0       0       0       0       0       0
       0       0       0       0       0       0       0       0       0       0
       0       0       0       0       0       0       0       0       0       0
       0       0       0       0       0       0       0       0       0       0
       0       0       0       0       0       0       0       0       0       0
       0       0       0       0       0       0       0       0       0       0
       0       0       0       0       0       0       0       0       0       0
       0       0       0       0       0       0       0       0       0       0
       0       0       0       0       0       0       0       0       0       0
       0       0       0       0       0       0       0       0       0       0
       0       0       0       0       0       0       0       0       0       0
       0       0       0       0       0       0       0       0       0       0
       0       0       0       0       0       0       0       0       0       0
       0       0       0       0       0       0       0       0       0       0
       0       0       0       0       0       0       0       0       0       0
       0       0       0       0       0       0       0       0       0       0
       0       0       0       0       0       0       0       0       0       0
       0       0       0       0       0       0       0       0       0       0
       0       0       0       0       0       0       0       0       0       0
       0       0       0       0       0       0       0       0       0       0
       0       0       0       0       0       0       0       0       0       0
       0       0       0       0       0       0       0       0       0       0
       0       0       0       0       0       0       0       0       0       0
       0       0       0       0       0       0       0       0       0       0
       0       0       0       0       0       0       0       0       0       0
       0       0       0       0       0       0       0       0       0       0
       0       0       0       0       0       0       0       0       0       0
       0       0       0       0       0       0       0       0       0       0
       0       0       0       0       0       0       0       0       0       0
       0       0       0       0       0       0       0       0       0       0
       0       0       0       0       0       0       0       0       0       0
       0       0       0       0       0       0       0       0       0       0
       0       0       0       0       0       0       0       0       0       0
       0       0       0       0       0       0       0       0       0       0
       0       0       0       0       0       0       0       0       0       0
       0       0       0       0       0       0       0       0       0       0
       0       0       0       0       0       0       0       0       0       0
       0       0       0       0       0       0       0       0       0       0
       0       0       0       0       0       0       0       0       0       0
       0       0       0       0       0       0       0       0       0       0
       0       0       0       0       0       0       0       0       0       0
       0       0       0       0       0       0       0       0       0       0
       0       0       0       0       0       0       0       0       0       0
       0       0       0       0       0       0       0       0       0       0
       0       0       0       0       0       0       0       0       0       0
       0       0       0       0       0       0       0       0       0       0
       0       0       0       0       0       0       0       0       0       0
       0       0       0       0       0       0       0       0       0       0
       0       0       0       0       0       0       0       0       0       0
       0       0       0       0       0       0       0       0       0       0
       0       0       0       0       0       0       0       0       0       0
       0       0       0       0       0       0       0       0       0       0
       0       0       0       0       0       0       0       0       0       0
       0       0       0       0       0       0       0       0       0       0
       0       0       0       0       0       0       0       0       0       0
       0       0       0       0       0       0       0       0       0       0
       0       0       0       0       0       0       0       0       0       0
       0       0       0       0       0       0       0       0       0       0
       0       0       0       0       0       0       0       0       0       0
       0       0       0       0       0       0       0       0       0       0
       0       0       0       0       0       0       0       0       0       0
       0       0       0       0       0       0       0       0       0       0
       0       0       0       0       0       0       0       0       0       0
       0       0       0       0       0       0       0       0       0       0
       0       0       0       0       0       0       0       0       0       0
       0       0       0       0       0       0       0       0       0       0
       0       0       0       0       0       0       0       0       0       0
       0       0       0       0       0       0       0       0       0       0
       0       0       0       0       0       0       0       0       0       0
       0       0       0       0       0       0       0       0       0       0
       0       0       0       0       0       0       0       0       0       0
       0       0       0       0       0       0       0       0       0       0
       0       0       0       0       0       0       0       0       0       0
       0       0       0       0       0       0       0       0       0       0
       0       0       0       0       0       0       0       0       0       0
       0       0       0       0       0       0       0       0       0       0
       0       0       0       0       0       0       0       0       0       0
       0       0       0       0       0       0       0       0       0       0
       0       0       0       0       0       0       0       0       0       0
       0       0       0       0       0       0       0       0       0       0
       0       0       0       0       0       0       0       0       0       0
       0       0       0       0       0       0       0       0       0       0
       0       0       0       0       0       0       0       0       0       0
       0       0       0       0       0       0       0       0       0       0
       0       0       0       0       0       0       0       0       0       0
       0       0       0       0       0       0       0       0       0       0
       0       0       0       0       0       0       0       0       0       0
       0       0       0       0       0       0       0       0       0       0
       0       0       0       0       0       0       0       0       0       0
       0       0       0       0       0       0       0       0       0       0
       0       0       0       0       0       0       0       0       0       0
       0       0       0       0       0       0       0       0       0       0
       0       0       0       0       0       0       0       0       0       0
       0       0       0       0       0       0       0       0       0       0
       0       0       0       0       0       0       0       0       0       0
       0       0       0       0       0       0       0       0       0       0
       0       0       0       0       0       0       0       0       0       0
       0       0       0       0       0       0       0       0       0       0
       0       0       0       0       0       0       0       0       0       0
       0       0       0       0       0       0       0       0       0       0
       0       0       0       0       0       0       0       0       0       0
       0       0       0       0       0       0       0       0       0       0
       0       0       0       0       0       0       0       0       0       0
       0       0       0       0       0       0       0       0       0       0
       0       0       0       0       0       0       0       0       0       0
       0       0       0       0       0       0       0       0       0       0
       0       0       0       0       0       0       0       0       0       0
       0       0       0       0       0       0       0       0       0       0
       0       0       0       0       0       0       0       0       0       0
       0       0       0       0       0       0       0       0       0       0
       0       0       0       0       0       0       0       0       0       0
       0       0       0       0       0       0       0       0       0       0
       0       0       0       0       0       0       0       0       0       0
       0       0       0       0       0       0       0       0       0       0
       0       0       0       0       0       0       0       0       0       0
       0       0       0       0       0       0       0       0       0       0
       0       0       0       0       0       0       0       0       0       0
       0       0       0       0       0       0       0       0       0       0
       0       0       0       0       0       0       0       0       0       0
       0       0       0       0       0       0       0       0       0       0
       0       0       0       0       0       0       0       0       0       0
       0       0       0       0       0       0       0       0       0       0
       0       0       0       0       0       0       0       0       0       0
       0       0       0       0       0       0       0       0       0       0
       0       0       0       0       0       0       0       0       0       0
       0       0       0       0       0       0       0       0       0       0
       0       0       0       0       0       0       0       0       0       0
       0       0       0       0       0       0       0       0       0       0
       0       0       0       0       0       0       0       0       0       0
       0       0       0       0       0       0       0       0       0       0
       0       0       0       0       0       0       0       0       0       0
       0       0       0       0       0       0       0       0       0       0
       0       0       0       0       0       0       0       0       0       0
       0       0       0       0       0       0       0       0       0       0
       0       0       0       0       0       0       0       0       0       0
       0       0       0       0       0       0       0       0       0       0
       0       0       0       0       0       0       0       0       0       0
       0       0       0       0       0       0       0       0       0       0
       0       0       0       0       0       0       0       0       0       0
       0       0       0       0       0       0       0       0       0       0
       0       0       0       0       0       0       0       0       0       0
       0       0       0       0       0       0       0       0       0       0
       0       0       0       0       0       0       0       0       0       0
       0       0       0       0       0       0       0       0       0       0
       0       0       0       0       0       0       0       0       0       0
       0       0       0       0       0       0       0       0       0       0
       0       0       0       0       0       0       0       0       0       0
       0       0       0       0       0       0       0       0       0       0
       0       0       0       0       0       0       0       0       0       0
       0       0       0       0       0       0       0       0       0       0
       0       0       0       0       0       0       0       0       0       0
       0       0       0       0       0       0       0       0       0       0
       0       0       0       0       0       0       0       0       0       0
       0       0       0       0       0       0       0       0       0       0
       0       0       0       0       0       0       0       0       0       0
       0       0       0       0       0       0       0       0       0       0
       0       0       0       0       0       0       0       0       0       0
       0       0       0       0       0       0       0       0       0       0
       0       0       0       0       0       0       0       0       0       0
       0       0       0       0       0       0       0       0       0       0
       0       0       0       0       0       0       0       0       0       0
       0       0       0       0       0       0       0       0       0       0
       0       0       0       0       0       0       0       0       0       0
       0       0       0       0       0       0       0       0       0       0
       0       0       0       0       0       0       0       0       0       0
       0       0       0       0       0       0       0       0       0       0
       0       0       0       0       0       0       0       0       0       0
       0       0       0       0       0       0       0       0       0       0
       0       0       0       0       0       0       0       0       0       0
       0       0       0       0       0       0       0       0       0       0
       0       0       0       0       0       0       0       0       0       0
       0       0       0       0       0       0       0       0       0       0
       0       0       0       0       0       0       0       0       0       0
       0       0       0       0       0       0       0       0       0       0
       0       0       0       0       0       0       0       0       0       0
       0       0       0       0       0       0       0       0       0       0
       0       0       0       0       0       0       0       0       0       0
       0       0       0       0       0       0       0       0       0       0
       0       0       0       0       0       0       0       0       0       0
       0       0       0       0       0       0       0       0       0       0
       0       0       0       0       0       0       0       0       0       0
       0       0       0       0       0       0       0       0       0       0
       0       0       0       0       0       0       0       0       0       0
       0       0       0       0       0       0       0       0       0       0
       0       0       0       0       0       0       0       0       0       0
       0       0       0       0       0       0       0       0       0       0
       0       0       0       0       0       0       0       0       0       0
       0       0       0       0       0       0       0       0       0       0
       0       0       0       0       0       0       0       0       0       0
       0       0       0       0       0       0       0       0       0       0
       0       0       0       0       0       0       0       0       0       0
       0       0       0       0       0       0       0       0       0       0
       0       0       0       0       0       0       0       0       0       0
       0       0       0       0       0       0       0       0       0       0
       0       0       0       0       0       0       0       0       0       0
       0       0       0       0       0       0       0       0       0       0
       0       0       0       0       0       0       0       0       0       0
       0       0       0       0       0       0       0       0       0       0
       0       0       0       0       0       0       0       0       0       0
       0       0       0       0       0       0       0       0       0       0
       0       0       0       0       0       0       0       0       0       0
       0       0       0       0       0       0       0       0       0       0
       0       0       0       0       0       0       0       0       0       0
       0       0       0       0       0       0       0       0       0       0
       0       0       0       0       0       0       0       0       0       0
       0       0       0       0       0       0       0       0       0       0
       0       0       0       0       0       0       0       0       0       0
       0       0       0       0       0       0       0       0       0       0
       0       0       0       0       0       0       0       0       0       0
       0       0       0       0       0       0       0       0       0       0
       0       0       0       0       0       0       0       0       0       0
       0       0       0       0       0       0       0       0       0       0
       0       0       0       0       0       0       0       0       0       0
       0       0       0       0       0       0       0       0       0       0
       0       0       0       0       0       0       0       0       0       0
       0       0       0       0       0       0       0       0       0       0
       0       0       0       0       0       0       0       0       0       0
       0       0       0       0       0       0       0       0       0       0
       0       0       0       0       0       0       0       0       0       0
       0       0       0       0       0       0       0       0       0       0
       0       0       0       0       0       0       0       0       0       0
       0       0       0       0       0       0       0       0       0       0
       0       0       0       0       0       0       0       0       0       0
       0       0       0       0       0       0       0       0       0       0
       0       0       0       0       0       0       0       0       0       0
       0       0       0       0       0       0       0       0       0       0
       0       0       0       0       0       0       0       0       0       0
       0       0       0       0       0       0       0       0       0       0
       0       0       0       0       0       0       0       0       0       0
       0       0       0       0       0       0       0       0       0       0
       0       0       0       0       0       0       0       0       0       0
       0       0       0       0       0       0       0       0       0       0
       0       0       0       0       0       0       0       0       0       0
       0       0       0       0       0       0       0       0       0       0
       0       0       0       0       0       0       0       0       0       0
       0       0       0       0       0       0       0       0       0       0
       0       0       0       0       0       0       0       0       0       0
       0       0       0       0       0       0       0       0       0       0
       0       0       0       0       0       0       0       0       0       0
       0       0       0       0       0       0       0       0       0       0
       0       0       0       0       0       0       0       0       0       0
       0       0       0       0       0       0       0       0       0       0
       0       0       0       0       0       0       0       0       0       0
       0       0       0       0       0       0       0       0       0       0
       0       0       0       0       0       0       0       0       0       0
       0       0       0       0       0       0       0       0       0       0
       0       0       0       0       0       0       0       0       0       0
       0       0       0       0       0       0       0       0       0       0
       0       0       0       0       0       0       0       0       0       0
       0       0       0       0       0       0       0       0       0       0
       0       0       0       0       0       0       0       0       0       0
       0       0       0       0       0       0       0       0       0       0
       0       0       0       0       0       0       0       0       0       0
       0       0       0       0       0       0       0       0       0       0
       0       0       0       0       0       0       0       0       0       0
       0       0       0       0       0       0       0       0       0       0
       0       0       0       0       0       0       0       0       0       0
       0       0       0       0       0       0       0       0       0       0
       0       0       0       0       0       0       0       0       0       0
       0       0       0       0       0       0       0       0       0       0
       0       0       0       0       0       0       0       0       0       0
       0       0       0       0       0       0       0       0       0       0
       0       0       0       0       0       0       0       0       0       0
       0       0       0       0       0       0       0       0       0       0
       0       0       0       0       0       0       0       0       0       0
       0       0       0       0       0       0       0       0       0       0
       0       0       0       0       0       0       0       0       0       0
       0       0       0       0       0       0       0       0       0       0
       0       0       0       0       0       0       0       0       0       0
       0       0       0       0       0       0       0       0       0       0
       0       0       0       0       0       0       0       0       0       0
       0       0       0       0       0       0       0       0       0       0
       0       0       0       0       0       0       0       0       0       0
       0       0       0       0       0       0       0       0       0       0
       0       0       0       0       0       0       0       0       0       0
       0       0       0       0       0       0       0       0       0       0
       0       0       0       0       0       0       0       0       0       0
       0       0       0       0       0       0       0       0       0       0
       0       0       0       0       0       0       0       0       0       0
       0       0       0       0       0       0       0       0       0       0
       0       0       0       0       0       0       0       0       0       0
       0       0       0       0       0       0       0       0       0       0
       0       0       0       0       0       0       0       0       0       0
       0       0       0       0       0       0       0       0       0       0
       0       0       0       0       0       0       0       0       0       0
       0       0       0       0       0       0       0       0       0       0
       0       0       0       0       0       0       0       0       0       0
       0       0       0       0       0       0       0       0       0       0
       0       0       0       0       0       0       0       0       0       0
       0       0       0       0       0       0       0       0       0       0
       0       0       0       0       0       0       0       0       0       0
       0       0       0       0       0       0       0       0       0       0
       0       0       0       0       0       0       0       0       0       0
       0       0       0       0       0       0       0       0       0       0
       0       0       0       0       0       0       0       0       0       0
       0       0       0       0       0       0       0       0       0       0
       0       0       0       0       0       0       0       0       0       0
       0       0       0       0       0       0       0       0       0       0
       0       0       0       0       0       0       0       0       0       0
       0       0       0       0       0       0       0       0       0       0
       0       0       0       0       0       0       0       0       0       0
       0       0       0       0       0       0       0       0       0       0
       0       0       0       0       0       0       0       0       0       0
       0       0       0       0       0       0       0       0       0       0
       0       0       0       0       0       0       0       0       0       0
       0       0       0       0       0       0       0       0       0       0
       0       0       0       0       0       0       0       0       0       0
       0       0       0       0       0       0       0       0       0       0
       0       0       0       0       0       0       0       0       0       0
       0       0       0       0       0       0       0       0       0       0
       0       0       0       0       0       0       0       0       0       0
       0       0       0       0       0       0       0       0       0       0
       0       0       0       0       0       0       0       0       0       0
       0       0       0       0       0       0       0       0       0       0
       0       0       0       0       0       0       0       0       0       0
       0       0       0       0       0       0       0       0       0       0
       0       0       0       0       0       0       0       0       0       0
       0       0       0       0       0       0       0       0       0       0
       0       0       0       0       0       0       0       0       0       0
       0       0       0       0       0       0       0       0       0       0
       0       0       0       0       0       0       0       0       0       0
       0       0       0       0       0       0       0       0       0       0
       0       0       0       0       0       0       0       0       0       0
       0       0       0       0       0       0       0       0       0       0
       0       0       0       0       0       0       0       0       0       0
       0       0       0       0       0       0       0       0       0       0
       0       0       0       0       0       0       0       0       0       0
       0       0       0       0       0       0       0       0       0       0
       0       0       0       0       0       0       0       0       0       0
       0       0       0       0       0       0       0       0       0       0
       0       0       0       0       0       0       0       0       0       0
       0       0       0       0       0       0       0       0       0       0
       0       0       0       0       0       0       0       0       0       0
       0       0       0       0       0       0       0       0       0       0
       0       0       0       0       0       0       0       0       0       0
       0       0       0       0       0       0       0       0       0       0
       0       0       0       0       0       0       0       0       0       0
       0       0       0       0       0       0       0       0       0       0
       0       0       0       0       0       0       0       0       0       0
       0       0       0       0       0       0       0       0       0       0
       0       0       0       0       0       0       0       0       0       0
       0       0       0       0       0       0       0       0       0       0
       0       0       0       0       0       0       0       0       0       0
       0       0       0       0       0       0       0       0       0       0
       0       0       0       0       0       0       0       0       0       0
       0       0       0       0       0       0       0       0       0       0
       0       0       0       0       0       0       0       0       0       0
       0       0       0       0       0       0       0       0       0       0
       0       0       0       0       0       0       0       0       0       0
       0       0       0       0       0       0       0       0       0       0
       0       0       0       0       0       0       0       0       0       0
       0       0       0       0       0       0       0       0       0       0
       0       0       0       0       0       0       0       0       0       0
       0       0       0       0       0       0       0       0       0       0
       0       0       0       0       0       0       0       0       0       0
       0       0       0       0       0       0       0       0       0       0
       0       0       0       0       0       0       0       0       0       0
       0       0       0       0       0       0       0       0       0       0
       0       0       0       0       0       0       0       0       0       0
       0       0       0       0       0       0       0       0       0       0
       0       0       0       0       0       0       0       0       0       0
       0       0       0       0       0       0       0       0       0       0
       0       0       0       0       0       0       0       0       0       0
       0       0       0       0       0       0       0       0       0       0
       0       0       0       0       0       0       0       0       0       0
       0       0       0       0       0       0       0       0       0       0
       0       0       0       0       0       0       0       0       0       0
       0       0       0       0       0       0       0       0       0       0
       0       0       0       0       0       0       0       0       0       0
       0       0       0       0       0       0       0       0       0       0
       0       0       0       0       0       0       0       0       0       0
       0       0       0       0       0       0       0       0       0       0
       0       0       0       0       0       0       0       0       0       0
       0       0       0       0       0       0       0       0       0       0
       0       0       0       0       0       0       0       0       0       0
       0       0       0       0       0       0       0       0       0       0
       0       0       0       0       0       0       0       0       0       0
       0       0       0       0       0       0       0       0       0       0
       0       0       0       0       0       0       0       0       0       0
       0       0       0       0       0       0       0       0       0       0
       0       0       0       0       0       0       0       0       0       0
       0       0       0       0       0       0       0       0       0       0
       0       0       0       0       0       0       0       0       0       0
       0       0       0       0       0       0       0       0       0       0
       0       0       0       0       0       0       0       0       0       0
       0       0       0       0       0       0       0       0       0       0
       0       0       0       0       0       0       0       0       0       0
       0       0       0       0       0       0       0       0       0       0
       0       0       0       0       0       0       0       0       0       0
       0       0       0       0       0       0       0       0       0       0
       0       0       0       0       0       0       0       0       0       0
       0       0       0       0       0       0       0       0       0       0
       0       0       0       0       0       0       0       0       0       0
       0       0       0       0       0       0       0       0       0       0
       0       0       0       0       0       0       0       0       0       0
       0       0       0       0       0       0       0       0       0       0
       0       0       0       0       0       0       0       0       0       0
       0       0       0       0       0       0       0       0       0       0
       0       0       0       0       0       0       0       0       0       0
       0       0       0       0       0       0       0       0       0       0
       0       0       0       0       0       0       0       0       0       0
       0       0       0       0       0       0       0       0       0       0
       0       0       0       0       0       0       0       0       0       0
       0       0       0       0       0       0       0       0       0       0
       0       0       0       0       0       0       0       0       0       0
       0       0       0       0       0       0       0       0       0       0
       0       0       0       0       0       0       0       0       0       0
       0       0       0       0       0       0       0       0       0       0
       0       0       0       0       0       0       0       0       0       0
       0       0       0       0       0       0       0       0       0       0
       0       0       0       0       0       0       0       0       0       0
       0       0       0       0       0       0       0       0       0       0
       0       0       0       0       0       0       0       0       0       0
       0       0       0       0       0       0       0       0       0       0
       0       0       0       0       0       0       0       0       0       0
       0       0       0       0       0       0       0       0       0       0
       0       0       0       0       0       0       0       0       0       0
       0       0       0       0       0       0       0       0       0       0
       0       0       0       0       0       0       0       0       0       0
       0       0       0       0       0       0       0       0       0       0
       0       0       0       0       0       0       0       0       0       0
       0       0       0       0       0       0       0       0       0       0
       0       0       0       0       0       0       0       0       0       0
       0       0       0       0       0       0       0       0       0       0
       0       0       0       0       0       0       0       0       0       0
       0       0       0       0       0       0       0       0       0       0
       0       0       0       0       0       0       0       0       0       0
       0       0       0       0       0       0       0       0       0       0
       0       0       0       0       0       0       0       0       0       0
       0       0       0       0       0       0       0       0       0       0
       0       0       0       0       0       0       0       0       0       0
       0       0       0       0       0       0       0       0       0       0
       0       0       0       0       0       0       0       0       0       0
       0       0       0       0       0       0       0       0       0       0
       0       0       0       0       0       0       0       0       0       0
       0       0       0       0       0       0       0       0       0       0
       0       0       0       0       0       0       0       0       0       0
       0       0       0       0       0       0       0       0       0       0
       0       0       0       0       0       0       0       0       0       0
       0       0       0       0       0       0       0       0       0       0
       0       0       0       0       0       0       0       0       0       0
       0       0       0       0       0       0       0       0       0       0
       0       0       0       0       0       0       0       0       0       0
       0       0       0       0       0       0       0       0       0       0
       0       0       0       0       0       0       0       0       0       0
       0       0       0       0       0       0       0       0       0       0
       0       0       0       0       0       0       0       0       0       0
       0       0       0       0       0       0       0       0       0       0
       0       0       0       0       0       0       0       0       0       0
       0       0       0       0       0       0       0       0       0       0
       0       0       0       0       0       0       0       0       0       0
       0       0       0       0       0       0       0       0       0       0
       0       0       0       0       0       0       0       0       0       0
       0       0       0       0       0       0       0       0       0       0
       0       0       0       0       0       0       0       0       0       0
       0       0       0       0       0       0       0       0       0       0
       0       0       0       0       0       0       0       0       0       0
       0       0       0       0       0       0       0       0       0       0
       0       0       0       0       0       0       0       0       0       0
       0       0       0       0       0       0       0       0       0       0
       0       0       0       0       0       0       0       0       0       0
       0       0       0       0       0       0       0       0       0       0
       0       0       0       0       0       0       0       0       0       0
       0       0       0       0       0       0       0       0       0       0
       0       0       0       0       0       0       0       0       0       0
       0       0       0       0       0       0       0       0       0       0
       0       0       0       0       0       0       0       0       0       0
       0       0       0       0       0       0       0       0       0       0
       0       0       0       0       0       0       0       0       0       0
       0       0       0       0       0       0       0       0       0       0
       0       0       0       0       0       0       0       0       0       0
       0       0       0       0       0       0       0       0       0       0
       0       0       0       0       0       0       0       0       0       0
       0       0       0       0       0       0       0       0       0       0
       0       0       0       0       0       0       0       0       0       0
       0       0       0       0       0       0       0       0       0       0
       0       0       0       0       0       0       0       0       0       0
       0       0       0       0       0       0       0       0       0       0
       0       0       0       0       0       0       0       0       0       0
       0       0       0       0       0       0       0       0       0       0
       0       0       0       0       0       0       0       0       0       0
       0       0       0       0       0       0       0       0       0       0
       0       0       0       0       0       0       0       0       0       0
       0       0       0       0       0       0       0       0       0       0
       0       0       0       0       0       0       0       0       0       0
       0       0       0       0       0       0       0       0       0       0
       0       0       0       0       0       0       0       0       0       0
       0       0       0       0       0       0       0       0       0       0
       0       0       0       0       0       0       0       0       0       0
       0       0       0       0       0       0       0       0       0       0
       0       0       0       0       0       0       0       0       0       0
       0       0       0       0       0       0       0       0       0       0
       0       0       0       0       0       0       0       0       0       0
       0       0       0       0       0       0       0       0       0       0
       0       0       0       0       0       0       0       0       0       0
       0       0       0       0       0       0       0       0       0       0
       0       0       0       0       0       0       0       0       0       0
       0       0       0       0       0       0       0       0       0       0
       0       0       0       0       0       0       0       0       0       0
       0       0       0       0       0       0       0       0       0       0
       0       0       0       0       0       0       0       0       0       0
       0       0       0       0       0       0       0       0       0       0
       0       0       0       0       0       0       0       0       0       0
       0       0       0       0       0       0       0       0       0       0
       0       0       0       0       0       0       0       0       0       0
       0       0       0       0       0       0       0       0       0       0
       0       0       0       0       0       0       0       0       0       0
       0       0       0       0       0       0       0       0       0       0
       0       0       0       0       0       0       0       0       0       0
       0       0       0       0       0       0       0       0       0       0
       0       0       0       0       0       0       0       0       0       0
       0       0       0       0       0       0       0       0       0       0
       0       0       0       0       0       0       0       0       0       0
       0       0       0       0       0       0       0       0       0       0
       0       0       0       0       0       0       0       0       0       0
       0       0       0       0       0       0       0       0       0       0
       0       0       0       0       0       0       0       0       0       0
       0       0       0       0       0       0       0       0       0       0
       0       0       0       0       0       0       0       0       0       0
       0       0       0       0       0       0       0       0       0       0
       0       0       0       0       0       0       0       0       0       0
       0       0       0       0       0       0       0       0       0       0
       0       0       0       0       0       0       0       0       0       0
       0       0       0       0       0       0       0       0       0       0
       0       0       0       0       0       0       0       0       0       0
       0       0       0       0       0       0       0       0       0       0
       0       0       0       0       0       0       0       0       0       0
       0       0       0       0       0       0       0       0       0       0
       0       0       0       0       0       0       0       0       0       0
       0       0       0       0       0       0       0       0       0       0
       0       0       0       0       0       0       0       0       0       0
       0       0       0       0       0       0       0       0       0       0
       0       0       0       0       0       0       0       0       0       0
       0       0       0       0       0       0       0       0       0       0
       0       0       0       0       0       0       0       0       0       0
       0       0       0       0       0       0       0       0       0       0
       0       0       0       0       0       0       0       0       0       0
       0       0       0       0       0       0       0       0       0       0
       0       0       0       0       0       0       0       0       0       0
       0       0       0       0       0       0       0       0       0       0
       0       0       0       0       0       0       0       0       0       0
       0       0       0       0       0       0       0       0       0       0
       0       0       0       0       0       0       0       0       0       0
       0       0       0       0       0       0       0       0       0       0
       0       0       0       0       0       0       0       0       0       0
       0       0       0       0       0       0       0       0       0       0
       0       0       0       0       0       0       0       0       0       0
       0       0       0       0       0       0       0       0       0       0
       0       0       0       0       0       0       0       0       0       0
       0       0       0       0       0       0       0       0       0       0
       0       0       0       0       0       0       0       0       0       0
       0       0       0       0       0       0       0       0       0       0
       0       0       0       0       0       0       0       0       0       0
       0       0       0       0       0       0       0       0       0       0
       0       0       0       0       0       0       0       0       0       0
       0       0       0       0       0       0       0       0       0       0
       0       0       0       0       0       0       0       0       0       0
       0       0       0       0       0       0       0       0       0       0
       0       0       0       0       0       0       0       0       0       0
       0       0       0       0       0       0       0       0       0       0
       0       0       0       0       0       0       0       0       0       0
       0       0       0       0       0       0       0       0       0       0
       0       0       0       0       0       0       0       0       0       0
       0       0       0       0       0       0       0       0       0       0
       0       0       0       0       0       0       0       0       0       0
       0       0       0       0       0       0       0       0       0       0
       0       0       0       0       0       0       0       0       0       0
       0       0       0       0       0       0       0       0       0       0
       0       0       0       0       0       0       0       0       0       0
       0       0       0       0       0       0       0       0       0       0
       0       0       0       0       0       0       0       0       0       0
       0       0       0       0       0       0       0       0       0       0
       0       0       0       0       0       0       0       0       0       0
       0       0       0       0       0       0       0       0       0       0
       0       0       0       0       0       0       0       0       0       0
       0       0       0       0       0       0       0       0       0       0
       0       0       0       0       0       0       0       0       0       0
       0       0       0       0       0       0       0       0       0       0
       0       0       0       0       0       0       0       0       0       0
       0       0       0       0       0       0       0       0       0       0
       0       0       0       0       0       0       0       0       0       0
       0       0       0       0       0       0       0       0       0       0
       0       0       0       0       0       0       0       0       0       0
       0       0       0       0       0       0       0       0       0       0
       0       0       0       0       0       0       0       0       0       0
       0       0       0       0       0       0       0       0       0       0
       0       0       0       0       0       0       0       0       0       0
       0       0       0       0       0       0       0       0       0       0
       0       0       0       0       0       0       0       0       0       0
       0       0       0       0       0       0       0       0       0       0
       0       0       0       0       0       0       0       0       0       0
       0       0       0       0       0       0       0       0       0       0
       0       0       0       0       0       0       0       0       0       0
       0       0       0       0       0       0       0       0       0       0
       0       0       0       0       0       0       0       0       0       0
       0       0       0       0       0       0       0       0       0       0
       0       0       0       0       0       0       0       0       0       0
       0       0       0       0       0       0       0       0       0       0
       0       0       0       0       0       0       0       0       0       0
       0       0       0       0       0       0       0       0       0       0
       0       0       0       0       0       0       0       0       0       0
       0       0       0       0       0       0       0       0       0       0
       0       0       0       0       0       0       0       0       0       0
       0       0       0       0       0       0       0       0       0       0
       0       0       0       0       0       0       0       0       0       0
       0       0       0       0       0       0       0       0       0       0
       0       0       0       0       0       0       0       0       0       0
       0       0       0       0       0       0       0       0       0       0
       0       0       0       0       0       0       0       0       0       0
       0       0       0       0       0       0       0       0       0       0
       0       0       0       0       0       0       0       0       0       0
       0       0       0       0       0       0       0       0       0       0
       0       0       0       0       0       0       0       0       0       0
       0       0       0       0       0       0       0       0       0       0
       0       0       0       0       0       0       0       0       0       0
       0       0       0       0       0       0       0       0       0       0
       0       0       0       0       0       0       0       0       0       0
       0       0       0       0       0       0       0       0       0       0
       0       0       0       0       0       0       0       0       0       0
       0       0       0       0       0       0       0       0       0       0
       0       0       0       0       0       0       0       0       0       0
       0       0       0       0       0       0       0       0       0       0
       0       0       0       0       0       0       0       0       0       0
       0       0       0       0       0       0       0       0       0       0
       0       0       0       0       0       0       0       0       0       0
       0       0       0       0       0       0       0       0       0       0
       0       0       0       0       0       0       0       0       0       0
       0       0       0       0       0       0       0       0       0       0
       0       0       0       0       0       0       0       0       0       0
       0       0       0       0       0       0       0       0       0       0
       0       0       0       0       0       0       0       0       0       0
       0       0       0       0       0       0       0       0       0       0
       0       0       0       0       0       0       0       0       0       0
       0       0       0       0       0       0       0       0       0       0
       0       0       0       0       0       0       0       0       0       0
       0       0       0       0       0       0       0       0       0       0
       0       0       0       0       0       0       0       0       0       0
       0       0       0       0       0       0       0       0       0       0
       0       0       0       0       0       0       0       0       0       0
       0       0       0       0       0       0       0       0       0       0
       0       0       0       0       0       0       0       0       0       0
       0       0       0       0       0       0       0       0       0       0
       0       0       0       0       0       0       0       0       0       0
       0       0       0       0       0       0       0       0       0       0
       0       0       0       0       0       0       0       0       0       0
       0       0       0       0       0       0       0       0       0       0
       0       0       0       0       0       0       0       0       0       0
       0       0       0       0       0       0       0       0       0       0
       0       0       0       0       0       0       0       0       0       0
       0       0       0       0       0       0       0       0       0       0
       0       0       0       0       0       0       0       0       0       0
       0       0       0       0       0       0       0       0       0       0
       0       0       0       0       0       0       0       0       0       0
       0       0       0       0       0       0       0       0       0       0
       0       0       0       0       0       0       0       0       0       0
       0       0       0       0       0       0       0       0       0       0
       0       0       0       0       0       0       0       0       0       0
       0       0       0       0       0       0       0       0       0       0
       0       0       0       0       0       0       0       0       0       0
       0       0       0       0       0       0       0       0       0       0
       0       0       0       0       0       0       0       0       0       0
       0       0       0       0       0       0       0       0       0       0
       0       0       0       0       0       0       0       0       0       0
       0       0       0       0       0       0       0       0       0       0
       0       0       0       0       0       0       0       0       0       0
       0       0       0       0       0       0       0       0       0       0
       0       0       0       0       0       0       0       0       0       0
       0       0       0       0       0       0       0       0       0       0
       0       0       0       0       0       0       0       0       0       0
       0       0       0       0       0       0       0       0       0       0
       0       0       0       0       0       0       0       0       0       0
       0       0       0       0       0       0       0       0       0       0
       0       0       0       0       0       0       0       0       0       0
       0       0       0       0       0       0       0       0       0       0
       0       0       0       0       0       0       0       0       0       0
       0       0       0       0       0       0       0       0       0       0
       0       0       0       0       0       0       0       0       0       0
       0       0       0       0       0       0       0       0       0       0
       0       0       0       0       0       0       0       0       0       0
       0       0       0       0       0       0       0       0       0       0
       0       0       0       0       0       0       0       0       0       0
       0       0       0       0       0       0       0       0       0       0
       0       0       0       0       0       0       0       0       0       0
       0       0       0       0       0       0       0       0       0       0
       0       0       0       0       0       0       0       0       0       0
       0       0       0       0       0       0       0       0       0       0
       0       0       0       0       0       0       0       0       0       0
       0       0       0       0       0       0       0       0       0       0
       0       0       0       0       0       0       0       0       0       0
       0       0       0       0       0       0       0       0       0       0
       0       0       0       0       0       0       0       0       0       0
       0       0       0       0       0       0       0       0       0       0
       0       0       0       0       0       0       0       0       0       0
       0       0       0       0       0       0       0       0       0       0
       0       0       0       0       0       0       0       0       0       0
       0       0       0       0       0       0       0       0       0       0
       0       0       0       0       0       0       0       0       0       0
       0       0       0       0       0       0       0       0       0       0
       0       0       0       0       0       0       0       0       0       0
       0       0       0       0       0       0       0       0       0       0
       0       0       0       0       0       0       0       0       0       0
       0       0       0       0       0       0       0       0       0       0
       0       0       0       0       0       0       0       0       0       0
       0       0       0       0       0       0       0       0       0       0
       0       0       0       0       0       0       0       0       0       0
       0       0       0       0       0       0       0       0       0       0
       0       0       0       0       0       0       0       0       0       0
       0       0       0       0       0       0       0       0       0       0
       0       0       0       0       0       0       0       0       0       0
       0       0       0       0       0       0       0       0       0       0
       0       0       0       0       0       0       0       0       0       0
       0       0       0       0       0       0       0       0       0       0
       0       0       0       0       0       0       0       0       0       0
       0       0       0       0       0       0       0       0       0       0
       0       0       0       0       0       0       0       0       0       0
       0       0       0       0       0       0       0       0       0       0
       0       0       0       0       0       0       0       0       0       0
       0       0       0       0       0       0       0       0       0       0
       0       0       0       0       0       0       0       0       0       0
       0       0       0       0       0       0       0       0       0       0
       0       0       0       0       0       0       0       0       0       0
       0       0       0       0       0       0       0       0       0       0
       0       0       0       0       0       0       0       0       0       0
       0       0       0       0       0       0       0       0       0       0
       0       0       0       0       0       0       0       0       0       0
       0       0       0       0       0       0       0       0       0       0
       0       0       0       0       0       0       0       0       0       0
       0       0       0       0       0       0       0       0       0       0
       0       0       0       0       0       0       0       0       0       0
       0       0       0       0       0       0       0       0       0       0
       0       0       0       0       0       0       0       0       0       0
       0       0       0       0       0       0       0       0       0       0
       0       0       0       0       0       0       0       0       0       0
       0       0       0       0       0       0       0       0       0       0
       0       0       0       0       0       0       0       0       0       0
       0       0       0       0       0       0       0       0       0       0
       0       0       0       0       0       0       0       0       0       0
       0       0       0       0       0       0       0       0       0       0
       0       0       0       0       0       0       0       0       0       0
       0       0       0       0       0       0       0       0       0       0
       0       0       0       0       0       0       0       0       0       0
       0       0       0       0       0       0       0       0       0       0
       0       0       0       0       0       0       0       0       0       0
       0       0       0       0       0       0       0       0       0       0
       0       0       0       0       0       0       0       0       0       0
       0       0       0       0       0       0       0       0       0       0
       0       0       0       0       0       0       0       0       0       0
       0       0       0       0       0       0       0       0       0       0
       0       0       0       0       0       0       0       0       0       0
       0       0       0       0       0       0       0       0       0       0
       0       0       0       0       0       0       0       0       0       0
       0       0       0       0       0       0       0       0       0       0
       0       0       0       0       0       0       0       0       0       0
       0       0       0       0       0       0       0       0       0       0
       0       0       0       0       0       0       0       0       0       0
       0       0       0       0       0       0       0       0       0       0
       0       0       0       0       0       0       0       0       0       0
       0       0       0       0       0       0       0       0       0       0
       0       0       0       0       0       0       0       0       0       0
       0       0       0       0       0       0       0       0       0       0
       0       0       0       0       0       0       0       0       0       0
       0       0       0       0       0       0       0       0       0       0
       0       0       0       0       0       0       0       0       0       0
       0       0       0       0       0       0       0       0       0       0
       0       0       0       0       0       0       0       0       0       0
       0       0       0       0       0       0       0       0       0       0
       0       0       0       0       0       0       0       0       0       0
       0       0       0       0       0       0       0       0       0       0
       0       0       0       0       0       0       0       0       0       0
       0       0       0       0       0       0       0       0       0       0
       0       0       0       0       0       0       0       0       0       0
       0       0       0       0       0       0       0       0       0       0
       0       0       0       0       0       0       0       0       0       0
       0       0       0       0       0       0       0       0       0       0
       0       0       0       0       0       0       0       0       0       0
       0       0       0       0       0       0       0       0       0       0
       0       0       0       0       0       0       0       0       0       0
       0       0       0       0       0       0       0       0       0       0
       0       0       0       0       0       0       0       0       0       0
       0       0       0       0       0       0       0       0       0       0
       0       0       0       0       0       0       0       0       0       0
       0       0       0       0       0       0       0       0       0       0
       0       0       0       0       0       0       0       0       0       0
       0       0       0       0       0       0       0       0       0       0
       0       0       0       0       0       0       0       0       0       0
       0       0       0       0       0       0       0       0       0       0
       0       0       0       0       0       0       0       0       0       0
       0       0       0       0       0       0       0       0       0       0
       0       0       0       0       0       0       0       0       0       0
       0       0       0       0       0       0       0       0       0       0
       0       0       0       0       0       0       0       0       0       0
       0       0       0       0       0       0       0       0       0       0
       0       0       0       0       0       0       0       0       0       0
       0       0       0       0       0       0       0       0       0       0
       0       0       0       0       0       0       0       0       0       0
       0       0       0       0       0       0       0       0       0       0
       0       0       0       0       0       0       0       0       0       0
       0       0       0       0       0       0       0       0       0       0
       0       0       0       0       0       0       0       0       0       0
       0       0       0       0       0       0       0       0       0       0
       0       0       0       0       0       0       0       0       0       0
       0       0       0       0       0       0       0       0       0       0
       0       0       0       0       0       0       0       0       0       0
       0       0       0       0       0       0       0       0       0       0
       0       0       0       0       0       0       0       0       0       0
       0       0       0       0       0       0       0       0       0       0
       0       0       0       0       0       0       0       0       0       0
       0       0       0       0       0       0       0       0       0       0
       0       0       0       0       0       0       0       0       0       0
       0       0       0       0       0       0       0       0       0       0
       0       0       0       0       0       0       0       0       0       0
       0       0       0       0       0       0       0       0       0       0
       0       0       0       0       0       0       0       0       0       0
       0       0       0       0       0       0       0       0       0       0
       0       0       0       0       0       0       0       0       0       0
       0       0       0       0       0       0       0       0       0       0
       0       0       0       0       0       0       0       0       0       0
       0       0       0       0       0       0       0       0       0       0
       0       0       0       0       0       0       0       0       0       0
       0       0       0       0       0       0       0       0       0       0
       0       0       0       0       0       0       0       0       0       0
       0       0       0       0       0       0       0       0       0       0
       0       0       0       0       0       0       0       0       0       0
       0       0       0       0       0       0       0       0       0       0
       0       0       0       0       0       0       0       0       0       0
       0       0       0       0       0       0       0       0       0       0
       0       0       0       0       0       0       0       0       0       0
       0       0       0       0       0       0       0       0       0       0
       0       0       0       0       0       0       0       0       0       0
       0       0       0       0       0       0       0       0       0       0
       0       0       0       0       0       0       0       0       0       0
       0       0       0       0       0       0       0       0       0       0
       0       0       0       0       0       0       0       0       0       0
       0       0       0       0       0       0       0       0       0       0
       0       0       0       0       0       0       0       0       0       0
       0       0       0       0       0       0       0       0       0       0
       0       0       0       0       0       0       0       0       0       0
       0       0       0       0       0       0       0       0       0       0
       0       0       0       0       0       0       0       0       0       0
       0       0       0       0       0       0       0       0       0       0
       0       0       0       0       0       0       0       0       0       0
       0       0       0       0       0       0       0       0       0       0
       0       0       0       0       0       0       0       0       0       0
       0       0       0       0       0       0       0       0       0       0
       0       0       0       0       0       0       0       0       0       0
       0       0       0       0       0       0       0       0       0       0
       0       0       0       0       0       0       0       0       0       0
       0       0       0       0       0       0       0       0       0       0
       0       0       0       0       0       0       0       0       0       0
       0       0       0       0       0       0       0       0       0       0
       0       0       0       0       0       0       0       0       0       0
       0       0       0       0       0       0       0       0       0       0
       0       0       0       0       0       0       0       0       0       0
       0       0       0       0       0       0       0       0       0       0
       0       0       0       0       0       0       0       0       0       0
       0       0       0       0       0       0       0       0       0       0
       0       0       0       0       0       0       0       0       0       0
       0       0       0       0       0       0       0       0       0       0
       0       0       0       0       0       0       0       0       0       0
       0       0       0       0       0       0       0       0       0       0
       0       0       0       0       0       0       0       0       0       0
       0       0       0       0       0       0       0       0       0       0
       0       0       0       0       0       0       0       0       0       0
       0       0       0       0       0       0       0       0       0       0
       0       0       0       0       0       0       0       0       0       0
       0       0       0       0       0       0       0       0       0       0
       0       0       0       0       0       0       0       0       0       0
       0       0       0       0       0       0       0       0       0       0
       0       0       0       0       0       0       0       0       0       0
       0       0       0       0       0       0       0       0       0       0
       0       0       0       0       0       0       0       0       0       0
       0       0       0       0       0       0       0       0       0       0
       0       0       0       0       0       0       0       0       0       0
       0       0       0       0       0       0       0       0       0       0
       0       0       0       0       0       0       0       0       0       0
       0       0       0       0       0       0       0       0       0       0
       0       0       0       0       0       0       0       0       0       0
       0       0       0       0       0       0       0       0       0       0
       0       0       0       0       0       0       0       0       0       0
       0       0       0       0       0       0       0       0       0       0
       0       0       0       0       0       0       0       0       0       0
       0       0       0       0       0       0       0       0       0       0
       0       0       0       0       0       0       0       0       0       0
       0       0       0       0       0       0       0       0       0       0
       0       0       0       0       0       0       0       0       0       0
       0       0       0       0       0       0       0       0       0       0
       0       0       0       0       0       0       0       0       0       0
       0       0       0       0       0       0       0       0       0       0
       0       0       0       0       0       0       0       0       0       0
       0       0       0       0       0       0       0       0       0       0
       0       0       0       0       0       0       0       0       0       0
       0       0       0       0       0       0       0       0       0       0
       0       0       0       0       0       0       0       0       0       0
       0       0       0       0       0       0       0       0       0       0
       0       0       0       0       0       0       0       0       0       0
       0       0       0       0       0       0       0       0       0       0
       0       0       0       0       0       0       0       0       0       0
       0       0       0       0       0       0       0       0       0       0
       0       0       0       0       0       0       0       0       0       0
       0       0       0       0       0       0       0       0       0       0
       0       0       0       0       0       0       0       0       0       0
       0       0       0       0       0       0       0       0       0       0
       0       0       0       0       0       0       0       0       0       0
       0       0       0       0       0       0       0       0       0       0
       0       0       0       0       0       0       0       0       0       0
       0       0       0       0       0       0       0       0       0       0
       0       0       0       0       0       0       0       0       0       0
       0       0       0       0       0       0       0       0       0       0
       0       0       0       0       0       0       0       0       0       0
       0       0       0       0       0       0       0       0       0       0
       0       0       0       0       0       0       0       0       0       0
       0       0       0       0       0       0       0       0       0       0
       0       0       0       0       0       0       0       0       0       0
       0       0       0       0       0       0       0       0       0       0
       0       0       0       0       0       0       0       0       0       0
       0       0       0       0       0       0       0       0       0       0
       0       0       0       0       0       0       0       0       0       0
       0       0       0       0       0       0       0       0       0       0
       0       0       0       0       0       0       0       0       0       0
       0       0       0       0       0       0       0       0       0       0
       0       0       0       0       0       0       0       0       0       0
       0       0       0       0       0       0       0       0       0       0
       0       0       0       0       0       0       0       0       0       0
       0       0       0       0       0       0       0       0       0       0
       0       0       0       0       0       0       0       0       0       0
       0       0       0       0       0       0       0       0       0       0
       0       0       0       0       0       0       0       0       0       0
       0       0       0       0       0       0       0       0       0       0
       0       0       0       0       0       0       0       0       0       0
       0       0       0       0       0       0       0       0       0       0
       0       0       0       0       0       0       0       0       0       0
       0       0       0       0       0       0       0       0       0       0
       0       0       0       0       0       0       0       0       0       0
       0       0       0       0       0       0       0       0       0       0
       0       0       0       0       0       0       0       0       0       0
       0       0       0       0       0       0       0       0       0       0
       0       0       0       0       0       0       0       0       0       0
       0       0       0       0       0       0       0       0       0       0
       0       0       0       0       0       0       0       0       0       0
       0       0       0       0       0       0       0       0       0       0
       0       0       0       0       0       0       0       0       0       0
       0       0       0       0       0       0       0       0       0       0
       0       0       0       0       0       0       0       0       0       0
       0       0       0       0       0       0       0       0       0       0
       0       0       0       0       0       0       0       0       0       0
       0       0       0       0       0       0       0       0       0       0
       0       0       0       0       0       0       0       0       0       0
       0       0       0       0       0       0       0       0       0       0
       0       0       0       0       0       0       0       0       0       0
       0       0       0       0       0       0       0       0       0       0
       0       0       0       0       0       0       0       0       0       0
       0       0       0       0       0       0       0       0       0       0
       0       0       0       0       0       0       0       0       0       0
       0       0       0       0       0       0       0       0       0       0
       0       0       0       0       0       0       0       0       0       0
       0       0       0       0       0       0       0       0       0       0
       0       0       0       0       0       0       0       0       0       0
       0       0       0       0       0       0       0       0       0       0
       0       0       0       0       0       0       0       0       0       0
       0       0       0       0       0       0       0       0       0       0
       0       0       0       0       0       0       0       0       0       0
       0       0       0       0       0       0       0       0       0       0
       0       0       0       0       0       0       0       0       0       0
       0       0       0       0       0       0       0       0       0       0
       0       0       0       0       0       0       0       0       0       0
       0       0       0       0       0       0       0       0       0       0
       0       0       0       0       0       0       0       0       0       0
       0       0       0       0       0       0       0       0       0       0
       0       0       0       0       0       0       0       0       0       0
       0       0       0       0       0       0       0       0       0       0
       0       0       0       0       0       0       0       0       0       0
       0       0       0       0       0       0       0       0       0       0
       0       0       0       0       0       0       0       0       0       0
       0       0       0       0       0       0       0       0       0       0
       0       0       0       0       0       0       0       0       0       0
       0       0       0       0       0       0       0       0       0       0
       0       0       0       0       0       0       0       0       0       0
       0       0       0       0       0       0       0       0       0       0
       0       0       0       0       0       0       0       0       0       0
       0       0       0       0       0       0       0       0       0       0
       0       0       0       0       0       0       0       0       0       0
       0       0       0       0       0       0       0       0       0       0
       0       0       0       0       0       0       0       0       0       0
       0       0       0       0       0       0       0       0       0       0
       0       0       0       0       0       0       0       0       0       0
       0       0       0       0       0       0       0       0       0       0
       0       0       0       0       0       0       0       0       0       0
       0       0       0       0       0       0       0       0       0       0
       0       0       0       0       0       0       0       0       0       0
       0       0       0       0       0       0       0       0       0       0
       0       0       0       0       0       0       0       0       0       0
       0       0       0       0       0       0       0       0       0       0
       0       0       0       0       0       0       0       0       0       0
       0       0       0       0       0       0       0       0       0       0
       0       0       0       0       0       0       0       0       0       0
       0       0       0       0       0       0       0       0       0       0
       0       0       0       0       0       0       0       0       0       0
       0       0       0       0       0       0       0       0       0       0
       0       0       0       0       0       0       0       0       0       0
       0       0       0       0       0       0       0       0       0       0
       0       0       0       0       0       0       0       0       0       0
       0       0       0       0       0       0       0       0       0       0
       0       0       0       0       0       0       0       0       0       0
       0       0       0       0       0       0       0       0       0       0
       0       0       0       0       0       0       0       0       0       0
       0       0       0       0       0       0       0       0       0       0
       0       0       0       0       0       0       0       0       0       0
       0       0       0       0       0       0       0       0       0       0
       0       0       0       0       0       0       0       0       0       0
       0       0       0       0       0       0       0       0       0       0
       0       0       0       0       0       0       0       0       0       0
       0       0       0       0       0       0       0       0       0       0
       0       0       0       0       0       0       0       0       0       0
       0       0       0       0       0       0       0       0       0       0
       0       0       0       0       0       0       0       0       0       0
       0       0       0       0       0       0       0       0       0       0
       0       0       0       0       0       0       0       0       0       0
       0       0       0       0       0       0       0       0       0       0
       0       0       0       0       0       0       0       0       0       0
       0       0       0       0       0       0       0       0       0       0
       0       0       0       0       0       0       0       0       0       0
       0       0       0       0       0       0       0       0       0       0
       0       0       0       0       0       0       0       0       0       0
       0       0       0       0       0       0       0       0       0       0
       0       0       0       0       0       0       0       0       0       0
       0       0       0       0       0       0       0       0       0       0
       0       0       0       0       0       0       0       0       0       0
       0       0       0       0       0       0       0       0       0       0
       0       0       0       0       0       0       0       0       0       0
       0       0       0       0       0       0       0       0       0       0
       0       0       0       0       0       0       0       0       0       0
       0       0       0       0       0       0       0       0       0       0
       0       0       0       0       0       0       0       0       0       0
       0       0       0       0       0       0       0       0       0       0
       0       0       0       0       0       0       0       0       0       0
       0       0       0       0       0       0       0       0       0       0
       0       0       0       0       0       0       0       0       0       0
       0       0       0       0       0       0       0       0       0       0
       0       0       0       0       0       0       0       0       0       0
       0       0       0       0       0       0       0       0       0       0
       0       0       0       0       0       0       0       0       0       0
       0       0       0       0       0       0       0       0       0       0
       0       0       0       0       0       0       0       0       0       0
       0       0       0       0       0       0       0       0       0       0
       0       0       0       0       0       0       0       0       0       0
       0       0       0       0       0       0       0       0       0       0
       0       0       0       0       0       0       0       0       0       0
       0       0       0       0       0       0       0       0       0       0
       0       0       0       0       0       0       0       0       0       0
       0       0       0       0       0       0       0       0       0       0
       0       0       0       0       0       0       0       0       0       0
       0       0       0       0       0       0       0       0       0       0
       0       0       0       0       0       0       0       0       0       0
       0       0       0       0       0       0       0       0       0       0
       0       0       0       0       0       0       0       0       0       0
       0       0       0       0       0       0       0       0       0       0
       0       0       0       0       0       0       0       0       0       0
       0       0       0       0       0       0       0       0       0       0
       0       0       0       0       0       0       0       0       0       0
       0       0       0       0       0       0       0       0       0       0
       0       0       0       0       0       0       0       0       0       0
       0       0       0       0       0       0       0       0       0       0
       0       0       0       0       0       0       0       0       0       0
       0       0       0       0       0       0       0       0       0       0
       0       0       0       0       0       0       0       0       0       0
       0       0       0       0       0       0       0       0       0       0
       0       0       0       0       0       0       0       0       0       0
       0       0       0       0       0       0       0       0       0       0
       0       0       0       0       0       0       0       0       0       0
       0       0       0       0       0       0       0       0       0       0
       0       0       0       0       0       0       0       0       0       0
       0       0       0       0       0       0       0       0       0       0
       0       0       0       0       0       0       0       0       0       0
       0       0       0       0       0       0       0       0       0       0
       0       0       0       0       0       0       0       0       0       0
       0       0       0       0       0       0       0       0       0       0
       0       0       0       0       0       0       0       0       0       0
       0       0       0       0       0       0       0       0       0       0
       0       0       0       0       0       0       0       0       0       0
       0       0       0       0       0       0       0       0       0       0
       0       0       0       0       0       0       0       0       0       0
       0       0       0       0       0       0       0       0       0       0
       0       0       0       0       0       0       0       0       0       0
       0       0       0       0       0       0       0       0       0       0
       0       0       0       0       0       0       0       0       0       0
       0       0       0       0       0       0       0       0       0       0
       0       0       0       0       0       0       0       0       0       0
       0       0       0       0       0       0       0       0       0       0
       0       0       0       0       0       0       0       0       0       0
       0       0       0       0       0       0       0       0       0       0
       0       0       0       0       0       0       0       0       0       0
       0       0       0       0       0       0       0       0       0       0
       0       0       0       0       0       0       0       0       0       0
       0       0       0       0       0       0       0       0       0       0
       0       0       0       0       0       0       0       0       0       0
       0       0       0       0       0       0       0       0       0       0
       0       0       0       0       0       0       0       0       0       0
       0       0       0       0       0       0       0       0       0       0
       0       0       0       0       0       0       0       0       0       0
       0       0       0       0       0       0       0       0       0       0
       0       0       0       0       0       0       0       0       0       0
       0       0       0       0       0       0       0       0       0       0
       0       0       0       0       0       0       0       0       0       0
       0       0       0       0       0       0       0       0       0       0
       0       0       0       0       0       0       0       0       0       0
       0       0       0       0       0       0       0       0       0       0
       0       0       0       0       0       0       0       0       0       0
       0       0       0       0       0       0       0       0       0       0
       0       0       0       0       0       0       0       0       0       0
       0       0       0       0       0       0       0       0       0       0
       0       0       0       0       0       0       0       0       0       0
       0       0       0       0       0       0       0       0       0       0
       0       0       0       0       0       0       0       0       0       0
       0       0       0       0       0       0       0       0       0       0
       0       0       0       0       0       0       0       0       0       0
       0       0       0       0       0       0       0       0       0       0
       0       0       0       0       0       0       0       0       0       0
       0       0       0       0       0       0       0       0       0       0
       0       0       0       0       0       0       0       0       0       0
       0       0       0       0       0       0       0       0       0       0
       0       0       0       0       0       0       0       0       0       0
       0       0       0       0       0       0       0       0       0       0
       0       0       0       0       0       0       0       0       0       0
       0       0       0       0       0       0       0       0       0       0
       0       0       0       0       0       0       0       0       0       0
       0       0       0       0       0       0       0       0       0       0
       0       0       0       0       0       0       0       0       0       0
       0       0       0       0       0       0       0       0       0       0
       0       0       0       0       0       0       0       0       0       0
       0       0       0       0       0       0       0       0       0       0
       0       0       0       0       0       0       0       0       0       0
       0       0       0       0       0       0       0       0       0       0
       0       0       0       0       0       0       0       0       0       0
       0       0       0       0       0       0       0       0       0       0
       0       0       0       0       0       0       0       0       0       0
       0       0       0       0       0       0       0       0       0       0
       0       0       0       0       0       0       0       0       0       0
       0       0       0       0       0       0       0       0       0       0
       0       0       0       0       0       0       0       0       0       0
       0       0       0       0       0       0       0       0       0       0
       0       0       0       0       0       0       0       0       0       0
       0       0       0       0       0       0       0       0       0       0
       0       0       0       0       0       0       0       0       0       0
       0       0       0       0       0       0       0       0       0       0
       0       0       0       0       0       0       0       0       0       0
       0       0       0       0       0       0       0       0       0       0
       0       0       0       0       0       0       0       0       0       0
       0       0       0       0       0       0       0       0       0       0
       0       0       0       0       0       0       0       0       0       0
       0       0       0       0       0       0       0       0       0       0
       0       0       0       0       0       0       0       0       0       0
       0       0       0       0       0       0       0       0       0       0
       0       0       0       0       0       0       0       0       0       0
       0       0       0       0       0       0       0       0       0       0
       0       0       0       0       0       0       0       0       0       0
       0       0       0       0       0       0       0       0       0       0
       0       0       0       0       0       0       0       0       0       0
       0       0       0       0       0       0       0       0       0       0
       0       0       0       0       0       0       0       0       0       0
       0       0       0       0       0       0       0       0       0       0
       0       0       0       0       0       0       0       0       0       0
       0       0       0       0       0       0       0       0       0       0
       0       0       0       0       0       0       0       0       0       0
       0       0       0       0       0       0       0       0       0       0
       0       0       0       0       0       0       0       0       0       0
       0       0       0       0       0       0       0       0       0       0
       0       0       0       0       0       0       0       0       0       0
       0       0       0       0       0       0       0       0       0       0
       0       0       0       0       0       0       0       0       0       0
       0       0       0       0       0       0       0       0       0       0
       0       0       0       0       0       0       0       0       0       0
       0       0       0       0       0       0       0       0       0       0
       0       0       0       0       0       0       0       0       0       0
       0       0       0       0       0       0       0       0       0       0
       0       0       0       0       0       0       0       0       0       0
       0       0       0       0       0       0       0       0       0       0
       0       0       0       0       0       0       0       0       0       0
       0       0       0       0       0       0       0       0       0       0
       0       0       0       0       0       0       0       0       0       0
       0       0       0       0       0       0       0       0       0       0
       0       0       0       0       0       0       0       0       0       0
       0       0       0       0       0       0       0       0       0       0
       0       0       0       0       0       0       0       0       0       0
       0       0       0       0       0       0       0       0       0       0
       0       0       0       0       0       0       0       0       0       0
       0       0       0       0       0       0       0       0       0       0
       0       0       0       0       0       0       0       0       0       0
       0       0       0       0       0       0       0       0       0       0
       0       0       0       0       0       0       0       0       0       0
       0       0       0       0       0       0       0       0       0       0
       0       0       0       0       0       0       0       0       0       0
       0       0       0       0       0       0       0       0       0       0
       0       0       0       0       0       0       0       0       0       0
       0       0       0       0       0       0       0       0       0       0
       0       0       0       0       0       0       0       0       0       0
       0       0       0       0       0       0       0       0       0       0
       0       0       0       0       0       0       0       0       0       0
       0       0       0       0       0       0       0       0       0       0
       0       0       0       0       0       0       0       0       0       0
       0       0       0       0       0       0       0       0       0       0
       0       0       0       0       0       0       0       0       0       0
       0       0       0       0       0       0       0       0       0       0
       0       0       0       0       0       0       0       0       0       0
       0       0       0       0       0       0       0       0       0       0
       0       0       0       0       0       0       0       0       0       0
       0       0       0       0       0       0       0       0       0       0
       0       0       0       0       0       0       0       0       0       0
       0       0       0       0       0       0       0       0       0       0
       0       0       0       0       0       0       0       0       0       0
       0       0       0       0       0       0       0       0       0       0
       0       0       0       0       0       0       0       0       0       0
       0       0       0       0       0       0       0       0       0       0
       0       0       0       0       0       0       0       0       0       0
       0       0       0       0       0       0       0       0       0       0
       0       0       0       0       0       0       0       0       0       0
       0       0       0       0       0       0       0       0       0       0
       0       0       0       0       0       0       0       0       0       0
       0       0       0       0       0       0       0       0       0       0
       0       0       0       0       0       0       0       0       0       0
       0       0       0       0       0       0       0       0       0       0
       0       0       0       0       0       0       0       0       0       0
       0       0       0       0       0       0       0       0       0       0
       0       0       0       0       0       0       0       0       0       0
       0       0       0       0       0       0       0       0       0       0
       0       0       0       0       0       0       0       0       0       0
       0       0       0       0       0       0       0       0       0       0
       0       0       0       0       0       0       0       0       0       0
       0       0       0       0       0       0       0       0       0       0
       0       0       0       0       0       0       0       0       0       0
       0       0       0       0       0       0       0       0       0       0
       0       0       0       0       0       0       0       0       0       0
       0       0       0       0       0       0       0       0       0       0
       0       0       0       0       0       0       0       0       0       0
       0       0       0       0       0       0       0       0       0       0
       0       0       0       0       0       0       0       0       0       0
       0       0       0       0       0       0       0       0       0       0
       0       0       0       0       0       0       0       0       0       0
       0       0       0       0       0       0       0       0       0       0
       0       0       0       0       0       0       0       0       0       0
       0       0       0       0       0       0       0       0       0       0
       0       0       0       0       0       0       0       0       0       0
       0       0       0       0       0       0       0       0       0       0
       0       0       0       0       0       0       0       0       0       0
       0       0       0       0       0       0       0       0       0       0
       0       0       0       0       0       0       0       0       0       0
       0       0       0       0       0       0       0       0       0       0
       0       0       0       0       0       0       0       0       0       0
       0       0       0       0       0       0       0       0       0       0
       0       0       0       0       0       0       0       0       0       0
       0       0       0       0       0       0       0       0       0       0
       0       0       0       0       0       0       0       0       0       0
       0       0       0       0       0       0       0       0       0       0
       0       0       0       0       0       0       0       0       0       0
       0       0       0       0       0       0       0       0       0       0
       0       0       0       0       0       0       0       0       0       0
       0       0       0       0       0       0       0       0       0       0
       0       0       0       0       0       0       0       0       0       0
       0       0       0       0       0       0       0       0       0       0
       0       0       0       0       0       0       0       0       0       0
       0       0       0       0       0       0       0       0       0       0
       0       0       0       0       0       0       0       0       0       0
       0       0       0       0       0       0       0       0       0       0
       0       0       0       0       0       0       0       0       0       0
       0       0       0       0       0       0       0       0       0       0
       0       0       0       0       0       0       0       0       0       0
       0       0       0       0       0       0       0       0       0       0
       0       0       0       0       0       0       0       0       0       0
       0       0       0       0       0       0       0       0       0       0
       0       0       0       0       0       0       0       0       0       0
       0       0       0       0       0       0       0       0       0       0
       0       0       0       0       0       0       0       0       0       0
       0       0       0       0       0       0       0       0       0       0
       0       0       0       0       0       0       0       0       0       0
       0       0       0       0       0       0       0       0       0       0
       0       0       0       0       0       0       0       0       0       0
       0       0       0       0       0       0       0       0       0       0
       0       0       0       0       0       0       0       0       0       0
       0       0       0       0       0       0       0       0       0       0
       0       0       0       0       0       0       0       0       0       0
       0       0       0       0       0       0       0       0       0       0
       0       0       0       0       0       0       0       0       0       0
       0       0       0       0       0       0       0       0       0       0
       0       0       0       0       0       0       0       0       0       0
       0       0       0       0       0       0       0       0       0       0
       0       0       0       0       0       0       0       0       0       0
       0       0       0       0       0       0       0       0       0       0
       0       0       0       0       0       0       0       0       0       0
       0       0       0       0       0       0       0       0       0       0
       0       0       0       0       0       0       0       0       0       0
       0       0       0       0       0       0       0       0       0       0
       0       0       0       0       0       0       0       0       0       0
       0       0       0       0       0       0       0       0       0       0
       0       0       0       0       0       0       0       0       0       0
       0       0       0       0       0       0       0       0       0       0
       0       0       0       0       0       0       0       0       0       0
       0       0       0       0       0       0       0       0       0       0
       0       0       0       0       0       0       0       0       0       0
       0       0       0       0       0       0       0       0       0       0
       0       0       0       0       0       0       0       0       0       0
       0       0       0       0       0       0       0       0       0       0
       0       0       0       0       0       0       0       0       0       0
       0       0       0       0       0       0       0       0       0       0
       0       0       0       0       0       0       0       0       0       0
       0       0       0       0       0       0       0       0       0       0
       0       0       0       0       0       0       0       0       0       0
       0       0       0       0       0       0       0       0       0       0
       0       0       0       0       0       0       0       0       0       0
       0       0       0       0       0       0       0       0       0       0
       0       0       0       0       0       0       0       0       0       0
       0       0       0       0       0       0       0       0       0       0
       0       0       0       0       0       0       0       0       0       0
       0       0       0       0       0       0       0       0       0       0
       0       0       0       0       0       0       0       0       0       0
       0       0       0       0       0       0       0       0       0       0
       0       0       0       0       0       0       0       0       0       0
       0       0       0       0       0       0       0       0       0       0
       0       0       0       0       0       0       0       0       0       0
       0       0       0       0       0       0       0       0       0       0
       0       0       0       0       0       0       0       0       0       0
       0       0       0       0       0       0       0       0       0       0
       0       0       0       0       0       0       0       0       0       0
       0       0       0       0       0       0       0       0       0       0
       0       0       0       0       0       0       0       0       0       0
       0       0       0       0       0       0       0       0       0       0
       0       0       0       0       0       0       0       0       0       0
       0       0       0       0       0       0       0       0       0       0
       0       0       0       0       0       0       0       0       0       0
       0       0       0       0       0       0       0       0       0       0
       0       0       0       0       0       0       0       0       0       0
       0       0       0       0       0       0       0       0       0       0
       0       0       0       0       0       0       0       0       0       0
       0       0       0       0       0       0       0       0       0       0
       0       0       0       0       0       0       0       0       0       0
       0       0       0       0       0       0       0       0       0       0
       0       0       0       0       0       0       0       0       0       0
       0       0       0       0       0       0       0       0       0       0
       0       0       0       0       0       0       0       0       0       0
       0       0       0       0       0       0       0       0       0       0
       0       0       0       0       0       0       0       0       0       0
       0       0       0       0       0       0       0       0       0       0
       0       0       0       0       0       0       0       0       0       0
       0       0       0       0       0       0       0       0       0       0
       0       0       0       0       0       0       0       0       0       0
       0       0       0       0       0       0       0       0       0       0
       0       0       0       0       0       0       0       0       0       0
       0       0       0       0       0       0       0       0       0       0
       0       0       0       0       0       0       0       0       0       0
       0       0       0       0       0       0       0       0       0       0
       0       0       0       0       0       0       0       0       0       0
       0       0       0       0       0       0       0       0       0       0
       0       0       0       0       0       0       0       0       0       0
       0       0       0       0       0       0       0       0       0       0
       0       0       0       0       0       0       0       0       0       0
       0       0       0       0       0       0       0       0       0       0
       0       0       0       0       0       0       0       0       0       0
       0       0       0       0       0       0       0       0       0       0
       0       0       0       0       0       0       0       0       0       0
       0       0       0       0       0       0       0       0       0       0
       0       0       0       0       0       0       0       0       0       0
       0       0       0       0       0       0       0       0       0       0
       0       0       0       0       0       0       0       0       0       0
       0       0       0       0       0       0       0       0       0       0
       0       0       0       0       0       0       0       0       0       0
       0       0       0       0       0       0       0       0       0       0
       0       0       0       0       0       0       0       0       0       0
       0       0       0       0       0       0       0       0       0       0
       0       0       0       0       0       0       0       0       0       0
       0       0       0       0       0       0       0       0       0       0
       0       0       0       0       0       0       0       0       0       0
       0       0       0       0       0       0       0       0       0       0
       0       0       0       0       0       0       0       0       0       0
       0       0       0       0       0       0       0       0       0       0
       0       0       0       0       0       0       0       0       0       0
       0       0       0       0       0       0       0       0       0       0
       0       0       0       0       0       0       0       0       0       0
       0       0       0       0       0       0       0       0       0       0
       0       0       0       0       0       0       0       0       0       0
       0       0       0       0       0       0       0       0       0       0
       0       0       0       0       0       0       0       0       0       0
       0       0       0       0       0       0       0       0       0       0
       0       0       0       0       0       0       0       0       0       0
       0       0       0       0       0       0       0       0       0       0
       0       0       0       0       0       0       0       0       0       0
       0       0       0       0       0       0       0       0       0       0
       0       0       0       0       0       0       0       0       0       0
       0       0       0       0       0       0       0       0       0       0
       0       0       0       0       0       0       0       0       0       0
       0       0       0       0       0       0       0       0       0       0
       0       0       0       0       0       0       0       0       0       0
       0       0       0       0       0       0       0       0       0       0
       0       0       0       0       0       0       0       0       0       0
       0       0       0       0       0       0       0       0       0       0
       0       0       0       0       0       0       0       0       0       0
       0       0       0       0       0       0       0       0       0       0
       0       0       0       0       0       0       0       0       0       0
       0       0       0       0       0       0       0       0       0       0
       0       0       0       0       0       0       0       0       0       0
       0       0       0       0       0       0       0       0       0       0
       0       0       0       0       0       0       0       0       0       0
       0       0       0       0       0       0       0       0       0       0
       0       0       0       0       0       0       0       0       0       0
       0       0       0       0       0       0       0       0       0       0
       0       0       0       0       0       0       0       0       0       0
       0       0       0       0       0       0       0       0       0       0
       0       0       0       0       0       0       0       0       0       0
       0       0       0       0       0       0       0       0       0       0
       0       0       0       0       0       0       0       0       0       0
       0       0       0       0       0       0       0       0       0       0
       0       0       0       0       0       0       0       0       0       0
       0       0       0       0       0       0       0       0       0       0
       0       0       0       0       0       0       0       0       0       0
       0       0       0       0       0       0       0       0       0       0
       0       0       0       0       0       0       0       0       0       0
       0       0       0       0       0       0       0       0       0       0
       0       0       0       0       0       0       0       0       0       0
       0       0       0       0       0       0       0       0       0       0
       0       0       0       0       0       0       0       0       0       0
       0       0       0       0       0       0       0       0       0       0
       0       0       0       0       0       0       0       0       0       0
       0       0       0       0       0       0       0       0       0       0
       0       0       0       0       0       0       0       0       0       0
       0       0       0       0       0       0       0       0       0       0
       0       0       0       0       0       0       0       0       0       0
       0       0       0       0       0       0       0       0       0       0
       0       0       0       0       0       0       0       0       0       0
       0       0       0       0       0       0       0       0       0       0
       0       0       0       0       0       0       0       0       0       0
       0       0       0       0       0       0       0       0       0       0
       0       0       0       0       0       0       0       0       0       0
       0       0       0       0       0       0       0       0       0       0
       0       0       0       0       0       0       0       0       0       0
       0       0       0       0       0       0       0       0       0       0
       0       0       0       0       0       0       0       0       0       0
       0       0       0       0       0       0       0       0       0       0
       0       0       0       0       0       0       0       0       0       0
       0       0       0       0       0       0       0       0       0       0
       0       0       0       0       0       0       0       0       0       0
       0       0       0       0       0       0       0       0       0       0
       0       0       0       0       0       0       0       0       0       0
       0       0       0       0       0       0       0       0       0       0
       0       0       0       0       0       0       0       0       0       0
       0       0       0       0       0       0       0       0       0       0
       0       0       0       0       0       0       0       0       0       0
       0       0       0       0       0       0       0       0       0       0
       0       0       0       0       0       0       0       0       0       0
       0       0       0       0       0       0       0       0       0       0
       0       0       0       0       0       0       0       0       0       0
       0       0       0       0       0       0       0       0       0       0
       0       0       0       0       0       0       0       0       0       0
       0       0       0       0       0       0       0       0       0       0
       0       0       0       0       0       0       0       0       0       0
       0       0       0       0       0       0       0       0       0       0
       0       0       0       0       0       0       0       0       0       0
       0       0       0       0       0       0       0       0       0       0
       0       0       0       0       0       0       0       0       0       0
       0       0       0       0       0       0       0       0       0       0
       0       0       0       0       0       0       0       0       0       0
       0       0       0       0       0       0       0       0       0       0
       0       0       0       0       0       0       0       0       0       0
       0       0       0       0       0       0       0       0       0       0
       0       0       0       0       0       0       0       0       0       0
       0       0       0       0       0       0       0       0       0       0
       0       0       0       0       0       0       0       0       0       0
       0       0       0       0       0       0       0       0       0       0
       0       0       0       0       0       0       0       0       0       0
       0       0       0       0       0       0       0       0       0       0
       0       0       0       0       0       0       0       0       0       0
       0       0       0       0       0       0       0       0       0       0
       0       0       0       0       0       0       0       0       0       0
       0       0       0       0       0       0       0       0       0       0
       0       0       0       0       0       0       0       0       0       0
       0       0       0       0       0       0       0       0       0       0
       0       0       0       0       0       0       0       0       0       0
       0       0       0       0       0       0       0       0       0       0
       0       0       0       0       0       0       0       0       0       0
       0       0       0       0       0       0       0       0       0       0
       0       0       0       0       0       0       0       0       0       0
       0       0       0       0       0       0       0       0       0       0
       0       0       0       0       0       0       0       0       0       0
       0       0       0       0       0       0       0       0       0       0
       0       0       0       0       0       0       0       0       0       0
       0       0       0       0       0       0       0       0       0       0
       0       0       0       0       0       0       0       0       0       0
       0       0       0       0       0       0       0       0       0       0
       0       0       0       0       0       0       0       0       0       0
       0       0       0       0       0       0       0       0       0       0
       0       0       0       0       0       0       0       0       0       0
       0       0       0       0       0       0       0       0       0       0
       0       0       0       0       0       0       0       0       0       0
       0       0       0       0       0       0       0       0       0       0
       0       0       0       0       0       0       0       0       0       0
       0       0       0       0       0       0       0       0       0       0
       0       0       0       0       0       0       0       0       0       0
       0       0       0       0       0       0       0       0       0       0
       0       0       0       0       0       0       0       0       0       0
       0       0       0       0       0       0       0       0       0       0
       0       0       0       0       0       0       0       0       0       0
       0       0       0       0       0       0       0       0       0       0
       0       0       0       0       0       0       0       0       0       0
       0       0       0       0       0       0       0       0       0       0
       0       0       0       0       0       0       0       0       0       0
       0       0       0       0       0       0       0       0       0       0
       0       0       0       0       0       0       0       0       0       0
       0       0       0       0       0       0       0       0       0       0
       0       0       0       0       0       0       0       0       0       0
       0       0       0       0       0       0       0       0       0       0
       0       0       0       0       0       0       0       0       0       0
       0       0       0       0       0       0       0       0       0       0
       0       0       0       0       0       0       0       0       0       0
       0       0       0       0       0       0       0       0       0       0
       0       0       0       0       0       0       0       0       0       0
       0       0       0       0       0       0       0       0       0       0
       0       0       0       0       0       0       0       0       0       0
       0       0       0       0       0       0       0       0       0       0
       0       0       0       0       0       0       0       0       0       0
       0       0       0       0       0       0       0       0       0       0
       0       0       0       0       0       0       0       0       0       0
       0       0       0       0       0       0       0       0       0       0
       0       0       0       0       0       0       0       0       0       0
       0       0       0       0       0       0       0       0       0       0
       0       0       0       0       0       0       0       0       0       0
       0       0       0       0       0       0       0       0       0       0
       0       0       0       0       0       0       0       0       0       0
       0       0       0       0       0       0       0       0       0       0
       0       0       0       0       0       0       0       0       0       0
       0       0       0       0       0       0       0       0       0       0
       0       0       0       0       0       0       0       0       0       0
       0       0       0       0       0       0       0       0       0       0
       0       0       0       0       0       0       0       0       0       0
       0       0       0       0       0       0       0       0       0       0
       0       0       0       0       0       0       0       0       0       0
       0       0       0       0       0       0       0       0       0       0
       0       0       0       0       0       0       0       0       0       0
       0       0       0       0       0       0       0       0       0       0
       0       0       0       0       0       0       0       0       0       0
       0       0       0       0       0       0       0       0       0       0
       0       0       0       0       0       0       0       0       0       0
       0       0       0       0       0       0       0       0       0       0
       0       0       0       0       0       0       0       0       0       0
       0       0       0       0       0       0       0       0       0       0
       0       0       0       0       0       0       0       0       0       0
       0       0       0       0       0       0       0       0       0       0
       0       0       0       0       0       0       0       0       0       0
       0       0       0       0       0       0       0       0       0       0
       0       0       0       0       0       0       0       0       0       0
       0       0       0       0       0       0       0       0       0       0
       0       0       0       0       0       0       0       0       0       0
       0       0       0       0       0       0       0       0       0       0
       0       0       0       0       0       0       0       0       0       0
       0       0       0       0       0       0       0       0       0       0
       0       0       0       0       0       0       0       0       0       0
       0       0       0       0       0       0       0       0       0       0
       0       0       0       0       0       0       0       0       0       0
       0       0       0       0       0       0       0       0       0       0
       0       0       0       0       0       0       0       0       0       0
       0       0       0       0       0       0       0       0       0       0
       0       0       0       0       0       0       0       0       0       0
       0       0       0       0       0       0       0       0       0       0
       0       0       0       0       0       0       0       0       0       0
       0       0       0       0       0       0       0       0       0       0
       0       0       0       0       0       0       0       0       0       0
       0       0       0       0       0       0       0       0       0       0
       0       0       0       0       0       0       0       0       0       0
       0       0       0       0       0       0       0       0       0       0
       0       0       0       0       0       0       0       0       0       0
       0       0       0       0       0       0       0       0       0       0
       0       0       0       0       0       0       0       0       0       0
       0       0       0       0       0       0       0       0       0       0
       0       0       0       0       0       0       0       0       0       0
       0       0       0       0       0       0       0       0       0       0
       0       0       0       0       0       0       0       0       0       0
       0       0       0       0       0       0       0       0       0       0
       0       0       0       0       0       0       0       0       0       0
       0       0       0       0       0       0       0       0       0       0
       0       0       0       0       0       0       0       0       0       0
       0       0       0       0       0       0       0       0       0       0
       0       0       0       0       0       0       0       0       0       0
       0       0       0       0       0       0       0       0       0       0
       0       0       0       0       0       0       0       0       0       0
       0       0       0       0       0       0       0       0       0       0
       0       0       0       0       0       0       0       0       0       0
       0       0       0       0       0       0       0       0       0       0
       0       0       0       0       0       0       0       0       0       0
       0       0       0       0       0       0       0       0       0       0
       0       0       0       0       0       0       0       0       0       0
       0       0       0       0       0       0       0       0       0       0
       0       0       0       0       0       0       0       0       0       0
       0       0       0       0       0       0       0       0       0       0
       0       0       0       0       0       0       0       0       0       0
       0       0       0       0       0       0       0       0       0       0
       0       0       0       0       0       0       0       0       0       0
       0       0       0       0       0       0       0       0       0       0
       0       0       0       0       0       0       0       0       0       0
       0       0       0       0       0       0       0       0       0       0
       0       0       0       0       0       0       0       0       0       0
       0       0       0       0       0       0       0       0       0       0
       0       0       0       0       0       0       0       0       0       0
       0       0       0       0       0       0       0       0       0       0
       0       0       0       0       0       0       0       0       0       0
       0       0       0       0       0       0       0       0       0       0
       0       0       0       0       0       0       0       0       0       0
       0       0       0       0       0       0       0       0       0       0
       0       0       0       0       0       0       0       0       0       0
       0       0       0       0       0       0       0       0       0       0
       0       0       0       0       0       0       0       0       0       0
       0       0       0       0       0       0       0       0       0       0
       0       0       0       0       0       0       0       0       0       0
       0       0       0       0       0       0       0       0       0       0
       0       0       0       0       0       0       0       0       0       0
       0       0       0       0       0       0       0       0       0       0
       0       0       0       0       0       0       0       0       0       0
       0       0       0       0       0       0       0       0       0       0
       0       0       0       0       0       0       0       0       0       0
       0       0       0       0       0       0       0       0       0       0
       0       0       0       0       0       0       0       0       0       0
       0       0       0       0       0       0       0       0       0       0
       0       0       0       0       0       0       0       0       0       0
       0       0       0       0       0       0       0       0       0       0
       0       0       0       0       0       0       0       0       0       0
       0       0       0       0       0       0       0       0       0       0
       0       0       0       0       0       0       0       0       0       0
       0       0       0       0       0       0       0       0       0       0
       0       0       0       0       0       0       0       0       0       0
       0       0       0       0       0       0       0       0       0       0
       0       0       0       0       0       0       0       0       0       0
       0       0       0       0       0       0       0       0       0       0
       0       0       0       0       0       0       0       0       0       0
       0       0       0       0       0       0       0       0       0       0
       0       0       0       0       0       0       0       0       0       0
       0       0       0       0       0       0       0       0       0       0
       0       0       0       0       0       0       0       0       0       0
       0       0       0       0       0       0       0       0       0       0
       0       0       0       0       0       0       0       0       0       0
       0       0       0       0       0       0       0       0       0       0
       0       0       0       0       0       0       0       0       0       0
       0       0       0       0       0       0       0       0       0       0
       0       0       0       0       0       0       0       0       0       0
       0       0       0       0       0       0       0       0       0       0
       0       0       0       0       0       0       0       0       0       0
       0       0       0       0       0       0       0       0       0       0
       0       0       0       0       0       0       0       0       0       0
       0       0       0       0       0       0       0       0       0       0
       0       0       0       0       0       0       0       0       0       0
       0       0       0       0       0       0       0       0       0       0
       0       0       0       0       0       0       0       0       0       0
       0       0       0       0       0       0       0       0       0       0
       0       0       0       0       0       0       0       0       0       0
       0       0       0       0       0       0       0       0       0       0
       0       0       0       0       0       0       0       0       0       0
       0       0       0       0       0       0       0       0       0       0
       0       0       0       0       0       0       0       0       0       0
       0       0       0       0       0       0       0       0       0       0
       0       0       0       0       0       0       0       0       0       0
       0       0       0       0       0       0       0       0       0       0
       0       0       0       0       0       0       0       0       0       0
       0       0       0       0       0       0       0       0       0       0
       0       0       0       0       0       0       0       0       0       0
       0       0       0       0       0       0       0       0       0       0
       0       0       0       0       0       0       0       0       0       0
       0       0       0       0       0       0       0       0       0       0
       0       0       0       0       0       0       0       0       0       0
       0       0       0       0       0       0       0       0       0       0
       0       0       0       0       0       0       0       0       0       0
       0       0       0       0       0       0       0       0       0       0
       0       0       0       0       0       0       0       0       0       0
       0       0       0       0       0       0       0       0       0       0
       0       0       0       0       0       0       0       0       0       0
       0       0       0       0       0       0       0       0       0       0
       0       0       0       0       0       0       0       0       0       0
       0       0       0       0       0       0       0       0       0       0
       0       0       0       0       0       0       0       0       0       0
       0       0       0       0       0       0       0       0       0       0
       0       0       0       0       0       0       0       0       0       0
       0       0       0       0       0       0       0       0       0       0
       0       0       0       0       0       0       0       0       0       0
       0       0       0       0       0       0       0       0       0       0
       0       0       0       0       0       0       0       0       0       0
       0       0       0       0       0       0       0       0       0       0
       0       0       0       0       0       0       0       0       0       0
       0       0       0       0       0       0       0       0       0       0
       0       0       0       0       0       0       0       0       0       0
       0       0       0       0       0       0       0       0       0       0
       0       0       0       0       0       0       0       0       0       0
       0       0       0       0       0       0       0       0       0       0
       0       0       0       0       0       0       0       0       0       0
       0       0       0       0       0       0       0       0       0       0
       0       0       0       0       0       0       0       0       0       0
       0       0       0       0       0       0       0       0       0       0
       0       0       0       0       0       0       0       0       0       0
       0       0       0       0       0       0       0       0       0       0
       0       0       0       0       0       0       0       0       0       0
       0       0       0       0       0       0       0       0       0       0
       0       0       0       0       0       0       0       0       0       0
       0       0       0       0       0       0       0       0       0       0
       0       0       0       0       0       0       0       0       0       0
       0       0       0       0       0       0       0       0       0       0
       0       0       0       0       0       0       0       0       0       0
       0       0       0       0       0       0       0       0       0       0
       0       0       0       0       0       0       0       0       0       0
       0       0       0       0       0       0       0       0       0       0
       0       0       0       0       0       0       0       0       0       0
       0       0       0       0       0       0       0       0       0       0
       0       0       0       0       0       0       0       0       0       0
       0       0       0       0       0       0       0       0       0       0
       0       0       0       0       0       0       0       0       0       0
       0       0       0       0       0       0       0       0       0       0
       0       0       0       0       0       0       0       0       0       0
       0       0       0       0       0       0       0       0       0       0
       0       0       0       0       0       0       0       0       0       0
       0       0       0       0       0       0       0       0       0       0
       0       0       0       0       0       0       0       0       0       0
       0       0       0       0       0       0       0       0       0       0
       0       0       0       0       0       0       0       0       0       0
       0       0       0       0       0       0       0       0       0       0
       0       0       0       0       0       0       0       0       0       0
       0       0       0       0       0       0       0       0       0       0
       0       0       0       0       0       0       0       0       0       0
       0       0       0       0       0       0       0       0       0       0
       0       0       0       0       0       0       0       0       0       0
       0       0       0       0       0       0       0       0       0       0
       0       0       0       0       0       0       0       0       0       0
       0       0       0       0       0       0       0       0       0       0
       0       0       0       0       0       0       0       0       0       0
       0       0       0       0       0       0       0       0       0       0
       0       0       0       0       0       0       0       0       0       0
       0       0       0       0       0       0       0       0       0       0
       0       0       0       0       0       0       0       0       0       0
       0       0       0       0       0       0       0       0       0       0
       0       0       0       0       0       0       0       0       0       0
       0       0       0       0       0       0       0       0       0       0
       0       0       0       0       0       0       0       0       0       0
       0       0       0       0       0       0       0       0       0       0
       0       0       0       0       0       0       0       0       0       0
       0       0       0       0       0       0       0       0       0       0
       0       0       0       0       0       0       0       0       0       0
       0       0       0       0       0       0       0       0       0       0
       0       0       0       0       0       0       0       0       0       0
       0       0       0       0       0       0       0       0       0       0
       0       0       0       0       0       0       0       0       0       0
       0       0       0       0       0       0       0       0       0       0
       0       0       0       0       0       0       0       0       0       0
       0       0       0       0       0       0       0       0       0       0
       0       0       0       0       0       0       0       0       0       0
       0       0       0       0       0       0       0       0       0       0
       0       0       0       0       0       0       0       0       0       0
       0       0       0       0       0       0       0       0       0       0
       0       0       0       0       0       0       0       0       0       0
       0       0       0       0       0       0       0       0       0       0
       0       0       0       0       0       0       0       0       0       0
       0       0       0       0       0       0       0       0       0       0
       0       0       0       0       0       0       0       0       0       0
       0       0       0       0       0       0       0       0       0       0
       0       0       0       0       0       0       0       0       0       0
       0       0       0       0       0       0       0       0       0       0
       0       0       0       0       0       0       0       0       0       0
       0       0       0       0       0       0       0       0       0       0
       0       0       0       0       0       0       0       0       0       0
       0       0       0       0       0       0       0       0       0       0
       0       0       0       0       0       0       0       0       0       0
       0       0       0       0       0       0       0       0       0       0
       0       0       0       0       0       0       0       0       0       0
       0       0       0       0       0       0       0       0       0       0
       0       0       0       0       0       0       0       0       0       0
       0       0       0       0       0       0       0       0       0       0
       0       0       0       0       0       0       0       0       0       0
       0       0       0       0       0       0       0       0       0       0
       0       0       0       0       0       0       0       0       0       0
       0       0       0       0       0       0       0       0       0       0
       0       0       0       0       0       0       0       0       0       0
       0       0       0       0       0       0       0       0       0       0
       0       0       0       0       0       0       0       0       0       0
       0       0       0       0       0       0       0       0       0       0
       0       0       0       0       0       0       0       0       0       0
       0       0       0       0       0       0       0       0       0       0
       0       0       0       0       0       0       0       0       0       0
       0       0       0       0       0       0       0       0       0       0
       0       0       0       0       0       0       0       0       0       0
       0       0       0       0       0       0       0       0       0       0
       0       0       0       0       0       0       0       0       0       0
       0       0       0       0       0       0       0       0       0       0
       0       0       0       0       0       0       0       0       0       0
       0       0       0       0       0       0       0       0       0       0
       0       0       0       0       0       0       0       0       0       0
       0       0       0       0       0       0       0       0       0       0
       0       0       0       0       0       0       0       0       0       0
       0       0       0       0       0       0       0       0       0       0
       0       0       0       0       0       0       0       0       0       0
       0       0       0       0       0       0       0       0       0       0
       0       0       0       0       0       0       0       0       0       0
       0       0       0       0       0       0       0       0       0       0
       0       0       0       0       0       0       0       0       0       0
       0       0       0       0       0       0       0       0       0       0
       0       0       0       0       0       0       0       0       0       0
       0       0       0       0       0       0       0       0       0       0
       0       0       0       0       0       0       0       0       0       0
       0       0       0       0       0       0       0       0       0       0
       0       0       0       0       0       0       0       0       0       0
       0       0       0       0       0       0       0       0       0       0
       0       0       0       0       0       0       0       0       0       0
       0       0       0       0       0       0       0       0       0       0
       0       0       0       0       0       0       0       0       0       0
       0       0       0       0       0       0       0       0       0       0
       0       0       0       0       0       0       0       0       0       0
       0       0       0       0       0       0       0       0       0       0
       0       0       0       0       0       0       0       0       0       0
       0       0       0       0       0       0       0       0       0       0
       0       0       0       0       0       0       0       0       0       0
       0       0       0       0       0       0       0       0       0       0
       0       0       0       0       0       0       0       0       0       0
       0       0       0       0       0       0       0       0       0       0
       0       0       0       0       0       0       0       0       0       0
       0       0       0       0       0       0       0       0       0       0
       0       0       0       0       0       0       0       0       0       0
       0       0       0       0       0       0       0       0       0       0
       0       0       0       0       0       0       0       0       0       0
       0       0       0       0       0       0       0       0       0       0
       0       0       0       0       0       0       0       0       0       0
       0       0       0       0       0       0       0       0       0       0
       0       0       0       0       0       0       0       0       0       0
       0       0       0       0       0       0       0       0       0       0
       0       0       0       0       0       0       0       0       0       0
       0       0       0       0       0       0       0       0       0       0
       0       0       0       0       0       0       0       0       0       0
       0       0       0       0       0       0       0       0       0       0
       0       0       0       0       0       0       0       0       0       0
       0       0       0       0       0       0       0       0       0       0
       0       0       0       0       0       0       0       0       0       0
       0       0       0       0       0       0       0       0       0       0
       0       0       0       0       0       0       0       0       0       0
       0       0       0       0       0       0       0       0       0       0
       0       0       0       0       0       0       0       0       0       0
       0       0       0       0       0       0       0       0       0       0
       0       0       0       0       0       0       0       0       0       0
       0       0       0       0       0       0       0       0       0       0
       0       0       0       0       0       0       0       0       0       0
       0       0       0       0       0       0       0       0       0       0
       0       0       0       0       0       0       0       0       0       0
       0       0       0       0       0       0       0       0       0       0
       0       0       0       0       0       0       0       0       0       0
       0       0       0       0       0       0       0       0       0       0
       0       0       0       0       0       0       0       0       0       0
       0       0       0       0       0       0       0       0       0       0
       0       0       0       0       0       0       0       0       0       0
       0       0       0       0       0       0       0       0       0       0
       0       0       0       0       0       0       0       0       0       0
       0       0       0       0       0       0       0       0       0       0
       0       0       0       0       0       0       0       0       0       0
       0       0       0       0       0       0       0       0       0       0
       0       0       0       0       0       0       0       0       0       0
       0       0       0       0       0       0       0       0       0       0
       0       0       0       0       0       0       0       0       0       0
       0       0       0       0       0       0       0       0       0       0
       0       0       0       0       0       0       0       0       0       0
       0       0       0       0       0       0       0       0       0       0
       0       0       0       0       0       0       0       0       0       0
       0       0       0       0       0       0       0       0       0       0
       0       0       0       0       0       0       0       0       0       0
       0       0       0       0       0       0       0       0       0       0
       0       0       0       0       0       0       0       0       0       0
       0       0       0       0       0       0       0       0       0       0
       0       0       0       0       0       0       0       0       0       0
       0       0       0       0       0       0       0       0       0       0
       0       0       0       0       0       0       0       0       0       0
       0       0       0       0       0       0       0       0       0       0
       0       0       0       0       0       0       0       0       0       0
       0       0       0       0       0       0       0       0       0       0
       0       0       0       0       0       0       0       0       0       0
       0       0       0       0       0       0       0       0       0       0
       0       0       0       0       0       0       0       0       0       0
       0       0       0       0       0       0       0       0       0       0
       0       0       0       0       0       0       0       0       0       0
       0       0       0       0       0       0       0       0       0       0
       0       0       0       0       0       0       0       0       0       0
       0       0       0       0       0       0       0       0       0       0
       0       0       0       0       0       0       0       0       0       0
       0       0       0       0       0       0       0       0       0       0
       0       0       0       0       0       0       0       0       0       0
       0       0       0       0       0       0       0       0       0       0
       0       0       0       0       0       0       0       0       0       0
       0       0       0       0       0       0       0       0       0       0
       0       0       0       0       0       0       0       0       0       0
       0       0       0       0       0       0       0       0       0       0
       0       0       0       0       0       0       0       0       0       0
       0       0       0       0       0       0       0       0       0       0
       0       0       0       0       0       0       0       0       0       0
       0       0       0       0       0       0       0       0       0       0
       0       0       0       0       0       0       0       0       0       0
       0       0       0       0       0       0       0       0       0       0
       0       0       0       0       0       0       0       0       0       0
       0       0       0       0       0       0       0       0       0       0
       0       0       0       0       0       0       0       0       0       0
       0       0       0       0       0       0       0       0       0       0
       0       0       0       0       0       0       0       0       0       0
       0       0       0       0       0       0       0       0       0       0
       0       0       0       0       0       0       0       0       0       0
       0       0       0       0       0       0       0       0       0       0
       0       0       0       0       0       0       0       0       0       0
       0       0       0       0       0       0       0       0       0       0
       0       0       0       0       0       0       0       0       0       0
       0       0       0       0       0       0       0       0       0       0
       0       0       0       0       0       0       0       0       0       0
       0       0       0       0       0       0       0       0       0       0
       0       0       0       0       0       0       0       0       0       0
       0       0       0       0       0       0       0       0       0       0
       0       0       0       0       0       0       0       0       0       0
       0       0       0       0       0       0       0       0       0       0
       0       0       0       0       0       0       0       0       0       0
       0       0       0       0       0       0       0       0       0       0
       0       0       0       0       0       0       0       0       0       0
       0       0       0       0       0       0       0       0       0       0
       0       0       0       0       0       0       0       0       0       0
       0       0       0       0       0       0       0       0       0       0
       0       0       0       0       0       0       0       0       0       0
       0       0       0       0       0       0       0       0       0       0
       0       0       0       0       0       0       0       0       0       0
       0       0       0       0       0       0       0       0       0       0
       0       0       0       0       0       0       0       0       0       0
       0       0       0       0       0       0       0       0       0       0
       0       0       0       0       0       0       0       0       0       0
       0       0       0       0       0       0       0       0       0       0
       0       0       0       0       0       0       0       0       0       0
       0       0       0       0       0       0       0       0       0       0
       0       0       0       0       0       0       0       0       0       0
       0       0       0       0       0       0       0       0       0       0
       0       0       0       0       0       0       0       0       0       0
       0       0       0       0       0       0       0       0       0       0
       0       0       0       0       0       0       0       0       0       0
       0       0       0       0       0       0       0       0       0       0
       0       0       0       0       0       0       0       0       0       0
       0       0       0       0       0       0       0       0       0       0
       0       0       0       0       0       0       0       0       0       0
       0       0       0       0       0       0       0       0       0       0
       0       0       0       0       0       0       0       0       0       0
       0       0       0       0       0       0       0       0       0       0
       0       0       0       0       0       0       0       0       0       0
       0       0       0       0       0       0       0       0       0       0
       0       0       0       0       0       0       0       0       0       0
       0       0       0       0       0       0       0       0       0       0
       0       0       0       0       0       0       0       0       0       0
       0       0       0       0       0       0       0       0       0       0
       0       0       0       0       0       0       0       0       0       0
       0       0       0       0       0       0       0       0       0       0
       0       0       0       0       0       0       0       0       0       0
       0       0       0       0       0       0       0       0       0       0
       0       0       0       0       0       0       0       0       0       0
       0       0       0       0       0       0       0       0       0       0
       0       0       0       0       0       0       0       0       0       0
       0       0       0       0       0       0       0       0       0       0
       0       0       0       0       0       0       0       0       0       0
       0       0       0       0       0       0       0       0       0       0
       0       0       0       0       0       0       0       0       0       0
       0       0       0       0       0       0       0       0       0       0
       0       0       0       0       0       0       0       0       0       0
       0       0       0       0       0       0       0       0       0       0
       0       0       0       0       0       0       0       0       0       0
       0       0       0       0       0       0       0       0       0       0
       0       0       0       0       0       0       0       0       0       0
       0       0       0       0       0       0       0       0       0       0
       0       0       0       0       0       0       0       0       0       0
       0       0       0       0       0       0       0       0       0       0
       0       0       0       0       0       0       0       0       0       0
       0       0       0       0       0       0       0       0       0       0
       0       0       0       0       0       0       0       0       0       0
       0       0       0       0       0       0       0       0       0       0
       0       0       0       0       0       0       0       0       0       0
       0       0       0       0       0       0       0       0       0       0
       0       0       0       0       0       0       0       0       0       0
       0       0       0       0       0       0       0       0       0       0
       0       0       0       0       0       0       0       0       0       0
       0       0       0       0       0       0       0       0       0       0
       0       0       0       0       0       0       0       0       0       0
       0       0       0       0       0       0       0       0       0       0
       0       0       0       0       0       0       0       0       0       0
       0       0       0       0       0       0       0       0       0       0
       0       0       0       0       0       0       0       0       0       0
       0       0       0       0       0       0       0       0       0       0
       0       0       0       0       0       0       0       0       0       0
       0       0       0       0       0       0       0       0       0       0
       0       0       0       0       0       0       0       0       0       0
       0       0       0       0       0       0       0       0       0       0
       0       0       0       0       0       0       0       0       0       0
       0       0       0       0       0       0       0       0       0       0
       0       0       0       0       0       0       0       0       0       0
       0       0       0       0       0       0       0       0       0       0
       0       0       0       0       0       0       0       0       0       0
       0       0       0       0       0       0       0       0       0       0
       0       0       0       0       0       0       0       0       0       0
       0       0       0       0       0       0       0       0       0       0
       0       0       0       0       0       0       0       0       0       0
       0       0       0       0       0       0       0       0       0       0
       0       0       0       0       0       0       0       0       0       0
       0       0       0       0       0       0       0       0       0       0
       0       0       0       0       0       0       0       0       0       0
       0       0       0       0       0       0       0       0       0       0
       0       0       0       0       0       0       0       0       0       0
       0       0       0       0       0       0       0       0       0       0
       0       0       0       0       0       0       0       0       0       0
       0       0       0       0       0       0       0       0       0       0
       0       0       0       0       0       0       0       0       0       0
       0       0       0       0       0       0       0       0       0       0
       0       0       0       0       0       0       0       0       0       0
       0       0       0       0       0       0       0       0       0       0
       0       0       0       0       0       0       0       0       0       0
       0       0       0       0       0       0       0       0       0       0
       0       0       0       0       0       0       0       0       0       0
       0       0       0       0       0       0       0       0       0       0
       0       0       0       0       0       0       0       0       0       0
       0       0       0       0       0       0       0       0       0       0
       0       0       0       0       0       0       0       0       0       0
       0       0       0       0       0       0       0       0       0       0
       0       0       0       0       0       0       0       0       0       0
       0       0       0       0       0       0       0       0       0       0
       0       0       0       0       0       0       0       0       0       0
       0       0       0       0       0       0       0       0       0       0
       0       0       0       0       0       0       0       0       0       0
       0       0       0       0       0       0       0       0       0       0
       0       0       0       0       0       0       0       0       0       0
       0       0       0       0       0       0       0       0       0       0
       0       0       0       0       0       0       0       0       0       0
       0       0       0       0       0       0       0       0       0       0
       0       0       0       0       0       0       0       0       0       0
       0       0       0       0       0       0       0       0       0       0
       0       0       0       0       0       0       0       0       0       0
       0       0       0       0       0       0       0       0       0       0
       0       0       0       0       0       0       0       0       0       0
       0       0       0       0       0       0       0       0       0       0
       0       0       0       0       0       0       0       0       0       0
       0       0       0       0       0       0       0       0       0       0
       0       0       0       0       0       0       0       0       0       0
       0       0       0       0       0       0       0       0       0       0
       0       0       0       0       0       0       0       0       0       0
       0       0       0       0       0       0       0       0       0       0
       0       0       0       0       0       0       0       0       0       0
       0       0       0       0       0       0       0       0       0       0
       0       0       0       0       0       0       0       0       0       0
       0       0       0       0       0       0       0       0       0       0
       0       0       0       0       0       0       0       0       0       0
       0       0       0       0       0       0       0       0       0       0
       0       0       0       0       0       0       0       0       0       0
       0       0       0       0       0       0       0       0       0       0
       0       0       0       0       0       0       0       0       0       0
       0       0       0       0       0       0       0       0       0       0
       0       0       0       0       0       0       0       0       0       0
       0       0       0       0       0       0       0       0       0       0
       0       0       0       0       0       0       0       0       0       0
       0       0       0       0       0       0       0       0       0       0
       0       0       0       0       0       0       0       0       0       0
       0       0       0       0       0       0       0       0       0       0
       0       0       0       0       0       0       0       0       0       0
       0       0       0       0       0       0       0       0       0       0
       0       0       0       0       0       0       0       0       0       0
       0       0       0       0       0       0       0       0       0       0
       0       0       0       0       0       0       0       0       0       0
       0       0       0       0       0       0       0       0       0       0
       0       0       0       0       0       0       0       0       0       0
       0       0       0       0       0       0       0       0       0       0
       0       0       0       0       0       0       0       0       0       0
       0       0       0       0       0       0       0       0       0       0
       0       0       0       0       0       0       0       0       0       0
       0       0       0       0       0       0       0       0       0       0
       0       0       0       0       0       0       0       0       0       0
       0       0       0       0       0       0       0       0       0       0
       0       0       0       0       0       0       0       0       0       0
       0       0       0       0       0       0       0       0       0       0
       0       0       0       0       0       0       0       0       0       0
       0       0       0       0       0       0       0       0       0       0
       0       0       0       0       0       0       0       0       0       0
       0       0       0       0       0       0       0       0       0       0
       0       0       0       0       0       0       0       0       0       0
       0       0       0       0       0       0       0       0       0       0
       0       0       0       0       0       0       0       0       0       0
       0       0       0       0       0       0       0       0       0       0
       0       0       0       0       0       0       0       0       0       0
       0       0       0       0       0       0       0       0       0       0
       0       0       0       0       0       0       0       0       0       0
       0       0       0       0       0       0       0       0       0       0
       0       0       0       0       0       0       0       0       0       0
       0       0       0       0       0       0       0       0       0       0
       0       0       0       0       0       0       0       0       0       0
       0       0       0       0       0       0       0       0       0       0
       0       0       0       0       0       0       0       0       0       0
       0       0       0       0       0       0       0       0       0       0
       0       0       0       0       0       0       0       0       0       0
       0       0       0       0       0       0       0       0       0       0
       0       0       0       0       0       0       0       0       0       0
       0       0       0       0       0       0       0       0       0       0
       0       0       0       0       0       0       0       0       0       0
       0       0       0       0       0       0       0       0       0       0
       0       0       0       0       0       0       0       0       0       0
       0       0       0       0       0       0       0       0       0       0
       0       0       0       0       0       0       0       0       0       0
       0       0       0       0       0       0       0       0       0       0
       0       0       0       0       0       0       0       0       0       0
       0       0       0       0       0       0       0       0       0       0
       0       0       0       0       0       0       0       0       0       0
       0       0       0       0       0       0       0       0       0       0
       0       0       0       0       0       0       0       0       0       0
       0       0       0       0       0       0       0       0       0       0
       0       0       0       0       0       0       0       0       0       0
       0       0       0       0       0       0       0       0       0       0
       0       0       0       0       0       0       0       0       0       0
       0       0       0       0       0       0       0       0       0       0
       0       0       0       0       0       0       0       0       0       0
       0       0       0       0       0       0       0       0       0       0
       0       0       0       0       0       0       0       0       0       0
       0       0       0       0       0       0       0       0       0       0
       0       0       0       0       0       0       0       0       0       0
       0       0       0       0       0       0       0       0       0       0
       0       0       0       0       0       0       0       0       0       0
       0       0       0       0       0       0       0       0       0       0
       0       0       0       0       0       0       0       0       0       0
       0       0       0       0       0       0       0       0       0       0
       0       0       0       0       0       0       0       0       0       0
       0       0       0       0       0       0       0       0       0       0
       0       0       0       0       0       0       0       0       0       0
       0       0       0       0       0       0       0       0       0       0
       0       0       0       0       0       0       0       0       0       0
       0       0       0       0       0       0       0       0       0       0
       0       0       0       0       0       0       0       0       0       0
       0       0       0       0       0       0       0       0       0       0
       0       0       0       0       0       0       0       0       0       0
       0       0       0       0       0       0       0       0       0       0
       0       0       0       0       0       0       0       0       0       0
       0       0       0       0       0       0       0       0       0       0
       0       0       0       0       0       0       0       0       0       0
       0       0       0       0       0       0       0       0       0       0
       0       0       0       0       0       0       0       0       0       0
       0       0       0       0       0       0       0       0       0       0
       0       0       0       0       0       0       0       0       0       0
       0       0       0       0       0       0       0       0       0       0
       0       0       0       0       0       0       0       0       0       0
       0       0       0       0       0       0       0       0       0       0
       0       0       0       0       0       0       0       0       0       0
       0       0       0       0       0       0       0       0       0       0
       0       0       0       0       0       0       0       0       0       0
       0       0       0       0       0       0       0       0       0       0
       0       0       0       0       0       0       0       0       0       0
       0       0       0       0       0       0       0       0       0       0
       0       0       0       0       0       0       0       0       0       0
       0       0       0       0       0       0       0       0       0       0
       0       0       0       0       0       0       0       0       0       0
       0       0       0       0       0       0       0       0       0       0
       0       0       0       0       0       0       0       0       0       0
       0       0       0       0       0       0       0       0       0       0
       0       0       0       0       0       0       0       0       0       0
       0       0       0       0       0       0       0       0       0       0
       0       0       0       0       0       0       0       0       0       0
       0       0       0       0       0       0       0       0       0       0
       0       0       0       0       0       0       0       0       0       0
       0       0       0       0       0       0       0       0       0       0
       0       0       0       0       0       0       0       0       0       0
       0       0       0       0       0       0       0       0       0       0
       0       0       0       0       0       0       0       0       0       0
       0       0       0       0       0       0       0       0       0       0
       0       0       0       0       0       0       0       0       0       0
       0       0       0       0       0       0       0       0       0       0
       0       0       0       0       0       0       0       0       0       0
       0       0       0       0       0       0       0       0       0       0
       0       0       0       0       0       0       0       0       0       0
       0       0       0       0       0       0       0       0       0       0
       0       0       0       0       0       0       0       0       0       0
       0       0       0       0       0       0       0       0       0       0
       0       0       0       0       0       0       0       0       0       0
       0       0       0       0       0       0       0       0       0       0
       0       0       0       0       0       0       0       0       0       0
       0       0       0       0       0       0       0       0       0       0
       0       0       0       0       0       0       0       0       0       0
       0       0       0       0       0       0       0       0       0       0
       0       0       0       0       0       0       0       0       0       0
       0       0       0       0       0       0       0       0       0       0
       0       0       0       0       0       0       0       0       0       0
       0       0       0       0       0       0       0       0       0       0
       0       0       0       0       0       0       0       0       0       0
       0       0       0       0       0       0       0       0       0       0
       0       0       0       0       0       0       0       0       0       0
       0       0       0       0       0       0       0       0       0       0
       0       0       0       0       0       0       0       0       0       0
       0       0       0       0       0       0       0       0       0       0
       0       0       0       0       0       0       0       0       0       0
       0       0       0       0       0       0       0       0       0       0
       0       0       0       0       0       0       0       0       0       0
       0       0       0       0       0       0       0       0       0       0
       0       0       0       0       0       0       0       0       0       0
       0       0       0       0       0       0       0       0       0       0
       0       0       0       0       0       0       0       0       0       0
       0       0       0       0       0       0       0       0       0       0
       0       0       0       0       0       0       0       0       0       0
       0       0       0       0       0       0       0       0       0       0
       0       0       0       0       0       0       0       0       0       0
       0       0       0       0       0       0       0       0       0       0
       0       0       0       0       0       0       0       0       0       0
       0       0       0       0       0       0       0       0       0       0
       0       0       0       0       0       0       0       0       0       0
       0       0       0       0       0       0       0       0       0       0
       0       0       0       0       0       0       0       0       0       0
       0       0       0       0       0       0       0       0       0       0
       0       0       0       0       0       0       0       0       0       0
       0       0       0       0       0       0       0       0       0       0
       0       0       0       0       0       0       0       0       0       0
       0       0       0       0       0       0       0       0       0       0
       0       0       0       0       0       0       0       0       0       0
       0       0       0       0       0       0       0       0       0       0
       0       0       0       0       0       0       0       0       0       0
       0       0       0       0       0       0       0       0       0       0
       0       0       0       0       0       0       0       0       0       0
       0       0       0       0       0       0       0       0       0       0
       0       0       0       0       0       0       0       0       0       0
       0       0       0       0       0       0       0       0       0       0
       0       0       0       0       0       0       0       0       0       0
       0       0       0       0       0       0       0       0       0       0
       0       0       0       0       0       0       0       0       0       0
       0       0       0       0       0       0       0       0       0       0
       0       0       0       0       0       0       0       0       0       0
       0       0       0       0       0       0       0       0       0       0
       0       0       0       0       0       0       0       0       0       0
       0       0       0       0       0       0       0       0       0       0
       0       0       0       0       0       0       0       0       0       0
       0       0       0       0       0       0       0       0       0       0
       0       0       0       0       0       0       0       0       0       0
       0       0       0       0       0       0       0       0       0       0
       0       0       0       0       0       0       0       0       0       0
       0       0       0       0       0       0       0       0       0       0
       0       0       0       0       0       0       0       0       0       0
       0       0       0       0       0       0       0       0       0       0
       0       0       0       0       0       0       0       0       0       0
       0       0       0       0       0       0       0       0       0       0
       0       0       0       0       0       0       0       0       0       0
       0       0       0       0       0       0       0       0       0       0
       0       0       0       0       0       0       0       0       0       0
       0       0       0       0       0       0       0       0       0       0
       0       0       0       0       0       0       0       0       0       0
       0       0       0       0       0       0       0       0       0       0
       0       0       0       0       0       0       0       0       0       0
       0       0       0       0       0       0       0       0       0       0
       0       0       0       0       0       0       0       0       0       0
       0       0       0       0       0       0       0       0       0       0
       0       0       0       0       0       0       0       0       0       0
       0       0       0       0       0       0       0       0       0       0
       0       0       0       0       0       0       0       0       0       0
       0       0       0       0       0       0       0       0       0       0
       0       0       0       0       0       0       0       0       0       0
       0       0       0       0       0       0       0       0       0       0
       0       0       0       0       0       0       0       0       0       0
       0       0       0       0       0       0       0       0       0       0
       0       0       0       0       0       0       0       0       0       0
       0       0       0       0       0       0       0       0       0       0
       0       0       0       0       0       0       0       0       0       0
       0       0       0       0       0       0       0       0       0       0
       0       0       0       0       0       0       0       0       0       0
       0       0       0       0       0       0       0       0       0       0
       0       0       0       0       0       0       0       0       0       0
       0       0       0       0       0       0       0       0       0       0
       0       0       0       0       0       0       0       0       0       0
       0       0       0       0       0       0       0       0       0       0
       0       0       0       0       0       0       0       0       0       0
       0       0       0       0       0       0       0       0       0       0
       0       0       0       0       0       0       0       0       0       0
       0       0       0       0       0       0       0       0       0       0
       0       0       0       0       0       0       0       0       0       0
       0       0       0       0       0       0       0       0       0       0
       0       0       0       0       0       0       0       0       0       0
       0       0       0       0       0       0       0       0       0       0
       0       0       0       0       0       0       0       0       0       0
       0       0       0       0       0       0       0       0       0       0
       0       0       0       0       0       0       0       0       0       0
       0       0       0       0       0       0       0       0       0       0
       0       0       0       0       0       0       0       0       0       0
       0       0       0       0       0       0       0       0       0       0
       0       0       0       0       0       0       0       0       0       0
       0       0       0       0       0       0       0       0       0       0
       0       0       0       0       0       0       0       0       0       0
       0       0       0       0       0       0       0       0       0       0
       0       0       0       0       0       0       0       0       0       0
       0       0       0       0       0       0       0       0       0       0
       0       0       0       0       0       0       0       0       0       0
       0       0       0       0       0       0       0       0       0       0
       0       0       0       0       0       0       0       0       0       0
       0       0       0       0       0       0       0       0       0       0
       0       0       0       0       0       0       0       0       0       0
       0       0       0       0       0       0       0       0       0       0
       0       0       0       0       0       0       0       0       0       0
       0       0       0       0       0       0       0       0       0       0
       0       0       0       0       0       0       0       0       0       0
       0       0       0       0       0       0       0       0       0       0
       0       0       0       0       0       0       0       0       0       0
       0       0       0       0       0       0       0       0       0       0
       0       0       0       0       0       0       0       0       0       0
       0       0       0       0       0       0       0       0       0       0
       0       0       0       0       0       0       0       0       0       0
       0       0       0       0       0       0       0       0       0       0
       0       0       0       0       0       0       0       0       0       0
       0       0       0       0       0       0       0       0       0       0
       0       0       0       0       0       0       0       0       0       0
       0       0       0       0       0       0       0       0       0       0
       0       0       0       0       0       0       0       0       0       0
       0       0       0       0       0       0       0       0       0       0
       0       0       0       0       0       0       0       0       0       0
       0       0       0       0       0       0       0       0       0       0
       0       0       0       0       0       0       0       0       0       0
       0       0       0       0       0       0       0       0       0       0
       0       0       0       0       0       0       0       0       0       0
       0       0       0       0       0       0       0       0       0       0
       0       0       0       0       0       0       0       0       0       0
       0       0       0       0       0       0       0       0       0       0
       0       0       0       0       0       0       0       0       0       0
       0       0       0       0       0       0       0       0       0       0
       0       0       0       0       0       0       0       0       0       0
       0       0       0       0       0       0       0       0       0       0
       0       0       0       0       0       0       0       0       0       0
       0       0       0       0       0       0       0       0       0       0
       0       0       0       0       0       0       0       0       0       0
       0       0       0       0       0       0       0       0       0       0
       0       0       0       0       0       0       0       0       0       0
       0       0       0       0       0       0       0       0       0       0
       0       0       0       0       0       0       0       0       0       0
       0       0       0       0       0       0       0       0       0       0
       0       0       0       0       0       0       0       0       0       0
       0       0       0       0       0       0       0       0       0       0
       0       0       0       0       0       0       0       0       0       0
       0       0       0       0       0       0       0       0       0       0
       0       0       0       0       0       0       0       0       0       0
       0       0       0       0       0       0       0       0       0       0
       0       0       0       0       0       0       0       0       0       0
       0       0       0       0       0       0       0       0       0       0
       0       0       0       0       0       0       0       0       0       0
       0       0       0       0       0       0       0       0       0       0
       0       0       0       0       0       0       0       0       0       0
       0       0       0       0       0       0       0       0       0       0
       0       0       0       0       0       0       0       0       0       0
       0       0       0       0       0       0       0       0       0       0
       0       0       0       0       0       0       0       0       0       0
       0       0       0       0       0       0       0       0       0       0
       0       0       0       0       0       0       0       0       0       0
       0       0       0       0       0       0       0       0       0       0
       0       0       0       0       0       0       0       0       0       0
       0       0       0       0       0       0       0       0       0       0
       0       0       0       0       0       0       0       0       0       0
       0       0       0       0       0       0       0       0       0       0
       0       0       0       0       0       0       0       0       0       0
       0       0       0       0       0       0       0       0       0       0
       0       0       0       0       0       0       0       0       0       0
       0       0       0       0       0       0       0       0       0       0
       0       0       0       0       0       0       0       0       0       0
       0       0       0       0       0       0       0       0       0       0
       0       0       0       0       0       0       0       0       0       0
       0       0       0       0       0       0       0       0       0       0
       0       0       0       0       0       0       0       0       0       0
       0       0       0       0       0       0       0       0       0       0
       0       0       0       0       0       0       0       0       0       0
       0       0       0       0       0       0       0       0       0       0
       0       0       0       0       0       0       0       0       0       0
       0       0       0       0       0       0       0       0       0       0
       0       0       0       0       0       0       0       0       0       0
       0       0       0       0       0       0       0       0       0       0
       0       0       0       0       0       0       0       0       0       0
       0       0       0       0       0       0       0       0       0       0
       0       0       0       0       0       0       0       0       0       0
       0       0       0       0       0       0       0       0       0       0
       0       0       0       0       0       0       0       0       0       0
       0       0       0       0       0       0       0       0       0       0
       0       0       0       0       0       0       0       0       0       0
       0       0       0       0       0       0       0       0       0       0
       0       0       0       0       0       0       0       0       0       0
       0       0       0       0       0       0       0       0       0       0
       0       0       0       0       0       0       0       0       0       0
       0       0       0       0       0       0       0       0       0       0
       0       0       0       0       0       0       0       0       0       0
       0       0       0       0       0       0       0       0       0       0
       0       0       0       0       0       0       0       0       0       0
       0       0       0       0       0       0       0       0       0       0
       0       0       0       0       0       0       0       0       0       0
       0       0       0       0       0       0       0       0       0       0
       0       0       0       0       0       0       0       0       0       0
       0       0       0       0       0       0       0       0       0       0
       0       0       0       0       0       0       0       0       0       0
       0       0       0       0       0       0       0       0       0       0
       0       0       0       0       0       0       0       0       0       0
       0       0       0       0       0       0       0       0       0       0
       0       0       0       0       0       0       0       0       0       0
       0       0       0       0       0       0       0       0       0       0
       0       0       0       0       0       0       0       0       0       0
       0       0       0       0       0       0       0       0       0       0
       0       0       0       0       0       0       0       0       0       0
       0       0       0       0       0       0       0       0       0       0
       0       0       0       0       0       0       0       0       0       0
       0       0       0       0       0       0       0       0       0       0
       0       0       0       0       0       0       0       0       0       0
       0       0       0       0       0       0       0       0       0       0
       0       0       0       0       0       0       0       0       0       0
       0       0       0       0       0       0       0       0       0       0
       0       0       0       0       0       0       0       0       0       0
       0       0       0       0       0       0       0       0       0       0
       0       0       0       0       0       0       0       0       0       0
       0       0       0       0       0       0       0       0       0       0
       0       0       0       0       0       0       0       0       0       0
       0       0       0       0       0       0       0       0       0       0
       0       0       0       0       0       0       0       0       0       0
       0       0       0       0       0       0       0       0       0       0
       0       0       0       0       0       0       0       0       0       0
       0       0       0       0       0       0       0       0       0       0
       0       0       0       0       0       0       0       0       0       0
       0       0       0       0       0       0       0       0       0       0
       0       0       0       0       0       0       0       0       0       0
       0       0       0       0       0       0       0       0       0       0
       0       0       0       0       0       0       0       0       0       0
       0       0       0       0       0       0       0       0       0       0
       0       0       0       0       0       0       0       0       0       0
       0       0       0       0       0       0       0       0       0       0
       0       0       0       0       0       0       0       0       0       0
       0       0       0       0       0       0       0       0       0       0
       0       0       0       0       0       0       0       0       0       0
       0       0       0       0       0       0       0       0       0       0
       0       0       0       0       0       0       0       0       0       0
       0       0       0       0       0       0       0       0       0       0
       0       0       0       0       0       0       0       0       0       0
       0       0       0       0       0       0       0       0       0       0
       0       0       0       0       0       0       0       0       0       0
       0       0       0       0       0       0       0       0       0       0
       0       0       0       0       0       0       0       0       0       0
       0       0       0       0       0       0       0       0       0       0
       0       0       0       0       0       0       0       0       0       0
       0       0       0       0       0       0       0       0       0       0
       0       0       0       0       0       0       0       0       0       0
       0       0       0       0       0       0       0       0       0       0
       0       0       0       0       0       0       0       0       0       0
       0       0       0       0       0       0       0       0       0       0
       0       0       0       0       0       0       0       0       0       0
       0       0       0       0       0       0       0       0       0       0
       0       0       0       0       0       0       0       0       0       0
       0       0       0       0       0       0       0       0       0       0
       0       0       0       0       0       0       0       0       0       0
       0       0       0       0       0       0       0       0       0       0
       0       0       0       0       0       0       0       0       0       0
       0       0       0       0       0       0       0       0       0       0
       0       0       0       0       0       0       0       0       0       0
       0       0       0       0       0       0       0       0       0       0
       0       0       0       0       0       0       0       0       0       0
       0       0       0       0       0       0       0       0       0       0
       0       0       0       0       0       0       0       0       0       0
       0       0       0       0       0       0       0       0       0       0
       0       0       0       0       0       0       0       0       0       0
       0       0       0       0       0       0       0       0       0       0
       0       0       0       0       0       0       0       0       0       0
       0       0       0       0       0       0       0       0       0       0
       0       0       0       0       0       0       0       0       0       0
       0       0       0       0       0       0       0       0       0       0
       0       0       0       0       0       0       0       0       0       0
       0       0       0       0       0       0       0       0       0       0
       0       0       0       0       0       0       0       0       0       0
       0       0       0       0       0       0       0       0       0       0
       0       0       0       0       0       0       0       0       0       0
       0       0       0       0       0       0       0       0       0       0
       0       0       0       0       0       0       0       0       0       0
       0       0       0       0       0       0       0       0       0       0
       0       0       0       0       0       0       0       0       0       0
       0       0       0       0       0       0       0       0       0       0
       0       0       0       0       0       0       0       0       0       0
       0       0       0       0       0       0       0       0       0       0
       0       0       0       0       0       0       0       0       0       0
       0       0       0       0       0       0       0       0       0       0
       0       0       0       0       0       0       0       0       0       0
       0       0       0       0       0       0       0       0       0       0
       0       0       0       0       0       0       0       0       0       0
       0       0       0       0       0       0       0       0       0       0
       0       0       0       0       0       0       0       0       0       0
       0       0       0       0       0       0       0       0       0       0
       0       0       0       0       0       0       0       0       0       0
       0       0       0       0       0       0       0       0       0       0
       0       0       0       0       0       0       0       0       0       0
       0       0       0       0       0       0       0       0       0       0
       0       0       0       0       0       0       0       0       0       0
       0       0       0       0       0       0       0       0       0       0
       0       0       0       0       0       0       0       0       0       0
       0       0       0       0       0       0       0       0       0       0
       0       0       0       0       0       0       0       0       0       0
       0       0       0       0       0       0       0       0       0       0
       0       0       0       0       0       0       0       0       0       0
       0       0       0       0       0       0       0       0       0       0
       0       0       0       0       0       0       0       0       0       0
       0       0       0       0       0       0       0       0       0       0
       0       0       0       0       0       0       0       0       0       0
       0       0       0       0       0       0       0       0       0       0
       0       0       0       0       0       0       0       0       0       0
       0       0       0       0       0       0       0       0       0       0
       0       0       0       0       0       0       0       0       0       0
       0       0       0       0       0       0       0       0       0       0
       0       0       0       0       0       0       0       0       0       0
       0       0       0       0       0       0       0       0       0       0
       0       0       0       0       0       0       0       0       0       0
       0       0       0       0       0       0       0       0       0       0
       0       0       0       0       0       0       0       0       0       0
       0       0       0       0       0       0       0       0       0       0
       0       0       0       0       0       0       0       0       0       0
       0       0       0       0       0       0       0       0       0       0
       0       0       0       0       0       0       0       0       0       0
       0       0       0       0       0       0       0       0       0       0
       0       0       0       0       0       0       0       0       0       0
       0       0       0       0       0       0       0       0       0       0
       0       0       0       0       0       0       0       0       0       0
       0       0       0       0       0       0       0       0       0       0
       0       0       0       0       0       0       0       0       0       0
       0       0       0       0       0       0       0       0       0       0
       0       0       0       0       0       0       0       0       0       0
       0       0       0       0       0       0       0       0       0       0
       0       0       0       0       0       0       0       0       0       0
       0       0       0       0       0       0       0       0       0       0
       0       0       0       0       0       0       0       0       0       0
       0       0       0       0       0       0       0       0       0       0
       0       0       0       0       0       0       0       0       0       0
       0       0       0       0       0       0       0       0       0       0
       0       0       0       0       0       0       0       0       0       0
       0       0       0       0       0       0       0       0       0       0
       0       0       0       0       0       0       0       0       0       0
       0       0       0       0       0       0       0       0       0       0
       0       0       0       0       0       0       0       0       0       0
       0       0       0       0       0       0       0       0       0       0
       0       0       0       0       0       0       0       0       0       0
       0       0       0       0       0       0       0       0       0       0
       0       0       0       0       0       0       0       0       0       0
       0       0       0       0       0       0       0       0       0       0
       0       0       0       0       0       0       0       0       0       0
       0       0       0       0       0       0       0       0       0       0
       0       0       0       0       0       0       0       0       0       0
       0       0       0       0       0       0       0       0       0       0
       0       0       0       0       0       0       0       0       0       0
       0       0       0       0       0       0       0       0       0       0
       0       0       0       0       0       0       0       0       0       0
       0       0       0       0       0       0       0       0       0       0
       0       0       0       0       0       0       0       0       0       0
       0       0       0       0       0       0       0       0       0       0
       0       0       0       0       0       0       0       0       0       0
       0       0       0       0       0       0       0       0       0       0
       0       0       0       0       0       0       0       0       0       0
       0       0       0       0       0       0       0       0       0       0
       0       0       0       0       0       0       0       0       0       0
       0       0       0       0       0       0       0       0       0       0
       0       0       0       0       0       0       0       0       0       0
       0       0       0       0       0       0       0       0       0       0
       0       0       0       0       0       0       0       0       0       0
       0       0       0       0       0       0       0       0       0       0
       0       0       0       0       0       0       0       0       0       0
       0       0       0       0       0       0       0       0       0       0
       0       0       0       0       0       0       0       0       0       0
       0       0       0       0       0       0       0       0       0       0
       0       0       0       0       0       0       0       0       0       0
       0       0       0       0       0       0       0       0       0       0
       0       0       0       0       0       0       0       0       0       0
       0       0       0       0       0       0       0       0       0       0
       0       0       0       0       0       0       0       0       0       0
       0       0       0       0       0       0       0       0       0       0
       0       0       0       0       0       0       0       0       0       0
       0       0       0       0       0       0       0       0       0       0
       0       0       0       0       0       0       0       0       0       0
       0       0       0       0       0       0       0       0       0       0
       0       0       0       0       0       0       0       0       0       0
       0       0       0       0       0       0       0       0       0       0
       0       0       0       0       0       0       0       0       0       0
       0       0       0       0       0       0       0       0       0       0
       0       0       0       0       0       0       0       0       0       0
       0       0       0       0       0       0       0       0       0       0
       0       0       0       0       0       0       0       0       0       0
       0       0       0       0       0       0       0       0       0       0
       0       0       0       0       0       0       0       0       0       0
       0       0       0       0       0       0       0       0       0       0
       0       0       0       0       0       0       0       0       0       0
       0       0       0       0       0       0       0       0       0       0
       0       0       0       0       0       0       0       0       0       0
       0       0       0       0       0       0       0       0       0       0
       0       0       0       0       0       0       0       0       0       0
       0       0       0       0       0       0       0       0       0       0
       0       0       0       0       0       0       0       0       0       0
       0       0       0       0       0       0       0       0       0       0
       0       0       0       0       0       0       0       0       0       0
       0       0       0       0       0       0       0       0       0       0
       0       0       0       0       0       0       0       0       0       0
       0       0       0       0       0       0       0       0       0       0
       0       0       0       0       0       0       0       0       0       0
       0       0       0       0       0       0       0       0       0       0
       0       0       0       0       0       0       0       0       0       0
       0       0       0       0       0       0       0       0       0       0
       0       0       0       0       0       0       0       0       0       0
       0       0       0       0       0       0       0       0       0       0
       0       0       0       0       0       0       0       0       0       0
       0       0       0       0       0       0       0       0       0       0
       0       0       0       0       0       0       0       0       0       0
       0       0       0       0       0       0       0       0       0       0
       0       0       0       0       0       0       0       0       0       0
       0       0       0       0       0       0       0       0       0       0
       0       0       0       0       0       0       0       0       0       0
       0       0       0       0       0       0       0       0       0       0
       0       0       0       0       0       0       0       0       0       0
       0       0       0       0       0       0       0       0       0       0
       0       0       0       0       0       0       0       0       0       0
       0       0       0       0       0       0       0       0       0       0
       0       0       0       0       0       0       0       0       0       0
       0       0       0       0       0       0       0       0       0       0
       0       0       0       0       0       0       0       0       0       0
       0       0       0       0       0       0       0       0       0       0
       0       0       0       0       0       0       0       0       0       0
       0       0       0       0       0       0       0       0       0       0
       0       0       0       0       0       0       0       0       0       0
       0       0       0       0       0       0       0       0       0       0
       0       0       0       0       0       0       0       0       0       0
       0       0       0       0       0       0       0       0       0       0
       0       0       0       0       0       0       0       0       0       0
       0       0       0       0       0       0       0       0       0       0
       0       0       0       0       0       0       0       0       0       0
       0       0       0       0       0       0       0       0       0       0
       0       0       0       0       0       0       0       0       0       0
       0       0       0       0       0       0       0       0       0       0
       0       0       0       0       0       0       0       0       0       0
       0       0       0       0       0       0       0       0       0       0
       0       0       0       0       0       0       0       0       0       0
       0       0       0       0       0       0       0       0       0       0
       0       0       0       0       0       0       0       0       0       0
       0       0       0       0       0       0       0       0       0       0
       0       0       0       0       0       0       0       0       0       0
       0       0       0       0       0       0       0       0       0       0
       0       0       0       0       0       0       0       0       0       0
       0       0       0       0       0       0       0       0       0       0
       0       0       0       0       0       0       0       0       0       0
       0       0       0       0       0       0       0       0       0       0
       0       0       0       0       0       0       0       0       0       0
       0       0       0       0       0       0       0       0       0       0
       0       0       0       0       0       0       0       0       0       0
       0       0       0       0       0       0       0       0       0       0
       0       0       0       0       0       0       0       0       0       0
       0       0       0       0       0       0       0       0       0       0
       0       0       0       0       0       0       0       0       0       0
       0       0       0       0       0       0       0       0       0       0
       0       0       0       0       0       0       0       0       0       0
       0       0       0       0       0       0       0       0       0       0
       0       0       0       0       0       0       0       0       0       0
       0       0       0       0       0       0       0       0       0       0
       0       0       0       0       0       0       0       0       0       0
       0       0       0       0       0       0       0       0       0       0
       0       0       0       0       0       0       0       0       0       0
       0       0       0       0       0       0       0       0       0       0
       0       0       0       0       0       0       0       0       0       0
       0       0       0       0       0       0       0       0       0       0
       0       0       0       0       0       0       0       0       0       0
       0       0       0       0       0       0       0       0       0       0
       0       0       0       0       0       0       0       0       0       0
       0       0       0       0       0       0       0       0       0       0
       0       0       0       0       0       0       0       0       0       0
       0       0       0       0       0       0       0       0       0       0
       0       0       0       0       0       0       0       0       0       0
       0       0       0       0       0       0       0       0       0       0
       0       0       0       0       0       0       0       0       0       0
       0       0       0       0       0       0       0       0       0       0
       0       0       0       0       0       0       0       0       0       0
       0       0       0       0       0       0       0       0       0       0
       0       0       0       0       0       0       0       0       0       0
       0       0       0       0       0       0       0       0       0       0
       0       0       0       0       0       0       0       0       0       0
       0       0       0       0       0       0       0       0       0       0
       0       0       0       0       0       0       0       0       0       0
       0       0       0       0       0       0       0       0       0       0
       0       0       0       0       0       0       0       0       0       0
       0       0       0       0       0       0       0       0       0       0
       0       0       0       0       0       0       0       0       0       0
       0       0       0       0       0       0       0       0       0       0
       0       0       0       0       0       0       0       0       0       0
       0       0       0       0       0       0       0       0       0       0
       0       0       0       0       0       0       0       0       0       0
       0       0       0       0       0       0       0       0       0       0
       0       0       0       0       0       0       0       0       0       0
       0       0       0       0       0       0       0       0       0       0
       0       0       0       0       0       0       0       0       0       0
       0       0       0       0       0       0       0       0       0       0
       0       0       0       0       0       0       0       0       0       0
       0       0       0       0       0       0       0       0       0       0
       0       0       0       0       0       0       0       0       0       0
       0       0       0       0       0       0       0       0       0       0
       0       0       0       0       0       0       0       0       0       0
       0       0       0       0       0       0       0       0       0       0
       0       0       0       0       0       0       0       0       0       0
       0       0       0       0       0       0       0       0       0       0
       0       0       0       0       0       0       0       0       0       0
       0       0       0       0       0       0       0       0       0       0
       0       0       0       0       0       0       0       0       0       0
       0       0       0       0       0       0       0       0       0       0
       0       0       0       0       0       0       0       0       0       0
       0       0       0       0       0       0       0       0       0       0
       0       0       0       0       0       0       0       0       0       0
       0       0       0       0       0       0       0       0       0       0
       0       0       0       0       0       0       0       0       0       0
       0       0       0       0       0       0       0       0       0       0
       0       0       0       0       0       0       0       0       0       0
       0       0       0       0       0       0       0       0       0       0
       0       0       0       0       0       0       0       0       0       0
       0       0       0       0       0       0       0       0       0       0
       0       0       0       0       0       0       0       0       0       0
       0       0       0       0       0       0       0       0       0       0
       0       0       0       0       0       0       0       0       0       0
       0       0       0       0       0       0       0       0       0       0
       0       0       0       0       0       0       0       0       0       0
       0       0       0       0       0       0       0       0       0       0
       0       0       0       0       0       0       0       0       0       0
       0       0       0       0       0       0       0       0       0       0
       0       0       0       0       0       0       0       0       0       0
       0       0       0       0       0       0       0       0       0       0
       0       0       0       0       0       0       0       0       0       0
       0       0       0       0       0       0       0       0       0       0
       0       0       0       0       0       0       0       0       0       0
       0       0       0       0       0       0       0       0       0       0
       0       0       0       0       0       0       0       0       0       0
       0       0       0       0       0       0       0       0       0       0
       0       0       0       0       0       0       0       0       0       0
       0       0       0       0       0       0       0       0       0       0
       0       0       0       0       0       0       0       0       0       0
       0       0       0       0       0       0       0       0       0       0
       0       0       0       0       0       0       0       0       0       0
       0       0       0       0       0       0       0       0       0       0
       0       0       0       0       0       0       0       0       0       0
       0       0       0       0       0       0       0       0       0       0
       0       0       0       0       0       0       0       0       0       0
       0       0       0       0       0       0       0       0       0       0
       0       0       0       0       0       0       0       0       0       0
       0       0       0       0       0       0       0       0       0       0
       0       0       0       0       0       0       0       0       0       0
       0       0       0       0       0       0       0       0       0       0
       0       0       0       0       0       0       0       0       0       0
       0       0       0       0       0       0       0       0       0       0
       0       0       0       0       0       0       0       0       0       0
       0       0       0       0       0       0       0       0       0       0
       0       0       0       0       0       0       0       0       0       0
       0       0       0       0       0       0       0       0       0       0
       0       0       0       0       0       0       0       0       0       0
       0       0       0       0       0       0       0       0       0       0
       0       0       0       0       0       0       0       0       0       0
       0       0       0       0       0       0       0       0       0       0
       0       0       0       0       0       0       0       0       0       0
       0       0       0       0       0       0       0       0       0       0
       0       0       0       0       0       0       0       0       0       0
       0       0       0       0       0       0       0       0       0       0
       0       0       0       0       0       0       0       0       0       0
       0       0       0       0       0       0       0       0       0       0
       0       0       0       0       0       0       0       0       0       0
       0       0       0       0       0       0       0       0       0       0
       0       0       0       0       0       0       0       0       0       0
       0       0       0       0       0       0       0       0       0       0
       0       0       0       0       0       0       0       0       0       0
       0       0       0       0       0       0       0       0       0       0
       0       0       0       0       0       0       0       0       0       0
       0       0       0       0       0       0       0       0       0       0
       0       0       0       0       0       0       0       0       0       0
       0       0       0       0       0       0       0       0       0       0
       0       0       0       0       0       0       0       0       0       0
       0       0       0       0       0       0       0       0       0       0
       0       0       0       0       0       0       0       0       0       0
       0       0       0       0       0       0       0       0       0       0
       0       0       0       0       0       0       0       0       0       0
       0       0       0       0       0       0       0       0       0       0
       0       0       0       0       0       0       0       0       0       0
       0       0       0       0       0       0       0       0       0       0
       0       0       0       0       0       0       0       0       0       0
       0       0       0       0       0       0       0       0       0       0
       0       0       0       0       0       0       0       0       0       0
       0       0       0       0       0       0       0       0       0       0
       0       0       0       0       0       0       0       0       0       0
       0       0       0       0       0       0       0       0       0       0
       0       0       0       0       0       0       0       0       0       0
       0       0       0       0       0       0       0       0       0       0
       0       0       0       0       0       0       0       0       0       0
       0       0       0       0       0       0       0       0       0       0
       0       0       0       0       0       0       0       0       0       0
       0       0       0       0       0       0       0       0       0       0
       0       0       0       0       0       0       0       0       0       0
       0       0       0       0       0       0       0       0       0       0
       0       0       0       0       0       0       0       0       0       0
       0       0       0       0       0       0       0       0       0       0
       0       0       0       0       0       0       0       0       0       0
       0       0       0       0       0       0       0       0       0       0
       0       0       0       0       0       0       0       0       0       0
       0       0       0       0       0       0       0       0       0       0
       0       0       0       0       0       0       0       0       0       0
       0       0       0       0       0       0       0       0       0       0
       0       0       0       0       0       0       0       0       0       0
       0       0       0       0       0       0       0       0       0       0
       0       0       0       0       0       0       0       0       0       0
       0       0       0       0       0       0       0       0       0       0
       0       0       0       0       0       0       0       0       0       0
       0       0       0       0       0       0       0       0       0       0
       0       0       0       0       0       0       0       0       0       0
       0       0       0       0       0       0       0       0       0       0
       0       0       0       0       0       0       0       0       0       0
       0       0       0       0       0       0       0       0       0       0
       0       0       0       0       0       0       0       0       0       0
       0       0       0       0       0       0       0       0       0       0
       0       0       0       0       0       0       0       0       0       0
       0       0       0       0       0       0       0       0       0       0
       0       0       0       0       0       0       0       0       0       0
       0       0       0       0       0       0       0       0       0       0
       0       0       0       0       0       0       0       0       0       0
       0       0       0       0       0       0       0       0       0       0
       0       0       0       0       0       0       0       0       0       0
       0       0       0       0       0       0       0       0       0       0
       0       0       0       0       0       0       0       0       0       0
       0       0       0       0       0       0       0       0       0       0
       0       0       0       0       0       0       0       0       0       0
       0       0       0       0       0       0       0       0       0       0
       0       0       0       0       0       0       0       0       0       0
       0       0       0       0       0       0       0       0       0       0
       0       0       0       0       0       0       0       0       0       0
       0       0       0       0       0       0       0       0       0       0
       0       0       0       0       0       0       0       0       0       0
       0       0       0       0       0       0       0       0       0       0
       0       0       0       0       0       0       0       0       0       0
       0       0       0       0       0       0       0       0       0       0
       0       0       0       0       0       0       0       0       0       0
       0       0       0       0       0       0       0       0       0       0
       0       0       0       0       0       0       0       0       0       0
       0       0       0       0       0       0       0       0       0       0
       0       0       0       0       0       0       0       0       0       0
       0       0       0       0       0       0       0       0       0       0
       0       0       0       0       0       0       0       0       0       0
       0       0       0       0       0       0       0       0       0       0
       0       0       0       0       0       0       0       0       0       0
       0       0       0       0       0       0       0       0       0       0
       0       0       0       0       0       0       0       0       0       0
       0       0       0       0       0       0       0       0       0       0
       0       0       0       0       0       0       0       0       0       0
       0       0       0       0       0       0       0       0       0       0
       0       0       0       0       0       0       0       0       0       0
       0       0       0       0       0       0       0       0       0       0
       0       0       0       0       0       0       0       0       0       0
       0       0       0       0       0       0       0       0       0       0
       0       0       0       0       0       0       0       0       0       0
       0       0       0       0       0       0       0       0       0       0
       0       0       0       0       0       0       0       0       0       0
       0       0       0       0       0       0       0       0       0       0
       0       0       0       0       0       0       0       0       0       0
       0       0       0       0       0       0       0       0       0       0
       0       0       0       0       0       0       0       0       0       0
       0       0       0       0       0       0       0       0       0       0
       0       0       0       0       0       0       0       0       0       0
       0       0       0       0       0       0       0       0       0       0
       0       0       0       0       0       0       0       0       0       0
       0       0       0       0       0       0       0       0       0       0
       0       0       0       0       0       0       0       0       0       0
       0       0       0       0       0       0       0       0       0       0
       0       0       0       0       0       0       0       0       0       0
       0       0       0       0       0       0       0       0       0       0
       0       0       0       0       0       0       0       0       0       0
       0       0       0       0       0       0       0       0       0       0
       0       0       0       0       0       0       0       0       0       0
       0       0       0       0       0       0       0       0       0       0
       0       0       0       0       0       0       0       0       0       0
       0       0       0       0       0       0       0       0       0       0
       0       0       0       0       0       0       0       0       0       0
       0       0       0       0       0       0       0       0       0       0
       0       0       0       0       0       0       0       0       0       0
       0       0       0       0       0       0       0       0       0       0
       0       0       0       0       0       0       0       0       0       0
       0       0       0       0       0       0       0       0       0       0
       0       0       0       0       0       0       0       0       0       0
       0       0       0       0       0       0       0       0       0       0
       0       0       0       0       0       0       0       0       0       0
       0       0       0       0       0       0       0       0       0       0
       0       0       0       0       0       0       0       0       0       0
       0       0       0       0       0       0       0       0       0       0
       0       0       0       0       0       0       0       0       0       0
       0       0       0       0       0       0       0       0       0       0
       0       0       0       0       0       0       0       0       0       0
       0       0       0       0       0       0       0       0       0       0
       0       0       0       0       0       0       0       0       0       0
       0       0       0       0       0       0       0       0       0       0
       0       0       0       0       0       0       0       0       0       0
       0       0       0       0       0       0       0       0       0       0
       0       0       0       0       0       0       0       0       0       0
       0       0       0       0       0       0       0       0       0       0
       0       0       0       0       0       0       0       0       0       0
       0       0       0       0       0       0       0       0       0       0
       0       0       0       0       0       0       0       0       0       0
       0       0       0       0       0       0       0       0       0       0
       0       0       0       0       0       0       0       0       0       0
       0       0       0       0       0       0       0       0       0       0
       0       0       0       0       0       0       0       0       0       0
       0       0       0       0       0       0       0       0       0       0
       0       0       0       0       0       0       0       0       0       0
       0       0       0       0       0       0       0       0       0       0
       0       0       0       0       0       0       0       0       0       0
       0       0       0       0       0       0       0       0       0       0
       0       0       0       0       0       0       0       0       0       0
       0       0       0       0       0       0       0       0       0       0
       0       0       0       0       0       0       0       0       0       0
       0       0       0       0       0       0       0       0       0       0
       0       0       0       0       0       0       0       0       0       0
       0       0       0       0       0       0       0       0       0       0
       0       0       0       0       0       0       0       0       0       0
       0       0       0       0       0       0       0       0       0       0
       0       0       0       0       0       0       0       0       0       0
       0       0       0       0       0       0       0       0       0       0
       0       0       0       0       0       0       0       0       0       0
       0       0       0       0       0       0       0       0       0       0
       0       0       0       0       0       0       0       0       0       0
       0       0       0       0       0       0       0       0       0       0
       0       0       0       0       0       0       0       0       0       0
       0       0       0       0       0       0       0       0       0       0
       0       0       0       0       0       0       0       0       0       0
       0       0       0       0       0       0       0       0       0       0
       0       0       0       0       0       0       0       0       0       0
       0       0       0       0       0       0       0       0       0       0
       0       0       0       0       0       0       0       0       0       0
       0       0       0       0       0       0       0       0       0       0
       0       0       0       0       0       0       0       0       0       0
       0       0       0       0       0       0       0       0       0       0
       0       0       0       0       0       0       0       0       0       0
       0       0       0       0       0       0       0       0       0       0
       0       0       0       0       0       0       0       0       0       0
       0       0       0       0       0       0       0       0       0       0
       0       0       0       0       0       0       0       0       0       0
       0       0       0       0       0       0       0       0       0       0
       0       0       0       0       0       0       0       0       0       0
       0       0       0       0       0       0       0       0       0       0
       0       0       0       0       0       0       0       0       0       0
       0       0       0       0       0       0       0       0       0       0
       0       0       0       0       0       0       0       0       0       0
       0       0       0       0       0       0       0       0       0       0
       0       0       0       0       0       0       0       0       0       0
       0       0       0       0       0       0       0       0       0       0
       0       0       0       0       0       0       0       0       0       0
       0       0       0       0       0       0       0       0       0       0
       0       0       0       0       0       0       0       0       0       0
       0       0       0       0       0       0       0       0       0       0
       0       0       0       0       0       0       0       0       0       0
       0       0       0       0       0       0       0       0       0       0
       0       0       0       0       0       0       0       0       0       0
       0       0       0       0       0       0       0       0       0       0
       0       0       0       0       0       0       0       0       0       0
       0       0       0       0       0       0       0       0       0       0
       0       0       0       0       0       0       0       0       0       0
       0       0       0       0       0       0       0       0       0       0
       0       0       0       0       0       0       0       0       0       0
       0       0       0       0       0       0       0       0       0       0
       0       0       0       0       0       0       0       0       0       0
       0       0       0       0       0       0       0       0       0       0
       0       0       0       0       0       0       0       0       0       0
       0       0       0       0       0       0       0       0       0       0
       0       0       0       0       0       0       0       0       0       0
       0       0       0       0       0       0       0       0       0       0
       0       0       0       0       0       0       0       0       0       0
       0       0       0       0       0       0       0       0       0       0
       0       0       0       0       0       0       0       0       0       0
       0       0       0       0       0       0       0       0       0       0
       0       0       0       0       0       0       0       0       0       0
       0       0       0       0       0       0       0       0       0       0
       0       0       0       0       0       0       0       0       0       0
       0       0       0       0       0       0       0       0       0       0
       0       0       0       0       0       0       0       0       0       0
       0       0       0       0       0       0       0       0       0       0
       0       0       0       0       0       0       0       0       0       0
       0       0       0       0       0       0       0       0       0       0
       0       0       0       0       0       0       0       0       0       0
       0       0       0       0       0       0       0       0       0       0
       0       0       0       0       0       0       0       0       0       0
       0       0       0       0       0       0       0       0       0       0
       0       0       0       0       0       0       0       0       0       0
       0       0       0       0       0       0       0       0       0       0
       0       0       0       0       0       0       0       0       0       0
       0       0       0       0       0       0       0       0       0       0
       0       0       0       0       0       0       0       0       0       0
       0       0       0       0       0       0       0       0       0       0
       0       0       0       0       0       0       0       0       0       0
       0       0       0       0       0       0       0       0       0       0
       0       0       0       0       0       0       0       0       0       0
       0       0       0       0       0       0       0       0       0       0
       0       0       0       0       0       0       0       0       0       0
       0       0       0       0       0       0       0       0       0       0
       0       0       0       0       0       0       0       0       0       0
       0       0       0       0       0       0       0       0       0       0
       0       0       0       0       0       0       0       0       0       0
       0       0       0       0       0       0       0       0       0       0
       0       0       0       0       0       0       0       0       0       0
       0       0       0       0       0       0       0       0       0       0
       0       0       0       0       0       0       0       0       0       0
       0       0       0       0       0       0       0       0       0       0
       0       0       0       0       0       0       0       0       0       0
       0       0       0       0       0       0       0       0       0       0
       0       0       0       0       0       0       0       0       0       0
       0       0       0       0       0       0       0       0       0       0
       0       0       0       0       0       0       0       0       0       0
       0       0       0       0       0       0       0       0       0       0
       0       0       0       0       0       0       0       0       0       0
       0       0       0       0       0       0       0       0       0       0
       0       0       0       0       0       0       0       0       0       0
       0       0       0       0       0       0       0       0       0       0
       0       0       0       0       0       0       0       0       0       0
       0       0       0       0       0       0       0       0       0       0
       0       0       0       0       0       0       0       0       0       0
       0       0       0       0       0       0       0       0       0       0
       0       0       0       0       0       0       0       0       0       0
       0       0       0       0       0       0       0       0       0       0
       0       0       0       0       0       0       0       0       0       0
       0       0       0       0       0       0       0       0       0       0
       0       0       0       0       0       0       0       0       0       0
       0       0       0       0       0       0       0       0       0       0
       0       0       0       0       0       0       0       0       0       0
       0       0       0       0       0       0       0       0       0       0
       0       0       0       0       0       0       0       0       0       0
       0       0       0       0       0       0       0       0       0       0
       0       0       0       0       0       0       0       0       0       0
       0       0       0       0       0       0       0       0       0       0
       0       0       0       0       0       0       0       0       0       0
       0       0       0       0       0       0       0       0       0       0
       0       0       0       0       0       0       0       0       0       0
       0       0       0       0       0       0       0       0       0       0
       0       0       0       0       0       0       0       0       0       0
       0       0       0       0       0       0       0       0       0       0
       0       0       0       0       0       0       0       0       0       0
       0       0       0       0       0       0       0       0       0       0
       0       0       0       0       0       0       0       0       0       0
       0       0       0       0       0       0       0       0       0       0
       0       0       0       0       0       0       0       0       0       0
       0       0       0       0       0       0       0       0       0       0
       0       0       0       0       0       0       0       0       0       0
       0       0       0       0       0       0       0       0       0       0
       0       0       0       0       0       0       0       0       0       0
       0       0       0       0       0       0       0       0       0       0
       0       0       0       0       0       0       0       0       0       0
       0       0       0       0       0       0       0       0       0       0
       0       0       0       0       0       0       0       0       0       0
       0       0       0       0       0       0       0       0       0       0
       0       0       0       0       0       0       0       0       0       0
       0       0       0       0       0       0       0       0       0       0
       0       0       0       0       0       0       0       0       0       0
       0       0       0       0       0       0       0       0       0       0
       0       0       0       0       0       0       0       0       0       0
       0       0       0       0       0       0       0       0       0       0
       0       0       0       0       0       0       0       0       0       0
       0       0       0       0       0       0       0       0       0       0
       0       0       0       0       0       0       0       0       0       0
       0       0       0       0       0       0       0       0       0       0
       0       0       0       0       0       0       0       0       0       0
       0       0       0       0       0       0       0       0       0       0
       0       0       0       0       0       0       0       0       0       0
       0       0       0       0       0       0       0       0       0       0
       0       0       0       0       0       0       0       0       0       0
       0       0       0       0       0       0       0       0       0       0
       0       0       0       0       0       0       0       0       0       0
       0       0       0       0       0       0       0       0       0       0
       0       0       0       0       0       0       0       0       0       0
       0       0       0       0       0       0       0       0       0       0
       0       0       0       0       0       0       0       0       0       0
       0       0       0       0       0       0       0       0       0       0
       0       0       0       0       0       0       0       0       0       0
       0       0       0       0       0       0       0       0       0       0
       0       0       0       0       0       0       0       0       0       0
       0       0       0       0       0       0       0       0       0       0
       0       0       0       0       0       0       0       0       0       0
       0       0       0       0       0       0       0       0       0       0
       0       0       0       0       0       0       0       0       0       0
       0       0       0       0       0       0       0       0       0       0
       0       0       0       0       0       0       0       0       0       0
       0       0       0       0       0       0       0       0       0       0
       0       0       0       0       0       0       0       0       0       0
       0       0       0       0       0       0       0       0       0       0
       0       0       0       0       0       0       0       0       0       0
       0       0       0       0       0       0       0       0       0       0
       0       0       0       0       0       0       0       0       0       0
       0       0       0       0       0       0       0       0       0       0
       0       0       0       0       0       0       0       0       0       0
       0       0       0       0       0       0       0       0       0       0
       0       0       0       0       0       0       0       0       0       0
       0       0       0       0       0       0       0       0       0       0
       0       0       0       0       0       0       0       0       0       0
       0       0       0       0       0       0       0       0       0       0
       0       0       0       0       0       0       0       0       0       0
       0       0       0       0       0       0       0       0       0       0
       0       0       0       0       0       0       0       0       0       0
       0       0       0       0       0       0       0       0       0       0
       0       0       0       0       0       0       0       0       0       0
       0       0       0       0       0       0       0       0       0       0
       0       0       0       0       0       0       0       0       0       0
       0       0       0       0       0       0       0       0       0       0
       0       0       0       0       0       0       0       0       0       0
       0       0       0       0       0       0       0       0       0       0
       0       0       0       0       0       0       0       0       0       0
       0       0       0       0       0       0       0       0       0       0
       0       0       0       0       0       0       0       0       0       0
       0       0       0       0       0       0       0       0       0       0
       0       0       0       0       0       0       0       0       0       0
       0       0       0       0       0       0       0       0       0       0
       0       0       0       0       0       0       0       0       0       0
       0       0       0       0       0       0       0       0       0       0
       0       0       0       0       0       0       0       0       0       0
       0       0       0       0       0       0       0       0       0       0
       0       0       0       0       0       0       0       0       0       0
       0       0       0       0       0       0       0       0       0       0
       0       0       0       0       0       0       0       0       0       0
       0       0       0       0       0       0       0       0       0       0
       0       0       0       0       0       0       0       0       0       0
       0       0       0       0       0       0       0       0       0       0
       0       0       0       0       0       0       0       0       0       0
       0       0       0       0       0       0       0       0       0       0
       0       0       0       0       0       0       0       0       0       0
       0       0       0       0       0       0       0       0       0       0
       0       0       0       0       0       0       0       0       0       0
       0       0       0       0       0       0       0       0       0       0
       0       0       0       0       0       0       0       0       0       0
       0       0       0       0       0       0       0       0       0       0
       0       0       0       0       0       0       0       0       0       0
       0       0       0       0       0       0       0       0       0       0
       0       0       0       0       0       0       0       0       0       0
       0       0       0       0       0       0       0       0       0       0
       0       0       0       0       0       0       0       0       0       0
       0       0       0       0       0       0       0       0       0       0
       0       0       0       0       0       0       0       0       0       0
       0       0       0       0       0       0       0       0       0       0
       0       0       0       0       0       0       0       0       0       0
       0       0       0       0       0       0       0       0       0       0
       0       0       0       0       0       0       0       0       0       0
       0       0       0       0       0       0       0       0       0       0
       0       0       0       0       0       0       0       0       0       0
       0       0       0       0       0       0       0       0       0       0
       0       0       0       0       0       0       0       0       0       0
       0       0       0       0       0       0       0       0       0       0
       0       0       0       0       0       0       0       0       0       0
       0       0       0       0       0       0       0       0       0       0
       0       0       0       0       0       0       0       0       0       0
       0       0       0       0       0       0       0       0       0       0
       0       0       0       0       0       0       0       0       0       0
       0       0       0       0       0       0       0       0       0       0
       0       0       0       0       0       0       0       0       0       0
       0       0       0       0       0       0       0       0       0       0
       0       0       0       0       0       0       0       0       0       0
       0       0       0       0       0       0       0       0       0       0
       0       0       0       0       0       0       0       0       0       0
       0       0       0       0       0       0       0       0       0       0
       0       0       0       0       0       0       0       0       0       0
       0       0       0       0       0       0       0       0       0       0
       0       0       0       0       0       0       0       0       0       0
       0       0       0       0       0       0       0       0       0       0
       0       0       0       0       0       0       0       0       0       0
       0       0       0       0       0       0       0       0       0       0
       0       0       0       0       0       0       0       0       0       0
       0       0       0       0       0       0       0       0       0       0
       0       0       0       0       0       0       0       0       0       0
       0       0       0       0       0       0       0       0       0       0
       0       0       0       0       0       0       0       0       0       0
       0       0       0       0       0       0       0       0       0       0
       0       0       0       0       0       0       0       0       0       0
       0       0       0       0       0       0       0       0       0       0
       0       0       0       0       0       0       0       0       0       0
       0       0       0       0       0       0       0       0       0       0
       0       0       0       0       0       0       0       0       0       0
       0       0       0       0       0       0       0       0       0       0
       0       0       0       0       0       0       0       0       0       0
       0       0       0       0       0       0       0       0       0       0
       0       0       0       0       0       0       0       0       0       0
       0       0       0       0       0       0       0       0       0       0
       0       0       0       0       0       0       0       0       0       0
       0       0       0       0       0       0       0       0       0       0
       0       0       0       0       0       0       0       0       0       0
       0       0       0       0       0       0       0       0       0       0
       0       0       0       0       0       0       0       0       0       0
       0       0       0       0       0       0       0       0       0       0
       0       0       0       0       0       0       0       0       0       0
       0       0       0       0       0       0       0       0       0       0
       0       0       0       0       0       0       0       0       0       0
       0       0       0       0       0       0       0       0       0       0
       0       0       0       0       0       0       0       0       0       0
       0       0       0       0       0       0       0       0       0       0
       0       0       0       0       0       0       0       0       0       0
       0       0       0       0       0       0       0       0       0       0
       0       0       0       0       0       0       0       0       0       0
       0       0       0       0       0       0       0       0       0       0
       0       0       0       0       0       0       0       0       0       0
       0       0       0       0       0       0       0       0       0       0
       0       0       0       0       0       0       0       0       0       0
       0       0       0       0       0       0       0       0       0       0
       0       0       0       0       0       0       0       0       0       0
       0       0       0       0       0       0       0       0       0       0
       0       0       0       0       0       0       0       0       0       0
       0       0       0       0       0       0       0       0       0       0
       0       0       0       0       0       0       0       0       0       0
       0       0       0       0       0       0       0       0       0       0
       0       0       0       0       0       0       0       0       0       0
       0       0       0       0       0       0       0       0       0       0
       0       0       0       0       0       0       0       0       0       0
       0       0       0       0       0       0       0       0       0       0
       0       0       0       0       0       0       0       0       0       0
       0       0       0       0       0       0       0       0       0       0
       0       0       0       0       0       0       0       0       0       0
       0       0       0       0       0       0       0       0       0       0
       0       0       0       0       0       0       0       0       0       0
       0       0       0       0       0       0       0       0       0       0
       0       0       0       0       0       0       0       0       0       0
       0       0       0       0       0       0       0       0       0       0
       0       0       0       0       0       0       0       0       0       0
       0       0       0       0       0       0       0       0       0       0
       0       0       0       0       0       0       0       0       0       0
       0       0       0       0       0       0       0       0       0       0
       0       0       0       0       0       0       0       0       0       0
       0       0       0       0       0       0       0       0       0       0
       0       0       0       0       0       0       0       0       0       0
       0       0       0       0       0       0       0       0       0       0
       0       0       0       0       0       0       0       0       0       0
       0       0       0       0       0       0       0       0       0       0
       0       0       0       0       0       0       0       0       0       0
       0       0       0       0       0       0       0       0       0       0
       0       0       0       0       0       0       0       0       0       0
       0       0       0       0       0       0       0       0       0       0
       0       0       0       0       0       0       0       0       0       0
       0       0       0       0       0       0       0       0       0       0
       0       0       0       0       0       0       0       0       0       0
       0       0       0       0       0       0       0       0       0       0
       0       0       0       0       0       0       0       0       0       0
       0       0       0       0       0       0       0       0       0       0
       0       0       0       0       0       0       0       0       0       0
       0       0       0       0       0       0       0       0       0       0
       0       0       0       0       0       0       0       0       0       0
       0       0       0       0       0       0       0       0       0       0
       0       0       0       0       0       0       0       0       0       0
       0       0       0       0       0       0       0       0       0       0
       0       0       0       0       0       0       0       0       0       0
       0       0       0       0       0       0       0       0       0       0
       0       0       0       0       0       0       0       0       0       0
       0       0       0       0       0       0       0       0       0       0
       0       0       0       0       0       0       0       0       0       0
       0       0       0       0       0       0       0       0       0       0
       0       0       0       0       0       0       0       0       0       0
       0       0       0       0       0       0       0       0       0       0
       0       0       0       0       0       0       0       0       0       0
       0       0       0       0       0       0       0       0       0       0
       0       0       0       0       0       0       0       0       0       0
       0       0       0       0       0       0       0       0       0       0
       0       0       0       0       0       0       0       0       0       0
       0       0       0       0       0       0       0       0       0       0
       0       0       0       0       0       0       0       0       0       0
       0       0       0       0       0       0       0       0       0       0
       0       0       0       0       0       0       0       0       0       0
       0       0       0       0       0       0       0       0       0       0
       0       0       0       0       0       0       0       0       0       0
       0       0       0       0       0       0       0       0       0       0
       0       0       0       0       0       0       0       0       0       0
       0       0       0       0       0       0       0       0       0       0
       0       0       0       0       0       0       0       0       0       0
       0       0       0       0       0       0       0       0       0       0
       0       0       0       0       0       0       0       0       0       0
       0       0       0       0       0       0       0       0       0       0
       0       0       0       0       0       0       0       0       0       0
       0       0       0       0       0       0       0       0       0       0
       0       0       0       0       0       0       0       0       0       0
       0       0       0       0       0       0       0       0       0       0
       0       0       0       0       0       0       0       0       0       0
       0       0       0       0       0       0       0       0       0       0
       0       0       0       0       0       0       0       0       0       0
       0       0       0       0       0       0       0       0       0       0
       0       0       0       0       0       0       0       0       0       0
       0       0       0       0       0       0       0       0       0       0
       0       0       0       0       0       0       0       0       0       0
       0       0       0       0       0       0       0       0       0       0
       0       0       0       0       0       0       0       0       0       0
       0       0       0       0       0       0       0       0       0       0
       0       0       0       0       0       0       0       0       0       0
       0       0       0       0       0       0       0       0       0       0
       0       0       0       0       0       0       0       0       0       0
       0       0       0       0       0       0       0       0       0       0
       0       0       0       0       0       0       0       0       0       0
       0       0       0       0       0       0       0       0       0       0
       0       0       0       0       0       0       0       0       0       0
       0       0       0       0       0       0       0       0       0       0
       0       0       0       0       0       0       0       0       0       0
       0       0       0       0       0       0       0       0       0       0
       0       0       0       0       0       0       0       0       0       0
       0       0       0       0       0       0       0       0       0       0
       0       0       0       0       0       0       0       0       0       0
       0       0       0       0       0       0       0       0       0       0
       0       0       0       0       0       0       0       0       0       0
       0       0       0       0       0       0       0       0       0       0
       0       0       0       0       0       0       0       0       0       0
       0       0       0       0       0       0       0       0       0       0
       0       0       0       0       0       0       0       0       0       0
       0       0       0       0       0       0       0       0       0       0
       0       0       0       0       0       0       0       0       0       0
       0       0       0       0       0       0       0       0       0       0
       0       0       0       0       0       0       0       0       0       0
       0       0       0       0       0       0       0       0       0       0
       0       0       0       0       0       0       0       0       0       0
       0       0       0       0       0       0       0       0       0       0
       0       0       0       0       0       0       0       0       0       0
       0       0       0       0       0       0       0       0       0       0
       0       0       0       0       0       0       0       0       0       0
       0       0       0       0       0       0       0       0       0       0
       0       0       0       0       0       0       0       0       0       0
       0       0       0       0       0       0       0       0       0       0
       0       0       0       0       0       0       0       0       0       0
       0       0       0       0       0       0       0       0       0       0
       0       0       0       0       0       0       0       0       0       0
       0       0       0       0       0       0       0       0       0       0
       0       0       0       0       0       0       0       0       0       0
       0       0       0       0       0       0       0       0       0       0
       0       0       0       0       0       0       0       0       0       0
       0       0       0       0       0       0       0       0       0       0
       0       0       0       0       0       0       0       0       0       0
       0       0       0       0       0       0       0       0       0       0
       0       0       0       0       0       0       0       0       0       0
       0       0       0       0       0       0       0       0       0       0
       0       0       0       0       0       0       0       0       0       0
       0       0       0       0       0       0       0       0       0       0
       0       0       0       0       0       0       0       0       0       0
       0       0       0       0       0       0       0       0       0       0
       0       0       0       0       0       0       0       0       0       0
       0       0       0       0       0       0       0       0       0       0
       0       0       0       0       0       0       0       0       0       0
       0       0       0       0       0       0       0       0       0       0
       0       0       0       0       0       0       0       0       0       0
       0       0       0       0       0       0       0       0       0       0
       0       0       0       0       0       0       0       0       0       0
       0       0       0       0       0       0       0       0       0       0
       0       0       0       0       0       0       0       0       0       0
       0       0       0       0       0       0       0       0       0       0
       0       0       0       0       0       0       0       0       0       0
       0       0       0       0       0       0       0       0       0       0
       0       0       0       0       0       0       0       0       0       0
       0       0       0       0       0       0       0       0       0       0
       0       0       0       0       0       0       0       0       0       0
       0       0       0       0       0       0       0       0       0       0
       0       0       0       0       0       0       0       0       0       0
       0       0       0       0       0       0       0       0       0       0
       0       0       0       0       0       0       0       0       0       0
       0       0       0       0       0       0       0       0       0       0
       0       0       0       0       0       0       0       0       0       0
       0       0       0       0       0       0       0       0       0       0
       0       0       0       0       0       0       0       0       0       0
       0       0       0       0       0       0       0       0       0       0
       0       0       0       0       0       0       0       0       0       0
       0       0       0       0       0       0       0       0       0       0
       0       0       0       0       0       0       0       0       0       0
       0       0       0       0       0       0       0       0       0       0
       0       0       0       0       0       0       0       0       0       0
       0       0       0       0       0       0       0       0       0       0
       0       0       0       0       0       0       0       0       0       0
       0       0       0       0       0       0       0       0       0       0
       0       0       0       0       0       0       0       0       0       0
       0       0       0       0       0       0       0       0       0       0
       0       0       0       0       0       0       0       0       0       0
       0       0       0       0       0       0       0       0       0       0
       0       0       0       0       0       0       0       0       0       0
       0       0       0       0       0       0       0       0       0       0
       0       0       0       0       0       0       0       0       0       0
       0       0       0       0       0       0       0       0       0       0
       0       0       0       0       0       0       0       0       0       0
       0       0       0       0       0       0       0       0       0       0
       0       0       0       0       0       0       0       0       0       0
       0       0       0       0       0
%FLAG SOLVENT_POINTERS                                                          
%FORMAT(3I8)                                                                    
      49   24210       6
%FLAG ATOMS_PER_MOLECULE                                                        
%FORMAT(10I8)                                                                   
      26     556     556     556     556       3       3       3       3       3
       3       3       3       3       3       3       3       3       3       3
       3       3       3       3       3       3       3       3       3       3
       3       3       3       3       3       3       3       3       3       3
       3       3       3       3       3       3       3       3       3       3
       3       3       3       3       3       3       3       3       3       3
       3       3       3       3       3       3       3       3       3       3
       3       3       3       3       3       3       3       3       3       3
       3       3       3       3       3       3       3       3       3       3
       3       3       3       3       3       3       3       3       3       3
       3       3       3       3       3       3       3       3       3       3
       3       3       3       3       3       3       3       3       3       3
       3       3       3       3       3       3       3       3       3       3
       3       3       3       3       3       3       3       3       3       3
       3       3       3       3       3       3       3       3       3       3
       3       3       3       3       3       3       3       3       3       3
       3       3       3       3       3       3       3       3       3       3
       3       3       3       3       3       3       3       3       3       3
       3       3       3       3       3       3       3       3       3       3
       3       3       3       3       3       3       3       3       3       3
       3       3       3       3       3       3       3       3       3       3
       3       3       3       3       3       3       3       3       3       3
       3       3       3       3       3       3       3       3       3       3
       3       3       3       3       3       3       3       3       3       3
       3       3       3       3       3       3       3       3       3       3
       3       3       3       3       3       3       3       3       3       3
       3       3       3       3       3       3       3       3       3       3
       3       3       3       3       3       3       3       3       3       3
       3       3       3       3       3       3       3       3       3       3
       3       3       3       3       3       3       3       3       3       3
       3       3       3       3       3       3       3       3       3       3
       3       3       3       3       3       3       3       3       3       3
       3       3       3       3       3       3       3       3       3       3
       3       3       3       3       3       3       3       3       3       3
       3       3       3       3       3       3       3       3       3       3
       3       3       3       3       3       3       3       3       3       3
       3       3       3       3       3       3       3       3       3       3
       3       3       3       3       3       3       3       3       3       3
       3       3       3       3       3       3       3       3       3       3
       3       3       3       3       3       3       3       3       3       3
       3       3       3       3       3       3       3       3       3       3
       3       3       3       3       3       3       3       3       3       3
       3       3       3       3       3       3       3       3       3       3
       3       3       3       3       3       3       3       3       3       3
       3       3       3       3       3       3       3       3       3       3
       3       3       3       3       3       3       3       3       3       3
       3       3       3       3       3       3       3       3       3       3
       3       3       3       3       3       3       3       3       3       3
       3       3       3       3       3       3       3       3       3       3
       3       3       3       3       3       3       3       3       3       3
       3       3       3       3       3       3       3       3       3       3
       3       3       3       3       3       3       3       3       3       3
       3       3       3       3       3       3       3       3       3       3
       3       3       3       3       3       3       3       3       3       3
       3       3       3       3       3       3       3       3       3       3
       3       3       3       3       3       3       3       3       3       3
       3       3       3       3       3       3       3       3       3       3
       3       3       3       3       3       3       3       3       3       3
       3       3       3       3       3       3       3       3       3       3
       3       3       3       3       3       3       3       3       3       3
       3       3       3       3       3       3       3       3       3       3
       3       3       3       3       3       3       3       3       3       3
       3       3       3       3       3       3       3       3       3       3
       3       3       3       3       3       3       3       3       3       3
       3       3       3       3       3       3       3       3       3       3
       3       3       3       3       3       3       3       3       3       3
       3       3       3       3       3       3       3       3       3       3
       3       3       3       3       3       3       3       3       3       3
       3       3       3       3       3       3       3       3       3       3
       3       3       3       3       3       3       3       3       3       3
       3       3       3       3       3       3       3       3       3       3
       3       3       3       3       3       3       3       3       3       3
       3       3       3       3       3       3       3       3       3       3
       3       3       3       3       3       3       3       3       3       3
       3       3       3       3       3       3       3       3       3       3
       3       3       3       3       3       3       3       3       3       3
       3       3       3       3       3       3       3       3       3       3
       3       3       3       3       3       3       3       3       3       3
       3       3       3       3       3       3       3       3       3       3
       3       3       3       3       3       3       3       3       3       3
       3       3       3       3       3       3       3       3       3       3
       3       3       3       3       3       3       3       3       3       3
       3       3       3       3       3       3       3       3       3       3
       3       3       3       3       3       3       3       3       3       3
       3       3       3       3       3       3       3       3       3       3
       3       3       3       3       3       3       3       3       3       3
       3       3       3       3       3       3       3       3       3       3
       3       3       3       3       3       3       3       3       3       3
       3       3       3       3       3       3       3       3       3       3
       3       3       3       3       3       3       3       3       3       3
       3       3       3       3       3       3       3       3       3       3
       3       3       3       3       3       3       3       3       3       3
       3       3       3       3       3       3       3       3       3       3
       3       3       3       3       3       3       3       3       3       3
       3       3       3       3       3       3       3       3       3       3
       3       3       3       3       3       3       3       3       3       3
       3       3       3       3       3       3       3       3       3       3
       3       3       3       3       3       3       3       3       3       3
       3       3       3       3       3       3       3       3       3       3
       3       3       3       3       3       3       3       3       3       3
       3       3       3       3       3       3       3       3       3       3
       3       3       3       3       3       3       3       3       3       3
       3       3       3       3       3       3       3       3       3       3
       3       3       3       3       3       3       3       3       3       3
       3       3       3       3       3       3       3       3       3       3
       3       3       3       3       3       3       3       3       3       3
       3       3       3       3       3       3       3       3       3       3
       3       3       3       3       3       3       3       3       3       3
       3       3       3       3       3       3       3       3       3       3
       3       3       3       3       3       3       3       3       3       3
       3       3       3       3       3       3       3       3       3       3
       3       3       3       3       3       3       3       3       3       3
       3       3       3       3       3       3       3       3       3       3
       3       3       3       3       3       3       3       3       3       3
       3       3       3       3       3       3       3       3       3       3
       3       3       3       3       3       3       3       3       3       3
       3       3       3       3       3       3       3       3       3       3
       3       3       3       3       3       3       3       3       3       3
       3       3       3       3       3       3       3       3       3       3
       3       3       3       3       3       3       3       3       3       3
       3       3       3       3       3       3       3       3       3       3
       3       3       3       3       3       3       3       3       3       3
       3       3       3       3       3       3       3       3       3       3
       3       3       3       3       3       3       3       3       3       3
       3       3       3       3       3       3       3       3       3       3
       3       3       3       3       3       3       3       3       3       3
       3       3       3       3       3       3       3       3       3       3
       3       3       3       3       3       3       3       3       3       3
       3       3       3       3       3       3       3       3       3       3
       3       3       3       3       3       3       3       3       3       3
       3       3       3       3       3       3       3       3       3       3
       3       3       3       3       3       3       3       3       3       3
       3       3       3       3       3       3       3       3       3       3
       3       3       3       3       3       3       3       3       3       3
       3       3       3       3       3       3       3       3       3       3
       3       3       3       3       3       3       3       3       3       3
       3       3       3       3       3       3       3       3       3       3
       3       3       3       3       3       3       3       3       3       3
       3       3       3       3       3       3       3       3       3       3
       3       3       3       3       3       3       3       3       3       3
       3       3       3       3       3       3       3       3       3       3
       3       3       3       3       3       3       3       3       3       3
       3       3       3       3       3       3       3       3       3       3
       3       3       3       3       3       3       3       3       3       3
       3       3       3       3       3       3       3       3       3       3
       3       3       3       3       3       3       3       3       3       3
       3       3       3       3       3       3       3       3       3       3
       3       3       3       3       3       3       3       3       3       3
       3       3       3       3       3       3       3       3       3       3
       3       3       3       3       3       3       3       3       3       3
       3       3       3       3       3       3       3       3       3       3
       3       3       3       3       3       3       3       3       3       3
       3       3       3       3       3       3       3       3       3       3
       3       3       3       3       3       3       3       3       3       3
       3       3       3       3       3       3       3       3       3       3
       3       3       3       3       3       3       3       3       3       3
       3       3       3       3       3       3       3       3       3       3
       3       3       3       3       3       3       3       3       3       3
       3       3       3       3       3       3       3       3       3       3
       3       3       3       3       3       3       3       3       3       3
       3       3       3       3       3       3       3       3       3       3
       3       3       3       3       3       3       3       3       3       3
       3       3       3       3       3       3       3       3       3       3
       3       3       3       3       3       3       3       3       3       3
       3       3       3       3       3       3       3       3       3       3
       3       3       3       3       3       3       3       3       3       3
       3       3       3       3       3       3       3       3       3       3
       3       3       3       3       3       3       3       3       3       3
       3       3       3       3       3       3       3       3       3       3
       3       3       3       3       3       3       3       3       3       3
       3       3       3       3       3       3       3       3       3       3
       3       3       3       3       3       3       3       3       3       3
       3       3       3       3       3       3       3       3       3       3
       3       3       3       3       3       3       3       3       3       3
       3       3       3       3       3       3       3       3       3       3
       3       3       3       3       3       3       3       3       3       3
       3       3       3       3       3       3       3       3       3       3
       3       3       3       3       3       3       3       3       3       3
       3       3       3       3       3       3       3       3       3       3
       3       3       3       3       3       3       3       3       3       3
       3       3       3       3       3       3       3       3       3       3
       3       3       3       3       3       3       3       3       3       3
       3       3       3       3       3       3       3       3       3       3
       3       3       3       3       3       3       3       3       3       3
       3       3       3       3       3       3       3       3       3       3
       3       3       3       3       3       3       3       3       3       3
       3       3       3       3       3       3       3       3       3       3
       3       3       3       3       3       3       3       3       3       3
       3       3       3       3       3       3       3       3       3       3
       3       3       3       3       3       3       3       3       3       3
       3       3       3       3       3       3       3       3       3       3
       3       3       3       3       3       3       3       3       3       3
       3       3       3       3       3       3       3       3       3       3
       3       3       3       3       3       3       3       3       3       3
       3       3       3       3       3       3       3       3       3       3
       3       3       3       3       3       3       3       3       3       3
       3       3       3       3       3       3       3       3       3       3
       3       3       3       3       3       3       3       3       3       3
       3       3       3       3       3       3       3       3       3       3
       3       3       3       3       3       3       3       3       3       3
       3       3       3       3       3       3       3       3       3       3
       3       3       3       3       3       3       3       3       3       3
       3       3       3       3       3       3       3       3       3       3
       3       3       3       3       3       3       3       3       3       3
       3       3       3       3       3       3       3       3       3       3
       3       3       3       3       3       3       3       3       3       3
       3       3       3       3       3       3       3       3       3       3
       3       3       3       3       3       3       3       3       3       3
       3       3       3       3       3       3       3       3       3       3
       3       3       3       3       3       3       3       3       3       3
       3       3       3       3       3       3       3       3       3       3
       3       3       3       3       3       3       3       3       3       3
       3       3       3       3       3       3       3       3       3       3
       3       3       3       3       3       3       3       3       3       3
       3       3       3       3       3       3       3       3       3       3
       3       3       3       3       3       3       3       3       3       3
       3       3       3       3       3       3       3       3       3       3
       3       3       3       3       3       3       3       3       3       3
       3       3       3       3       3       3       3       3       3       3
       3       3       3       3       3       3       3       3       3       3
       3       3       3       3       3       3       3       3       3       3
       3       3       3       3       3       3       3       3       3       3
       3       3       3       3       3       3       3       3       3       3
       3       3       3       3       3       3       3       3       3       3
       3       3       3       3       3       3       3       3       3       3
       3       3       3       3       3       3       3       3       3       3
       3       3       3       3       3       3       3       3       3       3
       3       3       3       3       3       3       3       3       3       3
       3       3       3       3       3       3       3       3       3       3
       3       3       3       3       3       3       3       3       3       3
       3       3       3       3       3       3       3       3       3       3
       3       3       3       3       3       3       3       3       3       3
       3       3       3       3       3       3       3       3       3       3
       3       3       3       3       3       3       3       3       3       3
       3       3       3       3       3       3       3       3       3       3
       3       3       3       3       3       3       3       3       3       3
       3       3       3       3       3       3       3       3       3       3
       3       3       3       3       3       3       3       3       3       3
       3       3       3       3       3       3       3       3       3       3
       3       3       3       3       3       3       3       3       3       3
       3       3       3       3       3       3       3       3       3       3
       3       3       3       3       3       3       3       3       3       3
       3       3       3       3       3       3       3       3       3       3
       3       3       3       3       3       3       3       3       3       3
       3       3       3       3       3       3       3       3       3       3
       3       3       3       3       3       3       3       3       3       3
       3       3       3       3       3       3       3       3       3       3
       3       3       3       3       3       3       3       3       3       3
       3       3       3       3       3       3       3       3       3       3
       3       3       3       3       3       3       3       3       3       3
       3       3       3       3       3       3       3       3       3       3
       3       3       3       3       3       3       3       3       3       3
       3       3       3       3       3       3       3       3       3       3
       3       3       3       3       3       3       3       3       3       3
       3       3       3       3       3       3       3       3       3       3
       3       3       3       3       3       3       3       3       3       3
       3       3       3       3       3       3       3       3       3       3
       3       3       3       3       3       3       3       3       3       3
       3       3       3       3       3       3       3       3       3       3
       3       3       3       3       3       3       3       3       3       3
       3       3       3       3       3       3       3       3       3       3
       3       3       3       3       3       3       3       3       3       3
       3       3       3       3       3       3       3       3       3       3
       3       3       3       3       3       3       3       3       3       3
       3       3       3       3       3       3       3       3       3       3
       3       3       3       3       3       3       3       3       3       3
       3       3       3       3       3       3       3       3       3       3
       3       3       3       3       3       3       3       3       3       3
       3       3       3       3       3       3       3       3       3       3
       3       3       3       3       3       3       3       3       3       3
       3       3       3       3       3       3       3       3       3       3
       3       3       3       3       3       3       3       3       3       3
       3       3       3       3       3       3       3       3       3       3
       3       3       3       3       3       3       3       3       3       3
       3       3       3       3       3       3       3       3       3       3
       3       3       3       3       3       3       3       3       3       3
       3       3       3       3       3       3       3       3       3       3
       3       3       3       3       3       3       3       3       3       3
       3       3       3       3       3       3       3       3       3       3
       3       3       3       3       3       3       3       3       3       3
       3       3       3       3       3       3       3       3       3       3
       3       3       3       3       3       3       3       3       3       3
       3       3       3       3       3       3       3       3       3       3
       3       3       3       3       3       3       3       3       3       3
       3       3       3       3       3       3       3       3       3       3
       3       3       3       3       3       3       3       3       3       3
       3       3       3       3       3       3       3       3       3       3
       3       3       3       3       3       3       3       3       3       3
       3       3       3       3       3       3       3       3       3       3
       3       3       3       3       3       3       3       3       3       3
       3       3       3       3       3       3       3       3       3       3
       3       3       3       3       3       3       3       3       3       3
       3       3       3       3       3       3       3       3       3       3
       3       3       3       3       3       3       3       3       3       3
       3       3       3       3       3       3       3       3       3       3
       3       3       3       3       3       3       3       3       3       3
       3       3       3       3       3       3       3       3       3       3
       3       3       3       3       3       3       3       3       3       3
       3       3       3       3       3       3       3       3       3       3
       3       3       3       3       3       3       3       3       3       3
       3       3       3       3       3       3       3       3       3       3
       3       3       3       3       3       3       3       3       3       3
       3       3       3       3       3       3       3       3       3       3
       3       3       3       3       3       3       3       3       3       3
       3       3       3       3       3       3       3       3       3       3
       3       3       3       3       3       3       3       3       3       3
       3       3       3       3       3       3       3       3       3       3
       3       3       3       3       3       3       3       3       3       3
       3       3       3       3       3       3       3       3       3       3
       3       3       3       3       3       3       3       3       3       3
       3       3       3       3       3       3       3       3       3       3
       3       3       3       3       3       3       3       3       3       3
       3       3       3       3       3       3       3       3       3       3
       3       3       3       3       3       3       3       3       3       3
       3       3       3       3       3       3       3       3       3       3
       3       3       3       3       3       3       3       3       3       3
       3       3       3       3       3       3       3       3       3       3
       3       3       3       3       3       3       3       3       3       3
       3       3       3       3       3       3       3       3       3       3
       3       3       3       3       3       3       3       3       3       3
       3       3       3       3       3       3       3       3       3       3
       3       3       3       3       3       3       3       3       3       3
       3       3       3       3       3       3       3       3       3       3
       3       3       3       3       3       3       3       3       3       3
       3       3       3       3       3       3       3       3       3       3
       3       3       3       3       3       3       3       3       3       3
       3       3       3       3       3       3       3       3       3       3
       3       3       3       3       3       3       3       3       3       3
       3       3       3       3       3       3       3       3       3       3
       3       3       3       3       3       3       3       3       3       3
       3       3       3       3       3       3       3       3       3       3
       3       3       3       3       3       3       3       3       3       3
       3       3       3       3       3       3       3       3       3       3
       3       3       3       3       3       3       3       3       3       3
       3       3       3       3       3       3       3       3       3       3
       3       3       3       3       3       3       3       3       3       3
       3       3       3       3       3       3       3       3       3       3
       3       3       3       3       3       3       3       3       3       3
       3       3       3       3       3       3       3       3       3       3
       3       3       3       3       3       3       3       3       3       3
       3       3       3       3       3       3       3       3       3       3
       3       3       3       3       3       3       3       3       3       3
       3       3       3       3       3       3       3       3       3       3
       3       3       3       3       3       3       3       3       3       3
       3       3       3       3       3       3       3       3       3       3
       3       3       3       3       3       3       3       3       3       3
       3       3       3       3       3       3       3       3       3       3
       3       3       3       3       3       3       3       3       3       3
       3       3       3       3       3       3       3       3       3       3
       3       3       3       3       3       3       3       3       3       3
       3       3       3       3       3       3       3       3       3       3
       3       3       3       3       3       3       3       3       3       3
       3       3       3       3       3       3       3       3       3       3
       3       3       3       3       3       3       3       3       3       3
       3       3       3       3       3       3       3       3       3       3
       3       3       3       3       3       3       3       3       3       3
       3       3       3       3       3       3       3       3       3       3
       3       3       3       3       3       3       3       3       3       3
       3       3       3       3       3       3       3       3       3       3
       3       3       3       3       3       3       3       3       3       3
       3       3       3       3       3       3       3       3       3       3
       3       3       3       3       3       3       3       3       3       3
       3       3       3       3       3       3       3       3       3       3
       3       3       3       3       3       3       3       3       3       3
       3       3       3       3       3       3       3       3       3       3
       3       3       3       3       3       3       3       3       3       3
       3       3       3       3       3       3       3       3       3       3
       3       3       3       3       3       3       3       3       3       3
       3       3       3       3       3       3       3       3       3       3
       3       3       3       3       3       3       3       3       3       3
       3       3       3       3       3       3       3       3       3       3
       3       3       3       3       3       3       3       3       3       3
       3       3       3       3       3       3       3       3       3       3
       3       3       3       3       3       3       3       3       3       3
       3       3       3       3       3       3       3       3       3       3
       3       3       3       3       3       3       3       3       3       3
       3       3       3       3       3       3       3       3       3       3
       3       3       3       3       3       3       3       3       3       3
       3       3       3       3       3       3       3       3       3       3
       3       3       3       3       3       3       3       3       3       3
       3       3       3       3       3       3       3       3       3       3
       3       3       3       3       3       3       3       3       3       3
       3       3       3       3       3       3       3       3       3       3
       3       3       3       3       3       3       3       3       3       3
       3       3       3       3       3       3       3       3       3       3
       3       3       3       3       3       3       3       3       3       3
       3       3       3       3       3       3       3       3       3       3
       3       3       3       3       3       3       3       3       3       3
       3       3       3       3       3       3       3       3       3       3
       3       3       3       3       3       3       3       3       3       3
       3       3       3       3       3       3       3       3       3       3
       3       3       3       3       3       3       3       3       3       3
       3       3       3       3       3       3       3       3       3       3
       3       3       3       3       3       3       3       3       3       3
       3       3       3       3       3       3       3       3       3       3
       3       3       3       3       3       3       3       3       3       3
       3       3       3       3       3       3       3       3       3       3
       3       3       3       3       3       3       3       3       3       3
       3       3       3       3       3       3       3       3       3       3
       3       3       3       3       3       3       3       3       3       3
       3       3       3       3       3       3       3       3       3       3
       3       3       3       3       3       3       3       3       3       3
       3       3       3       3       3       3       3       3       3       3
       3       3       3       3       3       3       3       3       3       3
       3       3       3       3       3       3       3       3       3       3
       3       3       3       3       3       3       3       3       3       3
       3       3       3       3       3       3       3       3       3       3
       3       3       3       3       3       3       3       3       3       3
       3       3       3       3       3       3       3       3       3       3
       3       3       3       3       3       3       3       3       3       3
       3       3       3       3       3       3       3       3       3       3
       3       3       3       3       3       3       3       3       3       3
       3       3       3       3       3       3       3       3       3       3
       3       3       3       3       3       3       3       3       3       3
       3       3       3       3       3       3       3       3       3       3
       3       3       3       3       3       3       3       3       3       3
       3       3       3       3       3       3       3       3       3       3
       3       3       3       3       3       3       3       3       3       3
       3       3       3       3       3       3       3       3       3       3
       3       3       3       3       3       3       3       3       3       3
       3       3       3       3       3       3       3       3       3       3
       3       3       3       3       3       3       3       3       3       3
       3       3       3       3       3       3       3       3       3       3
       3       3       3       3       3       3       3       3       3       3
       3       3       3       3       3       3       3       3       3       3
       3       3       3       3       3       3       3       3       3       3
       3       3       3       3       3       3       3       3       3       3
       3       3       3       3       3       3       3       3       3       3
       3       3       3       3       3       3       3       3       3       3
       3       3       3       3       3       3       3       3       3       3
       3       3       3       3       3       3       3       3       3       3
       3       3       3       3       3       3       3       3       3       3
       3       3       3       3       3       3       3       3       3       3
       3       3       3       3       3       3       3       3       3       3
       3       3       3       3       3       3       3       3       3       3
       3       3       3       3       3       3       3       3       3       3
       3       3       3       3       3       3       3       3       3       3
       3       3       3       3       3       3       3       3       3       3
       3       3       3       3       3       3       3       3       3       3
       3       3       3       3       3       3       3       3       3       3
       3       3       3       3       3       3       3       3       3       3
       3       3       3       3       3       3       3       3       3       3
       3       3       3       3       3       3       3       3       3       3
       3       3       3       3       3       3       3       3       3       3
       3       3       3       3       3       3       3       3       3       3
       3       3       3       3       3       3       3       3       3       3
       3       3       3       3       3       3       3       3       3       3
       3       3       3       3       3       3       3       3       3       3
       3       3       3       3       3       3       3       3       3       3
       3       3       3       3       3       3       3       3       3       3
       3       3       3       3       3       3       3       3       3       3
       3       3       3       3       3       3       3       3       3       3
       3       3       3       3       3       3       3       3       3       3
       3       3       3       3       3       3       3       3       3       3
       3       3       3       3       3       3       3       3       3       3
       3       3       3       3       3       3       3       3       3       3
       3       3       3       3       3       3       3       3       3       3
       3       3       3       3       3       3       3       3       3       3
       3       3       3       3       3       3       3       3       3       3
       3       3       3       3       3       3       3       3       3       3
       3       3       3       3       3       3       3       3       3       3
       3       3       3       3       3       3       3       3       3       3
       3       3       3       3       3       3       3       3       3       3
       3       3       3       3       3       3       3       3       3       3
       3       3       3       3       3       3       3       3       3       3
       3       3       3       3       3       3       3       3       3       3
       3       3       3       3       3       3       3       3       3       3
       3       3       3       3       3       3       3       3       3       3
       3       3       3       3       3       3       3       3       3       3
       3       3       3       3       3       3       3       3       3       3
       3       3       3       3       3       3       3       3       3       3
       3       3       3       3       3       3       3       3       3       3
       3       3       3       3       3       3       3       3       3       3
       3       3       3       3       3       3       3       3       3       3
       3       3       3       3       3       3       3       3       3       3
       3       3       3       3       3       3       3       3       3       3
       3       3       3       3       3       3       3       3       3       3
       3       3       3       3       3       3       3       3       3       3
       3       3       3       3       3       3       3       3       3       3
       3       3       3       3       3       3       3       3       3       3
       3       3       3       3       3       3       3       3       3       3
       3       3       3       3       3       3       3       3       3       3
       3       3       3       3       3       3       3       3       3       3
       3       3       3       3       3       3       3       3       3       3
       3       3       3       3       3       3       3       3       3       3
       3       3       3       3       3       3       3       3       3       3
       3       3       3       3       3       3       3       3       3       3
       3       3       3       3       3       3       3       3       3       3
       3       3       3       3       3       3       3       3       3       3
       3       3       3       3       3       3       3       3       3       3
       3       3       3       3       3       3       3       3       3       3
       3       3       3       3       3       3       3       3       3       3
       3       3       3       3       3       3       3       3       3       3
       3       3       3       3       3       3       3       3       3       3
       3       3       3       3       3       3       3       3       3       3
       3       3       3       3       3       3       3       3       3       3
       3       3       3       3       3       3       3       3       3       3
       3       3       3       3       3       3       3       3       3       3
       3       3       3       3       3       3       3       3       3       3
       3       3       3       3       3       3       3       3       3       3
       3       3       3       3       3       3       3       3       3       3
       3       3       3       3       3       3       3       3       3       3
       3       3       3       3       3       3       3       3       3       3
       3       3       3       3       3       3       3       3       3       3
       3       3       3       3       3       3       3       3       3       3
       3       3       3       3       3       3       3       3       3       3
       3       3       3       3       3       3       3       3       3       3
       3       3       3       3       3       3       3       3       3       3
       3       3       3       3       3       3       3       3       3       3
       3       3       3       3       3       3       3       3       3       3
       3       3       3       3       3       3       3       3       3       3
       3       3       3       3       3       3       3       3       3       3
       3       3       3       3       3       3       3       3       3       3
       3       3       3       3       3       3       3       3       3       3
       3       3       3       3       3       3       3       3       3       3
       3       3       3       3       3       3       3       3       3       3
       3       3       3       3       3       3       3       3       3       3
       3       3       3       3       3       3       3       3       3       3
       3       3       3       3       3       3       3       3       3       3
       3       3       3       3       3       3       3       3       3       3
       3       3       3       3       3       3       3       3       3       3
       3       3       3       3       3       3       3       3       3       3
       3       3       3       3       3       3       3       3       3       3
       3       3       3       3       3       3       3       3       3       3
       3       3       3       3       3       3       3       3       3       3
       3       3       3       3       3       3       3       3       3       3
       3       3       3       3       3       3       3       3       3       3
       3       3       3       3       3       3       3       3       3       3
       3       3       3       3       3       3       3       3       3       3
       3       3       3       3       3       3       3       3       3       3
       3       3       3       3       3       3       3       3       3       3
       3       3       3       3       3       3       3       3       3       3
       3       3       3       3       3       3       3       3       3       3
       3       3       3       3       3       3       3       3       3       3
       3       3       3       3       3       3       3       3       3       3
       3       3       3       3       3       3       3       3       3       3
       3       3       3       3       3       3       3       3       3       3
       3       3       3       3       3       3       3       3       3       3
       3       3       3       3       3       3       3       3       3       3
       3       3       3       3       3       3       3       3       3       3
       3       3       3       3       3       3       3       3       3       3
       3       3       3       3       3       3       3       3       3       3
       3       3       3       3       3       3       3       3       3       3
       3       3       3       3       3       3       3       3       3       3
       3       3       3       3       3       3       3       3       3       3
       3       3       3       3       3       3       3       3       3       3
       3       3       3       3       3       3       3       3       3       3
       3       3       3       3       3       3       3       3       3       3
       3       3       3       3       3       3       3       3       3       3
       3       3       3       3       3       3       3       3       3       3
       3       3       3       3       3       3       3       3       3       3
       3       3       3       3       3       3       3       3       3       3
       3       3       3       3       3       3       3       3       3       3
       3       3       3       3       3       3       3       3       3       3
       3       3       3       3       3       3       3       3       3       3
       3       3       3       3       3       3       3       3       3       3
       3       3       3       3       3       3       3       3       3       3
       3       3       3       3       3       3       3       3       3       3
       3       3       3       3       3       3       3       3       3       3
       3       3       3       3       3       3       3       3       3       3
       3       3       3       3       3       3       3       3       3       3
       3       3       3       3       3       3       3       3       3       3
       3       3       3       3       3       3       3       3       3       3
       3       3       3       3       3       3       3       3       3       3
       3       3       3       3       3       3       3       3       3       3
       3       3       3       3       3       3       3       3       3       3
       3       3       3       3       3       3       3       3       3       3
       3       3       3       3       3       3       3       3       3       3
       3       3       3       3       3       3       3       3       3       3
       3       3       3       3       3       3       3       3       3       3
       3       3       3       3       3       3       3       3       3       3
       3       3       3       3       3       3       3       3       3       3
       3       3       3       3       3       3       3       3       3       3
       3       3       3       3       3       3       3       3       3       3
       3       3       3       3       3       3       3       3       3       3
       3       3       3       3       3       3       3       3       3       3
       3       3       3       3       3       3       3       3       3       3
       3       3       3       3       3       3       3       3       3       3
       3       3       3       3       3       3       3       3       3       3
       3       3       3       3       3       3       3       3       3       3
       3       3       3       3       3       3       3       3       3       3
       3       3       3       3       3       3       3       3       3       3
       3       3       3       3       3       3       3       3       3       3
       3       3       3       3       3       3       3       3       3       3
       3       3       3       3       3       3       3       3       3       3
       3       3       3       3       3       3       3       3       3       3
       3       3       3       3       3       3       3       3       3       3
       3       3       3       3       3       3       3       3       3       3
       3       3       3       3       3       3       3       3       3       3
       3       3       3       3       3       3       3       3       3       3
       3       3       3       3       3       3       3       3       3       3
       3       3       3       3       3       3       3       3       3       3
       3       3       3       3       3       3       3       3       3       3
       3       3       3       3       3       3       3       3       3       3
       3       3       3       3       3       3       3       3       3       3
       3       3       3       3       3       3       3       3       3       3
       3       3       3       3       3       3       3       3       3       3
       3       3       3       3       3       3       3       3       3       3
       3       3       3       3       3       3       3       3       3       3
       3       3       3       3       3       3       3       3       3       3
       3       3       3       3       3       3       3       3       3       3
       3       3       3       3       3       3       3       3       3       3
       3       3       3       3       3       3       3       3       3       3
       3       3       3       3       3       3       3       3       3       3
       3       3       3       3       3       3       3       3       3       3
       3       3       3       3       3       3       3       3       3       3
       3       3       3       3       3       3       3       3       3       3
       3       3       3       3       3       3       3       3       3       3
       3       3       3       3       3       3       3       3       3       3
       3       3       3       3       3       3       3       3       3       3
       3       3       3       3       3       3       3       3       3       3
       3       3       3       3       3       3       3       3       3       3
       3       3       3       3       3       3       3       3       3       3
       3       3       3       3       3       3       3       3       3       3
       3       3       3       3       3       3       3       3       3       3
       3       3       3       3       3       3       3       3       3       3
       3       3       3       3       3       3       3       3       3       3
       3       3       3       3       3       3       3       3       3       3
       3       3       3       3       3       3       3       3       3       3
       3       3       3       3       3       3       3       3       3       3
       3       3       3       3       3       3       3       3       3       3
       3       3       3       3       3       3       3       3       3       3
       3       3       3       3       3       3       3       3       3       3
       3       3       3       3       3       3       3       3       3       3
       3       3       3       3       3       3       3       3       3       3
       3       3       3       3       3       3       3       3       3       3
       3       3       3       3       3       3       3       3       3       3
       3       3       3       3       3       3       3       3       3       3
       3       3       3       3       3       3       3       3       3       3
       3       3       3       3       3       3       3       3       3       3
       3       3       3       3       3       3       3       3       3       3
       3       3       3       3       3       3       3       3       3       3
       3       3       3       3       3       3       3       3       3       3
       3       3       3       3       3       3       3       3       3       3
       3       3       3       3       3       3       3       3       3       3
       3       3       3       3       3       3       3       3       3       3
       3       3       3       3       3       3       3       3       3       3
       3       3       3       3       3       3       3       3       3       3
       3       3       3       3       3       3       3       3       3       3
       3       3       3       3       3       3       3       3       3       3
       3       3       3       3       3       3       3       3       3       3
       3       3       3       3       3       3       3       3       3       3
       3       3       3       3       3       3       3       3       3       3
       3       3       3       3       3       3       3       3       3       3
       3       3       3       3       3       3       3       3       3       3
       3       3       3       3       3       3       3       3       3       3
       3       3       3       3       3       3       3       3       3       3
       3       3       3       3       3       3       3       3       3       3
       3       3       3       3       3       3       3       3       3       3
       3       3       3       3       3       3       3       3       3       3
       3       3       3       3       3       3       3       3       3       3
       3       3       3       3       3       3       3       3       3       3
       3       3       3       3       3       3       3       3       3       3
       3       3       3       3       3       3       3       3       3       3
       3       3       3       3       3       3       3       3       3       3
       3       3       3       3       3       3       3       3       3       3
       3       3       3       3       3       3       3       3       3       3
       3       3       3       3       3       3       3       3       3       3
       3       3       3       3       3       3       3       3       3       3
       3       3       3       3       3       3       3       3       3       3
       3       3       3       3       3       3       3       3       3       3
       3       3       3       3       3       3       3       3       3       3
       3       3       3       3       3       3       3       3       3       3
       3       3       3       3       3       3       3       3       3       3
       3       3       3       3       3       3       3       3       3       3
       3       3       3       3       3       3       3       3       3       3
       3       3       3       3       3       3       3       3       3       3
       3       3       3       3       3       3       3       3       3       3
       3       3       3       3       3       3       3       3       3       3
       3       3       3       3       3       3       3       3       3       3
       3       3       3       3       3       3       3       3       3       3
       3       3       3       3       3       3       3       3       3       3
       3       3       3       3       3       3       3       3       3       3
       3       3       3       3       3       3       3       3       3       3
       3       3       3       3       3       3       3       3       3       3
       3       3       3       3       3       3       3       3       3       3
       3       3       3       3       3       3       3       3       3       3
       3       3       3       3       3       3       3       3       3       3
       3       3       3       3       3       3       3       3       3       3
       3       3       3       3       3       3       3       3       3       3
       3       3       3       3       3       3       3       3       3       3
       3       3       3       3       3       3       3       3       3       3
       3       3       3       3       3       3       3       3       3       3
       3       3       3       3       3       3       3       3       3       3
       3       3       3       3       3       3       3       3       3       3
       3       3       3       3       3       3       3       3       3       3
       3       3       3       3       3       3       3       3       3       3
       3       3       3       3       3       3       3       3       3       3
       3       3       3       3       3       3       3       3       3       3
       3       3       3       3       3       3       3       3       3       3
       3       3       3       3       3       3       3       3       3       3
       3       3       3       3       3       3       3       3       3       3
       3       3       3       3       3       3       3       3       3       3
       3       3       3       3       3       3       3       3       3       3
       3       3       3       3       3       3       3       3       3       3
       3       3       3       3       3       3       3       3       3       3
       3       3       3       3       3       3       3       3       3       3
       3       3       3       3       3       3       3       3       3       3
       3       3       3       3       3       3       3       3       3       3
       3       3       3       3       3       3       3       3       3       3
       3       3       3       3       3       3       3       3       3       3
       3       3       3       3       3       3       3       3       3       3
       3       3       3       3       3       3       3       3       3       3
       3       3       3       3       3       3       3       3       3       3
       3       3       3       3       3       3       3       3       3       3
       3       3       3       3       3       3       3       3       3       3
       3       3       3       3       3       3       3       3       3       3
       3       3       3       3       3       3       3       3       3       3
       3       3       3       3       3       3       3       3       3       3
       3       3       3       3       3       3       3       3       3       3
       3       3       3       3       3       3       3       3       3       3
       3       3       3       3       3       3       3       3       3       3
       3       3       3       3       3       3       3       3       3       3
       3       3       3       3       3       3       3       3       3       3
       3       3       3       3       3       3       3       3       3       3
       3       3       3       3       3       3       3       3       3       3
       3       3       3       3       3       3       3       3       3       3
       3       3       3       3       3       3       3       3       3       3
       3       3       3       3       3       3       3       3       3       3
       3       3       3       3       3       3       3       3       3       3
       3       3       3       3       3       3       3       3       3       3
       3       3       3       3       3       3       3       3       3       3
       3       3       3       3       3       3       3       3       3       3
       3       3       3       3       3       3       3       3       3       3
       3       3       3       3       3       3       3       3       3       3
       3       3       3       3       3       3       3       3       3       3
       3       3       3       3       3       3       3       3       3       3
       3       3       3       3       3       3       3       3       3       3
       3       3       3       3       3       3       3       3       3       3
       3       3       3       3       3       3       3       3       3       3
       3       3       3       3       3       3       3       3       3       3
       3       3       3       3       3       3       3       3       3       3
       3       3       3       3       3       3       3       3       3       3
       3       3       3       3       3       3       3       3       3       3
       3       3       3       3       3       3       3       3       3       3
       3       3       3       3       3       3       3       3       3       3
       3       3       3       3       3       3       3       3       3       3
       3       3       3       3       3       3       3       3       3       3
       3       3       3       3       3       3       3       3       3       3
       3       3       3       3       3       3       3       3       3       3
       3       3       3       3       3       3       3       3       3       3
       3       3       3       3       3       3       3       3       3       3
       3       3       3       3       3       3       3       3       3       3
       3       3       3       3       3       3       3       3       3       3
       3       3       3       3       3       3       3       3       3       3
       3       3       3       3       3       3       3       3       3       3
       3       3       3       3       3       3       3       3       3       3
       3       3       3       3       3       3       3       3       3       3
       3       3       3       3       3       3       3       3       3       3
       3       3       3       3       3       3       3       3       3       3
       3       3       3       3       3       3       3       3       3       3
       3       3       3       3       3       3       3       3       3       3
       3       3       3       3       3       3       3       3       3       3
       3       3       3       3       3       3       3       3       3       3
       3       3       3       3       3       3       3       3       3       3
       3       3       3       3       3       3       3       3       3       3
       3       3       3       3       3       3       3       3       3       3
       3       3       3       3       3       3       3       3       3       3
       3       3       3       3       3       3       3       3       3       3
       3       3       3       3       3       3       3       3       3       3
       3       3       3       3       3       3       3       3       3       3
       3       3       3       3       3       3       3       3       3       3
       3       3       3       3       3       3       3       3       3       3
       3       3       3       3       3       3       3       3       3       3
       3       3       3       3       3       3       3       3       3       3
       3       3       3       3       3       3       3       3       3       3
       3       3       3       3       3       3       3       3       3       3
       3       3       3       3       3       3       3       3       3       3
       3       3       3       3       3       3       3       3       3       3
       3       3       3       3       3       3       3       3       3       3
       3       3       3       3       3       3       3       3       3       3
       3       3       3       3       3       3       3       3       3       3
       3       3       3       3       3       3       3       3       3       3
       3       3       3       3       3       3       3       3       3       3
       3       3       3       3       3       3       3       3       3       3
       3       3       3       3       3       3       3       3       3       3
       3       3       3       3       3       3       3       3       3       3
       3       3       3       3       3       3       3       3       3       3
       3       3       3       3       3       3       3       3       3       3
       3       3       3       3       3       3       3       3       3       3
       3       3       3       3       3       3       3       3       3       3
       3       3       3       3       3       3       3       3       3       3
       3       3       3       3       3       3       3       3       3       3
       3       3       3       3       3       3       3       3       3       3
       3       3       3       3       3       3       3       3       3       3
       3       3       3       3       3       3       3       3       3       3
       3       3       3       3       3       3       3       3       3       3
       3       3       3       3       3       3       3       3       3       3
       3       3       3       3       3       3       3       3       3       3
       3       3       3       3       3       3       3       3       3       3
       3       3       3       3       3       3       3       3       3       3
       3       3       3       3       3       3       3       3       3       3
       3       3       3       3       3       3       3       3       3       3
       3       3       3       3       3       3       3       3       3       3
       3       3       3       3       3       3       3       3       3       3
       3       3       3       3       3       3       3       3       3       3
       3       3       3       3       3       3       3       3       3       3
       3       3       3       3       3       3       3       3       3       3
       3       3       3       3       3       3       3       3       3       3
       3       3       3       3       3       3       3       3       3       3
       3       3       3       3       3       3       3       3       3       3
       3       3       3       3       3       3       3       3       3       3
       3       3       3       3       3       3       3       3       3       3
       3       3       3       3       3       3       3       3       3       3
       3       3       3       3       3       3       3       3       3       3
       3       3       3       3       3       3       3       3       3       3
       3       3       3       3       3       3       3       3       3       3
       3       3       3       3       3       3       3       3       3       3
       3       3       3       3       3       3       3       3       3       3
       3       3       3       3       3       3       3       3       3       3
       3       3       3       3       3       3       3       3       3       3
       3       3       3       3       3       3       3       3       3       3
       3       3       3       3       3       3       3       3       3       3
       3       3       3       3       3       3       3       3       3       3
       3       3       3       3       3       3       3       3       3       3
       3       3       3       3       3       3       3       3       3       3
       3       3       3       3       3       3       3       3       3       3
       3       3       3       3       3       3       3       3       3       3
       3       3       3       3       3       3       3       3       3       3
       3       3       3       3       3       3       3       3       3       3
       3       3       3       3       3       3       3       3       3       3
       3       3       3       3       3       3       3       3       3       3
       3       3       3       3       3       3       3       3       3       3
       3       3       3       3       3       3       3       3       3       3
       3       3       3       3       3       3       3       3       3       3
       3       3       3       3       3       3       3       3       3       3
       3       3       3       3       3       3       3       3       3       3
       3       3       3       3       3       3       3       3       3       3
       3       3       3       3       3       3       3       3       3       3
       3       3       3       3       3       3       3       3       3       3
       3       3       3       3       3       3       3       3       3       3
       3       3       3       3       3       3       3       3       3       3
       3       3       3       3       3       3       3       3       3       3
       3       3       3       3       3       3       3       3       3       3
       3       3       3       3       3       3       3       3       3       3
       3       3       3       3       3       3       3       3       3       3
       3       3       3       3       3       3       3       3       3       3
       3       3       3       3       3       3       3       3       3       3
       3       3       3       3       3       3       3       3       3       3
       3       3       3       3       3       3       3       3       3       3
       3       3       3       3       3       3       3       3       3       3
       3       3       3       3       3       3       3       3       3       3
       3       3       3       3       3       3       3       3       3       3
       3       3       3       3       3       3       3       3       3       3
       3       3       3       3       3       3       3       3       3       3
       3       3       3       3       3       3       3       3       3       3
       3       3       3       3       3       3       3       3       3       3
       3       3       3       3       3       3       3       3       3       3
       3       3       3       3       3       3       3       3       3       3
       3       3       3       3       3       3       3       3       3       3
       3       3       3       3       3       3       3       3       3       3
       3       3       3       3       3       3       3       3       3       3
       3       3       3       3       3       3       3       3       3       3
       3       3       3       3       3       3       3       3       3       3
       3       3       3       3       3       3       3       3       3       3
       3       3       3       3       3       3       3       3       3       3
       3       3       3       3       3       3       3       3       3       3
       3       3       3       3       3       3       3       3       3       3
       3       3       3       3       3       3       3       3       3       3
       3       3       3       3       3       3       3       3       3       3
       3       3       3       3       3       3       3       3       3       3
       3       3       3       3       3       3       3       3       3       3
       3       3       3       3       3       3       3       3       3       3
       3       3       3       3       3       3       3       3       3       3
       3       3       3       3       3       3       3       3       3       3
       3       3       3       3       3       3       3       3       3       3
       3       3       3       3       3       3       3       3       3       3
       3       3       3       3       3       3       3       3       3       3
       3       3       3       3       3       3       3       3       3       3
       3       3       3       3       3       3       3       3       3       3
       3       3       3       3       3       3       3       3       3       3
       3       3       3       3       3       3       3       3       3       3
       3       3       3       3       3       3       3       3       3       3
       3       3       3       3       3       3       3       3       3       3
       3       3       3       3       3       3       3       3       3       3
       3       3       3       3       3       3       3       3       3       3
       3       3       3       3       3       3       3       3       3       3
       3       3       3       3       3       3       3       3       3       3
       3       3       3       3       3       3       3       3       3       3
       3       3       3       3       3       3       3       3       3       3
       3       3       3       3       3       3       3       3       3       3
       3       3       3       3       3       3       3       3       3       3
       3       3       3       3       3       3       3       3       3       3
       3       3       3       3       3       3       3       3       3       3
       3       3       3       3       3       3       3       3       3       3
       3       3       3       3       3       3       3       3       3       3
       3       3       3       3       3       3       3       3       3       3
       3       3       3       3       3       3       3       3       3       3
       3       3       3       3       3       3       3       3       3       3
       3       3       3       3       3       3       3       3       3       3
       3       3       3       3       3       3       3       3       3       3
       3       3       3       3       3       3       3       3       3       3
       3       3       3       3       3       3       3       3       3       3
       3       3       3       3       3       3       3       3       3       3
       3       3       3       3       3       3       3       3       3       3
       3       3       3       3       3       3       3       3       3       3
       3       3       3       3       3       3       3       3       3       3
       3       3       3       3       3       3       3       3       3       3
       3       3       3       3       3       3       3       3       3       3
       3       3       3       3       3       3       3       3       3       3
       3       3       3       3       3       3       3       3       3       3
       3       3       3       3       3       3       3       3       3       3
       3       3       3       3       3       3       3       3       3       3
       3       3       3       3       3       3       3       3       3       3
       3       3       3       3       3       3       3       3       3       3
       3       3       3       3       3       3       3       3       3       3
       3       3       3       3       3       3       3       3       3       3
       3       3       3       3       3       3       3       3       3       3
       3       3       3       3       3       3       3       3       3       3
       3       3       3       3       3       3       3       3       3       3
       3       3       3       3       3       3       3       3       3       3
       3       3       3       3       3       3       3       3       3       3
       3       3       3       3       3       3       3       3       3       3
       3       3       3       3       3       3       3       3       3       3
       3       3       3       3       3       3       3       3       3       3
       3       3       3       3       3       3       3       3       3       3
       3       3       3       3       3       3       3       3       3       3
       3       3       3       3       3       3       3       3       3       3
       3       3       3       3       3       3       3       3       3       3
       3       3       3       3       3       3       3       3       3       3
       3       3       3       3       3       3       3       3       3       3
       3       3       3       3       3       3       3       3       3       3
       3       3       3       3       3       3       3       3       3       3
       3       3       3       3       3       3       3       3       3       3
       3       3       3       3       3       3       3       3       3       3
       3       3       3       3       3       3       3       3       3       3
       3       3       3       3       3       3       3       3       3       3
       3       3       3       3       3       3       3       3       3       3
       3       3       3       3       3       3       3       3       3       3
       3       3       3       3       3       3       3       3       3       3
       3       3       3       3       3       3       3       3       3       3
       3       3       3       3       3       3       3       3       3       3
       3       3       3       3       3       3       3       3       3       3
       3       3       3       3       3       3       3       3       3       3
       3       3       3       3       3       3       3       3       3       3
       3       3       3       3       3       3       3       3       3       3
       3       3       3       3       3       3       3       3       3       3
       3       3       3       3       3       3       3       3       3       3
       3       3       3       3       3       3       3       3       3       3
       3       3       3       3       3       3       3       3       3       3
       3       3       3       3       3       3       3       3       3       3
       3       3       3       3       3       3       3       3       3       3
       3       3       3       3       3       3       3       3       3       3
       3       3       3       3       3       3       3       3       3       3
       3       3       3       3       3       3       3       3       3       3
       3       3       3       3       3       3       3       3       3       3
       3       3       3       3       3       3       3       3       3       3
       3       3       3       3       3       3       3       3       3       3
       3       3       3       3       3       3       3       3       3       3
       3       3       3       3       3       3       3       3       3       3
       3       3       3       3       3       3       3       3       3       3
       3       3       3       3       3       3       3       3       3       3
       3       3       3       3       3       3       3       3       3       3
       3       3       3       3       3       3       3       3       3       3
       3       3       3       3       3       3       3       3       3       3
       3       3       3       3       3       3       3       3       3       3
       3       3       3       3       3       3       3       3       3       3
       3       3       3       3       3       3       3       3       3       3
       3       3       3       3       3       3       3       3       3       3
       3       3       3       3       3       3       3       3       3       3
       3       3       3       3       3       3       3       3       3       3
       3       3       3       3       3       3       3       3       3       3
       3       3       3       3       3       3       3       3       3       3
       3       3       3       3       3       3       3       3       3       3
       3       3       3       3       3       3       3       3       3       3
       3       3       3       3       3       3       3       3       3       3
       3       3       3       3       3       3       3       3       3       3
       3       3       3       3       3       3       3       3       3       3
       3       3       3       3       3       3       3       3       3       3
       3       3       3       3       3       3       3       3       3       3
       3       3       3       3       3       3       3       3       3       3
       3       3       3       3       3       3       3       3       3       3
       3       3       3       3       3       3       3       3       3       3
       3       3       3       3       3       3       3       3       3       3
       3       3       3       3       3       3       3       3       3       3
       3       3       3       3       3       3       3       3       3       3
       3       3       3       3       3       3       3       3       3       3
       3       3       3       3       3       3       3       3       3       3
       3       3       3       3       3       3       3       3       3       3
       3       3       3       3       3       3       3       3       3       3
       3       3       3       3       3       3       3       3       3       3
       3       3       3       3       3       3       3       3       3       3
       3       3       3       3       3       3       3       3       3       3
       3       3       3       3       3       3       3       3       3       3
       3       3       3       3       3       3       3       3       3       3
       3       3       3       3       3       3       3       3       3       3
       3       3       3       3       3       3       3       3       3       3
       3       3       3       3       3       3       3       3       3       3
       3       3       3       3       3       3       3       3       3       3
       3       3       3       3       3       3       3       3       3       3
       3       3       3       3       3       3       3       3       3       3
       3       3       3       3       3       3       3       3       3       3
       3       3       3       3       3       3       3       3       3       3
       3       3       3       3       3       3       3       3       3       3
       3       3       3       3       3       3       3       3       3       3
       3       3       3       3       3       3       3       3       3       3
       3       3       3       3       3       3       3       3       3       3
       3       3       3       3       3       3       3       3       3       3
       3       3       3       3       3       3       3       3       3       3
       3       3       3       3       3       3       3       3       3       3
       3       3       3       3       3       3       3       3       3       3
       3       3       3       3       3       3       3       3       3       3
       3       3       3       3       3       3       3       3       3       3
       3       3       3       3       3       3       3       3       3       3
       3       3       3       3       3       3       3       3       3       3
       3       3       3       3       3       3       3       3       3       3
       3       3       3       3       3       3       3       3       3       3
       3       3       3       3       3       3       3       3       3       3
       3       3       3       3       3       3       3       3       3       3
       3       3       3       3       3       3       3       3       3       3
       3       3       3       3       3       3       3       3       3       3
       3       3       3       3       3       3       3       3       3       3
       3       3       3       3       3       3       3       3       3       3
       3       3       3       3       3       3       3       3       3       3
       3       3       3       3       3       3       3       3       3       3
       3       3       3       3       3       3       3       3       3       3
       3       3       3       3       3       3       3       3       3       3
       3       3       3       3       3       3       3       3       3       3
       3       3       3       3       3       3       3       3       3       3
       3       3       3       3       3       3       3       3       3       3
       3       3       3       3       3       3       3       3       3       3
       3       3       3       3       3       3       3       3       3       3
       3       3       3       3       3       3       3       3       3       3
       3       3       3       3       3       3       3       3       3       3
       3       3       3       3       3       3       3       3       3       3
       3       3       3       3       3       3       3       3       3       3
       3       3       3       3       3       3       3       3       3       3
       3       3       3       3       3       3       3       3       3       3
       3       3       3       3       3       3       3       3       3       3
       3       3       3       3       3       3       3       3       3       3
       3       3       3       3       3       3       3       3       3       3
       3       3       3       3       3       3       3       3       3       3
       3       3       3       3       3       3       3       3       3       3
       3       3       3       3       3       3       3       3       3       3
       3       3       3       3       3       3       3       3       3       3
       3       3       3       3       3       3       3       3       3       3
       3       3       3       3       3       3       3       3       3       3
       3       3       3       3       3       3       3       3       3       3
       3       3       3       3       3       3       3       3       3       3
       3       3       3       3       3       3       3       3       3       3
       3       3       3       3       3       3       3       3       3       3
       3       3       3       3       3       3       3       3       3       3
       3       3       3       3       3       3       3       3       3       3
       3       3       3       3       3       3       3       3       3       3
       3       3       3       3       3       3       3       3       3       3
       3       3       3       3       3       3       3       3       3       3
       3       3       3       3       3       3       3       3       3       3
       3       3       3       3       3       3       3       3       3       3
       3       3       3       3       3       3       3       3       3       3
       3       3       3       3       3       3       3       3       3       3
       3       3       3       3       3       3       3       3       3       3
       3       3       3       3       3       3       3       3       3       3
       3       3       3       3       3       3       3       3       3       3
       3       3       3       3       3       3       3       3       3       3
       3       3       3       3       3       3       3       3       3       3
       3       3       3       3       3       3       3       3       3       3
       3       3       3       3       3       3       3       3       3       3
       3       3       3       3       3       3       3       3       3       3
       3       3       3       3       3       3       3       3       3       3
       3       3       3       3       3       3       3       3       3       3
       3       3       3       3       3       3       3       3       3       3
       3       3       3       3       3       3       3       3       3       3
       3       3       3       3       3       3       3       3       3       3
       3       3       3       3       3       3       3       3       3       3
       3       3       3       3       3       3       3       3       3       3
       3       3       3       3       3       3       3       3       3       3
       3       3       3       3       3       3       3       3       3       3
       3       3       3       3       3       3       3       3       3       3
       3       3       3       3       3       3       3       3       3       3
       3       3       3       3       3       3       3       3       3       3
       3       3       3       3       3       3       3       3       3       3
       3       3       3       3       3       3       3       3       3       3
       3       3       3       3       3       3       3       3       3       3
       3       3       3       3       3       3       3       3       3       3
       3       3       3       3       3       3       3       3       3       3
       3       3       3       3       3       3       3       3       3       3
       3       3       3       3       3       3       3       3       3       3
       3       3       3       3       3       3       3       3       3       3
       3       3       3       3       3       3       3       3       3       3
       3       3       3       3       3       3       3       3       3       3
       3       3       3       3       3       3       3       3       3       3
       3       3       3       3       3       3       3       3       3       3
       3       3       3       3       3       3       3       3       3       3
       3       3       3       3       3       3       3       3       3       3
       3       3       3       3       3       3       3       3       3       3
       3       3       3       3       3       3       3       3       3       3
       3       3       3       3       3       3       3       3       3       3
       3       3       3       3       3       3       3       3       3       3
       3       3       3       3       3       3       3       3       3       3
       3       3       3       3       3       3       3       3       3       3
       3       3       3       3       3       3       3       3       3       3
       3       3       3       3       3       3       3       3       3       3
       3       3       3       3       3       3       3       3       3       3
       3       3       3       3       3       3       3       3       3       3
       3       3       3       3       3       3       3       3       3       3
       3       3       3       3       3       3       3       3       3       3
       3       3       3       3       3       3       3       3       3       3
       3       3       3       3       3       3       3       3       3       3
       3       3       3       3       3       3       3       3       3       3
       3       3       3       3       3       3       3       3       3       3
       3       3       3       3       3       3       3       3       3       3
       3       3       3       3       3       3       3       3       3       3
       3       3       3       3       3       3       3       3       3       3
       3       3       3       3       3       3       3       3       3       3
       3       3       3       3       3       3       3       3       3       3
       3       3       3       3       3       3       3       3       3       3
       3       3       3       3       3       3       3       3       3       3
       3       3       3       3       3       3       3       3       3       3
       3       3       3       3       3       3       3       3       3       3
       3       3       3       3       3       3       3       3       3       3
       3       3       3       3       3       3       3       3       3       3
       3       3       3       3       3       3       3       3       3       3
       3       3       3       3       3       3       3       3       3       3
       3       3       3       3       3       3       3       3       3       3
       3       3       3       3       3       3       3       3       3       3
       3       3       3       3       3       3       3       3       3       3
       3       3       3       3       3       3       3       3       3       3
       3       3       3       3       3       3       3       3       3       3
       3       3       3       3       3       3       3       3       3       3
       3       3       3       3       3       3       3       3       3       3
       3       3       3       3       3       3       3       3       3       3
       3       3       3       3       3       3       3       3       3       3
       3       3       3       3       3       3       3       3       3       3
       3       3       3       3       3       3       3       3       3       3
       3       3       3       3       3       3       3       3       3       3
       3       3       3       3       3       3       3       3       3       3
       3       3       3       3       3       3       3       3       3       3
       3       3       3       3       3       3       3       3       3       3
       3       3       3       3       3       3       3       3       3       3
       3       3       3       3       3       3       3       3       3       3
       3       3       3       3       3       3       3       3       3       3
       3       3       3       3       3       3       3       3       3       3
       3       3       3       3       3       3       3       3       3       3
       3       3       3       3       3       3       3       3       3       3
       3       3       3       3       3       3       3       3       3       3
       3       3       3       3       3       3       3       3       3       3
       3       3       3       3       3       3       3       3       3       3
       3       3       3       3       3       3       3       3       3       3
       3       3       3       3       3       3       3       3       3       3
       3       3       3       3       3       3       3       3       3       3
       3       3       3       3       3       3       3       3       3       3
       3       3       3       3       3       3       3       3       3       3
       3       3       3       3       3       3       3       3       3       3
       3       3       3       3       3       3       3       3       3       3
       3       3       3       3       3       3       3       3       3       3
       3       3       3       3       3       3       3       3       3       3
       3       3       3       3       3       3       3       3       3       3
       3       3       3       3       3       3       3       3       3       3
       3       3       3       3       3       3       3       3       3       3
       3       3       3       3       3       3       3       3       3       3
       3       3       3       3       3       3       3       3       3       3
       3       3       3       3       3       3       3       3       3       3
       3       3       3       3       3       3       3       3       3       3
       3       3       3       3       3       3       3       3       3       3
       3       3       3       3       3       3       3       3       3       3
       3       3       3       3       3       3       3       3       3       3
       3       3       3       3       3       3       3       3       3       3
       3       3       3       3       3       3       3       3       3       3
       3       3       3       3       3       3       3       3       3       3
       3       3       3       3       3       3       3       3       3       3
       3       3       3       3       3       3       3       3       3       3
       3       3       3       3       3       3       3       3       3       3
       3       3       3       3       3       3       3       3       3       3
       3       3       3       3       3       3       3       3       3       3
       3       3       3       3       3       3       3       3       3       3
       3       3       3       3       3       3       3       3       3       3
       3       3       3       3       3       3       3       3       3       3
       3       3       3       3       3       3       3       3       3       3
       3       3       3       3       3       3       3       3       3       3
       3       3       3       3       3       3       3       3       3       3
       3       3       3       3       3       3       3       3       3       3
       3       3       3       3       3       3       3       3       3       3
       3       3       3       3       3       3       3       3       3       3
       3       3       3       3       3       3       3       3       3       3
       3       3       3       3       3       3       3       3       3       3
       3       3       3       3       3       3       3       3       3       3
       3       3       3       3       3       3       3       3       3       3
       3       3       3       3       3       3       3       3       3       3
       3       3       3       3       3       3       3       3       3       3
       3       3       3       3       3       3       3       3       3       3
       3       3       3       3       3       3       3       3       3       3
       3       3       3       3       3       3       3       3       3       3
       3       3       3       3       3       3       3       3       3       3
       3       3       3       3       3       3       3       3       3       3
       3       3       3       3       3       3       3       3       3       3
       3       3       3       3       3       3       3       3       3       3
       3       3       3       3       3       3       3       3       3       3
       3       3       3       3       3       3       3       3       3       3
       3       3       3       3       3       3       3       3       3       3
       3       3       3       3       3       3       3       3       3       3
       3       3       3       3       3       3       3       3       3       3
       3       3       3       3       3       3       3       3       3       3
       3       3       3       3       3       3       3       3       3       3
       3       3       3       3       3       3       3       3       3       3
       3       3       3       3       3       3       3       3       3       3
       3       3       3       3       3       3       3       3       3       3
       3       3       3       3       3       3       3       3       3       3
       3       3       3       3       3       3       3       3       3       3
       3       3       3       3       3       3       3       3       3       3
       3       3       3       3       3       3       3       3       3       3
       3       3       3       3       3       3       3       3       3       3
       3       3       3       3       3       3       3       3       3       3
       3       3       3       3       3       3       3       3       3       3
       3       3       3       3       3       3       3       3       3       3
       3       3       3       3       3       3       3       3       3       3
       3       3       3       3       3       3       3       3       3       3
       3       3       3       3       3       3       3       3       3       3
       3       3       3       3       3       3       3       3       3       3
       3       3       3       3       3       3       3       3       3       3
       3       3       3       3       3       3       3       3       3       3
       3       3       3       3       3       3       3       3       3       3
       3       3       3       3       3       3       3       3       3       3
       3       3       3       3       3       3       3       3       3       3
       3       3       3       3       3       3       3       3       3       3
       3       3       3       3       3       3       3       3       3       3
       3       3       3       3       3       3       3       3       3       3
       3       3       3       3       3       3       3       3       3       3
       3       3       3       3       3       3       3       3       3       3
       3       3       3       3       3       3       3       3       3       3
       3       3       3       3       3       3       3       3       3       3
       3       3       3       3       3       3       3       3       3       3
       3       3       3       3       3       3       3       3       3       3
       3       3       3       3       3       3       3       3       3       3
       3       3       3       3       3       3       3       3       3       3
       3       3       3       3       3       3       3       3       3       3
       3       3       3       3       3       3       3       3       3       3
       3       3       3       3       3       3       3       3       3       3
       3       3       3       3       3       3       3       3       3       3
       3       3       3       3       3       3       3       3       3       3
       3       3       3       3       3       3       3       3       3       3
       3       3       3       3       3       3       3       3       3       3
       3       3       3       3       3       3       3       3       3       3
       3       3       3       3       3       3       3       3       3       3
       3       3       3       3       3       3       3       3       3       3
       3       3       3       3       3       3       3       3       3       3
       3       3       3       3       3       3       3       3       3       3
       3       3       3       3       3       3       3       3       3       3
       3       3       3       3       3       3       3       3       3       3
       3       3       3       3       3       3       3       3       3       3
       3       3       3       3       3       3       3       3       3       3
       3       3       3       3       3       3       3       3       3       3
       3       3       3       3       3       3       3       3       3       3
       3       3       3       3       3       3       3       3       3       3
       3       3       3       3       3       3       3       3       3       3
       3       3       3       3       3       3       3       3       3       3
       3       3       3       3       3       3       3       3       3       3
       3       3       3       3       3       3       3       3       3       3
       3       3       3       3       3       3       3       3       3       3
       3       3       3       3       3       3       3       3       3       3
       3       3       3       3       3       3       3       3       3       3
       3       3       3       3       3       3       3       3       3       3
       3       3       3       3       3       3       3       3       3       3
       3       3       3       3       3       3       3       3       3       3
       3       3       3       3       3       3       3       3       3       3
       3       3       3       3       3       3       3       3       3       3
       3       3       3       3       3       3       3       3       3       3
       3       3       3       3       3       3       3       3       3       3
       3       3       3       3       3       3       3       3       3       3
       3       3       3       3       3       3       3       3       3       3
       3       3       3       3       3       3       3       3       3       3
       3       3       3       3       3       3       3       3       3       3
       3       3       3       3       3       3       3       3       3       3
       3       3       3       3       3       3       3       3       3       3
       3       3       3       3       3       3       3       3       3       3
       3       3       3       3       3       3       3       3       3       3
       3       3       3       3       3       3       3       3       3       3
       3       3       3       3       3       3       3       3       3       3
       3       3       3       3       3       3       3       3       3       3
       3       3       3       3       3       3       3       3       3       3
       3       3       3       3       3       3       3       3       3       3
       3       3       3       3       3       3       3       3       3       3
       3       3       3       3       3       3       3       3       3       3
       3       3       3       3       3       3       3       3       3       3
       3       3       3       3       3       3       3       3       3       3
       3       3       3       3       3       3       3       3       3       3
       3       3       3       3       3       3       3       3       3       3
       3       3       3       3       3       3       3       3       3       3
       3       3       3       3       3       3       3       3       3       3
       3       3       3       3       3       3       3       3       3       3
       3       3       3       3       3       3       3       3       3       3
       3       3       3       3       3       3       3       3       3       3
       3       3       3       3       3       3       3       3       3       3
       3       3       3       3       3       3       3       3       3       3
       3       3       3       3       3       3       3       3       3       3
       3       3       3       3       3       3       3       3       3       3
       3       3       3       3       3       3       3       3       3       3
       3       3       3       3       3       3       3       3       3       3
       3       3       3       3       3       3       3       3       3       3
       3       3       3       3       3       3       3       3       3       3
       3       3       3       3       3       3       3       3       3       3
       3       3       3       3       3       3       3       3       3       3
       3       3       3       3       3       3       3       3       3       3
       3       3       3       3       3       3       3       3       3       3
       3       3       3       3       3       3       3       3       3       3
       3       3       3       3       3       3       3       3       3       3
       3       3       3       3       3       3       3       3       3       3
       3       3       3       3       3       3       3       3       3       3
       3       3       3       3       3       3       3       3       3       3
       3       3       3       3       3       3       3       3       3       3
       3       3       3       3       3       3       3       3       3       3
       3       3       3       3       3       3       3       3       3       3
       3       3       3       3       3       3       3       3       3       3
       3       3       3       3       3       3       3       3       3       3
       3       3       3       3       3       3       3       3       3       3
       3       3       3       3       3       3       3       3       3       3
       3       3       3       3       3       3       3       3       3       3
       3       3       3       3       3       3       3       3       3       3
       3       3       3       3       3       3       3       3       3       3
       3       3       3       3       3       3       3       3       3       3
       3       3       3       3       3       3       3       3       3       3
       3       3       3       3       3       3       3       3       3       3
       3       3       3       3       3       3       3       3       3       3
       3       3       3       3       3       3       3       3       3       3
       3       3       3       3       3       3       3       3       3       3
       3       3       3       3       3       3       3       3       3       3
       3       3       3       3       3       3       3       3       3       3
       3       3       3       3       3       3       3       3       3       3
       3       3       3       3       3       3       3       3       3       3
       3       3       3       3       3       3       3       3       3       3
       3       3       3       3       3       3       3       3       3       3
       3       3       3       3       3       3       3       3       3       3
       3       3       3       3       3       3       3       3       3       3
       3       3       3       3       3       3       3       3       3       3
       3       3       3       3       3       3       3       3       3       3
       3       3       3       3       3       3       3       3       3       3
       3       3       3       3       3       3       3       3       3       3
       3       3       3       3       3       3       3       3       3       3
       3       3       3       3       3       3       3       3       3       3
       3       3       3       3       3       3       3       3       3       3
       3       3       3       3       3       3       3       3       3       3
       3       3       3       3       3       3       3       3       3       3
       3       3       3       3       3       3       3       3       3       3
       3       3       3       3       3       3       3       3       3       3
       3       3       3       3       3       3       3       3       3       3
       3       3       3       3       3       3       3       3       3       3
       3       3       3       3       3       3       3       3       3       3
       3       3       3       3       3       3       3       3       3       3
       3       3       3       3       3       3       3       3       3       3
       3       3       3       3       3       3       3       3       3       3
       3       3       3       3       3       3       3       3       3       3
       3       3       3       3       3       3       3       3       3       3
       3       3       3       3       3       3       3       3       3       3
       3       3       3       3       3       3       3       3       3       3
       3       3       3       3       3       3       3       3       3       3
       3       3       3       3       3       3       3       3       3       3
       3       3       3       3       3       3       3       3       3       3
       3       3       3       3       3       3       3       3       3       3
       3       3       3       3       3       3       3       3       3       3
       3       3       3       3       3       3       3       3       3       3
       3       3       3       3       3       3       3       3       3       3
       3       3       3       3       3       3       3       3       3       3
       3       3       3       3       3       3       3       3       3       3
       3       3       3       3       3       3       3       3       3       3
       3       3       3       3       3       3       3       3       3       3
       3       3       3       3       3       3       3       3       3       3
       3       3       3       3       3       3       3       3       3       3
       3       3       3       3       3       3       3       3       3       3
       3       3       3       3       3       3       3       3       3       3
       3       3       3       3       3       3       3       3       3       3
       3       3       3       3       3       3       3       3       3       3
       3       3       3       3       3       3       3       3       3       3
       3       3       3       3       3       3       3       3       3       3
       3       3       3       3       3       3       3       3       3       3
       3       3       3       3       3       3       3       3       3       3
       3       3       3       3       3       3       3       3       3       3
       3       3       3       3       3       3       3       3       3       3
       3       3       3       3       3       3       3       3       3       3
       3       3       3       3       3       3       3       3       3       3
       3       3       3       3       3       3       3       3       3       3
       3       3       3       3       3       3       3       3       3       3
       3       3       3       3       3       3       3       3       3       3
       3       3       3       3       3       3       3       3       3       3
       3       3       3       3       3       3       3       3       3       3
       3       3       3       3       3       3       3       3       3       3
       3       3       3       3       3       3       3       3       3       3
       3       3       3       3       3       3       3       3       3       3
       3       3       3       3       3       3       3       3       3       3
       3       3       3       3       3       3       3       3       3       3
       3       3       3       3       3       3       3       3       3       3
       3       3       3       3       3       3       3       3       3       3
       3       3       3       3       3       3       3       3       3       3
       3       3       3       3       3       3       3       3       3       3
       3       3       3       3       3       3       3       3       3       3
       3       3       3       3       3       3       3       3       3       3
       3       3       3       3       3       3       3       3       3       3
       3       3       3       3       3       3       3       3       3       3
       3       3       3       3       3       3       3       3       3       3
       3       3       3       3       3       3       3       3       3       3
       3       3       3       3       3       3       3       3       3       3
       3       3       3       3       3       3       3       3       3       3
       3       3       3       3       3       3       3       3       3       3
       3       3       3       3       3       3       3       3       3       3
       3       3       3       3       3       3       3       3       3       3
       3       3       3       3       3       3       3       3       3       3
       3       3       3       3       3       3       3       3       3       3
       3       3       3       3       3       3       3       3       3       3
       3       3       3       3       3       3       3       3       3       3
       3       3       3       3       3       3       3       3       3       3
       3       3       3       3       3       3       3       3       3       3
       3       3       3       3       3       3       3       3       3       3
       3       3       3       3       3       3       3       3       3       3
       3       3       3       3       3       3       3       3       3       3
       3       3       3       3       3       3       3       3       3       3
       3       3       3       3       3       3       3       3       3       3
       3       3       3       3       3       3       3       3       3       3
       3       3       3       3       3       3       3       3       3       3
       3       3       3       3       3       3       3       3       3       3
       3       3       3       3       3       3       3       3       3       3
       3       3       3       3       3       3       3       3       3       3
       3       3       3       3       3       3       3       3       3       3
       3       3       3       3       3       3       3       3       3       3
       3       3       3       3       3       3       3       3       3       3
       3       3       3       3       3       3       3       3       3       3
       3       3       3       3       3       3       3       3       3       3
       3       3       3       3       3       3       3       3       3       3
       3       3       3       3       3       3       3       3       3       3
       3       3       3       3       3       3       3       3       3       3
       3       3       3       3       3       3       3       3       3       3
       3       3       3       3       3       3       3       3       3       3
       3       3       3       3       3       3       3       3       3       3
       3       3       3       3       3       3       3       3       3       3
       3       3       3       3       3       3       3       3       3       3
       3       3       3       3       3       3       3       3       3       3
       3       3       3       3       3       3       3       3       3       3
       3       3       3       3       3       3       3       3       3       3
       3       3       3       3       3       3       3       3       3       3
       3       3       3       3       3       3       3       3       3       3
       3       3       3       3       3       3       3       3       3       3
       3       3       3       3       3       3       3       3       3       3
       3       3       3       3       3       3       3       3       3       3
       3       3       3       3       3       3       3       3       3       3
       3       3       3       3       3       3       3       3       3       3
       3       3       3       3       3       3       3       3       3       3
       3       3       3       3       3       3       3       3       3       3
       3       3       3       3       3       3       3       3       3       3
       3       3       3       3       3       3       3       3       3       3
       3       3       3       3       3       3       3       3       3       3
       3       3       3       3       3       3       3       3       3       3
       3       3       3       3       3       3       3       3       3       3
       3       3       3       3       3       3       3       3       3       3
       3       3       3       3       3       3       3       3       3       3
       3       3       3       3       3       3       3       3       3       3
       3       3       3       3       3       3       3       3       3       3
       3       3       3       3       3       3       3       3       3       3
       3       3       3       3       3       3       3       3       3       3
       3       3       3       3       3       3       3       3       3       3
       3       3       3       3       3       3       3       3       3       3
       3       3       3       3       3       3       3       3       3       3
       3       3       3       3       3       3       3       3       3       3
       3       3       3       3       3       3       3       3       3       3
       3       3       3       3       3       3       3       3       3       3
       3       3       3       3       3       3       3       3       3       3
       3       3       3       3       3       3       3       3       3       3
       3       3       3       3       3       3       3       3       3       3
       3       3       3       3       3       3       3       3       3       3
       3       3       3       3       3       3       3       3       3       3
       3       3       3       3       3       3       3       3       3       3
       3       3       3       3       3       3       3       3       3       3
       3       3       3       3       3       3       3       3       3       3
       3       3       3       3       3       3       3       3       3       3
       3       3       3       3       3       3       3       3       3       3
       3       3       3       3       3       3       3       3       3       3
       3       3       3       3       3       3       3       3       3       3
       3       3       3       3       3       3       3       3       3       3
       3       3       3       3       3       3       3       3       3       3
       3       3       3       3       3       3       3       3       3       3
       3       3       3       3       3       3       3       3       3       3
       3       3       3       3       3       3       3       3       3       3
       3       3       3       3       3       3       3       3       3       3
       3       3       3       3       3       3       3       3       3       3
       3       3       3       3       3       3       3       3       3       3
       3       3       3       3       3       3       3       3       3       3
       3       3       3       3       3       3       3       3       3       3
       3       3       3       3       3       3       3       3       3       3
       3       3       3       3       3       3       3       3       3       3
       3       3       3       3       3       3       3       3       3       3
       3       3       3       3       3       3       3       3       3       3
       3       3       3       3       3       3       3       3       3       3
       3       3       3       3       3       3       3       3       3       3
       3       3       3       3       3       3       3       3       3       3
       3       3       3       3       3       3       3       3       3       3
       3       3       3       3       3       3       3       3       3       3
       3       3       3       3       3       3       3       3       3       3
       3       3       3       3       3       3       3       3       3       3
       3       3       3       3       3       3       3       3       3       3
       3       3       3       3       3       3       3       3       3       3
       3       3       3       3       3       3       3       3       3       3
       3       3       3       3       3       3       3       3       3       3
       3       3       3       3       3       3       3       3       3       3
       3       3       3       3       3       3       3       3       3       3
       3       3       3       3       3       3       3       3       3       3
       3       3       3       3       3       3       3       3       3       3
       3       3       3       3       3       3       3       3       3       3
       3       3       3       3       3       3       3       3       3       3
       3       3       3       3       3       3       3       3       3       3
       3       3       3       3       3       3       3       3       3       3
       3       3       3       3       3       3       3       3       3       3
       3       3       3       3       3       3       3       3       3       3
       3       3       3       3       3       3       3       3       3       3
       3       3       3       3       3       3       3       3       3       3
       3       3       3       3       3       3       3       3       3       3
       3       3       3       3       3       3       3       3       3       3
       3       3       3       3       3       3       3       3       3       3
       3       3       3       3       3       3       3       3       3       3
       3       3       3       3       3       3       3       3       3       3
       3       3       3       3       3       3       3       3       3       3
       3       3       3       3       3       3       3       3       3       3
       3       3       3       3       3       3       3       3       3       3
       3       3       3       3       3       3       3       3       3       3
       3       3       3       3       3       3       3       3       3       3
       3       3       3       3       3       3       3       3       3       3
       3       3       3       3       3       3       3       3       3       3
       3       3       3       3       3       3       3       3       3       3
       3       3       3       3       3       3       3       3       3       3
       3       3       3       3       3       3       3       3       3       3
       3       3       3       3       3       3       3       3       3       3
       3       3       3       3       3       3       3       3       3       3
       3       3       3       3       3       3       3       3       3       3
       3       3       3       3       3       3       3       3       3       3
       3       3       3       3       3       3       3       3       3       3
       3       3       3       3       3       3       3       3       3       3
       3       3       3       3       3       3       3       3       3       3
       3       3       3       3       3       3       3       3       3       3
       3       3       3       3       3       3       3       3       3       3
       3       3       3       3       3       3       3       3       3       3
       3       3       3       3       3       3       3       3       3       3
       3       3       3       3       3       3       3       3       3       3
       3       3       3       3       3       3       3       3       3       3
       3       3       3       3       3       3       3       3       3       3
       3       3       3       3       3       3       3       3       3       3
       3       3       3       3       3       3       3       3       3       3
       3       3       3       3       3       3       3       3       3       3
       3       3       3       3       3       3       3       3       3       3
       3       3       3       3       3       3       3       3       3       3
       3       3       3       3       3       3       3       3       3       3
       3       3       3       3       3       3       3       3       3       3
       3       3       3       3       3       3       3       3       3       3
       3       3       3       3       3       3       3       3       3       3
       3       3       3       3       3       3       3       3       3       3
       3       3       3       3       3       3       3       3       3       3
       3       3       3       3       3       3       3       3       3       3
       3       3       3       3       3       3       3       3       3       3
       3       3       3       3       3       3       3       3       3       3
       3       3       3       3       3       3       3       3       3       3
       3       3       3       3       3       3       3       3       3       3
       3       3       3       3       3       3       3       3       3       3
       3       3       3       3       3       3       3       3       3       3
       3       3       3       3       3       3       3       3       3       3
       3       3       3       3       3       3       3       3       3       3
       3       3       3       3       3       3       3       3       3       3
       3       3       3       3       3       3       3       3       3       3
       3       3       3       3       3       3       3       3       3       3
       3       3       3       3       3       3       3       3       3       3
       3       3       3       3       3       3       3       3       3       3
       3       3       3       3       3       3       3       3       3       3
       3       3       3       3       3       3       3       3       3       3
       3       3       3       3       3       3       3       3       3       3
       3       3       3       3       3       3       3       3       3       3
       3       3       3       3       3       3       3       3       3       3
       3       3       3       3       3       3       3       3       3       3
       3       3       3       3       3       3       3       3       3       3
       3       3       3       3       3       3       3       3       3       3
       3       3       3       3       3       3       3       3       3       3
       3       3       3       3       3       3       3       3       3       3
       3       3       3       3       3       3       3       3       3       3
       3       3       3       3       3       3       3       3       3       3
       3       3       3       3       3       3       3       3       3       3
       3       3       3       3       3       3       3       3       3       3
       3       3       3       3       3       3       3       3       3       3
       3       3       3       3       3       3       3       3       3       3
       3       3       3       3       3       3       3       3       3       3
       3       3       3       3       3       3       3       3       3       3
       3       3       3       3       3       3       3       3       3       3
       3       3       3       3       3       3       3       3       3       3
       3       3       3       3       3       3       3       3       3       3
       3       3       3       3       3       3       3       3       3       3
       3       3       3       3       3       3       3       3       3       3
       3       3       3       3       3       3       3       3       3       3
       3       3       3       3       3       3       3       3       3       3
       3       3       3       3       3       3       3       3       3       3
       3       3       3       3       3       3       3       3       3       3
       3       3       3       3       3       3       3       3       3       3
       3       3       3       3       3       3       3       3       3       3
       3       3       3       3       3       3       3       3       3       3
       3       3       3       3       3       3       3       3       3       3
       3       3       3       3       3       3       3       3       3       3
       3       3       3       3       3       3       3       3       3       3
       3       3       3       3       3       3       3       3       3       3
       3       3       3       3       3       3       3       3       3       3
       3       3       3       3       3       3       3       3       3       3
       3       3       3       3       3       3       3       3       3       3
       3       3       3       3       3       3       3       3       3       3
       3       3       3       3       3       3       3       3       3       3
       3       3       3       3       3       3       3       3       3       3
       3       3       3       3       3       3       3       3       3       3
       3       3       3       3       3       3       3       3       3       3
       3       3       3       3       3       3       3       3       3       3
       3       3       3       3       3       3       3       3       3       3
       3       3       3       3       3       3       3       3       3       3
       3       3       3       3       3       3       3       3       3       3
       3       3       3       3       3       3       3       3       3       3
       3       3       3       3       3       3       3       3       3       3
       3       3       3       3       3       3       3       3       3       3
       3       3       3       3       3       3       3       3       3       3
       3       3       3       3       3       3       3       3       3       3
       3       3       3       3       3       3       3       3       3       3
       3       3       3       3       3       3       3       3       3       3
       3       3       3       3       3       3       3       3       3       3
       3       3       3       3       3       3       3       3       3       3
       3       3       3       3       3       3       3       3       3       3
       3       3       3       3       3       3       3       3       3       3
       3       3       3       3       3       3       3       3       3       3
       3       3       3       3       3       3       3       3       3       3
       3       3       3       3       3       3       3       3       3       3
       3       3       3       3       3       3       3       3       3       3
       3       3       3       3       3       3       3       3       3       3
       3       3       3       3       3       3       3       3       3       3
       3       3       3       3       3       3       3       3       3       3
       3       3       3       3       3       3       3       3       3       3
       3       3       3       3       3       3       3       3       3       3
       3       3       3       3       3       3       3       3       3       3
       3       3       3       3       3       3       3       3       3       3
       3       3       3       3       3       3       3       3       3       3
       3       3       3       3       3       3       3       3       3       3
       3       3       3       3       3       3       3       3       3       3
       3       3       3       3       3       3       3       3       3       3
       3       3       3       3       3       3       3       3       3       3
       3       3       3       3       3       3       3       3       3       3
       3       3       3       3       3       3       3       3       3       3
       3       3       3       3       3       3       3       3       3       3
       3       3       3       3       3       3       3       3       3       3
       3       3       3       3       3       3       3       3       3       3
       3       3       3       3       3       3       3       3       3       3
       3       3       3       3       3       3       3       3       3       3
       3       3       3       3       3       3       3       3       3       3
       3       3       3       3       3       3       3       3       3       3
       3       3       3       3       3       3       3       3       3       3
       3       3       3       3       3       3       3       3       3       3
       3       3       3       3       3       3       3       3       3       3
       3       3       3       3       3       3       3       3       3       3
       3       3       3       3       3       3       3       3       3       3
       3       3       3       3       3       3       3       3       3       3
       3       3       3       3       3       3       3       3       3       3
       3       3       3       3       3       3       3       3       3       3
       3       3       3       3       3       3       3       3       3       3
       3       3       3       3       3       3       3       3       3       3
       3       3       3       3       3       3       3       3       3       3
       3       3       3       3       3       3       3       3       3       3
       3       3       3       3       3       3       3       3       3       3
       3       3       3       3       3       3       3       3       3       3
       3       3       3       3       3       3       3       3       3       3
       3       3       3       3       3       3       3       3       3       3
       3       3       3       3       3       3       3       3       3       3
       3       3       3       3       3       3       3       3       3       3
       3       3       3       3       3       3       3       3       3       3
       3       3       3       3       3       3       3       3       3       3
       3       3       3       3       3       3       3       3       3       3
       3       3       3       3       3       3       3       3       3       3
       3       3       3       3       3       3       3       3       3       3
       3       3       3       3       3       3       3       3       3       3
       3       3       3       3       3       3       3       3       3       3
       3       3       3       3       3       3       3       3       3       3
       3       3       3       3       3       3       3       3       3       3
       3       3       3       3       3       3       3       3       3       3
       3       3       3       3       3       3       3       3       3       3
       3       3       3       3       3       3       3       3       3       3
       3       3       3       3       3       3       3       3       3       3
       3       3       3       3       3       3       3       3       3       3
       3       3       3       3       3       3       3       3       3       3
       3       3       3       3       3       3       3       3       3       3
       3       3       3       3       3       3       3       3       3       3
       3       3       3       3       3       3       3       3       3       3
       3       3       3       3       3       3       3       3       3       3
       3       3       3       3       3       3       3       3       3       3
       3       3       3       3       3       3       3       3       3       3
       3       3       3       3       3       3       3       3       3       3
       3       3       3       3       3       3       3       3       3       3
       3       3       3       3       3       3       3       3       3       3
       3       3       3       3       3       3       3       3       3       3
       3       3       3       3       3       3       3       3       3       3
       3       3       3       3       3       3       3       3       3       3
       3       3       3       3       3       3       3       3       3       3
       3       3       3       3       3       3       3       3       3       3
       3       3       3       3       3       3       3       3       3       3
       3       3       3       3       3       3       3       3       3       3
       3       3       3       3       3       3       3       3       3       3
       3       3       3       3       3       3       3       3       3       3
       3       3       3       3       3       3       3       3       3       3
       3       3       3       3       3       3       3       3       3       3
       3       3       3       3       3       3       3       3       3       3
       3       3       3       3       3       3       3       3       3       3
       3       3       3       3       3       3       3       3       3       3
       3       3       3       3       3       3       3       3       3       3
       3       3       3       3       3       3       3       3       3       3
       3       3       3       3       3       3       3       3       3       3
       3       3       3       3       3       3       3       3       3       3
       3       3       3       3       3       3       3       3       3       3
       3       3       3       3       3       3       3       3       3       3
       3       3       3       3       3       3       3       3       3       3
       3       3       3       3       3       3       3       3       3       3
       3       3       3       3       3       3       3       3       3       3
       3       3       3       3       3       3       3       3       3       3
       3       3       3       3       3       3       3       3       3       3
       3       3       3       3       3       3       3       3       3       3
       3       3       3       3       3       3       3       3       3       3
       3       3       3       3       3       3       3       3       3       3
       3       3       3       3       3       3       3       3       3       3
       3       3       3       3       3       3       3       3       3       3
       3       3       3       3       3       3       3       3       3       3
       3       3       3       3       3       3       3       3       3       3
       3       3       3       3       3       3       3       3       3       3
       3       3       3       3       3       3       3       3       3       3
       3       3       3       3       3       3       3       3       3       3
       3       3       3       3       3       3       3       3       3       3
       3       3       3       3       3       3       3       3       3       3
       3       3       3       3       3       3       3       3       3       3
       3       3       3       3       3       3       3       3       3       3
       3       3       3       3       3       3       3       3       3       3
       3       3       3       3       3       3       3       3       3       3
       3       3       3       3       3       3       3       3       3       3
       3       3       3       3       3       3       3       3       3       3
       3       3       3       3       3       3       3       3       3       3
       3       3       3       3       3       3       3       3       3       3
       3       3       3       3       3       3       3       3       3       3
       3       3       3       3       3       3       3       3       3       3
       3       3       3       3       3       3       3       3       3       3
       3       3       3       3       3       3       3       3       3       3
       3       3       3       3       3       3       3       3       3       3
       3       3       3       3       3       3       3       3       3       3
       3       3       3       3       3       3       3       3       3       3
       3       3       3       3       3       3       3       3       3       3
       3       3       3       3       3       3       3       3       3       3
       3       3       3       3       3       3       3       3       3       3
       3       3       3       3       3       3       3       3       3       3
       3       3       3       3       3       3       3       3       3       3
       3       3       3       3       3       3       3       3       3       3
       3       3       3       3       3       3       3       3       3       3
       3       3       3       3       3       3       3       3       3       3
       3       3       3       3       3       3       3       3       3       3
       3       3       3       3       3       3       3       3       3       3
       3       3       3       3       3       3       3       3       3       3
       3       3       3       3       3       3       3       3       3       3
       3       3       3       3       3       3       3       3       3       3
       3       3       3       3       3       3       3       3       3       3
       3       3       3       3       3       3       3       3       3       3
       3       3       3       3       3       3       3       3       3       3
       3       3       3       3       3       3       3       3       3       3
       3       3       3       3       3       3       3       3       3       3
       3       3       3       3       3       3       3       3       3       3
       3       3       3       3       3       3       3       3       3       3
       3       3       3       3       3       3       3       3       3       3
       3       3       3       3       3       3       3       3       3       3
       3       3       3       3       3       3       3       3       3       3
       3       3       3       3       3       3       3       3       3       3
       3       3       3       3       3       3       3       3       3       3
       3       3       3       3       3       3       3       3       3       3
       3       3       3       3       3       3       3       3       3       3
       3       3       3       3       3       3       3       3       3       3
       3       3       3       3       3       3       3       3       3       3
       3       3       3       3       3       3       3       3       3       3
       3       3       3       3       3       3       3       3       3       3
       3       3       3       3       3       3       3       3       3       3
       3       3       3       3       3       3       3       3       3       3
       3       3       3       3       3       3       3       3       3       3
       3       3       3       3       3       3       3       3       3       3
       3       3       3       3       3       3       3       3       3       3
       3       3       3       3       3       3       3       3       3       3
       3       3       3       3       3       3       3       3       3       3
       3       3       3       3       3       3       3       3       3       3
       3       3       3       3       3       3       3       3       3       3
       3       3       3       3       3       3       3       3       3       3
       3       3       3       3       3       3       3       3       3       3
       3       3       3       3       3       3       3       3       3       3
       3       3       3       3       3       3       3       3       3       3
       3       3       3       3       3       3       3       3       3       3
       3       3       3       3       3       3       3       3       3       3
       3       3       3       3       3       3       3       3       3       3
       3       3       3       3       3       3       3       3       3       3
       3       3       3       3       3       3       3       3       3       3
       3       3       3       3       3       3       3       3       3       3
       3       3       3       3       3       3       3       3       3       3
       3       3       3       3       3       3       3       3       3       3
       3       3       3       3       3       3       3       3       3       3
       3       3       3       3       3       3       3       3       3       3
       3       3       3       3       3       3       3       3       3       3
       3       3       3       3       3       3       3       3       3       3
       3       3       3       3       3       3       3       3       3       3
       3       3       3       3       3       3       3       3       3       3
       3       3       3       3       3       3       3       3       3       3
       3       3       3       3       3       3       3       3       3       3
       3       3       3       3       3       3       3       3       3       3
       3       3       3       3       3       3       3       3       3       3
       3       3       3       3       3       3       3       3       3       3
       3       3       3       3       3       3       3       3       3       3
       3       3       3       3       3       3       3       3       3       3
       3       3       3       3       3       3       3       3       3       3
       3       3       3       3       3       3       3       3       3       3
       3       3       3       3       3       3       3       3       3       3
       3       3       3       3       3       3       3       3       3       3
       3       3       3       3       3       3       3       3       3       3
       3       3       3       3       3       3       3       3       3       3
       3       3       3       3       3       3       3       3       3       3
       3       3       3       3       3       3       3       3       3       3
       3       3       3       3       3       3       3       3       3       3
       3       3       3       3       3       3       3       3       3       3
       3       3       3       3       3       3       3       3       3       3
       3       3       3       3       3       3       3       3       3       3
       3       3       3       3       3       3       3       3       3       3
       3       3       3       3       3       3       3       3       3       3
       3       3       3       3       3       3       3       3       3       3
       3       3       3       3       3       3       3       3       3       3
       3       3       3       3       3       3       3       3       3       3
       3       3       3       3       3       3       3       3       3       3
       3       3       3       3       3       3       3       3       3       3
       3       3       3       3       3       3       3       3       3       3
       3       3       3       3       3       3       3       3       3       3
       3       3       3       3       3       3       3       3       3       3
       3       3       3       3       3       3       3       3       3       3
       3       3       3       3       3       3       3       3       3       3
       3       3       3       3       3       3       3       3       3       3
       3       3       3       3       3       3       3       3       3       3
       3       3       3       3       3       3       3       3       3       3
       3       3       3       3       3       3       3       3       3       3
       3       3       3       3       3       3       3       3       3       3
       3       3       3       3       3       3       3       3       3       3
       3       3       3       3       3       3       3       3       3       3
       3       3       3       3       3       3       3       3       3       3
       3       3       3       3       3       3       3       3       3       3
       3       3       3       3       3       3       3       3       3       3
       3       3       3       3       3       3       3       3       3       3
       3       3       3       3       3       3       3       3       3       3
       3       3       3       3       3       3       3       3       3       3
       3       3       3       3       3       3       3       3       3       3
       3       3       3       3       3       3       3       3       3       3
       3       3       3       3       3       3       3       3       3       3
       3       3       3       3       3       3       3       3       3       3
       3       3       3       3       3       3       3       3       3       3
       3       3       3       3       3       3       3       3       3       3
       3       3       3       3       3       3       3       3       3       3
       3       3       3       3       3       3       3       3       3       3
       3       3       3       3       3       3       3       3       3       3
       3       3       3       3       3       3       3       3       3       3
       3       3       3       3       3       3       3       3       3       3
       3       3       3       3       3       3       3       3       3       3
       3       3       3       3       3       3       3       3       3       3
       3       3       3       3       3       3       3       3       3       3
       3       3       3       3       3       3       3       3       3       3
       3       3       3       3       3       3       3       3       3       3
       3       3       3       3       3       3       3       3       3       3
       3       3       3       3       3       3       3       3       3       3
       3       3       3       3       3       3       3       3       3       3
       3       3       3       3       3       3       3       3       3       3
       3       3       3       3       3       3       3       3       3       3
       3       3       3       3       3       3       3       3       3       3
       3       3       3       3       3       3       3       3       3       3
       3       3       3       3       3       3       3       3       3       3
       3       3       3       3       3       3       3       3       3       3
       3       3       3       3       3       3       3       3       3       3
       3       3       3       3       3       3       3       3       3       3
       3       3       3       3       3       3       3       3       3       3
       3       3       3       3       3       3       3       3       3       3
       3       3       3       3       3       3       3       3       3       3
       3       3       3       3       3       3       3       3       3       3
       3       3       3       3       3       3       3       3       3       3
       3       3       3       3       3       3       3       3       3       3
       3       3       3       3       3       3       3       3       3       3
       3       3       3       3       3       3       3       3       3       3
       3       3       3       3       3       3       3       3       3       3
       3       3       3       3       3       3       3       3       3       3
       3       3       3       3       3       3       3       3       3       3
       3       3       3       3       3       3       3       3       3       3
       3       3       3       3       3       3       3       3       3       3
       3       3       3       3       3       3       3       3       3       3
       3       3       3       3       3       3       3       3       3       3
       3       3       3       3       3       3       3       3       3       3
       3       3       3       3       3       3       3       3       3       3
       3       3       3       3       3       3       3       3       3       3
       3       3       3       3       3       3       3       3       3       3
       3       3       3       3       3       3       3       3       3       3
       3       3       3       3       3       3       3       3       3       3
       3       3       3       3       3       3       3       3       3       3
       3       3       3       3       3       3       3       3       3       3
       3       3       3       3       3       3       3       3       3       3
       3       3       3       3       3       3       3       3       3       3
       3       3       3       3       3       3       3       3       3       3
       3       3       3       3       3       3       3       3       3       3
       3       3       3       3       3       3       3       3       3       3
       3       3       3       3       3       3       3       3       3       3
       3       3       3       3       3       3       3       3       3       3
       3       3       3       3       3       3       3       3       3       3
       3       3       3       3       3       3       3       3       3       3
       3       3       3       3       3       3       3       3       3       3
       3       3       3       3       3       3       3       3       3       3
       3       3       3       3       3       3       3       3       3       3
       3       3       3       3       3       3       3       3       3       3
       3       3       3       3       3       3       3       3       3       3
       3       3       3       3       3       3       3       3       3       3
       3       3       3       3       3       3       3       3       3       3
       3       3       3       3       3       3       3       3       3       3
       3       3       3       3       3       3       3       3       3       3
       3       3       3       3       3       3       3       3       3       3
       3       3       3       3       3       3       3       3       3       3
       3       3       3       3       3       3       3       3       3       3
       3       3       3       3       3       3       3       3       3       3
       3       3       3       3       3       3       3       3       3       3
       3       3       3       3       3       3       3       3       3       3
       3       3       3       3       3       3       3       3       3       3
       3       3       3       3       3       3       3       3       3       3
       3       3       3       3       3       3       3       3       3       3
       3       3       3       3       3       3       3       3       3       3
       3       3       3       3       3       3       3       3       3       3
       3       3       3       3       3       3       3       3       3       3
       3       3       3       3       3       3       3       3       3       3
       3       3       3       3       3       3       3       3       3       3
       3       3       3       3       3       3       3       3       3       3
       3       3       3       3       3       3       3       3       3       3
       3       3       3       3       3       3       3       3       3       3
       3       3       3       3       3       3       3       3       3       3
       3       3       3       3       3       3       3       3       3       3
       3       3       3       3       3       3       3       3       3       3
       3       3       3       3       3       3       3       3       3       3
       3       3       3       3       3       3       3       3       3       3
       3       3       3       3       3       3       3       3       3       3
       3       3       3       3       3       3       3       3       3       3
       3       3       3       3       3       3       3       3       3       3
       3       3       3       3       3       3       3       3       3       3
       3       3       3       3       3       3       3       3       3       3
       3       3       3       3       3       3       3       3       3       3
       3       3       3       3       3       3       3       3       3       3
       3       3       3       3       3       3       3       3       3       3
       3       3       3       3       3       3       3       3       3       3
       3       3       3       3       3       3       3       3       3       3
       3       3       3       3       3       3       3       3       3       3
       3       3       3       3       3       3       3       3       3       3
       3       3       3       3       3       3       3       3       3       3
       3       3       3       3       3       3       3       3       3       3
       3       3       3       3       3       3       3       3       3       3
       3       3       3       3       3       3       3       3       3       3
       3       3       3       3       3       3       3       3       3       3
       3       3       3       3       3       3       3       3       3       3
       3       3       3       3       3       3       3       3       3       3
       3       3       3       3       3       3       3       3       3       3
       3       3       3       3       3       3       3       3       3       3
       3       3       3       3       3       3       3       3       3       3
       3       3       3       3       3       3       3       3       3       3
       3       3       3       3       3       3       3       3       3       3
       3       3       3       3       3       3       3       3       3       3
       3       3       3       3       3       3       3       3       3       3
       3       3       3       3       3       3       3       3       3       3
       3       3       3       3       3       3       3       3       3       3
       3       3       3       3       3       3       3       3       3       3
       3       3       3       3       3       3       3       3       3       3
       3       3       3       3       3       3       3       3       3       3
       3       3       3       3       3       3       3       3       3       3
       3       3       3       3       3       3       3       3       3       3
       3       3       3       3       3       3       3       3       3       3
       3       3       3       3       3       3       3       3       3       3
       3       3       3       3       3       3       3       3       3       3
       3       3       3       3       3       3       3       3       3       3
       3       3       3       3       3       3       3       3       3       3
       3       3       3       3       3       3       3       3       3       3
       3       3       3       3       3       3       3       3       3       3
       3       3       3       3       3       3       3       3       3       3
       3       3       3       3       3       3       3       3       3       3
       3       3       3       3       3       3       3       3       3       3
       3       3       3       3       3       3       3       3       3       3
       3       3       3       3       3       3       3       3       3       3
       3       3       3       3       3       3       3       3       3       3
       3       3       3       3       3       3       3       3       3       3
       3       3       3       3       3       3       3       3       3       3
       3       3       3       3       3       3       3       3       3       3
       3       3       3       3       3       3       3       3       3       3
       3       3       3       3       3       3       3       3       3       3
       3       3       3       3       3       3       3       3       3       3
       3       3       3       3       3       3       3       3       3       3
       3       3       3       3       3       3       3       3       3       3
       3       3       3       3       3       3       3       3       3       3
       3       3       3       3       3       3       3       3       3       3
       3       3       3       3       3       3       3       3       3       3
       3       3       3       3       3       3       3       3       3       3
       3       3       3       3       3       3       3       3       3       3
       3       3       3       3       3       3       3       3       3       3
       3       3       3       3       3       3       3       3       3       3
       3       3       3       3       3       3       3       3       3       3
       3       3       3       3       3       3       3       3       3       3
       3       3       3       3       3       3       3       3       3       3
       3       3       3       3       3       3       3       3       3       3
       3       3       3       3       3       3       3       3       3       3
       3       3       3       3       3       3       3       3       3       3
       3       3       3       3       3       3       3       3       3       3
       3       3       3       3       3       3       3       3       3       3
       3       3       3       3       3       3       3       3       3       3
       3       3       3       3       3       3       3       3       3       3
       3       3       3       3       3       3       3       3       3       3
       3       3       3       3       3       3       3       3       3       3
       3       3       3       3       3       3       3       3       3       3
       3       3       3       3       3       3       3       3       3       3
       3       3       3       3       3       3       3       3       3       3
       3       3       3       3       3       3       3       3       3       3
       3       3       3       3       3       3       3       3       3       3
       3       3       3       3       3       3       3       3       3       3
       3       3       3       3       3       3       3       3       3       3
       3       3       3       3       3       3       3       3       3       3
       3       3       3       3       3       3       3       3       3       3
       3       3       3       3       3       3       3       3       3       3
       3       3       3       3       3       3       3       3       3       3
       3       3       3       3       3       3       3       3       3       3
       3       3       3       3       3       3       3       3       3       3
       3       3       3       3       3       3       3       3       3       3
       3       3       3       3       3       3       3       3       3       3
       3       3       3       3       3       3       3       3       3       3
       3       3       3       3       3       3       3       3       3       3
       3       3       3       3       3       3       3       3       3       3
       3       3       3       3       3       3       3       3       3       3
       3       3       3       3       3       3       3       3       3       3
       3       3       3       3       3       3       3       3       3       3
       3       3       3       3       3       3       3       3       3       3
       3       3       3       3       3       3       3       3       3       3
       3       3       3       3       3       3       3       3       3       3
       3       3       3       3       3       3       3       3       3       3
       3       3       3       3       3       3       3       3       3       3
       3       3       3       3       3       3       3       3       3       3
       3       3       3       3       3       3       3       3       3       3
       3       3       3       3       3       3       3       3       3       3
       3       3       3       3       3       3       3       3       3       3
       3       3       3       3       3       3       3       3       3       3
       3       3       3       3       3       3       3       3       3       3
       3       3       3       3       3       3       3       3       3       3
       3       3       3       3       3       3       3       3       3       3
       3       3       3       3       3       3       3       3       3       3
       3       3       3       3       3       3       3       3       3       3
       3       3       3       3       3       3       3       3       3       3
       3       3       3       3       3       3       3       3       3       3
       3       3       3       3       3       3       3       3       3       3
       3       3       3       3       3       3       3       3       3       3
       3       3       3       3       3       3       3       3       3       3
       3       3       3       3       3       3       3       3       3       3
       3       3       3       3       3       3       3       3       3       3
       3       3       3       3       3       3       3       3       3       3
       3       3       3       3       3       3       3       3       3       3
       3       3       3       3       3       3       3       3       3       3
       3       3       3       3       3       3       3       3       3       3
       3       3       3       3       3       3       3       3       3       3
       3       3       3       3       3       3       3       3       3       3
       3       3       3       3       3       3       3       3       3       3
       3       3       3       3       3       3       3       3       3       3
       3       3       3       3       3       3       3       3       3       3
       3       3       3       3       3       3       3       3       3       3
       3       3       3       3       3       3       3       3       3       3
       3       3       3       3       3       3       3       3       3       3
       3       3       3       3       3       3       3       3       3       3
       3       3       3       3       3       3       3       3       3       3
       3       3       3       3       3       3       3       3       3       3
       3       3       3       3       3       3       3       3       3       3
       3       3       3       3       3       3       3       3       3       3
       3       3       3       3       3       3       3       3       3       3
       3       3       3       3       3       3       3       3       3       3
       3       3       3       3       3       3       3       3       3       3
       3       3       3       3       3       3       3       3       3       3
       3       3       3       3       3       3       3       3       3       3
       3       3       3       3       3       3       3       3       3       3
       3       3       3       3       3       3       3       3       3       3
       3       3       3       3       3       3       3       3       3       3
       3       3       3       3       3       3       3       3       3       3
       3       3       3       3       3       3       3       3       3       3
       3       3       3       3       3       3       3       3       3       3
       3       3       3       3       3       3       3       3       3       3
       3       3       3       3       3       3       3       3       3       3
       3       3       3       3       3       3       3       3       3       3
       3       3       3       3       3       3       3       3       3       3
       3       3       3       3       3       3       3       3       3       3
       3       3       3       3       3       3       3       3       3       3
       3       3       3       3       3       3       3       3       3       3
       3       3       3       3       3       3       3       3       3       3
       3       3       3       3       3       3       3       3       3       3
       3       3       3       3       3       3       3       3       3       3
       3       3       3       3       3       3       3       3       3       3
       3       3       3       3       3       3       3       3       3       3
       3       3       3       3       3       3       3       3       3       3
       3       3       3       3       3       3       3       3       3       3
       3       3       3       3       3       3       3       3       3       3
       3       3       3       3       3       3       3       3       3       3
       3       3       3       3       3       3       3       3       3       3
       3       3       3       3       3       3       3       3       3       3
       3       3       3       3       3       3       3       3       3       3
       3       3       3       3       3       3       3       3       3       3
       3       3       3       3       3       3       3       3       3       3
       3       3       3       3       3       3       3       3       3       3
       3       3       3       3       3       3       3       3       3       3
       3       3       3       3       3       3       3       3       3       3
       3       3       3       3       3       3       3       3       3       3
       3       3       3       3       3       3       3       3       3       3
       3       3       3       3       3       3       3       3       3       3
       3       3       3       3       3       3       3       3       3       3
       3       3       3       3       3       3       3       3       3       3
       3       3       3       3       3       3       3       3       3       3
       3       3       3       3       3       3       3       3       3       3
       3       3       3       3       3       3       3       3       3       3
       3       3       3       3       3       3       3       3       3       3
       3       3       3       3       3       3       3       3       3       3
       3       3       3       3       3       3       3       3       3       3
       3       3       3       3       3       3       3       3       3       3
       3       3       3       3       3       3       3       3       3       3
       3       3       3       3       3       3       3       3       3       3
       3       3       3       3       3       3       3       3       3       3
       3       3       3       3       3       3       3       3       3       3
       3       3       3       3       3       3       3       3       3       3
       3       3       3       3       3       3       3       3       3       3
       3       3       3       3       3       3       3       3       3       3
       3       3       3       3       3       3       3       3       3       3
       3       3       3       3       3       3       3       3       3       3
       3       3       3       3       3       3       3       3       3       3
       3       3       3       3       3       3       3       3       3       3
       3       3       3       3       3       3       3       3       3       3
       3       3       3       3       3       3       3       3       3       3
       3       3       3       3       3       3       3       3       3       3
       3       3       3       3       3       3       3       3       3       3
       3       3       3       3       3       3       3       3       3       3
       3       3       3       3       3       3       3       3       3       3
       3       3       3       3       3       3       3       3       3       3
       3       3       3       3       3       3       3       3       3       3
       3       3       3       3       3       3       3       3       3       3
       3       3       3       3       3       3       3       3       3       3
       3       3       3       3       3       3       3       3       3       3
       3       3       3       3       3       3       3       3       3       3
       3       3       3       3       3       3       3       3       3       3
       3       3       3       3       3       3       3       3       3       3
       3       3       3       3       3       3       3       3       3       3
       3       3       3       3       3       3       3       3       3       3
       3       3       3       3       3       3       3       3       3       3
       3       3       3       3       3       3       3       3       3       3
       3       3       3       3       3       3       3       3       3       3
       3       3       3       3       3       3       3       3       3       3
       3       3       3       3       3       3       3       3       3       3
       3       3       3       3       3       3       3       3       3       3
       3       3       3       3       3       3       3       3       3       3
       3       3       3       3       3       3       3       3       3       3
       3       3       3       3       3       3       3       3       3       3
       3       3       3       3       3       3       3       3       3       3
       3       3       3       3       3       3       3       3       3       3
       3       3       3       3       3       3       3       3       3       3
       3       3       3       3       3       3       3       3       3       3
       3       3       3       3       3       3       3       3       3       3
       3       3       3       3       3       3       3       3       3       3
       3       3       3       3       3       3       3       3       3       3
       3       3       3       3       3       3       3       3       3       3
       3       3       3       3       3       3       3       3       3       3
       3       3       3       3       3       3       3       3       3       3
       3       3       3       3       3       3       3       3       3       3
       3       3       3       3       3       3       3       3       3       3
       3       3       3       3       3       3       3       3       3       3
       3       3       3       3       3       3       3       3       3       3
       3       3       3       3       3       3       3       3       3       3
       3       3       3       3       3       3       3       3       3       3
       3       3       3       3       3       3       3       3       3       3
       3       3       3       3       3       3       3       3       3       3
       3       3       3       3       3       3       3       3       3       3
       3       3       3       3       3       3       3       3       3       3
       3       3       3       3       3       3       3       3       3       3
       3       3       3       3       3       3       3       3       3       3
       3       3       3       3       3       3       3       3       3       3
       3       3       3       3       3       3       3       3       3       3
       3       3       3       3       3       3       3       3       3       3
       3       3       3       3       3       3       3       3       3       3
       3       3       3       3       3       3       3       3       3       3
       3       3       3       3       3       3       3       3       3       3
       3       3       3       3       3       3       3       3       3       3
       3       3       3       3       3       3       3       3       3       3
       3       3       3       3       3       3       3       3       3       3
       3       3       3       3       3       3       3       3       3       3
       3       3       3       3       3       3       3       3       3       3
       3       3       3       3       3       3       3       3       3       3
       3       3       3       3       3       3       3       3       3       3
       3       3       3       3       3       3       3       3       3       3
       3       3       3       3       3       3       3       3       3       3
       3       3       3       3       3       3       3       3       3       3
       3       3       3       3       3       3       3       3       3       3
       3       3       3       3       3       3       3       3       3       3
       3       3       3       3       3       3       3       3       3       3
       3       3       3       3       3       3       3       3       3       3
       3       3       3       3       3       3       3       3       3       3
       3       3       3       3       3       3       3       3       3       3
       3       3       3       3       3       3       3       3       3       3
       3       3       3       3       3       3       3       3       3       3
       3       3       3       3       3       3       3       3       3       3
       3       3       3       3       3       3       3       3       3       3
       3       3       3       3       3       3       3       3       3       3
       3       3       3       3       3       3       3       3       3       3
       3       3       3       3       3       3       3       3       3       3
       3       3       3       3       3       3       3       3       3       3
       3       3       3       3       3       3       3       3       3       3
       3       3       3       3       3       3       3       3       3       3
       3       3       3       3       3       3       3       3       3       3
       3       3       3       3       3       3       3       3       3       3
       3       3       3       3       3       3       3       3       3       3
       3       3       3       3       3       3       3       3       3       3
       3       3       3       3       3       3       3       3       3       3
       3       3       3       3       3       3       3       3       3       3
       3       3       3       3       3       3       3       3       3       3
       3       3       3       3       3       3       3       3       3       3
       3       3       3       3       3       3       3       3       3       3
       3       3       3       3       3       3       3       3       3       3
       3       3       3       3       3       3       3       3       3       3
       3       3       3       3       3       3       3       3       3       3
       3       3       3       3       3       3       3       3       3       3
       3       3       3       3       3       3       3       3       3       3
       3       3       3       3       3       3       3       3       3       3
       3       3       3       3       3       3       3       3       3       3
       3       3       3       3       3       3       3       3       3       3
       3       3       3       3       3       3       3       3       3       3
       3       3       3       3       3       3       3       3       3       3
       3       3       3       3       3       3       3       3       3       3
       3       3       3       3       3       3       3       3       3       3
       3       3       3       3       3       3       3       3       3       3
       3       3       3       3       3       3       3       3       3       3
       3       3       3       3       3       3       3       3       3       3
       3       3       3       3       3       3       3       3       3       3
       3       3       3       3       3       3       3       3       3       3
       3       3       3       3       3       3       3       3       3       3
       3       3       3       3       3       3       3       3       3       3
       3       3       3       3       3       3       3       3       3       3
       3       3       3       3       3       3       3       3       3       3
       3       3       3       3       3       3       3       3       3       3
       3       3       3       3       3       3       3       3       3       3
       3       3       3       3       3       3       3       3       3       3
       3       3       3       3       3       3       3       3       3       3
       3       3       3       3       3       3       3       3       3       3
       3       3       3       3       3       3       3       3       3       3
       3       3       3       3       3       3       3       3       3       3
       3       3       3       3       3       3       3       3       3       3
       3       3       3       3       3       3       3       3       3       3
       3       3       3       3       3       3       3       3       3       3
       3       3       3       3       3       3       3       3       3       3
       3       3       3       3       3       3       3       3       3       3
       3       3       3       3       3       3       3       3       3       3
       3       3       3       3       3       3       3       3       3       3
       3       3       3       3       3       3       3       3       3       3
       3       3       3       3       3       3       3       3       3       3
       3       3       3       3       3       3       3       3       3       3
       3       3       3       3       3       3       3       3       3       3
       3       3       3       3       3       3       3       3       3       3
       3       3       3       3       3       3       3       3       3       3
       3       3       3       3       3       3       3       3       3       3
       3       3       3       3       3       3       3       3       3       3
       3       3       3       3       3       3       3       3       3       3
       3       3       3       3       3       3       3       3       3       3
       3       3       3       3       3       3       3       3       3       3
       3       3       3       3       3       3       3       3       3       3
       3       3       3       3       3       3       3       3       3       3
       3       3       3       3       3       3       3       3       3       3
       3       3       3       3       3       3       3       3       3       3
       3       3       3       3       3       3       3       3       3       3
       3       3       3       3       3       3       3       3       3       3
       3       3       3       3       3       3       3       3       3       3
       3       3       3       3       3       3       3       3       3       3
       3       3       3       3       3       3       3       3       3       3
       3       3       3       3       3       3       3       3       3       3
       3       3       3       3       3       3       3       3       3       3
       3       3       3       3       3       3       3       3       3       3
       3       3       3       3       3       3       3       3       3       3
       3       3       3       3       3       3       3       3       3       3
       3       3       3       3       3       3       3       3       3       3
       3       3       3       3       3       3       3       3       3       3
       3       3       3       3       3       3       3       3       3       3
       3       3       3       3       3       3       3       3       3       3
       3       3       3       3       3       3       3       3       3       3
       3       3       3       3       3       3       3       3       3       3
       3       3       3       3       3       3       3       3       3       3
       3       3       3       3       3       3       3       3       3       3
       3       3       3       3       3       3       3       3       3       3
       3       3       3       3       3       3       3       3       3       3
       3       3       3       3       3       3       3       3       3       3
       3       3       3       3       3       3       3       3       3       3
       3       3       3       3       3       3       3       3       3       3
       3       3       3       3       3       3       3       3       3       3
       3       3       3       3       3       3       3       3       3       3
       3       3       3       3       3       3       3       3       3       3
       3       3       3       3       3       3       3       3       3       3
       3       3       3       3       3       3       3       3       3       3
       3       3       3       3       3       3       3       3       3       3
       3       3       3       3       3       3       3       3       3       3
       3       3       3       3       3       3       3       3       3       3
       3       3       3       3       3       3       3       3       3       3
       3       3       3       3       3       3       3       3       3       3
       3       3       3       3       3       3       3       3       3       3
       3       3       3       3       3       3       3       3       3       3
       3       3       3       3       3       3       3       3       3       3
       3       3       3       3       3       3       3       3       3       3
       3       3       3       3       3       3       3       3       3       3
       3       3       3       3       3       3       3       3       3       3
       3       3       3       3       3       3       3       3       3       3
       3       3       3       3       3       3       3       3       3       3
       3       3       3       3       3       3       3       3       3       3
       3       3       3       3       3       3       3       3       3       3
       3       3       3       3       3       3       3       3       3       3
       3       3       3       3       3       3       3       3       3       3
       3       3       3       3       3       3       3       3       3       3
       3       3       3       3       3       3       3       3       3       3
       3       3       3       3       3       3       3       3       3       3
       3       3       3       3       3       3       3       3       3       3
       3       3       3       3       3       3       3       3       3       3
       3       3       3       3       3       3       3       3       3       3
       3       3       3       3       3       3       3       3       3       3
       3       3       3       3       3       3       3       3       3       3
       3       3       3       3       3       3       3       3       3       3
       3       3       3       3       3       3       3       3       3       3
       3       3       3       3       3       3       3       3       3       3
       3       3       3       3       3       3       3       3       3       3
       3       3       3       3       3       3       3       3       3       3
       3       3       3       3       3       3       3       3       3       3
       3       3       3       3       3       3       3       3       3       3
       3       3       3       3       3       3       3       3       3       3
       3       3       3       3       3       3       3       3       3       3
       3       3       3       3       3       3       3       3       3       3
       3       3       3       3       3       3       3       3       3       3
       3       3       3       3       3       3       3       3       3       3
       3       3       3       3       3       3       3       3       3       3
       3       3       3       3       3       3       3       3       3       3
       3       3       3       3       3       3       3       3       3       3
       3       3       3       3       3       3       3       3       3       3
       3       3       3       3       3       3       3       3       3       3
       3       3       3       3       3       3       3       3       3       3
       3       3       3       3       3       3       3       3       3       3
       3       3       3       3       3       3       3       3       3       3
       3       3       3       3       3       3       3       3       3       3
       3       3       3       3       3       3       3       3       3       3
       3       3       3       3       3       3       3       3       3       3
       3       3       3       3       3       3       3       3       3       3
       3       3       3       3       3       3       3       3       3       3
       3       3       3       3       3       3       3       3       3       3
       3       3       3       3       3       3       3       3       3       3
       3       3       3       3       3       3       3       3       3       3
       3       3       3       3       3       3       3       3       3       3
       3       3       3       3       3       3       3       3       3       3
       3       3       3       3       3       3       3       3       3       3
       3       3       3       3       3       3       3       3       3       3
       3       3       3       3       3       3       3       3       3       3
       3       3       3       3       3       3       3       3       3       3
       3       3       3       3       3       3       3       3       3       3
       3       3       3       3       3       3       3       3       3       3
       3       3       3       3       3       3       3       3       3       3
       3       3       3       3       3       3       3       3       3       3
       3       3       3       3       3       3       3       3       3       3
       3       3       3       3       3       3       3       3       3       3
       3       3       3       3       3       3       3       3       3       3
       3       3       3       3       3       3       3       3       3       3
       3       3       3       3       3       3       3       3       3       3
       3       3       3       3       3       3       3       3       3       3
       3       3       3       3       3       3       3       3       3       3
       3       3       3       3       3       3       3       3       3       3
       3       3       3       3       3       3       3       3       3       3
       3       3       3       3       3       3       3       3       3       3
       3       3       3       3       3       3       3       3       3       3
       3       3       3       3       3       3       3       3       3       3
       3       3       3       3       3       3       3       3       3       3
       3       3       3       3       3       3       3       3       3       3
       3       3       3       3       3       3       3       3       3       3
       3       3       3       3       3       3       3       3       3       3
       3       3       3       3       3       3       3       3       3       3
       3       3       3       3       3       3       3       3       3       3
       3       3       3       3       3       3       3       3       3       3
       3       3       3       3       3       3       3       3       3       3
       3       3       3       3       3       3       3       3       3       3
       3       3       3       3       3       3       3       3       3       3
       3       3       3       3       3       3       3       3       3       3
       3       3       3       3       3       3       3       3       3       3
       3       3       3       3       3       3       3       3       3       3
       3       3       3       3       3       3       3       3       3       3
       3       3       3       3       3       3       3       3       3       3
       3       3       3       3       3       3       3       3       3       3
       3       3       3       3       3       3       3       3       3       3
       3       3       3       3       3       3       3       3       3       3
       3       3       3       3       3       3       3       3       3       3
       3       3       3       3       3       3       3       3       3       3
       3       3       3       3       3       3       3       3       3       3
       3       3       3       3       3       3       3       3       3       3
       3       3       3       3       3       3       3       3       3       3
       3       3       3       3       3       3       3       3       3       3
       3       3       3       3       3       3       3       3       3       3
       3       3       3       3       3       3       3       3       3       3
       3       3       3       3       3       3       3       3       3       3
       3       3       3       3       3       3       3       3       3       3
       3       3       3       3       3       3       3       3       3       3
       3       3       3       3       3       3       3       3       3       3
       3       3       3       3       3       3       3       3       3       3
       3       3       3       3       3       3       3       3       3       3
       3       3       3       3       3       3       3       3       3       3
       3       3       3       3       3       3       3       3       3       3
       3       3       3       3       3       3       3       3       3       3
       3       3       3       3       3       3       3       3       3       3
       3       3       3       3       3       3       3       3       3       3
       3       3       3       3       3       3       3       3       3       3
       3       3       3       3       3       3       3       3       3       3
       3       3       3       3       3       3       3       3       3       3
       3       3       3       3       3       3       3       3       3       3
       3       3       3       3       3       3       3       3       3       3
       3       3       3       3       3       3       3       3       3       3
       3       3       3       3       3       3       3       3       3       3
       3       3       3       3       3       3       3       3       3       3
       3       3       3       3       3       3       3       3       3       3
       3       3       3       3       3       3       3       3       3       3
       3       3       3       3       3       3       3       3       3       3
       3       3       3       3       3       3       3       3       3       3
       3       3       3       3       3       3       3       3       3       3
       3       3       3       3       3       3       3       3       3       3
       3       3       3       3       3       3       3       3       3       3
       3       3       3       3       3       3       3       3       3       3
       3       3       3       3       3       3       3       3       3       3
       3       3       3       3       3       3       3       3       3       3
       3       3       3       3       3       3       3       3       3       3
       3       3       3       3       3       3       3       3       3       3
       3       3       3       3       3       3       3       3       3       3
       3       3       3       3       3       3       3       3       3       3
       3       3       3       3       3       3       3       3       3       3
       3       3       3       3       3       3       3       3       3       3
       3       3       3       3       3       3       3       3       3       3
       3       3       3       3       3       3       3       3       3       3
       3       3       3       3       3       3       3       3       3       3
       3       3       3       3       3       3       3       3       3       3
       3       3       3       3       3       3       3       3       3       3
       3       3       3       3       3       3       3       3       3       3
%FLAG BOX_DIMENSIONS                                                            
%FORMAT(5E16.8)                                                                 
  9.00000000E+01  1.12532604E+02  1.02624172E+02  7.66681950E+01
%FLAG RADIUS_SET                                                                
%FORMAT(1a80)                                                                   
modified Bondi radii (mbondi)                                                   
%FLAG RADII                                                                     
%FORMAT(5E16.8)                                                                 
  1.70000000E+00  1.70000000E+00  1.70000000E+00  1.70000000E+00  1.70000000E+00
  1.70000000E+00  1.70000000E+00  1.70000000E+00  1.70000000E+00  1.70000000E+00
  1.70000000E+00  1.70000000E+00  1.70000000E+00  1.70000000E+00  1.70000000E+00
  1.70000000E+00  1.30000000E+00  1.30000000E+00  1.30000000E+00  1.30000000E+00
  1.30000000E+00  1.30000000E+00  1.30000000E+00  1.30000000E+00  1.30000000E+00
  1.30000000E+00  1.70000000E+00  1.30000000E+00  1.30000000E+00  1.50000000E+00
  1.70000000E+00  1.70000000E+00  1.30000000E+00  1.70000000E+00  1.70000000E+00
  1.70000000E+00  1.70000000E+00  1.70000000E+00  1.70000000E+00  1.30000000E+00
  1.55000000E+00  1.70000000E+00  1.70000000E+00  1.70000000E+00  1.70000000E+00
  1.50000000E+00  1.70000000E+00  1.70000000E+00  1.50000000E+00  1.70000000E+00
  1.70000000E+00  1.50000000E+00  1.50000000E+00  1.70000000E+00  1.50000000E+00
  1.70000000E+00  1.50000000E+00  1.70000000E+00  1.50000000E+00  1.30000000E+00
  1.30000000E+00  1.30000000E+00  1.30000000E+00  1.30000000E+00  1.30000000E+00
  1.30000000E+00  1.30000000E+00  1.30000000E+00  1.30000000E+00  1.30000000E+00
  1.30000000E+00  1.30000000E+00  1.30000000E+00  1.30000000E+00  1.30000000E+00
  8.00000000E-01  1.30000000E+00  1.30000000E+00  1.30000000E+00  8.00000000E-01
  1.30000000E+00  8.00000000E-01  1.30000000E+00  8.00000000E-01  1.50000000E+00
  1.70000000E+00  1.70000000E+00  1.30000000E+00  1.70000000E+00  1.70000000E+00
  1.70000000E+00  1.70000000E+00  1.70000000E+00  1.70000000E+00  1.30000000E+00
  1.55000000E+00  1.70000000E+00  1.70000000E+00  1.70000000E+00  1.70000000E+00
  1.50000000E+00  1.70000000E+00  1.70000000E+00  1.50000000E+00  1.70000000E+00
  1.70000000E+00  1.50000000E+00  1.50000000E+00  1.70000000E+00  1.50000000E+00
  1.70000000E+00  1.50000000E+00  1.70000000E+00  1.50000000E+00  1.30000000E+00
  1.30000000E+00  1.30000000E+00  1.30000000E+00  1.30000000E+00  1.30000000E+00
  1.30000000E+00  1.30000000E+00  1.30000000E+00  1.30000000E+00  1.30000000E+00
  1.30000000E+00  1.30000000E+00  1.30000000E+00  1.30000000E+00  1.30000000E+00
  8.00000000E-01  1.30000000E+00  1.30000000E+00  1.30000000E+00  8.00000000E-01
  1.30000000E+00  8.00000000E-01  1.30000000E+00  8.00000000E-01  1.50000000E+00
  1.70000000E+00  1.70000000E+00  1.30000000E+00  1.70000000E+00  1.70000000E+00
  1.70000000E+00  1.70000000E+00  1.70000000E+00  1.70000000E+00  1.30000000E+00
  1.55000000E+00  1.70000000E+00  1.70000000E+00  1.70000000E+00  1.70000000E+00
  1.50000000E+00  1.70000000E+00  1.70000000E+00  1.50000000E+00  1.70000000E+00
  1.70000000E+00  1.50000000E+00  1.50000000E+00  1.70000000E+00  1.50000000E+00
  1.70000000E+00  1.50000000E+00  1.70000000E+00  1.50000000E+00  1.30000000E+00
  1.30000000E+00  1.30000000E+00  1.30000000E+00  1.30000000E+00  1.30000000E+00
  1.30000000E+00  1.30000000E+00  1.30000000E+00  1.30000000E+00  1.30000000E+00
  1.30000000E+00  1.30000000E+00  1.30000000E+00  1.30000000E+00  1.30000000E+00
  8.00000000E-01  1.30000000E+00  1.30000000E+00  1.30000000E+00  8.00000000E-01
  1.30000000E+00  8.00000000E-01  1.30000000E+00  8.00000000E-01  1.50000000E+00
  1.70000000E+00  1.70000000E+00  1.30000000E+00  1.70000000E+00  1.70000000E+00
  1.70000000E+00  1.70000000E+00  1.70000000E+00  1.70000000E+00  1.30000000E+00
  1.55000000E+00  1.70000000E+00  1.70000000E+00  1.70000000E+00  1.70000000E+00
  1.50000000E+00  1.70000000E+00  1.70000000E+00  1.50000000E+00  1.70000000E+00
  1.70000000E+00  1.50000000E+00  1.50000000E+00  1.70000000E+00  1.50000000E+00
  1.70000000E+00  1.50000000E+00  1.70000000E+00  1.50000000E+00  1.30000000E+00
  1.30000000E+00  1.30000000E+00  1.30000000E+00  1.30000000E+00  1.30000000E+00
  1.30000000E+00  1.30000000E+00  1.30000000E+00  1.30000000E+00  1.30000000E+00
  1.30000000E+00  1.30000000E+00  1.30000000E+00  1.30000000E+00  1.30000000E+00
  8.00000000E-01  1.30000000E+00  1.30000000E+00  1.30000000E+00  8.00000000E-01
  1.30000000E+00  8.00000000E-01  1.30000000E+00  8.00000000E-01  1.50000000E+00
  1.70000000E+00  1.70000000E+00  1.30000000E+00  1.70000000E+00  1.70000000E+00
  1.70000000E+00  1.70000000E+00  1.70000000E+00  1.70000000E+00  1.30000000E+00
  1.55000000E+00  1.70000000E+00  1.70000000E+00  1.70000000E+00  1.70000000E+00
  1.50000000E+00  1.70000000E+00  1.70000000E+00  1.50000000E+00  1.70000000E+00
  1.70000000E+00  1.50000000E+00  1.50000000E+00  1.70000000E+00  1.50000000E+00
  1.70000000E+00  1.50000000E+00  1.70000000E+00  1.50000000E+00  1.30000000E+00
  1.30000000E+00  1.30000000E+00  1.30000000E+00  1.30000000E+00  1.30000000E+00
  1.30000000E+00  1.30000000E+00  1.30000000E+00  1.30000000E+00  1.30000000E+00
  1.30000000E+00  1.30000000E+00  1.30000000E+00  1.30000000E+00  1.30000000E+00
  8.00000000E-01  1.30000000E+00  1.30000000E+00  1.30000000E+00  8.00000000E-01
  1.30000000E+00  8.00000000E-01  1.30000000E+00  8.00000000E-01  1.50000000E+00
  1.70000000E+00  1.70000000E+00  1.30000000E+00  1.70000000E+00  1.70000000E+00
  1.70000000E+00  1.70000000E+00  1.70000000E+00  1.70000000E+00  1.30000000E+00
  1.55000000E+00  1.70000000E+00  1.70000000E+00  1.70000000E+00  1.70000000E+00
  1.50000000E+00  1.70000000E+00  1.70000000E+00  1.50000000E+00  1.70000000E+00
  1.70000000E+00  1.50000000E+00  1.50000000E+00  1.70000000E+00  1.50000000E+00
  1.70000000E+00  1.50000000E+00  1.70000000E+00  1.50000000E+00  1.30000000E+00
  1.30000000E+00  1.30000000E+00  1.30000000E+00  1.30000000E+00  1.30000000E+00
  1.30000000E+00  1.30000000E+00  1.30000000E+00  1.30000000E+00  1.30000000E+00
  1.30000000E+00  1.30000000E+00  1.30000000E+00  1.30000000E+00  1.30000000E+00
  8.00000000E-01  1.30000000E+00  1.30000000E+00  1.30000000E+00  8.00000000E-01
  1.30000000E+00  8.00000000E-01  1.30000000E+00  8.00000000E-01  1.50000000E+00
  1.70000000E+00  1.70000000E+00  1.30000000E+00  1.70000000E+00  1.70000000E+00
  1.70000000E+00  1.70000000E+00  1.70000000E+00  1.70000000E+00  1.30000000E+00
  1.55000000E+00  1.70000000E+00  1.70000000E+00  1.70000000E+00  1.70000000E+00
  1.50000000E+00  1.70000000E+00  1.70000000E+00  1.50000000E+00  1.70000000E+00
  1.70000000E+00  1.50000000E+00  1.50000000E+00  1.70000000E+00  1.50000000E+00
  1.70000000E+00  1.50000000E+00  1.70000000E+00  1.50000000E+00  1.30000000E+00
  1.30000000E+00  1.30000000E+00  1.30000000E+00  1.30000000E+00  1.30000000E+00
  1.30000000E+00  1.30000000E+00  1.30000000E+00  1.30000000E+00  1.30000000E+00
  1.30000000E+00  1.30000000E+00  1.30000000E+00  1.30000000E+00  1.30000000E+00
  8.00000000E-01  1.30000000E+00  1.30000000E+00  1.30000000E+00  8.00000000E-01
  1.30000000E+00  8.00000000E-01  1.30000000E+00  8.00000000E-01  1.50000000E+00
  1.70000000E+00  1.70000000E+00  1.30000000E+00  1.70000000E+00  1.70000000E+00
  1.70000000E+00  1.70000000E+00  1.70000000E+00  1.70000000E+00  1.30000000E+00
  1.55000000E+00  1.70000000E+00  1.70000000E+00  1.70000000E+00  1.70000000E+00
  1.50000000E+00  1.70000000E+00  1.70000000E+00  1.50000000E+00  1.70000000E+00
  1.70000000E+00  1.50000000E+00  1.50000000E+00  1.70000000E+00  1.50000000E+00
  1.70000000E+00  1.50000000E+00  1.70000000E+00  1.50000000E+00  1.30000000E+00
  1.30000000E+00  1.30000000E+00  1.30000000E+00  1.30000000E+00  1.30000000E+00
  1.30000000E+00  1.30000000E+00  1.30000000E+00  1.30000000E+00  1.30000000E+00
  1.30000000E+00  1.30000000E+00  1.30000000E+00  1.30000000E+00  1.30000000E+00
  8.00000000E-01  1.30000000E+00  1.30000000E+00  1.30000000E+00  8.00000000E-01
  1.30000000E+00  8.00000000E-01  1.30000000E+00  8.00000000E-01  1.50000000E+00
  1.70000000E+00  1.70000000E+00  1.30000000E+00  1.70000000E+00  1.70000000E+00
  1.70000000E+00  1.70000000E+00  1.70000000E+00  1.70000000E+00  1.30000000E+00
  1.55000000E+00  1.70000000E+00  1.70000000E+00  1.70000000E+00  1.70000000E+00
  1.50000000E+00  1.70000000E+00  1.70000000E+00  1.50000000E+00  1.70000000E+00
  1.70000000E+00  1.50000000E+00  1.50000000E+00  1.70000000E+00  1.50000000E+00
  1.70000000E+00  1.50000000E+00  1.70000000E+00  1.50000000E+00  1.30000000E+00
  1.30000000E+00  1.30000000E+00  1.30000000E+00  1.30000000E+00  1.30000000E+00
  1.30000000E+00  1.30000000E+00  1.30000000E+00  1.30000000E+00  1.30000000E+00
  1.30000000E+00  1.30000000E+00  1.30000000E+00  1.30000000E+00  1.30000000E+00
  8.00000000E-01  1.30000000E+00  1.30000000E+00  1.30000000E+00  8.00000000E-01
  1.30000000E+00  8.00000000E-01  1.30000000E+00  8.00000000E-01  1.50000000E+00
  1.70000000E+00  1.70000000E+00  1.30000000E+00  1.70000000E+00  1.70000000E+00
  1.70000000E+00  1.70000000E+00  1.70000000E+00  1.70000000E+00  1.30000000E+00
  1.55000000E+00  1.70000000E+00  1.70000000E+00  1.70000000E+00  1.70000000E+00
  1.50000000E+00  1.70000000E+00  1.70000000E+00  1.50000000E+00  1.70000000E+00
  1.70000000E+00  1.50000000E+00  1.50000000E+00  1.70000000E+00  1.50000000E+00
  1.70000000E+00  1.50000000E+00  1.70000000E+00  1.50000000E+00  1.30000000E+00
  1.30000000E+00  1.30000000E+00  1.30000000E+00  1.30000000E+00  1.30000000E+00
  1.30000000E+00  1.30000000E+00  1.30000000E+00  1.30000000E+00  1.30000000E+00
  1.30000000E+00  1.30000000E+00  1.30000000E+00  1.30000000E+00  1.30000000E+00
  8.00000000E-01  1.30000000E+00  1.30000000E+00  1.30000000E+00  8.00000000E-01
  1.30000000E+00  8.00000000E-01  1.30000000E+00  8.00000000E-01  1.70000000E+00
  1.30000000E+00  1.30000000E+00  1.70000000E+00  1.30000000E+00  1.30000000E+00
  1.50000000E+00  1.70000000E+00  1.70000000E+00  1.30000000E+00  1.70000000E+00
  1.70000000E+00  1.70000000E+00  1.70000000E+00  1.70000000E+00  1.70000000E+00
  1.30000000E+00  1.55000000E+00  1.70000000E+00  1.70000000E+00  1.70000000E+00
  1.70000000E+00  1.50000000E+00  1.70000000E+00  1.70000000E+00  1.50000000E+00
  1.70000000E+00  1.70000000E+00  1.50000000E+00  1.50000000E+00  1.70000000E+00
  1.50000000E+00  1.70000000E+00  1.50000000E+00  1.70000000E+00  1.50000000E+00
  1.30000000E+00  1.30000000E+00  1.30000000E+00  1.30000000E+00  1.30000000E+00
  1.30000000E+00  1.30000000E+00  1.30000000E+00  1.30000000E+00  1.30000000E+00
  1.30000000E+00  1.30000000E+00  1.30000000E+00  1.30000000E+00  1.30000000E+00
  1.30000000E+00  8.00000000E-01  1.30000000E+00  1.30000000E+00  1.30000000E+00
  8.00000000E-01  1.30000000E+00  8.00000000E-01  1.30000000E+00  8.00000000E-01
  1.50000000E+00  1.70000000E+00  1.70000000E+00  1.30000000E+00  1.70000000E+00
  1.70000000E+00  1.70000000E+00  1.70000000E+00  1.70000000E+00  1.70000000E+00
  1.30000000E+00  1.55000000E+00  1.70000000E+00  1.70000000E+00  1.70000000E+00
  1.70000000E+00  1.50000000E+00  1.70000000E+00  1.70000000E+00  1.50000000E+00
  1.70000000E+00  1.70000000E+00  1.50000000E+00  1.50000000E+00  1.70000000E+00
  1.50000000E+00  1.70000000E+00  1.50000000E+00  1.70000000E+00  1.50000000E+00
  1.30000000E+00  1.30000000E+00  1.30000000E+00  1.30000000E+00  1.30000000E+00
  1.30000000E+00  1.30000000E+00  1.30000000E+00  1.30000000E+00  1.30000000E+00
  1.30000000E+00  1.30000000E+00  1.30000000E+00  1.30000000E+00  1.30000000E+00
  1.30000000E+00  8.00000000E-01  1.30000000E+00  1.30000000E+00  1.30000000E+00
  8.00000000E-01  1.30000000E+00  8.00000000E-01  1.30000000E+00  8.00000000E-01
  1.50000000E+00  1.70000000E+00  1.70000000E+00  1.30000000E+00  1.70000000E+00
  1.70000000E+00  1.70000000E+00  1.70000000E+00  1.70000000E+00  1.70000000E+00
  1.30000000E+00  1.55000000E+00  1.70000000E+00  1.70000000E+00  1.70000000E+00
  1.70000000E+00  1.50000000E+00  1.70000000E+00  1.70000000E+00  1.50000000E+00
  1.70000000E+00  1.70000000E+00  1.50000000E+00  1.50000000E+00  1.70000000E+00
  1.50000000E+00  1.70000000E+00  1.50000000E+00  1.70000000E+00  1.50000000E+00
  1.30000000E+00  1.30000000E+00  1.30000000E+00  1.30000000E+00  1.30000000E+00
  1.30000000E+00  1.30000000E+00  1.30000000E+00  1.30000000E+00  1.30000000E+00
  1.30000000E+00  1.30000000E+00  1.30000000E+00  1.30000000E+00  1.30000000E+00
  1.30000000E+00  8.00000000E-01  1.30000000E+00  1.30000000E+00  1.30000000E+00
  8.00000000E-01  1.30000000E+00  8.00000000E-01  1.30000000E+00  8.00000000E-01
  1.50000000E+00  1.70000000E+00  1.70000000E+00  1.30000000E+00  1.70000000E+00
  1.70000000E+00  1.70000000E+00  1.70000000E+00  1.70000000E+00  1.70000000E+00
  1.30000000E+00  1.55000000E+00  1.70000000E+00  1.70000000E+00  1.70000000E+00
  1.70000000E+00  1.50000000E+00  1.70000000E+00  1.70000000E+00  1.50000000E+00
  1.70000000E+00  1.70000000E+00  1.50000000E+00  1.50000000E+00  1.70000000E+00
  1.50000000E+00  1.70000000E+00  1.50000000E+00  1.70000000E+00  1.50000000E+00
  1.30000000E+00  1.30000000E+00  1.30000000E+00  1.30000000E+00  1.30000000E+00
  1.30000000E+00  1.30000000E+00  1.30000000E+00  1.30000000E+00  1.30000000E+00
  1.30000000E+00  1.30000000E+00  1.30000000E+00  1.30000000E+00  1.30000000E+00
  1.30000000E+00  8.00000000E-01  1.30000000E+00  1.30000000E+00  1.30000000E+00
  8.00000000E-01  1.30000000E+00  8.00000000E-01  1.30000000E+00  8.00000000E-01
  1.50000000E+00  1.70000000E+00  1.70000000E+00  1.30000000E+00  1.70000000E+00
  1.70000000E+00  1.70000000E+00  1.70000000E+00  1.70000000E+00  1.70000000E+00
  1.30000000E+00  1.55000000E+00  1.70000000E+00  1.70000000E+00  1.70000000E+00
  1.70000000E+00  1.50000000E+00  1.70000000E+00  1.70000000E+00  1.50000000E+00
  1.70000000E+00  1.70000000E+00  1.50000000E+00  1.50000000E+00  1.70000000E+00
  1.50000000E+00  1.70000000E+00  1.50000000E+00  1.70000000E+00  1.50000000E+00
  1.30000000E+00  1.30000000E+00  1.30000000E+00  1.30000000E+00  1.30000000E+00
  1.30000000E+00  1.30000000E+00  1.30000000E+00  1.30000000E+00  1.30000000E+00
  1.30000000E+00  1.30000000E+00  1.30000000E+00  1.30000000E+00  1.30000000E+00
  1.30000000E+00  8.00000000E-01  1.30000000E+00  1.30000000E+00  1.30000000E+00
  8.00000000E-01  1.30000000E+00  8.00000000E-01  1.30000000E+00  8.00000000E-01
  1.50000000E+00  1.70000000E+00  1.70000000E+00  1.30000000E+00  1.70000000E+00
  1.70000000E+00  1.70000000E+00  1.70000000E+00  1.70000000E+00  1.70000000E+00
  1.30000000E+00  1.55000000E+00  1.70000000E+00  1.70000000E+00  1.70000000E+00
  1.70000000E+00  1.50000000E+00  1.70000000E+00  1.70000000E+00  1.50000000E+00
  1.70000000E+00  1.70000000E+00  1.50000000E+00  1.50000000E+00  1.70000000E+00
  1.50000000E+00  1.70000000E+00  1.50000000E+00  1.70000000E+00  1.50000000E+00
  1.30000000E+00  1.30000000E+00  1.30000000E+00  1.30000000E+00  1.30000000E+00
  1.30000000E+00  1.30000000E+00  1.30000000E+00  1.30000000E+00  1.30000000E+00
  1.30000000E+00  1.30000000E+00  1.30000000E+00  1.30000000E+00  1.30000000E+00
  1.30000000E+00  8.00000000E-01  1.30000000E+00  1.30000000E+00  1.30000000E+00
  8.00000000E-01  1.30000000E+00  8.00000000E-01  1.30000000E+00  8.00000000E-01
  1.50000000E+00  1.70000000E+00  1.70000000E+00  1.30000000E+00  1.70000000E+00
  1.70000000E+00  1.70000000E+00  1.70000000E+00  1.70000000E+00  1.70000000E+00
  1.30000000E+00  1.55000000E+00  1.70000000E+00  1.70000000E+00  1.70000000E+00
  1.70000000E+00  1.50000000E+00  1.70000000E+00  1.70000000E+00  1.50000000E+00
  1.70000000E+00  1.70000000E+00  1.50000000E+00  1.50000000E+00  1.70000000E+00
  1.50000000E+00  1.70000000E+00  1.50000000E+00  1.70000000E+00  1.50000000E+00
  1.30000000E+00  1.30000000E+00  1.30000000E+00  1.30000000E+00  1.30000000E+00
  1.30000000E+00  1.30000000E+00  1.30000000E+00  1.30000000E+00  1.30000000E+00
  1.30000000E+00  1.30000000E+00  1.30000000E+00  1.30000000E+00  1.30000000E+00
  1.30000000E+00  8.00000000E-01  1.30000000E+00  1.30000000E+00  1.30000000E+00
  8.00000000E-01  1.30000000E+00  8.00000000E-01  1.30000000E+00  8.00000000E-01
  1.50000000E+00  1.70000000E+00  1.70000000E+00  1.30000000E+00  1.70000000E+00
  1.70000000E+00  1.70000000E+00  1.70000000E+00  1.70000000E+00  1.70000000E+00
  1.30000000E+00  1.55000000E+00  1.70000000E+00  1.70000000E+00  1.70000000E+00
  1.70000000E+00  1.50000000E+00  1.70000000E+00  1.70000000E+00  1.50000000E+00
  1.70000000E+00  1.70000000E+00  1.50000000E+00  1.50000000E+00  1.70000000E+00
  1.50000000E+00  1.70000000E+00  1.50000000E+00  1.70000000E+00  1.50000000E+00
  1.30000000E+00  1.30000000E+00  1.30000000E+00  1.30000000E+00  1.30000000E+00
  1.30000000E+00  1.30000000E+00  1.30000000E+00  1.30000000E+00  1.30000000E+00
  1.30000000E+00  1.30000000E+00  1.30000000E+00  1.30000000E+00  1.30000000E+00
  1.30000000E+00  8.00000000E-01  1.30000000E+00  1.30000000E+00  1.30000000E+00
  8.00000000E-01  1.30000000E+00  8.00000000E-01  1.30000000E+00  8.00000000E-01
  1.50000000E+00  1.70000000E+00  1.70000000E+00  1.30000000E+00  1.70000000E+00
  1.70000000E+00  1.70000000E+00  1.70000000E+00  1.70000000E+00  1.70000000E+00
  1.30000000E+00  1.55000000E+00  1.70000000E+00  1.70000000E+00  1.70000000E+00
  1.70000000E+00  1.50000000E+00  1.70000000E+00  1.70000000E+00  1.50000000E+00
  1.70000000E+00  1.70000000E+00  1.50000000E+00  1.50000000E+00  1.70000000E+00
  1.50000000E+00  1.70000000E+00  1.50000000E+00  1.70000000E+00  1.50000000E+00
  1.30000000E+00  1.30000000E+00  1.30000000E+00  1.30000000E+00  1.30000000E+00
  1.30000000E+00  1.30000000E+00  1.30000000E+00  1.30000000E+00  1.30000000E+00
  1.30000000E+00  1.30000000E+00  1.30000000E+00  1.30000000E+00  1.30000000E+00
  1.30000000E+00  8.00000000E-01  1.30000000E+00  1.30000000E+00  1.30000000E+00
  8.00000000E-01  1.30000000E+00  8.00000000E-01  1.30000000E+00  8.00000000E-01
  1.50000000E+00  1.70000000E+00  1.70000000E+00  1.30000000E+00  1.70000000E+00
  1.70000000E+00  1.70000000E+00  1.70000000E+00  1.70000000E+00  1.70000000E+00
  1.30000000E+00  1.55000000E+00  1.70000000E+00  1.70000000E+00  1.70000000E+00
  1.70000000E+00  1.50000000E+00  1.70000000E+00  1.70000000E+00  1.50000000E+00
  1.70000000E+00  1.70000000E+00  1.50000000E+00  1.50000000E+00  1.70000000E+00
  1.50000000E+00  1.70000000E+00  1.50000000E+00  1.70000000E+00  1.50000000E+00
  1.30000000E+00  1.30000000E+00  1.30000000E+00  1.30000000E+00  1.30000000E+00
  1.30000000E+00  1.30000000E+00  1.30000000E+00  1.30000000E+00  1.30000000E+00
  1.30000000E+00  1.30000000E+00  1.30000000E+00  1.30000000E+00  1.30000000E+00
  1.30000000E+00  8.00000000E-01  1.30000000E+00  1.30000000E+00  1.30000000E+00
  8.00000000E-01  1.30000000E+00  8.00000000E-01  1.30000000E+00  8.00000000E-01
  1.70000000E+00  1.30000000E+00  1.30000000E+00  1.70000000E+00  1.30000000E+00
  1.30000000E+00  1.50000000E+00  1.70000000E+00  1.70000000E+00  1.30000000E+00
  1.70000000E+00  1.70000000E+00  1.70000000E+00  1.70000000E+00  1.70000000E+00
  1.70000000E+00  1.30000000E+00  1.55000000E+00  1.70000000E+00  1.70000000E+00
  1.70000000E+00  1.70000000E+00  1.50000000E+00  1.70000000E+00  1.70000000E+00
  1.50000000E+00  1.70000000E+00  1.70000000E+00  1.50000000E+00  1.50000000E+00
  1.70000000E+00  1.50000000E+00  1.70000000E+00  1.50000000E+00  1.70000000E+00
  1.50000000E+00  1.30000000E+00  1.30000000E+00  1.30000000E+00  1.30000000E+00
  1.30000000E+00  1.30000000E+00  1.30000000E+00  1.30000000E+00  1.30000000E+00
  1.30000000E+00  1.30000000E+00  1.30000000E+00  1.30000000E+00  1.30000000E+00
  1.30000000E+00  1.30000000E+00  8.00000000E-01  1.30000000E+00  1.30000000E+00
  1.30000000E+00  8.00000000E-01  1.30000000E+00  8.00000000E-01  1.30000000E+00
  8.00000000E-01  1.50000000E+00  1.70000000E+00  1.70000000E+00  1.30000000E+00
  1.70000000E+00  1.70000000E+00  1.70000000E+00  1.70000000E+00  1.70000000E+00
  1.70000000E+00  1.30000000E+00  1.55000000E+00  1.70000000E+00  1.70000000E+00
  1.70000000E+00  1.70000000E+00  1.50000000E+00  1.70000000E+00  1.70000000E+00
  1.50000000E+00  1.70000000E+00  1.70000000E+00  1.50000000E+00  1.50000000E+00
  1.70000000E+00  1.50000000E+00  1.70000000E+00  1.50000000E+00  1.70000000E+00
  1.50000000E+00  1.30000000E+00  1.30000000E+00  1.30000000E+00  1.30000000E+00
  1.30000000E+00  1.30000000E+00  1.30000000E+00  1.30000000E+00  1.30000000E+00
  1.30000000E+00  1.30000000E+00  1.30000000E+00  1.30000000E+00  1.30000000E+00
  1.30000000E+00  1.30000000E+00  8.00000000E-01  1.30000000E+00  1.30000000E+00
  1.30000000E+00  8.00000000E-01  1.30000000E+00  8.00000000E-01  1.30000000E+00
  8.00000000E-01  1.50000000E+00  1.70000000E+00  1.70000000E+00  1.30000000E+00
  1.70000000E+00  1.70000000E+00  1.70000000E+00  1.70000000E+00  1.70000000E+00
  1.70000000E+00  1.30000000E+00  1.55000000E+00  1.70000000E+00  1.70000000E+00
  1.70000000E+00  1.70000000E+00  1.50000000E+00  1.70000000E+00  1.70000000E+00
  1.50000000E+00  1.70000000E+00  1.70000000E+00  1.50000000E+00  1.50000000E+00
  1.70000000E+00  1.50000000E+00  1.70000000E+00  1.50000000E+00  1.70000000E+00
  1.50000000E+00  1.30000000E+00  1.30000000E+00  1.30000000E+00  1.30000000E+00
  1.30000000E+00  1.30000000E+00  1.30000000E+00  1.30000000E+00  1.30000000E+00
  1.30000000E+00  1.30000000E+00  1.30000000E+00  1.30000000E+00  1.30000000E+00
  1.30000000E+00  1.30000000E+00  8.00000000E-01  1.30000000E+00  1.30000000E+00
  1.30000000E+00  8.00000000E-01  1.30000000E+00  8.00000000E-01  1.30000000E+00
  8.00000000E-01  1.50000000E+00  1.70000000E+00  1.70000000E+00  1.30000000E+00
  1.70000000E+00  1.70000000E+00  1.70000000E+00  1.70000000E+00  1.70000000E+00
  1.70000000E+00  1.30000000E+00  1.55000000E+00  1.70000000E+00  1.70000000E+00
  1.70000000E+00  1.70000000E+00  1.50000000E+00  1.70000000E+00  1.70000000E+00
  1.50000000E+00  1.70000000E+00  1.70000000E+00  1.50000000E+00  1.50000000E+00
  1.70000000E+00  1.50000000E+00  1.70000000E+00  1.50000000E+00  1.70000000E+00
  1.50000000E+00  1.30000000E+00  1.30000000E+00  1.30000000E+00  1.30000000E+00
  1.30000000E+00  1.30000000E+00  1.30000000E+00  1.30000000E+00  1.30000000E+00
  1.30000000E+00  1.30000000E+00  1.30000000E+00  1.30000000E+00  1.30000000E+00
  1.30000000E+00  1.30000000E+00  8.00000000E-01  1.30000000E+00  1.30000000E+00
  1.30000000E+00  8.00000000E-01  1.30000000E+00  8.00000000E-01  1.30000000E+00
  8.00000000E-01  1.50000000E+00  1.70000000E+00  1.70000000E+00  1.30000000E+00
  1.70000000E+00  1.70000000E+00  1.70000000E+00  1.70000000E+00  1.70000000E+00
  1.70000000E+00  1.30000000E+00  1.55000000E+00  1.70000000E+00  1.70000000E+00
  1.70000000E+00  1.70000000E+00  1.50000000E+00  1.70000000E+00  1.70000000E+00
  1.50000000E+00  1.70000000E+00  1.70000000E+00  1.50000000E+00  1.50000000E+00
  1.70000000E+00  1.50000000E+00  1.70000000E+00  1.50000000E+00  1.70000000E+00
  1.50000000E+00  1.30000000E+00  1.30000000E+00  1.30000000E+00  1.30000000E+00
  1.30000000E+00  1.30000000E+00  1.30000000E+00  1.30000000E+00  1.30000000E+00
  1.30000000E+00  1.30000000E+00  1.30000000E+00  1.30000000E+00  1.30000000E+00
  1.30000000E+00  1.30000000E+00  8.00000000E-01  1.30000000E+00  1.30000000E+00
  1.30000000E+00  8.00000000E-01  1.30000000E+00  8.00000000E-01  1.30000000E+00
  8.00000000E-01  1.50000000E+00  1.70000000E+00  1.70000000E+00  1.30000000E+00
  1.70000000E+00  1.70000000E+00  1.70000000E+00  1.70000000E+00  1.70000000E+00
  1.70000000E+00  1.30000000E+00  1.55000000E+00  1.70000000E+00  1.70000000E+00
  1.70000000E+00  1.70000000E+00  1.50000000E+00  1.70000000E+00  1.70000000E+00
  1.50000000E+00  1.70000000E+00  1.70000000E+00  1.50000000E+00  1.50000000E+00
  1.70000000E+00  1.50000000E+00  1.70000000E+00  1.50000000E+00  1.70000000E+00
  1.50000000E+00  1.30000000E+00  1.30000000E+00  1.30000000E+00  1.30000000E+00
  1.30000000E+00  1.30000000E+00  1.30000000E+00  1.30000000E+00  1.30000000E+00
  1.30000000E+00  1.30000000E+00  1.30000000E+00  1.30000000E+00  1.30000000E+00
  1.30000000E+00  1.30000000E+00  8.00000000E-01  1.30000000E+00  1.30000000E+00
  1.30000000E+00  8.00000000E-01  1.30000000E+00  8.00000000E-01  1.30000000E+00
  8.00000000E-01  1.50000000E+00  1.70000000E+00  1.70000000E+00  1.30000000E+00
  1.70000000E+00  1.70000000E+00  1.70000000E+00  1.70000000E+00  1.70000000E+00
  1.70000000E+00  1.30000000E+00  1.55000000E+00  1.70000000E+00  1.70000000E+00
  1.70000000E+00  1.70000000E+00  1.50000000E+00  1.70000000E+00  1.70000000E+00
  1.50000000E+00  1.70000000E+00  1.70000000E+00  1.50000000E+00  1.50000000E+00
  1.70000000E+00  1.50000000E+00  1.70000000E+00  1.50000000E+00  1.70000000E+00
  1.50000000E+00  1.30000000E+00  1.30000000E+00  1.30000000E+00  1.30000000E+00
  1.30000000E+00  1.30000000E+00  1.30000000E+00  1.30000000E+00  1.30000000E+00
  1.30000000E+00  1.30000000E+00  1.30000000E+00  1.30000000E+00  1.30000000E+00
  1.30000000E+00  1.30000000E+00  8.00000000E-01  1.30000000E+00  1.30000000E+00
  1.30000000E+00  8.00000000E-01  1.30000000E+00  8.00000000E-01  1.30000000E+00
  8.00000000E-01  1.50000000E+00  1.70000000E+00  1.70000000E+00  1.30000000E+00
  1.70000000E+00  1.70000000E+00  1.70000000E+00  1.70000000E+00  1.70000000E+00
  1.70000000E+00  1.30000000E+00  1.55000000E+00  1.70000000E+00  1.70000000E+00
  1.70000000E+00  1.70000000E+00  1.50000000E+00  1.70000000E+00  1.70000000E+00
  1.50000000E+00  1.70000000E+00  1.70000000E+00  1.50000000E+00  1.50000000E+00
  1.70000000E+00  1.50000000E+00  1.70000000E+00  1.50000000E+00  1.70000000E+00
  1.50000000E+00  1.30000000E+00  1.30000000E+00  1.30000000E+00  1.30000000E+00
  1.30000000E+00  1.30000000E+00  1.30000000E+00  1.30000000E+00  1.30000000E+00
  1.30000000E+00  1.30000000E+00  1.30000000E+00  1.30000000E+00  1.30000000E+00
  1.30000000E+00  1.30000000E+00  8.00000000E-01  1.30000000E+00  1.30000000E+00
  1.30000000E+00  8.00000000E-01  1.30000000E+00  8.00000000E-01  1.30000000E+00
  8.00000000E-01  1.50000000E+00  1.70000000E+00  1.70000000E+00  1.30000000E+00
  1.70000000E+00  1.70000000E+00  1.70000000E+00  1.70000000E+00  1.70000000E+00
  1.70000000E+00  1.30000000E+00  1.55000000E+00  1.70000000E+00  1.70000000E+00
  1.70000000E+00  1.70000000E+00  1.50000000E+00  1.70000000E+00  1.70000000E+00
  1.50000000E+00  1.70000000E+00  1.70000000E+00  1.50000000E+00  1.50000000E+00
  1.70000000E+00  1.50000000E+00  1.70000000E+00  1.50000000E+00  1.70000000E+00
  1.50000000E+00  1.30000000E+00  1.30000000E+00  1.30000000E+00  1.30000000E+00
  1.30000000E+00  1.30000000E+00  1.30000000E+00  1.30000000E+00  1.30000000E+00
  1.30000000E+00  1.30000000E+00  1.30000000E+00  1.30000000E+00  1.30000000E+00
  1.30000000E+00  1.30000000E+00  8.00000000E-01  1.30000000E+00  1.30000000E+00
  1.30000000E+00  8.00000000E-01  1.30000000E+00  8.00000000E-01  1.30000000E+00
  8.00000000E-01  1.50000000E+00  1.70000000E+00  1.70000000E+00  1.30000000E+00
  1.70000000E+00  1.70000000E+00  1.70000000E+00  1.70000000E+00  1.70000000E+00
  1.70000000E+00  1.30000000E+00  1.55000000E+00  1.70000000E+00  1.70000000E+00
  1.70000000E+00  1.70000000E+00  1.50000000E+00  1.70000000E+00  1.70000000E+00
  1.50000000E+00  1.70000000E+00  1.70000000E+00  1.50000000E+00  1.50000000E+00
  1.70000000E+00  1.50000000E+00  1.70000000E+00  1.50000000E+00  1.70000000E+00
  1.50000000E+00  1.30000000E+00  1.30000000E+00  1.30000000E+00  1.30000000E+00
  1.30000000E+00  1.30000000E+00  1.30000000E+00  1.30000000E+00  1.30000000E+00
  1.30000000E+00  1.30000000E+00  1.30000000E+00  1.30000000E+00  1.30000000E+00
  1.30000000E+00  1.30000000E+00  8.00000000E-01  1.30000000E+00  1.30000000E+00
  1.30000000E+00  8.00000000E-01  1.30000000E+00  8.00000000E-01  1.30000000E+00
  8.00000000E-01  1.70000000E+00  1.30000000E+00  1.30000000E+00  1.70000000E+00
  1.30000000E+00  1.30000000E+00  1.50000000E+00  1.70000000E+00  1.70000000E+00
  1.30000000E+00  1.70000000E+00  1.70000000E+00  1.70000000E+00  1.70000000E+00
  1.70000000E+00  1.70000000E+00  1.30000000E+00  1.55000000E+00  1.70000000E+00
  1.70000000E+00  1.70000000E+00  1.70000000E+00  1.50000000E+00  1.70000000E+00
  1.70000000E+00  1.50000000E+00  1.70000000E+00  1.70000000E+00  1.50000000E+00
  1.50000000E+00  1.70000000E+00  1.50000000E+00  1.70000000E+00  1.50000000E+00
  1.70000000E+00  1.50000000E+00  1.30000000E+00  1.30000000E+00  1.30000000E+00
  1.30000000E+00  1.30000000E+00  1.30000000E+00  1.30000000E+00  1.30000000E+00
  1.30000000E+00  1.30000000E+00  1.30000000E+00  1.30000000E+00  1.30000000E+00
  1.30000000E+00  1.30000000E+00  1.30000000E+00  8.00000000E-01  1.30000000E+00
  1.30000000E+00  1.30000000E+00  8.00000000E-01  1.30000000E+00  8.00000000E-01
  1.30000000E+00  8.00000000E-01  1.50000000E+00  1.70000000E+00  1.70000000E+00
  1.30000000E+00  1.70000000E+00  1.70000000E+00  1.70000000E+00  1.70000000E+00
  1.70000000E+00  1.70000000E+00  1.30000000E+00  1.55000000E+00  1.70000000E+00
  1.70000000E+00  1.70000000E+00  1.70000000E+00  1.50000000E+00  1.70000000E+00
  1.70000000E+00  1.50000000E+00  1.70000000E+00  1.70000000E+00  1.50000000E+00
  1.50000000E+00  1.70000000E+00  1.50000000E+00  1.70000000E+00  1.50000000E+00
  1.70000000E+00  1.50000000E+00  1.30000000E+00  1.30000000E+00  1.30000000E+00
  1.30000000E+00  1.30000000E+00  1.30000000E+00  1.30000000E+00  1.30000000E+00
  1.30000000E+00  1.30000000E+00  1.30000000E+00  1.30000000E+00  1.30000000E+00
  1.30000000E+00  1.30000000E+00  1.30000000E+00  8.00000000E-01  1.30000000E+00
  1.30000000E+00  1.30000000E+00  8.00000000E-01  1.30000000E+00  8.00000000E-01
  1.30000000E+00  8.00000000E-01  1.50000000E+00  1.70000000E+00  1.70000000E+00
  1.30000000E+00  1.70000000E+00  1.70000000E+00  1.70000000E+00  1.70000000E+00
  1.70000000E+00  1.70000000E+00  1.30000000E+00  1.55000000E+00  1.70000000E+00
  1.70000000E+00  1.70000000E+00  1.70000000E+00  1.50000000E+00  1.70000000E+00
  1.70000000E+00  1.50000000E+00  1.70000000E+00  1.70000000E+00  1.50000000E+00
  1.50000000E+00  1.70000000E+00  1.50000000E+00  1.70000000E+00  1.50000000E+00
  1.70000000E+00  1.50000000E+00  1.30000000E+00  1.30000000E+00  1.30000000E+00
  1.30000000E+00  1.30000000E+00  1.30000000E+00  1.30000000E+00  1.30000000E+00
  1.30000000E+00  1.30000000E+00  1.30000000E+00  1.30000000E+00  1.30000000E+00
  1.30000000E+00  1.30000000E+00  1.30000000E+00  8.00000000E-01  1.30000000E+00
  1.30000000E+00  1.30000000E+00  8.00000000E-01  1.30000000E+00  8.00000000E-01
  1.30000000E+00  8.00000000E-01  1.50000000E+00  1.70000000E+00  1.70000000E+00
  1.30000000E+00  1.70000000E+00  1.70000000E+00  1.70000000E+00  1.70000000E+00
  1.70000000E+00  1.70000000E+00  1.30000000E+00  1.55000000E+00  1.70000000E+00
  1.70000000E+00  1.70000000E+00  1.70000000E+00  1.50000000E+00  1.70000000E+00
  1.70000000E+00  1.50000000E+00  1.70000000E+00  1.70000000E+00  1.50000000E+00
  1.50000000E+00  1.70000000E+00  1.50000000E+00  1.70000000E+00  1.50000000E+00
  1.70000000E+00  1.50000000E+00  1.30000000E+00  1.30000000E+00  1.30000000E+00
  1.30000000E+00  1.30000000E+00  1.30000000E+00  1.30000000E+00  1.30000000E+00
  1.30000000E+00  1.30000000E+00  1.30000000E+00  1.30000000E+00  1.30000000E+00
  1.30000000E+00  1.30000000E+00  1.30000000E+00  8.00000000E-01  1.30000000E+00
  1.30000000E+00  1.30000000E+00  8.00000000E-01  1.30000000E+00  8.00000000E-01
  1.30000000E+00  8.00000000E-01  1.50000000E+00  1.70000000E+00  1.70000000E+00
  1.30000000E+00  1.70000000E+00  1.70000000E+00  1.70000000E+00  1.70000000E+00
  1.70000000E+00  1.70000000E+00  1.30000000E+00  1.55000000E+00  1.70000000E+00
  1.70000000E+00  1.70000000E+00  1.70000000E+00  1.50000000E+00  1.70000000E+00
  1.70000000E+00  1.50000000E+00  1.70000000E+00  1.70000000E+00  1.50000000E+00
  1.50000000E+00  1.70000000E+00  1.50000000E+00  1.70000000E+00  1.50000000E+00
  1.70000000E+00  1.50000000E+00  1.30000000E+00  1.30000000E+00  1.30000000E+00
  1.30000000E+00  1.30000000E+00  1.30000000E+00  1.30000000E+00  1.30000000E+00
  1.30000000E+00  1.30000000E+00  1.30000000E+00  1.30000000E+00  1.30000000E+00
  1.30000000E+00  1.30000000E+00  1.30000000E+00  8.00000000E-01  1.30000000E+00
  1.30000000E+00  1.30000000E+00  8.00000000E-01  1.30000000E+00  8.00000000E-01
  1.30000000E+00  8.00000000E-01  1.50000000E+00  1.70000000E+00  1.70000000E+00
  1.30000000E+00  1.70000000E+00  1.70000000E+00  1.70000000E+00  1.70000000E+00
  1.70000000E+00  1.70000000E+00  1.30000000E+00  1.55000000E+00  1.70000000E+00
  1.70000000E+00  1.70000000E+00  1.70000000E+00  1.50000000E+00  1.70000000E+00
  1.70000000E+00  1.50000000E+00  1.70000000E+00  1.70000000E+00  1.50000000E+00
  1.50000000E+00  1.70000000E+00  1.50000000E+00  1.70000000E+00  1.50000000E+00
  1.70000000E+00  1.50000000E+00  1.30000000E+00  1.30000000E+00  1.30000000E+00
  1.30000000E+00  1.30000000E+00  1.30000000E+00  1.30000000E+00  1.30000000E+00
  1.30000000E+00  1.30000000E+00  1.30000000E+00  1.30000000E+00  1.30000000E+00
  1.30000000E+00  1.30000000E+00  1.30000000E+00  8.00000000E-01  1.30000000E+00
  1.30000000E+00  1.30000000E+00  8.00000000E-01  1.30000000E+00  8.00000000E-01
  1.30000000E+00  8.00000000E-01  1.50000000E+00  1.70000000E+00  1.70000000E+00
  1.30000000E+00  1.70000000E+00  1.70000000E+00  1.70000000E+00  1.70000000E+00
  1.70000000E+00  1.70000000E+00  1.30000000E+00  1.55000000E+00  1.70000000E+00
  1.70000000E+00  1.70000000E+00  1.70000000E+00  1.50000000E+00  1.70000000E+00
  1.70000000E+00  1.50000000E+00  1.70000000E+00  1.70000000E+00  1.50000000E+00
  1.50000000E+00  1.70000000E+00  1.50000000E+00  1.70000000E+00  1.50000000E+00
  1.70000000E+00  1.50000000E+00  1.30000000E+00  1.30000000E+00  1.30000000E+00
  1.30000000E+00  1.30000000E+00  1.30000000E+00  1.30000000E+00  1.30000000E+00
  1.30000000E+00  1.30000000E+00  1.30000000E+00  1.30000000E+00  1.30000000E+00
  1.30000000E+00  1.30000000E+00  1.30000000E+00  8.00000000E-01  1.30000000E+00
  1.30000000E+00  1.30000000E+00  8.00000000E-01  1.30000000E+00  8.00000000E-01
  1.30000000E+00  8.00000000E-01  1.50000000E+00  1.70000000E+00  1.70000000E+00
  1.30000000E+00  1.70000000E+00  1.70000000E+00  1.70000000E+00  1.70000000E+00
  1.70000000E+00  1.70000000E+00  1.30000000E+00  1.55000000E+00  1.70000000E+00
  1.70000000E+00  1.70000000E+00  1.70000000E+00  1.50000000E+00  1.70000000E+00
  1.70000000E+00  1.50000000E+00  1.70000000E+00  1.70000000E+00  1.50000000E+00
  1.50000000E+00  1.70000000E+00  1.50000000E+00  1.70000000E+00  1.50000000E+00
  1.70000000E+00  1.50000000E+00  1.30000000E+00  1.30000000E+00  1.30000000E+00
  1.30000000E+00  1.30000000E+00  1.30000000E+00  1.30000000E+00  1.30000000E+00
  1.30000000E+00  1.30000000E+00  1.30000000E+00  1.30000000E+00  1.30000000E+00
  1.30000000E+00  1.30000000E+00  1.30000000E+00  8.00000000E-01  1.30000000E+00
  1.30000000E+00  1.30000000E+00  8.00000000E-01  1.30000000E+00  8.00000000E-01
  1.30000000E+00  8.00000000E-01  1.50000000E+00  1.70000000E+00  1.70000000E+00
  1.30000000E+00  1.70000000E+00  1.70000000E+00  1.70000000E+00  1.70000000E+00
  1.70000000E+00  1.70000000E+00  1.30000000E+00  1.55000000E+00  1.70000000E+00
  1.70000000E+00  1.70000000E+00  1.70000000E+00  1.50000000E+00  1.70000000E+00
  1.70000000E+00  1.50000000E+00  1.70000000E+00  1.70000000E+00  1.50000000E+00
  1.50000000E+00  1.70000000E+00  1.50000000E+00  1.70000000E+00  1.50000000E+00
  1.70000000E+00  1.50000000E+00  1.30000000E+00  1.30000000E+00  1.30000000E+00
  1.30000000E+00  1.30000000E+00  1.30000000E+00  1.30000000E+00  1.30000000E+00
  1.30000000E+00  1.30000000E+00  1.30000000E+00  1.30000000E+00  1.30000000E+00
  1.30000000E+00  1.30000000E+00  1.30000000E+00  8.00000000E-01  1.30000000E+00
  1.30000000E+00  1.30000000E+00  8.00000000E-01  1.30000000E+00  8.00000000E-01
  1.30000000E+00  8.00000000E-01  1.50000000E+00  1.70000000E+00  1.70000000E+00
  1.30000000E+00  1.70000000E+00  1.70000000E+00  1.70000000E+00  1.70000000E+00
  1.70000000E+00  1.70000000E+00  1.30000000E+00  1.55000000E+00  1.70000000E+00
  1.70000000E+00  1.70000000E+00  1.70000000E+00  1.50000000E+00  1.70000000E+00
  1.70000000E+00  1.50000000E+00  1.70000000E+00  1.70000000E+00  1.50000000E+00
  1.50000000E+00  1.70000000E+00  1.50000000E+00  1.70000000E+00  1.50000000E+00
  1.70000000E+00  1.50000000E+00  1.30000000E+00  1.30000000E+00  1.30000000E+00
  1.30000000E+00  1.30000000E+00  1.30000000E+00  1.30000000E+00  1.30000000E+00
  1.30000000E+00  1.30000000E+00  1.30000000E+00  1.30000000E+00  1.30000000E+00
  1.30000000E+00  1.30000000E+00  1.30000000E+00  8.00000000E-01  1.30000000E+00
  1.30000000E+00  1.30000000E+00  8.00000000E-01  1.30000000E+00  8.00000000E-01
  1.30000000E+00  8.00000000E-01  1.70000000E+00  1.30000000E+00  1.30000000E+00
  1.50000000E+00  8.00000000E-01  8.00000000E-01  1.50000000E+00  8.00000000E-01
  8.00000000E-01  1.50000000E+00  8.00000000E-01  8.00000000E-01  1.50000000E+00
  8.00000000E-01  8.00000000E-01  1.50000000E+00  8.00000000E-01  8.00000000E-01
  1.50000000E+00  8.00000000E-01  8.00000000E-01  1.50000000E+00  8.00000000E-01
  8.00000000E-01  1.50000000E+00  8.00000000E-01  8.00000000E-01  1.50000000E+00
  8.00000000E-01  8.00000000E-01  1.50000000E+00  8.00000000E-01  8.00000000E-01
  1.50000000E+00  8.00000000E-01  8.00000000E-01  1.50000000E+00  8.00000000E-01
  8.00000000E-01  1.50000000E+00  8.00000000E-01  8.00000000E-01  1.50000000E+00
  8.00000000E-01  8.00000000E-01  1.50000000E+00  8.00000000E-01  8.00000000E-01
  1.50000000E+00  8.00000000E-01  8.00000000E-01  1.50000000E+00  8.00000000E-01
  8.00000000E-01  1.50000000E+00  8.00000000E-01  8.00000000E-01  1.50000000E+00
  8.00000000E-01  8.00000000E-01  1.50000000E+00  8.00000000E-01  8.00000000E-01
  1.50000000E+00  8.00000000E-01  8.00000000E-01  1.50000000E+00  8.00000000E-01
  8.00000000E-01  1.50000000E+00  8.00000000E-01  8.00000000E-01  1.50000000E+00
  8.00000000E-01  8.00000000E-01  1.50000000E+00  8.00000000E-01  8.00000000E-01
  1.50000000E+00  8.00000000E-01  8.00000000E-01  1.50000000E+00  8.00000000E-01
  8.00000000E-01  1.50000000E+00  8.00000000E-01  8.00000000E-01  1.50000000E+00
  8.00000000E-01  8.00000000E-01  1.50000000E+00  8.00000000E-01  8.00000000E-01
  1.50000000E+00  8.00000000E-01  8.00000000E-01  1.50000000E+00  8.00000000E-01
  8.00000000E-01  1.50000000E+00  8.00000000E-01  8.00000000E-01  1.50000000E+00
  8.00000000E-01  8.00000000E-01  1.50000000E+00  8.00000000E-01  8.00000000E-01
  1.50000000E+00  8.00000000E-01  8.00000000E-01  1.50000000E+00  8.00000000E-01
  8.00000000E-01  1.50000000E+00  8.00000000E-01  8.00000000E-01  1.50000000E+00
  8.00000000E-01  8.00000000E-01  1.50000000E+00  8.00000000E-01  8.00000000E-01
  1.50000000E+00  8.00000000E-01  8.00000000E-01  1.50000000E+00  8.00000000E-01
  8.00000000E-01  1.50000000E+00  8.00000000E-01  8.00000000E-01  1.50000000E+00
  8.00000000E-01  8.00000000E-01  1.50000000E+00  8.00000000E-01  8.00000000E-01
  1.50000000E+00  8.00000000E-01  8.00000000E-01  1.50000000E+00  8.00000000E-01
  8.00000000E-01  1.50000000E+00  8.00000000E-01  8.00000000E-01  1.50000000E+00
  8.00000000E-01  8.00000000E-01  1.50000000E+00  8.00000000E-01  8.00000000E-01
  1.50000000E+00  8.00000000E-01  8.00000000E-01  1.50000000E+00  8.00000000E-01
  8.00000000E-01  1.50000000E+00  8.00000000E-01  8.00000000E-01  1.50000000E+00
  8.00000000E-01  8.00000000E-01  1.50000000E+00  8.00000000E-01  8.00000000E-01
  1.50000000E+00  8.00000000E-01  8.00000000E-01  1.50000000E+00  8.00000000E-01
  8.00000000E-01  1.50000000E+00  8.00000000E-01  8.00000000E-01  1.50000000E+00
  8.00000000E-01  8.00000000E-01  1.50000000E+00  8.00000000E-01  8.00000000E-01
  1.50000000E+00  8.00000000E-01  8.00000000E-01  1.50000000E+00  8.00000000E-01
  8.00000000E-01  1.50000000E+00  8.00000000E-01  8.00000000E-01  1.50000000E+00
  8.00000000E-01  8.00000000E-01  1.50000000E+00  8.00000000E-01  8.00000000E-01
  1.50000000E+00  8.00000000E-01  8.00000000E-01  1.50000000E+00  8.00000000E-01
  8.00000000E-01  1.50000000E+00  8.00000000E-01  8.00000000E-01  1.50000000E+00
  8.00000000E-01  8.00000000E-01  1.50000000E+00  8.00000000E-01  8.00000000E-01
  1.50000000E+00  8.00000000E-01  8.00000000E-01  1.50000000E+00  8.00000000E-01
  8.00000000E-01  1.50000000E+00  8.00000000E-01  8.00000000E-01  1.50000000E+00
  8.00000000E-01  8.00000000E-01  1.50000000E+00  8.00000000E-01  8.00000000E-01
  1.50000000E+00  8.00000000E-01  8.00000000E-01  1.50000000E+00  8.00000000E-01
  8.00000000E-01  1.50000000E+00  8.00000000E-01  8.00000000E-01  1.50000000E+00
  8.00000000E-01  8.00000000E-01  1.50000000E+00  8.00000000E-01  8.00000000E-01
  1.50000000E+00  8.00000000E-01  8.00000000E-01  1.50000000E+00  8.00000000E-01
  8.00000000E-01  1.50000000E+00  8.00000000E-01  8.00000000E-01  1.50000000E+00
  8.00000000E-01  8.00000000E-01  1.50000000E+00  8.00000000E-01  8.00000000E-01
  1.50000000E+00  8.00000000E-01  8.00000000E-01  1.50000000E+00  8.00000000E-01
  8.00000000E-01  1.50000000E+00  8.00000000E-01  8.00000000E-01  1.50000000E+00
  8.00000000E-01  8.00000000E-01  1.50000000E+00  8.00000000E-01  8.00000000E-01
  1.50000000E+00  8.00000000E-01  8.00000000E-01  1.50000000E+00  8.00000000E-01
  8.00000000E-01  1.50000000E+00  8.00000000E-01  8.00000000E-01  1.50000000E+00
  8.00000000E-01  8.00000000E-01  1.50000000E+00  8.00000000E-01  8.00000000E-01
  1.50000000E+00  8.00000000E-01  8.00000000E-01  1.50000000E+00  8.00000000E-01
  8.00000000E-01  1.50000000E+00  8.00000000E-01  8.00000000E-01  1.50000000E+00
  8.00000000E-01  8.00000000E-01  1.50000000E+00  8.00000000E-01  8.00000000E-01
  1.50000000E+00  8.00000000E-01  8.00000000E-01  1.50000000E+00  8.00000000E-01
  8.00000000E-01  1.50000000E+00  8.00000000E-01  8.00000000E-01  1.50000000E+00
  8.00000000E-01  8.00000000E-01  1.50000000E+00  8.00000000E-01  8.00000000E-01
  1.50000000E+00  8.00000000E-01  8.00000000E-01  1.50000000E+00  8.00000000E-01
  8.00000000E-01  1.50000000E+00  8.00000000E-01  8.00000000E-01  1.50000000E+00
  8.00000000E-01  8.00000000E-01  1.50000000E+00  8.00000000E-01  8.00000000E-01
  1.50000000E+00  8.00000000E-01  8.00000000E-01  1.50000000E+00  8.00000000E-01
  8.00000000E-01  1.50000000E+00  8.00000000E-01  8.00000000E-01  1.50000000E+00
  8.00000000E-01  8.00000000E-01  1.50000000E+00  8.00000000E-01  8.00000000E-01
  1.50000000E+00  8.00000000E-01  8.00000000E-01  1.50000000E+00  8.00000000E-01
  8.00000000E-01  1.50000000E+00  8.00000000E-01  8.00000000E-01  1.50000000E+00
  8.00000000E-01  8.00000000E-01  1.50000000E+00  8.00000000E-01  8.00000000E-01
  1.50000000E+00  8.00000000E-01  8.00000000E-01  1.50000000E+00  8.00000000E-01
  8.00000000E-01  1.50000000E+00  8.00000000E-01  8.00000000E-01  1.50000000E+00
  8.00000000E-01  8.00000000E-01  1.50000000E+00  8.00000000E-01  8.00000000E-01
  1.50000000E+00  8.00000000E-01  8.00000000E-01  1.50000000E+00  8.00000000E-01
  8.00000000E-01  1.50000000E+00  8.00000000E-01  8.00000000E-01  1.50000000E+00
  8.00000000E-01  8.00000000E-01  1.50000000E+00  8.00000000E-01  8.00000000E-01
  1.50000000E+00  8.00000000E-01  8.00000000E-01  1.50000000E+00  8.00000000E-01
  8.00000000E-01  1.50000000E+00  8.00000000E-01  8.00000000E-01  1.50000000E+00
  8.00000000E-01  8.00000000E-01  1.50000000E+00  8.00000000E-01  8.00000000E-01
  1.50000000E+00  8.00000000E-01  8.00000000E-01  1.50000000E+00  8.00000000E-01
  8.00000000E-01  1.50000000E+00  8.00000000E-01  8.00000000E-01  1.50000000E+00
  8.00000000E-01  8.00000000E-01  1.50000000E+00  8.00000000E-01  8.00000000E-01
  1.50000000E+00  8.00000000E-01  8.00000000E-01  1.50000000E+00  8.00000000E-01
  8.00000000E-01  1.50000000E+00  8.00000000E-01  8.00000000E-01  1.50000000E+00
  8.00000000E-01  8.00000000E-01  1.50000000E+00  8.00000000E-01  8.00000000E-01
  1.50000000E+00  8.00000000E-01  8.00000000E-01  1.50000000E+00  8.00000000E-01
  8.00000000E-01  1.50000000E+00  8.00000000E-01  8.00000000E-01  1.50000000E+00
  8.00000000E-01  8.00000000E-01  1.50000000E+00  8.00000000E-01  8.00000000E-01
  1.50000000E+00  8.00000000E-01  8.00000000E-01  1.50000000E+00  8.00000000E-01
  8.00000000E-01  1.50000000E+00  8.00000000E-01  8.00000000E-01  1.50000000E+00
  8.00000000E-01  8.00000000E-01  1.50000000E+00  8.00000000E-01  8.00000000E-01
  1.50000000E+00  8.00000000E-01  8.00000000E-01  1.50000000E+00  8.00000000E-01
  8.00000000E-01  1.50000000E+00  8.00000000E-01  8.00000000E-01  1.50000000E+00
  8.00000000E-01  8.00000000E-01  1.50000000E+00  8.00000000E-01  8.00000000E-01
  1.50000000E+00  8.00000000E-01  8.00000000E-01  1.50000000E+00  8.00000000E-01
  8.00000000E-01  1.50000000E+00  8.00000000E-01  8.00000000E-01  1.50000000E+00
  8.00000000E-01  8.00000000E-01  1.50000000E+00  8.00000000E-01  8.00000000E-01
  1.50000000E+00  8.00000000E-01  8.00000000E-01  1.50000000E+00  8.00000000E-01
  8.00000000E-01  1.50000000E+00  8.00000000E-01  8.00000000E-01  1.50000000E+00
  8.00000000E-01  8.00000000E-01  1.50000000E+00  8.00000000E-01  8.00000000E-01
  1.50000000E+00  8.00000000E-01  8.00000000E-01  1.50000000E+00  8.00000000E-01
  8.00000000E-01  1.50000000E+00  8.00000000E-01  8.00000000E-01  1.50000000E+00
  8.00000000E-01  8.00000000E-01  1.50000000E+00  8.00000000E-01  8.00000000E-01
  1.50000000E+00  8.00000000E-01  8.00000000E-01  1.50000000E+00  8.00000000E-01
  8.00000000E-01  1.50000000E+00  8.00000000E-01  8.00000000E-01  1.50000000E+00
  8.00000000E-01  8.00000000E-01  1.50000000E+00  8.00000000E-01  8.00000000E-01
  1.50000000E+00  8.00000000E-01  8.00000000E-01  1.50000000E+00  8.00000000E-01
  8.00000000E-01  1.50000000E+00  8.00000000E-01  8.00000000E-01  1.50000000E+00
  8.00000000E-01  8.00000000E-01  1.50000000E+00  8.00000000E-01  8.00000000E-01
  1.50000000E+00  8.00000000E-01  8.00000000E-01  1.50000000E+00  8.00000000E-01
  8.00000000E-01  1.50000000E+00  8.00000000E-01  8.00000000E-01  1.50000000E+00
  8.00000000E-01  8.00000000E-01  1.50000000E+00  8.00000000E-01  8.00000000E-01
  1.50000000E+00  8.00000000E-01  8.00000000E-01  1.50000000E+00  8.00000000E-01
  8.00000000E-01  1.50000000E+00  8.00000000E-01  8.00000000E-01  1.50000000E+00
  8.00000000E-01  8.00000000E-01  1.50000000E+00  8.00000000E-01  8.00000000E-01
  1.50000000E+00  8.00000000E-01  8.00000000E-01  1.50000000E+00  8.00000000E-01
  8.00000000E-01  1.50000000E+00  8.00000000E-01  8.00000000E-01  1.50000000E+00
  8.00000000E-01  8.00000000E-01  1.50000000E+00  8.00000000E-01  8.00000000E-01
  1.50000000E+00  8.00000000E-01  8.00000000E-01  1.50000000E+00  8.00000000E-01
  8.00000000E-01  1.50000000E+00  8.00000000E-01  8.00000000E-01  1.50000000E+00
  8.00000000E-01  8.00000000E-01  1.50000000E+00  8.00000000E-01  8.00000000E-01
  1.50000000E+00  8.00000000E-01  8.00000000E-01  1.50000000E+00  8.00000000E-01
  8.00000000E-01  1.50000000E+00  8.00000000E-01  8.00000000E-01  1.50000000E+00
  8.00000000E-01  8.00000000E-01  1.50000000E+00  8.00000000E-01  8.00000000E-01
  1.50000000E+00  8.00000000E-01  8.00000000E-01  1.50000000E+00  8.00000000E-01
  8.00000000E-01  1.50000000E+00  8.00000000E-01  8.00000000E-01  1.50000000E+00
  8.00000000E-01  8.00000000E-01  1.50000000E+00  8.00000000E-01  8.00000000E-01
  1.50000000E+00  8.00000000E-01  8.00000000E-01  1.50000000E+00  8.00000000E-01
  8.00000000E-01  1.50000000E+00  8.00000000E-01  8.00000000E-01  1.50000000E+00
  8.00000000E-01  8.00000000E-01  1.50000000E+00  8.00000000E-01  8.00000000E-01
  1.50000000E+00  8.00000000E-01  8.00000000E-01  1.50000000E+00  8.00000000E-01
  8.00000000E-01  1.50000000E+00  8.00000000E-01  8.00000000E-01  1.50000000E+00
  8.00000000E-01  8.00000000E-01  1.50000000E+00  8.00000000E-01  8.00000000E-01
  1.50000000E+00  8.00000000E-01  8.00000000E-01  1.50000000E+00  8.00000000E-01
  8.00000000E-01  1.50000000E+00  8.00000000E-01  8.00000000E-01  1.50000000E+00
  8.00000000E-01  8.00000000E-01  1.50000000E+00  8.00000000E-01  8.00000000E-01
  1.50000000E+00  8.00000000E-01  8.00000000E-01  1.50000000E+00  8.00000000E-01
  8.00000000E-01  1.50000000E+00  8.00000000E-01  8.00000000E-01  1.50000000E+00
  8.00000000E-01  8.00000000E-01  1.50000000E+00  8.00000000E-01  8.00000000E-01
  1.50000000E+00  8.00000000E-01  8.00000000E-01  1.50000000E+00  8.00000000E-01
  8.00000000E-01  1.50000000E+00  8.00000000E-01  8.00000000E-01  1.50000000E+00
  8.00000000E-01  8.00000000E-01  1.50000000E+00  8.00000000E-01  8.00000000E-01
  1.50000000E+00  8.00000000E-01  8.00000000E-01  1.50000000E+00  8.00000000E-01
  8.00000000E-01  1.50000000E+00  8.00000000E-01  8.00000000E-01  1.50000000E+00
  8.00000000E-01  8.00000000E-01  1.50000000E+00  8.00000000E-01  8.00000000E-01
  1.50000000E+00  8.00000000E-01  8.00000000E-01  1.50000000E+00  8.00000000E-01
  8.00000000E-01  1.50000000E+00  8.00000000E-01  8.00000000E-01  1.50000000E+00
  8.00000000E-01  8.00000000E-01  1.50000000E+00  8.00000000E-01  8.00000000E-01
  1.50000000E+00  8.00000000E-01  8.00000000E-01  1.50000000E+00  8.00000000E-01
  8.00000000E-01  1.50000000E+00  8.00000000E-01  8.00000000E-01  1.50000000E+00
  8.00000000E-01  8.00000000E-01  1.50000000E+00  8.00000000E-01  8.00000000E-01
  1.50000000E+00  8.00000000E-01  8.00000000E-01  1.50000000E+00  8.00000000E-01
  8.00000000E-01  1.50000000E+00  8.00000000E-01  8.00000000E-01  1.50000000E+00
  8.00000000E-01  8.00000000E-01  1.50000000E+00  8.00000000E-01  8.00000000E-01
  1.50000000E+00  8.00000000E-01  8.00000000E-01  1.50000000E+00  8.00000000E-01
  8.00000000E-01  1.50000000E+00  8.00000000E-01  8.00000000E-01  1.50000000E+00
  8.00000000E-01  8.00000000E-01  1.50000000E+00  8.00000000E-01  8.00000000E-01
  1.50000000E+00  8.00000000E-01  8.00000000E-01  1.50000000E+00  8.00000000E-01
  8.00000000E-01  1.50000000E+00  8.00000000E-01  8.00000000E-01  1.50000000E+00
  8.00000000E-01  8.00000000E-01  1.50000000E+00  8.00000000E-01  8.00000000E-01
  1.50000000E+00  8.00000000E-01  8.00000000E-01  1.50000000E+00  8.00000000E-01
  8.00000000E-01  1.50000000E+00  8.00000000E-01  8.00000000E-01  1.50000000E+00
  8.00000000E-01  8.00000000E-01  1.50000000E+00  8.00000000E-01  8.00000000E-01
  1.50000000E+00  8.00000000E-01  8.00000000E-01  1.50000000E+00  8.00000000E-01
  8.00000000E-01  1.50000000E+00  8.00000000E-01  8.00000000E-01  1.50000000E+00
  8.00000000E-01  8.00000000E-01  1.50000000E+00  8.00000000E-01  8.00000000E-01
  1.50000000E+00  8.00000000E-01  8.00000000E-01  1.50000000E+00  8.00000000E-01
  8.00000000E-01  1.50000000E+00  8.00000000E-01  8.00000000E-01  1.50000000E+00
  8.00000000E-01  8.00000000E-01  1.50000000E+00  8.00000000E-01  8.00000000E-01
  1.50000000E+00  8.00000000E-01  8.00000000E-01  1.50000000E+00  8.00000000E-01
  8.00000000E-01  1.50000000E+00  8.00000000E-01  8.00000000E-01  1.50000000E+00
  8.00000000E-01  8.00000000E-01  1.50000000E+00  8.00000000E-01  8.00000000E-01
  1.50000000E+00  8.00000000E-01  8.00000000E-01  1.50000000E+00  8.00000000E-01
  8.00000000E-01  1.50000000E+00  8.00000000E-01  8.00000000E-01  1.50000000E+00
  8.00000000E-01  8.00000000E-01  1.50000000E+00  8.00000000E-01  8.00000000E-01
  1.50000000E+00  8.00000000E-01  8.00000000E-01  1.50000000E+00  8.00000000E-01
  8.00000000E-01  1.50000000E+00  8.00000000E-01  8.00000000E-01  1.50000000E+00
  8.00000000E-01  8.00000000E-01  1.50000000E+00  8.00000000E-01  8.00000000E-01
  1.50000000E+00  8.00000000E-01  8.00000000E-01  1.50000000E+00  8.00000000E-01
  8.00000000E-01  1.50000000E+00  8.00000000E-01  8.00000000E-01  1.50000000E+00
  8.00000000E-01  8.00000000E-01  1.50000000E+00  8.00000000E-01  8.00000000E-01
  1.50000000E+00  8.00000000E-01  8.00000000E-01  1.50000000E+00  8.00000000E-01
  8.00000000E-01  1.50000000E+00  8.00000000E-01  8.00000000E-01  1.50000000E+00
  8.00000000E-01  8.00000000E-01  1.50000000E+00  8.00000000E-01  8.00000000E-01
  1.50000000E+00  8.00000000E-01  8.00000000E-01  1.50000000E+00  8.00000000E-01
  8.00000000E-01  1.50000000E+00  8.00000000E-01  8.00000000E-01  1.50000000E+00
  8.00000000E-01  8.00000000E-01  1.50000000E+00  8.00000000E-01  8.00000000E-01
  1.50000000E+00  8.00000000E-01  8.00000000E-01  1.50000000E+00  8.00000000E-01
  8.00000000E-01  1.50000000E+00  8.00000000E-01  8.00000000E-01  1.50000000E+00
  8.00000000E-01  8.00000000E-01  1.50000000E+00  8.00000000E-01  8.00000000E-01
  1.50000000E+00  8.00000000E-01  8.00000000E-01  1.50000000E+00  8.00000000E-01
  8.00000000E-01  1.50000000E+00  8.00000000E-01  8.00000000E-01  1.50000000E+00
  8.00000000E-01  8.00000000E-01  1.50000000E+00  8.00000000E-01  8.00000000E-01
  1.50000000E+00  8.00000000E-01  8.00000000E-01  1.50000000E+00  8.00000000E-01
  8.00000000E-01  1.50000000E+00  8.00000000E-01  8.00000000E-01  1.50000000E+00
  8.00000000E-01  8.00000000E-01  1.50000000E+00  8.00000000E-01  8.00000000E-01
  1.50000000E+00  8.00000000E-01  8.00000000E-01  1.50000000E+00  8.00000000E-01
  8.00000000E-01  1.50000000E+00  8.00000000E-01  8.00000000E-01  1.50000000E+00
  8.00000000E-01  8.00000000E-01  1.50000000E+00  8.00000000E-01  8.00000000E-01
  1.50000000E+00  8.00000000E-01  8.00000000E-01  1.50000000E+00  8.00000000E-01
  8.00000000E-01  1.50000000E+00  8.00000000E-01  8.00000000E-01  1.50000000E+00
  8.00000000E-01  8.00000000E-01  1.50000000E+00  8.00000000E-01  8.00000000E-01
  1.50000000E+00  8.00000000E-01  8.00000000E-01  1.50000000E+00  8.00000000E-01
  8.00000000E-01  1.50000000E+00  8.00000000E-01  8.00000000E-01  1.50000000E+00
  8.00000000E-01  8.00000000E-01  1.50000000E+00  8.00000000E-01  8.00000000E-01
  1.50000000E+00  8.00000000E-01  8.00000000E-01  1.50000000E+00  8.00000000E-01
  8.00000000E-01  1.50000000E+00  8.00000000E-01  8.00000000E-01  1.50000000E+00
  8.00000000E-01  8.00000000E-01  1.50000000E+00  8.00000000E-01  8.00000000E-01
  1.50000000E+00  8.00000000E-01  8.00000000E-01  1.50000000E+00  8.00000000E-01
  8.00000000E-01  1.50000000E+00  8.00000000E-01  8.00000000E-01  1.50000000E+00
  8.00000000E-01  8.00000000E-01  1.50000000E+00  8.00000000E-01  8.00000000E-01
  1.50000000E+00  8.00000000E-01  8.00000000E-01  1.50000000E+00  8.00000000E-01
  8.00000000E-01  1.50000000E+00  8.00000000E-01  8.00000000E-01  1.50000000E+00
  8.00000000E-01  8.00000000E-01  1.50000000E+00  8.00000000E-01  8.00000000E-01
  1.50000000E+00  8.00000000E-01  8.00000000E-01  1.50000000E+00  8.00000000E-01
  8.00000000E-01  1.50000000E+00  8.00000000E-01  8.00000000E-01  1.50000000E+00
  8.00000000E-01  8.00000000E-01  1.50000000E+00  8.00000000E-01  8.00000000E-01
  1.50000000E+00  8.00000000E-01  8.00000000E-01  1.50000000E+00  8.00000000E-01
  8.00000000E-01  1.50000000E+00  8.00000000E-01  8.00000000E-01  1.50000000E+00
  8.00000000E-01  8.00000000E-01  1.50000000E+00  8.00000000E-01  8.00000000E-01
  1.50000000E+00  8.00000000E-01  8.00000000E-01  1.50000000E+00  8.00000000E-01
  8.00000000E-01  1.50000000E+00  8.00000000E-01  8.00000000E-01  1.50000000E+00
  8.00000000E-01  8.00000000E-01  1.50000000E+00  8.00000000E-01  8.00000000E-01
  1.50000000E+00  8.00000000E-01  8.00000000E-01  1.50000000E+00  8.00000000E-01
  8.00000000E-01  1.50000000E+00  8.00000000E-01  8.00000000E-01  1.50000000E+00
  8.00000000E-01  8.00000000E-01  1.50000000E+00  8.00000000E-01  8.00000000E-01
  1.50000000E+00  8.00000000E-01  8.00000000E-01  1.50000000E+00  8.00000000E-01
  8.00000000E-01  1.50000000E+00  8.00000000E-01  8.00000000E-01  1.50000000E+00
  8.00000000E-01  8.00000000E-01  1.50000000E+00  8.00000000E-01  8.00000000E-01
  1.50000000E+00  8.00000000E-01  8.00000000E-01  1.50000000E+00  8.00000000E-01
  8.00000000E-01  1.50000000E+00  8.00000000E-01  8.00000000E-01  1.50000000E+00
  8.00000000E-01  8.00000000E-01  1.50000000E+00  8.00000000E-01  8.00000000E-01
  1.50000000E+00  8.00000000E-01  8.00000000E-01  1.50000000E+00  8.00000000E-01
  8.00000000E-01  1.50000000E+00  8.00000000E-01  8.00000000E-01  1.50000000E+00
  8.00000000E-01  8.00000000E-01  1.50000000E+00  8.00000000E-01  8.00000000E-01
  1.50000000E+00  8.00000000E-01  8.00000000E-01  1.50000000E+00  8.00000000E-01
  8.00000000E-01  1.50000000E+00  8.00000000E-01  8.00000000E-01  1.50000000E+00
  8.00000000E-01  8.00000000E-01  1.50000000E+00  8.00000000E-01  8.00000000E-01
  1.50000000E+00  8.00000000E-01  8.00000000E-01  1.50000000E+00  8.00000000E-01
  8.00000000E-01  1.50000000E+00  8.00000000E-01  8.00000000E-01  1.50000000E+00
  8.00000000E-01  8.00000000E-01  1.50000000E+00  8.00000000E-01  8.00000000E-01
  1.50000000E+00  8.00000000E-01  8.00000000E-01  1.50000000E+00  8.00000000E-01
  8.00000000E-01  1.50000000E+00  8.00000000E-01  8.00000000E-01  1.50000000E+00
  8.00000000E-01  8.00000000E-01  1.50000000E+00  8.00000000E-01  8.00000000E-01
  1.50000000E+00  8.00000000E-01  8.00000000E-01  1.50000000E+00  8.00000000E-01
  8.00000000E-01  1.50000000E+00  8.00000000E-01  8.00000000E-01  1.50000000E+00
  8.00000000E-01  8.00000000E-01  1.50000000E+00  8.00000000E-01  8.00000000E-01
  1.50000000E+00  8.00000000E-01  8.00000000E-01  1.50000000E+00  8.00000000E-01
  8.00000000E-01  1.50000000E+00  8.00000000E-01  8.00000000E-01  1.50000000E+00
  8.00000000E-01  8.00000000E-01  1.50000000E+00  8.00000000E-01  8.00000000E-01
  1.50000000E+00  8.00000000E-01  8.00000000E-01  1.50000000E+00  8.00000000E-01
  8.00000000E-01  1.50000000E+00  8.00000000E-01  8.00000000E-01  1.50000000E+00
  8.00000000E-01  8.00000000E-01  1.50000000E+00  8.00000000E-01  8.00000000E-01
  1.50000000E+00  8.00000000E-01  8.00000000E-01  1.50000000E+00  8.00000000E-01
  8.00000000E-01  1.50000000E+00  8.00000000E-01  8.00000000E-01  1.50000000E+00
  8.00000000E-01  8.00000000E-01  1.50000000E+00  8.00000000E-01  8.00000000E-01
  1.50000000E+00  8.00000000E-01  8.00000000E-01  1.50000000E+00  8.00000000E-01
  8.00000000E-01  1.50000000E+00  8.00000000E-01  8.00000000E-01  1.50000000E+00
  8.00000000E-01  8.00000000E-01  1.50000000E+00  8.00000000E-01  8.00000000E-01
  1.50000000E+00  8.00000000E-01  8.00000000E-01  1.50000000E+00  8.00000000E-01
  8.00000000E-01  1.50000000E+00  8.00000000E-01  8.00000000E-01  1.50000000E+00
  8.00000000E-01  8.00000000E-01  1.50000000E+00  8.00000000E-01  8.00000000E-01
  1.50000000E+00  8.00000000E-01  8.00000000E-01  1.50000000E+00  8.00000000E-01
  8.00000000E-01  1.50000000E+00  8.00000000E-01  8.00000000E-01  1.50000000E+00
  8.00000000E-01  8.00000000E-01  1.50000000E+00  8.00000000E-01  8.00000000E-01
  1.50000000E+00  8.00000000E-01  8.00000000E-01  1.50000000E+00  8.00000000E-01
  8.00000000E-01  1.50000000E+00  8.00000000E-01  8.00000000E-01  1.50000000E+00
  8.00000000E-01  8.00000000E-01  1.50000000E+00  8.00000000E-01  8.00000000E-01
  1.50000000E+00  8.00000000E-01  8.00000000E-01  1.50000000E+00  8.00000000E-01
  8.00000000E-01  1.50000000E+00  8.00000000E-01  8.00000000E-01  1.50000000E+00
  8.00000000E-01  8.00000000E-01  1.50000000E+00  8.00000000E-01  8.00000000E-01
  1.50000000E+00  8.00000000E-01  8.00000000E-01  1.50000000E+00  8.00000000E-01
  8.00000000E-01  1.50000000E+00  8.00000000E-01  8.00000000E-01  1.50000000E+00
  8.00000000E-01  8.00000000E-01  1.50000000E+00  8.00000000E-01  8.00000000E-01
  1.50000000E+00  8.00000000E-01  8.00000000E-01  1.50000000E+00  8.00000000E-01
  8.00000000E-01  1.50000000E+00  8.00000000E-01  8.00000000E-01  1.50000000E+00
  8.00000000E-01  8.00000000E-01  1.50000000E+00  8.00000000E-01  8.00000000E-01
  1.50000000E+00  8.00000000E-01  8.00000000E-01  1.50000000E+00  8.00000000E-01
  8.00000000E-01  1.50000000E+00  8.00000000E-01  8.00000000E-01  1.50000000E+00
  8.00000000E-01  8.00000000E-01  1.50000000E+00  8.00000000E-01  8.00000000E-01
  1.50000000E+00  8.00000000E-01  8.00000000E-01  1.50000000E+00  8.00000000E-01
  8.00000000E-01  1.50000000E+00  8.00000000E-01  8.00000000E-01  1.50000000E+00
  8.00000000E-01  8.00000000E-01  1.50000000E+00  8.00000000E-01  8.00000000E-01
  1.50000000E+00  8.00000000E-01  8.00000000E-01  1.50000000E+00  8.00000000E-01
  8.00000000E-01  1.50000000E+00  8.00000000E-01  8.00000000E-01  1.50000000E+00
  8.00000000E-01  8.00000000E-01  1.50000000E+00  8.00000000E-01  8.00000000E-01
  1.50000000E+00  8.00000000E-01  8.00000000E-01  1.50000000E+00  8.00000000E-01
  8.00000000E-01  1.50000000E+00  8.00000000E-01  8.00000000E-01  1.50000000E+00
  8.00000000E-01  8.00000000E-01  1.50000000E+00  8.00000000E-01  8.00000000E-01
  1.50000000E+00  8.00000000E-01  8.00000000E-01  1.50000000E+00  8.00000000E-01
  8.00000000E-01  1.50000000E+00  8.00000000E-01  8.00000000E-01  1.50000000E+00
  8.00000000E-01  8.00000000E-01  1.50000000E+00  8.00000000E-01  8.00000000E-01
  1.50000000E+00  8.00000000E-01  8.00000000E-01  1.50000000E+00  8.00000000E-01
  8.00000000E-01  1.50000000E+00  8.00000000E-01  8.00000000E-01  1.50000000E+00
  8.00000000E-01  8.00000000E-01  1.50000000E+00  8.00000000E-01  8.00000000E-01
  1.50000000E+00  8.00000000E-01  8.00000000E-01  1.50000000E+00  8.00000000E-01
  8.00000000E-01  1.50000000E+00  8.00000000E-01  8.00000000E-01  1.50000000E+00
  8.00000000E-01  8.00000000E-01  1.50000000E+00  8.00000000E-01  8.00000000E-01
  1.50000000E+00  8.00000000E-01  8.00000000E-01  1.50000000E+00  8.00000000E-01
  8.00000000E-01  1.50000000E+00  8.00000000E-01  8.00000000E-01  1.50000000E+00
  8.00000000E-01  8.00000000E-01  1.50000000E+00  8.00000000E-01  8.00000000E-01
  1.50000000E+00  8.00000000E-01  8.00000000E-01  1.50000000E+00  8.00000000E-01
  8.00000000E-01  1.50000000E+00  8.00000000E-01  8.00000000E-01  1.50000000E+00
  8.00000000E-01  8.00000000E-01  1.50000000E+00  8.00000000E-01  8.00000000E-01
  1.50000000E+00  8.00000000E-01  8.00000000E-01  1.50000000E+00  8.00000000E-01
  8.00000000E-01  1.50000000E+00  8.00000000E-01  8.00000000E-01  1.50000000E+00
  8.00000000E-01  8.00000000E-01  1.50000000E+00  8.00000000E-01  8.00000000E-01
  1.50000000E+00  8.00000000E-01  8.00000000E-01  1.50000000E+00  8.00000000E-01
  8.00000000E-01  1.50000000E+00  8.00000000E-01  8.00000000E-01  1.50000000E+00
  8.00000000E-01  8.00000000E-01  1.50000000E+00  8.00000000E-01  8.00000000E-01
  1.50000000E+00  8.00000000E-01  8.00000000E-01  1.50000000E+00  8.00000000E-01
  8.00000000E-01  1.50000000E+00  8.00000000E-01  8.00000000E-01  1.50000000E+00
  8.00000000E-01  8.00000000E-01  1.50000000E+00  8.00000000E-01  8.00000000E-01
  1.50000000E+00  8.00000000E-01  8.00000000E-01  1.50000000E+00  8.00000000E-01
  8.00000000E-01  1.50000000E+00  8.00000000E-01  8.00000000E-01  1.50000000E+00
  8.00000000E-01  8.00000000E-01  1.50000000E+00  8.00000000E-01  8.00000000E-01
  1.50000000E+00  8.00000000E-01  8.00000000E-01  1.50000000E+00  8.00000000E-01
  8.00000000E-01  1.50000000E+00  8.00000000E-01  8.00000000E-01  1.50000000E+00
  8.00000000E-01  8.00000000E-01  1.50000000E+00  8.00000000E-01  8.00000000E-01
  1.50000000E+00  8.00000000E-01  8.00000000E-01  1.50000000E+00  8.00000000E-01
  8.00000000E-01  1.50000000E+00  8.00000000E-01  8.00000000E-01  1.50000000E+00
  8.00000000E-01  8.00000000E-01  1.50000000E+00  8.00000000E-01  8.00000000E-01
  1.50000000E+00  8.00000000E-01  8.00000000E-01  1.50000000E+00  8.00000000E-01
  8.00000000E-01  1.50000000E+00  8.00000000E-01  8.00000000E-01  1.50000000E+00
  8.00000000E-01  8.00000000E-01  1.50000000E+00  8.00000000E-01  8.00000000E-01
  1.50000000E+00  8.00000000E-01  8.00000000E-01  1.50000000E+00  8.00000000E-01
  8.00000000E-01  1.50000000E+00  8.00000000E-01  8.00000000E-01  1.50000000E+00
  8.00000000E-01  8.00000000E-01  1.50000000E+00  8.00000000E-01  8.00000000E-01
  1.50000000E+00  8.00000000E-01  8.00000000E-01  1.50000000E+00  8.00000000E-01
  8.00000000E-01  1.50000000E+00  8.00000000E-01  8.00000000E-01  1.50000000E+00
  8.00000000E-01  8.00000000E-01  1.50000000E+00  8.00000000E-01  8.00000000E-01
  1.50000000E+00  8.00000000E-01  8.00000000E-01  1.50000000E+00  8.00000000E-01
  8.00000000E-01  1.50000000E+00  8.00000000E-01  8.00000000E-01  1.50000000E+00
  8.00000000E-01  8.00000000E-01  1.50000000E+00  8.00000000E-01  8.00000000E-01
  1.50000000E+00  8.00000000E-01  8.00000000E-01  1.50000000E+00  8.00000000E-01
  8.00000000E-01  1.50000000E+00  8.00000000E-01  8.00000000E-01  1.50000000E+00
  8.00000000E-01  8.00000000E-01  1.50000000E+00  8.00000000E-01  8.00000000E-01
  1.50000000E+00  8.00000000E-01  8.00000000E-01  1.50000000E+00  8.00000000E-01
  8.00000000E-01  1.50000000E+00  8.00000000E-01  8.00000000E-01  1.50000000E+00
  8.00000000E-01  8.00000000E-01  1.50000000E+00  8.00000000E-01  8.00000000E-01
  1.50000000E+00  8.00000000E-01  8.00000000E-01  1.50000000E+00  8.00000000E-01
  8.00000000E-01  1.50000000E+00  8.00000000E-01  8.00000000E-01  1.50000000E+00
  8.00000000E-01  8.00000000E-01  1.50000000E+00  8.00000000E-01  8.00000000E-01
  1.50000000E+00  8.00000000E-01  8.00000000E-01  1.50000000E+00  8.00000000E-01
  8.00000000E-01  1.50000000E+00  8.00000000E-01  8.00000000E-01  1.50000000E+00
  8.00000000E-01  8.00000000E-01  1.50000000E+00  8.00000000E-01  8.00000000E-01
  1.50000000E+00  8.00000000E-01  8.00000000E-01  1.50000000E+00  8.00000000E-01
  8.00000000E-01  1.50000000E+00  8.00000000E-01  8.00000000E-01  1.50000000E+00
  8.00000000E-01  8.00000000E-01  1.50000000E+00  8.00000000E-01  8.00000000E-01
  1.50000000E+00  8.00000000E-01  8.00000000E-01  1.50000000E+00  8.00000000E-01
  8.00000000E-01  1.50000000E+00  8.00000000E-01  8.00000000E-01  1.50000000E+00
  8.00000000E-01  8.00000000E-01  1.50000000E+00  8.00000000E-01  8.00000000E-01
  1.50000000E+00  8.00000000E-01  8.00000000E-01  1.50000000E+00  8.00000000E-01
  8.00000000E-01  1.50000000E+00  8.00000000E-01  8.00000000E-01  1.50000000E+00
  8.00000000E-01  8.00000000E-01  1.50000000E+00  8.00000000E-01  8.00000000E-01
  1.50000000E+00  8.00000000E-01  8.00000000E-01  1.50000000E+00  8.00000000E-01
  8.00000000E-01  1.50000000E+00  8.00000000E-01  8.00000000E-01  1.50000000E+00
  8.00000000E-01  8.00000000E-01  1.50000000E+00  8.00000000E-01  8.00000000E-01
  1.50000000E+00  8.00000000E-01  8.00000000E-01  1.50000000E+00  8.00000000E-01
  8.00000000E-01  1.50000000E+00  8.00000000E-01  8.00000000E-01  1.50000000E+00
  8.00000000E-01  8.00000000E-01  1.50000000E+00  8.00000000E-01  8.00000000E-01
  1.50000000E+00  8.00000000E-01  8.00000000E-01  1.50000000E+00  8.00000000E-01
  8.00000000E-01  1.50000000E+00  8.00000000E-01  8.00000000E-01  1.50000000E+00
  8.00000000E-01  8.00000000E-01  1.50000000E+00  8.00000000E-01  8.00000000E-01
  1.50000000E+00  8.00000000E-01  8.00000000E-01  1.50000000E+00  8.00000000E-01
  8.00000000E-01  1.50000000E+00  8.00000000E-01  8.00000000E-01  1.50000000E+00
  8.00000000E-01  8.00000000E-01  1.50000000E+00  8.00000000E-01  8.00000000E-01
  1.50000000E+00  8.00000000E-01  8.00000000E-01  1.50000000E+00  8.00000000E-01
  8.00000000E-01  1.50000000E+00  8.00000000E-01  8.00000000E-01  1.50000000E+00
  8.00000000E-01  8.00000000E-01  1.50000000E+00  8.00000000E-01  8.00000000E-01
  1.50000000E+00  8.00000000E-01  8.00000000E-01  1.50000000E+00  8.00000000E-01
  8.00000000E-01  1.50000000E+00  8.00000000E-01  8.00000000E-01  1.50000000E+00
  8.00000000E-01  8.00000000E-01  1.50000000E+00  8.00000000E-01  8.00000000E-01
  1.50000000E+00  8.00000000E-01  8.00000000E-01  1.50000000E+00  8.00000000E-01
  8.00000000E-01  1.50000000E+00  8.00000000E-01  8.00000000E-01  1.50000000E+00
  8.00000000E-01  8.00000000E-01  1.50000000E+00  8.00000000E-01  8.00000000E-01
  1.50000000E+00  8.00000000E-01  8.00000000E-01  1.50000000E+00  8.00000000E-01
  8.00000000E-01  1.50000000E+00  8.00000000E-01  8.00000000E-01  1.50000000E+00
  8.00000000E-01  8.00000000E-01  1.50000000E+00  8.00000000E-01  8.00000000E-01
  1.50000000E+00  8.00000000E-01  8.00000000E-01  1.50000000E+00  8.00000000E-01
  8.00000000E-01  1.50000000E+00  8.00000000E-01  8.00000000E-01  1.50000000E+00
  8.00000000E-01  8.00000000E-01  1.50000000E+00  8.00000000E-01  8.00000000E-01
  1.50000000E+00  8.00000000E-01  8.00000000E-01  1.50000000E+00  8.00000000E-01
  8.00000000E-01  1.50000000E+00  8.00000000E-01  8.00000000E-01  1.50000000E+00
  8.00000000E-01  8.00000000E-01  1.50000000E+00  8.00000000E-01  8.00000000E-01
  1.50000000E+00  8.00000000E-01  8.00000000E-01  1.50000000E+00  8.00000000E-01
  8.00000000E-01  1.50000000E+00  8.00000000E-01  8.00000000E-01  1.50000000E+00
  8.00000000E-01  8.00000000E-01  1.50000000E+00  8.00000000E-01  8.00000000E-01
  1.50000000E+00  8.00000000E-01  8.00000000E-01  1.50000000E+00  8.00000000E-01
  8.00000000E-01  1.50000000E+00  8.00000000E-01  8.00000000E-01  1.50000000E+00
  8.00000000E-01  8.00000000E-01  1.50000000E+00  8.00000000E-01  8.00000000E-01
  1.50000000E+00  8.00000000E-01  8.00000000E-01  1.50000000E+00  8.00000000E-01
  8.00000000E-01  1.50000000E+00  8.00000000E-01  8.00000000E-01  1.50000000E+00
  8.00000000E-01  8.00000000E-01  1.50000000E+00  8.00000000E-01  8.00000000E-01
  1.50000000E+00  8.00000000E-01  8.00000000E-01  1.50000000E+00  8.00000000E-01
  8.00000000E-01  1.50000000E+00  8.00000000E-01  8.00000000E-01  1.50000000E+00
  8.00000000E-01  8.00000000E-01  1.50000000E+00  8.00000000E-01  8.00000000E-01
  1.50000000E+00  8.00000000E-01  8.00000000E-01  1.50000000E+00  8.00000000E-01
  8.00000000E-01  1.50000000E+00  8.00000000E-01  8.00000000E-01  1.50000000E+00
  8.00000000E-01  8.00000000E-01  1.50000000E+00  8.00000000E-01  8.00000000E-01
  1.50000000E+00  8.00000000E-01  8.00000000E-01  1.50000000E+00  8.00000000E-01
  8.00000000E-01  1.50000000E+00  8.00000000E-01  8.00000000E-01  1.50000000E+00
  8.00000000E-01  8.00000000E-01  1.50000000E+00  8.00000000E-01  8.00000000E-01
  1.50000000E+00  8.00000000E-01  8.00000000E-01  1.50000000E+00  8.00000000E-01
  8.00000000E-01  1.50000000E+00  8.00000000E-01  8.00000000E-01  1.50000000E+00
  8.00000000E-01  8.00000000E-01  1.50000000E+00  8.00000000E-01  8.00000000E-01
  1.50000000E+00  8.00000000E-01  8.00000000E-01  1.50000000E+00  8.00000000E-01
  8.00000000E-01  1.50000000E+00  8.00000000E-01  8.00000000E-01  1.50000000E+00
  8.00000000E-01  8.00000000E-01  1.50000000E+00  8.00000000E-01  8.00000000E-01
  1.50000000E+00  8.00000000E-01  8.00000000E-01  1.50000000E+00  8.00000000E-01
  8.00000000E-01  1.50000000E+00  8.00000000E-01  8.00000000E-01  1.50000000E+00
  8.00000000E-01  8.00000000E-01  1.50000000E+00  8.00000000E-01  8.00000000E-01
  1.50000000E+00  8.00000000E-01  8.00000000E-01  1.50000000E+00  8.00000000E-01
  8.00000000E-01  1.50000000E+00  8.00000000E-01  8.00000000E-01  1.50000000E+00
  8.00000000E-01  8.00000000E-01  1.50000000E+00  8.00000000E-01  8.00000000E-01
  1.50000000E+00  8.00000000E-01  8.00000000E-01  1.50000000E+00  8.00000000E-01
  8.00000000E-01  1.50000000E+00  8.00000000E-01  8.00000000E-01  1.50000000E+00
  8.00000000E-01  8.00000000E-01  1.50000000E+00  8.00000000E-01  8.00000000E-01
  1.50000000E+00  8.00000000E-01  8.00000000E-01  1.50000000E+00  8.00000000E-01
  8.00000000E-01  1.50000000E+00  8.00000000E-01  8.00000000E-01  1.50000000E+00
  8.00000000E-01  8.00000000E-01  1.50000000E+00  8.00000000E-01  8.00000000E-01
  1.50000000E+00  8.00000000E-01  8.00000000E-01  1.50000000E+00  8.00000000E-01
  8.00000000E-01  1.50000000E+00  8.00000000E-01  8.00000000E-01  1.50000000E+00
  8.00000000E-01  8.00000000E-01  1.50000000E+00  8.00000000E-01  8.00000000E-01
  1.50000000E+00  8.00000000E-01  8.00000000E-01  1.50000000E+00  8.00000000E-01
  8.00000000E-01  1.50000000E+00  8.00000000E-01  8.00000000E-01  1.50000000E+00
  8.00000000E-01  8.00000000E-01  1.50000000E+00  8.00000000E-01  8.00000000E-01
  1.50000000E+00  8.00000000E-01  8.00000000E-01  1.50000000E+00  8.00000000E-01
  8.00000000E-01  1.50000000E+00  8.00000000E-01  8.00000000E-01  1.50000000E+00
  8.00000000E-01  8.00000000E-01  1.50000000E+00  8.00000000E-01  8.00000000E-01
  1.50000000E+00  8.00000000E-01  8.00000000E-01  1.50000000E+00  8.00000000E-01
  8.00000000E-01  1.50000000E+00  8.00000000E-01  8.00000000E-01  1.50000000E+00
  8.00000000E-01  8.00000000E-01  1.50000000E+00  8.00000000E-01  8.00000000E-01
  1.50000000E+00  8.00000000E-01  8.00000000E-01  1.50000000E+00  8.00000000E-01
  8.00000000E-01  1.50000000E+00  8.00000000E-01  8.00000000E-01  1.50000000E+00
  8.00000000E-01  8.00000000E-01  1.50000000E+00  8.00000000E-01  8.00000000E-01
  1.50000000E+00  8.00000000E-01  8.00000000E-01  1.50000000E+00  8.00000000E-01
  8.00000000E-01  1.50000000E+00  8.00000000E-01  8.00000000E-01  1.50000000E+00
  8.00000000E-01  8.00000000E-01  1.50000000E+00  8.00000000E-01  8.00000000E-01
  1.50000000E+00  8.00000000E-01  8.00000000E-01  1.50000000E+00  8.00000000E-01
  8.00000000E-01  1.50000000E+00  8.00000000E-01  8.00000000E-01  1.50000000E+00
  8.00000000E-01  8.00000000E-01  1.50000000E+00  8.00000000E-01  8.00000000E-01
  1.50000000E+00  8.00000000E-01  8.00000000E-01  1.50000000E+00  8.00000000E-01
  8.00000000E-01  1.50000000E+00  8.00000000E-01  8.00000000E-01  1.50000000E+00
  8.00000000E-01  8.00000000E-01  1.50000000E+00  8.00000000E-01  8.00000000E-01
  1.50000000E+00  8.00000000E-01  8.00000000E-01  1.50000000E+00  8.00000000E-01
  8.00000000E-01  1.50000000E+00  8.00000000E-01  8.00000000E-01  1.50000000E+00
  8.00000000E-01  8.00000000E-01  1.50000000E+00  8.00000000E-01  8.00000000E-01
  1.50000000E+00  8.00000000E-01  8.00000000E-01  1.50000000E+00  8.00000000E-01
  8.00000000E-01  1.50000000E+00  8.00000000E-01  8.00000000E-01  1.50000000E+00
  8.00000000E-01  8.00000000E-01  1.50000000E+00  8.00000000E-01  8.00000000E-01
  1.50000000E+00  8.00000000E-01  8.00000000E-01  1.50000000E+00  8.00000000E-01
  8.00000000E-01  1.50000000E+00  8.00000000E-01  8.00000000E-01  1.50000000E+00
  8.00000000E-01  8.00000000E-01  1.50000000E+00  8.00000000E-01  8.00000000E-01
  1.50000000E+00  8.00000000E-01  8.00000000E-01  1.50000000E+00  8.00000000E-01
  8.00000000E-01  1.50000000E+00  8.00000000E-01  8.00000000E-01  1.50000000E+00
  8.00000000E-01  8.00000000E-01  1.50000000E+00  8.00000000E-01  8.00000000E-01
  1.50000000E+00  8.00000000E-01  8.00000000E-01  1.50000000E+00  8.00000000E-01
  8.00000000E-01  1.50000000E+00  8.00000000E-01  8.00000000E-01  1.50000000E+00
  8.00000000E-01  8.00000000E-01  1.50000000E+00  8.00000000E-01  8.00000000E-01
  1.50000000E+00  8.00000000E-01  8.00000000E-01  1.50000000E+00  8.00000000E-01
  8.00000000E-01  1.50000000E+00  8.00000000E-01  8.00000000E-01  1.50000000E+00
  8.00000000E-01  8.00000000E-01  1.50000000E+00  8.00000000E-01  8.00000000E-01
  1.50000000E+00  8.00000000E-01  8.00000000E-01  1.50000000E+00  8.00000000E-01
  8.00000000E-01  1.50000000E+00  8.00000000E-01  8.00000000E-01  1.50000000E+00
  8.00000000E-01  8.00000000E-01  1.50000000E+00  8.00000000E-01  8.00000000E-01
  1.50000000E+00  8.00000000E-01  8.00000000E-01  1.50000000E+00  8.00000000E-01
  8.00000000E-01  1.50000000E+00  8.00000000E-01  8.00000000E-01  1.50000000E+00
  8.00000000E-01  8.00000000E-01  1.50000000E+00  8.00000000E-01  8.00000000E-01
  1.50000000E+00  8.00000000E-01  8.00000000E-01  1.50000000E+00  8.00000000E-01
  8.00000000E-01  1.50000000E+00  8.00000000E-01  8.00000000E-01  1.50000000E+00
  8.00000000E-01  8.00000000E-01  1.50000000E+00  8.00000000E-01  8.00000000E-01
  1.50000000E+00  8.00000000E-01  8.00000000E-01  1.50000000E+00  8.00000000E-01
  8.00000000E-01  1.50000000E+00  8.00000000E-01  8.00000000E-01  1.50000000E+00
  8.00000000E-01  8.00000000E-01  1.50000000E+00  8.00000000E-01  8.00000000E-01
  1.50000000E+00  8.00000000E-01  8.00000000E-01  1.50000000E+00  8.00000000E-01
  8.00000000E-01  1.50000000E+00  8.00000000E-01  8.00000000E-01  1.50000000E+00
  8.00000000E-01  8.00000000E-01  1.50000000E+00  8.00000000E-01  8.00000000E-01
  1.50000000E+00  8.00000000E-01  8.00000000E-01  1.50000000E+00  8.00000000E-01
  8.00000000E-01  1.50000000E+00  8.00000000E-01  8.00000000E-01  1.50000000E+00
  8.00000000E-01  8.00000000E-01  1.50000000E+00  8.00000000E-01  8.00000000E-01
  1.50000000E+00  8.00000000E-01  8.00000000E-01  1.50000000E+00  8.00000000E-01
  8.00000000E-01  1.50000000E+00  8.00000000E-01  8.00000000E-01  1.50000000E+00
  8.00000000E-01  8.00000000E-01  1.50000000E+00  8.00000000E-01  8.00000000E-01
  1.50000000E+00  8.00000000E-01  8.00000000E-01  1.50000000E+00  8.00000000E-01
  8.00000000E-01  1.50000000E+00  8.00000000E-01  8.00000000E-01  1.50000000E+00
  8.00000000E-01  8.00000000E-01  1.50000000E+00  8.00000000E-01  8.00000000E-01
  1.50000000E+00  8.00000000E-01  8.00000000E-01  1.50000000E+00  8.00000000E-01
  8.00000000E-01  1.50000000E+00  8.00000000E-01  8.00000000E-01  1.50000000E+00
  8.00000000E-01  8.00000000E-01  1.50000000E+00  8.00000000E-01  8.00000000E-01
  1.50000000E+00  8.00000000E-01  8.00000000E-01  1.50000000E+00  8.00000000E-01
  8.00000000E-01  1.50000000E+00  8.00000000E-01  8.00000000E-01  1.50000000E+00
  8.00000000E-01  8.00000000E-01  1.50000000E+00  8.00000000E-01  8.00000000E-01
  1.50000000E+00  8.00000000E-01  8.00000000E-01  1.50000000E+00  8.00000000E-01
  8.00000000E-01  1.50000000E+00  8.00000000E-01  8.00000000E-01  1.50000000E+00
  8.00000000E-01  8.00000000E-01  1.50000000E+00  8.00000000E-01  8.00000000E-01
  1.50000000E+00  8.00000000E-01  8.00000000E-01  1.50000000E+00  8.00000000E-01
  8.00000000E-01  1.50000000E+00  8.00000000E-01  8.00000000E-01  1.50000000E+00
  8.00000000E-01  8.00000000E-01  1.50000000E+00  8.00000000E-01  8.00000000E-01
  1.50000000E+00  8.00000000E-01  8.00000000E-01  1.50000000E+00  8.00000000E-01
  8.00000000E-01  1.50000000E+00  8.00000000E-01  8.00000000E-01  1.50000000E+00
  8.00000000E-01  8.00000000E-01  1.50000000E+00  8.00000000E-01  8.00000000E-01
  1.50000000E+00  8.00000000E-01  8.00000000E-01  1.50000000E+00  8.00000000E-01
  8.00000000E-01  1.50000000E+00  8.00000000E-01  8.00000000E-01  1.50000000E+00
  8.00000000E-01  8.00000000E-01  1.50000000E+00  8.00000000E-01  8.00000000E-01
  1.50000000E+00  8.00000000E-01  8.00000000E-01  1.50000000E+00  8.00000000E-01
  8.00000000E-01  1.50000000E+00  8.00000000E-01  8.00000000E-01  1.50000000E+00
  8.00000000E-01  8.00000000E-01  1.50000000E+00  8.00000000E-01  8.00000000E-01
  1.50000000E+00  8.00000000E-01  8.00000000E-01  1.50000000E+00  8.00000000E-01
  8.00000000E-01  1.50000000E+00  8.00000000E-01  8.00000000E-01  1.50000000E+00
  8.00000000E-01  8.00000000E-01  1.50000000E+00  8.00000000E-01  8.00000000E-01
  1.50000000E+00  8.00000000E-01  8.00000000E-01  1.50000000E+00  8.00000000E-01
  8.00000000E-01  1.50000000E+00  8.00000000E-01  8.00000000E-01  1.50000000E+00
  8.00000000E-01  8.00000000E-01  1.50000000E+00  8.00000000E-01  8.00000000E-01
  1.50000000E+00  8.00000000E-01  8.00000000E-01  1.50000000E+00  8.00000000E-01
  8.00000000E-01  1.50000000E+00  8.00000000E-01  8.00000000E-01  1.50000000E+00
  8.00000000E-01  8.00000000E-01  1.50000000E+00  8.00000000E-01  8.00000000E-01
  1.50000000E+00  8.00000000E-01  8.00000000E-01  1.50000000E+00  8.00000000E-01
  8.00000000E-01  1.50000000E+00  8.00000000E-01  8.00000000E-01  1.50000000E+00
  8.00000000E-01  8.00000000E-01  1.50000000E+00  8.00000000E-01  8.00000000E-01
  1.50000000E+00  8.00000000E-01  8.00000000E-01  1.50000000E+00  8.00000000E-01
  8.00000000E-01  1.50000000E+00  8.00000000E-01  8.00000000E-01  1.50000000E+00
  8.00000000E-01  8.00000000E-01  1.50000000E+00  8.00000000E-01  8.00000000E-01
  1.50000000E+00  8.00000000E-01  8.00000000E-01  1.50000000E+00  8.00000000E-01
  8.00000000E-01  1.50000000E+00  8.00000000E-01  8.00000000E-01  1.50000000E+00
  8.00000000E-01  8.00000000E-01  1.50000000E+00  8.00000000E-01  8.00000000E-01
  1.50000000E+00  8.00000000E-01  8.00000000E-01  1.50000000E+00  8.00000000E-01
  8.00000000E-01  1.50000000E+00  8.00000000E-01  8.00000000E-01  1.50000000E+00
  8.00000000E-01  8.00000000E-01  1.50000000E+00  8.00000000E-01  8.00000000E-01
  1.50000000E+00  8.00000000E-01  8.00000000E-01  1.50000000E+00  8.00000000E-01
  8.00000000E-01  1.50000000E+00  8.00000000E-01  8.00000000E-01  1.50000000E+00
  8.00000000E-01  8.00000000E-01  1.50000000E+00  8.00000000E-01  8.00000000E-01
  1.50000000E+00  8.00000000E-01  8.00000000E-01  1.50000000E+00  8.00000000E-01
  8.00000000E-01  1.50000000E+00  8.00000000E-01  8.00000000E-01  1.50000000E+00
  8.00000000E-01  8.00000000E-01  1.50000000E+00  8.00000000E-01  8.00000000E-01
  1.50000000E+00  8.00000000E-01  8.00000000E-01  1.50000000E+00  8.00000000E-01
  8.00000000E-01  1.50000000E+00  8.00000000E-01  8.00000000E-01  1.50000000E+00
  8.00000000E-01  8.00000000E-01  1.50000000E+00  8.00000000E-01  8.00000000E-01
  1.50000000E+00  8.00000000E-01  8.00000000E-01  1.50000000E+00  8.00000000E-01
  8.00000000E-01  1.50000000E+00  8.00000000E-01  8.00000000E-01  1.50000000E+00
  8.00000000E-01  8.00000000E-01  1.50000000E+00  8.00000000E-01  8.00000000E-01
  1.50000000E+00  8.00000000E-01  8.00000000E-01  1.50000000E+00  8.00000000E-01
  8.00000000E-01  1.50000000E+00  8.00000000E-01  8.00000000E-01  1.50000000E+00
  8.00000000E-01  8.00000000E-01  1.50000000E+00  8.00000000E-01  8.00000000E-01
  1.50000000E+00  8.00000000E-01  8.00000000E-01  1.50000000E+00  8.00000000E-01
  8.00000000E-01  1.50000000E+00  8.00000000E-01  8.00000000E-01  1.50000000E+00
  8.00000000E-01  8.00000000E-01  1.50000000E+00  8.00000000E-01  8.00000000E-01
  1.50000000E+00  8.00000000E-01  8.00000000E-01  1.50000000E+00  8.00000000E-01
  8.00000000E-01  1.50000000E+00  8.00000000E-01  8.00000000E-01  1.50000000E+00
  8.00000000E-01  8.00000000E-01  1.50000000E+00  8.00000000E-01  8.00000000E-01
  1.50000000E+00  8.00000000E-01  8.00000000E-01  1.50000000E+00  8.00000000E-01
  8.00000000E-01  1.50000000E+00  8.00000000E-01  8.00000000E-01  1.50000000E+00
  8.00000000E-01  8.00000000E-01  1.50000000E+00  8.00000000E-01  8.00000000E-01
  1.50000000E+00  8.00000000E-01  8.00000000E-01  1.50000000E+00  8.00000000E-01
  8.00000000E-01  1.50000000E+00  8.00000000E-01  8.00000000E-01  1.50000000E+00
  8.00000000E-01  8.00000000E-01  1.50000000E+00  8.00000000E-01  8.00000000E-01
  1.50000000E+00  8.00000000E-01  8.00000000E-01  1.50000000E+00  8.00000000E-01
  8.00000000E-01  1.50000000E+00  8.00000000E-01  8.00000000E-01  1.50000000E+00
  8.00000000E-01  8.00000000E-01  1.50000000E+00  8.00000000E-01  8.00000000E-01
  1.50000000E+00  8.00000000E-01  8.00000000E-01  1.50000000E+00  8.00000000E-01
  8.00000000E-01  1.50000000E+00  8.00000000E-01  8.00000000E-01  1.50000000E+00
  8.00000000E-01  8.00000000E-01  1.50000000E+00  8.00000000E-01  8.00000000E-01
  1.50000000E+00  8.00000000E-01  8.00000000E-01  1.50000000E+00  8.00000000E-01
  8.00000000E-01  1.50000000E+00  8.00000000E-01  8.00000000E-01  1.50000000E+00
  8.00000000E-01  8.00000000E-01  1.50000000E+00  8.00000000E-01  8.00000000E-01
  1.50000000E+00  8.00000000E-01  8.00000000E-01  1.50000000E+00  8.00000000E-01
  8.00000000E-01  1.50000000E+00  8.00000000E-01  8.00000000E-01  1.50000000E+00
  8.00000000E-01  8.00000000E-01  1.50000000E+00  8.00000000E-01  8.00000000E-01
  1.50000000E+00  8.00000000E-01  8.00000000E-01  1.50000000E+00  8.00000000E-01
  8.00000000E-01  1.50000000E+00  8.00000000E-01  8.00000000E-01  1.50000000E+00
  8.00000000E-01  8.00000000E-01  1.50000000E+00  8.00000000E-01  8.00000000E-01
  1.50000000E+00  8.00000000E-01  8.00000000E-01  1.50000000E+00  8.00000000E-01
  8.00000000E-01  1.50000000E+00  8.00000000E-01  8.00000000E-01  1.50000000E+00
  8.00000000E-01  8.00000000E-01  1.50000000E+00  8.00000000E-01  8.00000000E-01
  1.50000000E+00  8.00000000E-01  8.00000000E-01  1.50000000E+00  8.00000000E-01
  8.00000000E-01  1.50000000E+00  8.00000000E-01  8.00000000E-01  1.50000000E+00
  8.00000000E-01  8.00000000E-01  1.50000000E+00  8.00000000E-01  8.00000000E-01
  1.50000000E+00  8.00000000E-01  8.00000000E-01  1.50000000E+00  8.00000000E-01
  8.00000000E-01  1.50000000E+00  8.00000000E-01  8.00000000E-01  1.50000000E+00
  8.00000000E-01  8.00000000E-01  1.50000000E+00  8.00000000E-01  8.00000000E-01
  1.50000000E+00  8.00000000E-01  8.00000000E-01  1.50000000E+00  8.00000000E-01
  8.00000000E-01  1.50000000E+00  8.00000000E-01  8.00000000E-01  1.50000000E+00
  8.00000000E-01  8.00000000E-01  1.50000000E+00  8.00000000E-01  8.00000000E-01
  1.50000000E+00  8.00000000E-01  8.00000000E-01  1.50000000E+00  8.00000000E-01
  8.00000000E-01  1.50000000E+00  8.00000000E-01  8.00000000E-01  1.50000000E+00
  8.00000000E-01  8.00000000E-01  1.50000000E+00  8.00000000E-01  8.00000000E-01
  1.50000000E+00  8.00000000E-01  8.00000000E-01  1.50000000E+00  8.00000000E-01
  8.00000000E-01  1.50000000E+00  8.00000000E-01  8.00000000E-01  1.50000000E+00
  8.00000000E-01  8.00000000E-01  1.50000000E+00  8.00000000E-01  8.00000000E-01
  1.50000000E+00  8.00000000E-01  8.00000000E-01  1.50000000E+00  8.00000000E-01
  8.00000000E-01  1.50000000E+00  8.00000000E-01  8.00000000E-01  1.50000000E+00
  8.00000000E-01  8.00000000E-01  1.50000000E+00  8.00000000E-01  8.00000000E-01
  1.50000000E+00  8.00000000E-01  8.00000000E-01  1.50000000E+00  8.00000000E-01
  8.00000000E-01  1.50000000E+00  8.00000000E-01  8.00000000E-01  1.50000000E+00
  8.00000000E-01  8.00000000E-01  1.50000000E+00  8.00000000E-01  8.00000000E-01
  1.50000000E+00  8.00000000E-01  8.00000000E-01  1.50000000E+00  8.00000000E-01
  8.00000000E-01  1.50000000E+00  8.00000000E-01  8.00000000E-01  1.50000000E+00
  8.00000000E-01  8.00000000E-01  1.50000000E+00  8.00000000E-01  8.00000000E-01
  1.50000000E+00  8.00000000E-01  8.00000000E-01  1.50000000E+00  8.00000000E-01
  8.00000000E-01  1.50000000E+00  8.00000000E-01  8.00000000E-01  1.50000000E+00
  8.00000000E-01  8.00000000E-01  1.50000000E+00  8.00000000E-01  8.00000000E-01
  1.50000000E+00  8.00000000E-01  8.00000000E-01  1.50000000E+00  8.00000000E-01
  8.00000000E-01  1.50000000E+00  8.00000000E-01  8.00000000E-01  1.50000000E+00
  8.00000000E-01  8.00000000E-01  1.50000000E+00  8.00000000E-01  8.00000000E-01
  1.50000000E+00  8.00000000E-01  8.00000000E-01  1.50000000E+00  8.00000000E-01
  8.00000000E-01  1.50000000E+00  8.00000000E-01  8.00000000E-01  1.50000000E+00
  8.00000000E-01  8.00000000E-01  1.50000000E+00  8.00000000E-01  8.00000000E-01
  1.50000000E+00  8.00000000E-01  8.00000000E-01  1.50000000E+00  8.00000000E-01
  8.00000000E-01  1.50000000E+00  8.00000000E-01  8.00000000E-01  1.50000000E+00
  8.00000000E-01  8.00000000E-01  1.50000000E+00  8.00000000E-01  8.00000000E-01
  1.50000000E+00  8.00000000E-01  8.00000000E-01  1.50000000E+00  8.00000000E-01
  8.00000000E-01  1.50000000E+00  8.00000000E-01  8.00000000E-01  1.50000000E+00
  8.00000000E-01  8.00000000E-01  1.50000000E+00  8.00000000E-01  8.00000000E-01
  1.50000000E+00  8.00000000E-01  8.00000000E-01  1.50000000E+00  8.00000000E-01
  8.00000000E-01  1.50000000E+00  8.00000000E-01  8.00000000E-01  1.50000000E+00
  8.00000000E-01  8.00000000E-01  1.50000000E+00  8.00000000E-01  8.00000000E-01
  1.50000000E+00  8.00000000E-01  8.00000000E-01  1.50000000E+00  8.00000000E-01
  8.00000000E-01  1.50000000E+00  8.00000000E-01  8.00000000E-01  1.50000000E+00
  8.00000000E-01  8.00000000E-01  1.50000000E+00  8.00000000E-01  8.00000000E-01
  1.50000000E+00  8.00000000E-01  8.00000000E-01  1.50000000E+00  8.00000000E-01
  8.00000000E-01  1.50000000E+00  8.00000000E-01  8.00000000E-01  1.50000000E+00
  8.00000000E-01  8.00000000E-01  1.50000000E+00  8.00000000E-01  8.00000000E-01
  1.50000000E+00  8.00000000E-01  8.00000000E-01  1.50000000E+00  8.00000000E-01
  8.00000000E-01  1.50000000E+00  8.00000000E-01  8.00000000E-01  1.50000000E+00
  8.00000000E-01  8.00000000E-01  1.50000000E+00  8.00000000E-01  8.00000000E-01
  1.50000000E+00  8.00000000E-01  8.00000000E-01  1.50000000E+00  8.00000000E-01
  8.00000000E-01  1.50000000E+00  8.00000000E-01  8.00000000E-01  1.50000000E+00
  8.00000000E-01  8.00000000E-01  1.50000000E+00  8.00000000E-01  8.00000000E-01
  1.50000000E+00  8.00000000E-01  8.00000000E-01  1.50000000E+00  8.00000000E-01
  8.00000000E-01  1.50000000E+00  8.00000000E-01  8.00000000E-01  1.50000000E+00
  8.00000000E-01  8.00000000E-01  1.50000000E+00  8.00000000E-01  8.00000000E-01
  1.50000000E+00  8.00000000E-01  8.00000000E-01  1.50000000E+00  8.00000000E-01
  8.00000000E-01  1.50000000E+00  8.00000000E-01  8.00000000E-01  1.50000000E+00
  8.00000000E-01  8.00000000E-01  1.50000000E+00  8.00000000E-01  8.00000000E-01
  1.50000000E+00  8.00000000E-01  8.00000000E-01  1.50000000E+00  8.00000000E-01
  8.00000000E-01  1.50000000E+00  8.00000000E-01  8.00000000E-01  1.50000000E+00
  8.00000000E-01  8.00000000E-01  1.50000000E+00  8.00000000E-01  8.00000000E-01
  1.50000000E+00  8.00000000E-01  8.00000000E-01  1.50000000E+00  8.00000000E-01
  8.00000000E-01  1.50000000E+00  8.00000000E-01  8.00000000E-01  1.50000000E+00
  8.00000000E-01  8.00000000E-01  1.50000000E+00  8.00000000E-01  8.00000000E-01
  1.50000000E+00  8.00000000E-01  8.00000000E-01  1.50000000E+00  8.00000000E-01
  8.00000000E-01  1.50000000E+00  8.00000000E-01  8.00000000E-01  1.50000000E+00
  8.00000000E-01  8.00000000E-01  1.50000000E+00  8.00000000E-01  8.00000000E-01
  1.50000000E+00  8.00000000E-01  8.00000000E-01  1.50000000E+00  8.00000000E-01
  8.00000000E-01  1.50000000E+00  8.00000000E-01  8.00000000E-01  1.50000000E+00
  8.00000000E-01  8.00000000E-01  1.50000000E+00  8.00000000E-01  8.00000000E-01
  1.50000000E+00  8.00000000E-01  8.00000000E-01  1.50000000E+00  8.00000000E-01
  8.00000000E-01  1.50000000E+00  8.00000000E-01  8.00000000E-01  1.50000000E+00
  8.00000000E-01  8.00000000E-01  1.50000000E+00  8.00000000E-01  8.00000000E-01
  1.50000000E+00  8.00000000E-01  8.00000000E-01  1.50000000E+00  8.00000000E-01
  8.00000000E-01  1.50000000E+00  8.00000000E-01  8.00000000E-01  1.50000000E+00
  8.00000000E-01  8.00000000E-01  1.50000000E+00  8.00000000E-01  8.00000000E-01
  1.50000000E+00  8.00000000E-01  8.00000000E-01  1.50000000E+00  8.00000000E-01
  8.00000000E-01  1.50000000E+00  8.00000000E-01  8.00000000E-01  1.50000000E+00
  8.00000000E-01  8.00000000E-01  1.50000000E+00  8.00000000E-01  8.00000000E-01
  1.50000000E+00  8.00000000E-01  8.00000000E-01  1.50000000E+00  8.00000000E-01
  8.00000000E-01  1.50000000E+00  8.00000000E-01  8.00000000E-01  1.50000000E+00
  8.00000000E-01  8.00000000E-01  1.50000000E+00  8.00000000E-01  8.00000000E-01
  1.50000000E+00  8.00000000E-01  8.00000000E-01  1.50000000E+00  8.00000000E-01
  8.00000000E-01  1.50000000E+00  8.00000000E-01  8.00000000E-01  1.50000000E+00
  8.00000000E-01  8.00000000E-01  1.50000000E+00  8.00000000E-01  8.00000000E-01
  1.50000000E+00  8.00000000E-01  8.00000000E-01  1.50000000E+00  8.00000000E-01
  8.00000000E-01  1.50000000E+00  8.00000000E-01  8.00000000E-01  1.50000000E+00
  8.00000000E-01  8.00000000E-01  1.50000000E+00  8.00000000E-01  8.00000000E-01
  1.50000000E+00  8.00000000E-01  8.00000000E-01  1.50000000E+00  8.00000000E-01
  8.00000000E-01  1.50000000E+00  8.00000000E-01  8.00000000E-01  1.50000000E+00
  8.00000000E-01  8.00000000E-01  1.50000000E+00  8.00000000E-01  8.00000000E-01
  1.50000000E+00  8.00000000E-01  8.00000000E-01  1.50000000E+00  8.00000000E-01
  8.00000000E-01  1.50000000E+00  8.00000000E-01  8.00000000E-01  1.50000000E+00
  8.00000000E-01  8.00000000E-01  1.50000000E+00  8.00000000E-01  8.00000000E-01
  1.50000000E+00  8.00000000E-01  8.00000000E-01  1.50000000E+00  8.00000000E-01
  8.00000000E-01  1.50000000E+00  8.00000000E-01  8.00000000E-01  1.50000000E+00
  8.00000000E-01  8.00000000E-01  1.50000000E+00  8.00000000E-01  8.00000000E-01
  1.50000000E+00  8.00000000E-01  8.00000000E-01  1.50000000E+00  8.00000000E-01
  8.00000000E-01  1.50000000E+00  8.00000000E-01  8.00000000E-01  1.50000000E+00
  8.00000000E-01  8.00000000E-01  1.50000000E+00  8.00000000E-01  8.00000000E-01
  1.50000000E+00  8.00000000E-01  8.00000000E-01  1.50000000E+00  8.00000000E-01
  8.00000000E-01  1.50000000E+00  8.00000000E-01  8.00000000E-01  1.50000000E+00
  8.00000000E-01  8.00000000E-01  1.50000000E+00  8.00000000E-01  8.00000000E-01
  1.50000000E+00  8.00000000E-01  8.00000000E-01  1.50000000E+00  8.00000000E-01
  8.00000000E-01  1.50000000E+00  8.00000000E-01  8.00000000E-01  1.50000000E+00
  8.00000000E-01  8.00000000E-01  1.50000000E+00  8.00000000E-01  8.00000000E-01
  1.50000000E+00  8.00000000E-01  8.00000000E-01  1.50000000E+00  8.00000000E-01
  8.00000000E-01  1.50000000E+00  8.00000000E-01  8.00000000E-01  1.50000000E+00
  8.00000000E-01  8.00000000E-01  1.50000000E+00  8.00000000E-01  8.00000000E-01
  1.50000000E+00  8.00000000E-01  8.00000000E-01  1.50000000E+00  8.00000000E-01
  8.00000000E-01  1.50000000E+00  8.00000000E-01  8.00000000E-01  1.50000000E+00
  8.00000000E-01  8.00000000E-01  1.50000000E+00  8.00000000E-01  8.00000000E-01
  1.50000000E+00  8.00000000E-01  8.00000000E-01  1.50000000E+00  8.00000000E-01
  8.00000000E-01  1.50000000E+00  8.00000000E-01  8.00000000E-01  1.50000000E+00
  8.00000000E-01  8.00000000E-01  1.50000000E+00  8.00000000E-01  8.00000000E-01
  1.50000000E+00  8.00000000E-01  8.00000000E-01  1.50000000E+00  8.00000000E-01
  8.00000000E-01  1.50000000E+00  8.00000000E-01  8.00000000E-01  1.50000000E+00
  8.00000000E-01  8.00000000E-01  1.50000000E+00  8.00000000E-01  8.00000000E-01
  1.50000000E+00  8.00000000E-01  8.00000000E-01  1.50000000E+00  8.00000000E-01
  8.00000000E-01  1.50000000E+00  8.00000000E-01  8.00000000E-01  1.50000000E+00
  8.00000000E-01  8.00000000E-01  1.50000000E+00  8.00000000E-01  8.00000000E-01
  1.50000000E+00  8.00000000E-01  8.00000000E-01  1.50000000E+00  8.00000000E-01
  8.00000000E-01  1.50000000E+00  8.00000000E-01  8.00000000E-01  1.50000000E+00
  8.00000000E-01  8.00000000E-01  1.50000000E+00  8.00000000E-01  8.00000000E-01
  1.50000000E+00  8.00000000E-01  8.00000000E-01  1.50000000E+00  8.00000000E-01
  8.00000000E-01  1.50000000E+00  8.00000000E-01  8.00000000E-01  1.50000000E+00
  8.00000000E-01  8.00000000E-01  1.50000000E+00  8.00000000E-01  8.00000000E-01
  1.50000000E+00  8.00000000E-01  8.00000000E-01  1.50000000E+00  8.00000000E-01
  8.00000000E-01  1.50000000E+00  8.00000000E-01  8.00000000E-01  1.50000000E+00
  8.00000000E-01  8.00000000E-01  1.50000000E+00  8.00000000E-01  8.00000000E-01
  1.50000000E+00  8.00000000E-01  8.00000000E-01  1.50000000E+00  8.00000000E-01
  8.00000000E-01  1.50000000E+00  8.00000000E-01  8.00000000E-01  1.50000000E+00
  8.00000000E-01  8.00000000E-01  1.50000000E+00  8.00000000E-01  8.00000000E-01
  1.50000000E+00  8.00000000E-01  8.00000000E-01  1.50000000E+00  8.00000000E-01
  8.00000000E-01  1.50000000E+00  8.00000000E-01  8.00000000E-01  1.50000000E+00
  8.00000000E-01  8.00000000E-01  1.50000000E+00  8.00000000E-01  8.00000000E-01
  1.50000000E+00  8.00000000E-01  8.00000000E-01  1.50000000E+00  8.00000000E-01
  8.00000000E-01  1.50000000E+00  8.00000000E-01  8.00000000E-01  1.50000000E+00
  8.00000000E-01  8.00000000E-01  1.50000000E+00  8.00000000E-01  8.00000000E-01
  1.50000000E+00  8.00000000E-01  8.00000000E-01  1.50000000E+00  8.00000000E-01
  8.00000000E-01  1.50000000E+00  8.00000000E-01  8.00000000E-01  1.50000000E+00
  8.00000000E-01  8.00000000E-01  1.50000000E+00  8.00000000E-01  8.00000000E-01
  1.50000000E+00  8.00000000E-01  8.00000000E-01  1.50000000E+00  8.00000000E-01
  8.00000000E-01  1.50000000E+00  8.00000000E-01  8.00000000E-01  1.50000000E+00
  8.00000000E-01  8.00000000E-01  1.50000000E+00  8.00000000E-01  8.00000000E-01
  1.50000000E+00  8.00000000E-01  8.00000000E-01  1.50000000E+00  8.00000000E-01
  8.00000000E-01  1.50000000E+00  8.00000000E-01  8.00000000E-01  1.50000000E+00
  8.00000000E-01  8.00000000E-01  1.50000000E+00  8.00000000E-01  8.00000000E-01
  1.50000000E+00  8.00000000E-01  8.00000000E-01  1.50000000E+00  8.00000000E-01
  8.00000000E-01  1.50000000E+00  8.00000000E-01  8.00000000E-01  1.50000000E+00
  8.00000000E-01  8.00000000E-01  1.50000000E+00  8.00000000E-01  8.00000000E-01
  1.50000000E+00  8.00000000E-01  8.00000000E-01  1.50000000E+00  8.00000000E-01
  8.00000000E-01  1.50000000E+00  8.00000000E-01  8.00000000E-01  1.50000000E+00
  8.00000000E-01  8.00000000E-01  1.50000000E+00  8.00000000E-01  8.00000000E-01
  1.50000000E+00  8.00000000E-01  8.00000000E-01  1.50000000E+00  8.00000000E-01
  8.00000000E-01  1.50000000E+00  8.00000000E-01  8.00000000E-01  1.50000000E+00
  8.00000000E-01  8.00000000E-01  1.50000000E+00  8.00000000E-01  8.00000000E-01
  1.50000000E+00  8.00000000E-01  8.00000000E-01  1.50000000E+00  8.00000000E-01
  8.00000000E-01  1.50000000E+00  8.00000000E-01  8.00000000E-01  1.50000000E+00
  8.00000000E-01  8.00000000E-01  1.50000000E+00  8.00000000E-01  8.00000000E-01
  1.50000000E+00  8.00000000E-01  8.00000000E-01  1.50000000E+00  8.00000000E-01
  8.00000000E-01  1.50000000E+00  8.00000000E-01  8.00000000E-01  1.50000000E+00
  8.00000000E-01  8.00000000E-01  1.50000000E+00  8.00000000E-01  8.00000000E-01
  1.50000000E+00  8.00000000E-01  8.00000000E-01  1.50000000E+00  8.00000000E-01
  8.00000000E-01  1.50000000E+00  8.00000000E-01  8.00000000E-01  1.50000000E+00
  8.00000000E-01  8.00000000E-01  1.50000000E+00  8.00000000E-01  8.00000000E-01
  1.50000000E+00  8.00000000E-01  8.00000000E-01  1.50000000E+00  8.00000000E-01
  8.00000000E-01  1.50000000E+00  8.00000000E-01  8.00000000E-01  1.50000000E+00
  8.00000000E-01  8.00000000E-01  1.50000000E+00  8.00000000E-01  8.00000000E-01
  1.50000000E+00  8.00000000E-01  8.00000000E-01  1.50000000E+00  8.00000000E-01
  8.00000000E-01  1.50000000E+00  8.00000000E-01  8.00000000E-01  1.50000000E+00
  8.00000000E-01  8.00000000E-01  1.50000000E+00  8.00000000E-01  8.00000000E-01
  1.50000000E+00  8.00000000E-01  8.00000000E-01  1.50000000E+00  8.00000000E-01
  8.00000000E-01  1.50000000E+00  8.00000000E-01  8.00000000E-01  1.50000000E+00
  8.00000000E-01  8.00000000E-01  1.50000000E+00  8.00000000E-01  8.00000000E-01
  1.50000000E+00  8.00000000E-01  8.00000000E-01  1.50000000E+00  8.00000000E-01
  8.00000000E-01  1.50000000E+00  8.00000000E-01  8.00000000E-01  1.50000000E+00
  8.00000000E-01  8.00000000E-01  1.50000000E+00  8.00000000E-01  8.00000000E-01
  1.50000000E+00  8.00000000E-01  8.00000000E-01  1.50000000E+00  8.00000000E-01
  8.00000000E-01  1.50000000E+00  8.00000000E-01  8.00000000E-01  1.50000000E+00
  8.00000000E-01  8.00000000E-01  1.50000000E+00  8.00000000E-01  8.00000000E-01
  1.50000000E+00  8.00000000E-01  8.00000000E-01  1.50000000E+00  8.00000000E-01
  8.00000000E-01  1.50000000E+00  8.00000000E-01  8.00000000E-01  1.50000000E+00
  8.00000000E-01  8.00000000E-01  1.50000000E+00  8.00000000E-01  8.00000000E-01
  1.50000000E+00  8.00000000E-01  8.00000000E-01  1.50000000E+00  8.00000000E-01
  8.00000000E-01  1.50000000E+00  8.00000000E-01  8.00000000E-01  1.50000000E+00
  8.00000000E-01  8.00000000E-01  1.50000000E+00  8.00000000E-01  8.00000000E-01
  1.50000000E+00  8.00000000E-01  8.00000000E-01  1.50000000E+00  8.00000000E-01
  8.00000000E-01  1.50000000E+00  8.00000000E-01  8.00000000E-01  1.50000000E+00
  8.00000000E-01  8.00000000E-01  1.50000000E+00  8.00000000E-01  8.00000000E-01
  1.50000000E+00  8.00000000E-01  8.00000000E-01  1.50000000E+00  8.00000000E-01
  8.00000000E-01  1.50000000E+00  8.00000000E-01  8.00000000E-01  1.50000000E+00
  8.00000000E-01  8.00000000E-01  1.50000000E+00  8.00000000E-01  8.00000000E-01
  1.50000000E+00  8.00000000E-01  8.00000000E-01  1.50000000E+00  8.00000000E-01
  8.00000000E-01  1.50000000E+00  8.00000000E-01  8.00000000E-01  1.50000000E+00
  8.00000000E-01  8.00000000E-01  1.50000000E+00  8.00000000E-01  8.00000000E-01
  1.50000000E+00  8.00000000E-01  8.00000000E-01  1.50000000E+00  8.00000000E-01
  8.00000000E-01  1.50000000E+00  8.00000000E-01  8.00000000E-01  1.50000000E+00
  8.00000000E-01  8.00000000E-01  1.50000000E+00  8.00000000E-01  8.00000000E-01
  1.50000000E+00  8.00000000E-01  8.00000000E-01  1.50000000E+00  8.00000000E-01
  8.00000000E-01  1.50000000E+00  8.00000000E-01  8.00000000E-01  1.50000000E+00
  8.00000000E-01  8.00000000E-01  1.50000000E+00  8.00000000E-01  8.00000000E-01
  1.50000000E+00  8.00000000E-01  8.00000000E-01  1.50000000E+00  8.00000000E-01
  8.00000000E-01  1.50000000E+00  8.00000000E-01  8.00000000E-01  1.50000000E+00
  8.00000000E-01  8.00000000E-01  1.50000000E+00  8.00000000E-01  8.00000000E-01
  1.50000000E+00  8.00000000E-01  8.00000000E-01  1.50000000E+00  8.00000000E-01
  8.00000000E-01  1.50000000E+00  8.00000000E-01  8.00000000E-01  1.50000000E+00
  8.00000000E-01  8.00000000E-01  1.50000000E+00  8.00000000E-01  8.00000000E-01
  1.50000000E+00  8.00000000E-01  8.00000000E-01  1.50000000E+00  8.00000000E-01
  8.00000000E-01  1.50000000E+00  8.00000000E-01  8.00000000E-01  1.50000000E+00
  8.00000000E-01  8.00000000E-01  1.50000000E+00  8.00000000E-01  8.00000000E-01
  1.50000000E+00  8.00000000E-01  8.00000000E-01  1.50000000E+00  8.00000000E-01
  8.00000000E-01  1.50000000E+00  8.00000000E-01  8.00000000E-01  1.50000000E+00
  8.00000000E-01  8.00000000E-01  1.50000000E+00  8.00000000E-01  8.00000000E-01
  1.50000000E+00  8.00000000E-01  8.00000000E-01  1.50000000E+00  8.00000000E-01
  8.00000000E-01  1.50000000E+00  8.00000000E-01  8.00000000E-01  1.50000000E+00
  8.00000000E-01  8.00000000E-01  1.50000000E+00  8.00000000E-01  8.00000000E-01
  1.50000000E+00  8.00000000E-01  8.00000000E-01  1.50000000E+00  8.00000000E-01
  8.00000000E-01  1.50000000E+00  8.00000000E-01  8.00000000E-01  1.50000000E+00
  8.00000000E-01  8.00000000E-01  1.50000000E+00  8.00000000E-01  8.00000000E-01
  1.50000000E+00  8.00000000E-01  8.00000000E-01  1.50000000E+00  8.00000000E-01
  8.00000000E-01  1.50000000E+00  8.00000000E-01  8.00000000E-01  1.50000000E+00
  8.00000000E-01  8.00000000E-01  1.50000000E+00  8.00000000E-01  8.00000000E-01
  1.50000000E+00  8.00000000E-01  8.00000000E-01  1.50000000E+00  8.00000000E-01
  8.00000000E-01  1.50000000E+00  8.00000000E-01  8.00000000E-01  1.50000000E+00
  8.00000000E-01  8.00000000E-01  1.50000000E+00  8.00000000E-01  8.00000000E-01
  1.50000000E+00  8.00000000E-01  8.00000000E-01  1.50000000E+00  8.00000000E-01
  8.00000000E-01  1.50000000E+00  8.00000000E-01  8.00000000E-01  1.50000000E+00
  8.00000000E-01  8.00000000E-01  1.50000000E+00  8.00000000E-01  8.00000000E-01
  1.50000000E+00  8.00000000E-01  8.00000000E-01  1.50000000E+00  8.00000000E-01
  8.00000000E-01  1.50000000E+00  8.00000000E-01  8.00000000E-01  1.50000000E+00
  8.00000000E-01  8.00000000E-01  1.50000000E+00  8.00000000E-01  8.00000000E-01
  1.50000000E+00  8.00000000E-01  8.00000000E-01  1.50000000E+00  8.00000000E-01
  8.00000000E-01  1.50000000E+00  8.00000000E-01  8.00000000E-01  1.50000000E+00
  8.00000000E-01  8.00000000E-01  1.50000000E+00  8.00000000E-01  8.00000000E-01
  1.50000000E+00  8.00000000E-01  8.00000000E-01  1.50000000E+00  8.00000000E-01
  8.00000000E-01  1.50000000E+00  8.00000000E-01  8.00000000E-01  1.50000000E+00
  8.00000000E-01  8.00000000E-01  1.50000000E+00  8.00000000E-01  8.00000000E-01
  1.50000000E+00  8.00000000E-01  8.00000000E-01  1.50000000E+00  8.00000000E-01
  8.00000000E-01  1.50000000E+00  8.00000000E-01  8.00000000E-01  1.50000000E+00
  8.00000000E-01  8.00000000E-01  1.50000000E+00  8.00000000E-01  8.00000000E-01
  1.50000000E+00  8.00000000E-01  8.00000000E-01  1.50000000E+00  8.00000000E-01
  8.00000000E-01  1.50000000E+00  8.00000000E-01  8.00000000E-01  1.50000000E+00
  8.00000000E-01  8.00000000E-01  1.50000000E+00  8.00000000E-01  8.00000000E-01
  1.50000000E+00  8.00000000E-01  8.00000000E-01  1.50000000E+00  8.00000000E-01
  8.00000000E-01  1.50000000E+00  8.00000000E-01  8.00000000E-01  1.50000000E+00
  8.00000000E-01  8.00000000E-01  1.50000000E+00  8.00000000E-01  8.00000000E-01
  1.50000000E+00  8.00000000E-01  8.00000000E-01  1.50000000E+00  8.00000000E-01
  8.00000000E-01  1.50000000E+00  8.00000000E-01  8.00000000E-01  1.50000000E+00
  8.00000000E-01  8.00000000E-01  1.50000000E+00  8.00000000E-01  8.00000000E-01
  1.50000000E+00  8.00000000E-01  8.00000000E-01  1.50000000E+00  8.00000000E-01
  8.00000000E-01  1.50000000E+00  8.00000000E-01  8.00000000E-01  1.50000000E+00
  8.00000000E-01  8.00000000E-01  1.50000000E+00  8.00000000E-01  8.00000000E-01
  1.50000000E+00  8.00000000E-01  8.00000000E-01  1.50000000E+00  8.00000000E-01
  8.00000000E-01  1.50000000E+00  8.00000000E-01  8.00000000E-01  1.50000000E+00
  8.00000000E-01  8.00000000E-01  1.50000000E+00  8.00000000E-01  8.00000000E-01
  1.50000000E+00  8.00000000E-01  8.00000000E-01  1.50000000E+00  8.00000000E-01
  8.00000000E-01  1.50000000E+00  8.00000000E-01  8.00000000E-01  1.50000000E+00
  8.00000000E-01  8.00000000E-01  1.50000000E+00  8.00000000E-01  8.00000000E-01
  1.50000000E+00  8.00000000E-01  8.00000000E-01  1.50000000E+00  8.00000000E-01
  8.00000000E-01  1.50000000E+00  8.00000000E-01  8.00000000E-01  1.50000000E+00
  8.00000000E-01  8.00000000E-01  1.50000000E+00  8.00000000E-01  8.00000000E-01
  1.50000000E+00  8.00000000E-01  8.00000000E-01  1.50000000E+00  8.00000000E-01
  8.00000000E-01  1.50000000E+00  8.00000000E-01  8.00000000E-01  1.50000000E+00
  8.00000000E-01  8.00000000E-01  1.50000000E+00  8.00000000E-01  8.00000000E-01
  1.50000000E+00  8.00000000E-01  8.00000000E-01  1.50000000E+00  8.00000000E-01
  8.00000000E-01  1.50000000E+00  8.00000000E-01  8.00000000E-01  1.50000000E+00
  8.00000000E-01  8.00000000E-01  1.50000000E+00  8.00000000E-01  8.00000000E-01
  1.50000000E+00  8.00000000E-01  8.00000000E-01  1.50000000E+00  8.00000000E-01
  8.00000000E-01  1.50000000E+00  8.00000000E-01  8.00000000E-01  1.50000000E+00
  8.00000000E-01  8.00000000E-01  1.50000000E+00  8.00000000E-01  8.00000000E-01
  1.50000000E+00  8.00000000E-01  8.00000000E-01  1.50000000E+00  8.00000000E-01
  8.00000000E-01  1.50000000E+00  8.00000000E-01  8.00000000E-01  1.50000000E+00
  8.00000000E-01  8.00000000E-01  1.50000000E+00  8.00000000E-01  8.00000000E-01
  1.50000000E+00  8.00000000E-01  8.00000000E-01  1.50000000E+00  8.00000000E-01
  8.00000000E-01  1.50000000E+00  8.00000000E-01  8.00000000E-01  1.50000000E+00
  8.00000000E-01  8.00000000E-01  1.50000000E+00  8.00000000E-01  8.00000000E-01
  1.50000000E+00  8.00000000E-01  8.00000000E-01  1.50000000E+00  8.00000000E-01
  8.00000000E-01  1.50000000E+00  8.00000000E-01  8.00000000E-01  1.50000000E+00
  8.00000000E-01  8.00000000E-01  1.50000000E+00  8.00000000E-01  8.00000000E-01
  1.50000000E+00  8.00000000E-01  8.00000000E-01  1.50000000E+00  8.00000000E-01
  8.00000000E-01  1.50000000E+00  8.00000000E-01  8.00000000E-01  1.50000000E+00
  8.00000000E-01  8.00000000E-01  1.50000000E+00  8.00000000E-01  8.00000000E-01
  1.50000000E+00  8.00000000E-01  8.00000000E-01  1.50000000E+00  8.00000000E-01
  8.00000000E-01  1.50000000E+00  8.00000000E-01  8.00000000E-01  1.50000000E+00
  8.00000000E-01  8.00000000E-01  1.50000000E+00  8.00000000E-01  8.00000000E-01
  1.50000000E+00  8.00000000E-01  8.00000000E-01  1.50000000E+00  8.00000000E-01
  8.00000000E-01  1.50000000E+00  8.00000000E-01  8.00000000E-01  1.50000000E+00
  8.00000000E-01  8.00000000E-01  1.50000000E+00  8.00000000E-01  8.00000000E-01
  1.50000000E+00  8.00000000E-01  8.00000000E-01  1.50000000E+00  8.00000000E-01
  8.00000000E-01  1.50000000E+00  8.00000000E-01  8.00000000E-01  1.50000000E+00
  8.00000000E-01  8.00000000E-01  1.50000000E+00  8.00000000E-01  8.00000000E-01
  1.50000000E+00  8.00000000E-01  8.00000000E-01  1.50000000E+00  8.00000000E-01
  8.00000000E-01  1.50000000E+00  8.00000000E-01  8.00000000E-01  1.50000000E+00
  8.00000000E-01  8.00000000E-01  1.50000000E+00  8.00000000E-01  8.00000000E-01
  1.50000000E+00  8.00000000E-01  8.00000000E-01  1.50000000E+00  8.00000000E-01
  8.00000000E-01  1.50000000E+00  8.00000000E-01  8.00000000E-01  1.50000000E+00
  8.00000000E-01  8.00000000E-01  1.50000000E+00  8.00000000E-01  8.00000000E-01
  1.50000000E+00  8.00000000E-01  8.00000000E-01  1.50000000E+00  8.00000000E-01
  8.00000000E-01  1.50000000E+00  8.00000000E-01  8.00000000E-01  1.50000000E+00
  8.00000000E-01  8.00000000E-01  1.50000000E+00  8.00000000E-01  8.00000000E-01
  1.50000000E+00  8.00000000E-01  8.00000000E-01  1.50000000E+00  8.00000000E-01
  8.00000000E-01  1.50000000E+00  8.00000000E-01  8.00000000E-01  1.50000000E+00
  8.00000000E-01  8.00000000E-01  1.50000000E+00  8.00000000E-01  8.00000000E-01
  1.50000000E+00  8.00000000E-01  8.00000000E-01  1.50000000E+00  8.00000000E-01
  8.00000000E-01  1.50000000E+00  8.00000000E-01  8.00000000E-01  1.50000000E+00
  8.00000000E-01  8.00000000E-01  1.50000000E+00  8.00000000E-01  8.00000000E-01
  1.50000000E+00  8.00000000E-01  8.00000000E-01  1.50000000E+00  8.00000000E-01
  8.00000000E-01  1.50000000E+00  8.00000000E-01  8.00000000E-01  1.50000000E+00
  8.00000000E-01  8.00000000E-01  1.50000000E+00  8.00000000E-01  8.00000000E-01
  1.50000000E+00  8.00000000E-01  8.00000000E-01  1.50000000E+00  8.00000000E-01
  8.00000000E-01  1.50000000E+00  8.00000000E-01  8.00000000E-01  1.50000000E+00
  8.00000000E-01  8.00000000E-01  1.50000000E+00  8.00000000E-01  8.00000000E-01
  1.50000000E+00  8.00000000E-01  8.00000000E-01  1.50000000E+00  8.00000000E-01
  8.00000000E-01  1.50000000E+00  8.00000000E-01  8.00000000E-01  1.50000000E+00
  8.00000000E-01  8.00000000E-01  1.50000000E+00  8.00000000E-01  8.00000000E-01
  1.50000000E+00  8.00000000E-01  8.00000000E-01  1.50000000E+00  8.00000000E-01
  8.00000000E-01  1.50000000E+00  8.00000000E-01  8.00000000E-01  1.50000000E+00
  8.00000000E-01  8.00000000E-01  1.50000000E+00  8.00000000E-01  8.00000000E-01
  1.50000000E+00  8.00000000E-01  8.00000000E-01  1.50000000E+00  8.00000000E-01
  8.00000000E-01  1.50000000E+00  8.00000000E-01  8.00000000E-01  1.50000000E+00
  8.00000000E-01  8.00000000E-01  1.50000000E+00  8.00000000E-01  8.00000000E-01
  1.50000000E+00  8.00000000E-01  8.00000000E-01  1.50000000E+00  8.00000000E-01
  8.00000000E-01  1.50000000E+00  8.00000000E-01  8.00000000E-01  1.50000000E+00
  8.00000000E-01  8.00000000E-01  1.50000000E+00  8.00000000E-01  8.00000000E-01
  1.50000000E+00  8.00000000E-01  8.00000000E-01  1.50000000E+00  8.00000000E-01
  8.00000000E-01  1.50000000E+00  8.00000000E-01  8.00000000E-01  1.50000000E+00
  8.00000000E-01  8.00000000E-01  1.50000000E+00  8.00000000E-01  8.00000000E-01
  1.50000000E+00  8.00000000E-01  8.00000000E-01  1.50000000E+00  8.00000000E-01
  8.00000000E-01  1.50000000E+00  8.00000000E-01  8.00000000E-01  1.50000000E+00
  8.00000000E-01  8.00000000E-01  1.50000000E+00  8.00000000E-01  8.00000000E-01
  1.50000000E+00  8.00000000E-01  8.00000000E-01  1.50000000E+00  8.00000000E-01
  8.00000000E-01  1.50000000E+00  8.00000000E-01  8.00000000E-01  1.50000000E+00
  8.00000000E-01  8.00000000E-01  1.50000000E+00  8.00000000E-01  8.00000000E-01
  1.50000000E+00  8.00000000E-01  8.00000000E-01  1.50000000E+00  8.00000000E-01
  8.00000000E-01  1.50000000E+00  8.00000000E-01  8.00000000E-01  1.50000000E+00
  8.00000000E-01  8.00000000E-01  1.50000000E+00  8.00000000E-01  8.00000000E-01
  1.50000000E+00  8.00000000E-01  8.00000000E-01  1.50000000E+00  8.00000000E-01
  8.00000000E-01  1.50000000E+00  8.00000000E-01  8.00000000E-01  1.50000000E+00
  8.00000000E-01  8.00000000E-01  1.50000000E+00  8.00000000E-01  8.00000000E-01
  1.50000000E+00  8.00000000E-01  8.00000000E-01  1.50000000E+00  8.00000000E-01
  8.00000000E-01  1.50000000E+00  8.00000000E-01  8.00000000E-01  1.50000000E+00
  8.00000000E-01  8.00000000E-01  1.50000000E+00  8.00000000E-01  8.00000000E-01
  1.50000000E+00  8.00000000E-01  8.00000000E-01  1.50000000E+00  8.00000000E-01
  8.00000000E-01  1.50000000E+00  8.00000000E-01  8.00000000E-01  1.50000000E+00
  8.00000000E-01  8.00000000E-01  1.50000000E+00  8.00000000E-01  8.00000000E-01
  1.50000000E+00  8.00000000E-01  8.00000000E-01  1.50000000E+00  8.00000000E-01
  8.00000000E-01  1.50000000E+00  8.00000000E-01  8.00000000E-01  1.50000000E+00
  8.00000000E-01  8.00000000E-01  1.50000000E+00  8.00000000E-01  8.00000000E-01
  1.50000000E+00  8.00000000E-01  8.00000000E-01  1.50000000E+00  8.00000000E-01
  8.00000000E-01  1.50000000E+00  8.00000000E-01  8.00000000E-01  1.50000000E+00
  8.00000000E-01  8.00000000E-01  1.50000000E+00  8.00000000E-01  8.00000000E-01
  1.50000000E+00  8.00000000E-01  8.00000000E-01  1.50000000E+00  8.00000000E-01
  8.00000000E-01  1.50000000E+00  8.00000000E-01  8.00000000E-01  1.50000000E+00
  8.00000000E-01  8.00000000E-01  1.50000000E+00  8.00000000E-01  8.00000000E-01
  1.50000000E+00  8.00000000E-01  8.00000000E-01  1.50000000E+00  8.00000000E-01
  8.00000000E-01  1.50000000E+00  8.00000000E-01  8.00000000E-01  1.50000000E+00
  8.00000000E-01  8.00000000E-01  1.50000000E+00  8.00000000E-01  8.00000000E-01
  1.50000000E+00  8.00000000E-01  8.00000000E-01  1.50000000E+00  8.00000000E-01
  8.00000000E-01  1.50000000E+00  8.00000000E-01  8.00000000E-01  1.50000000E+00
  8.00000000E-01  8.00000000E-01  1.50000000E+00  8.00000000E-01  8.00000000E-01
  1.50000000E+00  8.00000000E-01  8.00000000E-01  1.50000000E+00  8.00000000E-01
  8.00000000E-01  1.50000000E+00  8.00000000E-01  8.00000000E-01  1.50000000E+00
  8.00000000E-01  8.00000000E-01  1.50000000E+00  8.00000000E-01  8.00000000E-01
  1.50000000E+00  8.00000000E-01  8.00000000E-01  1.50000000E+00  8.00000000E-01
  8.00000000E-01  1.50000000E+00  8.00000000E-01  8.00000000E-01  1.50000000E+00
  8.00000000E-01  8.00000000E-01  1.50000000E+00  8.00000000E-01  8.00000000E-01
  1.50000000E+00  8.00000000E-01  8.00000000E-01  1.50000000E+00  8.00000000E-01
  8.00000000E-01  1.50000000E+00  8.00000000E-01  8.00000000E-01  1.50000000E+00
  8.00000000E-01  8.00000000E-01  1.50000000E+00  8.00000000E-01  8.00000000E-01
  1.50000000E+00  8.00000000E-01  8.00000000E-01  1.50000000E+00  8.00000000E-01
  8.00000000E-01  1.50000000E+00  8.00000000E-01  8.00000000E-01  1.50000000E+00
  8.00000000E-01  8.00000000E-01  1.50000000E+00  8.00000000E-01  8.00000000E-01
  1.50000000E+00  8.00000000E-01  8.00000000E-01  1.50000000E+00  8.00000000E-01
  8.00000000E-01  1.50000000E+00  8.00000000E-01  8.00000000E-01  1.50000000E+00
  8.00000000E-01  8.00000000E-01  1.50000000E+00  8.00000000E-01  8.00000000E-01
  1.50000000E+00  8.00000000E-01  8.00000000E-01  1.50000000E+00  8.00000000E-01
  8.00000000E-01  1.50000000E+00  8.00000000E-01  8.00000000E-01  1.50000000E+00
  8.00000000E-01  8.00000000E-01  1.50000000E+00  8.00000000E-01  8.00000000E-01
  1.50000000E+00  8.00000000E-01  8.00000000E-01  1.50000000E+00  8.00000000E-01
  8.00000000E-01  1.50000000E+00  8.00000000E-01  8.00000000E-01  1.50000000E+00
  8.00000000E-01  8.00000000E-01  1.50000000E+00  8.00000000E-01  8.00000000E-01
  1.50000000E+00  8.00000000E-01  8.00000000E-01  1.50000000E+00  8.00000000E-01
  8.00000000E-01  1.50000000E+00  8.00000000E-01  8.00000000E-01  1.50000000E+00
  8.00000000E-01  8.00000000E-01  1.50000000E+00  8.00000000E-01  8.00000000E-01
  1.50000000E+00  8.00000000E-01  8.00000000E-01  1.50000000E+00  8.00000000E-01
  8.00000000E-01  1.50000000E+00  8.00000000E-01  8.00000000E-01  1.50000000E+00
  8.00000000E-01  8.00000000E-01  1.50000000E+00  8.00000000E-01  8.00000000E-01
  1.50000000E+00  8.00000000E-01  8.00000000E-01  1.50000000E+00  8.00000000E-01
  8.00000000E-01  1.50000000E+00  8.00000000E-01  8.00000000E-01  1.50000000E+00
  8.00000000E-01  8.00000000E-01  1.50000000E+00  8.00000000E-01  8.00000000E-01
  1.50000000E+00  8.00000000E-01  8.00000000E-01  1.50000000E+00  8.00000000E-01
  8.00000000E-01  1.50000000E+00  8.00000000E-01  8.00000000E-01  1.50000000E+00
  8.00000000E-01  8.00000000E-01  1.50000000E+00  8.00000000E-01  8.00000000E-01
  1.50000000E+00  8.00000000E-01  8.00000000E-01  1.50000000E+00  8.00000000E-01
  8.00000000E-01  1.50000000E+00  8.00000000E-01  8.00000000E-01  1.50000000E+00
  8.00000000E-01  8.00000000E-01  1.50000000E+00  8.00000000E-01  8.00000000E-01
  1.50000000E+00  8.00000000E-01  8.00000000E-01  1.50000000E+00  8.00000000E-01
  8.00000000E-01  1.50000000E+00  8.00000000E-01  8.00000000E-01  1.50000000E+00
  8.00000000E-01  8.00000000E-01  1.50000000E+00  8.00000000E-01  8.00000000E-01
  1.50000000E+00  8.00000000E-01  8.00000000E-01  1.50000000E+00  8.00000000E-01
  8.00000000E-01  1.50000000E+00  8.00000000E-01  8.00000000E-01  1.50000000E+00
  8.00000000E-01  8.00000000E-01  1.50000000E+00  8.00000000E-01  8.00000000E-01
  1.50000000E+00  8.00000000E-01  8.00000000E-01  1.50000000E+00  8.00000000E-01
  8.00000000E-01  1.50000000E+00  8.00000000E-01  8.00000000E-01  1.50000000E+00
  8.00000000E-01  8.00000000E-01  1.50000000E+00  8.00000000E-01  8.00000000E-01
  1.50000000E+00  8.00000000E-01  8.00000000E-01  1.50000000E+00  8.00000000E-01
  8.00000000E-01  1.50000000E+00  8.00000000E-01  8.00000000E-01  1.50000000E+00
  8.00000000E-01  8.00000000E-01  1.50000000E+00  8.00000000E-01  8.00000000E-01
  1.50000000E+00  8.00000000E-01  8.00000000E-01  1.50000000E+00  8.00000000E-01
  8.00000000E-01  1.50000000E+00  8.00000000E-01  8.00000000E-01  1.50000000E+00
  8.00000000E-01  8.00000000E-01  1.50000000E+00  8.00000000E-01  8.00000000E-01
  1.50000000E+00  8.00000000E-01  8.00000000E-01  1.50000000E+00  8.00000000E-01
  8.00000000E-01  1.50000000E+00  8.00000000E-01  8.00000000E-01  1.50000000E+00
  8.00000000E-01  8.00000000E-01  1.50000000E+00  8.00000000E-01  8.00000000E-01
  1.50000000E+00  8.00000000E-01  8.00000000E-01  1.50000000E+00  8.00000000E-01
  8.00000000E-01  1.50000000E+00  8.00000000E-01  8.00000000E-01  1.50000000E+00
  8.00000000E-01  8.00000000E-01  1.50000000E+00  8.00000000E-01  8.00000000E-01
  1.50000000E+00  8.00000000E-01  8.00000000E-01  1.50000000E+00  8.00000000E-01
  8.00000000E-01  1.50000000E+00  8.00000000E-01  8.00000000E-01  1.50000000E+00
  8.00000000E-01  8.00000000E-01  1.50000000E+00  8.00000000E-01  8.00000000E-01
  1.50000000E+00  8.00000000E-01  8.00000000E-01  1.50000000E+00  8.00000000E-01
  8.00000000E-01  1.50000000E+00  8.00000000E-01  8.00000000E-01  1.50000000E+00
  8.00000000E-01  8.00000000E-01  1.50000000E+00  8.00000000E-01  8.00000000E-01
  1.50000000E+00  8.00000000E-01  8.00000000E-01  1.50000000E+00  8.00000000E-01
  8.00000000E-01  1.50000000E+00  8.00000000E-01  8.00000000E-01  1.50000000E+00
  8.00000000E-01  8.00000000E-01  1.50000000E+00  8.00000000E-01  8.00000000E-01
  1.50000000E+00  8.00000000E-01  8.00000000E-01  1.50000000E+00  8.00000000E-01
  8.00000000E-01  1.50000000E+00  8.00000000E-01  8.00000000E-01  1.50000000E+00
  8.00000000E-01  8.00000000E-01  1.50000000E+00  8.00000000E-01  8.00000000E-01
  1.50000000E+00  8.00000000E-01  8.00000000E-01  1.50000000E+00  8.00000000E-01
  8.00000000E-01  1.50000000E+00  8.00000000E-01  8.00000000E-01  1.50000000E+00
  8.00000000E-01  8.00000000E-01  1.50000000E+00  8.00000000E-01  8.00000000E-01
  1.50000000E+00  8.00000000E-01  8.00000000E-01  1.50000000E+00  8.00000000E-01
  8.00000000E-01  1.50000000E+00  8.00000000E-01  8.00000000E-01  1.50000000E+00
  8.00000000E-01  8.00000000E-01  1.50000000E+00  8.00000000E-01  8.00000000E-01
  1.50000000E+00  8.00000000E-01  8.00000000E-01  1.50000000E+00  8.00000000E-01
  8.00000000E-01  1.50000000E+00  8.00000000E-01  8.00000000E-01  1.50000000E+00
  8.00000000E-01  8.00000000E-01  1.50000000E+00  8.00000000E-01  8.00000000E-01
  1.50000000E+00  8.00000000E-01  8.00000000E-01  1.50000000E+00  8.00000000E-01
  8.00000000E-01  1.50000000E+00  8.00000000E-01  8.00000000E-01  1.50000000E+00
  8.00000000E-01  8.00000000E-01  1.50000000E+00  8.00000000E-01  8.00000000E-01
  1.50000000E+00  8.00000000E-01  8.00000000E-01  1.50000000E+00  8.00000000E-01
  8.00000000E-01  1.50000000E+00  8.00000000E-01  8.00000000E-01  1.50000000E+00
  8.00000000E-01  8.00000000E-01  1.50000000E+00  8.00000000E-01  8.00000000E-01
  1.50000000E+00  8.00000000E-01  8.00000000E-01  1.50000000E+00  8.00000000E-01
  8.00000000E-01  1.50000000E+00  8.00000000E-01  8.00000000E-01  1.50000000E+00
  8.00000000E-01  8.00000000E-01  1.50000000E+00  8.00000000E-01  8.00000000E-01
  1.50000000E+00  8.00000000E-01  8.00000000E-01  1.50000000E+00  8.00000000E-01
  8.00000000E-01  1.50000000E+00  8.00000000E-01  8.00000000E-01  1.50000000E+00
  8.00000000E-01  8.00000000E-01  1.50000000E+00  8.00000000E-01  8.00000000E-01
  1.50000000E+00  8.00000000E-01  8.00000000E-01  1.50000000E+00  8.00000000E-01
  8.00000000E-01  1.50000000E+00  8.00000000E-01  8.00000000E-01  1.50000000E+00
  8.00000000E-01  8.00000000E-01  1.50000000E+00  8.00000000E-01  8.00000000E-01
  1.50000000E+00  8.00000000E-01  8.00000000E-01  1.50000000E+00  8.00000000E-01
  8.00000000E-01  1.50000000E+00  8.00000000E-01  8.00000000E-01  1.50000000E+00
  8.00000000E-01  8.00000000E-01  1.50000000E+00  8.00000000E-01  8.00000000E-01
  1.50000000E+00  8.00000000E-01  8.00000000E-01  1.50000000E+00  8.00000000E-01
  8.00000000E-01  1.50000000E+00  8.00000000E-01  8.00000000E-01  1.50000000E+00
  8.00000000E-01  8.00000000E-01  1.50000000E+00  8.00000000E-01  8.00000000E-01
  1.50000000E+00  8.00000000E-01  8.00000000E-01  1.50000000E+00  8.00000000E-01
  8.00000000E-01  1.50000000E+00  8.00000000E-01  8.00000000E-01  1.50000000E+00
  8.00000000E-01  8.00000000E-01  1.50000000E+00  8.00000000E-01  8.00000000E-01
  1.50000000E+00  8.00000000E-01  8.00000000E-01  1.50000000E+00  8.00000000E-01
  8.00000000E-01  1.50000000E+00  8.00000000E-01  8.00000000E-01  1.50000000E+00
  8.00000000E-01  8.00000000E-01  1.50000000E+00  8.00000000E-01  8.00000000E-01
  1.50000000E+00  8.00000000E-01  8.00000000E-01  1.50000000E+00  8.00000000E-01
  8.00000000E-01  1.50000000E+00  8.00000000E-01  8.00000000E-01  1.50000000E+00
  8.00000000E-01  8.00000000E-01  1.50000000E+00  8.00000000E-01  8.00000000E-01
  1.50000000E+00  8.00000000E-01  8.00000000E-01  1.50000000E+00  8.00000000E-01
  8.00000000E-01  1.50000000E+00  8.00000000E-01  8.00000000E-01  1.50000000E+00
  8.00000000E-01  8.00000000E-01  1.50000000E+00  8.00000000E-01  8.00000000E-01
  1.50000000E+00  8.00000000E-01  8.00000000E-01  1.50000000E+00  8.00000000E-01
  8.00000000E-01  1.50000000E+00  8.00000000E-01  8.00000000E-01  1.50000000E+00
  8.00000000E-01  8.00000000E-01  1.50000000E+00  8.00000000E-01  8.00000000E-01
  1.50000000E+00  8.00000000E-01  8.00000000E-01  1.50000000E+00  8.00000000E-01
  8.00000000E-01  1.50000000E+00  8.00000000E-01  8.00000000E-01  1.50000000E+00
  8.00000000E-01  8.00000000E-01  1.50000000E+00  8.00000000E-01  8.00000000E-01
  1.50000000E+00  8.00000000E-01  8.00000000E-01  1.50000000E+00  8.00000000E-01
  8.00000000E-01  1.50000000E+00  8.00000000E-01  8.00000000E-01  1.50000000E+00
  8.00000000E-01  8.00000000E-01  1.50000000E+00  8.00000000E-01  8.00000000E-01
  1.50000000E+00  8.00000000E-01  8.00000000E-01  1.50000000E+00  8.00000000E-01
  8.00000000E-01  1.50000000E+00  8.00000000E-01  8.00000000E-01  1.50000000E+00
  8.00000000E-01  8.00000000E-01  1.50000000E+00  8.00000000E-01  8.00000000E-01
  1.50000000E+00  8.00000000E-01  8.00000000E-01  1.50000000E+00  8.00000000E-01
  8.00000000E-01  1.50000000E+00  8.00000000E-01  8.00000000E-01  1.50000000E+00
  8.00000000E-01  8.00000000E-01  1.50000000E+00  8.00000000E-01  8.00000000E-01
  1.50000000E+00  8.00000000E-01  8.00000000E-01  1.50000000E+00  8.00000000E-01
  8.00000000E-01  1.50000000E+00  8.00000000E-01  8.00000000E-01  1.50000000E+00
  8.00000000E-01  8.00000000E-01  1.50000000E+00  8.00000000E-01  8.00000000E-01
  1.50000000E+00  8.00000000E-01  8.00000000E-01  1.50000000E+00  8.00000000E-01
  8.00000000E-01  1.50000000E+00  8.00000000E-01  8.00000000E-01  1.50000000E+00
  8.00000000E-01  8.00000000E-01  1.50000000E+00  8.00000000E-01  8.00000000E-01
  1.50000000E+00  8.00000000E-01  8.00000000E-01  1.50000000E+00  8.00000000E-01
  8.00000000E-01  1.50000000E+00  8.00000000E-01  8.00000000E-01  1.50000000E+00
  8.00000000E-01  8.00000000E-01  1.50000000E+00  8.00000000E-01  8.00000000E-01
  1.50000000E+00  8.00000000E-01  8.00000000E-01  1.50000000E+00  8.00000000E-01
  8.00000000E-01  1.50000000E+00  8.00000000E-01  8.00000000E-01  1.50000000E+00
  8.00000000E-01  8.00000000E-01  1.50000000E+00  8.00000000E-01  8.00000000E-01
  1.50000000E+00  8.00000000E-01  8.00000000E-01  1.50000000E+00  8.00000000E-01
  8.00000000E-01  1.50000000E+00  8.00000000E-01  8.00000000E-01  1.50000000E+00
  8.00000000E-01  8.00000000E-01  1.50000000E+00  8.00000000E-01  8.00000000E-01
  1.50000000E+00  8.00000000E-01  8.00000000E-01  1.50000000E+00  8.00000000E-01
  8.00000000E-01  1.50000000E+00  8.00000000E-01  8.00000000E-01  1.50000000E+00
  8.00000000E-01  8.00000000E-01  1.50000000E+00  8.00000000E-01  8.00000000E-01
  1.50000000E+00  8.00000000E-01  8.00000000E-01  1.50000000E+00  8.00000000E-01
  8.00000000E-01  1.50000000E+00  8.00000000E-01  8.00000000E-01  1.50000000E+00
  8.00000000E-01  8.00000000E-01  1.50000000E+00  8.00000000E-01  8.00000000E-01
  1.50000000E+00  8.00000000E-01  8.00000000E-01  1.50000000E+00  8.00000000E-01
  8.00000000E-01  1.50000000E+00  8.00000000E-01  8.00000000E-01  1.50000000E+00
  8.00000000E-01  8.00000000E-01  1.50000000E+00  8.00000000E-01  8.00000000E-01
  1.50000000E+00  8.00000000E-01  8.00000000E-01  1.50000000E+00  8.00000000E-01
  8.00000000E-01  1.50000000E+00  8.00000000E-01  8.00000000E-01  1.50000000E+00
  8.00000000E-01  8.00000000E-01  1.50000000E+00  8.00000000E-01  8.00000000E-01
  1.50000000E+00  8.00000000E-01  8.00000000E-01  1.50000000E+00  8.00000000E-01
  8.00000000E-01  1.50000000E+00  8.00000000E-01  8.00000000E-01  1.50000000E+00
  8.00000000E-01  8.00000000E-01  1.50000000E+00  8.00000000E-01  8.00000000E-01
  1.50000000E+00  8.00000000E-01  8.00000000E-01  1.50000000E+00  8.00000000E-01
  8.00000000E-01  1.50000000E+00  8.00000000E-01  8.00000000E-01  1.50000000E+00
  8.00000000E-01  8.00000000E-01  1.50000000E+00  8.00000000E-01  8.00000000E-01
  1.50000000E+00  8.00000000E-01  8.00000000E-01  1.50000000E+00  8.00000000E-01
  8.00000000E-01  1.50000000E+00  8.00000000E-01  8.00000000E-01  1.50000000E+00
  8.00000000E-01  8.00000000E-01  1.50000000E+00  8.00000000E-01  8.00000000E-01
  1.50000000E+00  8.00000000E-01  8.00000000E-01  1.50000000E+00  8.00000000E-01
  8.00000000E-01  1.50000000E+00  8.00000000E-01  8.00000000E-01  1.50000000E+00
  8.00000000E-01  8.00000000E-01  1.50000000E+00  8.00000000E-01  8.00000000E-01
  1.50000000E+00  8.00000000E-01  8.00000000E-01  1.50000000E+00  8.00000000E-01
  8.00000000E-01  1.50000000E+00  8.00000000E-01  8.00000000E-01  1.50000000E+00
  8.00000000E-01  8.00000000E-01  1.50000000E+00  8.00000000E-01  8.00000000E-01
  1.50000000E+00  8.00000000E-01  8.00000000E-01  1.50000000E+00  8.00000000E-01
  8.00000000E-01  1.50000000E+00  8.00000000E-01  8.00000000E-01  1.50000000E+00
  8.00000000E-01  8.00000000E-01  1.50000000E+00  8.00000000E-01  8.00000000E-01
  1.50000000E+00  8.00000000E-01  8.00000000E-01  1.50000000E+00  8.00000000E-01
  8.00000000E-01  1.50000000E+00  8.00000000E-01  8.00000000E-01  1.50000000E+00
  8.00000000E-01  8.00000000E-01  1.50000000E+00  8.00000000E-01  8.00000000E-01
  1.50000000E+00  8.00000000E-01  8.00000000E-01  1.50000000E+00  8.00000000E-01
  8.00000000E-01  1.50000000E+00  8.00000000E-01  8.00000000E-01  1.50000000E+00
  8.00000000E-01  8.00000000E-01  1.50000000E+00  8.00000000E-01  8.00000000E-01
  1.50000000E+00  8.00000000E-01  8.00000000E-01  1.50000000E+00  8.00000000E-01
  8.00000000E-01  1.50000000E+00  8.00000000E-01  8.00000000E-01  1.50000000E+00
  8.00000000E-01  8.00000000E-01  1.50000000E+00  8.00000000E-01  8.00000000E-01
  1.50000000E+00  8.00000000E-01  8.00000000E-01  1.50000000E+00  8.00000000E-01
  8.00000000E-01  1.50000000E+00  8.00000000E-01  8.00000000E-01  1.50000000E+00
  8.00000000E-01  8.00000000E-01  1.50000000E+00  8.00000000E-01  8.00000000E-01
  1.50000000E+00  8.00000000E-01  8.00000000E-01  1.50000000E+00  8.00000000E-01
  8.00000000E-01  1.50000000E+00  8.00000000E-01  8.00000000E-01  1.50000000E+00
  8.00000000E-01  8.00000000E-01  1.50000000E+00  8.00000000E-01  8.00000000E-01
  1.50000000E+00  8.00000000E-01  8.00000000E-01  1.50000000E+00  8.00000000E-01
  8.00000000E-01  1.50000000E+00  8.00000000E-01  8.00000000E-01  1.50000000E+00
  8.00000000E-01  8.00000000E-01  1.50000000E+00  8.00000000E-01  8.00000000E-01
  1.50000000E+00  8.00000000E-01  8.00000000E-01  1.50000000E+00  8.00000000E-01
  8.00000000E-01  1.50000000E+00  8.00000000E-01  8.00000000E-01  1.50000000E+00
  8.00000000E-01  8.00000000E-01  1.50000000E+00  8.00000000E-01  8.00000000E-01
  1.50000000E+00  8.00000000E-01  8.00000000E-01  1.50000000E+00  8.00000000E-01
  8.00000000E-01  1.50000000E+00  8.00000000E-01  8.00000000E-01  1.50000000E+00
  8.00000000E-01  8.00000000E-01  1.50000000E+00  8.00000000E-01  8.00000000E-01
  1.50000000E+00  8.00000000E-01  8.00000000E-01  1.50000000E+00  8.00000000E-01
  8.00000000E-01  1.50000000E+00  8.00000000E-01  8.00000000E-01  1.50000000E+00
  8.00000000E-01  8.00000000E-01  1.50000000E+00  8.00000000E-01  8.00000000E-01
  1.50000000E+00  8.00000000E-01  8.00000000E-01  1.50000000E+00  8.00000000E-01
  8.00000000E-01  1.50000000E+00  8.00000000E-01  8.00000000E-01  1.50000000E+00
  8.00000000E-01  8.00000000E-01  1.50000000E+00  8.00000000E-01  8.00000000E-01
  1.50000000E+00  8.00000000E-01  8.00000000E-01  1.50000000E+00  8.00000000E-01
  8.00000000E-01  1.50000000E+00  8.00000000E-01  8.00000000E-01  1.50000000E+00
  8.00000000E-01  8.00000000E-01  1.50000000E+00  8.00000000E-01  8.00000000E-01
  1.50000000E+00  8.00000000E-01  8.00000000E-01  1.50000000E+00  8.00000000E-01
  8.00000000E-01  1.50000000E+00  8.00000000E-01  8.00000000E-01  1.50000000E+00
  8.00000000E-01  8.00000000E-01  1.50000000E+00  8.00000000E-01  8.00000000E-01
  1.50000000E+00  8.00000000E-01  8.00000000E-01  1.50000000E+00  8.00000000E-01
  8.00000000E-01  1.50000000E+00  8.00000000E-01  8.00000000E-01  1.50000000E+00
  8.00000000E-01  8.00000000E-01  1.50000000E+00  8.00000000E-01  8.00000000E-01
  1.50000000E+00  8.00000000E-01  8.00000000E-01  1.50000000E+00  8.00000000E-01
  8.00000000E-01  1.50000000E+00  8.00000000E-01  8.00000000E-01  1.50000000E+00
  8.00000000E-01  8.00000000E-01  1.50000000E+00  8.00000000E-01  8.00000000E-01
  1.50000000E+00  8.00000000E-01  8.00000000E-01  1.50000000E+00  8.00000000E-01
  8.00000000E-01  1.50000000E+00  8.00000000E-01  8.00000000E-01  1.50000000E+00
  8.00000000E-01  8.00000000E-01  1.50000000E+00  8.00000000E-01  8.00000000E-01
  1.50000000E+00  8.00000000E-01  8.00000000E-01  1.50000000E+00  8.00000000E-01
  8.00000000E-01  1.50000000E+00  8.00000000E-01  8.00000000E-01  1.50000000E+00
  8.00000000E-01  8.00000000E-01  1.50000000E+00  8.00000000E-01  8.00000000E-01
  1.50000000E+00  8.00000000E-01  8.00000000E-01  1.50000000E+00  8.00000000E-01
  8.00000000E-01  1.50000000E+00  8.00000000E-01  8.00000000E-01  1.50000000E+00
  8.00000000E-01  8.00000000E-01  1.50000000E+00  8.00000000E-01  8.00000000E-01
  1.50000000E+00  8.00000000E-01  8.00000000E-01  1.50000000E+00  8.00000000E-01
  8.00000000E-01  1.50000000E+00  8.00000000E-01  8.00000000E-01  1.50000000E+00
  8.00000000E-01  8.00000000E-01  1.50000000E+00  8.00000000E-01  8.00000000E-01
  1.50000000E+00  8.00000000E-01  8.00000000E-01  1.50000000E+00  8.00000000E-01
  8.00000000E-01  1.50000000E+00  8.00000000E-01  8.00000000E-01  1.50000000E+00
  8.00000000E-01  8.00000000E-01  1.50000000E+00  8.00000000E-01  8.00000000E-01
  1.50000000E+00  8.00000000E-01  8.00000000E-01  1.50000000E+00  8.00000000E-01
  8.00000000E-01  1.50000000E+00  8.00000000E-01  8.00000000E-01  1.50000000E+00
  8.00000000E-01  8.00000000E-01  1.50000000E+00  8.00000000E-01  8.00000000E-01
  1.50000000E+00  8.00000000E-01  8.00000000E-01  1.50000000E+00  8.00000000E-01
  8.00000000E-01  1.50000000E+00  8.00000000E-01  8.00000000E-01  1.50000000E+00
  8.00000000E-01  8.00000000E-01  1.50000000E+00  8.00000000E-01  8.00000000E-01
  1.50000000E+00  8.00000000E-01  8.00000000E-01  1.50000000E+00  8.00000000E-01
  8.00000000E-01  1.50000000E+00  8.00000000E-01  8.00000000E-01  1.50000000E+00
  8.00000000E-01  8.00000000E-01  1.50000000E+00  8.00000000E-01  8.00000000E-01
  1.50000000E+00  8.00000000E-01  8.00000000E-01  1.50000000E+00  8.00000000E-01
  8.00000000E-01  1.50000000E+00  8.00000000E-01  8.00000000E-01  1.50000000E+00
  8.00000000E-01  8.00000000E-01  1.50000000E+00  8.00000000E-01  8.00000000E-01
  1.50000000E+00  8.00000000E-01  8.00000000E-01  1.50000000E+00  8.00000000E-01
  8.00000000E-01  1.50000000E+00  8.00000000E-01  8.00000000E-01  1.50000000E+00
  8.00000000E-01  8.00000000E-01  1.50000000E+00  8.00000000E-01  8.00000000E-01
  1.50000000E+00  8.00000000E-01  8.00000000E-01  1.50000000E+00  8.00000000E-01
  8.00000000E-01  1.50000000E+00  8.00000000E-01  8.00000000E-01  1.50000000E+00
  8.00000000E-01  8.00000000E-01  1.50000000E+00  8.00000000E-01  8.00000000E-01
  1.50000000E+00  8.00000000E-01  8.00000000E-01  1.50000000E+00  8.00000000E-01
  8.00000000E-01  1.50000000E+00  8.00000000E-01  8.00000000E-01  1.50000000E+00
  8.00000000E-01  8.00000000E-01  1.50000000E+00  8.00000000E-01  8.00000000E-01
  1.50000000E+00  8.00000000E-01  8.00000000E-01  1.50000000E+00  8.00000000E-01
  8.00000000E-01  1.50000000E+00  8.00000000E-01  8.00000000E-01  1.50000000E+00
  8.00000000E-01  8.00000000E-01  1.50000000E+00  8.00000000E-01  8.00000000E-01
  1.50000000E+00  8.00000000E-01  8.00000000E-01  1.50000000E+00  8.00000000E-01
  8.00000000E-01  1.50000000E+00  8.00000000E-01  8.00000000E-01  1.50000000E+00
  8.00000000E-01  8.00000000E-01  1.50000000E+00  8.00000000E-01  8.00000000E-01
  1.50000000E+00  8.00000000E-01  8.00000000E-01  1.50000000E+00  8.00000000E-01
  8.00000000E-01  1.50000000E+00  8.00000000E-01  8.00000000E-01  1.50000000E+00
  8.00000000E-01  8.00000000E-01  1.50000000E+00  8.00000000E-01  8.00000000E-01
  1.50000000E+00  8.00000000E-01  8.00000000E-01  1.50000000E+00  8.00000000E-01
  8.00000000E-01  1.50000000E+00  8.00000000E-01  8.00000000E-01  1.50000000E+00
  8.00000000E-01  8.00000000E-01  1.50000000E+00  8.00000000E-01  8.00000000E-01
  1.50000000E+00  8.00000000E-01  8.00000000E-01  1.50000000E+00  8.00000000E-01
  8.00000000E-01  1.50000000E+00  8.00000000E-01  8.00000000E-01  1.50000000E+00
  8.00000000E-01  8.00000000E-01  1.50000000E+00  8.00000000E-01  8.00000000E-01
  1.50000000E+00  8.00000000E-01  8.00000000E-01  1.50000000E+00  8.00000000E-01
  8.00000000E-01  1.50000000E+00  8.00000000E-01  8.00000000E-01  1.50000000E+00
  8.00000000E-01  8.00000000E-01  1.50000000E+00  8.00000000E-01  8.00000000E-01
  1.50000000E+00  8.00000000E-01  8.00000000E-01  1.50000000E+00  8.00000000E-01
  8.00000000E-01  1.50000000E+00  8.00000000E-01  8.00000000E-01  1.50000000E+00
  8.00000000E-01  8.00000000E-01  1.50000000E+00  8.00000000E-01  8.00000000E-01
  1.50000000E+00  8.00000000E-01  8.00000000E-01  1.50000000E+00  8.00000000E-01
  8.00000000E-01  1.50000000E+00  8.00000000E-01  8.00000000E-01  1.50000000E+00
  8.00000000E-01  8.00000000E-01  1.50000000E+00  8.00000000E-01  8.00000000E-01
  1.50000000E+00  8.00000000E-01  8.00000000E-01  1.50000000E+00  8.00000000E-01
  8.00000000E-01  1.50000000E+00  8.00000000E-01  8.00000000E-01  1.50000000E+00
  8.00000000E-01  8.00000000E-01  1.50000000E+00  8.00000000E-01  8.00000000E-01
  1.50000000E+00  8.00000000E-01  8.00000000E-01  1.50000000E+00  8.00000000E-01
  8.00000000E-01  1.50000000E+00  8.00000000E-01  8.00000000E-01  1.50000000E+00
  8.00000000E-01  8.00000000E-01  1.50000000E+00  8.00000000E-01  8.00000000E-01
  1.50000000E+00  8.00000000E-01  8.00000000E-01  1.50000000E+00  8.00000000E-01
  8.00000000E-01  1.50000000E+00  8.00000000E-01  8.00000000E-01  1.50000000E+00
  8.00000000E-01  8.00000000E-01  1.50000000E+00  8.00000000E-01  8.00000000E-01
  1.50000000E+00  8.00000000E-01  8.00000000E-01  1.50000000E+00  8.00000000E-01
  8.00000000E-01  1.50000000E+00  8.00000000E-01  8.00000000E-01  1.50000000E+00
  8.00000000E-01  8.00000000E-01  1.50000000E+00  8.00000000E-01  8.00000000E-01
  1.50000000E+00  8.00000000E-01  8.00000000E-01  1.50000000E+00  8.00000000E-01
  8.00000000E-01  1.50000000E+00  8.00000000E-01  8.00000000E-01  1.50000000E+00
  8.00000000E-01  8.00000000E-01  1.50000000E+00  8.00000000E-01  8.00000000E-01
  1.50000000E+00  8.00000000E-01  8.00000000E-01  1.50000000E+00  8.00000000E-01
  8.00000000E-01  1.50000000E+00  8.00000000E-01  8.00000000E-01  1.50000000E+00
  8.00000000E-01  8.00000000E-01  1.50000000E+00  8.00000000E-01  8.00000000E-01
  1.50000000E+00  8.00000000E-01  8.00000000E-01  1.50000000E+00  8.00000000E-01
  8.00000000E-01  1.50000000E+00  8.00000000E-01  8.00000000E-01  1.50000000E+00
  8.00000000E-01  8.00000000E-01  1.50000000E+00  8.00000000E-01  8.00000000E-01
  1.50000000E+00  8.00000000E-01  8.00000000E-01  1.50000000E+00  8.00000000E-01
  8.00000000E-01  1.50000000E+00  8.00000000E-01  8.00000000E-01  1.50000000E+00
  8.00000000E-01  8.00000000E-01  1.50000000E+00  8.00000000E-01  8.00000000E-01
  1.50000000E+00  8.00000000E-01  8.00000000E-01  1.50000000E+00  8.00000000E-01
  8.00000000E-01  1.50000000E+00  8.00000000E-01  8.00000000E-01  1.50000000E+00
  8.00000000E-01  8.00000000E-01  1.50000000E+00  8.00000000E-01  8.00000000E-01
  1.50000000E+00  8.00000000E-01  8.00000000E-01  1.50000000E+00  8.00000000E-01
  8.00000000E-01  1.50000000E+00  8.00000000E-01  8.00000000E-01  1.50000000E+00
  8.00000000E-01  8.00000000E-01  1.50000000E+00  8.00000000E-01  8.00000000E-01
  1.50000000E+00  8.00000000E-01  8.00000000E-01  1.50000000E+00  8.00000000E-01
  8.00000000E-01  1.50000000E+00  8.00000000E-01  8.00000000E-01  1.50000000E+00
  8.00000000E-01  8.00000000E-01  1.50000000E+00  8.00000000E-01  8.00000000E-01
  1.50000000E+00  8.00000000E-01  8.00000000E-01  1.50000000E+00  8.00000000E-01
  8.00000000E-01  1.50000000E+00  8.00000000E-01  8.00000000E-01  1.50000000E+00
  8.00000000E-01  8.00000000E-01  1.50000000E+00  8.00000000E-01  8.00000000E-01
  1.50000000E+00  8.00000000E-01  8.00000000E-01  1.50000000E+00  8.00000000E-01
  8.00000000E-01  1.50000000E+00  8.00000000E-01  8.00000000E-01  1.50000000E+00
  8.00000000E-01  8.00000000E-01  1.50000000E+00  8.00000000E-01  8.00000000E-01
  1.50000000E+00  8.00000000E-01  8.00000000E-01  1.50000000E+00  8.00000000E-01
  8.00000000E-01  1.50000000E+00  8.00000000E-01  8.00000000E-01  1.50000000E+00
  8.00000000E-01  8.00000000E-01  1.50000000E+00  8.00000000E-01  8.00000000E-01
  1.50000000E+00  8.00000000E-01  8.00000000E-01  1.50000000E+00  8.00000000E-01
  8.00000000E-01  1.50000000E+00  8.00000000E-01  8.00000000E-01  1.50000000E+00
  8.00000000E-01  8.00000000E-01  1.50000000E+00  8.00000000E-01  8.00000000E-01
  1.50000000E+00  8.00000000E-01  8.00000000E-01  1.50000000E+00  8.00000000E-01
  8.00000000E-01  1.50000000E+00  8.00000000E-01  8.00000000E-01  1.50000000E+00
  8.00000000E-01  8.00000000E-01  1.50000000E+00  8.00000000E-01  8.00000000E-01
  1.50000000E+00  8.00000000E-01  8.00000000E-01  1.50000000E+00  8.00000000E-01
  8.00000000E-01  1.50000000E+00  8.00000000E-01  8.00000000E-01  1.50000000E+00
  8.00000000E-01  8.00000000E-01  1.50000000E+00  8.00000000E-01  8.00000000E-01
  1.50000000E+00  8.00000000E-01  8.00000000E-01  1.50000000E+00  8.00000000E-01
  8.00000000E-01  1.50000000E+00  8.00000000E-01  8.00000000E-01  1.50000000E+00
  8.00000000E-01  8.00000000E-01  1.50000000E+00  8.00000000E-01  8.00000000E-01
  1.50000000E+00  8.00000000E-01  8.00000000E-01  1.50000000E+00  8.00000000E-01
  8.00000000E-01  1.50000000E+00  8.00000000E-01  8.00000000E-01  1.50000000E+00
  8.00000000E-01  8.00000000E-01  1.50000000E+00  8.00000000E-01  8.00000000E-01
  1.50000000E+00  8.00000000E-01  8.00000000E-01  1.50000000E+00  8.00000000E-01
  8.00000000E-01  1.50000000E+00  8.00000000E-01  8.00000000E-01  1.50000000E+00
  8.00000000E-01  8.00000000E-01  1.50000000E+00  8.00000000E-01  8.00000000E-01
  1.50000000E+00  8.00000000E-01  8.00000000E-01  1.50000000E+00  8.00000000E-01
  8.00000000E-01  1.50000000E+00  8.00000000E-01  8.00000000E-01  1.50000000E+00
  8.00000000E-01  8.00000000E-01  1.50000000E+00  8.00000000E-01  8.00000000E-01
  1.50000000E+00  8.00000000E-01  8.00000000E-01  1.50000000E+00  8.00000000E-01
  8.00000000E-01  1.50000000E+00  8.00000000E-01  8.00000000E-01  1.50000000E+00
  8.00000000E-01  8.00000000E-01  1.50000000E+00  8.00000000E-01  8.00000000E-01
  1.50000000E+00  8.00000000E-01  8.00000000E-01  1.50000000E+00  8.00000000E-01
  8.00000000E-01  1.50000000E+00  8.00000000E-01  8.00000000E-01  1.50000000E+00
  8.00000000E-01  8.00000000E-01  1.50000000E+00  8.00000000E-01  8.00000000E-01
  1.50000000E+00  8.00000000E-01  8.00000000E-01  1.50000000E+00  8.00000000E-01
  8.00000000E-01  1.50000000E+00  8.00000000E-01  8.00000000E-01  1.50000000E+00
  8.00000000E-01  8.00000000E-01  1.50000000E+00  8.00000000E-01  8.00000000E-01
  1.50000000E+00  8.00000000E-01  8.00000000E-01  1.50000000E+00  8.00000000E-01
  8.00000000E-01  1.50000000E+00  8.00000000E-01  8.00000000E-01  1.50000000E+00
  8.00000000E-01  8.00000000E-01  1.50000000E+00  8.00000000E-01  8.00000000E-01
  1.50000000E+00  8.00000000E-01  8.00000000E-01  1.50000000E+00  8.00000000E-01
  8.00000000E-01  1.50000000E+00  8.00000000E-01  8.00000000E-01  1.50000000E+00
  8.00000000E-01  8.00000000E-01  1.50000000E+00  8.00000000E-01  8.00000000E-01
  1.50000000E+00  8.00000000E-01  8.00000000E-01  1.50000000E+00  8.00000000E-01
  8.00000000E-01  1.50000000E+00  8.00000000E-01  8.00000000E-01  1.50000000E+00
  8.00000000E-01  8.00000000E-01  1.50000000E+00  8.00000000E-01  8.00000000E-01
  1.50000000E+00  8.00000000E-01  8.00000000E-01  1.50000000E+00  8.00000000E-01
  8.00000000E-01  1.50000000E+00  8.00000000E-01  8.00000000E-01  1.50000000E+00
  8.00000000E-01  8.00000000E-01  1.50000000E+00  8.00000000E-01  8.00000000E-01
  1.50000000E+00  8.00000000E-01  8.00000000E-01  1.50000000E+00  8.00000000E-01
  8.00000000E-01  1.50000000E+00  8.00000000E-01  8.00000000E-01  1.50000000E+00
  8.00000000E-01  8.00000000E-01  1.50000000E+00  8.00000000E-01  8.00000000E-01
  1.50000000E+00  8.00000000E-01  8.00000000E-01  1.50000000E+00  8.00000000E-01
  8.00000000E-01  1.50000000E+00  8.00000000E-01  8.00000000E-01  1.50000000E+00
  8.00000000E-01  8.00000000E-01  1.50000000E+00  8.00000000E-01  8.00000000E-01
  1.50000000E+00  8.00000000E-01  8.00000000E-01  1.50000000E+00  8.00000000E-01
  8.00000000E-01  1.50000000E+00  8.00000000E-01  8.00000000E-01  1.50000000E+00
  8.00000000E-01  8.00000000E-01  1.50000000E+00  8.00000000E-01  8.00000000E-01
  1.50000000E+00  8.00000000E-01  8.00000000E-01  1.50000000E+00  8.00000000E-01
  8.00000000E-01  1.50000000E+00  8.00000000E-01  8.00000000E-01  1.50000000E+00
  8.00000000E-01  8.00000000E-01  1.50000000E+00  8.00000000E-01  8.00000000E-01
  1.50000000E+00  8.00000000E-01  8.00000000E-01  1.50000000E+00  8.00000000E-01
  8.00000000E-01  1.50000000E+00  8.00000000E-01  8.00000000E-01  1.50000000E+00
  8.00000000E-01  8.00000000E-01  1.50000000E+00  8.00000000E-01  8.00000000E-01
  1.50000000E+00  8.00000000E-01  8.00000000E-01  1.50000000E+00  8.00000000E-01
  8.00000000E-01  1.50000000E+00  8.00000000E-01  8.00000000E-01  1.50000000E+00
  8.00000000E-01  8.00000000E-01  1.50000000E+00  8.00000000E-01  8.00000000E-01
  1.50000000E+00  8.00000000E-01  8.00000000E-01  1.50000000E+00  8.00000000E-01
  8.00000000E-01  1.50000000E+00  8.00000000E-01  8.00000000E-01  1.50000000E+00
  8.00000000E-01  8.00000000E-01  1.50000000E+00  8.00000000E-01  8.00000000E-01
  1.50000000E+00  8.00000000E-01  8.00000000E-01  1.50000000E+00  8.00000000E-01
  8.00000000E-01  1.50000000E+00  8.00000000E-01  8.00000000E-01  1.50000000E+00
  8.00000000E-01  8.00000000E-01  1.50000000E+00  8.00000000E-01  8.00000000E-01
  1.50000000E+00  8.00000000E-01  8.00000000E-01  1.50000000E+00  8.00000000E-01
  8.00000000E-01  1.50000000E+00  8.00000000E-01  8.00000000E-01  1.50000000E+00
  8.00000000E-01  8.00000000E-01  1.50000000E+00  8.00000000E-01  8.00000000E-01
  1.50000000E+00  8.00000000E-01  8.00000000E-01  1.50000000E+00  8.00000000E-01
  8.00000000E-01  1.50000000E+00  8.00000000E-01  8.00000000E-01  1.50000000E+00
  8.00000000E-01  8.00000000E-01  1.50000000E+00  8.00000000E-01  8.00000000E-01
  1.50000000E+00  8.00000000E-01  8.00000000E-01  1.50000000E+00  8.00000000E-01
  8.00000000E-01  1.50000000E+00  8.00000000E-01  8.00000000E-01  1.50000000E+00
  8.00000000E-01  8.00000000E-01  1.50000000E+00  8.00000000E-01  8.00000000E-01
  1.50000000E+00  8.00000000E-01  8.00000000E-01  1.50000000E+00  8.00000000E-01
  8.00000000E-01  1.50000000E+00  8.00000000E-01  8.00000000E-01  1.50000000E+00
  8.00000000E-01  8.00000000E-01  1.50000000E+00  8.00000000E-01  8.00000000E-01
  1.50000000E+00  8.00000000E-01  8.00000000E-01  1.50000000E+00  8.00000000E-01
  8.00000000E-01  1.50000000E+00  8.00000000E-01  8.00000000E-01  1.50000000E+00
  8.00000000E-01  8.00000000E-01  1.50000000E+00  8.00000000E-01  8.00000000E-01
  1.50000000E+00  8.00000000E-01  8.00000000E-01  1.50000000E+00  8.00000000E-01
  8.00000000E-01  1.50000000E+00  8.00000000E-01  8.00000000E-01  1.50000000E+00
  8.00000000E-01  8.00000000E-01  1.50000000E+00  8.00000000E-01  8.00000000E-01
  1.50000000E+00  8.00000000E-01  8.00000000E-01  1.50000000E+00  8.00000000E-01
  8.00000000E-01  1.50000000E+00  8.00000000E-01  8.00000000E-01  1.50000000E+00
  8.00000000E-01  8.00000000E-01  1.50000000E+00  8.00000000E-01  8.00000000E-01
  1.50000000E+00  8.00000000E-01  8.00000000E-01  1.50000000E+00  8.00000000E-01
  8.00000000E-01  1.50000000E+00  8.00000000E-01  8.00000000E-01  1.50000000E+00
  8.00000000E-01  8.00000000E-01  1.50000000E+00  8.00000000E-01  8.00000000E-01
  1.50000000E+00  8.00000000E-01  8.00000000E-01  1.50000000E+00  8.00000000E-01
  8.00000000E-01  1.50000000E+00  8.00000000E-01  8.00000000E-01  1.50000000E+00
  8.00000000E-01  8.00000000E-01  1.50000000E+00  8.00000000E-01  8.00000000E-01
  1.50000000E+00  8.00000000E-01  8.00000000E-01  1.50000000E+00  8.00000000E-01
  8.00000000E-01  1.50000000E+00  8.00000000E-01  8.00000000E-01  1.50000000E+00
  8.00000000E-01  8.00000000E-01  1.50000000E+00  8.00000000E-01  8.00000000E-01
  1.50000000E+00  8.00000000E-01  8.00000000E-01  1.50000000E+00  8.00000000E-01
  8.00000000E-01  1.50000000E+00  8.00000000E-01  8.00000000E-01  1.50000000E+00
  8.00000000E-01  8.00000000E-01  1.50000000E+00  8.00000000E-01  8.00000000E-01
  1.50000000E+00  8.00000000E-01  8.00000000E-01  1.50000000E+00  8.00000000E-01
  8.00000000E-01  1.50000000E+00  8.00000000E-01  8.00000000E-01  1.50000000E+00
  8.00000000E-01  8.00000000E-01  1.50000000E+00  8.00000000E-01  8.00000000E-01
  1.50000000E+00  8.00000000E-01  8.00000000E-01  1.50000000E+00  8.00000000E-01
  8.00000000E-01  1.50000000E+00  8.00000000E-01  8.00000000E-01  1.50000000E+00
  8.00000000E-01  8.00000000E-01  1.50000000E+00  8.00000000E-01  8.00000000E-01
  1.50000000E+00  8.00000000E-01  8.00000000E-01  1.50000000E+00  8.00000000E-01
  8.00000000E-01  1.50000000E+00  8.00000000E-01  8.00000000E-01  1.50000000E+00
  8.00000000E-01  8.00000000E-01  1.50000000E+00  8.00000000E-01  8.00000000E-01
  1.50000000E+00  8.00000000E-01  8.00000000E-01  1.50000000E+00  8.00000000E-01
  8.00000000E-01  1.50000000E+00  8.00000000E-01  8.00000000E-01  1.50000000E+00
  8.00000000E-01  8.00000000E-01  1.50000000E+00  8.00000000E-01  8.00000000E-01
  1.50000000E+00  8.00000000E-01  8.00000000E-01  1.50000000E+00  8.00000000E-01
  8.00000000E-01  1.50000000E+00  8.00000000E-01  8.00000000E-01  1.50000000E+00
  8.00000000E-01  8.00000000E-01  1.50000000E+00  8.00000000E-01  8.00000000E-01
  1.50000000E+00  8.00000000E-01  8.00000000E-01  1.50000000E+00  8.00000000E-01
  8.00000000E-01  1.50000000E+00  8.00000000E-01  8.00000000E-01  1.50000000E+00
  8.00000000E-01  8.00000000E-01  1.50000000E+00  8.00000000E-01  8.00000000E-01
  1.50000000E+00  8.00000000E-01  8.00000000E-01  1.50000000E+00  8.00000000E-01
  8.00000000E-01  1.50000000E+00  8.00000000E-01  8.00000000E-01  1.50000000E+00
  8.00000000E-01  8.00000000E-01  1.50000000E+00  8.00000000E-01  8.00000000E-01
  1.50000000E+00  8.00000000E-01  8.00000000E-01  1.50000000E+00  8.00000000E-01
  8.00000000E-01  1.50000000E+00  8.00000000E-01  8.00000000E-01  1.50000000E+00
  8.00000000E-01  8.00000000E-01  1.50000000E+00  8.00000000E-01  8.00000000E-01
  1.50000000E+00  8.00000000E-01  8.00000000E-01  1.50000000E+00  8.00000000E-01
  8.00000000E-01  1.50000000E+00  8.00000000E-01  8.00000000E-01  1.50000000E+00
  8.00000000E-01  8.00000000E-01  1.50000000E+00  8.00000000E-01  8.00000000E-01
  1.50000000E+00  8.00000000E-01  8.00000000E-01  1.50000000E+00  8.00000000E-01
  8.00000000E-01  1.50000000E+00  8.00000000E-01  8.00000000E-01  1.50000000E+00
  8.00000000E-01  8.00000000E-01  1.50000000E+00  8.00000000E-01  8.00000000E-01
  1.50000000E+00  8.00000000E-01  8.00000000E-01  1.50000000E+00  8.00000000E-01
  8.00000000E-01  1.50000000E+00  8.00000000E-01  8.00000000E-01  1.50000000E+00
  8.00000000E-01  8.00000000E-01  1.50000000E+00  8.00000000E-01  8.00000000E-01
  1.50000000E+00  8.00000000E-01  8.00000000E-01  1.50000000E+00  8.00000000E-01
  8.00000000E-01  1.50000000E+00  8.00000000E-01  8.00000000E-01  1.50000000E+00
  8.00000000E-01  8.00000000E-01  1.50000000E+00  8.00000000E-01  8.00000000E-01
  1.50000000E+00  8.00000000E-01  8.00000000E-01  1.50000000E+00  8.00000000E-01
  8.00000000E-01  1.50000000E+00  8.00000000E-01  8.00000000E-01  1.50000000E+00
  8.00000000E-01  8.00000000E-01  1.50000000E+00  8.00000000E-01  8.00000000E-01
  1.50000000E+00  8.00000000E-01  8.00000000E-01  1.50000000E+00  8.00000000E-01
  8.00000000E-01  1.50000000E+00  8.00000000E-01  8.00000000E-01  1.50000000E+00
  8.00000000E-01  8.00000000E-01  1.50000000E+00  8.00000000E-01  8.00000000E-01
  1.50000000E+00  8.00000000E-01  8.00000000E-01  1.50000000E+00  8.00000000E-01
  8.00000000E-01  1.50000000E+00  8.00000000E-01  8.00000000E-01  1.50000000E+00
  8.00000000E-01  8.00000000E-01  1.50000000E+00  8.00000000E-01  8.00000000E-01
  1.50000000E+00  8.00000000E-01  8.00000000E-01  1.50000000E+00  8.00000000E-01
  8.00000000E-01  1.50000000E+00  8.00000000E-01  8.00000000E-01  1.50000000E+00
  8.00000000E-01  8.00000000E-01  1.50000000E+00  8.00000000E-01  8.00000000E-01
  1.50000000E+00  8.00000000E-01  8.00000000E-01  1.50000000E+00  8.00000000E-01
  8.00000000E-01  1.50000000E+00  8.00000000E-01  8.00000000E-01  1.50000000E+00
  8.00000000E-01  8.00000000E-01  1.50000000E+00  8.00000000E-01  8.00000000E-01
  1.50000000E+00  8.00000000E-01  8.00000000E-01  1.50000000E+00  8.00000000E-01
  8.00000000E-01  1.50000000E+00  8.00000000E-01  8.00000000E-01  1.50000000E+00
  8.00000000E-01  8.00000000E-01  1.50000000E+00  8.00000000E-01  8.00000000E-01
  1.50000000E+00  8.00000000E-01  8.00000000E-01  1.50000000E+00  8.00000000E-01
  8.00000000E-01  1.50000000E+00  8.00000000E-01  8.00000000E-01  1.50000000E+00
  8.00000000E-01  8.00000000E-01  1.50000000E+00  8.00000000E-01  8.00000000E-01
  1.50000000E+00  8.00000000E-01  8.00000000E-01  1.50000000E+00  8.00000000E-01
  8.00000000E-01  1.50000000E+00  8.00000000E-01  8.00000000E-01  1.50000000E+00
  8.00000000E-01  8.00000000E-01  1.50000000E+00  8.00000000E-01  8.00000000E-01
  1.50000000E+00  8.00000000E-01  8.00000000E-01  1.50000000E+00  8.00000000E-01
  8.00000000E-01  1.50000000E+00  8.00000000E-01  8.00000000E-01  1.50000000E+00
  8.00000000E-01  8.00000000E-01  1.50000000E+00  8.00000000E-01  8.00000000E-01
  1.50000000E+00  8.00000000E-01  8.00000000E-01  1.50000000E+00  8.00000000E-01
  8.00000000E-01  1.50000000E+00  8.00000000E-01  8.00000000E-01  1.50000000E+00
  8.00000000E-01  8.00000000E-01  1.50000000E+00  8.00000000E-01  8.00000000E-01
  1.50000000E+00  8.00000000E-01  8.00000000E-01  1.50000000E+00  8.00000000E-01
  8.00000000E-01  1.50000000E+00  8.00000000E-01  8.00000000E-01  1.50000000E+00
  8.00000000E-01  8.00000000E-01  1.50000000E+00  8.00000000E-01  8.00000000E-01
  1.50000000E+00  8.00000000E-01  8.00000000E-01  1.50000000E+00  8.00000000E-01
  8.00000000E-01  1.50000000E+00  8.00000000E-01  8.00000000E-01  1.50000000E+00
  8.00000000E-01  8.00000000E-01  1.50000000E+00  8.00000000E-01  8.00000000E-01
  1.50000000E+00  8.00000000E-01  8.00000000E-01  1.50000000E+00  8.00000000E-01
  8.00000000E-01  1.50000000E+00  8.00000000E-01  8.00000000E-01  1.50000000E+00
  8.00000000E-01  8.00000000E-01  1.50000000E+00  8.00000000E-01  8.00000000E-01
  1.50000000E+00  8.00000000E-01  8.00000000E-01  1.50000000E+00  8.00000000E-01
  8.00000000E-01  1.50000000E+00  8.00000000E-01  8.00000000E-01  1.50000000E+00
  8.00000000E-01  8.00000000E-01  1.50000000E+00  8.00000000E-01  8.00000000E-01
  1.50000000E+00  8.00000000E-01  8.00000000E-01  1.50000000E+00  8.00000000E-01
  8.00000000E-01  1.50000000E+00  8.00000000E-01  8.00000000E-01  1.50000000E+00
  8.00000000E-01  8.00000000E-01  1.50000000E+00  8.00000000E-01  8.00000000E-01
  1.50000000E+00  8.00000000E-01  8.00000000E-01  1.50000000E+00  8.00000000E-01
  8.00000000E-01  1.50000000E+00  8.00000000E-01  8.00000000E-01  1.50000000E+00
  8.00000000E-01  8.00000000E-01  1.50000000E+00  8.00000000E-01  8.00000000E-01
  1.50000000E+00  8.00000000E-01  8.00000000E-01  1.50000000E+00  8.00000000E-01
  8.00000000E-01  1.50000000E+00  8.00000000E-01  8.00000000E-01  1.50000000E+00
  8.00000000E-01  8.00000000E-01  1.50000000E+00  8.00000000E-01  8.00000000E-01
  1.50000000E+00  8.00000000E-01  8.00000000E-01  1.50000000E+00  8.00000000E-01
  8.00000000E-01  1.50000000E+00  8.00000000E-01  8.00000000E-01  1.50000000E+00
  8.00000000E-01  8.00000000E-01  1.50000000E+00  8.00000000E-01  8.00000000E-01
  1.50000000E+00  8.00000000E-01  8.00000000E-01  1.50000000E+00  8.00000000E-01
  8.00000000E-01  1.50000000E+00  8.00000000E-01  8.00000000E-01  1.50000000E+00
  8.00000000E-01  8.00000000E-01  1.50000000E+00  8.00000000E-01  8.00000000E-01
  1.50000000E+00  8.00000000E-01  8.00000000E-01  1.50000000E+00  8.00000000E-01
  8.00000000E-01  1.50000000E+00  8.00000000E-01  8.00000000E-01  1.50000000E+00
  8.00000000E-01  8.00000000E-01  1.50000000E+00  8.00000000E-01  8.00000000E-01
  1.50000000E+00  8.00000000E-01  8.00000000E-01  1.50000000E+00  8.00000000E-01
  8.00000000E-01  1.50000000E+00  8.00000000E-01  8.00000000E-01  1.50000000E+00
  8.00000000E-01  8.00000000E-01  1.50000000E+00  8.00000000E-01  8.00000000E-01
  1.50000000E+00  8.00000000E-01  8.00000000E-01  1.50000000E+00  8.00000000E-01
  8.00000000E-01  1.50000000E+00  8.00000000E-01  8.00000000E-01  1.50000000E+00
  8.00000000E-01  8.00000000E-01  1.50000000E+00  8.00000000E-01  8.00000000E-01
  1.50000000E+00  8.00000000E-01  8.00000000E-01  1.50000000E+00  8.00000000E-01
  8.00000000E-01  1.50000000E+00  8.00000000E-01  8.00000000E-01  1.50000000E+00
  8.00000000E-01  8.00000000E-01  1.50000000E+00  8.00000000E-01  8.00000000E-01
  1.50000000E+00  8.00000000E-01  8.00000000E-01  1.50000000E+00  8.00000000E-01
  8.00000000E-01  1.50000000E+00  8.00000000E-01  8.00000000E-01  1.50000000E+00
  8.00000000E-01  8.00000000E-01  1.50000000E+00  8.00000000E-01  8.00000000E-01
  1.50000000E+00  8.00000000E-01  8.00000000E-01  1.50000000E+00  8.00000000E-01
  8.00000000E-01  1.50000000E+00  8.00000000E-01  8.00000000E-01  1.50000000E+00
  8.00000000E-01  8.00000000E-01  1.50000000E+00  8.00000000E-01  8.00000000E-01
  1.50000000E+00  8.00000000E-01  8.00000000E-01  1.50000000E+00  8.00000000E-01
  8.00000000E-01  1.50000000E+00  8.00000000E-01  8.00000000E-01  1.50000000E+00
  8.00000000E-01  8.00000000E-01  1.50000000E+00  8.00000000E-01  8.00000000E-01
  1.50000000E+00  8.00000000E-01  8.00000000E-01  1.50000000E+00  8.00000000E-01
  8.00000000E-01  1.50000000E+00  8.00000000E-01  8.00000000E-01  1.50000000E+00
  8.00000000E-01  8.00000000E-01  1.50000000E+00  8.00000000E-01  8.00000000E-01
  1.50000000E+00  8.00000000E-01  8.00000000E-01  1.50000000E+00  8.00000000E-01
  8.00000000E-01  1.50000000E+00  8.00000000E-01  8.00000000E-01  1.50000000E+00
  8.00000000E-01  8.00000000E-01  1.50000000E+00  8.00000000E-01  8.00000000E-01
  1.50000000E+00  8.00000000E-01  8.00000000E-01  1.50000000E+00  8.00000000E-01
  8.00000000E-01  1.50000000E+00  8.00000000E-01  8.00000000E-01  1.50000000E+00
  8.00000000E-01  8.00000000E-01  1.50000000E+00  8.00000000E-01  8.00000000E-01
  1.50000000E+00  8.00000000E-01  8.00000000E-01  1.50000000E+00  8.00000000E-01
  8.00000000E-01  1.50000000E+00  8.00000000E-01  8.00000000E-01  1.50000000E+00
  8.00000000E-01  8.00000000E-01  1.50000000E+00  8.00000000E-01  8.00000000E-01
  1.50000000E+00  8.00000000E-01  8.00000000E-01  1.50000000E+00  8.00000000E-01
  8.00000000E-01  1.50000000E+00  8.00000000E-01  8.00000000E-01  1.50000000E+00
  8.00000000E-01  8.00000000E-01  1.50000000E+00  8.00000000E-01  8.00000000E-01
  1.50000000E+00  8.00000000E-01  8.00000000E-01  1.50000000E+00  8.00000000E-01
  8.00000000E-01  1.50000000E+00  8.00000000E-01  8.00000000E-01  1.50000000E+00
  8.00000000E-01  8.00000000E-01  1.50000000E+00  8.00000000E-01  8.00000000E-01
  1.50000000E+00  8.00000000E-01  8.00000000E-01  1.50000000E+00  8.00000000E-01
  8.00000000E-01  1.50000000E+00  8.00000000E-01  8.00000000E-01  1.50000000E+00
  8.00000000E-01  8.00000000E-01  1.50000000E+00  8.00000000E-01  8.00000000E-01
  1.50000000E+00  8.00000000E-01  8.00000000E-01  1.50000000E+00  8.00000000E-01
  8.00000000E-01  1.50000000E+00  8.00000000E-01  8.00000000E-01  1.50000000E+00
  8.00000000E-01  8.00000000E-01  1.50000000E+00  8.00000000E-01  8.00000000E-01
  1.50000000E+00  8.00000000E-01  8.00000000E-01  1.50000000E+00  8.00000000E-01
  8.00000000E-01  1.50000000E+00  8.00000000E-01  8.00000000E-01  1.50000000E+00
  8.00000000E-01  8.00000000E-01  1.50000000E+00  8.00000000E-01  8.00000000E-01
  1.50000000E+00  8.00000000E-01  8.00000000E-01  1.50000000E+00  8.00000000E-01
  8.00000000E-01  1.50000000E+00  8.00000000E-01  8.00000000E-01  1.50000000E+00
  8.00000000E-01  8.00000000E-01  1.50000000E+00  8.00000000E-01  8.00000000E-01
  1.50000000E+00  8.00000000E-01  8.00000000E-01  1.50000000E+00  8.00000000E-01
  8.00000000E-01  1.50000000E+00  8.00000000E-01  8.00000000E-01  1.50000000E+00
  8.00000000E-01  8.00000000E-01  1.50000000E+00  8.00000000E-01  8.00000000E-01
  1.50000000E+00  8.00000000E-01  8.00000000E-01  1.50000000E+00  8.00000000E-01
  8.00000000E-01  1.50000000E+00  8.00000000E-01  8.00000000E-01  1.50000000E+00
  8.00000000E-01  8.00000000E-01  1.50000000E+00  8.00000000E-01  8.00000000E-01
  1.50000000E+00  8.00000000E-01  8.00000000E-01  1.50000000E+00  8.00000000E-01
  8.00000000E-01  1.50000000E+00  8.00000000E-01  8.00000000E-01  1.50000000E+00
  8.00000000E-01  8.00000000E-01  1.50000000E+00  8.00000000E-01  8.00000000E-01
  1.50000000E+00  8.00000000E-01  8.00000000E-01  1.50000000E+00  8.00000000E-01
  8.00000000E-01  1.50000000E+00  8.00000000E-01  8.00000000E-01  1.50000000E+00
  8.00000000E-01  8.00000000E-01  1.50000000E+00  8.00000000E-01  8.00000000E-01
  1.50000000E+00  8.00000000E-01  8.00000000E-01  1.50000000E+00  8.00000000E-01
  8.00000000E-01  1.50000000E+00  8.00000000E-01  8.00000000E-01  1.50000000E+00
  8.00000000E-01  8.00000000E-01  1.50000000E+00  8.00000000E-01  8.00000000E-01
  1.50000000E+00  8.00000000E-01  8.00000000E-01  1.50000000E+00  8.00000000E-01
  8.00000000E-01  1.50000000E+00  8.00000000E-01  8.00000000E-01  1.50000000E+00
  8.00000000E-01  8.00000000E-01  1.50000000E+00  8.00000000E-01  8.00000000E-01
  1.50000000E+00  8.00000000E-01  8.00000000E-01  1.50000000E+00  8.00000000E-01
  8.00000000E-01  1.50000000E+00  8.00000000E-01  8.00000000E-01  1.50000000E+00
  8.00000000E-01  8.00000000E-01  1.50000000E+00  8.00000000E-01  8.00000000E-01
  1.50000000E+00  8.00000000E-01  8.00000000E-01  1.50000000E+00  8.00000000E-01
  8.00000000E-01  1.50000000E+00  8.00000000E-01  8.00000000E-01  1.50000000E+00
  8.00000000E-01  8.00000000E-01  1.50000000E+00  8.00000000E-01  8.00000000E-01
  1.50000000E+00  8.00000000E-01  8.00000000E-01  1.50000000E+00  8.00000000E-01
  8.00000000E-01  1.50000000E+00  8.00000000E-01  8.00000000E-01  1.50000000E+00
  8.00000000E-01  8.00000000E-01  1.50000000E+00  8.00000000E-01  8.00000000E-01
  1.50000000E+00  8.00000000E-01  8.00000000E-01  1.50000000E+00  8.00000000E-01
  8.00000000E-01  1.50000000E+00  8.00000000E-01  8.00000000E-01  1.50000000E+00
  8.00000000E-01  8.00000000E-01  1.50000000E+00  8.00000000E-01  8.00000000E-01
  1.50000000E+00  8.00000000E-01  8.00000000E-01  1.50000000E+00  8.00000000E-01
  8.00000000E-01  1.50000000E+00  8.00000000E-01  8.00000000E-01  1.50000000E+00
  8.00000000E-01  8.00000000E-01  1.50000000E+00  8.00000000E-01  8.00000000E-01
  1.50000000E+00  8.00000000E-01  8.00000000E-01  1.50000000E+00  8.00000000E-01
  8.00000000E-01  1.50000000E+00  8.00000000E-01  8.00000000E-01  1.50000000E+00
  8.00000000E-01  8.00000000E-01  1.50000000E+00  8.00000000E-01  8.00000000E-01
  1.50000000E+00  8.00000000E-01  8.00000000E-01  1.50000000E+00  8.00000000E-01
  8.00000000E-01  1.50000000E+00  8.00000000E-01  8.00000000E-01  1.50000000E+00
  8.00000000E-01  8.00000000E-01  1.50000000E+00  8.00000000E-01  8.00000000E-01
  1.50000000E+00  8.00000000E-01  8.00000000E-01  1.50000000E+00  8.00000000E-01
  8.00000000E-01  1.50000000E+00  8.00000000E-01  8.00000000E-01  1.50000000E+00
  8.00000000E-01  8.00000000E-01  1.50000000E+00  8.00000000E-01  8.00000000E-01
  1.50000000E+00  8.00000000E-01  8.00000000E-01  1.50000000E+00  8.00000000E-01
  8.00000000E-01  1.50000000E+00  8.00000000E-01  8.00000000E-01  1.50000000E+00
  8.00000000E-01  8.00000000E-01  1.50000000E+00  8.00000000E-01  8.00000000E-01
  1.50000000E+00  8.00000000E-01  8.00000000E-01  1.50000000E+00  8.00000000E-01
  8.00000000E-01  1.50000000E+00  8.00000000E-01  8.00000000E-01  1.50000000E+00
  8.00000000E-01  8.00000000E-01  1.50000000E+00  8.00000000E-01  8.00000000E-01
  1.50000000E+00  8.00000000E-01  8.00000000E-01  1.50000000E+00  8.00000000E-01
  8.00000000E-01  1.50000000E+00  8.00000000E-01  8.00000000E-01  1.50000000E+00
  8.00000000E-01  8.00000000E-01  1.50000000E+00  8.00000000E-01  8.00000000E-01
  1.50000000E+00  8.00000000E-01  8.00000000E-01  1.50000000E+00  8.00000000E-01
  8.00000000E-01  1.50000000E+00  8.00000000E-01  8.00000000E-01  1.50000000E+00
  8.00000000E-01  8.00000000E-01  1.50000000E+00  8.00000000E-01  8.00000000E-01
  1.50000000E+00  8.00000000E-01  8.00000000E-01  1.50000000E+00  8.00000000E-01
  8.00000000E-01  1.50000000E+00  8.00000000E-01  8.00000000E-01  1.50000000E+00
  8.00000000E-01  8.00000000E-01  1.50000000E+00  8.00000000E-01  8.00000000E-01
  1.50000000E+00  8.00000000E-01  8.00000000E-01  1.50000000E+00  8.00000000E-01
  8.00000000E-01  1.50000000E+00  8.00000000E-01  8.00000000E-01  1.50000000E+00
  8.00000000E-01  8.00000000E-01  1.50000000E+00  8.00000000E-01  8.00000000E-01
  1.50000000E+00  8.00000000E-01  8.00000000E-01  1.50000000E+00  8.00000000E-01
  8.00000000E-01  1.50000000E+00  8.00000000E-01  8.00000000E-01  1.50000000E+00
  8.00000000E-01  8.00000000E-01  1.50000000E+00  8.00000000E-01  8.00000000E-01
  1.50000000E+00  8.00000000E-01  8.00000000E-01  1.50000000E+00  8.00000000E-01
  8.00000000E-01  1.50000000E+00  8.00000000E-01  8.00000000E-01  1.50000000E+00
  8.00000000E-01  8.00000000E-01  1.50000000E+00  8.00000000E-01  8.00000000E-01
  1.50000000E+00  8.00000000E-01  8.00000000E-01  1.50000000E+00  8.00000000E-01
  8.00000000E-01  1.50000000E+00  8.00000000E-01  8.00000000E-01  1.50000000E+00
  8.00000000E-01  8.00000000E-01  1.50000000E+00  8.00000000E-01  8.00000000E-01
  1.50000000E+00  8.00000000E-01  8.00000000E-01  1.50000000E+00  8.00000000E-01
  8.00000000E-01  1.50000000E+00  8.00000000E-01  8.00000000E-01  1.50000000E+00
  8.00000000E-01  8.00000000E-01  1.50000000E+00  8.00000000E-01  8.00000000E-01
  1.50000000E+00  8.00000000E-01  8.00000000E-01  1.50000000E+00  8.00000000E-01
  8.00000000E-01  1.50000000E+00  8.00000000E-01  8.00000000E-01  1.50000000E+00
  8.00000000E-01  8.00000000E-01  1.50000000E+00  8.00000000E-01  8.00000000E-01
  1.50000000E+00  8.00000000E-01  8.00000000E-01  1.50000000E+00  8.00000000E-01
  8.00000000E-01  1.50000000E+00  8.00000000E-01  8.00000000E-01  1.50000000E+00
  8.00000000E-01  8.00000000E-01  1.50000000E+00  8.00000000E-01  8.00000000E-01
  1.50000000E+00  8.00000000E-01  8.00000000E-01  1.50000000E+00  8.00000000E-01
  8.00000000E-01  1.50000000E+00  8.00000000E-01  8.00000000E-01  1.50000000E+00
  8.00000000E-01  8.00000000E-01  1.50000000E+00  8.00000000E-01  8.00000000E-01
  1.50000000E+00  8.00000000E-01  8.00000000E-01  1.50000000E+00  8.00000000E-01
  8.00000000E-01  1.50000000E+00  8.00000000E-01  8.00000000E-01  1.50000000E+00
  8.00000000E-01  8.00000000E-01  1.50000000E+00  8.00000000E-01  8.00000000E-01
  1.50000000E+00  8.00000000E-01  8.00000000E-01  1.50000000E+00  8.00000000E-01
  8.00000000E-01  1.50000000E+00  8.00000000E-01  8.00000000E-01  1.50000000E+00
  8.00000000E-01  8.00000000E-01  1.50000000E+00  8.00000000E-01  8.00000000E-01
  1.50000000E+00  8.00000000E-01  8.00000000E-01  1.50000000E+00  8.00000000E-01
  8.00000000E-01  1.50000000E+00  8.00000000E-01  8.00000000E-01  1.50000000E+00
  8.00000000E-01  8.00000000E-01  1.50000000E+00  8.00000000E-01  8.00000000E-01
  1.50000000E+00  8.00000000E-01  8.00000000E-01  1.50000000E+00  8.00000000E-01
  8.00000000E-01  1.50000000E+00  8.00000000E-01  8.00000000E-01  1.50000000E+00
  8.00000000E-01  8.00000000E-01  1.50000000E+00  8.00000000E-01  8.00000000E-01
  1.50000000E+00  8.00000000E-01  8.00000000E-01  1.50000000E+00  8.00000000E-01
  8.00000000E-01  1.50000000E+00  8.00000000E-01  8.00000000E-01  1.50000000E+00
  8.00000000E-01  8.00000000E-01  1.50000000E+00  8.00000000E-01  8.00000000E-01
  1.50000000E+00  8.00000000E-01  8.00000000E-01  1.50000000E+00  8.00000000E-01
  8.00000000E-01  1.50000000E+00  8.00000000E-01  8.00000000E-01  1.50000000E+00
  8.00000000E-01  8.00000000E-01  1.50000000E+00  8.00000000E-01  8.00000000E-01
  1.50000000E+00  8.00000000E-01  8.00000000E-01  1.50000000E+00  8.00000000E-01
  8.00000000E-01  1.50000000E+00  8.00000000E-01  8.00000000E-01  1.50000000E+00
  8.00000000E-01  8.00000000E-01  1.50000000E+00  8.00000000E-01  8.00000000E-01
  1.50000000E+00  8.00000000E-01  8.00000000E-01  1.50000000E+00  8.00000000E-01
  8.00000000E-01  1.50000000E+00  8.00000000E-01  8.00000000E-01  1.50000000E+00
  8.00000000E-01  8.00000000E-01  1.50000000E+00  8.00000000E-01  8.00000000E-01
  1.50000000E+00  8.00000000E-01  8.00000000E-01  1.50000000E+00  8.00000000E-01
  8.00000000E-01  1.50000000E+00  8.00000000E-01  8.00000000E-01  1.50000000E+00
  8.00000000E-01  8.00000000E-01  1.50000000E+00  8.00000000E-01  8.00000000E-01
  1.50000000E+00  8.00000000E-01  8.00000000E-01  1.50000000E+00  8.00000000E-01
  8.00000000E-01  1.50000000E+00  8.00000000E-01  8.00000000E-01  1.50000000E+00
  8.00000000E-01  8.00000000E-01  1.50000000E+00  8.00000000E-01  8.00000000E-01
  1.50000000E+00  8.00000000E-01  8.00000000E-01  1.50000000E+00  8.00000000E-01
  8.00000000E-01  1.50000000E+00  8.00000000E-01  8.00000000E-01  1.50000000E+00
  8.00000000E-01  8.00000000E-01  1.50000000E+00  8.00000000E-01  8.00000000E-01
  1.50000000E+00  8.00000000E-01  8.00000000E-01  1.50000000E+00  8.00000000E-01
  8.00000000E-01  1.50000000E+00  8.00000000E-01  8.00000000E-01  1.50000000E+00
  8.00000000E-01  8.00000000E-01  1.50000000E+00  8.00000000E-01  8.00000000E-01
  1.50000000E+00  8.00000000E-01  8.00000000E-01  1.50000000E+00  8.00000000E-01
  8.00000000E-01  1.50000000E+00  8.00000000E-01  8.00000000E-01  1.50000000E+00
  8.00000000E-01  8.00000000E-01  1.50000000E+00  8.00000000E-01  8.00000000E-01
  1.50000000E+00  8.00000000E-01  8.00000000E-01  1.50000000E+00  8.00000000E-01
  8.00000000E-01  1.50000000E+00  8.00000000E-01  8.00000000E-01  1.50000000E+00
  8.00000000E-01  8.00000000E-01  1.50000000E+00  8.00000000E-01  8.00000000E-01
  1.50000000E+00  8.00000000E-01  8.00000000E-01  1.50000000E+00  8.00000000E-01
  8.00000000E-01  1.50000000E+00  8.00000000E-01  8.00000000E-01  1.50000000E+00
  8.00000000E-01  8.00000000E-01  1.50000000E+00  8.00000000E-01  8.00000000E-01
  1.50000000E+00  8.00000000E-01  8.00000000E-01  1.50000000E+00  8.00000000E-01
  8.00000000E-01  1.50000000E+00  8.00000000E-01  8.00000000E-01  1.50000000E+00
  8.00000000E-01  8.00000000E-01  1.50000000E+00  8.00000000E-01  8.00000000E-01
  1.50000000E+00  8.00000000E-01  8.00000000E-01  1.50000000E+00  8.00000000E-01
  8.00000000E-01  1.50000000E+00  8.00000000E-01  8.00000000E-01  1.50000000E+00
  8.00000000E-01  8.00000000E-01  1.50000000E+00  8.00000000E-01  8.00000000E-01
  1.50000000E+00  8.00000000E-01  8.00000000E-01  1.50000000E+00  8.00000000E-01
  8.00000000E-01  1.50000000E+00  8.00000000E-01  8.00000000E-01  1.50000000E+00
  8.00000000E-01  8.00000000E-01  1.50000000E+00  8.00000000E-01  8.00000000E-01
  1.50000000E+00  8.00000000E-01  8.00000000E-01  1.50000000E+00  8.00000000E-01
  8.00000000E-01  1.50000000E+00  8.00000000E-01  8.00000000E-01  1.50000000E+00
  8.00000000E-01  8.00000000E-01  1.50000000E+00  8.00000000E-01  8.00000000E-01
  1.50000000E+00  8.00000000E-01  8.00000000E-01  1.50000000E+00  8.00000000E-01
  8.00000000E-01  1.50000000E+00  8.00000000E-01  8.00000000E-01  1.50000000E+00
  8.00000000E-01  8.00000000E-01  1.50000000E+00  8.00000000E-01  8.00000000E-01
  1.50000000E+00  8.00000000E-01  8.00000000E-01  1.50000000E+00  8.00000000E-01
  8.00000000E-01  1.50000000E+00  8.00000000E-01  8.00000000E-01  1.50000000E+00
  8.00000000E-01  8.00000000E-01  1.50000000E+00  8.00000000E-01  8.00000000E-01
  1.50000000E+00  8.00000000E-01  8.00000000E-01  1.50000000E+00  8.00000000E-01
  8.00000000E-01  1.50000000E+00  8.00000000E-01  8.00000000E-01  1.50000000E+00
  8.00000000E-01  8.00000000E-01  1.50000000E+00  8.00000000E-01  8.00000000E-01
  1.50000000E+00  8.00000000E-01  8.00000000E-01  1.50000000E+00  8.00000000E-01
  8.00000000E-01  1.50000000E+00  8.00000000E-01  8.00000000E-01  1.50000000E+00
  8.00000000E-01  8.00000000E-01  1.50000000E+00  8.00000000E-01  8.00000000E-01
  1.50000000E+00  8.00000000E-01  8.00000000E-01  1.50000000E+00  8.00000000E-01
  8.00000000E-01  1.50000000E+00  8.00000000E-01  8.00000000E-01  1.50000000E+00
  8.00000000E-01  8.00000000E-01  1.50000000E+00  8.00000000E-01  8.00000000E-01
  1.50000000E+00  8.00000000E-01  8.00000000E-01  1.50000000E+00  8.00000000E-01
  8.00000000E-01  1.50000000E+00  8.00000000E-01  8.00000000E-01  1.50000000E+00
  8.00000000E-01  8.00000000E-01  1.50000000E+00  8.00000000E-01  8.00000000E-01
  1.50000000E+00  8.00000000E-01  8.00000000E-01  1.50000000E+00  8.00000000E-01
  8.00000000E-01  1.50000000E+00  8.00000000E-01  8.00000000E-01  1.50000000E+00
  8.00000000E-01  8.00000000E-01  1.50000000E+00  8.00000000E-01  8.00000000E-01
  1.50000000E+00  8.00000000E-01  8.00000000E-01  1.50000000E+00  8.00000000E-01
  8.00000000E-01  1.50000000E+00  8.00000000E-01  8.00000000E-01  1.50000000E+00
  8.00000000E-01  8.00000000E-01  1.50000000E+00  8.00000000E-01  8.00000000E-01
  1.50000000E+00  8.00000000E-01  8.00000000E-01  1.50000000E+00  8.00000000E-01
  8.00000000E-01  1.50000000E+00  8.00000000E-01  8.00000000E-01  1.50000000E+00
  8.00000000E-01  8.00000000E-01  1.50000000E+00  8.00000000E-01  8.00000000E-01
  1.50000000E+00  8.00000000E-01  8.00000000E-01  1.50000000E+00  8.00000000E-01
  8.00000000E-01  1.50000000E+00  8.00000000E-01  8.00000000E-01  1.50000000E+00
  8.00000000E-01  8.00000000E-01  1.50000000E+00  8.00000000E-01  8.00000000E-01
  1.50000000E+00  8.00000000E-01  8.00000000E-01  1.50000000E+00  8.00000000E-01
  8.00000000E-01  1.50000000E+00  8.00000000E-01  8.00000000E-01  1.50000000E+00
  8.00000000E-01  8.00000000E-01  1.50000000E+00  8.00000000E-01  8.00000000E-01
  1.50000000E+00  8.00000000E-01  8.00000000E-01  1.50000000E+00  8.00000000E-01
  8.00000000E-01  1.50000000E+00  8.00000000E-01  8.00000000E-01  1.50000000E+00
  8.00000000E-01  8.00000000E-01  1.50000000E+00  8.00000000E-01  8.00000000E-01
  1.50000000E+00  8.00000000E-01  8.00000000E-01  1.50000000E+00  8.00000000E-01
  8.00000000E-01  1.50000000E+00  8.00000000E-01  8.00000000E-01  1.50000000E+00
  8.00000000E-01  8.00000000E-01  1.50000000E+00  8.00000000E-01  8.00000000E-01
  1.50000000E+00  8.00000000E-01  8.00000000E-01  1.50000000E+00  8.00000000E-01
  8.00000000E-01  1.50000000E+00  8.00000000E-01  8.00000000E-01  1.50000000E+00
  8.00000000E-01  8.00000000E-01  1.50000000E+00  8.00000000E-01  8.00000000E-01
  1.50000000E+00  8.00000000E-01  8.00000000E-01  1.50000000E+00  8.00000000E-01
  8.00000000E-01  1.50000000E+00  8.00000000E-01  8.00000000E-01  1.50000000E+00
  8.00000000E-01  8.00000000E-01  1.50000000E+00  8.00000000E-01  8.00000000E-01
  1.50000000E+00  8.00000000E-01  8.00000000E-01  1.50000000E+00  8.00000000E-01
  8.00000000E-01  1.50000000E+00  8.00000000E-01  8.00000000E-01  1.50000000E+00
  8.00000000E-01  8.00000000E-01  1.50000000E+00  8.00000000E-01  8.00000000E-01
  1.50000000E+00  8.00000000E-01  8.00000000E-01  1.50000000E+00  8.00000000E-01
  8.00000000E-01  1.50000000E+00  8.00000000E-01  8.00000000E-01  1.50000000E+00
  8.00000000E-01  8.00000000E-01  1.50000000E+00  8.00000000E-01  8.00000000E-01
  1.50000000E+00  8.00000000E-01  8.00000000E-01  1.50000000E+00  8.00000000E-01
  8.00000000E-01  1.50000000E+00  8.00000000E-01  8.00000000E-01  1.50000000E+00
  8.00000000E-01  8.00000000E-01  1.50000000E+00  8.00000000E-01  8.00000000E-01
  1.50000000E+00  8.00000000E-01  8.00000000E-01  1.50000000E+00  8.00000000E-01
  8.00000000E-01  1.50000000E+00  8.00000000E-01  8.00000000E-01  1.50000000E+00
  8.00000000E-01  8.00000000E-01  1.50000000E+00  8.00000000E-01  8.00000000E-01
  1.50000000E+00  8.00000000E-01  8.00000000E-01  1.50000000E+00  8.00000000E-01
  8.00000000E-01  1.50000000E+00  8.00000000E-01  8.00000000E-01  1.50000000E+00
  8.00000000E-01  8.00000000E-01  1.50000000E+00  8.00000000E-01  8.00000000E-01
  1.50000000E+00  8.00000000E-01  8.00000000E-01  1.50000000E+00  8.00000000E-01
  8.00000000E-01  1.50000000E+00  8.00000000E-01  8.00000000E-01  1.50000000E+00
  8.00000000E-01  8.00000000E-01  1.50000000E+00  8.00000000E-01  8.00000000E-01
  1.50000000E+00  8.00000000E-01  8.00000000E-01  1.50000000E+00  8.00000000E-01
  8.00000000E-01  1.50000000E+00  8.00000000E-01  8.00000000E-01  1.50000000E+00
  8.00000000E-01  8.00000000E-01  1.50000000E+00  8.00000000E-01  8.00000000E-01
  1.50000000E+00  8.00000000E-01  8.00000000E-01  1.50000000E+00  8.00000000E-01
  8.00000000E-01  1.50000000E+00  8.00000000E-01  8.00000000E-01  1.50000000E+00
  8.00000000E-01  8.00000000E-01  1.50000000E+00  8.00000000E-01  8.00000000E-01
  1.50000000E+00  8.00000000E-01  8.00000000E-01  1.50000000E+00  8.00000000E-01
  8.00000000E-01  1.50000000E+00  8.00000000E-01  8.00000000E-01  1.50000000E+00
  8.00000000E-01  8.00000000E-01  1.50000000E+00  8.00000000E-01  8.00000000E-01
  1.50000000E+00  8.00000000E-01  8.00000000E-01  1.50000000E+00  8.00000000E-01
  8.00000000E-01  1.50000000E+00  8.00000000E-01  8.00000000E-01  1.50000000E+00
  8.00000000E-01  8.00000000E-01  1.50000000E+00  8.00000000E-01  8.00000000E-01
  1.50000000E+00  8.00000000E-01  8.00000000E-01  1.50000000E+00  8.00000000E-01
  8.00000000E-01  1.50000000E+00  8.00000000E-01  8.00000000E-01  1.50000000E+00
  8.00000000E-01  8.00000000E-01  1.50000000E+00  8.00000000E-01  8.00000000E-01
  1.50000000E+00  8.00000000E-01  8.00000000E-01  1.50000000E+00  8.00000000E-01
  8.00000000E-01  1.50000000E+00  8.00000000E-01  8.00000000E-01  1.50000000E+00
  8.00000000E-01  8.00000000E-01  1.50000000E+00  8.00000000E-01  8.00000000E-01
  1.50000000E+00  8.00000000E-01  8.00000000E-01  1.50000000E+00  8.00000000E-01
  8.00000000E-01  1.50000000E+00  8.00000000E-01  8.00000000E-01  1.50000000E+00
  8.00000000E-01  8.00000000E-01  1.50000000E+00  8.00000000E-01  8.00000000E-01
  1.50000000E+00  8.00000000E-01  8.00000000E-01  1.50000000E+00  8.00000000E-01
  8.00000000E-01  1.50000000E+00  8.00000000E-01  8.00000000E-01  1.50000000E+00
  8.00000000E-01  8.00000000E-01  1.50000000E+00  8.00000000E-01  8.00000000E-01
  1.50000000E+00  8.00000000E-01  8.00000000E-01  1.50000000E+00  8.00000000E-01
  8.00000000E-01  1.50000000E+00  8.00000000E-01  8.00000000E-01  1.50000000E+00
  8.00000000E-01  8.00000000E-01  1.50000000E+00  8.00000000E-01  8.00000000E-01
  1.50000000E+00  8.00000000E-01  8.00000000E-01  1.50000000E+00  8.00000000E-01
  8.00000000E-01  1.50000000E+00  8.00000000E-01  8.00000000E-01  1.50000000E+00
  8.00000000E-01  8.00000000E-01  1.50000000E+00  8.00000000E-01  8.00000000E-01
  1.50000000E+00  8.00000000E-01  8.00000000E-01  1.50000000E+00  8.00000000E-01
  8.00000000E-01  1.50000000E+00  8.00000000E-01  8.00000000E-01  1.50000000E+00
  8.00000000E-01  8.00000000E-01  1.50000000E+00  8.00000000E-01  8.00000000E-01
  1.50000000E+00  8.00000000E-01  8.00000000E-01  1.50000000E+00  8.00000000E-01
  8.00000000E-01  1.50000000E+00  8.00000000E-01  8.00000000E-01  1.50000000E+00
  8.00000000E-01  8.00000000E-01  1.50000000E+00  8.00000000E-01  8.00000000E-01
  1.50000000E+00  8.00000000E-01  8.00000000E-01  1.50000000E+00  8.00000000E-01
  8.00000000E-01  1.50000000E+00  8.00000000E-01  8.00000000E-01  1.50000000E+00
  8.00000000E-01  8.00000000E-01  1.50000000E+00  8.00000000E-01  8.00000000E-01
  1.50000000E+00  8.00000000E-01  8.00000000E-01  1.50000000E+00  8.00000000E-01
  8.00000000E-01  1.50000000E+00  8.00000000E-01  8.00000000E-01  1.50000000E+00
  8.00000000E-01  8.00000000E-01  1.50000000E+00  8.00000000E-01  8.00000000E-01
  1.50000000E+00  8.00000000E-01  8.00000000E-01  1.50000000E+00  8.00000000E-01
  8.00000000E-01  1.50000000E+00  8.00000000E-01  8.00000000E-01  1.50000000E+00
  8.00000000E-01  8.00000000E-01  1.50000000E+00  8.00000000E-01  8.00000000E-01
  1.50000000E+00  8.00000000E-01  8.00000000E-01  1.50000000E+00  8.00000000E-01
  8.00000000E-01  1.50000000E+00  8.00000000E-01  8.00000000E-01  1.50000000E+00
  8.00000000E-01  8.00000000E-01  1.50000000E+00  8.00000000E-01  8.00000000E-01
  1.50000000E+00  8.00000000E-01  8.00000000E-01  1.50000000E+00  8.00000000E-01
  8.00000000E-01  1.50000000E+00  8.00000000E-01  8.00000000E-01  1.50000000E+00
  8.00000000E-01  8.00000000E-01  1.50000000E+00  8.00000000E-01  8.00000000E-01
  1.50000000E+00  8.00000000E-01  8.00000000E-01  1.50000000E+00  8.00000000E-01
  8.00000000E-01  1.50000000E+00  8.00000000E-01  8.00000000E-01  1.50000000E+00
  8.00000000E-01  8.00000000E-01  1.50000000E+00  8.00000000E-01  8.00000000E-01
  1.50000000E+00  8.00000000E-01  8.00000000E-01  1.50000000E+00  8.00000000E-01
  8.00000000E-01  1.50000000E+00  8.00000000E-01  8.00000000E-01  1.50000000E+00
  8.00000000E-01  8.00000000E-01  1.50000000E+00  8.00000000E-01  8.00000000E-01
  1.50000000E+00  8.00000000E-01  8.00000000E-01  1.50000000E+00  8.00000000E-01
  8.00000000E-01  1.50000000E+00  8.00000000E-01  8.00000000E-01  1.50000000E+00
  8.00000000E-01  8.00000000E-01  1.50000000E+00  8.00000000E-01  8.00000000E-01
  1.50000000E+00  8.00000000E-01  8.00000000E-01  1.50000000E+00  8.00000000E-01
  8.00000000E-01  1.50000000E+00  8.00000000E-01  8.00000000E-01  1.50000000E+00
  8.00000000E-01  8.00000000E-01  1.50000000E+00  8.00000000E-01  8.00000000E-01
  1.50000000E+00  8.00000000E-01  8.00000000E-01  1.50000000E+00  8.00000000E-01
  8.00000000E-01  1.50000000E+00  8.00000000E-01  8.00000000E-01  1.50000000E+00
  8.00000000E-01  8.00000000E-01  1.50000000E+00  8.00000000E-01  8.00000000E-01
  1.50000000E+00  8.00000000E-01  8.00000000E-01  1.50000000E+00  8.00000000E-01
  8.00000000E-01  1.50000000E+00  8.00000000E-01  8.00000000E-01  1.50000000E+00
  8.00000000E-01  8.00000000E-01  1.50000000E+00  8.00000000E-01  8.00000000E-01
  1.50000000E+00  8.00000000E-01  8.00000000E-01  1.50000000E+00  8.00000000E-01
  8.00000000E-01  1.50000000E+00  8.00000000E-01  8.00000000E-01  1.50000000E+00
  8.00000000E-01  8.00000000E-01  1.50000000E+00  8.00000000E-01  8.00000000E-01
  1.50000000E+00  8.00000000E-01  8.00000000E-01  1.50000000E+00  8.00000000E-01
  8.00000000E-01  1.50000000E+00  8.00000000E-01  8.00000000E-01  1.50000000E+00
  8.00000000E-01  8.00000000E-01  1.50000000E+00  8.00000000E-01  8.00000000E-01
  1.50000000E+00  8.00000000E-01  8.00000000E-01  1.50000000E+00  8.00000000E-01
  8.00000000E-01  1.50000000E+00  8.00000000E-01  8.00000000E-01  1.50000000E+00
  8.00000000E-01  8.00000000E-01  1.50000000E+00  8.00000000E-01  8.00000000E-01
  1.50000000E+00  8.00000000E-01  8.00000000E-01  1.50000000E+00  8.00000000E-01
  8.00000000E-01  1.50000000E+00  8.00000000E-01  8.00000000E-01  1.50000000E+00
  8.00000000E-01  8.00000000E-01  1.50000000E+00  8.00000000E-01  8.00000000E-01
  1.50000000E+00  8.00000000E-01  8.00000000E-01  1.50000000E+00  8.00000000E-01
  8.00000000E-01  1.50000000E+00  8.00000000E-01  8.00000000E-01  1.50000000E+00
  8.00000000E-01  8.00000000E-01  1.50000000E+00  8.00000000E-01  8.00000000E-01
  1.50000000E+00  8.00000000E-01  8.00000000E-01  1.50000000E+00  8.00000000E-01
  8.00000000E-01  1.50000000E+00  8.00000000E-01  8.00000000E-01  1.50000000E+00
  8.00000000E-01  8.00000000E-01  1.50000000E+00  8.00000000E-01  8.00000000E-01
  1.50000000E+00  8.00000000E-01  8.00000000E-01  1.50000000E+00  8.00000000E-01
  8.00000000E-01  1.50000000E+00  8.00000000E-01  8.00000000E-01  1.50000000E+00
  8.00000000E-01  8.00000000E-01  1.50000000E+00  8.00000000E-01  8.00000000E-01
  1.50000000E+00  8.00000000E-01  8.00000000E-01  1.50000000E+00  8.00000000E-01
  8.00000000E-01  1.50000000E+00  8.00000000E-01  8.00000000E-01  1.50000000E+00
  8.00000000E-01  8.00000000E-01  1.50000000E+00  8.00000000E-01  8.00000000E-01
  1.50000000E+00  8.00000000E-01  8.00000000E-01  1.50000000E+00  8.00000000E-01
  8.00000000E-01  1.50000000E+00  8.00000000E-01  8.00000000E-01  1.50000000E+00
  8.00000000E-01  8.00000000E-01  1.50000000E+00  8.00000000E-01  8.00000000E-01
  1.50000000E+00  8.00000000E-01  8.00000000E-01  1.50000000E+00  8.00000000E-01
  8.00000000E-01  1.50000000E+00  8.00000000E-01  8.00000000E-01  1.50000000E+00
  8.00000000E-01  8.00000000E-01  1.50000000E+00  8.00000000E-01  8.00000000E-01
  1.50000000E+00  8.00000000E-01  8.00000000E-01  1.50000000E+00  8.00000000E-01
  8.00000000E-01  1.50000000E+00  8.00000000E-01  8.00000000E-01  1.50000000E+00
  8.00000000E-01  8.00000000E-01  1.50000000E+00  8.00000000E-01  8.00000000E-01
  1.50000000E+00  8.00000000E-01  8.00000000E-01  1.50000000E+00  8.00000000E-01
  8.00000000E-01  1.50000000E+00  8.00000000E-01  8.00000000E-01  1.50000000E+00
  8.00000000E-01  8.00000000E-01  1.50000000E+00  8.00000000E-01  8.00000000E-01
  1.50000000E+00  8.00000000E-01  8.00000000E-01  1.50000000E+00  8.00000000E-01
  8.00000000E-01  1.50000000E+00  8.00000000E-01  8.00000000E-01  1.50000000E+00
  8.00000000E-01  8.00000000E-01  1.50000000E+00  8.00000000E-01  8.00000000E-01
  1.50000000E+00  8.00000000E-01  8.00000000E-01  1.50000000E+00  8.00000000E-01
  8.00000000E-01  1.50000000E+00  8.00000000E-01  8.00000000E-01  1.50000000E+00
  8.00000000E-01  8.00000000E-01  1.50000000E+00  8.00000000E-01  8.00000000E-01
  1.50000000E+00  8.00000000E-01  8.00000000E-01  1.50000000E+00  8.00000000E-01
  8.00000000E-01  1.50000000E+00  8.00000000E-01  8.00000000E-01  1.50000000E+00
  8.00000000E-01  8.00000000E-01  1.50000000E+00  8.00000000E-01  8.00000000E-01
  1.50000000E+00  8.00000000E-01  8.00000000E-01  1.50000000E+00  8.00000000E-01
  8.00000000E-01  1.50000000E+00  8.00000000E-01  8.00000000E-01  1.50000000E+00
  8.00000000E-01  8.00000000E-01  1.50000000E+00  8.00000000E-01  8.00000000E-01
  1.50000000E+00  8.00000000E-01  8.00000000E-01  1.50000000E+00  8.00000000E-01
  8.00000000E-01  1.50000000E+00  8.00000000E-01  8.00000000E-01  1.50000000E+00
  8.00000000E-01  8.00000000E-01  1.50000000E+00  8.00000000E-01  8.00000000E-01
  1.50000000E+00  8.00000000E-01  8.00000000E-01  1.50000000E+00  8.00000000E-01
  8.00000000E-01  1.50000000E+00  8.00000000E-01  8.00000000E-01  1.50000000E+00
  8.00000000E-01  8.00000000E-01  1.50000000E+00  8.00000000E-01  8.00000000E-01
  1.50000000E+00  8.00000000E-01  8.00000000E-01  1.50000000E+00  8.00000000E-01
  8.00000000E-01  1.50000000E+00  8.00000000E-01  8.00000000E-01  1.50000000E+00
  8.00000000E-01  8.00000000E-01  1.50000000E+00  8.00000000E-01  8.00000000E-01
  1.50000000E+00  8.00000000E-01  8.00000000E-01  1.50000000E+00  8.00000000E-01
  8.00000000E-01  1.50000000E+00  8.00000000E-01  8.00000000E-01  1.50000000E+00
  8.00000000E-01  8.00000000E-01  1.50000000E+00  8.00000000E-01  8.00000000E-01
  1.50000000E+00  8.00000000E-01  8.00000000E-01  1.50000000E+00  8.00000000E-01
  8.00000000E-01  1.50000000E+00  8.00000000E-01  8.00000000E-01  1.50000000E+00
  8.00000000E-01  8.00000000E-01  1.50000000E+00  8.00000000E-01  8.00000000E-01
  1.50000000E+00  8.00000000E-01  8.00000000E-01  1.50000000E+00  8.00000000E-01
  8.00000000E-01  1.50000000E+00  8.00000000E-01  8.00000000E-01  1.50000000E+00
  8.00000000E-01  8.00000000E-01  1.50000000E+00  8.00000000E-01  8.00000000E-01
  1.50000000E+00  8.00000000E-01  8.00000000E-01  1.50000000E+00  8.00000000E-01
  8.00000000E-01  1.50000000E+00  8.00000000E-01  8.00000000E-01  1.50000000E+00
  8.00000000E-01  8.00000000E-01  1.50000000E+00  8.00000000E-01  8.00000000E-01
  1.50000000E+00  8.00000000E-01  8.00000000E-01  1.50000000E+00  8.00000000E-01
  8.00000000E-01  1.50000000E+00  8.00000000E-01  8.00000000E-01  1.50000000E+00
  8.00000000E-01  8.00000000E-01  1.50000000E+00  8.00000000E-01  8.00000000E-01
  1.50000000E+00  8.00000000E-01  8.00000000E-01  1.50000000E+00  8.00000000E-01
  8.00000000E-01  1.50000000E+00  8.00000000E-01  8.00000000E-01  1.50000000E+00
  8.00000000E-01  8.00000000E-01  1.50000000E+00  8.00000000E-01  8.00000000E-01
  1.50000000E+00  8.00000000E-01  8.00000000E-01  1.50000000E+00  8.00000000E-01
  8.00000000E-01  1.50000000E+00  8.00000000E-01  8.00000000E-01  1.50000000E+00
  8.00000000E-01  8.00000000E-01  1.50000000E+00  8.00000000E-01  8.00000000E-01
  1.50000000E+00  8.00000000E-01  8.00000000E-01  1.50000000E+00  8.00000000E-01
  8.00000000E-01  1.50000000E+00  8.00000000E-01  8.00000000E-01  1.50000000E+00
  8.00000000E-01  8.00000000E-01  1.50000000E+00  8.00000000E-01  8.00000000E-01
  1.50000000E+00  8.00000000E-01  8.00000000E-01  1.50000000E+00  8.00000000E-01
  8.00000000E-01  1.50000000E+00  8.00000000E-01  8.00000000E-01  1.50000000E+00
  8.00000000E-01  8.00000000E-01  1.50000000E+00  8.00000000E-01  8.00000000E-01
  1.50000000E+00  8.00000000E-01  8.00000000E-01  1.50000000E+00  8.00000000E-01
  8.00000000E-01  1.50000000E+00  8.00000000E-01  8.00000000E-01  1.50000000E+00
  8.00000000E-01  8.00000000E-01  1.50000000E+00  8.00000000E-01  8.00000000E-01
  1.50000000E+00  8.00000000E-01  8.00000000E-01  1.50000000E+00  8.00000000E-01
  8.00000000E-01  1.50000000E+00  8.00000000E-01  8.00000000E-01  1.50000000E+00
  8.00000000E-01  8.00000000E-01  1.50000000E+00  8.00000000E-01  8.00000000E-01
  1.50000000E+00  8.00000000E-01  8.00000000E-01  1.50000000E+00  8.00000000E-01
  8.00000000E-01  1.50000000E+00  8.00000000E-01  8.00000000E-01  1.50000000E+00
  8.00000000E-01  8.00000000E-01  1.50000000E+00  8.00000000E-01  8.00000000E-01
  1.50000000E+00  8.00000000E-01  8.00000000E-01  1.50000000E+00  8.00000000E-01
  8.00000000E-01  1.50000000E+00  8.00000000E-01  8.00000000E-01  1.50000000E+00
  8.00000000E-01  8.00000000E-01  1.50000000E+00  8.00000000E-01  8.00000000E-01
  1.50000000E+00  8.00000000E-01  8.00000000E-01  1.50000000E+00  8.00000000E-01
  8.00000000E-01  1.50000000E+00  8.00000000E-01  8.00000000E-01  1.50000000E+00
  8.00000000E-01  8.00000000E-01  1.50000000E+00  8.00000000E-01  8.00000000E-01
  1.50000000E+00  8.00000000E-01  8.00000000E-01  1.50000000E+00  8.00000000E-01
  8.00000000E-01  1.50000000E+00  8.00000000E-01  8.00000000E-01  1.50000000E+00
  8.00000000E-01  8.00000000E-01  1.50000000E+00  8.00000000E-01  8.00000000E-01
  1.50000000E+00  8.00000000E-01  8.00000000E-01  1.50000000E+00  8.00000000E-01
  8.00000000E-01  1.50000000E+00  8.00000000E-01  8.00000000E-01  1.50000000E+00
  8.00000000E-01  8.00000000E-01  1.50000000E+00  8.00000000E-01  8.00000000E-01
  1.50000000E+00  8.00000000E-01  8.00000000E-01  1.50000000E+00  8.00000000E-01
  8.00000000E-01  1.50000000E+00  8.00000000E-01  8.00000000E-01  1.50000000E+00
  8.00000000E-01  8.00000000E-01  1.50000000E+00  8.00000000E-01  8.00000000E-01
  1.50000000E+00  8.00000000E-01  8.00000000E-01  1.50000000E+00  8.00000000E-01
  8.00000000E-01  1.50000000E+00  8.00000000E-01  8.00000000E-01  1.50000000E+00
  8.00000000E-01  8.00000000E-01  1.50000000E+00  8.00000000E-01  8.00000000E-01
  1.50000000E+00  8.00000000E-01  8.00000000E-01  1.50000000E+00  8.00000000E-01
  8.00000000E-01  1.50000000E+00  8.00000000E-01  8.00000000E-01  1.50000000E+00
  8.00000000E-01  8.00000000E-01  1.50000000E+00  8.00000000E-01  8.00000000E-01
  1.50000000E+00  8.00000000E-01  8.00000000E-01  1.50000000E+00  8.00000000E-01
  8.00000000E-01  1.50000000E+00  8.00000000E-01  8.00000000E-01  1.50000000E+00
  8.00000000E-01  8.00000000E-01  1.50000000E+00  8.00000000E-01  8.00000000E-01
  1.50000000E+00  8.00000000E-01  8.00000000E-01  1.50000000E+00  8.00000000E-01
  8.00000000E-01  1.50000000E+00  8.00000000E-01  8.00000000E-01  1.50000000E+00
  8.00000000E-01  8.00000000E-01  1.50000000E+00  8.00000000E-01  8.00000000E-01
  1.50000000E+00  8.00000000E-01  8.00000000E-01  1.50000000E+00  8.00000000E-01
  8.00000000E-01  1.50000000E+00  8.00000000E-01  8.00000000E-01  1.50000000E+00
  8.00000000E-01  8.00000000E-01  1.50000000E+00  8.00000000E-01  8.00000000E-01
  1.50000000E+00  8.00000000E-01  8.00000000E-01  1.50000000E+00  8.00000000E-01
  8.00000000E-01  1.50000000E+00  8.00000000E-01  8.00000000E-01  1.50000000E+00
  8.00000000E-01  8.00000000E-01  1.50000000E+00  8.00000000E-01  8.00000000E-01
  1.50000000E+00  8.00000000E-01  8.00000000E-01  1.50000000E+00  8.00000000E-01
  8.00000000E-01  1.50000000E+00  8.00000000E-01  8.00000000E-01  1.50000000E+00
  8.00000000E-01  8.00000000E-01  1.50000000E+00  8.00000000E-01  8.00000000E-01
  1.50000000E+00  8.00000000E-01  8.00000000E-01  1.50000000E+00  8.00000000E-01
  8.00000000E-01  1.50000000E+00  8.00000000E-01  8.00000000E-01  1.50000000E+00
  8.00000000E-01  8.00000000E-01  1.50000000E+00  8.00000000E-01  8.00000000E-01
  1.50000000E+00  8.00000000E-01  8.00000000E-01  1.50000000E+00  8.00000000E-01
  8.00000000E-01  1.50000000E+00  8.00000000E-01  8.00000000E-01  1.50000000E+00
  8.00000000E-01  8.00000000E-01  1.50000000E+00  8.00000000E-01  8.00000000E-01
  1.50000000E+00  8.00000000E-01  8.00000000E-01  1.50000000E+00  8.00000000E-01
  8.00000000E-01  1.50000000E+00  8.00000000E-01  8.00000000E-01  1.50000000E+00
  8.00000000E-01  8.00000000E-01  1.50000000E+00  8.00000000E-01  8.00000000E-01
  1.50000000E+00  8.00000000E-01  8.00000000E-01  1.50000000E+00  8.00000000E-01
  8.00000000E-01  1.50000000E+00  8.00000000E-01  8.00000000E-01  1.50000000E+00
  8.00000000E-01  8.00000000E-01  1.50000000E+00  8.00000000E-01  8.00000000E-01
  1.50000000E+00  8.00000000E-01  8.00000000E-01  1.50000000E+00  8.00000000E-01
  8.00000000E-01  1.50000000E+00  8.00000000E-01  8.00000000E-01  1.50000000E+00
  8.00000000E-01  8.00000000E-01  1.50000000E+00  8.00000000E-01  8.00000000E-01
  1.50000000E+00  8.00000000E-01  8.00000000E-01  1.50000000E+00  8.00000000E-01
  8.00000000E-01  1.50000000E+00  8.00000000E-01  8.00000000E-01  1.50000000E+00
  8.00000000E-01  8.00000000E-01  1.50000000E+00  8.00000000E-01  8.00000000E-01
  1.50000000E+00  8.00000000E-01  8.00000000E-01  1.50000000E+00  8.00000000E-01
  8.00000000E-01  1.50000000E+00  8.00000000E-01  8.00000000E-01  1.50000000E+00
  8.00000000E-01  8.00000000E-01  1.50000000E+00  8.00000000E-01  8.00000000E-01
  1.50000000E+00  8.00000000E-01  8.00000000E-01  1.50000000E+00  8.00000000E-01
  8.00000000E-01  1.50000000E+00  8.00000000E-01  8.00000000E-01  1.50000000E+00
  8.00000000E-01  8.00000000E-01  1.50000000E+00  8.00000000E-01  8.00000000E-01
  1.50000000E+00  8.00000000E-01  8.00000000E-01  1.50000000E+00  8.00000000E-01
  8.00000000E-01  1.50000000E+00  8.00000000E-01  8.00000000E-01  1.50000000E+00
  8.00000000E-01  8.00000000E-01  1.50000000E+00  8.00000000E-01  8.00000000E-01
  1.50000000E+00  8.00000000E-01  8.00000000E-01  1.50000000E+00  8.00000000E-01
  8.00000000E-01  1.50000000E+00  8.00000000E-01  8.00000000E-01  1.50000000E+00
  8.00000000E-01  8.00000000E-01  1.50000000E+00  8.00000000E-01  8.00000000E-01
  1.50000000E+00  8.00000000E-01  8.00000000E-01  1.50000000E+00  8.00000000E-01
  8.00000000E-01  1.50000000E+00  8.00000000E-01  8.00000000E-01  1.50000000E+00
  8.00000000E-01  8.00000000E-01  1.50000000E+00  8.00000000E-01  8.00000000E-01
  1.50000000E+00  8.00000000E-01  8.00000000E-01  1.50000000E+00  8.00000000E-01
  8.00000000E-01  1.50000000E+00  8.00000000E-01  8.00000000E-01  1.50000000E+00
  8.00000000E-01  8.00000000E-01  1.50000000E+00  8.00000000E-01  8.00000000E-01
  1.50000000E+00  8.00000000E-01  8.00000000E-01  1.50000000E+00  8.00000000E-01
  8.00000000E-01  1.50000000E+00  8.00000000E-01  8.00000000E-01  1.50000000E+00
  8.00000000E-01  8.00000000E-01  1.50000000E+00  8.00000000E-01  8.00000000E-01
  1.50000000E+00  8.00000000E-01  8.00000000E-01  1.50000000E+00  8.00000000E-01
  8.00000000E-01  1.50000000E+00  8.00000000E-01  8.00000000E-01  1.50000000E+00
  8.00000000E-01  8.00000000E-01  1.50000000E+00  8.00000000E-01  8.00000000E-01
  1.50000000E+00  8.00000000E-01  8.00000000E-01  1.50000000E+00  8.00000000E-01
  8.00000000E-01  1.50000000E+00  8.00000000E-01  8.00000000E-01  1.50000000E+00
  8.00000000E-01  8.00000000E-01  1.50000000E+00  8.00000000E-01  8.00000000E-01
  1.50000000E+00  8.00000000E-01  8.00000000E-01  1.50000000E+00  8.00000000E-01
  8.00000000E-01  1.50000000E+00  8.00000000E-01  8.00000000E-01  1.50000000E+00
  8.00000000E-01  8.00000000E-01  1.50000000E+00  8.00000000E-01  8.00000000E-01
  1.50000000E+00  8.00000000E-01  8.00000000E-01  1.50000000E+00  8.00000000E-01
  8.00000000E-01  1.50000000E+00  8.00000000E-01  8.00000000E-01  1.50000000E+00
  8.00000000E-01  8.00000000E-01  1.50000000E+00  8.00000000E-01  8.00000000E-01
  1.50000000E+00  8.00000000E-01  8.00000000E-01  1.50000000E+00  8.00000000E-01
  8.00000000E-01  1.50000000E+00  8.00000000E-01  8.00000000E-01  1.50000000E+00
  8.00000000E-01  8.00000000E-01  1.50000000E+00  8.00000000E-01  8.00000000E-01
  1.50000000E+00  8.00000000E-01  8.00000000E-01  1.50000000E+00  8.00000000E-01
  8.00000000E-01  1.50000000E+00  8.00000000E-01  8.00000000E-01  1.50000000E+00
  8.00000000E-01  8.00000000E-01  1.50000000E+00  8.00000000E-01  8.00000000E-01
  1.50000000E+00  8.00000000E-01  8.00000000E-01  1.50000000E+00  8.00000000E-01
  8.00000000E-01  1.50000000E+00  8.00000000E-01  8.00000000E-01  1.50000000E+00
  8.00000000E-01  8.00000000E-01  1.50000000E+00  8.00000000E-01  8.00000000E-01
  1.50000000E+00  8.00000000E-01  8.00000000E-01  1.50000000E+00  8.00000000E-01
  8.00000000E-01  1.50000000E+00  8.00000000E-01  8.00000000E-01  1.50000000E+00
  8.00000000E-01  8.00000000E-01  1.50000000E+00  8.00000000E-01  8.00000000E-01
  1.50000000E+00  8.00000000E-01  8.00000000E-01  1.50000000E+00  8.00000000E-01
  8.00000000E-01  1.50000000E+00  8.00000000E-01  8.00000000E-01  1.50000000E+00
  8.00000000E-01  8.00000000E-01  1.50000000E+00  8.00000000E-01  8.00000000E-01
  1.50000000E+00  8.00000000E-01  8.00000000E-01  1.50000000E+00  8.00000000E-01
  8.00000000E-01  1.50000000E+00  8.00000000E-01  8.00000000E-01  1.50000000E+00
  8.00000000E-01  8.00000000E-01  1.50000000E+00  8.00000000E-01  8.00000000E-01
  1.50000000E+00  8.00000000E-01  8.00000000E-01  1.50000000E+00  8.00000000E-01
  8.00000000E-01  1.50000000E+00  8.00000000E-01  8.00000000E-01  1.50000000E+00
  8.00000000E-01  8.00000000E-01  1.50000000E+00  8.00000000E-01  8.00000000E-01
  1.50000000E+00  8.00000000E-01  8.00000000E-01  1.50000000E+00  8.00000000E-01
  8.00000000E-01  1.50000000E+00  8.00000000E-01  8.00000000E-01  1.50000000E+00
  8.00000000E-01  8.00000000E-01  1.50000000E+00  8.00000000E-01  8.00000000E-01
  1.50000000E+00  8.00000000E-01  8.00000000E-01  1.50000000E+00  8.00000000E-01
  8.00000000E-01  1.50000000E+00  8.00000000E-01  8.00000000E-01  1.50000000E+00
  8.00000000E-01  8.00000000E-01  1.50000000E+00  8.00000000E-01  8.00000000E-01
  1.50000000E+00  8.00000000E-01  8.00000000E-01  1.50000000E+00  8.00000000E-01
  8.00000000E-01  1.50000000E+00  8.00000000E-01  8.00000000E-01  1.50000000E+00
  8.00000000E-01  8.00000000E-01  1.50000000E+00  8.00000000E-01  8.00000000E-01
  1.50000000E+00  8.00000000E-01  8.00000000E-01  1.50000000E+00  8.00000000E-01
  8.00000000E-01  1.50000000E+00  8.00000000E-01  8.00000000E-01  1.50000000E+00
  8.00000000E-01  8.00000000E-01  1.50000000E+00  8.00000000E-01  8.00000000E-01
  1.50000000E+00  8.00000000E-01  8.00000000E-01  1.50000000E+00  8.00000000E-01
  8.00000000E-01  1.50000000E+00  8.00000000E-01  8.00000000E-01  1.50000000E+00
  8.00000000E-01  8.00000000E-01  1.50000000E+00  8.00000000E-01  8.00000000E-01
  1.50000000E+00  8.00000000E-01  8.00000000E-01  1.50000000E+00  8.00000000E-01
  8.00000000E-01  1.50000000E+00  8.00000000E-01  8.00000000E-01  1.50000000E+00
  8.00000000E-01  8.00000000E-01  1.50000000E+00  8.00000000E-01  8.00000000E-01
  1.50000000E+00  8.00000000E-01  8.00000000E-01  1.50000000E+00  8.00000000E-01
  8.00000000E-01  1.50000000E+00  8.00000000E-01  8.00000000E-01  1.50000000E+00
  8.00000000E-01  8.00000000E-01  1.50000000E+00  8.00000000E-01  8.00000000E-01
  1.50000000E+00  8.00000000E-01  8.00000000E-01  1.50000000E+00  8.00000000E-01
  8.00000000E-01  1.50000000E+00  8.00000000E-01  8.00000000E-01  1.50000000E+00
  8.00000000E-01  8.00000000E-01  1.50000000E+00  8.00000000E-01  8.00000000E-01
  1.50000000E+00  8.00000000E-01  8.00000000E-01  1.50000000E+00  8.00000000E-01
  8.00000000E-01  1.50000000E+00  8.00000000E-01  8.00000000E-01  1.50000000E+00
  8.00000000E-01  8.00000000E-01  1.50000000E+00  8.00000000E-01  8.00000000E-01
  1.50000000E+00  8.00000000E-01  8.00000000E-01  1.50000000E+00  8.00000000E-01
  8.00000000E-01  1.50000000E+00  8.00000000E-01  8.00000000E-01  1.50000000E+00
  8.00000000E-01  8.00000000E-01  1.50000000E+00  8.00000000E-01  8.00000000E-01
  1.50000000E+00  8.00000000E-01  8.00000000E-01  1.50000000E+00  8.00000000E-01
  8.00000000E-01  1.50000000E+00  8.00000000E-01  8.00000000E-01  1.50000000E+00
  8.00000000E-01  8.00000000E-01  1.50000000E+00  8.00000000E-01  8.00000000E-01
  1.50000000E+00  8.00000000E-01  8.00000000E-01  1.50000000E+00  8.00000000E-01
  8.00000000E-01  1.50000000E+00  8.00000000E-01  8.00000000E-01  1.50000000E+00
  8.00000000E-01  8.00000000E-01  1.50000000E+00  8.00000000E-01  8.00000000E-01
  1.50000000E+00  8.00000000E-01  8.00000000E-01  1.50000000E+00  8.00000000E-01
  8.00000000E-01  1.50000000E+00  8.00000000E-01  8.00000000E-01  1.50000000E+00
  8.00000000E-01  8.00000000E-01  1.50000000E+00  8.00000000E-01  8.00000000E-01
  1.50000000E+00  8.00000000E-01  8.00000000E-01  1.50000000E+00  8.00000000E-01
  8.00000000E-01  1.50000000E+00  8.00000000E-01  8.00000000E-01  1.50000000E+00
  8.00000000E-01  8.00000000E-01  1.50000000E+00  8.00000000E-01  8.00000000E-01
  1.50000000E+00  8.00000000E-01  8.00000000E-01  1.50000000E+00  8.00000000E-01
  8.00000000E-01  1.50000000E+00  8.00000000E-01  8.00000000E-01  1.50000000E+00
  8.00000000E-01  8.00000000E-01  1.50000000E+00  8.00000000E-01  8.00000000E-01
  1.50000000E+00  8.00000000E-01  8.00000000E-01  1.50000000E+00  8.00000000E-01
  8.00000000E-01  1.50000000E+00  8.00000000E-01  8.00000000E-01  1.50000000E+00
  8.00000000E-01  8.00000000E-01  1.50000000E+00  8.00000000E-01  8.00000000E-01
  1.50000000E+00  8.00000000E-01  8.00000000E-01  1.50000000E+00  8.00000000E-01
  8.00000000E-01  1.50000000E+00  8.00000000E-01  8.00000000E-01  1.50000000E+00
  8.00000000E-01  8.00000000E-01  1.50000000E+00  8.00000000E-01  8.00000000E-01
  1.50000000E+00  8.00000000E-01  8.00000000E-01  1.50000000E+00  8.00000000E-01
  8.00000000E-01  1.50000000E+00  8.00000000E-01  8.00000000E-01  1.50000000E+00
  8.00000000E-01  8.00000000E-01  1.50000000E+00  8.00000000E-01  8.00000000E-01
  1.50000000E+00  8.00000000E-01  8.00000000E-01  1.50000000E+00  8.00000000E-01
  8.00000000E-01  1.50000000E+00  8.00000000E-01  8.00000000E-01  1.50000000E+00
  8.00000000E-01  8.00000000E-01  1.50000000E+00  8.00000000E-01  8.00000000E-01
  1.50000000E+00  8.00000000E-01  8.00000000E-01  1.50000000E+00  8.00000000E-01
  8.00000000E-01  1.50000000E+00  8.00000000E-01  8.00000000E-01  1.50000000E+00
  8.00000000E-01  8.00000000E-01  1.50000000E+00  8.00000000E-01  8.00000000E-01
  1.50000000E+00  8.00000000E-01  8.00000000E-01  1.50000000E+00  8.00000000E-01
  8.00000000E-01  1.50000000E+00  8.00000000E-01  8.00000000E-01  1.50000000E+00
  8.00000000E-01  8.00000000E-01  1.50000000E+00  8.00000000E-01  8.00000000E-01
  1.50000000E+00  8.00000000E-01  8.00000000E-01  1.50000000E+00  8.00000000E-01
  8.00000000E-01  1.50000000E+00  8.00000000E-01  8.00000000E-01  1.50000000E+00
  8.00000000E-01  8.00000000E-01  1.50000000E+00  8.00000000E-01  8.00000000E-01
  1.50000000E+00  8.00000000E-01  8.00000000E-01  1.50000000E+00  8.00000000E-01
  8.00000000E-01  1.50000000E+00  8.00000000E-01  8.00000000E-01  1.50000000E+00
  8.00000000E-01  8.00000000E-01  1.50000000E+00  8.00000000E-01  8.00000000E-01
  1.50000000E+00  8.00000000E-01  8.00000000E-01  1.50000000E+00  8.00000000E-01
  8.00000000E-01  1.50000000E+00  8.00000000E-01  8.00000000E-01  1.50000000E+00
  8.00000000E-01  8.00000000E-01  1.50000000E+00  8.00000000E-01  8.00000000E-01
  1.50000000E+00  8.00000000E-01  8.00000000E-01  1.50000000E+00  8.00000000E-01
  8.00000000E-01  1.50000000E+00  8.00000000E-01  8.00000000E-01  1.50000000E+00
  8.00000000E-01  8.00000000E-01  1.50000000E+00  8.00000000E-01  8.00000000E-01
  1.50000000E+00  8.00000000E-01  8.00000000E-01  1.50000000E+00  8.00000000E-01
  8.00000000E-01  1.50000000E+00  8.00000000E-01  8.00000000E-01  1.50000000E+00
  8.00000000E-01  8.00000000E-01  1.50000000E+00  8.00000000E-01  8.00000000E-01
  1.50000000E+00  8.00000000E-01  8.00000000E-01  1.50000000E+00  8.00000000E-01
  8.00000000E-01  1.50000000E+00  8.00000000E-01  8.00000000E-01  1.50000000E+00
  8.00000000E-01  8.00000000E-01  1.50000000E+00  8.00000000E-01  8.00000000E-01
  1.50000000E+00  8.00000000E-01  8.00000000E-01  1.50000000E+00  8.00000000E-01
  8.00000000E-01  1.50000000E+00  8.00000000E-01  8.00000000E-01  1.50000000E+00
  8.00000000E-01  8.00000000E-01  1.50000000E+00  8.00000000E-01  8.00000000E-01
  1.50000000E+00  8.00000000E-01  8.00000000E-01  1.50000000E+00  8.00000000E-01
  8.00000000E-01  1.50000000E+00  8.00000000E-01  8.00000000E-01  1.50000000E+00
  8.00000000E-01  8.00000000E-01  1.50000000E+00  8.00000000E-01  8.00000000E-01
  1.50000000E+00  8.00000000E-01  8.00000000E-01  1.50000000E+00  8.00000000E-01
  8.00000000E-01  1.50000000E+00  8.00000000E-01  8.00000000E-01  1.50000000E+00
  8.00000000E-01  8.00000000E-01  1.50000000E+00  8.00000000E-01  8.00000000E-01
  1.50000000E+00  8.00000000E-01  8.00000000E-01  1.50000000E+00  8.00000000E-01
  8.00000000E-01  1.50000000E+00  8.00000000E-01  8.00000000E-01  1.50000000E+00
  8.00000000E-01  8.00000000E-01  1.50000000E+00  8.00000000E-01  8.00000000E-01
  1.50000000E+00  8.00000000E-01  8.00000000E-01  1.50000000E+00  8.00000000E-01
  8.00000000E-01  1.50000000E+00  8.00000000E-01  8.00000000E-01  1.50000000E+00
  8.00000000E-01  8.00000000E-01  1.50000000E+00  8.00000000E-01  8.00000000E-01
  1.50000000E+00  8.00000000E-01  8.00000000E-01  1.50000000E+00  8.00000000E-01
  8.00000000E-01  1.50000000E+00  8.00000000E-01  8.00000000E-01  1.50000000E+00
  8.00000000E-01  8.00000000E-01  1.50000000E+00  8.00000000E-01  8.00000000E-01
  1.50000000E+00  8.00000000E-01  8.00000000E-01  1.50000000E+00  8.00000000E-01
  8.00000000E-01  1.50000000E+00  8.00000000E-01  8.00000000E-01  1.50000000E+00
  8.00000000E-01  8.00000000E-01  1.50000000E+00  8.00000000E-01  8.00000000E-01
  1.50000000E+00  8.00000000E-01  8.00000000E-01  1.50000000E+00  8.00000000E-01
  8.00000000E-01  1.50000000E+00  8.00000000E-01  8.00000000E-01  1.50000000E+00
  8.00000000E-01  8.00000000E-01  1.50000000E+00  8.00000000E-01  8.00000000E-01
  1.50000000E+00  8.00000000E-01  8.00000000E-01  1.50000000E+00  8.00000000E-01
  8.00000000E-01  1.50000000E+00  8.00000000E-01  8.00000000E-01  1.50000000E+00
  8.00000000E-01  8.00000000E-01  1.50000000E+00  8.00000000E-01  8.00000000E-01
  1.50000000E+00  8.00000000E-01  8.00000000E-01  1.50000000E+00  8.00000000E-01
  8.00000000E-01  1.50000000E+00  8.00000000E-01  8.00000000E-01  1.50000000E+00
  8.00000000E-01  8.00000000E-01  1.50000000E+00  8.00000000E-01  8.00000000E-01
  1.50000000E+00  8.00000000E-01  8.00000000E-01  1.50000000E+00  8.00000000E-01
  8.00000000E-01  1.50000000E+00  8.00000000E-01  8.00000000E-01  1.50000000E+00
  8.00000000E-01  8.00000000E-01  1.50000000E+00  8.00000000E-01  8.00000000E-01
  1.50000000E+00  8.00000000E-01  8.00000000E-01  1.50000000E+00  8.00000000E-01
  8.00000000E-01  1.50000000E+00  8.00000000E-01  8.00000000E-01  1.50000000E+00
  8.00000000E-01  8.00000000E-01  1.50000000E+00  8.00000000E-01  8.00000000E-01
  1.50000000E+00  8.00000000E-01  8.00000000E-01  1.50000000E+00  8.00000000E-01
  8.00000000E-01  1.50000000E+00  8.00000000E-01  8.00000000E-01  1.50000000E+00
  8.00000000E-01  8.00000000E-01  1.50000000E+00  8.00000000E-01  8.00000000E-01
  1.50000000E+00  8.00000000E-01  8.00000000E-01  1.50000000E+00  8.00000000E-01
  8.00000000E-01  1.50000000E+00  8.00000000E-01  8.00000000E-01  1.50000000E+00
  8.00000000E-01  8.00000000E-01  1.50000000E+00  8.00000000E-01  8.00000000E-01
  1.50000000E+00  8.00000000E-01  8.00000000E-01  1.50000000E+00  8.00000000E-01
  8.00000000E-01  1.50000000E+00  8.00000000E-01  8.00000000E-01  1.50000000E+00
  8.00000000E-01  8.00000000E-01  1.50000000E+00  8.00000000E-01  8.00000000E-01
  1.50000000E+00  8.00000000E-01  8.00000000E-01  1.50000000E+00  8.00000000E-01
  8.00000000E-01  1.50000000E+00  8.00000000E-01  8.00000000E-01  1.50000000E+00
  8.00000000E-01  8.00000000E-01  1.50000000E+00  8.00000000E-01  8.00000000E-01
  1.50000000E+00  8.00000000E-01  8.00000000E-01  1.50000000E+00  8.00000000E-01
  8.00000000E-01  1.50000000E+00  8.00000000E-01  8.00000000E-01  1.50000000E+00
  8.00000000E-01  8.00000000E-01  1.50000000E+00  8.00000000E-01  8.00000000E-01
  1.50000000E+00  8.00000000E-01  8.00000000E-01  1.50000000E+00  8.00000000E-01
  8.00000000E-01  1.50000000E+00  8.00000000E-01  8.00000000E-01  1.50000000E+00
  8.00000000E-01  8.00000000E-01  1.50000000E+00  8.00000000E-01  8.00000000E-01
  1.50000000E+00  8.00000000E-01  8.00000000E-01  1.50000000E+00  8.00000000E-01
  8.00000000E-01  1.50000000E+00  8.00000000E-01  8.00000000E-01  1.50000000E+00
  8.00000000E-01  8.00000000E-01  1.50000000E+00  8.00000000E-01  8.00000000E-01
  1.50000000E+00  8.00000000E-01  8.00000000E-01  1.50000000E+00  8.00000000E-01
  8.00000000E-01  1.50000000E+00  8.00000000E-01  8.00000000E-01  1.50000000E+00
  8.00000000E-01  8.00000000E-01  1.50000000E+00  8.00000000E-01  8.00000000E-01
  1.50000000E+00  8.00000000E-01  8.00000000E-01  1.50000000E+00  8.00000000E-01
  8.00000000E-01  1.50000000E+00  8.00000000E-01  8.00000000E-01  1.50000000E+00
  8.00000000E-01  8.00000000E-01  1.50000000E+00  8.00000000E-01  8.00000000E-01
  1.50000000E+00  8.00000000E-01  8.00000000E-01  1.50000000E+00  8.00000000E-01
  8.00000000E-01  1.50000000E+00  8.00000000E-01  8.00000000E-01  1.50000000E+00
  8.00000000E-01  8.00000000E-01  1.50000000E+00  8.00000000E-01  8.00000000E-01
  1.50000000E+00  8.00000000E-01  8.00000000E-01  1.50000000E+00  8.00000000E-01
  8.00000000E-01  1.50000000E+00  8.00000000E-01  8.00000000E-01  1.50000000E+00
  8.00000000E-01  8.00000000E-01  1.50000000E+00  8.00000000E-01  8.00000000E-01
  1.50000000E+00  8.00000000E-01  8.00000000E-01  1.50000000E+00  8.00000000E-01
  8.00000000E-01  1.50000000E+00  8.00000000E-01  8.00000000E-01  1.50000000E+00
  8.00000000E-01  8.00000000E-01  1.50000000E+00  8.00000000E-01  8.00000000E-01
  1.50000000E+00  8.00000000E-01  8.00000000E-01  1.50000000E+00  8.00000000E-01
  8.00000000E-01  1.50000000E+00  8.00000000E-01  8.00000000E-01  1.50000000E+00
  8.00000000E-01  8.00000000E-01  1.50000000E+00  8.00000000E-01  8.00000000E-01
  1.50000000E+00  8.00000000E-01  8.00000000E-01  1.50000000E+00  8.00000000E-01
  8.00000000E-01  1.50000000E+00  8.00000000E-01  8.00000000E-01  1.50000000E+00
  8.00000000E-01  8.00000000E-01  1.50000000E+00  8.00000000E-01  8.00000000E-01
  1.50000000E+00  8.00000000E-01  8.00000000E-01  1.50000000E+00  8.00000000E-01
  8.00000000E-01  1.50000000E+00  8.00000000E-01  8.00000000E-01  1.50000000E+00
  8.00000000E-01  8.00000000E-01  1.50000000E+00  8.00000000E-01  8.00000000E-01
  1.50000000E+00  8.00000000E-01  8.00000000E-01  1.50000000E+00  8.00000000E-01
  8.00000000E-01  1.50000000E+00  8.00000000E-01  8.00000000E-01  1.50000000E+00
  8.00000000E-01  8.00000000E-01  1.50000000E+00  8.00000000E-01  8.00000000E-01
  1.50000000E+00  8.00000000E-01  8.00000000E-01  1.50000000E+00  8.00000000E-01
  8.00000000E-01  1.50000000E+00  8.00000000E-01  8.00000000E-01  1.50000000E+00
  8.00000000E-01  8.00000000E-01  1.50000000E+00  8.00000000E-01  8.00000000E-01
  1.50000000E+00  8.00000000E-01  8.00000000E-01  1.50000000E+00  8.00000000E-01
  8.00000000E-01  1.50000000E+00  8.00000000E-01  8.00000000E-01  1.50000000E+00
  8.00000000E-01  8.00000000E-01  1.50000000E+00  8.00000000E-01  8.00000000E-01
  1.50000000E+00  8.00000000E-01  8.00000000E-01  1.50000000E+00  8.00000000E-01
  8.00000000E-01  1.50000000E+00  8.00000000E-01  8.00000000E-01  1.50000000E+00
  8.00000000E-01  8.00000000E-01  1.50000000E+00  8.00000000E-01  8.00000000E-01
  1.50000000E+00  8.00000000E-01  8.00000000E-01  1.50000000E+00  8.00000000E-01
  8.00000000E-01  1.50000000E+00  8.00000000E-01  8.00000000E-01  1.50000000E+00
  8.00000000E-01  8.00000000E-01  1.50000000E+00  8.00000000E-01  8.00000000E-01
  1.50000000E+00  8.00000000E-01  8.00000000E-01  1.50000000E+00  8.00000000E-01
  8.00000000E-01  1.50000000E+00  8.00000000E-01  8.00000000E-01  1.50000000E+00
  8.00000000E-01  8.00000000E-01  1.50000000E+00  8.00000000E-01  8.00000000E-01
  1.50000000E+00  8.00000000E-01  8.00000000E-01  1.50000000E+00  8.00000000E-01
  8.00000000E-01  1.50000000E+00  8.00000000E-01  8.00000000E-01  1.50000000E+00
  8.00000000E-01  8.00000000E-01  1.50000000E+00  8.00000000E-01  8.00000000E-01
  1.50000000E+00  8.00000000E-01  8.00000000E-01  1.50000000E+00  8.00000000E-01
  8.00000000E-01  1.50000000E+00  8.00000000E-01  8.00000000E-01  1.50000000E+00
  8.00000000E-01  8.00000000E-01  1.50000000E+00  8.00000000E-01  8.00000000E-01
  1.50000000E+00  8.00000000E-01  8.00000000E-01  1.50000000E+00  8.00000000E-01
  8.00000000E-01  1.50000000E+00  8.00000000E-01  8.00000000E-01  1.50000000E+00
  8.00000000E-01  8.00000000E-01  1.50000000E+00  8.00000000E-01  8.00000000E-01
  1.50000000E+00  8.00000000E-01  8.00000000E-01  1.50000000E+00  8.00000000E-01
  8.00000000E-01  1.50000000E+00  8.00000000E-01  8.00000000E-01  1.50000000E+00
  8.00000000E-01  8.00000000E-01  1.50000000E+00  8.00000000E-01  8.00000000E-01
  1.50000000E+00  8.00000000E-01  8.00000000E-01  1.50000000E+00  8.00000000E-01
  8.00000000E-01  1.50000000E+00  8.00000000E-01  8.00000000E-01  1.50000000E+00
  8.00000000E-01  8.00000000E-01  1.50000000E+00  8.00000000E-01  8.00000000E-01
  1.50000000E+00  8.00000000E-01  8.00000000E-01  1.50000000E+00  8.00000000E-01
  8.00000000E-01  1.50000000E+00  8.00000000E-01  8.00000000E-01  1.50000000E+00
  8.00000000E-01  8.00000000E-01  1.50000000E+00  8.00000000E-01  8.00000000E-01
  1.50000000E+00  8.00000000E-01  8.00000000E-01  1.50000000E+00  8.00000000E-01
  8.00000000E-01  1.50000000E+00  8.00000000E-01  8.00000000E-01  1.50000000E+00
  8.00000000E-01  8.00000000E-01  1.50000000E+00  8.00000000E-01  8.00000000E-01
  1.50000000E+00  8.00000000E-01  8.00000000E-01  1.50000000E+00  8.00000000E-01
  8.00000000E-01  1.50000000E+00  8.00000000E-01  8.00000000E-01  1.50000000E+00
  8.00000000E-01  8.00000000E-01  1.50000000E+00  8.00000000E-01  8.00000000E-01
  1.50000000E+00  8.00000000E-01  8.00000000E-01  1.50000000E+00  8.00000000E-01
  8.00000000E-01  1.50000000E+00  8.00000000E-01  8.00000000E-01  1.50000000E+00
  8.00000000E-01  8.00000000E-01  1.50000000E+00  8.00000000E-01  8.00000000E-01
  1.50000000E+00  8.00000000E-01  8.00000000E-01  1.50000000E+00  8.00000000E-01
  8.00000000E-01  1.50000000E+00  8.00000000E-01  8.00000000E-01  1.50000000E+00
  8.00000000E-01  8.00000000E-01  1.50000000E+00  8.00000000E-01  8.00000000E-01
  1.50000000E+00  8.00000000E-01  8.00000000E-01  1.50000000E+00  8.00000000E-01
  8.00000000E-01  1.50000000E+00  8.00000000E-01  8.00000000E-01  1.50000000E+00
  8.00000000E-01  8.00000000E-01  1.50000000E+00  8.00000000E-01  8.00000000E-01
  1.50000000E+00  8.00000000E-01  8.00000000E-01  1.50000000E+00  8.00000000E-01
  8.00000000E-01  1.50000000E+00  8.00000000E-01  8.00000000E-01  1.50000000E+00
  8.00000000E-01  8.00000000E-01  1.50000000E+00  8.00000000E-01  8.00000000E-01
  1.50000000E+00  8.00000000E-01  8.00000000E-01  1.50000000E+00  8.00000000E-01
  8.00000000E-01  1.50000000E+00  8.00000000E-01  8.00000000E-01  1.50000000E+00
  8.00000000E-01  8.00000000E-01  1.50000000E+00  8.00000000E-01  8.00000000E-01
  1.50000000E+00  8.00000000E-01  8.00000000E-01  1.50000000E+00  8.00000000E-01
  8.00000000E-01  1.50000000E+00  8.00000000E-01  8.00000000E-01  1.50000000E+00
  8.00000000E-01  8.00000000E-01  1.50000000E+00  8.00000000E-01  8.00000000E-01
  1.50000000E+00  8.00000000E-01  8.00000000E-01  1.50000000E+00  8.00000000E-01
  8.00000000E-01  1.50000000E+00  8.00000000E-01  8.00000000E-01  1.50000000E+00
  8.00000000E-01  8.00000000E-01  1.50000000E+00  8.00000000E-01  8.00000000E-01
  1.50000000E+00  8.00000000E-01  8.00000000E-01  1.50000000E+00  8.00000000E-01
  8.00000000E-01  1.50000000E+00  8.00000000E-01  8.00000000E-01  1.50000000E+00
  8.00000000E-01  8.00000000E-01  1.50000000E+00  8.00000000E-01  8.00000000E-01
  1.50000000E+00  8.00000000E-01  8.00000000E-01  1.50000000E+00  8.00000000E-01
  8.00000000E-01  1.50000000E+00  8.00000000E-01  8.00000000E-01  1.50000000E+00
  8.00000000E-01  8.00000000E-01  1.50000000E+00  8.00000000E-01  8.00000000E-01
  1.50000000E+00  8.00000000E-01  8.00000000E-01  1.50000000E+00  8.00000000E-01
  8.00000000E-01  1.50000000E+00  8.00000000E-01  8.00000000E-01  1.50000000E+00
  8.00000000E-01  8.00000000E-01  1.50000000E+00  8.00000000E-01  8.00000000E-01
  1.50000000E+00  8.00000000E-01  8.00000000E-01  1.50000000E+00  8.00000000E-01
  8.00000000E-01  1.50000000E+00  8.00000000E-01  8.00000000E-01  1.50000000E+00
  8.00000000E-01  8.00000000E-01  1.50000000E+00  8.00000000E-01  8.00000000E-01
  1.50000000E+00  8.00000000E-01  8.00000000E-01  1.50000000E+00  8.00000000E-01
  8.00000000E-01  1.50000000E+00  8.00000000E-01  8.00000000E-01  1.50000000E+00
  8.00000000E-01  8.00000000E-01  1.50000000E+00  8.00000000E-01  8.00000000E-01
  1.50000000E+00  8.00000000E-01  8.00000000E-01  1.50000000E+00  8.00000000E-01
  8.00000000E-01  1.50000000E+00  8.00000000E-01  8.00000000E-01  1.50000000E+00
  8.00000000E-01  8.00000000E-01  1.50000000E+00  8.00000000E-01  8.00000000E-01
  1.50000000E+00  8.00000000E-01  8.00000000E-01  1.50000000E+00  8.00000000E-01
  8.00000000E-01  1.50000000E+00  8.00000000E-01  8.00000000E-01  1.50000000E+00
  8.00000000E-01  8.00000000E-01  1.50000000E+00  8.00000000E-01  8.00000000E-01
  1.50000000E+00  8.00000000E-01  8.00000000E-01  1.50000000E+00  8.00000000E-01
  8.00000000E-01  1.50000000E+00  8.00000000E-01  8.00000000E-01  1.50000000E+00
  8.00000000E-01  8.00000000E-01  1.50000000E+00  8.00000000E-01  8.00000000E-01
  1.50000000E+00  8.00000000E-01  8.00000000E-01  1.50000000E+00  8.00000000E-01
  8.00000000E-01  1.50000000E+00  8.00000000E-01  8.00000000E-01  1.50000000E+00
  8.00000000E-01  8.00000000E-01  1.50000000E+00  8.00000000E-01  8.00000000E-01
  1.50000000E+00  8.00000000E-01  8.00000000E-01  1.50000000E+00  8.00000000E-01
  8.00000000E-01  1.50000000E+00  8.00000000E-01  8.00000000E-01  1.50000000E+00
  8.00000000E-01  8.00000000E-01  1.50000000E+00  8.00000000E-01  8.00000000E-01
  1.50000000E+00  8.00000000E-01  8.00000000E-01  1.50000000E+00  8.00000000E-01
  8.00000000E-01  1.50000000E+00  8.00000000E-01  8.00000000E-01  1.50000000E+00
  8.00000000E-01  8.00000000E-01  1.50000000E+00  8.00000000E-01  8.00000000E-01
  1.50000000E+00  8.00000000E-01  8.00000000E-01  1.50000000E+00  8.00000000E-01
  8.00000000E-01  1.50000000E+00  8.00000000E-01  8.00000000E-01  1.50000000E+00
  8.00000000E-01  8.00000000E-01  1.50000000E+00  8.00000000E-01  8.00000000E-01
  1.50000000E+00  8.00000000E-01  8.00000000E-01  1.50000000E+00  8.00000000E-01
  8.00000000E-01  1.50000000E+00  8.00000000E-01  8.00000000E-01  1.50000000E+00
  8.00000000E-01  8.00000000E-01  1.50000000E+00  8.00000000E-01  8.00000000E-01
  1.50000000E+00  8.00000000E-01  8.00000000E-01  1.50000000E+00  8.00000000E-01
  8.00000000E-01  1.50000000E+00  8.00000000E-01  8.00000000E-01  1.50000000E+00
  8.00000000E-01  8.00000000E-01  1.50000000E+00  8.00000000E-01  8.00000000E-01
  1.50000000E+00  8.00000000E-01  8.00000000E-01  1.50000000E+00  8.00000000E-01
  8.00000000E-01  1.50000000E+00  8.00000000E-01  8.00000000E-01  1.50000000E+00
  8.00000000E-01  8.00000000E-01  1.50000000E+00  8.00000000E-01  8.00000000E-01
  1.50000000E+00  8.00000000E-01  8.00000000E-01  1.50000000E+00  8.00000000E-01
  8.00000000E-01  1.50000000E+00  8.00000000E-01  8.00000000E-01  1.50000000E+00
  8.00000000E-01  8.00000000E-01  1.50000000E+00  8.00000000E-01  8.00000000E-01
  1.50000000E+00  8.00000000E-01  8.00000000E-01  1.50000000E+00  8.00000000E-01
  8.00000000E-01  1.50000000E+00  8.00000000E-01  8.00000000E-01  1.50000000E+00
  8.00000000E-01  8.00000000E-01  1.50000000E+00  8.00000000E-01  8.00000000E-01
  1.50000000E+00  8.00000000E-01  8.00000000E-01  1.50000000E+00  8.00000000E-01
  8.00000000E-01  1.50000000E+00  8.00000000E-01  8.00000000E-01  1.50000000E+00
  8.00000000E-01  8.00000000E-01  1.50000000E+00  8.00000000E-01  8.00000000E-01
  1.50000000E+00  8.00000000E-01  8.00000000E-01  1.50000000E+00  8.00000000E-01
  8.00000000E-01  1.50000000E+00  8.00000000E-01  8.00000000E-01  1.50000000E+00
  8.00000000E-01  8.00000000E-01  1.50000000E+00  8.00000000E-01  8.00000000E-01
  1.50000000E+00  8.00000000E-01  8.00000000E-01  1.50000000E+00  8.00000000E-01
  8.00000000E-01  1.50000000E+00  8.00000000E-01  8.00000000E-01  1.50000000E+00
  8.00000000E-01  8.00000000E-01  1.50000000E+00  8.00000000E-01  8.00000000E-01
  1.50000000E+00  8.00000000E-01  8.00000000E-01  1.50000000E+00  8.00000000E-01
  8.00000000E-01  1.50000000E+00  8.00000000E-01  8.00000000E-01  1.50000000E+00
  8.00000000E-01  8.00000000E-01  1.50000000E+00  8.00000000E-01  8.00000000E-01
  1.50000000E+00  8.00000000E-01  8.00000000E-01  1.50000000E+00  8.00000000E-01
  8.00000000E-01  1.50000000E+00  8.00000000E-01  8.00000000E-01  1.50000000E+00
  8.00000000E-01  8.00000000E-01  1.50000000E+00  8.00000000E-01  8.00000000E-01
  1.50000000E+00  8.00000000E-01  8.00000000E-01  1.50000000E+00  8.00000000E-01
  8.00000000E-01  1.50000000E+00  8.00000000E-01  8.00000000E-01  1.50000000E+00
  8.00000000E-01  8.00000000E-01  1.50000000E+00  8.00000000E-01  8.00000000E-01
  1.50000000E+00  8.00000000E-01  8.00000000E-01  1.50000000E+00  8.00000000E-01
  8.00000000E-01  1.50000000E+00  8.00000000E-01  8.00000000E-01  1.50000000E+00
  8.00000000E-01  8.00000000E-01  1.50000000E+00  8.00000000E-01  8.00000000E-01
  1.50000000E+00  8.00000000E-01  8.00000000E-01  1.50000000E+00  8.00000000E-01
  8.00000000E-01  1.50000000E+00  8.00000000E-01  8.00000000E-01  1.50000000E+00
  8.00000000E-01  8.00000000E-01  1.50000000E+00  8.00000000E-01  8.00000000E-01
  1.50000000E+00  8.00000000E-01  8.00000000E-01  1.50000000E+00  8.00000000E-01
  8.00000000E-01  1.50000000E+00  8.00000000E-01  8.00000000E-01  1.50000000E+00
  8.00000000E-01  8.00000000E-01  1.50000000E+00  8.00000000E-01  8.00000000E-01
  1.50000000E+00  8.00000000E-01  8.00000000E-01  1.50000000E+00  8.00000000E-01
  8.00000000E-01  1.50000000E+00  8.00000000E-01  8.00000000E-01  1.50000000E+00
  8.00000000E-01  8.00000000E-01  1.50000000E+00  8.00000000E-01  8.00000000E-01
  1.50000000E+00  8.00000000E-01  8.00000000E-01  1.50000000E+00  8.00000000E-01
  8.00000000E-01  1.50000000E+00  8.00000000E-01  8.00000000E-01  1.50000000E+00
  8.00000000E-01  8.00000000E-01  1.50000000E+00  8.00000000E-01  8.00000000E-01
  1.50000000E+00  8.00000000E-01  8.00000000E-01  1.50000000E+00  8.00000000E-01
  8.00000000E-01  1.50000000E+00  8.00000000E-01  8.00000000E-01  1.50000000E+00
  8.00000000E-01  8.00000000E-01  1.50000000E+00  8.00000000E-01  8.00000000E-01
  1.50000000E+00  8.00000000E-01  8.00000000E-01  1.50000000E+00  8.00000000E-01
  8.00000000E-01  1.50000000E+00  8.00000000E-01  8.00000000E-01  1.50000000E+00
  8.00000000E-01  8.00000000E-01  1.50000000E+00  8.00000000E-01  8.00000000E-01
  1.50000000E+00  8.00000000E-01  8.00000000E-01  1.50000000E+00  8.00000000E-01
  8.00000000E-01  1.50000000E+00  8.00000000E-01  8.00000000E-01  1.50000000E+00
  8.00000000E-01  8.00000000E-01  1.50000000E+00  8.00000000E-01  8.00000000E-01
  1.50000000E+00  8.00000000E-01  8.00000000E-01  1.50000000E+00  8.00000000E-01
  8.00000000E-01  1.50000000E+00  8.00000000E-01  8.00000000E-01  1.50000000E+00
  8.00000000E-01  8.00000000E-01  1.50000000E+00  8.00000000E-01  8.00000000E-01
  1.50000000E+00  8.00000000E-01  8.00000000E-01  1.50000000E+00  8.00000000E-01
  8.00000000E-01  1.50000000E+00  8.00000000E-01  8.00000000E-01  1.50000000E+00
  8.00000000E-01  8.00000000E-01  1.50000000E+00  8.00000000E-01  8.00000000E-01
  1.50000000E+00  8.00000000E-01  8.00000000E-01  1.50000000E+00  8.00000000E-01
  8.00000000E-01  1.50000000E+00  8.00000000E-01  8.00000000E-01  1.50000000E+00
  8.00000000E-01  8.00000000E-01  1.50000000E+00  8.00000000E-01  8.00000000E-01
  1.50000000E+00  8.00000000E-01  8.00000000E-01  1.50000000E+00  8.00000000E-01
  8.00000000E-01  1.50000000E+00  8.00000000E-01  8.00000000E-01  1.50000000E+00
  8.00000000E-01  8.00000000E-01  1.50000000E+00  8.00000000E-01  8.00000000E-01
  1.50000000E+00  8.00000000E-01  8.00000000E-01  1.50000000E+00  8.00000000E-01
  8.00000000E-01  1.50000000E+00  8.00000000E-01  8.00000000E-01  1.50000000E+00
  8.00000000E-01  8.00000000E-01  1.50000000E+00  8.00000000E-01  8.00000000E-01
  1.50000000E+00  8.00000000E-01  8.00000000E-01  1.50000000E+00  8.00000000E-01
  8.00000000E-01  1.50000000E+00  8.00000000E-01  8.00000000E-01  1.50000000E+00
  8.00000000E-01  8.00000000E-01  1.50000000E+00  8.00000000E-01  8.00000000E-01
  1.50000000E+00  8.00000000E-01  8.00000000E-01  1.50000000E+00  8.00000000E-01
  8.00000000E-01  1.50000000E+00  8.00000000E-01  8.00000000E-01  1.50000000E+00
  8.00000000E-01  8.00000000E-01  1.50000000E+00  8.00000000E-01  8.00000000E-01
  1.50000000E+00  8.00000000E-01  8.00000000E-01  1.50000000E+00  8.00000000E-01
  8.00000000E-01  1.50000000E+00  8.00000000E-01  8.00000000E-01  1.50000000E+00
  8.00000000E-01  8.00000000E-01  1.50000000E+00  8.00000000E-01  8.00000000E-01
  1.50000000E+00  8.00000000E-01  8.00000000E-01  1.50000000E+00  8.00000000E-01
  8.00000000E-01  1.50000000E+00  8.00000000E-01  8.00000000E-01  1.50000000E+00
  8.00000000E-01  8.00000000E-01  1.50000000E+00  8.00000000E-01  8.00000000E-01
  1.50000000E+00  8.00000000E-01  8.00000000E-01  1.50000000E+00  8.00000000E-01
  8.00000000E-01  1.50000000E+00  8.00000000E-01  8.00000000E-01  1.50000000E+00
  8.00000000E-01  8.00000000E-01  1.50000000E+00  8.00000000E-01  8.00000000E-01
  1.50000000E+00  8.00000000E-01  8.00000000E-01  1.50000000E+00  8.00000000E-01
  8.00000000E-01  1.50000000E+00  8.00000000E-01  8.00000000E-01  1.50000000E+00
  8.00000000E-01  8.00000000E-01  1.50000000E+00  8.00000000E-01  8.00000000E-01
  1.50000000E+00  8.00000000E-01  8.00000000E-01  1.50000000E+00  8.00000000E-01
  8.00000000E-01  1.50000000E+00  8.00000000E-01  8.00000000E-01  1.50000000E+00
  8.00000000E-01  8.00000000E-01  1.50000000E+00  8.00000000E-01  8.00000000E-01
  1.50000000E+00  8.00000000E-01  8.00000000E-01  1.50000000E+00  8.00000000E-01
  8.00000000E-01  1.50000000E+00  8.00000000E-01  8.00000000E-01  1.50000000E+00
  8.00000000E-01  8.00000000E-01  1.50000000E+00  8.00000000E-01  8.00000000E-01
  1.50000000E+00  8.00000000E-01  8.00000000E-01  1.50000000E+00  8.00000000E-01
  8.00000000E-01  1.50000000E+00  8.00000000E-01  8.00000000E-01  1.50000000E+00
  8.00000000E-01  8.00000000E-01  1.50000000E+00  8.00000000E-01  8.00000000E-01
  1.50000000E+00  8.00000000E-01  8.00000000E-01  1.50000000E+00  8.00000000E-01
  8.00000000E-01  1.50000000E+00  8.00000000E-01  8.00000000E-01  1.50000000E+00
  8.00000000E-01  8.00000000E-01  1.50000000E+00  8.00000000E-01  8.00000000E-01
  1.50000000E+00  8.00000000E-01  8.00000000E-01  1.50000000E+00  8.00000000E-01
  8.00000000E-01  1.50000000E+00  8.00000000E-01  8.00000000E-01  1.50000000E+00
  8.00000000E-01  8.00000000E-01  1.50000000E+00  8.00000000E-01  8.00000000E-01
  1.50000000E+00  8.00000000E-01  8.00000000E-01  1.50000000E+00  8.00000000E-01
  8.00000000E-01  1.50000000E+00  8.00000000E-01  8.00000000E-01  1.50000000E+00
  8.00000000E-01  8.00000000E-01  1.50000000E+00  8.00000000E-01  8.00000000E-01
  1.50000000E+00  8.00000000E-01  8.00000000E-01  1.50000000E+00  8.00000000E-01
  8.00000000E-01  1.50000000E+00  8.00000000E-01  8.00000000E-01  1.50000000E+00
  8.00000000E-01  8.00000000E-01  1.50000000E+00  8.00000000E-01  8.00000000E-01
  1.50000000E+00  8.00000000E-01  8.00000000E-01  1.50000000E+00  8.00000000E-01
  8.00000000E-01  1.50000000E+00  8.00000000E-01  8.00000000E-01  1.50000000E+00
  8.00000000E-01  8.00000000E-01  1.50000000E+00  8.00000000E-01  8.00000000E-01
  1.50000000E+00  8.00000000E-01  8.00000000E-01  1.50000000E+00  8.00000000E-01
  8.00000000E-01  1.50000000E+00  8.00000000E-01  8.00000000E-01  1.50000000E+00
  8.00000000E-01  8.00000000E-01  1.50000000E+00  8.00000000E-01  8.00000000E-01
  1.50000000E+00  8.00000000E-01  8.00000000E-01  1.50000000E+00  8.00000000E-01
  8.00000000E-01  1.50000000E+00  8.00000000E-01  8.00000000E-01  1.50000000E+00
  8.00000000E-01  8.00000000E-01  1.50000000E+00  8.00000000E-01  8.00000000E-01
  1.50000000E+00  8.00000000E-01  8.00000000E-01  1.50000000E+00  8.00000000E-01
  8.00000000E-01  1.50000000E+00  8.00000000E-01  8.00000000E-01  1.50000000E+00
  8.00000000E-01  8.00000000E-01  1.50000000E+00  8.00000000E-01  8.00000000E-01
  1.50000000E+00  8.00000000E-01  8.00000000E-01  1.50000000E+00  8.00000000E-01
  8.00000000E-01  1.50000000E+00  8.00000000E-01  8.00000000E-01  1.50000000E+00
  8.00000000E-01  8.00000000E-01  1.50000000E+00  8.00000000E-01  8.00000000E-01
  1.50000000E+00  8.00000000E-01  8.00000000E-01  1.50000000E+00  8.00000000E-01
  8.00000000E-01  1.50000000E+00  8.00000000E-01  8.00000000E-01  1.50000000E+00
  8.00000000E-01  8.00000000E-01  1.50000000E+00  8.00000000E-01  8.00000000E-01
  1.50000000E+00  8.00000000E-01  8.00000000E-01  1.50000000E+00  8.00000000E-01
  8.00000000E-01  1.50000000E+00  8.00000000E-01  8.00000000E-01  1.50000000E+00
  8.00000000E-01  8.00000000E-01  1.50000000E+00  8.00000000E-01  8.00000000E-01
  1.50000000E+00  8.00000000E-01  8.00000000E-01  1.50000000E+00  8.00000000E-01
  8.00000000E-01  1.50000000E+00  8.00000000E-01  8.00000000E-01  1.50000000E+00
  8.00000000E-01  8.00000000E-01  1.50000000E+00  8.00000000E-01  8.00000000E-01
  1.50000000E+00  8.00000000E-01  8.00000000E-01  1.50000000E+00  8.00000000E-01
  8.00000000E-01  1.50000000E+00  8.00000000E-01  8.00000000E-01  1.50000000E+00
  8.00000000E-01  8.00000000E-01  1.50000000E+00  8.00000000E-01  8.00000000E-01
  1.50000000E+00  8.00000000E-01  8.00000000E-01  1.50000000E+00  8.00000000E-01
  8.00000000E-01  1.50000000E+00  8.00000000E-01  8.00000000E-01  1.50000000E+00
  8.00000000E-01  8.00000000E-01  1.50000000E+00  8.00000000E-01  8.00000000E-01
  1.50000000E+00  8.00000000E-01  8.00000000E-01  1.50000000E+00  8.00000000E-01
  8.00000000E-01  1.50000000E+00  8.00000000E-01  8.00000000E-01  1.50000000E+00
  8.00000000E-01  8.00000000E-01  1.50000000E+00  8.00000000E-01  8.00000000E-01
  1.50000000E+00  8.00000000E-01  8.00000000E-01  1.50000000E+00  8.00000000E-01
  8.00000000E-01  1.50000000E+00  8.00000000E-01  8.00000000E-01  1.50000000E+00
  8.00000000E-01  8.00000000E-01  1.50000000E+00  8.00000000E-01  8.00000000E-01
  1.50000000E+00  8.00000000E-01  8.00000000E-01  1.50000000E+00  8.00000000E-01
  8.00000000E-01  1.50000000E+00  8.00000000E-01  8.00000000E-01  1.50000000E+00
  8.00000000E-01  8.00000000E-01  1.50000000E+00  8.00000000E-01  8.00000000E-01
  1.50000000E+00  8.00000000E-01  8.00000000E-01  1.50000000E+00  8.00000000E-01
  8.00000000E-01  1.50000000E+00  8.00000000E-01  8.00000000E-01  1.50000000E+00
  8.00000000E-01  8.00000000E-01  1.50000000E+00  8.00000000E-01  8.00000000E-01
  1.50000000E+00  8.00000000E-01  8.00000000E-01  1.50000000E+00  8.00000000E-01
  8.00000000E-01  1.50000000E+00  8.00000000E-01  8.00000000E-01  1.50000000E+00
  8.00000000E-01  8.00000000E-01  1.50000000E+00  8.00000000E-01  8.00000000E-01
  1.50000000E+00  8.00000000E-01  8.00000000E-01  1.50000000E+00  8.00000000E-01
  8.00000000E-01  1.50000000E+00  8.00000000E-01  8.00000000E-01  1.50000000E+00
  8.00000000E-01  8.00000000E-01  1.50000000E+00  8.00000000E-01  8.00000000E-01
  1.50000000E+00  8.00000000E-01  8.00000000E-01  1.50000000E+00  8.00000000E-01
  8.00000000E-01  1.50000000E+00  8.00000000E-01  8.00000000E-01  1.50000000E+00
  8.00000000E-01  8.00000000E-01  1.50000000E+00  8.00000000E-01  8.00000000E-01
  1.50000000E+00  8.00000000E-01  8.00000000E-01  1.50000000E+00  8.00000000E-01
  8.00000000E-01  1.50000000E+00  8.00000000E-01  8.00000000E-01  1.50000000E+00
  8.00000000E-01  8.00000000E-01  1.50000000E+00  8.00000000E-01  8.00000000E-01
  1.50000000E+00  8.00000000E-01  8.00000000E-01  1.50000000E+00  8.00000000E-01
  8.00000000E-01  1.50000000E+00  8.00000000E-01  8.00000000E-01  1.50000000E+00
  8.00000000E-01  8.00000000E-01  1.50000000E+00  8.00000000E-01  8.00000000E-01
  1.50000000E+00  8.00000000E-01  8.00000000E-01  1.50000000E+00  8.00000000E-01
  8.00000000E-01  1.50000000E+00  8.00000000E-01  8.00000000E-01  1.50000000E+00
  8.00000000E-01  8.00000000E-01  1.50000000E+00  8.00000000E-01  8.00000000E-01
  1.50000000E+00  8.00000000E-01  8.00000000E-01  1.50000000E+00  8.00000000E-01
  8.00000000E-01  1.50000000E+00  8.00000000E-01  8.00000000E-01  1.50000000E+00
  8.00000000E-01  8.00000000E-01  1.50000000E+00  8.00000000E-01  8.00000000E-01
  1.50000000E+00  8.00000000E-01  8.00000000E-01  1.50000000E+00  8.00000000E-01
  8.00000000E-01  1.50000000E+00  8.00000000E-01  8.00000000E-01  1.50000000E+00
  8.00000000E-01  8.00000000E-01  1.50000000E+00  8.00000000E-01  8.00000000E-01
  1.50000000E+00  8.00000000E-01  8.00000000E-01  1.50000000E+00  8.00000000E-01
  8.00000000E-01  1.50000000E+00  8.00000000E-01  8.00000000E-01  1.50000000E+00
  8.00000000E-01  8.00000000E-01  1.50000000E+00  8.00000000E-01  8.00000000E-01
  1.50000000E+00  8.00000000E-01  8.00000000E-01  1.50000000E+00  8.00000000E-01
  8.00000000E-01  1.50000000E+00  8.00000000E-01  8.00000000E-01  1.50000000E+00
  8.00000000E-01  8.00000000E-01  1.50000000E+00  8.00000000E-01  8.00000000E-01
  1.50000000E+00  8.00000000E-01  8.00000000E-01  1.50000000E+00  8.00000000E-01
  8.00000000E-01  1.50000000E+00  8.00000000E-01  8.00000000E-01  1.50000000E+00
  8.00000000E-01  8.00000000E-01  1.50000000E+00  8.00000000E-01  8.00000000E-01
  1.50000000E+00  8.00000000E-01  8.00000000E-01  1.50000000E+00  8.00000000E-01
  8.00000000E-01  1.50000000E+00  8.00000000E-01  8.00000000E-01  1.50000000E+00
  8.00000000E-01  8.00000000E-01  1.50000000E+00  8.00000000E-01  8.00000000E-01
  1.50000000E+00  8.00000000E-01  8.00000000E-01  1.50000000E+00  8.00000000E-01
  8.00000000E-01  1.50000000E+00  8.00000000E-01  8.00000000E-01  1.50000000E+00
  8.00000000E-01  8.00000000E-01  1.50000000E+00  8.00000000E-01  8.00000000E-01
  1.50000000E+00  8.00000000E-01  8.00000000E-01  1.50000000E+00  8.00000000E-01
  8.00000000E-01  1.50000000E+00  8.00000000E-01  8.00000000E-01  1.50000000E+00
  8.00000000E-01  8.00000000E-01  1.50000000E+00  8.00000000E-01  8.00000000E-01
  1.50000000E+00  8.00000000E-01  8.00000000E-01  1.50000000E+00  8.00000000E-01
  8.00000000E-01  1.50000000E+00  8.00000000E-01  8.00000000E-01  1.50000000E+00
  8.00000000E-01  8.00000000E-01  1.50000000E+00  8.00000000E-01  8.00000000E-01
  1.50000000E+00  8.00000000E-01  8.00000000E-01  1.50000000E+00  8.00000000E-01
  8.00000000E-01  1.50000000E+00  8.00000000E-01  8.00000000E-01  1.50000000E+00
  8.00000000E-01  8.00000000E-01  1.50000000E+00  8.00000000E-01  8.00000000E-01
  1.50000000E+00  8.00000000E-01  8.00000000E-01  1.50000000E+00  8.00000000E-01
  8.00000000E-01  1.50000000E+00  8.00000000E-01  8.00000000E-01  1.50000000E+00
  8.00000000E-01  8.00000000E-01  1.50000000E+00  8.00000000E-01  8.00000000E-01
  1.50000000E+00  8.00000000E-01  8.00000000E-01  1.50000000E+00  8.00000000E-01
  8.00000000E-01  1.50000000E+00  8.00000000E-01  8.00000000E-01  1.50000000E+00
  8.00000000E-01  8.00000000E-01  1.50000000E+00  8.00000000E-01  8.00000000E-01
  1.50000000E+00  8.00000000E-01  8.00000000E-01  1.50000000E+00  8.00000000E-01
  8.00000000E-01  1.50000000E+00  8.00000000E-01  8.00000000E-01  1.50000000E+00
  8.00000000E-01  8.00000000E-01  1.50000000E+00  8.00000000E-01  8.00000000E-01
  1.50000000E+00  8.00000000E-01  8.00000000E-01  1.50000000E+00  8.00000000E-01
  8.00000000E-01  1.50000000E+00  8.00000000E-01  8.00000000E-01  1.50000000E+00
  8.00000000E-01  8.00000000E-01  1.50000000E+00  8.00000000E-01  8.00000000E-01
  1.50000000E+00  8.00000000E-01  8.00000000E-01  1.50000000E+00  8.00000000E-01
  8.00000000E-01  1.50000000E+00  8.00000000E-01  8.00000000E-01  1.50000000E+00
  8.00000000E-01  8.00000000E-01  1.50000000E+00  8.00000000E-01  8.00000000E-01
  1.50000000E+00  8.00000000E-01  8.00000000E-01  1.50000000E+00  8.00000000E-01
  8.00000000E-01  1.50000000E+00  8.00000000E-01  8.00000000E-01  1.50000000E+00
  8.00000000E-01  8.00000000E-01  1.50000000E+00  8.00000000E-01  8.00000000E-01
  1.50000000E+00  8.00000000E-01  8.00000000E-01  1.50000000E+00  8.00000000E-01
  8.00000000E-01  1.50000000E+00  8.00000000E-01  8.00000000E-01  1.50000000E+00
  8.00000000E-01  8.00000000E-01  1.50000000E+00  8.00000000E-01  8.00000000E-01
  1.50000000E+00  8.00000000E-01  8.00000000E-01  1.50000000E+00  8.00000000E-01
  8.00000000E-01  1.50000000E+00  8.00000000E-01  8.00000000E-01  1.50000000E+00
  8.00000000E-01  8.00000000E-01  1.50000000E+00  8.00000000E-01  8.00000000E-01
  1.50000000E+00  8.00000000E-01  8.00000000E-01  1.50000000E+00  8.00000000E-01
  8.00000000E-01  1.50000000E+00  8.00000000E-01  8.00000000E-01  1.50000000E+00
  8.00000000E-01  8.00000000E-01  1.50000000E+00  8.00000000E-01  8.00000000E-01
  1.50000000E+00  8.00000000E-01  8.00000000E-01  1.50000000E+00  8.00000000E-01
  8.00000000E-01  1.50000000E+00  8.00000000E-01  8.00000000E-01  1.50000000E+00
  8.00000000E-01  8.00000000E-01  1.50000000E+00  8.00000000E-01  8.00000000E-01
  1.50000000E+00  8.00000000E-01  8.00000000E-01  1.50000000E+00  8.00000000E-01
  8.00000000E-01  1.50000000E+00  8.00000000E-01  8.00000000E-01  1.50000000E+00
  8.00000000E-01  8.00000000E-01  1.50000000E+00  8.00000000E-01  8.00000000E-01
  1.50000000E+00  8.00000000E-01  8.00000000E-01  1.50000000E+00  8.00000000E-01
  8.00000000E-01  1.50000000E+00  8.00000000E-01  8.00000000E-01  1.50000000E+00
  8.00000000E-01  8.00000000E-01  1.50000000E+00  8.00000000E-01  8.00000000E-01
  1.50000000E+00  8.00000000E-01  8.00000000E-01  1.50000000E+00  8.00000000E-01
  8.00000000E-01  1.50000000E+00  8.00000000E-01  8.00000000E-01  1.50000000E+00
  8.00000000E-01  8.00000000E-01  1.50000000E+00  8.00000000E-01  8.00000000E-01
  1.50000000E+00  8.00000000E-01  8.00000000E-01  1.50000000E+00  8.00000000E-01
  8.00000000E-01  1.50000000E+00  8.00000000E-01  8.00000000E-01  1.50000000E+00
  8.00000000E-01  8.00000000E-01  1.50000000E+00  8.00000000E-01  8.00000000E-01
  1.50000000E+00  8.00000000E-01  8.00000000E-01  1.50000000E+00  8.00000000E-01
  8.00000000E-01  1.50000000E+00  8.00000000E-01  8.00000000E-01  1.50000000E+00
  8.00000000E-01  8.00000000E-01  1.50000000E+00  8.00000000E-01  8.00000000E-01
  1.50000000E+00  8.00000000E-01  8.00000000E-01  1.50000000E+00  8.00000000E-01
  8.00000000E-01  1.50000000E+00  8.00000000E-01  8.00000000E-01  1.50000000E+00
  8.00000000E-01  8.00000000E-01  1.50000000E+00  8.00000000E-01  8.00000000E-01
  1.50000000E+00  8.00000000E-01  8.00000000E-01  1.50000000E+00  8.00000000E-01
  8.00000000E-01  1.50000000E+00  8.00000000E-01  8.00000000E-01  1.50000000E+00
  8.00000000E-01  8.00000000E-01  1.50000000E+00  8.00000000E-01  8.00000000E-01
  1.50000000E+00  8.00000000E-01  8.00000000E-01  1.50000000E+00  8.00000000E-01
  8.00000000E-01  1.50000000E+00  8.00000000E-01  8.00000000E-01  1.50000000E+00
  8.00000000E-01  8.00000000E-01  1.50000000E+00  8.00000000E-01  8.00000000E-01
  1.50000000E+00  8.00000000E-01  8.00000000E-01  1.50000000E+00  8.00000000E-01
  8.00000000E-01  1.50000000E+00  8.00000000E-01  8.00000000E-01  1.50000000E+00
  8.00000000E-01  8.00000000E-01  1.50000000E+00  8.00000000E-01  8.00000000E-01
  1.50000000E+00  8.00000000E-01  8.00000000E-01  1.50000000E+00  8.00000000E-01
  8.00000000E-01  1.50000000E+00  8.00000000E-01  8.00000000E-01  1.50000000E+00
  8.00000000E-01  8.00000000E-01  1.50000000E+00  8.00000000E-01  8.00000000E-01
  1.50000000E+00  8.00000000E-01  8.00000000E-01  1.50000000E+00  8.00000000E-01
  8.00000000E-01  1.50000000E+00  8.00000000E-01  8.00000000E-01  1.50000000E+00
  8.00000000E-01  8.00000000E-01  1.50000000E+00  8.00000000E-01  8.00000000E-01
  1.50000000E+00  8.00000000E-01  8.00000000E-01  1.50000000E+00  8.00000000E-01
  8.00000000E-01  1.50000000E+00  8.00000000E-01  8.00000000E-01  1.50000000E+00
  8.00000000E-01  8.00000000E-01  1.50000000E+00  8.00000000E-01  8.00000000E-01
  1.50000000E+00  8.00000000E-01  8.00000000E-01  1.50000000E+00  8.00000000E-01
  8.00000000E-01  1.50000000E+00  8.00000000E-01  8.00000000E-01  1.50000000E+00
  8.00000000E-01  8.00000000E-01  1.50000000E+00  8.00000000E-01  8.00000000E-01
  1.50000000E+00  8.00000000E-01  8.00000000E-01  1.50000000E+00  8.00000000E-01
  8.00000000E-01  1.50000000E+00  8.00000000E-01  8.00000000E-01  1.50000000E+00
  8.00000000E-01  8.00000000E-01  1.50000000E+00  8.00000000E-01  8.00000000E-01
  1.50000000E+00  8.00000000E-01  8.00000000E-01  1.50000000E+00  8.00000000E-01
  8.00000000E-01  1.50000000E+00  8.00000000E-01  8.00000000E-01  1.50000000E+00
  8.00000000E-01  8.00000000E-01  1.50000000E+00  8.00000000E-01  8.00000000E-01
  1.50000000E+00  8.00000000E-01  8.00000000E-01  1.50000000E+00  8.00000000E-01
  8.00000000E-01  1.50000000E+00  8.00000000E-01  8.00000000E-01  1.50000000E+00
  8.00000000E-01  8.00000000E-01  1.50000000E+00  8.00000000E-01  8.00000000E-01
  1.50000000E+00  8.00000000E-01  8.00000000E-01  1.50000000E+00  8.00000000E-01
  8.00000000E-01  1.50000000E+00  8.00000000E-01  8.00000000E-01  1.50000000E+00
  8.00000000E-01  8.00000000E-01  1.50000000E+00  8.00000000E-01  8.00000000E-01
  1.50000000E+00  8.00000000E-01  8.00000000E-01  1.50000000E+00  8.00000000E-01
  8.00000000E-01  1.50000000E+00  8.00000000E-01  8.00000000E-01  1.50000000E+00
  8.00000000E-01  8.00000000E-01  1.50000000E+00  8.00000000E-01  8.00000000E-01
  1.50000000E+00  8.00000000E-01  8.00000000E-01  1.50000000E+00  8.00000000E-01
  8.00000000E-01  1.50000000E+00  8.00000000E-01  8.00000000E-01  1.50000000E+00
  8.00000000E-01  8.00000000E-01  1.50000000E+00  8.00000000E-01  8.00000000E-01
  1.50000000E+00  8.00000000E-01  8.00000000E-01  1.50000000E+00  8.00000000E-01
  8.00000000E-01  1.50000000E+00  8.00000000E-01  8.00000000E-01  1.50000000E+00
  8.00000000E-01  8.00000000E-01  1.50000000E+00  8.00000000E-01  8.00000000E-01
  1.50000000E+00  8.00000000E-01  8.00000000E-01  1.50000000E+00  8.00000000E-01
  8.00000000E-01  1.50000000E+00  8.00000000E-01  8.00000000E-01  1.50000000E+00
  8.00000000E-01  8.00000000E-01  1.50000000E+00  8.00000000E-01  8.00000000E-01
  1.50000000E+00  8.00000000E-01  8.00000000E-01  1.50000000E+00  8.00000000E-01
  8.00000000E-01  1.50000000E+00  8.00000000E-01  8.00000000E-01  1.50000000E+00
  8.00000000E-01  8.00000000E-01  1.50000000E+00  8.00000000E-01  8.00000000E-01
  1.50000000E+00  8.00000000E-01  8.00000000E-01  1.50000000E+00  8.00000000E-01
  8.00000000E-01  1.50000000E+00  8.00000000E-01  8.00000000E-01  1.50000000E+00
  8.00000000E-01  8.00000000E-01  1.50000000E+00  8.00000000E-01  8.00000000E-01
  1.50000000E+00  8.00000000E-01  8.00000000E-01  1.50000000E+00  8.00000000E-01
  8.00000000E-01  1.50000000E+00  8.00000000E-01  8.00000000E-01  1.50000000E+00
  8.00000000E-01  8.00000000E-01  1.50000000E+00  8.00000000E-01  8.00000000E-01
  1.50000000E+00  8.00000000E-01  8.00000000E-01  1.50000000E+00  8.00000000E-01
  8.00000000E-01  1.50000000E+00  8.00000000E-01  8.00000000E-01  1.50000000E+00
  8.00000000E-01  8.00000000E-01  1.50000000E+00  8.00000000E-01  8.00000000E-01
  1.50000000E+00  8.00000000E-01  8.00000000E-01  1.50000000E+00  8.00000000E-01
  8.00000000E-01  1.50000000E+00  8.00000000E-01  8.00000000E-01  1.50000000E+00
  8.00000000E-01  8.00000000E-01  1.50000000E+00  8.00000000E-01  8.00000000E-01
  1.50000000E+00  8.00000000E-01  8.00000000E-01  1.50000000E+00  8.00000000E-01
  8.00000000E-01  1.50000000E+00  8.00000000E-01  8.00000000E-01  1.50000000E+00
  8.00000000E-01  8.00000000E-01  1.50000000E+00  8.00000000E-01  8.00000000E-01
  1.50000000E+00  8.00000000E-01  8.00000000E-01  1.50000000E+00  8.00000000E-01
  8.00000000E-01  1.50000000E+00  8.00000000E-01  8.00000000E-01  1.50000000E+00
  8.00000000E-01  8.00000000E-01  1.50000000E+00  8.00000000E-01  8.00000000E-01
  1.50000000E+00  8.00000000E-01  8.00000000E-01  1.50000000E+00  8.00000000E-01
  8.00000000E-01  1.50000000E+00  8.00000000E-01  8.00000000E-01  1.50000000E+00
  8.00000000E-01  8.00000000E-01  1.50000000E+00  8.00000000E-01  8.00000000E-01
  1.50000000E+00  8.00000000E-01  8.00000000E-01  1.50000000E+00  8.00000000E-01
  8.00000000E-01  1.50000000E+00  8.00000000E-01  8.00000000E-01  1.50000000E+00
  8.00000000E-01  8.00000000E-01  1.50000000E+00  8.00000000E-01  8.00000000E-01
  1.50000000E+00  8.00000000E-01  8.00000000E-01  1.50000000E+00  8.00000000E-01
  8.00000000E-01  1.50000000E+00  8.00000000E-01  8.00000000E-01  1.50000000E+00
  8.00000000E-01  8.00000000E-01  1.50000000E+00  8.00000000E-01  8.00000000E-01
  1.50000000E+00  8.00000000E-01  8.00000000E-01  1.50000000E+00  8.00000000E-01
  8.00000000E-01  1.50000000E+00  8.00000000E-01  8.00000000E-01  1.50000000E+00
  8.00000000E-01  8.00000000E-01  1.50000000E+00  8.00000000E-01  8.00000000E-01
  1.50000000E+00  8.00000000E-01  8.00000000E-01  1.50000000E+00  8.00000000E-01
  8.00000000E-01  1.50000000E+00  8.00000000E-01  8.00000000E-01  1.50000000E+00
  8.00000000E-01  8.00000000E-01  1.50000000E+00  8.00000000E-01  8.00000000E-01
  1.50000000E+00  8.00000000E-01  8.00000000E-01  1.50000000E+00  8.00000000E-01
  8.00000000E-01  1.50000000E+00  8.00000000E-01  8.00000000E-01  1.50000000E+00
  8.00000000E-01  8.00000000E-01  1.50000000E+00  8.00000000E-01  8.00000000E-01
  1.50000000E+00  8.00000000E-01  8.00000000E-01  1.50000000E+00  8.00000000E-01
  8.00000000E-01  1.50000000E+00  8.00000000E-01  8.00000000E-01  1.50000000E+00
  8.00000000E-01  8.00000000E-01  1.50000000E+00  8.00000000E-01  8.00000000E-01
  1.50000000E+00  8.00000000E-01  8.00000000E-01  1.50000000E+00  8.00000000E-01
  8.00000000E-01  1.50000000E+00  8.00000000E-01  8.00000000E-01  1.50000000E+00
  8.00000000E-01  8.00000000E-01  1.50000000E+00  8.00000000E-01  8.00000000E-01
  1.50000000E+00  8.00000000E-01  8.00000000E-01  1.50000000E+00  8.00000000E-01
  8.00000000E-01  1.50000000E+00  8.00000000E-01  8.00000000E-01  1.50000000E+00
  8.00000000E-01  8.00000000E-01  1.50000000E+00  8.00000000E-01  8.00000000E-01
  1.50000000E+00  8.00000000E-01  8.00000000E-01  1.50000000E+00  8.00000000E-01
  8.00000000E-01  1.50000000E+00  8.00000000E-01  8.00000000E-01  1.50000000E+00
  8.00000000E-01  8.00000000E-01  1.50000000E+00  8.00000000E-01  8.00000000E-01
  1.50000000E+00  8.00000000E-01  8.00000000E-01  1.50000000E+00  8.00000000E-01
  8.00000000E-01  1.50000000E+00  8.00000000E-01  8.00000000E-01  1.50000000E+00
  8.00000000E-01  8.00000000E-01  1.50000000E+00  8.00000000E-01  8.00000000E-01
  1.50000000E+00  8.00000000E-01  8.00000000E-01  1.50000000E+00  8.00000000E-01
  8.00000000E-01  1.50000000E+00  8.00000000E-01  8.00000000E-01  1.50000000E+00
  8.00000000E-01  8.00000000E-01  1.50000000E+00  8.00000000E-01  8.00000000E-01
  1.50000000E+00  8.00000000E-01  8.00000000E-01  1.50000000E+00  8.00000000E-01
  8.00000000E-01  1.50000000E+00  8.00000000E-01  8.00000000E-01  1.50000000E+00
  8.00000000E-01  8.00000000E-01  1.50000000E+00  8.00000000E-01  8.00000000E-01
  1.50000000E+00  8.00000000E-01  8.00000000E-01  1.50000000E+00  8.00000000E-01
  8.00000000E-01  1.50000000E+00  8.00000000E-01  8.00000000E-01  1.50000000E+00
  8.00000000E-01  8.00000000E-01  1.50000000E+00  8.00000000E-01  8.00000000E-01
  1.50000000E+00  8.00000000E-01  8.00000000E-01  1.50000000E+00  8.00000000E-01
  8.00000000E-01  1.50000000E+00  8.00000000E-01  8.00000000E-01  1.50000000E+00
  8.00000000E-01  8.00000000E-01  1.50000000E+00  8.00000000E-01  8.00000000E-01
  1.50000000E+00  8.00000000E-01  8.00000000E-01  1.50000000E+00  8.00000000E-01
  8.00000000E-01  1.50000000E+00  8.00000000E-01  8.00000000E-01  1.50000000E+00
  8.00000000E-01  8.00000000E-01  1.50000000E+00  8.00000000E-01  8.00000000E-01
  1.50000000E+00  8.00000000E-01  8.00000000E-01  1.50000000E+00  8.00000000E-01
  8.00000000E-01  1.50000000E+00  8.00000000E-01  8.00000000E-01  1.50000000E+00
  8.00000000E-01  8.00000000E-01  1.50000000E+00  8.00000000E-01  8.00000000E-01
  1.50000000E+00  8.00000000E-01  8.00000000E-01  1.50000000E+00  8.00000000E-01
  8.00000000E-01  1.50000000E+00  8.00000000E-01  8.00000000E-01  1.50000000E+00
  8.00000000E-01  8.00000000E-01  1.50000000E+00  8.00000000E-01  8.00000000E-01
  1.50000000E+00  8.00000000E-01  8.00000000E-01  1.50000000E+00  8.00000000E-01
  8.00000000E-01  1.50000000E+00  8.00000000E-01  8.00000000E-01  1.50000000E+00
  8.00000000E-01  8.00000000E-01  1.50000000E+00  8.00000000E-01  8.00000000E-01
  1.50000000E+00  8.00000000E-01  8.00000000E-01  1.50000000E+00  8.00000000E-01
  8.00000000E-01  1.50000000E+00  8.00000000E-01  8.00000000E-01  1.50000000E+00
  8.00000000E-01  8.00000000E-01  1.50000000E+00  8.00000000E-01  8.00000000E-01
  1.50000000E+00  8.00000000E-01  8.00000000E-01  1.50000000E+00  8.00000000E-01
  8.00000000E-01  1.50000000E+00  8.00000000E-01  8.00000000E-01  1.50000000E+00
  8.00000000E-01  8.00000000E-01  1.50000000E+00  8.00000000E-01  8.00000000E-01
  1.50000000E+00  8.00000000E-01  8.00000000E-01  1.50000000E+00  8.00000000E-01
  8.00000000E-01  1.50000000E+00  8.00000000E-01  8.00000000E-01  1.50000000E+00
  8.00000000E-01  8.00000000E-01  1.50000000E+00  8.00000000E-01  8.00000000E-01
  1.50000000E+00  8.00000000E-01  8.00000000E-01  1.50000000E+00  8.00000000E-01
  8.00000000E-01  1.50000000E+00  8.00000000E-01  8.00000000E-01  1.50000000E+00
  8.00000000E-01  8.00000000E-01  1.50000000E+00  8.00000000E-01  8.00000000E-01
  1.50000000E+00  8.00000000E-01  8.00000000E-01  1.50000000E+00  8.00000000E-01
  8.00000000E-01  1.50000000E+00  8.00000000E-01  8.00000000E-01  1.50000000E+00
  8.00000000E-01  8.00000000E-01  1.50000000E+00  8.00000000E-01  8.00000000E-01
  1.50000000E+00  8.00000000E-01  8.00000000E-01  1.50000000E+00  8.00000000E-01
  8.00000000E-01  1.50000000E+00  8.00000000E-01  8.00000000E-01  1.50000000E+00
  8.00000000E-01  8.00000000E-01  1.50000000E+00  8.00000000E-01  8.00000000E-01
  1.50000000E+00  8.00000000E-01  8.00000000E-01  1.50000000E+00  8.00000000E-01
  8.00000000E-01  1.50000000E+00  8.00000000E-01  8.00000000E-01  1.50000000E+00
  8.00000000E-01  8.00000000E-01  1.50000000E+00  8.00000000E-01  8.00000000E-01
  1.50000000E+00  8.00000000E-01  8.00000000E-01  1.50000000E+00  8.00000000E-01
  8.00000000E-01  1.50000000E+00  8.00000000E-01  8.00000000E-01  1.50000000E+00
  8.00000000E-01  8.00000000E-01  1.50000000E+00  8.00000000E-01  8.00000000E-01
  1.50000000E+00  8.00000000E-01  8.00000000E-01  1.50000000E+00  8.00000000E-01
  8.00000000E-01  1.50000000E+00  8.00000000E-01  8.00000000E-01  1.50000000E+00
  8.00000000E-01  8.00000000E-01  1.50000000E+00  8.00000000E-01  8.00000000E-01
  1.50000000E+00  8.00000000E-01  8.00000000E-01  1.50000000E+00  8.00000000E-01
  8.00000000E-01  1.50000000E+00  8.00000000E-01  8.00000000E-01  1.50000000E+00
  8.00000000E-01  8.00000000E-01  1.50000000E+00  8.00000000E-01  8.00000000E-01
  1.50000000E+00  8.00000000E-01  8.00000000E-01  1.50000000E+00  8.00000000E-01
  8.00000000E-01  1.50000000E+00  8.00000000E-01  8.00000000E-01  1.50000000E+00
  8.00000000E-01  8.00000000E-01  1.50000000E+00  8.00000000E-01  8.00000000E-01
  1.50000000E+00  8.00000000E-01  8.00000000E-01  1.50000000E+00  8.00000000E-01
  8.00000000E-01  1.50000000E+00  8.00000000E-01  8.00000000E-01  1.50000000E+00
  8.00000000E-01  8.00000000E-01  1.50000000E+00  8.00000000E-01  8.00000000E-01
  1.50000000E+00  8.00000000E-01  8.00000000E-01  1.50000000E+00  8.00000000E-01
  8.00000000E-01  1.50000000E+00  8.00000000E-01  8.00000000E-01  1.50000000E+00
  8.00000000E-01  8.00000000E-01  1.50000000E+00  8.00000000E-01  8.00000000E-01
  1.50000000E+00  8.00000000E-01  8.00000000E-01  1.50000000E+00  8.00000000E-01
  8.00000000E-01  1.50000000E+00  8.00000000E-01  8.00000000E-01  1.50000000E+00
  8.00000000E-01  8.00000000E-01  1.50000000E+00  8.00000000E-01  8.00000000E-01
  1.50000000E+00  8.00000000E-01  8.00000000E-01  1.50000000E+00  8.00000000E-01
  8.00000000E-01  1.50000000E+00  8.00000000E-01  8.00000000E-01  1.50000000E+00
  8.00000000E-01  8.00000000E-01  1.50000000E+00  8.00000000E-01  8.00000000E-01
  1.50000000E+00  8.00000000E-01  8.00000000E-01  1.50000000E+00  8.00000000E-01
  8.00000000E-01  1.50000000E+00  8.00000000E-01  8.00000000E-01  1.50000000E+00
  8.00000000E-01  8.00000000E-01  1.50000000E+00  8.00000000E-01  8.00000000E-01
  1.50000000E+00  8.00000000E-01  8.00000000E-01  1.50000000E+00  8.00000000E-01
  8.00000000E-01  1.50000000E+00  8.00000000E-01  8.00000000E-01  1.50000000E+00
  8.00000000E-01  8.00000000E-01  1.50000000E+00  8.00000000E-01  8.00000000E-01
  1.50000000E+00  8.00000000E-01  8.00000000E-01  1.50000000E+00  8.00000000E-01
  8.00000000E-01  1.50000000E+00  8.00000000E-01  8.00000000E-01  1.50000000E+00
  8.00000000E-01  8.00000000E-01  1.50000000E+00  8.00000000E-01  8.00000000E-01
  1.50000000E+00  8.00000000E-01  8.00000000E-01  1.50000000E+00  8.00000000E-01
  8.00000000E-01  1.50000000E+00  8.00000000E-01  8.00000000E-01  1.50000000E+00
  8.00000000E-01  8.00000000E-01  1.50000000E+00  8.00000000E-01  8.00000000E-01
  1.50000000E+00  8.00000000E-01  8.00000000E-01  1.50000000E+00  8.00000000E-01
  8.00000000E-01  1.50000000E+00  8.00000000E-01  8.00000000E-01  1.50000000E+00
  8.00000000E-01  8.00000000E-01  1.50000000E+00  8.00000000E-01  8.00000000E-01
  1.50000000E+00  8.00000000E-01  8.00000000E-01  1.50000000E+00  8.00000000E-01
  8.00000000E-01  1.50000000E+00  8.00000000E-01  8.00000000E-01  1.50000000E+00
  8.00000000E-01  8.00000000E-01  1.50000000E+00  8.00000000E-01  8.00000000E-01
  1.50000000E+00  8.00000000E-01  8.00000000E-01  1.50000000E+00  8.00000000E-01
  8.00000000E-01  1.50000000E+00  8.00000000E-01  8.00000000E-01  1.50000000E+00
  8.00000000E-01  8.00000000E-01  1.50000000E+00  8.00000000E-01  8.00000000E-01
  1.50000000E+00  8.00000000E-01  8.00000000E-01  1.50000000E+00  8.00000000E-01
  8.00000000E-01  1.50000000E+00  8.00000000E-01  8.00000000E-01  1.50000000E+00
  8.00000000E-01  8.00000000E-01  1.50000000E+00  8.00000000E-01  8.00000000E-01
  1.50000000E+00  8.00000000E-01  8.00000000E-01  1.50000000E+00  8.00000000E-01
  8.00000000E-01  1.50000000E+00  8.00000000E-01  8.00000000E-01  1.50000000E+00
  8.00000000E-01  8.00000000E-01  1.50000000E+00  8.00000000E-01  8.00000000E-01
  1.50000000E+00  8.00000000E-01  8.00000000E-01  1.50000000E+00  8.00000000E-01
  8.00000000E-01  1.50000000E+00  8.00000000E-01  8.00000000E-01  1.50000000E+00
  8.00000000E-01  8.00000000E-01  1.50000000E+00  8.00000000E-01  8.00000000E-01
  1.50000000E+00  8.00000000E-01  8.00000000E-01  1.50000000E+00  8.00000000E-01
  8.00000000E-01  1.50000000E+00  8.00000000E-01  8.00000000E-01  1.50000000E+00
  8.00000000E-01  8.00000000E-01  1.50000000E+00  8.00000000E-01  8.00000000E-01
  1.50000000E+00  8.00000000E-01  8.00000000E-01  1.50000000E+00  8.00000000E-01
  8.00000000E-01  1.50000000E+00  8.00000000E-01  8.00000000E-01  1.50000000E+00
  8.00000000E-01  8.00000000E-01  1.50000000E+00  8.00000000E-01  8.00000000E-01
  1.50000000E+00  8.00000000E-01  8.00000000E-01  1.50000000E+00  8.00000000E-01
  8.00000000E-01  1.50000000E+00  8.00000000E-01  8.00000000E-01  1.50000000E+00
  8.00000000E-01  8.00000000E-01  1.50000000E+00  8.00000000E-01  8.00000000E-01
  1.50000000E+00  8.00000000E-01  8.00000000E-01  1.50000000E+00  8.00000000E-01
  8.00000000E-01  1.50000000E+00  8.00000000E-01  8.00000000E-01  1.50000000E+00
  8.00000000E-01  8.00000000E-01  1.50000000E+00  8.00000000E-01  8.00000000E-01
  1.50000000E+00  8.00000000E-01  8.00000000E-01  1.50000000E+00  8.00000000E-01
  8.00000000E-01  1.50000000E+00  8.00000000E-01  8.00000000E-01  1.50000000E+00
  8.00000000E-01  8.00000000E-01  1.50000000E+00  8.00000000E-01  8.00000000E-01
  1.50000000E+00  8.00000000E-01  8.00000000E-01  1.50000000E+00  8.00000000E-01
  8.00000000E-01  1.50000000E+00  8.00000000E-01  8.00000000E-01  1.50000000E+00
  8.00000000E-01  8.00000000E-01  1.50000000E+00  8.00000000E-01  8.00000000E-01
  1.50000000E+00  8.00000000E-01  8.00000000E-01  1.50000000E+00  8.00000000E-01
  8.00000000E-01  1.50000000E+00  8.00000000E-01  8.00000000E-01  1.50000000E+00
  8.00000000E-01  8.00000000E-01  1.50000000E+00  8.00000000E-01  8.00000000E-01
  1.50000000E+00  8.00000000E-01  8.00000000E-01  1.50000000E+00  8.00000000E-01
  8.00000000E-01  1.50000000E+00  8.00000000E-01  8.00000000E-01  1.50000000E+00
  8.00000000E-01  8.00000000E-01  1.50000000E+00  8.00000000E-01  8.00000000E-01
  1.50000000E+00  8.00000000E-01  8.00000000E-01  1.50000000E+00  8.00000000E-01
  8.00000000E-01  1.50000000E+00  8.00000000E-01  8.00000000E-01  1.50000000E+00
  8.00000000E-01  8.00000000E-01  1.50000000E+00  8.00000000E-01  8.00000000E-01
  1.50000000E+00  8.00000000E-01  8.00000000E-01  1.50000000E+00  8.00000000E-01
  8.00000000E-01  1.50000000E+00  8.00000000E-01  8.00000000E-01  1.50000000E+00
  8.00000000E-01  8.00000000E-01  1.50000000E+00  8.00000000E-01  8.00000000E-01
  1.50000000E+00  8.00000000E-01  8.00000000E-01  1.50000000E+00  8.00000000E-01
  8.00000000E-01  1.50000000E+00  8.00000000E-01  8.00000000E-01  1.50000000E+00
  8.00000000E-01  8.00000000E-01  1.50000000E+00  8.00000000E-01  8.00000000E-01
  1.50000000E+00  8.00000000E-01  8.00000000E-01  1.50000000E+00  8.00000000E-01
  8.00000000E-01  1.50000000E+00  8.00000000E-01  8.00000000E-01  1.50000000E+00
  8.00000000E-01  8.00000000E-01  1.50000000E+00  8.00000000E-01  8.00000000E-01
  1.50000000E+00  8.00000000E-01  8.00000000E-01  1.50000000E+00  8.00000000E-01
  8.00000000E-01  1.50000000E+00  8.00000000E-01  8.00000000E-01  1.50000000E+00
  8.00000000E-01  8.00000000E-01  1.50000000E+00  8.00000000E-01  8.00000000E-01
  1.50000000E+00  8.00000000E-01  8.00000000E-01  1.50000000E+00  8.00000000E-01
  8.00000000E-01  1.50000000E+00  8.00000000E-01  8.00000000E-01  1.50000000E+00
  8.00000000E-01  8.00000000E-01  1.50000000E+00  8.00000000E-01  8.00000000E-01
  1.50000000E+00  8.00000000E-01  8.00000000E-01  1.50000000E+00  8.00000000E-01
  8.00000000E-01  1.50000000E+00  8.00000000E-01  8.00000000E-01  1.50000000E+00
  8.00000000E-01  8.00000000E-01  1.50000000E+00  8.00000000E-01  8.00000000E-01
  1.50000000E+00  8.00000000E-01  8.00000000E-01  1.50000000E+00  8.00000000E-01
  8.00000000E-01  1.50000000E+00  8.00000000E-01  8.00000000E-01  1.50000000E+00
  8.00000000E-01  8.00000000E-01  1.50000000E+00  8.00000000E-01  8.00000000E-01
  1.50000000E+00  8.00000000E-01  8.00000000E-01  1.50000000E+00  8.00000000E-01
  8.00000000E-01  1.50000000E+00  8.00000000E-01  8.00000000E-01  1.50000000E+00
  8.00000000E-01  8.00000000E-01  1.50000000E+00  8.00000000E-01  8.00000000E-01
  1.50000000E+00  8.00000000E-01  8.00000000E-01  1.50000000E+00  8.00000000E-01
  8.00000000E-01  1.50000000E+00  8.00000000E-01  8.00000000E-01  1.50000000E+00
  8.00000000E-01  8.00000000E-01  1.50000000E+00  8.00000000E-01  8.00000000E-01
  1.50000000E+00  8.00000000E-01  8.00000000E-01  1.50000000E+00  8.00000000E-01
  8.00000000E-01  1.50000000E+00  8.00000000E-01  8.00000000E-01  1.50000000E+00
  8.00000000E-01  8.00000000E-01  1.50000000E+00  8.00000000E-01  8.00000000E-01
  1.50000000E+00  8.00000000E-01  8.00000000E-01  1.50000000E+00  8.00000000E-01
  8.00000000E-01  1.50000000E+00  8.00000000E-01  8.00000000E-01  1.50000000E+00
  8.00000000E-01  8.00000000E-01  1.50000000E+00  8.00000000E-01  8.00000000E-01
  1.50000000E+00  8.00000000E-01  8.00000000E-01  1.50000000E+00  8.00000000E-01
  8.00000000E-01  1.50000000E+00  8.00000000E-01  8.00000000E-01  1.50000000E+00
  8.00000000E-01  8.00000000E-01  1.50000000E+00  8.00000000E-01  8.00000000E-01
  1.50000000E+00  8.00000000E-01  8.00000000E-01  1.50000000E+00  8.00000000E-01
  8.00000000E-01  1.50000000E+00  8.00000000E-01  8.00000000E-01  1.50000000E+00
  8.00000000E-01  8.00000000E-01  1.50000000E+00  8.00000000E-01  8.00000000E-01
  1.50000000E+00  8.00000000E-01  8.00000000E-01  1.50000000E+00  8.00000000E-01
  8.00000000E-01  1.50000000E+00  8.00000000E-01  8.00000000E-01  1.50000000E+00
  8.00000000E-01  8.00000000E-01  1.50000000E+00  8.00000000E-01  8.00000000E-01
  1.50000000E+00  8.00000000E-01  8.00000000E-01  1.50000000E+00  8.00000000E-01
  8.00000000E-01  1.50000000E+00  8.00000000E-01  8.00000000E-01  1.50000000E+00
  8.00000000E-01  8.00000000E-01  1.50000000E+00  8.00000000E-01  8.00000000E-01
  1.50000000E+00  8.00000000E-01  8.00000000E-01  1.50000000E+00  8.00000000E-01
  8.00000000E-01  1.50000000E+00  8.00000000E-01  8.00000000E-01  1.50000000E+00
  8.00000000E-01  8.00000000E-01  1.50000000E+00  8.00000000E-01  8.00000000E-01
  1.50000000E+00  8.00000000E-01  8.00000000E-01  1.50000000E+00  8.00000000E-01
  8.00000000E-01  1.50000000E+00  8.00000000E-01  8.00000000E-01  1.50000000E+00
  8.00000000E-01  8.00000000E-01  1.50000000E+00  8.00000000E-01  8.00000000E-01
  1.50000000E+00  8.00000000E-01  8.00000000E-01  1.50000000E+00  8.00000000E-01
  8.00000000E-01  1.50000000E+00  8.00000000E-01  8.00000000E-01  1.50000000E+00
  8.00000000E-01  8.00000000E-01  1.50000000E+00  8.00000000E-01  8.00000000E-01
  1.50000000E+00  8.00000000E-01  8.00000000E-01  1.50000000E+00  8.00000000E-01
  8.00000000E-01  1.50000000E+00  8.00000000E-01  8.00000000E-01  1.50000000E+00
  8.00000000E-01  8.00000000E-01  1.50000000E+00  8.00000000E-01  8.00000000E-01
  1.50000000E+00  8.00000000E-01  8.00000000E-01  1.50000000E+00  8.00000000E-01
  8.00000000E-01  1.50000000E+00  8.00000000E-01  8.00000000E-01  1.50000000E+00
  8.00000000E-01  8.00000000E-01  1.50000000E+00  8.00000000E-01  8.00000000E-01
  1.50000000E+00  8.00000000E-01  8.00000000E-01  1.50000000E+00  8.00000000E-01
  8.00000000E-01  1.50000000E+00  8.00000000E-01  8.00000000E-01  1.50000000E+00
  8.00000000E-01  8.00000000E-01  1.50000000E+00  8.00000000E-01  8.00000000E-01
  1.50000000E+00  8.00000000E-01  8.00000000E-01  1.50000000E+00  8.00000000E-01
  8.00000000E-01  1.50000000E+00  8.00000000E-01  8.00000000E-01  1.50000000E+00
  8.00000000E-01  8.00000000E-01  1.50000000E+00  8.00000000E-01  8.00000000E-01
  1.50000000E+00  8.00000000E-01  8.00000000E-01  1.50000000E+00  8.00000000E-01
  8.00000000E-01  1.50000000E+00  8.00000000E-01  8.00000000E-01  1.50000000E+00
  8.00000000E-01  8.00000000E-01  1.50000000E+00  8.00000000E-01  8.00000000E-01
  1.50000000E+00  8.00000000E-01  8.00000000E-01  1.50000000E+00  8.00000000E-01
  8.00000000E-01  1.50000000E+00  8.00000000E-01  8.00000000E-01  1.50000000E+00
  8.00000000E-01  8.00000000E-01  1.50000000E+00  8.00000000E-01  8.00000000E-01
  1.50000000E+00  8.00000000E-01  8.00000000E-01  1.50000000E+00  8.00000000E-01
  8.00000000E-01  1.50000000E+00  8.00000000E-01  8.00000000E-01  1.50000000E+00
  8.00000000E-01  8.00000000E-01  1.50000000E+00  8.00000000E-01  8.00000000E-01
  1.50000000E+00  8.00000000E-01  8.00000000E-01  1.50000000E+00  8.00000000E-01
  8.00000000E-01  1.50000000E+00  8.00000000E-01  8.00000000E-01  1.50000000E+00
  8.00000000E-01  8.00000000E-01  1.50000000E+00  8.00000000E-01  8.00000000E-01
  1.50000000E+00  8.00000000E-01  8.00000000E-01  1.50000000E+00  8.00000000E-01
  8.00000000E-01  1.50000000E+00  8.00000000E-01  8.00000000E-01  1.50000000E+00
  8.00000000E-01  8.00000000E-01  1.50000000E+00  8.00000000E-01  8.00000000E-01
  1.50000000E+00  8.00000000E-01  8.00000000E-01  1.50000000E+00  8.00000000E-01
  8.00000000E-01  1.50000000E+00  8.00000000E-01  8.00000000E-01  1.50000000E+00
  8.00000000E-01  8.00000000E-01  1.50000000E+00  8.00000000E-01  8.00000000E-01
  1.50000000E+00  8.00000000E-01  8.00000000E-01  1.50000000E+00  8.00000000E-01
  8.00000000E-01  1.50000000E+00  8.00000000E-01  8.00000000E-01  1.50000000E+00
  8.00000000E-01  8.00000000E-01  1.50000000E+00  8.00000000E-01  8.00000000E-01
  1.50000000E+00  8.00000000E-01  8.00000000E-01  1.50000000E+00  8.00000000E-01
  8.00000000E-01  1.50000000E+00  8.00000000E-01  8.00000000E-01  1.50000000E+00
  8.00000000E-01  8.00000000E-01  1.50000000E+00  8.00000000E-01  8.00000000E-01
  1.50000000E+00  8.00000000E-01  8.00000000E-01  1.50000000E+00  8.00000000E-01
  8.00000000E-01  1.50000000E+00  8.00000000E-01  8.00000000E-01  1.50000000E+00
  8.00000000E-01  8.00000000E-01  1.50000000E+00  8.00000000E-01  8.00000000E-01
  1.50000000E+00  8.00000000E-01  8.00000000E-01  1.50000000E+00  8.00000000E-01
  8.00000000E-01  1.50000000E+00  8.00000000E-01  8.00000000E-01  1.50000000E+00
  8.00000000E-01  8.00000000E-01  1.50000000E+00  8.00000000E-01  8.00000000E-01
  1.50000000E+00  8.00000000E-01  8.00000000E-01  1.50000000E+00  8.00000000E-01
  8.00000000E-01  1.50000000E+00  8.00000000E-01  8.00000000E-01  1.50000000E+00
  8.00000000E-01  8.00000000E-01  1.50000000E+00  8.00000000E-01  8.00000000E-01
  1.50000000E+00  8.00000000E-01  8.00000000E-01  1.50000000E+00  8.00000000E-01
  8.00000000E-01  1.50000000E+00  8.00000000E-01  8.00000000E-01  1.50000000E+00
  8.00000000E-01  8.00000000E-01  1.50000000E+00  8.00000000E-01  8.00000000E-01
  1.50000000E+00  8.00000000E-01  8.00000000E-01  1.50000000E+00  8.00000000E-01
  8.00000000E-01  1.50000000E+00  8.00000000E-01  8.00000000E-01  1.50000000E+00
  8.00000000E-01  8.00000000E-01  1.50000000E+00  8.00000000E-01  8.00000000E-01
  1.50000000E+00  8.00000000E-01  8.00000000E-01  1.50000000E+00  8.00000000E-01
  8.00000000E-01  1.50000000E+00  8.00000000E-01  8.00000000E-01  1.50000000E+00
  8.00000000E-01  8.00000000E-01  1.50000000E+00  8.00000000E-01  8.00000000E-01
  1.50000000E+00  8.00000000E-01  8.00000000E-01  1.50000000E+00  8.00000000E-01
  8.00000000E-01  1.50000000E+00  8.00000000E-01  8.00000000E-01  1.50000000E+00
  8.00000000E-01  8.00000000E-01  1.50000000E+00  8.00000000E-01  8.00000000E-01
  1.50000000E+00  8.00000000E-01  8.00000000E-01  1.50000000E+00  8.00000000E-01
  8.00000000E-01  1.50000000E+00  8.00000000E-01  8.00000000E-01  1.50000000E+00
  8.00000000E-01  8.00000000E-01  1.50000000E+00  8.00000000E-01  8.00000000E-01
  1.50000000E+00  8.00000000E-01  8.00000000E-01  1.50000000E+00  8.00000000E-01
  8.00000000E-01  1.50000000E+00  8.00000000E-01  8.00000000E-01  1.50000000E+00
  8.00000000E-01  8.00000000E-01  1.50000000E+00  8.00000000E-01  8.00000000E-01
  1.50000000E+00  8.00000000E-01  8.00000000E-01  1.50000000E+00  8.00000000E-01
  8.00000000E-01  1.50000000E+00  8.00000000E-01  8.00000000E-01  1.50000000E+00
  8.00000000E-01  8.00000000E-01  1.50000000E+00  8.00000000E-01  8.00000000E-01
  1.50000000E+00  8.00000000E-01  8.00000000E-01  1.50000000E+00  8.00000000E-01
  8.00000000E-01  1.50000000E+00  8.00000000E-01  8.00000000E-01  1.50000000E+00
  8.00000000E-01  8.00000000E-01  1.50000000E+00  8.00000000E-01  8.00000000E-01
  1.50000000E+00  8.00000000E-01  8.00000000E-01  1.50000000E+00  8.00000000E-01
  8.00000000E-01  1.50000000E+00  8.00000000E-01  8.00000000E-01  1.50000000E+00
  8.00000000E-01  8.00000000E-01  1.50000000E+00  8.00000000E-01  8.00000000E-01
  1.50000000E+00  8.00000000E-01  8.00000000E-01  1.50000000E+00  8.00000000E-01
  8.00000000E-01  1.50000000E+00  8.00000000E-01  8.00000000E-01  1.50000000E+00
  8.00000000E-01  8.00000000E-01  1.50000000E+00  8.00000000E-01  8.00000000E-01
  1.50000000E+00  8.00000000E-01  8.00000000E-01  1.50000000E+00  8.00000000E-01
  8.00000000E-01  1.50000000E+00  8.00000000E-01  8.00000000E-01  1.50000000E+00
  8.00000000E-01  8.00000000E-01  1.50000000E+00  8.00000000E-01  8.00000000E-01
  1.50000000E+00  8.00000000E-01  8.00000000E-01  1.50000000E+00  8.00000000E-01
  8.00000000E-01  1.50000000E+00  8.00000000E-01  8.00000000E-01  1.50000000E+00
  8.00000000E-01  8.00000000E-01  1.50000000E+00  8.00000000E-01  8.00000000E-01
  1.50000000E+00  8.00000000E-01  8.00000000E-01  1.50000000E+00  8.00000000E-01
  8.00000000E-01  1.50000000E+00  8.00000000E-01  8.00000000E-01  1.50000000E+00
  8.00000000E-01  8.00000000E-01  1.50000000E+00  8.00000000E-01  8.00000000E-01
  1.50000000E+00  8.00000000E-01  8.00000000E-01  1.50000000E+00  8.00000000E-01
  8.00000000E-01  1.50000000E+00  8.00000000E-01  8.00000000E-01  1.50000000E+00
  8.00000000E-01  8.00000000E-01  1.50000000E+00  8.00000000E-01  8.00000000E-01
  1.50000000E+00  8.00000000E-01  8.00000000E-01  1.50000000E+00  8.00000000E-01
  8.00000000E-01  1.50000000E+00  8.00000000E-01  8.00000000E-01  1.50000000E+00
  8.00000000E-01  8.00000000E-01  1.50000000E+00  8.00000000E-01  8.00000000E-01
  1.50000000E+00  8.00000000E-01  8.00000000E-01  1.50000000E+00  8.00000000E-01
  8.00000000E-01  1.50000000E+00  8.00000000E-01  8.00000000E-01  1.50000000E+00
  8.00000000E-01  8.00000000E-01  1.50000000E+00  8.00000000E-01  8.00000000E-01
  1.50000000E+00  8.00000000E-01  8.00000000E-01  1.50000000E+00  8.00000000E-01
  8.00000000E-01  1.50000000E+00  8.00000000E-01  8.00000000E-01  1.50000000E+00
  8.00000000E-01  8.00000000E-01  1.50000000E+00  8.00000000E-01  8.00000000E-01
  1.50000000E+00  8.00000000E-01  8.00000000E-01  1.50000000E+00  8.00000000E-01
  8.00000000E-01  1.50000000E+00  8.00000000E-01  8.00000000E-01  1.50000000E+00
  8.00000000E-01  8.00000000E-01  1.50000000E+00  8.00000000E-01  8.00000000E-01
  1.50000000E+00  8.00000000E-01  8.00000000E-01  1.50000000E+00  8.00000000E-01
  8.00000000E-01  1.50000000E+00  8.00000000E-01  8.00000000E-01  1.50000000E+00
  8.00000000E-01  8.00000000E-01  1.50000000E+00  8.00000000E-01  8.00000000E-01
  1.50000000E+00  8.00000000E-01  8.00000000E-01  1.50000000E+00  8.00000000E-01
  8.00000000E-01  1.50000000E+00  8.00000000E-01  8.00000000E-01  1.50000000E+00
  8.00000000E-01  8.00000000E-01  1.50000000E+00  8.00000000E-01  8.00000000E-01
  1.50000000E+00  8.00000000E-01  8.00000000E-01  1.50000000E+00  8.00000000E-01
  8.00000000E-01  1.50000000E+00  8.00000000E-01  8.00000000E-01  1.50000000E+00
  8.00000000E-01  8.00000000E-01  1.50000000E+00  8.00000000E-01  8.00000000E-01
  1.50000000E+00  8.00000000E-01  8.00000000E-01  1.50000000E+00  8.00000000E-01
  8.00000000E-01  1.50000000E+00  8.00000000E-01  8.00000000E-01  1.50000000E+00
  8.00000000E-01  8.00000000E-01  1.50000000E+00  8.00000000E-01  8.00000000E-01
  1.50000000E+00  8.00000000E-01  8.00000000E-01  1.50000000E+00  8.00000000E-01
  8.00000000E-01  1.50000000E+00  8.00000000E-01  8.00000000E-01  1.50000000E+00
  8.00000000E-01  8.00000000E-01  1.50000000E+00  8.00000000E-01  8.00000000E-01
  1.50000000E+00  8.00000000E-01  8.00000000E-01  1.50000000E+00  8.00000000E-01
  8.00000000E-01  1.50000000E+00  8.00000000E-01  8.00000000E-01  1.50000000E+00
  8.00000000E-01  8.00000000E-01  1.50000000E+00  8.00000000E-01  8.00000000E-01
  1.50000000E+00  8.00000000E-01  8.00000000E-01  1.50000000E+00  8.00000000E-01
  8.00000000E-01  1.50000000E+00  8.00000000E-01  8.00000000E-01  1.50000000E+00
  8.00000000E-01  8.00000000E-01  1.50000000E+00  8.00000000E-01  8.00000000E-01
  1.50000000E+00  8.00000000E-01  8.00000000E-01  1.50000000E+00  8.00000000E-01
  8.00000000E-01  1.50000000E+00  8.00000000E-01  8.00000000E-01  1.50000000E+00
  8.00000000E-01  8.00000000E-01  1.50000000E+00  8.00000000E-01  8.00000000E-01
  1.50000000E+00  8.00000000E-01  8.00000000E-01  1.50000000E+00  8.00000000E-01
  8.00000000E-01  1.50000000E+00  8.00000000E-01  8.00000000E-01  1.50000000E+00
  8.00000000E-01  8.00000000E-01  1.50000000E+00  8.00000000E-01  8.00000000E-01
  1.50000000E+00  8.00000000E-01  8.00000000E-01  1.50000000E+00  8.00000000E-01
  8.00000000E-01  1.50000000E+00  8.00000000E-01  8.00000000E-01  1.50000000E+00
  8.00000000E-01  8.00000000E-01  1.50000000E+00  8.00000000E-01  8.00000000E-01
  1.50000000E+00  8.00000000E-01  8.00000000E-01  1.50000000E+00  8.00000000E-01
  8.00000000E-01  1.50000000E+00  8.00000000E-01  8.00000000E-01  1.50000000E+00
  8.00000000E-01  8.00000000E-01  1.50000000E+00  8.00000000E-01  8.00000000E-01
  1.50000000E+00  8.00000000E-01  8.00000000E-01  1.50000000E+00  8.00000000E-01
  8.00000000E-01  1.50000000E+00  8.00000000E-01  8.00000000E-01  1.50000000E+00
  8.00000000E-01  8.00000000E-01  1.50000000E+00  8.00000000E-01  8.00000000E-01
  1.50000000E+00  8.00000000E-01  8.00000000E-01  1.50000000E+00  8.00000000E-01
  8.00000000E-01  1.50000000E+00  8.00000000E-01  8.00000000E-01  1.50000000E+00
  8.00000000E-01  8.00000000E-01  1.50000000E+00  8.00000000E-01  8.00000000E-01
  1.50000000E+00  8.00000000E-01  8.00000000E-01  1.50000000E+00  8.00000000E-01
  8.00000000E-01  1.50000000E+00  8.00000000E-01  8.00000000E-01  1.50000000E+00
  8.00000000E-01  8.00000000E-01  1.50000000E+00  8.00000000E-01  8.00000000E-01
  1.50000000E+00  8.00000000E-01  8.00000000E-01  1.50000000E+00  8.00000000E-01
  8.00000000E-01  1.50000000E+00  8.00000000E-01  8.00000000E-01  1.50000000E+00
  8.00000000E-01  8.00000000E-01  1.50000000E+00  8.00000000E-01  8.00000000E-01
  1.50000000E+00  8.00000000E-01  8.00000000E-01  1.50000000E+00  8.00000000E-01
  8.00000000E-01  1.50000000E+00  8.00000000E-01  8.00000000E-01  1.50000000E+00
  8.00000000E-01  8.00000000E-01  1.50000000E+00  8.00000000E-01  8.00000000E-01
  1.50000000E+00  8.00000000E-01  8.00000000E-01  1.50000000E+00  8.00000000E-01
  8.00000000E-01  1.50000000E+00  8.00000000E-01  8.00000000E-01  1.50000000E+00
  8.00000000E-01  8.00000000E-01  1.50000000E+00  8.00000000E-01  8.00000000E-01
  1.50000000E+00  8.00000000E-01  8.00000000E-01  1.50000000E+00  8.00000000E-01
  8.00000000E-01  1.50000000E+00  8.00000000E-01  8.00000000E-01  1.50000000E+00
  8.00000000E-01  8.00000000E-01  1.50000000E+00  8.00000000E-01  8.00000000E-01
  1.50000000E+00  8.00000000E-01  8.00000000E-01  1.50000000E+00  8.00000000E-01
  8.00000000E-01  1.50000000E+00  8.00000000E-01  8.00000000E-01  1.50000000E+00
  8.00000000E-01  8.00000000E-01  1.50000000E+00  8.00000000E-01  8.00000000E-01
  1.50000000E+00  8.00000000E-01  8.00000000E-01  1.50000000E+00  8.00000000E-01
  8.00000000E-01  1.50000000E+00  8.00000000E-01  8.00000000E-01  1.50000000E+00
  8.00000000E-01  8.00000000E-01  1.50000000E+00  8.00000000E-01  8.00000000E-01
  1.50000000E+00  8.00000000E-01  8.00000000E-01  1.50000000E+00  8.00000000E-01
  8.00000000E-01  1.50000000E+00  8.00000000E-01  8.00000000E-01  1.50000000E+00
  8.00000000E-01  8.00000000E-01  1.50000000E+00  8.00000000E-01  8.00000000E-01
  1.50000000E+00  8.00000000E-01  8.00000000E-01  1.50000000E+00  8.00000000E-01
  8.00000000E-01  1.50000000E+00  8.00000000E-01  8.00000000E-01  1.50000000E+00
  8.00000000E-01  8.00000000E-01  1.50000000E+00  8.00000000E-01  8.00000000E-01
  1.50000000E+00  8.00000000E-01  8.00000000E-01  1.50000000E+00  8.00000000E-01
  8.00000000E-01  1.50000000E+00  8.00000000E-01  8.00000000E-01  1.50000000E+00
  8.00000000E-01  8.00000000E-01  1.50000000E+00  8.00000000E-01  8.00000000E-01
  1.50000000E+00  8.00000000E-01  8.00000000E-01  1.50000000E+00  8.00000000E-01
  8.00000000E-01  1.50000000E+00  8.00000000E-01  8.00000000E-01  1.50000000E+00
  8.00000000E-01  8.00000000E-01  1.50000000E+00  8.00000000E-01  8.00000000E-01
  1.50000000E+00  8.00000000E-01  8.00000000E-01  1.50000000E+00  8.00000000E-01
  8.00000000E-01  1.50000000E+00  8.00000000E-01  8.00000000E-01  1.50000000E+00
  8.00000000E-01  8.00000000E-01  1.50000000E+00  8.00000000E-01  8.00000000E-01
  1.50000000E+00  8.00000000E-01  8.00000000E-01  1.50000000E+00  8.00000000E-01
  8.00000000E-01  1.50000000E+00  8.00000000E-01  8.00000000E-01  1.50000000E+00
  8.00000000E-01  8.00000000E-01  1.50000000E+00  8.00000000E-01  8.00000000E-01
  1.50000000E+00  8.00000000E-01  8.00000000E-01  1.50000000E+00  8.00000000E-01
  8.00000000E-01  1.50000000E+00  8.00000000E-01  8.00000000E-01  1.50000000E+00
  8.00000000E-01  8.00000000E-01  1.50000000E+00  8.00000000E-01  8.00000000E-01
  1.50000000E+00  8.00000000E-01  8.00000000E-01  1.50000000E+00  8.00000000E-01
  8.00000000E-01  1.50000000E+00  8.00000000E-01  8.00000000E-01  1.50000000E+00
  8.00000000E-01  8.00000000E-01  1.50000000E+00  8.00000000E-01  8.00000000E-01
  1.50000000E+00  8.00000000E-01  8.00000000E-01  1.50000000E+00  8.00000000E-01
  8.00000000E-01  1.50000000E+00  8.00000000E-01  8.00000000E-01  1.50000000E+00
  8.00000000E-01  8.00000000E-01  1.50000000E+00  8.00000000E-01  8.00000000E-01
  1.50000000E+00  8.00000000E-01  8.00000000E-01  1.50000000E+00  8.00000000E-01
  8.00000000E-01  1.50000000E+00  8.00000000E-01  8.00000000E-01  1.50000000E+00
  8.00000000E-01  8.00000000E-01  1.50000000E+00  8.00000000E-01  8.00000000E-01
  1.50000000E+00  8.00000000E-01  8.00000000E-01  1.50000000E+00  8.00000000E-01
  8.00000000E-01  1.50000000E+00  8.00000000E-01  8.00000000E-01  1.50000000E+00
  8.00000000E-01  8.00000000E-01  1.50000000E+00  8.00000000E-01  8.00000000E-01
  1.50000000E+00  8.00000000E-01  8.00000000E-01  1.50000000E+00  8.00000000E-01
  8.00000000E-01  1.50000000E+00  8.00000000E-01  8.00000000E-01  1.50000000E+00
  8.00000000E-01  8.00000000E-01  1.50000000E+00  8.00000000E-01  8.00000000E-01
  1.50000000E+00  8.00000000E-01  8.00000000E-01  1.50000000E+00  8.00000000E-01
  8.00000000E-01  1.50000000E+00  8.00000000E-01  8.00000000E-01  1.50000000E+00
  8.00000000E-01  8.00000000E-01  1.50000000E+00  8.00000000E-01  8.00000000E-01
  1.50000000E+00  8.00000000E-01  8.00000000E-01  1.50000000E+00  8.00000000E-01
  8.00000000E-01  1.50000000E+00  8.00000000E-01  8.00000000E-01  1.50000000E+00
  8.00000000E-01  8.00000000E-01  1.50000000E+00  8.00000000E-01  8.00000000E-01
  1.50000000E+00  8.00000000E-01  8.00000000E-01  1.50000000E+00  8.00000000E-01
  8.00000000E-01  1.50000000E+00  8.00000000E-01  8.00000000E-01  1.50000000E+00
  8.00000000E-01  8.00000000E-01  1.50000000E+00  8.00000000E-01  8.00000000E-01
  1.50000000E+00  8.00000000E-01  8.00000000E-01  1.50000000E+00  8.00000000E-01
  8.00000000E-01  1.50000000E+00  8.00000000E-01  8.00000000E-01  1.50000000E+00
  8.00000000E-01  8.00000000E-01  1.50000000E+00  8.00000000E-01  8.00000000E-01
  1.50000000E+00  8.00000000E-01  8.00000000E-01  1.50000000E+00  8.00000000E-01
  8.00000000E-01  1.50000000E+00  8.00000000E-01  8.00000000E-01  1.50000000E+00
  8.00000000E-01  8.00000000E-01  1.50000000E+00  8.00000000E-01  8.00000000E-01
  1.50000000E+00  8.00000000E-01  8.00000000E-01  1.50000000E+00  8.00000000E-01
  8.00000000E-01  1.50000000E+00  8.00000000E-01  8.00000000E-01  1.50000000E+00
  8.00000000E-01  8.00000000E-01  1.50000000E+00  8.00000000E-01  8.00000000E-01
  1.50000000E+00  8.00000000E-01  8.00000000E-01  1.50000000E+00  8.00000000E-01
  8.00000000E-01  1.50000000E+00  8.00000000E-01  8.00000000E-01  1.50000000E+00
  8.00000000E-01  8.00000000E-01  1.50000000E+00  8.00000000E-01  8.00000000E-01
  1.50000000E+00  8.00000000E-01  8.00000000E-01  1.50000000E+00  8.00000000E-01
  8.00000000E-01  1.50000000E+00  8.00000000E-01  8.00000000E-01  1.50000000E+00
  8.00000000E-01  8.00000000E-01  1.50000000E+00  8.00000000E-01  8.00000000E-01
  1.50000000E+00  8.00000000E-01  8.00000000E-01  1.50000000E+00  8.00000000E-01
  8.00000000E-01  1.50000000E+00  8.00000000E-01  8.00000000E-01  1.50000000E+00
  8.00000000E-01  8.00000000E-01  1.50000000E+00  8.00000000E-01  8.00000000E-01
  1.50000000E+00  8.00000000E-01  8.00000000E-01  1.50000000E+00  8.00000000E-01
  8.00000000E-01  1.50000000E+00  8.00000000E-01  8.00000000E-01  1.50000000E+00
  8.00000000E-01  8.00000000E-01  1.50000000E+00  8.00000000E-01  8.00000000E-01
  1.50000000E+00  8.00000000E-01  8.00000000E-01  1.50000000E+00  8.00000000E-01
  8.00000000E-01  1.50000000E+00  8.00000000E-01  8.00000000E-01  1.50000000E+00
  8.00000000E-01  8.00000000E-01  1.50000000E+00  8.00000000E-01  8.00000000E-01
  1.50000000E+00  8.00000000E-01  8.00000000E-01  1.50000000E+00  8.00000000E-01
  8.00000000E-01  1.50000000E+00  8.00000000E-01  8.00000000E-01  1.50000000E+00
  8.00000000E-01  8.00000000E-01  1.50000000E+00  8.00000000E-01  8.00000000E-01
  1.50000000E+00  8.00000000E-01  8.00000000E-01  1.50000000E+00  8.00000000E-01
  8.00000000E-01  1.50000000E+00  8.00000000E-01  8.00000000E-01  1.50000000E+00
  8.00000000E-01  8.00000000E-01  1.50000000E+00  8.00000000E-01  8.00000000E-01
  1.50000000E+00  8.00000000E-01  8.00000000E-01  1.50000000E+00  8.00000000E-01
  8.00000000E-01  1.50000000E+00  8.00000000E-01  8.00000000E-01  1.50000000E+00
  8.00000000E-01  8.00000000E-01  1.50000000E+00  8.00000000E-01  8.00000000E-01
  1.50000000E+00  8.00000000E-01  8.00000000E-01  1.50000000E+00  8.00000000E-01
  8.00000000E-01  1.50000000E+00  8.00000000E-01  8.00000000E-01  1.50000000E+00
  8.00000000E-01  8.00000000E-01  1.50000000E+00  8.00000000E-01  8.00000000E-01
  1.50000000E+00  8.00000000E-01  8.00000000E-01  1.50000000E+00  8.00000000E-01
  8.00000000E-01  1.50000000E+00  8.00000000E-01  8.00000000E-01  1.50000000E+00
  8.00000000E-01  8.00000000E-01  1.50000000E+00  8.00000000E-01  8.00000000E-01
  1.50000000E+00  8.00000000E-01  8.00000000E-01  1.50000000E+00  8.00000000E-01
  8.00000000E-01  1.50000000E+00  8.00000000E-01  8.00000000E-01  1.50000000E+00
  8.00000000E-01  8.00000000E-01  1.50000000E+00  8.00000000E-01  8.00000000E-01
  1.50000000E+00  8.00000000E-01  8.00000000E-01  1.50000000E+00  8.00000000E-01
  8.00000000E-01  1.50000000E+00  8.00000000E-01  8.00000000E-01  1.50000000E+00
  8.00000000E-01  8.00000000E-01  1.50000000E+00  8.00000000E-01  8.00000000E-01
  1.50000000E+00  8.00000000E-01  8.00000000E-01  1.50000000E+00  8.00000000E-01
  8.00000000E-01  1.50000000E+00  8.00000000E-01  8.00000000E-01  1.50000000E+00
  8.00000000E-01  8.00000000E-01  1.50000000E+00  8.00000000E-01  8.00000000E-01
  1.50000000E+00  8.00000000E-01  8.00000000E-01  1.50000000E+00  8.00000000E-01
  8.00000000E-01  1.50000000E+00  8.00000000E-01  8.00000000E-01  1.50000000E+00
  8.00000000E-01  8.00000000E-01  1.50000000E+00  8.00000000E-01  8.00000000E-01
  1.50000000E+00  8.00000000E-01  8.00000000E-01  1.50000000E+00  8.00000000E-01
  8.00000000E-01  1.50000000E+00  8.00000000E-01  8.00000000E-01  1.50000000E+00
  8.00000000E-01  8.00000000E-01  1.50000000E+00  8.00000000E-01  8.00000000E-01
  1.50000000E+00  8.00000000E-01  8.00000000E-01  1.50000000E+00  8.00000000E-01
  8.00000000E-01  1.50000000E+00  8.00000000E-01  8.00000000E-01  1.50000000E+00
  8.00000000E-01  8.00000000E-01  1.50000000E+00  8.00000000E-01  8.00000000E-01
  1.50000000E+00  8.00000000E-01  8.00000000E-01  1.50000000E+00  8.00000000E-01
  8.00000000E-01  1.50000000E+00  8.00000000E-01  8.00000000E-01  1.50000000E+00
  8.00000000E-01  8.00000000E-01  1.50000000E+00  8.00000000E-01  8.00000000E-01
  1.50000000E+00  8.00000000E-01  8.00000000E-01  1.50000000E+00  8.00000000E-01
  8.00000000E-01  1.50000000E+00  8.00000000E-01  8.00000000E-01  1.50000000E+00
  8.00000000E-01  8.00000000E-01  1.50000000E+00  8.00000000E-01  8.00000000E-01
  1.50000000E+00  8.00000000E-01  8.00000000E-01  1.50000000E+00  8.00000000E-01
  8.00000000E-01  1.50000000E+00  8.00000000E-01  8.00000000E-01  1.50000000E+00
  8.00000000E-01  8.00000000E-01  1.50000000E+00  8.00000000E-01  8.00000000E-01
  1.50000000E+00  8.00000000E-01  8.00000000E-01  1.50000000E+00  8.00000000E-01
  8.00000000E-01  1.50000000E+00  8.00000000E-01  8.00000000E-01  1.50000000E+00
  8.00000000E-01  8.00000000E-01  1.50000000E+00  8.00000000E-01  8.00000000E-01
  1.50000000E+00  8.00000000E-01  8.00000000E-01  1.50000000E+00  8.00000000E-01
  8.00000000E-01  1.50000000E+00  8.00000000E-01  8.00000000E-01  1.50000000E+00
  8.00000000E-01  8.00000000E-01  1.50000000E+00  8.00000000E-01  8.00000000E-01
  1.50000000E+00  8.00000000E-01  8.00000000E-01  1.50000000E+00  8.00000000E-01
  8.00000000E-01  1.50000000E+00  8.00000000E-01  8.00000000E-01  1.50000000E+00
  8.00000000E-01  8.00000000E-01  1.50000000E+00  8.00000000E-01  8.00000000E-01
  1.50000000E+00  8.00000000E-01  8.00000000E-01  1.50000000E+00  8.00000000E-01
  8.00000000E-01  1.50000000E+00  8.00000000E-01  8.00000000E-01  1.50000000E+00
  8.00000000E-01  8.00000000E-01  1.50000000E+00  8.00000000E-01  8.00000000E-01
  1.50000000E+00  8.00000000E-01  8.00000000E-01  1.50000000E+00  8.00000000E-01
  8.00000000E-01  1.50000000E+00  8.00000000E-01  8.00000000E-01  1.50000000E+00
  8.00000000E-01  8.00000000E-01  1.50000000E+00  8.00000000E-01  8.00000000E-01
  1.50000000E+00  8.00000000E-01  8.00000000E-01  1.50000000E+00  8.00000000E-01
  8.00000000E-01  1.50000000E+00  8.00000000E-01  8.00000000E-01  1.50000000E+00
  8.00000000E-01  8.00000000E-01  1.50000000E+00  8.00000000E-01  8.00000000E-01
  1.50000000E+00  8.00000000E-01  8.00000000E-01  1.50000000E+00  8.00000000E-01
  8.00000000E-01  1.50000000E+00  8.00000000E-01  8.00000000E-01  1.50000000E+00
  8.00000000E-01  8.00000000E-01  1.50000000E+00  8.00000000E-01  8.00000000E-01
  1.50000000E+00  8.00000000E-01  8.00000000E-01  1.50000000E+00  8.00000000E-01
  8.00000000E-01  1.50000000E+00  8.00000000E-01  8.00000000E-01  1.50000000E+00
  8.00000000E-01  8.00000000E-01  1.50000000E+00  8.00000000E-01  8.00000000E-01
  1.50000000E+00  8.00000000E-01  8.00000000E-01  1.50000000E+00  8.00000000E-01
  8.00000000E-01  1.50000000E+00  8.00000000E-01  8.00000000E-01  1.50000000E+00
  8.00000000E-01  8.00000000E-01  1.50000000E+00  8.00000000E-01  8.00000000E-01
  1.50000000E+00  8.00000000E-01  8.00000000E-01  1.50000000E+00  8.00000000E-01
  8.00000000E-01  1.50000000E+00  8.00000000E-01  8.00000000E-01  1.50000000E+00
  8.00000000E-01  8.00000000E-01  1.50000000E+00  8.00000000E-01  8.00000000E-01
  1.50000000E+00  8.00000000E-01  8.00000000E-01  1.50000000E+00  8.00000000E-01
  8.00000000E-01  1.50000000E+00  8.00000000E-01  8.00000000E-01  1.50000000E+00
  8.00000000E-01  8.00000000E-01  1.50000000E+00  8.00000000E-01  8.00000000E-01
  1.50000000E+00  8.00000000E-01  8.00000000E-01  1.50000000E+00  8.00000000E-01
  8.00000000E-01  1.50000000E+00  8.00000000E-01  8.00000000E-01  1.50000000E+00
  8.00000000E-01  8.00000000E-01  1.50000000E+00  8.00000000E-01  8.00000000E-01
  1.50000000E+00  8.00000000E-01  8.00000000E-01  1.50000000E+00  8.00000000E-01
  8.00000000E-01  1.50000000E+00  8.00000000E-01  8.00000000E-01  1.50000000E+00
  8.00000000E-01  8.00000000E-01  1.50000000E+00  8.00000000E-01  8.00000000E-01
  1.50000000E+00  8.00000000E-01  8.00000000E-01  1.50000000E+00  8.00000000E-01
  8.00000000E-01  1.50000000E+00  8.00000000E-01  8.00000000E-01  1.50000000E+00
  8.00000000E-01  8.00000000E-01  1.50000000E+00  8.00000000E-01  8.00000000E-01
  1.50000000E+00  8.00000000E-01  8.00000000E-01  1.50000000E+00  8.00000000E-01
  8.00000000E-01  1.50000000E+00  8.00000000E-01  8.00000000E-01  1.50000000E+00
  8.00000000E-01  8.00000000E-01  1.50000000E+00  8.00000000E-01  8.00000000E-01
  1.50000000E+00  8.00000000E-01  8.00000000E-01  1.50000000E+00  8.00000000E-01
  8.00000000E-01  1.50000000E+00  8.00000000E-01  8.00000000E-01  1.50000000E+00
  8.00000000E-01  8.00000000E-01  1.50000000E+00  8.00000000E-01  8.00000000E-01
  1.50000000E+00  8.00000000E-01  8.00000000E-01  1.50000000E+00  8.00000000E-01
  8.00000000E-01  1.50000000E+00  8.00000000E-01  8.00000000E-01  1.50000000E+00
  8.00000000E-01  8.00000000E-01  1.50000000E+00  8.00000000E-01  8.00000000E-01
  1.50000000E+00  8.00000000E-01  8.00000000E-01  1.50000000E+00  8.00000000E-01
  8.00000000E-01  1.50000000E+00  8.00000000E-01  8.00000000E-01  1.50000000E+00
  8.00000000E-01  8.00000000E-01  1.50000000E+00  8.00000000E-01  8.00000000E-01
  1.50000000E+00  8.00000000E-01  8.00000000E-01  1.50000000E+00  8.00000000E-01
  8.00000000E-01  1.50000000E+00  8.00000000E-01  8.00000000E-01  1.50000000E+00
  8.00000000E-01  8.00000000E-01  1.50000000E+00  8.00000000E-01  8.00000000E-01
  1.50000000E+00  8.00000000E-01  8.00000000E-01  1.50000000E+00  8.00000000E-01
  8.00000000E-01  1.50000000E+00  8.00000000E-01  8.00000000E-01  1.50000000E+00
  8.00000000E-01  8.00000000E-01  1.50000000E+00  8.00000000E-01  8.00000000E-01
  1.50000000E+00  8.00000000E-01  8.00000000E-01  1.50000000E+00  8.00000000E-01
  8.00000000E-01  1.50000000E+00  8.00000000E-01  8.00000000E-01  1.50000000E+00
  8.00000000E-01  8.00000000E-01  1.50000000E+00  8.00000000E-01  8.00000000E-01
  1.50000000E+00  8.00000000E-01  8.00000000E-01  1.50000000E+00  8.00000000E-01
  8.00000000E-01  1.50000000E+00  8.00000000E-01  8.00000000E-01  1.50000000E+00
  8.00000000E-01  8.00000000E-01  1.50000000E+00  8.00000000E-01  8.00000000E-01
  1.50000000E+00  8.00000000E-01  8.00000000E-01  1.50000000E+00  8.00000000E-01
  8.00000000E-01  1.50000000E+00  8.00000000E-01  8.00000000E-01  1.50000000E+00
  8.00000000E-01  8.00000000E-01  1.50000000E+00  8.00000000E-01  8.00000000E-01
  1.50000000E+00  8.00000000E-01  8.00000000E-01  1.50000000E+00  8.00000000E-01
  8.00000000E-01  1.50000000E+00  8.00000000E-01  8.00000000E-01  1.50000000E+00
  8.00000000E-01  8.00000000E-01  1.50000000E+00  8.00000000E-01  8.00000000E-01
  1.50000000E+00  8.00000000E-01  8.00000000E-01  1.50000000E+00  8.00000000E-01
  8.00000000E-01  1.50000000E+00  8.00000000E-01  8.00000000E-01  1.50000000E+00
  8.00000000E-01  8.00000000E-01  1.50000000E+00  8.00000000E-01  8.00000000E-01
  1.50000000E+00  8.00000000E-01  8.00000000E-01  1.50000000E+00  8.00000000E-01
  8.00000000E-01  1.50000000E+00  8.00000000E-01  8.00000000E-01  1.50000000E+00
  8.00000000E-01  8.00000000E-01  1.50000000E+00  8.00000000E-01  8.00000000E-01
  1.50000000E+00  8.00000000E-01  8.00000000E-01  1.50000000E+00  8.00000000E-01
  8.00000000E-01  1.50000000E+00  8.00000000E-01  8.00000000E-01  1.50000000E+00
  8.00000000E-01  8.00000000E-01  1.50000000E+00  8.00000000E-01  8.00000000E-01
  1.50000000E+00  8.00000000E-01  8.00000000E-01  1.50000000E+00  8.00000000E-01
  8.00000000E-01  1.50000000E+00  8.00000000E-01  8.00000000E-01  1.50000000E+00
  8.00000000E-01  8.00000000E-01  1.50000000E+00  8.00000000E-01  8.00000000E-01
  1.50000000E+00  8.00000000E-01  8.00000000E-01  1.50000000E+00  8.00000000E-01
  8.00000000E-01  1.50000000E+00  8.00000000E-01  8.00000000E-01  1.50000000E+00
  8.00000000E-01  8.00000000E-01  1.50000000E+00  8.00000000E-01  8.00000000E-01
  1.50000000E+00  8.00000000E-01  8.00000000E-01  1.50000000E+00  8.00000000E-01
  8.00000000E-01  1.50000000E+00  8.00000000E-01  8.00000000E-01  1.50000000E+00
  8.00000000E-01  8.00000000E-01  1.50000000E+00  8.00000000E-01  8.00000000E-01
  1.50000000E+00  8.00000000E-01  8.00000000E-01  1.50000000E+00  8.00000000E-01
  8.00000000E-01  1.50000000E+00  8.00000000E-01  8.00000000E-01  1.50000000E+00
  8.00000000E-01  8.00000000E-01  1.50000000E+00  8.00000000E-01  8.00000000E-01
  1.50000000E+00  8.00000000E-01  8.00000000E-01  1.50000000E+00  8.00000000E-01
  8.00000000E-01  1.50000000E+00  8.00000000E-01  8.00000000E-01  1.50000000E+00
  8.00000000E-01  8.00000000E-01  1.50000000E+00  8.00000000E-01  8.00000000E-01
  1.50000000E+00  8.00000000E-01  8.00000000E-01  1.50000000E+00  8.00000000E-01
  8.00000000E-01  1.50000000E+00  8.00000000E-01  8.00000000E-01  1.50000000E+00
  8.00000000E-01  8.00000000E-01  1.50000000E+00  8.00000000E-01  8.00000000E-01
  1.50000000E+00  8.00000000E-01  8.00000000E-01  1.50000000E+00  8.00000000E-01
  8.00000000E-01  1.50000000E+00  8.00000000E-01  8.00000000E-01  1.50000000E+00
  8.00000000E-01  8.00000000E-01  1.50000000E+00  8.00000000E-01  8.00000000E-01
  1.50000000E+00  8.00000000E-01  8.00000000E-01  1.50000000E+00  8.00000000E-01
  8.00000000E-01  1.50000000E+00  8.00000000E-01  8.00000000E-01  1.50000000E+00
  8.00000000E-01  8.00000000E-01  1.50000000E+00  8.00000000E-01  8.00000000E-01
  1.50000000E+00  8.00000000E-01  8.00000000E-01  1.50000000E+00  8.00000000E-01
  8.00000000E-01  1.50000000E+00  8.00000000E-01  8.00000000E-01  1.50000000E+00
  8.00000000E-01  8.00000000E-01  1.50000000E+00  8.00000000E-01  8.00000000E-01
  1.50000000E+00  8.00000000E-01  8.00000000E-01  1.50000000E+00  8.00000000E-01
  8.00000000E-01  1.50000000E+00  8.00000000E-01  8.00000000E-01  1.50000000E+00
  8.00000000E-01  8.00000000E-01  1.50000000E+00  8.00000000E-01  8.00000000E-01
  1.50000000E+00  8.00000000E-01  8.00000000E-01  1.50000000E+00  8.00000000E-01
  8.00000000E-01  1.50000000E+00  8.00000000E-01  8.00000000E-01  1.50000000E+00
  8.00000000E-01  8.00000000E-01  1.50000000E+00  8.00000000E-01  8.00000000E-01
  1.50000000E+00  8.00000000E-01  8.00000000E-01  1.50000000E+00  8.00000000E-01
  8.00000000E-01  1.50000000E+00  8.00000000E-01  8.00000000E-01  1.50000000E+00
  8.00000000E-01  8.00000000E-01  1.50000000E+00  8.00000000E-01  8.00000000E-01
  1.50000000E+00  8.00000000E-01  8.00000000E-01  1.50000000E+00  8.00000000E-01
  8.00000000E-01  1.50000000E+00  8.00000000E-01  8.00000000E-01  1.50000000E+00
  8.00000000E-01  8.00000000E-01  1.50000000E+00  8.00000000E-01  8.00000000E-01
  1.50000000E+00  8.00000000E-01  8.00000000E-01  1.50000000E+00  8.00000000E-01
  8.00000000E-01  1.50000000E+00  8.00000000E-01  8.00000000E-01  1.50000000E+00
  8.00000000E-01  8.00000000E-01  1.50000000E+00  8.00000000E-01  8.00000000E-01
  1.50000000E+00  8.00000000E-01  8.00000000E-01  1.50000000E+00  8.00000000E-01
  8.00000000E-01  1.50000000E+00  8.00000000E-01  8.00000000E-01  1.50000000E+00
  8.00000000E-01  8.00000000E-01  1.50000000E+00  8.00000000E-01  8.00000000E-01
  1.50000000E+00  8.00000000E-01  8.00000000E-01  1.50000000E+00  8.00000000E-01
  8.00000000E-01  1.50000000E+00  8.00000000E-01  8.00000000E-01  1.50000000E+00
  8.00000000E-01  8.00000000E-01  1.50000000E+00  8.00000000E-01  8.00000000E-01
  1.50000000E+00  8.00000000E-01  8.00000000E-01  1.50000000E+00  8.00000000E-01
  8.00000000E-01  1.50000000E+00  8.00000000E-01  8.00000000E-01  1.50000000E+00
  8.00000000E-01  8.00000000E-01  1.50000000E+00  8.00000000E-01  8.00000000E-01
  1.50000000E+00  8.00000000E-01  8.00000000E-01  1.50000000E+00  8.00000000E-01
  8.00000000E-01  1.50000000E+00  8.00000000E-01  8.00000000E-01  1.50000000E+00
  8.00000000E-01  8.00000000E-01  1.50000000E+00  8.00000000E-01  8.00000000E-01
  1.50000000E+00  8.00000000E-01  8.00000000E-01  1.50000000E+00  8.00000000E-01
  8.00000000E-01  1.50000000E+00  8.00000000E-01  8.00000000E-01  1.50000000E+00
  8.00000000E-01  8.00000000E-01  1.50000000E+00  8.00000000E-01  8.00000000E-01
  1.50000000E+00  8.00000000E-01  8.00000000E-01  1.50000000E+00  8.00000000E-01
  8.00000000E-01  1.50000000E+00  8.00000000E-01  8.00000000E-01  1.50000000E+00
  8.00000000E-01  8.00000000E-01  1.50000000E+00  8.00000000E-01  8.00000000E-01
  1.50000000E+00  8.00000000E-01  8.00000000E-01  1.50000000E+00  8.00000000E-01
  8.00000000E-01  1.50000000E+00  8.00000000E-01  8.00000000E-01  1.50000000E+00
  8.00000000E-01  8.00000000E-01  1.50000000E+00  8.00000000E-01  8.00000000E-01
  1.50000000E+00  8.00000000E-01  8.00000000E-01  1.50000000E+00  8.00000000E-01
  8.00000000E-01  1.50000000E+00  8.00000000E-01  8.00000000E-01  1.50000000E+00
  8.00000000E-01  8.00000000E-01  1.50000000E+00  8.00000000E-01  8.00000000E-01
  1.50000000E+00  8.00000000E-01  8.00000000E-01  1.50000000E+00  8.00000000E-01
  8.00000000E-01  1.50000000E+00  8.00000000E-01  8.00000000E-01  1.50000000E+00
  8.00000000E-01  8.00000000E-01  1.50000000E+00  8.00000000E-01  8.00000000E-01
  1.50000000E+00  8.00000000E-01  8.00000000E-01  1.50000000E+00  8.00000000E-01
  8.00000000E-01  1.50000000E+00  8.00000000E-01  8.00000000E-01  1.50000000E+00
  8.00000000E-01  8.00000000E-01  1.50000000E+00  8.00000000E-01  8.00000000E-01
  1.50000000E+00  8.00000000E-01  8.00000000E-01  1.50000000E+00  8.00000000E-01
  8.00000000E-01  1.50000000E+00  8.00000000E-01  8.00000000E-01  1.50000000E+00
  8.00000000E-01  8.00000000E-01  1.50000000E+00  8.00000000E-01  8.00000000E-01
  1.50000000E+00  8.00000000E-01  8.00000000E-01  1.50000000E+00  8.00000000E-01
  8.00000000E-01  1.50000000E+00  8.00000000E-01  8.00000000E-01  1.50000000E+00
  8.00000000E-01  8.00000000E-01  1.50000000E+00  8.00000000E-01  8.00000000E-01
  1.50000000E+00  8.00000000E-01  8.00000000E-01  1.50000000E+00  8.00000000E-01
  8.00000000E-01  1.50000000E+00  8.00000000E-01  8.00000000E-01  1.50000000E+00
  8.00000000E-01  8.00000000E-01  1.50000000E+00  8.00000000E-01  8.00000000E-01
  1.50000000E+00  8.00000000E-01  8.00000000E-01  1.50000000E+00  8.00000000E-01
  8.00000000E-01  1.50000000E+00  8.00000000E-01  8.00000000E-01  1.50000000E+00
  8.00000000E-01  8.00000000E-01  1.50000000E+00  8.00000000E-01  8.00000000E-01
  1.50000000E+00  8.00000000E-01  8.00000000E-01  1.50000000E+00  8.00000000E-01
  8.00000000E-01  1.50000000E+00  8.00000000E-01  8.00000000E-01  1.50000000E+00
  8.00000000E-01  8.00000000E-01  1.50000000E+00  8.00000000E-01  8.00000000E-01
  1.50000000E+00  8.00000000E-01  8.00000000E-01  1.50000000E+00  8.00000000E-01
  8.00000000E-01  1.50000000E+00  8.00000000E-01  8.00000000E-01  1.50000000E+00
  8.00000000E-01  8.00000000E-01  1.50000000E+00  8.00000000E-01  8.00000000E-01
  1.50000000E+00  8.00000000E-01  8.00000000E-01  1.50000000E+00  8.00000000E-01
  8.00000000E-01  1.50000000E+00  8.00000000E-01  8.00000000E-01  1.50000000E+00
  8.00000000E-01  8.00000000E-01  1.50000000E+00  8.00000000E-01  8.00000000E-01
  1.50000000E+00  8.00000000E-01  8.00000000E-01  1.50000000E+00  8.00000000E-01
  8.00000000E-01  1.50000000E+00  8.00000000E-01  8.00000000E-01  1.50000000E+00
  8.00000000E-01  8.00000000E-01  1.50000000E+00  8.00000000E-01  8.00000000E-01
  1.50000000E+00  8.00000000E-01  8.00000000E-01  1.50000000E+00  8.00000000E-01
  8.00000000E-01  1.50000000E+00  8.00000000E-01  8.00000000E-01  1.50000000E+00
  8.00000000E-01  8.00000000E-01  1.50000000E+00  8.00000000E-01  8.00000000E-01
  1.50000000E+00  8.00000000E-01  8.00000000E-01  1.50000000E+00  8.00000000E-01
  8.00000000E-01  1.50000000E+00  8.00000000E-01  8.00000000E-01  1.50000000E+00
  8.00000000E-01  8.00000000E-01  1.50000000E+00  8.00000000E-01  8.00000000E-01
  1.50000000E+00  8.00000000E-01  8.00000000E-01  1.50000000E+00  8.00000000E-01
  8.00000000E-01  1.50000000E+00  8.00000000E-01  8.00000000E-01  1.50000000E+00
  8.00000000E-01  8.00000000E-01  1.50000000E+00  8.00000000E-01  8.00000000E-01
  1.50000000E+00  8.00000000E-01  8.00000000E-01  1.50000000E+00  8.00000000E-01
  8.00000000E-01  1.50000000E+00  8.00000000E-01  8.00000000E-01  1.50000000E+00
  8.00000000E-01  8.00000000E-01  1.50000000E+00  8.00000000E-01  8.00000000E-01
  1.50000000E+00  8.00000000E-01  8.00000000E-01  1.50000000E+00  8.00000000E-01
  8.00000000E-01  1.50000000E+00  8.00000000E-01  8.00000000E-01  1.50000000E+00
  8.00000000E-01  8.00000000E-01  1.50000000E+00  8.00000000E-01  8.00000000E-01
  1.50000000E+00  8.00000000E-01  8.00000000E-01  1.50000000E+00  8.00000000E-01
  8.00000000E-01  1.50000000E+00  8.00000000E-01  8.00000000E-01  1.50000000E+00
  8.00000000E-01  8.00000000E-01  1.50000000E+00  8.00000000E-01  8.00000000E-01
  1.50000000E+00  8.00000000E-01  8.00000000E-01  1.50000000E+00  8.00000000E-01
  8.00000000E-01  1.50000000E+00  8.00000000E-01  8.00000000E-01  1.50000000E+00
  8.00000000E-01  8.00000000E-01  1.50000000E+00  8.00000000E-01  8.00000000E-01
  1.50000000E+00  8.00000000E-01  8.00000000E-01  1.50000000E+00  8.00000000E-01
  8.00000000E-01  1.50000000E+00  8.00000000E-01  8.00000000E-01  1.50000000E+00
  8.00000000E-01  8.00000000E-01  1.50000000E+00  8.00000000E-01  8.00000000E-01
  1.50000000E+00  8.00000000E-01  8.00000000E-01  1.50000000E+00  8.00000000E-01
  8.00000000E-01  1.50000000E+00  8.00000000E-01  8.00000000E-01  1.50000000E+00
  8.00000000E-01  8.00000000E-01  1.50000000E+00  8.00000000E-01  8.00000000E-01
  1.50000000E+00  8.00000000E-01  8.00000000E-01  1.50000000E+00  8.00000000E-01
  8.00000000E-01  1.50000000E+00  8.00000000E-01  8.00000000E-01  1.50000000E+00
  8.00000000E-01  8.00000000E-01  1.50000000E+00  8.00000000E-01  8.00000000E-01
  1.50000000E+00  8.00000000E-01  8.00000000E-01  1.50000000E+00  8.00000000E-01
  8.00000000E-01  1.50000000E+00  8.00000000E-01  8.00000000E-01  1.50000000E+00
  8.00000000E-01  8.00000000E-01  1.50000000E+00  8.00000000E-01  8.00000000E-01
  1.50000000E+00  8.00000000E-01  8.00000000E-01  1.50000000E+00  8.00000000E-01
  8.00000000E-01  1.50000000E+00  8.00000000E-01  8.00000000E-01  1.50000000E+00
  8.00000000E-01  8.00000000E-01  1.50000000E+00  8.00000000E-01  8.00000000E-01
  1.50000000E+00  8.00000000E-01  8.00000000E-01  1.50000000E+00  8.00000000E-01
  8.00000000E-01  1.50000000E+00  8.00000000E-01  8.00000000E-01  1.50000000E+00
  8.00000000E-01  8.00000000E-01  1.50000000E+00  8.00000000E-01  8.00000000E-01
  1.50000000E+00  8.00000000E-01  8.00000000E-01  1.50000000E+00  8.00000000E-01
  8.00000000E-01  1.50000000E+00  8.00000000E-01  8.00000000E-01  1.50000000E+00
  8.00000000E-01  8.00000000E-01  1.50000000E+00  8.00000000E-01  8.00000000E-01
  1.50000000E+00  8.00000000E-01  8.00000000E-01  1.50000000E+00  8.00000000E-01
  8.00000000E-01  1.50000000E+00  8.00000000E-01  8.00000000E-01  1.50000000E+00
  8.00000000E-01  8.00000000E-01  1.50000000E+00  8.00000000E-01  8.00000000E-01
  1.50000000E+00  8.00000000E-01  8.00000000E-01  1.50000000E+00  8.00000000E-01
  8.00000000E-01  1.50000000E+00  8.00000000E-01  8.00000000E-01  1.50000000E+00
  8.00000000E-01  8.00000000E-01  1.50000000E+00  8.00000000E-01  8.00000000E-01
  1.50000000E+00  8.00000000E-01  8.00000000E-01  1.50000000E+00  8.00000000E-01
  8.00000000E-01  1.50000000E+00  8.00000000E-01  8.00000000E-01  1.50000000E+00
  8.00000000E-01  8.00000000E-01  1.50000000E+00  8.00000000E-01  8.00000000E-01
  1.50000000E+00  8.00000000E-01  8.00000000E-01  1.50000000E+00  8.00000000E-01
  8.00000000E-01  1.50000000E+00  8.00000000E-01  8.00000000E-01  1.50000000E+00
  8.00000000E-01  8.00000000E-01  1.50000000E+00  8.00000000E-01  8.00000000E-01
  1.50000000E+00  8.00000000E-01  8.00000000E-01  1.50000000E+00  8.00000000E-01
  8.00000000E-01  1.50000000E+00  8.00000000E-01  8.00000000E-01  1.50000000E+00
  8.00000000E-01  8.00000000E-01  1.50000000E+00  8.00000000E-01  8.00000000E-01
  1.50000000E+00  8.00000000E-01  8.00000000E-01  1.50000000E+00  8.00000000E-01
  8.00000000E-01  1.50000000E+00  8.00000000E-01  8.00000000E-01  1.50000000E+00
  8.00000000E-01  8.00000000E-01  1.50000000E+00  8.00000000E-01  8.00000000E-01
  1.50000000E+00  8.00000000E-01  8.00000000E-01  1.50000000E+00  8.00000000E-01
  8.00000000E-01  1.50000000E+00  8.00000000E-01  8.00000000E-01  1.50000000E+00
  8.00000000E-01  8.00000000E-01  1.50000000E+00  8.00000000E-01  8.00000000E-01
  1.50000000E+00  8.00000000E-01  8.00000000E-01  1.50000000E+00  8.00000000E-01
  8.00000000E-01  1.50000000E+00  8.00000000E-01  8.00000000E-01  1.50000000E+00
  8.00000000E-01  8.00000000E-01  1.50000000E+00  8.00000000E-01  8.00000000E-01
  1.50000000E+00  8.00000000E-01  8.00000000E-01  1.50000000E+00  8.00000000E-01
  8.00000000E-01  1.50000000E+00  8.00000000E-01  8.00000000E-01  1.50000000E+00
  8.00000000E-01  8.00000000E-01  1.50000000E+00  8.00000000E-01  8.00000000E-01
  1.50000000E+00  8.00000000E-01  8.00000000E-01  1.50000000E+00  8.00000000E-01
  8.00000000E-01  1.50000000E+00  8.00000000E-01  8.00000000E-01  1.50000000E+00
  8.00000000E-01  8.00000000E-01  1.50000000E+00  8.00000000E-01  8.00000000E-01
  1.50000000E+00  8.00000000E-01  8.00000000E-01  1.50000000E+00  8.00000000E-01
  8.00000000E-01  1.50000000E+00  8.00000000E-01  8.00000000E-01  1.50000000E+00
  8.00000000E-01  8.00000000E-01  1.50000000E+00  8.00000000E-01  8.00000000E-01
  1.50000000E+00  8.00000000E-01  8.00000000E-01  1.50000000E+00  8.00000000E-01
  8.00000000E-01  1.50000000E+00  8.00000000E-01  8.00000000E-01  1.50000000E+00
  8.00000000E-01  8.00000000E-01  1.50000000E+00  8.00000000E-01  8.00000000E-01
  1.50000000E+00  8.00000000E-01  8.00000000E-01  1.50000000E+00  8.00000000E-01
  8.00000000E-01  1.50000000E+00  8.00000000E-01  8.00000000E-01  1.50000000E+00
  8.00000000E-01  8.00000000E-01  1.50000000E+00  8.00000000E-01  8.00000000E-01
  1.50000000E+00  8.00000000E-01  8.00000000E-01  1.50000000E+00  8.00000000E-01
  8.00000000E-01  1.50000000E+00  8.00000000E-01  8.00000000E-01  1.50000000E+00
  8.00000000E-01  8.00000000E-01  1.50000000E+00  8.00000000E-01  8.00000000E-01
  1.50000000E+00  8.00000000E-01  8.00000000E-01  1.50000000E+00  8.00000000E-01
  8.00000000E-01  1.50000000E+00  8.00000000E-01  8.00000000E-01  1.50000000E+00
  8.00000000E-01  8.00000000E-01  1.50000000E+00  8.00000000E-01  8.00000000E-01
  1.50000000E+00  8.00000000E-01  8.00000000E-01  1.50000000E+00  8.00000000E-01
  8.00000000E-01  1.50000000E+00  8.00000000E-01  8.00000000E-01  1.50000000E+00
  8.00000000E-01  8.00000000E-01  1.50000000E+00  8.00000000E-01  8.00000000E-01
  1.50000000E+00  8.00000000E-01  8.00000000E-01  1.50000000E+00  8.00000000E-01
  8.00000000E-01  1.50000000E+00  8.00000000E-01  8.00000000E-01  1.50000000E+00
  8.00000000E-01  8.00000000E-01  1.50000000E+00  8.00000000E-01  8.00000000E-01
  1.50000000E+00  8.00000000E-01  8.00000000E-01  1.50000000E+00  8.00000000E-01
  8.00000000E-01  1.50000000E+00  8.00000000E-01  8.00000000E-01  1.50000000E+00
  8.00000000E-01  8.00000000E-01  1.50000000E+00  8.00000000E-01  8.00000000E-01
  1.50000000E+00  8.00000000E-01  8.00000000E-01  1.50000000E+00  8.00000000E-01
  8.00000000E-01  1.50000000E+00  8.00000000E-01  8.00000000E-01  1.50000000E+00
  8.00000000E-01  8.00000000E-01  1.50000000E+00  8.00000000E-01  8.00000000E-01
  1.50000000E+00  8.00000000E-01  8.00000000E-01  1.50000000E+00  8.00000000E-01
  8.00000000E-01  1.50000000E+00  8.00000000E-01  8.00000000E-01  1.50000000E+00
  8.00000000E-01  8.00000000E-01  1.50000000E+00  8.00000000E-01  8.00000000E-01
  1.50000000E+00  8.00000000E-01  8.00000000E-01  1.50000000E+00  8.00000000E-01
  8.00000000E-01  1.50000000E+00  8.00000000E-01  8.00000000E-01  1.50000000E+00
  8.00000000E-01  8.00000000E-01  1.50000000E+00  8.00000000E-01  8.00000000E-01
  1.50000000E+00  8.00000000E-01  8.00000000E-01  1.50000000E+00  8.00000000E-01
  8.00000000E-01  1.50000000E+00  8.00000000E-01  8.00000000E-01  1.50000000E+00
  8.00000000E-01  8.00000000E-01  1.50000000E+00  8.00000000E-01  8.00000000E-01
  1.50000000E+00  8.00000000E-01  8.00000000E-01  1.50000000E+00  8.00000000E-01
  8.00000000E-01  1.50000000E+00  8.00000000E-01  8.00000000E-01  1.50000000E+00
  8.00000000E-01  8.00000000E-01  1.50000000E+00  8.00000000E-01  8.00000000E-01
  1.50000000E+00  8.00000000E-01  8.00000000E-01  1.50000000E+00  8.00000000E-01
  8.00000000E-01  1.50000000E+00  8.00000000E-01  8.00000000E-01  1.50000000E+00
  8.00000000E-01  8.00000000E-01  1.50000000E+00  8.00000000E-01  8.00000000E-01
  1.50000000E+00  8.00000000E-01  8.00000000E-01  1.50000000E+00  8.00000000E-01
  8.00000000E-01  1.50000000E+00  8.00000000E-01  8.00000000E-01  1.50000000E+00
  8.00000000E-01  8.00000000E-01  1.50000000E+00  8.00000000E-01  8.00000000E-01
  1.50000000E+00  8.00000000E-01  8.00000000E-01  1.50000000E+00  8.00000000E-01
  8.00000000E-01  1.50000000E+00  8.00000000E-01  8.00000000E-01  1.50000000E+00
  8.00000000E-01  8.00000000E-01  1.50000000E+00  8.00000000E-01  8.00000000E-01
  1.50000000E+00  8.00000000E-01  8.00000000E-01  1.50000000E+00  8.00000000E-01
  8.00000000E-01  1.50000000E+00  8.00000000E-01  8.00000000E-01  1.50000000E+00
  8.00000000E-01  8.00000000E-01  1.50000000E+00  8.00000000E-01  8.00000000E-01
  1.50000000E+00  8.00000000E-01  8.00000000E-01  1.50000000E+00  8.00000000E-01
  8.00000000E-01  1.50000000E+00  8.00000000E-01  8.00000000E-01  1.50000000E+00
  8.00000000E-01  8.00000000E-01  1.50000000E+00  8.00000000E-01  8.00000000E-01
  1.50000000E+00  8.00000000E-01  8.00000000E-01  1.50000000E+00  8.00000000E-01
  8.00000000E-01  1.50000000E+00  8.00000000E-01  8.00000000E-01  1.50000000E+00
  8.00000000E-01  8.00000000E-01  1.50000000E+00  8.00000000E-01  8.00000000E-01
  1.50000000E+00  8.00000000E-01  8.00000000E-01  1.50000000E+00  8.00000000E-01
  8.00000000E-01  1.50000000E+00  8.00000000E-01  8.00000000E-01  1.50000000E+00
  8.00000000E-01  8.00000000E-01  1.50000000E+00  8.00000000E-01  8.00000000E-01
  1.50000000E+00  8.00000000E-01  8.00000000E-01  1.50000000E+00  8.00000000E-01
  8.00000000E-01  1.50000000E+00  8.00000000E-01  8.00000000E-01  1.50000000E+00
  8.00000000E-01  8.00000000E-01  1.50000000E+00  8.00000000E-01  8.00000000E-01
  1.50000000E+00  8.00000000E-01  8.00000000E-01  1.50000000E+00  8.00000000E-01
  8.00000000E-01  1.50000000E+00  8.00000000E-01  8.00000000E-01  1.50000000E+00
  8.00000000E-01  8.00000000E-01  1.50000000E+00  8.00000000E-01  8.00000000E-01
  1.50000000E+00  8.00000000E-01  8.00000000E-01  1.50000000E+00  8.00000000E-01
  8.00000000E-01  1.50000000E+00  8.00000000E-01  8.00000000E-01  1.50000000E+00
  8.00000000E-01  8.00000000E-01  1.50000000E+00  8.00000000E-01  8.00000000E-01
  1.50000000E+00  8.00000000E-01  8.00000000E-01  1.50000000E+00  8.00000000E-01
  8.00000000E-01  1.50000000E+00  8.00000000E-01  8.00000000E-01  1.50000000E+00
  8.00000000E-01  8.00000000E-01  1.50000000E+00  8.00000000E-01  8.00000000E-01
  1.50000000E+00  8.00000000E-01  8.00000000E-01  1.50000000E+00  8.00000000E-01
  8.00000000E-01  1.50000000E+00  8.00000000E-01  8.00000000E-01  1.50000000E+00
  8.00000000E-01  8.00000000E-01  1.50000000E+00  8.00000000E-01  8.00000000E-01
  1.50000000E+00  8.00000000E-01  8.00000000E-01  1.50000000E+00  8.00000000E-01
  8.00000000E-01  1.50000000E+00  8.00000000E-01  8.00000000E-01  1.50000000E+00
  8.00000000E-01  8.00000000E-01  1.50000000E+00  8.00000000E-01  8.00000000E-01
  1.50000000E+00  8.00000000E-01  8.00000000E-01  1.50000000E+00  8.00000000E-01
  8.00000000E-01  1.50000000E+00  8.00000000E-01  8.00000000E-01  1.50000000E+00
  8.00000000E-01  8.00000000E-01  1.50000000E+00  8.00000000E-01  8.00000000E-01
  1.50000000E+00  8.00000000E-01  8.00000000E-01  1.50000000E+00  8.00000000E-01
  8.00000000E-01  1.50000000E+00  8.00000000E-01  8.00000000E-01  1.50000000E+00
  8.00000000E-01  8.00000000E-01  1.50000000E+00  8.00000000E-01  8.00000000E-01
  1.50000000E+00  8.00000000E-01  8.00000000E-01  1.50000000E+00  8.00000000E-01
  8.00000000E-01  1.50000000E+00  8.00000000E-01  8.00000000E-01  1.50000000E+00
  8.00000000E-01  8.00000000E-01  1.50000000E+00  8.00000000E-01  8.00000000E-01
  1.50000000E+00  8.00000000E-01  8.00000000E-01  1.50000000E+00  8.00000000E-01
  8.00000000E-01  1.50000000E+00  8.00000000E-01  8.00000000E-01  1.50000000E+00
  8.00000000E-01  8.00000000E-01  1.50000000E+00  8.00000000E-01  8.00000000E-01
  1.50000000E+00  8.00000000E-01  8.00000000E-01  1.50000000E+00  8.00000000E-01
  8.00000000E-01  1.50000000E+00  8.00000000E-01  8.00000000E-01  1.50000000E+00
  8.00000000E-01  8.00000000E-01  1.50000000E+00  8.00000000E-01  8.00000000E-01
  1.50000000E+00  8.00000000E-01  8.00000000E-01  1.50000000E+00  8.00000000E-01
  8.00000000E-01  1.50000000E+00  8.00000000E-01  8.00000000E-01  1.50000000E+00
  8.00000000E-01  8.00000000E-01  1.50000000E+00  8.00000000E-01  8.00000000E-01
  1.50000000E+00  8.00000000E-01  8.00000000E-01  1.50000000E+00  8.00000000E-01
  8.00000000E-01  1.50000000E+00  8.00000000E-01  8.00000000E-01  1.50000000E+00
  8.00000000E-01  8.00000000E-01  1.50000000E+00  8.00000000E-01  8.00000000E-01
  1.50000000E+00  8.00000000E-01  8.00000000E-01  1.50000000E+00  8.00000000E-01
  8.00000000E-01  1.50000000E+00  8.00000000E-01  8.00000000E-01  1.50000000E+00
  8.00000000E-01  8.00000000E-01  1.50000000E+00  8.00000000E-01  8.00000000E-01
  1.50000000E+00  8.00000000E-01  8.00000000E-01  1.50000000E+00  8.00000000E-01
  8.00000000E-01  1.50000000E+00  8.00000000E-01  8.00000000E-01  1.50000000E+00
  8.00000000E-01  8.00000000E-01  1.50000000E+00  8.00000000E-01  8.00000000E-01
  1.50000000E+00  8.00000000E-01  8.00000000E-01  1.50000000E+00  8.00000000E-01
  8.00000000E-01  1.50000000E+00  8.00000000E-01  8.00000000E-01  1.50000000E+00
  8.00000000E-01  8.00000000E-01  1.50000000E+00  8.00000000E-01  8.00000000E-01
  1.50000000E+00  8.00000000E-01  8.00000000E-01  1.50000000E+00  8.00000000E-01
  8.00000000E-01  1.50000000E+00  8.00000000E-01  8.00000000E-01  1.50000000E+00
  8.00000000E-01  8.00000000E-01  1.50000000E+00  8.00000000E-01  8.00000000E-01
  1.50000000E+00  8.00000000E-01  8.00000000E-01  1.50000000E+00  8.00000000E-01
  8.00000000E-01  1.50000000E+00  8.00000000E-01  8.00000000E-01  1.50000000E+00
  8.00000000E-01  8.00000000E-01  1.50000000E+00  8.00000000E-01  8.00000000E-01
  1.50000000E+00  8.00000000E-01  8.00000000E-01  1.50000000E+00  8.00000000E-01
  8.00000000E-01  1.50000000E+00  8.00000000E-01  8.00000000E-01  1.50000000E+00
  8.00000000E-01  8.00000000E-01  1.50000000E+00  8.00000000E-01  8.00000000E-01
  1.50000000E+00  8.00000000E-01  8.00000000E-01  1.50000000E+00  8.00000000E-01
  8.00000000E-01  1.50000000E+00  8.00000000E-01  8.00000000E-01  1.50000000E+00
  8.00000000E-01  8.00000000E-01  1.50000000E+00  8.00000000E-01  8.00000000E-01
  1.50000000E+00  8.00000000E-01  8.00000000E-01  1.50000000E+00  8.00000000E-01
  8.00000000E-01  1.50000000E+00  8.00000000E-01  8.00000000E-01  1.50000000E+00
  8.00000000E-01  8.00000000E-01  1.50000000E+00  8.00000000E-01  8.00000000E-01
  1.50000000E+00  8.00000000E-01  8.00000000E-01  1.50000000E+00  8.00000000E-01
  8.00000000E-01  1.50000000E+00  8.00000000E-01  8.00000000E-01  1.50000000E+00
  8.00000000E-01  8.00000000E-01  1.50000000E+00  8.00000000E-01  8.00000000E-01
  1.50000000E+00  8.00000000E-01  8.00000000E-01  1.50000000E+00  8.00000000E-01
  8.00000000E-01  1.50000000E+00  8.00000000E-01  8.00000000E-01  1.50000000E+00
  8.00000000E-01  8.00000000E-01  1.50000000E+00  8.00000000E-01  8.00000000E-01
  1.50000000E+00  8.00000000E-01  8.00000000E-01  1.50000000E+00  8.00000000E-01
  8.00000000E-01  1.50000000E+00  8.00000000E-01  8.00000000E-01  1.50000000E+00
  8.00000000E-01  8.00000000E-01  1.50000000E+00  8.00000000E-01  8.00000000E-01
  1.50000000E+00  8.00000000E-01  8.00000000E-01  1.50000000E+00  8.00000000E-01
  8.00000000E-01  1.50000000E+00  8.00000000E-01  8.00000000E-01  1.50000000E+00
  8.00000000E-01  8.00000000E-01  1.50000000E+00  8.00000000E-01  8.00000000E-01
  1.50000000E+00  8.00000000E-01  8.00000000E-01  1.50000000E+00  8.00000000E-01
  8.00000000E-01  1.50000000E+00  8.00000000E-01  8.00000000E-01  1.50000000E+00
  8.00000000E-01  8.00000000E-01  1.50000000E+00  8.00000000E-01  8.00000000E-01
  1.50000000E+00  8.00000000E-01  8.00000000E-01  1.50000000E+00  8.00000000E-01
  8.00000000E-01  1.50000000E+00  8.00000000E-01  8.00000000E-01  1.50000000E+00
  8.00000000E-01  8.00000000E-01  1.50000000E+00  8.00000000E-01  8.00000000E-01
  1.50000000E+00  8.00000000E-01  8.00000000E-01  1.50000000E+00  8.00000000E-01
  8.00000000E-01  1.50000000E+00  8.00000000E-01  8.00000000E-01  1.50000000E+00
  8.00000000E-01  8.00000000E-01  1.50000000E+00  8.00000000E-01  8.00000000E-01
  1.50000000E+00  8.00000000E-01  8.00000000E-01  1.50000000E+00  8.00000000E-01
  8.00000000E-01  1.50000000E+00  8.00000000E-01  8.00000000E-01  1.50000000E+00
  8.00000000E-01  8.00000000E-01  1.50000000E+00  8.00000000E-01  8.00000000E-01
  1.50000000E+00  8.00000000E-01  8.00000000E-01  1.50000000E+00  8.00000000E-01
  8.00000000E-01  1.50000000E+00  8.00000000E-01  8.00000000E-01  1.50000000E+00
  8.00000000E-01  8.00000000E-01  1.50000000E+00  8.00000000E-01  8.00000000E-01
  1.50000000E+00  8.00000000E-01  8.00000000E-01  1.50000000E+00  8.00000000E-01
  8.00000000E-01  1.50000000E+00  8.00000000E-01  8.00000000E-01  1.50000000E+00
  8.00000000E-01  8.00000000E-01  1.50000000E+00  8.00000000E-01  8.00000000E-01
  1.50000000E+00  8.00000000E-01  8.00000000E-01  1.50000000E+00  8.00000000E-01
  8.00000000E-01  1.50000000E+00  8.00000000E-01  8.00000000E-01  1.50000000E+00
  8.00000000E-01  8.00000000E-01  1.50000000E+00  8.00000000E-01  8.00000000E-01
  1.50000000E+00  8.00000000E-01  8.00000000E-01  1.50000000E+00  8.00000000E-01
  8.00000000E-01  1.50000000E+00  8.00000000E-01  8.00000000E-01  1.50000000E+00
  8.00000000E-01  8.00000000E-01  1.50000000E+00  8.00000000E-01  8.00000000E-01
  1.50000000E+00  8.00000000E-01  8.00000000E-01  1.50000000E+00  8.00000000E-01
  8.00000000E-01  1.50000000E+00  8.00000000E-01  8.00000000E-01  1.50000000E+00
  8.00000000E-01  8.00000000E-01  1.50000000E+00  8.00000000E-01  8.00000000E-01
  1.50000000E+00  8.00000000E-01  8.00000000E-01  1.50000000E+00  8.00000000E-01
  8.00000000E-01  1.50000000E+00  8.00000000E-01  8.00000000E-01  1.50000000E+00
  8.00000000E-01  8.00000000E-01  1.50000000E+00  8.00000000E-01  8.00000000E-01
  1.50000000E+00  8.00000000E-01  8.00000000E-01  1.50000000E+00  8.00000000E-01
  8.00000000E-01  1.50000000E+00  8.00000000E-01  8.00000000E-01  1.50000000E+00
  8.00000000E-01  8.00000000E-01  1.50000000E+00  8.00000000E-01  8.00000000E-01
  1.50000000E+00  8.00000000E-01  8.00000000E-01  1.50000000E+00  8.00000000E-01
  8.00000000E-01  1.50000000E+00  8.00000000E-01  8.00000000E-01  1.50000000E+00
  8.00000000E-01  8.00000000E-01  1.50000000E+00  8.00000000E-01  8.00000000E-01
  1.50000000E+00  8.00000000E-01  8.00000000E-01  1.50000000E+00  8.00000000E-01
  8.00000000E-01  1.50000000E+00  8.00000000E-01  8.00000000E-01  1.50000000E+00
  8.00000000E-01  8.00000000E-01  1.50000000E+00  8.00000000E-01  8.00000000E-01
  1.50000000E+00  8.00000000E-01  8.00000000E-01  1.50000000E+00  8.00000000E-01
  8.00000000E-01  1.50000000E+00  8.00000000E-01  8.00000000E-01  1.50000000E+00
  8.00000000E-01  8.00000000E-01  1.50000000E+00  8.00000000E-01  8.00000000E-01
  1.50000000E+00  8.00000000E-01  8.00000000E-01  1.50000000E+00  8.00000000E-01
  8.00000000E-01  1.50000000E+00  8.00000000E-01  8.00000000E-01  1.50000000E+00
  8.00000000E-01  8.00000000E-01  1.50000000E+00  8.00000000E-01  8.00000000E-01
  1.50000000E+00  8.00000000E-01  8.00000000E-01  1.50000000E+00  8.00000000E-01
  8.00000000E-01  1.50000000E+00  8.00000000E-01  8.00000000E-01  1.50000000E+00
  8.00000000E-01  8.00000000E-01  1.50000000E+00  8.00000000E-01  8.00000000E-01
  1.50000000E+00  8.00000000E-01  8.00000000E-01  1.50000000E+00  8.00000000E-01
  8.00000000E-01  1.50000000E+00  8.00000000E-01  8.00000000E-01  1.50000000E+00
  8.00000000E-01  8.00000000E-01  1.50000000E+00  8.00000000E-01  8.00000000E-01
  1.50000000E+00  8.00000000E-01  8.00000000E-01  1.50000000E+00  8.00000000E-01
  8.00000000E-01  1.50000000E+00  8.00000000E-01  8.00000000E-01  1.50000000E+00
  8.00000000E-01  8.00000000E-01  1.50000000E+00  8.00000000E-01  8.00000000E-01
  1.50000000E+00  8.00000000E-01  8.00000000E-01  1.50000000E+00  8.00000000E-01
  8.00000000E-01  1.50000000E+00  8.00000000E-01  8.00000000E-01  1.50000000E+00
  8.00000000E-01  8.00000000E-01  1.50000000E+00  8.00000000E-01  8.00000000E-01
  1.50000000E+00  8.00000000E-01  8.00000000E-01  1.50000000E+00  8.00000000E-01
  8.00000000E-01  1.50000000E+00  8.00000000E-01  8.00000000E-01  1.50000000E+00
  8.00000000E-01  8.00000000E-01  1.50000000E+00  8.00000000E-01  8.00000000E-01
  1.50000000E+00  8.00000000E-01  8.00000000E-01  1.50000000E+00  8.00000000E-01
  8.00000000E-01  1.50000000E+00  8.00000000E-01  8.00000000E-01  1.50000000E+00
  8.00000000E-01  8.00000000E-01  1.50000000E+00  8.00000000E-01  8.00000000E-01
  1.50000000E+00  8.00000000E-01  8.00000000E-01  1.50000000E+00  8.00000000E-01
  8.00000000E-01  1.50000000E+00  8.00000000E-01  8.00000000E-01  1.50000000E+00
  8.00000000E-01  8.00000000E-01  1.50000000E+00  8.00000000E-01  8.00000000E-01
  1.50000000E+00  8.00000000E-01  8.00000000E-01  1.50000000E+00  8.00000000E-01
  8.00000000E-01  1.50000000E+00  8.00000000E-01  8.00000000E-01  1.50000000E+00
  8.00000000E-01  8.00000000E-01  1.50000000E+00  8.00000000E-01  8.00000000E-01
  1.50000000E+00  8.00000000E-01  8.00000000E-01  1.50000000E+00  8.00000000E-01
  8.00000000E-01  1.50000000E+00  8.00000000E-01  8.00000000E-01  1.50000000E+00
  8.00000000E-01  8.00000000E-01  1.50000000E+00  8.00000000E-01  8.00000000E-01
  1.50000000E+00  8.00000000E-01  8.00000000E-01  1.50000000E+00  8.00000000E-01
  8.00000000E-01  1.50000000E+00  8.00000000E-01  8.00000000E-01  1.50000000E+00
  8.00000000E-01  8.00000000E-01  1.50000000E+00  8.00000000E-01  8.00000000E-01
  1.50000000E+00  8.00000000E-01  8.00000000E-01  1.50000000E+00  8.00000000E-01
  8.00000000E-01  1.50000000E+00  8.00000000E-01  8.00000000E-01  1.50000000E+00
  8.00000000E-01  8.00000000E-01  1.50000000E+00  8.00000000E-01  8.00000000E-01
  1.50000000E+00  8.00000000E-01  8.00000000E-01  1.50000000E+00  8.00000000E-01
  8.00000000E-01  1.50000000E+00  8.00000000E-01  8.00000000E-01  1.50000000E+00
  8.00000000E-01  8.00000000E-01  1.50000000E+00  8.00000000E-01  8.00000000E-01
  1.50000000E+00  8.00000000E-01  8.00000000E-01  1.50000000E+00  8.00000000E-01
  8.00000000E-01  1.50000000E+00  8.00000000E-01  8.00000000E-01  1.50000000E+00
  8.00000000E-01  8.00000000E-01  1.50000000E+00  8.00000000E-01  8.00000000E-01
  1.50000000E+00  8.00000000E-01  8.00000000E-01  1.50000000E+00  8.00000000E-01
  8.00000000E-01  1.50000000E+00  8.00000000E-01  8.00000000E-01  1.50000000E+00
  8.00000000E-01  8.00000000E-01  1.50000000E+00  8.00000000E-01  8.00000000E-01
  1.50000000E+00  8.00000000E-01  8.00000000E-01  1.50000000E+00  8.00000000E-01
  8.00000000E-01  1.50000000E+00  8.00000000E-01  8.00000000E-01  1.50000000E+00
  8.00000000E-01  8.00000000E-01  1.50000000E+00  8.00000000E-01  8.00000000E-01
  1.50000000E+00  8.00000000E-01  8.00000000E-01  1.50000000E+00  8.00000000E-01
  8.00000000E-01  1.50000000E+00  8.00000000E-01  8.00000000E-01  1.50000000E+00
  8.00000000E-01  8.00000000E-01  1.50000000E+00  8.00000000E-01  8.00000000E-01
  1.50000000E+00  8.00000000E-01  8.00000000E-01  1.50000000E+00  8.00000000E-01
  8.00000000E-01  1.50000000E+00  8.00000000E-01  8.00000000E-01  1.50000000E+00
  8.00000000E-01  8.00000000E-01  1.50000000E+00  8.00000000E-01  8.00000000E-01
  1.50000000E+00  8.00000000E-01  8.00000000E-01  1.50000000E+00  8.00000000E-01
  8.00000000E-01  1.50000000E+00  8.00000000E-01  8.00000000E-01  1.50000000E+00
  8.00000000E-01  8.00000000E-01  1.50000000E+00  8.00000000E-01  8.00000000E-01
  1.50000000E+00  8.00000000E-01  8.00000000E-01  1.50000000E+00  8.00000000E-01
  8.00000000E-01  1.50000000E+00  8.00000000E-01  8.00000000E-01  1.50000000E+00
  8.00000000E-01  8.00000000E-01  1.50000000E+00  8.00000000E-01  8.00000000E-01
  1.50000000E+00  8.00000000E-01  8.00000000E-01  1.50000000E+00  8.00000000E-01
  8.00000000E-01  1.50000000E+00  8.00000000E-01  8.00000000E-01  1.50000000E+00
  8.00000000E-01  8.00000000E-01  1.50000000E+00  8.00000000E-01  8.00000000E-01
  1.50000000E+00  8.00000000E-01  8.00000000E-01  1.50000000E+00  8.00000000E-01
  8.00000000E-01  1.50000000E+00  8.00000000E-01  8.00000000E-01  1.50000000E+00
  8.00000000E-01  8.00000000E-01  1.50000000E+00  8.00000000E-01  8.00000000E-01
  1.50000000E+00  8.00000000E-01  8.00000000E-01  1.50000000E+00  8.00000000E-01
  8.00000000E-01  1.50000000E+00  8.00000000E-01  8.00000000E-01  1.50000000E+00
  8.00000000E-01  8.00000000E-01  1.50000000E+00  8.00000000E-01  8.00000000E-01
  1.50000000E+00  8.00000000E-01  8.00000000E-01  1.50000000E+00  8.00000000E-01
  8.00000000E-01  1.50000000E+00  8.00000000E-01  8.00000000E-01  1.50000000E+00
  8.00000000E-01  8.00000000E-01  1.50000000E+00  8.00000000E-01  8.00000000E-01
  1.50000000E+00  8.00000000E-01  8.00000000E-01  1.50000000E+00  8.00000000E-01
  8.00000000E-01  1.50000000E+00  8.00000000E-01  8.00000000E-01  1.50000000E+00
  8.00000000E-01  8.00000000E-01  1.50000000E+00  8.00000000E-01  8.00000000E-01
  1.50000000E+00  8.00000000E-01  8.00000000E-01  1.50000000E+00  8.00000000E-01
  8.00000000E-01  1.50000000E+00  8.00000000E-01  8.00000000E-01  1.50000000E+00
  8.00000000E-01  8.00000000E-01  1.50000000E+00  8.00000000E-01  8.00000000E-01
  1.50000000E+00  8.00000000E-01  8.00000000E-01  1.50000000E+00  8.00000000E-01
  8.00000000E-01  1.50000000E+00  8.00000000E-01  8.00000000E-01  1.50000000E+00
  8.00000000E-01  8.00000000E-01  1.50000000E+00  8.00000000E-01  8.00000000E-01
  1.50000000E+00  8.00000000E-01  8.00000000E-01  1.50000000E+00  8.00000000E-01
  8.00000000E-01  1.50000000E+00  8.00000000E-01  8.00000000E-01  1.50000000E+00
  8.00000000E-01  8.00000000E-01  1.50000000E+00  8.00000000E-01  8.00000000E-01
  1.50000000E+00  8.00000000E-01  8.00000000E-01  1.50000000E+00  8.00000000E-01
  8.00000000E-01  1.50000000E+00  8.00000000E-01  8.00000000E-01  1.50000000E+00
  8.00000000E-01  8.00000000E-01  1.50000000E+00  8.00000000E-01  8.00000000E-01
  1.50000000E+00  8.00000000E-01  8.00000000E-01  1.50000000E+00  8.00000000E-01
  8.00000000E-01  1.50000000E+00  8.00000000E-01  8.00000000E-01  1.50000000E+00
  8.00000000E-01  8.00000000E-01  1.50000000E+00  8.00000000E-01  8.00000000E-01
  1.50000000E+00  8.00000000E-01  8.00000000E-01  1.50000000E+00  8.00000000E-01
  8.00000000E-01  1.50000000E+00  8.00000000E-01  8.00000000E-01  1.50000000E+00
  8.00000000E-01  8.00000000E-01  1.50000000E+00  8.00000000E-01  8.00000000E-01
  1.50000000E+00  8.00000000E-01  8.00000000E-01  1.50000000E+00  8.00000000E-01
  8.00000000E-01  1.50000000E+00  8.00000000E-01  8.00000000E-01  1.50000000E+00
  8.00000000E-01  8.00000000E-01  1.50000000E+00  8.00000000E-01  8.00000000E-01
  1.50000000E+00  8.00000000E-01  8.00000000E-01  1.50000000E+00  8.00000000E-01
  8.00000000E-01  1.50000000E+00  8.00000000E-01  8.00000000E-01  1.50000000E+00
  8.00000000E-01  8.00000000E-01  1.50000000E+00  8.00000000E-01  8.00000000E-01
  1.50000000E+00  8.00000000E-01  8.00000000E-01  1.50000000E+00  8.00000000E-01
  8.00000000E-01  1.50000000E+00  8.00000000E-01  8.00000000E-01  1.50000000E+00
  8.00000000E-01  8.00000000E-01  1.50000000E+00  8.00000000E-01  8.00000000E-01
  1.50000000E+00  8.00000000E-01  8.00000000E-01  1.50000000E+00  8.00000000E-01
  8.00000000E-01  1.50000000E+00  8.00000000E-01  8.00000000E-01  1.50000000E+00
  8.00000000E-01  8.00000000E-01  1.50000000E+00  8.00000000E-01  8.00000000E-01
  1.50000000E+00  8.00000000E-01  8.00000000E-01  1.50000000E+00  8.00000000E-01
  8.00000000E-01  1.50000000E+00  8.00000000E-01  8.00000000E-01  1.50000000E+00
  8.00000000E-01  8.00000000E-01  1.50000000E+00  8.00000000E-01  8.00000000E-01
  1.50000000E+00  8.00000000E-01  8.00000000E-01  1.50000000E+00  8.00000000E-01
  8.00000000E-01  1.50000000E+00  8.00000000E-01  8.00000000E-01  1.50000000E+00
  8.00000000E-01  8.00000000E-01  1.50000000E+00  8.00000000E-01  8.00000000E-01
  1.50000000E+00  8.00000000E-01  8.00000000E-01  1.50000000E+00  8.00000000E-01
  8.00000000E-01  1.50000000E+00  8.00000000E-01  8.00000000E-01  1.50000000E+00
  8.00000000E-01  8.00000000E-01  1.50000000E+00  8.00000000E-01  8.00000000E-01
  1.50000000E+00  8.00000000E-01  8.00000000E-01  1.50000000E+00  8.00000000E-01
  8.00000000E-01  1.50000000E+00  8.00000000E-01  8.00000000E-01  1.50000000E+00
  8.00000000E-01  8.00000000E-01  1.50000000E+00  8.00000000E-01  8.00000000E-01
  1.50000000E+00  8.00000000E-01  8.00000000E-01  1.50000000E+00  8.00000000E-01
  8.00000000E-01  1.50000000E+00  8.00000000E-01  8.00000000E-01  1.50000000E+00
  8.00000000E-01  8.00000000E-01  1.50000000E+00  8.00000000E-01  8.00000000E-01
  1.50000000E+00  8.00000000E-01  8.00000000E-01  1.50000000E+00  8.00000000E-01
  8.00000000E-01  1.50000000E+00  8.00000000E-01  8.00000000E-01  1.50000000E+00
  8.00000000E-01  8.00000000E-01  1.50000000E+00  8.00000000E-01  8.00000000E-01
  1.50000000E+00  8.00000000E-01  8.00000000E-01  1.50000000E+00  8.00000000E-01
  8.00000000E-01  1.50000000E+00  8.00000000E-01  8.00000000E-01  1.50000000E+00
  8.00000000E-01  8.00000000E-01  1.50000000E+00  8.00000000E-01  8.00000000E-01
  1.50000000E+00  8.00000000E-01  8.00000000E-01  1.50000000E+00  8.00000000E-01
  8.00000000E-01  1.50000000E+00  8.00000000E-01  8.00000000E-01  1.50000000E+00
  8.00000000E-01  8.00000000E-01  1.50000000E+00  8.00000000E-01  8.00000000E-01
  1.50000000E+00  8.00000000E-01  8.00000000E-01  1.50000000E+00  8.00000000E-01
  8.00000000E-01  1.50000000E+00  8.00000000E-01  8.00000000E-01  1.50000000E+00
  8.00000000E-01  8.00000000E-01  1.50000000E+00  8.00000000E-01  8.00000000E-01
  1.50000000E+00  8.00000000E-01  8.00000000E-01  1.50000000E+00  8.00000000E-01
  8.00000000E-01  1.50000000E+00  8.00000000E-01  8.00000000E-01  1.50000000E+00
  8.00000000E-01  8.00000000E-01  1.50000000E+00  8.00000000E-01  8.00000000E-01
  1.50000000E+00  8.00000000E-01  8.00000000E-01  1.50000000E+00  8.00000000E-01
  8.00000000E-01  1.50000000E+00  8.00000000E-01  8.00000000E-01  1.50000000E+00
  8.00000000E-01  8.00000000E-01  1.50000000E+00  8.00000000E-01  8.00000000E-01
  1.50000000E+00  8.00000000E-01  8.00000000E-01  1.50000000E+00  8.00000000E-01
  8.00000000E-01  1.50000000E+00  8.00000000E-01  8.00000000E-01  1.50000000E+00
  8.00000000E-01  8.00000000E-01  1.50000000E+00  8.00000000E-01  8.00000000E-01
  1.50000000E+00  8.00000000E-01  8.00000000E-01  1.50000000E+00  8.00000000E-01
  8.00000000E-01  1.50000000E+00  8.00000000E-01  8.00000000E-01  1.50000000E+00
  8.00000000E-01  8.00000000E-01  1.50000000E+00  8.00000000E-01  8.00000000E-01
  1.50000000E+00  8.00000000E-01  8.00000000E-01  1.50000000E+00  8.00000000E-01
  8.00000000E-01  1.50000000E+00  8.00000000E-01  8.00000000E-01  1.50000000E+00
  8.00000000E-01  8.00000000E-01  1.50000000E+00  8.00000000E-01  8.00000000E-01
  1.50000000E+00  8.00000000E-01  8.00000000E-01  1.50000000E+00  8.00000000E-01
  8.00000000E-01  1.50000000E+00  8.00000000E-01  8.00000000E-01  1.50000000E+00
  8.00000000E-01  8.00000000E-01  1.50000000E+00  8.00000000E-01  8.00000000E-01
  1.50000000E+00  8.00000000E-01  8.00000000E-01  1.50000000E+00  8.00000000E-01
  8.00000000E-01  1.50000000E+00  8.00000000E-01  8.00000000E-01  1.50000000E+00
  8.00000000E-01  8.00000000E-01  1.50000000E+00  8.00000000E-01  8.00000000E-01
  1.50000000E+00  8.00000000E-01  8.00000000E-01  1.50000000E+00  8.00000000E-01
  8.00000000E-01  1.50000000E+00  8.00000000E-01  8.00000000E-01  1.50000000E+00
  8.00000000E-01  8.00000000E-01  1.50000000E+00  8.00000000E-01  8.00000000E-01
  1.50000000E+00  8.00000000E-01  8.00000000E-01  1.50000000E+00  8.00000000E-01
  8.00000000E-01  1.50000000E+00  8.00000000E-01  8.00000000E-01  1.50000000E+00
  8.00000000E-01  8.00000000E-01  1.50000000E+00  8.00000000E-01  8.00000000E-01
  1.50000000E+00  8.00000000E-01  8.00000000E-01  1.50000000E+00  8.00000000E-01
  8.00000000E-01  1.50000000E+00  8.00000000E-01  8.00000000E-01  1.50000000E+00
  8.00000000E-01  8.00000000E-01  1.50000000E+00  8.00000000E-01  8.00000000E-01
  1.50000000E+00  8.00000000E-01  8.00000000E-01  1.50000000E+00  8.00000000E-01
  8.00000000E-01  1.50000000E+00  8.00000000E-01  8.00000000E-01  1.50000000E+00
  8.00000000E-01  8.00000000E-01  1.50000000E+00  8.00000000E-01  8.00000000E-01
  1.50000000E+00  8.00000000E-01  8.00000000E-01  1.50000000E+00  8.00000000E-01
  8.00000000E-01  1.50000000E+00  8.00000000E-01  8.00000000E-01  1.50000000E+00
  8.00000000E-01  8.00000000E-01  1.50000000E+00  8.00000000E-01  8.00000000E-01
  1.50000000E+00  8.00000000E-01  8.00000000E-01  1.50000000E+00  8.00000000E-01
  8.00000000E-01  1.50000000E+00  8.00000000E-01  8.00000000E-01  1.50000000E+00
  8.00000000E-01  8.00000000E-01  1.50000000E+00  8.00000000E-01  8.00000000E-01
  1.50000000E+00  8.00000000E-01  8.00000000E-01  1.50000000E+00  8.00000000E-01
  8.00000000E-01  1.50000000E+00  8.00000000E-01  8.00000000E-01  1.50000000E+00
  8.00000000E-01  8.00000000E-01  1.50000000E+00  8.00000000E-01  8.00000000E-01
  1.50000000E+00  8.00000000E-01  8.00000000E-01  1.50000000E+00  8.00000000E-01
  8.00000000E-01  1.50000000E+00  8.00000000E-01  8.00000000E-01  1.50000000E+00
  8.00000000E-01  8.00000000E-01  1.50000000E+00  8.00000000E-01  8.00000000E-01
  1.50000000E+00  8.00000000E-01  8.00000000E-01  1.50000000E+00  8.00000000E-01
  8.00000000E-01  1.50000000E+00  8.00000000E-01  8.00000000E-01  1.50000000E+00
  8.00000000E-01  8.00000000E-01  1.50000000E+00  8.00000000E-01  8.00000000E-01
  1.50000000E+00  8.00000000E-01  8.00000000E-01  1.50000000E+00  8.00000000E-01
  8.00000000E-01  1.50000000E+00  8.00000000E-01  8.00000000E-01  1.50000000E+00
  8.00000000E-01  8.00000000E-01  1.50000000E+00  8.00000000E-01  8.00000000E-01
  1.50000000E+00  8.00000000E-01  8.00000000E-01  1.50000000E+00  8.00000000E-01
  8.00000000E-01  1.50000000E+00  8.00000000E-01  8.00000000E-01  1.50000000E+00
  8.00000000E-01  8.00000000E-01  1.50000000E+00  8.00000000E-01  8.00000000E-01
  1.50000000E+00  8.00000000E-01  8.00000000E-01  1.50000000E+00  8.00000000E-01
  8.00000000E-01  1.50000000E+00  8.00000000E-01  8.00000000E-01  1.50000000E+00
  8.00000000E-01  8.00000000E-01  1.50000000E+00  8.00000000E-01  8.00000000E-01
  1.50000000E+00  8.00000000E-01  8.00000000E-01  1.50000000E+00  8.00000000E-01
  8.00000000E-01  1.50000000E+00  8.00000000E-01  8.00000000E-01  1.50000000E+00
  8.00000000E-01  8.00000000E-01  1.50000000E+00  8.00000000E-01  8.00000000E-01
  1.50000000E+00  8.00000000E-01  8.00000000E-01  1.50000000E+00  8.00000000E-01
  8.00000000E-01  1.50000000E+00  8.00000000E-01  8.00000000E-01  1.50000000E+00
  8.00000000E-01  8.00000000E-01  1.50000000E+00  8.00000000E-01  8.00000000E-01
  1.50000000E+00  8.00000000E-01  8.00000000E-01  1.50000000E+00  8.00000000E-01
  8.00000000E-01  1.50000000E+00  8.00000000E-01  8.00000000E-01  1.50000000E+00
  8.00000000E-01  8.00000000E-01  1.50000000E+00  8.00000000E-01  8.00000000E-01
  1.50000000E+00  8.00000000E-01  8.00000000E-01  1.50000000E+00  8.00000000E-01
  8.00000000E-01  1.50000000E+00  8.00000000E-01  8.00000000E-01  1.50000000E+00
  8.00000000E-01  8.00000000E-01  1.50000000E+00  8.00000000E-01  8.00000000E-01
  1.50000000E+00  8.00000000E-01  8.00000000E-01  1.50000000E+00  8.00000000E-01
  8.00000000E-01  1.50000000E+00  8.00000000E-01  8.00000000E-01  1.50000000E+00
  8.00000000E-01  8.00000000E-01  1.50000000E+00  8.00000000E-01  8.00000000E-01
  1.50000000E+00  8.00000000E-01  8.00000000E-01  1.50000000E+00  8.00000000E-01
  8.00000000E-01  1.50000000E+00  8.00000000E-01  8.00000000E-01  1.50000000E+00
  8.00000000E-01  8.00000000E-01  1.50000000E+00  8.00000000E-01  8.00000000E-01
  1.50000000E+00  8.00000000E-01  8.00000000E-01  1.50000000E+00  8.00000000E-01
  8.00000000E-01  1.50000000E+00  8.00000000E-01  8.00000000E-01  1.50000000E+00
  8.00000000E-01  8.00000000E-01  1.50000000E+00  8.00000000E-01  8.00000000E-01
  1.50000000E+00  8.00000000E-01  8.00000000E-01  1.50000000E+00  8.00000000E-01
  8.00000000E-01  1.50000000E+00  8.00000000E-01  8.00000000E-01  1.50000000E+00
  8.00000000E-01  8.00000000E-01  1.50000000E+00  8.00000000E-01  8.00000000E-01
  1.50000000E+00  8.00000000E-01  8.00000000E-01  1.50000000E+00  8.00000000E-01
  8.00000000E-01  1.50000000E+00  8.00000000E-01  8.00000000E-01  1.50000000E+00
  8.00000000E-01  8.00000000E-01  1.50000000E+00  8.00000000E-01  8.00000000E-01
  1.50000000E+00  8.00000000E-01  8.00000000E-01  1.50000000E+00  8.00000000E-01
  8.00000000E-01  1.50000000E+00  8.00000000E-01  8.00000000E-01  1.50000000E+00
  8.00000000E-01  8.00000000E-01  1.50000000E+00  8.00000000E-01  8.00000000E-01
  1.50000000E+00  8.00000000E-01  8.00000000E-01  1.50000000E+00  8.00000000E-01
  8.00000000E-01  1.50000000E+00  8.00000000E-01  8.00000000E-01  1.50000000E+00
  8.00000000E-01  8.00000000E-01  1.50000000E+00  8.00000000E-01  8.00000000E-01
  1.50000000E+00  8.00000000E-01  8.00000000E-01  1.50000000E+00  8.00000000E-01
  8.00000000E-01  1.50000000E+00  8.00000000E-01  8.00000000E-01  1.50000000E+00
  8.00000000E-01  8.00000000E-01  1.50000000E+00  8.00000000E-01  8.00000000E-01
  1.50000000E+00  8.00000000E-01  8.00000000E-01  1.50000000E+00  8.00000000E-01
  8.00000000E-01  1.50000000E+00  8.00000000E-01  8.00000000E-01  1.50000000E+00
  8.00000000E-01  8.00000000E-01  1.50000000E+00  8.00000000E-01  8.00000000E-01
  1.50000000E+00  8.00000000E-01  8.00000000E-01  1.50000000E+00  8.00000000E-01
  8.00000000E-01  1.50000000E+00  8.00000000E-01  8.00000000E-01  1.50000000E+00
  8.00000000E-01  8.00000000E-01  1.50000000E+00  8.00000000E-01  8.00000000E-01
  1.50000000E+00  8.00000000E-01  8.00000000E-01  1.50000000E+00  8.00000000E-01
  8.00000000E-01  1.50000000E+00  8.00000000E-01  8.00000000E-01  1.50000000E+00
  8.00000000E-01  8.00000000E-01  1.50000000E+00  8.00000000E-01  8.00000000E-01
  1.50000000E+00  8.00000000E-01  8.00000000E-01  1.50000000E+00  8.00000000E-01
  8.00000000E-01  1.50000000E+00  8.00000000E-01  8.00000000E-01  1.50000000E+00
  8.00000000E-01  8.00000000E-01  1.50000000E+00  8.00000000E-01  8.00000000E-01
  1.50000000E+00  8.00000000E-01  8.00000000E-01  1.50000000E+00  8.00000000E-01
  8.00000000E-01  1.50000000E+00  8.00000000E-01  8.00000000E-01  1.50000000E+00
  8.00000000E-01  8.00000000E-01  1.50000000E+00  8.00000000E-01  8.00000000E-01
  1.50000000E+00  8.00000000E-01  8.00000000E-01  1.50000000E+00  8.00000000E-01
  8.00000000E-01  1.50000000E+00  8.00000000E-01  8.00000000E-01  1.50000000E+00
  8.00000000E-01  8.00000000E-01  1.50000000E+00  8.00000000E-01  8.00000000E-01
  1.50000000E+00  8.00000000E-01  8.00000000E-01  1.50000000E+00  8.00000000E-01
  8.00000000E-01  1.50000000E+00  8.00000000E-01  8.00000000E-01  1.50000000E+00
  8.00000000E-01  8.00000000E-01  1.50000000E+00  8.00000000E-01  8.00000000E-01
  1.50000000E+00  8.00000000E-01  8.00000000E-01  1.50000000E+00  8.00000000E-01
  8.00000000E-01  1.50000000E+00  8.00000000E-01  8.00000000E-01  1.50000000E+00
  8.00000000E-01  8.00000000E-01  1.50000000E+00  8.00000000E-01  8.00000000E-01
  1.50000000E+00  8.00000000E-01  8.00000000E-01  1.50000000E+00  8.00000000E-01
  8.00000000E-01  1.50000000E+00  8.00000000E-01  8.00000000E-01  1.50000000E+00
  8.00000000E-01  8.00000000E-01  1.50000000E+00  8.00000000E-01  8.00000000E-01
  1.50000000E+00  8.00000000E-01  8.00000000E-01  1.50000000E+00  8.00000000E-01
  8.00000000E-01  1.50000000E+00  8.00000000E-01  8.00000000E-01  1.50000000E+00
  8.00000000E-01  8.00000000E-01  1.50000000E+00  8.00000000E-01  8.00000000E-01
  1.50000000E+00  8.00000000E-01  8.00000000E-01  1.50000000E+00  8.00000000E-01
  8.00000000E-01  1.50000000E+00  8.00000000E-01  8.00000000E-01  1.50000000E+00
  8.00000000E-01  8.00000000E-01  1.50000000E+00  8.00000000E-01  8.00000000E-01
  1.50000000E+00  8.00000000E-01  8.00000000E-01  1.50000000E+00  8.00000000E-01
  8.00000000E-01  1.50000000E+00  8.00000000E-01  8.00000000E-01  1.50000000E+00
  8.00000000E-01  8.00000000E-01  1.50000000E+00  8.00000000E-01  8.00000000E-01
  1.50000000E+00  8.00000000E-01  8.00000000E-01  1.50000000E+00  8.00000000E-01
  8.00000000E-01  1.50000000E+00  8.00000000E-01  8.00000000E-01  1.50000000E+00
  8.00000000E-01  8.00000000E-01  1.50000000E+00  8.00000000E-01  8.00000000E-01
  1.50000000E+00  8.00000000E-01  8.00000000E-01  1.50000000E+00  8.00000000E-01
  8.00000000E-01  1.50000000E+00  8.00000000E-01  8.00000000E-01  1.50000000E+00
  8.00000000E-01  8.00000000E-01  1.50000000E+00  8.00000000E-01  8.00000000E-01
  1.50000000E+00  8.00000000E-01  8.00000000E-01  1.50000000E+00  8.00000000E-01
  8.00000000E-01  1.50000000E+00  8.00000000E-01  8.00000000E-01  1.50000000E+00
  8.00000000E-01  8.00000000E-01  1.50000000E+00  8.00000000E-01  8.00000000E-01
  1.50000000E+00  8.00000000E-01  8.00000000E-01  1.50000000E+00  8.00000000E-01
  8.00000000E-01  1.50000000E+00  8.00000000E-01  8.00000000E-01  1.50000000E+00
  8.00000000E-01  8.00000000E-01  1.50000000E+00  8.00000000E-01  8.00000000E-01
  1.50000000E+00  8.00000000E-01  8.00000000E-01  1.50000000E+00  8.00000000E-01
  8.00000000E-01  1.50000000E+00  8.00000000E-01  8.00000000E-01  1.50000000E+00
  8.00000000E-01  8.00000000E-01  1.50000000E+00  8.00000000E-01  8.00000000E-01
  1.50000000E+00  8.00000000E-01  8.00000000E-01  1.50000000E+00  8.00000000E-01
  8.00000000E-01  1.50000000E+00  8.00000000E-01  8.00000000E-01  1.50000000E+00
  8.00000000E-01  8.00000000E-01  1.50000000E+00  8.00000000E-01  8.00000000E-01
  1.50000000E+00  8.00000000E-01  8.00000000E-01  1.50000000E+00  8.00000000E-01
  8.00000000E-01  1.50000000E+00  8.00000000E-01  8.00000000E-01  1.50000000E+00
  8.00000000E-01  8.00000000E-01  1.50000000E+00  8.00000000E-01  8.00000000E-01
  1.50000000E+00  8.00000000E-01  8.00000000E-01  1.50000000E+00  8.00000000E-01
  8.00000000E-01  1.50000000E+00  8.00000000E-01  8.00000000E-01  1.50000000E+00
  8.00000000E-01  8.00000000E-01  1.50000000E+00  8.00000000E-01  8.00000000E-01
  1.50000000E+00  8.00000000E-01  8.00000000E-01  1.50000000E+00  8.00000000E-01
  8.00000000E-01  1.50000000E+00  8.00000000E-01  8.00000000E-01  1.50000000E+00
  8.00000000E-01  8.00000000E-01  1.50000000E+00  8.00000000E-01  8.00000000E-01
  1.50000000E+00  8.00000000E-01  8.00000000E-01  1.50000000E+00  8.00000000E-01
  8.00000000E-01  1.50000000E+00  8.00000000E-01  8.00000000E-01  1.50000000E+00
  8.00000000E-01  8.00000000E-01  1.50000000E+00  8.00000000E-01  8.00000000E-01
  1.50000000E+00  8.00000000E-01  8.00000000E-01  1.50000000E+00  8.00000000E-01
  8.00000000E-01  1.50000000E+00  8.00000000E-01  8.00000000E-01  1.50000000E+00
  8.00000000E-01  8.00000000E-01  1.50000000E+00  8.00000000E-01  8.00000000E-01
  1.50000000E+00  8.00000000E-01  8.00000000E-01  1.50000000E+00  8.00000000E-01
  8.00000000E-01  1.50000000E+00  8.00000000E-01  8.00000000E-01  1.50000000E+00
  8.00000000E-01  8.00000000E-01  1.50000000E+00  8.00000000E-01  8.00000000E-01
  1.50000000E+00  8.00000000E-01  8.00000000E-01  1.50000000E+00  8.00000000E-01
  8.00000000E-01  1.50000000E+00  8.00000000E-01  8.00000000E-01  1.50000000E+00
  8.00000000E-01  8.00000000E-01  1.50000000E+00  8.00000000E-01  8.00000000E-01
  1.50000000E+00  8.00000000E-01  8.00000000E-01  1.50000000E+00  8.00000000E-01
  8.00000000E-01  1.50000000E+00  8.00000000E-01  8.00000000E-01  1.50000000E+00
  8.00000000E-01  8.00000000E-01  1.50000000E+00  8.00000000E-01  8.00000000E-01
  1.50000000E+00  8.00000000E-01  8.00000000E-01  1.50000000E+00  8.00000000E-01
  8.00000000E-01  1.50000000E+00  8.00000000E-01  8.00000000E-01  1.50000000E+00
  8.00000000E-01  8.00000000E-01  1.50000000E+00  8.00000000E-01  8.00000000E-01
  1.50000000E+00  8.00000000E-01  8.00000000E-01  1.50000000E+00  8.00000000E-01
  8.00000000E-01  1.50000000E+00  8.00000000E-01  8.00000000E-01  1.50000000E+00
  8.00000000E-01  8.00000000E-01  1.50000000E+00  8.00000000E-01  8.00000000E-01
  1.50000000E+00  8.00000000E-01  8.00000000E-01  1.50000000E+00  8.00000000E-01
  8.00000000E-01  1.50000000E+00  8.00000000E-01  8.00000000E-01  1.50000000E+00
  8.00000000E-01  8.00000000E-01  1.50000000E+00  8.00000000E-01  8.00000000E-01
  1.50000000E+00  8.00000000E-01  8.00000000E-01  1.50000000E+00  8.00000000E-01
  8.00000000E-01  1.50000000E+00  8.00000000E-01  8.00000000E-01  1.50000000E+00
  8.00000000E-01  8.00000000E-01  1.50000000E+00  8.00000000E-01  8.00000000E-01
  1.50000000E+00  8.00000000E-01  8.00000000E-01  1.50000000E+00  8.00000000E-01
  8.00000000E-01  1.50000000E+00  8.00000000E-01  8.00000000E-01  1.50000000E+00
  8.00000000E-01  8.00000000E-01  1.50000000E+00  8.00000000E-01  8.00000000E-01
  1.50000000E+00  8.00000000E-01  8.00000000E-01  1.50000000E+00  8.00000000E-01
  8.00000000E-01  1.50000000E+00  8.00000000E-01  8.00000000E-01  1.50000000E+00
  8.00000000E-01  8.00000000E-01  1.50000000E+00  8.00000000E-01  8.00000000E-01
  1.50000000E+00  8.00000000E-01  8.00000000E-01  1.50000000E+00  8.00000000E-01
  8.00000000E-01  1.50000000E+00  8.00000000E-01  8.00000000E-01  1.50000000E+00
  8.00000000E-01  8.00000000E-01  1.50000000E+00  8.00000000E-01  8.00000000E-01
  1.50000000E+00  8.00000000E-01  8.00000000E-01  1.50000000E+00  8.00000000E-01
  8.00000000E-01  1.50000000E+00  8.00000000E-01  8.00000000E-01  1.50000000E+00
  8.00000000E-01  8.00000000E-01  1.50000000E+00  8.00000000E-01  8.00000000E-01
  1.50000000E+00  8.00000000E-01  8.00000000E-01  1.50000000E+00  8.00000000E-01
  8.00000000E-01  1.50000000E+00  8.00000000E-01  8.00000000E-01  1.50000000E+00
  8.00000000E-01  8.00000000E-01  1.50000000E+00  8.00000000E-01  8.00000000E-01
  1.50000000E+00  8.00000000E-01  8.00000000E-01  1.50000000E+00  8.00000000E-01
  8.00000000E-01  1.50000000E+00  8.00000000E-01  8.00000000E-01  1.50000000E+00
  8.00000000E-01  8.00000000E-01  1.50000000E+00  8.00000000E-01  8.00000000E-01
  1.50000000E+00  8.00000000E-01  8.00000000E-01  1.50000000E+00  8.00000000E-01
  8.00000000E-01  1.50000000E+00  8.00000000E-01  8.00000000E-01  1.50000000E+00
  8.00000000E-01  8.00000000E-01  1.50000000E+00  8.00000000E-01  8.00000000E-01
  1.50000000E+00  8.00000000E-01  8.00000000E-01  1.50000000E+00  8.00000000E-01
  8.00000000E-01  1.50000000E+00  8.00000000E-01  8.00000000E-01  1.50000000E+00
  8.00000000E-01  8.00000000E-01  1.50000000E+00  8.00000000E-01  8.00000000E-01
  1.50000000E+00  8.00000000E-01  8.00000000E-01  1.50000000E+00  8.00000000E-01
  8.00000000E-01  1.50000000E+00  8.00000000E-01  8.00000000E-01  1.50000000E+00
  8.00000000E-01  8.00000000E-01  1.50000000E+00  8.00000000E-01  8.00000000E-01
  1.50000000E+00  8.00000000E-01  8.00000000E-01  1.50000000E+00  8.00000000E-01
  8.00000000E-01  1.50000000E+00  8.00000000E-01  8.00000000E-01  1.50000000E+00
  8.00000000E-01  8.00000000E-01  1.50000000E+00  8.00000000E-01  8.00000000E-01
  1.50000000E+00  8.00000000E-01  8.00000000E-01  1.50000000E+00  8.00000000E-01
  8.00000000E-01  1.50000000E+00  8.00000000E-01  8.00000000E-01  1.50000000E+00
  8.00000000E-01  8.00000000E-01  1.50000000E+00  8.00000000E-01  8.00000000E-01
  1.50000000E+00  8.00000000E-01  8.00000000E-01  1.50000000E+00  8.00000000E-01
  8.00000000E-01  1.50000000E+00  8.00000000E-01  8.00000000E-01  1.50000000E+00
  8.00000000E-01  8.00000000E-01  1.50000000E+00  8.00000000E-01  8.00000000E-01
  1.50000000E+00  8.00000000E-01  8.00000000E-01  1.50000000E+00  8.00000000E-01
  8.00000000E-01  1.50000000E+00  8.00000000E-01  8.00000000E-01  1.50000000E+00
  8.00000000E-01  8.00000000E-01  1.50000000E+00  8.00000000E-01  8.00000000E-01
  1.50000000E+00  8.00000000E-01  8.00000000E-01  1.50000000E+00  8.00000000E-01
  8.00000000E-01  1.50000000E+00  8.00000000E-01  8.00000000E-01  1.50000000E+00
  8.00000000E-01  8.00000000E-01  1.50000000E+00  8.00000000E-01  8.00000000E-01
  1.50000000E+00  8.00000000E-01  8.00000000E-01  1.50000000E+00  8.00000000E-01
  8.00000000E-01  1.50000000E+00  8.00000000E-01  8.00000000E-01  1.50000000E+00
  8.00000000E-01  8.00000000E-01  1.50000000E+00  8.00000000E-01  8.00000000E-01
  1.50000000E+00  8.00000000E-01  8.00000000E-01  1.50000000E+00  8.00000000E-01
  8.00000000E-01  1.50000000E+00  8.00000000E-01  8.00000000E-01  1.50000000E+00
  8.00000000E-01  8.00000000E-01  1.50000000E+00  8.00000000E-01  8.00000000E-01
  1.50000000E+00  8.00000000E-01  8.00000000E-01  1.50000000E+00  8.00000000E-01
  8.00000000E-01  1.50000000E+00  8.00000000E-01  8.00000000E-01  1.50000000E+00
  8.00000000E-01  8.00000000E-01  1.50000000E+00  8.00000000E-01  8.00000000E-01
  1.50000000E+00  8.00000000E-01  8.00000000E-01  1.50000000E+00  8.00000000E-01
  8.00000000E-01  1.50000000E+00  8.00000000E-01  8.00000000E-01  1.50000000E+00
  8.00000000E-01  8.00000000E-01  1.50000000E+00  8.00000000E-01  8.00000000E-01
  1.50000000E+00  8.00000000E-01  8.00000000E-01  1.50000000E+00  8.00000000E-01
  8.00000000E-01  1.50000000E+00  8.00000000E-01  8.00000000E-01  1.50000000E+00
  8.00000000E-01  8.00000000E-01  1.50000000E+00  8.00000000E-01  8.00000000E-01
  1.50000000E+00  8.00000000E-01  8.00000000E-01  1.50000000E+00  8.00000000E-01
  8.00000000E-01  1.50000000E+00  8.00000000E-01  8.00000000E-01  1.50000000E+00
  8.00000000E-01  8.00000000E-01  1.50000000E+00  8.00000000E-01  8.00000000E-01
  1.50000000E+00  8.00000000E-01  8.00000000E-01  1.50000000E+00  8.00000000E-01
  8.00000000E-01  1.50000000E+00  8.00000000E-01  8.00000000E-01  1.50000000E+00
  8.00000000E-01  8.00000000E-01  1.50000000E+00  8.00000000E-01  8.00000000E-01
  1.50000000E+00  8.00000000E-01  8.00000000E-01  1.50000000E+00  8.00000000E-01
  8.00000000E-01  1.50000000E+00  8.00000000E-01  8.00000000E-01  1.50000000E+00
  8.00000000E-01  8.00000000E-01  1.50000000E+00  8.00000000E-01  8.00000000E-01
  1.50000000E+00  8.00000000E-01  8.00000000E-01  1.50000000E+00  8.00000000E-01
  8.00000000E-01  1.50000000E+00  8.00000000E-01  8.00000000E-01  1.50000000E+00
  8.00000000E-01  8.00000000E-01  1.50000000E+00  8.00000000E-01  8.00000000E-01
  1.50000000E+00  8.00000000E-01  8.00000000E-01  1.50000000E+00  8.00000000E-01
  8.00000000E-01  1.50000000E+00  8.00000000E-01  8.00000000E-01  1.50000000E+00
  8.00000000E-01  8.00000000E-01  1.50000000E+00  8.00000000E-01  8.00000000E-01
  1.50000000E+00  8.00000000E-01  8.00000000E-01  1.50000000E+00  8.00000000E-01
  8.00000000E-01  1.50000000E+00  8.00000000E-01  8.00000000E-01  1.50000000E+00
  8.00000000E-01  8.00000000E-01  1.50000000E+00  8.00000000E-01  8.00000000E-01
  1.50000000E+00  8.00000000E-01  8.00000000E-01  1.50000000E+00  8.00000000E-01
  8.00000000E-01  1.50000000E+00  8.00000000E-01  8.00000000E-01  1.50000000E+00
  8.00000000E-01  8.00000000E-01  1.50000000E+00  8.00000000E-01  8.00000000E-01
  1.50000000E+00  8.00000000E-01  8.00000000E-01  1.50000000E+00  8.00000000E-01
  8.00000000E-01  1.50000000E+00  8.00000000E-01  8.00000000E-01  1.50000000E+00
  8.00000000E-01  8.00000000E-01  1.50000000E+00  8.00000000E-01  8.00000000E-01
  1.50000000E+00  8.00000000E-01  8.00000000E-01  1.50000000E+00  8.00000000E-01
  8.00000000E-01  1.50000000E+00  8.00000000E-01  8.00000000E-01  1.50000000E+00
  8.00000000E-01  8.00000000E-01  1.50000000E+00  8.00000000E-01  8.00000000E-01
  1.50000000E+00  8.00000000E-01  8.00000000E-01  1.50000000E+00  8.00000000E-01
  8.00000000E-01  1.50000000E+00  8.00000000E-01  8.00000000E-01  1.50000000E+00
  8.00000000E-01  8.00000000E-01  1.50000000E+00  8.00000000E-01  8.00000000E-01
  1.50000000E+00  8.00000000E-01  8.00000000E-01  1.50000000E+00  8.00000000E-01
  8.00000000E-01  1.50000000E+00  8.00000000E-01  8.00000000E-01  1.50000000E+00
  8.00000000E-01  8.00000000E-01  1.50000000E+00  8.00000000E-01  8.00000000E-01
  1.50000000E+00  8.00000000E-01  8.00000000E-01  1.50000000E+00  8.00000000E-01
  8.00000000E-01  1.50000000E+00  8.00000000E-01  8.00000000E-01  1.50000000E+00
  8.00000000E-01  8.00000000E-01  1.50000000E+00  8.00000000E-01  8.00000000E-01
  1.50000000E+00  8.00000000E-01  8.00000000E-01  1.50000000E+00  8.00000000E-01
  8.00000000E-01  1.50000000E+00  8.00000000E-01  8.00000000E-01  1.50000000E+00
  8.00000000E-01  8.00000000E-01  1.50000000E+00  8.00000000E-01  8.00000000E-01
  1.50000000E+00  8.00000000E-01  8.00000000E-01  1.50000000E+00  8.00000000E-01
  8.00000000E-01  1.50000000E+00  8.00000000E-01  8.00000000E-01  1.50000000E+00
  8.00000000E-01  8.00000000E-01  1.50000000E+00  8.00000000E-01  8.00000000E-01
  1.50000000E+00  8.00000000E-01  8.00000000E-01  1.50000000E+00  8.00000000E-01
  8.00000000E-01  1.50000000E+00  8.00000000E-01  8.00000000E-01  1.50000000E+00
  8.00000000E-01  8.00000000E-01  1.50000000E+00  8.00000000E-01  8.00000000E-01
  1.50000000E+00  8.00000000E-01  8.00000000E-01  1.50000000E+00  8.00000000E-01
  8.00000000E-01  1.50000000E+00  8.00000000E-01  8.00000000E-01  1.50000000E+00
  8.00000000E-01  8.00000000E-01  1.50000000E+00  8.00000000E-01  8.00000000E-01
  1.50000000E+00  8.00000000E-01  8.00000000E-01  1.50000000E+00  8.00000000E-01
  8.00000000E-01  1.50000000E+00  8.00000000E-01  8.00000000E-01  1.50000000E+00
  8.00000000E-01  8.00000000E-01  1.50000000E+00  8.00000000E-01  8.00000000E-01
  1.50000000E+00  8.00000000E-01  8.00000000E-01  1.50000000E+00  8.00000000E-01
  8.00000000E-01  1.50000000E+00  8.00000000E-01  8.00000000E-01  1.50000000E+00
  8.00000000E-01  8.00000000E-01  1.50000000E+00  8.00000000E-01  8.00000000E-01
  1.50000000E+00  8.00000000E-01  8.00000000E-01  1.50000000E+00  8.00000000E-01
  8.00000000E-01  1.50000000E+00  8.00000000E-01  8.00000000E-01  1.50000000E+00
  8.00000000E-01  8.00000000E-01  1.50000000E+00  8.00000000E-01  8.00000000E-01
  1.50000000E+00  8.00000000E-01  8.00000000E-01  1.50000000E+00  8.00000000E-01
  8.00000000E-01  1.50000000E+00  8.00000000E-01  8.00000000E-01  1.50000000E+00
  8.00000000E-01  8.00000000E-01  1.50000000E+00  8.00000000E-01  8.00000000E-01
  1.50000000E+00  8.00000000E-01  8.00000000E-01  1.50000000E+00  8.00000000E-01
  8.00000000E-01  1.50000000E+00  8.00000000E-01  8.00000000E-01  1.50000000E+00
  8.00000000E-01  8.00000000E-01  1.50000000E+00  8.00000000E-01  8.00000000E-01
  1.50000000E+00  8.00000000E-01  8.00000000E-01  1.50000000E+00  8.00000000E-01
  8.00000000E-01  1.50000000E+00  8.00000000E-01  8.00000000E-01  1.50000000E+00
  8.00000000E-01  8.00000000E-01  1.50000000E+00  8.00000000E-01  8.00000000E-01
  1.50000000E+00  8.00000000E-01  8.00000000E-01  1.50000000E+00  8.00000000E-01
  8.00000000E-01  1.50000000E+00  8.00000000E-01  8.00000000E-01  1.50000000E+00
  8.00000000E-01  8.00000000E-01  1.50000000E+00  8.00000000E-01  8.00000000E-01
  1.50000000E+00  8.00000000E-01  8.00000000E-01  1.50000000E+00  8.00000000E-01
  8.00000000E-01  1.50000000E+00  8.00000000E-01  8.00000000E-01  1.50000000E+00
  8.00000000E-01  8.00000000E-01  1.50000000E+00  8.00000000E-01  8.00000000E-01
  1.50000000E+00  8.00000000E-01  8.00000000E-01  1.50000000E+00  8.00000000E-01
  8.00000000E-01  1.50000000E+00  8.00000000E-01  8.00000000E-01  1.50000000E+00
  8.00000000E-01  8.00000000E-01  1.50000000E+00  8.00000000E-01  8.00000000E-01
  1.50000000E+00  8.00000000E-01  8.00000000E-01  1.50000000E+00  8.00000000E-01
  8.00000000E-01  1.50000000E+00  8.00000000E-01  8.00000000E-01  1.50000000E+00
  8.00000000E-01  8.00000000E-01  1.50000000E+00  8.00000000E-01  8.00000000E-01
  1.50000000E+00  8.00000000E-01  8.00000000E-01  1.50000000E+00  8.00000000E-01
  8.00000000E-01  1.50000000E+00  8.00000000E-01  8.00000000E-01  1.50000000E+00
  8.00000000E-01  8.00000000E-01  1.50000000E+00  8.00000000E-01  8.00000000E-01
  1.50000000E+00  8.00000000E-01  8.00000000E-01  1.50000000E+00  8.00000000E-01
  8.00000000E-01  1.50000000E+00  8.00000000E-01  8.00000000E-01  1.50000000E+00
  8.00000000E-01  8.00000000E-01  1.50000000E+00  8.00000000E-01  8.00000000E-01
  1.50000000E+00  8.00000000E-01  8.00000000E-01  1.50000000E+00  8.00000000E-01
  8.00000000E-01  1.50000000E+00  8.00000000E-01  8.00000000E-01  1.50000000E+00
  8.00000000E-01  8.00000000E-01  1.50000000E+00  8.00000000E-01  8.00000000E-01
  1.50000000E+00  8.00000000E-01  8.00000000E-01  1.50000000E+00  8.00000000E-01
  8.00000000E-01  1.50000000E+00  8.00000000E-01  8.00000000E-01  1.50000000E+00
  8.00000000E-01  8.00000000E-01  1.50000000E+00  8.00000000E-01  8.00000000E-01
  1.50000000E+00  8.00000000E-01  8.00000000E-01  1.50000000E+00  8.00000000E-01
  8.00000000E-01  1.50000000E+00  8.00000000E-01  8.00000000E-01  1.50000000E+00
  8.00000000E-01  8.00000000E-01  1.50000000E+00  8.00000000E-01  8.00000000E-01
  1.50000000E+00  8.00000000E-01  8.00000000E-01  1.50000000E+00  8.00000000E-01
  8.00000000E-01  1.50000000E+00  8.00000000E-01  8.00000000E-01  1.50000000E+00
  8.00000000E-01  8.00000000E-01  1.50000000E+00  8.00000000E-01  8.00000000E-01
  1.50000000E+00  8.00000000E-01  8.00000000E-01  1.50000000E+00  8.00000000E-01
  8.00000000E-01  1.50000000E+00  8.00000000E-01  8.00000000E-01  1.50000000E+00
  8.00000000E-01  8.00000000E-01  1.50000000E+00  8.00000000E-01  8.00000000E-01
  1.50000000E+00  8.00000000E-01  8.00000000E-01  1.50000000E+00  8.00000000E-01
  8.00000000E-01  1.50000000E+00  8.00000000E-01  8.00000000E-01  1.50000000E+00
  8.00000000E-01  8.00000000E-01  1.50000000E+00  8.00000000E-01  8.00000000E-01
  1.50000000E+00  8.00000000E-01  8.00000000E-01  1.50000000E+00  8.00000000E-01
  8.00000000E-01  1.50000000E+00  8.00000000E-01  8.00000000E-01  1.50000000E+00
  8.00000000E-01  8.00000000E-01  1.50000000E+00  8.00000000E-01  8.00000000E-01
  1.50000000E+00  8.00000000E-01  8.00000000E-01  1.50000000E+00  8.00000000E-01
  8.00000000E-01  1.50000000E+00  8.00000000E-01  8.00000000E-01  1.50000000E+00
  8.00000000E-01  8.00000000E-01  1.50000000E+00  8.00000000E-01  8.00000000E-01
  1.50000000E+00  8.00000000E-01  8.00000000E-01  1.50000000E+00  8.00000000E-01
  8.00000000E-01  1.50000000E+00  8.00000000E-01  8.00000000E-01  1.50000000E+00
  8.00000000E-01  8.00000000E-01  1.50000000E+00  8.00000000E-01  8.00000000E-01
  1.50000000E+00  8.00000000E-01  8.00000000E-01  1.50000000E+00  8.00000000E-01
  8.00000000E-01  1.50000000E+00  8.00000000E-01  8.00000000E-01  1.50000000E+00
  8.00000000E-01  8.00000000E-01  1.50000000E+00  8.00000000E-01  8.00000000E-01
  1.50000000E+00  8.00000000E-01  8.00000000E-01  1.50000000E+00  8.00000000E-01
  8.00000000E-01  1.50000000E+00  8.00000000E-01  8.00000000E-01  1.50000000E+00
  8.00000000E-01  8.00000000E-01  1.50000000E+00  8.00000000E-01  8.00000000E-01
  1.50000000E+00  8.00000000E-01  8.00000000E-01  1.50000000E+00  8.00000000E-01
  8.00000000E-01  1.50000000E+00  8.00000000E-01  8.00000000E-01  1.50000000E+00
  8.00000000E-01  8.00000000E-01  1.50000000E+00  8.00000000E-01  8.00000000E-01
  1.50000000E+00  8.00000000E-01  8.00000000E-01  1.50000000E+00  8.00000000E-01
  8.00000000E-01  1.50000000E+00  8.00000000E-01  8.00000000E-01  1.50000000E+00
  8.00000000E-01  8.00000000E-01  1.50000000E+00  8.00000000E-01  8.00000000E-01
  1.50000000E+00  8.00000000E-01  8.00000000E-01  1.50000000E+00  8.00000000E-01
  8.00000000E-01  1.50000000E+00  8.00000000E-01  8.00000000E-01  1.50000000E+00
  8.00000000E-01  8.00000000E-01  1.50000000E+00  8.00000000E-01  8.00000000E-01
  1.50000000E+00  8.00000000E-01  8.00000000E-01  1.50000000E+00  8.00000000E-01
  8.00000000E-01  1.50000000E+00  8.00000000E-01  8.00000000E-01  1.50000000E+00
  8.00000000E-01  8.00000000E-01  1.50000000E+00  8.00000000E-01  8.00000000E-01
  1.50000000E+00  8.00000000E-01  8.00000000E-01  1.50000000E+00  8.00000000E-01
  8.00000000E-01  1.50000000E+00  8.00000000E-01  8.00000000E-01  1.50000000E+00
  8.00000000E-01  8.00000000E-01  1.50000000E+00  8.00000000E-01  8.00000000E-01
  1.50000000E+00  8.00000000E-01  8.00000000E-01  1.50000000E+00  8.00000000E-01
  8.00000000E-01  1.50000000E+00  8.00000000E-01  8.00000000E-01  1.50000000E+00
  8.00000000E-01  8.00000000E-01  1.50000000E+00  8.00000000E-01  8.00000000E-01
  1.50000000E+00  8.00000000E-01  8.00000000E-01  1.50000000E+00  8.00000000E-01
  8.00000000E-01  1.50000000E+00  8.00000000E-01  8.00000000E-01  1.50000000E+00
  8.00000000E-01  8.00000000E-01  1.50000000E+00  8.00000000E-01  8.00000000E-01
  1.50000000E+00  8.00000000E-01  8.00000000E-01  1.50000000E+00  8.00000000E-01
  8.00000000E-01  1.50000000E+00  8.00000000E-01  8.00000000E-01  1.50000000E+00
  8.00000000E-01  8.00000000E-01  1.50000000E+00  8.00000000E-01  8.00000000E-01
  1.50000000E+00  8.00000000E-01  8.00000000E-01  1.50000000E+00  8.00000000E-01
  8.00000000E-01  1.50000000E+00  8.00000000E-01  8.00000000E-01  1.50000000E+00
  8.00000000E-01  8.00000000E-01  1.50000000E+00  8.00000000E-01  8.00000000E-01
  1.50000000E+00  8.00000000E-01  8.00000000E-01  1.50000000E+00  8.00000000E-01
  8.00000000E-01  1.50000000E+00  8.00000000E-01  8.00000000E-01  1.50000000E+00
  8.00000000E-01  8.00000000E-01  1.50000000E+00  8.00000000E-01  8.00000000E-01
  1.50000000E+00  8.00000000E-01  8.00000000E-01  1.50000000E+00  8.00000000E-01
  8.00000000E-01  1.50000000E+00  8.00000000E-01  8.00000000E-01  1.50000000E+00
  8.00000000E-01  8.00000000E-01  1.50000000E+00  8.00000000E-01  8.00000000E-01
  1.50000000E+00  8.00000000E-01  8.00000000E-01  1.50000000E+00  8.00000000E-01
  8.00000000E-01  1.50000000E+00  8.00000000E-01  8.00000000E-01  1.50000000E+00
  8.00000000E-01  8.00000000E-01  1.50000000E+00  8.00000000E-01  8.00000000E-01
  1.50000000E+00  8.00000000E-01  8.00000000E-01  1.50000000E+00  8.00000000E-01
  8.00000000E-01  1.50000000E+00  8.00000000E-01  8.00000000E-01  1.50000000E+00
  8.00000000E-01  8.00000000E-01  1.50000000E+00  8.00000000E-01  8.00000000E-01
  1.50000000E+00  8.00000000E-01  8.00000000E-01  1.50000000E+00  8.00000000E-01
  8.00000000E-01  1.50000000E+00  8.00000000E-01  8.00000000E-01  1.50000000E+00
  8.00000000E-01  8.00000000E-01  1.50000000E+00  8.00000000E-01  8.00000000E-01
  1.50000000E+00  8.00000000E-01  8.00000000E-01  1.50000000E+00  8.00000000E-01
  8.00000000E-01  1.50000000E+00  8.00000000E-01  8.00000000E-01  1.50000000E+00
  8.00000000E-01  8.00000000E-01  1.50000000E+00  8.00000000E-01  8.00000000E-01
  1.50000000E+00  8.00000000E-01  8.00000000E-01  1.50000000E+00  8.00000000E-01
  8.00000000E-01  1.50000000E+00  8.00000000E-01  8.00000000E-01  1.50000000E+00
  8.00000000E-01  8.00000000E-01  1.50000000E+00  8.00000000E-01  8.00000000E-01
  1.50000000E+00  8.00000000E-01  8.00000000E-01  1.50000000E+00  8.00000000E-01
  8.00000000E-01  1.50000000E+00  8.00000000E-01  8.00000000E-01  1.50000000E+00
  8.00000000E-01  8.00000000E-01  1.50000000E+00  8.00000000E-01  8.00000000E-01
  1.50000000E+00  8.00000000E-01  8.00000000E-01  1.50000000E+00  8.00000000E-01
  8.00000000E-01  1.50000000E+00  8.00000000E-01  8.00000000E-01  1.50000000E+00
  8.00000000E-01  8.00000000E-01  1.50000000E+00  8.00000000E-01  8.00000000E-01
  1.50000000E+00  8.00000000E-01  8.00000000E-01  1.50000000E+00  8.00000000E-01
  8.00000000E-01  1.50000000E+00  8.00000000E-01  8.00000000E-01  1.50000000E+00
  8.00000000E-01  8.00000000E-01  1.50000000E+00  8.00000000E-01  8.00000000E-01
  1.50000000E+00  8.00000000E-01  8.00000000E-01  1.50000000E+00  8.00000000E-01
  8.00000000E-01  1.50000000E+00  8.00000000E-01  8.00000000E-01  1.50000000E+00
  8.00000000E-01  8.00000000E-01  1.50000000E+00  8.00000000E-01  8.00000000E-01
  1.50000000E+00  8.00000000E-01  8.00000000E-01  1.50000000E+00  8.00000000E-01
  8.00000000E-01  1.50000000E+00  8.00000000E-01  8.00000000E-01  1.50000000E+00
  8.00000000E-01  8.00000000E-01  1.50000000E+00  8.00000000E-01  8.00000000E-01
  1.50000000E+00  8.00000000E-01  8.00000000E-01  1.50000000E+00  8.00000000E-01
  8.00000000E-01  1.50000000E+00  8.00000000E-01  8.00000000E-01  1.50000000E+00
  8.00000000E-01  8.00000000E-01  1.50000000E+00  8.00000000E-01  8.00000000E-01
  1.50000000E+00  8.00000000E-01  8.00000000E-01  1.50000000E+00  8.00000000E-01
  8.00000000E-01  1.50000000E+00  8.00000000E-01  8.00000000E-01  1.50000000E+00
  8.00000000E-01  8.00000000E-01  1.50000000E+00  8.00000000E-01  8.00000000E-01
  1.50000000E+00  8.00000000E-01  8.00000000E-01  1.50000000E+00  8.00000000E-01
  8.00000000E-01  1.50000000E+00  8.00000000E-01  8.00000000E-01  1.50000000E+00
  8.00000000E-01  8.00000000E-01  1.50000000E+00  8.00000000E-01  8.00000000E-01
  1.50000000E+00  8.00000000E-01  8.00000000E-01  1.50000000E+00  8.00000000E-01
  8.00000000E-01  1.50000000E+00  8.00000000E-01  8.00000000E-01  1.50000000E+00
  8.00000000E-01  8.00000000E-01  1.50000000E+00  8.00000000E-01  8.00000000E-01
  1.50000000E+00  8.00000000E-01  8.00000000E-01  1.50000000E+00  8.00000000E-01
  8.00000000E-01  1.50000000E+00  8.00000000E-01  8.00000000E-01  1.50000000E+00
  8.00000000E-01  8.00000000E-01  1.50000000E+00  8.00000000E-01  8.00000000E-01
  1.50000000E+00  8.00000000E-01  8.00000000E-01  1.50000000E+00  8.00000000E-01
  8.00000000E-01  1.50000000E+00  8.00000000E-01  8.00000000E-01  1.50000000E+00
  8.00000000E-01  8.00000000E-01  1.50000000E+00  8.00000000E-01  8.00000000E-01
  1.50000000E+00  8.00000000E-01  8.00000000E-01  1.50000000E+00  8.00000000E-01
  8.00000000E-01  1.50000000E+00  8.00000000E-01  8.00000000E-01  1.50000000E+00
  8.00000000E-01  8.00000000E-01  1.50000000E+00  8.00000000E-01  8.00000000E-01
  1.50000000E+00  8.00000000E-01  8.00000000E-01  1.50000000E+00  8.00000000E-01
  8.00000000E-01  1.50000000E+00  8.00000000E-01  8.00000000E-01  1.50000000E+00
  8.00000000E-01  8.00000000E-01  1.50000000E+00  8.00000000E-01  8.00000000E-01
  1.50000000E+00  8.00000000E-01  8.00000000E-01  1.50000000E+00  8.00000000E-01
  8.00000000E-01  1.50000000E+00  8.00000000E-01  8.00000000E-01  1.50000000E+00
  8.00000000E-01  8.00000000E-01  1.50000000E+00  8.00000000E-01  8.00000000E-01
  1.50000000E+00  8.00000000E-01  8.00000000E-01  1.50000000E+00  8.00000000E-01
  8.00000000E-01  1.50000000E+00  8.00000000E-01  8.00000000E-01  1.50000000E+00
  8.00000000E-01  8.00000000E-01  1.50000000E+00  8.00000000E-01  8.00000000E-01
  1.50000000E+00  8.00000000E-01  8.00000000E-01  1.50000000E+00  8.00000000E-01
  8.00000000E-01  1.50000000E+00  8.00000000E-01  8.00000000E-01  1.50000000E+00
  8.00000000E-01  8.00000000E-01  1.50000000E+00  8.00000000E-01  8.00000000E-01
  1.50000000E+00  8.00000000E-01  8.00000000E-01  1.50000000E+00  8.00000000E-01
  8.00000000E-01  1.50000000E+00  8.00000000E-01  8.00000000E-01  1.50000000E+00
  8.00000000E-01  8.00000000E-01  1.50000000E+00  8.00000000E-01  8.00000000E-01
  1.50000000E+00  8.00000000E-01  8.00000000E-01  1.50000000E+00  8.00000000E-01
  8.00000000E-01  1.50000000E+00  8.00000000E-01  8.00000000E-01  1.50000000E+00
  8.00000000E-01  8.00000000E-01  1.50000000E+00  8.00000000E-01  8.00000000E-01
  1.50000000E+00  8.00000000E-01  8.00000000E-01  1.50000000E+00  8.00000000E-01
  8.00000000E-01  1.50000000E+00  8.00000000E-01  8.00000000E-01  1.50000000E+00
  8.00000000E-01  8.00000000E-01  1.50000000E+00  8.00000000E-01  8.00000000E-01
  1.50000000E+00  8.00000000E-01  8.00000000E-01  1.50000000E+00  8.00000000E-01
  8.00000000E-01  1.50000000E+00  8.00000000E-01  8.00000000E-01  1.50000000E+00
  8.00000000E-01  8.00000000E-01  1.50000000E+00  8.00000000E-01  8.00000000E-01
  1.50000000E+00  8.00000000E-01  8.00000000E-01  1.50000000E+00  8.00000000E-01
  8.00000000E-01  1.50000000E+00  8.00000000E-01  8.00000000E-01  1.50000000E+00
  8.00000000E-01  8.00000000E-01  1.50000000E+00  8.00000000E-01  8.00000000E-01
  1.50000000E+00  8.00000000E-01  8.00000000E-01  1.50000000E+00  8.00000000E-01
  8.00000000E-01  1.50000000E+00  8.00000000E-01  8.00000000E-01  1.50000000E+00
  8.00000000E-01  8.00000000E-01  1.50000000E+00  8.00000000E-01  8.00000000E-01
  1.50000000E+00  8.00000000E-01  8.00000000E-01  1.50000000E+00  8.00000000E-01
  8.00000000E-01  1.50000000E+00  8.00000000E-01  8.00000000E-01  1.50000000E+00
  8.00000000E-01  8.00000000E-01  1.50000000E+00  8.00000000E-01  8.00000000E-01
  1.50000000E+00  8.00000000E-01  8.00000000E-01  1.50000000E+00  8.00000000E-01
  8.00000000E-01  1.50000000E+00  8.00000000E-01  8.00000000E-01  1.50000000E+00
  8.00000000E-01  8.00000000E-01  1.50000000E+00  8.00000000E-01  8.00000000E-01
  1.50000000E+00  8.00000000E-01  8.00000000E-01  1.50000000E+00  8.00000000E-01
  8.00000000E-01  1.50000000E+00  8.00000000E-01  8.00000000E-01  1.50000000E+00
  8.00000000E-01  8.00000000E-01  1.50000000E+00  8.00000000E-01  8.00000000E-01
  1.50000000E+00  8.00000000E-01  8.00000000E-01  1.50000000E+00  8.00000000E-01
  8.00000000E-01  1.50000000E+00  8.00000000E-01  8.00000000E-01  1.50000000E+00
  8.00000000E-01  8.00000000E-01  1.50000000E+00  8.00000000E-01  8.00000000E-01
  1.50000000E+00  8.00000000E-01  8.00000000E-01  1.50000000E+00  8.00000000E-01
  8.00000000E-01  1.50000000E+00  8.00000000E-01  8.00000000E-01  1.50000000E+00
  8.00000000E-01  8.00000000E-01  1.50000000E+00  8.00000000E-01  8.00000000E-01
  1.50000000E+00  8.00000000E-01  8.00000000E-01  1.50000000E+00  8.00000000E-01
  8.00000000E-01  1.50000000E+00  8.00000000E-01  8.00000000E-01  1.50000000E+00
  8.00000000E-01  8.00000000E-01  1.50000000E+00  8.00000000E-01  8.00000000E-01
  1.50000000E+00  8.00000000E-01  8.00000000E-01  1.50000000E+00  8.00000000E-01
  8.00000000E-01  1.50000000E+00  8.00000000E-01  8.00000000E-01  1.50000000E+00
  8.00000000E-01  8.00000000E-01  1.50000000E+00  8.00000000E-01  8.00000000E-01
  1.50000000E+00  8.00000000E-01  8.00000000E-01  1.50000000E+00  8.00000000E-01
  8.00000000E-01  1.50000000E+00  8.00000000E-01  8.00000000E-01  1.50000000E+00
  8.00000000E-01  8.00000000E-01  1.50000000E+00  8.00000000E-01  8.00000000E-01
  1.50000000E+00  8.00000000E-01  8.00000000E-01  1.50000000E+00  8.00000000E-01
  8.00000000E-01  1.50000000E+00  8.00000000E-01  8.00000000E-01  1.50000000E+00
  8.00000000E-01  8.00000000E-01  1.50000000E+00  8.00000000E-01  8.00000000E-01
  1.50000000E+00  8.00000000E-01  8.00000000E-01  1.50000000E+00  8.00000000E-01
  8.00000000E-01  1.50000000E+00  8.00000000E-01  8.00000000E-01  1.50000000E+00
  8.00000000E-01  8.00000000E-01  1.50000000E+00  8.00000000E-01  8.00000000E-01
  1.50000000E+00  8.00000000E-01  8.00000000E-01  1.50000000E+00  8.00000000E-01
  8.00000000E-01  1.50000000E+00  8.00000000E-01  8.00000000E-01  1.50000000E+00
  8.00000000E-01  8.00000000E-01  1.50000000E+00  8.00000000E-01  8.00000000E-01
  1.50000000E+00  8.00000000E-01  8.00000000E-01  1.50000000E+00  8.00000000E-01
  8.00000000E-01  1.50000000E+00  8.00000000E-01  8.00000000E-01  1.50000000E+00
  8.00000000E-01  8.00000000E-01  1.50000000E+00  8.00000000E-01  8.00000000E-01
  1.50000000E+00  8.00000000E-01  8.00000000E-01  1.50000000E+00  8.00000000E-01
  8.00000000E-01  1.50000000E+00  8.00000000E-01  8.00000000E-01  1.50000000E+00
  8.00000000E-01  8.00000000E-01  1.50000000E+00  8.00000000E-01  8.00000000E-01
  1.50000000E+00  8.00000000E-01  8.00000000E-01  1.50000000E+00  8.00000000E-01
  8.00000000E-01  1.50000000E+00  8.00000000E-01  8.00000000E-01  1.50000000E+00
  8.00000000E-01  8.00000000E-01  1.50000000E+00  8.00000000E-01  8.00000000E-01
  1.50000000E+00  8.00000000E-01  8.00000000E-01  1.50000000E+00  8.00000000E-01
  8.00000000E-01  1.50000000E+00  8.00000000E-01  8.00000000E-01  1.50000000E+00
  8.00000000E-01  8.00000000E-01  1.50000000E+00  8.00000000E-01  8.00000000E-01
  1.50000000E+00  8.00000000E-01  8.00000000E-01  1.50000000E+00  8.00000000E-01
  8.00000000E-01  1.50000000E+00  8.00000000E-01  8.00000000E-01  1.50000000E+00
  8.00000000E-01  8.00000000E-01  1.50000000E+00  8.00000000E-01  8.00000000E-01
  1.50000000E+00  8.00000000E-01  8.00000000E-01  1.50000000E+00  8.00000000E-01
  8.00000000E-01  1.50000000E+00  8.00000000E-01  8.00000000E-01  1.50000000E+00
  8.00000000E-01  8.00000000E-01  1.50000000E+00  8.00000000E-01  8.00000000E-01
  1.50000000E+00  8.00000000E-01  8.00000000E-01  1.50000000E+00  8.00000000E-01
  8.00000000E-01  1.50000000E+00  8.00000000E-01  8.00000000E-01  1.50000000E+00
  8.00000000E-01  8.00000000E-01  1.50000000E+00  8.00000000E-01  8.00000000E-01
  1.50000000E+00  8.00000000E-01  8.00000000E-01  1.50000000E+00  8.00000000E-01
  8.00000000E-01  1.50000000E+00  8.00000000E-01  8.00000000E-01  1.50000000E+00
  8.00000000E-01  8.00000000E-01  1.50000000E+00  8.00000000E-01  8.00000000E-01
  1.50000000E+00  8.00000000E-01  8.00000000E-01  1.50000000E+00  8.00000000E-01
  8.00000000E-01  1.50000000E+00  8.00000000E-01  8.00000000E-01  1.50000000E+00
  8.00000000E-01  8.00000000E-01  1.50000000E+00  8.00000000E-01  8.00000000E-01
  1.50000000E+00  8.00000000E-01  8.00000000E-01  1.50000000E+00  8.00000000E-01
  8.00000000E-01  1.50000000E+00  8.00000000E-01  8.00000000E-01  1.50000000E+00
  8.00000000E-01  8.00000000E-01  1.50000000E+00  8.00000000E-01  8.00000000E-01
  1.50000000E+00  8.00000000E-01  8.00000000E-01  1.50000000E+00  8.00000000E-01
  8.00000000E-01  1.50000000E+00  8.00000000E-01  8.00000000E-01  1.50000000E+00
  8.00000000E-01  8.00000000E-01  1.50000000E+00  8.00000000E-01  8.00000000E-01
  1.50000000E+00  8.00000000E-01  8.00000000E-01  1.50000000E+00  8.00000000E-01
  8.00000000E-01  1.50000000E+00  8.00000000E-01  8.00000000E-01  1.50000000E+00
  8.00000000E-01  8.00000000E-01  1.50000000E+00  8.00000000E-01  8.00000000E-01
  1.50000000E+00  8.00000000E-01  8.00000000E-01  1.50000000E+00  8.00000000E-01
  8.00000000E-01  1.50000000E+00  8.00000000E-01  8.00000000E-01  1.50000000E+00
  8.00000000E-01  8.00000000E-01  1.50000000E+00  8.00000000E-01  8.00000000E-01
  1.50000000E+00  8.00000000E-01  8.00000000E-01  1.50000000E+00  8.00000000E-01
  8.00000000E-01  1.50000000E+00  8.00000000E-01  8.00000000E-01  1.50000000E+00
  8.00000000E-01  8.00000000E-01  1.50000000E+00  8.00000000E-01  8.00000000E-01
  1.50000000E+00  8.00000000E-01  8.00000000E-01  1.50000000E+00  8.00000000E-01
  8.00000000E-01  1.50000000E+00  8.00000000E-01  8.00000000E-01  1.50000000E+00
  8.00000000E-01  8.00000000E-01  1.50000000E+00  8.00000000E-01  8.00000000E-01
  1.50000000E+00  8.00000000E-01  8.00000000E-01  1.50000000E+00  8.00000000E-01
  8.00000000E-01  1.50000000E+00  8.00000000E-01  8.00000000E-01  1.50000000E+00
  8.00000000E-01  8.00000000E-01  1.50000000E+00  8.00000000E-01  8.00000000E-01
  1.50000000E+00  8.00000000E-01  8.00000000E-01  1.50000000E+00  8.00000000E-01
  8.00000000E-01  1.50000000E+00  8.00000000E-01  8.00000000E-01  1.50000000E+00
  8.00000000E-01  8.00000000E-01  1.50000000E+00  8.00000000E-01  8.00000000E-01
  1.50000000E+00  8.00000000E-01  8.00000000E-01  1.50000000E+00  8.00000000E-01
  8.00000000E-01  1.50000000E+00  8.00000000E-01  8.00000000E-01  1.50000000E+00
  8.00000000E-01  8.00000000E-01  1.50000000E+00  8.00000000E-01  8.00000000E-01
  1.50000000E+00  8.00000000E-01  8.00000000E-01  1.50000000E+00  8.00000000E-01
  8.00000000E-01  1.50000000E+00  8.00000000E-01  8.00000000E-01  1.50000000E+00
  8.00000000E-01  8.00000000E-01  1.50000000E+00  8.00000000E-01  8.00000000E-01
  1.50000000E+00  8.00000000E-01  8.00000000E-01  1.50000000E+00  8.00000000E-01
  8.00000000E-01  1.50000000E+00  8.00000000E-01  8.00000000E-01  1.50000000E+00
  8.00000000E-01  8.00000000E-01  1.50000000E+00  8.00000000E-01  8.00000000E-01
  1.50000000E+00  8.00000000E-01  8.00000000E-01  1.50000000E+00  8.00000000E-01
  8.00000000E-01  1.50000000E+00  8.00000000E-01  8.00000000E-01  1.50000000E+00
  8.00000000E-01  8.00000000E-01  1.50000000E+00  8.00000000E-01  8.00000000E-01
  1.50000000E+00  8.00000000E-01  8.00000000E-01  1.50000000E+00  8.00000000E-01
  8.00000000E-01  1.50000000E+00  8.00000000E-01  8.00000000E-01  1.50000000E+00
  8.00000000E-01  8.00000000E-01  1.50000000E+00  8.00000000E-01  8.00000000E-01
  1.50000000E+00  8.00000000E-01  8.00000000E-01  1.50000000E+00  8.00000000E-01
  8.00000000E-01  1.50000000E+00  8.00000000E-01  8.00000000E-01  1.50000000E+00
  8.00000000E-01  8.00000000E-01  1.50000000E+00  8.00000000E-01  8.00000000E-01
  1.50000000E+00  8.00000000E-01  8.00000000E-01  1.50000000E+00  8.00000000E-01
  8.00000000E-01  1.50000000E+00  8.00000000E-01  8.00000000E-01  1.50000000E+00
  8.00000000E-01  8.00000000E-01  1.50000000E+00  8.00000000E-01  8.00000000E-01
  1.50000000E+00  8.00000000E-01  8.00000000E-01  1.50000000E+00  8.00000000E-01
  8.00000000E-01  1.50000000E+00  8.00000000E-01  8.00000000E-01  1.50000000E+00
  8.00000000E-01  8.00000000E-01  1.50000000E+00  8.00000000E-01  8.00000000E-01
  1.50000000E+00  8.00000000E-01  8.00000000E-01  1.50000000E+00  8.00000000E-01
  8.00000000E-01  1.50000000E+00  8.00000000E-01  8.00000000E-01  1.50000000E+00
  8.00000000E-01  8.00000000E-01  1.50000000E+00  8.00000000E-01  8.00000000E-01
  1.50000000E+00  8.00000000E-01  8.00000000E-01  1.50000000E+00  8.00000000E-01
  8.00000000E-01  1.50000000E+00  8.00000000E-01  8.00000000E-01  1.50000000E+00
  8.00000000E-01  8.00000000E-01  1.50000000E+00  8.00000000E-01  8.00000000E-01
  1.50000000E+00  8.00000000E-01  8.00000000E-01  1.50000000E+00  8.00000000E-01
  8.00000000E-01  1.50000000E+00  8.00000000E-01  8.00000000E-01  1.50000000E+00
  8.00000000E-01  8.00000000E-01  1.50000000E+00  8.00000000E-01  8.00000000E-01
  1.50000000E+00  8.00000000E-01  8.00000000E-01  1.50000000E+00  8.00000000E-01
  8.00000000E-01  1.50000000E+00  8.00000000E-01  8.00000000E-01  1.50000000E+00
  8.00000000E-01  8.00000000E-01  1.50000000E+00  8.00000000E-01  8.00000000E-01
  1.50000000E+00  8.00000000E-01  8.00000000E-01  1.50000000E+00  8.00000000E-01
  8.00000000E-01  1.50000000E+00  8.00000000E-01  8.00000000E-01  1.50000000E+00
  8.00000000E-01  8.00000000E-01  1.50000000E+00  8.00000000E-01  8.00000000E-01
  1.50000000E+00  8.00000000E-01  8.00000000E-01  1.50000000E+00  8.00000000E-01
  8.00000000E-01  1.50000000E+00  8.00000000E-01  8.00000000E-01  1.50000000E+00
  8.00000000E-01  8.00000000E-01  1.50000000E+00  8.00000000E-01  8.00000000E-01
  1.50000000E+00  8.00000000E-01  8.00000000E-01  1.50000000E+00  8.00000000E-01
  8.00000000E-01  1.50000000E+00  8.00000000E-01  8.00000000E-01  1.50000000E+00
  8.00000000E-01  8.00000000E-01  1.50000000E+00  8.00000000E-01  8.00000000E-01
  1.50000000E+00  8.00000000E-01  8.00000000E-01  1.50000000E+00  8.00000000E-01
  8.00000000E-01  1.50000000E+00  8.00000000E-01  8.00000000E-01  1.50000000E+00
  8.00000000E-01  8.00000000E-01  1.50000000E+00  8.00000000E-01  8.00000000E-01
  1.50000000E+00  8.00000000E-01  8.00000000E-01  1.50000000E+00  8.00000000E-01
  8.00000000E-01  1.50000000E+00  8.00000000E-01  8.00000000E-01  1.50000000E+00
  8.00000000E-01  8.00000000E-01  1.50000000E+00  8.00000000E-01  8.00000000E-01
  1.50000000E+00  8.00000000E-01  8.00000000E-01  1.50000000E+00  8.00000000E-01
  8.00000000E-01  1.50000000E+00  8.00000000E-01  8.00000000E-01  1.50000000E+00
  8.00000000E-01  8.00000000E-01  1.50000000E+00  8.00000000E-01  8.00000000E-01
  1.50000000E+00  8.00000000E-01  8.00000000E-01  1.50000000E+00  8.00000000E-01
  8.00000000E-01  1.50000000E+00  8.00000000E-01  8.00000000E-01  1.50000000E+00
  8.00000000E-01  8.00000000E-01  1.50000000E+00  8.00000000E-01  8.00000000E-01
  1.50000000E+00  8.00000000E-01  8.00000000E-01  1.50000000E+00  8.00000000E-01
  8.00000000E-01  1.50000000E+00  8.00000000E-01  8.00000000E-01  1.50000000E+00
  8.00000000E-01  8.00000000E-01  1.50000000E+00  8.00000000E-01  8.00000000E-01
  1.50000000E+00  8.00000000E-01  8.00000000E-01  1.50000000E+00  8.00000000E-01
  8.00000000E-01  1.50000000E+00  8.00000000E-01  8.00000000E-01  1.50000000E+00
  8.00000000E-01  8.00000000E-01  1.50000000E+00  8.00000000E-01  8.00000000E-01
  1.50000000E+00  8.00000000E-01  8.00000000E-01  1.50000000E+00  8.00000000E-01
  8.00000000E-01  1.50000000E+00  8.00000000E-01  8.00000000E-01  1.50000000E+00
  8.00000000E-01  8.00000000E-01  1.50000000E+00  8.00000000E-01  8.00000000E-01
  1.50000000E+00  8.00000000E-01  8.00000000E-01  1.50000000E+00  8.00000000E-01
  8.00000000E-01  1.50000000E+00  8.00000000E-01  8.00000000E-01  1.50000000E+00
  8.00000000E-01  8.00000000E-01  1.50000000E+00  8.00000000E-01  8.00000000E-01
  1.50000000E+00  8.00000000E-01  8.00000000E-01  1.50000000E+00  8.00000000E-01
  8.00000000E-01  1.50000000E+00  8.00000000E-01  8.00000000E-01  1.50000000E+00
  8.00000000E-01  8.00000000E-01  1.50000000E+00  8.00000000E-01  8.00000000E-01
  1.50000000E+00  8.00000000E-01  8.00000000E-01  1.50000000E+00  8.00000000E-01
  8.00000000E-01  1.50000000E+00  8.00000000E-01  8.00000000E-01  1.50000000E+00
  8.00000000E-01  8.00000000E-01  1.50000000E+00  8.00000000E-01  8.00000000E-01
  1.50000000E+00  8.00000000E-01  8.00000000E-01  1.50000000E+00  8.00000000E-01
  8.00000000E-01  1.50000000E+00  8.00000000E-01  8.00000000E-01  1.50000000E+00
  8.00000000E-01  8.00000000E-01  1.50000000E+00  8.00000000E-01  8.00000000E-01
  1.50000000E+00  8.00000000E-01  8.00000000E-01  1.50000000E+00  8.00000000E-01
  8.00000000E-01  1.50000000E+00  8.00000000E-01  8.00000000E-01  1.50000000E+00
  8.00000000E-01  8.00000000E-01  1.50000000E+00  8.00000000E-01  8.00000000E-01
  1.50000000E+00  8.00000000E-01  8.00000000E-01  1.50000000E+00  8.00000000E-01
  8.00000000E-01  1.50000000E+00  8.00000000E-01  8.00000000E-01  1.50000000E+00
  8.00000000E-01  8.00000000E-01  1.50000000E+00  8.00000000E-01  8.00000000E-01
  1.50000000E+00  8.00000000E-01  8.00000000E-01  1.50000000E+00  8.00000000E-01
  8.00000000E-01  1.50000000E+00  8.00000000E-01  8.00000000E-01  1.50000000E+00
  8.00000000E-01  8.00000000E-01  1.50000000E+00  8.00000000E-01  8.00000000E-01
  1.50000000E+00  8.00000000E-01  8.00000000E-01  1.50000000E+00  8.00000000E-01
  8.00000000E-01  1.50000000E+00  8.00000000E-01  8.00000000E-01  1.50000000E+00
  8.00000000E-01  8.00000000E-01  1.50000000E+00  8.00000000E-01  8.00000000E-01
  1.50000000E+00  8.00000000E-01  8.00000000E-01  1.50000000E+00  8.00000000E-01
  8.00000000E-01  1.50000000E+00  8.00000000E-01  8.00000000E-01  1.50000000E+00
  8.00000000E-01  8.00000000E-01  1.50000000E+00  8.00000000E-01  8.00000000E-01
  1.50000000E+00  8.00000000E-01  8.00000000E-01  1.50000000E+00  8.00000000E-01
  8.00000000E-01  1.50000000E+00  8.00000000E-01  8.00000000E-01  1.50000000E+00
  8.00000000E-01  8.00000000E-01  1.50000000E+00  8.00000000E-01  8.00000000E-01
  1.50000000E+00  8.00000000E-01  8.00000000E-01  1.50000000E+00  8.00000000E-01
  8.00000000E-01  1.50000000E+00  8.00000000E-01  8.00000000E-01  1.50000000E+00
  8.00000000E-01  8.00000000E-01  1.50000000E+00  8.00000000E-01  8.00000000E-01
  1.50000000E+00  8.00000000E-01  8.00000000E-01  1.50000000E+00  8.00000000E-01
  8.00000000E-01  1.50000000E+00  8.00000000E-01  8.00000000E-01  1.50000000E+00
  8.00000000E-01  8.00000000E-01  1.50000000E+00  8.00000000E-01  8.00000000E-01
  1.50000000E+00  8.00000000E-01  8.00000000E-01  1.50000000E+00  8.00000000E-01
  8.00000000E-01  1.50000000E+00  8.00000000E-01  8.00000000E-01  1.50000000E+00
  8.00000000E-01  8.00000000E-01  1.50000000E+00  8.00000000E-01  8.00000000E-01
  1.50000000E+00  8.00000000E-01  8.00000000E-01  1.50000000E+00  8.00000000E-01
  8.00000000E-01  1.50000000E+00  8.00000000E-01  8.00000000E-01  1.50000000E+00
  8.00000000E-01  8.00000000E-01  1.50000000E+00  8.00000000E-01  8.00000000E-01
  1.50000000E+00  8.00000000E-01  8.00000000E-01  1.50000000E+00  8.00000000E-01
  8.00000000E-01  1.50000000E+00  8.00000000E-01  8.00000000E-01  1.50000000E+00
  8.00000000E-01  8.00000000E-01  1.50000000E+00  8.00000000E-01  8.00000000E-01
  1.50000000E+00  8.00000000E-01  8.00000000E-01  1.50000000E+00  8.00000000E-01
  8.00000000E-01  1.50000000E+00  8.00000000E-01  8.00000000E-01  1.50000000E+00
  8.00000000E-01  8.00000000E-01  1.50000000E+00  8.00000000E-01  8.00000000E-01
  1.50000000E+00  8.00000000E-01  8.00000000E-01  1.50000000E+00  8.00000000E-01
  8.00000000E-01  1.50000000E+00  8.00000000E-01  8.00000000E-01  1.50000000E+00
  8.00000000E-01  8.00000000E-01  1.50000000E+00  8.00000000E-01  8.00000000E-01
  1.50000000E+00  8.00000000E-01  8.00000000E-01  1.50000000E+00  8.00000000E-01
  8.00000000E-01  1.50000000E+00  8.00000000E-01  8.00000000E-01  1.50000000E+00
  8.00000000E-01  8.00000000E-01  1.50000000E+00  8.00000000E-01  8.00000000E-01
  1.50000000E+00  8.00000000E-01  8.00000000E-01  1.50000000E+00  8.00000000E-01
  8.00000000E-01  1.50000000E+00  8.00000000E-01  8.00000000E-01  1.50000000E+00
  8.00000000E-01  8.00000000E-01  1.50000000E+00  8.00000000E-01  8.00000000E-01
  1.50000000E+00  8.00000000E-01  8.00000000E-01  1.50000000E+00  8.00000000E-01
  8.00000000E-01  1.50000000E+00  8.00000000E-01  8.00000000E-01  1.50000000E+00
  8.00000000E-01  8.00000000E-01  1.50000000E+00  8.00000000E-01  8.00000000E-01
  1.50000000E+00  8.00000000E-01  8.00000000E-01  1.50000000E+00  8.00000000E-01
  8.00000000E-01  1.50000000E+00  8.00000000E-01  8.00000000E-01  1.50000000E+00
  8.00000000E-01  8.00000000E-01  1.50000000E+00  8.00000000E-01  8.00000000E-01
  1.50000000E+00  8.00000000E-01  8.00000000E-01  1.50000000E+00  8.00000000E-01
  8.00000000E-01  1.50000000E+00  8.00000000E-01  8.00000000E-01  1.50000000E+00
  8.00000000E-01  8.00000000E-01  1.50000000E+00  8.00000000E-01  8.00000000E-01
  1.50000000E+00  8.00000000E-01  8.00000000E-01  1.50000000E+00  8.00000000E-01
  8.00000000E-01  1.50000000E+00  8.00000000E-01  8.00000000E-01  1.50000000E+00
  8.00000000E-01  8.00000000E-01  1.50000000E+00  8.00000000E-01  8.00000000E-01
  1.50000000E+00  8.00000000E-01  8.00000000E-01  1.50000000E+00  8.00000000E-01
  8.00000000E-01  1.50000000E+00  8.00000000E-01  8.00000000E-01  1.50000000E+00
  8.00000000E-01  8.00000000E-01  1.50000000E+00  8.00000000E-01  8.00000000E-01
  1.50000000E+00  8.00000000E-01  8.00000000E-01  1.50000000E+00  8.00000000E-01
  8.00000000E-01  1.50000000E+00  8.00000000E-01  8.00000000E-01  1.50000000E+00
  8.00000000E-01  8.00000000E-01  1.50000000E+00  8.00000000E-01  8.00000000E-01
  1.50000000E+00  8.00000000E-01  8.00000000E-01  1.50000000E+00  8.00000000E-01
  8.00000000E-01  1.50000000E+00  8.00000000E-01  8.00000000E-01  1.50000000E+00
  8.00000000E-01  8.00000000E-01  1.50000000E+00  8.00000000E-01  8.00000000E-01
  1.50000000E+00  8.00000000E-01  8.00000000E-01  1.50000000E+00  8.00000000E-01
  8.00000000E-01  1.50000000E+00  8.00000000E-01  8.00000000E-01  1.50000000E+00
  8.00000000E-01  8.00000000E-01  1.50000000E+00  8.00000000E-01  8.00000000E-01
  1.50000000E+00  8.00000000E-01  8.00000000E-01  1.50000000E+00  8.00000000E-01
  8.00000000E-01  1.50000000E+00  8.00000000E-01  8.00000000E-01  1.50000000E+00
  8.00000000E-01  8.00000000E-01  1.50000000E+00  8.00000000E-01  8.00000000E-01
  1.50000000E+00  8.00000000E-01  8.00000000E-01  1.50000000E+00  8.00000000E-01
  8.00000000E-01  1.50000000E+00  8.00000000E-01  8.00000000E-01  1.50000000E+00
  8.00000000E-01  8.00000000E-01  1.50000000E+00  8.00000000E-01  8.00000000E-01
  1.50000000E+00  8.00000000E-01  8.00000000E-01  1.50000000E+00  8.00000000E-01
  8.00000000E-01  1.50000000E+00  8.00000000E-01  8.00000000E-01  1.50000000E+00
  8.00000000E-01  8.00000000E-01  1.50000000E+00  8.00000000E-01  8.00000000E-01
  1.50000000E+00  8.00000000E-01  8.00000000E-01  1.50000000E+00  8.00000000E-01
  8.00000000E-01  1.50000000E+00  8.00000000E-01  8.00000000E-01  1.50000000E+00
  8.00000000E-01  8.00000000E-01  1.50000000E+00  8.00000000E-01  8.00000000E-01
  1.50000000E+00  8.00000000E-01  8.00000000E-01  1.50000000E+00  8.00000000E-01
  8.00000000E-01  1.50000000E+00  8.00000000E-01  8.00000000E-01  1.50000000E+00
  8.00000000E-01  8.00000000E-01  1.50000000E+00  8.00000000E-01  8.00000000E-01
  1.50000000E+00  8.00000000E-01  8.00000000E-01  1.50000000E+00  8.00000000E-01
  8.00000000E-01  1.50000000E+00  8.00000000E-01  8.00000000E-01  1.50000000E+00
  8.00000000E-01  8.00000000E-01  1.50000000E+00  8.00000000E-01  8.00000000E-01
  1.50000000E+00  8.00000000E-01  8.00000000E-01  1.50000000E+00  8.00000000E-01
  8.00000000E-01  1.50000000E+00  8.00000000E-01  8.00000000E-01  1.50000000E+00
  8.00000000E-01  8.00000000E-01  1.50000000E+00  8.00000000E-01  8.00000000E-01
  1.50000000E+00  8.00000000E-01  8.00000000E-01  1.50000000E+00  8.00000000E-01
  8.00000000E-01  1.50000000E+00  8.00000000E-01  8.00000000E-01  1.50000000E+00
  8.00000000E-01  8.00000000E-01  1.50000000E+00  8.00000000E-01  8.00000000E-01
  1.50000000E+00  8.00000000E-01  8.00000000E-01  1.50000000E+00  8.00000000E-01
  8.00000000E-01  1.50000000E+00  8.00000000E-01  8.00000000E-01  1.50000000E+00
  8.00000000E-01  8.00000000E-01  1.50000000E+00  8.00000000E-01  8.00000000E-01
  1.50000000E+00  8.00000000E-01  8.00000000E-01  1.50000000E+00  8.00000000E-01
  8.00000000E-01  1.50000000E+00  8.00000000E-01  8.00000000E-01  1.50000000E+00
  8.00000000E-01  8.00000000E-01  1.50000000E+00  8.00000000E-01  8.00000000E-01
  1.50000000E+00  8.00000000E-01  8.00000000E-01  1.50000000E+00  8.00000000E-01
  8.00000000E-01  1.50000000E+00  8.00000000E-01  8.00000000E-01  1.50000000E+00
  8.00000000E-01  8.00000000E-01  1.50000000E+00  8.00000000E-01  8.00000000E-01
  1.50000000E+00  8.00000000E-01  8.00000000E-01  1.50000000E+00  8.00000000E-01
  8.00000000E-01  1.50000000E+00  8.00000000E-01  8.00000000E-01  1.50000000E+00
  8.00000000E-01  8.00000000E-01  1.50000000E+00  8.00000000E-01  8.00000000E-01
  1.50000000E+00  8.00000000E-01  8.00000000E-01  1.50000000E+00  8.00000000E-01
  8.00000000E-01  1.50000000E+00  8.00000000E-01  8.00000000E-01  1.50000000E+00
  8.00000000E-01  8.00000000E-01  1.50000000E+00  8.00000000E-01  8.00000000E-01
  1.50000000E+00  8.00000000E-01  8.00000000E-01  1.50000000E+00  8.00000000E-01
  8.00000000E-01  1.50000000E+00  8.00000000E-01  8.00000000E-01  1.50000000E+00
  8.00000000E-01  8.00000000E-01  1.50000000E+00  8.00000000E-01  8.00000000E-01
  1.50000000E+00  8.00000000E-01  8.00000000E-01  1.50000000E+00  8.00000000E-01
  8.00000000E-01  1.50000000E+00  8.00000000E-01  8.00000000E-01  1.50000000E+00
  8.00000000E-01  8.00000000E-01  1.50000000E+00  8.00000000E-01  8.00000000E-01
  1.50000000E+00  8.00000000E-01  8.00000000E-01  1.50000000E+00  8.00000000E-01
  8.00000000E-01  1.50000000E+00  8.00000000E-01  8.00000000E-01  1.50000000E+00
  8.00000000E-01  8.00000000E-01  1.50000000E+00  8.00000000E-01  8.00000000E-01
  1.50000000E+00  8.00000000E-01  8.00000000E-01  1.50000000E+00  8.00000000E-01
  8.00000000E-01  1.50000000E+00  8.00000000E-01  8.00000000E-01  1.50000000E+00
  8.00000000E-01  8.00000000E-01  1.50000000E+00  8.00000000E-01  8.00000000E-01
  1.50000000E+00  8.00000000E-01  8.00000000E-01  1.50000000E+00  8.00000000E-01
  8.00000000E-01  1.50000000E+00  8.00000000E-01  8.00000000E-01  1.50000000E+00
  8.00000000E-01  8.00000000E-01  1.50000000E+00  8.00000000E-01  8.00000000E-01
  1.50000000E+00  8.00000000E-01  8.00000000E-01  1.50000000E+00  8.00000000E-01
  8.00000000E-01  1.50000000E+00  8.00000000E-01  8.00000000E-01  1.50000000E+00
  8.00000000E-01  8.00000000E-01  1.50000000E+00  8.00000000E-01  8.00000000E-01
  1.50000000E+00  8.00000000E-01  8.00000000E-01  1.50000000E+00  8.00000000E-01
  8.00000000E-01  1.50000000E+00  8.00000000E-01  8.00000000E-01  1.50000000E+00
  8.00000000E-01  8.00000000E-01  1.50000000E+00  8.00000000E-01  8.00000000E-01
  1.50000000E+00  8.00000000E-01  8.00000000E-01  1.50000000E+00  8.00000000E-01
  8.00000000E-01  1.50000000E+00  8.00000000E-01  8.00000000E-01  1.50000000E+00
  8.00000000E-01  8.00000000E-01  1.50000000E+00  8.00000000E-01  8.00000000E-01
  1.50000000E+00  8.00000000E-01  8.00000000E-01  1.50000000E+00  8.00000000E-01
  8.00000000E-01  1.50000000E+00  8.00000000E-01  8.00000000E-01  1.50000000E+00
  8.00000000E-01  8.00000000E-01  1.50000000E+00  8.00000000E-01  8.00000000E-01
  1.50000000E+00  8.00000000E-01  8.00000000E-01  1.50000000E+00  8.00000000E-01
  8.00000000E-01  1.50000000E+00  8.00000000E-01  8.00000000E-01  1.50000000E+00
  8.00000000E-01  8.00000000E-01  1.50000000E+00  8.00000000E-01  8.00000000E-01
  1.50000000E+00  8.00000000E-01  8.00000000E-01  1.50000000E+00  8.00000000E-01
  8.00000000E-01  1.50000000E+00  8.00000000E-01  8.00000000E-01  1.50000000E+00
  8.00000000E-01  8.00000000E-01  1.50000000E+00  8.00000000E-01  8.00000000E-01
  1.50000000E+00  8.00000000E-01  8.00000000E-01  1.50000000E+00  8.00000000E-01
  8.00000000E-01  1.50000000E+00  8.00000000E-01  8.00000000E-01  1.50000000E+00
  8.00000000E-01  8.00000000E-01  1.50000000E+00  8.00000000E-01  8.00000000E-01
  1.50000000E+00  8.00000000E-01  8.00000000E-01  1.50000000E+00  8.00000000E-01
  8.00000000E-01  1.50000000E+00  8.00000000E-01  8.00000000E-01  1.50000000E+00
  8.00000000E-01  8.00000000E-01  1.50000000E+00  8.00000000E-01  8.00000000E-01
  1.50000000E+00  8.00000000E-01  8.00000000E-01  1.50000000E+00  8.00000000E-01
  8.00000000E-01  1.50000000E+00  8.00000000E-01  8.00000000E-01  1.50000000E+00
  8.00000000E-01  8.00000000E-01  1.50000000E+00  8.00000000E-01  8.00000000E-01
  1.50000000E+00  8.00000000E-01  8.00000000E-01  1.50000000E+00  8.00000000E-01
  8.00000000E-01  1.50000000E+00  8.00000000E-01  8.00000000E-01  1.50000000E+00
  8.00000000E-01  8.00000000E-01  1.50000000E+00  8.00000000E-01  8.00000000E-01
  1.50000000E+00  8.00000000E-01  8.00000000E-01  1.50000000E+00  8.00000000E-01
  8.00000000E-01  1.50000000E+00  8.00000000E-01  8.00000000E-01  1.50000000E+00
  8.00000000E-01  8.00000000E-01  1.50000000E+00  8.00000000E-01  8.00000000E-01
  1.50000000E+00  8.00000000E-01  8.00000000E-01  1.50000000E+00  8.00000000E-01
  8.00000000E-01  1.50000000E+00  8.00000000E-01  8.00000000E-01  1.50000000E+00
  8.00000000E-01  8.00000000E-01  1.50000000E+00  8.00000000E-01  8.00000000E-01
  1.50000000E+00  8.00000000E-01  8.00000000E-01  1.50000000E+00  8.00000000E-01
  8.00000000E-01  1.50000000E+00  8.00000000E-01  8.00000000E-01  1.50000000E+00
  8.00000000E-01  8.00000000E-01  1.50000000E+00  8.00000000E-01  8.00000000E-01
  1.50000000E+00  8.00000000E-01  8.00000000E-01  1.50000000E+00  8.00000000E-01
  8.00000000E-01  1.50000000E+00  8.00000000E-01  8.00000000E-01  1.50000000E+00
  8.00000000E-01  8.00000000E-01  1.50000000E+00  8.00000000E-01  8.00000000E-01
  1.50000000E+00  8.00000000E-01  8.00000000E-01  1.50000000E+00  8.00000000E-01
  8.00000000E-01  1.50000000E+00  8.00000000E-01  8.00000000E-01  1.50000000E+00
  8.00000000E-01  8.00000000E-01  1.50000000E+00  8.00000000E-01  8.00000000E-01
  1.50000000E+00  8.00000000E-01  8.00000000E-01  1.50000000E+00  8.00000000E-01
  8.00000000E-01  1.50000000E+00  8.00000000E-01  8.00000000E-01  1.50000000E+00
  8.00000000E-01  8.00000000E-01  1.50000000E+00  8.00000000E-01  8.00000000E-01
  1.50000000E+00  8.00000000E-01  8.00000000E-01  1.50000000E+00  8.00000000E-01
  8.00000000E-01  1.50000000E+00  8.00000000E-01  8.00000000E-01  1.50000000E+00
  8.00000000E-01  8.00000000E-01  1.50000000E+00  8.00000000E-01  8.00000000E-01
  1.50000000E+00  8.00000000E-01  8.00000000E-01  1.50000000E+00  8.00000000E-01
  8.00000000E-01  1.50000000E+00  8.00000000E-01  8.00000000E-01  1.50000000E+00
  8.00000000E-01  8.00000000E-01  1.50000000E+00  8.00000000E-01  8.00000000E-01
  1.50000000E+00  8.00000000E-01  8.00000000E-01  1.50000000E+00  8.00000000E-01
  8.00000000E-01  1.50000000E+00  8.00000000E-01  8.00000000E-01  1.50000000E+00
  8.00000000E-01  8.00000000E-01  1.50000000E+00  8.00000000E-01  8.00000000E-01
  1.50000000E+00  8.00000000E-01  8.00000000E-01  1.50000000E+00  8.00000000E-01
  8.00000000E-01  1.50000000E+00  8.00000000E-01  8.00000000E-01  1.50000000E+00
  8.00000000E-01  8.00000000E-01  1.50000000E+00  8.00000000E-01  8.00000000E-01
  1.50000000E+00  8.00000000E-01  8.00000000E-01  1.50000000E+00  8.00000000E-01
  8.00000000E-01  1.50000000E+00  8.00000000E-01  8.00000000E-01  1.50000000E+00
  8.00000000E-01  8.00000000E-01  1.50000000E+00  8.00000000E-01  8.00000000E-01
  1.50000000E+00  8.00000000E-01  8.00000000E-01  1.50000000E+00  8.00000000E-01
  8.00000000E-01  1.50000000E+00  8.00000000E-01  8.00000000E-01  1.50000000E+00
  8.00000000E-01  8.00000000E-01  1.50000000E+00  8.00000000E-01  8.00000000E-01
  1.50000000E+00  8.00000000E-01  8.00000000E-01  1.50000000E+00  8.00000000E-01
  8.00000000E-01  1.50000000E+00  8.00000000E-01  8.00000000E-01  1.50000000E+00
  8.00000000E-01  8.00000000E-01  1.50000000E+00  8.00000000E-01  8.00000000E-01
  1.50000000E+00  8.00000000E-01  8.00000000E-01  1.50000000E+00  8.00000000E-01
  8.00000000E-01  1.50000000E+00  8.00000000E-01  8.00000000E-01  1.50000000E+00
  8.00000000E-01  8.00000000E-01  1.50000000E+00  8.00000000E-01  8.00000000E-01
  1.50000000E+00  8.00000000E-01  8.00000000E-01  1.50000000E+00  8.00000000E-01
  8.00000000E-01  1.50000000E+00  8.00000000E-01  8.00000000E-01  1.50000000E+00
  8.00000000E-01  8.00000000E-01  1.50000000E+00  8.00000000E-01  8.00000000E-01
  1.50000000E+00  8.00000000E-01  8.00000000E-01  1.50000000E+00  8.00000000E-01
  8.00000000E-01  1.50000000E+00  8.00000000E-01  8.00000000E-01  1.50000000E+00
  8.00000000E-01  8.00000000E-01  1.50000000E+00  8.00000000E-01  8.00000000E-01
  1.50000000E+00  8.00000000E-01  8.00000000E-01  1.50000000E+00  8.00000000E-01
  8.00000000E-01  1.50000000E+00  8.00000000E-01  8.00000000E-01  1.50000000E+00
  8.00000000E-01  8.00000000E-01  1.50000000E+00  8.00000000E-01  8.00000000E-01
  1.50000000E+00  8.00000000E-01  8.00000000E-01  1.50000000E+00  8.00000000E-01
  8.00000000E-01  1.50000000E+00  8.00000000E-01  8.00000000E-01  1.50000000E+00
  8.00000000E-01  8.00000000E-01  1.50000000E+00  8.00000000E-01  8.00000000E-01
  1.50000000E+00  8.00000000E-01  8.00000000E-01  1.50000000E+00  8.00000000E-01
  8.00000000E-01  1.50000000E+00  8.00000000E-01  8.00000000E-01  1.50000000E+00
  8.00000000E-01  8.00000000E-01  1.50000000E+00  8.00000000E-01  8.00000000E-01
  1.50000000E+00  8.00000000E-01  8.00000000E-01  1.50000000E+00  8.00000000E-01
  8.00000000E-01  1.50000000E+00  8.00000000E-01  8.00000000E-01  1.50000000E+00
  8.00000000E-01  8.00000000E-01  1.50000000E+00  8.00000000E-01  8.00000000E-01
  1.50000000E+00  8.00000000E-01  8.00000000E-01  1.50000000E+00  8.00000000E-01
  8.00000000E-01  1.50000000E+00  8.00000000E-01  8.00000000E-01  1.50000000E+00
  8.00000000E-01  8.00000000E-01  1.50000000E+00  8.00000000E-01  8.00000000E-01
  1.50000000E+00  8.00000000E-01  8.00000000E-01  1.50000000E+00  8.00000000E-01
  8.00000000E-01  1.50000000E+00  8.00000000E-01  8.00000000E-01  1.50000000E+00
  8.00000000E-01  8.00000000E-01  1.50000000E+00  8.00000000E-01  8.00000000E-01
  1.50000000E+00  8.00000000E-01  8.00000000E-01  1.50000000E+00  8.00000000E-01
  8.00000000E-01  1.50000000E+00  8.00000000E-01  8.00000000E-01  1.50000000E+00
  8.00000000E-01  8.00000000E-01  1.50000000E+00  8.00000000E-01  8.00000000E-01
  1.50000000E+00  8.00000000E-01  8.00000000E-01  1.50000000E+00  8.00000000E-01
  8.00000000E-01  1.50000000E+00  8.00000000E-01  8.00000000E-01  1.50000000E+00
  8.00000000E-01  8.00000000E-01  1.50000000E+00  8.00000000E-01  8.00000000E-01
  1.50000000E+00  8.00000000E-01  8.00000000E-01  1.50000000E+00  8.00000000E-01
  8.00000000E-01  1.50000000E+00  8.00000000E-01  8.00000000E-01  1.50000000E+00
  8.00000000E-01  8.00000000E-01  1.50000000E+00  8.00000000E-01  8.00000000E-01
  1.50000000E+00  8.00000000E-01  8.00000000E-01  1.50000000E+00  8.00000000E-01
  8.00000000E-01  1.50000000E+00  8.00000000E-01  8.00000000E-01  1.50000000E+00
  8.00000000E-01  8.00000000E-01  1.50000000E+00  8.00000000E-01  8.00000000E-01
  1.50000000E+00  8.00000000E-01  8.00000000E-01  1.50000000E+00  8.00000000E-01
  8.00000000E-01  1.50000000E+00  8.00000000E-01  8.00000000E-01  1.50000000E+00
  8.00000000E-01  8.00000000E-01  1.50000000E+00  8.00000000E-01  8.00000000E-01
  1.50000000E+00  8.00000000E-01  8.00000000E-01  1.50000000E+00  8.00000000E-01
  8.00000000E-01  1.50000000E+00  8.00000000E-01  8.00000000E-01  1.50000000E+00
  8.00000000E-01  8.00000000E-01  1.50000000E+00  8.00000000E-01  8.00000000E-01
  1.50000000E+00  8.00000000E-01  8.00000000E-01  1.50000000E+00  8.00000000E-01
  8.00000000E-01  1.50000000E+00  8.00000000E-01  8.00000000E-01  1.50000000E+00
  8.00000000E-01  8.00000000E-01  1.50000000E+00  8.00000000E-01  8.00000000E-01
  1.50000000E+00  8.00000000E-01  8.00000000E-01  1.50000000E+00  8.00000000E-01
  8.00000000E-01  1.50000000E+00  8.00000000E-01  8.00000000E-01  1.50000000E+00
  8.00000000E-01  8.00000000E-01  1.50000000E+00  8.00000000E-01  8.00000000E-01
  1.50000000E+00  8.00000000E-01  8.00000000E-01  1.50000000E+00  8.00000000E-01
  8.00000000E-01  1.50000000E+00  8.00000000E-01  8.00000000E-01  1.50000000E+00
  8.00000000E-01  8.00000000E-01  1.50000000E+00  8.00000000E-01  8.00000000E-01
  1.50000000E+00  8.00000000E-01  8.00000000E-01  1.50000000E+00  8.00000000E-01
  8.00000000E-01  1.50000000E+00  8.00000000E-01  8.00000000E-01  1.50000000E+00
  8.00000000E-01  8.00000000E-01  1.50000000E+00  8.00000000E-01  8.00000000E-01
  1.50000000E+00  8.00000000E-01  8.00000000E-01  1.50000000E+00  8.00000000E-01
  8.00000000E-01  1.50000000E+00  8.00000000E-01  8.00000000E-01  1.50000000E+00
  8.00000000E-01  8.00000000E-01  1.50000000E+00  8.00000000E-01  8.00000000E-01
  1.50000000E+00  8.00000000E-01  8.00000000E-01  1.50000000E+00  8.00000000E-01
  8.00000000E-01  1.50000000E+00  8.00000000E-01  8.00000000E-01  1.50000000E+00
  8.00000000E-01  8.00000000E-01  1.50000000E+00  8.00000000E-01  8.00000000E-01
  1.50000000E+00  8.00000000E-01  8.00000000E-01  1.50000000E+00  8.00000000E-01
  8.00000000E-01  1.50000000E+00  8.00000000E-01  8.00000000E-01  1.50000000E+00
  8.00000000E-01  8.00000000E-01  1.50000000E+00  8.00000000E-01  8.00000000E-01
  1.50000000E+00  8.00000000E-01  8.00000000E-01  1.50000000E+00  8.00000000E-01
  8.00000000E-01  1.50000000E+00  8.00000000E-01  8.00000000E-01  1.50000000E+00
  8.00000000E-01  8.00000000E-01  1.50000000E+00  8.00000000E-01  8.00000000E-01
  1.50000000E+00  8.00000000E-01  8.00000000E-01  1.50000000E+00  8.00000000E-01
  8.00000000E-01  1.50000000E+00  8.00000000E-01  8.00000000E-01  1.50000000E+00
  8.00000000E-01  8.00000000E-01  1.50000000E+00  8.00000000E-01  8.00000000E-01
  1.50000000E+00  8.00000000E-01  8.00000000E-01  1.50000000E+00  8.00000000E-01
  8.00000000E-01  1.50000000E+00  8.00000000E-01  8.00000000E-01  1.50000000E+00
  8.00000000E-01  8.00000000E-01  1.50000000E+00  8.00000000E-01  8.00000000E-01
  1.50000000E+00  8.00000000E-01  8.00000000E-01  1.50000000E+00  8.00000000E-01
  8.00000000E-01  1.50000000E+00  8.00000000E-01  8.00000000E-01  1.50000000E+00
  8.00000000E-01  8.00000000E-01  1.50000000E+00  8.00000000E-01  8.00000000E-01
  1.50000000E+00  8.00000000E-01  8.00000000E-01  1.50000000E+00  8.00000000E-01
  8.00000000E-01  1.50000000E+00  8.00000000E-01  8.00000000E-01  1.50000000E+00
  8.00000000E-01  8.00000000E-01  1.50000000E+00  8.00000000E-01  8.00000000E-01
  1.50000000E+00  8.00000000E-01  8.00000000E-01  1.50000000E+00  8.00000000E-01
  8.00000000E-01  1.50000000E+00  8.00000000E-01  8.00000000E-01  1.50000000E+00
  8.00000000E-01  8.00000000E-01  1.50000000E+00  8.00000000E-01  8.00000000E-01
  1.50000000E+00  8.00000000E-01  8.00000000E-01  1.50000000E+00  8.00000000E-01
  8.00000000E-01  1.50000000E+00  8.00000000E-01  8.00000000E-01  1.50000000E+00
  8.00000000E-01  8.00000000E-01  1.50000000E+00  8.00000000E-01  8.00000000E-01
  1.50000000E+00  8.00000000E-01  8.00000000E-01  1.50000000E+00  8.00000000E-01
  8.00000000E-01  1.50000000E+00  8.00000000E-01  8.00000000E-01  1.50000000E+00
  8.00000000E-01  8.00000000E-01  1.50000000E+00  8.00000000E-01  8.00000000E-01
  1.50000000E+00  8.00000000E-01  8.00000000E-01  1.50000000E+00  8.00000000E-01
  8.00000000E-01  1.50000000E+00  8.00000000E-01  8.00000000E-01  1.50000000E+00
  8.00000000E-01  8.00000000E-01  1.50000000E+00  8.00000000E-01  8.00000000E-01
  1.50000000E+00  8.00000000E-01  8.00000000E-01  1.50000000E+00  8.00000000E-01
  8.00000000E-01  1.50000000E+00  8.00000000E-01  8.00000000E-01  1.50000000E+00
  8.00000000E-01  8.00000000E-01  1.50000000E+00  8.00000000E-01  8.00000000E-01
  1.50000000E+00  8.00000000E-01  8.00000000E-01  1.50000000E+00  8.00000000E-01
  8.00000000E-01  1.50000000E+00  8.00000000E-01  8.00000000E-01  1.50000000E+00
  8.00000000E-01  8.00000000E-01  1.50000000E+00  8.00000000E-01  8.00000000E-01
  1.50000000E+00  8.00000000E-01  8.00000000E-01  1.50000000E+00  8.00000000E-01
  8.00000000E-01  1.50000000E+00  8.00000000E-01  8.00000000E-01  1.50000000E+00
  8.00000000E-01  8.00000000E-01  1.50000000E+00  8.00000000E-01  8.00000000E-01
  1.50000000E+00  8.00000000E-01  8.00000000E-01  1.50000000E+00  8.00000000E-01
  8.00000000E-01  1.50000000E+00  8.00000000E-01  8.00000000E-01  1.50000000E+00
  8.00000000E-01  8.00000000E-01  1.50000000E+00  8.00000000E-01  8.00000000E-01
  1.50000000E+00  8.00000000E-01  8.00000000E-01  1.50000000E+00  8.00000000E-01
  8.00000000E-01  1.50000000E+00  8.00000000E-01  8.00000000E-01  1.50000000E+00
  8.00000000E-01  8.00000000E-01  1.50000000E+00  8.00000000E-01  8.00000000E-01
  1.50000000E+00  8.00000000E-01  8.00000000E-01  1.50000000E+00  8.00000000E-01
  8.00000000E-01  1.50000000E+00  8.00000000E-01  8.00000000E-01  1.50000000E+00
  8.00000000E-01  8.00000000E-01  1.50000000E+00  8.00000000E-01  8.00000000E-01
  1.50000000E+00  8.00000000E-01  8.00000000E-01  1.50000000E+00  8.00000000E-01
  8.00000000E-01  1.50000000E+00  8.00000000E-01  8.00000000E-01  1.50000000E+00
  8.00000000E-01  8.00000000E-01  1.50000000E+00  8.00000000E-01  8.00000000E-01
  1.50000000E+00  8.00000000E-01  8.00000000E-01  1.50000000E+00  8.00000000E-01
  8.00000000E-01  1.50000000E+00  8.00000000E-01  8.00000000E-01  1.50000000E+00
  8.00000000E-01  8.00000000E-01  1.50000000E+00  8.00000000E-01  8.00000000E-01
  1.50000000E+00  8.00000000E-01  8.00000000E-01  1.50000000E+00  8.00000000E-01
  8.00000000E-01  1.50000000E+00  8.00000000E-01  8.00000000E-01  1.50000000E+00
  8.00000000E-01  8.00000000E-01  1.50000000E+00  8.00000000E-01  8.00000000E-01
  1.50000000E+00  8.00000000E-01  8.00000000E-01  1.50000000E+00  8.00000000E-01
  8.00000000E-01  1.50000000E+00  8.00000000E-01  8.00000000E-01  1.50000000E+00
  8.00000000E-01  8.00000000E-01  1.50000000E+00  8.00000000E-01  8.00000000E-01
  1.50000000E+00  8.00000000E-01  8.00000000E-01  1.50000000E+00  8.00000000E-01
  8.00000000E-01  1.50000000E+00  8.00000000E-01  8.00000000E-01  1.50000000E+00
  8.00000000E-01  8.00000000E-01  1.50000000E+00  8.00000000E-01  8.00000000E-01
  1.50000000E+00  8.00000000E-01  8.00000000E-01  1.50000000E+00  8.00000000E-01
  8.00000000E-01  1.50000000E+00  8.00000000E-01  8.00000000E-01  1.50000000E+00
  8.00000000E-01  8.00000000E-01  1.50000000E+00  8.00000000E-01  8.00000000E-01
  1.50000000E+00  8.00000000E-01  8.00000000E-01  1.50000000E+00  8.00000000E-01
  8.00000000E-01  1.50000000E+00  8.00000000E-01  8.00000000E-01  1.50000000E+00
  8.00000000E-01  8.00000000E-01  1.50000000E+00  8.00000000E-01  8.00000000E-01
  1.50000000E+00  8.00000000E-01  8.00000000E-01  1.50000000E+00  8.00000000E-01
  8.00000000E-01  1.50000000E+00  8.00000000E-01  8.00000000E-01  1.50000000E+00
  8.00000000E-01  8.00000000E-01  1.50000000E+00  8.00000000E-01  8.00000000E-01
  1.50000000E+00  8.00000000E-01  8.00000000E-01  1.50000000E+00  8.00000000E-01
  8.00000000E-01  1.50000000E+00  8.00000000E-01  8.00000000E-01  1.50000000E+00
  8.00000000E-01  8.00000000E-01  1.50000000E+00  8.00000000E-01  8.00000000E-01
  1.50000000E+00  8.00000000E-01  8.00000000E-01  1.50000000E+00  8.00000000E-01
  8.00000000E-01  1.50000000E+00  8.00000000E-01  8.00000000E-01  1.50000000E+00
  8.00000000E-01  8.00000000E-01  1.50000000E+00  8.00000000E-01  8.00000000E-01
  1.50000000E+00  8.00000000E-01  8.00000000E-01  1.50000000E+00  8.00000000E-01
  8.00000000E-01  1.50000000E+00  8.00000000E-01  8.00000000E-01  1.50000000E+00
  8.00000000E-01  8.00000000E-01  1.50000000E+00  8.00000000E-01  8.00000000E-01
  1.50000000E+00  8.00000000E-01  8.00000000E-01  1.50000000E+00  8.00000000E-01
  8.00000000E-01  1.50000000E+00  8.00000000E-01  8.00000000E-01  1.50000000E+00
  8.00000000E-01  8.00000000E-01  1.50000000E+00  8.00000000E-01  8.00000000E-01
  1.50000000E+00  8.00000000E-01  8.00000000E-01  1.50000000E+00  8.00000000E-01
  8.00000000E-01  1.50000000E+00  8.00000000E-01  8.00000000E-01  1.50000000E+00
  8.00000000E-01  8.00000000E-01  1.50000000E+00  8.00000000E-01  8.00000000E-01
  1.50000000E+00  8.00000000E-01  8.00000000E-01  1.50000000E+00  8.00000000E-01
  8.00000000E-01  1.50000000E+00  8.00000000E-01  8.00000000E-01  1.50000000E+00
  8.00000000E-01  8.00000000E-01  1.50000000E+00  8.00000000E-01  8.00000000E-01
  1.50000000E+00  8.00000000E-01  8.00000000E-01  1.50000000E+00  8.00000000E-01
  8.00000000E-01  1.50000000E+00  8.00000000E-01  8.00000000E-01  1.50000000E+00
  8.00000000E-01  8.00000000E-01  1.50000000E+00  8.00000000E-01  8.00000000E-01
  1.50000000E+00  8.00000000E-01  8.00000000E-01  1.50000000E+00  8.00000000E-01
  8.00000000E-01  1.50000000E+00  8.00000000E-01  8.00000000E-01  1.50000000E+00
  8.00000000E-01  8.00000000E-01  1.50000000E+00  8.00000000E-01  8.00000000E-01
  1.50000000E+00  8.00000000E-01  8.00000000E-01  1.50000000E+00  8.00000000E-01
  8.00000000E-01  1.50000000E+00  8.00000000E-01  8.00000000E-01  1.50000000E+00
  8.00000000E-01  8.00000000E-01  1.50000000E+00  8.00000000E-01  8.00000000E-01
  1.50000000E+00  8.00000000E-01  8.00000000E-01  1.50000000E+00  8.00000000E-01
  8.00000000E-01  1.50000000E+00  8.00000000E-01  8.00000000E-01  1.50000000E+00
  8.00000000E-01  8.00000000E-01  1.50000000E+00  8.00000000E-01  8.00000000E-01
  1.50000000E+00  8.00000000E-01  8.00000000E-01  1.50000000E+00  8.00000000E-01
  8.00000000E-01  1.50000000E+00  8.00000000E-01  8.00000000E-01  1.50000000E+00
  8.00000000E-01  8.00000000E-01  1.50000000E+00  8.00000000E-01  8.00000000E-01
  1.50000000E+00  8.00000000E-01  8.00000000E-01  1.50000000E+00  8.00000000E-01
  8.00000000E-01  1.50000000E+00  8.00000000E-01  8.00000000E-01  1.50000000E+00
  8.00000000E-01  8.00000000E-01  1.50000000E+00  8.00000000E-01  8.00000000E-01
  1.50000000E+00  8.00000000E-01  8.00000000E-01  1.50000000E+00  8.00000000E-01
  8.00000000E-01  1.50000000E+00  8.00000000E-01  8.00000000E-01  1.50000000E+00
  8.00000000E-01  8.00000000E-01  1.50000000E+00  8.00000000E-01  8.00000000E-01
  1.50000000E+00  8.00000000E-01  8.00000000E-01  1.50000000E+00  8.00000000E-01
  8.00000000E-01  1.50000000E+00  8.00000000E-01  8.00000000E-01  1.50000000E+00
  8.00000000E-01  8.00000000E-01  1.50000000E+00  8.00000000E-01  8.00000000E-01
  1.50000000E+00  8.00000000E-01  8.00000000E-01  1.50000000E+00  8.00000000E-01
  8.00000000E-01  1.50000000E+00  8.00000000E-01  8.00000000E-01  1.50000000E+00
  8.00000000E-01  8.00000000E-01  1.50000000E+00  8.00000000E-01  8.00000000E-01
  1.50000000E+00  8.00000000E-01  8.00000000E-01  1.50000000E+00  8.00000000E-01
  8.00000000E-01  1.50000000E+00  8.00000000E-01  8.00000000E-01  1.50000000E+00
  8.00000000E-01  8.00000000E-01  1.50000000E+00  8.00000000E-01  8.00000000E-01
  1.50000000E+00  8.00000000E-01  8.00000000E-01  1.50000000E+00  8.00000000E-01
  8.00000000E-01  1.50000000E+00  8.00000000E-01  8.00000000E-01  1.50000000E+00
  8.00000000E-01  8.00000000E-01  1.50000000E+00  8.00000000E-01  8.00000000E-01
  1.50000000E+00  8.00000000E-01  8.00000000E-01  1.50000000E+00  8.00000000E-01
  8.00000000E-01  1.50000000E+00  8.00000000E-01  8.00000000E-01  1.50000000E+00
  8.00000000E-01  8.00000000E-01  1.50000000E+00  8.00000000E-01  8.00000000E-01
  1.50000000E+00  8.00000000E-01  8.00000000E-01  1.50000000E+00  8.00000000E-01
  8.00000000E-01  1.50000000E+00  8.00000000E-01  8.00000000E-01  1.50000000E+00
  8.00000000E-01  8.00000000E-01  1.50000000E+00  8.00000000E-01  8.00000000E-01
  1.50000000E+00  8.00000000E-01  8.00000000E-01  1.50000000E+00  8.00000000E-01
  8.00000000E-01  1.50000000E+00  8.00000000E-01  8.00000000E-01  1.50000000E+00
  8.00000000E-01  8.00000000E-01  1.50000000E+00  8.00000000E-01  8.00000000E-01
  1.50000000E+00  8.00000000E-01  8.00000000E-01  1.50000000E+00  8.00000000E-01
  8.00000000E-01  1.50000000E+00  8.00000000E-01  8.00000000E-01  1.50000000E+00
  8.00000000E-01  8.00000000E-01  1.50000000E+00  8.00000000E-01  8.00000000E-01
  1.50000000E+00  8.00000000E-01  8.00000000E-01  1.50000000E+00  8.00000000E-01
  8.00000000E-01  1.50000000E+00  8.00000000E-01  8.00000000E-01  1.50000000E+00
  8.00000000E-01  8.00000000E-01  1.50000000E+00  8.00000000E-01  8.00000000E-01
  1.50000000E+00  8.00000000E-01  8.00000000E-01  1.50000000E+00  8.00000000E-01
  8.00000000E-01  1.50000000E+00  8.00000000E-01  8.00000000E-01  1.50000000E+00
  8.00000000E-01  8.00000000E-01  1.50000000E+00  8.00000000E-01  8.00000000E-01
  1.50000000E+00  8.00000000E-01  8.00000000E-01  1.50000000E+00  8.00000000E-01
  8.00000000E-01  1.50000000E+00  8.00000000E-01  8.00000000E-01  1.50000000E+00
  8.00000000E-01  8.00000000E-01  1.50000000E+00  8.00000000E-01  8.00000000E-01
  1.50000000E+00  8.00000000E-01  8.00000000E-01  1.50000000E+00  8.00000000E-01
  8.00000000E-01  1.50000000E+00  8.00000000E-01  8.00000000E-01  1.50000000E+00
  8.00000000E-01  8.00000000E-01  1.50000000E+00  8.00000000E-01  8.00000000E-01
  1.50000000E+00  8.00000000E-01  8.00000000E-01  1.50000000E+00  8.00000000E-01
  8.00000000E-01  1.50000000E+00  8.00000000E-01  8.00000000E-01  1.50000000E+00
  8.00000000E-01  8.00000000E-01  1.50000000E+00  8.00000000E-01  8.00000000E-01
  1.50000000E+00  8.00000000E-01  8.00000000E-01  1.50000000E+00  8.00000000E-01
  8.00000000E-01  1.50000000E+00  8.00000000E-01  8.00000000E-01  1.50000000E+00
  8.00000000E-01  8.00000000E-01  1.50000000E+00  8.00000000E-01  8.00000000E-01
  1.50000000E+00  8.00000000E-01  8.00000000E-01  1.50000000E+00  8.00000000E-01
  8.00000000E-01  1.50000000E+00  8.00000000E-01  8.00000000E-01  1.50000000E+00
  8.00000000E-01  8.00000000E-01  1.50000000E+00  8.00000000E-01  8.00000000E-01
  1.50000000E+00  8.00000000E-01  8.00000000E-01  1.50000000E+00  8.00000000E-01
  8.00000000E-01  1.50000000E+00  8.00000000E-01  8.00000000E-01  1.50000000E+00
  8.00000000E-01  8.00000000E-01  1.50000000E+00  8.00000000E-01  8.00000000E-01
  1.50000000E+00  8.00000000E-01  8.00000000E-01  1.50000000E+00  8.00000000E-01
  8.00000000E-01  1.50000000E+00  8.00000000E-01  8.00000000E-01  1.50000000E+00
  8.00000000E-01  8.00000000E-01  1.50000000E+00  8.00000000E-01  8.00000000E-01
  1.50000000E+00  8.00000000E-01  8.00000000E-01  1.50000000E+00  8.00000000E-01
  8.00000000E-01  1.50000000E+00  8.00000000E-01  8.00000000E-01  1.50000000E+00
  8.00000000E-01  8.00000000E-01  1.50000000E+00  8.00000000E-01  8.00000000E-01
  1.50000000E+00  8.00000000E-01  8.00000000E-01  1.50000000E+00  8.00000000E-01
  8.00000000E-01  1.50000000E+00  8.00000000E-01  8.00000000E-01  1.50000000E+00
  8.00000000E-01  8.00000000E-01  1.50000000E+00  8.00000000E-01  8.00000000E-01
  1.50000000E+00  8.00000000E-01  8.00000000E-01  1.50000000E+00  8.00000000E-01
  8.00000000E-01  1.50000000E+00  8.00000000E-01  8.00000000E-01  1.50000000E+00
  8.00000000E-01  8.00000000E-01  1.50000000E+00  8.00000000E-01  8.00000000E-01
  1.50000000E+00  8.00000000E-01  8.00000000E-01  1.50000000E+00  8.00000000E-01
  8.00000000E-01  1.50000000E+00  8.00000000E-01  8.00000000E-01  1.50000000E+00
  8.00000000E-01  8.00000000E-01  1.50000000E+00  8.00000000E-01  8.00000000E-01
  1.50000000E+00  8.00000000E-01  8.00000000E-01  1.50000000E+00  8.00000000E-01
  8.00000000E-01  1.50000000E+00  8.00000000E-01  8.00000000E-01  1.50000000E+00
  8.00000000E-01  8.00000000E-01  1.50000000E+00  8.00000000E-01  8.00000000E-01
  1.50000000E+00  8.00000000E-01  8.00000000E-01  1.50000000E+00  8.00000000E-01
  8.00000000E-01  1.50000000E+00  8.00000000E-01  8.00000000E-01  1.50000000E+00
  8.00000000E-01  8.00000000E-01  1.50000000E+00  8.00000000E-01  8.00000000E-01
  1.50000000E+00  8.00000000E-01  8.00000000E-01  1.50000000E+00  8.00000000E-01
  8.00000000E-01  1.50000000E+00  8.00000000E-01  8.00000000E-01  1.50000000E+00
  8.00000000E-01  8.00000000E-01  1.50000000E+00  8.00000000E-01  8.00000000E-01
  1.50000000E+00  8.00000000E-01  8.00000000E-01  1.50000000E+00  8.00000000E-01
  8.00000000E-01  1.50000000E+00  8.00000000E-01  8.00000000E-01  1.50000000E+00
  8.00000000E-01  8.00000000E-01  1.50000000E+00  8.00000000E-01  8.00000000E-01
  1.50000000E+00  8.00000000E-01  8.00000000E-01  1.50000000E+00  8.00000000E-01
  8.00000000E-01  1.50000000E+00  8.00000000E-01  8.00000000E-01  1.50000000E+00
  8.00000000E-01  8.00000000E-01  1.50000000E+00  8.00000000E-01  8.00000000E-01
  1.50000000E+00  8.00000000E-01  8.00000000E-01  1.50000000E+00  8.00000000E-01
  8.00000000E-01  1.50000000E+00  8.00000000E-01  8.00000000E-01  1.50000000E+00
  8.00000000E-01  8.00000000E-01  1.50000000E+00  8.00000000E-01  8.00000000E-01
  1.50000000E+00  8.00000000E-01  8.00000000E-01  1.50000000E+00  8.00000000E-01
  8.00000000E-01  1.50000000E+00  8.00000000E-01  8.00000000E-01  1.50000000E+00
  8.00000000E-01  8.00000000E-01  1.50000000E+00  8.00000000E-01  8.00000000E-01
  1.50000000E+00  8.00000000E-01  8.00000000E-01  1.50000000E+00  8.00000000E-01
  8.00000000E-01  1.50000000E+00  8.00000000E-01  8.00000000E-01  1.50000000E+00
  8.00000000E-01  8.00000000E-01  1.50000000E+00  8.00000000E-01  8.00000000E-01
  1.50000000E+00  8.00000000E-01  8.00000000E-01  1.50000000E+00  8.00000000E-01
  8.00000000E-01  1.50000000E+00  8.00000000E-01  8.00000000E-01  1.50000000E+00
  8.00000000E-01  8.00000000E-01  1.50000000E+00  8.00000000E-01  8.00000000E-01
  1.50000000E+00  8.00000000E-01  8.00000000E-01  1.50000000E+00  8.00000000E-01
  8.00000000E-01  1.50000000E+00  8.00000000E-01  8.00000000E-01  1.50000000E+00
  8.00000000E-01  8.00000000E-01  1.50000000E+00  8.00000000E-01  8.00000000E-01
  1.50000000E+00  8.00000000E-01  8.00000000E-01  1.50000000E+00  8.00000000E-01
  8.00000000E-01  1.50000000E+00  8.00000000E-01  8.00000000E-01  1.50000000E+00
  8.00000000E-01  8.00000000E-01  1.50000000E+00  8.00000000E-01  8.00000000E-01
  1.50000000E+00  8.00000000E-01  8.00000000E-01  1.50000000E+00  8.00000000E-01
  8.00000000E-01  1.50000000E+00  8.00000000E-01  8.00000000E-01  1.50000000E+00
  8.00000000E-01  8.00000000E-01  1.50000000E+00  8.00000000E-01  8.00000000E-01
  1.50000000E+00  8.00000000E-01  8.00000000E-01  1.50000000E+00  8.00000000E-01
  8.00000000E-01  1.50000000E+00  8.00000000E-01  8.00000000E-01  1.50000000E+00
  8.00000000E-01  8.00000000E-01  1.50000000E+00  8.00000000E-01  8.00000000E-01
  1.50000000E+00  8.00000000E-01  8.00000000E-01  1.50000000E+00  8.00000000E-01
  8.00000000E-01  1.50000000E+00  8.00000000E-01  8.00000000E-01  1.50000000E+00
  8.00000000E-01  8.00000000E-01  1.50000000E+00  8.00000000E-01  8.00000000E-01
  1.50000000E+00  8.00000000E-01  8.00000000E-01  1.50000000E+00  8.00000000E-01
  8.00000000E-01  1.50000000E+00  8.00000000E-01  8.00000000E-01  1.50000000E+00
  8.00000000E-01  8.00000000E-01  1.50000000E+00  8.00000000E-01  8.00000000E-01
  1.50000000E+00  8.00000000E-01  8.00000000E-01  1.50000000E+00  8.00000000E-01
  8.00000000E-01  1.50000000E+00  8.00000000E-01  8.00000000E-01  1.50000000E+00
  8.00000000E-01  8.00000000E-01  1.50000000E+00  8.00000000E-01  8.00000000E-01
  1.50000000E+00  8.00000000E-01  8.00000000E-01  1.50000000E+00  8.00000000E-01
  8.00000000E-01  1.50000000E+00  8.00000000E-01  8.00000000E-01  1.50000000E+00
  8.00000000E-01  8.00000000E-01  1.50000000E+00  8.00000000E-01  8.00000000E-01
  1.50000000E+00  8.00000000E-01  8.00000000E-01  1.50000000E+00  8.00000000E-01
  8.00000000E-01  1.50000000E+00  8.00000000E-01  8.00000000E-01  1.50000000E+00
  8.00000000E-01  8.00000000E-01  1.50000000E+00  8.00000000E-01  8.00000000E-01
  1.50000000E+00  8.00000000E-01  8.00000000E-01  1.50000000E+00  8.00000000E-01
  8.00000000E-01  1.50000000E+00  8.00000000E-01  8.00000000E-01  1.50000000E+00
  8.00000000E-01  8.00000000E-01  1.50000000E+00  8.00000000E-01  8.00000000E-01
  1.50000000E+00  8.00000000E-01  8.00000000E-01  1.50000000E+00  8.00000000E-01
  8.00000000E-01  1.50000000E+00  8.00000000E-01  8.00000000E-01  1.50000000E+00
  8.00000000E-01  8.00000000E-01  1.50000000E+00  8.00000000E-01  8.00000000E-01
  1.50000000E+00  8.00000000E-01  8.00000000E-01  1.50000000E+00  8.00000000E-01
  8.00000000E-01  1.50000000E+00  8.00000000E-01  8.00000000E-01  1.50000000E+00
  8.00000000E-01  8.00000000E-01  1.50000000E+00  8.00000000E-01  8.00000000E-01
  1.50000000E+00  8.00000000E-01  8.00000000E-01  1.50000000E+00  8.00000000E-01
  8.00000000E-01  1.50000000E+00  8.00000000E-01  8.00000000E-01  1.50000000E+00
  8.00000000E-01  8.00000000E-01  1.50000000E+00  8.00000000E-01  8.00000000E-01
  1.50000000E+00  8.00000000E-01  8.00000000E-01  1.50000000E+00  8.00000000E-01
  8.00000000E-01  1.50000000E+00  8.00000000E-01  8.00000000E-01  1.50000000E+00
  8.00000000E-01  8.00000000E-01  1.50000000E+00  8.00000000E-01  8.00000000E-01
  1.50000000E+00  8.00000000E-01  8.00000000E-01  1.50000000E+00  8.00000000E-01
  8.00000000E-01  1.50000000E+00  8.00000000E-01  8.00000000E-01  1.50000000E+00
  8.00000000E-01  8.00000000E-01  1.50000000E+00  8.00000000E-01  8.00000000E-01
  1.50000000E+00  8.00000000E-01  8.00000000E-01  1.50000000E+00  8.00000000E-01
  8.00000000E-01  1.50000000E+00  8.00000000E-01  8.00000000E-01  1.50000000E+00
  8.00000000E-01  8.00000000E-01  1.50000000E+00  8.00000000E-01  8.00000000E-01
  1.50000000E+00  8.00000000E-01  8.00000000E-01  1.50000000E+00  8.00000000E-01
  8.00000000E-01  1.50000000E+00  8.00000000E-01  8.00000000E-01  1.50000000E+00
  8.00000000E-01  8.00000000E-01  1.50000000E+00  8.00000000E-01  8.00000000E-01
  1.50000000E+00  8.00000000E-01  8.00000000E-01  1.50000000E+00  8.00000000E-01
  8.00000000E-01  1.50000000E+00  8.00000000E-01  8.00000000E-01  1.50000000E+00
  8.00000000E-01  8.00000000E-01  1.50000000E+00  8.00000000E-01  8.00000000E-01
  1.50000000E+00  8.00000000E-01  8.00000000E-01  1.50000000E+00  8.00000000E-01
  8.00000000E-01  1.50000000E+00  8.00000000E-01  8.00000000E-01  1.50000000E+00
  8.00000000E-01  8.00000000E-01  1.50000000E+00  8.00000000E-01  8.00000000E-01
  1.50000000E+00  8.00000000E-01  8.00000000E-01  1.50000000E+00  8.00000000E-01
  8.00000000E-01  1.50000000E+00  8.00000000E-01  8.00000000E-01  1.50000000E+00
  8.00000000E-01  8.00000000E-01  1.50000000E+00  8.00000000E-01  8.00000000E-01
  1.50000000E+00  8.00000000E-01  8.00000000E-01  1.50000000E+00  8.00000000E-01
  8.00000000E-01  1.50000000E+00  8.00000000E-01  8.00000000E-01  1.50000000E+00
  8.00000000E-01  8.00000000E-01  1.50000000E+00  8.00000000E-01  8.00000000E-01
  1.50000000E+00  8.00000000E-01  8.00000000E-01  1.50000000E+00  8.00000000E-01
  8.00000000E-01  1.50000000E+00  8.00000000E-01  8.00000000E-01  1.50000000E+00
  8.00000000E-01  8.00000000E-01  1.50000000E+00  8.00000000E-01  8.00000000E-01
  1.50000000E+00  8.00000000E-01  8.00000000E-01  1.50000000E+00  8.00000000E-01
  8.00000000E-01  1.50000000E+00  8.00000000E-01  8.00000000E-01  1.50000000E+00
  8.00000000E-01  8.00000000E-01  1.50000000E+00  8.00000000E-01  8.00000000E-01
  1.50000000E+00  8.00000000E-01  8.00000000E-01  1.50000000E+00  8.00000000E-01
  8.00000000E-01  1.50000000E+00  8.00000000E-01  8.00000000E-01  1.50000000E+00
  8.00000000E-01  8.00000000E-01  1.50000000E+00  8.00000000E-01  8.00000000E-01
  1.50000000E+00  8.00000000E-01  8.00000000E-01  1.50000000E+00  8.00000000E-01
  8.00000000E-01  1.50000000E+00  8.00000000E-01  8.00000000E-01  1.50000000E+00
  8.00000000E-01  8.00000000E-01  1.50000000E+00  8.00000000E-01  8.00000000E-01
  1.50000000E+00  8.00000000E-01  8.00000000E-01  1.50000000E+00  8.00000000E-01
  8.00000000E-01  1.50000000E+00  8.00000000E-01  8.00000000E-01  1.50000000E+00
  8.00000000E-01  8.00000000E-01  1.50000000E+00  8.00000000E-01  8.00000000E-01
  1.50000000E+00  8.00000000E-01  8.00000000E-01  1.50000000E+00  8.00000000E-01
  8.00000000E-01  1.50000000E+00  8.00000000E-01  8.00000000E-01  1.50000000E+00
  8.00000000E-01  8.00000000E-01  1.50000000E+00  8.00000000E-01  8.00000000E-01
  1.50000000E+00  8.00000000E-01  8.00000000E-01  1.50000000E+00  8.00000000E-01
  8.00000000E-01  1.50000000E+00  8.00000000E-01  8.00000000E-01  1.50000000E+00
  8.00000000E-01  8.00000000E-01  1.50000000E+00  8.00000000E-01  8.00000000E-01
  1.50000000E+00  8.00000000E-01  8.00000000E-01  1.50000000E+00  8.00000000E-01
  8.00000000E-01  1.50000000E+00  8.00000000E-01  8.00000000E-01  1.50000000E+00
  8.00000000E-01  8.00000000E-01  1.50000000E+00  8.00000000E-01  8.00000000E-01
  1.50000000E+00  8.00000000E-01  8.00000000E-01  1.50000000E+00  8.00000000E-01
  8.00000000E-01  1.50000000E+00  8.00000000E-01  8.00000000E-01  1.50000000E+00
  8.00000000E-01  8.00000000E-01  1.50000000E+00  8.00000000E-01  8.00000000E-01
  1.50000000E+00  8.00000000E-01  8.00000000E-01  1.50000000E+00  8.00000000E-01
  8.00000000E-01  1.50000000E+00  8.00000000E-01  8.00000000E-01  1.50000000E+00
  8.00000000E-01  8.00000000E-01  1.50000000E+00  8.00000000E-01  8.00000000E-01
  1.50000000E+00  8.00000000E-01  8.00000000E-01  1.50000000E+00  8.00000000E-01
  8.00000000E-01  1.50000000E+00  8.00000000E-01  8.00000000E-01  1.50000000E+00
  8.00000000E-01  8.00000000E-01  1.50000000E+00  8.00000000E-01  8.00000000E-01
  1.50000000E+00  8.00000000E-01  8.00000000E-01  1.50000000E+00  8.00000000E-01
  8.00000000E-01  1.50000000E+00  8.00000000E-01  8.00000000E-01  1.50000000E+00
  8.00000000E-01  8.00000000E-01  1.50000000E+00  8.00000000E-01  8.00000000E-01
  1.50000000E+00  8.00000000E-01  8.00000000E-01  1.50000000E+00  8.00000000E-01
  8.00000000E-01  1.50000000E+00  8.00000000E-01  8.00000000E-01  1.50000000E+00
  8.00000000E-01  8.00000000E-01  1.50000000E+00  8.00000000E-01  8.00000000E-01
  1.50000000E+00  8.00000000E-01  8.00000000E-01  1.50000000E+00  8.00000000E-01
  8.00000000E-01  1.50000000E+00  8.00000000E-01  8.00000000E-01  1.50000000E+00
  8.00000000E-01  8.00000000E-01  1.50000000E+00  8.00000000E-01  8.00000000E-01
  1.50000000E+00  8.00000000E-01  8.00000000E-01  1.50000000E+00  8.00000000E-01
  8.00000000E-01  1.50000000E+00  8.00000000E-01  8.00000000E-01  1.50000000E+00
  8.00000000E-01  8.00000000E-01  1.50000000E+00  8.00000000E-01  8.00000000E-01
  1.50000000E+00  8.00000000E-01  8.00000000E-01  1.50000000E+00  8.00000000E-01
  8.00000000E-01  1.50000000E+00  8.00000000E-01  8.00000000E-01  1.50000000E+00
  8.00000000E-01  8.00000000E-01  1.50000000E+00  8.00000000E-01  8.00000000E-01
  1.50000000E+00  8.00000000E-01  8.00000000E-01  1.50000000E+00  8.00000000E-01
  8.00000000E-01  1.50000000E+00  8.00000000E-01  8.00000000E-01  1.50000000E+00
  8.00000000E-01  8.00000000E-01  1.50000000E+00  8.00000000E-01  8.00000000E-01
  1.50000000E+00  8.00000000E-01  8.00000000E-01  1.50000000E+00  8.00000000E-01
  8.00000000E-01  1.50000000E+00  8.00000000E-01  8.00000000E-01  1.50000000E+00
  8.00000000E-01  8.00000000E-01  1.50000000E+00  8.00000000E-01  8.00000000E-01
  1.50000000E+00  8.00000000E-01  8.00000000E-01  1.50000000E+00  8.00000000E-01
  8.00000000E-01  1.50000000E+00  8.00000000E-01  8.00000000E-01  1.50000000E+00
  8.00000000E-01  8.00000000E-01  1.50000000E+00  8.00000000E-01  8.00000000E-01
  1.50000000E+00  8.00000000E-01  8.00000000E-01  1.50000000E+00  8.00000000E-01
  8.00000000E-01  1.50000000E+00  8.00000000E-01  8.00000000E-01  1.50000000E+00
  8.00000000E-01  8.00000000E-01  1.50000000E+00  8.00000000E-01  8.00000000E-01
  1.50000000E+00  8.00000000E-01  8.00000000E-01  1.50000000E+00  8.00000000E-01
  8.00000000E-01  1.50000000E+00  8.00000000E-01  8.00000000E-01  1.50000000E+00
  8.00000000E-01  8.00000000E-01  1.50000000E+00  8.00000000E-01  8.00000000E-01
  1.50000000E+00  8.00000000E-01  8.00000000E-01  1.50000000E+00  8.00000000E-01
  8.00000000E-01  1.50000000E+00  8.00000000E-01  8.00000000E-01  1.50000000E+00
  8.00000000E-01  8.00000000E-01  1.50000000E+00  8.00000000E-01  8.00000000E-01
  1.50000000E+00  8.00000000E-01  8.00000000E-01  1.50000000E+00  8.00000000E-01
  8.00000000E-01  1.50000000E+00  8.00000000E-01  8.00000000E-01  1.50000000E+00
  8.00000000E-01  8.00000000E-01  1.50000000E+00  8.00000000E-01  8.00000000E-01
  1.50000000E+00  8.00000000E-01  8.00000000E-01  1.50000000E+00  8.00000000E-01
  8.00000000E-01  1.50000000E+00  8.00000000E-01  8.00000000E-01  1.50000000E+00
  8.00000000E-01  8.00000000E-01  1.50000000E+00  8.00000000E-01  8.00000000E-01
  1.50000000E+00  8.00000000E-01  8.00000000E-01  1.50000000E+00  8.00000000E-01
  8.00000000E-01  1.50000000E+00  8.00000000E-01  8.00000000E-01  1.50000000E+00
  8.00000000E-01  8.00000000E-01  1.50000000E+00  8.00000000E-01  8.00000000E-01
  1.50000000E+00  8.00000000E-01  8.00000000E-01  1.50000000E+00  8.00000000E-01
  8.00000000E-01  1.50000000E+00  8.00000000E-01  8.00000000E-01  1.50000000E+00
  8.00000000E-01  8.00000000E-01  1.50000000E+00  8.00000000E-01  8.00000000E-01
  1.50000000E+00  8.00000000E-01  8.00000000E-01  1.50000000E+00  8.00000000E-01
  8.00000000E-01  1.50000000E+00  8.00000000E-01  8.00000000E-01  1.50000000E+00
  8.00000000E-01  8.00000000E-01  1.50000000E+00  8.00000000E-01  8.00000000E-01
  1.50000000E+00  8.00000000E-01  8.00000000E-01  1.50000000E+00  8.00000000E-01
  8.00000000E-01  1.50000000E+00  8.00000000E-01  8.00000000E-01  1.50000000E+00
  8.00000000E-01  8.00000000E-01  1.50000000E+00  8.00000000E-01  8.00000000E-01
  1.50000000E+00  8.00000000E-01  8.00000000E-01  1.50000000E+00  8.00000000E-01
  8.00000000E-01  1.50000000E+00  8.00000000E-01  8.00000000E-01  1.50000000E+00
  8.00000000E-01  8.00000000E-01  1.50000000E+00  8.00000000E-01  8.00000000E-01
  1.50000000E+00  8.00000000E-01  8.00000000E-01  1.50000000E+00  8.00000000E-01
  8.00000000E-01  1.50000000E+00  8.00000000E-01  8.00000000E-01  1.50000000E+00
  8.00000000E-01  8.00000000E-01  1.50000000E+00  8.00000000E-01  8.00000000E-01
  1.50000000E+00  8.00000000E-01  8.00000000E-01  1.50000000E+00  8.00000000E-01
  8.00000000E-01  1.50000000E+00  8.00000000E-01  8.00000000E-01  1.50000000E+00
  8.00000000E-01  8.00000000E-01  1.50000000E+00  8.00000000E-01  8.00000000E-01
  1.50000000E+00  8.00000000E-01  8.00000000E-01  1.50000000E+00  8.00000000E-01
  8.00000000E-01  1.50000000E+00  8.00000000E-01  8.00000000E-01  1.50000000E+00
  8.00000000E-01  8.00000000E-01  1.50000000E+00  8.00000000E-01  8.00000000E-01
  1.50000000E+00  8.00000000E-01  8.00000000E-01  1.50000000E+00  8.00000000E-01
  8.00000000E-01  1.50000000E+00  8.00000000E-01  8.00000000E-01  1.50000000E+00
  8.00000000E-01  8.00000000E-01  1.50000000E+00  8.00000000E-01  8.00000000E-01
  1.50000000E+00  8.00000000E-01  8.00000000E-01  1.50000000E+00  8.00000000E-01
  8.00000000E-01  1.50000000E+00  8.00000000E-01  8.00000000E-01  1.50000000E+00
  8.00000000E-01  8.00000000E-01  1.50000000E+00  8.00000000E-01  8.00000000E-01
  1.50000000E+00  8.00000000E-01  8.00000000E-01  1.50000000E+00  8.00000000E-01
  8.00000000E-01  1.50000000E+00  8.00000000E-01  8.00000000E-01  1.50000000E+00
  8.00000000E-01  8.00000000E-01  1.50000000E+00  8.00000000E-01  8.00000000E-01
  1.50000000E+00  8.00000000E-01  8.00000000E-01  1.50000000E+00  8.00000000E-01
  8.00000000E-01  1.50000000E+00  8.00000000E-01  8.00000000E-01  1.50000000E+00
  8.00000000E-01  8.00000000E-01  1.50000000E+00  8.00000000E-01  8.00000000E-01
  1.50000000E+00  8.00000000E-01  8.00000000E-01  1.50000000E+00  8.00000000E-01
  8.00000000E-01  1.50000000E+00  8.00000000E-01  8.00000000E-01  1.50000000E+00
  8.00000000E-01  8.00000000E-01  1.50000000E+00  8.00000000E-01  8.00000000E-01
  1.50000000E+00  8.00000000E-01  8.00000000E-01  1.50000000E+00  8.00000000E-01
  8.00000000E-01  1.50000000E+00  8.00000000E-01  8.00000000E-01  1.50000000E+00
  8.00000000E-01  8.00000000E-01  1.50000000E+00  8.00000000E-01  8.00000000E-01
  1.50000000E+00  8.00000000E-01  8.00000000E-01  1.50000000E+00  8.00000000E-01
  8.00000000E-01  1.50000000E+00  8.00000000E-01  8.00000000E-01  1.50000000E+00
  8.00000000E-01  8.00000000E-01  1.50000000E+00  8.00000000E-01  8.00000000E-01
  1.50000000E+00  8.00000000E-01  8.00000000E-01  1.50000000E+00  8.00000000E-01
  8.00000000E-01  1.50000000E+00  8.00000000E-01  8.00000000E-01  1.50000000E+00
  8.00000000E-01  8.00000000E-01  1.50000000E+00  8.00000000E-01  8.00000000E-01
  1.50000000E+00  8.00000000E-01  8.00000000E-01  1.50000000E+00  8.00000000E-01
  8.00000000E-01  1.50000000E+00  8.00000000E-01  8.00000000E-01  1.50000000E+00
  8.00000000E-01  8.00000000E-01  1.50000000E+00  8.00000000E-01  8.00000000E-01
  1.50000000E+00  8.00000000E-01  8.00000000E-01  1.50000000E+00  8.00000000E-01
  8.00000000E-01  1.50000000E+00  8.00000000E-01  8.00000000E-01  1.50000000E+00
  8.00000000E-01  8.00000000E-01  1.50000000E+00  8.00000000E-01  8.00000000E-01
  1.50000000E+00  8.00000000E-01  8.00000000E-01  1.50000000E+00  8.00000000E-01
  8.00000000E-01  1.50000000E+00  8.00000000E-01  8.00000000E-01  1.50000000E+00
  8.00000000E-01  8.00000000E-01  1.50000000E+00  8.00000000E-01  8.00000000E-01
  1.50000000E+00  8.00000000E-01  8.00000000E-01  1.50000000E+00  8.00000000E-01
  8.00000000E-01  1.50000000E+00  8.00000000E-01  8.00000000E-01  1.50000000E+00
  8.00000000E-01  8.00000000E-01  1.50000000E+00  8.00000000E-01  8.00000000E-01
  1.50000000E+00  8.00000000E-01  8.00000000E-01  1.50000000E+00  8.00000000E-01
  8.00000000E-01  1.50000000E+00  8.00000000E-01  8.00000000E-01  1.50000000E+00
  8.00000000E-01  8.00000000E-01  1.50000000E+00  8.00000000E-01  8.00000000E-01
  1.50000000E+00  8.00000000E-01  8.00000000E-01  1.50000000E+00  8.00000000E-01
  8.00000000E-01  1.50000000E+00  8.00000000E-01  8.00000000E-01  1.50000000E+00
  8.00000000E-01  8.00000000E-01  1.50000000E+00  8.00000000E-01  8.00000000E-01
  1.50000000E+00  8.00000000E-01  8.00000000E-01  1.50000000E+00  8.00000000E-01
  8.00000000E-01  1.50000000E+00  8.00000000E-01  8.00000000E-01  1.50000000E+00
  8.00000000E-01  8.00000000E-01  1.50000000E+00  8.00000000E-01  8.00000000E-01
  1.50000000E+00  8.00000000E-01  8.00000000E-01  1.50000000E+00  8.00000000E-01
  8.00000000E-01  1.50000000E+00  8.00000000E-01  8.00000000E-01  1.50000000E+00
  8.00000000E-01  8.00000000E-01  1.50000000E+00  8.00000000E-01  8.00000000E-01
  1.50000000E+00  8.00000000E-01  8.00000000E-01  1.50000000E+00  8.00000000E-01
  8.00000000E-01  1.50000000E+00  8.00000000E-01  8.00000000E-01  1.50000000E+00
  8.00000000E-01  8.00000000E-01  1.50000000E+00  8.00000000E-01  8.00000000E-01
  1.50000000E+00  8.00000000E-01  8.00000000E-01  1.50000000E+00  8.00000000E-01
  8.00000000E-01  1.50000000E+00  8.00000000E-01  8.00000000E-01  1.50000000E+00
  8.00000000E-01  8.00000000E-01  1.50000000E+00  8.00000000E-01  8.00000000E-01
  1.50000000E+00  8.00000000E-01  8.00000000E-01  1.50000000E+00  8.00000000E-01
  8.00000000E-01  1.50000000E+00  8.00000000E-01  8.00000000E-01  1.50000000E+00
  8.00000000E-01  8.00000000E-01  1.50000000E+00  8.00000000E-01  8.00000000E-01
  1.50000000E+00  8.00000000E-01  8.00000000E-01  1.50000000E+00  8.00000000E-01
  8.00000000E-01  1.50000000E+00  8.00000000E-01  8.00000000E-01  1.50000000E+00
  8.00000000E-01  8.00000000E-01  1.50000000E+00  8.00000000E-01  8.00000000E-01
  1.50000000E+00  8.00000000E-01  8.00000000E-01  1.50000000E+00  8.00000000E-01
  8.00000000E-01  1.50000000E+00  8.00000000E-01  8.00000000E-01  1.50000000E+00
  8.00000000E-01  8.00000000E-01  1.50000000E+00  8.00000000E-01  8.00000000E-01
  1.50000000E+00  8.00000000E-01  8.00000000E-01  1.50000000E+00  8.00000000E-01
  8.00000000E-01  1.50000000E+00  8.00000000E-01  8.00000000E-01  1.50000000E+00
  8.00000000E-01  8.00000000E-01  1.50000000E+00  8.00000000E-01  8.00000000E-01
  1.50000000E+00  8.00000000E-01  8.00000000E-01  1.50000000E+00  8.00000000E-01
  8.00000000E-01  1.50000000E+00  8.00000000E-01  8.00000000E-01  1.50000000E+00
  8.00000000E-01  8.00000000E-01  1.50000000E+00  8.00000000E-01  8.00000000E-01
  1.50000000E+00  8.00000000E-01  8.00000000E-01  1.50000000E+00  8.00000000E-01
  8.00000000E-01  1.50000000E+00  8.00000000E-01  8.00000000E-01  1.50000000E+00
  8.00000000E-01  8.00000000E-01  1.50000000E+00  8.00000000E-01  8.00000000E-01
  1.50000000E+00  8.00000000E-01  8.00000000E-01  1.50000000E+00  8.00000000E-01
  8.00000000E-01  1.50000000E+00  8.00000000E-01  8.00000000E-01  1.50000000E+00
  8.00000000E-01  8.00000000E-01  1.50000000E+00  8.00000000E-01  8.00000000E-01
  1.50000000E+00  8.00000000E-01  8.00000000E-01  1.50000000E+00  8.00000000E-01
  8.00000000E-01  1.50000000E+00  8.00000000E-01  8.00000000E-01  1.50000000E+00
  8.00000000E-01  8.00000000E-01  1.50000000E+00  8.00000000E-01  8.00000000E-01
  1.50000000E+00  8.00000000E-01  8.00000000E-01  1.50000000E+00  8.00000000E-01
  8.00000000E-01  1.50000000E+00  8.00000000E-01  8.00000000E-01  1.50000000E+00
  8.00000000E-01  8.00000000E-01  1.50000000E+00  8.00000000E-01  8.00000000E-01
  1.50000000E+00  8.00000000E-01  8.00000000E-01  1.50000000E+00  8.00000000E-01
  8.00000000E-01  1.50000000E+00  8.00000000E-01  8.00000000E-01  1.50000000E+00
  8.00000000E-01  8.00000000E-01  1.50000000E+00  8.00000000E-01  8.00000000E-01
  1.50000000E+00  8.00000000E-01  8.00000000E-01  1.50000000E+00  8.00000000E-01
  8.00000000E-01  1.50000000E+00  8.00000000E-01  8.00000000E-01  1.50000000E+00
  8.00000000E-01  8.00000000E-01  1.50000000E+00  8.00000000E-01  8.00000000E-01
  1.50000000E+00  8.00000000E-01  8.00000000E-01  1.50000000E+00  8.00000000E-01
  8.00000000E-01  1.50000000E+00  8.00000000E-01  8.00000000E-01  1.50000000E+00
  8.00000000E-01  8.00000000E-01  1.50000000E+00  8.00000000E-01  8.00000000E-01
  1.50000000E+00  8.00000000E-01  8.00000000E-01  1.50000000E+00  8.00000000E-01
  8.00000000E-01  1.50000000E+00  8.00000000E-01  8.00000000E-01  1.50000000E+00
  8.00000000E-01  8.00000000E-01  1.50000000E+00  8.00000000E-01  8.00000000E-01
  1.50000000E+00  8.00000000E-01  8.00000000E-01  1.50000000E+00  8.00000000E-01
  8.00000000E-01  1.50000000E+00  8.00000000E-01  8.00000000E-01  1.50000000E+00
  8.00000000E-01  8.00000000E-01  1.50000000E+00  8.00000000E-01  8.00000000E-01
  1.50000000E+00  8.00000000E-01  8.00000000E-01  1.50000000E+00  8.00000000E-01
  8.00000000E-01  1.50000000E+00  8.00000000E-01  8.00000000E-01  1.50000000E+00
  8.00000000E-01  8.00000000E-01  1.50000000E+00  8.00000000E-01  8.00000000E-01
  1.50000000E+00  8.00000000E-01  8.00000000E-01  1.50000000E+00  8.00000000E-01
  8.00000000E-01  1.50000000E+00  8.00000000E-01  8.00000000E-01  1.50000000E+00
  8.00000000E-01  8.00000000E-01  1.50000000E+00  8.00000000E-01  8.00000000E-01
  1.50000000E+00  8.00000000E-01  8.00000000E-01  1.50000000E+00  8.00000000E-01
  8.00000000E-01  1.50000000E+00  8.00000000E-01  8.00000000E-01  1.50000000E+00
  8.00000000E-01  8.00000000E-01  1.50000000E+00  8.00000000E-01  8.00000000E-01
  1.50000000E+00  8.00000000E-01  8.00000000E-01  1.50000000E+00  8.00000000E-01
  8.00000000E-01  1.50000000E+00  8.00000000E-01  8.00000000E-01  1.50000000E+00
  8.00000000E-01  8.00000000E-01  1.50000000E+00  8.00000000E-01  8.00000000E-01
  1.50000000E+00  8.00000000E-01  8.00000000E-01  1.50000000E+00  8.00000000E-01
  8.00000000E-01  1.50000000E+00  8.00000000E-01  8.00000000E-01  1.50000000E+00
  8.00000000E-01  8.00000000E-01  1.50000000E+00  8.00000000E-01  8.00000000E-01
  1.50000000E+00  8.00000000E-01  8.00000000E-01  1.50000000E+00  8.00000000E-01
  8.00000000E-01  1.50000000E+00  8.00000000E-01  8.00000000E-01  1.50000000E+00
  8.00000000E-01  8.00000000E-01  1.50000000E+00  8.00000000E-01  8.00000000E-01
  1.50000000E+00  8.00000000E-01  8.00000000E-01  1.50000000E+00  8.00000000E-01
  8.00000000E-01  1.50000000E+00  8.00000000E-01  8.00000000E-01  1.50000000E+00
  8.00000000E-01  8.00000000E-01  1.50000000E+00  8.00000000E-01  8.00000000E-01
  1.50000000E+00  8.00000000E-01  8.00000000E-01  1.50000000E+00  8.00000000E-01
  8.00000000E-01  1.50000000E+00  8.00000000E-01  8.00000000E-01  1.50000000E+00
  8.00000000E-01  8.00000000E-01  1.50000000E+00  8.00000000E-01  8.00000000E-01
  1.50000000E+00  8.00000000E-01  8.00000000E-01  1.50000000E+00  8.00000000E-01
  8.00000000E-01  1.50000000E+00  8.00000000E-01  8.00000000E-01  1.50000000E+00
  8.00000000E-01  8.00000000E-01  1.50000000E+00  8.00000000E-01  8.00000000E-01
  1.50000000E+00  8.00000000E-01  8.00000000E-01  1.50000000E+00  8.00000000E-01
  8.00000000E-01  1.50000000E+00  8.00000000E-01  8.00000000E-01  1.50000000E+00
  8.00000000E-01  8.00000000E-01  1.50000000E+00  8.00000000E-01  8.00000000E-01
  1.50000000E+00  8.00000000E-01  8.00000000E-01  1.50000000E+00  8.00000000E-01
  8.00000000E-01  1.50000000E+00  8.00000000E-01  8.00000000E-01  1.50000000E+00
  8.00000000E-01  8.00000000E-01  1.50000000E+00  8.00000000E-01  8.00000000E-01
  1.50000000E+00  8.00000000E-01  8.00000000E-01  1.50000000E+00  8.00000000E-01
  8.00000000E-01  1.50000000E+00  8.00000000E-01  8.00000000E-01  1.50000000E+00
  8.00000000E-01  8.00000000E-01  1.50000000E+00  8.00000000E-01  8.00000000E-01
  1.50000000E+00  8.00000000E-01  8.00000000E-01  1.50000000E+00  8.00000000E-01
  8.00000000E-01  1.50000000E+00  8.00000000E-01  8.00000000E-01  1.50000000E+00
  8.00000000E-01  8.00000000E-01  1.50000000E+00  8.00000000E-01  8.00000000E-01
  1.50000000E+00  8.00000000E-01  8.00000000E-01  1.50000000E+00  8.00000000E-01
  8.00000000E-01  1.50000000E+00  8.00000000E-01  8.00000000E-01  1.50000000E+00
  8.00000000E-01  8.00000000E-01  1.50000000E+00  8.00000000E-01  8.00000000E-01
  1.50000000E+00  8.00000000E-01  8.00000000E-01  1.50000000E+00  8.00000000E-01
  8.00000000E-01  1.50000000E+00  8.00000000E-01  8.00000000E-01  1.50000000E+00
  8.00000000E-01  8.00000000E-01  1.50000000E+00  8.00000000E-01  8.00000000E-01
  1.50000000E+00  8.00000000E-01  8.00000000E-01  1.50000000E+00  8.00000000E-01
  8.00000000E-01  1.50000000E+00  8.00000000E-01  8.00000000E-01  1.50000000E+00
  8.00000000E-01  8.00000000E-01  1.50000000E+00  8.00000000E-01  8.00000000E-01
  1.50000000E+00  8.00000000E-01  8.00000000E-01  1.50000000E+00  8.00000000E-01
  8.00000000E-01  1.50000000E+00  8.00000000E-01  8.00000000E-01  1.50000000E+00
  8.00000000E-01  8.00000000E-01  1.50000000E+00  8.00000000E-01  8.00000000E-01
  1.50000000E+00  8.00000000E-01  8.00000000E-01  1.50000000E+00  8.00000000E-01
  8.00000000E-01  1.50000000E+00  8.00000000E-01  8.00000000E-01  1.50000000E+00
  8.00000000E-01  8.00000000E-01  1.50000000E+00  8.00000000E-01  8.00000000E-01
  1.50000000E+00  8.00000000E-01  8.00000000E-01  1.50000000E+00  8.00000000E-01
  8.00000000E-01  1.50000000E+00  8.00000000E-01  8.00000000E-01  1.50000000E+00
  8.00000000E-01  8.00000000E-01  1.50000000E+00  8.00000000E-01  8.00000000E-01
  1.50000000E+00  8.00000000E-01  8.00000000E-01  1.50000000E+00  8.00000000E-01
  8.00000000E-01  1.50000000E+00  8.00000000E-01  8.00000000E-01  1.50000000E+00
  8.00000000E-01  8.00000000E-01  1.50000000E+00  8.00000000E-01  8.00000000E-01
  1.50000000E+00  8.00000000E-01  8.00000000E-01  1.50000000E+00  8.00000000E-01
  8.00000000E-01  1.50000000E+00  8.00000000E-01  8.00000000E-01  1.50000000E+00
  8.00000000E-01  8.00000000E-01  1.50000000E+00  8.00000000E-01  8.00000000E-01
  1.50000000E+00  8.00000000E-01  8.00000000E-01  1.50000000E+00  8.00000000E-01
  8.00000000E-01  1.50000000E+00  8.00000000E-01  8.00000000E-01  1.50000000E+00
  8.00000000E-01  8.00000000E-01  1.50000000E+00  8.00000000E-01  8.00000000E-01
  1.50000000E+00  8.00000000E-01  8.00000000E-01  1.50000000E+00  8.00000000E-01
  8.00000000E-01  1.50000000E+00  8.00000000E-01  8.00000000E-01  1.50000000E+00
  8.00000000E-01  8.00000000E-01  1.50000000E+00  8.00000000E-01  8.00000000E-01
  1.50000000E+00  8.00000000E-01  8.00000000E-01  1.50000000E+00  8.00000000E-01
  8.00000000E-01  1.50000000E+00  8.00000000E-01  8.00000000E-01  1.50000000E+00
  8.00000000E-01  8.00000000E-01  1.50000000E+00  8.00000000E-01  8.00000000E-01
  1.50000000E+00  8.00000000E-01  8.00000000E-01  1.50000000E+00  8.00000000E-01
  8.00000000E-01  1.50000000E+00  8.00000000E-01  8.00000000E-01  1.50000000E+00
  8.00000000E-01  8.00000000E-01  1.50000000E+00  8.00000000E-01  8.00000000E-01
  1.50000000E+00  8.00000000E-01  8.00000000E-01  1.50000000E+00  8.00000000E-01
  8.00000000E-01  1.50000000E+00  8.00000000E-01  8.00000000E-01  1.50000000E+00
  8.00000000E-01  8.00000000E-01  1.50000000E+00  8.00000000E-01  8.00000000E-01
  1.50000000E+00  8.00000000E-01  8.00000000E-01  1.50000000E+00  8.00000000E-01
  8.00000000E-01  1.50000000E+00  8.00000000E-01  8.00000000E-01  1.50000000E+00
  8.00000000E-01  8.00000000E-01  1.50000000E+00  8.00000000E-01  8.00000000E-01
  1.50000000E+00  8.00000000E-01  8.00000000E-01  1.50000000E+00  8.00000000E-01
  8.00000000E-01  1.50000000E+00  8.00000000E-01  8.00000000E-01  1.50000000E+00
  8.00000000E-01  8.00000000E-01  1.50000000E+00  8.00000000E-01  8.00000000E-01
  1.50000000E+00  8.00000000E-01  8.00000000E-01  1.50000000E+00  8.00000000E-01
  8.00000000E-01  1.50000000E+00  8.00000000E-01  8.00000000E-01  1.50000000E+00
  8.00000000E-01  8.00000000E-01  1.50000000E+00  8.00000000E-01  8.00000000E-01
  1.50000000E+00  8.00000000E-01  8.00000000E-01  1.50000000E+00  8.00000000E-01
  8.00000000E-01  1.50000000E+00  8.00000000E-01  8.00000000E-01  1.50000000E+00
  8.00000000E-01  8.00000000E-01  1.50000000E+00  8.00000000E-01  8.00000000E-01
  1.50000000E+00  8.00000000E-01  8.00000000E-01  1.50000000E+00  8.00000000E-01
  8.00000000E-01  1.50000000E+00  8.00000000E-01  8.00000000E-01  1.50000000E+00
  8.00000000E-01  8.00000000E-01  1.50000000E+00  8.00000000E-01  8.00000000E-01
  1.50000000E+00  8.00000000E-01  8.00000000E-01  1.50000000E+00  8.00000000E-01
  8.00000000E-01  1.50000000E+00  8.00000000E-01  8.00000000E-01  1.50000000E+00
  8.00000000E-01  8.00000000E-01  1.50000000E+00  8.00000000E-01  8.00000000E-01
  1.50000000E+00  8.00000000E-01  8.00000000E-01  1.50000000E+00  8.00000000E-01
  8.00000000E-01  1.50000000E+00  8.00000000E-01  8.00000000E-01  1.50000000E+00
  8.00000000E-01  8.00000000E-01  1.50000000E+00  8.00000000E-01  8.00000000E-01
  1.50000000E+00  8.00000000E-01  8.00000000E-01  1.50000000E+00  8.00000000E-01
  8.00000000E-01  1.50000000E+00  8.00000000E-01  8.00000000E-01  1.50000000E+00
  8.00000000E-01  8.00000000E-01  1.50000000E+00  8.00000000E-01  8.00000000E-01
  1.50000000E+00  8.00000000E-01  8.00000000E-01  1.50000000E+00  8.00000000E-01
  8.00000000E-01  1.50000000E+00  8.00000000E-01  8.00000000E-01  1.50000000E+00
  8.00000000E-01  8.00000000E-01  1.50000000E+00  8.00000000E-01  8.00000000E-01
  1.50000000E+00  8.00000000E-01  8.00000000E-01  1.50000000E+00  8.00000000E-01
  8.00000000E-01  1.50000000E+00  8.00000000E-01  8.00000000E-01  1.50000000E+00
  8.00000000E-01  8.00000000E-01  1.50000000E+00  8.00000000E-01  8.00000000E-01
  1.50000000E+00  8.00000000E-01  8.00000000E-01  1.50000000E+00  8.00000000E-01
  8.00000000E-01  1.50000000E+00  8.00000000E-01  8.00000000E-01  1.50000000E+00
  8.00000000E-01  8.00000000E-01  1.50000000E+00  8.00000000E-01  8.00000000E-01
  1.50000000E+00  8.00000000E-01  8.00000000E-01  1.50000000E+00  8.00000000E-01
  8.00000000E-01  1.50000000E+00  8.00000000E-01  8.00000000E-01  1.50000000E+00
  8.00000000E-01  8.00000000E-01  1.50000000E+00  8.00000000E-01  8.00000000E-01
  1.50000000E+00  8.00000000E-01  8.00000000E-01  1.50000000E+00  8.00000000E-01
  8.00000000E-01  1.50000000E+00  8.00000000E-01  8.00000000E-01  1.50000000E+00
  8.00000000E-01  8.00000000E-01  1.50000000E+00  8.00000000E-01  8.00000000E-01
  1.50000000E+00  8.00000000E-01  8.00000000E-01  1.50000000E+00  8.00000000E-01
  8.00000000E-01  1.50000000E+00  8.00000000E-01  8.00000000E-01  1.50000000E+00
  8.00000000E-01  8.00000000E-01  1.50000000E+00  8.00000000E-01  8.00000000E-01
  1.50000000E+00  8.00000000E-01  8.00000000E-01  1.50000000E+00  8.00000000E-01
  8.00000000E-01  1.50000000E+00  8.00000000E-01  8.00000000E-01  1.50000000E+00
  8.00000000E-01  8.00000000E-01  1.50000000E+00  8.00000000E-01  8.00000000E-01
  1.50000000E+00  8.00000000E-01  8.00000000E-01  1.50000000E+00  8.00000000E-01
  8.00000000E-01  1.50000000E+00  8.00000000E-01  8.00000000E-01  1.50000000E+00
  8.00000000E-01  8.00000000E-01  1.50000000E+00  8.00000000E-01  8.00000000E-01
  1.50000000E+00  8.00000000E-01  8.00000000E-01  1.50000000E+00  8.00000000E-01
  8.00000000E-01  1.50000000E+00  8.00000000E-01  8.00000000E-01  1.50000000E+00
  8.00000000E-01  8.00000000E-01  1.50000000E+00  8.00000000E-01  8.00000000E-01
  1.50000000E+00  8.00000000E-01  8.00000000E-01  1.50000000E+00  8.00000000E-01
  8.00000000E-01  1.50000000E+00  8.00000000E-01  8.00000000E-01  1.50000000E+00
  8.00000000E-01  8.00000000E-01  1.50000000E+00  8.00000000E-01  8.00000000E-01
  1.50000000E+00  8.00000000E-01  8.00000000E-01  1.50000000E+00  8.00000000E-01
  8.00000000E-01  1.50000000E+00  8.00000000E-01  8.00000000E-01  1.50000000E+00
  8.00000000E-01  8.00000000E-01  1.50000000E+00  8.00000000E-01  8.00000000E-01
  1.50000000E+00  8.00000000E-01  8.00000000E-01  1.50000000E+00  8.00000000E-01
  8.00000000E-01  1.50000000E+00  8.00000000E-01  8.00000000E-01  1.50000000E+00
  8.00000000E-01  8.00000000E-01  1.50000000E+00  8.00000000E-01  8.00000000E-01
  1.50000000E+00  8.00000000E-01  8.00000000E-01  1.50000000E+00  8.00000000E-01
  8.00000000E-01  1.50000000E+00  8.00000000E-01  8.00000000E-01  1.50000000E+00
  8.00000000E-01  8.00000000E-01  1.50000000E+00  8.00000000E-01  8.00000000E-01
  1.50000000E+00  8.00000000E-01  8.00000000E-01  1.50000000E+00  8.00000000E-01
  8.00000000E-01  1.50000000E+00  8.00000000E-01  8.00000000E-01  1.50000000E+00
  8.00000000E-01  8.00000000E-01  1.50000000E+00  8.00000000E-01  8.00000000E-01
  1.50000000E+00  8.00000000E-01  8.00000000E-01  1.50000000E+00  8.00000000E-01
  8.00000000E-01  1.50000000E+00  8.00000000E-01  8.00000000E-01  1.50000000E+00
  8.00000000E-01  8.00000000E-01  1.50000000E+00  8.00000000E-01  8.00000000E-01
  1.50000000E+00  8.00000000E-01  8.00000000E-01  1.50000000E+00  8.00000000E-01
  8.00000000E-01  1.50000000E+00  8.00000000E-01  8.00000000E-01  1.50000000E+00
  8.00000000E-01  8.00000000E-01  1.50000000E+00  8.00000000E-01  8.00000000E-01
  1.50000000E+00  8.00000000E-01  8.00000000E-01  1.50000000E+00  8.00000000E-01
  8.00000000E-01  1.50000000E+00  8.00000000E-01  8.00000000E-01  1.50000000E+00
  8.00000000E-01  8.00000000E-01  1.50000000E+00  8.00000000E-01  8.00000000E-01
  1.50000000E+00  8.00000000E-01  8.00000000E-01  1.50000000E+00  8.00000000E-01
  8.00000000E-01  1.50000000E+00  8.00000000E-01  8.00000000E-01  1.50000000E+00
  8.00000000E-01  8.00000000E-01  1.50000000E+00  8.00000000E-01  8.00000000E-01
  1.50000000E+00  8.00000000E-01  8.00000000E-01  1.50000000E+00  8.00000000E-01
  8.00000000E-01  1.50000000E+00  8.00000000E-01  8.00000000E-01  1.50000000E+00
  8.00000000E-01  8.00000000E-01  1.50000000E+00  8.00000000E-01  8.00000000E-01
  1.50000000E+00  8.00000000E-01  8.00000000E-01  1.50000000E+00  8.00000000E-01
  8.00000000E-01  1.50000000E+00  8.00000000E-01  8.00000000E-01  1.50000000E+00
  8.00000000E-01  8.00000000E-01  1.50000000E+00  8.00000000E-01  8.00000000E-01
  1.50000000E+00  8.00000000E-01  8.00000000E-01  1.50000000E+00  8.00000000E-01
  8.00000000E-01  1.50000000E+00  8.00000000E-01  8.00000000E-01  1.50000000E+00
  8.00000000E-01  8.00000000E-01  1.50000000E+00  8.00000000E-01  8.00000000E-01
  1.50000000E+00  8.00000000E-01  8.00000000E-01  1.50000000E+00  8.00000000E-01
  8.00000000E-01  1.50000000E+00  8.00000000E-01  8.00000000E-01  1.50000000E+00
  8.00000000E-01  8.00000000E-01  1.50000000E+00  8.00000000E-01  8.00000000E-01
  1.50000000E+00  8.00000000E-01  8.00000000E-01  1.50000000E+00  8.00000000E-01
  8.00000000E-01  1.50000000E+00  8.00000000E-01  8.00000000E-01  1.50000000E+00
  8.00000000E-01  8.00000000E-01  1.50000000E+00  8.00000000E-01  8.00000000E-01
  1.50000000E+00  8.00000000E-01  8.00000000E-01  1.50000000E+00  8.00000000E-01
  8.00000000E-01  1.50000000E+00  8.00000000E-01  8.00000000E-01  1.50000000E+00
  8.00000000E-01  8.00000000E-01  1.50000000E+00  8.00000000E-01  8.00000000E-01
  1.50000000E+00  8.00000000E-01  8.00000000E-01  1.50000000E+00  8.00000000E-01
  8.00000000E-01  1.50000000E+00  8.00000000E-01  8.00000000E-01  1.50000000E+00
  8.00000000E-01  8.00000000E-01  1.50000000E+00  8.00000000E-01  8.00000000E-01
  1.50000000E+00  8.00000000E-01  8.00000000E-01  1.50000000E+00  8.00000000E-01
  8.00000000E-01  1.50000000E+00  8.00000000E-01  8.00000000E-01  1.50000000E+00
  8.00000000E-01  8.00000000E-01  1.50000000E+00  8.00000000E-01  8.00000000E-01
  1.50000000E+00  8.00000000E-01  8.00000000E-01  1.50000000E+00  8.00000000E-01
  8.00000000E-01  1.50000000E+00  8.00000000E-01  8.00000000E-01  1.50000000E+00
  8.00000000E-01  8.00000000E-01  1.50000000E+00  8.00000000E-01  8.00000000E-01
  1.50000000E+00  8.00000000E-01  8.00000000E-01  1.50000000E+00  8.00000000E-01
  8.00000000E-01  1.50000000E+00  8.00000000E-01  8.00000000E-01  1.50000000E+00
  8.00000000E-01  8.00000000E-01  1.50000000E+00  8.00000000E-01  8.00000000E-01
  1.50000000E+00  8.00000000E-01  8.00000000E-01  1.50000000E+00  8.00000000E-01
  8.00000000E-01  1.50000000E+00  8.00000000E-01  8.00000000E-01  1.50000000E+00
  8.00000000E-01  8.00000000E-01  1.50000000E+00  8.00000000E-01  8.00000000E-01
  1.50000000E+00  8.00000000E-01  8.00000000E-01  1.50000000E+00  8.00000000E-01
  8.00000000E-01  1.50000000E+00  8.00000000E-01  8.00000000E-01  1.50000000E+00
  8.00000000E-01  8.00000000E-01  1.50000000E+00  8.00000000E-01  8.00000000E-01
  1.50000000E+00  8.00000000E-01  8.00000000E-01  1.50000000E+00  8.00000000E-01
  8.00000000E-01  1.50000000E+00  8.00000000E-01  8.00000000E-01  1.50000000E+00
  8.00000000E-01  8.00000000E-01  1.50000000E+00  8.00000000E-01  8.00000000E-01
  1.50000000E+00  8.00000000E-01  8.00000000E-01  1.50000000E+00  8.00000000E-01
  8.00000000E-01  1.50000000E+00  8.00000000E-01  8.00000000E-01  1.50000000E+00
  8.00000000E-01  8.00000000E-01  1.50000000E+00  8.00000000E-01  8.00000000E-01
  1.50000000E+00  8.00000000E-01  8.00000000E-01  1.50000000E+00  8.00000000E-01
  8.00000000E-01  1.50000000E+00  8.00000000E-01  8.00000000E-01  1.50000000E+00
  8.00000000E-01  8.00000000E-01  1.50000000E+00  8.00000000E-01  8.00000000E-01
  1.50000000E+00  8.00000000E-01  8.00000000E-01  1.50000000E+00  8.00000000E-01
  8.00000000E-01  1.50000000E+00  8.00000000E-01  8.00000000E-01  1.50000000E+00
  8.00000000E-01  8.00000000E-01  1.50000000E+00  8.00000000E-01  8.00000000E-01
  1.50000000E+00  8.00000000E-01  8.00000000E-01  1.50000000E+00  8.00000000E-01
  8.00000000E-01  1.50000000E+00  8.00000000E-01  8.00000000E-01  1.50000000E+00
  8.00000000E-01  8.00000000E-01  1.50000000E+00  8.00000000E-01  8.00000000E-01
  1.50000000E+00  8.00000000E-01  8.00000000E-01  1.50000000E+00  8.00000000E-01
  8.00000000E-01  1.50000000E+00  8.00000000E-01  8.00000000E-01  1.50000000E+00
  8.00000000E-01  8.00000000E-01  1.50000000E+00  8.00000000E-01  8.00000000E-01
  1.50000000E+00  8.00000000E-01  8.00000000E-01  1.50000000E+00  8.00000000E-01
  8.00000000E-01  1.50000000E+00  8.00000000E-01  8.00000000E-01  1.50000000E+00
  8.00000000E-01  8.00000000E-01  1.50000000E+00  8.00000000E-01  8.00000000E-01
  1.50000000E+00  8.00000000E-01  8.00000000E-01  1.50000000E+00  8.00000000E-01
  8.00000000E-01  1.50000000E+00  8.00000000E-01  8.00000000E-01  1.50000000E+00
  8.00000000E-01  8.00000000E-01  1.50000000E+00  8.00000000E-01  8.00000000E-01
  1.50000000E+00  8.00000000E-01  8.00000000E-01  1.50000000E+00  8.00000000E-01
  8.00000000E-01  1.50000000E+00  8.00000000E-01  8.00000000E-01  1.50000000E+00
  8.00000000E-01  8.00000000E-01  1.50000000E+00  8.00000000E-01  8.00000000E-01
  1.50000000E+00  8.00000000E-01  8.00000000E-01  1.50000000E+00  8.00000000E-01
  8.00000000E-01  1.50000000E+00  8.00000000E-01  8.00000000E-01  1.50000000E+00
  8.00000000E-01  8.00000000E-01  1.50000000E+00  8.00000000E-01  8.00000000E-01
  1.50000000E+00  8.00000000E-01  8.00000000E-01  1.50000000E+00  8.00000000E-01
  8.00000000E-01  1.50000000E+00  8.00000000E-01  8.00000000E-01  1.50000000E+00
  8.00000000E-01  8.00000000E-01  1.50000000E+00  8.00000000E-01  8.00000000E-01
  1.50000000E+00  8.00000000E-01  8.00000000E-01  1.50000000E+00  8.00000000E-01
  8.00000000E-01  1.50000000E+00  8.00000000E-01  8.00000000E-01  1.50000000E+00
  8.00000000E-01  8.00000000E-01  1.50000000E+00  8.00000000E-01  8.00000000E-01
  1.50000000E+00  8.00000000E-01  8.00000000E-01  1.50000000E+00  8.00000000E-01
  8.00000000E-01  1.50000000E+00  8.00000000E-01  8.00000000E-01  1.50000000E+00
  8.00000000E-01  8.00000000E-01  1.50000000E+00  8.00000000E-01  8.00000000E-01
  1.50000000E+00  8.00000000E-01  8.00000000E-01  1.50000000E+00  8.00000000E-01
  8.00000000E-01  1.50000000E+00  8.00000000E-01  8.00000000E-01  1.50000000E+00
  8.00000000E-01  8.00000000E-01  1.50000000E+00  8.00000000E-01  8.00000000E-01
  1.50000000E+00  8.00000000E-01  8.00000000E-01  1.50000000E+00  8.00000000E-01
  8.00000000E-01  1.50000000E+00  8.00000000E-01  8.00000000E-01  1.50000000E+00
  8.00000000E-01  8.00000000E-01  1.50000000E+00  8.00000000E-01  8.00000000E-01
  1.50000000E+00  8.00000000E-01  8.00000000E-01  1.50000000E+00  8.00000000E-01
  8.00000000E-01  1.50000000E+00  8.00000000E-01  8.00000000E-01  1.50000000E+00
  8.00000000E-01  8.00000000E-01  1.50000000E+00  8.00000000E-01  8.00000000E-01
  1.50000000E+00  8.00000000E-01  8.00000000E-01  1.50000000E+00  8.00000000E-01
  8.00000000E-01  1.50000000E+00  8.00000000E-01  8.00000000E-01  1.50000000E+00
  8.00000000E-01  8.00000000E-01  1.50000000E+00  8.00000000E-01  8.00000000E-01
  1.50000000E+00  8.00000000E-01  8.00000000E-01  1.50000000E+00  8.00000000E-01
  8.00000000E-01  1.50000000E+00  8.00000000E-01  8.00000000E-01  1.50000000E+00
  8.00000000E-01  8.00000000E-01  1.50000000E+00  8.00000000E-01  8.00000000E-01
  1.50000000E+00  8.00000000E-01  8.00000000E-01  1.50000000E+00  8.00000000E-01
  8.00000000E-01  1.50000000E+00  8.00000000E-01  8.00000000E-01  1.50000000E+00
  8.00000000E-01  8.00000000E-01  1.50000000E+00  8.00000000E-01  8.00000000E-01
  1.50000000E+00  8.00000000E-01  8.00000000E-01  1.50000000E+00  8.00000000E-01
  8.00000000E-01  1.50000000E+00  8.00000000E-01  8.00000000E-01  1.50000000E+00
  8.00000000E-01  8.00000000E-01  1.50000000E+00  8.00000000E-01  8.00000000E-01
  1.50000000E+00  8.00000000E-01  8.00000000E-01  1.50000000E+00  8.00000000E-01
  8.00000000E-01  1.50000000E+00  8.00000000E-01  8.00000000E-01  1.50000000E+00
  8.00000000E-01  8.00000000E-01  1.50000000E+00  8.00000000E-01  8.00000000E-01
  1.50000000E+00  8.00000000E-01  8.00000000E-01  1.50000000E+00  8.00000000E-01
  8.00000000E-01  1.50000000E+00  8.00000000E-01  8.00000000E-01  1.50000000E+00
  8.00000000E-01  8.00000000E-01  1.50000000E+00  8.00000000E-01  8.00000000E-01
  1.50000000E+00  8.00000000E-01  8.00000000E-01  1.50000000E+00  8.00000000E-01
  8.00000000E-01  1.50000000E+00  8.00000000E-01  8.00000000E-01  1.50000000E+00
  8.00000000E-01  8.00000000E-01  1.50000000E+00  8.00000000E-01  8.00000000E-01
  1.50000000E+00  8.00000000E-01  8.00000000E-01  1.50000000E+00  8.00000000E-01
  8.00000000E-01  1.50000000E+00  8.00000000E-01  8.00000000E-01  1.50000000E+00
  8.00000000E-01  8.00000000E-01  1.50000000E+00  8.00000000E-01  8.00000000E-01
  1.50000000E+00  8.00000000E-01  8.00000000E-01  1.50000000E+00  8.00000000E-01
  8.00000000E-01  1.50000000E+00  8.00000000E-01  8.00000000E-01  1.50000000E+00
  8.00000000E-01  8.00000000E-01  1.50000000E+00  8.00000000E-01  8.00000000E-01
  1.50000000E+00  8.00000000E-01  8.00000000E-01  1.50000000E+00  8.00000000E-01
  8.00000000E-01  1.50000000E+00  8.00000000E-01  8.00000000E-01  1.50000000E+00
  8.00000000E-01  8.00000000E-01  1.50000000E+00  8.00000000E-01  8.00000000E-01
  1.50000000E+00  8.00000000E-01  8.00000000E-01  1.50000000E+00  8.00000000E-01
  8.00000000E-01  1.50000000E+00  8.00000000E-01  8.00000000E-01  1.50000000E+00
  8.00000000E-01  8.00000000E-01  1.50000000E+00  8.00000000E-01  8.00000000E-01
  1.50000000E+00  8.00000000E-01  8.00000000E-01  1.50000000E+00  8.00000000E-01
  8.00000000E-01  1.50000000E+00  8.00000000E-01  8.00000000E-01  1.50000000E+00
  8.00000000E-01  8.00000000E-01  1.50000000E+00  8.00000000E-01  8.00000000E-01
  1.50000000E+00  8.00000000E-01  8.00000000E-01  1.50000000E+00  8.00000000E-01
  8.00000000E-01  1.50000000E+00  8.00000000E-01  8.00000000E-01  1.50000000E+00
  8.00000000E-01  8.00000000E-01  1.50000000E+00  8.00000000E-01  8.00000000E-01
  1.50000000E+00  8.00000000E-01  8.00000000E-01  1.50000000E+00  8.00000000E-01
  8.00000000E-01  1.50000000E+00  8.00000000E-01  8.00000000E-01  1.50000000E+00
  8.00000000E-01  8.00000000E-01  1.50000000E+00  8.00000000E-01  8.00000000E-01
  1.50000000E+00  8.00000000E-01  8.00000000E-01  1.50000000E+00  8.00000000E-01
  8.00000000E-01  1.50000000E+00  8.00000000E-01  8.00000000E-01  1.50000000E+00
  8.00000000E-01  8.00000000E-01  1.50000000E+00  8.00000000E-01  8.00000000E-01
  1.50000000E+00  8.00000000E-01  8.00000000E-01  1.50000000E+00  8.00000000E-01
  8.00000000E-01  1.50000000E+00  8.00000000E-01  8.00000000E-01  1.50000000E+00
  8.00000000E-01  8.00000000E-01  1.50000000E+00  8.00000000E-01  8.00000000E-01
  1.50000000E+00  8.00000000E-01  8.00000000E-01  1.50000000E+00  8.00000000E-01
  8.00000000E-01  1.50000000E+00  8.00000000E-01  8.00000000E-01  1.50000000E+00
  8.00000000E-01  8.00000000E-01  1.50000000E+00  8.00000000E-01  8.00000000E-01
  1.50000000E+00  8.00000000E-01  8.00000000E-01  1.50000000E+00  8.00000000E-01
  8.00000000E-01  1.50000000E+00  8.00000000E-01  8.00000000E-01  1.50000000E+00
  8.00000000E-01  8.00000000E-01  1.50000000E+00  8.00000000E-01  8.00000000E-01
  1.50000000E+00  8.00000000E-01  8.00000000E-01  1.50000000E+00  8.00000000E-01
  8.00000000E-01  1.50000000E+00  8.00000000E-01  8.00000000E-01  1.50000000E+00
  8.00000000E-01  8.00000000E-01  1.50000000E+00  8.00000000E-01  8.00000000E-01
  1.50000000E+00  8.00000000E-01  8.00000000E-01  1.50000000E+00  8.00000000E-01
  8.00000000E-01  1.50000000E+00  8.00000000E-01  8.00000000E-01  1.50000000E+00
  8.00000000E-01  8.00000000E-01  1.50000000E+00  8.00000000E-01  8.00000000E-01
  1.50000000E+00  8.00000000E-01  8.00000000E-01  1.50000000E+00  8.00000000E-01
  8.00000000E-01  1.50000000E+00  8.00000000E-01  8.00000000E-01  1.50000000E+00
  8.00000000E-01  8.00000000E-01  1.50000000E+00  8.00000000E-01  8.00000000E-01
  1.50000000E+00  8.00000000E-01  8.00000000E-01  1.50000000E+00  8.00000000E-01
  8.00000000E-01  1.50000000E+00  8.00000000E-01  8.00000000E-01  1.50000000E+00
  8.00000000E-01  8.00000000E-01  1.50000000E+00  8.00000000E-01  8.00000000E-01
  1.50000000E+00  8.00000000E-01  8.00000000E-01  1.50000000E+00  8.00000000E-01
  8.00000000E-01  1.50000000E+00  8.00000000E-01  8.00000000E-01  1.50000000E+00
  8.00000000E-01  8.00000000E-01  1.50000000E+00  8.00000000E-01  8.00000000E-01
  1.50000000E+00  8.00000000E-01  8.00000000E-01  1.50000000E+00  8.00000000E-01
  8.00000000E-01  1.50000000E+00  8.00000000E-01  8.00000000E-01  1.50000000E+00
  8.00000000E-01  8.00000000E-01  1.50000000E+00  8.00000000E-01  8.00000000E-01
  1.50000000E+00  8.00000000E-01  8.00000000E-01  1.50000000E+00  8.00000000E-01
  8.00000000E-01  1.50000000E+00  8.00000000E-01  8.00000000E-01  1.50000000E+00
  8.00000000E-01  8.00000000E-01  1.50000000E+00  8.00000000E-01  8.00000000E-01
  1.50000000E+00  8.00000000E-01  8.00000000E-01  1.50000000E+00  8.00000000E-01
  8.00000000E-01  1.50000000E+00  8.00000000E-01  8.00000000E-01  1.50000000E+00
  8.00000000E-01  8.00000000E-01  1.50000000E+00  8.00000000E-01  8.00000000E-01
  1.50000000E+00  8.00000000E-01  8.00000000E-01  1.50000000E+00  8.00000000E-01
  8.00000000E-01  1.50000000E+00  8.00000000E-01  8.00000000E-01  1.50000000E+00
  8.00000000E-01  8.00000000E-01  1.50000000E+00  8.00000000E-01  8.00000000E-01
  1.50000000E+00  8.00000000E-01  8.00000000E-01  1.50000000E+00  8.00000000E-01
  8.00000000E-01  1.50000000E+00  8.00000000E-01  8.00000000E-01  1.50000000E+00
  8.00000000E-01  8.00000000E-01  1.50000000E+00  8.00000000E-01  8.00000000E-01
  1.50000000E+00  8.00000000E-01  8.00000000E-01  1.50000000E+00  8.00000000E-01
  8.00000000E-01  1.50000000E+00  8.00000000E-01  8.00000000E-01  1.50000000E+00
  8.00000000E-01  8.00000000E-01  1.50000000E+00  8.00000000E-01  8.00000000E-01
  1.50000000E+00  8.00000000E-01  8.00000000E-01  1.50000000E+00  8.00000000E-01
  8.00000000E-01  1.50000000E+00  8.00000000E-01  8.00000000E-01  1.50000000E+00
  8.00000000E-01  8.00000000E-01  1.50000000E+00  8.00000000E-01  8.00000000E-01
  1.50000000E+00  8.00000000E-01  8.00000000E-01  1.50000000E+00  8.00000000E-01
  8.00000000E-01  1.50000000E+00  8.00000000E-01  8.00000000E-01  1.50000000E+00
  8.00000000E-01  8.00000000E-01  1.50000000E+00  8.00000000E-01  8.00000000E-01
  1.50000000E+00  8.00000000E-01  8.00000000E-01  1.50000000E+00  8.00000000E-01
  8.00000000E-01  1.50000000E+00  8.00000000E-01  8.00000000E-01  1.50000000E+00
  8.00000000E-01  8.00000000E-01  1.50000000E+00  8.00000000E-01  8.00000000E-01
  1.50000000E+00  8.00000000E-01  8.00000000E-01  1.50000000E+00  8.00000000E-01
  8.00000000E-01  1.50000000E+00  8.00000000E-01  8.00000000E-01  1.50000000E+00
  8.00000000E-01  8.00000000E-01  1.50000000E+00  8.00000000E-01  8.00000000E-01
  1.50000000E+00  8.00000000E-01  8.00000000E-01  1.50000000E+00  8.00000000E-01
  8.00000000E-01  1.50000000E+00  8.00000000E-01  8.00000000E-01  1.50000000E+00
  8.00000000E-01  8.00000000E-01  1.50000000E+00  8.00000000E-01  8.00000000E-01
  1.50000000E+00  8.00000000E-01  8.00000000E-01  1.50000000E+00  8.00000000E-01
  8.00000000E-01  1.50000000E+00  8.00000000E-01  8.00000000E-01  1.50000000E+00
  8.00000000E-01  8.00000000E-01  1.50000000E+00  8.00000000E-01  8.00000000E-01
  1.50000000E+00  8.00000000E-01  8.00000000E-01  1.50000000E+00  8.00000000E-01
  8.00000000E-01  1.50000000E+00  8.00000000E-01  8.00000000E-01  1.50000000E+00
  8.00000000E-01  8.00000000E-01  1.50000000E+00  8.00000000E-01  8.00000000E-01
  1.50000000E+00  8.00000000E-01  8.00000000E-01  1.50000000E+00  8.00000000E-01
  8.00000000E-01  1.50000000E+00  8.00000000E-01  8.00000000E-01  1.50000000E+00
  8.00000000E-01  8.00000000E-01  1.50000000E+00  8.00000000E-01  8.00000000E-01
  1.50000000E+00  8.00000000E-01  8.00000000E-01  1.50000000E+00  8.00000000E-01
  8.00000000E-01  1.50000000E+00  8.00000000E-01  8.00000000E-01  1.50000000E+00
  8.00000000E-01  8.00000000E-01  1.50000000E+00  8.00000000E-01  8.00000000E-01
  1.50000000E+00  8.00000000E-01  8.00000000E-01  1.50000000E+00  8.00000000E-01
  8.00000000E-01  1.50000000E+00  8.00000000E-01  8.00000000E-01  1.50000000E+00
  8.00000000E-01  8.00000000E-01  1.50000000E+00  8.00000000E-01  8.00000000E-01
  1.50000000E+00  8.00000000E-01  8.00000000E-01  1.50000000E+00  8.00000000E-01
  8.00000000E-01  1.50000000E+00  8.00000000E-01  8.00000000E-01  1.50000000E+00
  8.00000000E-01  8.00000000E-01  1.50000000E+00  8.00000000E-01  8.00000000E-01
  1.50000000E+00  8.00000000E-01  8.00000000E-01  1.50000000E+00  8.00000000E-01
  8.00000000E-01  1.50000000E+00  8.00000000E-01  8.00000000E-01  1.50000000E+00
  8.00000000E-01  8.00000000E-01  1.50000000E+00  8.00000000E-01  8.00000000E-01
  1.50000000E+00  8.00000000E-01  8.00000000E-01  1.50000000E+00  8.00000000E-01
  8.00000000E-01  1.50000000E+00  8.00000000E-01  8.00000000E-01  1.50000000E+00
  8.00000000E-01  8.00000000E-01  1.50000000E+00  8.00000000E-01  8.00000000E-01
  1.50000000E+00  8.00000000E-01  8.00000000E-01  1.50000000E+00  8.00000000E-01
  8.00000000E-01  1.50000000E+00  8.00000000E-01  8.00000000E-01  1.50000000E+00
  8.00000000E-01  8.00000000E-01  1.50000000E+00  8.00000000E-01  8.00000000E-01
  1.50000000E+00  8.00000000E-01  8.00000000E-01  1.50000000E+00  8.00000000E-01
  8.00000000E-01  1.50000000E+00  8.00000000E-01  8.00000000E-01  1.50000000E+00
  8.00000000E-01  8.00000000E-01  1.50000000E+00  8.00000000E-01  8.00000000E-01
  1.50000000E+00  8.00000000E-01  8.00000000E-01  1.50000000E+00  8.00000000E-01
  8.00000000E-01  1.50000000E+00  8.00000000E-01  8.00000000E-01  1.50000000E+00
  8.00000000E-01  8.00000000E-01  1.50000000E+00  8.00000000E-01  8.00000000E-01
  1.50000000E+00  8.00000000E-01  8.00000000E-01  1.50000000E+00  8.00000000E-01
  8.00000000E-01  1.50000000E+00  8.00000000E-01  8.00000000E-01  1.50000000E+00
  8.00000000E-01  8.00000000E-01  1.50000000E+00  8.00000000E-01  8.00000000E-01
  1.50000000E+00  8.00000000E-01  8.00000000E-01  1.50000000E+00  8.00000000E-01
  8.00000000E-01  1.50000000E+00  8.00000000E-01  8.00000000E-01  1.50000000E+00
  8.00000000E-01  8.00000000E-01  1.50000000E+00  8.00000000E-01  8.00000000E-01
  1.50000000E+00  8.00000000E-01  8.00000000E-01  1.50000000E+00  8.00000000E-01
  8.00000000E-01  1.50000000E+00  8.00000000E-01  8.00000000E-01  1.50000000E+00
  8.00000000E-01  8.00000000E-01  1.50000000E+00  8.00000000E-01  8.00000000E-01
  1.50000000E+00  8.00000000E-01  8.00000000E-01  1.50000000E+00  8.00000000E-01
  8.00000000E-01  1.50000000E+00  8.00000000E-01  8.00000000E-01  1.50000000E+00
  8.00000000E-01  8.00000000E-01  1.50000000E+00  8.00000000E-01  8.00000000E-01
  1.50000000E+00  8.00000000E-01  8.00000000E-01  1.50000000E+00  8.00000000E-01
  8.00000000E-01  1.50000000E+00  8.00000000E-01  8.00000000E-01  1.50000000E+00
  8.00000000E-01  8.00000000E-01  1.50000000E+00  8.00000000E-01  8.00000000E-01
  1.50000000E+00  8.00000000E-01  8.00000000E-01  1.50000000E+00  8.00000000E-01
  8.00000000E-01  1.50000000E+00  8.00000000E-01  8.00000000E-01  1.50000000E+00
  8.00000000E-01  8.00000000E-01  1.50000000E+00  8.00000000E-01  8.00000000E-01
  1.50000000E+00  8.00000000E-01  8.00000000E-01  1.50000000E+00  8.00000000E-01
  8.00000000E-01  1.50000000E+00  8.00000000E-01  8.00000000E-01  1.50000000E+00
  8.00000000E-01  8.00000000E-01  1.50000000E+00  8.00000000E-01  8.00000000E-01
  1.50000000E+00  8.00000000E-01  8.00000000E-01  1.50000000E+00  8.00000000E-01
  8.00000000E-01  1.50000000E+00  8.00000000E-01  8.00000000E-01  1.50000000E+00
  8.00000000E-01  8.00000000E-01  1.50000000E+00  8.00000000E-01  8.00000000E-01
  1.50000000E+00  8.00000000E-01  8.00000000E-01  1.50000000E+00  8.00000000E-01
  8.00000000E-01  1.50000000E+00  8.00000000E-01  8.00000000E-01  1.50000000E+00
  8.00000000E-01  8.00000000E-01  1.50000000E+00  8.00000000E-01  8.00000000E-01
  1.50000000E+00  8.00000000E-01  8.00000000E-01  1.50000000E+00  8.00000000E-01
  8.00000000E-01  1.50000000E+00  8.00000000E-01  8.00000000E-01  1.50000000E+00
  8.00000000E-01  8.00000000E-01  1.50000000E+00  8.00000000E-01  8.00000000E-01
  1.50000000E+00  8.00000000E-01  8.00000000E-01  1.50000000E+00  8.00000000E-01
  8.00000000E-01  1.50000000E+00  8.00000000E-01  8.00000000E-01  1.50000000E+00
  8.00000000E-01  8.00000000E-01  1.50000000E+00  8.00000000E-01  8.00000000E-01
  1.50000000E+00  8.00000000E-01  8.00000000E-01  1.50000000E+00  8.00000000E-01
  8.00000000E-01  1.50000000E+00  8.00000000E-01  8.00000000E-01  1.50000000E+00
  8.00000000E-01  8.00000000E-01  1.50000000E+00  8.00000000E-01  8.00000000E-01
  1.50000000E+00  8.00000000E-01  8.00000000E-01  1.50000000E+00  8.00000000E-01
  8.00000000E-01  1.50000000E+00  8.00000000E-01  8.00000000E-01  1.50000000E+00
  8.00000000E-01  8.00000000E-01  1.50000000E+00  8.00000000E-01  8.00000000E-01
  1.50000000E+00  8.00000000E-01  8.00000000E-01  1.50000000E+00  8.00000000E-01
  8.00000000E-01  1.50000000E+00  8.00000000E-01  8.00000000E-01  1.50000000E+00
  8.00000000E-01  8.00000000E-01  1.50000000E+00  8.00000000E-01  8.00000000E-01
  1.50000000E+00  8.00000000E-01  8.00000000E-01  1.50000000E+00  8.00000000E-01
  8.00000000E-01  1.50000000E+00  8.00000000E-01  8.00000000E-01  1.50000000E+00
  8.00000000E-01  8.00000000E-01  1.50000000E+00  8.00000000E-01  8.00000000E-01
  1.50000000E+00  8.00000000E-01  8.00000000E-01  1.50000000E+00  8.00000000E-01
  8.00000000E-01  1.50000000E+00  8.00000000E-01  8.00000000E-01  1.50000000E+00
  8.00000000E-01  8.00000000E-01  1.50000000E+00  8.00000000E-01  8.00000000E-01
  1.50000000E+00  8.00000000E-01  8.00000000E-01  1.50000000E+00  8.00000000E-01
  8.00000000E-01  1.50000000E+00  8.00000000E-01  8.00000000E-01  1.50000000E+00
  8.00000000E-01  8.00000000E-01  1.50000000E+00  8.00000000E-01  8.00000000E-01
  1.50000000E+00  8.00000000E-01  8.00000000E-01  1.50000000E+00  8.00000000E-01
  8.00000000E-01  1.50000000E+00  8.00000000E-01  8.00000000E-01  1.50000000E+00
  8.00000000E-01  8.00000000E-01  1.50000000E+00  8.00000000E-01  8.00000000E-01
  1.50000000E+00  8.00000000E-01  8.00000000E-01  1.50000000E+00  8.00000000E-01
  8.00000000E-01  1.50000000E+00  8.00000000E-01  8.00000000E-01  1.50000000E+00
  8.00000000E-01  8.00000000E-01  1.50000000E+00  8.00000000E-01  8.00000000E-01
  1.50000000E+00  8.00000000E-01  8.00000000E-01  1.50000000E+00  8.00000000E-01
  8.00000000E-01  1.50000000E+00  8.00000000E-01  8.00000000E-01  1.50000000E+00
  8.00000000E-01  8.00000000E-01  1.50000000E+00  8.00000000E-01  8.00000000E-01
  1.50000000E+00  8.00000000E-01  8.00000000E-01  1.50000000E+00  8.00000000E-01
  8.00000000E-01  1.50000000E+00  8.00000000E-01  8.00000000E-01  1.50000000E+00
  8.00000000E-01  8.00000000E-01  1.50000000E+00  8.00000000E-01  8.00000000E-01
  1.50000000E+00  8.00000000E-01  8.00000000E-01  1.50000000E+00  8.00000000E-01
  8.00000000E-01  1.50000000E+00  8.00000000E-01  8.00000000E-01  1.50000000E+00
  8.00000000E-01  8.00000000E-01  1.50000000E+00  8.00000000E-01  8.00000000E-01
  1.50000000E+00  8.00000000E-01  8.00000000E-01  1.50000000E+00  8.00000000E-01
  8.00000000E-01  1.50000000E+00  8.00000000E-01  8.00000000E-01  1.50000000E+00
  8.00000000E-01  8.00000000E-01  1.50000000E+00  8.00000000E-01  8.00000000E-01
  1.50000000E+00  8.00000000E-01  8.00000000E-01  1.50000000E+00  8.00000000E-01
  8.00000000E-01  1.50000000E+00  8.00000000E-01  8.00000000E-01  1.50000000E+00
  8.00000000E-01  8.00000000E-01  1.50000000E+00  8.00000000E-01  8.00000000E-01
  1.50000000E+00  8.00000000E-01  8.00000000E-01  1.50000000E+00  8.00000000E-01
  8.00000000E-01  1.50000000E+00  8.00000000E-01  8.00000000E-01  1.50000000E+00
  8.00000000E-01  8.00000000E-01  1.50000000E+00  8.00000000E-01  8.00000000E-01
  1.50000000E+00  8.00000000E-01  8.00000000E-01  1.50000000E+00  8.00000000E-01
  8.00000000E-01  1.50000000E+00  8.00000000E-01  8.00000000E-01  1.50000000E+00
  8.00000000E-01  8.00000000E-01  1.50000000E+00  8.00000000E-01  8.00000000E-01
  1.50000000E+00  8.00000000E-01  8.00000000E-01  1.50000000E+00  8.00000000E-01
  8.00000000E-01  1.50000000E+00  8.00000000E-01  8.00000000E-01  1.50000000E+00
  8.00000000E-01  8.00000000E-01  1.50000000E+00  8.00000000E-01  8.00000000E-01
  1.50000000E+00  8.00000000E-01  8.00000000E-01  1.50000000E+00  8.00000000E-01
  8.00000000E-01  1.50000000E+00  8.00000000E-01  8.00000000E-01  1.50000000E+00
  8.00000000E-01  8.00000000E-01  1.50000000E+00  8.00000000E-01  8.00000000E-01
  1.50000000E+00  8.00000000E-01  8.00000000E-01  1.50000000E+00  8.00000000E-01
  8.00000000E-01  1.50000000E+00  8.00000000E-01  8.00000000E-01  1.50000000E+00
  8.00000000E-01  8.00000000E-01  1.50000000E+00  8.00000000E-01  8.00000000E-01
  1.50000000E+00  8.00000000E-01  8.00000000E-01  1.50000000E+00  8.00000000E-01
  8.00000000E-01  1.50000000E+00  8.00000000E-01  8.00000000E-01  1.50000000E+00
  8.00000000E-01  8.00000000E-01  1.50000000E+00  8.00000000E-01  8.00000000E-01
  1.50000000E+00  8.00000000E-01  8.00000000E-01  1.50000000E+00  8.00000000E-01
  8.00000000E-01  1.50000000E+00  8.00000000E-01  8.00000000E-01  1.50000000E+00
  8.00000000E-01  8.00000000E-01  1.50000000E+00  8.00000000E-01  8.00000000E-01
  1.50000000E+00  8.00000000E-01  8.00000000E-01  1.50000000E+00  8.00000000E-01
  8.00000000E-01  1.50000000E+00  8.00000000E-01  8.00000000E-01  1.50000000E+00
  8.00000000E-01  8.00000000E-01  1.50000000E+00  8.00000000E-01  8.00000000E-01
  1.50000000E+00  8.00000000E-01  8.00000000E-01  1.50000000E+00  8.00000000E-01
  8.00000000E-01  1.50000000E+00  8.00000000E-01  8.00000000E-01  1.50000000E+00
  8.00000000E-01  8.00000000E-01  1.50000000E+00  8.00000000E-01  8.00000000E-01
  1.50000000E+00  8.00000000E-01  8.00000000E-01  1.50000000E+00  8.00000000E-01
  8.00000000E-01  1.50000000E+00  8.00000000E-01  8.00000000E-01  1.50000000E+00
  8.00000000E-01  8.00000000E-01  1.50000000E+00  8.00000000E-01  8.00000000E-01
  1.50000000E+00  8.00000000E-01  8.00000000E-01  1.50000000E+00  8.00000000E-01
  8.00000000E-01  1.50000000E+00  8.00000000E-01  8.00000000E-01  1.50000000E+00
  8.00000000E-01  8.00000000E-01  1.50000000E+00  8.00000000E-01  8.00000000E-01
  1.50000000E+00  8.00000000E-01  8.00000000E-01  1.50000000E+00  8.00000000E-01
  8.00000000E-01  1.50000000E+00  8.00000000E-01  8.00000000E-01  1.50000000E+00
  8.00000000E-01  8.00000000E-01  1.50000000E+00  8.00000000E-01  8.00000000E-01
  1.50000000E+00  8.00000000E-01  8.00000000E-01  1.50000000E+00  8.00000000E-01
  8.00000000E-01  1.50000000E+00  8.00000000E-01  8.00000000E-01  1.50000000E+00
  8.00000000E-01  8.00000000E-01  1.50000000E+00  8.00000000E-01  8.00000000E-01
  1.50000000E+00  8.00000000E-01  8.00000000E-01  1.50000000E+00  8.00000000E-01
  8.00000000E-01  1.50000000E+00  8.00000000E-01  8.00000000E-01  1.50000000E+00
  8.00000000E-01  8.00000000E-01  1.50000000E+00  8.00000000E-01  8.00000000E-01
  1.50000000E+00  8.00000000E-01  8.00000000E-01  1.50000000E+00  8.00000000E-01
  8.00000000E-01  1.50000000E+00  8.00000000E-01  8.00000000E-01  1.50000000E+00
  8.00000000E-01  8.00000000E-01  1.50000000E+00  8.00000000E-01  8.00000000E-01
  1.50000000E+00  8.00000000E-01  8.00000000E-01  1.50000000E+00  8.00000000E-01
  8.00000000E-01  1.50000000E+00  8.00000000E-01  8.00000000E-01  1.50000000E+00
  8.00000000E-01  8.00000000E-01  1.50000000E+00  8.00000000E-01  8.00000000E-01
  1.50000000E+00  8.00000000E-01  8.00000000E-01  1.50000000E+00  8.00000000E-01
  8.00000000E-01  1.50000000E+00  8.00000000E-01  8.00000000E-01  1.50000000E+00
  8.00000000E-01  8.00000000E-01  1.50000000E+00  8.00000000E-01  8.00000000E-01
  1.50000000E+00  8.00000000E-01  8.00000000E-01  1.50000000E+00  8.00000000E-01
  8.00000000E-01  1.50000000E+00  8.00000000E-01  8.00000000E-01  1.50000000E+00
  8.00000000E-01  8.00000000E-01  1.50000000E+00  8.00000000E-01  8.00000000E-01
  1.50000000E+00  8.00000000E-01  8.00000000E-01  1.50000000E+00  8.00000000E-01
  8.00000000E-01  1.50000000E+00  8.00000000E-01  8.00000000E-01  1.50000000E+00
  8.00000000E-01  8.00000000E-01  1.50000000E+00  8.00000000E-01  8.00000000E-01
  1.50000000E+00  8.00000000E-01  8.00000000E-01  1.50000000E+00  8.00000000E-01
  8.00000000E-01  1.50000000E+00  8.00000000E-01  8.00000000E-01  1.50000000E+00
  8.00000000E-01  8.00000000E-01  1.50000000E+00  8.00000000E-01  8.00000000E-01
  1.50000000E+00  8.00000000E-01  8.00000000E-01  1.50000000E+00  8.00000000E-01
  8.00000000E-01  1.50000000E+00  8.00000000E-01  8.00000000E-01  1.50000000E+00
  8.00000000E-01  8.00000000E-01  1.50000000E+00  8.00000000E-01  8.00000000E-01
  1.50000000E+00  8.00000000E-01  8.00000000E-01  1.50000000E+00  8.00000000E-01
  8.00000000E-01  1.50000000E+00  8.00000000E-01  8.00000000E-01  1.50000000E+00
  8.00000000E-01  8.00000000E-01  1.50000000E+00  8.00000000E-01  8.00000000E-01
  1.50000000E+00  8.00000000E-01  8.00000000E-01  1.50000000E+00  8.00000000E-01
  8.00000000E-01  1.50000000E+00  8.00000000E-01  8.00000000E-01  1.50000000E+00
  8.00000000E-01  8.00000000E-01  1.50000000E+00  8.00000000E-01  8.00000000E-01
  1.50000000E+00  8.00000000E-01  8.00000000E-01  1.50000000E+00  8.00000000E-01
  8.00000000E-01  1.50000000E+00  8.00000000E-01  8.00000000E-01  1.50000000E+00
  8.00000000E-01  8.00000000E-01  1.50000000E+00  8.00000000E-01  8.00000000E-01
  1.50000000E+00  8.00000000E-01  8.00000000E-01  1.50000000E+00  8.00000000E-01
  8.00000000E-01  1.50000000E+00  8.00000000E-01  8.00000000E-01  1.50000000E+00
  8.00000000E-01  8.00000000E-01  1.50000000E+00  8.00000000E-01  8.00000000E-01
  1.50000000E+00  8.00000000E-01  8.00000000E-01  1.50000000E+00  8.00000000E-01
  8.00000000E-01  1.50000000E+00  8.00000000E-01  8.00000000E-01  1.50000000E+00
  8.00000000E-01  8.00000000E-01  1.50000000E+00  8.00000000E-01  8.00000000E-01
  1.50000000E+00  8.00000000E-01  8.00000000E-01  1.50000000E+00  8.00000000E-01
  8.00000000E-01  1.50000000E+00  8.00000000E-01  8.00000000E-01  1.50000000E+00
  8.00000000E-01  8.00000000E-01  1.50000000E+00  8.00000000E-01  8.00000000E-01
  1.50000000E+00  8.00000000E-01  8.00000000E-01  1.50000000E+00  8.00000000E-01
  8.00000000E-01  1.50000000E+00  8.00000000E-01  8.00000000E-01  1.50000000E+00
  8.00000000E-01  8.00000000E-01  1.50000000E+00  8.00000000E-01  8.00000000E-01
  1.50000000E+00  8.00000000E-01  8.00000000E-01  1.50000000E+00  8.00000000E-01
  8.00000000E-01  1.50000000E+00  8.00000000E-01  8.00000000E-01  1.50000000E+00
  8.00000000E-01  8.00000000E-01  1.50000000E+00  8.00000000E-01  8.00000000E-01
  1.50000000E+00  8.00000000E-01  8.00000000E-01  1.50000000E+00  8.00000000E-01
  8.00000000E-01  1.50000000E+00  8.00000000E-01  8.00000000E-01  1.50000000E+00
  8.00000000E-01  8.00000000E-01  1.50000000E+00  8.00000000E-01  8.00000000E-01
  1.50000000E+00  8.00000000E-01  8.00000000E-01  1.50000000E+00  8.00000000E-01
  8.00000000E-01  1.50000000E+00  8.00000000E-01  8.00000000E-01  1.50000000E+00
  8.00000000E-01  8.00000000E-01  1.50000000E+00  8.00000000E-01  8.00000000E-01
  1.50000000E+00  8.00000000E-01  8.00000000E-01  1.50000000E+00  8.00000000E-01
  8.00000000E-01  1.50000000E+00  8.00000000E-01  8.00000000E-01  1.50000000E+00
  8.00000000E-01  8.00000000E-01  1.50000000E+00  8.00000000E-01  8.00000000E-01
  1.50000000E+00  8.00000000E-01  8.00000000E-01  1.50000000E+00  8.00000000E-01
  8.00000000E-01  1.50000000E+00  8.00000000E-01  8.00000000E-01  1.50000000E+00
  8.00000000E-01  8.00000000E-01  1.50000000E+00  8.00000000E-01  8.00000000E-01
  1.50000000E+00  8.00000000E-01  8.00000000E-01  1.50000000E+00  8.00000000E-01
  8.00000000E-01  1.50000000E+00  8.00000000E-01  8.00000000E-01  1.50000000E+00
  8.00000000E-01  8.00000000E-01  1.50000000E+00  8.00000000E-01  8.00000000E-01
  1.50000000E+00  8.00000000E-01  8.00000000E-01  1.50000000E+00  8.00000000E-01
  8.00000000E-01  1.50000000E+00  8.00000000E-01  8.00000000E-01  1.50000000E+00
  8.00000000E-01  8.00000000E-01  1.50000000E+00  8.00000000E-01  8.00000000E-01
  1.50000000E+00  8.00000000E-01  8.00000000E-01  1.50000000E+00  8.00000000E-01
  8.00000000E-01  1.50000000E+00  8.00000000E-01  8.00000000E-01  1.50000000E+00
  8.00000000E-01  8.00000000E-01  1.50000000E+00  8.00000000E-01  8.00000000E-01
  1.50000000E+00  8.00000000E-01  8.00000000E-01  1.50000000E+00  8.00000000E-01
  8.00000000E-01  1.50000000E+00  8.00000000E-01  8.00000000E-01  1.50000000E+00
  8.00000000E-01  8.00000000E-01  1.50000000E+00  8.00000000E-01  8.00000000E-01
  1.50000000E+00  8.00000000E-01  8.00000000E-01  1.50000000E+00  8.00000000E-01
  8.00000000E-01  1.50000000E+00  8.00000000E-01  8.00000000E-01  1.50000000E+00
  8.00000000E-01  8.00000000E-01  1.50000000E+00  8.00000000E-01  8.00000000E-01
  1.50000000E+00  8.00000000E-01  8.00000000E-01  1.50000000E+00  8.00000000E-01
  8.00000000E-01  1.50000000E+00  8.00000000E-01  8.00000000E-01  1.50000000E+00
  8.00000000E-01  8.00000000E-01  1.50000000E+00  8.00000000E-01  8.00000000E-01
  1.50000000E+00  8.00000000E-01  8.00000000E-01  1.50000000E+00  8.00000000E-01
  8.00000000E-01  1.50000000E+00  8.00000000E-01  8.00000000E-01  1.50000000E+00
  8.00000000E-01  8.00000000E-01  1.50000000E+00  8.00000000E-01  8.00000000E-01
  1.50000000E+00  8.00000000E-01  8.00000000E-01  1.50000000E+00  8.00000000E-01
  8.00000000E-01  1.50000000E+00  8.00000000E-01  8.00000000E-01  1.50000000E+00
  8.00000000E-01  8.00000000E-01  1.50000000E+00  8.00000000E-01  8.00000000E-01
  1.50000000E+00  8.00000000E-01  8.00000000E-01  1.50000000E+00  8.00000000E-01
  8.00000000E-01  1.50000000E+00  8.00000000E-01  8.00000000E-01  1.50000000E+00
  8.00000000E-01  8.00000000E-01  1.50000000E+00  8.00000000E-01  8.00000000E-01
  1.50000000E+00  8.00000000E-01  8.00000000E-01  1.50000000E+00  8.00000000E-01
  8.00000000E-01  1.50000000E+00  8.00000000E-01  8.00000000E-01  1.50000000E+00
  8.00000000E-01  8.00000000E-01  1.50000000E+00  8.00000000E-01  8.00000000E-01
  1.50000000E+00  8.00000000E-01  8.00000000E-01  1.50000000E+00  8.00000000E-01
  8.00000000E-01  1.50000000E+00  8.00000000E-01  8.00000000E-01  1.50000000E+00
  8.00000000E-01  8.00000000E-01  1.50000000E+00  8.00000000E-01  8.00000000E-01
  1.50000000E+00  8.00000000E-01  8.00000000E-01  1.50000000E+00  8.00000000E-01
  8.00000000E-01  1.50000000E+00  8.00000000E-01  8.00000000E-01  1.50000000E+00
  8.00000000E-01  8.00000000E-01  1.50000000E+00  8.00000000E-01  8.00000000E-01
  1.50000000E+00  8.00000000E-01  8.00000000E-01  1.50000000E+00  8.00000000E-01
  8.00000000E-01  1.50000000E+00  8.00000000E-01  8.00000000E-01  1.50000000E+00
  8.00000000E-01  8.00000000E-01  1.50000000E+00  8.00000000E-01  8.00000000E-01
  1.50000000E+00  8.00000000E-01  8.00000000E-01  1.50000000E+00  8.00000000E-01
  8.00000000E-01  1.50000000E+00  8.00000000E-01  8.00000000E-01  1.50000000E+00
  8.00000000E-01  8.00000000E-01  1.50000000E+00  8.00000000E-01  8.00000000E-01
  1.50000000E+00  8.00000000E-01  8.00000000E-01  1.50000000E+00  8.00000000E-01
  8.00000000E-01  1.50000000E+00  8.00000000E-01  8.00000000E-01  1.50000000E+00
  8.00000000E-01  8.00000000E-01  1.50000000E+00  8.00000000E-01  8.00000000E-01
  1.50000000E+00  8.00000000E-01  8.00000000E-01  1.50000000E+00  8.00000000E-01
  8.00000000E-01  1.50000000E+00  8.00000000E-01  8.00000000E-01  1.50000000E+00
  8.00000000E-01  8.00000000E-01  1.50000000E+00  8.00000000E-01  8.00000000E-01
  1.50000000E+00  8.00000000E-01  8.00000000E-01  1.50000000E+00  8.00000000E-01
  8.00000000E-01  1.50000000E+00  8.00000000E-01  8.00000000E-01  1.50000000E+00
  8.00000000E-01  8.00000000E-01  1.50000000E+00  8.00000000E-01  8.00000000E-01
  1.50000000E+00  8.00000000E-01  8.00000000E-01  1.50000000E+00  8.00000000E-01
  8.00000000E-01  1.50000000E+00  8.00000000E-01  8.00000000E-01  1.50000000E+00
  8.00000000E-01  8.00000000E-01  1.50000000E+00  8.00000000E-01  8.00000000E-01
  1.50000000E+00  8.00000000E-01  8.00000000E-01  1.50000000E+00  8.00000000E-01
  8.00000000E-01  1.50000000E+00  8.00000000E-01  8.00000000E-01  1.50000000E+00
  8.00000000E-01  8.00000000E-01  1.50000000E+00  8.00000000E-01  8.00000000E-01
  1.50000000E+00  8.00000000E-01  8.00000000E-01  1.50000000E+00  8.00000000E-01
  8.00000000E-01  1.50000000E+00  8.00000000E-01  8.00000000E-01  1.50000000E+00
  8.00000000E-01  8.00000000E-01  1.50000000E+00  8.00000000E-01  8.00000000E-01
  1.50000000E+00  8.00000000E-01  8.00000000E-01  1.50000000E+00  8.00000000E-01
  8.00000000E-01  1.50000000E+00  8.00000000E-01  8.00000000E-01  1.50000000E+00
  8.00000000E-01  8.00000000E-01  1.50000000E+00  8.00000000E-01  8.00000000E-01
  1.50000000E+00  8.00000000E-01  8.00000000E-01  1.50000000E+00  8.00000000E-01
  8.00000000E-01  1.50000000E+00  8.00000000E-01  8.00000000E-01  1.50000000E+00
  8.00000000E-01  8.00000000E-01  1.50000000E+00  8.00000000E-01  8.00000000E-01
  1.50000000E+00  8.00000000E-01  8.00000000E-01  1.50000000E+00  8.00000000E-01
  8.00000000E-01  1.50000000E+00  8.00000000E-01  8.00000000E-01  1.50000000E+00
  8.00000000E-01  8.00000000E-01  1.50000000E+00  8.00000000E-01  8.00000000E-01
  1.50000000E+00  8.00000000E-01  8.00000000E-01  1.50000000E+00  8.00000000E-01
  8.00000000E-01  1.50000000E+00  8.00000000E-01  8.00000000E-01  1.50000000E+00
  8.00000000E-01  8.00000000E-01  1.50000000E+00  8.00000000E-01  8.00000000E-01
  1.50000000E+00  8.00000000E-01  8.00000000E-01  1.50000000E+00  8.00000000E-01
  8.00000000E-01  1.50000000E+00  8.00000000E-01  8.00000000E-01  1.50000000E+00
  8.00000000E-01  8.00000000E-01  1.50000000E+00  8.00000000E-01  8.00000000E-01
  1.50000000E+00  8.00000000E-01  8.00000000E-01  1.50000000E+00  8.00000000E-01
  8.00000000E-01  1.50000000E+00  8.00000000E-01  8.00000000E-01  1.50000000E+00
  8.00000000E-01  8.00000000E-01  1.50000000E+00  8.00000000E-01  8.00000000E-01
  1.50000000E+00  8.00000000E-01  8.00000000E-01  1.50000000E+00  8.00000000E-01
  8.00000000E-01  1.50000000E+00  8.00000000E-01  8.00000000E-01  1.50000000E+00
  8.00000000E-01  8.00000000E-01  1.50000000E+00  8.00000000E-01  8.00000000E-01
  1.50000000E+00  8.00000000E-01  8.00000000E-01  1.50000000E+00  8.00000000E-01
  8.00000000E-01  1.50000000E+00  8.00000000E-01  8.00000000E-01  1.50000000E+00
  8.00000000E-01  8.00000000E-01  1.50000000E+00  8.00000000E-01  8.00000000E-01
  1.50000000E+00  8.00000000E-01  8.00000000E-01  1.50000000E+00  8.00000000E-01
  8.00000000E-01  1.50000000E+00  8.00000000E-01  8.00000000E-01  1.50000000E+00
  8.00000000E-01  8.00000000E-01  1.50000000E+00  8.00000000E-01  8.00000000E-01
  1.50000000E+00  8.00000000E-01  8.00000000E-01  1.50000000E+00  8.00000000E-01
  8.00000000E-01  1.50000000E+00  8.00000000E-01  8.00000000E-01  1.50000000E+00
  8.00000000E-01  8.00000000E-01  1.50000000E+00  8.00000000E-01  8.00000000E-01
  1.50000000E+00  8.00000000E-01  8.00000000E-01  1.50000000E+00  8.00000000E-01
  8.00000000E-01  1.50000000E+00  8.00000000E-01  8.00000000E-01  1.50000000E+00
  8.00000000E-01  8.00000000E-01  1.50000000E+00  8.00000000E-01  8.00000000E-01
  1.50000000E+00  8.00000000E-01  8.00000000E-01  1.50000000E+00  8.00000000E-01
  8.00000000E-01  1.50000000E+00  8.00000000E-01  8.00000000E-01  1.50000000E+00
  8.00000000E-01  8.00000000E-01  1.50000000E+00  8.00000000E-01  8.00000000E-01
  1.50000000E+00  8.00000000E-01  8.00000000E-01  1.50000000E+00  8.00000000E-01
  8.00000000E-01  1.50000000E+00  8.00000000E-01  8.00000000E-01  1.50000000E+00
  8.00000000E-01  8.00000000E-01  1.50000000E+00  8.00000000E-01  8.00000000E-01
  1.50000000E+00  8.00000000E-01  8.00000000E-01  1.50000000E+00  8.00000000E-01
  8.00000000E-01  1.50000000E+00  8.00000000E-01  8.00000000E-01  1.50000000E+00
  8.00000000E-01  8.00000000E-01  1.50000000E+00  8.00000000E-01  8.00000000E-01
  1.50000000E+00  8.00000000E-01  8.00000000E-01  1.50000000E+00  8.00000000E-01
  8.00000000E-01  1.50000000E+00  8.00000000E-01  8.00000000E-01  1.50000000E+00
  8.00000000E-01  8.00000000E-01  1.50000000E+00  8.00000000E-01  8.00000000E-01
  1.50000000E+00  8.00000000E-01  8.00000000E-01  1.50000000E+00  8.00000000E-01
  8.00000000E-01  1.50000000E+00  8.00000000E-01  8.00000000E-01  1.50000000E+00
  8.00000000E-01  8.00000000E-01  1.50000000E+00  8.00000000E-01  8.00000000E-01
  1.50000000E+00  8.00000000E-01  8.00000000E-01  1.50000000E+00  8.00000000E-01
  8.00000000E-01  1.50000000E+00  8.00000000E-01  8.00000000E-01  1.50000000E+00
  8.00000000E-01  8.00000000E-01  1.50000000E+00  8.00000000E-01  8.00000000E-01
  1.50000000E+00  8.00000000E-01  8.00000000E-01  1.50000000E+00  8.00000000E-01
  8.00000000E-01  1.50000000E+00  8.00000000E-01  8.00000000E-01  1.50000000E+00
  8.00000000E-01  8.00000000E-01  1.50000000E+00  8.00000000E-01  8.00000000E-01
  1.50000000E+00  8.00000000E-01  8.00000000E-01  1.50000000E+00  8.00000000E-01
  8.00000000E-01  1.50000000E+00  8.00000000E-01  8.00000000E-01  1.50000000E+00
  8.00000000E-01  8.00000000E-01  1.50000000E+00  8.00000000E-01  8.00000000E-01
  1.50000000E+00  8.00000000E-01  8.00000000E-01  1.50000000E+00  8.00000000E-01
  8.00000000E-01  1.50000000E+00  8.00000000E-01  8.00000000E-01  1.50000000E+00
  8.00000000E-01  8.00000000E-01  1.50000000E+00  8.00000000E-01  8.00000000E-01
  1.50000000E+00  8.00000000E-01  8.00000000E-01  1.50000000E+00  8.00000000E-01
  8.00000000E-01  1.50000000E+00  8.00000000E-01  8.00000000E-01  1.50000000E+00
  8.00000000E-01  8.00000000E-01  1.50000000E+00  8.00000000E-01  8.00000000E-01
  1.50000000E+00  8.00000000E-01  8.00000000E-01  1.50000000E+00  8.00000000E-01
  8.00000000E-01  1.50000000E+00  8.00000000E-01  8.00000000E-01  1.50000000E+00
  8.00000000E-01  8.00000000E-01  1.50000000E+00  8.00000000E-01  8.00000000E-01
  1.50000000E+00  8.00000000E-01  8.00000000E-01  1.50000000E+00  8.00000000E-01
  8.00000000E-01  1.50000000E+00  8.00000000E-01  8.00000000E-01  1.50000000E+00
  8.00000000E-01  8.00000000E-01  1.50000000E+00  8.00000000E-01  8.00000000E-01
  1.50000000E+00  8.00000000E-01  8.00000000E-01  1.50000000E+00  8.00000000E-01
  8.00000000E-01  1.50000000E+00  8.00000000E-01  8.00000000E-01  1.50000000E+00
  8.00000000E-01  8.00000000E-01  1.50000000E+00  8.00000000E-01  8.00000000E-01
  1.50000000E+00  8.00000000E-01  8.00000000E-01  1.50000000E+00  8.00000000E-01
  8.00000000E-01  1.50000000E+00  8.00000000E-01  8.00000000E-01  1.50000000E+00
  8.00000000E-01  8.00000000E-01  1.50000000E+00  8.00000000E-01  8.00000000E-01
  1.50000000E+00  8.00000000E-01  8.00000000E-01  1.50000000E+00  8.00000000E-01
  8.00000000E-01  1.50000000E+00  8.00000000E-01  8.00000000E-01  1.50000000E+00
  8.00000000E-01  8.00000000E-01  1.50000000E+00  8.00000000E-01  8.00000000E-01
  1.50000000E+00  8.00000000E-01  8.00000000E-01  1.50000000E+00  8.00000000E-01
  8.00000000E-01  1.50000000E+00  8.00000000E-01  8.00000000E-01  1.50000000E+00
  8.00000000E-01  8.00000000E-01  1.50000000E+00  8.00000000E-01  8.00000000E-01
  1.50000000E+00  8.00000000E-01  8.00000000E-01  1.50000000E+00  8.00000000E-01
  8.00000000E-01  1.50000000E+00  8.00000000E-01  8.00000000E-01  1.50000000E+00
  8.00000000E-01  8.00000000E-01  1.50000000E+00  8.00000000E-01  8.00000000E-01
  1.50000000E+00  8.00000000E-01  8.00000000E-01  1.50000000E+00  8.00000000E-01
  8.00000000E-01  1.50000000E+00  8.00000000E-01  8.00000000E-01  1.50000000E+00
  8.00000000E-01  8.00000000E-01  1.50000000E+00  8.00000000E-01  8.00000000E-01
  1.50000000E+00  8.00000000E-01  8.00000000E-01  1.50000000E+00  8.00000000E-01
  8.00000000E-01  1.50000000E+00  8.00000000E-01  8.00000000E-01  1.50000000E+00
  8.00000000E-01  8.00000000E-01  1.50000000E+00  8.00000000E-01  8.00000000E-01
  1.50000000E+00  8.00000000E-01  8.00000000E-01  1.50000000E+00  8.00000000E-01
  8.00000000E-01  1.50000000E+00  8.00000000E-01  8.00000000E-01  1.50000000E+00
  8.00000000E-01  8.00000000E-01  1.50000000E+00  8.00000000E-01  8.00000000E-01
  1.50000000E+00  8.00000000E-01  8.00000000E-01  1.50000000E+00  8.00000000E-01
  8.00000000E-01  1.50000000E+00  8.00000000E-01  8.00000000E-01  1.50000000E+00
  8.00000000E-01  8.00000000E-01  1.50000000E+00  8.00000000E-01  8.00000000E-01
  1.50000000E+00  8.00000000E-01  8.00000000E-01  1.50000000E+00  8.00000000E-01
  8.00000000E-01  1.50000000E+00  8.00000000E-01  8.00000000E-01  1.50000000E+00
  8.00000000E-01  8.00000000E-01  1.50000000E+00  8.00000000E-01  8.00000000E-01
  1.50000000E+00  8.00000000E-01  8.00000000E-01  1.50000000E+00  8.00000000E-01
  8.00000000E-01  1.50000000E+00  8.00000000E-01  8.00000000E-01  1.50000000E+00
  8.00000000E-01  8.00000000E-01  1.50000000E+00  8.00000000E-01  8.00000000E-01
  1.50000000E+00  8.00000000E-01  8.00000000E-01  1.50000000E+00  8.00000000E-01
  8.00000000E-01  1.50000000E+00  8.00000000E-01  8.00000000E-01  1.50000000E+00
  8.00000000E-01  8.00000000E-01  1.50000000E+00  8.00000000E-01  8.00000000E-01
  1.50000000E+00  8.00000000E-01  8.00000000E-01  1.50000000E+00  8.00000000E-01
  8.00000000E-01  1.50000000E+00  8.00000000E-01  8.00000000E-01  1.50000000E+00
  8.00000000E-01  8.00000000E-01  1.50000000E+00  8.00000000E-01  8.00000000E-01
  1.50000000E+00  8.00000000E-01  8.00000000E-01  1.50000000E+00  8.00000000E-01
  8.00000000E-01  1.50000000E+00  8.00000000E-01  8.00000000E-01  1.50000000E+00
  8.00000000E-01  8.00000000E-01  1.50000000E+00  8.00000000E-01  8.00000000E-01
  1.50000000E+00  8.00000000E-01  8.00000000E-01  1.50000000E+00  8.00000000E-01
  8.00000000E-01  1.50000000E+00  8.00000000E-01  8.00000000E-01  1.50000000E+00
  8.00000000E-01  8.00000000E-01  1.50000000E+00  8.00000000E-01  8.00000000E-01
  1.50000000E+00  8.00000000E-01  8.00000000E-01  1.50000000E+00  8.00000000E-01
  8.00000000E-01  1.50000000E+00  8.00000000E-01  8.00000000E-01  1.50000000E+00
  8.00000000E-01  8.00000000E-01  1.50000000E+00  8.00000000E-01  8.00000000E-01
  1.50000000E+00  8.00000000E-01  8.00000000E-01  1.50000000E+00  8.00000000E-01
  8.00000000E-01  1.50000000E+00  8.00000000E-01  8.00000000E-01  1.50000000E+00
  8.00000000E-01  8.00000000E-01  1.50000000E+00  8.00000000E-01  8.00000000E-01
  1.50000000E+00  8.00000000E-01  8.00000000E-01  1.50000000E+00  8.00000000E-01
  8.00000000E-01  1.50000000E+00  8.00000000E-01  8.00000000E-01  1.50000000E+00
  8.00000000E-01  8.00000000E-01  1.50000000E+00  8.00000000E-01  8.00000000E-01
  1.50000000E+00  8.00000000E-01  8.00000000E-01  1.50000000E+00  8.00000000E-01
  8.00000000E-01  1.50000000E+00  8.00000000E-01  8.00000000E-01  1.50000000E+00
  8.00000000E-01  8.00000000E-01  1.50000000E+00  8.00000000E-01  8.00000000E-01
  1.50000000E+00  8.00000000E-01  8.00000000E-01  1.50000000E+00  8.00000000E-01
  8.00000000E-01  1.50000000E+00  8.00000000E-01  8.00000000E-01  1.50000000E+00
  8.00000000E-01  8.00000000E-01  1.50000000E+00  8.00000000E-01  8.00000000E-01
  1.50000000E+00  8.00000000E-01  8.00000000E-01  1.50000000E+00  8.00000000E-01
  8.00000000E-01  1.50000000E+00  8.00000000E-01  8.00000000E-01  1.50000000E+00
  8.00000000E-01  8.00000000E-01  1.50000000E+00  8.00000000E-01  8.00000000E-01
  1.50000000E+00  8.00000000E-01  8.00000000E-01  1.50000000E+00  8.00000000E-01
  8.00000000E-01  1.50000000E+00  8.00000000E-01  8.00000000E-01  1.50000000E+00
  8.00000000E-01  8.00000000E-01  1.50000000E+00  8.00000000E-01  8.00000000E-01
  1.50000000E+00  8.00000000E-01  8.00000000E-01  1.50000000E+00  8.00000000E-01
  8.00000000E-01  1.50000000E+00  8.00000000E-01  8.00000000E-01  1.50000000E+00
  8.00000000E-01  8.00000000E-01  1.50000000E+00  8.00000000E-01  8.00000000E-01
  1.50000000E+00  8.00000000E-01  8.00000000E-01  1.50000000E+00  8.00000000E-01
  8.00000000E-01  1.50000000E+00  8.00000000E-01  8.00000000E-01  1.50000000E+00
  8.00000000E-01  8.00000000E-01  1.50000000E+00  8.00000000E-01  8.00000000E-01
  1.50000000E+00  8.00000000E-01  8.00000000E-01  1.50000000E+00  8.00000000E-01
  8.00000000E-01  1.50000000E+00  8.00000000E-01  8.00000000E-01  1.50000000E+00
  8.00000000E-01  8.00000000E-01  1.50000000E+00  8.00000000E-01  8.00000000E-01
  1.50000000E+00  8.00000000E-01  8.00000000E-01  1.50000000E+00  8.00000000E-01
  8.00000000E-01  1.50000000E+00  8.00000000E-01  8.00000000E-01  1.50000000E+00
  8.00000000E-01  8.00000000E-01  1.50000000E+00  8.00000000E-01  8.00000000E-01
  1.50000000E+00  8.00000000E-01  8.00000000E-01  1.50000000E+00  8.00000000E-01
  8.00000000E-01  1.50000000E+00  8.00000000E-01  8.00000000E-01  1.50000000E+00
  8.00000000E-01  8.00000000E-01  1.50000000E+00  8.00000000E-01  8.00000000E-01
  1.50000000E+00  8.00000000E-01  8.00000000E-01  1.50000000E+00  8.00000000E-01
  8.00000000E-01  1.50000000E+00  8.00000000E-01  8.00000000E-01  1.50000000E+00
  8.00000000E-01  8.00000000E-01  1.50000000E+00  8.00000000E-01  8.00000000E-01
  1.50000000E+00  8.00000000E-01  8.00000000E-01  1.50000000E+00  8.00000000E-01
  8.00000000E-01  1.50000000E+00  8.00000000E-01  8.00000000E-01  1.50000000E+00
  8.00000000E-01  8.00000000E-01  1.50000000E+00  8.00000000E-01  8.00000000E-01
  1.50000000E+00  8.00000000E-01  8.00000000E-01  1.50000000E+00  8.00000000E-01
  8.00000000E-01  1.50000000E+00  8.00000000E-01  8.00000000E-01  1.50000000E+00
  8.00000000E-01  8.00000000E-01  1.50000000E+00  8.00000000E-01  8.00000000E-01
  1.50000000E+00  8.00000000E-01  8.00000000E-01  1.50000000E+00  8.00000000E-01
  8.00000000E-01  1.50000000E+00  8.00000000E-01  8.00000000E-01  1.50000000E+00
  8.00000000E-01  8.00000000E-01  1.50000000E+00  8.00000000E-01  8.00000000E-01
  1.50000000E+00  8.00000000E-01  8.00000000E-01  1.50000000E+00  8.00000000E-01
  8.00000000E-01  1.50000000E+00  8.00000000E-01  8.00000000E-01  1.50000000E+00
  8.00000000E-01  8.00000000E-01  1.50000000E+00  8.00000000E-01  8.00000000E-01
  1.50000000E+00  8.00000000E-01  8.00000000E-01  1.50000000E+00  8.00000000E-01
  8.00000000E-01  1.50000000E+00  8.00000000E-01  8.00000000E-01  1.50000000E+00
  8.00000000E-01  8.00000000E-01  1.50000000E+00  8.00000000E-01  8.00000000E-01
  1.50000000E+00  8.00000000E-01  8.00000000E-01  1.50000000E+00  8.00000000E-01
  8.00000000E-01  1.50000000E+00  8.00000000E-01  8.00000000E-01  1.50000000E+00
  8.00000000E-01  8.00000000E-01  1.50000000E+00  8.00000000E-01  8.00000000E-01
  1.50000000E+00  8.00000000E-01  8.00000000E-01  1.50000000E+00  8.00000000E-01
  8.00000000E-01  1.50000000E+00  8.00000000E-01  8.00000000E-01  1.50000000E+00
  8.00000000E-01  8.00000000E-01  1.50000000E+00  8.00000000E-01  8.00000000E-01
  1.50000000E+00  8.00000000E-01  8.00000000E-01  1.50000000E+00  8.00000000E-01
  8.00000000E-01  1.50000000E+00  8.00000000E-01  8.00000000E-01  1.50000000E+00
  8.00000000E-01  8.00000000E-01  1.50000000E+00  8.00000000E-01  8.00000000E-01
  1.50000000E+00  8.00000000E-01  8.00000000E-01  1.50000000E+00  8.00000000E-01
  8.00000000E-01  1.50000000E+00  8.00000000E-01  8.00000000E-01  1.50000000E+00
  8.00000000E-01  8.00000000E-01  1.50000000E+00  8.00000000E-01  8.00000000E-01
  1.50000000E+00  8.00000000E-01  8.00000000E-01  1.50000000E+00  8.00000000E-01
  8.00000000E-01  1.50000000E+00  8.00000000E-01  8.00000000E-01  1.50000000E+00
  8.00000000E-01  8.00000000E-01  1.50000000E+00  8.00000000E-01  8.00000000E-01
  1.50000000E+00  8.00000000E-01  8.00000000E-01  1.50000000E+00  8.00000000E-01
  8.00000000E-01  1.50000000E+00  8.00000000E-01  8.00000000E-01  1.50000000E+00
  8.00000000E-01  8.00000000E-01  1.50000000E+00  8.00000000E-01  8.00000000E-01
  1.50000000E+00  8.00000000E-01  8.00000000E-01  1.50000000E+00  8.00000000E-01
  8.00000000E-01  1.50000000E+00  8.00000000E-01  8.00000000E-01  1.50000000E+00
  8.00000000E-01  8.00000000E-01  1.50000000E+00  8.00000000E-01  8.00000000E-01
  1.50000000E+00  8.00000000E-01  8.00000000E-01  1.50000000E+00  8.00000000E-01
  8.00000000E-01  1.50000000E+00  8.00000000E-01  8.00000000E-01  1.50000000E+00
  8.00000000E-01  8.00000000E-01  1.50000000E+00  8.00000000E-01  8.00000000E-01
  1.50000000E+00  8.00000000E-01  8.00000000E-01  1.50000000E+00  8.00000000E-01
  8.00000000E-01  1.50000000E+00  8.00000000E-01  8.00000000E-01  1.50000000E+00
  8.00000000E-01  8.00000000E-01  1.50000000E+00  8.00000000E-01  8.00000000E-01
  1.50000000E+00  8.00000000E-01  8.00000000E-01  1.50000000E+00  8.00000000E-01
  8.00000000E-01  1.50000000E+00  8.00000000E-01  8.00000000E-01  1.50000000E+00
  8.00000000E-01  8.00000000E-01  1.50000000E+00  8.00000000E-01  8.00000000E-01
  1.50000000E+00  8.00000000E-01  8.00000000E-01  1.50000000E+00  8.00000000E-01
  8.00000000E-01  1.50000000E+00  8.00000000E-01  8.00000000E-01  1.50000000E+00
  8.00000000E-01  8.00000000E-01  1.50000000E+00  8.00000000E-01  8.00000000E-01
  1.50000000E+00  8.00000000E-01  8.00000000E-01  1.50000000E+00  8.00000000E-01
  8.00000000E-01  1.50000000E+00  8.00000000E-01  8.00000000E-01  1.50000000E+00
  8.00000000E-01  8.00000000E-01  1.50000000E+00  8.00000000E-01  8.00000000E-01
  1.50000000E+00  8.00000000E-01  8.00000000E-01  1.50000000E+00  8.00000000E-01
  8.00000000E-01  1.50000000E+00  8.00000000E-01  8.00000000E-01  1.50000000E+00
  8.00000000E-01  8.00000000E-01  1.50000000E+00  8.00000000E-01  8.00000000E-01
  1.50000000E+00  8.00000000E-01  8.00000000E-01  1.50000000E+00  8.00000000E-01
  8.00000000E-01  1.50000000E+00  8.00000000E-01  8.00000000E-01  1.50000000E+00
  8.00000000E-01  8.00000000E-01  1.50000000E+00  8.00000000E-01  8.00000000E-01
  1.50000000E+00  8.00000000E-01  8.00000000E-01  1.50000000E+00  8.00000000E-01
  8.00000000E-01  1.50000000E+00  8.00000000E-01  8.00000000E-01  1.50000000E+00
  8.00000000E-01  8.00000000E-01  1.50000000E+00  8.00000000E-01  8.00000000E-01
  1.50000000E+00  8.00000000E-01  8.00000000E-01  1.50000000E+00  8.00000000E-01
  8.00000000E-01  1.50000000E+00  8.00000000E-01  8.00000000E-01  1.50000000E+00
  8.00000000E-01  8.00000000E-01  1.50000000E+00  8.00000000E-01  8.00000000E-01
  1.50000000E+00  8.00000000E-01  8.00000000E-01  1.50000000E+00  8.00000000E-01
  8.00000000E-01  1.50000000E+00  8.00000000E-01  8.00000000E-01  1.50000000E+00
  8.00000000E-01  8.00000000E-01  1.50000000E+00  8.00000000E-01  8.00000000E-01
  1.50000000E+00  8.00000000E-01  8.00000000E-01  1.50000000E+00  8.00000000E-01
  8.00000000E-01  1.50000000E+00  8.00000000E-01  8.00000000E-01  1.50000000E+00
  8.00000000E-01  8.00000000E-01  1.50000000E+00  8.00000000E-01  8.00000000E-01
  1.50000000E+00  8.00000000E-01  8.00000000E-01  1.50000000E+00  8.00000000E-01
  8.00000000E-01  1.50000000E+00  8.00000000E-01  8.00000000E-01  1.50000000E+00
  8.00000000E-01  8.00000000E-01  1.50000000E+00  8.00000000E-01  8.00000000E-01
  1.50000000E+00  8.00000000E-01  8.00000000E-01  1.50000000E+00  8.00000000E-01
  8.00000000E-01  1.50000000E+00  8.00000000E-01  8.00000000E-01  1.50000000E+00
  8.00000000E-01  8.00000000E-01  1.50000000E+00  8.00000000E-01  8.00000000E-01
  1.50000000E+00  8.00000000E-01  8.00000000E-01  1.50000000E+00  8.00000000E-01
  8.00000000E-01  1.50000000E+00  8.00000000E-01  8.00000000E-01  1.50000000E+00
  8.00000000E-01  8.00000000E-01  1.50000000E+00  8.00000000E-01  8.00000000E-01
  1.50000000E+00  8.00000000E-01  8.00000000E-01  1.50000000E+00  8.00000000E-01
  8.00000000E-01  1.50000000E+00  8.00000000E-01  8.00000000E-01  1.50000000E+00
  8.00000000E-01  8.00000000E-01  1.50000000E+00  8.00000000E-01  8.00000000E-01
  1.50000000E+00  8.00000000E-01  8.00000000E-01  1.50000000E+00  8.00000000E-01
  8.00000000E-01  1.50000000E+00  8.00000000E-01  8.00000000E-01  1.50000000E+00
  8.00000000E-01  8.00000000E-01  1.50000000E+00  8.00000000E-01  8.00000000E-01
  1.50000000E+00  8.00000000E-01  8.00000000E-01  1.50000000E+00  8.00000000E-01
  8.00000000E-01  1.50000000E+00  8.00000000E-01  8.00000000E-01  1.50000000E+00
  8.00000000E-01  8.00000000E-01  1.50000000E+00  8.00000000E-01  8.00000000E-01
  1.50000000E+00  8.00000000E-01  8.00000000E-01  1.50000000E+00  8.00000000E-01
  8.00000000E-01  1.50000000E+00  8.00000000E-01  8.00000000E-01  1.50000000E+00
  8.00000000E-01  8.00000000E-01  1.50000000E+00  8.00000000E-01  8.00000000E-01
  1.50000000E+00  8.00000000E-01  8.00000000E-01  1.50000000E+00  8.00000000E-01
  8.00000000E-01  1.50000000E+00  8.00000000E-01  8.00000000E-01  1.50000000E+00
  8.00000000E-01  8.00000000E-01  1.50000000E+00  8.00000000E-01  8.00000000E-01
  1.50000000E+00  8.00000000E-01  8.00000000E-01  1.50000000E+00  8.00000000E-01
  8.00000000E-01  1.50000000E+00  8.00000000E-01  8.00000000E-01  1.50000000E+00
  8.00000000E-01  8.00000000E-01  1.50000000E+00  8.00000000E-01  8.00000000E-01
  1.50000000E+00  8.00000000E-01  8.00000000E-01  1.50000000E+00  8.00000000E-01
  8.00000000E-01  1.50000000E+00  8.00000000E-01  8.00000000E-01  1.50000000E+00
  8.00000000E-01  8.00000000E-01  1.50000000E+00  8.00000000E-01  8.00000000E-01
  1.50000000E+00  8.00000000E-01  8.00000000E-01  1.50000000E+00  8.00000000E-01
  8.00000000E-01  1.50000000E+00  8.00000000E-01  8.00000000E-01  1.50000000E+00
  8.00000000E-01  8.00000000E-01  1.50000000E+00  8.00000000E-01  8.00000000E-01
  1.50000000E+00  8.00000000E-01  8.00000000E-01  1.50000000E+00  8.00000000E-01
  8.00000000E-01  1.50000000E+00  8.00000000E-01  8.00000000E-01  1.50000000E+00
  8.00000000E-01  8.00000000E-01  1.50000000E+00  8.00000000E-01  8.00000000E-01
  1.50000000E+00  8.00000000E-01  8.00000000E-01  1.50000000E+00  8.00000000E-01
  8.00000000E-01  1.50000000E+00  8.00000000E-01  8.00000000E-01  1.50000000E+00
  8.00000000E-01  8.00000000E-01  1.50000000E+00  8.00000000E-01  8.00000000E-01
  1.50000000E+00  8.00000000E-01  8.00000000E-01  1.50000000E+00  8.00000000E-01
  8.00000000E-01  1.50000000E+00  8.00000000E-01  8.00000000E-01  1.50000000E+00
  8.00000000E-01  8.00000000E-01  1.50000000E+00  8.00000000E-01  8.00000000E-01
  1.50000000E+00  8.00000000E-01  8.00000000E-01  1.50000000E+00  8.00000000E-01
  8.00000000E-01  1.50000000E+00  8.00000000E-01  8.00000000E-01  1.50000000E+00
  8.00000000E-01  8.00000000E-01  1.50000000E+00  8.00000000E-01  8.00000000E-01
  1.50000000E+00  8.00000000E-01  8.00000000E-01  1.50000000E+00  8.00000000E-01
  8.00000000E-01  1.50000000E+00  8.00000000E-01  8.00000000E-01  1.50000000E+00
  8.00000000E-01  8.00000000E-01  1.50000000E+00  8.00000000E-01  8.00000000E-01
  1.50000000E+00  8.00000000E-01  8.00000000E-01  1.50000000E+00  8.00000000E-01
  8.00000000E-01  1.50000000E+00  8.00000000E-01  8.00000000E-01  1.50000000E+00
  8.00000000E-01  8.00000000E-01  1.50000000E+00  8.00000000E-01  8.00000000E-01
  1.50000000E+00  8.00000000E-01  8.00000000E-01  1.50000000E+00  8.00000000E-01
  8.00000000E-01  1.50000000E+00  8.00000000E-01  8.00000000E-01  1.50000000E+00
  8.00000000E-01  8.00000000E-01  1.50000000E+00  8.00000000E-01  8.00000000E-01
  1.50000000E+00  8.00000000E-01  8.00000000E-01  1.50000000E+00  8.00000000E-01
  8.00000000E-01  1.50000000E+00  8.00000000E-01  8.00000000E-01  1.50000000E+00
  8.00000000E-01  8.00000000E-01  1.50000000E+00  8.00000000E-01  8.00000000E-01
  1.50000000E+00  8.00000000E-01  8.00000000E-01  1.50000000E+00  8.00000000E-01
  8.00000000E-01  1.50000000E+00  8.00000000E-01  8.00000000E-01  1.50000000E+00
  8.00000000E-01  8.00000000E-01  1.50000000E+00  8.00000000E-01  8.00000000E-01
  1.50000000E+00  8.00000000E-01  8.00000000E-01  1.50000000E+00  8.00000000E-01
  8.00000000E-01  1.50000000E+00  8.00000000E-01  8.00000000E-01  1.50000000E+00
  8.00000000E-01  8.00000000E-01  1.50000000E+00  8.00000000E-01  8.00000000E-01
  1.50000000E+00  8.00000000E-01  8.00000000E-01  1.50000000E+00  8.00000000E-01
  8.00000000E-01  1.50000000E+00  8.00000000E-01  8.00000000E-01  1.50000000E+00
  8.00000000E-01  8.00000000E-01  1.50000000E+00  8.00000000E-01  8.00000000E-01
  1.50000000E+00  8.00000000E-01  8.00000000E-01  1.50000000E+00  8.00000000E-01
  8.00000000E-01  1.50000000E+00  8.00000000E-01  8.00000000E-01  1.50000000E+00
  8.00000000E-01  8.00000000E-01  1.50000000E+00  8.00000000E-01  8.00000000E-01
  1.50000000E+00  8.00000000E-01  8.00000000E-01  1.50000000E+00  8.00000000E-01
  8.00000000E-01  1.50000000E+00  8.00000000E-01  8.00000000E-01  1.50000000E+00
  8.00000000E-01  8.00000000E-01  1.50000000E+00  8.00000000E-01  8.00000000E-01
  1.50000000E+00  8.00000000E-01  8.00000000E-01  1.50000000E+00  8.00000000E-01
  8.00000000E-01  1.50000000E+00  8.00000000E-01  8.00000000E-01  1.50000000E+00
  8.00000000E-01  8.00000000E-01  1.50000000E+00  8.00000000E-01  8.00000000E-01
  1.50000000E+00  8.00000000E-01  8.00000000E-01  1.50000000E+00  8.00000000E-01
  8.00000000E-01  1.50000000E+00  8.00000000E-01  8.00000000E-01  1.50000000E+00
  8.00000000E-01  8.00000000E-01  1.50000000E+00  8.00000000E-01  8.00000000E-01
  1.50000000E+00  8.00000000E-01  8.00000000E-01  1.50000000E+00  8.00000000E-01
  8.00000000E-01  1.50000000E+00  8.00000000E-01  8.00000000E-01  1.50000000E+00
  8.00000000E-01  8.00000000E-01  1.50000000E+00  8.00000000E-01  8.00000000E-01
  1.50000000E+00  8.00000000E-01  8.00000000E-01  1.50000000E+00  8.00000000E-01
  8.00000000E-01  1.50000000E+00  8.00000000E-01  8.00000000E-01  1.50000000E+00
  8.00000000E-01  8.00000000E-01  1.50000000E+00  8.00000000E-01  8.00000000E-01
  1.50000000E+00  8.00000000E-01  8.00000000E-01  1.50000000E+00  8.00000000E-01
  8.00000000E-01  1.50000000E+00  8.00000000E-01  8.00000000E-01  1.50000000E+00
  8.00000000E-01  8.00000000E-01  1.50000000E+00  8.00000000E-01  8.00000000E-01
  1.50000000E+00  8.00000000E-01  8.00000000E-01  1.50000000E+00  8.00000000E-01
  8.00000000E-01  1.50000000E+00  8.00000000E-01  8.00000000E-01  1.50000000E+00
  8.00000000E-01  8.00000000E-01  1.50000000E+00  8.00000000E-01  8.00000000E-01
  1.50000000E+00  8.00000000E-01  8.00000000E-01  1.50000000E+00  8.00000000E-01
  8.00000000E-01  1.50000000E+00  8.00000000E-01  8.00000000E-01  1.50000000E+00
  8.00000000E-01  8.00000000E-01  1.50000000E+00  8.00000000E-01  8.00000000E-01
  1.50000000E+00  8.00000000E-01  8.00000000E-01  1.50000000E+00  8.00000000E-01
  8.00000000E-01  1.50000000E+00  8.00000000E-01  8.00000000E-01  1.50000000E+00
  8.00000000E-01  8.00000000E-01  1.50000000E+00  8.00000000E-01  8.00000000E-01
  1.50000000E+00  8.00000000E-01  8.00000000E-01  1.50000000E+00  8.00000000E-01
  8.00000000E-01  1.50000000E+00  8.00000000E-01  8.00000000E-01  1.50000000E+00
  8.00000000E-01  8.00000000E-01  1.50000000E+00  8.00000000E-01  8.00000000E-01
  1.50000000E+00  8.00000000E-01  8.00000000E-01  1.50000000E+00  8.00000000E-01
  8.00000000E-01  1.50000000E+00  8.00000000E-01  8.00000000E-01  1.50000000E+00
  8.00000000E-01  8.00000000E-01  1.50000000E+00  8.00000000E-01  8.00000000E-01
  1.50000000E+00  8.00000000E-01  8.00000000E-01  1.50000000E+00  8.00000000E-01
  8.00000000E-01  1.50000000E+00  8.00000000E-01  8.00000000E-01  1.50000000E+00
  8.00000000E-01  8.00000000E-01  1.50000000E+00  8.00000000E-01  8.00000000E-01
  1.50000000E+00  8.00000000E-01  8.00000000E-01  1.50000000E+00  8.00000000E-01
  8.00000000E-01  1.50000000E+00  8.00000000E-01  8.00000000E-01  1.50000000E+00
  8.00000000E-01  8.00000000E-01  1.50000000E+00  8.00000000E-01  8.00000000E-01
  1.50000000E+00  8.00000000E-01  8.00000000E-01  1.50000000E+00  8.00000000E-01
  8.00000000E-01  1.50000000E+00  8.00000000E-01  8.00000000E-01  1.50000000E+00
  8.00000000E-01  8.00000000E-01  1.50000000E+00  8.00000000E-01  8.00000000E-01
  1.50000000E+00  8.00000000E-01  8.00000000E-01  1.50000000E+00  8.00000000E-01
  8.00000000E-01  1.50000000E+00  8.00000000E-01  8.00000000E-01  1.50000000E+00
  8.00000000E-01  8.00000000E-01  1.50000000E+00  8.00000000E-01  8.00000000E-01
  1.50000000E+00  8.00000000E-01  8.00000000E-01  1.50000000E+00  8.00000000E-01
  8.00000000E-01  1.50000000E+00  8.00000000E-01  8.00000000E-01  1.50000000E+00
  8.00000000E-01  8.00000000E-01  1.50000000E+00  8.00000000E-01  8.00000000E-01
  1.50000000E+00  8.00000000E-01  8.00000000E-01  1.50000000E+00  8.00000000E-01
  8.00000000E-01  1.50000000E+00  8.00000000E-01  8.00000000E-01  1.50000000E+00
  8.00000000E-01  8.00000000E-01  1.50000000E+00  8.00000000E-01  8.00000000E-01
  1.50000000E+00  8.00000000E-01  8.00000000E-01  1.50000000E+00  8.00000000E-01
  8.00000000E-01  1.50000000E+00  8.00000000E-01  8.00000000E-01  1.50000000E+00
  8.00000000E-01  8.00000000E-01  1.50000000E+00  8.00000000E-01  8.00000000E-01
  1.50000000E+00  8.00000000E-01  8.00000000E-01  1.50000000E+00  8.00000000E-01
  8.00000000E-01  1.50000000E+00  8.00000000E-01  8.00000000E-01  1.50000000E+00
  8.00000000E-01  8.00000000E-01  1.50000000E+00  8.00000000E-01  8.00000000E-01
  1.50000000E+00  8.00000000E-01  8.00000000E-01  1.50000000E+00  8.00000000E-01
  8.00000000E-01  1.50000000E+00  8.00000000E-01  8.00000000E-01  1.50000000E+00
  8.00000000E-01  8.00000000E-01  1.50000000E+00  8.00000000E-01  8.00000000E-01
  1.50000000E+00  8.00000000E-01  8.00000000E-01  1.50000000E+00  8.00000000E-01
  8.00000000E-01  1.50000000E+00  8.00000000E-01  8.00000000E-01  1.50000000E+00
  8.00000000E-01  8.00000000E-01  1.50000000E+00  8.00000000E-01  8.00000000E-01
  1.50000000E+00  8.00000000E-01  8.00000000E-01  1.50000000E+00  8.00000000E-01
  8.00000000E-01  1.50000000E+00  8.00000000E-01  8.00000000E-01  1.50000000E+00
  8.00000000E-01  8.00000000E-01  1.50000000E+00  8.00000000E-01  8.00000000E-01
  1.50000000E+00  8.00000000E-01  8.00000000E-01  1.50000000E+00  8.00000000E-01
  8.00000000E-01  1.50000000E+00  8.00000000E-01  8.00000000E-01  1.50000000E+00
  8.00000000E-01  8.00000000E-01  1.50000000E+00  8.00000000E-01  8.00000000E-01
  1.50000000E+00  8.00000000E-01  8.00000000E-01  1.50000000E+00  8.00000000E-01
  8.00000000E-01  1.50000000E+00  8.00000000E-01  8.00000000E-01  1.50000000E+00
  8.00000000E-01  8.00000000E-01  1.50000000E+00  8.00000000E-01  8.00000000E-01
  1.50000000E+00  8.00000000E-01  8.00000000E-01  1.50000000E+00  8.00000000E-01
  8.00000000E-01  1.50000000E+00  8.00000000E-01  8.00000000E-01  1.50000000E+00
  8.00000000E-01  8.00000000E-01  1.50000000E+00  8.00000000E-01  8.00000000E-01
  1.50000000E+00  8.00000000E-01  8.00000000E-01  1.50000000E+00  8.00000000E-01
  8.00000000E-01  1.50000000E+00  8.00000000E-01  8.00000000E-01  1.50000000E+00
  8.00000000E-01  8.00000000E-01  1.50000000E+00  8.00000000E-01  8.00000000E-01
  1.50000000E+00  8.00000000E-01  8.00000000E-01  1.50000000E+00  8.00000000E-01
  8.00000000E-01  1.50000000E+00  8.00000000E-01  8.00000000E-01  1.50000000E+00
  8.00000000E-01  8.00000000E-01  1.50000000E+00  8.00000000E-01  8.00000000E-01
  1.50000000E+00  8.00000000E-01  8.00000000E-01  1.50000000E+00  8.00000000E-01
  8.00000000E-01  1.50000000E+00  8.00000000E-01  8.00000000E-01  1.50000000E+00
  8.00000000E-01  8.00000000E-01  1.50000000E+00  8.00000000E-01  8.00000000E-01
  1.50000000E+00  8.00000000E-01  8.00000000E-01  1.50000000E+00  8.00000000E-01
  8.00000000E-01  1.50000000E+00  8.00000000E-01  8.00000000E-01  1.50000000E+00
  8.00000000E-01  8.00000000E-01  1.50000000E+00  8.00000000E-01  8.00000000E-01
  1.50000000E+00  8.00000000E-01  8.00000000E-01  1.50000000E+00  8.00000000E-01
  8.00000000E-01  1.50000000E+00  8.00000000E-01  8.00000000E-01  1.50000000E+00
  8.00000000E-01  8.00000000E-01  1.50000000E+00  8.00000000E-01  8.00000000E-01
  1.50000000E+00  8.00000000E-01  8.00000000E-01  1.50000000E+00  8.00000000E-01
  8.00000000E-01  1.50000000E+00  8.00000000E-01  8.00000000E-01  1.50000000E+00
  8.00000000E-01  8.00000000E-01  1.50000000E+00  8.00000000E-01  8.00000000E-01
  1.50000000E+00  8.00000000E-01  8.00000000E-01  1.50000000E+00  8.00000000E-01
  8.00000000E-01  1.50000000E+00  8.00000000E-01  8.00000000E-01  1.50000000E+00
  8.00000000E-01  8.00000000E-01  1.50000000E+00  8.00000000E-01  8.00000000E-01
  1.50000000E+00  8.00000000E-01  8.00000000E-01  1.50000000E+00  8.00000000E-01
  8.00000000E-01  1.50000000E+00  8.00000000E-01  8.00000000E-01  1.50000000E+00
  8.00000000E-01  8.00000000E-01  1.50000000E+00  8.00000000E-01  8.00000000E-01
  1.50000000E+00  8.00000000E-01  8.00000000E-01  1.50000000E+00  8.00000000E-01
  8.00000000E-01  1.50000000E+00  8.00000000E-01  8.00000000E-01  1.50000000E+00
  8.00000000E-01  8.00000000E-01  1.50000000E+00  8.00000000E-01  8.00000000E-01
  1.50000000E+00  8.00000000E-01  8.00000000E-01  1.50000000E+00  8.00000000E-01
  8.00000000E-01  1.50000000E+00  8.00000000E-01  8.00000000E-01  1.50000000E+00
  8.00000000E-01  8.00000000E-01  1.50000000E+00  8.00000000E-01  8.00000000E-01
  1.50000000E+00  8.00000000E-01  8.00000000E-01  1.50000000E+00  8.00000000E-01
  8.00000000E-01  1.50000000E+00  8.00000000E-01  8.00000000E-01  1.50000000E+00
  8.00000000E-01  8.00000000E-01  1.50000000E+00  8.00000000E-01  8.00000000E-01
  1.50000000E+00  8.00000000E-01  8.00000000E-01  1.50000000E+00  8.00000000E-01
  8.00000000E-01  1.50000000E+00  8.00000000E-01  8.00000000E-01  1.50000000E+00
  8.00000000E-01  8.00000000E-01  1.50000000E+00  8.00000000E-01  8.00000000E-01
  1.50000000E+00  8.00000000E-01  8.00000000E-01  1.50000000E+00  8.00000000E-01
  8.00000000E-01  1.50000000E+00  8.00000000E-01  8.00000000E-01  1.50000000E+00
  8.00000000E-01  8.00000000E-01  1.50000000E+00  8.00000000E-01  8.00000000E-01
  1.50000000E+00  8.00000000E-01  8.00000000E-01  1.50000000E+00  8.00000000E-01
  8.00000000E-01  1.50000000E+00  8.00000000E-01  8.00000000E-01  1.50000000E+00
  8.00000000E-01  8.00000000E-01  1.50000000E+00  8.00000000E-01  8.00000000E-01
  1.50000000E+00  8.00000000E-01  8.00000000E-01  1.50000000E+00  8.00000000E-01
  8.00000000E-01  1.50000000E+00  8.00000000E-01  8.00000000E-01  1.50000000E+00
  8.00000000E-01  8.00000000E-01  1.50000000E+00  8.00000000E-01  8.00000000E-01
  1.50000000E+00  8.00000000E-01  8.00000000E-01  1.50000000E+00  8.00000000E-01
  8.00000000E-01  1.50000000E+00  8.00000000E-01  8.00000000E-01  1.50000000E+00
  8.00000000E-01  8.00000000E-01  1.50000000E+00  8.00000000E-01  8.00000000E-01
  1.50000000E+00  8.00000000E-01  8.00000000E-01  1.50000000E+00  8.00000000E-01
  8.00000000E-01  1.50000000E+00  8.00000000E-01  8.00000000E-01  1.50000000E+00
  8.00000000E-01  8.00000000E-01  1.50000000E+00  8.00000000E-01  8.00000000E-01
  1.50000000E+00  8.00000000E-01  8.00000000E-01  1.50000000E+00  8.00000000E-01
  8.00000000E-01  1.50000000E+00  8.00000000E-01  8.00000000E-01  1.50000000E+00
  8.00000000E-01  8.00000000E-01  1.50000000E+00  8.00000000E-01  8.00000000E-01
  1.50000000E+00  8.00000000E-01  8.00000000E-01  1.50000000E+00  8.00000000E-01
  8.00000000E-01  1.50000000E+00  8.00000000E-01  8.00000000E-01  1.50000000E+00
  8.00000000E-01  8.00000000E-01  1.50000000E+00  8.00000000E-01  8.00000000E-01
  1.50000000E+00  8.00000000E-01  8.00000000E-01  1.50000000E+00  8.00000000E-01
  8.00000000E-01  1.50000000E+00  8.00000000E-01  8.00000000E-01  1.50000000E+00
  8.00000000E-01  8.00000000E-01  1.50000000E+00  8.00000000E-01  8.00000000E-01
  1.50000000E+00  8.00000000E-01  8.00000000E-01  1.50000000E+00  8.00000000E-01
  8.00000000E-01  1.50000000E+00  8.00000000E-01  8.00000000E-01  1.50000000E+00
  8.00000000E-01  8.00000000E-01  1.50000000E+00  8.00000000E-01  8.00000000E-01
  1.50000000E+00  8.00000000E-01  8.00000000E-01  1.50000000E+00  8.00000000E-01
  8.00000000E-01  1.50000000E+00  8.00000000E-01  8.00000000E-01  1.50000000E+00
  8.00000000E-01  8.00000000E-01  1.50000000E+00  8.00000000E-01  8.00000000E-01
  1.50000000E+00  8.00000000E-01  8.00000000E-01  1.50000000E+00  8.00000000E-01
  8.00000000E-01  1.50000000E+00  8.00000000E-01  8.00000000E-01  1.50000000E+00
  8.00000000E-01  8.00000000E-01  1.50000000E+00  8.00000000E-01  8.00000000E-01
  1.50000000E+00  8.00000000E-01  8.00000000E-01  1.50000000E+00  8.00000000E-01
  8.00000000E-01  1.50000000E+00  8.00000000E-01  8.00000000E-01  1.50000000E+00
  8.00000000E-01  8.00000000E-01  1.50000000E+00  8.00000000E-01  8.00000000E-01
  1.50000000E+00  8.00000000E-01  8.00000000E-01  1.50000000E+00  8.00000000E-01
  8.00000000E-01  1.50000000E+00  8.00000000E-01  8.00000000E-01  1.50000000E+00
  8.00000000E-01  8.00000000E-01  1.50000000E+00  8.00000000E-01  8.00000000E-01
  1.50000000E+00  8.00000000E-01  8.00000000E-01  1.50000000E+00  8.00000000E-01
  8.00000000E-01  1.50000000E+00  8.00000000E-01  8.00000000E-01  1.50000000E+00
  8.00000000E-01  8.00000000E-01  1.50000000E+00  8.00000000E-01  8.00000000E-01
  1.50000000E+00  8.00000000E-01  8.00000000E-01  1.50000000E+00  8.00000000E-01
  8.00000000E-01  1.50000000E+00  8.00000000E-01  8.00000000E-01  1.50000000E+00
  8.00000000E-01  8.00000000E-01  1.50000000E+00  8.00000000E-01  8.00000000E-01
  1.50000000E+00  8.00000000E-01  8.00000000E-01  1.50000000E+00  8.00000000E-01
  8.00000000E-01  1.50000000E+00  8.00000000E-01  8.00000000E-01  1.50000000E+00
  8.00000000E-01  8.00000000E-01  1.50000000E+00  8.00000000E-01  8.00000000E-01
  1.50000000E+00  8.00000000E-01  8.00000000E-01  1.50000000E+00  8.00000000E-01
  8.00000000E-01  1.50000000E+00  8.00000000E-01  8.00000000E-01  1.50000000E+00
  8.00000000E-01  8.00000000E-01  1.50000000E+00  8.00000000E-01  8.00000000E-01
  1.50000000E+00  8.00000000E-01  8.00000000E-01  1.50000000E+00  8.00000000E-01
  8.00000000E-01  1.50000000E+00  8.00000000E-01  8.00000000E-01  1.50000000E+00
  8.00000000E-01  8.00000000E-01  1.50000000E+00  8.00000000E-01  8.00000000E-01
  1.50000000E+00  8.00000000E-01  8.00000000E-01  1.50000000E+00  8.00000000E-01
  8.00000000E-01  1.50000000E+00  8.00000000E-01  8.00000000E-01  1.50000000E+00
  8.00000000E-01  8.00000000E-01  1.50000000E+00  8.00000000E-01  8.00000000E-01
  1.50000000E+00  8.00000000E-01  8.00000000E-01  1.50000000E+00  8.00000000E-01
  8.00000000E-01  1.50000000E+00  8.00000000E-01  8.00000000E-01  1.50000000E+00
  8.00000000E-01  8.00000000E-01  1.50000000E+00  8.00000000E-01  8.00000000E-01
  1.50000000E+00  8.00000000E-01  8.00000000E-01  1.50000000E+00  8.00000000E-01
  8.00000000E-01  1.50000000E+00  8.00000000E-01  8.00000000E-01  1.50000000E+00
  8.00000000E-01  8.00000000E-01  1.50000000E+00  8.00000000E-01  8.00000000E-01
  1.50000000E+00  8.00000000E-01  8.00000000E-01  1.50000000E+00  8.00000000E-01
  8.00000000E-01  1.50000000E+00  8.00000000E-01  8.00000000E-01  1.50000000E+00
  8.00000000E-01  8.00000000E-01  1.50000000E+00  8.00000000E-01  8.00000000E-01
  1.50000000E+00  8.00000000E-01  8.00000000E-01  1.50000000E+00  8.00000000E-01
  8.00000000E-01  1.50000000E+00  8.00000000E-01  8.00000000E-01  1.50000000E+00
  8.00000000E-01  8.00000000E-01  1.50000000E+00  8.00000000E-01  8.00000000E-01
  1.50000000E+00  8.00000000E-01  8.00000000E-01  1.50000000E+00  8.00000000E-01
  8.00000000E-01  1.50000000E+00  8.00000000E-01  8.00000000E-01  1.50000000E+00
  8.00000000E-01  8.00000000E-01  1.50000000E+00  8.00000000E-01  8.00000000E-01
  1.50000000E+00  8.00000000E-01  8.00000000E-01  1.50000000E+00  8.00000000E-01
  8.00000000E-01  1.50000000E+00  8.00000000E-01  8.00000000E-01  1.50000000E+00
  8.00000000E-01  8.00000000E-01  1.50000000E+00  8.00000000E-01  8.00000000E-01
  1.50000000E+00  8.00000000E-01  8.00000000E-01  1.50000000E+00  8.00000000E-01
  8.00000000E-01  1.50000000E+00  8.00000000E-01  8.00000000E-01  1.50000000E+00
  8.00000000E-01  8.00000000E-01  1.50000000E+00  8.00000000E-01  8.00000000E-01
  1.50000000E+00  8.00000000E-01  8.00000000E-01  1.50000000E+00  8.00000000E-01
  8.00000000E-01  1.50000000E+00  8.00000000E-01  8.00000000E-01  1.50000000E+00
  8.00000000E-01  8.00000000E-01  1.50000000E+00  8.00000000E-01  8.00000000E-01
  1.50000000E+00  8.00000000E-01  8.00000000E-01  1.50000000E+00  8.00000000E-01
  8.00000000E-01  1.50000000E+00  8.00000000E-01  8.00000000E-01  1.50000000E+00
  8.00000000E-01  8.00000000E-01  1.50000000E+00  8.00000000E-01  8.00000000E-01
  1.50000000E+00  8.00000000E-01  8.00000000E-01  1.50000000E+00  8.00000000E-01
  8.00000000E-01  1.50000000E+00  8.00000000E-01  8.00000000E-01  1.50000000E+00
  8.00000000E-01  8.00000000E-01  1.50000000E+00  8.00000000E-01  8.00000000E-01
  1.50000000E+00  8.00000000E-01  8.00000000E-01  1.50000000E+00  8.00000000E-01
  8.00000000E-01  1.50000000E+00  8.00000000E-01  8.00000000E-01  1.50000000E+00
  8.00000000E-01  8.00000000E-01  1.50000000E+00  8.00000000E-01  8.00000000E-01
  1.50000000E+00  8.00000000E-01  8.00000000E-01  1.50000000E+00  8.00000000E-01
  8.00000000E-01  1.50000000E+00  8.00000000E-01  8.00000000E-01  1.50000000E+00
  8.00000000E-01  8.00000000E-01  1.50000000E+00  8.00000000E-01  8.00000000E-01
  1.50000000E+00  8.00000000E-01  8.00000000E-01  1.50000000E+00  8.00000000E-01
  8.00000000E-01  1.50000000E+00  8.00000000E-01  8.00000000E-01  1.50000000E+00
  8.00000000E-01  8.00000000E-01  1.50000000E+00  8.00000000E-01  8.00000000E-01
  1.50000000E+00  8.00000000E-01  8.00000000E-01  1.50000000E+00  8.00000000E-01
  8.00000000E-01  1.50000000E+00  8.00000000E-01  8.00000000E-01  1.50000000E+00
  8.00000000E-01  8.00000000E-01  1.50000000E+00  8.00000000E-01  8.00000000E-01
  1.50000000E+00  8.00000000E-01  8.00000000E-01  1.50000000E+00  8.00000000E-01
  8.00000000E-01  1.50000000E+00  8.00000000E-01  8.00000000E-01  1.50000000E+00
  8.00000000E-01  8.00000000E-01  1.50000000E+00  8.00000000E-01  8.00000000E-01
  1.50000000E+00  8.00000000E-01  8.00000000E-01  1.50000000E+00  8.00000000E-01
  8.00000000E-01  1.50000000E+00  8.00000000E-01  8.00000000E-01  1.50000000E+00
  8.00000000E-01  8.00000000E-01  1.50000000E+00  8.00000000E-01  8.00000000E-01
  1.50000000E+00  8.00000000E-01  8.00000000E-01  1.50000000E+00  8.00000000E-01
  8.00000000E-01  1.50000000E+00  8.00000000E-01  8.00000000E-01  1.50000000E+00
  8.00000000E-01  8.00000000E-01  1.50000000E+00  8.00000000E-01  8.00000000E-01
  1.50000000E+00  8.00000000E-01  8.00000000E-01  1.50000000E+00  8.00000000E-01
  8.00000000E-01  1.50000000E+00  8.00000000E-01  8.00000000E-01  1.50000000E+00
  8.00000000E-01  8.00000000E-01  1.50000000E+00  8.00000000E-01  8.00000000E-01
  1.50000000E+00  8.00000000E-01  8.00000000E-01  1.50000000E+00  8.00000000E-01
  8.00000000E-01  1.50000000E+00  8.00000000E-01  8.00000000E-01  1.50000000E+00
  8.00000000E-01  8.00000000E-01  1.50000000E+00  8.00000000E-01  8.00000000E-01
  1.50000000E+00  8.00000000E-01  8.00000000E-01  1.50000000E+00  8.00000000E-01
  8.00000000E-01  1.50000000E+00  8.00000000E-01  8.00000000E-01  1.50000000E+00
  8.00000000E-01  8.00000000E-01  1.50000000E+00  8.00000000E-01  8.00000000E-01
  1.50000000E+00  8.00000000E-01  8.00000000E-01  1.50000000E+00  8.00000000E-01
  8.00000000E-01  1.50000000E+00  8.00000000E-01  8.00000000E-01  1.50000000E+00
  8.00000000E-01  8.00000000E-01  1.50000000E+00  8.00000000E-01  8.00000000E-01
  1.50000000E+00  8.00000000E-01  8.00000000E-01  1.50000000E+00  8.00000000E-01
  8.00000000E-01  1.50000000E+00  8.00000000E-01  8.00000000E-01  1.50000000E+00
  8.00000000E-01  8.00000000E-01  1.50000000E+00  8.00000000E-01  8.00000000E-01
  1.50000000E+00  8.00000000E-01  8.00000000E-01  1.50000000E+00  8.00000000E-01
  8.00000000E-01  1.50000000E+00  8.00000000E-01  8.00000000E-01  1.50000000E+00
  8.00000000E-01  8.00000000E-01  1.50000000E+00  8.00000000E-01  8.00000000E-01
  1.50000000E+00  8.00000000E-01  8.00000000E-01  1.50000000E+00  8.00000000E-01
  8.00000000E-01  1.50000000E+00  8.00000000E-01  8.00000000E-01  1.50000000E+00
  8.00000000E-01  8.00000000E-01  1.50000000E+00  8.00000000E-01  8.00000000E-01
  1.50000000E+00  8.00000000E-01  8.00000000E-01  1.50000000E+00  8.00000000E-01
  8.00000000E-01  1.50000000E+00  8.00000000E-01  8.00000000E-01  1.50000000E+00
  8.00000000E-01  8.00000000E-01  1.50000000E+00  8.00000000E-01  8.00000000E-01
  1.50000000E+00  8.00000000E-01  8.00000000E-01  1.50000000E+00  8.00000000E-01
  8.00000000E-01  1.50000000E+00  8.00000000E-01  8.00000000E-01  1.50000000E+00
  8.00000000E-01  8.00000000E-01  1.50000000E+00  8.00000000E-01  8.00000000E-01
  1.50000000E+00  8.00000000E-01  8.00000000E-01  1.50000000E+00  8.00000000E-01
  8.00000000E-01  1.50000000E+00  8.00000000E-01  8.00000000E-01  1.50000000E+00
  8.00000000E-01  8.00000000E-01  1.50000000E+00  8.00000000E-01  8.00000000E-01
  1.50000000E+00  8.00000000E-01  8.00000000E-01  1.50000000E+00  8.00000000E-01
  8.00000000E-01  1.50000000E+00  8.00000000E-01  8.00000000E-01  1.50000000E+00
  8.00000000E-01  8.00000000E-01  1.50000000E+00  8.00000000E-01  8.00000000E-01
  1.50000000E+00  8.00000000E-01  8.00000000E-01  1.50000000E+00  8.00000000E-01
  8.00000000E-01  1.50000000E+00  8.00000000E-01  8.00000000E-01  1.50000000E+00
  8.00000000E-01  8.00000000E-01  1.50000000E+00  8.00000000E-01  8.00000000E-01
  1.50000000E+00  8.00000000E-01  8.00000000E-01  1.50000000E+00  8.00000000E-01
  8.00000000E-01  1.50000000E+00  8.00000000E-01  8.00000000E-01  1.50000000E+00
  8.00000000E-01  8.00000000E-01  1.50000000E+00  8.00000000E-01  8.00000000E-01
  1.50000000E+00  8.00000000E-01  8.00000000E-01  1.50000000E+00  8.00000000E-01
  8.00000000E-01  1.50000000E+00  8.00000000E-01  8.00000000E-01  1.50000000E+00
  8.00000000E-01  8.00000000E-01  1.50000000E+00  8.00000000E-01  8.00000000E-01
  1.50000000E+00  8.00000000E-01  8.00000000E-01  1.50000000E+00  8.00000000E-01
  8.00000000E-01  1.50000000E+00  8.00000000E-01  8.00000000E-01  1.50000000E+00
  8.00000000E-01  8.00000000E-01  1.50000000E+00  8.00000000E-01  8.00000000E-01
  1.50000000E+00  8.00000000E-01  8.00000000E-01  1.50000000E+00  8.00000000E-01
  8.00000000E-01  1.50000000E+00  8.00000000E-01  8.00000000E-01  1.50000000E+00
  8.00000000E-01  8.00000000E-01  1.50000000E+00  8.00000000E-01  8.00000000E-01
  1.50000000E+00  8.00000000E-01  8.00000000E-01  1.50000000E+00  8.00000000E-01
  8.00000000E-01  1.50000000E+00  8.00000000E-01  8.00000000E-01  1.50000000E+00
  8.00000000E-01  8.00000000E-01  1.50000000E+00  8.00000000E-01  8.00000000E-01
  1.50000000E+00  8.00000000E-01  8.00000000E-01  1.50000000E+00  8.00000000E-01
  8.00000000E-01  1.50000000E+00  8.00000000E-01  8.00000000E-01  1.50000000E+00
  8.00000000E-01  8.00000000E-01  1.50000000E+00  8.00000000E-01  8.00000000E-01
  1.50000000E+00  8.00000000E-01  8.00000000E-01  1.50000000E+00  8.00000000E-01
  8.00000000E-01  1.50000000E+00  8.00000000E-01  8.00000000E-01  1.50000000E+00
  8.00000000E-01  8.00000000E-01  1.50000000E+00  8.00000000E-01  8.00000000E-01
  1.50000000E+00  8.00000000E-01  8.00000000E-01  1.50000000E+00  8.00000000E-01
  8.00000000E-01  1.50000000E+00  8.00000000E-01  8.00000000E-01  1.50000000E+00
  8.00000000E-01  8.00000000E-01  1.50000000E+00  8.00000000E-01  8.00000000E-01
  1.50000000E+00  8.00000000E-01  8.00000000E-01  1.50000000E+00  8.00000000E-01
  8.00000000E-01  1.50000000E+00  8.00000000E-01  8.00000000E-01  1.50000000E+00
  8.00000000E-01  8.00000000E-01  1.50000000E+00  8.00000000E-01  8.00000000E-01
  1.50000000E+00  8.00000000E-01  8.00000000E-01  1.50000000E+00  8.00000000E-01
  8.00000000E-01  1.50000000E+00  8.00000000E-01  8.00000000E-01  1.50000000E+00
  8.00000000E-01  8.00000000E-01  1.50000000E+00  8.00000000E-01  8.00000000E-01
  1.50000000E+00  8.00000000E-01  8.00000000E-01  1.50000000E+00  8.00000000E-01
  8.00000000E-01  1.50000000E+00  8.00000000E-01  8.00000000E-01  1.50000000E+00
  8.00000000E-01  8.00000000E-01  1.50000000E+00  8.00000000E-01  8.00000000E-01
  1.50000000E+00  8.00000000E-01  8.00000000E-01  1.50000000E+00  8.00000000E-01
  8.00000000E-01  1.50000000E+00  8.00000000E-01  8.00000000E-01  1.50000000E+00
  8.00000000E-01  8.00000000E-01  1.50000000E+00  8.00000000E-01  8.00000000E-01
  1.50000000E+00  8.00000000E-01  8.00000000E-01  1.50000000E+00  8.00000000E-01
  8.00000000E-01  1.50000000E+00  8.00000000E-01  8.00000000E-01  1.50000000E+00
  8.00000000E-01  8.00000000E-01  1.50000000E+00  8.00000000E-01  8.00000000E-01
  1.50000000E+00  8.00000000E-01  8.00000000E-01  1.50000000E+00  8.00000000E-01
  8.00000000E-01  1.50000000E+00  8.00000000E-01  8.00000000E-01  1.50000000E+00
  8.00000000E-01  8.00000000E-01  1.50000000E+00  8.00000000E-01  8.00000000E-01
  1.50000000E+00  8.00000000E-01  8.00000000E-01  1.50000000E+00  8.00000000E-01
  8.00000000E-01  1.50000000E+00  8.00000000E-01  8.00000000E-01  1.50000000E+00
  8.00000000E-01  8.00000000E-01  1.50000000E+00  8.00000000E-01  8.00000000E-01
  1.50000000E+00  8.00000000E-01  8.00000000E-01  1.50000000E+00  8.00000000E-01
  8.00000000E-01  1.50000000E+00  8.00000000E-01  8.00000000E-01  1.50000000E+00
  8.00000000E-01  8.00000000E-01  1.50000000E+00  8.00000000E-01  8.00000000E-01
  1.50000000E+00  8.00000000E-01  8.00000000E-01  1.50000000E+00  8.00000000E-01
  8.00000000E-01  1.50000000E+00  8.00000000E-01  8.00000000E-01  1.50000000E+00
  8.00000000E-01  8.00000000E-01  1.50000000E+00  8.00000000E-01  8.00000000E-01
  1.50000000E+00  8.00000000E-01  8.00000000E-01  1.50000000E+00  8.00000000E-01
  8.00000000E-01  1.50000000E+00  8.00000000E-01  8.00000000E-01  1.50000000E+00
  8.00000000E-01  8.00000000E-01  1.50000000E+00  8.00000000E-01  8.00000000E-01
  1.50000000E+00  8.00000000E-01  8.00000000E-01  1.50000000E+00  8.00000000E-01
  8.00000000E-01  1.50000000E+00  8.00000000E-01  8.00000000E-01  1.50000000E+00
  8.00000000E-01  8.00000000E-01  1.50000000E+00  8.00000000E-01  8.00000000E-01
  1.50000000E+00  8.00000000E-01  8.00000000E-01  1.50000000E+00  8.00000000E-01
  8.00000000E-01  1.50000000E+00  8.00000000E-01  8.00000000E-01  1.50000000E+00
  8.00000000E-01  8.00000000E-01  1.50000000E+00  8.00000000E-01  8.00000000E-01
  1.50000000E+00  8.00000000E-01  8.00000000E-01  1.50000000E+00  8.00000000E-01
  8.00000000E-01  1.50000000E+00  8.00000000E-01  8.00000000E-01  1.50000000E+00
  8.00000000E-01  8.00000000E-01  1.50000000E+00  8.00000000E-01  8.00000000E-01
  1.50000000E+00  8.00000000E-01  8.00000000E-01  1.50000000E+00  8.00000000E-01
  8.00000000E-01  1.50000000E+00  8.00000000E-01  8.00000000E-01  1.50000000E+00
  8.00000000E-01  8.00000000E-01  1.50000000E+00  8.00000000E-01  8.00000000E-01
  1.50000000E+00  8.00000000E-01  8.00000000E-01  1.50000000E+00  8.00000000E-01
  8.00000000E-01  1.50000000E+00  8.00000000E-01  8.00000000E-01  1.50000000E+00
  8.00000000E-01  8.00000000E-01  1.50000000E+00  8.00000000E-01  8.00000000E-01
  1.50000000E+00  8.00000000E-01  8.00000000E-01  1.50000000E+00  8.00000000E-01
  8.00000000E-01  1.50000000E+00  8.00000000E-01  8.00000000E-01  1.50000000E+00
  8.00000000E-01  8.00000000E-01  1.50000000E+00  8.00000000E-01  8.00000000E-01
  1.50000000E+00  8.00000000E-01  8.00000000E-01  1.50000000E+00  8.00000000E-01
  8.00000000E-01  1.50000000E+00  8.00000000E-01  8.00000000E-01  1.50000000E+00
  8.00000000E-01  8.00000000E-01  1.50000000E+00  8.00000000E-01  8.00000000E-01
  1.50000000E+00  8.00000000E-01  8.00000000E-01  1.50000000E+00  8.00000000E-01
  8.00000000E-01  1.50000000E+00  8.00000000E-01  8.00000000E-01  1.50000000E+00
  8.00000000E-01  8.00000000E-01  1.50000000E+00  8.00000000E-01  8.00000000E-01
  1.50000000E+00  8.00000000E-01  8.00000000E-01  1.50000000E+00  8.00000000E-01
  8.00000000E-01  1.50000000E+00  8.00000000E-01  8.00000000E-01  1.50000000E+00
  8.00000000E-01  8.00000000E-01  1.50000000E+00  8.00000000E-01  8.00000000E-01
  1.50000000E+00  8.00000000E-01  8.00000000E-01  1.50000000E+00  8.00000000E-01
  8.00000000E-01  1.50000000E+00  8.00000000E-01  8.00000000E-01  1.50000000E+00
  8.00000000E-01  8.00000000E-01  1.50000000E+00  8.00000000E-01  8.00000000E-01
  1.50000000E+00  8.00000000E-01  8.00000000E-01  1.50000000E+00  8.00000000E-01
  8.00000000E-01  1.50000000E+00  8.00000000E-01  8.00000000E-01  1.50000000E+00
  8.00000000E-01  8.00000000E-01  1.50000000E+00  8.00000000E-01  8.00000000E-01
  1.50000000E+00  8.00000000E-01  8.00000000E-01  1.50000000E+00  8.00000000E-01
  8.00000000E-01  1.50000000E+00  8.00000000E-01  8.00000000E-01  1.50000000E+00
  8.00000000E-01  8.00000000E-01  1.50000000E+00  8.00000000E-01  8.00000000E-01
  1.50000000E+00  8.00000000E-01  8.00000000E-01  1.50000000E+00  8.00000000E-01
  8.00000000E-01  1.50000000E+00  8.00000000E-01  8.00000000E-01  1.50000000E+00
  8.00000000E-01  8.00000000E-01  1.50000000E+00  8.00000000E-01  8.00000000E-01
  1.50000000E+00  8.00000000E-01  8.00000000E-01  1.50000000E+00  8.00000000E-01
  8.00000000E-01  1.50000000E+00  8.00000000E-01  8.00000000E-01  1.50000000E+00
  8.00000000E-01  8.00000000E-01  1.50000000E+00  8.00000000E-01  8.00000000E-01
  1.50000000E+00  8.00000000E-01  8.00000000E-01  1.50000000E+00  8.00000000E-01
  8.00000000E-01  1.50000000E+00  8.00000000E-01  8.00000000E-01  1.50000000E+00
  8.00000000E-01  8.00000000E-01  1.50000000E+00  8.00000000E-01  8.00000000E-01
  1.50000000E+00  8.00000000E-01  8.00000000E-01  1.50000000E+00  8.00000000E-01
  8.00000000E-01  1.50000000E+00  8.00000000E-01  8.00000000E-01  1.50000000E+00
  8.00000000E-01  8.00000000E-01  1.50000000E+00  8.00000000E-01  8.00000000E-01
  1.50000000E+00  8.00000000E-01  8.00000000E-01  1.50000000E+00  8.00000000E-01
  8.00000000E-01  1.50000000E+00  8.00000000E-01  8.00000000E-01  1.50000000E+00
  8.00000000E-01  8.00000000E-01  1.50000000E+00  8.00000000E-01  8.00000000E-01
  1.50000000E+00  8.00000000E-01  8.00000000E-01  1.50000000E+00  8.00000000E-01
  8.00000000E-01  1.50000000E+00  8.00000000E-01  8.00000000E-01  1.50000000E+00
  8.00000000E-01  8.00000000E-01  1.50000000E+00  8.00000000E-01  8.00000000E-01
  1.50000000E+00  8.00000000E-01  8.00000000E-01  1.50000000E+00  8.00000000E-01
  8.00000000E-01  1.50000000E+00  8.00000000E-01  8.00000000E-01  1.50000000E+00
  8.00000000E-01  8.00000000E-01  1.50000000E+00  8.00000000E-01  8.00000000E-01
  1.50000000E+00  8.00000000E-01  8.00000000E-01  1.50000000E+00  8.00000000E-01
  8.00000000E-01  1.50000000E+00  8.00000000E-01  8.00000000E-01  1.50000000E+00
  8.00000000E-01  8.00000000E-01  1.50000000E+00  8.00000000E-01  8.00000000E-01
  1.50000000E+00  8.00000000E-01  8.00000000E-01  1.50000000E+00  8.00000000E-01
  8.00000000E-01  1.50000000E+00  8.00000000E-01  8.00000000E-01  1.50000000E+00
  8.00000000E-01  8.00000000E-01  1.50000000E+00  8.00000000E-01  8.00000000E-01
  1.50000000E+00  8.00000000E-01  8.00000000E-01  1.50000000E+00  8.00000000E-01
  8.00000000E-01  1.50000000E+00  8.00000000E-01  8.00000000E-01  1.50000000E+00
  8.00000000E-01  8.00000000E-01  1.50000000E+00  8.00000000E-01  8.00000000E-01
  1.50000000E+00  8.00000000E-01  8.00000000E-01  1.50000000E+00  8.00000000E-01
  8.00000000E-01  1.50000000E+00  8.00000000E-01  8.00000000E-01  1.50000000E+00
  8.00000000E-01  8.00000000E-01  1.50000000E+00  8.00000000E-01  8.00000000E-01
  1.50000000E+00  8.00000000E-01  8.00000000E-01  1.50000000E+00  8.00000000E-01
  8.00000000E-01  1.50000000E+00  8.00000000E-01  8.00000000E-01  1.50000000E+00
  8.00000000E-01  8.00000000E-01  1.50000000E+00  8.00000000E-01  8.00000000E-01
  1.50000000E+00  8.00000000E-01  8.00000000E-01  1.50000000E+00  8.00000000E-01
  8.00000000E-01  1.50000000E+00  8.00000000E-01  8.00000000E-01  1.50000000E+00
  8.00000000E-01  8.00000000E-01  1.50000000E+00  8.00000000E-01  8.00000000E-01
  1.50000000E+00  8.00000000E-01  8.00000000E-01  1.50000000E+00  8.00000000E-01
  8.00000000E-01  1.50000000E+00  8.00000000E-01  8.00000000E-01  1.50000000E+00
  8.00000000E-01  8.00000000E-01  1.50000000E+00  8.00000000E-01  8.00000000E-01
  1.50000000E+00  8.00000000E-01  8.00000000E-01  1.50000000E+00  8.00000000E-01
  8.00000000E-01  1.50000000E+00  8.00000000E-01  8.00000000E-01  1.50000000E+00
  8.00000000E-01  8.00000000E-01  1.50000000E+00  8.00000000E-01  8.00000000E-01
  1.50000000E+00  8.00000000E-01  8.00000000E-01  1.50000000E+00  8.00000000E-01
  8.00000000E-01  1.50000000E+00  8.00000000E-01  8.00000000E-01  1.50000000E+00
  8.00000000E-01  8.00000000E-01  1.50000000E+00  8.00000000E-01  8.00000000E-01
  1.50000000E+00  8.00000000E-01  8.00000000E-01  1.50000000E+00  8.00000000E-01
  8.00000000E-01  1.50000000E+00  8.00000000E-01  8.00000000E-01  1.50000000E+00
  8.00000000E-01  8.00000000E-01  1.50000000E+00  8.00000000E-01  8.00000000E-01
  1.50000000E+00  8.00000000E-01  8.00000000E-01  1.50000000E+00  8.00000000E-01
  8.00000000E-01  1.50000000E+00  8.00000000E-01  8.00000000E-01  1.50000000E+00
  8.00000000E-01  8.00000000E-01  1.50000000E+00  8.00000000E-01  8.00000000E-01
  1.50000000E+00  8.00000000E-01  8.00000000E-01  1.50000000E+00  8.00000000E-01
  8.00000000E-01  1.50000000E+00  8.00000000E-01  8.00000000E-01  1.50000000E+00
  8.00000000E-01  8.00000000E-01  1.50000000E+00  8.00000000E-01  8.00000000E-01
  1.50000000E+00  8.00000000E-01  8.00000000E-01  1.50000000E+00  8.00000000E-01
  8.00000000E-01  1.50000000E+00  8.00000000E-01  8.00000000E-01  1.50000000E+00
  8.00000000E-01  8.00000000E-01  1.50000000E+00  8.00000000E-01  8.00000000E-01
  1.50000000E+00  8.00000000E-01  8.00000000E-01  1.50000000E+00  8.00000000E-01
  8.00000000E-01  1.50000000E+00  8.00000000E-01  8.00000000E-01  1.50000000E+00
  8.00000000E-01  8.00000000E-01  1.50000000E+00  8.00000000E-01  8.00000000E-01
  1.50000000E+00  8.00000000E-01  8.00000000E-01  1.50000000E+00  8.00000000E-01
  8.00000000E-01  1.50000000E+00  8.00000000E-01  8.00000000E-01  1.50000000E+00
  8.00000000E-01  8.00000000E-01  1.50000000E+00  8.00000000E-01  8.00000000E-01
  1.50000000E+00  8.00000000E-01  8.00000000E-01  1.50000000E+00  8.00000000E-01
  8.00000000E-01  1.50000000E+00  8.00000000E-01  8.00000000E-01  1.50000000E+00
  8.00000000E-01  8.00000000E-01  1.50000000E+00  8.00000000E-01  8.00000000E-01
  1.50000000E+00  8.00000000E-01  8.00000000E-01  1.50000000E+00  8.00000000E-01
  8.00000000E-01  1.50000000E+00  8.00000000E-01  8.00000000E-01  1.50000000E+00
  8.00000000E-01  8.00000000E-01  1.50000000E+00  8.00000000E-01  8.00000000E-01
  1.50000000E+00  8.00000000E-01  8.00000000E-01  1.50000000E+00  8.00000000E-01
  8.00000000E-01  1.50000000E+00  8.00000000E-01  8.00000000E-01  1.50000000E+00
  8.00000000E-01  8.00000000E-01  1.50000000E+00  8.00000000E-01  8.00000000E-01
  1.50000000E+00  8.00000000E-01  8.00000000E-01  1.50000000E+00  8.00000000E-01
  8.00000000E-01  1.50000000E+00  8.00000000E-01  8.00000000E-01  1.50000000E+00
  8.00000000E-01  8.00000000E-01  1.50000000E+00  8.00000000E-01  8.00000000E-01
  1.50000000E+00  8.00000000E-01  8.00000000E-01  1.50000000E+00  8.00000000E-01
  8.00000000E-01  1.50000000E+00  8.00000000E-01  8.00000000E-01  1.50000000E+00
  8.00000000E-01  8.00000000E-01  1.50000000E+00  8.00000000E-01  8.00000000E-01
  1.50000000E+00  8.00000000E-01  8.00000000E-01  1.50000000E+00  8.00000000E-01
  8.00000000E-01  1.50000000E+00  8.00000000E-01  8.00000000E-01  1.50000000E+00
  8.00000000E-01  8.00000000E-01  1.50000000E+00  8.00000000E-01  8.00000000E-01
  1.50000000E+00  8.00000000E-01  8.00000000E-01  1.50000000E+00  8.00000000E-01
  8.00000000E-01  1.50000000E+00  8.00000000E-01  8.00000000E-01  1.50000000E+00
  8.00000000E-01  8.00000000E-01  1.50000000E+00  8.00000000E-01  8.00000000E-01
  1.50000000E+00  8.00000000E-01  8.00000000E-01  1.50000000E+00  8.00000000E-01
  8.00000000E-01  1.50000000E+00  8.00000000E-01  8.00000000E-01  1.50000000E+00
  8.00000000E-01  8.00000000E-01  1.50000000E+00  8.00000000E-01  8.00000000E-01
  1.50000000E+00  8.00000000E-01  8.00000000E-01  1.50000000E+00  8.00000000E-01
  8.00000000E-01  1.50000000E+00  8.00000000E-01  8.00000000E-01  1.50000000E+00
  8.00000000E-01  8.00000000E-01  1.50000000E+00  8.00000000E-01  8.00000000E-01
  1.50000000E+00  8.00000000E-01  8.00000000E-01  1.50000000E+00  8.00000000E-01
  8.00000000E-01  1.50000000E+00  8.00000000E-01  8.00000000E-01  1.50000000E+00
  8.00000000E-01  8.00000000E-01  1.50000000E+00  8.00000000E-01  8.00000000E-01
  1.50000000E+00  8.00000000E-01  8.00000000E-01  1.50000000E+00  8.00000000E-01
  8.00000000E-01  1.50000000E+00  8.00000000E-01  8.00000000E-01  1.50000000E+00
  8.00000000E-01  8.00000000E-01  1.50000000E+00  8.00000000E-01  8.00000000E-01
  1.50000000E+00  8.00000000E-01  8.00000000E-01  1.50000000E+00  8.00000000E-01
  8.00000000E-01  1.50000000E+00  8.00000000E-01  8.00000000E-01  1.50000000E+00
  8.00000000E-01  8.00000000E-01  1.50000000E+00  8.00000000E-01  8.00000000E-01
  1.50000000E+00  8.00000000E-01  8.00000000E-01  1.50000000E+00  8.00000000E-01
  8.00000000E-01  1.50000000E+00  8.00000000E-01  8.00000000E-01  1.50000000E+00
  8.00000000E-01  8.00000000E-01  1.50000000E+00  8.00000000E-01  8.00000000E-01
  1.50000000E+00  8.00000000E-01  8.00000000E-01  1.50000000E+00  8.00000000E-01
  8.00000000E-01  1.50000000E+00  8.00000000E-01  8.00000000E-01  1.50000000E+00
  8.00000000E-01  8.00000000E-01  1.50000000E+00  8.00000000E-01  8.00000000E-01
  1.50000000E+00  8.00000000E-01  8.00000000E-01  1.50000000E+00  8.00000000E-01
  8.00000000E-01  1.50000000E+00  8.00000000E-01  8.00000000E-01  1.50000000E+00
  8.00000000E-01  8.00000000E-01  1.50000000E+00  8.00000000E-01  8.00000000E-01
  1.50000000E+00  8.00000000E-01  8.00000000E-01  1.50000000E+00  8.00000000E-01
  8.00000000E-01  1.50000000E+00  8.00000000E-01  8.00000000E-01  1.50000000E+00
  8.00000000E-01  8.00000000E-01  1.50000000E+00  8.00000000E-01  8.00000000E-01
  1.50000000E+00  8.00000000E-01  8.00000000E-01  1.50000000E+00  8.00000000E-01
  8.00000000E-01  1.50000000E+00  8.00000000E-01  8.00000000E-01  1.50000000E+00
  8.00000000E-01  8.00000000E-01  1.50000000E+00  8.00000000E-01  8.00000000E-01
  1.50000000E+00  8.00000000E-01  8.00000000E-01  1.50000000E+00  8.00000000E-01
  8.00000000E-01  1.50000000E+00  8.00000000E-01  8.00000000E-01  1.50000000E+00
  8.00000000E-01  8.00000000E-01  1.50000000E+00  8.00000000E-01  8.00000000E-01
  1.50000000E+00  8.00000000E-01  8.00000000E-01  1.50000000E+00  8.00000000E-01
  8.00000000E-01  1.50000000E+00  8.00000000E-01  8.00000000E-01  1.50000000E+00
  8.00000000E-01  8.00000000E-01  1.50000000E+00  8.00000000E-01  8.00000000E-01
  1.50000000E+00  8.00000000E-01  8.00000000E-01  1.50000000E+00  8.00000000E-01
  8.00000000E-01  1.50000000E+00  8.00000000E-01  8.00000000E-01  1.50000000E+00
  8.00000000E-01  8.00000000E-01  1.50000000E+00  8.00000000E-01  8.00000000E-01
  1.50000000E+00  8.00000000E-01  8.00000000E-01  1.50000000E+00  8.00000000E-01
  8.00000000E-01  1.50000000E+00  8.00000000E-01  8.00000000E-01  1.50000000E+00
  8.00000000E-01  8.00000000E-01  1.50000000E+00  8.00000000E-01  8.00000000E-01
  1.50000000E+00  8.00000000E-01  8.00000000E-01  1.50000000E+00  8.00000000E-01
  8.00000000E-01  1.50000000E+00  8.00000000E-01  8.00000000E-01  1.50000000E+00
  8.00000000E-01  8.00000000E-01  1.50000000E+00  8.00000000E-01  8.00000000E-01
  1.50000000E+00  8.00000000E-01  8.00000000E-01  1.50000000E+00  8.00000000E-01
  8.00000000E-01  1.50000000E+00  8.00000000E-01  8.00000000E-01  1.50000000E+00
  8.00000000E-01  8.00000000E-01  1.50000000E+00  8.00000000E-01  8.00000000E-01
  1.50000000E+00  8.00000000E-01  8.00000000E-01  1.50000000E+00  8.00000000E-01
  8.00000000E-01  1.50000000E+00  8.00000000E-01  8.00000000E-01  1.50000000E+00
  8.00000000E-01  8.00000000E-01  1.50000000E+00  8.00000000E-01  8.00000000E-01
  1.50000000E+00  8.00000000E-01  8.00000000E-01  1.50000000E+00  8.00000000E-01
  8.00000000E-01  1.50000000E+00  8.00000000E-01  8.00000000E-01  1.50000000E+00
  8.00000000E-01  8.00000000E-01  1.50000000E+00  8.00000000E-01  8.00000000E-01
  1.50000000E+00  8.00000000E-01  8.00000000E-01  1.50000000E+00  8.00000000E-01
  8.00000000E-01  1.50000000E+00  8.00000000E-01  8.00000000E-01  1.50000000E+00
  8.00000000E-01  8.00000000E-01  1.50000000E+00  8.00000000E-01  8.00000000E-01
  1.50000000E+00  8.00000000E-01  8.00000000E-01  1.50000000E+00  8.00000000E-01
  8.00000000E-01  1.50000000E+00  8.00000000E-01  8.00000000E-01  1.50000000E+00
  8.00000000E-01  8.00000000E-01  1.50000000E+00  8.00000000E-01  8.00000000E-01
  1.50000000E+00  8.00000000E-01  8.00000000E-01  1.50000000E+00  8.00000000E-01
  8.00000000E-01  1.50000000E+00  8.00000000E-01  8.00000000E-01  1.50000000E+00
  8.00000000E-01  8.00000000E-01  1.50000000E+00  8.00000000E-01  8.00000000E-01
  1.50000000E+00  8.00000000E-01  8.00000000E-01  1.50000000E+00  8.00000000E-01
  8.00000000E-01  1.50000000E+00  8.00000000E-01  8.00000000E-01  1.50000000E+00
  8.00000000E-01  8.00000000E-01  1.50000000E+00  8.00000000E-01  8.00000000E-01
  1.50000000E+00  8.00000000E-01  8.00000000E-01  1.50000000E+00  8.00000000E-01
  8.00000000E-01  1.50000000E+00  8.00000000E-01  8.00000000E-01  1.50000000E+00
  8.00000000E-01  8.00000000E-01  1.50000000E+00  8.00000000E-01  8.00000000E-01
  1.50000000E+00  8.00000000E-01  8.00000000E-01  1.50000000E+00  8.00000000E-01
  8.00000000E-01  1.50000000E+00  8.00000000E-01  8.00000000E-01  1.50000000E+00
  8.00000000E-01  8.00000000E-01  1.50000000E+00  8.00000000E-01  8.00000000E-01
  1.50000000E+00  8.00000000E-01  8.00000000E-01  1.50000000E+00  8.00000000E-01
  8.00000000E-01  1.50000000E+00  8.00000000E-01  8.00000000E-01  1.50000000E+00
  8.00000000E-01  8.00000000E-01  1.50000000E+00  8.00000000E-01  8.00000000E-01
  1.50000000E+00  8.00000000E-01  8.00000000E-01  1.50000000E+00  8.00000000E-01
  8.00000000E-01  1.50000000E+00  8.00000000E-01  8.00000000E-01  1.50000000E+00
  8.00000000E-01  8.00000000E-01  1.50000000E+00  8.00000000E-01  8.00000000E-01
  1.50000000E+00  8.00000000E-01  8.00000000E-01  1.50000000E+00  8.00000000E-01
  8.00000000E-01  1.50000000E+00  8.00000000E-01  8.00000000E-01  1.50000000E+00
  8.00000000E-01  8.00000000E-01  1.50000000E+00  8.00000000E-01  8.00000000E-01
  1.50000000E+00  8.00000000E-01  8.00000000E-01  1.50000000E+00  8.00000000E-01
  8.00000000E-01  1.50000000E+00  8.00000000E-01  8.00000000E-01  1.50000000E+00
  8.00000000E-01  8.00000000E-01  1.50000000E+00  8.00000000E-01  8.00000000E-01
  1.50000000E+00  8.00000000E-01  8.00000000E-01  1.50000000E+00  8.00000000E-01
  8.00000000E-01  1.50000000E+00  8.00000000E-01  8.00000000E-01  1.50000000E+00
  8.00000000E-01  8.00000000E-01  1.50000000E+00  8.00000000E-01  8.00000000E-01
  1.50000000E+00  8.00000000E-01  8.00000000E-01  1.50000000E+00  8.00000000E-01
  8.00000000E-01  1.50000000E+00  8.00000000E-01  8.00000000E-01  1.50000000E+00
  8.00000000E-01  8.00000000E-01  1.50000000E+00  8.00000000E-01  8.00000000E-01
  1.50000000E+00  8.00000000E-01  8.00000000E-01  1.50000000E+00  8.00000000E-01
  8.00000000E-01  1.50000000E+00  8.00000000E-01  8.00000000E-01  1.50000000E+00
  8.00000000E-01  8.00000000E-01  1.50000000E+00  8.00000000E-01  8.00000000E-01
  1.50000000E+00  8.00000000E-01  8.00000000E-01  1.50000000E+00  8.00000000E-01
  8.00000000E-01  1.50000000E+00  8.00000000E-01  8.00000000E-01  1.50000000E+00
  8.00000000E-01  8.00000000E-01  1.50000000E+00  8.00000000E-01  8.00000000E-01
  1.50000000E+00  8.00000000E-01  8.00000000E-01  1.50000000E+00  8.00000000E-01
  8.00000000E-01  1.50000000E+00  8.00000000E-01  8.00000000E-01  1.50000000E+00
  8.00000000E-01  8.00000000E-01  1.50000000E+00  8.00000000E-01  8.00000000E-01
  1.50000000E+00  8.00000000E-01  8.00000000E-01  1.50000000E+00  8.00000000E-01
  8.00000000E-01  1.50000000E+00  8.00000000E-01  8.00000000E-01  1.50000000E+00
  8.00000000E-01  8.00000000E-01  1.50000000E+00  8.00000000E-01  8.00000000E-01
  1.50000000E+00  8.00000000E-01  8.00000000E-01  1.50000000E+00  8.00000000E-01
  8.00000000E-01  1.50000000E+00  8.00000000E-01  8.00000000E-01  1.50000000E+00
  8.00000000E-01  8.00000000E-01  1.50000000E+00  8.00000000E-01  8.00000000E-01
  1.50000000E+00  8.00000000E-01  8.00000000E-01  1.50000000E+00  8.00000000E-01
  8.00000000E-01  1.50000000E+00  8.00000000E-01  8.00000000E-01  1.50000000E+00
  8.00000000E-01  8.00000000E-01  1.50000000E+00  8.00000000E-01  8.00000000E-01
  1.50000000E+00  8.00000000E-01  8.00000000E-01  1.50000000E+00  8.00000000E-01
  8.00000000E-01  1.50000000E+00  8.00000000E-01  8.00000000E-01  1.50000000E+00
  8.00000000E-01  8.00000000E-01  1.50000000E+00  8.00000000E-01  8.00000000E-01
  1.50000000E+00  8.00000000E-01  8.00000000E-01  1.50000000E+00  8.00000000E-01
  8.00000000E-01  1.50000000E+00  8.00000000E-01  8.00000000E-01  1.50000000E+00
  8.00000000E-01  8.00000000E-01  1.50000000E+00  8.00000000E-01  8.00000000E-01
  1.50000000E+00  8.00000000E-01  8.00000000E-01  1.50000000E+00  8.00000000E-01
  8.00000000E-01  1.50000000E+00  8.00000000E-01  8.00000000E-01  1.50000000E+00
  8.00000000E-01  8.00000000E-01  1.50000000E+00  8.00000000E-01  8.00000000E-01
  1.50000000E+00  8.00000000E-01  8.00000000E-01  1.50000000E+00  8.00000000E-01
  8.00000000E-01  1.50000000E+00  8.00000000E-01  8.00000000E-01  1.50000000E+00
  8.00000000E-01  8.00000000E-01  1.50000000E+00  8.00000000E-01  8.00000000E-01
  1.50000000E+00  8.00000000E-01  8.00000000E-01  1.50000000E+00  8.00000000E-01
  8.00000000E-01  1.50000000E+00  8.00000000E-01  8.00000000E-01  1.50000000E+00
  8.00000000E-01  8.00000000E-01  1.50000000E+00  8.00000000E-01  8.00000000E-01
  1.50000000E+00  8.00000000E-01  8.00000000E-01  1.50000000E+00  8.00000000E-01
  8.00000000E-01  1.50000000E+00  8.00000000E-01  8.00000000E-01  1.50000000E+00
  8.00000000E-01  8.00000000E-01  1.50000000E+00  8.00000000E-01  8.00000000E-01
  1.50000000E+00  8.00000000E-01  8.00000000E-01  1.50000000E+00  8.00000000E-01
  8.00000000E-01  1.50000000E+00  8.00000000E-01  8.00000000E-01  1.50000000E+00
  8.00000000E-01  8.00000000E-01  1.50000000E+00  8.00000000E-01  8.00000000E-01
  1.50000000E+00  8.00000000E-01  8.00000000E-01  1.50000000E+00  8.00000000E-01
  8.00000000E-01  1.50000000E+00  8.00000000E-01  8.00000000E-01  1.50000000E+00
  8.00000000E-01  8.00000000E-01  1.50000000E+00  8.00000000E-01  8.00000000E-01
  1.50000000E+00  8.00000000E-01  8.00000000E-01  1.50000000E+00  8.00000000E-01
  8.00000000E-01  1.50000000E+00  8.00000000E-01  8.00000000E-01  1.50000000E+00
  8.00000000E-01  8.00000000E-01  1.50000000E+00  8.00000000E-01  8.00000000E-01
  1.50000000E+00  8.00000000E-01  8.00000000E-01  1.50000000E+00  8.00000000E-01
  8.00000000E-01  1.50000000E+00  8.00000000E-01  8.00000000E-01  1.50000000E+00
  8.00000000E-01  8.00000000E-01  1.50000000E+00  8.00000000E-01  8.00000000E-01
  1.50000000E+00  8.00000000E-01  8.00000000E-01  1.50000000E+00  8.00000000E-01
  8.00000000E-01  1.50000000E+00  8.00000000E-01  8.00000000E-01  1.50000000E+00
  8.00000000E-01  8.00000000E-01  1.50000000E+00  8.00000000E-01  8.00000000E-01
  1.50000000E+00  8.00000000E-01  8.00000000E-01  1.50000000E+00  8.00000000E-01
  8.00000000E-01  1.50000000E+00  8.00000000E-01  8.00000000E-01  1.50000000E+00
  8.00000000E-01  8.00000000E-01  1.50000000E+00  8.00000000E-01  8.00000000E-01
  1.50000000E+00  8.00000000E-01  8.00000000E-01  1.50000000E+00  8.00000000E-01
  8.00000000E-01  1.50000000E+00  8.00000000E-01  8.00000000E-01  1.50000000E+00
  8.00000000E-01  8.00000000E-01  1.50000000E+00  8.00000000E-01  8.00000000E-01
  1.50000000E+00  8.00000000E-01  8.00000000E-01  1.50000000E+00  8.00000000E-01
  8.00000000E-01  1.50000000E+00  8.00000000E-01  8.00000000E-01  1.50000000E+00
  8.00000000E-01  8.00000000E-01  1.50000000E+00  8.00000000E-01  8.00000000E-01
  1.50000000E+00  8.00000000E-01  8.00000000E-01  1.50000000E+00  8.00000000E-01
  8.00000000E-01  1.50000000E+00  8.00000000E-01  8.00000000E-01  1.50000000E+00
  8.00000000E-01  8.00000000E-01  1.50000000E+00  8.00000000E-01  8.00000000E-01
  1.50000000E+00  8.00000000E-01  8.00000000E-01  1.50000000E+00  8.00000000E-01
  8.00000000E-01  1.50000000E+00  8.00000000E-01  8.00000000E-01  1.50000000E+00
  8.00000000E-01  8.00000000E-01  1.50000000E+00  8.00000000E-01  8.00000000E-01
  1.50000000E+00  8.00000000E-01  8.00000000E-01  1.50000000E+00  8.00000000E-01
  8.00000000E-01  1.50000000E+00  8.00000000E-01  8.00000000E-01  1.50000000E+00
  8.00000000E-01  8.00000000E-01  1.50000000E+00  8.00000000E-01  8.00000000E-01
  1.50000000E+00  8.00000000E-01  8.00000000E-01  1.50000000E+00  8.00000000E-01
  8.00000000E-01  1.50000000E+00  8.00000000E-01  8.00000000E-01  1.50000000E+00
  8.00000000E-01  8.00000000E-01  1.50000000E+00  8.00000000E-01  8.00000000E-01
  1.50000000E+00  8.00000000E-01  8.00000000E-01  1.50000000E+00  8.00000000E-01
  8.00000000E-01  1.50000000E+00  8.00000000E-01  8.00000000E-01  1.50000000E+00
  8.00000000E-01  8.00000000E-01  1.50000000E+00  8.00000000E-01  8.00000000E-01
  1.50000000E+00  8.00000000E-01  8.00000000E-01  1.50000000E+00  8.00000000E-01
  8.00000000E-01  1.50000000E+00  8.00000000E-01  8.00000000E-01  1.50000000E+00
  8.00000000E-01  8.00000000E-01  1.50000000E+00  8.00000000E-01  8.00000000E-01
  1.50000000E+00  8.00000000E-01  8.00000000E-01  1.50000000E+00  8.00000000E-01
  8.00000000E-01  1.50000000E+00  8.00000000E-01  8.00000000E-01  1.50000000E+00
  8.00000000E-01  8.00000000E-01  1.50000000E+00  8.00000000E-01  8.00000000E-01
  1.50000000E+00  8.00000000E-01  8.00000000E-01  1.50000000E+00  8.00000000E-01
  8.00000000E-01  1.50000000E+00  8.00000000E-01  8.00000000E-01  1.50000000E+00
  8.00000000E-01  8.00000000E-01  1.50000000E+00  8.00000000E-01  8.00000000E-01
  1.50000000E+00  8.00000000E-01  8.00000000E-01  1.50000000E+00  8.00000000E-01
  8.00000000E-01  1.50000000E+00  8.00000000E-01  8.00000000E-01  1.50000000E+00
  8.00000000E-01  8.00000000E-01  1.50000000E+00  8.00000000E-01  8.00000000E-01
  1.50000000E+00  8.00000000E-01  8.00000000E-01  1.50000000E+00  8.00000000E-01
  8.00000000E-01  1.50000000E+00  8.00000000E-01  8.00000000E-01  1.50000000E+00
  8.00000000E-01  8.00000000E-01  1.50000000E+00  8.00000000E-01  8.00000000E-01
  1.50000000E+00  8.00000000E-01  8.00000000E-01  1.50000000E+00  8.00000000E-01
  8.00000000E-01  1.50000000E+00  8.00000000E-01  8.00000000E-01  1.50000000E+00
  8.00000000E-01  8.00000000E-01  1.50000000E+00  8.00000000E-01  8.00000000E-01
  1.50000000E+00  8.00000000E-01  8.00000000E-01  1.50000000E+00  8.00000000E-01
  8.00000000E-01  1.50000000E+00  8.00000000E-01  8.00000000E-01  1.50000000E+00
  8.00000000E-01  8.00000000E-01  1.50000000E+00  8.00000000E-01  8.00000000E-01
  1.50000000E+00  8.00000000E-01  8.00000000E-01  1.50000000E+00  8.00000000E-01
  8.00000000E-01  1.50000000E+00  8.00000000E-01  8.00000000E-01  1.50000000E+00
  8.00000000E-01  8.00000000E-01  1.50000000E+00  8.00000000E-01  8.00000000E-01
  1.50000000E+00  8.00000000E-01  8.00000000E-01  1.50000000E+00  8.00000000E-01
  8.00000000E-01  1.50000000E+00  8.00000000E-01  8.00000000E-01  1.50000000E+00
  8.00000000E-01  8.00000000E-01  1.50000000E+00  8.00000000E-01  8.00000000E-01
  1.50000000E+00  8.00000000E-01  8.00000000E-01  1.50000000E+00  8.00000000E-01
  8.00000000E-01  1.50000000E+00  8.00000000E-01  8.00000000E-01  1.50000000E+00
  8.00000000E-01  8.00000000E-01  1.50000000E+00  8.00000000E-01  8.00000000E-01
  1.50000000E+00  8.00000000E-01  8.00000000E-01  1.50000000E+00  8.00000000E-01
  8.00000000E-01  1.50000000E+00  8.00000000E-01  8.00000000E-01  1.50000000E+00
  8.00000000E-01  8.00000000E-01  1.50000000E+00  8.00000000E-01  8.00000000E-01
  1.50000000E+00  8.00000000E-01  8.00000000E-01  1.50000000E+00  8.00000000E-01
  8.00000000E-01  1.50000000E+00  8.00000000E-01  8.00000000E-01  1.50000000E+00
  8.00000000E-01  8.00000000E-01  1.50000000E+00  8.00000000E-01  8.00000000E-01
  1.50000000E+00  8.00000000E-01  8.00000000E-01  1.50000000E+00  8.00000000E-01
  8.00000000E-01  1.50000000E+00  8.00000000E-01  8.00000000E-01  1.50000000E+00
  8.00000000E-01  8.00000000E-01  1.50000000E+00  8.00000000E-01  8.00000000E-01
  1.50000000E+00  8.00000000E-01  8.00000000E-01  1.50000000E+00  8.00000000E-01
  8.00000000E-01  1.50000000E+00  8.00000000E-01  8.00000000E-01  1.50000000E+00
  8.00000000E-01  8.00000000E-01  1.50000000E+00  8.00000000E-01  8.00000000E-01
  1.50000000E+00  8.00000000E-01  8.00000000E-01  1.50000000E+00  8.00000000E-01
  8.00000000E-01  1.50000000E+00  8.00000000E-01  8.00000000E-01  1.50000000E+00
  8.00000000E-01  8.00000000E-01  1.50000000E+00  8.00000000E-01  8.00000000E-01
  1.50000000E+00  8.00000000E-01  8.00000000E-01  1.50000000E+00  8.00000000E-01
  8.00000000E-01  1.50000000E+00  8.00000000E-01  8.00000000E-01  1.50000000E+00
  8.00000000E-01  8.00000000E-01  1.50000000E+00  8.00000000E-01  8.00000000E-01
  1.50000000E+00  8.00000000E-01  8.00000000E-01  1.50000000E+00  8.00000000E-01
  8.00000000E-01  1.50000000E+00  8.00000000E-01  8.00000000E-01  1.50000000E+00
  8.00000000E-01  8.00000000E-01  1.50000000E+00  8.00000000E-01  8.00000000E-01
  1.50000000E+00  8.00000000E-01  8.00000000E-01  1.50000000E+00  8.00000000E-01
  8.00000000E-01  1.50000000E+00  8.00000000E-01  8.00000000E-01  1.50000000E+00
  8.00000000E-01  8.00000000E-01  1.50000000E+00  8.00000000E-01  8.00000000E-01
  1.50000000E+00  8.00000000E-01  8.00000000E-01  1.50000000E+00  8.00000000E-01
  8.00000000E-01  1.50000000E+00  8.00000000E-01  8.00000000E-01  1.50000000E+00
  8.00000000E-01  8.00000000E-01  1.50000000E+00  8.00000000E-01  8.00000000E-01
  1.50000000E+00  8.00000000E-01  8.00000000E-01  1.50000000E+00  8.00000000E-01
  8.00000000E-01  1.50000000E+00  8.00000000E-01  8.00000000E-01  1.50000000E+00
  8.00000000E-01  8.00000000E-01  1.50000000E+00  8.00000000E-01  8.00000000E-01
  1.50000000E+00  8.00000000E-01  8.00000000E-01  1.50000000E+00  8.00000000E-01
  8.00000000E-01  1.50000000E+00  8.00000000E-01  8.00000000E-01  1.50000000E+00
  8.00000000E-01  8.00000000E-01  1.50000000E+00  8.00000000E-01  8.00000000E-01
  1.50000000E+00  8.00000000E-01  8.00000000E-01  1.50000000E+00  8.00000000E-01
  8.00000000E-01  1.50000000E+00  8.00000000E-01  8.00000000E-01  1.50000000E+00
  8.00000000E-01  8.00000000E-01  1.50000000E+00  8.00000000E-01  8.00000000E-01
  1.50000000E+00  8.00000000E-01  8.00000000E-01  1.50000000E+00  8.00000000E-01
  8.00000000E-01  1.50000000E+00  8.00000000E-01  8.00000000E-01  1.50000000E+00
  8.00000000E-01  8.00000000E-01  1.50000000E+00  8.00000000E-01  8.00000000E-01
  1.50000000E+00  8.00000000E-01  8.00000000E-01  1.50000000E+00  8.00000000E-01
  8.00000000E-01  1.50000000E+00  8.00000000E-01  8.00000000E-01  1.50000000E+00
  8.00000000E-01  8.00000000E-01  1.50000000E+00  8.00000000E-01  8.00000000E-01
  1.50000000E+00  8.00000000E-01  8.00000000E-01  1.50000000E+00  8.00000000E-01
  8.00000000E-01  1.50000000E+00  8.00000000E-01  8.00000000E-01  1.50000000E+00
  8.00000000E-01  8.00000000E-01  1.50000000E+00  8.00000000E-01  8.00000000E-01
  1.50000000E+00  8.00000000E-01  8.00000000E-01  1.50000000E+00  8.00000000E-01
  8.00000000E-01  1.50000000E+00  8.00000000E-01  8.00000000E-01  1.50000000E+00
  8.00000000E-01  8.00000000E-01  1.50000000E+00  8.00000000E-01  8.00000000E-01
  1.50000000E+00  8.00000000E-01  8.00000000E-01  1.50000000E+00  8.00000000E-01
  8.00000000E-01  1.50000000E+00  8.00000000E-01  8.00000000E-01  1.50000000E+00
  8.00000000E-01  8.00000000E-01  1.50000000E+00  8.00000000E-01  8.00000000E-01
  1.50000000E+00  8.00000000E-01  8.00000000E-01  1.50000000E+00  8.00000000E-01
  8.00000000E-01  1.50000000E+00  8.00000000E-01  8.00000000E-01  1.50000000E+00
  8.00000000E-01  8.00000000E-01  1.50000000E+00  8.00000000E-01  8.00000000E-01
  1.50000000E+00  8.00000000E-01  8.00000000E-01  1.50000000E+00  8.00000000E-01
  8.00000000E-01  1.50000000E+00  8.00000000E-01  8.00000000E-01  1.50000000E+00
  8.00000000E-01  8.00000000E-01  1.50000000E+00  8.00000000E-01  8.00000000E-01
  1.50000000E+00  8.00000000E-01  8.00000000E-01  1.50000000E+00  8.00000000E-01
  8.00000000E-01  1.50000000E+00  8.00000000E-01  8.00000000E-01  1.50000000E+00
  8.00000000E-01  8.00000000E-01  1.50000000E+00  8.00000000E-01  8.00000000E-01
  1.50000000E+00  8.00000000E-01  8.00000000E-01  1.50000000E+00  8.00000000E-01
  8.00000000E-01  1.50000000E+00  8.00000000E-01  8.00000000E-01  1.50000000E+00
  8.00000000E-01  8.00000000E-01  1.50000000E+00  8.00000000E-01  8.00000000E-01
  1.50000000E+00  8.00000000E-01  8.00000000E-01  1.50000000E+00  8.00000000E-01
  8.00000000E-01  1.50000000E+00  8.00000000E-01  8.00000000E-01  1.50000000E+00
  8.00000000E-01  8.00000000E-01  1.50000000E+00  8.00000000E-01  8.00000000E-01
  1.50000000E+00  8.00000000E-01  8.00000000E-01  1.50000000E+00  8.00000000E-01
  8.00000000E-01  1.50000000E+00  8.00000000E-01  8.00000000E-01  1.50000000E+00
  8.00000000E-01  8.00000000E-01  1.50000000E+00  8.00000000E-01  8.00000000E-01
  1.50000000E+00  8.00000000E-01  8.00000000E-01  1.50000000E+00  8.00000000E-01
  8.00000000E-01  1.50000000E+00  8.00000000E-01  8.00000000E-01  1.50000000E+00
  8.00000000E-01  8.00000000E-01  1.50000000E+00  8.00000000E-01  8.00000000E-01
  1.50000000E+00  8.00000000E-01  8.00000000E-01  1.50000000E+00  8.00000000E-01
  8.00000000E-01  1.50000000E+00  8.00000000E-01  8.00000000E-01  1.50000000E+00
  8.00000000E-01  8.00000000E-01  1.50000000E+00  8.00000000E-01  8.00000000E-01
  1.50000000E+00  8.00000000E-01  8.00000000E-01  1.50000000E+00  8.00000000E-01
  8.00000000E-01  1.50000000E+00  8.00000000E-01  8.00000000E-01  1.50000000E+00
  8.00000000E-01  8.00000000E-01  1.50000000E+00  8.00000000E-01  8.00000000E-01
  1.50000000E+00  8.00000000E-01  8.00000000E-01  1.50000000E+00  8.00000000E-01
  8.00000000E-01  1.50000000E+00  8.00000000E-01  8.00000000E-01  1.50000000E+00
  8.00000000E-01  8.00000000E-01  1.50000000E+00  8.00000000E-01  8.00000000E-01
  1.50000000E+00  8.00000000E-01  8.00000000E-01  1.50000000E+00  8.00000000E-01
  8.00000000E-01  1.50000000E+00  8.00000000E-01  8.00000000E-01  1.50000000E+00
  8.00000000E-01  8.00000000E-01  1.50000000E+00  8.00000000E-01  8.00000000E-01
  1.50000000E+00  8.00000000E-01  8.00000000E-01  1.50000000E+00  8.00000000E-01
  8.00000000E-01  1.50000000E+00  8.00000000E-01  8.00000000E-01  1.50000000E+00
  8.00000000E-01  8.00000000E-01  1.50000000E+00  8.00000000E-01  8.00000000E-01
  1.50000000E+00  8.00000000E-01  8.00000000E-01  1.50000000E+00  8.00000000E-01
  8.00000000E-01  1.50000000E+00  8.00000000E-01  8.00000000E-01  1.50000000E+00
  8.00000000E-01  8.00000000E-01  1.50000000E+00  8.00000000E-01  8.00000000E-01
  1.50000000E+00  8.00000000E-01  8.00000000E-01  1.50000000E+00  8.00000000E-01
  8.00000000E-01  1.50000000E+00  8.00000000E-01  8.00000000E-01  1.50000000E+00
  8.00000000E-01  8.00000000E-01  1.50000000E+00  8.00000000E-01  8.00000000E-01
  1.50000000E+00  8.00000000E-01  8.00000000E-01  1.50000000E+00  8.00000000E-01
  8.00000000E-01  1.50000000E+00  8.00000000E-01  8.00000000E-01  1.50000000E+00
  8.00000000E-01  8.00000000E-01  1.50000000E+00  8.00000000E-01  8.00000000E-01
  1.50000000E+00  8.00000000E-01  8.00000000E-01  1.50000000E+00  8.00000000E-01
  8.00000000E-01  1.50000000E+00  8.00000000E-01  8.00000000E-01  1.50000000E+00
  8.00000000E-01  8.00000000E-01  1.50000000E+00  8.00000000E-01  8.00000000E-01
  1.50000000E+00  8.00000000E-01  8.00000000E-01  1.50000000E+00  8.00000000E-01
  8.00000000E-01  1.50000000E+00  8.00000000E-01  8.00000000E-01  1.50000000E+00
  8.00000000E-01  8.00000000E-01  1.50000000E+00  8.00000000E-01  8.00000000E-01
  1.50000000E+00  8.00000000E-01  8.00000000E-01  1.50000000E+00  8.00000000E-01
  8.00000000E-01  1.50000000E+00  8.00000000E-01  8.00000000E-01  1.50000000E+00
  8.00000000E-01  8.00000000E-01  1.50000000E+00  8.00000000E-01  8.00000000E-01
  1.50000000E+00  8.00000000E-01  8.00000000E-01  1.50000000E+00  8.00000000E-01
  8.00000000E-01  1.50000000E+00  8.00000000E-01  8.00000000E-01  1.50000000E+00
  8.00000000E-01  8.00000000E-01  1.50000000E+00  8.00000000E-01  8.00000000E-01
  1.50000000E+00  8.00000000E-01  8.00000000E-01  1.50000000E+00  8.00000000E-01
  8.00000000E-01  1.50000000E+00  8.00000000E-01  8.00000000E-01  1.50000000E+00
  8.00000000E-01  8.00000000E-01  1.50000000E+00  8.00000000E-01  8.00000000E-01
  1.50000000E+00  8.00000000E-01  8.00000000E-01  1.50000000E+00  8.00000000E-01
  8.00000000E-01  1.50000000E+00  8.00000000E-01  8.00000000E-01  1.50000000E+00
  8.00000000E-01  8.00000000E-01  1.50000000E+00  8.00000000E-01  8.00000000E-01
  1.50000000E+00  8.00000000E-01  8.00000000E-01  1.50000000E+00  8.00000000E-01
  8.00000000E-01  1.50000000E+00  8.00000000E-01  8.00000000E-01  1.50000000E+00
  8.00000000E-01  8.00000000E-01  1.50000000E+00  8.00000000E-01  8.00000000E-01
  1.50000000E+00  8.00000000E-01  8.00000000E-01  1.50000000E+00  8.00000000E-01
  8.00000000E-01  1.50000000E+00  8.00000000E-01  8.00000000E-01  1.50000000E+00
  8.00000000E-01  8.00000000E-01  1.50000000E+00  8.00000000E-01  8.00000000E-01
  1.50000000E+00  8.00000000E-01  8.00000000E-01  1.50000000E+00  8.00000000E-01
  8.00000000E-01  1.50000000E+00  8.00000000E-01  8.00000000E-01  1.50000000E+00
  8.00000000E-01  8.00000000E-01  1.50000000E+00  8.00000000E-01  8.00000000E-01
  1.50000000E+00  8.00000000E-01  8.00000000E-01  1.50000000E+00  8.00000000E-01
  8.00000000E-01  1.50000000E+00  8.00000000E-01  8.00000000E-01  1.50000000E+00
  8.00000000E-01  8.00000000E-01  1.50000000E+00  8.00000000E-01  8.00000000E-01
  1.50000000E+00  8.00000000E-01  8.00000000E-01  1.50000000E+00  8.00000000E-01
  8.00000000E-01  1.50000000E+00  8.00000000E-01  8.00000000E-01  1.50000000E+00
  8.00000000E-01  8.00000000E-01  1.50000000E+00  8.00000000E-01  8.00000000E-01
  1.50000000E+00  8.00000000E-01  8.00000000E-01  1.50000000E+00  8.00000000E-01
  8.00000000E-01  1.50000000E+00  8.00000000E-01  8.00000000E-01  1.50000000E+00
  8.00000000E-01  8.00000000E-01  1.50000000E+00  8.00000000E-01  8.00000000E-01
  1.50000000E+00  8.00000000E-01  8.00000000E-01  1.50000000E+00  8.00000000E-01
  8.00000000E-01  1.50000000E+00  8.00000000E-01  8.00000000E-01  1.50000000E+00
  8.00000000E-01  8.00000000E-01  1.50000000E+00  8.00000000E-01  8.00000000E-01
  1.50000000E+00  8.00000000E-01  8.00000000E-01  1.50000000E+00  8.00000000E-01
  8.00000000E-01  1.50000000E+00  8.00000000E-01  8.00000000E-01  1.50000000E+00
  8.00000000E-01  8.00000000E-01  1.50000000E+00  8.00000000E-01  8.00000000E-01
  1.50000000E+00  8.00000000E-01  8.00000000E-01  1.50000000E+00  8.00000000E-01
  8.00000000E-01  1.50000000E+00  8.00000000E-01  8.00000000E-01  1.50000000E+00
  8.00000000E-01  8.00000000E-01  1.50000000E+00  8.00000000E-01  8.00000000E-01
  1.50000000E+00  8.00000000E-01  8.00000000E-01  1.50000000E+00  8.00000000E-01
  8.00000000E-01  1.50000000E+00  8.00000000E-01  8.00000000E-01  1.50000000E+00
  8.00000000E-01  8.00000000E-01  1.50000000E+00  8.00000000E-01  8.00000000E-01
  1.50000000E+00  8.00000000E-01  8.00000000E-01  1.50000000E+00  8.00000000E-01
  8.00000000E-01  1.50000000E+00  8.00000000E-01  8.00000000E-01  1.50000000E+00
  8.00000000E-01  8.00000000E-01  1.50000000E+00  8.00000000E-01  8.00000000E-01
  1.50000000E+00  8.00000000E-01  8.00000000E-01  1.50000000E+00  8.00000000E-01
  8.00000000E-01  1.50000000E+00  8.00000000E-01  8.00000000E-01  1.50000000E+00
  8.00000000E-01  8.00000000E-01  1.50000000E+00  8.00000000E-01  8.00000000E-01
  1.50000000E+00  8.00000000E-01  8.00000000E-01  1.50000000E+00  8.00000000E-01
  8.00000000E-01  1.50000000E+00  8.00000000E-01  8.00000000E-01  1.50000000E+00
  8.00000000E-01  8.00000000E-01  1.50000000E+00  8.00000000E-01  8.00000000E-01
  1.50000000E+00  8.00000000E-01  8.00000000E-01  1.50000000E+00  8.00000000E-01
  8.00000000E-01  1.50000000E+00  8.00000000E-01  8.00000000E-01  1.50000000E+00
  8.00000000E-01  8.00000000E-01  1.50000000E+00  8.00000000E-01  8.00000000E-01
  1.50000000E+00  8.00000000E-01  8.00000000E-01  1.50000000E+00  8.00000000E-01
  8.00000000E-01  1.50000000E+00  8.00000000E-01  8.00000000E-01  1.50000000E+00
  8.00000000E-01  8.00000000E-01  1.50000000E+00  8.00000000E-01  8.00000000E-01
  1.50000000E+00  8.00000000E-01  8.00000000E-01  1.50000000E+00  8.00000000E-01
  8.00000000E-01  1.50000000E+00  8.00000000E-01  8.00000000E-01  1.50000000E+00
  8.00000000E-01  8.00000000E-01  1.50000000E+00  8.00000000E-01  8.00000000E-01
  1.50000000E+00  8.00000000E-01  8.00000000E-01  1.50000000E+00  8.00000000E-01
  8.00000000E-01  1.50000000E+00  8.00000000E-01  8.00000000E-01  1.50000000E+00
  8.00000000E-01  8.00000000E-01  1.50000000E+00  8.00000000E-01  8.00000000E-01
  1.50000000E+00  8.00000000E-01  8.00000000E-01  1.50000000E+00  8.00000000E-01
  8.00000000E-01  1.50000000E+00  8.00000000E-01  8.00000000E-01  1.50000000E+00
  8.00000000E-01  8.00000000E-01  1.50000000E+00  8.00000000E-01  8.00000000E-01
  1.50000000E+00  8.00000000E-01  8.00000000E-01  1.50000000E+00  8.00000000E-01
  8.00000000E-01  1.50000000E+00  8.00000000E-01  8.00000000E-01  1.50000000E+00
  8.00000000E-01  8.00000000E-01  1.50000000E+00  8.00000000E-01  8.00000000E-01
  1.50000000E+00  8.00000000E-01  8.00000000E-01  1.50000000E+00  8.00000000E-01
  8.00000000E-01  1.50000000E+00  8.00000000E-01  8.00000000E-01  1.50000000E+00
  8.00000000E-01  8.00000000E-01  1.50000000E+00  8.00000000E-01  8.00000000E-01
  1.50000000E+00  8.00000000E-01  8.00000000E-01  1.50000000E+00  8.00000000E-01
  8.00000000E-01  1.50000000E+00  8.00000000E-01  8.00000000E-01  1.50000000E+00
  8.00000000E-01  8.00000000E-01  1.50000000E+00  8.00000000E-01  8.00000000E-01
  1.50000000E+00  8.00000000E-01  8.00000000E-01  1.50000000E+00  8.00000000E-01
  8.00000000E-01  1.50000000E+00  8.00000000E-01  8.00000000E-01  1.50000000E+00
  8.00000000E-01  8.00000000E-01  1.50000000E+00  8.00000000E-01  8.00000000E-01
  1.50000000E+00  8.00000000E-01  8.00000000E-01  1.50000000E+00  8.00000000E-01
  8.00000000E-01  1.50000000E+00  8.00000000E-01  8.00000000E-01  1.50000000E+00
  8.00000000E-01  8.00000000E-01  1.50000000E+00  8.00000000E-01  8.00000000E-01
  1.50000000E+00  8.00000000E-01  8.00000000E-01  1.50000000E+00  8.00000000E-01
  8.00000000E-01  1.50000000E+00  8.00000000E-01  8.00000000E-01  1.50000000E+00
  8.00000000E-01  8.00000000E-01  1.50000000E+00  8.00000000E-01  8.00000000E-01
  1.50000000E+00  8.00000000E-01  8.00000000E-01  1.50000000E+00  8.00000000E-01
  8.00000000E-01  1.50000000E+00  8.00000000E-01  8.00000000E-01  1.50000000E+00
  8.00000000E-01  8.00000000E-01  1.50000000E+00  8.00000000E-01  8.00000000E-01
  1.50000000E+00  8.00000000E-01  8.00000000E-01  1.50000000E+00  8.00000000E-01
  8.00000000E-01  1.50000000E+00  8.00000000E-01  8.00000000E-01  1.50000000E+00
  8.00000000E-01  8.00000000E-01  1.50000000E+00  8.00000000E-01  8.00000000E-01
  1.50000000E+00  8.00000000E-01  8.00000000E-01  1.50000000E+00  8.00000000E-01
  8.00000000E-01  1.50000000E+00  8.00000000E-01  8.00000000E-01  1.50000000E+00
  8.00000000E-01  8.00000000E-01  1.50000000E+00  8.00000000E-01  8.00000000E-01
  1.50000000E+00  8.00000000E-01  8.00000000E-01  1.50000000E+00  8.00000000E-01
  8.00000000E-01  1.50000000E+00  8.00000000E-01  8.00000000E-01  1.50000000E+00
  8.00000000E-01  8.00000000E-01  1.50000000E+00  8.00000000E-01  8.00000000E-01
  1.50000000E+00  8.00000000E-01  8.00000000E-01  1.50000000E+00  8.00000000E-01
  8.00000000E-01  1.50000000E+00  8.00000000E-01  8.00000000E-01  1.50000000E+00
  8.00000000E-01  8.00000000E-01  1.50000000E+00  8.00000000E-01  8.00000000E-01
  1.50000000E+00  8.00000000E-01  8.00000000E-01  1.50000000E+00  8.00000000E-01
  8.00000000E-01  1.50000000E+00  8.00000000E-01  8.00000000E-01  1.50000000E+00
  8.00000000E-01  8.00000000E-01  1.50000000E+00  8.00000000E-01  8.00000000E-01
  1.50000000E+00  8.00000000E-01  8.00000000E-01  1.50000000E+00  8.00000000E-01
  8.00000000E-01  1.50000000E+00  8.00000000E-01  8.00000000E-01  1.50000000E+00
  8.00000000E-01  8.00000000E-01  1.50000000E+00  8.00000000E-01  8.00000000E-01
  1.50000000E+00  8.00000000E-01  8.00000000E-01  1.50000000E+00  8.00000000E-01
  8.00000000E-01  1.50000000E+00  8.00000000E-01  8.00000000E-01  1.50000000E+00
  8.00000000E-01  8.00000000E-01  1.50000000E+00  8.00000000E-01  8.00000000E-01
  1.50000000E+00  8.00000000E-01  8.00000000E-01  1.50000000E+00  8.00000000E-01
  8.00000000E-01  1.50000000E+00  8.00000000E-01  8.00000000E-01  1.50000000E+00
  8.00000000E-01  8.00000000E-01  1.50000000E+00  8.00000000E-01  8.00000000E-01
  1.50000000E+00  8.00000000E-01  8.00000000E-01  1.50000000E+00  8.00000000E-01
  8.00000000E-01  1.50000000E+00  8.00000000E-01  8.00000000E-01  1.50000000E+00
  8.00000000E-01  8.00000000E-01  1.50000000E+00  8.00000000E-01  8.00000000E-01
  1.50000000E+00  8.00000000E-01  8.00000000E-01  1.50000000E+00  8.00000000E-01
  8.00000000E-01  1.50000000E+00  8.00000000E-01  8.00000000E-01  1.50000000E+00
  8.00000000E-01  8.00000000E-01  1.50000000E+00  8.00000000E-01  8.00000000E-01
  1.50000000E+00  8.00000000E-01  8.00000000E-01  1.50000000E+00  8.00000000E-01
  8.00000000E-01  1.50000000E+00  8.00000000E-01  8.00000000E-01  1.50000000E+00
  8.00000000E-01  8.00000000E-01  1.50000000E+00  8.00000000E-01  8.00000000E-01
  1.50000000E+00  8.00000000E-01  8.00000000E-01  1.50000000E+00  8.00000000E-01
  8.00000000E-01  1.50000000E+00  8.00000000E-01  8.00000000E-01  1.50000000E+00
  8.00000000E-01  8.00000000E-01  1.50000000E+00  8.00000000E-01  8.00000000E-01
  1.50000000E+00  8.00000000E-01  8.00000000E-01  1.50000000E+00  8.00000000E-01
  8.00000000E-01  1.50000000E+00  8.00000000E-01  8.00000000E-01  1.50000000E+00
  8.00000000E-01  8.00000000E-01  1.50000000E+00  8.00000000E-01  8.00000000E-01
  1.50000000E+00  8.00000000E-01  8.00000000E-01  1.50000000E+00  8.00000000E-01
  8.00000000E-01  1.50000000E+00  8.00000000E-01  8.00000000E-01  1.50000000E+00
  8.00000000E-01  8.00000000E-01  1.50000000E+00  8.00000000E-01  8.00000000E-01
  1.50000000E+00  8.00000000E-01  8.00000000E-01  1.50000000E+00  8.00000000E-01
  8.00000000E-01  1.50000000E+00  8.00000000E-01  8.00000000E-01  1.50000000E+00
  8.00000000E-01  8.00000000E-01  1.50000000E+00  8.00000000E-01  8.00000000E-01
  1.50000000E+00  8.00000000E-01  8.00000000E-01  1.50000000E+00  8.00000000E-01
  8.00000000E-01  1.50000000E+00  8.00000000E-01  8.00000000E-01  1.50000000E+00
  8.00000000E-01  8.00000000E-01  1.50000000E+00  8.00000000E-01  8.00000000E-01
  1.50000000E+00  8.00000000E-01  8.00000000E-01  1.50000000E+00  8.00000000E-01
  8.00000000E-01  1.50000000E+00  8.00000000E-01  8.00000000E-01  1.50000000E+00
  8.00000000E-01  8.00000000E-01  1.50000000E+00  8.00000000E-01  8.00000000E-01
  1.50000000E+00  8.00000000E-01  8.00000000E-01  1.50000000E+00  8.00000000E-01
  8.00000000E-01  1.50000000E+00  8.00000000E-01  8.00000000E-01  1.50000000E+00
  8.00000000E-01  8.00000000E-01  1.50000000E+00  8.00000000E-01  8.00000000E-01
  1.50000000E+00  8.00000000E-01  8.00000000E-01  1.50000000E+00  8.00000000E-01
  8.00000000E-01  1.50000000E+00  8.00000000E-01  8.00000000E-01  1.50000000E+00
  8.00000000E-01  8.00000000E-01  1.50000000E+00  8.00000000E-01  8.00000000E-01
  1.50000000E+00  8.00000000E-01  8.00000000E-01  1.50000000E+00  8.00000000E-01
  8.00000000E-01  1.50000000E+00  8.00000000E-01  8.00000000E-01  1.50000000E+00
  8.00000000E-01  8.00000000E-01  1.50000000E+00  8.00000000E-01  8.00000000E-01
  1.50000000E+00  8.00000000E-01  8.00000000E-01  1.50000000E+00  8.00000000E-01
  8.00000000E-01  1.50000000E+00  8.00000000E-01  8.00000000E-01  1.50000000E+00
  8.00000000E-01  8.00000000E-01  1.50000000E+00  8.00000000E-01  8.00000000E-01
  1.50000000E+00  8.00000000E-01  8.00000000E-01  1.50000000E+00  8.00000000E-01
  8.00000000E-01  1.50000000E+00  8.00000000E-01  8.00000000E-01  1.50000000E+00
  8.00000000E-01  8.00000000E-01  1.50000000E+00  8.00000000E-01  8.00000000E-01
  1.50000000E+00  8.00000000E-01  8.00000000E-01  1.50000000E+00  8.00000000E-01
  8.00000000E-01  1.50000000E+00  8.00000000E-01  8.00000000E-01  1.50000000E+00
  8.00000000E-01  8.00000000E-01  1.50000000E+00  8.00000000E-01  8.00000000E-01
  1.50000000E+00  8.00000000E-01  8.00000000E-01  1.50000000E+00  8.00000000E-01
  8.00000000E-01  1.50000000E+00  8.00000000E-01  8.00000000E-01  1.50000000E+00
  8.00000000E-01  8.00000000E-01  1.50000000E+00  8.00000000E-01  8.00000000E-01
  1.50000000E+00  8.00000000E-01  8.00000000E-01  1.50000000E+00  8.00000000E-01
  8.00000000E-01  1.50000000E+00  8.00000000E-01  8.00000000E-01  1.50000000E+00
  8.00000000E-01  8.00000000E-01  1.50000000E+00  8.00000000E-01  8.00000000E-01
  1.50000000E+00  8.00000000E-01  8.00000000E-01  1.50000000E+00  8.00000000E-01
  8.00000000E-01  1.50000000E+00  8.00000000E-01  8.00000000E-01  1.50000000E+00
  8.00000000E-01  8.00000000E-01  1.50000000E+00  8.00000000E-01  8.00000000E-01
  1.50000000E+00  8.00000000E-01  8.00000000E-01  1.50000000E+00  8.00000000E-01
  8.00000000E-01  1.50000000E+00  8.00000000E-01  8.00000000E-01  1.50000000E+00
  8.00000000E-01  8.00000000E-01  1.50000000E+00  8.00000000E-01  8.00000000E-01
  1.50000000E+00  8.00000000E-01  8.00000000E-01  1.50000000E+00  8.00000000E-01
  8.00000000E-01  1.50000000E+00  8.00000000E-01  8.00000000E-01  1.50000000E+00
  8.00000000E-01  8.00000000E-01  1.50000000E+00  8.00000000E-01  8.00000000E-01
  1.50000000E+00  8.00000000E-01  8.00000000E-01  1.50000000E+00  8.00000000E-01
  8.00000000E-01  1.50000000E+00  8.00000000E-01  8.00000000E-01  1.50000000E+00
  8.00000000E-01  8.00000000E-01  1.50000000E+00  8.00000000E-01  8.00000000E-01
  1.50000000E+00  8.00000000E-01  8.00000000E-01  1.50000000E+00  8.00000000E-01
  8.00000000E-01  1.50000000E+00  8.00000000E-01  8.00000000E-01  1.50000000E+00
  8.00000000E-01  8.00000000E-01  1.50000000E+00  8.00000000E-01  8.00000000E-01
  1.50000000E+00  8.00000000E-01  8.00000000E-01  1.50000000E+00  8.00000000E-01
  8.00000000E-01  1.50000000E+00  8.00000000E-01  8.00000000E-01  1.50000000E+00
  8.00000000E-01  8.00000000E-01  1.50000000E+00  8.00000000E-01  8.00000000E-01
  1.50000000E+00  8.00000000E-01  8.00000000E-01  1.50000000E+00  8.00000000E-01
  8.00000000E-01  1.50000000E+00  8.00000000E-01  8.00000000E-01  1.50000000E+00
  8.00000000E-01  8.00000000E-01  1.50000000E+00  8.00000000E-01  8.00000000E-01
  1.50000000E+00  8.00000000E-01  8.00000000E-01  1.50000000E+00  8.00000000E-01
  8.00000000E-01  1.50000000E+00  8.00000000E-01  8.00000000E-01  1.50000000E+00
  8.00000000E-01  8.00000000E-01  1.50000000E+00  8.00000000E-01  8.00000000E-01
  1.50000000E+00  8.00000000E-01  8.00000000E-01  1.50000000E+00  8.00000000E-01
  8.00000000E-01  1.50000000E+00  8.00000000E-01  8.00000000E-01  1.50000000E+00
  8.00000000E-01  8.00000000E-01  1.50000000E+00  8.00000000E-01  8.00000000E-01
  1.50000000E+00  8.00000000E-01  8.00000000E-01  1.50000000E+00  8.00000000E-01
  8.00000000E-01  1.50000000E+00  8.00000000E-01  8.00000000E-01  1.50000000E+00
  8.00000000E-01  8.00000000E-01  1.50000000E+00  8.00000000E-01  8.00000000E-01
  1.50000000E+00  8.00000000E-01  8.00000000E-01  1.50000000E+00  8.00000000E-01
  8.00000000E-01  1.50000000E+00  8.00000000E-01  8.00000000E-01  1.50000000E+00
  8.00000000E-01  8.00000000E-01  1.50000000E+00  8.00000000E-01  8.00000000E-01
  1.50000000E+00  8.00000000E-01  8.00000000E-01  1.50000000E+00  8.00000000E-01
  8.00000000E-01  1.50000000E+00  8.00000000E-01  8.00000000E-01  1.50000000E+00
  8.00000000E-01  8.00000000E-01  1.50000000E+00  8.00000000E-01  8.00000000E-01
  1.50000000E+00  8.00000000E-01  8.00000000E-01  1.50000000E+00  8.00000000E-01
  8.00000000E-01  1.50000000E+00  8.00000000E-01  8.00000000E-01  1.50000000E+00
  8.00000000E-01  8.00000000E-01  1.50000000E+00  8.00000000E-01  8.00000000E-01
  1.50000000E+00  8.00000000E-01  8.00000000E-01  1.50000000E+00  8.00000000E-01
  8.00000000E-01  1.50000000E+00  8.00000000E-01  8.00000000E-01  1.50000000E+00
  8.00000000E-01  8.00000000E-01  1.50000000E+00  8.00000000E-01  8.00000000E-01
  1.50000000E+00  8.00000000E-01  8.00000000E-01  1.50000000E+00  8.00000000E-01
  8.00000000E-01  1.50000000E+00  8.00000000E-01  8.00000000E-01  1.50000000E+00
  8.00000000E-01  8.00000000E-01  1.50000000E+00  8.00000000E-01  8.00000000E-01
  1.50000000E+00  8.00000000E-01  8.00000000E-01  1.50000000E+00  8.00000000E-01
  8.00000000E-01  1.50000000E+00  8.00000000E-01  8.00000000E-01  1.50000000E+00
  8.00000000E-01  8.00000000E-01  1.50000000E+00  8.00000000E-01  8.00000000E-01
  1.50000000E+00  8.00000000E-01  8.00000000E-01  1.50000000E+00  8.00000000E-01
  8.00000000E-01  1.50000000E+00  8.00000000E-01  8.00000000E-01  1.50000000E+00
  8.00000000E-01  8.00000000E-01  1.50000000E+00  8.00000000E-01  8.00000000E-01
  1.50000000E+00  8.00000000E-01  8.00000000E-01  1.50000000E+00  8.00000000E-01
  8.00000000E-01  1.50000000E+00  8.00000000E-01  8.00000000E-01  1.50000000E+00
  8.00000000E-01  8.00000000E-01  1.50000000E+00  8.00000000E-01  8.00000000E-01
  1.50000000E+00  8.00000000E-01  8.00000000E-01  1.50000000E+00  8.00000000E-01
  8.00000000E-01  1.50000000E+00  8.00000000E-01  8.00000000E-01  1.50000000E+00
  8.00000000E-01  8.00000000E-01  1.50000000E+00  8.00000000E-01  8.00000000E-01
  1.50000000E+00  8.00000000E-01  8.00000000E-01  1.50000000E+00  8.00000000E-01
  8.00000000E-01  1.50000000E+00  8.00000000E-01  8.00000000E-01  1.50000000E+00
  8.00000000E-01  8.00000000E-01  1.50000000E+00  8.00000000E-01  8.00000000E-01
  1.50000000E+00  8.00000000E-01  8.00000000E-01  1.50000000E+00  8.00000000E-01
  8.00000000E-01  1.50000000E+00  8.00000000E-01  8.00000000E-01  1.50000000E+00
  8.00000000E-01  8.00000000E-01  1.50000000E+00  8.00000000E-01  8.00000000E-01
  1.50000000E+00  8.00000000E-01  8.00000000E-01  1.50000000E+00  8.00000000E-01
  8.00000000E-01  1.50000000E+00  8.00000000E-01  8.00000000E-01  1.50000000E+00
  8.00000000E-01  8.00000000E-01  1.50000000E+00  8.00000000E-01  8.00000000E-01
  1.50000000E+00  8.00000000E-01  8.00000000E-01  1.50000000E+00  8.00000000E-01
  8.00000000E-01  1.50000000E+00  8.00000000E-01  8.00000000E-01  1.50000000E+00
  8.00000000E-01  8.00000000E-01  1.50000000E+00  8.00000000E-01  8.00000000E-01
  1.50000000E+00  8.00000000E-01  8.00000000E-01  1.50000000E+00  8.00000000E-01
  8.00000000E-01  1.50000000E+00  8.00000000E-01  8.00000000E-01  1.50000000E+00
  8.00000000E-01  8.00000000E-01  1.50000000E+00  8.00000000E-01  8.00000000E-01
  1.50000000E+00  8.00000000E-01  8.00000000E-01  1.50000000E+00  8.00000000E-01
  8.00000000E-01  1.50000000E+00  8.00000000E-01  8.00000000E-01  1.50000000E+00
  8.00000000E-01  8.00000000E-01  1.50000000E+00  8.00000000E-01  8.00000000E-01
  1.50000000E+00  8.00000000E-01  8.00000000E-01  1.50000000E+00  8.00000000E-01
  8.00000000E-01  1.50000000E+00  8.00000000E-01  8.00000000E-01  1.50000000E+00
  8.00000000E-01  8.00000000E-01  1.50000000E+00  8.00000000E-01  8.00000000E-01
  1.50000000E+00  8.00000000E-01  8.00000000E-01  1.50000000E+00  8.00000000E-01
  8.00000000E-01  1.50000000E+00  8.00000000E-01  8.00000000E-01  1.50000000E+00
  8.00000000E-01  8.00000000E-01  1.50000000E+00  8.00000000E-01  8.00000000E-01
  1.50000000E+00  8.00000000E-01  8.00000000E-01  1.50000000E+00  8.00000000E-01
  8.00000000E-01  1.50000000E+00  8.00000000E-01  8.00000000E-01  1.50000000E+00
  8.00000000E-01  8.00000000E-01  1.50000000E+00  8.00000000E-01  8.00000000E-01
  1.50000000E+00  8.00000000E-01  8.00000000E-01  1.50000000E+00  8.00000000E-01
  8.00000000E-01  1.50000000E+00  8.00000000E-01  8.00000000E-01  1.50000000E+00
  8.00000000E-01  8.00000000E-01  1.50000000E+00  8.00000000E-01  8.00000000E-01
  1.50000000E+00  8.00000000E-01  8.00000000E-01  1.50000000E+00  8.00000000E-01
  8.00000000E-01  1.50000000E+00  8.00000000E-01  8.00000000E-01  1.50000000E+00
  8.00000000E-01  8.00000000E-01  1.50000000E+00  8.00000000E-01  8.00000000E-01
  1.50000000E+00  8.00000000E-01  8.00000000E-01  1.50000000E+00  8.00000000E-01
  8.00000000E-01  1.50000000E+00  8.00000000E-01  8.00000000E-01  1.50000000E+00
  8.00000000E-01  8.00000000E-01  1.50000000E+00  8.00000000E-01  8.00000000E-01
  1.50000000E+00  8.00000000E-01  8.00000000E-01  1.50000000E+00  8.00000000E-01
  8.00000000E-01  1.50000000E+00  8.00000000E-01  8.00000000E-01  1.50000000E+00
  8.00000000E-01  8.00000000E-01  1.50000000E+00  8.00000000E-01  8.00000000E-01
  1.50000000E+00  8.00000000E-01  8.00000000E-01  1.50000000E+00  8.00000000E-01
  8.00000000E-01  1.50000000E+00  8.00000000E-01  8.00000000E-01  1.50000000E+00
  8.00000000E-01  8.00000000E-01  1.50000000E+00  8.00000000E-01  8.00000000E-01
  1.50000000E+00  8.00000000E-01  8.00000000E-01  1.50000000E+00  8.00000000E-01
  8.00000000E-01  1.50000000E+00  8.00000000E-01  8.00000000E-01  1.50000000E+00
  8.00000000E-01  8.00000000E-01  1.50000000E+00  8.00000000E-01  8.00000000E-01
  1.50000000E+00  8.00000000E-01  8.00000000E-01  1.50000000E+00  8.00000000E-01
  8.00000000E-01  1.50000000E+00  8.00000000E-01  8.00000000E-01  1.50000000E+00
  8.00000000E-01  8.00000000E-01  1.50000000E+00  8.00000000E-01  8.00000000E-01
  1.50000000E+00  8.00000000E-01  8.00000000E-01  1.50000000E+00  8.00000000E-01
  8.00000000E-01  1.50000000E+00  8.00000000E-01  8.00000000E-01  1.50000000E+00
  8.00000000E-01  8.00000000E-01  1.50000000E+00  8.00000000E-01  8.00000000E-01
  1.50000000E+00  8.00000000E-01  8.00000000E-01  1.50000000E+00  8.00000000E-01
  8.00000000E-01  1.50000000E+00  8.00000000E-01  8.00000000E-01  1.50000000E+00
  8.00000000E-01  8.00000000E-01  1.50000000E+00  8.00000000E-01  8.00000000E-01
  1.50000000E+00  8.00000000E-01  8.00000000E-01  1.50000000E+00  8.00000000E-01
  8.00000000E-01  1.50000000E+00  8.00000000E-01  8.00000000E-01  1.50000000E+00
  8.00000000E-01  8.00000000E-01  1.50000000E+00  8.00000000E-01  8.00000000E-01
  1.50000000E+00  8.00000000E-01  8.00000000E-01  1.50000000E+00  8.00000000E-01
  8.00000000E-01  1.50000000E+00  8.00000000E-01  8.00000000E-01  1.50000000E+00
  8.00000000E-01  8.00000000E-01  1.50000000E+00  8.00000000E-01  8.00000000E-01
  1.50000000E+00  8.00000000E-01  8.00000000E-01  1.50000000E+00  8.00000000E-01
  8.00000000E-01  1.50000000E+00  8.00000000E-01  8.00000000E-01  1.50000000E+00
  8.00000000E-01  8.00000000E-01  1.50000000E+00  8.00000000E-01  8.00000000E-01
  1.50000000E+00  8.00000000E-01  8.00000000E-01  1.50000000E+00  8.00000000E-01
  8.00000000E-01  1.50000000E+00  8.00000000E-01  8.00000000E-01  1.50000000E+00
  8.00000000E-01  8.00000000E-01  1.50000000E+00  8.00000000E-01  8.00000000E-01
  1.50000000E+00  8.00000000E-01  8.00000000E-01  1.50000000E+00  8.00000000E-01
  8.00000000E-01  1.50000000E+00  8.00000000E-01  8.00000000E-01  1.50000000E+00
  8.00000000E-01  8.00000000E-01  1.50000000E+00  8.00000000E-01  8.00000000E-01
  1.50000000E+00  8.00000000E-01  8.00000000E-01  1.50000000E+00  8.00000000E-01
  8.00000000E-01  1.50000000E+00  8.00000000E-01  8.00000000E-01  1.50000000E+00
  8.00000000E-01  8.00000000E-01  1.50000000E+00  8.00000000E-01  8.00000000E-01
  1.50000000E+00  8.00000000E-01  8.00000000E-01  1.50000000E+00  8.00000000E-01
  8.00000000E-01  1.50000000E+00  8.00000000E-01  8.00000000E-01  1.50000000E+00
  8.00000000E-01  8.00000000E-01  1.50000000E+00  8.00000000E-01  8.00000000E-01
  1.50000000E+00  8.00000000E-01  8.00000000E-01  1.50000000E+00  8.00000000E-01
  8.00000000E-01  1.50000000E+00  8.00000000E-01  8.00000000E-01  1.50000000E+00
  8.00000000E-01  8.00000000E-01  1.50000000E+00  8.00000000E-01  8.00000000E-01
  1.50000000E+00  8.00000000E-01  8.00000000E-01  1.50000000E+00  8.00000000E-01
  8.00000000E-01  1.50000000E+00  8.00000000E-01  8.00000000E-01  1.50000000E+00
  8.00000000E-01  8.00000000E-01  1.50000000E+00  8.00000000E-01  8.00000000E-01
  1.50000000E+00  8.00000000E-01  8.00000000E-01  1.50000000E+00  8.00000000E-01
  8.00000000E-01  1.50000000E+00  8.00000000E-01  8.00000000E-01  1.50000000E+00
  8.00000000E-01  8.00000000E-01  1.50000000E+00  8.00000000E-01  8.00000000E-01
  1.50000000E+00  8.00000000E-01  8.00000000E-01  1.50000000E+00  8.00000000E-01
  8.00000000E-01  1.50000000E+00  8.00000000E-01  8.00000000E-01  1.50000000E+00
  8.00000000E-01  8.00000000E-01  1.50000000E+00  8.00000000E-01  8.00000000E-01
  1.50000000E+00  8.00000000E-01  8.00000000E-01  1.50000000E+00  8.00000000E-01
  8.00000000E-01  1.50000000E+00  8.00000000E-01  8.00000000E-01  1.50000000E+00
  8.00000000E-01  8.00000000E-01  1.50000000E+00  8.00000000E-01  8.00000000E-01
  1.50000000E+00  8.00000000E-01  8.00000000E-01  1.50000000E+00  8.00000000E-01
  8.00000000E-01  1.50000000E+00  8.00000000E-01  8.00000000E-01  1.50000000E+00
  8.00000000E-01  8.00000000E-01  1.50000000E+00  8.00000000E-01  8.00000000E-01
  1.50000000E+00  8.00000000E-01  8.00000000E-01  1.50000000E+00  8.00000000E-01
  8.00000000E-01  1.50000000E+00  8.00000000E-01  8.00000000E-01  1.50000000E+00
  8.00000000E-01  8.00000000E-01  1.50000000E+00  8.00000000E-01  8.00000000E-01
  1.50000000E+00  8.00000000E-01  8.00000000E-01  1.50000000E+00  8.00000000E-01
  8.00000000E-01  1.50000000E+00  8.00000000E-01  8.00000000E-01  1.50000000E+00
  8.00000000E-01  8.00000000E-01  1.50000000E+00  8.00000000E-01  8.00000000E-01
  1.50000000E+00  8.00000000E-01  8.00000000E-01  1.50000000E+00  8.00000000E-01
  8.00000000E-01  1.50000000E+00  8.00000000E-01  8.00000000E-01  1.50000000E+00
  8.00000000E-01  8.00000000E-01  1.50000000E+00  8.00000000E-01  8.00000000E-01
  1.50000000E+00  8.00000000E-01  8.00000000E-01  1.50000000E+00  8.00000000E-01
  8.00000000E-01  1.50000000E+00  8.00000000E-01  8.00000000E-01  1.50000000E+00
  8.00000000E-01  8.00000000E-01  1.50000000E+00  8.00000000E-01  8.00000000E-01
  1.50000000E+00  8.00000000E-01  8.00000000E-01  1.50000000E+00  8.00000000E-01
  8.00000000E-01  1.50000000E+00  8.00000000E-01  8.00000000E-01  1.50000000E+00
  8.00000000E-01  8.00000000E-01  1.50000000E+00  8.00000000E-01  8.00000000E-01
  1.50000000E+00  8.00000000E-01  8.00000000E-01  1.50000000E+00  8.00000000E-01
  8.00000000E-01  1.50000000E+00  8.00000000E-01  8.00000000E-01  1.50000000E+00
  8.00000000E-01  8.00000000E-01  1.50000000E+00  8.00000000E-01  8.00000000E-01
  1.50000000E+00  8.00000000E-01  8.00000000E-01  1.50000000E+00  8.00000000E-01
  8.00000000E-01  1.50000000E+00  8.00000000E-01  8.00000000E-01  1.50000000E+00
  8.00000000E-01  8.00000000E-01  1.50000000E+00  8.00000000E-01  8.00000000E-01
  1.50000000E+00  8.00000000E-01  8.00000000E-01  1.50000000E+00  8.00000000E-01
  8.00000000E-01  1.50000000E+00  8.00000000E-01  8.00000000E-01  1.50000000E+00
  8.00000000E-01  8.00000000E-01  1.50000000E+00  8.00000000E-01  8.00000000E-01
  1.50000000E+00  8.00000000E-01  8.00000000E-01  1.50000000E+00  8.00000000E-01
  8.00000000E-01  1.50000000E+00  8.00000000E-01  8.00000000E-01  1.50000000E+00
  8.00000000E-01  8.00000000E-01  1.50000000E+00  8.00000000E-01  8.00000000E-01
  1.50000000E+00  8.00000000E-01  8.00000000E-01  1.50000000E+00  8.00000000E-01
  8.00000000E-01  1.50000000E+00  8.00000000E-01  8.00000000E-01  1.50000000E+00
  8.00000000E-01  8.00000000E-01  1.50000000E+00  8.00000000E-01  8.00000000E-01
  1.50000000E+00  8.00000000E-01  8.00000000E-01  1.50000000E+00  8.00000000E-01
  8.00000000E-01  1.50000000E+00  8.00000000E-01  8.00000000E-01  1.50000000E+00
  8.00000000E-01  8.00000000E-01  1.50000000E+00  8.00000000E-01  8.00000000E-01
  1.50000000E+00  8.00000000E-01  8.00000000E-01  1.50000000E+00  8.00000000E-01
  8.00000000E-01  1.50000000E+00  8.00000000E-01  8.00000000E-01  1.50000000E+00
  8.00000000E-01  8.00000000E-01  1.50000000E+00  8.00000000E-01  8.00000000E-01
  1.50000000E+00  8.00000000E-01  8.00000000E-01  1.50000000E+00  8.00000000E-01
  8.00000000E-01  1.50000000E+00  8.00000000E-01  8.00000000E-01  1.50000000E+00
  8.00000000E-01  8.00000000E-01  1.50000000E+00  8.00000000E-01  8.00000000E-01
  1.50000000E+00  8.00000000E-01  8.00000000E-01  1.50000000E+00  8.00000000E-01
  8.00000000E-01  1.50000000E+00  8.00000000E-01  8.00000000E-01  1.50000000E+00
  8.00000000E-01  8.00000000E-01  1.50000000E+00  8.00000000E-01  8.00000000E-01
  1.50000000E+00  8.00000000E-01  8.00000000E-01  1.50000000E+00  8.00000000E-01
  8.00000000E-01  1.50000000E+00  8.00000000E-01  8.00000000E-01  1.50000000E+00
  8.00000000E-01  8.00000000E-01  1.50000000E+00  8.00000000E-01  8.00000000E-01
  1.50000000E+00  8.00000000E-01  8.00000000E-01  1.50000000E+00  8.00000000E-01
  8.00000000E-01  1.50000000E+00  8.00000000E-01  8.00000000E-01  1.50000000E+00
  8.00000000E-01  8.00000000E-01  1.50000000E+00  8.00000000E-01  8.00000000E-01
  1.50000000E+00  8.00000000E-01  8.00000000E-01  1.50000000E+00  8.00000000E-01
  8.00000000E-01  1.50000000E+00  8.00000000E-01  8.00000000E-01  1.50000000E+00
  8.00000000E-01  8.00000000E-01  1.50000000E+00  8.00000000E-01  8.00000000E-01
  1.50000000E+00  8.00000000E-01  8.00000000E-01  1.50000000E+00  8.00000000E-01
  8.00000000E-01  1.50000000E+00  8.00000000E-01  8.00000000E-01  1.50000000E+00
  8.00000000E-01  8.00000000E-01  1.50000000E+00  8.00000000E-01  8.00000000E-01
  1.50000000E+00  8.00000000E-01  8.00000000E-01  1.50000000E+00  8.00000000E-01
  8.00000000E-01  1.50000000E+00  8.00000000E-01  8.00000000E-01  1.50000000E+00
  8.00000000E-01  8.00000000E-01  1.50000000E+00  8.00000000E-01  8.00000000E-01
  1.50000000E+00  8.00000000E-01  8.00000000E-01  1.50000000E+00  8.00000000E-01
  8.00000000E-01  1.50000000E+00  8.00000000E-01  8.00000000E-01  1.50000000E+00
  8.00000000E-01  8.00000000E-01  1.50000000E+00  8.00000000E-01  8.00000000E-01
  1.50000000E+00  8.00000000E-01  8.00000000E-01  1.50000000E+00  8.00000000E-01
  8.00000000E-01  1.50000000E+00  8.00000000E-01  8.00000000E-01  1.50000000E+00
  8.00000000E-01  8.00000000E-01  1.50000000E+00  8.00000000E-01  8.00000000E-01
  1.50000000E+00  8.00000000E-01  8.00000000E-01  1.50000000E+00  8.00000000E-01
  8.00000000E-01  1.50000000E+00  8.00000000E-01  8.00000000E-01  1.50000000E+00
  8.00000000E-01  8.00000000E-01  1.50000000E+00  8.00000000E-01  8.00000000E-01
  1.50000000E+00  8.00000000E-01  8.00000000E-01  1.50000000E+00  8.00000000E-01
  8.00000000E-01  1.50000000E+00  8.00000000E-01  8.00000000E-01  1.50000000E+00
  8.00000000E-01  8.00000000E-01  1.50000000E+00  8.00000000E-01  8.00000000E-01
  1.50000000E+00  8.00000000E-01  8.00000000E-01  1.50000000E+00  8.00000000E-01
  8.00000000E-01  1.50000000E+00  8.00000000E-01  8.00000000E-01  1.50000000E+00
  8.00000000E-01  8.00000000E-01  1.50000000E+00  8.00000000E-01  8.00000000E-01
  1.50000000E+00  8.00000000E-01  8.00000000E-01  1.50000000E+00  8.00000000E-01
  8.00000000E-01  1.50000000E+00  8.00000000E-01  8.00000000E-01  1.50000000E+00
  8.00000000E-01  8.00000000E-01  1.50000000E+00  8.00000000E-01  8.00000000E-01
  1.50000000E+00  8.00000000E-01  8.00000000E-01  1.50000000E+00  8.00000000E-01
  8.00000000E-01  1.50000000E+00  8.00000000E-01  8.00000000E-01  1.50000000E+00
  8.00000000E-01  8.00000000E-01  1.50000000E+00  8.00000000E-01  8.00000000E-01
  1.50000000E+00  8.00000000E-01  8.00000000E-01  1.50000000E+00  8.00000000E-01
  8.00000000E-01  1.50000000E+00  8.00000000E-01  8.00000000E-01  1.50000000E+00
  8.00000000E-01  8.00000000E-01  1.50000000E+00  8.00000000E-01  8.00000000E-01
  1.50000000E+00  8.00000000E-01  8.00000000E-01  1.50000000E+00  8.00000000E-01
  8.00000000E-01  1.50000000E+00  8.00000000E-01  8.00000000E-01  1.50000000E+00
  8.00000000E-01  8.00000000E-01  1.50000000E+00  8.00000000E-01  8.00000000E-01
  1.50000000E+00  8.00000000E-01  8.00000000E-01  1.50000000E+00  8.00000000E-01
  8.00000000E-01  1.50000000E+00  8.00000000E-01  8.00000000E-01  1.50000000E+00
  8.00000000E-01  8.00000000E-01  1.50000000E+00  8.00000000E-01  8.00000000E-01
  1.50000000E+00  8.00000000E-01  8.00000000E-01  1.50000000E+00  8.00000000E-01
  8.00000000E-01  1.50000000E+00  8.00000000E-01  8.00000000E-01  1.50000000E+00
  8.00000000E-01  8.00000000E-01  1.50000000E+00  8.00000000E-01  8.00000000E-01
  1.50000000E+00  8.00000000E-01  8.00000000E-01  1.50000000E+00  8.00000000E-01
  8.00000000E-01  1.50000000E+00  8.00000000E-01  8.00000000E-01  1.50000000E+00
  8.00000000E-01  8.00000000E-01  1.50000000E+00  8.00000000E-01  8.00000000E-01
  1.50000000E+00  8.00000000E-01  8.00000000E-01  1.50000000E+00  8.00000000E-01
  8.00000000E-01  1.50000000E+00  8.00000000E-01  8.00000000E-01  1.50000000E+00
  8.00000000E-01  8.00000000E-01  1.50000000E+00  8.00000000E-01  8.00000000E-01
  1.50000000E+00  8.00000000E-01  8.00000000E-01  1.50000000E+00  8.00000000E-01
  8.00000000E-01  1.50000000E+00  8.00000000E-01  8.00000000E-01  1.50000000E+00
  8.00000000E-01  8.00000000E-01  1.50000000E+00  8.00000000E-01  8.00000000E-01
  1.50000000E+00  8.00000000E-01  8.00000000E-01  1.50000000E+00  8.00000000E-01
  8.00000000E-01  1.50000000E+00  8.00000000E-01  8.00000000E-01  1.50000000E+00
  8.00000000E-01  8.00000000E-01  1.50000000E+00  8.00000000E-01  8.00000000E-01
  1.50000000E+00  8.00000000E-01  8.00000000E-01  1.50000000E+00  8.00000000E-01
  8.00000000E-01  1.50000000E+00  8.00000000E-01  8.00000000E-01  1.50000000E+00
  8.00000000E-01  8.00000000E-01  1.50000000E+00  8.00000000E-01  8.00000000E-01
  1.50000000E+00  8.00000000E-01  8.00000000E-01  1.50000000E+00  8.00000000E-01
  8.00000000E-01  1.50000000E+00  8.00000000E-01  8.00000000E-01  1.50000000E+00
  8.00000000E-01  8.00000000E-01  1.50000000E+00  8.00000000E-01  8.00000000E-01
  1.50000000E+00  8.00000000E-01  8.00000000E-01  1.50000000E+00  8.00000000E-01
  8.00000000E-01  1.50000000E+00  8.00000000E-01  8.00000000E-01  1.50000000E+00
  8.00000000E-01  8.00000000E-01  1.50000000E+00  8.00000000E-01  8.00000000E-01
  1.50000000E+00  8.00000000E-01  8.00000000E-01  1.50000000E+00  8.00000000E-01
  8.00000000E-01  1.50000000E+00  8.00000000E-01  8.00000000E-01  1.50000000E+00
  8.00000000E-01  8.00000000E-01  1.50000000E+00  8.00000000E-01  8.00000000E-01
  1.50000000E+00  8.00000000E-01  8.00000000E-01  1.50000000E+00  8.00000000E-01
  8.00000000E-01  1.50000000E+00  8.00000000E-01  8.00000000E-01  1.50000000E+00
  8.00000000E-01  8.00000000E-01  1.50000000E+00  8.00000000E-01  8.00000000E-01
  1.50000000E+00  8.00000000E-01  8.00000000E-01  1.50000000E+00  8.00000000E-01
  8.00000000E-01  1.50000000E+00  8.00000000E-01  8.00000000E-01  1.50000000E+00
  8.00000000E-01  8.00000000E-01  1.50000000E+00  8.00000000E-01  8.00000000E-01
  1.50000000E+00  8.00000000E-01  8.00000000E-01  1.50000000E+00  8.00000000E-01
  8.00000000E-01  1.50000000E+00  8.00000000E-01  8.00000000E-01  1.50000000E+00
  8.00000000E-01  8.00000000E-01  1.50000000E+00  8.00000000E-01  8.00000000E-01
  1.50000000E+00  8.00000000E-01  8.00000000E-01  1.50000000E+00  8.00000000E-01
  8.00000000E-01  1.50000000E+00  8.00000000E-01  8.00000000E-01  1.50000000E+00
  8.00000000E-01  8.00000000E-01  1.50000000E+00  8.00000000E-01  8.00000000E-01
  1.50000000E+00  8.00000000E-01  8.00000000E-01  1.50000000E+00  8.00000000E-01
  8.00000000E-01  1.50000000E+00  8.00000000E-01  8.00000000E-01  1.50000000E+00
  8.00000000E-01  8.00000000E-01  1.50000000E+00  8.00000000E-01  8.00000000E-01
  1.50000000E+00  8.00000000E-01  8.00000000E-01  1.50000000E+00  8.00000000E-01
  8.00000000E-01  1.50000000E+00  8.00000000E-01  8.00000000E-01  1.50000000E+00
  8.00000000E-01  8.00000000E-01  1.50000000E+00  8.00000000E-01  8.00000000E-01
  1.50000000E+00  8.00000000E-01  8.00000000E-01  1.50000000E+00  8.00000000E-01
  8.00000000E-01  1.50000000E+00  8.00000000E-01  8.00000000E-01  1.50000000E+00
  8.00000000E-01  8.00000000E-01  1.50000000E+00  8.00000000E-01  8.00000000E-01
  1.50000000E+00  8.00000000E-01  8.00000000E-01  1.50000000E+00  8.00000000E-01
  8.00000000E-01  1.50000000E+00  8.00000000E-01  8.00000000E-01  1.50000000E+00
  8.00000000E-01  8.00000000E-01  1.50000000E+00  8.00000000E-01  8.00000000E-01
  1.50000000E+00  8.00000000E-01  8.00000000E-01  1.50000000E+00  8.00000000E-01
  8.00000000E-01  1.50000000E+00  8.00000000E-01  8.00000000E-01  1.50000000E+00
  8.00000000E-01  8.00000000E-01  1.50000000E+00  8.00000000E-01  8.00000000E-01
  1.50000000E+00  8.00000000E-01  8.00000000E-01  1.50000000E+00  8.00000000E-01
  8.00000000E-01  1.50000000E+00  8.00000000E-01  8.00000000E-01  1.50000000E+00
  8.00000000E-01  8.00000000E-01  1.50000000E+00  8.00000000E-01  8.00000000E-01
  1.50000000E+00  8.00000000E-01  8.00000000E-01  1.50000000E+00  8.00000000E-01
  8.00000000E-01  1.50000000E+00  8.00000000E-01  8.00000000E-01  1.50000000E+00
  8.00000000E-01  8.00000000E-01  1.50000000E+00  8.00000000E-01  8.00000000E-01
  1.50000000E+00  8.00000000E-01  8.00000000E-01  1.50000000E+00  8.00000000E-01
  8.00000000E-01  1.50000000E+00  8.00000000E-01  8.00000000E-01  1.50000000E+00
  8.00000000E-01  8.00000000E-01  1.50000000E+00  8.00000000E-01  8.00000000E-01
  1.50000000E+00  8.00000000E-01  8.00000000E-01  1.50000000E+00  8.00000000E-01
  8.00000000E-01  1.50000000E+00  8.00000000E-01  8.00000000E-01  1.50000000E+00
  8.00000000E-01  8.00000000E-01  1.50000000E+00  8.00000000E-01  8.00000000E-01
  1.50000000E+00  8.00000000E-01  8.00000000E-01  1.50000000E+00  8.00000000E-01
  8.00000000E-01  1.50000000E+00  8.00000000E-01  8.00000000E-01  1.50000000E+00
  8.00000000E-01  8.00000000E-01  1.50000000E+00  8.00000000E-01  8.00000000E-01
  1.50000000E+00  8.00000000E-01  8.00000000E-01  1.50000000E+00  8.00000000E-01
  8.00000000E-01  1.50000000E+00  8.00000000E-01  8.00000000E-01  1.50000000E+00
  8.00000000E-01  8.00000000E-01  1.50000000E+00  8.00000000E-01  8.00000000E-01
  1.50000000E+00  8.00000000E-01  8.00000000E-01  1.50000000E+00  8.00000000E-01
  8.00000000E-01  1.50000000E+00  8.00000000E-01  8.00000000E-01  1.50000000E+00
  8.00000000E-01  8.00000000E-01  1.50000000E+00  8.00000000E-01  8.00000000E-01
  1.50000000E+00  8.00000000E-01  8.00000000E-01  1.50000000E+00  8.00000000E-01
  8.00000000E-01  1.50000000E+00  8.00000000E-01  8.00000000E-01  1.50000000E+00
  8.00000000E-01  8.00000000E-01  1.50000000E+00  8.00000000E-01  8.00000000E-01
  1.50000000E+00  8.00000000E-01  8.00000000E-01  1.50000000E+00  8.00000000E-01
  8.00000000E-01  1.50000000E+00  8.00000000E-01  8.00000000E-01  1.50000000E+00
  8.00000000E-01  8.00000000E-01  1.50000000E+00  8.00000000E-01  8.00000000E-01
  1.50000000E+00  8.00000000E-01  8.00000000E-01  1.50000000E+00  8.00000000E-01
  8.00000000E-01  1.50000000E+00  8.00000000E-01  8.00000000E-01  1.50000000E+00
  8.00000000E-01  8.00000000E-01  1.50000000E+00  8.00000000E-01  8.00000000E-01
  1.50000000E+00  8.00000000E-01  8.00000000E-01  1.50000000E+00  8.00000000E-01
  8.00000000E-01  1.50000000E+00  8.00000000E-01  8.00000000E-01  1.50000000E+00
  8.00000000E-01  8.00000000E-01  1.50000000E+00  8.00000000E-01  8.00000000E-01
  1.50000000E+00  8.00000000E-01  8.00000000E-01  1.50000000E+00  8.00000000E-01
  8.00000000E-01  1.50000000E+00  8.00000000E-01  8.00000000E-01  1.50000000E+00
  8.00000000E-01  8.00000000E-01  1.50000000E+00  8.00000000E-01  8.00000000E-01
  1.50000000E+00  8.00000000E-01  8.00000000E-01  1.50000000E+00  8.00000000E-01
  8.00000000E-01  1.50000000E+00  8.00000000E-01  8.00000000E-01  1.50000000E+00
  8.00000000E-01  8.00000000E-01  1.50000000E+00  8.00000000E-01  8.00000000E-01
  1.50000000E+00  8.00000000E-01  8.00000000E-01  1.50000000E+00  8.00000000E-01
  8.00000000E-01  1.50000000E+00  8.00000000E-01  8.00000000E-01  1.50000000E+00
  8.00000000E-01  8.00000000E-01  1.50000000E+00  8.00000000E-01  8.00000000E-01
  1.50000000E+00  8.00000000E-01  8.00000000E-01  1.50000000E+00  8.00000000E-01
  8.00000000E-01  1.50000000E+00  8.00000000E-01  8.00000000E-01  1.50000000E+00
  8.00000000E-01  8.00000000E-01  1.50000000E+00  8.00000000E-01  8.00000000E-01
  1.50000000E+00  8.00000000E-01  8.00000000E-01  1.50000000E+00  8.00000000E-01
  8.00000000E-01  1.50000000E+00  8.00000000E-01  8.00000000E-01  1.50000000E+00
  8.00000000E-01  8.00000000E-01  1.50000000E+00  8.00000000E-01  8.00000000E-01
  1.50000000E+00  8.00000000E-01  8.00000000E-01  1.50000000E+00  8.00000000E-01
  8.00000000E-01  1.50000000E+00  8.00000000E-01  8.00000000E-01  1.50000000E+00
  8.00000000E-01  8.00000000E-01  1.50000000E+00  8.00000000E-01  8.00000000E-01
  1.50000000E+00  8.00000000E-01  8.00000000E-01  1.50000000E+00  8.00000000E-01
  8.00000000E-01  1.50000000E+00  8.00000000E-01  8.00000000E-01  1.50000000E+00
  8.00000000E-01  8.00000000E-01  1.50000000E+00  8.00000000E-01  8.00000000E-01
  1.50000000E+00  8.00000000E-01  8.00000000E-01  1.50000000E+00  8.00000000E-01
  8.00000000E-01  1.50000000E+00  8.00000000E-01  8.00000000E-01  1.50000000E+00
  8.00000000E-01  8.00000000E-01  1.50000000E+00  8.00000000E-01  8.00000000E-01
  1.50000000E+00  8.00000000E-01  8.00000000E-01  1.50000000E+00  8.00000000E-01
  8.00000000E-01  1.50000000E+00  8.00000000E-01  8.00000000E-01  1.50000000E+00
  8.00000000E-01  8.00000000E-01  1.50000000E+00  8.00000000E-01  8.00000000E-01
  1.50000000E+00  8.00000000E-01  8.00000000E-01  1.50000000E+00  8.00000000E-01
  8.00000000E-01  1.50000000E+00  8.00000000E-01  8.00000000E-01  1.50000000E+00
  8.00000000E-01  8.00000000E-01  1.50000000E+00  8.00000000E-01  8.00000000E-01
  1.50000000E+00  8.00000000E-01  8.00000000E-01  1.50000000E+00  8.00000000E-01
  8.00000000E-01  1.50000000E+00  8.00000000E-01  8.00000000E-01  1.50000000E+00
  8.00000000E-01  8.00000000E-01  1.50000000E+00  8.00000000E-01  8.00000000E-01
  1.50000000E+00  8.00000000E-01  8.00000000E-01  1.50000000E+00  8.00000000E-01
  8.00000000E-01  1.50000000E+00  8.00000000E-01  8.00000000E-01  1.50000000E+00
  8.00000000E-01  8.00000000E-01  1.50000000E+00  8.00000000E-01  8.00000000E-01
  1.50000000E+00  8.00000000E-01  8.00000000E-01  1.50000000E+00  8.00000000E-01
  8.00000000E-01  1.50000000E+00  8.00000000E-01  8.00000000E-01  1.50000000E+00
  8.00000000E-01  8.00000000E-01  1.50000000E+00  8.00000000E-01  8.00000000E-01
  1.50000000E+00  8.00000000E-01  8.00000000E-01  1.50000000E+00  8.00000000E-01
  8.00000000E-01  1.50000000E+00  8.00000000E-01  8.00000000E-01  1.50000000E+00
  8.00000000E-01  8.00000000E-01  1.50000000E+00  8.00000000E-01  8.00000000E-01
  1.50000000E+00  8.00000000E-01  8.00000000E-01  1.50000000E+00  8.00000000E-01
  8.00000000E-01  1.50000000E+00  8.00000000E-01  8.00000000E-01  1.50000000E+00
  8.00000000E-01  8.00000000E-01  1.50000000E+00  8.00000000E-01  8.00000000E-01
  1.50000000E+00  8.00000000E-01  8.00000000E-01  1.50000000E+00  8.00000000E-01
  8.00000000E-01  1.50000000E+00  8.00000000E-01  8.00000000E-01  1.50000000E+00
  8.00000000E-01  8.00000000E-01  1.50000000E+00  8.00000000E-01  8.00000000E-01
  1.50000000E+00  8.00000000E-01  8.00000000E-01  1.50000000E+00  8.00000000E-01
  8.00000000E-01  1.50000000E+00  8.00000000E-01  8.00000000E-01  1.50000000E+00
  8.00000000E-01  8.00000000E-01  1.50000000E+00  8.00000000E-01  8.00000000E-01
  1.50000000E+00  8.00000000E-01  8.00000000E-01  1.50000000E+00  8.00000000E-01
  8.00000000E-01  1.50000000E+00  8.00000000E-01  8.00000000E-01  1.50000000E+00
  8.00000000E-01  8.00000000E-01  1.50000000E+00  8.00000000E-01  8.00000000E-01
  1.50000000E+00  8.00000000E-01  8.00000000E-01  1.50000000E+00  8.00000000E-01
  8.00000000E-01  1.50000000E+00  8.00000000E-01  8.00000000E-01  1.50000000E+00
  8.00000000E-01  8.00000000E-01  1.50000000E+00  8.00000000E-01  8.00000000E-01
  1.50000000E+00  8.00000000E-01  8.00000000E-01  1.50000000E+00  8.00000000E-01
  8.00000000E-01  1.50000000E+00  8.00000000E-01  8.00000000E-01  1.50000000E+00
  8.00000000E-01  8.00000000E-01  1.50000000E+00  8.00000000E-01  8.00000000E-01
  1.50000000E+00  8.00000000E-01  8.00000000E-01  1.50000000E+00  8.00000000E-01
  8.00000000E-01  1.50000000E+00  8.00000000E-01  8.00000000E-01  1.50000000E+00
  8.00000000E-01  8.00000000E-01  1.50000000E+00  8.00000000E-01  8.00000000E-01
  1.50000000E+00  8.00000000E-01  8.00000000E-01  1.50000000E+00  8.00000000E-01
  8.00000000E-01  1.50000000E+00  8.00000000E-01  8.00000000E-01  1.50000000E+00
  8.00000000E-01  8.00000000E-01  1.50000000E+00  8.00000000E-01  8.00000000E-01
  1.50000000E+00  8.00000000E-01  8.00000000E-01  1.50000000E+00  8.00000000E-01
  8.00000000E-01  1.50000000E+00  8.00000000E-01  8.00000000E-01  1.50000000E+00
  8.00000000E-01  8.00000000E-01  1.50000000E+00  8.00000000E-01  8.00000000E-01
  1.50000000E+00  8.00000000E-01  8.00000000E-01  1.50000000E+00  8.00000000E-01
  8.00000000E-01  1.50000000E+00  8.00000000E-01  8.00000000E-01  1.50000000E+00
  8.00000000E-01  8.00000000E-01  1.50000000E+00  8.00000000E-01  8.00000000E-01
  1.50000000E+00  8.00000000E-01  8.00000000E-01  1.50000000E+00  8.00000000E-01
  8.00000000E-01  1.50000000E+00  8.00000000E-01  8.00000000E-01  1.50000000E+00
  8.00000000E-01  8.00000000E-01  1.50000000E+00  8.00000000E-01  8.00000000E-01
  1.50000000E+00  8.00000000E-01  8.00000000E-01  1.50000000E+00  8.00000000E-01
  8.00000000E-01  1.50000000E+00  8.00000000E-01  8.00000000E-01  1.50000000E+00
  8.00000000E-01  8.00000000E-01  1.50000000E+00  8.00000000E-01  8.00000000E-01
  1.50000000E+00  8.00000000E-01  8.00000000E-01  1.50000000E+00  8.00000000E-01
  8.00000000E-01  1.50000000E+00  8.00000000E-01  8.00000000E-01  1.50000000E+00
  8.00000000E-01  8.00000000E-01  1.50000000E+00  8.00000000E-01  8.00000000E-01
  1.50000000E+00  8.00000000E-01  8.00000000E-01  1.50000000E+00  8.00000000E-01
  8.00000000E-01  1.50000000E+00  8.00000000E-01  8.00000000E-01  1.50000000E+00
  8.00000000E-01  8.00000000E-01  1.50000000E+00  8.00000000E-01  8.00000000E-01
  1.50000000E+00  8.00000000E-01  8.00000000E-01  1.50000000E+00  8.00000000E-01
  8.00000000E-01  1.50000000E+00  8.00000000E-01  8.00000000E-01  1.50000000E+00
  8.00000000E-01  8.00000000E-01  1.50000000E+00  8.00000000E-01  8.00000000E-01
  1.50000000E+00  8.00000000E-01  8.00000000E-01  1.50000000E+00  8.00000000E-01
  8.00000000E-01  1.50000000E+00  8.00000000E-01  8.00000000E-01  1.50000000E+00
  8.00000000E-01  8.00000000E-01  1.50000000E+00  8.00000000E-01  8.00000000E-01
  1.50000000E+00  8.00000000E-01  8.00000000E-01  1.50000000E+00  8.00000000E-01
  8.00000000E-01  1.50000000E+00  8.00000000E-01  8.00000000E-01  1.50000000E+00
  8.00000000E-01  8.00000000E-01  1.50000000E+00  8.00000000E-01  8.00000000E-01
  1.50000000E+00  8.00000000E-01  8.00000000E-01  1.50000000E+00  8.00000000E-01
  8.00000000E-01  1.50000000E+00  8.00000000E-01  8.00000000E-01  1.50000000E+00
  8.00000000E-01  8.00000000E-01  1.50000000E+00  8.00000000E-01  8.00000000E-01
  1.50000000E+00  8.00000000E-01  8.00000000E-01  1.50000000E+00  8.00000000E-01
  8.00000000E-01  1.50000000E+00  8.00000000E-01  8.00000000E-01  1.50000000E+00
  8.00000000E-01  8.00000000E-01  1.50000000E+00  8.00000000E-01  8.00000000E-01
  1.50000000E+00  8.00000000E-01  8.00000000E-01  1.50000000E+00  8.00000000E-01
  8.00000000E-01  1.50000000E+00  8.00000000E-01  8.00000000E-01  1.50000000E+00
  8.00000000E-01  8.00000000E-01  1.50000000E+00  8.00000000E-01  8.00000000E-01
  1.50000000E+00  8.00000000E-01  8.00000000E-01  1.50000000E+00  8.00000000E-01
  8.00000000E-01  1.50000000E+00  8.00000000E-01  8.00000000E-01  1.50000000E+00
  8.00000000E-01  8.00000000E-01  1.50000000E+00  8.00000000E-01  8.00000000E-01
  1.50000000E+00  8.00000000E-01  8.00000000E-01  1.50000000E+00  8.00000000E-01
  8.00000000E-01  1.50000000E+00  8.00000000E-01  8.00000000E-01  1.50000000E+00
  8.00000000E-01  8.00000000E-01  1.50000000E+00  8.00000000E-01  8.00000000E-01
  1.50000000E+00  8.00000000E-01  8.00000000E-01  1.50000000E+00  8.00000000E-01
  8.00000000E-01  1.50000000E+00  8.00000000E-01  8.00000000E-01  1.50000000E+00
  8.00000000E-01  8.00000000E-01  1.50000000E+00  8.00000000E-01  8.00000000E-01
  1.50000000E+00  8.00000000E-01  8.00000000E-01  1.50000000E+00  8.00000000E-01
  8.00000000E-01  1.50000000E+00  8.00000000E-01  8.00000000E-01  1.50000000E+00
  8.00000000E-01  8.00000000E-01  1.50000000E+00  8.00000000E-01  8.00000000E-01
  1.50000000E+00  8.00000000E-01  8.00000000E-01  1.50000000E+00  8.00000000E-01
  8.00000000E-01  1.50000000E+00  8.00000000E-01  8.00000000E-01  1.50000000E+00
  8.00000000E-01  8.00000000E-01  1.50000000E+00  8.00000000E-01  8.00000000E-01
  1.50000000E+00  8.00000000E-01  8.00000000E-01  1.50000000E+00  8.00000000E-01
  8.00000000E-01  1.50000000E+00  8.00000000E-01  8.00000000E-01  1.50000000E+00
  8.00000000E-01  8.00000000E-01  1.50000000E+00  8.00000000E-01  8.00000000E-01
  1.50000000E+00  8.00000000E-01  8.00000000E-01  1.50000000E+00  8.00000000E-01
  8.00000000E-01  1.50000000E+00  8.00000000E-01  8.00000000E-01  1.50000000E+00
  8.00000000E-01  8.00000000E-01  1.50000000E+00  8.00000000E-01  8.00000000E-01
  1.50000000E+00  8.00000000E-01  8.00000000E-01  1.50000000E+00  8.00000000E-01
  8.00000000E-01  1.50000000E+00  8.00000000E-01  8.00000000E-01  1.50000000E+00
  8.00000000E-01  8.00000000E-01  1.50000000E+00  8.00000000E-01  8.00000000E-01
  1.50000000E+00  8.00000000E-01  8.00000000E-01  1.50000000E+00  8.00000000E-01
  8.00000000E-01  1.50000000E+00  8.00000000E-01  8.00000000E-01  1.50000000E+00
  8.00000000E-01  8.00000000E-01  1.50000000E+00  8.00000000E-01  8.00000000E-01
  1.50000000E+00  8.00000000E-01  8.00000000E-01  1.50000000E+00  8.00000000E-01
  8.00000000E-01  1.50000000E+00  8.00000000E-01  8.00000000E-01  1.50000000E+00
  8.00000000E-01  8.00000000E-01  1.50000000E+00  8.00000000E-01  8.00000000E-01
  1.50000000E+00  8.00000000E-01  8.00000000E-01  1.50000000E+00  8.00000000E-01
  8.00000000E-01  1.50000000E+00  8.00000000E-01  8.00000000E-01  1.50000000E+00
  8.00000000E-01  8.00000000E-01  1.50000000E+00  8.00000000E-01  8.00000000E-01
  1.50000000E+00  8.00000000E-01  8.00000000E-01  1.50000000E+00  8.00000000E-01
  8.00000000E-01  1.50000000E+00  8.00000000E-01  8.00000000E-01  1.50000000E+00
  8.00000000E-01  8.00000000E-01  1.50000000E+00  8.00000000E-01  8.00000000E-01
  1.50000000E+00  8.00000000E-01  8.00000000E-01  1.50000000E+00  8.00000000E-01
  8.00000000E-01  1.50000000E+00  8.00000000E-01  8.00000000E-01  1.50000000E+00
  8.00000000E-01  8.00000000E-01  1.50000000E+00  8.00000000E-01  8.00000000E-01
  1.50000000E+00  8.00000000E-01  8.00000000E-01  1.50000000E+00  8.00000000E-01
  8.00000000E-01  1.50000000E+00  8.00000000E-01  8.00000000E-01  1.50000000E+00
  8.00000000E-01  8.00000000E-01  1.50000000E+00  8.00000000E-01  8.00000000E-01
  1.50000000E+00  8.00000000E-01  8.00000000E-01  1.50000000E+00  8.00000000E-01
  8.00000000E-01  1.50000000E+00  8.00000000E-01  8.00000000E-01  1.50000000E+00
  8.00000000E-01  8.00000000E-01  1.50000000E+00  8.00000000E-01  8.00000000E-01
  1.50000000E+00  8.00000000E-01  8.00000000E-01  1.50000000E+00  8.00000000E-01
  8.00000000E-01  1.50000000E+00  8.00000000E-01  8.00000000E-01  1.50000000E+00
  8.00000000E-01  8.00000000E-01  1.50000000E+00  8.00000000E-01  8.00000000E-01
  1.50000000E+00  8.00000000E-01  8.00000000E-01  1.50000000E+00  8.00000000E-01
  8.00000000E-01  1.50000000E+00  8.00000000E-01  8.00000000E-01  1.50000000E+00
  8.00000000E-01  8.00000000E-01  1.50000000E+00  8.00000000E-01  8.00000000E-01
  1.50000000E+00  8.00000000E-01  8.00000000E-01  1.50000000E+00  8.00000000E-01
  8.00000000E-01  1.50000000E+00  8.00000000E-01  8.00000000E-01  1.50000000E+00
  8.00000000E-01  8.00000000E-01  1.50000000E+00  8.00000000E-01  8.00000000E-01
  1.50000000E+00  8.00000000E-01  8.00000000E-01  1.50000000E+00  8.00000000E-01
  8.00000000E-01  1.50000000E+00  8.00000000E-01  8.00000000E-01  1.50000000E+00
  8.00000000E-01  8.00000000E-01  1.50000000E+00  8.00000000E-01  8.00000000E-01
  1.50000000E+00  8.00000000E-01  8.00000000E-01  1.50000000E+00  8.00000000E-01
  8.00000000E-01  1.50000000E+00  8.00000000E-01  8.00000000E-01  1.50000000E+00
  8.00000000E-01  8.00000000E-01  1.50000000E+00  8.00000000E-01  8.00000000E-01
  1.50000000E+00  8.00000000E-01  8.00000000E-01  1.50000000E+00  8.00000000E-01
  8.00000000E-01  1.50000000E+00  8.00000000E-01  8.00000000E-01  1.50000000E+00
  8.00000000E-01  8.00000000E-01  1.50000000E+00  8.00000000E-01  8.00000000E-01
  1.50000000E+00  8.00000000E-01  8.00000000E-01  1.50000000E+00  8.00000000E-01
  8.00000000E-01  1.50000000E+00  8.00000000E-01  8.00000000E-01  1.50000000E+00
  8.00000000E-01  8.00000000E-01  1.50000000E+00  8.00000000E-01  8.00000000E-01
  1.50000000E+00  8.00000000E-01  8.00000000E-01  1.50000000E+00  8.00000000E-01
  8.00000000E-01  1.50000000E+00  8.00000000E-01  8.00000000E-01  1.50000000E+00
  8.00000000E-01  8.00000000E-01  1.50000000E+00  8.00000000E-01  8.00000000E-01
  1.50000000E+00  8.00000000E-01  8.00000000E-01  1.50000000E+00  8.00000000E-01
  8.00000000E-01  1.50000000E+00  8.00000000E-01  8.00000000E-01  1.50000000E+00
  8.00000000E-01  8.00000000E-01  1.50000000E+00  8.00000000E-01  8.00000000E-01
  1.50000000E+00  8.00000000E-01  8.00000000E-01  1.50000000E+00  8.00000000E-01
  8.00000000E-01  1.50000000E+00  8.00000000E-01  8.00000000E-01  1.50000000E+00
  8.00000000E-01  8.00000000E-01  1.50000000E+00  8.00000000E-01  8.00000000E-01
  1.50000000E+00  8.00000000E-01  8.00000000E-01  1.50000000E+00  8.00000000E-01
  8.00000000E-01  1.50000000E+00  8.00000000E-01  8.00000000E-01  1.50000000E+00
  8.00000000E-01  8.00000000E-01  1.50000000E+00  8.00000000E-01  8.00000000E-01
  1.50000000E+00  8.00000000E-01  8.00000000E-01  1.50000000E+00  8.00000000E-01
  8.00000000E-01  1.50000000E+00  8.00000000E-01  8.00000000E-01  1.50000000E+00
  8.00000000E-01  8.00000000E-01  1.50000000E+00  8.00000000E-01  8.00000000E-01
  1.50000000E+00  8.00000000E-01  8.00000000E-01  1.50000000E+00  8.00000000E-01
  8.00000000E-01  1.50000000E+00  8.00000000E-01  8.00000000E-01  1.50000000E+00
  8.00000000E-01  8.00000000E-01  1.50000000E+00  8.00000000E-01  8.00000000E-01
  1.50000000E+00  8.00000000E-01  8.00000000E-01  1.50000000E+00  8.00000000E-01
  8.00000000E-01  1.50000000E+00  8.00000000E-01  8.00000000E-01  1.50000000E+00
  8.00000000E-01  8.00000000E-01  1.50000000E+00  8.00000000E-01  8.00000000E-01
  1.50000000E+00  8.00000000E-01  8.00000000E-01  1.50000000E+00  8.00000000E-01
  8.00000000E-01  1.50000000E+00  8.00000000E-01  8.00000000E-01  1.50000000E+00
  8.00000000E-01  8.00000000E-01  1.50000000E+00  8.00000000E-01  8.00000000E-01
  1.50000000E+00  8.00000000E-01  8.00000000E-01  1.50000000E+00  8.00000000E-01
  8.00000000E-01  1.50000000E+00  8.00000000E-01  8.00000000E-01  1.50000000E+00
  8.00000000E-01  8.00000000E-01  1.50000000E+00  8.00000000E-01  8.00000000E-01
  1.50000000E+00  8.00000000E-01  8.00000000E-01  1.50000000E+00  8.00000000E-01
  8.00000000E-01  1.50000000E+00  8.00000000E-01  8.00000000E-01  1.50000000E+00
  8.00000000E-01  8.00000000E-01  1.50000000E+00  8.00000000E-01  8.00000000E-01
  1.50000000E+00  8.00000000E-01  8.00000000E-01  1.50000000E+00  8.00000000E-01
  8.00000000E-01  1.50000000E+00  8.00000000E-01  8.00000000E-01  1.50000000E+00
  8.00000000E-01  8.00000000E-01  1.50000000E+00  8.00000000E-01  8.00000000E-01
  1.50000000E+00  8.00000000E-01  8.00000000E-01  1.50000000E+00  8.00000000E-01
  8.00000000E-01  1.50000000E+00  8.00000000E-01  8.00000000E-01  1.50000000E+00
  8.00000000E-01  8.00000000E-01  1.50000000E+00  8.00000000E-01  8.00000000E-01
  1.50000000E+00  8.00000000E-01  8.00000000E-01  1.50000000E+00  8.00000000E-01
  8.00000000E-01  1.50000000E+00  8.00000000E-01  8.00000000E-01  1.50000000E+00
  8.00000000E-01  8.00000000E-01  1.50000000E+00  8.00000000E-01  8.00000000E-01
  1.50000000E+00  8.00000000E-01  8.00000000E-01  1.50000000E+00  8.00000000E-01
  8.00000000E-01  1.50000000E+00  8.00000000E-01  8.00000000E-01  1.50000000E+00
  8.00000000E-01  8.00000000E-01  1.50000000E+00  8.00000000E-01  8.00000000E-01
  1.50000000E+00  8.00000000E-01  8.00000000E-01  1.50000000E+00  8.00000000E-01
  8.00000000E-01  1.50000000E+00  8.00000000E-01  8.00000000E-01  1.50000000E+00
  8.00000000E-01  8.00000000E-01  1.50000000E+00  8.00000000E-01  8.00000000E-01
  1.50000000E+00  8.00000000E-01  8.00000000E-01  1.50000000E+00  8.00000000E-01
  8.00000000E-01  1.50000000E+00  8.00000000E-01  8.00000000E-01  1.50000000E+00
  8.00000000E-01  8.00000000E-01  1.50000000E+00  8.00000000E-01  8.00000000E-01
  1.50000000E+00  8.00000000E-01  8.00000000E-01  1.50000000E+00  8.00000000E-01
  8.00000000E-01  1.50000000E+00  8.00000000E-01  8.00000000E-01  1.50000000E+00
  8.00000000E-01  8.00000000E-01  1.50000000E+00  8.00000000E-01  8.00000000E-01
  1.50000000E+00  8.00000000E-01  8.00000000E-01  1.50000000E+00  8.00000000E-01
  8.00000000E-01  1.50000000E+00  8.00000000E-01  8.00000000E-01  1.50000000E+00
  8.00000000E-01  8.00000000E-01  1.50000000E+00  8.00000000E-01  8.00000000E-01
  1.50000000E+00  8.00000000E-01  8.00000000E-01  1.50000000E+00  8.00000000E-01
  8.00000000E-01  1.50000000E+00  8.00000000E-01  8.00000000E-01  1.50000000E+00
  8.00000000E-01  8.00000000E-01  1.50000000E+00  8.00000000E-01  8.00000000E-01
  1.50000000E+00  8.00000000E-01  8.00000000E-01  1.50000000E+00  8.00000000E-01
  8.00000000E-01  1.50000000E+00  8.00000000E-01  8.00000000E-01  1.50000000E+00
  8.00000000E-01  8.00000000E-01  1.50000000E+00  8.00000000E-01  8.00000000E-01
  1.50000000E+00  8.00000000E-01  8.00000000E-01  1.50000000E+00  8.00000000E-01
  8.00000000E-01  1.50000000E+00  8.00000000E-01  8.00000000E-01  1.50000000E+00
  8.00000000E-01  8.00000000E-01  1.50000000E+00  8.00000000E-01  8.00000000E-01
  1.50000000E+00  8.00000000E-01  8.00000000E-01  1.50000000E+00  8.00000000E-01
  8.00000000E-01  1.50000000E+00  8.00000000E-01  8.00000000E-01  1.50000000E+00
  8.00000000E-01  8.00000000E-01  1.50000000E+00  8.00000000E-01  8.00000000E-01
  1.50000000E+00  8.00000000E-01  8.00000000E-01  1.50000000E+00  8.00000000E-01
  8.00000000E-01  1.50000000E+00  8.00000000E-01  8.00000000E-01  1.50000000E+00
  8.00000000E-01  8.00000000E-01  1.50000000E+00  8.00000000E-01  8.00000000E-01
  1.50000000E+00  8.00000000E-01  8.00000000E-01  1.50000000E+00  8.00000000E-01
  8.00000000E-01  1.50000000E+00  8.00000000E-01  8.00000000E-01  1.50000000E+00
  8.00000000E-01  8.00000000E-01  1.50000000E+00  8.00000000E-01  8.00000000E-01
  1.50000000E+00  8.00000000E-01  8.00000000E-01  1.50000000E+00  8.00000000E-01
  8.00000000E-01  1.50000000E+00  8.00000000E-01  8.00000000E-01  1.50000000E+00
  8.00000000E-01  8.00000000E-01  1.50000000E+00  8.00000000E-01  8.00000000E-01
  1.50000000E+00  8.00000000E-01  8.00000000E-01  1.50000000E+00  8.00000000E-01
  8.00000000E-01  1.50000000E+00  8.00000000E-01  8.00000000E-01  1.50000000E+00
  8.00000000E-01  8.00000000E-01  1.50000000E+00  8.00000000E-01  8.00000000E-01
  1.50000000E+00  8.00000000E-01  8.00000000E-01  1.50000000E+00  8.00000000E-01
  8.00000000E-01  1.50000000E+00  8.00000000E-01  8.00000000E-01  1.50000000E+00
  8.00000000E-01  8.00000000E-01  1.50000000E+00  8.00000000E-01  8.00000000E-01
  1.50000000E+00  8.00000000E-01  8.00000000E-01  1.50000000E+00  8.00000000E-01
  8.00000000E-01  1.50000000E+00  8.00000000E-01  8.00000000E-01  1.50000000E+00
  8.00000000E-01  8.00000000E-01  1.50000000E+00  8.00000000E-01  8.00000000E-01
  1.50000000E+00  8.00000000E-01  8.00000000E-01  1.50000000E+00  8.00000000E-01
  8.00000000E-01  1.50000000E+00  8.00000000E-01  8.00000000E-01  1.50000000E+00
  8.00000000E-01  8.00000000E-01  1.50000000E+00  8.00000000E-01  8.00000000E-01
  1.50000000E+00  8.00000000E-01  8.00000000E-01  1.50000000E+00  8.00000000E-01
  8.00000000E-01  1.50000000E+00  8.00000000E-01  8.00000000E-01  1.50000000E+00
  8.00000000E-01  8.00000000E-01  1.50000000E+00  8.00000000E-01  8.00000000E-01
  1.50000000E+00  8.00000000E-01  8.00000000E-01  1.50000000E+00  8.00000000E-01
  8.00000000E-01  1.50000000E+00  8.00000000E-01  8.00000000E-01  1.50000000E+00
  8.00000000E-01  8.00000000E-01  1.50000000E+00  8.00000000E-01  8.00000000E-01
  1.50000000E+00  8.00000000E-01  8.00000000E-01  1.50000000E+00  8.00000000E-01
  8.00000000E-01  1.50000000E+00  8.00000000E-01  8.00000000E-01  1.50000000E+00
  8.00000000E-01  8.00000000E-01  1.50000000E+00  8.00000000E-01  8.00000000E-01
  1.50000000E+00  8.00000000E-01  8.00000000E-01  1.50000000E+00  8.00000000E-01
  8.00000000E-01  1.50000000E+00  8.00000000E-01  8.00000000E-01  1.50000000E+00
  8.00000000E-01  8.00000000E-01  1.50000000E+00  8.00000000E-01  8.00000000E-01
  1.50000000E+00  8.00000000E-01  8.00000000E-01  1.50000000E+00  8.00000000E-01
  8.00000000E-01  1.50000000E+00  8.00000000E-01  8.00000000E-01  1.50000000E+00
  8.00000000E-01  8.00000000E-01  1.50000000E+00  8.00000000E-01  8.00000000E-01
  1.50000000E+00  8.00000000E-01  8.00000000E-01  1.50000000E+00  8.00000000E-01
  8.00000000E-01  1.50000000E+00  8.00000000E-01  8.00000000E-01  1.50000000E+00
  8.00000000E-01  8.00000000E-01  1.50000000E+00  8.00000000E-01  8.00000000E-01
  1.50000000E+00  8.00000000E-01  8.00000000E-01  1.50000000E+00  8.00000000E-01
  8.00000000E-01  1.50000000E+00  8.00000000E-01  8.00000000E-01  1.50000000E+00
  8.00000000E-01  8.00000000E-01  1.50000000E+00  8.00000000E-01  8.00000000E-01
  1.50000000E+00  8.00000000E-01  8.00000000E-01  1.50000000E+00  8.00000000E-01
  8.00000000E-01  1.50000000E+00  8.00000000E-01  8.00000000E-01  1.50000000E+00
  8.00000000E-01  8.00000000E-01  1.50000000E+00  8.00000000E-01  8.00000000E-01
  1.50000000E+00  8.00000000E-01  8.00000000E-01  1.50000000E+00  8.00000000E-01
  8.00000000E-01  1.50000000E+00  8.00000000E-01  8.00000000E-01  1.50000000E+00
  8.00000000E-01  8.00000000E-01  1.50000000E+00  8.00000000E-01  8.00000000E-01
  1.50000000E+00  8.00000000E-01  8.00000000E-01  1.50000000E+00  8.00000000E-01
  8.00000000E-01  1.50000000E+00  8.00000000E-01  8.00000000E-01  1.50000000E+00
  8.00000000E-01  8.00000000E-01  1.50000000E+00  8.00000000E-01  8.00000000E-01
  1.50000000E+00  8.00000000E-01  8.00000000E-01  1.50000000E+00  8.00000000E-01
  8.00000000E-01  1.50000000E+00  8.00000000E-01  8.00000000E-01  1.50000000E+00
  8.00000000E-01  8.00000000E-01  1.50000000E+00  8.00000000E-01  8.00000000E-01
  1.50000000E+00  8.00000000E-01  8.00000000E-01  1.50000000E+00  8.00000000E-01
  8.00000000E-01  1.50000000E+00  8.00000000E-01  8.00000000E-01  1.50000000E+00
  8.00000000E-01  8.00000000E-01  1.50000000E+00  8.00000000E-01  8.00000000E-01
  1.50000000E+00  8.00000000E-01  8.00000000E-01  1.50000000E+00  8.00000000E-01
  8.00000000E-01  1.50000000E+00  8.00000000E-01  8.00000000E-01  1.50000000E+00
  8.00000000E-01  8.00000000E-01  1.50000000E+00  8.00000000E-01  8.00000000E-01
  1.50000000E+00  8.00000000E-01  8.00000000E-01  1.50000000E+00  8.00000000E-01
  8.00000000E-01  1.50000000E+00  8.00000000E-01  8.00000000E-01  1.50000000E+00
  8.00000000E-01  8.00000000E-01  1.50000000E+00  8.00000000E-01  8.00000000E-01
  1.50000000E+00  8.00000000E-01  8.00000000E-01  1.50000000E+00  8.00000000E-01
  8.00000000E-01  1.50000000E+00  8.00000000E-01  8.00000000E-01  1.50000000E+00
  8.00000000E-01  8.00000000E-01  1.50000000E+00  8.00000000E-01  8.00000000E-01
  1.50000000E+00  8.00000000E-01  8.00000000E-01  1.50000000E+00  8.00000000E-01
  8.00000000E-01  1.50000000E+00  8.00000000E-01  8.00000000E-01  1.50000000E+00
  8.00000000E-01  8.00000000E-01  1.50000000E+00  8.00000000E-01  8.00000000E-01
  1.50000000E+00  8.00000000E-01  8.00000000E-01  1.50000000E+00  8.00000000E-01
  8.00000000E-01  1.50000000E+00  8.00000000E-01  8.00000000E-01  1.50000000E+00
  8.00000000E-01  8.00000000E-01  1.50000000E+00  8.00000000E-01  8.00000000E-01
  1.50000000E+00  8.00000000E-01  8.00000000E-01  1.50000000E+00  8.00000000E-01
  8.00000000E-01  1.50000000E+00  8.00000000E-01  8.00000000E-01  1.50000000E+00
  8.00000000E-01  8.00000000E-01  1.50000000E+00  8.00000000E-01  8.00000000E-01
  1.50000000E+00  8.00000000E-01  8.00000000E-01  1.50000000E+00  8.00000000E-01
  8.00000000E-01  1.50000000E+00  8.00000000E-01  8.00000000E-01  1.50000000E+00
  8.00000000E-01  8.00000000E-01  1.50000000E+00  8.00000000E-01  8.00000000E-01
  1.50000000E+00  8.00000000E-01  8.00000000E-01  1.50000000E+00  8.00000000E-01
  8.00000000E-01  1.50000000E+00  8.00000000E-01  8.00000000E-01  1.50000000E+00
  8.00000000E-01  8.00000000E-01  1.50000000E+00  8.00000000E-01  8.00000000E-01
  1.50000000E+00  8.00000000E-01  8.00000000E-01  1.50000000E+00  8.00000000E-01
  8.00000000E-01  1.50000000E+00  8.00000000E-01  8.00000000E-01  1.50000000E+00
  8.00000000E-01  8.00000000E-01  1.50000000E+00  8.00000000E-01  8.00000000E-01
  1.50000000E+00  8.00000000E-01  8.00000000E-01  1.50000000E+00  8.00000000E-01
  8.00000000E-01  1.50000000E+00  8.00000000E-01  8.00000000E-01  1.50000000E+00
  8.00000000E-01  8.00000000E-01  1.50000000E+00  8.00000000E-01  8.00000000E-01
  1.50000000E+00  8.00000000E-01  8.00000000E-01  1.50000000E+00  8.00000000E-01
  8.00000000E-01  1.50000000E+00  8.00000000E-01  8.00000000E-01  1.50000000E+00
  8.00000000E-01  8.00000000E-01  1.50000000E+00  8.00000000E-01  8.00000000E-01
  1.50000000E+00  8.00000000E-01  8.00000000E-01  1.50000000E+00  8.00000000E-01
  8.00000000E-01  1.50000000E+00  8.00000000E-01  8.00000000E-01  1.50000000E+00
  8.00000000E-01  8.00000000E-01  1.50000000E+00  8.00000000E-01  8.00000000E-01
  1.50000000E+00  8.00000000E-01  8.00000000E-01  1.50000000E+00  8.00000000E-01
  8.00000000E-01  1.50000000E+00  8.00000000E-01  8.00000000E-01  1.50000000E+00
  8.00000000E-01  8.00000000E-01  1.50000000E+00  8.00000000E-01  8.00000000E-01
  1.50000000E+00  8.00000000E-01  8.00000000E-01  1.50000000E+00  8.00000000E-01
  8.00000000E-01  1.50000000E+00  8.00000000E-01  8.00000000E-01  1.50000000E+00
  8.00000000E-01  8.00000000E-01  1.50000000E+00  8.00000000E-01  8.00000000E-01
  1.50000000E+00  8.00000000E-01  8.00000000E-01  1.50000000E+00  8.00000000E-01
  8.00000000E-01  1.50000000E+00  8.00000000E-01  8.00000000E-01  1.50000000E+00
  8.00000000E-01  8.00000000E-01  1.50000000E+00  8.00000000E-01  8.00000000E-01
  1.50000000E+00  8.00000000E-01  8.00000000E-01  1.50000000E+00  8.00000000E-01
  8.00000000E-01  1.50000000E+00  8.00000000E-01  8.00000000E-01  1.50000000E+00
  8.00000000E-01  8.00000000E-01  1.50000000E+00  8.00000000E-01  8.00000000E-01
  1.50000000E+00  8.00000000E-01  8.00000000E-01  1.50000000E+00  8.00000000E-01
  8.00000000E-01  1.50000000E+00  8.00000000E-01  8.00000000E-01  1.50000000E+00
  8.00000000E-01  8.00000000E-01  1.50000000E+00  8.00000000E-01  8.00000000E-01
  1.50000000E+00  8.00000000E-01  8.00000000E-01  1.50000000E+00  8.00000000E-01
  8.00000000E-01  1.50000000E+00  8.00000000E-01  8.00000000E-01  1.50000000E+00
  8.00000000E-01  8.00000000E-01  1.50000000E+00  8.00000000E-01  8.00000000E-01
  1.50000000E+00  8.00000000E-01  8.00000000E-01  1.50000000E+00  8.00000000E-01
  8.00000000E-01  1.50000000E+00  8.00000000E-01  8.00000000E-01  1.50000000E+00
  8.00000000E-01  8.00000000E-01  1.50000000E+00  8.00000000E-01  8.00000000E-01
  1.50000000E+00  8.00000000E-01  8.00000000E-01  1.50000000E+00  8.00000000E-01
  8.00000000E-01  1.50000000E+00  8.00000000E-01  8.00000000E-01  1.50000000E+00
  8.00000000E-01  8.00000000E-01  1.50000000E+00  8.00000000E-01  8.00000000E-01
  1.50000000E+00  8.00000000E-01  8.00000000E-01  1.50000000E+00  8.00000000E-01
  8.00000000E-01  1.50000000E+00  8.00000000E-01  8.00000000E-01  1.50000000E+00
  8.00000000E-01  8.00000000E-01  1.50000000E+00  8.00000000E-01  8.00000000E-01
  1.50000000E+00  8.00000000E-01  8.00000000E-01  1.50000000E+00  8.00000000E-01
  8.00000000E-01  1.50000000E+00  8.00000000E-01  8.00000000E-01  1.50000000E+00
  8.00000000E-01  8.00000000E-01  1.50000000E+00  8.00000000E-01  8.00000000E-01
  1.50000000E+00  8.00000000E-01  8.00000000E-01  1.50000000E+00  8.00000000E-01
  8.00000000E-01  1.50000000E+00  8.00000000E-01  8.00000000E-01  1.50000000E+00
  8.00000000E-01  8.00000000E-01  1.50000000E+00  8.00000000E-01  8.00000000E-01
  1.50000000E+00  8.00000000E-01  8.00000000E-01  1.50000000E+00  8.00000000E-01
  8.00000000E-01  1.50000000E+00  8.00000000E-01  8.00000000E-01  1.50000000E+00
  8.00000000E-01  8.00000000E-01  1.50000000E+00  8.00000000E-01  8.00000000E-01
  1.50000000E+00  8.00000000E-01  8.00000000E-01  1.50000000E+00  8.00000000E-01
  8.00000000E-01  1.50000000E+00  8.00000000E-01  8.00000000E-01  1.50000000E+00
  8.00000000E-01  8.00000000E-01  1.50000000E+00  8.00000000E-01  8.00000000E-01
  1.50000000E+00  8.00000000E-01  8.00000000E-01  1.50000000E+00  8.00000000E-01
  8.00000000E-01  1.50000000E+00  8.00000000E-01  8.00000000E-01  1.50000000E+00
  8.00000000E-01  8.00000000E-01  1.50000000E+00  8.00000000E-01  8.00000000E-01
  1.50000000E+00  8.00000000E-01  8.00000000E-01  1.50000000E+00  8.00000000E-01
  8.00000000E-01  1.50000000E+00  8.00000000E-01  8.00000000E-01  1.50000000E+00
  8.00000000E-01  8.00000000E-01  1.50000000E+00  8.00000000E-01  8.00000000E-01
  1.50000000E+00  8.00000000E-01  8.00000000E-01  1.50000000E+00  8.00000000E-01
  8.00000000E-01  1.50000000E+00  8.00000000E-01  8.00000000E-01  1.50000000E+00
  8.00000000E-01  8.00000000E-01  1.50000000E+00  8.00000000E-01  8.00000000E-01
  1.50000000E+00  8.00000000E-01  8.00000000E-01  1.50000000E+00  8.00000000E-01
  8.00000000E-01  1.50000000E+00  8.00000000E-01  8.00000000E-01  1.50000000E+00
  8.00000000E-01  8.00000000E-01  1.50000000E+00  8.00000000E-01  8.00000000E-01
  1.50000000E+00  8.00000000E-01  8.00000000E-01  1.50000000E+00  8.00000000E-01
  8.00000000E-01  1.50000000E+00  8.00000000E-01  8.00000000E-01  1.50000000E+00
  8.00000000E-01  8.00000000E-01  1.50000000E+00  8.00000000E-01  8.00000000E-01
  1.50000000E+00  8.00000000E-01  8.00000000E-01  1.50000000E+00  8.00000000E-01
  8.00000000E-01  1.50000000E+00  8.00000000E-01  8.00000000E-01  1.50000000E+00
  8.00000000E-01  8.00000000E-01  1.50000000E+00  8.00000000E-01  8.00000000E-01
  1.50000000E+00  8.00000000E-01  8.00000000E-01  1.50000000E+00  8.00000000E-01
  8.00000000E-01  1.50000000E+00  8.00000000E-01  8.00000000E-01  1.50000000E+00
  8.00000000E-01  8.00000000E-01  1.50000000E+00  8.00000000E-01  8.00000000E-01
  1.50000000E+00  8.00000000E-01  8.00000000E-01  1.50000000E+00  8.00000000E-01
  8.00000000E-01  1.50000000E+00  8.00000000E-01  8.00000000E-01  1.50000000E+00
  8.00000000E-01  8.00000000E-01  1.50000000E+00  8.00000000E-01  8.00000000E-01
  1.50000000E+00  8.00000000E-01  8.00000000E-01  1.50000000E+00  8.00000000E-01
  8.00000000E-01  1.50000000E+00  8.00000000E-01  8.00000000E-01  1.50000000E+00
  8.00000000E-01  8.00000000E-01  1.50000000E+00  8.00000000E-01  8.00000000E-01
  1.50000000E+00  8.00000000E-01  8.00000000E-01  1.50000000E+00  8.00000000E-01
  8.00000000E-01  1.50000000E+00  8.00000000E-01  8.00000000E-01  1.50000000E+00
  8.00000000E-01  8.00000000E-01  1.50000000E+00  8.00000000E-01  8.00000000E-01
  1.50000000E+00  8.00000000E-01  8.00000000E-01  1.50000000E+00  8.00000000E-01
  8.00000000E-01  1.50000000E+00  8.00000000E-01  8.00000000E-01  1.50000000E+00
  8.00000000E-01  8.00000000E-01  1.50000000E+00  8.00000000E-01  8.00000000E-01
  1.50000000E+00  8.00000000E-01  8.00000000E-01  1.50000000E+00  8.00000000E-01
  8.00000000E-01  1.50000000E+00  8.00000000E-01  8.00000000E-01  1.50000000E+00
  8.00000000E-01  8.00000000E-01  1.50000000E+00  8.00000000E-01  8.00000000E-01
  1.50000000E+00  8.00000000E-01  8.00000000E-01  1.50000000E+00  8.00000000E-01
  8.00000000E-01  1.50000000E+00  8.00000000E-01  8.00000000E-01  1.50000000E+00
  8.00000000E-01  8.00000000E-01  1.50000000E+00  8.00000000E-01  8.00000000E-01
  1.50000000E+00  8.00000000E-01  8.00000000E-01  1.50000000E+00  8.00000000E-01
  8.00000000E-01  1.50000000E+00  8.00000000E-01  8.00000000E-01  1.50000000E+00
  8.00000000E-01  8.00000000E-01  1.50000000E+00  8.00000000E-01  8.00000000E-01
  1.50000000E+00  8.00000000E-01  8.00000000E-01  1.50000000E+00  8.00000000E-01
  8.00000000E-01  1.50000000E+00  8.00000000E-01  8.00000000E-01  1.50000000E+00
  8.00000000E-01  8.00000000E-01  1.50000000E+00  8.00000000E-01  8.00000000E-01
  1.50000000E+00  8.00000000E-01  8.00000000E-01  1.50000000E+00  8.00000000E-01
  8.00000000E-01  1.50000000E+00  8.00000000E-01  8.00000000E-01  1.50000000E+00
  8.00000000E-01  8.00000000E-01  1.50000000E+00  8.00000000E-01  8.00000000E-01
  1.50000000E+00  8.00000000E-01  8.00000000E-01  1.50000000E+00  8.00000000E-01
  8.00000000E-01  1.50000000E+00  8.00000000E-01  8.00000000E-01  1.50000000E+00
  8.00000000E-01  8.00000000E-01  1.50000000E+00  8.00000000E-01  8.00000000E-01
  1.50000000E+00  8.00000000E-01  8.00000000E-01  1.50000000E+00  8.00000000E-01
  8.00000000E-01  1.50000000E+00  8.00000000E-01  8.00000000E-01  1.50000000E+00
  8.00000000E-01  8.00000000E-01  1.50000000E+00  8.00000000E-01  8.00000000E-01
  1.50000000E+00  8.00000000E-01  8.00000000E-01  1.50000000E+00  8.00000000E-01
  8.00000000E-01  1.50000000E+00  8.00000000E-01  8.00000000E-01  1.50000000E+00
  8.00000000E-01  8.00000000E-01  1.50000000E+00  8.00000000E-01  8.00000000E-01
  1.50000000E+00  8.00000000E-01  8.00000000E-01  1.50000000E+00  8.00000000E-01
  8.00000000E-01  1.50000000E+00  8.00000000E-01  8.00000000E-01  1.50000000E+00
  8.00000000E-01  8.00000000E-01  1.50000000E+00  8.00000000E-01  8.00000000E-01
  1.50000000E+00  8.00000000E-01  8.00000000E-01  1.50000000E+00  8.00000000E-01
  8.00000000E-01  1.50000000E+00  8.00000000E-01  8.00000000E-01  1.50000000E+00
  8.00000000E-01  8.00000000E-01  1.50000000E+00  8.00000000E-01  8.00000000E-01
  1.50000000E+00  8.00000000E-01  8.00000000E-01  1.50000000E+00  8.00000000E-01
  8.00000000E-01  1.50000000E+00  8.00000000E-01  8.00000000E-01  1.50000000E+00
  8.00000000E-01  8.00000000E-01  1.50000000E+00  8.00000000E-01  8.00000000E-01
  1.50000000E+00  8.00000000E-01  8.00000000E-01  1.50000000E+00  8.00000000E-01
  8.00000000E-01  1.50000000E+00  8.00000000E-01  8.00000000E-01  1.50000000E+00
  8.00000000E-01  8.00000000E-01  1.50000000E+00  8.00000000E-01  8.00000000E-01
  1.50000000E+00  8.00000000E-01  8.00000000E-01  1.50000000E+00  8.00000000E-01
  8.00000000E-01  1.50000000E+00  8.00000000E-01  8.00000000E-01  1.50000000E+00
  8.00000000E-01  8.00000000E-01  1.50000000E+00  8.00000000E-01  8.00000000E-01
  1.50000000E+00  8.00000000E-01  8.00000000E-01  1.50000000E+00  8.00000000E-01
  8.00000000E-01  1.50000000E+00  8.00000000E-01  8.00000000E-01  1.50000000E+00
  8.00000000E-01  8.00000000E-01  1.50000000E+00  8.00000000E-01  8.00000000E-01
  1.50000000E+00  8.00000000E-01  8.00000000E-01  1.50000000E+00  8.00000000E-01
  8.00000000E-01  1.50000000E+00  8.00000000E-01  8.00000000E-01  1.50000000E+00
  8.00000000E-01  8.00000000E-01  1.50000000E+00  8.00000000E-01  8.00000000E-01
  1.50000000E+00  8.00000000E-01  8.00000000E-01  1.50000000E+00  8.00000000E-01
  8.00000000E-01  1.50000000E+00  8.00000000E-01  8.00000000E-01  1.50000000E+00
  8.00000000E-01  8.00000000E-01  1.50000000E+00  8.00000000E-01  8.00000000E-01
  1.50000000E+00  8.00000000E-01  8.00000000E-01  1.50000000E+00  8.00000000E-01
  8.00000000E-01  1.50000000E+00  8.00000000E-01  8.00000000E-01  1.50000000E+00
  8.00000000E-01  8.00000000E-01  1.50000000E+00  8.00000000E-01  8.00000000E-01
  1.50000000E+00  8.00000000E-01  8.00000000E-01  1.50000000E+00  8.00000000E-01
  8.00000000E-01  1.50000000E+00  8.00000000E-01  8.00000000E-01  1.50000000E+00
  8.00000000E-01  8.00000000E-01  1.50000000E+00  8.00000000E-01  8.00000000E-01
  1.50000000E+00  8.00000000E-01  8.00000000E-01  1.50000000E+00  8.00000000E-01
  8.00000000E-01  1.50000000E+00  8.00000000E-01  8.00000000E-01  1.50000000E+00
  8.00000000E-01  8.00000000E-01  1.50000000E+00  8.00000000E-01  8.00000000E-01
  1.50000000E+00  8.00000000E-01  8.00000000E-01  1.50000000E+00  8.00000000E-01
  8.00000000E-01  1.50000000E+00  8.00000000E-01  8.00000000E-01  1.50000000E+00
  8.00000000E-01  8.00000000E-01  1.50000000E+00  8.00000000E-01  8.00000000E-01
  1.50000000E+00  8.00000000E-01  8.00000000E-01  1.50000000E+00  8.00000000E-01
  8.00000000E-01  1.50000000E+00  8.00000000E-01  8.00000000E-01  1.50000000E+00
  8.00000000E-01  8.00000000E-01  1.50000000E+00  8.00000000E-01  8.00000000E-01
  1.50000000E+00  8.00000000E-01  8.00000000E-01  1.50000000E+00  8.00000000E-01
  8.00000000E-01  1.50000000E+00  8.00000000E-01  8.00000000E-01  1.50000000E+00
  8.00000000E-01  8.00000000E-01  1.50000000E+00  8.00000000E-01  8.00000000E-01
  1.50000000E+00  8.00000000E-01  8.00000000E-01  1.50000000E+00  8.00000000E-01
  8.00000000E-01  1.50000000E+00  8.00000000E-01  8.00000000E-01  1.50000000E+00
  8.00000000E-01  8.00000000E-01  1.50000000E+00  8.00000000E-01  8.00000000E-01
  1.50000000E+00  8.00000000E-01  8.00000000E-01  1.50000000E+00  8.00000000E-01
  8.00000000E-01  1.50000000E+00  8.00000000E-01  8.00000000E-01  1.50000000E+00
  8.00000000E-01  8.00000000E-01  1.50000000E+00  8.00000000E-01  8.00000000E-01
  1.50000000E+00  8.00000000E-01  8.00000000E-01  1.50000000E+00  8.00000000E-01
  8.00000000E-01  1.50000000E+00  8.00000000E-01  8.00000000E-01  1.50000000E+00
  8.00000000E-01  8.00000000E-01  1.50000000E+00  8.00000000E-01  8.00000000E-01
  1.50000000E+00  8.00000000E-01  8.00000000E-01  1.50000000E+00  8.00000000E-01
  8.00000000E-01  1.50000000E+00  8.00000000E-01  8.00000000E-01  1.50000000E+00
  8.00000000E-01  8.00000000E-01  1.50000000E+00  8.00000000E-01  8.00000000E-01
  1.50000000E+00  8.00000000E-01  8.00000000E-01  1.50000000E+00  8.00000000E-01
  8.00000000E-01  1.50000000E+00  8.00000000E-01  8.00000000E-01  1.50000000E+00
  8.00000000E-01  8.00000000E-01  1.50000000E+00  8.00000000E-01  8.00000000E-01
  1.50000000E+00  8.00000000E-01  8.00000000E-01  1.50000000E+00  8.00000000E-01
  8.00000000E-01  1.50000000E+00  8.00000000E-01  8.00000000E-01  1.50000000E+00
  8.00000000E-01  8.00000000E-01  1.50000000E+00  8.00000000E-01  8.00000000E-01
  1.50000000E+00  8.00000000E-01  8.00000000E-01  1.50000000E+00  8.00000000E-01
  8.00000000E-01  1.50000000E+00  8.00000000E-01  8.00000000E-01  1.50000000E+00
  8.00000000E-01  8.00000000E-01  1.50000000E+00  8.00000000E-01  8.00000000E-01
  1.50000000E+00  8.00000000E-01  8.00000000E-01  1.50000000E+00  8.00000000E-01
  8.00000000E-01  1.50000000E+00  8.00000000E-01  8.00000000E-01  1.50000000E+00
  8.00000000E-01  8.00000000E-01  1.50000000E+00  8.00000000E-01  8.00000000E-01
  1.50000000E+00  8.00000000E-01  8.00000000E-01  1.50000000E+00  8.00000000E-01
  8.00000000E-01  1.50000000E+00  8.00000000E-01  8.00000000E-01  1.50000000E+00
  8.00000000E-01  8.00000000E-01  1.50000000E+00  8.00000000E-01  8.00000000E-01
  1.50000000E+00  8.00000000E-01  8.00000000E-01  1.50000000E+00  8.00000000E-01
  8.00000000E-01  1.50000000E+00  8.00000000E-01  8.00000000E-01  1.50000000E+00
  8.00000000E-01  8.00000000E-01  1.50000000E+00  8.00000000E-01  8.00000000E-01
  1.50000000E+00  8.00000000E-01  8.00000000E-01  1.50000000E+00  8.00000000E-01
  8.00000000E-01  1.50000000E+00  8.00000000E-01  8.00000000E-01  1.50000000E+00
  8.00000000E-01  8.00000000E-01  1.50000000E+00  8.00000000E-01  8.00000000E-01
  1.50000000E+00  8.00000000E-01  8.00000000E-01  1.50000000E+00  8.00000000E-01
  8.00000000E-01  1.50000000E+00  8.00000000E-01  8.00000000E-01  1.50000000E+00
  8.00000000E-01  8.00000000E-01  1.50000000E+00  8.00000000E-01  8.00000000E-01
  1.50000000E+00  8.00000000E-01  8.00000000E-01  1.50000000E+00  8.00000000E-01
  8.00000000E-01  1.50000000E+00  8.00000000E-01  8.00000000E-01  1.50000000E+00
  8.00000000E-01  8.00000000E-01  1.50000000E+00  8.00000000E-01  8.00000000E-01
  1.50000000E+00  8.00000000E-01  8.00000000E-01  1.50000000E+00  8.00000000E-01
  8.00000000E-01  1.50000000E+00  8.00000000E-01  8.00000000E-01  1.50000000E+00
  8.00000000E-01  8.00000000E-01  1.50000000E+00  8.00000000E-01  8.00000000E-01
  1.50000000E+00  8.00000000E-01  8.00000000E-01  1.50000000E+00  8.00000000E-01
  8.00000000E-01  1.50000000E+00  8.00000000E-01  8.00000000E-01  1.50000000E+00
  8.00000000E-01  8.00000000E-01  1.50000000E+00  8.00000000E-01  8.00000000E-01
  1.50000000E+00  8.00000000E-01  8.00000000E-01  1.50000000E+00  8.00000000E-01
  8.00000000E-01  1.50000000E+00  8.00000000E-01  8.00000000E-01  1.50000000E+00
  8.00000000E-01  8.00000000E-01  1.50000000E+00  8.00000000E-01  8.00000000E-01
  1.50000000E+00  8.00000000E-01  8.00000000E-01  1.50000000E+00  8.00000000E-01
  8.00000000E-01  1.50000000E+00  8.00000000E-01  8.00000000E-01  1.50000000E+00
  8.00000000E-01  8.00000000E-01  1.50000000E+00  8.00000000E-01  8.00000000E-01
  1.50000000E+00  8.00000000E-01  8.00000000E-01  1.50000000E+00  8.00000000E-01
  8.00000000E-01  1.50000000E+00  8.00000000E-01  8.00000000E-01  1.50000000E+00
  8.00000000E-01  8.00000000E-01  1.50000000E+00  8.00000000E-01  8.00000000E-01
  1.50000000E+00  8.00000000E-01  8.00000000E-01  1.50000000E+00  8.00000000E-01
  8.00000000E-01  1.50000000E+00  8.00000000E-01  8.00000000E-01  1.50000000E+00
  8.00000000E-01  8.00000000E-01  1.50000000E+00  8.00000000E-01  8.00000000E-01
  1.50000000E+00  8.00000000E-01  8.00000000E-01  1.50000000E+00  8.00000000E-01
  8.00000000E-01  1.50000000E+00  8.00000000E-01  8.00000000E-01  1.50000000E+00
  8.00000000E-01  8.00000000E-01  1.50000000E+00  8.00000000E-01  8.00000000E-01
  1.50000000E+00  8.00000000E-01  8.00000000E-01  1.50000000E+00  8.00000000E-01
  8.00000000E-01  1.50000000E+00  8.00000000E-01  8.00000000E-01  1.50000000E+00
  8.00000000E-01  8.00000000E-01  1.50000000E+00  8.00000000E-01  8.00000000E-01
  1.50000000E+00  8.00000000E-01  8.00000000E-01  1.50000000E+00  8.00000000E-01
  8.00000000E-01  1.50000000E+00  8.00000000E-01  8.00000000E-01  1.50000000E+00
  8.00000000E-01  8.00000000E-01  1.50000000E+00  8.00000000E-01  8.00000000E-01
  1.50000000E+00  8.00000000E-01  8.00000000E-01  1.50000000E+00  8.00000000E-01
  8.00000000E-01  1.50000000E+00  8.00000000E-01  8.00000000E-01  1.50000000E+00
  8.00000000E-01  8.00000000E-01  1.50000000E+00  8.00000000E-01  8.00000000E-01
  1.50000000E+00  8.00000000E-01  8.00000000E-01  1.50000000E+00  8.00000000E-01
  8.00000000E-01  1.50000000E+00  8.00000000E-01  8.00000000E-01  1.50000000E+00
  8.00000000E-01  8.00000000E-01  1.50000000E+00  8.00000000E-01  8.00000000E-01
  1.50000000E+00  8.00000000E-01  8.00000000E-01  1.50000000E+00  8.00000000E-01
  8.00000000E-01  1.50000000E+00  8.00000000E-01  8.00000000E-01  1.50000000E+00
  8.00000000E-01  8.00000000E-01  1.50000000E+00  8.00000000E-01  8.00000000E-01
  1.50000000E+00  8.00000000E-01  8.00000000E-01  1.50000000E+00  8.00000000E-01
  8.00000000E-01  1.50000000E+00  8.00000000E-01  8.00000000E-01  1.50000000E+00
  8.00000000E-01  8.00000000E-01  1.50000000E+00  8.00000000E-01  8.00000000E-01
  1.50000000E+00  8.00000000E-01  8.00000000E-01  1.50000000E+00  8.00000000E-01
  8.00000000E-01  1.50000000E+00  8.00000000E-01  8.00000000E-01  1.50000000E+00
  8.00000000E-01  8.00000000E-01  1.50000000E+00  8.00000000E-01  8.00000000E-01
  1.50000000E+00  8.00000000E-01  8.00000000E-01  1.50000000E+00  8.00000000E-01
  8.00000000E-01  1.50000000E+00  8.00000000E-01  8.00000000E-01  1.50000000E+00
  8.00000000E-01  8.00000000E-01  1.50000000E+00  8.00000000E-01  8.00000000E-01
  1.50000000E+00  8.00000000E-01  8.00000000E-01  1.50000000E+00  8.00000000E-01
  8.00000000E-01  1.50000000E+00  8.00000000E-01  8.00000000E-01  1.50000000E+00
  8.00000000E-01  8.00000000E-01  1.50000000E+00  8.00000000E-01  8.00000000E-01
  1.50000000E+00  8.00000000E-01  8.00000000E-01  1.50000000E+00  8.00000000E-01
  8.00000000E-01  1.50000000E+00  8.00000000E-01  8.00000000E-01  1.50000000E+00
  8.00000000E-01  8.00000000E-01  1.50000000E+00  8.00000000E-01  8.00000000E-01
  1.50000000E+00  8.00000000E-01  8.00000000E-01  1.50000000E+00  8.00000000E-01
  8.00000000E-01  1.50000000E+00  8.00000000E-01  8.00000000E-01  1.50000000E+00
  8.00000000E-01  8.00000000E-01  1.50000000E+00  8.00000000E-01  8.00000000E-01
  1.50000000E+00  8.00000000E-01  8.00000000E-01  1.50000000E+00  8.00000000E-01
  8.00000000E-01  1.50000000E+00  8.00000000E-01  8.00000000E-01  1.50000000E+00
  8.00000000E-01  8.00000000E-01  1.50000000E+00  8.00000000E-01  8.00000000E-01
  1.50000000E+00  8.00000000E-01  8.00000000E-01  1.50000000E+00  8.00000000E-01
  8.00000000E-01  1.50000000E+00  8.00000000E-01  8.00000000E-01  1.50000000E+00
  8.00000000E-01  8.00000000E-01  1.50000000E+00  8.00000000E-01  8.00000000E-01
  1.50000000E+00  8.00000000E-01  8.00000000E-01  1.50000000E+00  8.00000000E-01
  8.00000000E-01  1.50000000E+00  8.00000000E-01  8.00000000E-01  1.50000000E+00
  8.00000000E-01  8.00000000E-01  1.50000000E+00  8.00000000E-01  8.00000000E-01
  1.50000000E+00  8.00000000E-01  8.00000000E-01  1.50000000E+00  8.00000000E-01
  8.00000000E-01  1.50000000E+00  8.00000000E-01  8.00000000E-01  1.50000000E+00
  8.00000000E-01  8.00000000E-01  1.50000000E+00  8.00000000E-01  8.00000000E-01
  1.50000000E+00  8.00000000E-01  8.00000000E-01  1.50000000E+00  8.00000000E-01
  8.00000000E-01  1.50000000E+00  8.00000000E-01  8.00000000E-01  1.50000000E+00
  8.00000000E-01  8.00000000E-01  1.50000000E+00  8.00000000E-01  8.00000000E-01
  1.50000000E+00  8.00000000E-01  8.00000000E-01  1.50000000E+00  8.00000000E-01
  8.00000000E-01  1.50000000E+00  8.00000000E-01  8.00000000E-01  1.50000000E+00
  8.00000000E-01  8.00000000E-01  1.50000000E+00  8.00000000E-01  8.00000000E-01
  1.50000000E+00  8.00000000E-01  8.00000000E-01  1.50000000E+00  8.00000000E-01
  8.00000000E-01  1.50000000E+00  8.00000000E-01  8.00000000E-01  1.50000000E+00
  8.00000000E-01  8.00000000E-01  1.50000000E+00  8.00000000E-01  8.00000000E-01
  1.50000000E+00  8.00000000E-01  8.00000000E-01  1.50000000E+00  8.00000000E-01
  8.00000000E-01  1.50000000E+00  8.00000000E-01  8.00000000E-01  1.50000000E+00
  8.00000000E-01  8.00000000E-01  1.50000000E+00  8.00000000E-01  8.00000000E-01
  1.50000000E+00  8.00000000E-01  8.00000000E-01  1.50000000E+00  8.00000000E-01
  8.00000000E-01  1.50000000E+00  8.00000000E-01  8.00000000E-01  1.50000000E+00
  8.00000000E-01  8.00000000E-01  1.50000000E+00  8.00000000E-01  8.00000000E-01
  1.50000000E+00  8.00000000E-01  8.00000000E-01  1.50000000E+00  8.00000000E-01
  8.00000000E-01  1.50000000E+00  8.00000000E-01  8.00000000E-01  1.50000000E+00
  8.00000000E-01  8.00000000E-01  1.50000000E+00  8.00000000E-01  8.00000000E-01
  1.50000000E+00  8.00000000E-01  8.00000000E-01  1.50000000E+00  8.00000000E-01
  8.00000000E-01  1.50000000E+00  8.00000000E-01  8.00000000E-01  1.50000000E+00
  8.00000000E-01  8.00000000E-01  1.50000000E+00  8.00000000E-01  8.00000000E-01
  1.50000000E+00  8.00000000E-01  8.00000000E-01  1.50000000E+00  8.00000000E-01
  8.00000000E-01  1.50000000E+00  8.00000000E-01  8.00000000E-01  1.50000000E+00
  8.00000000E-01  8.00000000E-01  1.50000000E+00  8.00000000E-01  8.00000000E-01
  1.50000000E+00  8.00000000E-01  8.00000000E-01  1.50000000E+00  8.00000000E-01
  8.00000000E-01  1.50000000E+00  8.00000000E-01  8.00000000E-01  1.50000000E+00
  8.00000000E-01  8.00000000E-01  1.50000000E+00  8.00000000E-01  8.00000000E-01
  1.50000000E+00  8.00000000E-01  8.00000000E-01  1.50000000E+00  8.00000000E-01
  8.00000000E-01  1.50000000E+00  8.00000000E-01  8.00000000E-01  1.50000000E+00
  8.00000000E-01  8.00000000E-01  1.50000000E+00  8.00000000E-01  8.00000000E-01
  1.50000000E+00  8.00000000E-01  8.00000000E-01  1.50000000E+00  8.00000000E-01
  8.00000000E-01  1.50000000E+00  8.00000000E-01  8.00000000E-01  1.50000000E+00
  8.00000000E-01  8.00000000E-01  1.50000000E+00  8.00000000E-01  8.00000000E-01
  1.50000000E+00  8.00000000E-01  8.00000000E-01  1.50000000E+00  8.00000000E-01
  8.00000000E-01  1.50000000E+00  8.00000000E-01  8.00000000E-01  1.50000000E+00
  8.00000000E-01  8.00000000E-01  1.50000000E+00  8.00000000E-01  8.00000000E-01
  1.50000000E+00  8.00000000E-01  8.00000000E-01  1.50000000E+00  8.00000000E-01
  8.00000000E-01  1.50000000E+00  8.00000000E-01  8.00000000E-01  1.50000000E+00
  8.00000000E-01  8.00000000E-01  1.50000000E+00  8.00000000E-01  8.00000000E-01
  1.50000000E+00  8.00000000E-01  8.00000000E-01  1.50000000E+00  8.00000000E-01
  8.00000000E-01  1.50000000E+00  8.00000000E-01  8.00000000E-01  1.50000000E+00
  8.00000000E-01  8.00000000E-01  1.50000000E+00  8.00000000E-01  8.00000000E-01
  1.50000000E+00  8.00000000E-01  8.00000000E-01  1.50000000E+00  8.00000000E-01
  8.00000000E-01  1.50000000E+00  8.00000000E-01  8.00000000E-01  1.50000000E+00
  8.00000000E-01  8.00000000E-01  1.50000000E+00  8.00000000E-01  8.00000000E-01
  1.50000000E+00  8.00000000E-01  8.00000000E-01  1.50000000E+00  8.00000000E-01
  8.00000000E-01  1.50000000E+00  8.00000000E-01  8.00000000E-01  1.50000000E+00
  8.00000000E-01  8.00000000E-01  1.50000000E+00  8.00000000E-01  8.00000000E-01
  1.50000000E+00  8.00000000E-01  8.00000000E-01  1.50000000E+00  8.00000000E-01
  8.00000000E-01  1.50000000E+00  8.00000000E-01  8.00000000E-01  1.50000000E+00
  8.00000000E-01  8.00000000E-01  1.50000000E+00  8.00000000E-01  8.00000000E-01
  1.50000000E+00  8.00000000E-01  8.00000000E-01  1.50000000E+00  8.00000000E-01
  8.00000000E-01  1.50000000E+00  8.00000000E-01  8.00000000E-01  1.50000000E+00
  8.00000000E-01  8.00000000E-01  1.50000000E+00  8.00000000E-01  8.00000000E-01
  1.50000000E+00  8.00000000E-01  8.00000000E-01  1.50000000E+00  8.00000000E-01
  8.00000000E-01  1.50000000E+00  8.00000000E-01  8.00000000E-01  1.50000000E+00
  8.00000000E-01  8.00000000E-01  1.50000000E+00  8.00000000E-01  8.00000000E-01
  1.50000000E+00  8.00000000E-01  8.00000000E-01  1.50000000E+00  8.00000000E-01
  8.00000000E-01  1.50000000E+00  8.00000000E-01  8.00000000E-01  1.50000000E+00
  8.00000000E-01  8.00000000E-01  1.50000000E+00  8.00000000E-01  8.00000000E-01
  1.50000000E+00  8.00000000E-01  8.00000000E-01  1.50000000E+00  8.00000000E-01
  8.00000000E-01  1.50000000E+00  8.00000000E-01  8.00000000E-01  1.50000000E+00
  8.00000000E-01  8.00000000E-01  1.50000000E+00  8.00000000E-01  8.00000000E-01
  1.50000000E+00  8.00000000E-01  8.00000000E-01  1.50000000E+00  8.00000000E-01
  8.00000000E-01  1.50000000E+00  8.00000000E-01  8.00000000E-01  1.50000000E+00
  8.00000000E-01  8.00000000E-01  1.50000000E+00  8.00000000E-01  8.00000000E-01
  1.50000000E+00  8.00000000E-01  8.00000000E-01  1.50000000E+00  8.00000000E-01
  8.00000000E-01  1.50000000E+00  8.00000000E-01  8.00000000E-01  1.50000000E+00
  8.00000000E-01  8.00000000E-01  1.50000000E+00  8.00000000E-01  8.00000000E-01
  1.50000000E+00  8.00000000E-01  8.00000000E-01  1.50000000E+00  8.00000000E-01
  8.00000000E-01  1.50000000E+00  8.00000000E-01  8.00000000E-01  1.50000000E+00
  8.00000000E-01  8.00000000E-01  1.50000000E+00  8.00000000E-01  8.00000000E-01
  1.50000000E+00  8.00000000E-01  8.00000000E-01  1.50000000E+00  8.00000000E-01
  8.00000000E-01  1.50000000E+00  8.00000000E-01  8.00000000E-01  1.50000000E+00
  8.00000000E-01  8.00000000E-01  1.50000000E+00  8.00000000E-01  8.00000000E-01
  1.50000000E+00  8.00000000E-01  8.00000000E-01  1.50000000E+00  8.00000000E-01
  8.00000000E-01  1.50000000E+00  8.00000000E-01  8.00000000E-01  1.50000000E+00
  8.00000000E-01  8.00000000E-01  1.50000000E+00  8.00000000E-01  8.00000000E-01
  1.50000000E+00  8.00000000E-01  8.00000000E-01  1.50000000E+00  8.00000000E-01
  8.00000000E-01  1.50000000E+00  8.00000000E-01  8.00000000E-01  1.50000000E+00
  8.00000000E-01  8.00000000E-01  1.50000000E+00  8.00000000E-01  8.00000000E-01
  1.50000000E+00  8.00000000E-01  8.00000000E-01  1.50000000E+00  8.00000000E-01
  8.00000000E-01  1.50000000E+00  8.00000000E-01  8.00000000E-01  1.50000000E+00
  8.00000000E-01  8.00000000E-01  1.50000000E+00  8.00000000E-01  8.00000000E-01
  1.50000000E+00  8.00000000E-01  8.00000000E-01  1.50000000E+00  8.00000000E-01
  8.00000000E-01  1.50000000E+00  8.00000000E-01  8.00000000E-01  1.50000000E+00
  8.00000000E-01  8.00000000E-01  1.50000000E+00  8.00000000E-01  8.00000000E-01
  1.50000000E+00  8.00000000E-01  8.00000000E-01  1.50000000E+00  8.00000000E-01
  8.00000000E-01  1.50000000E+00  8.00000000E-01  8.00000000E-01  1.50000000E+00
  8.00000000E-01  8.00000000E-01  1.50000000E+00  8.00000000E-01  8.00000000E-01
  1.50000000E+00  8.00000000E-01  8.00000000E-01  1.50000000E+00  8.00000000E-01
  8.00000000E-01  1.50000000E+00  8.00000000E-01  8.00000000E-01  1.50000000E+00
  8.00000000E-01  8.00000000E-01  1.50000000E+00  8.00000000E-01  8.00000000E-01
  1.50000000E+00  8.00000000E-01  8.00000000E-01  1.50000000E+00  8.00000000E-01
  8.00000000E-01  1.50000000E+00  8.00000000E-01  8.00000000E-01  1.50000000E+00
  8.00000000E-01  8.00000000E-01  1.50000000E+00  8.00000000E-01  8.00000000E-01
  1.50000000E+00  8.00000000E-01  8.00000000E-01  1.50000000E+00  8.00000000E-01
  8.00000000E-01  1.50000000E+00  8.00000000E-01  8.00000000E-01  1.50000000E+00
  8.00000000E-01  8.00000000E-01  1.50000000E+00  8.00000000E-01  8.00000000E-01
  1.50000000E+00  8.00000000E-01  8.00000000E-01  1.50000000E+00  8.00000000E-01
  8.00000000E-01  1.50000000E+00  8.00000000E-01  8.00000000E-01  1.50000000E+00
  8.00000000E-01  8.00000000E-01  1.50000000E+00  8.00000000E-01  8.00000000E-01
  1.50000000E+00  8.00000000E-01  8.00000000E-01  1.50000000E+00  8.00000000E-01
  8.00000000E-01  1.50000000E+00  8.00000000E-01  8.00000000E-01  1.50000000E+00
  8.00000000E-01  8.00000000E-01  1.50000000E+00  8.00000000E-01  8.00000000E-01
  1.50000000E+00  8.00000000E-01  8.00000000E-01  1.50000000E+00  8.00000000E-01
  8.00000000E-01  1.50000000E+00  8.00000000E-01  8.00000000E-01  1.50000000E+00
  8.00000000E-01  8.00000000E-01  1.50000000E+00  8.00000000E-01  8.00000000E-01
  1.50000000E+00  8.00000000E-01  8.00000000E-01  1.50000000E+00  8.00000000E-01
  8.00000000E-01  1.50000000E+00  8.00000000E-01  8.00000000E-01  1.50000000E+00
  8.00000000E-01  8.00000000E-01  1.50000000E+00  8.00000000E-01  8.00000000E-01
  1.50000000E+00  8.00000000E-01  8.00000000E-01  1.50000000E+00  8.00000000E-01
  8.00000000E-01  1.50000000E+00  8.00000000E-01  8.00000000E-01  1.50000000E+00
  8.00000000E-01  8.00000000E-01  1.50000000E+00  8.00000000E-01  8.00000000E-01
  1.50000000E+00  8.00000000E-01  8.00000000E-01  1.50000000E+00  8.00000000E-01
  8.00000000E-01  1.50000000E+00  8.00000000E-01  8.00000000E-01  1.50000000E+00
  8.00000000E-01  8.00000000E-01  1.50000000E+00  8.00000000E-01  8.00000000E-01
  1.50000000E+00  8.00000000E-01  8.00000000E-01  1.50000000E+00  8.00000000E-01
  8.00000000E-01  1.50000000E+00  8.00000000E-01  8.00000000E-01  1.50000000E+00
  8.00000000E-01  8.00000000E-01  1.50000000E+00  8.00000000E-01  8.00000000E-01
  1.50000000E+00  8.00000000E-01  8.00000000E-01  1.50000000E+00  8.00000000E-01
  8.00000000E-01  1.50000000E+00  8.00000000E-01  8.00000000E-01  1.50000000E+00
  8.00000000E-01  8.00000000E-01  1.50000000E+00  8.00000000E-01  8.00000000E-01
  1.50000000E+00  8.00000000E-01  8.00000000E-01  1.50000000E+00  8.00000000E-01
  8.00000000E-01  1.50000000E+00  8.00000000E-01  8.00000000E-01  1.50000000E+00
  8.00000000E-01  8.00000000E-01  1.50000000E+00  8.00000000E-01  8.00000000E-01
  1.50000000E+00  8.00000000E-01  8.00000000E-01  1.50000000E+00  8.00000000E-01
  8.00000000E-01  1.50000000E+00  8.00000000E-01  8.00000000E-01  1.50000000E+00
  8.00000000E-01  8.00000000E-01  1.50000000E+00  8.00000000E-01  8.00000000E-01
  1.50000000E+00  8.00000000E-01  8.00000000E-01  1.50000000E+00  8.00000000E-01
  8.00000000E-01  1.50000000E+00  8.00000000E-01  8.00000000E-01  1.50000000E+00
  8.00000000E-01  8.00000000E-01  1.50000000E+00  8.00000000E-01  8.00000000E-01
  1.50000000E+00  8.00000000E-01  8.00000000E-01  1.50000000E+00  8.00000000E-01
  8.00000000E-01  1.50000000E+00  8.00000000E-01  8.00000000E-01  1.50000000E+00
  8.00000000E-01  8.00000000E-01  1.50000000E+00  8.00000000E-01  8.00000000E-01
  1.50000000E+00  8.00000000E-01  8.00000000E-01  1.50000000E+00  8.00000000E-01
  8.00000000E-01  1.50000000E+00  8.00000000E-01  8.00000000E-01  1.50000000E+00
  8.00000000E-01  8.00000000E-01  1.50000000E+00  8.00000000E-01  8.00000000E-01
  1.50000000E+00  8.00000000E-01  8.00000000E-01  1.50000000E+00  8.00000000E-01
  8.00000000E-01  1.50000000E+00  8.00000000E-01  8.00000000E-01  1.50000000E+00
  8.00000000E-01  8.00000000E-01  1.50000000E+00  8.00000000E-01  8.00000000E-01
  1.50000000E+00  8.00000000E-01  8.00000000E-01  1.50000000E+00  8.00000000E-01
  8.00000000E-01  1.50000000E+00  8.00000000E-01  8.00000000E-01  1.50000000E+00
  8.00000000E-01  8.00000000E-01  1.50000000E+00  8.00000000E-01  8.00000000E-01
  1.50000000E+00  8.00000000E-01  8.00000000E-01  1.50000000E+00  8.00000000E-01
  8.00000000E-01  1.50000000E+00  8.00000000E-01  8.00000000E-01  1.50000000E+00
  8.00000000E-01  8.00000000E-01  1.50000000E+00  8.00000000E-01  8.00000000E-01
  1.50000000E+00  8.00000000E-01  8.00000000E-01  1.50000000E+00  8.00000000E-01
  8.00000000E-01  1.50000000E+00  8.00000000E-01  8.00000000E-01  1.50000000E+00
  8.00000000E-01  8.00000000E-01  1.50000000E+00  8.00000000E-01  8.00000000E-01
  1.50000000E+00  8.00000000E-01  8.00000000E-01  1.50000000E+00  8.00000000E-01
  8.00000000E-01  1.50000000E+00  8.00000000E-01  8.00000000E-01  1.50000000E+00
  8.00000000E-01  8.00000000E-01  1.50000000E+00  8.00000000E-01  8.00000000E-01
  1.50000000E+00  8.00000000E-01  8.00000000E-01  1.50000000E+00  8.00000000E-01
  8.00000000E-01  1.50000000E+00  8.00000000E-01  8.00000000E-01  1.50000000E+00
  8.00000000E-01  8.00000000E-01  1.50000000E+00  8.00000000E-01  8.00000000E-01
  1.50000000E+00  8.00000000E-01  8.00000000E-01  1.50000000E+00  8.00000000E-01
  8.00000000E-01  1.50000000E+00  8.00000000E-01  8.00000000E-01  1.50000000E+00
  8.00000000E-01  8.00000000E-01  1.50000000E+00  8.00000000E-01  8.00000000E-01
  1.50000000E+00  8.00000000E-01  8.00000000E-01  1.50000000E+00  8.00000000E-01
  8.00000000E-01  1.50000000E+00  8.00000000E-01  8.00000000E-01  1.50000000E+00
  8.00000000E-01  8.00000000E-01  1.50000000E+00  8.00000000E-01  8.00000000E-01
  1.50000000E+00  8.00000000E-01  8.00000000E-01  1.50000000E+00  8.00000000E-01
  8.00000000E-01  1.50000000E+00  8.00000000E-01  8.00000000E-01  1.50000000E+00
  8.00000000E-01  8.00000000E-01  1.50000000E+00  8.00000000E-01  8.00000000E-01
  1.50000000E+00  8.00000000E-01  8.00000000E-01  1.50000000E+00  8.00000000E-01
  8.00000000E-01  1.50000000E+00  8.00000000E-01  8.00000000E-01  1.50000000E+00
  8.00000000E-01  8.00000000E-01  1.50000000E+00  8.00000000E-01  8.00000000E-01
  1.50000000E+00  8.00000000E-01  8.00000000E-01  1.50000000E+00  8.00000000E-01
  8.00000000E-01  1.50000000E+00  8.00000000E-01  8.00000000E-01  1.50000000E+00
  8.00000000E-01  8.00000000E-01  1.50000000E+00  8.00000000E-01  8.00000000E-01
  1.50000000E+00  8.00000000E-01  8.00000000E-01  1.50000000E+00  8.00000000E-01
  8.00000000E-01  1.50000000E+00  8.00000000E-01  8.00000000E-01  1.50000000E+00
  8.00000000E-01  8.00000000E-01  1.50000000E+00  8.00000000E-01  8.00000000E-01
  1.50000000E+00  8.00000000E-01  8.00000000E-01  1.50000000E+00  8.00000000E-01
  8.00000000E-01  1.50000000E+00  8.00000000E-01  8.00000000E-01  1.50000000E+00
  8.00000000E-01  8.00000000E-01  1.50000000E+00  8.00000000E-01  8.00000000E-01
  1.50000000E+00  8.00000000E-01  8.00000000E-01  1.50000000E+00  8.00000000E-01
  8.00000000E-01  1.50000000E+00  8.00000000E-01  8.00000000E-01  1.50000000E+00
  8.00000000E-01  8.00000000E-01  1.50000000E+00  8.00000000E-01  8.00000000E-01
  1.50000000E+00  8.00000000E-01  8.00000000E-01  1.50000000E+00  8.00000000E-01
  8.00000000E-01  1.50000000E+00  8.00000000E-01  8.00000000E-01  1.50000000E+00
  8.00000000E-01  8.00000000E-01  1.50000000E+00  8.00000000E-01  8.00000000E-01
  1.50000000E+00  8.00000000E-01  8.00000000E-01  1.50000000E+00  8.00000000E-01
  8.00000000E-01  1.50000000E+00  8.00000000E-01  8.00000000E-01  1.50000000E+00
  8.00000000E-01  8.00000000E-01  1.50000000E+00  8.00000000E-01  8.00000000E-01
  1.50000000E+00  8.00000000E-01  8.00000000E-01  1.50000000E+00  8.00000000E-01
  8.00000000E-01  1.50000000E+00  8.00000000E-01  8.00000000E-01  1.50000000E+00
  8.00000000E-01  8.00000000E-01  1.50000000E+00  8.00000000E-01  8.00000000E-01
  1.50000000E+00  8.00000000E-01  8.00000000E-01  1.50000000E+00  8.00000000E-01
  8.00000000E-01  1.50000000E+00  8.00000000E-01  8.00000000E-01  1.50000000E+00
  8.00000000E-01  8.00000000E-01  1.50000000E+00  8.00000000E-01  8.00000000E-01
  1.50000000E+00  8.00000000E-01  8.00000000E-01  1.50000000E+00  8.00000000E-01
  8.00000000E-01  1.50000000E+00  8.00000000E-01  8.00000000E-01  1.50000000E+00
  8.00000000E-01  8.00000000E-01  1.50000000E+00  8.00000000E-01  8.00000000E-01
  1.50000000E+00  8.00000000E-01  8.00000000E-01  1.50000000E+00  8.00000000E-01
  8.00000000E-01  1.50000000E+00  8.00000000E-01  8.00000000E-01  1.50000000E+00
  8.00000000E-01  8.00000000E-01  1.50000000E+00  8.00000000E-01  8.00000000E-01
  1.50000000E+00  8.00000000E-01  8.00000000E-01  1.50000000E+00  8.00000000E-01
  8.00000000E-01  1.50000000E+00  8.00000000E-01  8.00000000E-01  1.50000000E+00
  8.00000000E-01  8.00000000E-01  1.50000000E+00  8.00000000E-01  8.00000000E-01
  1.50000000E+00  8.00000000E-01  8.00000000E-01  1.50000000E+00  8.00000000E-01
  8.00000000E-01  1.50000000E+00  8.00000000E-01  8.00000000E-01  1.50000000E+00
  8.00000000E-01  8.00000000E-01  1.50000000E+00  8.00000000E-01  8.00000000E-01
  1.50000000E+00  8.00000000E-01  8.00000000E-01  1.50000000E+00  8.00000000E-01
  8.00000000E-01  1.50000000E+00  8.00000000E-01  8.00000000E-01  1.50000000E+00
  8.00000000E-01  8.00000000E-01  1.50000000E+00  8.00000000E-01  8.00000000E-01
  1.50000000E+00  8.00000000E-01  8.00000000E-01  1.50000000E+00  8.00000000E-01
  8.00000000E-01  1.50000000E+00  8.00000000E-01  8.00000000E-01  1.50000000E+00
  8.00000000E-01  8.00000000E-01  1.50000000E+00  8.00000000E-01  8.00000000E-01
  1.50000000E+00  8.00000000E-01  8.00000000E-01  1.50000000E+00  8.00000000E-01
  8.00000000E-01  1.50000000E+00  8.00000000E-01  8.00000000E-01  1.50000000E+00
  8.00000000E-01  8.00000000E-01  1.50000000E+00  8.00000000E-01  8.00000000E-01
  1.50000000E+00  8.00000000E-01  8.00000000E-01  1.50000000E+00  8.00000000E-01
  8.00000000E-01  1.50000000E+00  8.00000000E-01  8.00000000E-01  1.50000000E+00
  8.00000000E-01  8.00000000E-01  1.50000000E+00  8.00000000E-01  8.00000000E-01
  1.50000000E+00  8.00000000E-01  8.00000000E-01  1.50000000E+00  8.00000000E-01
  8.00000000E-01  1.50000000E+00  8.00000000E-01  8.00000000E-01  1.50000000E+00
  8.00000000E-01  8.00000000E-01  1.50000000E+00  8.00000000E-01  8.00000000E-01
  1.50000000E+00  8.00000000E-01  8.00000000E-01  1.50000000E+00  8.00000000E-01
  8.00000000E-01  1.50000000E+00  8.00000000E-01  8.00000000E-01  1.50000000E+00
  8.00000000E-01  8.00000000E-01  1.50000000E+00  8.00000000E-01  8.00000000E-01
  1.50000000E+00  8.00000000E-01  8.00000000E-01  1.50000000E+00  8.00000000E-01
  8.00000000E-01  1.50000000E+00  8.00000000E-01  8.00000000E-01  1.50000000E+00
  8.00000000E-01  8.00000000E-01  1.50000000E+00  8.00000000E-01  8.00000000E-01
  1.50000000E+00  8.00000000E-01  8.00000000E-01  1.50000000E+00  8.00000000E-01
  8.00000000E-01  1.50000000E+00  8.00000000E-01  8.00000000E-01  1.50000000E+00
  8.00000000E-01  8.00000000E-01  1.50000000E+00  8.00000000E-01  8.00000000E-01
  1.50000000E+00  8.00000000E-01  8.00000000E-01  1.50000000E+00  8.00000000E-01
  8.00000000E-01  1.50000000E+00  8.00000000E-01  8.00000000E-01  1.50000000E+00
  8.00000000E-01  8.00000000E-01  1.50000000E+00  8.00000000E-01  8.00000000E-01
  1.50000000E+00  8.00000000E-01  8.00000000E-01  1.50000000E+00  8.00000000E-01
  8.00000000E-01  1.50000000E+00  8.00000000E-01  8.00000000E-01  1.50000000E+00
  8.00000000E-01  8.00000000E-01  1.50000000E+00  8.00000000E-01  8.00000000E-01
  1.50000000E+00  8.00000000E-01  8.00000000E-01  1.50000000E+00  8.00000000E-01
  8.00000000E-01  1.50000000E+00  8.00000000E-01  8.00000000E-01  1.50000000E+00
  8.00000000E-01  8.00000000E-01  1.50000000E+00  8.00000000E-01  8.00000000E-01
  1.50000000E+00  8.00000000E-01  8.00000000E-01  1.50000000E+00  8.00000000E-01
  8.00000000E-01  1.50000000E+00  8.00000000E-01  8.00000000E-01  1.50000000E+00
  8.00000000E-01  8.00000000E-01  1.50000000E+00  8.00000000E-01  8.00000000E-01
  1.50000000E+00  8.00000000E-01  8.00000000E-01  1.50000000E+00  8.00000000E-01
  8.00000000E-01  1.50000000E+00  8.00000000E-01  8.00000000E-01  1.50000000E+00
  8.00000000E-01  8.00000000E-01  1.50000000E+00  8.00000000E-01  8.00000000E-01
  1.50000000E+00  8.00000000E-01  8.00000000E-01  1.50000000E+00  8.00000000E-01
  8.00000000E-01  1.50000000E+00  8.00000000E-01  8.00000000E-01  1.50000000E+00
  8.00000000E-01  8.00000000E-01  1.50000000E+00  8.00000000E-01  8.00000000E-01
  1.50000000E+00  8.00000000E-01  8.00000000E-01  1.50000000E+00  8.00000000E-01
  8.00000000E-01  1.50000000E+00  8.00000000E-01  8.00000000E-01  1.50000000E+00
  8.00000000E-01  8.00000000E-01  1.50000000E+00  8.00000000E-01  8.00000000E-01
  1.50000000E+00  8.00000000E-01  8.00000000E-01  1.50000000E+00  8.00000000E-01
  8.00000000E-01  1.50000000E+00  8.00000000E-01  8.00000000E-01  1.50000000E+00
  8.00000000E-01  8.00000000E-01  1.50000000E+00  8.00000000E-01  8.00000000E-01
  1.50000000E+00  8.00000000E-01  8.00000000E-01  1.50000000E+00  8.00000000E-01
  8.00000000E-01  1.50000000E+00  8.00000000E-01  8.00000000E-01  1.50000000E+00
  8.00000000E-01  8.00000000E-01  1.50000000E+00  8.00000000E-01  8.00000000E-01
  1.50000000E+00  8.00000000E-01  8.00000000E-01  1.50000000E+00  8.00000000E-01
  8.00000000E-01  1.50000000E+00  8.00000000E-01  8.00000000E-01  1.50000000E+00
  8.00000000E-01  8.00000000E-01  1.50000000E+00  8.00000000E-01  8.00000000E-01
  1.50000000E+00  8.00000000E-01  8.00000000E-01  1.50000000E+00  8.00000000E-01
  8.00000000E-01  1.50000000E+00  8.00000000E-01  8.00000000E-01  1.50000000E+00
  8.00000000E-01  8.00000000E-01  1.50000000E+00  8.00000000E-01  8.00000000E-01
  1.50000000E+00  8.00000000E-01  8.00000000E-01  1.50000000E+00  8.00000000E-01
  8.00000000E-01  1.50000000E+00  8.00000000E-01  8.00000000E-01  1.50000000E+00
  8.00000000E-01  8.00000000E-01  1.50000000E+00  8.00000000E-01  8.00000000E-01
  1.50000000E+00  8.00000000E-01  8.00000000E-01  1.50000000E+00  8.00000000E-01
  8.00000000E-01  1.50000000E+00  8.00000000E-01  8.00000000E-01  1.50000000E+00
  8.00000000E-01  8.00000000E-01  1.50000000E+00  8.00000000E-01  8.00000000E-01
  1.50000000E+00  8.00000000E-01  8.00000000E-01  1.50000000E+00  8.00000000E-01
  8.00000000E-01  1.50000000E+00  8.00000000E-01  8.00000000E-01  1.50000000E+00
  8.00000000E-01  8.00000000E-01  1.50000000E+00  8.00000000E-01  8.00000000E-01
  1.50000000E+00  8.00000000E-01  8.00000000E-01  1.50000000E+00  8.00000000E-01
  8.00000000E-01  1.50000000E+00  8.00000000E-01  8.00000000E-01  1.50000000E+00
  8.00000000E-01  8.00000000E-01  1.50000000E+00  8.00000000E-01  8.00000000E-01
  1.50000000E+00  8.00000000E-01  8.00000000E-01  1.50000000E+00  8.00000000E-01
  8.00000000E-01  1.50000000E+00  8.00000000E-01  8.00000000E-01  1.50000000E+00
  8.00000000E-01  8.00000000E-01  1.50000000E+00  8.00000000E-01  8.00000000E-01
  1.50000000E+00  8.00000000E-01  8.00000000E-01  1.50000000E+00  8.00000000E-01
  8.00000000E-01  1.50000000E+00  8.00000000E-01  8.00000000E-01  1.50000000E+00
  8.00000000E-01  8.00000000E-01  1.50000000E+00  8.00000000E-01  8.00000000E-01
  1.50000000E+00  8.00000000E-01  8.00000000E-01  1.50000000E+00  8.00000000E-01
  8.00000000E-01  1.50000000E+00  8.00000000E-01  8.00000000E-01  1.50000000E+00
  8.00000000E-01  8.00000000E-01  1.50000000E+00  8.00000000E-01  8.00000000E-01
  1.50000000E+00  8.00000000E-01  8.00000000E-01  1.50000000E+00  8.00000000E-01
  8.00000000E-01  1.50000000E+00  8.00000000E-01  8.00000000E-01  1.50000000E+00
  8.00000000E-01  8.00000000E-01  1.50000000E+00  8.00000000E-01  8.00000000E-01
  1.50000000E+00  8.00000000E-01  8.00000000E-01  1.50000000E+00  8.00000000E-01
  8.00000000E-01  1.50000000E+00  8.00000000E-01  8.00000000E-01  1.50000000E+00
  8.00000000E-01  8.00000000E-01  1.50000000E+00  8.00000000E-01  8.00000000E-01
  1.50000000E+00  8.00000000E-01  8.00000000E-01  1.50000000E+00  8.00000000E-01
  8.00000000E-01  1.50000000E+00  8.00000000E-01  8.00000000E-01  1.50000000E+00
  8.00000000E-01  8.00000000E-01  1.50000000E+00  8.00000000E-01  8.00000000E-01
  1.50000000E+00  8.00000000E-01  8.00000000E-01  1.50000000E+00  8.00000000E-01
  8.00000000E-01  1.50000000E+00  8.00000000E-01  8.00000000E-01  1.50000000E+00
  8.00000000E-01  8.00000000E-01  1.50000000E+00  8.00000000E-01  8.00000000E-01
  1.50000000E+00  8.00000000E-01  8.00000000E-01  1.50000000E+00  8.00000000E-01
  8.00000000E-01  1.50000000E+00  8.00000000E-01  8.00000000E-01  1.50000000E+00
  8.00000000E-01  8.00000000E-01  1.50000000E+00  8.00000000E-01  8.00000000E-01
  1.50000000E+00  8.00000000E-01  8.00000000E-01  1.50000000E+00  8.00000000E-01
  8.00000000E-01  1.50000000E+00  8.00000000E-01  8.00000000E-01  1.50000000E+00
  8.00000000E-01  8.00000000E-01  1.50000000E+00  8.00000000E-01  8.00000000E-01
  1.50000000E+00  8.00000000E-01  8.00000000E-01  1.50000000E+00  8.00000000E-01
  8.00000000E-01  1.50000000E+00  8.00000000E-01  8.00000000E-01  1.50000000E+00
  8.00000000E-01  8.00000000E-01  1.50000000E+00  8.00000000E-01  8.00000000E-01
  1.50000000E+00  8.00000000E-01  8.00000000E-01  1.50000000E+00  8.00000000E-01
  8.00000000E-01  1.50000000E+00  8.00000000E-01  8.00000000E-01  1.50000000E+00
  8.00000000E-01  8.00000000E-01  1.50000000E+00  8.00000000E-01  8.00000000E-01
  1.50000000E+00  8.00000000E-01  8.00000000E-01  1.50000000E+00  8.00000000E-01
  8.00000000E-01  1.50000000E+00  8.00000000E-01  8.00000000E-01  1.50000000E+00
  8.00000000E-01  8.00000000E-01  1.50000000E+00  8.00000000E-01  8.00000000E-01
  1.50000000E+00  8.00000000E-01  8.00000000E-01  1.50000000E+00  8.00000000E-01
  8.00000000E-01  1.50000000E+00  8.00000000E-01  8.00000000E-01  1.50000000E+00
  8.00000000E-01  8.00000000E-01  1.50000000E+00  8.00000000E-01  8.00000000E-01
  1.50000000E+00  8.00000000E-01  8.00000000E-01  1.50000000E+00  8.00000000E-01
  8.00000000E-01  1.50000000E+00  8.00000000E-01  8.00000000E-01  1.50000000E+00
  8.00000000E-01  8.00000000E-01  1.50000000E+00  8.00000000E-01  8.00000000E-01
  1.50000000E+00  8.00000000E-01  8.00000000E-01  1.50000000E+00  8.00000000E-01
  8.00000000E-01  1.50000000E+00  8.00000000E-01  8.00000000E-01  1.50000000E+00
  8.00000000E-01  8.00000000E-01  1.50000000E+00  8.00000000E-01  8.00000000E-01
  1.50000000E+00  8.00000000E-01  8.00000000E-01  1.50000000E+00  8.00000000E-01
  8.00000000E-01  1.50000000E+00  8.00000000E-01  8.00000000E-01  1.50000000E+00
  8.00000000E-01  8.00000000E-01  1.50000000E+00  8.00000000E-01  8.00000000E-01
  1.50000000E+00  8.00000000E-01  8.00000000E-01  1.50000000E+00  8.00000000E-01
  8.00000000E-01  1.50000000E+00  8.00000000E-01  8.00000000E-01  1.50000000E+00
  8.00000000E-01  8.00000000E-01  1.50000000E+00  8.00000000E-01  8.00000000E-01
  1.50000000E+00  8.00000000E-01  8.00000000E-01  1.50000000E+00  8.00000000E-01
  8.00000000E-01  1.50000000E+00  8.00000000E-01  8.00000000E-01  1.50000000E+00
  8.00000000E-01  8.00000000E-01  1.50000000E+00  8.00000000E-01  8.00000000E-01
  1.50000000E+00  8.00000000E-01  8.00000000E-01  1.50000000E+00  8.00000000E-01
  8.00000000E-01  1.50000000E+00  8.00000000E-01  8.00000000E-01  1.50000000E+00
  8.00000000E-01  8.00000000E-01  1.50000000E+00  8.00000000E-01  8.00000000E-01
  1.50000000E+00  8.00000000E-01  8.00000000E-01  1.50000000E+00  8.00000000E-01
  8.00000000E-01  1.50000000E+00  8.00000000E-01  8.00000000E-01  1.50000000E+00
  8.00000000E-01  8.00000000E-01  1.50000000E+00  8.00000000E-01  8.00000000E-01
  1.50000000E+00  8.00000000E-01  8.00000000E-01  1.50000000E+00  8.00000000E-01
  8.00000000E-01  1.50000000E+00  8.00000000E-01  8.00000000E-01  1.50000000E+00
  8.00000000E-01  8.00000000E-01  1.50000000E+00  8.00000000E-01  8.00000000E-01
  1.50000000E+00  8.00000000E-01  8.00000000E-01  1.50000000E+00  8.00000000E-01
  8.00000000E-01  1.50000000E+00  8.00000000E-01  8.00000000E-01  1.50000000E+00
  8.00000000E-01  8.00000000E-01  1.50000000E+00  8.00000000E-01  8.00000000E-01
  1.50000000E+00  8.00000000E-01  8.00000000E-01  1.50000000E+00  8.00000000E-01
  8.00000000E-01  1.50000000E+00  8.00000000E-01  8.00000000E-01  1.50000000E+00
  8.00000000E-01  8.00000000E-01  1.50000000E+00  8.00000000E-01  8.00000000E-01
  1.50000000E+00  8.00000000E-01  8.00000000E-01  1.50000000E+00  8.00000000E-01
  8.00000000E-01  1.50000000E+00  8.00000000E-01  8.00000000E-01  1.50000000E+00
  8.00000000E-01  8.00000000E-01  1.50000000E+00  8.00000000E-01  8.00000000E-01
  1.50000000E+00  8.00000000E-01  8.00000000E-01  1.50000000E+00  8.00000000E-01
  8.00000000E-01  1.50000000E+00  8.00000000E-01  8.00000000E-01  1.50000000E+00
  8.00000000E-01  8.00000000E-01  1.50000000E+00  8.00000000E-01  8.00000000E-01
  1.50000000E+00  8.00000000E-01  8.00000000E-01  1.50000000E+00  8.00000000E-01
  8.00000000E-01  1.50000000E+00  8.00000000E-01  8.00000000E-01  1.50000000E+00
  8.00000000E-01  8.00000000E-01  1.50000000E+00  8.00000000E-01  8.00000000E-01
  1.50000000E+00  8.00000000E-01  8.00000000E-01  1.50000000E+00  8.00000000E-01
  8.00000000E-01  1.50000000E+00  8.00000000E-01  8.00000000E-01  1.50000000E+00
  8.00000000E-01  8.00000000E-01  1.50000000E+00  8.00000000E-01  8.00000000E-01
  1.50000000E+00  8.00000000E-01  8.00000000E-01  1.50000000E+00  8.00000000E-01
  8.00000000E-01  1.50000000E+00  8.00000000E-01  8.00000000E-01  1.50000000E+00
  8.00000000E-01  8.00000000E-01  1.50000000E+00  8.00000000E-01  8.00000000E-01
  1.50000000E+00  8.00000000E-01  8.00000000E-01  1.50000000E+00  8.00000000E-01
  8.00000000E-01  1.50000000E+00  8.00000000E-01  8.00000000E-01  1.50000000E+00
  8.00000000E-01  8.00000000E-01  1.50000000E+00  8.00000000E-01  8.00000000E-01
  1.50000000E+00  8.00000000E-01  8.00000000E-01  1.50000000E+00  8.00000000E-01
  8.00000000E-01  1.50000000E+00  8.00000000E-01  8.00000000E-01  1.50000000E+00
  8.00000000E-01  8.00000000E-01  1.50000000E+00  8.00000000E-01  8.00000000E-01
  1.50000000E+00  8.00000000E-01  8.00000000E-01  1.50000000E+00  8.00000000E-01
  8.00000000E-01  1.50000000E+00  8.00000000E-01  8.00000000E-01  1.50000000E+00
  8.00000000E-01  8.00000000E-01  1.50000000E+00  8.00000000E-01  8.00000000E-01
  1.50000000E+00  8.00000000E-01  8.00000000E-01  1.50000000E+00  8.00000000E-01
  8.00000000E-01  1.50000000E+00  8.00000000E-01  8.00000000E-01  1.50000000E+00
  8.00000000E-01  8.00000000E-01  1.50000000E+00  8.00000000E-01  8.00000000E-01
  1.50000000E+00  8.00000000E-01  8.00000000E-01  1.50000000E+00  8.00000000E-01
  8.00000000E-01  1.50000000E+00  8.00000000E-01  8.00000000E-01  1.50000000E+00
  8.00000000E-01  8.00000000E-01  1.50000000E+00  8.00000000E-01  8.00000000E-01
  1.50000000E+00  8.00000000E-01  8.00000000E-01  1.50000000E+00  8.00000000E-01
  8.00000000E-01  1.50000000E+00  8.00000000E-01  8.00000000E-01  1.50000000E+00
  8.00000000E-01  8.00000000E-01  1.50000000E+00  8.00000000E-01  8.00000000E-01
  1.50000000E+00  8.00000000E-01  8.00000000E-01  1.50000000E+00  8.00000000E-01
  8.00000000E-01  1.50000000E+00  8.00000000E-01  8.00000000E-01  1.50000000E+00
  8.00000000E-01  8.00000000E-01  1.50000000E+00  8.00000000E-01  8.00000000E-01
  1.50000000E+00  8.00000000E-01  8.00000000E-01  1.50000000E+00  8.00000000E-01
  8.00000000E-01  1.50000000E+00  8.00000000E-01  8.00000000E-01  1.50000000E+00
  8.00000000E-01  8.00000000E-01  1.50000000E+00  8.00000000E-01  8.00000000E-01
  1.50000000E+00  8.00000000E-01  8.00000000E-01  1.50000000E+00  8.00000000E-01
  8.00000000E-01  1.50000000E+00  8.00000000E-01  8.00000000E-01  1.50000000E+00
  8.00000000E-01  8.00000000E-01  1.50000000E+00  8.00000000E-01  8.00000000E-01
  1.50000000E+00  8.00000000E-01  8.00000000E-01  1.50000000E+00  8.00000000E-01
  8.00000000E-01  1.50000000E+00  8.00000000E-01  8.00000000E-01  1.50000000E+00
  8.00000000E-01  8.00000000E-01  1.50000000E+00  8.00000000E-01  8.00000000E-01
  1.50000000E+00  8.00000000E-01  8.00000000E-01  1.50000000E+00  8.00000000E-01
  8.00000000E-01  1.50000000E+00  8.00000000E-01  8.00000000E-01  1.50000000E+00
  8.00000000E-01  8.00000000E-01  1.50000000E+00  8.00000000E-01  8.00000000E-01
  1.50000000E+00  8.00000000E-01  8.00000000E-01  1.50000000E+00  8.00000000E-01
  8.00000000E-01  1.50000000E+00  8.00000000E-01  8.00000000E-01  1.50000000E+00
  8.00000000E-01  8.00000000E-01  1.50000000E+00  8.00000000E-01  8.00000000E-01
  1.50000000E+00  8.00000000E-01  8.00000000E-01  1.50000000E+00  8.00000000E-01
  8.00000000E-01  1.50000000E+00  8.00000000E-01  8.00000000E-01  1.50000000E+00
  8.00000000E-01  8.00000000E-01  1.50000000E+00  8.00000000E-01  8.00000000E-01
  1.50000000E+00  8.00000000E-01  8.00000000E-01  1.50000000E+00  8.00000000E-01
  8.00000000E-01  1.50000000E+00  8.00000000E-01  8.00000000E-01  1.50000000E+00
  8.00000000E-01  8.00000000E-01  1.50000000E+00  8.00000000E-01  8.00000000E-01
  1.50000000E+00  8.00000000E-01  8.00000000E-01  1.50000000E+00  8.00000000E-01
  8.00000000E-01  1.50000000E+00  8.00000000E-01  8.00000000E-01  1.50000000E+00
  8.00000000E-01  8.00000000E-01  1.50000000E+00  8.00000000E-01  8.00000000E-01
  1.50000000E+00  8.00000000E-01  8.00000000E-01  1.50000000E+00  8.00000000E-01
  8.00000000E-01  1.50000000E+00  8.00000000E-01  8.00000000E-01  1.50000000E+00
  8.00000000E-01  8.00000000E-01  1.50000000E+00  8.00000000E-01  8.00000000E-01
  1.50000000E+00  8.00000000E-01  8.00000000E-01  1.50000000E+00  8.00000000E-01
  8.00000000E-01  1.50000000E+00  8.00000000E-01  8.00000000E-01  1.50000000E+00
  8.00000000E-01  8.00000000E-01  1.50000000E+00  8.00000000E-01  8.00000000E-01
  1.50000000E+00  8.00000000E-01  8.00000000E-01  1.50000000E+00  8.00000000E-01
  8.00000000E-01  1.50000000E+00  8.00000000E-01  8.00000000E-01  1.50000000E+00
  8.00000000E-01  8.00000000E-01  1.50000000E+00  8.00000000E-01  8.00000000E-01
  1.50000000E+00  8.00000000E-01  8.00000000E-01  1.50000000E+00  8.00000000E-01
  8.00000000E-01  1.50000000E+00  8.00000000E-01  8.00000000E-01  1.50000000E+00
  8.00000000E-01  8.00000000E-01  1.50000000E+00  8.00000000E-01  8.00000000E-01
  1.50000000E+00  8.00000000E-01  8.00000000E-01  1.50000000E+00  8.00000000E-01
  8.00000000E-01  1.50000000E+00  8.00000000E-01  8.00000000E-01  1.50000000E+00
  8.00000000E-01  8.00000000E-01  1.50000000E+00  8.00000000E-01  8.00000000E-01
  1.50000000E+00  8.00000000E-01  8.00000000E-01  1.50000000E+00  8.00000000E-01
  8.00000000E-01  1.50000000E+00  8.00000000E-01  8.00000000E-01  1.50000000E+00
  8.00000000E-01  8.00000000E-01  1.50000000E+00  8.00000000E-01  8.00000000E-01
  1.50000000E+00  8.00000000E-01  8.00000000E-01  1.50000000E+00  8.00000000E-01
  8.00000000E-01  1.50000000E+00  8.00000000E-01  8.00000000E-01  1.50000000E+00
  8.00000000E-01  8.00000000E-01  1.50000000E+00  8.00000000E-01  8.00000000E-01
  1.50000000E+00  8.00000000E-01  8.00000000E-01  1.50000000E+00  8.00000000E-01
  8.00000000E-01  1.50000000E+00  8.00000000E-01  8.00000000E-01  1.50000000E+00
  8.00000000E-01  8.00000000E-01  1.50000000E+00  8.00000000E-01  8.00000000E-01
  1.50000000E+00  8.00000000E-01  8.00000000E-01  1.50000000E+00  8.00000000E-01
  8.00000000E-01  1.50000000E+00  8.00000000E-01  8.00000000E-01  1.50000000E+00
  8.00000000E-01  8.00000000E-01  1.50000000E+00  8.00000000E-01  8.00000000E-01
  1.50000000E+00  8.00000000E-01  8.00000000E-01  1.50000000E+00  8.00000000E-01
  8.00000000E-01  1.50000000E+00  8.00000000E-01  8.00000000E-01  1.50000000E+00
  8.00000000E-01  8.00000000E-01  1.50000000E+00  8.00000000E-01  8.00000000E-01
  1.50000000E+00  8.00000000E-01  8.00000000E-01  1.50000000E+00  8.00000000E-01
  8.00000000E-01  1.50000000E+00  8.00000000E-01  8.00000000E-01  1.50000000E+00
  8.00000000E-01  8.00000000E-01  1.50000000E+00  8.00000000E-01  8.00000000E-01
  1.50000000E+00  8.00000000E-01  8.00000000E-01  1.50000000E+00  8.00000000E-01
  8.00000000E-01  1.50000000E+00  8.00000000E-01  8.00000000E-01  1.50000000E+00
  8.00000000E-01  8.00000000E-01  1.50000000E+00  8.00000000E-01  8.00000000E-01
  1.50000000E+00  8.00000000E-01  8.00000000E-01  1.50000000E+00  8.00000000E-01
  8.00000000E-01  1.50000000E+00  8.00000000E-01  8.00000000E-01  1.50000000E+00
  8.00000000E-01  8.00000000E-01  1.50000000E+00  8.00000000E-01  8.00000000E-01
  1.50000000E+00  8.00000000E-01  8.00000000E-01  1.50000000E+00  8.00000000E-01
  8.00000000E-01  1.50000000E+00  8.00000000E-01  8.00000000E-01  1.50000000E+00
  8.00000000E-01  8.00000000E-01  1.50000000E+00  8.00000000E-01  8.00000000E-01
  1.50000000E+00  8.00000000E-01  8.00000000E-01  1.50000000E+00  8.00000000E-01
  8.00000000E-01  1.50000000E+00  8.00000000E-01  8.00000000E-01  1.50000000E+00
  8.00000000E-01  8.00000000E-01  1.50000000E+00  8.00000000E-01  8.00000000E-01
  1.50000000E+00  8.00000000E-01  8.00000000E-01  1.50000000E+00  8.00000000E-01
  8.00000000E-01  1.50000000E+00  8.00000000E-01  8.00000000E-01  1.50000000E+00
  8.00000000E-01  8.00000000E-01  1.50000000E+00  8.00000000E-01  8.00000000E-01
  1.50000000E+00  8.00000000E-01  8.00000000E-01  1.50000000E+00  8.00000000E-01
  8.00000000E-01  1.50000000E+00  8.00000000E-01  8.00000000E-01  1.50000000E+00
  8.00000000E-01  8.00000000E-01  1.50000000E+00  8.00000000E-01  8.00000000E-01
  1.50000000E+00  8.00000000E-01  8.00000000E-01  1.50000000E+00  8.00000000E-01
  8.00000000E-01  1.50000000E+00  8.00000000E-01  8.00000000E-01  1.50000000E+00
  8.00000000E-01  8.00000000E-01  1.50000000E+00  8.00000000E-01  8.00000000E-01
  1.50000000E+00  8.00000000E-01  8.00000000E-01  1.50000000E+00  8.00000000E-01
  8.00000000E-01  1.50000000E+00  8.00000000E-01  8.00000000E-01  1.50000000E+00
  8.00000000E-01  8.00000000E-01  1.50000000E+00  8.00000000E-01  8.00000000E-01
  1.50000000E+00  8.00000000E-01  8.00000000E-01  1.50000000E+00  8.00000000E-01
  8.00000000E-01  1.50000000E+00  8.00000000E-01  8.00000000E-01  1.50000000E+00
  8.00000000E-01  8.00000000E-01  1.50000000E+00  8.00000000E-01  8.00000000E-01
  1.50000000E+00  8.00000000E-01  8.00000000E-01  1.50000000E+00  8.00000000E-01
  8.00000000E-01  1.50000000E+00  8.00000000E-01  8.00000000E-01  1.50000000E+00
  8.00000000E-01  8.00000000E-01  1.50000000E+00  8.00000000E-01  8.00000000E-01
  1.50000000E+00  8.00000000E-01  8.00000000E-01  1.50000000E+00  8.00000000E-01
  8.00000000E-01  1.50000000E+00  8.00000000E-01  8.00000000E-01  1.50000000E+00
  8.00000000E-01  8.00000000E-01  1.50000000E+00  8.00000000E-01  8.00000000E-01
  1.50000000E+00  8.00000000E-01  8.00000000E-01  1.50000000E+00  8.00000000E-01
  8.00000000E-01  1.50000000E+00  8.00000000E-01  8.00000000E-01  1.50000000E+00
  8.00000000E-01  8.00000000E-01  1.50000000E+00  8.00000000E-01  8.00000000E-01
  1.50000000E+00  8.00000000E-01  8.00000000E-01  1.50000000E+00  8.00000000E-01
  8.00000000E-01  1.50000000E+00  8.00000000E-01  8.00000000E-01  1.50000000E+00
  8.00000000E-01  8.00000000E-01  1.50000000E+00  8.00000000E-01  8.00000000E-01
  1.50000000E+00  8.00000000E-01  8.00000000E-01  1.50000000E+00  8.00000000E-01
  8.00000000E-01  1.50000000E+00  8.00000000E-01  8.00000000E-01  1.50000000E+00
  8.00000000E-01  8.00000000E-01  1.50000000E+00  8.00000000E-01  8.00000000E-01
  1.50000000E+00  8.00000000E-01  8.00000000E-01  1.50000000E+00  8.00000000E-01
  8.00000000E-01  1.50000000E+00  8.00000000E-01  8.00000000E-01  1.50000000E+00
  8.00000000E-01  8.00000000E-01  1.50000000E+00  8.00000000E-01  8.00000000E-01
  1.50000000E+00  8.00000000E-01  8.00000000E-01  1.50000000E+00  8.00000000E-01
  8.00000000E-01  1.50000000E+00  8.00000000E-01  8.00000000E-01  1.50000000E+00
  8.00000000E-01  8.00000000E-01  1.50000000E+00  8.00000000E-01  8.00000000E-01
  1.50000000E+00  8.00000000E-01  8.00000000E-01  1.50000000E+00  8.00000000E-01
  8.00000000E-01  1.50000000E+00  8.00000000E-01  8.00000000E-01  1.50000000E+00
  8.00000000E-01  8.00000000E-01  1.50000000E+00  8.00000000E-01  8.00000000E-01
  1.50000000E+00  8.00000000E-01  8.00000000E-01  1.50000000E+00  8.00000000E-01
  8.00000000E-01  1.50000000E+00  8.00000000E-01  8.00000000E-01  1.50000000E+00
  8.00000000E-01  8.00000000E-01  1.50000000E+00  8.00000000E-01  8.00000000E-01
  1.50000000E+00  8.00000000E-01  8.00000000E-01  1.50000000E+00  8.00000000E-01
  8.00000000E-01  1.50000000E+00  8.00000000E-01  8.00000000E-01  1.50000000E+00
  8.00000000E-01  8.00000000E-01  1.50000000E+00  8.00000000E-01  8.00000000E-01
  1.50000000E+00  8.00000000E-01  8.00000000E-01  1.50000000E+00  8.00000000E-01
  8.00000000E-01  1.50000000E+00  8.00000000E-01  8.00000000E-01  1.50000000E+00
  8.00000000E-01  8.00000000E-01  1.50000000E+00  8.00000000E-01  8.00000000E-01
  1.50000000E+00  8.00000000E-01  8.00000000E-01  1.50000000E+00  8.00000000E-01
  8.00000000E-01  1.50000000E+00  8.00000000E-01  8.00000000E-01  1.50000000E+00
  8.00000000E-01  8.00000000E-01  1.50000000E+00  8.00000000E-01  8.00000000E-01
  1.50000000E+00  8.00000000E-01  8.00000000E-01  1.50000000E+00  8.00000000E-01
  8.00000000E-01  1.50000000E+00  8.00000000E-01  8.00000000E-01  1.50000000E+00
  8.00000000E-01  8.00000000E-01  1.50000000E+00  8.00000000E-01  8.00000000E-01
  1.50000000E+00  8.00000000E-01  8.00000000E-01  1.50000000E+00  8.00000000E-01
  8.00000000E-01  1.50000000E+00  8.00000000E-01  8.00000000E-01  1.50000000E+00
  8.00000000E-01  8.00000000E-01  1.50000000E+00  8.00000000E-01  8.00000000E-01
  1.50000000E+00  8.00000000E-01  8.00000000E-01  1.50000000E+00  8.00000000E-01
  8.00000000E-01  1.50000000E+00  8.00000000E-01  8.00000000E-01  1.50000000E+00
  8.00000000E-01  8.00000000E-01  1.50000000E+00  8.00000000E-01  8.00000000E-01
  1.50000000E+00  8.00000000E-01  8.00000000E-01  1.50000000E+00  8.00000000E-01
  8.00000000E-01  1.50000000E+00  8.00000000E-01  8.00000000E-01  1.50000000E+00
  8.00000000E-01  8.00000000E-01  1.50000000E+00  8.00000000E-01  8.00000000E-01
  1.50000000E+00  8.00000000E-01  8.00000000E-01  1.50000000E+00  8.00000000E-01
  8.00000000E-01  1.50000000E+00  8.00000000E-01  8.00000000E-01  1.50000000E+00
  8.00000000E-01  8.00000000E-01  1.50000000E+00  8.00000000E-01  8.00000000E-01
  1.50000000E+00  8.00000000E-01  8.00000000E-01  1.50000000E+00  8.00000000E-01
  8.00000000E-01  1.50000000E+00  8.00000000E-01  8.00000000E-01  1.50000000E+00
  8.00000000E-01  8.00000000E-01  1.50000000E+00  8.00000000E-01  8.00000000E-01
  1.50000000E+00  8.00000000E-01  8.00000000E-01  1.50000000E+00  8.00000000E-01
  8.00000000E-01  1.50000000E+00  8.00000000E-01  8.00000000E-01  1.50000000E+00
  8.00000000E-01  8.00000000E-01  1.50000000E+00  8.00000000E-01  8.00000000E-01
  1.50000000E+00  8.00000000E-01  8.00000000E-01  1.50000000E+00  8.00000000E-01
  8.00000000E-01  1.50000000E+00  8.00000000E-01  8.00000000E-01  1.50000000E+00
  8.00000000E-01  8.00000000E-01  1.50000000E+00  8.00000000E-01  8.00000000E-01
  1.50000000E+00  8.00000000E-01  8.00000000E-01  1.50000000E+00  8.00000000E-01
  8.00000000E-01  1.50000000E+00  8.00000000E-01  8.00000000E-01  1.50000000E+00
  8.00000000E-01  8.00000000E-01  1.50000000E+00  8.00000000E-01  8.00000000E-01
  1.50000000E+00  8.00000000E-01  8.00000000E-01  1.50000000E+00  8.00000000E-01
  8.00000000E-01  1.50000000E+00  8.00000000E-01  8.00000000E-01  1.50000000E+00
  8.00000000E-01  8.00000000E-01  1.50000000E+00  8.00000000E-01  8.00000000E-01
  1.50000000E+00  8.00000000E-01  8.00000000E-01  1.50000000E+00  8.00000000E-01
  8.00000000E-01  1.50000000E+00  8.00000000E-01  8.00000000E-01  1.50000000E+00
  8.00000000E-01  8.00000000E-01  1.50000000E+00  8.00000000E-01  8.00000000E-01
  1.50000000E+00  8.00000000E-01  8.00000000E-01  1.50000000E+00  8.00000000E-01
  8.00000000E-01  1.50000000E+00  8.00000000E-01  8.00000000E-01  1.50000000E+00
  8.00000000E-01  8.00000000E-01  1.50000000E+00  8.00000000E-01  8.00000000E-01
  1.50000000E+00  8.00000000E-01  8.00000000E-01  1.50000000E+00  8.00000000E-01
  8.00000000E-01  1.50000000E+00  8.00000000E-01  8.00000000E-01  1.50000000E+00
  8.00000000E-01  8.00000000E-01  1.50000000E+00  8.00000000E-01  8.00000000E-01
  1.50000000E+00  8.00000000E-01  8.00000000E-01  1.50000000E+00  8.00000000E-01
  8.00000000E-01  1.50000000E+00  8.00000000E-01  8.00000000E-01  1.50000000E+00
  8.00000000E-01  8.00000000E-01  1.50000000E+00  8.00000000E-01  8.00000000E-01
  1.50000000E+00  8.00000000E-01  8.00000000E-01  1.50000000E+00  8.00000000E-01
  8.00000000E-01  1.50000000E+00  8.00000000E-01  8.00000000E-01  1.50000000E+00
  8.00000000E-01  8.00000000E-01  1.50000000E+00  8.00000000E-01  8.00000000E-01
  1.50000000E+00  8.00000000E-01  8.00000000E-01  1.50000000E+00  8.00000000E-01
  8.00000000E-01  1.50000000E+00  8.00000000E-01  8.00000000E-01  1.50000000E+00
  8.00000000E-01  8.00000000E-01  1.50000000E+00  8.00000000E-01  8.00000000E-01
  1.50000000E+00  8.00000000E-01  8.00000000E-01  1.50000000E+00  8.00000000E-01
  8.00000000E-01  1.50000000E+00  8.00000000E-01  8.00000000E-01  1.50000000E+00
  8.00000000E-01  8.00000000E-01  1.50000000E+00  8.00000000E-01  8.00000000E-01
  1.50000000E+00  8.00000000E-01  8.00000000E-01  1.50000000E+00  8.00000000E-01
  8.00000000E-01  1.50000000E+00  8.00000000E-01  8.00000000E-01  1.50000000E+00
  8.00000000E-01  8.00000000E-01  1.50000000E+00  8.00000000E-01  8.00000000E-01
  1.50000000E+00  8.00000000E-01  8.00000000E-01  1.50000000E+00  8.00000000E-01
  8.00000000E-01  1.50000000E+00  8.00000000E-01  8.00000000E-01  1.50000000E+00
  8.00000000E-01  8.00000000E-01  1.50000000E+00  8.00000000E-01  8.00000000E-01
  1.50000000E+00  8.00000000E-01  8.00000000E-01  1.50000000E+00  8.00000000E-01
  8.00000000E-01  1.50000000E+00  8.00000000E-01  8.00000000E-01  1.50000000E+00
  8.00000000E-01  8.00000000E-01  1.50000000E+00  8.00000000E-01  8.00000000E-01
  1.50000000E+00  8.00000000E-01  8.00000000E-01  1.50000000E+00  8.00000000E-01
  8.00000000E-01  1.50000000E+00  8.00000000E-01  8.00000000E-01  1.50000000E+00
  8.00000000E-01  8.00000000E-01  1.50000000E+00  8.00000000E-01  8.00000000E-01
  1.50000000E+00  8.00000000E-01  8.00000000E-01  1.50000000E+00  8.00000000E-01
  8.00000000E-01  1.50000000E+00  8.00000000E-01  8.00000000E-01  1.50000000E+00
  8.00000000E-01  8.00000000E-01  1.50000000E+00  8.00000000E-01  8.00000000E-01
  1.50000000E+00  8.00000000E-01  8.00000000E-01  1.50000000E+00  8.00000000E-01
  8.00000000E-01  1.50000000E+00  8.00000000E-01  8.00000000E-01  1.50000000E+00
  8.00000000E-01  8.00000000E-01  1.50000000E+00  8.00000000E-01  8.00000000E-01
  1.50000000E+00  8.00000000E-01  8.00000000E-01  1.50000000E+00  8.00000000E-01
  8.00000000E-01  1.50000000E+00  8.00000000E-01  8.00000000E-01  1.50000000E+00
  8.00000000E-01  8.00000000E-01  1.50000000E+00  8.00000000E-01  8.00000000E-01
  1.50000000E+00  8.00000000E-01  8.00000000E-01  1.50000000E+00  8.00000000E-01
  8.00000000E-01  1.50000000E+00  8.00000000E-01  8.00000000E-01  1.50000000E+00
  8.00000000E-01  8.00000000E-01  1.50000000E+00  8.00000000E-01  8.00000000E-01
  1.50000000E+00  8.00000000E-01  8.00000000E-01  1.50000000E+00  8.00000000E-01
  8.00000000E-01  1.50000000E+00  8.00000000E-01  8.00000000E-01  1.50000000E+00
  8.00000000E-01  8.00000000E-01  1.50000000E+00  8.00000000E-01  8.00000000E-01
  1.50000000E+00  8.00000000E-01  8.00000000E-01  1.50000000E+00  8.00000000E-01
  8.00000000E-01  1.50000000E+00  8.00000000E-01  8.00000000E-01  1.50000000E+00
  8.00000000E-01  8.00000000E-01  1.50000000E+00  8.00000000E-01  8.00000000E-01
  1.50000000E+00  8.00000000E-01  8.00000000E-01  1.50000000E+00  8.00000000E-01
  8.00000000E-01  1.50000000E+00  8.00000000E-01  8.00000000E-01  1.50000000E+00
  8.00000000E-01  8.00000000E-01  1.50000000E+00  8.00000000E-01  8.00000000E-01
  1.50000000E+00  8.00000000E-01  8.00000000E-01  1.50000000E+00  8.00000000E-01
  8.00000000E-01  1.50000000E+00  8.00000000E-01  8.00000000E-01  1.50000000E+00
  8.00000000E-01  8.00000000E-01  1.50000000E+00  8.00000000E-01  8.00000000E-01
  1.50000000E+00  8.00000000E-01  8.00000000E-01  1.50000000E+00  8.00000000E-01
  8.00000000E-01  1.50000000E+00  8.00000000E-01  8.00000000E-01  1.50000000E+00
  8.00000000E-01  8.00000000E-01  1.50000000E+00  8.00000000E-01  8.00000000E-01
  1.50000000E+00  8.00000000E-01  8.00000000E-01  1.50000000E+00  8.00000000E-01
  8.00000000E-01  1.50000000E+00  8.00000000E-01  8.00000000E-01  1.50000000E+00
  8.00000000E-01  8.00000000E-01  1.50000000E+00  8.00000000E-01  8.00000000E-01
  1.50000000E+00  8.00000000E-01  8.00000000E-01  1.50000000E+00  8.00000000E-01
  8.00000000E-01  1.50000000E+00  8.00000000E-01  8.00000000E-01  1.50000000E+00
  8.00000000E-01  8.00000000E-01  1.50000000E+00  8.00000000E-01  8.00000000E-01
  1.50000000E+00  8.00000000E-01  8.00000000E-01  1.50000000E+00  8.00000000E-01
  8.00000000E-01  1.50000000E+00  8.00000000E-01  8.00000000E-01  1.50000000E+00
  8.00000000E-01  8.00000000E-01  1.50000000E+00  8.00000000E-01  8.00000000E-01
  1.50000000E+00  8.00000000E-01  8.00000000E-01  1.50000000E+00  8.00000000E-01
  8.00000000E-01  1.50000000E+00  8.00000000E-01  8.00000000E-01  1.50000000E+00
  8.00000000E-01  8.00000000E-01  1.50000000E+00  8.00000000E-01  8.00000000E-01
  1.50000000E+00  8.00000000E-01  8.00000000E-01  1.50000000E+00  8.00000000E-01
  8.00000000E-01  1.50000000E+00  8.00000000E-01  8.00000000E-01  1.50000000E+00
  8.00000000E-01  8.00000000E-01  1.50000000E+00  8.00000000E-01  8.00000000E-01
  1.50000000E+00  8.00000000E-01  8.00000000E-01  1.50000000E+00  8.00000000E-01
  8.00000000E-01  1.50000000E+00  8.00000000E-01  8.00000000E-01  1.50000000E+00
  8.00000000E-01  8.00000000E-01  1.50000000E+00  8.00000000E-01  8.00000000E-01
  1.50000000E+00  8.00000000E-01  8.00000000E-01  1.50000000E+00  8.00000000E-01
  8.00000000E-01  1.50000000E+00  8.00000000E-01  8.00000000E-01  1.50000000E+00
  8.00000000E-01  8.00000000E-01  1.50000000E+00  8.00000000E-01  8.00000000E-01
  1.50000000E+00  8.00000000E-01  8.00000000E-01  1.50000000E+00  8.00000000E-01
  8.00000000E-01  1.50000000E+00  8.00000000E-01  8.00000000E-01  1.50000000E+00
  8.00000000E-01  8.00000000E-01  1.50000000E+00  8.00000000E-01  8.00000000E-01
  1.50000000E+00  8.00000000E-01  8.00000000E-01  1.50000000E+00  8.00000000E-01
  8.00000000E-01  1.50000000E+00  8.00000000E-01  8.00000000E-01  1.50000000E+00
  8.00000000E-01  8.00000000E-01  1.50000000E+00  8.00000000E-01  8.00000000E-01
  1.50000000E+00  8.00000000E-01  8.00000000E-01  1.50000000E+00  8.00000000E-01
  8.00000000E-01  1.50000000E+00  8.00000000E-01  8.00000000E-01  1.50000000E+00
  8.00000000E-01  8.00000000E-01  1.50000000E+00  8.00000000E-01  8.00000000E-01
  1.50000000E+00  8.00000000E-01  8.00000000E-01  1.50000000E+00  8.00000000E-01
  8.00000000E-01  1.50000000E+00  8.00000000E-01  8.00000000E-01  1.50000000E+00
  8.00000000E-01  8.00000000E-01  1.50000000E+00  8.00000000E-01  8.00000000E-01
  1.50000000E+00  8.00000000E-01  8.00000000E-01  1.50000000E+00  8.00000000E-01
  8.00000000E-01  1.50000000E+00  8.00000000E-01  8.00000000E-01  1.50000000E+00
  8.00000000E-01  8.00000000E-01  1.50000000E+00  8.00000000E-01  8.00000000E-01
  1.50000000E+00  8.00000000E-01  8.00000000E-01  1.50000000E+00  8.00000000E-01
  8.00000000E-01  1.50000000E+00  8.00000000E-01  8.00000000E-01  1.50000000E+00
  8.00000000E-01  8.00000000E-01  1.50000000E+00  8.00000000E-01  8.00000000E-01
  1.50000000E+00  8.00000000E-01  8.00000000E-01  1.50000000E+00  8.00000000E-01
  8.00000000E-01  1.50000000E+00  8.00000000E-01  8.00000000E-01  1.50000000E+00
  8.00000000E-01  8.00000000E-01  1.50000000E+00  8.00000000E-01  8.00000000E-01
  1.50000000E+00  8.00000000E-01  8.00000000E-01  1.50000000E+00  8.00000000E-01
  8.00000000E-01  1.50000000E+00  8.00000000E-01  8.00000000E-01  1.50000000E+00
  8.00000000E-01  8.00000000E-01  1.50000000E+00  8.00000000E-01  8.00000000E-01
  1.50000000E+00  8.00000000E-01  8.00000000E-01  1.50000000E+00  8.00000000E-01
  8.00000000E-01  1.50000000E+00  8.00000000E-01  8.00000000E-01  1.50000000E+00
  8.00000000E-01  8.00000000E-01  1.50000000E+00  8.00000000E-01  8.00000000E-01
  1.50000000E+00  8.00000000E-01  8.00000000E-01  1.50000000E+00  8.00000000E-01
  8.00000000E-01  1.50000000E+00  8.00000000E-01  8.00000000E-01  1.50000000E+00
  8.00000000E-01  8.00000000E-01  1.50000000E+00  8.00000000E-01  8.00000000E-01
  1.50000000E+00  8.00000000E-01  8.00000000E-01  1.50000000E+00  8.00000000E-01
  8.00000000E-01  1.50000000E+00  8.00000000E-01  8.00000000E-01  1.50000000E+00
  8.00000000E-01  8.00000000E-01  1.50000000E+00  8.00000000E-01  8.00000000E-01
  1.50000000E+00  8.00000000E-01  8.00000000E-01  1.50000000E+00  8.00000000E-01
  8.00000000E-01  1.50000000E+00  8.00000000E-01  8.00000000E-01  1.50000000E+00
  8.00000000E-01  8.00000000E-01  1.50000000E+00  8.00000000E-01  8.00000000E-01
  1.50000000E+00  8.00000000E-01  8.00000000E-01  1.50000000E+00  8.00000000E-01
  8.00000000E-01  1.50000000E+00  8.00000000E-01  8.00000000E-01  1.50000000E+00
  8.00000000E-01  8.00000000E-01  1.50000000E+00  8.00000000E-01  8.00000000E-01
  1.50000000E+00  8.00000000E-01  8.00000000E-01  1.50000000E+00  8.00000000E-01
  8.00000000E-01  1.50000000E+00  8.00000000E-01  8.00000000E-01  1.50000000E+00
  8.00000000E-01  8.00000000E-01  1.50000000E+00  8.00000000E-01  8.00000000E-01
  1.50000000E+00  8.00000000E-01  8.00000000E-01  1.50000000E+00  8.00000000E-01
  8.00000000E-01  1.50000000E+00  8.00000000E-01  8.00000000E-01  1.50000000E+00
  8.00000000E-01  8.00000000E-01  1.50000000E+00  8.00000000E-01  8.00000000E-01
  1.50000000E+00  8.00000000E-01  8.00000000E-01  1.50000000E+00  8.00000000E-01
  8.00000000E-01  1.50000000E+00  8.00000000E-01  8.00000000E-01  1.50000000E+00
  8.00000000E-01  8.00000000E-01  1.50000000E+00  8.00000000E-01  8.00000000E-01
  1.50000000E+00  8.00000000E-01  8.00000000E-01  1.50000000E+00  8.00000000E-01
  8.00000000E-01  1.50000000E+00  8.00000000E-01  8.00000000E-01  1.50000000E+00
  8.00000000E-01  8.00000000E-01  1.50000000E+00  8.00000000E-01  8.00000000E-01
  1.50000000E+00  8.00000000E-01  8.00000000E-01  1.50000000E+00  8.00000000E-01
  8.00000000E-01  1.50000000E+00  8.00000000E-01  8.00000000E-01  1.50000000E+00
  8.00000000E-01  8.00000000E-01  1.50000000E+00  8.00000000E-01  8.00000000E-01
  1.50000000E+00  8.00000000E-01  8.00000000E-01  1.50000000E+00  8.00000000E-01
  8.00000000E-01  1.50000000E+00  8.00000000E-01  8.00000000E-01  1.50000000E+00
  8.00000000E-01  8.00000000E-01  1.50000000E+00  8.00000000E-01  8.00000000E-01
  1.50000000E+00  8.00000000E-01  8.00000000E-01  1.50000000E+00  8.00000000E-01
  8.00000000E-01  1.50000000E+00  8.00000000E-01  8.00000000E-01  1.50000000E+00
  8.00000000E-01  8.00000000E-01  1.50000000E+00  8.00000000E-01  8.00000000E-01
  1.50000000E+00  8.00000000E-01  8.00000000E-01  1.50000000E+00  8.00000000E-01
  8.00000000E-01  1.50000000E+00  8.00000000E-01  8.00000000E-01  1.50000000E+00
  8.00000000E-01  8.00000000E-01  1.50000000E+00  8.00000000E-01  8.00000000E-01
  1.50000000E+00  8.00000000E-01  8.00000000E-01  1.50000000E+00  8.00000000E-01
  8.00000000E-01  1.50000000E+00  8.00000000E-01  8.00000000E-01  1.50000000E+00
  8.00000000E-01  8.00000000E-01  1.50000000E+00  8.00000000E-01  8.00000000E-01
  1.50000000E+00  8.00000000E-01  8.00000000E-01  1.50000000E+00  8.00000000E-01
  8.00000000E-01  1.50000000E+00  8.00000000E-01  8.00000000E-01  1.50000000E+00
  8.00000000E-01  8.00000000E-01  1.50000000E+00  8.00000000E-01  8.00000000E-01
  1.50000000E+00  8.00000000E-01  8.00000000E-01  1.50000000E+00  8.00000000E-01
  8.00000000E-01  1.50000000E+00  8.00000000E-01  8.00000000E-01  1.50000000E+00
  8.00000000E-01  8.00000000E-01  1.50000000E+00  8.00000000E-01  8.00000000E-01
  1.50000000E+00  8.00000000E-01  8.00000000E-01  1.50000000E+00  8.00000000E-01
  8.00000000E-01  1.50000000E+00  8.00000000E-01  8.00000000E-01  1.50000000E+00
  8.00000000E-01  8.00000000E-01  1.50000000E+00  8.00000000E-01  8.00000000E-01
  1.50000000E+00  8.00000000E-01  8.00000000E-01  1.50000000E+00  8.00000000E-01
  8.00000000E-01  1.50000000E+00  8.00000000E-01  8.00000000E-01  1.50000000E+00
  8.00000000E-01  8.00000000E-01  1.50000000E+00  8.00000000E-01  8.00000000E-01
  1.50000000E+00  8.00000000E-01  8.00000000E-01  1.50000000E+00  8.00000000E-01
  8.00000000E-01  1.50000000E+00  8.00000000E-01  8.00000000E-01  1.50000000E+00
  8.00000000E-01  8.00000000E-01  1.50000000E+00  8.00000000E-01  8.00000000E-01
  1.50000000E+00  8.00000000E-01  8.00000000E-01  1.50000000E+00  8.00000000E-01
  8.00000000E-01  1.50000000E+00  8.00000000E-01  8.00000000E-01  1.50000000E+00
  8.00000000E-01  8.00000000E-01  1.50000000E+00  8.00000000E-01  8.00000000E-01
  1.50000000E+00  8.00000000E-01  8.00000000E-01  1.50000000E+00  8.00000000E-01
  8.00000000E-01  1.50000000E+00  8.00000000E-01  8.00000000E-01  1.50000000E+00
  8.00000000E-01  8.00000000E-01  1.50000000E+00  8.00000000E-01  8.00000000E-01
  1.50000000E+00  8.00000000E-01  8.00000000E-01  1.50000000E+00  8.00000000E-01
  8.00000000E-01  1.50000000E+00  8.00000000E-01  8.00000000E-01  1.50000000E+00
  8.00000000E-01  8.00000000E-01  1.50000000E+00  8.00000000E-01  8.00000000E-01
  1.50000000E+00  8.00000000E-01  8.00000000E-01  1.50000000E+00  8.00000000E-01
  8.00000000E-01  1.50000000E+00  8.00000000E-01  8.00000000E-01  1.50000000E+00
  8.00000000E-01  8.00000000E-01  1.50000000E+00  8.00000000E-01  8.00000000E-01
  1.50000000E+00  8.00000000E-01  8.00000000E-01  1.50000000E+00  8.00000000E-01
  8.00000000E-01  1.50000000E+00  8.00000000E-01  8.00000000E-01  1.50000000E+00
  8.00000000E-01  8.00000000E-01  1.50000000E+00  8.00000000E-01  8.00000000E-01
  1.50000000E+00  8.00000000E-01  8.00000000E-01  1.50000000E+00  8.00000000E-01
  8.00000000E-01  1.50000000E+00  8.00000000E-01  8.00000000E-01  1.50000000E+00
  8.00000000E-01  8.00000000E-01  1.50000000E+00  8.00000000E-01  8.00000000E-01
  1.50000000E+00  8.00000000E-01  8.00000000E-01  1.50000000E+00  8.00000000E-01
  8.00000000E-01  1.50000000E+00  8.00000000E-01  8.00000000E-01  1.50000000E+00
  8.00000000E-01  8.00000000E-01  1.50000000E+00  8.00000000E-01  8.00000000E-01
  1.50000000E+00  8.00000000E-01  8.00000000E-01  1.50000000E+00  8.00000000E-01
  8.00000000E-01  1.50000000E+00  8.00000000E-01  8.00000000E-01  1.50000000E+00
  8.00000000E-01  8.00000000E-01  1.50000000E+00  8.00000000E-01  8.00000000E-01
  1.50000000E+00  8.00000000E-01  8.00000000E-01  1.50000000E+00  8.00000000E-01
  8.00000000E-01  1.50000000E+00  8.00000000E-01  8.00000000E-01  1.50000000E+00
  8.00000000E-01  8.00000000E-01  1.50000000E+00  8.00000000E-01  8.00000000E-01
  1.50000000E+00  8.00000000E-01  8.00000000E-01  1.50000000E+00  8.00000000E-01
  8.00000000E-01  1.50000000E+00  8.00000000E-01  8.00000000E-01  1.50000000E+00
  8.00000000E-01  8.00000000E-01  1.50000000E+00  8.00000000E-01  8.00000000E-01
  1.50000000E+00  8.00000000E-01  8.00000000E-01  1.50000000E+00  8.00000000E-01
  8.00000000E-01  1.50000000E+00  8.00000000E-01  8.00000000E-01  1.50000000E+00
  8.00000000E-01  8.00000000E-01  1.50000000E+00  8.00000000E-01  8.00000000E-01
  1.50000000E+00  8.00000000E-01  8.00000000E-01  1.50000000E+00  8.00000000E-01
  8.00000000E-01  1.50000000E+00  8.00000000E-01  8.00000000E-01  1.50000000E+00
  8.00000000E-01  8.00000000E-01  1.50000000E+00  8.00000000E-01  8.00000000E-01
  1.50000000E+00  8.00000000E-01  8.00000000E-01  1.50000000E+00  8.00000000E-01
  8.00000000E-01  1.50000000E+00  8.00000000E-01  8.00000000E-01  1.50000000E+00
  8.00000000E-01  8.00000000E-01  1.50000000E+00  8.00000000E-01  8.00000000E-01
  1.50000000E+00  8.00000000E-01  8.00000000E-01  1.50000000E+00  8.00000000E-01
  8.00000000E-01  1.50000000E+00  8.00000000E-01  8.00000000E-01  1.50000000E+00
  8.00000000E-01  8.00000000E-01  1.50000000E+00  8.00000000E-01  8.00000000E-01
  1.50000000E+00  8.00000000E-01  8.00000000E-01  1.50000000E+00  8.00000000E-01
  8.00000000E-01  1.50000000E+00  8.00000000E-01  8.00000000E-01  1.50000000E+00
  8.00000000E-01  8.00000000E-01  1.50000000E+00  8.00000000E-01  8.00000000E-01
  1.50000000E+00  8.00000000E-01  8.00000000E-01  1.50000000E+00  8.00000000E-01
  8.00000000E-01  1.50000000E+00  8.00000000E-01  8.00000000E-01  1.50000000E+00
  8.00000000E-01  8.00000000E-01  1.50000000E+00  8.00000000E-01  8.00000000E-01
  1.50000000E+00  8.00000000E-01  8.00000000E-01  1.50000000E+00  8.00000000E-01
  8.00000000E-01  1.50000000E+00  8.00000000E-01  8.00000000E-01  1.50000000E+00
  8.00000000E-01  8.00000000E-01  1.50000000E+00  8.00000000E-01  8.00000000E-01
  1.50000000E+00  8.00000000E-01  8.00000000E-01  1.50000000E+00  8.00000000E-01
  8.00000000E-01  1.50000000E+00  8.00000000E-01  8.00000000E-01  1.50000000E+00
  8.00000000E-01  8.00000000E-01  1.50000000E+00  8.00000000E-01  8.00000000E-01
  1.50000000E+00  8.00000000E-01  8.00000000E-01  1.50000000E+00  8.00000000E-01
  8.00000000E-01  1.50000000E+00  8.00000000E-01  8.00000000E-01  1.50000000E+00
  8.00000000E-01  8.00000000E-01  1.50000000E+00  8.00000000E-01  8.00000000E-01
  1.50000000E+00  8.00000000E-01  8.00000000E-01  1.50000000E+00  8.00000000E-01
  8.00000000E-01  1.50000000E+00  8.00000000E-01  8.00000000E-01  1.50000000E+00
  8.00000000E-01  8.00000000E-01  1.50000000E+00  8.00000000E-01  8.00000000E-01
  1.50000000E+00  8.00000000E-01  8.00000000E-01  1.50000000E+00  8.00000000E-01
  8.00000000E-01  1.50000000E+00  8.00000000E-01  8.00000000E-01  1.50000000E+00
  8.00000000E-01  8.00000000E-01  1.50000000E+00  8.00000000E-01  8.00000000E-01
  1.50000000E+00  8.00000000E-01  8.00000000E-01  1.50000000E+00  8.00000000E-01
  8.00000000E-01  1.50000000E+00  8.00000000E-01  8.00000000E-01  1.50000000E+00
  8.00000000E-01  8.00000000E-01  1.50000000E+00  8.00000000E-01  8.00000000E-01
  1.50000000E+00  8.00000000E-01  8.00000000E-01  1.50000000E+00  8.00000000E-01
  8.00000000E-01  1.50000000E+00  8.00000000E-01  8.00000000E-01  1.50000000E+00
  8.00000000E-01  8.00000000E-01  1.50000000E+00  8.00000000E-01  8.00000000E-01
  1.50000000E+00  8.00000000E-01  8.00000000E-01  1.50000000E+00  8.00000000E-01
  8.00000000E-01  1.50000000E+00  8.00000000E-01  8.00000000E-01  1.50000000E+00
  8.00000000E-01  8.00000000E-01  1.50000000E+00  8.00000000E-01  8.00000000E-01
  1.50000000E+00  8.00000000E-01  8.00000000E-01  1.50000000E+00  8.00000000E-01
  8.00000000E-01  1.50000000E+00  8.00000000E-01  8.00000000E-01  1.50000000E+00
  8.00000000E-01  8.00000000E-01  1.50000000E+00  8.00000000E-01  8.00000000E-01
  1.50000000E+00  8.00000000E-01  8.00000000E-01  1.50000000E+00  8.00000000E-01
  8.00000000E-01  1.50000000E+00  8.00000000E-01  8.00000000E-01  1.50000000E+00
  8.00000000E-01  8.00000000E-01  1.50000000E+00  8.00000000E-01  8.00000000E-01
  1.50000000E+00  8.00000000E-01  8.00000000E-01  1.50000000E+00  8.00000000E-01
  8.00000000E-01  1.50000000E+00  8.00000000E-01  8.00000000E-01  1.50000000E+00
  8.00000000E-01  8.00000000E-01  1.50000000E+00  8.00000000E-01  8.00000000E-01
  1.50000000E+00  8.00000000E-01  8.00000000E-01  1.50000000E+00  8.00000000E-01
  8.00000000E-01  1.50000000E+00  8.00000000E-01  8.00000000E-01  1.50000000E+00
  8.00000000E-01  8.00000000E-01  1.50000000E+00  8.00000000E-01  8.00000000E-01
  1.50000000E+00  8.00000000E-01  8.00000000E-01  1.50000000E+00  8.00000000E-01
  8.00000000E-01  1.50000000E+00  8.00000000E-01  8.00000000E-01  1.50000000E+00
  8.00000000E-01  8.00000000E-01  1.50000000E+00  8.00000000E-01  8.00000000E-01
  1.50000000E+00  8.00000000E-01  8.00000000E-01  1.50000000E+00  8.00000000E-01
  8.00000000E-01  1.50000000E+00  8.00000000E-01  8.00000000E-01  1.50000000E+00
  8.00000000E-01  8.00000000E-01  1.50000000E+00  8.00000000E-01  8.00000000E-01
  1.50000000E+00  8.00000000E-01  8.00000000E-01  1.50000000E+00  8.00000000E-01
  8.00000000E-01  1.50000000E+00  8.00000000E-01  8.00000000E-01  1.50000000E+00
  8.00000000E-01  8.00000000E-01  1.50000000E+00  8.00000000E-01  8.00000000E-01
  1.50000000E+00  8.00000000E-01  8.00000000E-01  1.50000000E+00  8.00000000E-01
  8.00000000E-01  1.50000000E+00  8.00000000E-01  8.00000000E-01  1.50000000E+00
  8.00000000E-01  8.00000000E-01  1.50000000E+00  8.00000000E-01  8.00000000E-01
  1.50000000E+00  8.00000000E-01  8.00000000E-01  1.50000000E+00  8.00000000E-01
  8.00000000E-01  1.50000000E+00  8.00000000E-01  8.00000000E-01  1.50000000E+00
  8.00000000E-01  8.00000000E-01  1.50000000E+00  8.00000000E-01  8.00000000E-01
  1.50000000E+00  8.00000000E-01  8.00000000E-01  1.50000000E+00  8.00000000E-01
  8.00000000E-01  1.50000000E+00  8.00000000E-01  8.00000000E-01  1.50000000E+00
  8.00000000E-01  8.00000000E-01  1.50000000E+00  8.00000000E-01  8.00000000E-01
  1.50000000E+00  8.00000000E-01  8.00000000E-01  1.50000000E+00  8.00000000E-01
  8.00000000E-01  1.50000000E+00  8.00000000E-01  8.00000000E-01  1.50000000E+00
  8.00000000E-01  8.00000000E-01  1.50000000E+00  8.00000000E-01  8.00000000E-01
  1.50000000E+00  8.00000000E-01  8.00000000E-01  1.50000000E+00  8.00000000E-01
  8.00000000E-01  1.50000000E+00  8.00000000E-01  8.00000000E-01  1.50000000E+00
  8.00000000E-01  8.00000000E-01  1.50000000E+00  8.00000000E-01  8.00000000E-01
  1.50000000E+00  8.00000000E-01  8.00000000E-01  1.50000000E+00  8.00000000E-01
  8.00000000E-01  1.50000000E+00  8.00000000E-01  8.00000000E-01  1.50000000E+00
  8.00000000E-01  8.00000000E-01  1.50000000E+00  8.00000000E-01  8.00000000E-01
  1.50000000E+00  8.00000000E-01  8.00000000E-01  1.50000000E+00  8.00000000E-01
  8.00000000E-01  1.50000000E+00  8.00000000E-01  8.00000000E-01  1.50000000E+00
  8.00000000E-01  8.00000000E-01  1.50000000E+00  8.00000000E-01  8.00000000E-01
  1.50000000E+00  8.00000000E-01  8.00000000E-01  1.50000000E+00  8.00000000E-01
  8.00000000E-01  1.50000000E+00  8.00000000E-01  8.00000000E-01  1.50000000E+00
  8.00000000E-01  8.00000000E-01  1.50000000E+00  8.00000000E-01  8.00000000E-01
  1.50000000E+00  8.00000000E-01  8.00000000E-01  1.50000000E+00  8.00000000E-01
  8.00000000E-01  1.50000000E+00  8.00000000E-01  8.00000000E-01  1.50000000E+00
  8.00000000E-01  8.00000000E-01  1.50000000E+00  8.00000000E-01  8.00000000E-01
  1.50000000E+00  8.00000000E-01  8.00000000E-01  1.50000000E+00  8.00000000E-01
  8.00000000E-01  1.50000000E+00  8.00000000E-01  8.00000000E-01  1.50000000E+00
  8.00000000E-01  8.00000000E-01  1.50000000E+00  8.00000000E-01  8.00000000E-01
  1.50000000E+00  8.00000000E-01  8.00000000E-01  1.50000000E+00  8.00000000E-01
  8.00000000E-01  1.50000000E+00  8.00000000E-01  8.00000000E-01  1.50000000E+00
  8.00000000E-01  8.00000000E-01  1.50000000E+00  8.00000000E-01  8.00000000E-01
  1.50000000E+00  8.00000000E-01  8.00000000E-01  1.50000000E+00  8.00000000E-01
  8.00000000E-01  1.50000000E+00  8.00000000E-01  8.00000000E-01  1.50000000E+00
  8.00000000E-01  8.00000000E-01  1.50000000E+00  8.00000000E-01  8.00000000E-01
  1.50000000E+00  8.00000000E-01  8.00000000E-01  1.50000000E+00  8.00000000E-01
  8.00000000E-01  1.50000000E+00  8.00000000E-01  8.00000000E-01  1.50000000E+00
  8.00000000E-01  8.00000000E-01  1.50000000E+00  8.00000000E-01  8.00000000E-01
  1.50000000E+00  8.00000000E-01  8.00000000E-01  1.50000000E+00  8.00000000E-01
  8.00000000E-01  1.50000000E+00  8.00000000E-01  8.00000000E-01  1.50000000E+00
  8.00000000E-01  8.00000000E-01  1.50000000E+00  8.00000000E-01  8.00000000E-01
  1.50000000E+00  8.00000000E-01  8.00000000E-01  1.50000000E+00  8.00000000E-01
  8.00000000E-01  1.50000000E+00  8.00000000E-01  8.00000000E-01  1.50000000E+00
  8.00000000E-01  8.00000000E-01  1.50000000E+00  8.00000000E-01  8.00000000E-01
  1.50000000E+00  8.00000000E-01  8.00000000E-01  1.50000000E+00  8.00000000E-01
  8.00000000E-01  1.50000000E+00  8.00000000E-01  8.00000000E-01  1.50000000E+00
  8.00000000E-01  8.00000000E-01  1.50000000E+00  8.00000000E-01  8.00000000E-01
  1.50000000E+00  8.00000000E-01  8.00000000E-01  1.50000000E+00  8.00000000E-01
  8.00000000E-01  1.50000000E+00  8.00000000E-01  8.00000000E-01  1.50000000E+00
  8.00000000E-01  8.00000000E-01  1.50000000E+00  8.00000000E-01  8.00000000E-01
  1.50000000E+00  8.00000000E-01  8.00000000E-01  1.50000000E+00  8.00000000E-01
  8.00000000E-01  1.50000000E+00  8.00000000E-01  8.00000000E-01  1.50000000E+00
  8.00000000E-01  8.00000000E-01  1.50000000E+00  8.00000000E-01  8.00000000E-01
  1.50000000E+00  8.00000000E-01  8.00000000E-01  1.50000000E+00  8.00000000E-01
  8.00000000E-01  1.50000000E+00  8.00000000E-01  8.00000000E-01  1.50000000E+00
  8.00000000E-01  8.00000000E-01  1.50000000E+00  8.00000000E-01  8.00000000E-01
  1.50000000E+00  8.00000000E-01  8.00000000E-01  1.50000000E+00  8.00000000E-01
  8.00000000E-01  1.50000000E+00  8.00000000E-01  8.00000000E-01  1.50000000E+00
  8.00000000E-01  8.00000000E-01  1.50000000E+00  8.00000000E-01  8.00000000E-01
  1.50000000E+00  8.00000000E-01  8.00000000E-01  1.50000000E+00  8.00000000E-01
  8.00000000E-01  1.50000000E+00  8.00000000E-01  8.00000000E-01  1.50000000E+00
  8.00000000E-01  8.00000000E-01  1.50000000E+00  8.00000000E-01  8.00000000E-01
  1.50000000E+00  8.00000000E-01  8.00000000E-01  1.50000000E+00  8.00000000E-01
  8.00000000E-01  1.50000000E+00  8.00000000E-01  8.00000000E-01  1.50000000E+00
  8.00000000E-01  8.00000000E-01  1.50000000E+00  8.00000000E-01  8.00000000E-01
  1.50000000E+00  8.00000000E-01  8.00000000E-01  1.50000000E+00  8.00000000E-01
  8.00000000E-01  1.50000000E+00  8.00000000E-01  8.00000000E-01  1.50000000E+00
  8.00000000E-01  8.00000000E-01  1.50000000E+00  8.00000000E-01  8.00000000E-01
  1.50000000E+00  8.00000000E-01  8.00000000E-01  1.50000000E+00  8.00000000E-01
  8.00000000E-01  1.50000000E+00  8.00000000E-01  8.00000000E-01  1.50000000E+00
  8.00000000E-01  8.00000000E-01  1.50000000E+00  8.00000000E-01  8.00000000E-01
  1.50000000E+00  8.00000000E-01  8.00000000E-01  1.50000000E+00  8.00000000E-01
  8.00000000E-01  1.50000000E+00  8.00000000E-01  8.00000000E-01  1.50000000E+00
  8.00000000E-01  8.00000000E-01  1.50000000E+00  8.00000000E-01  8.00000000E-01
  1.50000000E+00  8.00000000E-01  8.00000000E-01  1.50000000E+00  8.00000000E-01
  8.00000000E-01  1.50000000E+00  8.00000000E-01  8.00000000E-01  1.50000000E+00
  8.00000000E-01  8.00000000E-01  1.50000000E+00  8.00000000E-01  8.00000000E-01
  1.50000000E+00  8.00000000E-01  8.00000000E-01  1.50000000E+00  8.00000000E-01
  8.00000000E-01  1.50000000E+00  8.00000000E-01  8.00000000E-01  1.50000000E+00
  8.00000000E-01  8.00000000E-01  1.50000000E+00  8.00000000E-01  8.00000000E-01
  1.50000000E+00  8.00000000E-01  8.00000000E-01  1.50000000E+00  8.00000000E-01
  8.00000000E-01  1.50000000E+00  8.00000000E-01  8.00000000E-01  1.50000000E+00
  8.00000000E-01  8.00000000E-01  1.50000000E+00  8.00000000E-01  8.00000000E-01
  1.50000000E+00  8.00000000E-01  8.00000000E-01  1.50000000E+00  8.00000000E-01
  8.00000000E-01  1.50000000E+00  8.00000000E-01  8.00000000E-01  1.50000000E+00
  8.00000000E-01  8.00000000E-01  1.50000000E+00  8.00000000E-01  8.00000000E-01
  1.50000000E+00  8.00000000E-01  8.00000000E-01  1.50000000E+00  8.00000000E-01
  8.00000000E-01  1.50000000E+00  8.00000000E-01  8.00000000E-01  1.50000000E+00
  8.00000000E-01  8.00000000E-01  1.50000000E+00  8.00000000E-01  8.00000000E-01
  1.50000000E+00  8.00000000E-01  8.00000000E-01  1.50000000E+00  8.00000000E-01
  8.00000000E-01  1.50000000E+00  8.00000000E-01  8.00000000E-01  1.50000000E+00
  8.00000000E-01  8.00000000E-01  1.50000000E+00  8.00000000E-01  8.00000000E-01
  1.50000000E+00  8.00000000E-01  8.00000000E-01  1.50000000E+00  8.00000000E-01
  8.00000000E-01  1.50000000E+00  8.00000000E-01  8.00000000E-01  1.50000000E+00
  8.00000000E-01  8.00000000E-01  1.50000000E+00  8.00000000E-01  8.00000000E-01
  1.50000000E+00  8.00000000E-01  8.00000000E-01  1.50000000E+00  8.00000000E-01
  8.00000000E-01  1.50000000E+00  8.00000000E-01  8.00000000E-01  1.50000000E+00
  8.00000000E-01  8.00000000E-01  1.50000000E+00  8.00000000E-01  8.00000000E-01
  1.50000000E+00  8.00000000E-01  8.00000000E-01  1.50000000E+00  8.00000000E-01
  8.00000000E-01  1.50000000E+00  8.00000000E-01  8.00000000E-01  1.50000000E+00
  8.00000000E-01  8.00000000E-01  1.50000000E+00  8.00000000E-01  8.00000000E-01
  1.50000000E+00  8.00000000E-01  8.00000000E-01  1.50000000E+00  8.00000000E-01
  8.00000000E-01  1.50000000E+00  8.00000000E-01  8.00000000E-01  1.50000000E+00
  8.00000000E-01  8.00000000E-01  1.50000000E+00  8.00000000E-01  8.00000000E-01
  1.50000000E+00  8.00000000E-01  8.00000000E-01  1.50000000E+00  8.00000000E-01
  8.00000000E-01  1.50000000E+00  8.00000000E-01  8.00000000E-01  1.50000000E+00
  8.00000000E-01  8.00000000E-01  1.50000000E+00  8.00000000E-01  8.00000000E-01
  1.50000000E+00  8.00000000E-01  8.00000000E-01  1.50000000E+00  8.00000000E-01
  8.00000000E-01  1.50000000E+00  8.00000000E-01  8.00000000E-01  1.50000000E+00
  8.00000000E-01  8.00000000E-01  1.50000000E+00  8.00000000E-01  8.00000000E-01
  1.50000000E+00  8.00000000E-01  8.00000000E-01  1.50000000E+00  8.00000000E-01
  8.00000000E-01  1.50000000E+00  8.00000000E-01  8.00000000E-01  1.50000000E+00
  8.00000000E-01  8.00000000E-01  1.50000000E+00  8.00000000E-01  8.00000000E-01
  1.50000000E+00  8.00000000E-01  8.00000000E-01  1.50000000E+00  8.00000000E-01
  8.00000000E-01  1.50000000E+00  8.00000000E-01  8.00000000E-01  1.50000000E+00
  8.00000000E-01  8.00000000E-01  1.50000000E+00  8.00000000E-01  8.00000000E-01
  1.50000000E+00  8.00000000E-01  8.00000000E-01  1.50000000E+00  8.00000000E-01
  8.00000000E-01  1.50000000E+00  8.00000000E-01  8.00000000E-01  1.50000000E+00
  8.00000000E-01  8.00000000E-01  1.50000000E+00  8.00000000E-01  8.00000000E-01
  1.50000000E+00  8.00000000E-01  8.00000000E-01  1.50000000E+00  8.00000000E-01
  8.00000000E-01  1.50000000E+00  8.00000000E-01  8.00000000E-01  1.50000000E+00
  8.00000000E-01  8.00000000E-01  1.50000000E+00  8.00000000E-01  8.00000000E-01
  1.50000000E+00  8.00000000E-01  8.00000000E-01  1.50000000E+00  8.00000000E-01
  8.00000000E-01  1.50000000E+00  8.00000000E-01  8.00000000E-01  1.50000000E+00
  8.00000000E-01  8.00000000E-01  1.50000000E+00  8.00000000E-01  8.00000000E-01
  1.50000000E+00  8.00000000E-01  8.00000000E-01  1.50000000E+00  8.00000000E-01
  8.00000000E-01  1.50000000E+00  8.00000000E-01  8.00000000E-01  1.50000000E+00
  8.00000000E-01  8.00000000E-01  1.50000000E+00  8.00000000E-01  8.00000000E-01
  1.50000000E+00  8.00000000E-01  8.00000000E-01  1.50000000E+00  8.00000000E-01
  8.00000000E-01  1.50000000E+00  8.00000000E-01  8.00000000E-01  1.50000000E+00
  8.00000000E-01  8.00000000E-01  1.50000000E+00  8.00000000E-01  8.00000000E-01
  1.50000000E+00  8.00000000E-01  8.00000000E-01  1.50000000E+00  8.00000000E-01
  8.00000000E-01  1.50000000E+00  8.00000000E-01  8.00000000E-01  1.50000000E+00
  8.00000000E-01  8.00000000E-01  1.50000000E+00  8.00000000E-01  8.00000000E-01
  1.50000000E+00  8.00000000E-01  8.00000000E-01  1.50000000E+00  8.00000000E-01
  8.00000000E-01  1.50000000E+00  8.00000000E-01  8.00000000E-01  1.50000000E+00
  8.00000000E-01  8.00000000E-01  1.50000000E+00  8.00000000E-01  8.00000000E-01
  1.50000000E+00  8.00000000E-01  8.00000000E-01  1.50000000E+00  8.00000000E-01
  8.00000000E-01  1.50000000E+00  8.00000000E-01  8.00000000E-01  1.50000000E+00
  8.00000000E-01  8.00000000E-01  1.50000000E+00  8.00000000E-01  8.00000000E-01
  1.50000000E+00  8.00000000E-01  8.00000000E-01  1.50000000E+00  8.00000000E-01
  8.00000000E-01  1.50000000E+00  8.00000000E-01  8.00000000E-01  1.50000000E+00
  8.00000000E-01  8.00000000E-01  1.50000000E+00  8.00000000E-01  8.00000000E-01
  1.50000000E+00  8.00000000E-01  8.00000000E-01  1.50000000E+00  8.00000000E-01
  8.00000000E-01  1.50000000E+00  8.00000000E-01  8.00000000E-01  1.50000000E+00
  8.00000000E-01  8.00000000E-01  1.50000000E+00  8.00000000E-01  8.00000000E-01
  1.50000000E+00  8.00000000E-01  8.00000000E-01  1.50000000E+00  8.00000000E-01
  8.00000000E-01  1.50000000E+00  8.00000000E-01  8.00000000E-01  1.50000000E+00
  8.00000000E-01  8.00000000E-01  1.50000000E+00  8.00000000E-01  8.00000000E-01
  1.50000000E+00  8.00000000E-01  8.00000000E-01  1.50000000E+00  8.00000000E-01
  8.00000000E-01  1.50000000E+00  8.00000000E-01  8.00000000E-01  1.50000000E+00
  8.00000000E-01  8.00000000E-01  1.50000000E+00  8.00000000E-01  8.00000000E-01
  1.50000000E+00  8.00000000E-01  8.00000000E-01  1.50000000E+00  8.00000000E-01
  8.00000000E-01  1.50000000E+00  8.00000000E-01  8.00000000E-01  1.50000000E+00
  8.00000000E-01  8.00000000E-01  1.50000000E+00  8.00000000E-01  8.00000000E-01
  1.50000000E+00  8.00000000E-01  8.00000000E-01  1.50000000E+00  8.00000000E-01
  8.00000000E-01  1.50000000E+00  8.00000000E-01  8.00000000E-01  1.50000000E+00
  8.00000000E-01  8.00000000E-01  1.50000000E+00  8.00000000E-01  8.00000000E-01
  1.50000000E+00  8.00000000E-01  8.00000000E-01  1.50000000E+00  8.00000000E-01
  8.00000000E-01  1.50000000E+00  8.00000000E-01  8.00000000E-01  1.50000000E+00
  8.00000000E-01  8.00000000E-01  1.50000000E+00  8.00000000E-01  8.00000000E-01
  1.50000000E+00  8.00000000E-01  8.00000000E-01  1.50000000E+00  8.00000000E-01
  8.00000000E-01  1.50000000E+00  8.00000000E-01  8.00000000E-01  1.50000000E+00
  8.00000000E-01  8.00000000E-01  1.50000000E+00  8.00000000E-01  8.00000000E-01
  1.50000000E+00  8.00000000E-01  8.00000000E-01  1.50000000E+00  8.00000000E-01
  8.00000000E-01  1.50000000E+00  8.00000000E-01  8.00000000E-01  1.50000000E+00
  8.00000000E-01  8.00000000E-01  1.50000000E+00  8.00000000E-01  8.00000000E-01
  1.50000000E+00  8.00000000E-01  8.00000000E-01  1.50000000E+00  8.00000000E-01
  8.00000000E-01  1.50000000E+00  8.00000000E-01  8.00000000E-01  1.50000000E+00
  8.00000000E-01  8.00000000E-01  1.50000000E+00  8.00000000E-01  8.00000000E-01
  1.50000000E+00  8.00000000E-01  8.00000000E-01  1.50000000E+00  8.00000000E-01
  8.00000000E-01  1.50000000E+00  8.00000000E-01  8.00000000E-01  1.50000000E+00
  8.00000000E-01  8.00000000E-01  1.50000000E+00  8.00000000E-01  8.00000000E-01
  1.50000000E+00  8.00000000E-01  8.00000000E-01  1.50000000E+00  8.00000000E-01
  8.00000000E-01  1.50000000E+00  8.00000000E-01  8.00000000E-01  1.50000000E+00
  8.00000000E-01  8.00000000E-01  1.50000000E+00  8.00000000E-01  8.00000000E-01
  1.50000000E+00  8.00000000E-01  8.00000000E-01  1.50000000E+00  8.00000000E-01
  8.00000000E-01  1.50000000E+00  8.00000000E-01  8.00000000E-01  1.50000000E+00
  8.00000000E-01  8.00000000E-01  1.50000000E+00  8.00000000E-01  8.00000000E-01
  1.50000000E+00  8.00000000E-01  8.00000000E-01  1.50000000E+00  8.00000000E-01
  8.00000000E-01  1.50000000E+00  8.00000000E-01  8.00000000E-01  1.50000000E+00
  8.00000000E-01  8.00000000E-01  1.50000000E+00  8.00000000E-01  8.00000000E-01
  1.50000000E+00  8.00000000E-01  8.00000000E-01  1.50000000E+00  8.00000000E-01
  8.00000000E-01  1.50000000E+00  8.00000000E-01  8.00000000E-01  1.50000000E+00
  8.00000000E-01  8.00000000E-01  1.50000000E+00  8.00000000E-01  8.00000000E-01
  1.50000000E+00  8.00000000E-01  8.00000000E-01  1.50000000E+00  8.00000000E-01
  8.00000000E-01  1.50000000E+00  8.00000000E-01  8.00000000E-01  1.50000000E+00
  8.00000000E-01  8.00000000E-01  1.50000000E+00  8.00000000E-01  8.00000000E-01
  1.50000000E+00  8.00000000E-01  8.00000000E-01  1.50000000E+00  8.00000000E-01
  8.00000000E-01  1.50000000E+00  8.00000000E-01  8.00000000E-01  1.50000000E+00
  8.00000000E-01  8.00000000E-01  1.50000000E+00  8.00000000E-01  8.00000000E-01
  1.50000000E+00  8.00000000E-01  8.00000000E-01  1.50000000E+00  8.00000000E-01
  8.00000000E-01  1.50000000E+00  8.00000000E-01  8.00000000E-01  1.50000000E+00
  8.00000000E-01  8.00000000E-01  1.50000000E+00  8.00000000E-01  8.00000000E-01
  1.50000000E+00  8.00000000E-01  8.00000000E-01  1.50000000E+00  8.00000000E-01
  8.00000000E-01  1.50000000E+00  8.00000000E-01  8.00000000E-01  1.50000000E+00
  8.00000000E-01  8.00000000E-01  1.50000000E+00  8.00000000E-01  8.00000000E-01
  1.50000000E+00  8.00000000E-01  8.00000000E-01  1.50000000E+00  8.00000000E-01
  8.00000000E-01  1.50000000E+00  8.00000000E-01  8.00000000E-01  1.50000000E+00
  8.00000000E-01  8.00000000E-01  1.50000000E+00  8.00000000E-01  8.00000000E-01
  1.50000000E+00  8.00000000E-01  8.00000000E-01  1.50000000E+00  8.00000000E-01
  8.00000000E-01  1.50000000E+00  8.00000000E-01  8.00000000E-01  1.50000000E+00
  8.00000000E-01  8.00000000E-01  1.50000000E+00  8.00000000E-01  8.00000000E-01
  1.50000000E+00  8.00000000E-01  8.00000000E-01  1.50000000E+00  8.00000000E-01
  8.00000000E-01  1.50000000E+00  8.00000000E-01  8.00000000E-01  1.50000000E+00
  8.00000000E-01  8.00000000E-01  1.50000000E+00  8.00000000E-01  8.00000000E-01
  1.50000000E+00  8.00000000E-01  8.00000000E-01  1.50000000E+00  8.00000000E-01
  8.00000000E-01  1.50000000E+00  8.00000000E-01  8.00000000E-01  1.50000000E+00
  8.00000000E-01  8.00000000E-01  1.50000000E+00  8.00000000E-01  8.00000000E-01
  1.50000000E+00  8.00000000E-01  8.00000000E-01  1.50000000E+00  8.00000000E-01
  8.00000000E-01  1.50000000E+00  8.00000000E-01  8.00000000E-01  1.50000000E+00
  8.00000000E-01  8.00000000E-01  1.50000000E+00  8.00000000E-01  8.00000000E-01
  1.50000000E+00  8.00000000E-01  8.00000000E-01  1.50000000E+00  8.00000000E-01
  8.00000000E-01  1.50000000E+00  8.00000000E-01  8.00000000E-01  1.50000000E+00
  8.00000000E-01  8.00000000E-01  1.50000000E+00  8.00000000E-01  8.00000000E-01
  1.50000000E+00  8.00000000E-01  8.00000000E-01  1.50000000E+00  8.00000000E-01
  8.00000000E-01  1.50000000E+00  8.00000000E-01  8.00000000E-01  1.50000000E+00
  8.00000000E-01  8.00000000E-01  1.50000000E+00  8.00000000E-01  8.00000000E-01
  1.50000000E+00  8.00000000E-01  8.00000000E-01  1.50000000E+00  8.00000000E-01
  8.00000000E-01  1.50000000E+00  8.00000000E-01  8.00000000E-01  1.50000000E+00
  8.00000000E-01  8.00000000E-01  1.50000000E+00  8.00000000E-01  8.00000000E-01
  1.50000000E+00  8.00000000E-01  8.00000000E-01  1.50000000E+00  8.00000000E-01
  8.00000000E-01  1.50000000E+00  8.00000000E-01  8.00000000E-01  1.50000000E+00
  8.00000000E-01  8.00000000E-01  1.50000000E+00  8.00000000E-01  8.00000000E-01
  1.50000000E+00  8.00000000E-01  8.00000000E-01  1.50000000E+00  8.00000000E-01
  8.00000000E-01  1.50000000E+00  8.00000000E-01  8.00000000E-01  1.50000000E+00
  8.00000000E-01  8.00000000E-01  1.50000000E+00  8.00000000E-01  8.00000000E-01
  1.50000000E+00  8.00000000E-01  8.00000000E-01  1.50000000E+00  8.00000000E-01
  8.00000000E-01  1.50000000E+00  8.00000000E-01  8.00000000E-01  1.50000000E+00
  8.00000000E-01  8.00000000E-01  1.50000000E+00  8.00000000E-01  8.00000000E-01
  1.50000000E+00  8.00000000E-01  8.00000000E-01  1.50000000E+00  8.00000000E-01
  8.00000000E-01  1.50000000E+00  8.00000000E-01  8.00000000E-01  1.50000000E+00
  8.00000000E-01  8.00000000E-01  1.50000000E+00  8.00000000E-01  8.00000000E-01
  1.50000000E+00  8.00000000E-01  8.00000000E-01  1.50000000E+00  8.00000000E-01
  8.00000000E-01  1.50000000E+00  8.00000000E-01  8.00000000E-01  1.50000000E+00
  8.00000000E-01  8.00000000E-01  1.50000000E+00  8.00000000E-01  8.00000000E-01
  1.50000000E+00  8.00000000E-01  8.00000000E-01  1.50000000E+00  8.00000000E-01
  8.00000000E-01  1.50000000E+00  8.00000000E-01  8.00000000E-01  1.50000000E+00
  8.00000000E-01  8.00000000E-01  1.50000000E+00  8.00000000E-01  8.00000000E-01
  1.50000000E+00  8.00000000E-01  8.00000000E-01  1.50000000E+00  8.00000000E-01
  8.00000000E-01  1.50000000E+00  8.00000000E-01  8.00000000E-01  1.50000000E+00
  8.00000000E-01  8.00000000E-01  1.50000000E+00  8.00000000E-01  8.00000000E-01
  1.50000000E+00  8.00000000E-01  8.00000000E-01  1.50000000E+00  8.00000000E-01
  8.00000000E-01  1.50000000E+00  8.00000000E-01  8.00000000E-01  1.50000000E+00
  8.00000000E-01  8.00000000E-01  1.50000000E+00  8.00000000E-01  8.00000000E-01
  1.50000000E+00  8.00000000E-01  8.00000000E-01  1.50000000E+00  8.00000000E-01
  8.00000000E-01  1.50000000E+00  8.00000000E-01  8.00000000E-01  1.50000000E+00
  8.00000000E-01  8.00000000E-01  1.50000000E+00  8.00000000E-01  8.00000000E-01
  1.50000000E+00  8.00000000E-01  8.00000000E-01  1.50000000E+00  8.00000000E-01
  8.00000000E-01  1.50000000E+00  8.00000000E-01  8.00000000E-01  1.50000000E+00
  8.00000000E-01  8.00000000E-01  1.50000000E+00  8.00000000E-01  8.00000000E-01
  1.50000000E+00  8.00000000E-01  8.00000000E-01  1.50000000E+00  8.00000000E-01
  8.00000000E-01  1.50000000E+00  8.00000000E-01  8.00000000E-01  1.50000000E+00
  8.00000000E-01  8.00000000E-01  1.50000000E+00  8.00000000E-01  8.00000000E-01
  1.50000000E+00  8.00000000E-01  8.00000000E-01  1.50000000E+00  8.00000000E-01
  8.00000000E-01  1.50000000E+00  8.00000000E-01  8.00000000E-01  1.50000000E+00
  8.00000000E-01  8.00000000E-01  1.50000000E+00  8.00000000E-01  8.00000000E-01
  1.50000000E+00  8.00000000E-01  8.00000000E-01  1.50000000E+00  8.00000000E-01
  8.00000000E-01  1.50000000E+00  8.00000000E-01  8.00000000E-01  1.50000000E+00
  8.00000000E-01  8.00000000E-01  1.50000000E+00  8.00000000E-01  8.00000000E-01
  1.50000000E+00  8.00000000E-01  8.00000000E-01  1.50000000E+00  8.00000000E-01
  8.00000000E-01  1.50000000E+00  8.00000000E-01  8.00000000E-01  1.50000000E+00
  8.00000000E-01  8.00000000E-01  1.50000000E+00  8.00000000E-01  8.00000000E-01
  1.50000000E+00  8.00000000E-01  8.00000000E-01  1.50000000E+00  8.00000000E-01
  8.00000000E-01  1.50000000E+00  8.00000000E-01  8.00000000E-01  1.50000000E+00
  8.00000000E-01  8.00000000E-01  1.50000000E+00  8.00000000E-01  8.00000000E-01
  1.50000000E+00  8.00000000E-01  8.00000000E-01  1.50000000E+00  8.00000000E-01
  8.00000000E-01  1.50000000E+00  8.00000000E-01  8.00000000E-01  1.50000000E+00
  8.00000000E-01  8.00000000E-01  1.50000000E+00  8.00000000E-01  8.00000000E-01
  1.50000000E+00  8.00000000E-01  8.00000000E-01  1.50000000E+00  8.00000000E-01
  8.00000000E-01  1.50000000E+00  8.00000000E-01  8.00000000E-01  1.50000000E+00
  8.00000000E-01  8.00000000E-01  1.50000000E+00  8.00000000E-01  8.00000000E-01
  1.50000000E+00  8.00000000E-01  8.00000000E-01  1.50000000E+00  8.00000000E-01
  8.00000000E-01  1.50000000E+00  8.00000000E-01  8.00000000E-01  1.50000000E+00
  8.00000000E-01  8.00000000E-01  1.50000000E+00  8.00000000E-01  8.00000000E-01
  1.50000000E+00  8.00000000E-01  8.00000000E-01  1.50000000E+00  8.00000000E-01
  8.00000000E-01  1.50000000E+00  8.00000000E-01  8.00000000E-01  1.50000000E+00
  8.00000000E-01  8.00000000E-01  1.50000000E+00  8.00000000E-01  8.00000000E-01
  1.50000000E+00  8.00000000E-01  8.00000000E-01  1.50000000E+00  8.00000000E-01
  8.00000000E-01  1.50000000E+00  8.00000000E-01  8.00000000E-01  1.50000000E+00
  8.00000000E-01  8.00000000E-01  1.50000000E+00  8.00000000E-01  8.00000000E-01
  1.50000000E+00  8.00000000E-01  8.00000000E-01  1.50000000E+00  8.00000000E-01
  8.00000000E-01  1.50000000E+00  8.00000000E-01  8.00000000E-01  1.50000000E+00
  8.00000000E-01  8.00000000E-01  1.50000000E+00  8.00000000E-01  8.00000000E-01
  1.50000000E+00  8.00000000E-01  8.00000000E-01  1.50000000E+00  8.00000000E-01
  8.00000000E-01  1.50000000E+00  8.00000000E-01  8.00000000E-01  1.50000000E+00
  8.00000000E-01  8.00000000E-01  1.50000000E+00  8.00000000E-01  8.00000000E-01
  1.50000000E+00  8.00000000E-01  8.00000000E-01  1.50000000E+00  8.00000000E-01
  8.00000000E-01  1.50000000E+00  8.00000000E-01  8.00000000E-01  1.50000000E+00
  8.00000000E-01  8.00000000E-01  1.50000000E+00  8.00000000E-01  8.00000000E-01
  1.50000000E+00  8.00000000E-01  8.00000000E-01  1.50000000E+00  8.00000000E-01
  8.00000000E-01  1.50000000E+00  8.00000000E-01  8.00000000E-01  1.50000000E+00
  8.00000000E-01  8.00000000E-01  1.50000000E+00  8.00000000E-01  8.00000000E-01
  1.50000000E+00  8.00000000E-01  8.00000000E-01  1.50000000E+00  8.00000000E-01
  8.00000000E-01  1.50000000E+00  8.00000000E-01  8.00000000E-01  1.50000000E+00
  8.00000000E-01  8.00000000E-01  1.50000000E+00  8.00000000E-01  8.00000000E-01
  1.50000000E+00  8.00000000E-01  8.00000000E-01  1.50000000E+00  8.00000000E-01
  8.00000000E-01  1.50000000E+00  8.00000000E-01  8.00000000E-01  1.50000000E+00
  8.00000000E-01  8.00000000E-01  1.50000000E+00  8.00000000E-01  8.00000000E-01
  1.50000000E+00  8.00000000E-01  8.00000000E-01  1.50000000E+00  8.00000000E-01
  8.00000000E-01  1.50000000E+00  8.00000000E-01  8.00000000E-01  1.50000000E+00
  8.00000000E-01  8.00000000E-01  1.50000000E+00  8.00000000E-01  8.00000000E-01
  1.50000000E+00  8.00000000E-01  8.00000000E-01  1.50000000E+00  8.00000000E-01
  8.00000000E-01  1.50000000E+00  8.00000000E-01  8.00000000E-01  1.50000000E+00
  8.00000000E-01  8.00000000E-01  1.50000000E+00  8.00000000E-01  8.00000000E-01
  1.50000000E+00  8.00000000E-01  8.00000000E-01  1.50000000E+00  8.00000000E-01
  8.00000000E-01  1.50000000E+00  8.00000000E-01  8.00000000E-01  1.50000000E+00
  8.00000000E-01  8.00000000E-01  1.50000000E+00  8.00000000E-01  8.00000000E-01
  1.50000000E+00  8.00000000E-01  8.00000000E-01  1.50000000E+00  8.00000000E-01
  8.00000000E-01  1.50000000E+00  8.00000000E-01  8.00000000E-01  1.50000000E+00
  8.00000000E-01  8.00000000E-01  1.50000000E+00  8.00000000E-01  8.00000000E-01
  1.50000000E+00  8.00000000E-01  8.00000000E-01  1.50000000E+00  8.00000000E-01
  8.00000000E-01  1.50000000E+00  8.00000000E-01  8.00000000E-01  1.50000000E+00
  8.00000000E-01  8.00000000E-01  1.50000000E+00  8.00000000E-01  8.00000000E-01
  1.50000000E+00  8.00000000E-01  8.00000000E-01  1.50000000E+00  8.00000000E-01
  8.00000000E-01  1.50000000E+00  8.00000000E-01  8.00000000E-01  1.50000000E+00
  8.00000000E-01  8.00000000E-01  1.50000000E+00  8.00000000E-01  8.00000000E-01
  1.50000000E+00  8.00000000E-01  8.00000000E-01  1.50000000E+00  8.00000000E-01
  8.00000000E-01  1.50000000E+00  8.00000000E-01  8.00000000E-01  1.50000000E+00
  8.00000000E-01  8.00000000E-01  1.50000000E+00  8.00000000E-01  8.00000000E-01
  1.50000000E+00  8.00000000E-01  8.00000000E-01  1.50000000E+00  8.00000000E-01
  8.00000000E-01  1.50000000E+00  8.00000000E-01  8.00000000E-01  1.50000000E+00
  8.00000000E-01  8.00000000E-01  1.50000000E+00  8.00000000E-01  8.00000000E-01
  1.50000000E+00  8.00000000E-01  8.00000000E-01  1.50000000E+00  8.00000000E-01
  8.00000000E-01  1.50000000E+00  8.00000000E-01  8.00000000E-01  1.50000000E+00
  8.00000000E-01  8.00000000E-01  1.50000000E+00  8.00000000E-01  8.00000000E-01
  1.50000000E+00  8.00000000E-01  8.00000000E-01  1.50000000E+00  8.00000000E-01
  8.00000000E-01  1.50000000E+00  8.00000000E-01  8.00000000E-01  1.50000000E+00
  8.00000000E-01  8.00000000E-01  1.50000000E+00  8.00000000E-01  8.00000000E-01
  1.50000000E+00  8.00000000E-01  8.00000000E-01  1.50000000E+00  8.00000000E-01
  8.00000000E-01  1.50000000E+00  8.00000000E-01  8.00000000E-01  1.50000000E+00
  8.00000000E-01  8.00000000E-01  1.50000000E+00  8.00000000E-01  8.00000000E-01
  1.50000000E+00  8.00000000E-01  8.00000000E-01  1.50000000E+00  8.00000000E-01
  8.00000000E-01  1.50000000E+00  8.00000000E-01  8.00000000E-01  1.50000000E+00
  8.00000000E-01  8.00000000E-01  1.50000000E+00  8.00000000E-01  8.00000000E-01
  1.50000000E+00  8.00000000E-01  8.00000000E-01  1.50000000E+00  8.00000000E-01
  8.00000000E-01  1.50000000E+00  8.00000000E-01  8.00000000E-01  1.50000000E+00
  8.00000000E-01  8.00000000E-01  1.50000000E+00  8.00000000E-01  8.00000000E-01
  1.50000000E+00  8.00000000E-01  8.00000000E-01  1.50000000E+00  8.00000000E-01
  8.00000000E-01  1.50000000E+00  8.00000000E-01  8.00000000E-01  1.50000000E+00
  8.00000000E-01  8.00000000E-01  1.50000000E+00  8.00000000E-01  8.00000000E-01
  1.50000000E+00  8.00000000E-01  8.00000000E-01  1.50000000E+00  8.00000000E-01
  8.00000000E-01  1.50000000E+00  8.00000000E-01  8.00000000E-01  1.50000000E+00
  8.00000000E-01  8.00000000E-01  1.50000000E+00  8.00000000E-01  8.00000000E-01
  1.50000000E+00  8.00000000E-01  8.00000000E-01  1.50000000E+00  8.00000000E-01
  8.00000000E-01  1.50000000E+00  8.00000000E-01  8.00000000E-01  1.50000000E+00
  8.00000000E-01  8.00000000E-01  1.50000000E+00  8.00000000E-01  8.00000000E-01
  1.50000000E+00  8.00000000E-01  8.00000000E-01  1.50000000E+00  8.00000000E-01
  8.00000000E-01  1.50000000E+00  8.00000000E-01  8.00000000E-01  1.50000000E+00
  8.00000000E-01  8.00000000E-01  1.50000000E+00  8.00000000E-01  8.00000000E-01
  1.50000000E+00  8.00000000E-01  8.00000000E-01  1.50000000E+00  8.00000000E-01
  8.00000000E-01  1.50000000E+00  8.00000000E-01  8.00000000E-01  1.50000000E+00
  8.00000000E-01  8.00000000E-01  1.50000000E+00  8.00000000E-01  8.00000000E-01
  1.50000000E+00  8.00000000E-01  8.00000000E-01  1.50000000E+00  8.00000000E-01
  8.00000000E-01  1.50000000E+00  8.00000000E-01  8.00000000E-01  1.50000000E+00
  8.00000000E-01  8.00000000E-01  1.50000000E+00  8.00000000E-01  8.00000000E-01
  1.50000000E+00  8.00000000E-01  8.00000000E-01  1.50000000E+00  8.00000000E-01
  8.00000000E-01  1.50000000E+00  8.00000000E-01  8.00000000E-01  1.50000000E+00
  8.00000000E-01  8.00000000E-01  1.50000000E+00  8.00000000E-01  8.00000000E-01
  1.50000000E+00  8.00000000E-01  8.00000000E-01  1.50000000E+00  8.00000000E-01
  8.00000000E-01  1.50000000E+00  8.00000000E-01  8.00000000E-01  1.50000000E+00
  8.00000000E-01  8.00000000E-01  1.50000000E+00  8.00000000E-01  8.00000000E-01
  1.50000000E+00  8.00000000E-01  8.00000000E-01  1.50000000E+00  8.00000000E-01
  8.00000000E-01  1.50000000E+00  8.00000000E-01  8.00000000E-01  1.50000000E+00
  8.00000000E-01  8.00000000E-01  1.50000000E+00  8.00000000E-01  8.00000000E-01
  1.50000000E+00  8.00000000E-01  8.00000000E-01  1.50000000E+00  8.00000000E-01
  8.00000000E-01  1.50000000E+00  8.00000000E-01  8.00000000E-01  1.50000000E+00
  8.00000000E-01  8.00000000E-01  1.50000000E+00  8.00000000E-01  8.00000000E-01
  1.50000000E+00  8.00000000E-01  8.00000000E-01  1.50000000E+00  8.00000000E-01
  8.00000000E-01  1.50000000E+00  8.00000000E-01  8.00000000E-01  1.50000000E+00
  8.00000000E-01  8.00000000E-01  1.50000000E+00  8.00000000E-01  8.00000000E-01
  1.50000000E+00  8.00000000E-01  8.00000000E-01  1.50000000E+00  8.00000000E-01
  8.00000000E-01  1.50000000E+00  8.00000000E-01  8.00000000E-01  1.50000000E+00
  8.00000000E-01  8.00000000E-01  1.50000000E+00  8.00000000E-01  8.00000000E-01
  1.50000000E+00  8.00000000E-01  8.00000000E-01  1.50000000E+00  8.00000000E-01
  8.00000000E-01  1.50000000E+00  8.00000000E-01  8.00000000E-01  1.50000000E+00
  8.00000000E-01  8.00000000E-01  1.50000000E+00  8.00000000E-01  8.00000000E-01
  1.50000000E+00  8.00000000E-01  8.00000000E-01  1.50000000E+00  8.00000000E-01
  8.00000000E-01  1.50000000E+00  8.00000000E-01  8.00000000E-01  1.50000000E+00
  8.00000000E-01  8.00000000E-01  1.50000000E+00  8.00000000E-01  8.00000000E-01
  1.50000000E+00  8.00000000E-01  8.00000000E-01  1.50000000E+00  8.00000000E-01
  8.00000000E-01  1.50000000E+00  8.00000000E-01  8.00000000E-01  1.50000000E+00
  8.00000000E-01  8.00000000E-01  1.50000000E+00  8.00000000E-01  8.00000000E-01
  1.50000000E+00  8.00000000E-01  8.00000000E-01  1.50000000E+00  8.00000000E-01
  8.00000000E-01  1.50000000E+00  8.00000000E-01  8.00000000E-01  1.50000000E+00
  8.00000000E-01  8.00000000E-01  1.50000000E+00  8.00000000E-01  8.00000000E-01
  1.50000000E+00  8.00000000E-01  8.00000000E-01  1.50000000E+00  8.00000000E-01
  8.00000000E-01  1.50000000E+00  8.00000000E-01  8.00000000E-01  1.50000000E+00
  8.00000000E-01  8.00000000E-01  1.50000000E+00  8.00000000E-01  8.00000000E-01
  1.50000000E+00  8.00000000E-01  8.00000000E-01  1.50000000E+00  8.00000000E-01
  8.00000000E-01  1.50000000E+00  8.00000000E-01  8.00000000E-01  1.50000000E+00
  8.00000000E-01  8.00000000E-01  1.50000000E+00  8.00000000E-01  8.00000000E-01
  1.50000000E+00  8.00000000E-01  8.00000000E-01  1.50000000E+00  8.00000000E-01
  8.00000000E-01  1.50000000E+00  8.00000000E-01  8.00000000E-01  1.50000000E+00
  8.00000000E-01  8.00000000E-01  1.50000000E+00  8.00000000E-01  8.00000000E-01
  1.50000000E+00  8.00000000E-01  8.00000000E-01  1.50000000E+00  8.00000000E-01
  8.00000000E-01  1.50000000E+00  8.00000000E-01  8.00000000E-01  1.50000000E+00
  8.00000000E-01  8.00000000E-01  1.50000000E+00  8.00000000E-01  8.00000000E-01
  1.50000000E+00  8.00000000E-01  8.00000000E-01  1.50000000E+00  8.00000000E-01
  8.00000000E-01  1.50000000E+00  8.00000000E-01  8.00000000E-01  1.50000000E+00
  8.00000000E-01  8.00000000E-01  1.50000000E+00  8.00000000E-01  8.00000000E-01
  1.50000000E+00  8.00000000E-01  8.00000000E-01  1.50000000E+00  8.00000000E-01
  8.00000000E-01  1.50000000E+00  8.00000000E-01  8.00000000E-01  1.50000000E+00
  8.00000000E-01  8.00000000E-01  1.50000000E+00  8.00000000E-01  8.00000000E-01
  1.50000000E+00  8.00000000E-01  8.00000000E-01  1.50000000E+00  8.00000000E-01
  8.00000000E-01  1.50000000E+00  8.00000000E-01  8.00000000E-01  1.50000000E+00
  8.00000000E-01  8.00000000E-01  1.50000000E+00  8.00000000E-01  8.00000000E-01
  1.50000000E+00  8.00000000E-01  8.00000000E-01  1.50000000E+00  8.00000000E-01
  8.00000000E-01  1.50000000E+00  8.00000000E-01  8.00000000E-01  1.50000000E+00
  8.00000000E-01  8.00000000E-01  1.50000000E+00  8.00000000E-01  8.00000000E-01
  1.50000000E+00  8.00000000E-01  8.00000000E-01  1.50000000E+00  8.00000000E-01
  8.00000000E-01  1.50000000E+00  8.00000000E-01  8.00000000E-01  1.50000000E+00
  8.00000000E-01  8.00000000E-01  1.50000000E+00  8.00000000E-01  8.00000000E-01
  1.50000000E+00  8.00000000E-01  8.00000000E-01  1.50000000E+00  8.00000000E-01
  8.00000000E-01  1.50000000E+00  8.00000000E-01  8.00000000E-01  1.50000000E+00
  8.00000000E-01  8.00000000E-01  1.50000000E+00  8.00000000E-01  8.00000000E-01
  1.50000000E+00  8.00000000E-01  8.00000000E-01  1.50000000E+00  8.00000000E-01
  8.00000000E-01  1.50000000E+00  8.00000000E-01  8.00000000E-01  1.50000000E+00
  8.00000000E-01  8.00000000E-01  1.50000000E+00  8.00000000E-01  8.00000000E-01
  1.50000000E+00  8.00000000E-01  8.00000000E-01  1.50000000E+00  8.00000000E-01
  8.00000000E-01  1.50000000E+00  8.00000000E-01  8.00000000E-01  1.50000000E+00
  8.00000000E-01  8.00000000E-01  1.50000000E+00  8.00000000E-01  8.00000000E-01
  1.50000000E+00  8.00000000E-01  8.00000000E-01  1.50000000E+00  8.00000000E-01
  8.00000000E-01  1.50000000E+00  8.00000000E-01  8.00000000E-01  1.50000000E+00
  8.00000000E-01  8.00000000E-01  1.50000000E+00  8.00000000E-01  8.00000000E-01
  1.50000000E+00  8.00000000E-01  8.00000000E-01  1.50000000E+00  8.00000000E-01
  8.00000000E-01  1.50000000E+00  8.00000000E-01  8.00000000E-01  1.50000000E+00
  8.00000000E-01  8.00000000E-01  1.50000000E+00  8.00000000E-01  8.00000000E-01
  1.50000000E+00  8.00000000E-01  8.00000000E-01  1.50000000E+00  8.00000000E-01
  8.00000000E-01  1.50000000E+00  8.00000000E-01  8.00000000E-01  1.50000000E+00
  8.00000000E-01  8.00000000E-01  1.50000000E+00  8.00000000E-01  8.00000000E-01
  1.50000000E+00  8.00000000E-01  8.00000000E-01  1.50000000E+00  8.00000000E-01
  8.00000000E-01  1.50000000E+00  8.00000000E-01  8.00000000E-01  1.50000000E+00
  8.00000000E-01  8.00000000E-01  1.50000000E+00  8.00000000E-01  8.00000000E-01
  1.50000000E+00  8.00000000E-01  8.00000000E-01  1.50000000E+00  8.00000000E-01
  8.00000000E-01  1.50000000E+00  8.00000000E-01  8.00000000E-01  1.50000000E+00
  8.00000000E-01  8.00000000E-01  1.50000000E+00  8.00000000E-01  8.00000000E-01
  1.50000000E+00  8.00000000E-01  8.00000000E-01  1.50000000E+00  8.00000000E-01
  8.00000000E-01  1.50000000E+00  8.00000000E-01  8.00000000E-01  1.50000000E+00
  8.00000000E-01  8.00000000E-01  1.50000000E+00  8.00000000E-01  8.00000000E-01
  1.50000000E+00  8.00000000E-01  8.00000000E-01  1.50000000E+00  8.00000000E-01
  8.00000000E-01  1.50000000E+00  8.00000000E-01  8.00000000E-01  1.50000000E+00
  8.00000000E-01  8.00000000E-01  1.50000000E+00  8.00000000E-01  8.00000000E-01
  1.50000000E+00  8.00000000E-01  8.00000000E-01  1.50000000E+00  8.00000000E-01
  8.00000000E-01  1.50000000E+00  8.00000000E-01  8.00000000E-01  1.50000000E+00
  8.00000000E-01  8.00000000E-01  1.50000000E+00  8.00000000E-01  8.00000000E-01
  1.50000000E+00  8.00000000E-01  8.00000000E-01  1.50000000E+00  8.00000000E-01
  8.00000000E-01  1.50000000E+00  8.00000000E-01  8.00000000E-01  1.50000000E+00
  8.00000000E-01  8.00000000E-01  1.50000000E+00  8.00000000E-01  8.00000000E-01
  1.50000000E+00  8.00000000E-01  8.00000000E-01  1.50000000E+00  8.00000000E-01
  8.00000000E-01  1.50000000E+00  8.00000000E-01  8.00000000E-01  1.50000000E+00
  8.00000000E-01  8.00000000E-01  1.50000000E+00  8.00000000E-01  8.00000000E-01
  1.50000000E+00  8.00000000E-01  8.00000000E-01  1.50000000E+00  8.00000000E-01
  8.00000000E-01  1.50000000E+00  8.00000000E-01  8.00000000E-01  1.50000000E+00
  8.00000000E-01  8.00000000E-01  1.50000000E+00  8.00000000E-01  8.00000000E-01
  1.50000000E+00  8.00000000E-01  8.00000000E-01  1.50000000E+00  8.00000000E-01
  8.00000000E-01  1.50000000E+00  8.00000000E-01  8.00000000E-01  1.50000000E+00
  8.00000000E-01  8.00000000E-01  1.50000000E+00  8.00000000E-01  8.00000000E-01
  1.50000000E+00  8.00000000E-01  8.00000000E-01  1.50000000E+00  8.00000000E-01
  8.00000000E-01  1.50000000E+00  8.00000000E-01  8.00000000E-01  1.50000000E+00
  8.00000000E-01  8.00000000E-01  1.50000000E+00  8.00000000E-01  8.00000000E-01
  1.50000000E+00  8.00000000E-01  8.00000000E-01  1.50000000E+00  8.00000000E-01
  8.00000000E-01  1.50000000E+00  8.00000000E-01  8.00000000E-01  1.50000000E+00
  8.00000000E-01  8.00000000E-01  1.50000000E+00  8.00000000E-01  8.00000000E-01
  1.50000000E+00  8.00000000E-01  8.00000000E-01  1.50000000E+00  8.00000000E-01
  8.00000000E-01  1.50000000E+00  8.00000000E-01  8.00000000E-01  1.50000000E+00
  8.00000000E-01  8.00000000E-01  1.50000000E+00  8.00000000E-01  8.00000000E-01
  1.50000000E+00  8.00000000E-01  8.00000000E-01  1.50000000E+00  8.00000000E-01
  8.00000000E-01  1.50000000E+00  8.00000000E-01  8.00000000E-01  1.50000000E+00
  8.00000000E-01  8.00000000E-01  1.50000000E+00  8.00000000E-01  8.00000000E-01
  1.50000000E+00  8.00000000E-01  8.00000000E-01  1.50000000E+00  8.00000000E-01
  8.00000000E-01  1.50000000E+00  8.00000000E-01  8.00000000E-01  1.50000000E+00
  8.00000000E-01  8.00000000E-01  1.50000000E+00  8.00000000E-01  8.00000000E-01
  1.50000000E+00  8.00000000E-01  8.00000000E-01  1.50000000E+00  8.00000000E-01
  8.00000000E-01  1.50000000E+00  8.00000000E-01  8.00000000E-01  1.50000000E+00
  8.00000000E-01  8.00000000E-01  1.50000000E+00  8.00000000E-01  8.00000000E-01
  1.50000000E+00  8.00000000E-01  8.00000000E-01  1.50000000E+00  8.00000000E-01
  8.00000000E-01  1.50000000E+00  8.00000000E-01  8.00000000E-01  1.50000000E+00
  8.00000000E-01  8.00000000E-01  1.50000000E+00  8.00000000E-01  8.00000000E-01
  1.50000000E+00  8.00000000E-01  8.00000000E-01  1.50000000E+00  8.00000000E-01
  8.00000000E-01  1.50000000E+00  8.00000000E-01  8.00000000E-01  1.50000000E+00
  8.00000000E-01  8.00000000E-01  1.50000000E+00  8.00000000E-01  8.00000000E-01
  1.50000000E+00  8.00000000E-01  8.00000000E-01  1.50000000E+00  8.00000000E-01
  8.00000000E-01  1.50000000E+00  8.00000000E-01  8.00000000E-01  1.50000000E+00
  8.00000000E-01  8.00000000E-01  1.50000000E+00  8.00000000E-01  8.00000000E-01
  1.50000000E+00  8.00000000E-01  8.00000000E-01  1.50000000E+00  8.00000000E-01
  8.00000000E-01  1.50000000E+00  8.00000000E-01  8.00000000E-01  1.50000000E+00
  8.00000000E-01  8.00000000E-01  1.50000000E+00  8.00000000E-01  8.00000000E-01
  1.50000000E+00  8.00000000E-01  8.00000000E-01  1.50000000E+00  8.00000000E-01
  8.00000000E-01  1.50000000E+00  8.00000000E-01  8.00000000E-01  1.50000000E+00
  8.00000000E-01  8.00000000E-01  1.50000000E+00  8.00000000E-01  8.00000000E-01
  1.50000000E+00  8.00000000E-01  8.00000000E-01  1.50000000E+00  8.00000000E-01
  8.00000000E-01  1.50000000E+00  8.00000000E-01  8.00000000E-01  1.50000000E+00
  8.00000000E-01  8.00000000E-01  1.50000000E+00  8.00000000E-01  8.00000000E-01
  1.50000000E+00  8.00000000E-01  8.00000000E-01  1.50000000E+00  8.00000000E-01
  8.00000000E-01  1.50000000E+00  8.00000000E-01  8.00000000E-01  1.50000000E+00
  8.00000000E-01  8.00000000E-01  1.50000000E+00  8.00000000E-01  8.00000000E-01
  1.50000000E+00  8.00000000E-01  8.00000000E-01  1.50000000E+00  8.00000000E-01
  8.00000000E-01  1.50000000E+00  8.00000000E-01  8.00000000E-01  1.50000000E+00
  8.00000000E-01  8.00000000E-01  1.50000000E+00  8.00000000E-01  8.00000000E-01
  1.50000000E+00  8.00000000E-01  8.00000000E-01  1.50000000E+00  8.00000000E-01
  8.00000000E-01  1.50000000E+00  8.00000000E-01  8.00000000E-01  1.50000000E+00
  8.00000000E-01  8.00000000E-01  1.50000000E+00  8.00000000E-01  8.00000000E-01
  1.50000000E+00  8.00000000E-01  8.00000000E-01  1.50000000E+00  8.00000000E-01
  8.00000000E-01  1.50000000E+00  8.00000000E-01  8.00000000E-01  1.50000000E+00
  8.00000000E-01  8.00000000E-01  1.50000000E+00  8.00000000E-01  8.00000000E-01
  1.50000000E+00  8.00000000E-01  8.00000000E-01  1.50000000E+00  8.00000000E-01
  8.00000000E-01  1.50000000E+00  8.00000000E-01  8.00000000E-01  1.50000000E+00
  8.00000000E-01  8.00000000E-01  1.50000000E+00  8.00000000E-01  8.00000000E-01
  1.50000000E+00  8.00000000E-01  8.00000000E-01  1.50000000E+00  8.00000000E-01
  8.00000000E-01  1.50000000E+00  8.00000000E-01  8.00000000E-01  1.50000000E+00
  8.00000000E-01  8.00000000E-01  1.50000000E+00  8.00000000E-01  8.00000000E-01
  1.50000000E+00  8.00000000E-01  8.00000000E-01  1.50000000E+00  8.00000000E-01
  8.00000000E-01  1.50000000E+00  8.00000000E-01  8.00000000E-01  1.50000000E+00
  8.00000000E-01  8.00000000E-01  1.50000000E+00  8.00000000E-01  8.00000000E-01
  1.50000000E+00  8.00000000E-01  8.00000000E-01  1.50000000E+00  8.00000000E-01
  8.00000000E-01  1.50000000E+00  8.00000000E-01  8.00000000E-01  1.50000000E+00
  8.00000000E-01  8.00000000E-01  1.50000000E+00  8.00000000E-01  8.00000000E-01
  1.50000000E+00  8.00000000E-01  8.00000000E-01  1.50000000E+00  8.00000000E-01
  8.00000000E-01  1.50000000E+00  8.00000000E-01  8.00000000E-01  1.50000000E+00
  8.00000000E-01  8.00000000E-01  1.50000000E+00  8.00000000E-01  8.00000000E-01
  1.50000000E+00  8.00000000E-01  8.00000000E-01  1.50000000E+00  8.00000000E-01
  8.00000000E-01  1.50000000E+00  8.00000000E-01  8.00000000E-01  1.50000000E+00
  8.00000000E-01  8.00000000E-01  1.50000000E+00  8.00000000E-01  8.00000000E-01
  1.50000000E+00  8.00000000E-01  8.00000000E-01  1.50000000E+00  8.00000000E-01
  8.00000000E-01  1.50000000E+00  8.00000000E-01  8.00000000E-01  1.50000000E+00
  8.00000000E-01  8.00000000E-01  1.50000000E+00  8.00000000E-01  8.00000000E-01
  1.50000000E+00  8.00000000E-01  8.00000000E-01  1.50000000E+00  8.00000000E-01
  8.00000000E-01  1.50000000E+00  8.00000000E-01  8.00000000E-01  1.50000000E+00
  8.00000000E-01  8.00000000E-01  1.50000000E+00  8.00000000E-01  8.00000000E-01
  1.50000000E+00  8.00000000E-01  8.00000000E-01  1.50000000E+00  8.00000000E-01
  8.00000000E-01  1.50000000E+00  8.00000000E-01  8.00000000E-01  1.50000000E+00
  8.00000000E-01  8.00000000E-01  1.50000000E+00  8.00000000E-01  8.00000000E-01
  1.50000000E+00  8.00000000E-01  8.00000000E-01  1.50000000E+00  8.00000000E-01
  8.00000000E-01  1.50000000E+00  8.00000000E-01  8.00000000E-01  1.50000000E+00
  8.00000000E-01  8.00000000E-01  1.50000000E+00  8.00000000E-01  8.00000000E-01
  1.50000000E+00  8.00000000E-01  8.00000000E-01  1.50000000E+00  8.00000000E-01
  8.00000000E-01  1.50000000E+00  8.00000000E-01  8.00000000E-01  1.50000000E+00
  8.00000000E-01  8.00000000E-01  1.50000000E+00  8.00000000E-01  8.00000000E-01
  1.50000000E+00  8.00000000E-01  8.00000000E-01  1.50000000E+00  8.00000000E-01
  8.00000000E-01  1.50000000E+00  8.00000000E-01  8.00000000E-01  1.50000000E+00
  8.00000000E-01  8.00000000E-01  1.50000000E+00  8.00000000E-01  8.00000000E-01
  1.50000000E+00  8.00000000E-01  8.00000000E-01  1.50000000E+00  8.00000000E-01
  8.00000000E-01  1.50000000E+00  8.00000000E-01  8.00000000E-01  1.50000000E+00
  8.00000000E-01  8.00000000E-01  1.50000000E+00  8.00000000E-01  8.00000000E-01
  1.50000000E+00  8.00000000E-01  8.00000000E-01  1.50000000E+00  8.00000000E-01
  8.00000000E-01  1.50000000E+00  8.00000000E-01  8.00000000E-01  1.50000000E+00
  8.00000000E-01  8.00000000E-01  1.50000000E+00  8.00000000E-01  8.00000000E-01
  1.50000000E+00  8.00000000E-01  8.00000000E-01  1.50000000E+00  8.00000000E-01
  8.00000000E-01  1.50000000E+00  8.00000000E-01  8.00000000E-01  1.50000000E+00
  8.00000000E-01  8.00000000E-01  1.50000000E+00  8.00000000E-01  8.00000000E-01
  1.50000000E+00  8.00000000E-01  8.00000000E-01  1.50000000E+00  8.00000000E-01
  8.00000000E-01  1.50000000E+00  8.00000000E-01  8.00000000E-01  1.50000000E+00
  8.00000000E-01  8.00000000E-01  1.50000000E+00  8.00000000E-01  8.00000000E-01
  1.50000000E+00  8.00000000E-01  8.00000000E-01  1.50000000E+00  8.00000000E-01
  8.00000000E-01  1.50000000E+00  8.00000000E-01  8.00000000E-01  1.50000000E+00
  8.00000000E-01  8.00000000E-01  1.50000000E+00  8.00000000E-01  8.00000000E-01
  1.50000000E+00  8.00000000E-01  8.00000000E-01  1.50000000E+00  8.00000000E-01
  8.00000000E-01  1.50000000E+00  8.00000000E-01  8.00000000E-01  1.50000000E+00
  8.00000000E-01  8.00000000E-01  1.50000000E+00  8.00000000E-01  8.00000000E-01
  1.50000000E+00  8.00000000E-01  8.00000000E-01  1.50000000E+00  8.00000000E-01
  8.00000000E-01  1.50000000E+00  8.00000000E-01  8.00000000E-01  1.50000000E+00
  8.00000000E-01  8.00000000E-01  1.50000000E+00  8.00000000E-01  8.00000000E-01
  1.50000000E+00  8.00000000E-01  8.00000000E-01  1.50000000E+00  8.00000000E-01
  8.00000000E-01  1.50000000E+00  8.00000000E-01  8.00000000E-01  1.50000000E+00
  8.00000000E-01  8.00000000E-01  1.50000000E+00  8.00000000E-01  8.00000000E-01
  1.50000000E+00  8.00000000E-01  8.00000000E-01  1.50000000E+00  8.00000000E-01
  8.00000000E-01  1.50000000E+00  8.00000000E-01  8.00000000E-01  1.50000000E+00
  8.00000000E-01  8.00000000E-01  1.50000000E+00  8.00000000E-01  8.00000000E-01
  1.50000000E+00  8.00000000E-01  8.00000000E-01  1.50000000E+00  8.00000000E-01
  8.00000000E-01  1.50000000E+00  8.00000000E-01  8.00000000E-01  1.50000000E+00
  8.00000000E-01  8.00000000E-01  1.50000000E+00  8.00000000E-01  8.00000000E-01
  1.50000000E+00  8.00000000E-01  8.00000000E-01  1.50000000E+00  8.00000000E-01
  8.00000000E-01  1.50000000E+00  8.00000000E-01  8.00000000E-01  1.50000000E+00
  8.00000000E-01  8.00000000E-01  1.50000000E+00  8.00000000E-01  8.00000000E-01
  1.50000000E+00  8.00000000E-01  8.00000000E-01  1.50000000E+00  8.00000000E-01
  8.00000000E-01  1.50000000E+00  8.00000000E-01  8.00000000E-01  1.50000000E+00
  8.00000000E-01  8.00000000E-01  1.50000000E+00  8.00000000E-01  8.00000000E-01
  1.50000000E+00  8.00000000E-01  8.00000000E-01  1.50000000E+00  8.00000000E-01
  8.00000000E-01  1.50000000E+00  8.00000000E-01  8.00000000E-01  1.50000000E+00
  8.00000000E-01  8.00000000E-01  1.50000000E+00  8.00000000E-01  8.00000000E-01
  1.50000000E+00  8.00000000E-01  8.00000000E-01  1.50000000E+00  8.00000000E-01
  8.00000000E-01  1.50000000E+00  8.00000000E-01  8.00000000E-01  1.50000000E+00
  8.00000000E-01  8.00000000E-01  1.50000000E+00  8.00000000E-01  8.00000000E-01
  1.50000000E+00  8.00000000E-01  8.00000000E-01  1.50000000E+00  8.00000000E-01
  8.00000000E-01  1.50000000E+00  8.00000000E-01  8.00000000E-01  1.50000000E+00
  8.00000000E-01  8.00000000E-01  1.50000000E+00  8.00000000E-01  8.00000000E-01
  1.50000000E+00  8.00000000E-01  8.00000000E-01  1.50000000E+00  8.00000000E-01
  8.00000000E-01  1.50000000E+00  8.00000000E-01  8.00000000E-01  1.50000000E+00
  8.00000000E-01  8.00000000E-01  1.50000000E+00  8.00000000E-01  8.00000000E-01
  1.50000000E+00  8.00000000E-01  8.00000000E-01  1.50000000E+00  8.00000000E-01
  8.00000000E-01  1.50000000E+00  8.00000000E-01  8.00000000E-01  1.50000000E+00
  8.00000000E-01  8.00000000E-01  1.50000000E+00  8.00000000E-01  8.00000000E-01
  1.50000000E+00  8.00000000E-01  8.00000000E-01  1.50000000E+00  8.00000000E-01
  8.00000000E-01  1.50000000E+00  8.00000000E-01  8.00000000E-01  1.50000000E+00
  8.00000000E-01  8.00000000E-01  1.50000000E+00  8.00000000E-01  8.00000000E-01
  1.50000000E+00  8.00000000E-01  8.00000000E-01  1.50000000E+00  8.00000000E-01
  8.00000000E-01  1.50000000E+00  8.00000000E-01  8.00000000E-01  1.50000000E+00
  8.00000000E-01  8.00000000E-01  1.50000000E+00  8.00000000E-01  8.00000000E-01
  1.50000000E+00  8.00000000E-01  8.00000000E-01  1.50000000E+00  8.00000000E-01
  8.00000000E-01  1.50000000E+00  8.00000000E-01  8.00000000E-01  1.50000000E+00
  8.00000000E-01  8.00000000E-01  1.50000000E+00  8.00000000E-01  8.00000000E-01
  1.50000000E+00  8.00000000E-01  8.00000000E-01  1.50000000E+00  8.00000000E-01
  8.00000000E-01  1.50000000E+00  8.00000000E-01  8.00000000E-01  1.50000000E+00
  8.00000000E-01  8.00000000E-01  1.50000000E+00  8.00000000E-01  8.00000000E-01
  1.50000000E+00  8.00000000E-01  8.00000000E-01  1.50000000E+00  8.00000000E-01
  8.00000000E-01  1.50000000E+00  8.00000000E-01  8.00000000E-01  1.50000000E+00
  8.00000000E-01  8.00000000E-01  1.50000000E+00  8.00000000E-01  8.00000000E-01
  1.50000000E+00  8.00000000E-01  8.00000000E-01  1.50000000E+00  8.00000000E-01
  8.00000000E-01  1.50000000E+00  8.00000000E-01  8.00000000E-01  1.50000000E+00
  8.00000000E-01  8.00000000E-01  1.50000000E+00  8.00000000E-01  8.00000000E-01
  1.50000000E+00  8.00000000E-01  8.00000000E-01  1.50000000E+00  8.00000000E-01
  8.00000000E-01  1.50000000E+00  8.00000000E-01  8.00000000E-01  1.50000000E+00
  8.00000000E-01  8.00000000E-01  1.50000000E+00  8.00000000E-01  8.00000000E-01
  1.50000000E+00  8.00000000E-01  8.00000000E-01  1.50000000E+00  8.00000000E-01
  8.00000000E-01  1.50000000E+00  8.00000000E-01  8.00000000E-01  1.50000000E+00
  8.00000000E-01  8.00000000E-01  1.50000000E+00  8.00000000E-01  8.00000000E-01
  1.50000000E+00  8.00000000E-01  8.00000000E-01  1.50000000E+00  8.00000000E-01
  8.00000000E-01  1.50000000E+00  8.00000000E-01  8.00000000E-01  1.50000000E+00
  8.00000000E-01  8.00000000E-01  1.50000000E+00  8.00000000E-01  8.00000000E-01
  1.50000000E+00  8.00000000E-01  8.00000000E-01  1.50000000E+00  8.00000000E-01
  8.00000000E-01  1.50000000E+00  8.00000000E-01  8.00000000E-01  1.50000000E+00
  8.00000000E-01  8.00000000E-01  1.50000000E+00  8.00000000E-01  8.00000000E-01
  1.50000000E+00  8.00000000E-01  8.00000000E-01  1.50000000E+00  8.00000000E-01
  8.00000000E-01  1.50000000E+00  8.00000000E-01  8.00000000E-01  1.50000000E+00
  8.00000000E-01  8.00000000E-01  1.50000000E+00  8.00000000E-01  8.00000000E-01
  1.50000000E+00  8.00000000E-01  8.00000000E-01  1.50000000E+00  8.00000000E-01
  8.00000000E-01  1.50000000E+00  8.00000000E-01  8.00000000E-01  1.50000000E+00
  8.00000000E-01  8.00000000E-01  1.50000000E+00  8.00000000E-01  8.00000000E-01
  1.50000000E+00  8.00000000E-01  8.00000000E-01  1.50000000E+00  8.00000000E-01
  8.00000000E-01  1.50000000E+00  8.00000000E-01  8.00000000E-01  1.50000000E+00
  8.00000000E-01  8.00000000E-01  1.50000000E+00  8.00000000E-01  8.00000000E-01
  1.50000000E+00  8.00000000E-01  8.00000000E-01  1.50000000E+00  8.00000000E-01
  8.00000000E-01  1.50000000E+00  8.00000000E-01  8.00000000E-01  1.50000000E+00
  8.00000000E-01  8.00000000E-01  1.50000000E+00  8.00000000E-01  8.00000000E-01
  1.50000000E+00  8.00000000E-01  8.00000000E-01  1.50000000E+00  8.00000000E-01
  8.00000000E-01  1.50000000E+00  8.00000000E-01  8.00000000E-01  1.50000000E+00
  8.00000000E-01  8.00000000E-01  1.50000000E+00  8.00000000E-01  8.00000000E-01
  1.50000000E+00  8.00000000E-01  8.00000000E-01  1.50000000E+00  8.00000000E-01
  8.00000000E-01  1.50000000E+00  8.00000000E-01  8.00000000E-01  1.50000000E+00
  8.00000000E-01  8.00000000E-01  1.50000000E+00  8.00000000E-01  8.00000000E-01
  1.50000000E+00  8.00000000E-01  8.00000000E-01  1.50000000E+00  8.00000000E-01
  8.00000000E-01  1.50000000E+00  8.00000000E-01  8.00000000E-01  1.50000000E+00
  8.00000000E-01  8.00000000E-01  1.50000000E+00  8.00000000E-01  8.00000000E-01
  1.50000000E+00  8.00000000E-01  8.00000000E-01  1.50000000E+00  8.00000000E-01
  8.00000000E-01  1.50000000E+00  8.00000000E-01  8.00000000E-01  1.50000000E+00
  8.00000000E-01  8.00000000E-01  1.50000000E+00  8.00000000E-01  8.00000000E-01
  1.50000000E+00  8.00000000E-01  8.00000000E-01  1.50000000E+00  8.00000000E-01
  8.00000000E-01  1.50000000E+00  8.00000000E-01  8.00000000E-01  1.50000000E+00
  8.00000000E-01  8.00000000E-01  1.50000000E+00  8.00000000E-01  8.00000000E-01
  1.50000000E+00  8.00000000E-01  8.00000000E-01  1.50000000E+00  8.00000000E-01
  8.00000000E-01  1.50000000E+00  8.00000000E-01  8.00000000E-01  1.50000000E+00
  8.00000000E-01  8.00000000E-01  1.50000000E+00  8.00000000E-01  8.00000000E-01
  1.50000000E+00  8.00000000E-01  8.00000000E-01  1.50000000E+00  8.00000000E-01
  8.00000000E-01  1.50000000E+00  8.00000000E-01  8.00000000E-01  1.50000000E+00
  8.00000000E-01  8.00000000E-01  1.50000000E+00  8.00000000E-01  8.00000000E-01
  1.50000000E+00  8.00000000E-01  8.00000000E-01  1.50000000E+00  8.00000000E-01
  8.00000000E-01  1.50000000E+00  8.00000000E-01  8.00000000E-01  1.50000000E+00
  8.00000000E-01  8.00000000E-01  1.50000000E+00  8.00000000E-01  8.00000000E-01
  1.50000000E+00  8.00000000E-01  8.00000000E-01  1.50000000E+00  8.00000000E-01
  8.00000000E-01  1.50000000E+00  8.00000000E-01  8.00000000E-01  1.50000000E+00
  8.00000000E-01  8.00000000E-01  1.50000000E+00  8.00000000E-01  8.00000000E-01
  1.50000000E+00  8.00000000E-01  8.00000000E-01  1.50000000E+00  8.00000000E-01
  8.00000000E-01  1.50000000E+00  8.00000000E-01  8.00000000E-01  1.50000000E+00
  8.00000000E-01  8.00000000E-01  1.50000000E+00  8.00000000E-01  8.00000000E-01
  1.50000000E+00  8.00000000E-01  8.00000000E-01  1.50000000E+00  8.00000000E-01
  8.00000000E-01  1.50000000E+00  8.00000000E-01  8.00000000E-01  1.50000000E+00
  8.00000000E-01  8.00000000E-01  1.50000000E+00  8.00000000E-01  8.00000000E-01
  1.50000000E+00  8.00000000E-01  8.00000000E-01  1.50000000E+00  8.00000000E-01
  8.00000000E-01  1.50000000E+00  8.00000000E-01  8.00000000E-01  1.50000000E+00
  8.00000000E-01  8.00000000E-01  1.50000000E+00  8.00000000E-01  8.00000000E-01
  1.50000000E+00  8.00000000E-01  8.00000000E-01  1.50000000E+00  8.00000000E-01
  8.00000000E-01  1.50000000E+00  8.00000000E-01  8.00000000E-01  1.50000000E+00
  8.00000000E-01  8.00000000E-01  1.50000000E+00  8.00000000E-01  8.00000000E-01
  1.50000000E+00  8.00000000E-01  8.00000000E-01  1.50000000E+00  8.00000000E-01
  8.00000000E-01  1.50000000E+00  8.00000000E-01  8.00000000E-01  1.50000000E+00
  8.00000000E-01  8.00000000E-01  1.50000000E+00  8.00000000E-01  8.00000000E-01
  1.50000000E+00  8.00000000E-01  8.00000000E-01  1.50000000E+00  8.00000000E-01
  8.00000000E-01  1.50000000E+00  8.00000000E-01  8.00000000E-01  1.50000000E+00
  8.00000000E-01  8.00000000E-01  1.50000000E+00  8.00000000E-01  8.00000000E-01
  1.50000000E+00  8.00000000E-01  8.00000000E-01  1.50000000E+00  8.00000000E-01
  8.00000000E-01  1.50000000E+00  8.00000000E-01  8.00000000E-01  1.50000000E+00
  8.00000000E-01  8.00000000E-01  1.50000000E+00  8.00000000E-01  8.00000000E-01
  1.50000000E+00  8.00000000E-01  8.00000000E-01  1.50000000E+00  8.00000000E-01
  8.00000000E-01  1.50000000E+00  8.00000000E-01  8.00000000E-01  1.50000000E+00
  8.00000000E-01  8.00000000E-01  1.50000000E+00  8.00000000E-01  8.00000000E-01
  1.50000000E+00  8.00000000E-01  8.00000000E-01  1.50000000E+00  8.00000000E-01
  8.00000000E-01  1.50000000E+00  8.00000000E-01  8.00000000E-01  1.50000000E+00
  8.00000000E-01  8.00000000E-01  1.50000000E+00  8.00000000E-01  8.00000000E-01
  1.50000000E+00  8.00000000E-01  8.00000000E-01  1.50000000E+00  8.00000000E-01
  8.00000000E-01  1.50000000E+00  8.00000000E-01  8.00000000E-01  1.50000000E+00
  8.00000000E-01  8.00000000E-01  1.50000000E+00  8.00000000E-01  8.00000000E-01
  1.50000000E+00  8.00000000E-01  8.00000000E-01  1.50000000E+00  8.00000000E-01
  8.00000000E-01  1.50000000E+00  8.00000000E-01  8.00000000E-01  1.50000000E+00
  8.00000000E-01  8.00000000E-01  1.50000000E+00  8.00000000E-01  8.00000000E-01
  1.50000000E+00  8.00000000E-01  8.00000000E-01  1.50000000E+00  8.00000000E-01
  8.00000000E-01  1.50000000E+00  8.00000000E-01  8.00000000E-01  1.50000000E+00
  8.00000000E-01  8.00000000E-01  1.50000000E+00  8.00000000E-01  8.00000000E-01
  1.50000000E+00  8.00000000E-01  8.00000000E-01  1.50000000E+00  8.00000000E-01
  8.00000000E-01  1.50000000E+00  8.00000000E-01  8.00000000E-01  1.50000000E+00
  8.00000000E-01  8.00000000E-01  1.50000000E+00  8.00000000E-01  8.00000000E-01
  1.50000000E+00  8.00000000E-01  8.00000000E-01  1.50000000E+00  8.00000000E-01
  8.00000000E-01  1.50000000E+00  8.00000000E-01  8.00000000E-01  1.50000000E+00
  8.00000000E-01  8.00000000E-01  1.50000000E+00  8.00000000E-01  8.00000000E-01
  1.50000000E+00  8.00000000E-01  8.00000000E-01  1.50000000E+00  8.00000000E-01
  8.00000000E-01  1.50000000E+00  8.00000000E-01  8.00000000E-01  1.50000000E+00
  8.00000000E-01  8.00000000E-01  1.50000000E+00  8.00000000E-01  8.00000000E-01
  1.50000000E+00  8.00000000E-01  8.00000000E-01  1.50000000E+00  8.00000000E-01
  8.00000000E-01  1.50000000E+00  8.00000000E-01  8.00000000E-01  1.50000000E+00
  8.00000000E-01  8.00000000E-01  1.50000000E+00  8.00000000E-01  8.00000000E-01
  1.50000000E+00  8.00000000E-01  8.00000000E-01  1.50000000E+00  8.00000000E-01
  8.00000000E-01  1.50000000E+00  8.00000000E-01  8.00000000E-01  1.50000000E+00
  8.00000000E-01  8.00000000E-01  1.50000000E+00  8.00000000E-01  8.00000000E-01
  1.50000000E+00  8.00000000E-01  8.00000000E-01  1.50000000E+00  8.00000000E-01
  8.00000000E-01  1.50000000E+00  8.00000000E-01  8.00000000E-01  1.50000000E+00
  8.00000000E-01  8.00000000E-01  1.50000000E+00  8.00000000E-01  8.00000000E-01
  1.50000000E+00  8.00000000E-01  8.00000000E-01  1.50000000E+00  8.00000000E-01
  8.00000000E-01  1.50000000E+00  8.00000000E-01  8.00000000E-01  1.50000000E+00
  8.00000000E-01  8.00000000E-01  1.50000000E+00  8.00000000E-01  8.00000000E-01
  1.50000000E+00  8.00000000E-01  8.00000000E-01  1.50000000E+00  8.00000000E-01
  8.00000000E-01  1.50000000E+00  8.00000000E-01  8.00000000E-01  1.50000000E+00
  8.00000000E-01  8.00000000E-01  1.50000000E+00  8.00000000E-01  8.00000000E-01
  1.50000000E+00  8.00000000E-01  8.00000000E-01  1.50000000E+00  8.00000000E-01
  8.00000000E-01  1.50000000E+00  8.00000000E-01  8.00000000E-01  1.50000000E+00
  8.00000000E-01  8.00000000E-01  1.50000000E+00  8.00000000E-01  8.00000000E-01
  1.50000000E+00  8.00000000E-01  8.00000000E-01  1.50000000E+00  8.00000000E-01
  8.00000000E-01  1.50000000E+00  8.00000000E-01  8.00000000E-01  1.50000000E+00
  8.00000000E-01  8.00000000E-01  1.50000000E+00  8.00000000E-01  8.00000000E-01
  1.50000000E+00  8.00000000E-01  8.00000000E-01  1.50000000E+00  8.00000000E-01
  8.00000000E-01  1.50000000E+00  8.00000000E-01  8.00000000E-01  1.50000000E+00
  8.00000000E-01  8.00000000E-01  1.50000000E+00  8.00000000E-01  8.00000000E-01
  1.50000000E+00  8.00000000E-01  8.00000000E-01  1.50000000E+00  8.00000000E-01
  8.00000000E-01  1.50000000E+00  8.00000000E-01  8.00000000E-01  1.50000000E+00
  8.00000000E-01  8.00000000E-01  1.50000000E+00  8.00000000E-01  8.00000000E-01
  1.50000000E+00  8.00000000E-01  8.00000000E-01  1.50000000E+00  8.00000000E-01
  8.00000000E-01  1.50000000E+00  8.00000000E-01  8.00000000E-01  1.50000000E+00
  8.00000000E-01  8.00000000E-01  1.50000000E+00  8.00000000E-01  8.00000000E-01
  1.50000000E+00  8.00000000E-01  8.00000000E-01  1.50000000E+00  8.00000000E-01
  8.00000000E-01  1.50000000E+00  8.00000000E-01  8.00000000E-01  1.50000000E+00
  8.00000000E-01  8.00000000E-01  1.50000000E+00  8.00000000E-01  8.00000000E-01
  1.50000000E+00  8.00000000E-01  8.00000000E-01  1.50000000E+00  8.00000000E-01
  8.00000000E-01  1.50000000E+00  8.00000000E-01  8.00000000E-01  1.50000000E+00
  8.00000000E-01  8.00000000E-01  1.50000000E+00  8.00000000E-01  8.00000000E-01
  1.50000000E+00  8.00000000E-01  8.00000000E-01  1.50000000E+00  8.00000000E-01
  8.00000000E-01  1.50000000E+00  8.00000000E-01  8.00000000E-01  1.50000000E+00
  8.00000000E-01  8.00000000E-01  1.50000000E+00  8.00000000E-01  8.00000000E-01
  1.50000000E+00  8.00000000E-01  8.00000000E-01  1.50000000E+00  8.00000000E-01
  8.00000000E-01  1.50000000E+00  8.00000000E-01  8.00000000E-01  1.50000000E+00
  8.00000000E-01  8.00000000E-01  1.50000000E+00  8.00000000E-01  8.00000000E-01
  1.50000000E+00  8.00000000E-01  8.00000000E-01  1.50000000E+00  8.00000000E-01
  8.00000000E-01  1.50000000E+00  8.00000000E-01  8.00000000E-01  1.50000000E+00
  8.00000000E-01  8.00000000E-01  1.50000000E+00  8.00000000E-01  8.00000000E-01
  1.50000000E+00  8.00000000E-01  8.00000000E-01  1.50000000E+00  8.00000000E-01
  8.00000000E-01  1.50000000E+00  8.00000000E-01  8.00000000E-01  1.50000000E+00
  8.00000000E-01  8.00000000E-01  1.50000000E+00  8.00000000E-01  8.00000000E-01
  1.50000000E+00  8.00000000E-01  8.00000000E-01  1.50000000E+00  8.00000000E-01
  8.00000000E-01  1.50000000E+00  8.00000000E-01  8.00000000E-01  1.50000000E+00
  8.00000000E-01  8.00000000E-01  1.50000000E+00  8.00000000E-01  8.00000000E-01
  1.50000000E+00  8.00000000E-01  8.00000000E-01  1.50000000E+00  8.00000000E-01
  8.00000000E-01  1.50000000E+00  8.00000000E-01  8.00000000E-01  1.50000000E+00
  8.00000000E-01  8.00000000E-01  1.50000000E+00  8.00000000E-01  8.00000000E-01
  1.50000000E+00  8.00000000E-01  8.00000000E-01  1.50000000E+00  8.00000000E-01
  8.00000000E-01  1.50000000E+00  8.00000000E-01  8.00000000E-01  1.50000000E+00
  8.00000000E-01  8.00000000E-01  1.50000000E+00  8.00000000E-01  8.00000000E-01
  1.50000000E+00  8.00000000E-01  8.00000000E-01  1.50000000E+00  8.00000000E-01
  8.00000000E-01  1.50000000E+00  8.00000000E-01  8.00000000E-01  1.50000000E+00
  8.00000000E-01  8.00000000E-01  1.50000000E+00  8.00000000E-01  8.00000000E-01
  1.50000000E+00  8.00000000E-01  8.00000000E-01  1.50000000E+00  8.00000000E-01
  8.00000000E-01  1.50000000E+00  8.00000000E-01  8.00000000E-01  1.50000000E+00
  8.00000000E-01  8.00000000E-01  1.50000000E+00  8.00000000E-01  8.00000000E-01
  1.50000000E+00  8.00000000E-01  8.00000000E-01  1.50000000E+00  8.00000000E-01
  8.00000000E-01  1.50000000E+00  8.00000000E-01  8.00000000E-01  1.50000000E+00
  8.00000000E-01  8.00000000E-01  1.50000000E+00  8.00000000E-01  8.00000000E-01
  1.50000000E+00  8.00000000E-01  8.00000000E-01  1.50000000E+00  8.00000000E-01
  8.00000000E-01  1.50000000E+00  8.00000000E-01  8.00000000E-01  1.50000000E+00
  8.00000000E-01  8.00000000E-01  1.50000000E+00  8.00000000E-01  8.00000000E-01
  1.50000000E+00  8.00000000E-01  8.00000000E-01  1.50000000E+00  8.00000000E-01
  8.00000000E-01  1.50000000E+00  8.00000000E-01  8.00000000E-01  1.50000000E+00
  8.00000000E-01  8.00000000E-01  1.50000000E+00  8.00000000E-01  8.00000000E-01
  1.50000000E+00  8.00000000E-01  8.00000000E-01  1.50000000E+00  8.00000000E-01
  8.00000000E-01  1.50000000E+00  8.00000000E-01  8.00000000E-01  1.50000000E+00
  8.00000000E-01  8.00000000E-01  1.50000000E+00  8.00000000E-01  8.00000000E-01
  1.50000000E+00  8.00000000E-01  8.00000000E-01  1.50000000E+00  8.00000000E-01
  8.00000000E-01  1.50000000E+00  8.00000000E-01  8.00000000E-01  1.50000000E+00
  8.00000000E-01  8.00000000E-01  1.50000000E+00  8.00000000E-01  8.00000000E-01
  1.50000000E+00  8.00000000E-01  8.00000000E-01  1.50000000E+00  8.00000000E-01
  8.00000000E-01  1.50000000E+00  8.00000000E-01  8.00000000E-01  1.50000000E+00
  8.00000000E-01  8.00000000E-01  1.50000000E+00  8.00000000E-01  8.00000000E-01
  1.50000000E+00  8.00000000E-01  8.00000000E-01  1.50000000E+00  8.00000000E-01
  8.00000000E-01  1.50000000E+00  8.00000000E-01  8.00000000E-01  1.50000000E+00
  8.00000000E-01  8.00000000E-01  1.50000000E+00  8.00000000E-01  8.00000000E-01
  1.50000000E+00  8.00000000E-01  8.00000000E-01  1.50000000E+00  8.00000000E-01
  8.00000000E-01  1.50000000E+00  8.00000000E-01  8.00000000E-01  1.50000000E+00
  8.00000000E-01  8.00000000E-01  1.50000000E+00  8.00000000E-01  8.00000000E-01
  1.50000000E+00  8.00000000E-01  8.00000000E-01  1.50000000E+00  8.00000000E-01
  8.00000000E-01  1.50000000E+00  8.00000000E-01  8.00000000E-01  1.50000000E+00
  8.00000000E-01  8.00000000E-01  1.50000000E+00  8.00000000E-01  8.00000000E-01
  1.50000000E+00  8.00000000E-01  8.00000000E-01  1.50000000E+00  8.00000000E-01
  8.00000000E-01  1.50000000E+00  8.00000000E-01  8.00000000E-01  1.50000000E+00
  8.00000000E-01  8.00000000E-01  1.50000000E+00  8.00000000E-01  8.00000000E-01
  1.50000000E+00  8.00000000E-01  8.00000000E-01  1.50000000E+00  8.00000000E-01
  8.00000000E-01  1.50000000E+00  8.00000000E-01  8.00000000E-01  1.50000000E+00
  8.00000000E-01  8.00000000E-01  1.50000000E+00  8.00000000E-01  8.00000000E-01
  1.50000000E+00  8.00000000E-01  8.00000000E-01  1.50000000E+00  8.00000000E-01
  8.00000000E-01  1.50000000E+00  8.00000000E-01  8.00000000E-01  1.50000000E+00
  8.00000000E-01  8.00000000E-01  1.50000000E+00  8.00000000E-01  8.00000000E-01
  1.50000000E+00  8.00000000E-01  8.00000000E-01  1.50000000E+00  8.00000000E-01
  8.00000000E-01  1.50000000E+00  8.00000000E-01  8.00000000E-01  1.50000000E+00
  8.00000000E-01  8.00000000E-01  1.50000000E+00  8.00000000E-01  8.00000000E-01
  1.50000000E+00  8.00000000E-01  8.00000000E-01  1.50000000E+00  8.00000000E-01
  8.00000000E-01  1.50000000E+00  8.00000000E-01  8.00000000E-01  1.50000000E+00
  8.00000000E-01  8.00000000E-01  1.50000000E+00  8.00000000E-01  8.00000000E-01
  1.50000000E+00  8.00000000E-01  8.00000000E-01  1.50000000E+00  8.00000000E-01
  8.00000000E-01  1.50000000E+00  8.00000000E-01  8.00000000E-01  1.50000000E+00
  8.00000000E-01  8.00000000E-01  1.50000000E+00  8.00000000E-01  8.00000000E-01
  1.50000000E+00  8.00000000E-01  8.00000000E-01  1.50000000E+00  8.00000000E-01
  8.00000000E-01  1.50000000E+00  8.00000000E-01  8.00000000E-01  1.50000000E+00
  8.00000000E-01  8.00000000E-01  1.50000000E+00  8.00000000E-01  8.00000000E-01
  1.50000000E+00  8.00000000E-01  8.00000000E-01  1.50000000E+00  8.00000000E-01
  8.00000000E-01  1.50000000E+00  8.00000000E-01  8.00000000E-01  1.50000000E+00
  8.00000000E-01  8.00000000E-01  1.50000000E+00  8.00000000E-01  8.00000000E-01
  1.50000000E+00  8.00000000E-01  8.00000000E-01  1.50000000E+00  8.00000000E-01
  8.00000000E-01  1.50000000E+00  8.00000000E-01  8.00000000E-01  1.50000000E+00
  8.00000000E-01  8.00000000E-01  1.50000000E+00  8.00000000E-01  8.00000000E-01
  1.50000000E+00  8.00000000E-01  8.00000000E-01  1.50000000E+00  8.00000000E-01
  8.00000000E-01  1.50000000E+00  8.00000000E-01  8.00000000E-01  1.50000000E+00
  8.00000000E-01  8.00000000E-01  1.50000000E+00  8.00000000E-01  8.00000000E-01
  1.50000000E+00  8.00000000E-01  8.00000000E-01  1.50000000E+00  8.00000000E-01
  8.00000000E-01  1.50000000E+00  8.00000000E-01  8.00000000E-01  1.50000000E+00
  8.00000000E-01  8.00000000E-01  1.50000000E+00  8.00000000E-01  8.00000000E-01
  1.50000000E+00  8.00000000E-01  8.00000000E-01  1.50000000E+00  8.00000000E-01
  8.00000000E-01  1.50000000E+00  8.00000000E-01  8.00000000E-01  1.50000000E+00
  8.00000000E-01  8.00000000E-01  1.50000000E+00  8.00000000E-01  8.00000000E-01
  1.50000000E+00  8.00000000E-01  8.00000000E-01  1.50000000E+00  8.00000000E-01
  8.00000000E-01  1.50000000E+00  8.00000000E-01  8.00000000E-01  1.50000000E+00
  8.00000000E-01  8.00000000E-01  1.50000000E+00  8.00000000E-01  8.00000000E-01
  1.50000000E+00  8.00000000E-01  8.00000000E-01  1.50000000E+00  8.00000000E-01
  8.00000000E-01  1.50000000E+00  8.00000000E-01  8.00000000E-01  1.50000000E+00
  8.00000000E-01  8.00000000E-01  1.50000000E+00  8.00000000E-01  8.00000000E-01
  1.50000000E+00  8.00000000E-01  8.00000000E-01  1.50000000E+00  8.00000000E-01
  8.00000000E-01  1.50000000E+00  8.00000000E-01  8.00000000E-01  1.50000000E+00
  8.00000000E-01  8.00000000E-01  1.50000000E+00  8.00000000E-01  8.00000000E-01
  1.50000000E+00  8.00000000E-01  8.00000000E-01  1.50000000E+00  8.00000000E-01
  8.00000000E-01  1.50000000E+00  8.00000000E-01  8.00000000E-01  1.50000000E+00
  8.00000000E-01  8.00000000E-01  1.50000000E+00  8.00000000E-01  8.00000000E-01
  1.50000000E+00  8.00000000E-01  8.00000000E-01  1.50000000E+00  8.00000000E-01
  8.00000000E-01  1.50000000E+00  8.00000000E-01  8.00000000E-01  1.50000000E+00
  8.00000000E-01  8.00000000E-01  1.50000000E+00  8.00000000E-01  8.00000000E-01
  1.50000000E+00  8.00000000E-01  8.00000000E-01  1.50000000E+00  8.00000000E-01
  8.00000000E-01  1.50000000E+00  8.00000000E-01  8.00000000E-01  1.50000000E+00
  8.00000000E-01  8.00000000E-01  1.50000000E+00  8.00000000E-01  8.00000000E-01
  1.50000000E+00  8.00000000E-01  8.00000000E-01  1.50000000E+00  8.00000000E-01
  8.00000000E-01  1.50000000E+00  8.00000000E-01  8.00000000E-01  1.50000000E+00
  8.00000000E-01  8.00000000E-01  1.50000000E+00  8.00000000E-01  8.00000000E-01
  1.50000000E+00  8.00000000E-01  8.00000000E-01  1.50000000E+00  8.00000000E-01
  8.00000000E-01  1.50000000E+00  8.00000000E-01  8.00000000E-01  1.50000000E+00
  8.00000000E-01  8.00000000E-01  1.50000000E+00  8.00000000E-01  8.00000000E-01
  1.50000000E+00  8.00000000E-01  8.00000000E-01  1.50000000E+00  8.00000000E-01
  8.00000000E-01  1.50000000E+00  8.00000000E-01  8.00000000E-01  1.50000000E+00
  8.00000000E-01  8.00000000E-01  1.50000000E+00  8.00000000E-01  8.00000000E-01
  1.50000000E+00  8.00000000E-01  8.00000000E-01  1.50000000E+00  8.00000000E-01
  8.00000000E-01  1.50000000E+00  8.00000000E-01  8.00000000E-01  1.50000000E+00
  8.00000000E-01  8.00000000E-01  1.50000000E+00  8.00000000E-01  8.00000000E-01
  1.50000000E+00  8.00000000E-01  8.00000000E-01  1.50000000E+00  8.00000000E-01
  8.00000000E-01  1.50000000E+00  8.00000000E-01  8.00000000E-01  1.50000000E+00
  8.00000000E-01  8.00000000E-01  1.50000000E+00  8.00000000E-01  8.00000000E-01
  1.50000000E+00  8.00000000E-01  8.00000000E-01  1.50000000E+00  8.00000000E-01
  8.00000000E-01  1.50000000E+00  8.00000000E-01  8.00000000E-01  1.50000000E+00
  8.00000000E-01  8.00000000E-01  1.50000000E+00  8.00000000E-01  8.00000000E-01
  1.50000000E+00  8.00000000E-01  8.00000000E-01  1.50000000E+00  8.00000000E-01
  8.00000000E-01  1.50000000E+00  8.00000000E-01  8.00000000E-01  1.50000000E+00
  8.00000000E-01  8.00000000E-01  1.50000000E+00  8.00000000E-01  8.00000000E-01
  1.50000000E+00  8.00000000E-01  8.00000000E-01  1.50000000E+00  8.00000000E-01
  8.00000000E-01  1.50000000E+00  8.00000000E-01  8.00000000E-01  1.50000000E+00
  8.00000000E-01  8.00000000E-01  1.50000000E+00  8.00000000E-01  8.00000000E-01
  1.50000000E+00  8.00000000E-01  8.00000000E-01  1.50000000E+00  8.00000000E-01
  8.00000000E-01  1.50000000E+00  8.00000000E-01  8.00000000E-01  1.50000000E+00
  8.00000000E-01  8.00000000E-01  1.50000000E+00  8.00000000E-01  8.00000000E-01
  1.50000000E+00  8.00000000E-01  8.00000000E-01  1.50000000E+00  8.00000000E-01
  8.00000000E-01  1.50000000E+00  8.00000000E-01  8.00000000E-01  1.50000000E+00
  8.00000000E-01  8.00000000E-01  1.50000000E+00  8.00000000E-01  8.00000000E-01
  1.50000000E+00  8.00000000E-01  8.00000000E-01  1.50000000E+00  8.00000000E-01
  8.00000000E-01  1.50000000E+00  8.00000000E-01  8.00000000E-01  1.50000000E+00
  8.00000000E-01  8.00000000E-01  1.50000000E+00  8.00000000E-01  8.00000000E-01
  1.50000000E+00  8.00000000E-01  8.00000000E-01  1.50000000E+00  8.00000000E-01
  8.00000000E-01  1.50000000E+00  8.00000000E-01  8.00000000E-01  1.50000000E+00
  8.00000000E-01  8.00000000E-01  1.50000000E+00  8.00000000E-01  8.00000000E-01
  1.50000000E+00  8.00000000E-01  8.00000000E-01  1.50000000E+00  8.00000000E-01
  8.00000000E-01  1.50000000E+00  8.00000000E-01  8.00000000E-01  1.50000000E+00
  8.00000000E-01  8.00000000E-01  1.50000000E+00  8.00000000E-01  8.00000000E-01
  1.50000000E+00  8.00000000E-01  8.00000000E-01  1.50000000E+00  8.00000000E-01
  8.00000000E-01  1.50000000E+00  8.00000000E-01  8.00000000E-01  1.50000000E+00
  8.00000000E-01  8.00000000E-01  1.50000000E+00  8.00000000E-01  8.00000000E-01
  1.50000000E+00  8.00000000E-01  8.00000000E-01  1.50000000E+00  8.00000000E-01
  8.00000000E-01  1.50000000E+00  8.00000000E-01  8.00000000E-01  1.50000000E+00
  8.00000000E-01  8.00000000E-01  1.50000000E+00  8.00000000E-01  8.00000000E-01
  1.50000000E+00  8.00000000E-01  8.00000000E-01  1.50000000E+00  8.00000000E-01
  8.00000000E-01  1.50000000E+00  8.00000000E-01  8.00000000E-01  1.50000000E+00
  8.00000000E-01  8.00000000E-01  1.50000000E+00  8.00000000E-01  8.00000000E-01
  1.50000000E+00  8.00000000E-01  8.00000000E-01  1.50000000E+00  8.00000000E-01
  8.00000000E-01  1.50000000E+00  8.00000000E-01  8.00000000E-01  1.50000000E+00
  8.00000000E-01  8.00000000E-01  1.50000000E+00  8.00000000E-01  8.00000000E-01
  1.50000000E+00  8.00000000E-01  8.00000000E-01  1.50000000E+00  8.00000000E-01
  8.00000000E-01  1.50000000E+00  8.00000000E-01  8.00000000E-01  1.50000000E+00
  8.00000000E-01  8.00000000E-01  1.50000000E+00  8.00000000E-01  8.00000000E-01
  1.50000000E+00  8.00000000E-01  8.00000000E-01  1.50000000E+00  8.00000000E-01
  8.00000000E-01  1.50000000E+00  8.00000000E-01  8.00000000E-01  1.50000000E+00
  8.00000000E-01  8.00000000E-01  1.50000000E+00  8.00000000E-01  8.00000000E-01
  1.50000000E+00  8.00000000E-01  8.00000000E-01  1.50000000E+00  8.00000000E-01
  8.00000000E-01  1.50000000E+00  8.00000000E-01  8.00000000E-01  1.50000000E+00
  8.00000000E-01  8.00000000E-01  1.50000000E+00  8.00000000E-01  8.00000000E-01
  1.50000000E+00  8.00000000E-01  8.00000000E-01  1.50000000E+00  8.00000000E-01
  8.00000000E-01  1.50000000E+00  8.00000000E-01  8.00000000E-01  1.50000000E+00
  8.00000000E-01  8.00000000E-01  1.50000000E+00  8.00000000E-01  8.00000000E-01
  1.50000000E+00  8.00000000E-01  8.00000000E-01  1.50000000E+00  8.00000000E-01
  8.00000000E-01  1.50000000E+00  8.00000000E-01  8.00000000E-01  1.50000000E+00
  8.00000000E-01  8.00000000E-01  1.50000000E+00  8.00000000E-01  8.00000000E-01
  1.50000000E+00  8.00000000E-01  8.00000000E-01  1.50000000E+00  8.00000000E-01
  8.00000000E-01  1.50000000E+00  8.00000000E-01  8.00000000E-01  1.50000000E+00
  8.00000000E-01  8.00000000E-01  1.50000000E+00  8.00000000E-01  8.00000000E-01
  1.50000000E+00  8.00000000E-01  8.00000000E-01  1.50000000E+00  8.00000000E-01
  8.00000000E-01  1.50000000E+00  8.00000000E-01  8.00000000E-01  1.50000000E+00
  8.00000000E-01  8.00000000E-01  1.50000000E+00  8.00000000E-01  8.00000000E-01
  1.50000000E+00  8.00000000E-01  8.00000000E-01  1.50000000E+00  8.00000000E-01
  8.00000000E-01  1.50000000E+00  8.00000000E-01  8.00000000E-01  1.50000000E+00
  8.00000000E-01  8.00000000E-01  1.50000000E+00  8.00000000E-01  8.00000000E-01
  1.50000000E+00  8.00000000E-01  8.00000000E-01  1.50000000E+00  8.00000000E-01
  8.00000000E-01  1.50000000E+00  8.00000000E-01  8.00000000E-01  1.50000000E+00
  8.00000000E-01  8.00000000E-01  1.50000000E+00  8.00000000E-01  8.00000000E-01
  1.50000000E+00  8.00000000E-01  8.00000000E-01  1.50000000E+00  8.00000000E-01
  8.00000000E-01  1.50000000E+00  8.00000000E-01  8.00000000E-01  1.50000000E+00
  8.00000000E-01  8.00000000E-01  1.50000000E+00  8.00000000E-01  8.00000000E-01
  1.50000000E+00  8.00000000E-01  8.00000000E-01  1.50000000E+00  8.00000000E-01
  8.00000000E-01  1.50000000E+00  8.00000000E-01  8.00000000E-01  1.50000000E+00
  8.00000000E-01  8.00000000E-01  1.50000000E+00  8.00000000E-01  8.00000000E-01
  1.50000000E+00  8.00000000E-01  8.00000000E-01  1.50000000E+00  8.00000000E-01
  8.00000000E-01  1.50000000E+00  8.00000000E-01  8.00000000E-01  1.50000000E+00
  8.00000000E-01  8.00000000E-01  1.50000000E+00  8.00000000E-01  8.00000000E-01
  1.50000000E+00  8.00000000E-01  8.00000000E-01  1.50000000E+00  8.00000000E-01
  8.00000000E-01  1.50000000E+00  8.00000000E-01  8.00000000E-01  1.50000000E+00
  8.00000000E-01  8.00000000E-01  1.50000000E+00  8.00000000E-01  8.00000000E-01
  1.50000000E+00  8.00000000E-01  8.00000000E-01  1.50000000E+00  8.00000000E-01
  8.00000000E-01  1.50000000E+00  8.00000000E-01  8.00000000E-01  1.50000000E+00
  8.00000000E-01  8.00000000E-01  1.50000000E+00  8.00000000E-01  8.00000000E-01
  1.50000000E+00  8.00000000E-01  8.00000000E-01  1.50000000E+00  8.00000000E-01
  8.00000000E-01  1.50000000E+00  8.00000000E-01  8.00000000E-01  1.50000000E+00
  8.00000000E-01  8.00000000E-01  1.50000000E+00  8.00000000E-01  8.00000000E-01
  1.50000000E+00  8.00000000E-01  8.00000000E-01  1.50000000E+00  8.00000000E-01
  8.00000000E-01  1.50000000E+00  8.00000000E-01  8.00000000E-01  1.50000000E+00
  8.00000000E-01  8.00000000E-01  1.50000000E+00  8.00000000E-01  8.00000000E-01
  1.50000000E+00  8.00000000E-01  8.00000000E-01  1.50000000E+00  8.00000000E-01
  8.00000000E-01  1.50000000E+00  8.00000000E-01  8.00000000E-01  1.50000000E+00
  8.00000000E-01  8.00000000E-01  1.50000000E+00  8.00000000E-01  8.00000000E-01
  1.50000000E+00  8.00000000E-01  8.00000000E-01  1.50000000E+00  8.00000000E-01
  8.00000000E-01  1.50000000E+00  8.00000000E-01  8.00000000E-01  1.50000000E+00
  8.00000000E-01  8.00000000E-01  1.50000000E+00  8.00000000E-01  8.00000000E-01
  1.50000000E+00  8.00000000E-01  8.00000000E-01  1.50000000E+00  8.00000000E-01
  8.00000000E-01  1.50000000E+00  8.00000000E-01  8.00000000E-01  1.50000000E+00
  8.00000000E-01  8.00000000E-01  1.50000000E+00  8.00000000E-01  8.00000000E-01
  1.50000000E+00  8.00000000E-01  8.00000000E-01  1.50000000E+00  8.00000000E-01
  8.00000000E-01  1.50000000E+00  8.00000000E-01  8.00000000E-01  1.50000000E+00
  8.00000000E-01  8.00000000E-01  1.50000000E+00  8.00000000E-01  8.00000000E-01
  1.50000000E+00  8.00000000E-01  8.00000000E-01  1.50000000E+00  8.00000000E-01
  8.00000000E-01  1.50000000E+00  8.00000000E-01  8.00000000E-01  1.50000000E+00
  8.00000000E-01  8.00000000E-01  1.50000000E+00  8.00000000E-01  8.00000000E-01
  1.50000000E+00  8.00000000E-01  8.00000000E-01  1.50000000E+00  8.00000000E-01
  8.00000000E-01  1.50000000E+00  8.00000000E-01  8.00000000E-01  1.50000000E+00
  8.00000000E-01  8.00000000E-01  1.50000000E+00  8.00000000E-01  8.00000000E-01
  1.50000000E+00  8.00000000E-01  8.00000000E-01  1.50000000E+00  8.00000000E-01
  8.00000000E-01  1.50000000E+00  8.00000000E-01  8.00000000E-01  1.50000000E+00
  8.00000000E-01  8.00000000E-01  1.50000000E+00  8.00000000E-01  8.00000000E-01
  1.50000000E+00  8.00000000E-01  8.00000000E-01  1.50000000E+00  8.00000000E-01
  8.00000000E-01  1.50000000E+00  8.00000000E-01  8.00000000E-01  1.50000000E+00
  8.00000000E-01  8.00000000E-01  1.50000000E+00  8.00000000E-01  8.00000000E-01
  1.50000000E+00  8.00000000E-01  8.00000000E-01  1.50000000E+00  8.00000000E-01
  8.00000000E-01  1.50000000E+00  8.00000000E-01  8.00000000E-01  1.50000000E+00
  8.00000000E-01  8.00000000E-01  1.50000000E+00  8.00000000E-01  8.00000000E-01
  1.50000000E+00  8.00000000E-01  8.00000000E-01  1.50000000E+00  8.00000000E-01
  8.00000000E-01  1.50000000E+00  8.00000000E-01  8.00000000E-01  1.50000000E+00
  8.00000000E-01  8.00000000E-01  1.50000000E+00  8.00000000E-01  8.00000000E-01
  1.50000000E+00  8.00000000E-01  8.00000000E-01  1.50000000E+00  8.00000000E-01
  8.00000000E-01  1.50000000E+00  8.00000000E-01  8.00000000E-01  1.50000000E+00
  8.00000000E-01  8.00000000E-01  1.50000000E+00  8.00000000E-01  8.00000000E-01
  1.50000000E+00  8.00000000E-01  8.00000000E-01  1.50000000E+00  8.00000000E-01
  8.00000000E-01  1.50000000E+00  8.00000000E-01  8.00000000E-01  1.50000000E+00
  8.00000000E-01  8.00000000E-01  1.50000000E+00  8.00000000E-01  8.00000000E-01
  1.50000000E+00  8.00000000E-01  8.00000000E-01  1.50000000E+00  8.00000000E-01
  8.00000000E-01  1.50000000E+00  8.00000000E-01  8.00000000E-01  1.50000000E+00
  8.00000000E-01  8.00000000E-01  1.50000000E+00  8.00000000E-01  8.00000000E-01
  1.50000000E+00  8.00000000E-01  8.00000000E-01  1.50000000E+00  8.00000000E-01
  8.00000000E-01  1.50000000E+00  8.00000000E-01  8.00000000E-01  1.50000000E+00
  8.00000000E-01  8.00000000E-01  1.50000000E+00  8.00000000E-01  8.00000000E-01
  1.50000000E+00  8.00000000E-01  8.00000000E-01  1.50000000E+00  8.00000000E-01
  8.00000000E-01  1.50000000E+00  8.00000000E-01  8.00000000E-01  1.50000000E+00
  8.00000000E-01  8.00000000E-01  1.50000000E+00  8.00000000E-01  8.00000000E-01
  1.50000000E+00  8.00000000E-01  8.00000000E-01  1.50000000E+00  8.00000000E-01
  8.00000000E-01  1.50000000E+00  8.00000000E-01  8.00000000E-01  1.50000000E+00
  8.00000000E-01  8.00000000E-01  1.50000000E+00  8.00000000E-01  8.00000000E-01
  1.50000000E+00  8.00000000E-01  8.00000000E-01  1.50000000E+00  8.00000000E-01
  8.00000000E-01  1.50000000E+00  8.00000000E-01  8.00000000E-01  1.50000000E+00
  8.00000000E-01  8.00000000E-01  1.50000000E+00  8.00000000E-01  8.00000000E-01
  1.50000000E+00  8.00000000E-01  8.00000000E-01  1.50000000E+00  8.00000000E-01
  8.00000000E-01  1.50000000E+00  8.00000000E-01  8.00000000E-01  1.50000000E+00
  8.00000000E-01  8.00000000E-01  1.50000000E+00  8.00000000E-01  8.00000000E-01
  1.50000000E+00  8.00000000E-01  8.00000000E-01  1.50000000E+00  8.00000000E-01
  8.00000000E-01  1.50000000E+00  8.00000000E-01  8.00000000E-01  1.50000000E+00
  8.00000000E-01  8.00000000E-01  1.50000000E+00  8.00000000E-01  8.00000000E-01
  1.50000000E+00  8.00000000E-01  8.00000000E-01  1.50000000E+00  8.00000000E-01
  8.00000000E-01  1.50000000E+00  8.00000000E-01  8.00000000E-01  1.50000000E+00
  8.00000000E-01  8.00000000E-01  1.50000000E+00  8.00000000E-01  8.00000000E-01
  1.50000000E+00  8.00000000E-01  8.00000000E-01  1.50000000E+00  8.00000000E-01
  8.00000000E-01  1.50000000E+00  8.00000000E-01  8.00000000E-01  1.50000000E+00
  8.00000000E-01  8.00000000E-01  1.50000000E+00  8.00000000E-01  8.00000000E-01
  1.50000000E+00  8.00000000E-01  8.00000000E-01  1.50000000E+00  8.00000000E-01
  8.00000000E-01  1.50000000E+00  8.00000000E-01  8.00000000E-01  1.50000000E+00
  8.00000000E-01  8.00000000E-01  1.50000000E+00  8.00000000E-01  8.00000000E-01
  1.50000000E+00  8.00000000E-01  8.00000000E-01  1.50000000E+00  8.00000000E-01
  8.00000000E-01  1.50000000E+00  8.00000000E-01  8.00000000E-01  1.50000000E+00
  8.00000000E-01  8.00000000E-01  1.50000000E+00  8.00000000E-01  8.00000000E-01
  1.50000000E+00  8.00000000E-01  8.00000000E-01  1.50000000E+00  8.00000000E-01
  8.00000000E-01  1.50000000E+00  8.00000000E-01  8.00000000E-01  1.50000000E+00
  8.00000000E-01  8.00000000E-01  1.50000000E+00  8.00000000E-01  8.00000000E-01
  1.50000000E+00  8.00000000E-01  8.00000000E-01  1.50000000E+00  8.00000000E-01
  8.00000000E-01  1.50000000E+00  8.00000000E-01  8.00000000E-01  1.50000000E+00
  8.00000000E-01  8.00000000E-01  1.50000000E+00  8.00000000E-01  8.00000000E-01
  1.50000000E+00  8.00000000E-01  8.00000000E-01  1.50000000E+00  8.00000000E-01
  8.00000000E-01  1.50000000E+00  8.00000000E-01  8.00000000E-01  1.50000000E+00
  8.00000000E-01  8.00000000E-01  1.50000000E+00  8.00000000E-01  8.00000000E-01
  1.50000000E+00  8.00000000E-01  8.00000000E-01  1.50000000E+00  8.00000000E-01
  8.00000000E-01  1.50000000E+00  8.00000000E-01  8.00000000E-01  1.50000000E+00
  8.00000000E-01  8.00000000E-01  1.50000000E+00  8.00000000E-01  8.00000000E-01
  1.50000000E+00  8.00000000E-01  8.00000000E-01  1.50000000E+00  8.00000000E-01
  8.00000000E-01  1.50000000E+00  8.00000000E-01  8.00000000E-01  1.50000000E+00
  8.00000000E-01  8.00000000E-01  1.50000000E+00  8.00000000E-01  8.00000000E-01
  1.50000000E+00  8.00000000E-01  8.00000000E-01  1.50000000E+00  8.00000000E-01
  8.00000000E-01  1.50000000E+00  8.00000000E-01  8.00000000E-01  1.50000000E+00
  8.00000000E-01  8.00000000E-01  1.50000000E+00  8.00000000E-01  8.00000000E-01
  1.50000000E+00  8.00000000E-01  8.00000000E-01  1.50000000E+00  8.00000000E-01
  8.00000000E-01  1.50000000E+00  8.00000000E-01  8.00000000E-01  1.50000000E+00
  8.00000000E-01  8.00000000E-01  1.50000000E+00  8.00000000E-01  8.00000000E-01
  1.50000000E+00  8.00000000E-01  8.00000000E-01  1.50000000E+00  8.00000000E-01
  8.00000000E-01  1.50000000E+00  8.00000000E-01  8.00000000E-01  1.50000000E+00
  8.00000000E-01  8.00000000E-01  1.50000000E+00  8.00000000E-01  8.00000000E-01
  1.50000000E+00  8.00000000E-01  8.00000000E-01  1.50000000E+00  8.00000000E-01
  8.00000000E-01  1.50000000E+00  8.00000000E-01  8.00000000E-01  1.50000000E+00
  8.00000000E-01  8.00000000E-01  1.50000000E+00  8.00000000E-01  8.00000000E-01
  1.50000000E+00  8.00000000E-01  8.00000000E-01  1.50000000E+00  8.00000000E-01
  8.00000000E-01  1.50000000E+00  8.00000000E-01  8.00000000E-01  1.50000000E+00
  8.00000000E-01  8.00000000E-01  1.50000000E+00  8.00000000E-01  8.00000000E-01
  1.50000000E+00  8.00000000E-01  8.00000000E-01  1.50000000E+00  8.00000000E-01
  8.00000000E-01  1.50000000E+00  8.00000000E-01  8.00000000E-01  1.50000000E+00
  8.00000000E-01  8.00000000E-01  1.50000000E+00  8.00000000E-01  8.00000000E-01
  1.50000000E+00  8.00000000E-01  8.00000000E-01  1.50000000E+00  8.00000000E-01
  8.00000000E-01  1.50000000E+00  8.00000000E-01  8.00000000E-01  1.50000000E+00
  8.00000000E-01  8.00000000E-01  1.50000000E+00  8.00000000E-01  8.00000000E-01
  1.50000000E+00  8.00000000E-01  8.00000000E-01  1.50000000E+00  8.00000000E-01
  8.00000000E-01  1.50000000E+00  8.00000000E-01  8.00000000E-01  1.50000000E+00
  8.00000000E-01  8.00000000E-01  1.50000000E+00  8.00000000E-01  8.00000000E-01
  1.50000000E+00  8.00000000E-01  8.00000000E-01  1.50000000E+00  8.00000000E-01
  8.00000000E-01  1.50000000E+00  8.00000000E-01  8.00000000E-01  1.50000000E+00
  8.00000000E-01  8.00000000E-01  1.50000000E+00  8.00000000E-01  8.00000000E-01
  1.50000000E+00  8.00000000E-01  8.00000000E-01  1.50000000E+00  8.00000000E-01
  8.00000000E-01  1.50000000E+00  8.00000000E-01  8.00000000E-01  1.50000000E+00
  8.00000000E-01  8.00000000E-01  1.50000000E+00  8.00000000E-01  8.00000000E-01
  1.50000000E+00  8.00000000E-01  8.00000000E-01  1.50000000E+00  8.00000000E-01
  8.00000000E-01  1.50000000E+00  8.00000000E-01  8.00000000E-01  1.50000000E+00
  8.00000000E-01  8.00000000E-01  1.50000000E+00  8.00000000E-01  8.00000000E-01
  1.50000000E+00  8.00000000E-01  8.00000000E-01  1.50000000E+00  8.00000000E-01
  8.00000000E-01  1.50000000E+00  8.00000000E-01  8.00000000E-01  1.50000000E+00
  8.00000000E-01  8.00000000E-01  1.50000000E+00  8.00000000E-01  8.00000000E-01
  1.50000000E+00  8.00000000E-01  8.00000000E-01  1.50000000E+00  8.00000000E-01
  8.00000000E-01  1.50000000E+00  8.00000000E-01  8.00000000E-01  1.50000000E+00
  8.00000000E-01  8.00000000E-01  1.50000000E+00  8.00000000E-01  8.00000000E-01
  1.50000000E+00  8.00000000E-01  8.00000000E-01  1.50000000E+00  8.00000000E-01
  8.00000000E-01  1.50000000E+00  8.00000000E-01  8.00000000E-01  1.50000000E+00
  8.00000000E-01  8.00000000E-01  1.50000000E+00  8.00000000E-01  8.00000000E-01
  1.50000000E+00  8.00000000E-01  8.00000000E-01  1.50000000E+00  8.00000000E-01
  8.00000000E-01  1.50000000E+00  8.00000000E-01  8.00000000E-01  1.50000000E+00
  8.00000000E-01  8.00000000E-01  1.50000000E+00  8.00000000E-01  8.00000000E-01
  1.50000000E+00  8.00000000E-01  8.00000000E-01  1.50000000E+00  8.00000000E-01
  8.00000000E-01  1.50000000E+00  8.00000000E-01  8.00000000E-01  1.50000000E+00
  8.00000000E-01  8.00000000E-01  1.50000000E+00  8.00000000E-01  8.00000000E-01
  1.50000000E+00  8.00000000E-01  8.00000000E-01  1.50000000E+00  8.00000000E-01
  8.00000000E-01  1.50000000E+00  8.00000000E-01  8.00000000E-01  1.50000000E+00
  8.00000000E-01  8.00000000E-01  1.50000000E+00  8.00000000E-01  8.00000000E-01
  1.50000000E+00  8.00000000E-01  8.00000000E-01  1.50000000E+00  8.00000000E-01
  8.00000000E-01  1.50000000E+00  8.00000000E-01  8.00000000E-01  1.50000000E+00
  8.00000000E-01  8.00000000E-01  1.50000000E+00  8.00000000E-01  8.00000000E-01
  1.50000000E+00  8.00000000E-01  8.00000000E-01  1.50000000E+00  8.00000000E-01
  8.00000000E-01  1.50000000E+00  8.00000000E-01  8.00000000E-01  1.50000000E+00
  8.00000000E-01  8.00000000E-01  1.50000000E+00  8.00000000E-01  8.00000000E-01
  1.50000000E+00  8.00000000E-01  8.00000000E-01  1.50000000E+00  8.00000000E-01
  8.00000000E-01  1.50000000E+00  8.00000000E-01  8.00000000E-01  1.50000000E+00
  8.00000000E-01  8.00000000E-01  1.50000000E+00  8.00000000E-01  8.00000000E-01
  1.50000000E+00  8.00000000E-01  8.00000000E-01  1.50000000E+00  8.00000000E-01
  8.00000000E-01  1.50000000E+00  8.00000000E-01  8.00000000E-01  1.50000000E+00
  8.00000000E-01  8.00000000E-01  1.50000000E+00  8.00000000E-01  8.00000000E-01
  1.50000000E+00  8.00000000E-01  8.00000000E-01  1.50000000E+00  8.00000000E-01
  8.00000000E-01  1.50000000E+00  8.00000000E-01  8.00000000E-01  1.50000000E+00
  8.00000000E-01  8.00000000E-01  1.50000000E+00  8.00000000E-01  8.00000000E-01
  1.50000000E+00  8.00000000E-01  8.00000000E-01  1.50000000E+00  8.00000000E-01
  8.00000000E-01  1.50000000E+00  8.00000000E-01  8.00000000E-01  1.50000000E+00
  8.00000000E-01  8.00000000E-01  1.50000000E+00  8.00000000E-01  8.00000000E-01
  1.50000000E+00  8.00000000E-01  8.00000000E-01  1.50000000E+00  8.00000000E-01
  8.00000000E-01  1.50000000E+00  8.00000000E-01  8.00000000E-01  1.50000000E+00
  8.00000000E-01  8.00000000E-01  1.50000000E+00  8.00000000E-01  8.00000000E-01
  1.50000000E+00  8.00000000E-01  8.00000000E-01  1.50000000E+00  8.00000000E-01
  8.00000000E-01  1.50000000E+00  8.00000000E-01  8.00000000E-01  1.50000000E+00
  8.00000000E-01  8.00000000E-01  1.50000000E+00  8.00000000E-01  8.00000000E-01
  1.50000000E+00  8.00000000E-01  8.00000000E-01  1.50000000E+00  8.00000000E-01
  8.00000000E-01  1.50000000E+00  8.00000000E-01  8.00000000E-01  1.50000000E+00
  8.00000000E-01  8.00000000E-01  1.50000000E+00  8.00000000E-01  8.00000000E-01
  1.50000000E+00  8.00000000E-01  8.00000000E-01  1.50000000E+00  8.00000000E-01
  8.00000000E-01  1.50000000E+00  8.00000000E-01  8.00000000E-01  1.50000000E+00
  8.00000000E-01  8.00000000E-01  1.50000000E+00  8.00000000E-01  8.00000000E-01
  1.50000000E+00  8.00000000E-01  8.00000000E-01  1.50000000E+00  8.00000000E-01
  8.00000000E-01  1.50000000E+00  8.00000000E-01  8.00000000E-01  1.50000000E+00
  8.00000000E-01  8.00000000E-01  1.50000000E+00  8.00000000E-01  8.00000000E-01
  1.50000000E+00  8.00000000E-01  8.00000000E-01  1.50000000E+00  8.00000000E-01
  8.00000000E-01  1.50000000E+00  8.00000000E-01  8.00000000E-01  1.50000000E+00
  8.00000000E-01  8.00000000E-01  1.50000000E+00  8.00000000E-01  8.00000000E-01
  1.50000000E+00  8.00000000E-01  8.00000000E-01  1.50000000E+00  8.00000000E-01
  8.00000000E-01  1.50000000E+00  8.00000000E-01  8.00000000E-01  1.50000000E+00
  8.00000000E-01  8.00000000E-01  1.50000000E+00  8.00000000E-01  8.00000000E-01
  1.50000000E+00  8.00000000E-01  8.00000000E-01  1.50000000E+00  8.00000000E-01
  8.00000000E-01  1.50000000E+00  8.00000000E-01  8.00000000E-01  1.50000000E+00
  8.00000000E-01  8.00000000E-01  1.50000000E+00  8.00000000E-01  8.00000000E-01
  1.50000000E+00  8.00000000E-01  8.00000000E-01  1.50000000E+00  8.00000000E-01
  8.00000000E-01  1.50000000E+00  8.00000000E-01  8.00000000E-01  1.50000000E+00
  8.00000000E-01  8.00000000E-01  1.50000000E+00  8.00000000E-01  8.00000000E-01
  1.50000000E+00  8.00000000E-01  8.00000000E-01  1.50000000E+00  8.00000000E-01
  8.00000000E-01  1.50000000E+00  8.00000000E-01  8.00000000E-01  1.50000000E+00
  8.00000000E-01  8.00000000E-01  1.50000000E+00  8.00000000E-01  8.00000000E-01
  1.50000000E+00  8.00000000E-01  8.00000000E-01  1.50000000E+00  8.00000000E-01
  8.00000000E-01  1.50000000E+00  8.00000000E-01  8.00000000E-01  1.50000000E+00
  8.00000000E-01  8.00000000E-01  1.50000000E+00  8.00000000E-01  8.00000000E-01
  1.50000000E+00  8.00000000E-01  8.00000000E-01  1.50000000E+00  8.00000000E-01
  8.00000000E-01  1.50000000E+00  8.00000000E-01  8.00000000E-01  1.50000000E+00
  8.00000000E-01  8.00000000E-01  1.50000000E+00  8.00000000E-01  8.00000000E-01
  1.50000000E+00  8.00000000E-01  8.00000000E-01  1.50000000E+00  8.00000000E-01
  8.00000000E-01  1.50000000E+00  8.00000000E-01  8.00000000E-01  1.50000000E+00
  8.00000000E-01  8.00000000E-01  1.50000000E+00  8.00000000E-01  8.00000000E-01
  1.50000000E+00  8.00000000E-01  8.00000000E-01  1.50000000E+00  8.00000000E-01
  8.00000000E-01  1.50000000E+00  8.00000000E-01  8.00000000E-01  1.50000000E+00
  8.00000000E-01  8.00000000E-01  1.50000000E+00  8.00000000E-01  8.00000000E-01
  1.50000000E+00  8.00000000E-01  8.00000000E-01  1.50000000E+00  8.00000000E-01
  8.00000000E-01  1.50000000E+00  8.00000000E-01  8.00000000E-01  1.50000000E+00
  8.00000000E-01  8.00000000E-01  1.50000000E+00  8.00000000E-01  8.00000000E-01
  1.50000000E+00  8.00000000E-01  8.00000000E-01  1.50000000E+00  8.00000000E-01
  8.00000000E-01  1.50000000E+00  8.00000000E-01  8.00000000E-01  1.50000000E+00
  8.00000000E-01  8.00000000E-01  1.50000000E+00  8.00000000E-01  8.00000000E-01
  1.50000000E+00  8.00000000E-01  8.00000000E-01  1.50000000E+00  8.00000000E-01
  8.00000000E-01  1.50000000E+00  8.00000000E-01  8.00000000E-01  1.50000000E+00
  8.00000000E-01  8.00000000E-01  1.50000000E+00  8.00000000E-01  8.00000000E-01
  1.50000000E+00  8.00000000E-01  8.00000000E-01  1.50000000E+00  8.00000000E-01
  8.00000000E-01  1.50000000E+00  8.00000000E-01  8.00000000E-01  1.50000000E+00
  8.00000000E-01  8.00000000E-01  1.50000000E+00  8.00000000E-01  8.00000000E-01
  1.50000000E+00  8.00000000E-01  8.00000000E-01  1.50000000E+00  8.00000000E-01
  8.00000000E-01  1.50000000E+00  8.00000000E-01  8.00000000E-01  1.50000000E+00
  8.00000000E-01  8.00000000E-01  1.50000000E+00  8.00000000E-01  8.00000000E-01
  1.50000000E+00  8.00000000E-01  8.00000000E-01  1.50000000E+00  8.00000000E-01
  8.00000000E-01  1.50000000E+00  8.00000000E-01  8.00000000E-01  1.50000000E+00
  8.00000000E-01  8.00000000E-01  1.50000000E+00  8.00000000E-01  8.00000000E-01
  1.50000000E+00  8.00000000E-01  8.00000000E-01  1.50000000E+00  8.00000000E-01
  8.00000000E-01  1.50000000E+00  8.00000000E-01  8.00000000E-01  1.50000000E+00
  8.00000000E-01  8.00000000E-01  1.50000000E+00  8.00000000E-01  8.00000000E-01
  1.50000000E+00  8.00000000E-01  8.00000000E-01  1.50000000E+00  8.00000000E-01
  8.00000000E-01  1.50000000E+00  8.00000000E-01  8.00000000E-01  1.50000000E+00
  8.00000000E-01  8.00000000E-01  1.50000000E+00  8.00000000E-01  8.00000000E-01
  1.50000000E+00  8.00000000E-01  8.00000000E-01  1.50000000E+00  8.00000000E-01
  8.00000000E-01  1.50000000E+00  8.00000000E-01  8.00000000E-01  1.50000000E+00
  8.00000000E-01  8.00000000E-01  1.50000000E+00  8.00000000E-01  8.00000000E-01
  1.50000000E+00  8.00000000E-01  8.00000000E-01  1.50000000E+00  8.00000000E-01
  8.00000000E-01  1.50000000E+00  8.00000000E-01  8.00000000E-01  1.50000000E+00
  8.00000000E-01  8.00000000E-01  1.50000000E+00  8.00000000E-01  8.00000000E-01
  1.50000000E+00  8.00000000E-01  8.00000000E-01  1.50000000E+00  8.00000000E-01
  8.00000000E-01  1.50000000E+00  8.00000000E-01  8.00000000E-01  1.50000000E+00
  8.00000000E-01  8.00000000E-01  1.50000000E+00  8.00000000E-01  8.00000000E-01
  1.50000000E+00  8.00000000E-01  8.00000000E-01  1.50000000E+00  8.00000000E-01
  8.00000000E-01  1.50000000E+00  8.00000000E-01  8.00000000E-01  1.50000000E+00
  8.00000000E-01  8.00000000E-01  1.50000000E+00  8.00000000E-01  8.00000000E-01
  1.50000000E+00  8.00000000E-01  8.00000000E-01  1.50000000E+00  8.00000000E-01
  8.00000000E-01  1.50000000E+00  8.00000000E-01  8.00000000E-01  1.50000000E+00
  8.00000000E-01  8.00000000E-01  1.50000000E+00  8.00000000E-01  8.00000000E-01
  1.50000000E+00  8.00000000E-01  8.00000000E-01  1.50000000E+00  8.00000000E-01
  8.00000000E-01  1.50000000E+00  8.00000000E-01  8.00000000E-01  1.50000000E+00
  8.00000000E-01  8.00000000E-01  1.50000000E+00  8.00000000E-01  8.00000000E-01
  1.50000000E+00  8.00000000E-01  8.00000000E-01  1.50000000E+00  8.00000000E-01
  8.00000000E-01  1.50000000E+00  8.00000000E-01  8.00000000E-01  1.50000000E+00
  8.00000000E-01  8.00000000E-01  1.50000000E+00  8.00000000E-01  8.00000000E-01
  1.50000000E+00  8.00000000E-01  8.00000000E-01  1.50000000E+00  8.00000000E-01
  8.00000000E-01  1.50000000E+00  8.00000000E-01  8.00000000E-01  1.50000000E+00
  8.00000000E-01  8.00000000E-01  1.50000000E+00  8.00000000E-01  8.00000000E-01
  1.50000000E+00  8.00000000E-01  8.00000000E-01  1.50000000E+00  8.00000000E-01
  8.00000000E-01  1.50000000E+00  8.00000000E-01  8.00000000E-01  1.50000000E+00
  8.00000000E-01  8.00000000E-01  1.50000000E+00  8.00000000E-01  8.00000000E-01
  1.50000000E+00  8.00000000E-01  8.00000000E-01  1.50000000E+00  8.00000000E-01
  8.00000000E-01  1.50000000E+00  8.00000000E-01  8.00000000E-01  1.50000000E+00
  8.00000000E-01  8.00000000E-01  1.50000000E+00  8.00000000E-01  8.00000000E-01
  1.50000000E+00  8.00000000E-01  8.00000000E-01  1.50000000E+00  8.00000000E-01
  8.00000000E-01  1.50000000E+00  8.00000000E-01  8.00000000E-01  1.50000000E+00
  8.00000000E-01  8.00000000E-01  1.50000000E+00  8.00000000E-01  8.00000000E-01
  1.50000000E+00  8.00000000E-01  8.00000000E-01  1.50000000E+00  8.00000000E-01
  8.00000000E-01  1.50000000E+00  8.00000000E-01  8.00000000E-01  1.50000000E+00
  8.00000000E-01  8.00000000E-01  1.50000000E+00  8.00000000E-01  8.00000000E-01
  1.50000000E+00  8.00000000E-01  8.00000000E-01  1.50000000E+00  8.00000000E-01
  8.00000000E-01  1.50000000E+00  8.00000000E-01  8.00000000E-01  1.50000000E+00
  8.00000000E-01  8.00000000E-01  1.50000000E+00  8.00000000E-01  8.00000000E-01
  1.50000000E+00  8.00000000E-01  8.00000000E-01  1.50000000E+00  8.00000000E-01
  8.00000000E-01  1.50000000E+00  8.00000000E-01  8.00000000E-01  1.50000000E+00
  8.00000000E-01  8.00000000E-01  1.50000000E+00  8.00000000E-01  8.00000000E-01
  1.50000000E+00  8.00000000E-01  8.00000000E-01  1.50000000E+00  8.00000000E-01
  8.00000000E-01  1.50000000E+00  8.00000000E-01  8.00000000E-01  1.50000000E+00
  8.00000000E-01  8.00000000E-01  1.50000000E+00  8.00000000E-01  8.00000000E-01
  1.50000000E+00  8.00000000E-01  8.00000000E-01  1.50000000E+00  8.00000000E-01
  8.00000000E-01  1.50000000E+00  8.00000000E-01  8.00000000E-01  1.50000000E+00
  8.00000000E-01  8.00000000E-01  1.50000000E+00  8.00000000E-01  8.00000000E-01
  1.50000000E+00  8.00000000E-01  8.00000000E-01  1.50000000E+00  8.00000000E-01
  8.00000000E-01  1.50000000E+00  8.00000000E-01  8.00000000E-01  1.50000000E+00
  8.00000000E-01  8.00000000E-01  1.50000000E+00  8.00000000E-01  8.00000000E-01
  1.50000000E+00  8.00000000E-01  8.00000000E-01  1.50000000E+00  8.00000000E-01
  8.00000000E-01  1.50000000E+00  8.00000000E-01  8.00000000E-01  1.50000000E+00
  8.00000000E-01  8.00000000E-01  1.50000000E+00  8.00000000E-01  8.00000000E-01
  1.50000000E+00  8.00000000E-01  8.00000000E-01  1.50000000E+00  8.00000000E-01
  8.00000000E-01  1.50000000E+00  8.00000000E-01  8.00000000E-01  1.50000000E+00
  8.00000000E-01  8.00000000E-01  1.50000000E+00  8.00000000E-01  8.00000000E-01
  1.50000000E+00  8.00000000E-01  8.00000000E-01  1.50000000E+00  8.00000000E-01
  8.00000000E-01  1.50000000E+00  8.00000000E-01  8.00000000E-01  1.50000000E+00
  8.00000000E-01  8.00000000E-01  1.50000000E+00  8.00000000E-01  8.00000000E-01
  1.50000000E+00  8.00000000E-01  8.00000000E-01  1.50000000E+00  8.00000000E-01
  8.00000000E-01  1.50000000E+00  8.00000000E-01  8.00000000E-01  1.50000000E+00
  8.00000000E-01  8.00000000E-01  1.50000000E+00  8.00000000E-01  8.00000000E-01
  1.50000000E+00  8.00000000E-01  8.00000000E-01  1.50000000E+00  8.00000000E-01
  8.00000000E-01  1.50000000E+00  8.00000000E-01  8.00000000E-01  1.50000000E+00
  8.00000000E-01  8.00000000E-01  1.50000000E+00  8.00000000E-01  8.00000000E-01
  1.50000000E+00  8.00000000E-01  8.00000000E-01  1.50000000E+00  8.00000000E-01
  8.00000000E-01  1.50000000E+00  8.00000000E-01  8.00000000E-01  1.50000000E+00
  8.00000000E-01  8.00000000E-01  1.50000000E+00  8.00000000E-01  8.00000000E-01
  1.50000000E+00  8.00000000E-01  8.00000000E-01  1.50000000E+00  8.00000000E-01
  8.00000000E-01  1.50000000E+00  8.00000000E-01  8.00000000E-01  1.50000000E+00
  8.00000000E-01  8.00000000E-01  1.50000000E+00  8.00000000E-01  8.00000000E-01
  1.50000000E+00  8.00000000E-01  8.00000000E-01  1.50000000E+00  8.00000000E-01
  8.00000000E-01  1.50000000E+00  8.00000000E-01  8.00000000E-01  1.50000000E+00
  8.00000000E-01  8.00000000E-01  1.50000000E+00  8.00000000E-01  8.00000000E-01
  1.50000000E+00  8.00000000E-01  8.00000000E-01  1.50000000E+00  8.00000000E-01
  8.00000000E-01  1.50000000E+00  8.00000000E-01  8.00000000E-01  1.50000000E+00
  8.00000000E-01  8.00000000E-01  1.50000000E+00  8.00000000E-01  8.00000000E-01
  1.50000000E+00  8.00000000E-01  8.00000000E-01  1.50000000E+00  8.00000000E-01
  8.00000000E-01  1.50000000E+00  8.00000000E-01  8.00000000E-01  1.50000000E+00
  8.00000000E-01  8.00000000E-01  1.50000000E+00  8.00000000E-01  8.00000000E-01
  1.50000000E+00  8.00000000E-01  8.00000000E-01  1.50000000E+00  8.00000000E-01
  8.00000000E-01  1.50000000E+00  8.00000000E-01  8.00000000E-01  1.50000000E+00
  8.00000000E-01  8.00000000E-01  1.50000000E+00  8.00000000E-01  8.00000000E-01
  1.50000000E+00  8.00000000E-01  8.00000000E-01  1.50000000E+00  8.00000000E-01
  8.00000000E-01  1.50000000E+00  8.00000000E-01  8.00000000E-01  1.50000000E+00
  8.00000000E-01  8.00000000E-01  1.50000000E+00  8.00000000E-01  8.00000000E-01
  1.50000000E+00  8.00000000E-01  8.00000000E-01  1.50000000E+00  8.00000000E-01
  8.00000000E-01  1.50000000E+00  8.00000000E-01  8.00000000E-01  1.50000000E+00
  8.00000000E-01  8.00000000E-01  1.50000000E+00  8.00000000E-01  8.00000000E-01
  1.50000000E+00  8.00000000E-01  8.00000000E-01  1.50000000E+00  8.00000000E-01
  8.00000000E-01  1.50000000E+00  8.00000000E-01  8.00000000E-01  1.50000000E+00
  8.00000000E-01  8.00000000E-01  1.50000000E+00  8.00000000E-01  8.00000000E-01
  1.50000000E+00  8.00000000E-01  8.00000000E-01  1.50000000E+00  8.00000000E-01
  8.00000000E-01  1.50000000E+00  8.00000000E-01  8.00000000E-01  1.50000000E+00
  8.00000000E-01  8.00000000E-01  1.50000000E+00  8.00000000E-01  8.00000000E-01
  1.50000000E+00  8.00000000E-01  8.00000000E-01  1.50000000E+00  8.00000000E-01
  8.00000000E-01  1.50000000E+00  8.00000000E-01  8.00000000E-01  1.50000000E+00
  8.00000000E-01  8.00000000E-01  1.50000000E+00  8.00000000E-01  8.00000000E-01
  1.50000000E+00  8.00000000E-01  8.00000000E-01  1.50000000E+00  8.00000000E-01
  8.00000000E-01  1.50000000E+00  8.00000000E-01  8.00000000E-01  1.50000000E+00
  8.00000000E-01  8.00000000E-01  1.50000000E+00  8.00000000E-01  8.00000000E-01
  1.50000000E+00  8.00000000E-01  8.00000000E-01  1.50000000E+00  8.00000000E-01
  8.00000000E-01  1.50000000E+00  8.00000000E-01  8.00000000E-01  1.50000000E+00
  8.00000000E-01  8.00000000E-01  1.50000000E+00  8.00000000E-01  8.00000000E-01
  1.50000000E+00  8.00000000E-01  8.00000000E-01  1.50000000E+00  8.00000000E-01
  8.00000000E-01  1.50000000E+00  8.00000000E-01  8.00000000E-01  1.50000000E+00
  8.00000000E-01  8.00000000E-01  1.50000000E+00  8.00000000E-01  8.00000000E-01
  1.50000000E+00  8.00000000E-01  8.00000000E-01  1.50000000E+00  8.00000000E-01
  8.00000000E-01  1.50000000E+00  8.00000000E-01  8.00000000E-01  1.50000000E+00
  8.00000000E-01  8.00000000E-01  1.50000000E+00  8.00000000E-01  8.00000000E-01
  1.50000000E+00  8.00000000E-01  8.00000000E-01  1.50000000E+00  8.00000000E-01
  8.00000000E-01  1.50000000E+00  8.00000000E-01  8.00000000E-01  1.50000000E+00
  8.00000000E-01  8.00000000E-01  1.50000000E+00  8.00000000E-01  8.00000000E-01
  1.50000000E+00  8.00000000E-01  8.00000000E-01  1.50000000E+00  8.00000000E-01
  8.00000000E-01  1.50000000E+00  8.00000000E-01  8.00000000E-01  1.50000000E+00
  8.00000000E-01  8.00000000E-01  1.50000000E+00  8.00000000E-01  8.00000000E-01
  1.50000000E+00  8.00000000E-01  8.00000000E-01  1.50000000E+00  8.00000000E-01
  8.00000000E-01  1.50000000E+00  8.00000000E-01  8.00000000E-01  1.50000000E+00
  8.00000000E-01  8.00000000E-01  1.50000000E+00  8.00000000E-01  8.00000000E-01
  1.50000000E+00  8.00000000E-01  8.00000000E-01  1.50000000E+00  8.00000000E-01
  8.00000000E-01  1.50000000E+00  8.00000000E-01  8.00000000E-01  1.50000000E+00
  8.00000000E-01  8.00000000E-01  1.50000000E+00  8.00000000E-01  8.00000000E-01
  1.50000000E+00  8.00000000E-01  8.00000000E-01  1.50000000E+00  8.00000000E-01
  8.00000000E-01  1.50000000E+00  8.00000000E-01  8.00000000E-01  1.50000000E+00
  8.00000000E-01  8.00000000E-01  1.50000000E+00  8.00000000E-01  8.00000000E-01
  1.50000000E+00  8.00000000E-01  8.00000000E-01  1.50000000E+00  8.00000000E-01
  8.00000000E-01  1.50000000E+00  8.00000000E-01  8.00000000E-01  1.50000000E+00
  8.00000000E-01  8.00000000E-01  1.50000000E+00  8.00000000E-01  8.00000000E-01
  1.50000000E+00  8.00000000E-01  8.00000000E-01  1.50000000E+00  8.00000000E-01
  8.00000000E-01  1.50000000E+00  8.00000000E-01  8.00000000E-01  1.50000000E+00
  8.00000000E-01  8.00000000E-01  1.50000000E+00  8.00000000E-01  8.00000000E-01
  1.50000000E+00  8.00000000E-01  8.00000000E-01  1.50000000E+00  8.00000000E-01
  8.00000000E-01  1.50000000E+00  8.00000000E-01  8.00000000E-01  1.50000000E+00
  8.00000000E-01  8.00000000E-01  1.50000000E+00  8.00000000E-01  8.00000000E-01
  1.50000000E+00  8.00000000E-01  8.00000000E-01  1.50000000E+00  8.00000000E-01
  8.00000000E-01  1.50000000E+00  8.00000000E-01  8.00000000E-01  1.50000000E+00
  8.00000000E-01  8.00000000E-01  1.50000000E+00  8.00000000E-01  8.00000000E-01
  1.50000000E+00  8.00000000E-01  8.00000000E-01  1.50000000E+00  8.00000000E-01
  8.00000000E-01  1.50000000E+00  8.00000000E-01  8.00000000E-01  1.50000000E+00
  8.00000000E-01  8.00000000E-01  1.50000000E+00  8.00000000E-01  8.00000000E-01
  1.50000000E+00  8.00000000E-01  8.00000000E-01  1.50000000E+00  8.00000000E-01
  8.00000000E-01  1.50000000E+00  8.00000000E-01  8.00000000E-01  1.50000000E+00
  8.00000000E-01  8.00000000E-01  1.50000000E+00  8.00000000E-01  8.00000000E-01
  1.50000000E+00  8.00000000E-01  8.00000000E-01  1.50000000E+00  8.00000000E-01
  8.00000000E-01  1.50000000E+00  8.00000000E-01  8.00000000E-01  1.50000000E+00
  8.00000000E-01  8.00000000E-01  1.50000000E+00  8.00000000E-01  8.00000000E-01
  1.50000000E+00  8.00000000E-01  8.00000000E-01  1.50000000E+00  8.00000000E-01
  8.00000000E-01  1.50000000E+00  8.00000000E-01  8.00000000E-01  1.50000000E+00
  8.00000000E-01  8.00000000E-01  1.50000000E+00  8.00000000E-01  8.00000000E-01
  1.50000000E+00  8.00000000E-01  8.00000000E-01  1.50000000E+00  8.00000000E-01
  8.00000000E-01  1.50000000E+00  8.00000000E-01  8.00000000E-01  1.50000000E+00
  8.00000000E-01  8.00000000E-01  1.50000000E+00  8.00000000E-01  8.00000000E-01
  1.50000000E+00  8.00000000E-01  8.00000000E-01  1.50000000E+00  8.00000000E-01
  8.00000000E-01  1.50000000E+00  8.00000000E-01  8.00000000E-01  1.50000000E+00
  8.00000000E-01  8.00000000E-01  1.50000000E+00  8.00000000E-01  8.00000000E-01
  1.50000000E+00  8.00000000E-01  8.00000000E-01  1.50000000E+00  8.00000000E-01
  8.00000000E-01  1.50000000E+00  8.00000000E-01  8.00000000E-01  1.50000000E+00
  8.00000000E-01  8.00000000E-01  1.50000000E+00  8.00000000E-01  8.00000000E-01
  1.50000000E+00  8.00000000E-01  8.00000000E-01  1.50000000E+00  8.00000000E-01
  8.00000000E-01  1.50000000E+00  8.00000000E-01  8.00000000E-01  1.50000000E+00
  8.00000000E-01  8.00000000E-01  1.50000000E+00  8.00000000E-01  8.00000000E-01
  1.50000000E+00  8.00000000E-01  8.00000000E-01  1.50000000E+00  8.00000000E-01
  8.00000000E-01  1.50000000E+00  8.00000000E-01  8.00000000E-01  1.50000000E+00
  8.00000000E-01  8.00000000E-01  1.50000000E+00  8.00000000E-01  8.00000000E-01
  1.50000000E+00  8.00000000E-01  8.00000000E-01  1.50000000E+00  8.00000000E-01
  8.00000000E-01  1.50000000E+00  8.00000000E-01  8.00000000E-01  1.50000000E+00
  8.00000000E-01  8.00000000E-01  1.50000000E+00  8.00000000E-01  8.00000000E-01
  1.50000000E+00  8.00000000E-01  8.00000000E-01  1.50000000E+00  8.00000000E-01
  8.00000000E-01  1.50000000E+00  8.00000000E-01  8.00000000E-01  1.50000000E+00
  8.00000000E-01  8.00000000E-01  1.50000000E+00  8.00000000E-01  8.00000000E-01
  1.50000000E+00  8.00000000E-01  8.00000000E-01  1.50000000E+00  8.00000000E-01
  8.00000000E-01  1.50000000E+00  8.00000000E-01  8.00000000E-01  1.50000000E+00
  8.00000000E-01  8.00000000E-01  1.50000000E+00  8.00000000E-01  8.00000000E-01
  1.50000000E+00  8.00000000E-01  8.00000000E-01  1.50000000E+00  8.00000000E-01
  8.00000000E-01  1.50000000E+00  8.00000000E-01  8.00000000E-01  1.50000000E+00
  8.00000000E-01  8.00000000E-01  1.50000000E+00  8.00000000E-01  8.00000000E-01
  1.50000000E+00  8.00000000E-01  8.00000000E-01  1.50000000E+00  8.00000000E-01
  8.00000000E-01  1.50000000E+00  8.00000000E-01  8.00000000E-01  1.50000000E+00
  8.00000000E-01  8.00000000E-01  1.50000000E+00  8.00000000E-01  8.00000000E-01
  1.50000000E+00  8.00000000E-01  8.00000000E-01  1.50000000E+00  8.00000000E-01
  8.00000000E-01  1.50000000E+00  8.00000000E-01  8.00000000E-01  1.50000000E+00
  8.00000000E-01  8.00000000E-01  1.50000000E+00  8.00000000E-01  8.00000000E-01
  1.50000000E+00  8.00000000E-01  8.00000000E-01  1.50000000E+00  8.00000000E-01
  8.00000000E-01  1.50000000E+00  8.00000000E-01  8.00000000E-01  1.50000000E+00
  8.00000000E-01  8.00000000E-01  1.50000000E+00  8.00000000E-01  8.00000000E-01
  1.50000000E+00  8.00000000E-01  8.00000000E-01  1.50000000E+00  8.00000000E-01
  8.00000000E-01  1.50000000E+00  8.00000000E-01  8.00000000E-01  1.50000000E+00
  8.00000000E-01  8.00000000E-01  1.50000000E+00  8.00000000E-01  8.00000000E-01
  1.50000000E+00  8.00000000E-01  8.00000000E-01  1.50000000E+00  8.00000000E-01
  8.00000000E-01  1.50000000E+00  8.00000000E-01  8.00000000E-01  1.50000000E+00
  8.00000000E-01  8.00000000E-01  1.50000000E+00  8.00000000E-01  8.00000000E-01
  1.50000000E+00  8.00000000E-01  8.00000000E-01  1.50000000E+00  8.00000000E-01
  8.00000000E-01  1.50000000E+00  8.00000000E-01  8.00000000E-01  1.50000000E+00
  8.00000000E-01  8.00000000E-01  1.50000000E+00  8.00000000E-01  8.00000000E-01
  1.50000000E+00  8.00000000E-01  8.00000000E-01  1.50000000E+00  8.00000000E-01
  8.00000000E-01  1.50000000E+00  8.00000000E-01  8.00000000E-01  1.50000000E+00
  8.00000000E-01  8.00000000E-01  1.50000000E+00  8.00000000E-01  8.00000000E-01
  1.50000000E+00  8.00000000E-01  8.00000000E-01  1.50000000E+00  8.00000000E-01
  8.00000000E-01  1.50000000E+00  8.00000000E-01  8.00000000E-01  1.50000000E+00
  8.00000000E-01  8.00000000E-01  1.50000000E+00  8.00000000E-01  8.00000000E-01
  1.50000000E+00  8.00000000E-01  8.00000000E-01  1.50000000E+00  8.00000000E-01
  8.00000000E-01  1.50000000E+00  8.00000000E-01  8.00000000E-01  1.50000000E+00
  8.00000000E-01  8.00000000E-01  1.50000000E+00  8.00000000E-01  8.00000000E-01
  1.50000000E+00  8.00000000E-01  8.00000000E-01  1.50000000E+00  8.00000000E-01
  8.00000000E-01  1.50000000E+00  8.00000000E-01  8.00000000E-01  1.50000000E+00
  8.00000000E-01  8.00000000E-01  1.50000000E+00  8.00000000E-01  8.00000000E-01
  1.50000000E+00  8.00000000E-01  8.00000000E-01  1.50000000E+00  8.00000000E-01
  8.00000000E-01  1.50000000E+00  8.00000000E-01  8.00000000E-01  1.50000000E+00
  8.00000000E-01  8.00000000E-01  1.50000000E+00  8.00000000E-01  8.00000000E-01
  1.50000000E+00  8.00000000E-01  8.00000000E-01  1.50000000E+00  8.00000000E-01
  8.00000000E-01  1.50000000E+00  8.00000000E-01  8.00000000E-01  1.50000000E+00
  8.00000000E-01  8.00000000E-01  1.50000000E+00  8.00000000E-01  8.00000000E-01
  1.50000000E+00  8.00000000E-01  8.00000000E-01  1.50000000E+00  8.00000000E-01
  8.00000000E-01  1.50000000E+00  8.00000000E-01  8.00000000E-01  1.50000000E+00
  8.00000000E-01  8.00000000E-01  1.50000000E+00  8.00000000E-01  8.00000000E-01
  1.50000000E+00  8.00000000E-01  8.00000000E-01  1.50000000E+00  8.00000000E-01
  8.00000000E-01  1.50000000E+00  8.00000000E-01  8.00000000E-01  1.50000000E+00
  8.00000000E-01  8.00000000E-01  1.50000000E+00  8.00000000E-01  8.00000000E-01
  1.50000000E+00  8.00000000E-01  8.00000000E-01  1.50000000E+00  8.00000000E-01
  8.00000000E-01  1.50000000E+00  8.00000000E-01  8.00000000E-01  1.50000000E+00
  8.00000000E-01  8.00000000E-01  1.50000000E+00  8.00000000E-01  8.00000000E-01
  1.50000000E+00  8.00000000E-01  8.00000000E-01  1.50000000E+00  8.00000000E-01
  8.00000000E-01  1.50000000E+00  8.00000000E-01  8.00000000E-01  1.50000000E+00
  8.00000000E-01  8.00000000E-01  1.50000000E+00  8.00000000E-01  8.00000000E-01
  1.50000000E+00  8.00000000E-01  8.00000000E-01  1.50000000E+00  8.00000000E-01
  8.00000000E-01  1.50000000E+00  8.00000000E-01  8.00000000E-01  1.50000000E+00
  8.00000000E-01  8.00000000E-01  1.50000000E+00  8.00000000E-01  8.00000000E-01
  1.50000000E+00  8.00000000E-01  8.00000000E-01  1.50000000E+00  8.00000000E-01
  8.00000000E-01  1.50000000E+00  8.00000000E-01  8.00000000E-01  1.50000000E+00
  8.00000000E-01  8.00000000E-01  1.50000000E+00  8.00000000E-01  8.00000000E-01
  1.50000000E+00  8.00000000E-01  8.00000000E-01  1.50000000E+00  8.00000000E-01
  8.00000000E-01  1.50000000E+00  8.00000000E-01  8.00000000E-01  1.50000000E+00
  8.00000000E-01  8.00000000E-01  1.50000000E+00  8.00000000E-01  8.00000000E-01
  1.50000000E+00  8.00000000E-01  8.00000000E-01  1.50000000E+00  8.00000000E-01
  8.00000000E-01  1.50000000E+00  8.00000000E-01  8.00000000E-01  1.50000000E+00
  8.00000000E-01  8.00000000E-01  1.50000000E+00  8.00000000E-01  8.00000000E-01
  1.50000000E+00  8.00000000E-01  8.00000000E-01  1.50000000E+00  8.00000000E-01
  8.00000000E-01  1.50000000E+00  8.00000000E-01  8.00000000E-01  1.50000000E+00
  8.00000000E-01  8.00000000E-01  1.50000000E+00  8.00000000E-01  8.00000000E-01
  1.50000000E+00  8.00000000E-01  8.00000000E-01  1.50000000E+00  8.00000000E-01
  8.00000000E-01  1.50000000E+00  8.00000000E-01  8.00000000E-01  1.50000000E+00
  8.00000000E-01  8.00000000E-01  1.50000000E+00  8.00000000E-01  8.00000000E-01
  1.50000000E+00  8.00000000E-01  8.00000000E-01  1.50000000E+00  8.00000000E-01
  8.00000000E-01  1.50000000E+00  8.00000000E-01  8.00000000E-01  1.50000000E+00
  8.00000000E-01  8.00000000E-01  1.50000000E+00  8.00000000E-01  8.00000000E-01
  1.50000000E+00  8.00000000E-01  8.00000000E-01  1.50000000E+00  8.00000000E-01
  8.00000000E-01  1.50000000E+00  8.00000000E-01  8.00000000E-01  1.50000000E+00
  8.00000000E-01  8.00000000E-01  1.50000000E+00  8.00000000E-01  8.00000000E-01
  1.50000000E+00  8.00000000E-01  8.00000000E-01  1.50000000E+00  8.00000000E-01
  8.00000000E-01  1.50000000E+00  8.00000000E-01  8.00000000E-01  1.50000000E+00
  8.00000000E-01  8.00000000E-01  1.50000000E+00  8.00000000E-01  8.00000000E-01
  1.50000000E+00  8.00000000E-01  8.00000000E-01  1.50000000E+00  8.00000000E-01
  8.00000000E-01  1.50000000E+00  8.00000000E-01  8.00000000E-01  1.50000000E+00
  8.00000000E-01  8.00000000E-01  1.50000000E+00  8.00000000E-01  8.00000000E-01
  1.50000000E+00  8.00000000E-01  8.00000000E-01  1.50000000E+00  8.00000000E-01
  8.00000000E-01  1.50000000E+00  8.00000000E-01  8.00000000E-01  1.50000000E+00
  8.00000000E-01  8.00000000E-01  1.50000000E+00  8.00000000E-01  8.00000000E-01
  1.50000000E+00  8.00000000E-01  8.00000000E-01  1.50000000E+00  8.00000000E-01
  8.00000000E-01  1.50000000E+00  8.00000000E-01  8.00000000E-01  1.50000000E+00
  8.00000000E-01  8.00000000E-01  1.50000000E+00  8.00000000E-01  8.00000000E-01
  1.50000000E+00  8.00000000E-01  8.00000000E-01  1.50000000E+00  8.00000000E-01
  8.00000000E-01  1.50000000E+00  8.00000000E-01  8.00000000E-01  1.50000000E+00
  8.00000000E-01  8.00000000E-01  1.50000000E+00  8.00000000E-01  8.00000000E-01
  1.50000000E+00  8.00000000E-01  8.00000000E-01  1.50000000E+00  8.00000000E-01
  8.00000000E-01  1.50000000E+00  8.00000000E-01  8.00000000E-01  1.50000000E+00
  8.00000000E-01  8.00000000E-01  1.50000000E+00  8.00000000E-01  8.00000000E-01
  1.50000000E+00  8.00000000E-01  8.00000000E-01  1.50000000E+00  8.00000000E-01
  8.00000000E-01  1.50000000E+00  8.00000000E-01  8.00000000E-01  1.50000000E+00
  8.00000000E-01  8.00000000E-01  1.50000000E+00  8.00000000E-01  8.00000000E-01
  1.50000000E+00  8.00000000E-01  8.00000000E-01  1.50000000E+00  8.00000000E-01
  8.00000000E-01  1.50000000E+00  8.00000000E-01  8.00000000E-01  1.50000000E+00
  8.00000000E-01  8.00000000E-01  1.50000000E+00  8.00000000E-01  8.00000000E-01
  1.50000000E+00  8.00000000E-01  8.00000000E-01  1.50000000E+00  8.00000000E-01
  8.00000000E-01  1.50000000E+00  8.00000000E-01  8.00000000E-01  1.50000000E+00
  8.00000000E-01  8.00000000E-01  1.50000000E+00  8.00000000E-01  8.00000000E-01
  1.50000000E+00  8.00000000E-01  8.00000000E-01  1.50000000E+00  8.00000000E-01
  8.00000000E-01  1.50000000E+00  8.00000000E-01  8.00000000E-01  1.50000000E+00
  8.00000000E-01  8.00000000E-01  1.50000000E+00  8.00000000E-01  8.00000000E-01
  1.50000000E+00  8.00000000E-01  8.00000000E-01  1.50000000E+00  8.00000000E-01
  8.00000000E-01  1.50000000E+00  8.00000000E-01  8.00000000E-01  1.50000000E+00
  8.00000000E-01  8.00000000E-01  1.50000000E+00  8.00000000E-01  8.00000000E-01
  1.50000000E+00  8.00000000E-01  8.00000000E-01  1.50000000E+00  8.00000000E-01
  8.00000000E-01  1.50000000E+00  8.00000000E-01  8.00000000E-01  1.50000000E+00
  8.00000000E-01  8.00000000E-01  1.50000000E+00  8.00000000E-01  8.00000000E-01
  1.50000000E+00  8.00000000E-01  8.00000000E-01  1.50000000E+00  8.00000000E-01
  8.00000000E-01  1.50000000E+00  8.00000000E-01  8.00000000E-01  1.50000000E+00
  8.00000000E-01  8.00000000E-01  1.50000000E+00  8.00000000E-01  8.00000000E-01
  1.50000000E+00  8.00000000E-01  8.00000000E-01  1.50000000E+00  8.00000000E-01
  8.00000000E-01  1.50000000E+00  8.00000000E-01  8.00000000E-01  1.50000000E+00
  8.00000000E-01  8.00000000E-01  1.50000000E+00  8.00000000E-01  8.00000000E-01
  1.50000000E+00  8.00000000E-01  8.00000000E-01  1.50000000E+00  8.00000000E-01
  8.00000000E-01  1.50000000E+00  8.00000000E-01  8.00000000E-01  1.50000000E+00
  8.00000000E-01  8.00000000E-01  1.50000000E+00  8.00000000E-01  8.00000000E-01
  1.50000000E+00  8.00000000E-01  8.00000000E-01  1.50000000E+00  8.00000000E-01
  8.00000000E-01  1.50000000E+00  8.00000000E-01  8.00000000E-01  1.50000000E+00
  8.00000000E-01  8.00000000E-01  1.50000000E+00  8.00000000E-01  8.00000000E-01
  1.50000000E+00  8.00000000E-01  8.00000000E-01  1.50000000E+00  8.00000000E-01
  8.00000000E-01  1.50000000E+00  8.00000000E-01  8.00000000E-01  1.50000000E+00
  8.00000000E-01  8.00000000E-01  1.50000000E+00  8.00000000E-01  8.00000000E-01
  1.50000000E+00  8.00000000E-01  8.00000000E-01  1.50000000E+00  8.00000000E-01
  8.00000000E-01  1.50000000E+00  8.00000000E-01  8.00000000E-01  1.50000000E+00
  8.00000000E-01  8.00000000E-01  1.50000000E+00  8.00000000E-01  8.00000000E-01
  1.50000000E+00  8.00000000E-01  8.00000000E-01  1.50000000E+00  8.00000000E-01
  8.00000000E-01  1.50000000E+00  8.00000000E-01  8.00000000E-01  1.50000000E+00
  8.00000000E-01  8.00000000E-01  1.50000000E+00  8.00000000E-01  8.00000000E-01
  1.50000000E+00  8.00000000E-01  8.00000000E-01  1.50000000E+00  8.00000000E-01
  8.00000000E-01  1.50000000E+00  8.00000000E-01  8.00000000E-01  1.50000000E+00
  8.00000000E-01  8.00000000E-01  1.50000000E+00  8.00000000E-01  8.00000000E-01
  1.50000000E+00  8.00000000E-01  8.00000000E-01  1.50000000E+00  8.00000000E-01
  8.00000000E-01  1.50000000E+00  8.00000000E-01  8.00000000E-01  1.50000000E+00
  8.00000000E-01  8.00000000E-01  1.50000000E+00  8.00000000E-01  8.00000000E-01
  1.50000000E+00  8.00000000E-01  8.00000000E-01  1.50000000E+00  8.00000000E-01
  8.00000000E-01  1.50000000E+00  8.00000000E-01  8.00000000E-01  1.50000000E+00
  8.00000000E-01  8.00000000E-01  1.50000000E+00  8.00000000E-01  8.00000000E-01
  1.50000000E+00  8.00000000E-01  8.00000000E-01  1.50000000E+00  8.00000000E-01
  8.00000000E-01  1.50000000E+00  8.00000000E-01  8.00000000E-01  1.50000000E+00
  8.00000000E-01  8.00000000E-01  1.50000000E+00  8.00000000E-01  8.00000000E-01
  1.50000000E+00  8.00000000E-01  8.00000000E-01  1.50000000E+00  8.00000000E-01
  8.00000000E-01  1.50000000E+00  8.00000000E-01  8.00000000E-01  1.50000000E+00
  8.00000000E-01  8.00000000E-01  1.50000000E+00  8.00000000E-01  8.00000000E-01
  1.50000000E+00  8.00000000E-01  8.00000000E-01  1.50000000E+00  8.00000000E-01
  8.00000000E-01  1.50000000E+00  8.00000000E-01  8.00000000E-01  1.50000000E+00
  8.00000000E-01  8.00000000E-01  1.50000000E+00  8.00000000E-01  8.00000000E-01
  1.50000000E+00  8.00000000E-01  8.00000000E-01  1.50000000E+00  8.00000000E-01
  8.00000000E-01  1.50000000E+00  8.00000000E-01  8.00000000E-01  1.50000000E+00
  8.00000000E-01  8.00000000E-01  1.50000000E+00  8.00000000E-01  8.00000000E-01
  1.50000000E+00  8.00000000E-01  8.00000000E-01  1.50000000E+00  8.00000000E-01
  8.00000000E-01  1.50000000E+00  8.00000000E-01  8.00000000E-01  1.50000000E+00
  8.00000000E-01  8.00000000E-01  1.50000000E+00  8.00000000E-01  8.00000000E-01
  1.50000000E+00  8.00000000E-01  8.00000000E-01  1.50000000E+00  8.00000000E-01
  8.00000000E-01  1.50000000E+00  8.00000000E-01  8.00000000E-01  1.50000000E+00
  8.00000000E-01  8.00000000E-01  1.50000000E+00  8.00000000E-01  8.00000000E-01
  1.50000000E+00  8.00000000E-01  8.00000000E-01  1.50000000E+00  8.00000000E-01
  8.00000000E-01  1.50000000E+00  8.00000000E-01  8.00000000E-01  1.50000000E+00
  8.00000000E-01  8.00000000E-01  1.50000000E+00  8.00000000E-01  8.00000000E-01
  1.50000000E+00  8.00000000E-01  8.00000000E-01  1.50000000E+00  8.00000000E-01
  8.00000000E-01  1.50000000E+00  8.00000000E-01  8.00000000E-01  1.50000000E+00
  8.00000000E-01  8.00000000E-01  1.50000000E+00  8.00000000E-01  8.00000000E-01
  1.50000000E+00  8.00000000E-01  8.00000000E-01  1.50000000E+00  8.00000000E-01
  8.00000000E-01  1.50000000E+00  8.00000000E-01  8.00000000E-01  1.50000000E+00
  8.00000000E-01  8.00000000E-01  1.50000000E+00  8.00000000E-01  8.00000000E-01
  1.50000000E+00  8.00000000E-01  8.00000000E-01  1.50000000E+00  8.00000000E-01
  8.00000000E-01  1.50000000E+00  8.00000000E-01  8.00000000E-01  1.50000000E+00
  8.00000000E-01  8.00000000E-01  1.50000000E+00  8.00000000E-01  8.00000000E-01
  1.50000000E+00  8.00000000E-01  8.00000000E-01  1.50000000E+00  8.00000000E-01
  8.00000000E-01  1.50000000E+00  8.00000000E-01  8.00000000E-01  1.50000000E+00
  8.00000000E-01  8.00000000E-01  1.50000000E+00  8.00000000E-01  8.00000000E-01
  1.50000000E+00  8.00000000E-01  8.00000000E-01  1.50000000E+00  8.00000000E-01
  8.00000000E-01  1.50000000E+00  8.00000000E-01  8.00000000E-01  1.50000000E+00
  8.00000000E-01  8.00000000E-01  1.50000000E+00  8.00000000E-01  8.00000000E-01
  1.50000000E+00  8.00000000E-01  8.00000000E-01  1.50000000E+00  8.00000000E-01
  8.00000000E-01  1.50000000E+00  8.00000000E-01  8.00000000E-01  1.50000000E+00
  8.00000000E-01  8.00000000E-01  1.50000000E+00  8.00000000E-01  8.00000000E-01
  1.50000000E+00  8.00000000E-01  8.00000000E-01  1.50000000E+00  8.00000000E-01
  8.00000000E-01  1.50000000E+00  8.00000000E-01  8.00000000E-01  1.50000000E+00
  8.00000000E-01  8.00000000E-01  1.50000000E+00  8.00000000E-01  8.00000000E-01
  1.50000000E+00  8.00000000E-01  8.00000000E-01  1.50000000E+00  8.00000000E-01
  8.00000000E-01  1.50000000E+00  8.00000000E-01  8.00000000E-01  1.50000000E+00
  8.00000000E-01  8.00000000E-01  1.50000000E+00  8.00000000E-01  8.00000000E-01
  1.50000000E+00  8.00000000E-01  8.00000000E-01  1.50000000E+00  8.00000000E-01
  8.00000000E-01  1.50000000E+00  8.00000000E-01  8.00000000E-01  1.50000000E+00
  8.00000000E-01  8.00000000E-01  1.50000000E+00  8.00000000E-01  8.00000000E-01
  1.50000000E+00  8.00000000E-01  8.00000000E-01  1.50000000E+00  8.00000000E-01
  8.00000000E-01  1.50000000E+00  8.00000000E-01  8.00000000E-01  1.50000000E+00
  8.00000000E-01  8.00000000E-01  1.50000000E+00  8.00000000E-01  8.00000000E-01
  1.50000000E+00  8.00000000E-01  8.00000000E-01  1.50000000E+00  8.00000000E-01
  8.00000000E-01  1.50000000E+00  8.00000000E-01  8.00000000E-01  1.50000000E+00
  8.00000000E-01  8.00000000E-01  1.50000000E+00  8.00000000E-01  8.00000000E-01
  1.50000000E+00  8.00000000E-01  8.00000000E-01  1.50000000E+00  8.00000000E-01
  8.00000000E-01  1.50000000E+00  8.00000000E-01  8.00000000E-01  1.50000000E+00
  8.00000000E-01  8.00000000E-01  1.50000000E+00  8.00000000E-01  8.00000000E-01
  1.50000000E+00  8.00000000E-01  8.00000000E-01  1.50000000E+00  8.00000000E-01
  8.00000000E-01  1.50000000E+00  8.00000000E-01  8.00000000E-01  1.50000000E+00
  8.00000000E-01  8.00000000E-01  1.50000000E+00  8.00000000E-01  8.00000000E-01
  1.50000000E+00  8.00000000E-01  8.00000000E-01  1.50000000E+00  8.00000000E-01
  8.00000000E-01  1.50000000E+00  8.00000000E-01  8.00000000E-01  1.50000000E+00
  8.00000000E-01  8.00000000E-01  1.50000000E+00  8.00000000E-01  8.00000000E-01
  1.50000000E+00  8.00000000E-01  8.00000000E-01  1.50000000E+00  8.00000000E-01
  8.00000000E-01  1.50000000E+00  8.00000000E-01  8.00000000E-01  1.50000000E+00
  8.00000000E-01  8.00000000E-01  1.50000000E+00  8.00000000E-01  8.00000000E-01
  1.50000000E+00  8.00000000E-01  8.00000000E-01  1.50000000E+00  8.00000000E-01
  8.00000000E-01  1.50000000E+00  8.00000000E-01  8.00000000E-01  1.50000000E+00
  8.00000000E-01  8.00000000E-01  1.50000000E+00  8.00000000E-01  8.00000000E-01
  1.50000000E+00  8.00000000E-01  8.00000000E-01  1.50000000E+00  8.00000000E-01
  8.00000000E-01  1.50000000E+00  8.00000000E-01  8.00000000E-01  1.50000000E+00
  8.00000000E-01  8.00000000E-01  1.50000000E+00  8.00000000E-01  8.00000000E-01
  1.50000000E+00  8.00000000E-01  8.00000000E-01  1.50000000E+00  8.00000000E-01
  8.00000000E-01  1.50000000E+00  8.00000000E-01  8.00000000E-01  1.50000000E+00
  8.00000000E-01  8.00000000E-01  1.50000000E+00  8.00000000E-01  8.00000000E-01
  1.50000000E+00  8.00000000E-01  8.00000000E-01  1.50000000E+00  8.00000000E-01
  8.00000000E-01  1.50000000E+00  8.00000000E-01  8.00000000E-01  1.50000000E+00
  8.00000000E-01  8.00000000E-01  1.50000000E+00  8.00000000E-01  8.00000000E-01
  1.50000000E+00  8.00000000E-01  8.00000000E-01  1.50000000E+00  8.00000000E-01
  8.00000000E-01  1.50000000E+00  8.00000000E-01  8.00000000E-01  1.50000000E+00
  8.00000000E-01  8.00000000E-01  1.50000000E+00  8.00000000E-01  8.00000000E-01
  1.50000000E+00  8.00000000E-01  8.00000000E-01  1.50000000E+00  8.00000000E-01
  8.00000000E-01  1.50000000E+00  8.00000000E-01  8.00000000E-01  1.50000000E+00
  8.00000000E-01  8.00000000E-01  1.50000000E+00  8.00000000E-01  8.00000000E-01
  1.50000000E+00  8.00000000E-01  8.00000000E-01  1.50000000E+00  8.00000000E-01
  8.00000000E-01  1.50000000E+00  8.00000000E-01  8.00000000E-01  1.50000000E+00
  8.00000000E-01  8.00000000E-01  1.50000000E+00  8.00000000E-01  8.00000000E-01
  1.50000000E+00  8.00000000E-01  8.00000000E-01  1.50000000E+00  8.00000000E-01
  8.00000000E-01  1.50000000E+00  8.00000000E-01  8.00000000E-01  1.50000000E+00
  8.00000000E-01  8.00000000E-01  1.50000000E+00  8.00000000E-01  8.00000000E-01
  1.50000000E+00  8.00000000E-01  8.00000000E-01  1.50000000E+00  8.00000000E-01
  8.00000000E-01  1.50000000E+00  8.00000000E-01  8.00000000E-01  1.50000000E+00
  8.00000000E-01  8.00000000E-01  1.50000000E+00  8.00000000E-01  8.00000000E-01
  1.50000000E+00  8.00000000E-01  8.00000000E-01  1.50000000E+00  8.00000000E-01
  8.00000000E-01  1.50000000E+00  8.00000000E-01  8.00000000E-01  1.50000000E+00
  8.00000000E-01  8.00000000E-01  1.50000000E+00  8.00000000E-01  8.00000000E-01
  1.50000000E+00  8.00000000E-01  8.00000000E-01  1.50000000E+00  8.00000000E-01
  8.00000000E-01  1.50000000E+00  8.00000000E-01  8.00000000E-01  1.50000000E+00
  8.00000000E-01  8.00000000E-01  1.50000000E+00  8.00000000E-01  8.00000000E-01
  1.50000000E+00  8.00000000E-01  8.00000000E-01  1.50000000E+00  8.00000000E-01
  8.00000000E-01  1.50000000E+00  8.00000000E-01  8.00000000E-01  1.50000000E+00
  8.00000000E-01  8.00000000E-01  1.50000000E+00  8.00000000E-01  8.00000000E-01
  1.50000000E+00  8.00000000E-01  8.00000000E-01  1.50000000E+00  8.00000000E-01
  8.00000000E-01  1.50000000E+00  8.00000000E-01  8.00000000E-01  1.50000000E+00
  8.00000000E-01  8.00000000E-01  1.50000000E+00  8.00000000E-01  8.00000000E-01
  1.50000000E+00  8.00000000E-01  8.00000000E-01  1.50000000E+00  8.00000000E-01
  8.00000000E-01  1.50000000E+00  8.00000000E-01  8.00000000E-01  1.50000000E+00
  8.00000000E-01  8.00000000E-01  1.50000000E+00  8.00000000E-01  8.00000000E-01
  1.50000000E+00  8.00000000E-01  8.00000000E-01  1.50000000E+00  8.00000000E-01
  8.00000000E-01  1.50000000E+00  8.00000000E-01  8.00000000E-01  1.50000000E+00
  8.00000000E-01  8.00000000E-01  1.50000000E+00  8.00000000E-01  8.00000000E-01
  1.50000000E+00  8.00000000E-01  8.00000000E-01  1.50000000E+00  8.00000000E-01
  8.00000000E-01  1.50000000E+00  8.00000000E-01  8.00000000E-01  1.50000000E+00
  8.00000000E-01  8.00000000E-01  1.50000000E+00  8.00000000E-01  8.00000000E-01
  1.50000000E+00  8.00000000E-01  8.00000000E-01  1.50000000E+00  8.00000000E-01
  8.00000000E-01  1.50000000E+00  8.00000000E-01  8.00000000E-01  1.50000000E+00
  8.00000000E-01  8.00000000E-01  1.50000000E+00  8.00000000E-01  8.00000000E-01
  1.50000000E+00  8.00000000E-01  8.00000000E-01  1.50000000E+00  8.00000000E-01
  8.00000000E-01  1.50000000E+00  8.00000000E-01  8.00000000E-01  1.50000000E+00
  8.00000000E-01  8.00000000E-01  1.50000000E+00  8.00000000E-01  8.00000000E-01
  1.50000000E+00  8.00000000E-01  8.00000000E-01  1.50000000E+00  8.00000000E-01
  8.00000000E-01  1.50000000E+00  8.00000000E-01  8.00000000E-01  1.50000000E+00
  8.00000000E-01  8.00000000E-01  1.50000000E+00  8.00000000E-01  8.00000000E-01
  1.50000000E+00  8.00000000E-01  8.00000000E-01  1.50000000E+00  8.00000000E-01
  8.00000000E-01  1.50000000E+00  8.00000000E-01  8.00000000E-01  1.50000000E+00
  8.00000000E-01  8.00000000E-01  1.50000000E+00  8.00000000E-01  8.00000000E-01
  1.50000000E+00  8.00000000E-01  8.00000000E-01  1.50000000E+00  8.00000000E-01
  8.00000000E-01  1.50000000E+00  8.00000000E-01  8.00000000E-01  1.50000000E+00
  8.00000000E-01  8.00000000E-01  1.50000000E+00  8.00000000E-01  8.00000000E-01
  1.50000000E+00  8.00000000E-01  8.00000000E-01  1.50000000E+00  8.00000000E-01
  8.00000000E-01  1.50000000E+00  8.00000000E-01  8.00000000E-01  1.50000000E+00
  8.00000000E-01  8.00000000E-01  1.50000000E+00  8.00000000E-01  8.00000000E-01
  1.50000000E+00  8.00000000E-01  8.00000000E-01  1.50000000E+00  8.00000000E-01
  8.00000000E-01  1.50000000E+00  8.00000000E-01  8.00000000E-01  1.50000000E+00
  8.00000000E-01  8.00000000E-01  1.50000000E+00  8.00000000E-01  8.00000000E-01
  1.50000000E+00  8.00000000E-01  8.00000000E-01  1.50000000E+00  8.00000000E-01
  8.00000000E-01  1.50000000E+00  8.00000000E-01  8.00000000E-01  1.50000000E+00
  8.00000000E-01  8.00000000E-01  1.50000000E+00  8.00000000E-01  8.00000000E-01
  1.50000000E+00  8.00000000E-01  8.00000000E-01  1.50000000E+00  8.00000000E-01
  8.00000000E-01  1.50000000E+00  8.00000000E-01  8.00000000E-01  1.50000000E+00
  8.00000000E-01  8.00000000E-01  1.50000000E+00  8.00000000E-01  8.00000000E-01
  1.50000000E+00  8.00000000E-01  8.00000000E-01  1.50000000E+00  8.00000000E-01
  8.00000000E-01  1.50000000E+00  8.00000000E-01  8.00000000E-01  1.50000000E+00
  8.00000000E-01  8.00000000E-01  1.50000000E+00  8.00000000E-01  8.00000000E-01
  1.50000000E+00  8.00000000E-01  8.00000000E-01  1.50000000E+00  8.00000000E-01
  8.00000000E-01  1.50000000E+00  8.00000000E-01  8.00000000E-01  1.50000000E+00
  8.00000000E-01  8.00000000E-01  1.50000000E+00  8.00000000E-01  8.00000000E-01
  1.50000000E+00  8.00000000E-01  8.00000000E-01  1.50000000E+00  8.00000000E-01
  8.00000000E-01  1.50000000E+00  8.00000000E-01  8.00000000E-01  1.50000000E+00
  8.00000000E-01  8.00000000E-01  1.50000000E+00  8.00000000E-01  8.00000000E-01
  1.50000000E+00  8.00000000E-01  8.00000000E-01  1.50000000E+00  8.00000000E-01
  8.00000000E-01  1.50000000E+00  8.00000000E-01  8.00000000E-01  1.50000000E+00
  8.00000000E-01  8.00000000E-01  1.50000000E+00  8.00000000E-01  8.00000000E-01
  1.50000000E+00  8.00000000E-01  8.00000000E-01  1.50000000E+00  8.00000000E-01
  8.00000000E-01  1.50000000E+00  8.00000000E-01  8.00000000E-01  1.50000000E+00
  8.00000000E-01  8.00000000E-01  1.50000000E+00  8.00000000E-01  8.00000000E-01
  1.50000000E+00  8.00000000E-01  8.00000000E-01  1.50000000E+00  8.00000000E-01
  8.00000000E-01  1.50000000E+00  8.00000000E-01  8.00000000E-01  1.50000000E+00
  8.00000000E-01  8.00000000E-01  1.50000000E+00  8.00000000E-01  8.00000000E-01
  1.50000000E+00  8.00000000E-01  8.00000000E-01  1.50000000E+00  8.00000000E-01
  8.00000000E-01  1.50000000E+00  8.00000000E-01  8.00000000E-01  1.50000000E+00
  8.00000000E-01  8.00000000E-01  1.50000000E+00  8.00000000E-01  8.00000000E-01
  1.50000000E+00  8.00000000E-01  8.00000000E-01  1.50000000E+00  8.00000000E-01
  8.00000000E-01  1.50000000E+00  8.00000000E-01  8.00000000E-01  1.50000000E+00
  8.00000000E-01  8.00000000E-01  1.50000000E+00  8.00000000E-01  8.00000000E-01
  1.50000000E+00  8.00000000E-01  8.00000000E-01  1.50000000E+00  8.00000000E-01
  8.00000000E-01  1.50000000E+00  8.00000000E-01  8.00000000E-01  1.50000000E+00
  8.00000000E-01  8.00000000E-01  1.50000000E+00  8.00000000E-01  8.00000000E-01
  1.50000000E+00  8.00000000E-01  8.00000000E-01  1.50000000E+00  8.00000000E-01
  8.00000000E-01  1.50000000E+00  8.00000000E-01  8.00000000E-01  1.50000000E+00
  8.00000000E-01  8.00000000E-01  1.50000000E+00  8.00000000E-01  8.00000000E-01
  1.50000000E+00  8.00000000E-01  8.00000000E-01  1.50000000E+00  8.00000000E-01
  8.00000000E-01  1.50000000E+00  8.00000000E-01  8.00000000E-01  1.50000000E+00
  8.00000000E-01  8.00000000E-01  1.50000000E+00  8.00000000E-01  8.00000000E-01
  1.50000000E+00  8.00000000E-01  8.00000000E-01  1.50000000E+00  8.00000000E-01
  8.00000000E-01  1.50000000E+00  8.00000000E-01  8.00000000E-01  1.50000000E+00
  8.00000000E-01  8.00000000E-01  1.50000000E+00  8.00000000E-01  8.00000000E-01
  1.50000000E+00  8.00000000E-01  8.00000000E-01  1.50000000E+00  8.00000000E-01
  8.00000000E-01  1.50000000E+00  8.00000000E-01  8.00000000E-01  1.50000000E+00
  8.00000000E-01  8.00000000E-01  1.50000000E+00  8.00000000E-01  8.00000000E-01
  1.50000000E+00  8.00000000E-01  8.00000000E-01  1.50000000E+00  8.00000000E-01
  8.00000000E-01  1.50000000E+00  8.00000000E-01  8.00000000E-01  1.50000000E+00
  8.00000000E-01  8.00000000E-01  1.50000000E+00  8.00000000E-01  8.00000000E-01
  1.50000000E+00  8.00000000E-01  8.00000000E-01  1.50000000E+00  8.00000000E-01
  8.00000000E-01  1.50000000E+00  8.00000000E-01  8.00000000E-01  1.50000000E+00
  8.00000000E-01  8.00000000E-01  1.50000000E+00  8.00000000E-01  8.00000000E-01
  1.50000000E+00  8.00000000E-01  8.00000000E-01  1.50000000E+00  8.00000000E-01
  8.00000000E-01  1.50000000E+00  8.00000000E-01  8.00000000E-01  1.50000000E+00
  8.00000000E-01  8.00000000E-01  1.50000000E+00  8.00000000E-01  8.00000000E-01
  1.50000000E+00  8.00000000E-01  8.00000000E-01  1.50000000E+00  8.00000000E-01
  8.00000000E-01  1.50000000E+00  8.00000000E-01  8.00000000E-01  1.50000000E+00
  8.00000000E-01  8.00000000E-01  1.50000000E+00  8.00000000E-01  8.00000000E-01
  1.50000000E+00  8.00000000E-01  8.00000000E-01  1.50000000E+00  8.00000000E-01
  8.00000000E-01  1.50000000E+00  8.00000000E-01  8.00000000E-01  1.50000000E+00
  8.00000000E-01  8.00000000E-01  1.50000000E+00  8.00000000E-01  8.00000000E-01
  1.50000000E+00  8.00000000E-01  8.00000000E-01  1.50000000E+00  8.00000000E-01
  8.00000000E-01  1.50000000E+00  8.00000000E-01  8.00000000E-01  1.50000000E+00
  8.00000000E-01  8.00000000E-01  1.50000000E+00  8.00000000E-01  8.00000000E-01
  1.50000000E+00  8.00000000E-01  8.00000000E-01  1.50000000E+00  8.00000000E-01
  8.00000000E-01  1.50000000E+00  8.00000000E-01  8.00000000E-01  1.50000000E+00
  8.00000000E-01  8.00000000E-01  1.50000000E+00  8.00000000E-01  8.00000000E-01
  1.50000000E+00  8.00000000E-01  8.00000000E-01  1.50000000E+00  8.00000000E-01
  8.00000000E-01  1.50000000E+00  8.00000000E-01  8.00000000E-01  1.50000000E+00
  8.00000000E-01  8.00000000E-01  1.50000000E+00  8.00000000E-01  8.00000000E-01
  1.50000000E+00  8.00000000E-01  8.00000000E-01  1.50000000E+00  8.00000000E-01
  8.00000000E-01  1.50000000E+00  8.00000000E-01  8.00000000E-01  1.50000000E+00
  8.00000000E-01  8.00000000E-01  1.50000000E+00  8.00000000E-01  8.00000000E-01
  1.50000000E+00  8.00000000E-01  8.00000000E-01  1.50000000E+00  8.00000000E-01
  8.00000000E-01  1.50000000E+00  8.00000000E-01  8.00000000E-01  1.50000000E+00
  8.00000000E-01  8.00000000E-01  1.50000000E+00  8.00000000E-01  8.00000000E-01
  1.50000000E+00  8.00000000E-01  8.00000000E-01  1.50000000E+00  8.00000000E-01
  8.00000000E-01  1.50000000E+00  8.00000000E-01  8.00000000E-01  1.50000000E+00
  8.00000000E-01  8.00000000E-01  1.50000000E+00  8.00000000E-01  8.00000000E-01
  1.50000000E+00  8.00000000E-01  8.00000000E-01  1.50000000E+00  8.00000000E-01
  8.00000000E-01  1.50000000E+00  8.00000000E-01  8.00000000E-01  1.50000000E+00
  8.00000000E-01  8.00000000E-01  1.50000000E+00  8.00000000E-01  8.00000000E-01
  1.50000000E+00  8.00000000E-01  8.00000000E-01  1.50000000E+00  8.00000000E-01
  8.00000000E-01  1.50000000E+00  8.00000000E-01  8.00000000E-01  1.50000000E+00
  8.00000000E-01  8.00000000E-01  1.50000000E+00  8.00000000E-01  8.00000000E-01
  1.50000000E+00  8.00000000E-01  8.00000000E-01  1.50000000E+00  8.00000000E-01
  8.00000000E-01  1.50000000E+00  8.00000000E-01  8.00000000E-01  1.50000000E+00
  8.00000000E-01  8.00000000E-01  1.50000000E+00  8.00000000E-01  8.00000000E-01
  1.50000000E+00  8.00000000E-01  8.00000000E-01  1.50000000E+00  8.00000000E-01
  8.00000000E-01  1.50000000E+00  8.00000000E-01  8.00000000E-01  1.50000000E+00
  8.00000000E-01  8.00000000E-01  1.50000000E+00  8.00000000E-01  8.00000000E-01
  1.50000000E+00  8.00000000E-01  8.00000000E-01  1.50000000E+00  8.00000000E-01
  8.00000000E-01  1.50000000E+00  8.00000000E-01  8.00000000E-01  1.50000000E+00
  8.00000000E-01  8.00000000E-01  1.50000000E+00  8.00000000E-01  8.00000000E-01
  1.50000000E+00  8.00000000E-01  8.00000000E-01  1.50000000E+00  8.00000000E-01
  8.00000000E-01  1.50000000E+00  8.00000000E-01  8.00000000E-01  1.50000000E+00
  8.00000000E-01  8.00000000E-01  1.50000000E+00  8.00000000E-01  8.00000000E-01
  1.50000000E+00  8.00000000E-01  8.00000000E-01  1.50000000E+00  8.00000000E-01
  8.00000000E-01  1.50000000E+00  8.00000000E-01  8.00000000E-01  1.50000000E+00
  8.00000000E-01  8.00000000E-01  1.50000000E+00  8.00000000E-01  8.00000000E-01
  1.50000000E+00  8.00000000E-01  8.00000000E-01  1.50000000E+00  8.00000000E-01
  8.00000000E-01  1.50000000E+00  8.00000000E-01  8.00000000E-01  1.50000000E+00
  8.00000000E-01  8.00000000E-01  1.50000000E+00  8.00000000E-01  8.00000000E-01
  1.50000000E+00  8.00000000E-01  8.00000000E-01  1.50000000E+00  8.00000000E-01
  8.00000000E-01  1.50000000E+00  8.00000000E-01  8.00000000E-01  1.50000000E+00
  8.00000000E-01  8.00000000E-01  1.50000000E+00  8.00000000E-01  8.00000000E-01
  1.50000000E+00  8.00000000E-01  8.00000000E-01  1.50000000E+00  8.00000000E-01
  8.00000000E-01  1.50000000E+00  8.00000000E-01  8.00000000E-01  1.50000000E+00
  8.00000000E-01  8.00000000E-01  1.50000000E+00  8.00000000E-01  8.00000000E-01
  1.50000000E+00  8.00000000E-01  8.00000000E-01  1.50000000E+00  8.00000000E-01
  8.00000000E-01  1.50000000E+00  8.00000000E-01  8.00000000E-01  1.50000000E+00
  8.00000000E-01  8.00000000E-01  1.50000000E+00  8.00000000E-01  8.00000000E-01
  1.50000000E+00  8.00000000E-01  8.00000000E-01  1.50000000E+00  8.00000000E-01
  8.00000000E-01  1.50000000E+00  8.00000000E-01  8.00000000E-01  1.50000000E+00
  8.00000000E-01  8.00000000E-01  1.50000000E+00  8.00000000E-01  8.00000000E-01
  1.50000000E+00  8.00000000E-01  8.00000000E-01  1.50000000E+00  8.00000000E-01
  8.00000000E-01  1.50000000E+00  8.00000000E-01  8.00000000E-01  1.50000000E+00
  8.00000000E-01  8.00000000E-01  1.50000000E+00  8.00000000E-01  8.00000000E-01
  1.50000000E+00  8.00000000E-01  8.00000000E-01  1.50000000E+00  8.00000000E-01
  8.00000000E-01  1.50000000E+00  8.00000000E-01  8.00000000E-01  1.50000000E+00
  8.00000000E-01  8.00000000E-01  1.50000000E+00  8.00000000E-01  8.00000000E-01
  1.50000000E+00  8.00000000E-01  8.00000000E-01  1.50000000E+00  8.00000000E-01
  8.00000000E-01  1.50000000E+00  8.00000000E-01  8.00000000E-01  1.50000000E+00
  8.00000000E-01  8.00000000E-01  1.50000000E+00  8.00000000E-01  8.00000000E-01
  1.50000000E+00  8.00000000E-01  8.00000000E-01  1.50000000E+00  8.00000000E-01
  8.00000000E-01  1.50000000E+00  8.00000000E-01  8.00000000E-01  1.50000000E+00
  8.00000000E-01  8.00000000E-01  1.50000000E+00  8.00000000E-01  8.00000000E-01
  1.50000000E+00  8.00000000E-01  8.00000000E-01  1.50000000E+00  8.00000000E-01
  8.00000000E-01  1.50000000E+00  8.00000000E-01  8.00000000E-01  1.50000000E+00
  8.00000000E-01  8.00000000E-01  1.50000000E+00  8.00000000E-01  8.00000000E-01
  1.50000000E+00  8.00000000E-01  8.00000000E-01  1.50000000E+00  8.00000000E-01
  8.00000000E-01  1.50000000E+00  8.00000000E-01  8.00000000E-01  1.50000000E+00
  8.00000000E-01  8.00000000E-01  1.50000000E+00  8.00000000E-01  8.00000000E-01
  1.50000000E+00  8.00000000E-01  8.00000000E-01  1.50000000E+00  8.00000000E-01
  8.00000000E-01  1.50000000E+00  8.00000000E-01  8.00000000E-01  1.50000000E+00
  8.00000000E-01  8.00000000E-01  1.50000000E+00  8.00000000E-01  8.00000000E-01
  1.50000000E+00  8.00000000E-01  8.00000000E-01  1.50000000E+00  8.00000000E-01
  8.00000000E-01  1.50000000E+00  8.00000000E-01  8.00000000E-01  1.50000000E+00
  8.00000000E-01  8.00000000E-01  1.50000000E+00  8.00000000E-01  8.00000000E-01
  1.50000000E+00  8.00000000E-01  8.00000000E-01  1.50000000E+00  8.00000000E-01
  8.00000000E-01  1.50000000E+00  8.00000000E-01  8.00000000E-01  1.50000000E+00
  8.00000000E-01  8.00000000E-01  1.50000000E+00  8.00000000E-01  8.00000000E-01
  1.50000000E+00  8.00000000E-01  8.00000000E-01  1.50000000E+00  8.00000000E-01
  8.00000000E-01  1.50000000E+00  8.00000000E-01  8.00000000E-01  1.50000000E+00
  8.00000000E-01  8.00000000E-01  1.50000000E+00  8.00000000E-01  8.00000000E-01
  1.50000000E+00  8.00000000E-01  8.00000000E-01  1.50000000E+00  8.00000000E-01
  8.00000000E-01  1.50000000E+00  8.00000000E-01  8.00000000E-01  1.50000000E+00
  8.00000000E-01  8.00000000E-01  1.50000000E+00  8.00000000E-01  8.00000000E-01
  1.50000000E+00  8.00000000E-01  8.00000000E-01  1.50000000E+00  8.00000000E-01
  8.00000000E-01  1.50000000E+00  8.00000000E-01  8.00000000E-01  1.50000000E+00
  8.00000000E-01  8.00000000E-01  1.50000000E+00  8.00000000E-01  8.00000000E-01
  1.50000000E+00  8.00000000E-01  8.00000000E-01  1.50000000E+00  8.00000000E-01
  8.00000000E-01  1.50000000E+00  8.00000000E-01  8.00000000E-01  1.50000000E+00
  8.00000000E-01  8.00000000E-01  1.50000000E+00  8.00000000E-01  8.00000000E-01
  1.50000000E+00  8.00000000E-01  8.00000000E-01  1.50000000E+00  8.00000000E-01
  8.00000000E-01  1.50000000E+00  8.00000000E-01  8.00000000E-01  1.50000000E+00
  8.00000000E-01  8.00000000E-01  1.50000000E+00  8.00000000E-01  8.00000000E-01
  1.50000000E+00  8.00000000E-01  8.00000000E-01  1.50000000E+00  8.00000000E-01
  8.00000000E-01  1.50000000E+00  8.00000000E-01  8.00000000E-01  1.50000000E+00
  8.00000000E-01  8.00000000E-01  1.50000000E+00  8.00000000E-01  8.00000000E-01
  1.50000000E+00  8.00000000E-01  8.00000000E-01  1.50000000E+00  8.00000000E-01
  8.00000000E-01  1.50000000E+00  8.00000000E-01  8.00000000E-01  1.50000000E+00
  8.00000000E-01  8.00000000E-01  1.50000000E+00  8.00000000E-01  8.00000000E-01
  1.50000000E+00  8.00000000E-01  8.00000000E-01  1.50000000E+00  8.00000000E-01
  8.00000000E-01  1.50000000E+00  8.00000000E-01  8.00000000E-01  1.50000000E+00
  8.00000000E-01  8.00000000E-01  1.50000000E+00  8.00000000E-01  8.00000000E-01
  1.50000000E+00  8.00000000E-01  8.00000000E-01  1.50000000E+00  8.00000000E-01
  8.00000000E-01  1.50000000E+00  8.00000000E-01  8.00000000E-01  1.50000000E+00
  8.00000000E-01  8.00000000E-01  1.50000000E+00  8.00000000E-01  8.00000000E-01
  1.50000000E+00  8.00000000E-01  8.00000000E-01  1.50000000E+00  8.00000000E-01
  8.00000000E-01  1.50000000E+00  8.00000000E-01  8.00000000E-01  1.50000000E+00
  8.00000000E-01  8.00000000E-01  1.50000000E+00  8.00000000E-01  8.00000000E-01
  1.50000000E+00  8.00000000E-01  8.00000000E-01  1.50000000E+00  8.00000000E-01
  8.00000000E-01  1.50000000E+00  8.00000000E-01  8.00000000E-01  1.50000000E+00
  8.00000000E-01  8.00000000E-01  1.50000000E+00  8.00000000E-01  8.00000000E-01
  1.50000000E+00  8.00000000E-01  8.00000000E-01  1.50000000E+00  8.00000000E-01
  8.00000000E-01  1.50000000E+00  8.00000000E-01  8.00000000E-01  1.50000000E+00
  8.00000000E-01  8.00000000E-01  1.50000000E+00  8.00000000E-01  8.00000000E-01
  1.50000000E+00  8.00000000E-01  8.00000000E-01  1.50000000E+00  8.00000000E-01
  8.00000000E-01  1.50000000E+00  8.00000000E-01  8.00000000E-01  1.50000000E+00
  8.00000000E-01  8.00000000E-01  1.50000000E+00  8.00000000E-01  8.00000000E-01
  1.50000000E+00  8.00000000E-01  8.00000000E-01  1.50000000E+00  8.00000000E-01
  8.00000000E-01  1.50000000E+00  8.00000000E-01  8.00000000E-01  1.50000000E+00
  8.00000000E-01  8.00000000E-01  1.50000000E+00  8.00000000E-01  8.00000000E-01
  1.50000000E+00  8.00000000E-01  8.00000000E-01  1.50000000E+00  8.00000000E-01
  8.00000000E-01  1.50000000E+00  8.00000000E-01  8.00000000E-01  1.50000000E+00
  8.00000000E-01  8.00000000E-01  1.50000000E+00  8.00000000E-01  8.00000000E-01
  1.50000000E+00  8.00000000E-01  8.00000000E-01  1.50000000E+00  8.00000000E-01
  8.00000000E-01  1.50000000E+00  8.00000000E-01  8.00000000E-01  1.50000000E+00
  8.00000000E-01  8.00000000E-01  1.50000000E+00  8.00000000E-01  8.00000000E-01
  1.50000000E+00  8.00000000E-01  8.00000000E-01  1.50000000E+00  8.00000000E-01
  8.00000000E-01  1.50000000E+00  8.00000000E-01  8.00000000E-01  1.50000000E+00
  8.00000000E-01  8.00000000E-01  1.50000000E+00  8.00000000E-01  8.00000000E-01
  1.50000000E+00  8.00000000E-01  8.00000000E-01  1.50000000E+00  8.00000000E-01
  8.00000000E-01  1.50000000E+00  8.00000000E-01  8.00000000E-01  1.50000000E+00
  8.00000000E-01  8.00000000E-01  1.50000000E+00  8.00000000E-01  8.00000000E-01
  1.50000000E+00  8.00000000E-01  8.00000000E-01  1.50000000E+00  8.00000000E-01
  8.00000000E-01  1.50000000E+00  8.00000000E-01  8.00000000E-01  1.50000000E+00
  8.00000000E-01  8.00000000E-01  1.50000000E+00  8.00000000E-01  8.00000000E-01
  1.50000000E+00  8.00000000E-01  8.00000000E-01  1.50000000E+00  8.00000000E-01
  8.00000000E-01  1.50000000E+00  8.00000000E-01  8.00000000E-01  1.50000000E+00
  8.00000000E-01  8.00000000E-01  1.50000000E+00  8.00000000E-01  8.00000000E-01
  1.50000000E+00  8.00000000E-01  8.00000000E-01  1.50000000E+00  8.00000000E-01
  8.00000000E-01  1.50000000E+00  8.00000000E-01  8.00000000E-01  1.50000000E+00
  8.00000000E-01  8.00000000E-01  1.50000000E+00  8.00000000E-01  8.00000000E-01
  1.50000000E+00  8.00000000E-01  8.00000000E-01  1.50000000E+00  8.00000000E-01
  8.00000000E-01  1.50000000E+00  8.00000000E-01  8.00000000E-01  1.50000000E+00
  8.00000000E-01  8.00000000E-01  1.50000000E+00  8.00000000E-01  8.00000000E-01
  1.50000000E+00  8.00000000E-01  8.00000000E-01  1.50000000E+00  8.00000000E-01
  8.00000000E-01  1.50000000E+00  8.00000000E-01  8.00000000E-01  1.50000000E+00
  8.00000000E-01  8.00000000E-01  1.50000000E+00  8.00000000E-01  8.00000000E-01
  1.50000000E+00  8.00000000E-01  8.00000000E-01  1.50000000E+00  8.00000000E-01
  8.00000000E-01  1.50000000E+00  8.00000000E-01  8.00000000E-01  1.50000000E+00
  8.00000000E-01  8.00000000E-01  1.50000000E+00  8.00000000E-01  8.00000000E-01
  1.50000000E+00  8.00000000E-01  8.00000000E-01  1.50000000E+00  8.00000000E-01
  8.00000000E-01  1.50000000E+00  8.00000000E-01  8.00000000E-01  1.50000000E+00
  8.00000000E-01  8.00000000E-01  1.50000000E+00  8.00000000E-01  8.00000000E-01
  1.50000000E+00  8.00000000E-01  8.00000000E-01  1.50000000E+00  8.00000000E-01
  8.00000000E-01  1.50000000E+00  8.00000000E-01  8.00000000E-01  1.50000000E+00
  8.00000000E-01  8.00000000E-01  1.50000000E+00  8.00000000E-01  8.00000000E-01
  1.50000000E+00  8.00000000E-01  8.00000000E-01  1.50000000E+00  8.00000000E-01
  8.00000000E-01  1.50000000E+00  8.00000000E-01  8.00000000E-01  1.50000000E+00
  8.00000000E-01  8.00000000E-01  1.50000000E+00  8.00000000E-01  8.00000000E-01
  1.50000000E+00  8.00000000E-01  8.00000000E-01  1.50000000E+00  8.00000000E-01
  8.00000000E-01  1.50000000E+00  8.00000000E-01  8.00000000E-01  1.50000000E+00
  8.00000000E-01  8.00000000E-01  1.50000000E+00  8.00000000E-01  8.00000000E-01
  1.50000000E+00  8.00000000E-01  8.00000000E-01  1.50000000E+00  8.00000000E-01
  8.00000000E-01  1.50000000E+00  8.00000000E-01  8.00000000E-01  1.50000000E+00
  8.00000000E-01  8.00000000E-01  1.50000000E+00  8.00000000E-01  8.00000000E-01
  1.50000000E+00  8.00000000E-01  8.00000000E-01  1.50000000E+00  8.00000000E-01
  8.00000000E-01  1.50000000E+00  8.00000000E-01  8.00000000E-01  1.50000000E+00
  8.00000000E-01  8.00000000E-01  1.50000000E+00  8.00000000E-01  8.00000000E-01
  1.50000000E+00  8.00000000E-01  8.00000000E-01  1.50000000E+00  8.00000000E-01
  8.00000000E-01  1.50000000E+00  8.00000000E-01  8.00000000E-01  1.50000000E+00
  8.00000000E-01  8.00000000E-01  1.50000000E+00  8.00000000E-01  8.00000000E-01
  1.50000000E+00  8.00000000E-01  8.00000000E-01  1.50000000E+00  8.00000000E-01
  8.00000000E-01  1.50000000E+00  8.00000000E-01  8.00000000E-01  1.50000000E+00
  8.00000000E-01  8.00000000E-01  1.50000000E+00  8.00000000E-01  8.00000000E-01
  1.50000000E+00  8.00000000E-01  8.00000000E-01  1.50000000E+00  8.00000000E-01
  8.00000000E-01  1.50000000E+00  8.00000000E-01  8.00000000E-01  1.50000000E+00
  8.00000000E-01  8.00000000E-01  1.50000000E+00  8.00000000E-01  8.00000000E-01
  1.50000000E+00  8.00000000E-01  8.00000000E-01  1.50000000E+00  8.00000000E-01
  8.00000000E-01  1.50000000E+00  8.00000000E-01  8.00000000E-01  1.50000000E+00
  8.00000000E-01  8.00000000E-01  1.50000000E+00  8.00000000E-01  8.00000000E-01
  1.50000000E+00  8.00000000E-01  8.00000000E-01  1.50000000E+00  8.00000000E-01
  8.00000000E-01  1.50000000E+00  8.00000000E-01  8.00000000E-01  1.50000000E+00
  8.00000000E-01  8.00000000E-01  1.50000000E+00  8.00000000E-01  8.00000000E-01
  1.50000000E+00  8.00000000E-01  8.00000000E-01  1.50000000E+00  8.00000000E-01
  8.00000000E-01  1.50000000E+00  8.00000000E-01  8.00000000E-01  1.50000000E+00
  8.00000000E-01  8.00000000E-01  1.50000000E+00  8.00000000E-01  8.00000000E-01
  1.50000000E+00  8.00000000E-01  8.00000000E-01  1.50000000E+00  8.00000000E-01
  8.00000000E-01  1.50000000E+00  8.00000000E-01  8.00000000E-01  1.50000000E+00
  8.00000000E-01  8.00000000E-01  1.50000000E+00  8.00000000E-01  8.00000000E-01
  1.50000000E+00  8.00000000E-01  8.00000000E-01  1.50000000E+00  8.00000000E-01
  8.00000000E-01  1.50000000E+00  8.00000000E-01  8.00000000E-01  1.50000000E+00
  8.00000000E-01  8.00000000E-01  1.50000000E+00  8.00000000E-01  8.00000000E-01
  1.50000000E+00  8.00000000E-01  8.00000000E-01  1.50000000E+00  8.00000000E-01
  8.00000000E-01  1.50000000E+00  8.00000000E-01  8.00000000E-01  1.50000000E+00
  8.00000000E-01  8.00000000E-01  1.50000000E+00  8.00000000E-01  8.00000000E-01
  1.50000000E+00  8.00000000E-01  8.00000000E-01  1.50000000E+00  8.00000000E-01
  8.00000000E-01  1.50000000E+00  8.00000000E-01  8.00000000E-01  1.50000000E+00
  8.00000000E-01  8.00000000E-01  1.50000000E+00  8.00000000E-01  8.00000000E-01
  1.50000000E+00  8.00000000E-01  8.00000000E-01  1.50000000E+00  8.00000000E-01
  8.00000000E-01  1.50000000E+00  8.00000000E-01  8.00000000E-01  1.50000000E+00
  8.00000000E-01  8.00000000E-01  1.50000000E+00  8.00000000E-01  8.00000000E-01
  1.50000000E+00  8.00000000E-01  8.00000000E-01  1.50000000E+00  8.00000000E-01
  8.00000000E-01  1.50000000E+00  8.00000000E-01  8.00000000E-01  1.50000000E+00
  8.00000000E-01  8.00000000E-01  1.50000000E+00  8.00000000E-01  8.00000000E-01
  1.50000000E+00  8.00000000E-01  8.00000000E-01  1.50000000E+00  8.00000000E-01
  8.00000000E-01  1.50000000E+00  8.00000000E-01  8.00000000E-01  1.50000000E+00
  8.00000000E-01  8.00000000E-01  1.50000000E+00  8.00000000E-01  8.00000000E-01
  1.50000000E+00  8.00000000E-01  8.00000000E-01  1.50000000E+00  8.00000000E-01
  8.00000000E-01  1.50000000E+00  8.00000000E-01  8.00000000E-01  1.50000000E+00
  8.00000000E-01  8.00000000E-01  1.50000000E+00  8.00000000E-01  8.00000000E-01
  1.50000000E+00  8.00000000E-01  8.00000000E-01  1.50000000E+00  8.00000000E-01
  8.00000000E-01  1.50000000E+00  8.00000000E-01  8.00000000E-01  1.50000000E+00
  8.00000000E-01  8.00000000E-01  1.50000000E+00  8.00000000E-01  8.00000000E-01
  1.50000000E+00  8.00000000E-01  8.00000000E-01  1.50000000E+00  8.00000000E-01
  8.00000000E-01  1.50000000E+00  8.00000000E-01  8.00000000E-01  1.50000000E+00
  8.00000000E-01  8.00000000E-01  1.50000000E+00  8.00000000E-01  8.00000000E-01
  1.50000000E+00  8.00000000E-01  8.00000000E-01  1.50000000E+00  8.00000000E-01
  8.00000000E-01  1.50000000E+00  8.00000000E-01  8.00000000E-01  1.50000000E+00
  8.00000000E-01  8.00000000E-01  1.50000000E+00  8.00000000E-01  8.00000000E-01
  1.50000000E+00  8.00000000E-01  8.00000000E-01  1.50000000E+00  8.00000000E-01
  8.00000000E-01  1.50000000E+00  8.00000000E-01  8.00000000E-01  1.50000000E+00
  8.00000000E-01  8.00000000E-01  1.50000000E+00  8.00000000E-01  8.00000000E-01
  1.50000000E+00  8.00000000E-01  8.00000000E-01  1.50000000E+00  8.00000000E-01
  8.00000000E-01  1.50000000E+00  8.00000000E-01  8.00000000E-01  1.50000000E+00
  8.00000000E-01  8.00000000E-01  1.50000000E+00  8.00000000E-01  8.00000000E-01
  1.50000000E+00  8.00000000E-01  8.00000000E-01  1.50000000E+00  8.00000000E-01
  8.00000000E-01  1.50000000E+00  8.00000000E-01  8.00000000E-01  1.50000000E+00
  8.00000000E-01  8.00000000E-01  1.50000000E+00  8.00000000E-01  8.00000000E-01
  1.50000000E+00  8.00000000E-01  8.00000000E-01  1.50000000E+00  8.00000000E-01
  8.00000000E-01  1.50000000E+00  8.00000000E-01  8.00000000E-01  1.50000000E+00
  8.00000000E-01  8.00000000E-01  1.50000000E+00  8.00000000E-01  8.00000000E-01
  1.50000000E+00  8.00000000E-01  8.00000000E-01  1.50000000E+00  8.00000000E-01
  8.00000000E-01  1.50000000E+00  8.00000000E-01  8.00000000E-01  1.50000000E+00
  8.00000000E-01  8.00000000E-01  1.50000000E+00  8.00000000E-01  8.00000000E-01
  1.50000000E+00  8.00000000E-01  8.00000000E-01  1.50000000E+00  8.00000000E-01
  8.00000000E-01  1.50000000E+00  8.00000000E-01  8.00000000E-01  1.50000000E+00
  8.00000000E-01  8.00000000E-01  1.50000000E+00  8.00000000E-01  8.00000000E-01
  1.50000000E+00  8.00000000E-01  8.00000000E-01  1.50000000E+00  8.00000000E-01
  8.00000000E-01  1.50000000E+00  8.00000000E-01  8.00000000E-01  1.50000000E+00
  8.00000000E-01  8.00000000E-01  1.50000000E+00  8.00000000E-01  8.00000000E-01
  1.50000000E+00  8.00000000E-01  8.00000000E-01  1.50000000E+00  8.00000000E-01
  8.00000000E-01  1.50000000E+00  8.00000000E-01  8.00000000E-01  1.50000000E+00
  8.00000000E-01  8.00000000E-01  1.50000000E+00  8.00000000E-01  8.00000000E-01
  1.50000000E+00  8.00000000E-01  8.00000000E-01  1.50000000E+00  8.00000000E-01
  8.00000000E-01  1.50000000E+00  8.00000000E-01  8.00000000E-01  1.50000000E+00
  8.00000000E-01  8.00000000E-01  1.50000000E+00  8.00000000E-01  8.00000000E-01
  1.50000000E+00  8.00000000E-01  8.00000000E-01  1.50000000E+00  8.00000000E-01
  8.00000000E-01  1.50000000E+00  8.00000000E-01  8.00000000E-01  1.50000000E+00
  8.00000000E-01  8.00000000E-01  1.50000000E+00  8.00000000E-01  8.00000000E-01
  1.50000000E+00  8.00000000E-01  8.00000000E-01  1.50000000E+00  8.00000000E-01
  8.00000000E-01  1.50000000E+00  8.00000000E-01  8.00000000E-01  1.50000000E+00
  8.00000000E-01  8.00000000E-01  1.50000000E+00  8.00000000E-01  8.00000000E-01
  1.50000000E+00  8.00000000E-01  8.00000000E-01  1.50000000E+00  8.00000000E-01
  8.00000000E-01  1.50000000E+00  8.00000000E-01  8.00000000E-01  1.50000000E+00
  8.00000000E-01  8.00000000E-01  1.50000000E+00  8.00000000E-01  8.00000000E-01
  1.50000000E+00  8.00000000E-01  8.00000000E-01  1.50000000E+00  8.00000000E-01
  8.00000000E-01  1.50000000E+00  8.00000000E-01  8.00000000E-01  1.50000000E+00
  8.00000000E-01  8.00000000E-01  1.50000000E+00  8.00000000E-01  8.00000000E-01
  1.50000000E+00  8.00000000E-01  8.00000000E-01  1.50000000E+00  8.00000000E-01
  8.00000000E-01  1.50000000E+00  8.00000000E-01  8.00000000E-01  1.50000000E+00
  8.00000000E-01  8.00000000E-01  1.50000000E+00  8.00000000E-01  8.00000000E-01
  1.50000000E+00  8.00000000E-01  8.00000000E-01  1.50000000E+00  8.00000000E-01
  8.00000000E-01  1.50000000E+00  8.00000000E-01  8.00000000E-01  1.50000000E+00
  8.00000000E-01  8.00000000E-01  1.50000000E+00  8.00000000E-01  8.00000000E-01
  1.50000000E+00  8.00000000E-01  8.00000000E-01  1.50000000E+00  8.00000000E-01
  8.00000000E-01  1.50000000E+00  8.00000000E-01  8.00000000E-01  1.50000000E+00
  8.00000000E-01  8.00000000E-01  1.50000000E+00  8.00000000E-01  8.00000000E-01
  1.50000000E+00  8.00000000E-01  8.00000000E-01  1.50000000E+00  8.00000000E-01
  8.00000000E-01  1.50000000E+00  8.00000000E-01  8.00000000E-01  1.50000000E+00
  8.00000000E-01  8.00000000E-01  1.50000000E+00  8.00000000E-01  8.00000000E-01
  1.50000000E+00  8.00000000E-01  8.00000000E-01  1.50000000E+00  8.00000000E-01
  8.00000000E-01  1.50000000E+00  8.00000000E-01  8.00000000E-01  1.50000000E+00
  8.00000000E-01  8.00000000E-01  1.50000000E+00  8.00000000E-01  8.00000000E-01
  1.50000000E+00  8.00000000E-01  8.00000000E-01  1.50000000E+00  8.00000000E-01
  8.00000000E-01  1.50000000E+00  8.00000000E-01  8.00000000E-01  1.50000000E+00
  8.00000000E-01  8.00000000E-01  1.50000000E+00  8.00000000E-01  8.00000000E-01
  1.50000000E+00  8.00000000E-01  8.00000000E-01  1.50000000E+00  8.00000000E-01
  8.00000000E-01  1.50000000E+00  8.00000000E-01  8.00000000E-01  1.50000000E+00
  8.00000000E-01  8.00000000E-01  1.50000000E+00  8.00000000E-01  8.00000000E-01
  1.50000000E+00  8.00000000E-01  8.00000000E-01  1.50000000E+00  8.00000000E-01
  8.00000000E-01  1.50000000E+00  8.00000000E-01  8.00000000E-01  1.50000000E+00
  8.00000000E-01  8.00000000E-01  1.50000000E+00  8.00000000E-01  8.00000000E-01
  1.50000000E+00  8.00000000E-01  8.00000000E-01  1.50000000E+00  8.00000000E-01
  8.00000000E-01  1.50000000E+00  8.00000000E-01  8.00000000E-01  1.50000000E+00
  8.00000000E-01  8.00000000E-01  1.50000000E+00  8.00000000E-01  8.00000000E-01
  1.50000000E+00  8.00000000E-01  8.00000000E-01  1.50000000E+00  8.00000000E-01
  8.00000000E-01  1.50000000E+00  8.00000000E-01  8.00000000E-01  1.50000000E+00
  8.00000000E-01  8.00000000E-01  1.50000000E+00  8.00000000E-01  8.00000000E-01
  1.50000000E+00  8.00000000E-01  8.00000000E-01  1.50000000E+00  8.00000000E-01
  8.00000000E-01  1.50000000E+00  8.00000000E-01  8.00000000E-01  1.50000000E+00
  8.00000000E-01  8.00000000E-01  1.50000000E+00  8.00000000E-01  8.00000000E-01
  1.50000000E+00  8.00000000E-01  8.00000000E-01  1.50000000E+00  8.00000000E-01
  8.00000000E-01  1.50000000E+00  8.00000000E-01  8.00000000E-01  1.50000000E+00
  8.00000000E-01  8.00000000E-01  1.50000000E+00  8.00000000E-01  8.00000000E-01
  1.50000000E+00  8.00000000E-01  8.00000000E-01  1.50000000E+00  8.00000000E-01
  8.00000000E-01  1.50000000E+00  8.00000000E-01  8.00000000E-01  1.50000000E+00
  8.00000000E-01  8.00000000E-01  1.50000000E+00  8.00000000E-01  8.00000000E-01
  1.50000000E+00  8.00000000E-01  8.00000000E-01  1.50000000E+00  8.00000000E-01
  8.00000000E-01  1.50000000E+00  8.00000000E-01  8.00000000E-01  1.50000000E+00
  8.00000000E-01  8.00000000E-01  1.50000000E+00  8.00000000E-01  8.00000000E-01
  1.50000000E+00  8.00000000E-01  8.00000000E-01  1.50000000E+00  8.00000000E-01
  8.00000000E-01  1.50000000E+00  8.00000000E-01  8.00000000E-01  1.50000000E+00
  8.00000000E-01  8.00000000E-01  1.50000000E+00  8.00000000E-01  8.00000000E-01
  1.50000000E+00  8.00000000E-01  8.00000000E-01  1.50000000E+00  8.00000000E-01
  8.00000000E-01  1.50000000E+00  8.00000000E-01  8.00000000E-01  1.50000000E+00
  8.00000000E-01  8.00000000E-01  1.50000000E+00  8.00000000E-01  8.00000000E-01
  1.50000000E+00  8.00000000E-01  8.00000000E-01  1.50000000E+00  8.00000000E-01
  8.00000000E-01  1.50000000E+00  8.00000000E-01  8.00000000E-01  1.50000000E+00
  8.00000000E-01  8.00000000E-01  1.50000000E+00  8.00000000E-01  8.00000000E-01
  1.50000000E+00  8.00000000E-01  8.00000000E-01  1.50000000E+00  8.00000000E-01
  8.00000000E-01  1.50000000E+00  8.00000000E-01  8.00000000E-01  1.50000000E+00
  8.00000000E-01  8.00000000E-01  1.50000000E+00  8.00000000E-01  8.00000000E-01
  1.50000000E+00  8.00000000E-01  8.00000000E-01  1.50000000E+00  8.00000000E-01
  8.00000000E-01  1.50000000E+00  8.00000000E-01  8.00000000E-01  1.50000000E+00
  8.00000000E-01  8.00000000E-01  1.50000000E+00  8.00000000E-01  8.00000000E-01
  1.50000000E+00  8.00000000E-01  8.00000000E-01  1.50000000E+00  8.00000000E-01
  8.00000000E-01  1.50000000E+00  8.00000000E-01  8.00000000E-01  1.50000000E+00
  8.00000000E-01  8.00000000E-01  1.50000000E+00  8.00000000E-01  8.00000000E-01
  1.50000000E+00  8.00000000E-01  8.00000000E-01  1.50000000E+00  8.00000000E-01
  8.00000000E-01  1.50000000E+00  8.00000000E-01  8.00000000E-01  1.50000000E+00
  8.00000000E-01  8.00000000E-01  1.50000000E+00  8.00000000E-01  8.00000000E-01
  1.50000000E+00  8.00000000E-01  8.00000000E-01  1.50000000E+00  8.00000000E-01
  8.00000000E-01  1.50000000E+00  8.00000000E-01  8.00000000E-01  1.50000000E+00
  8.00000000E-01  8.00000000E-01  1.50000000E+00  8.00000000E-01  8.00000000E-01
  1.50000000E+00  8.00000000E-01  8.00000000E-01  1.50000000E+00  8.00000000E-01
  8.00000000E-01  1.50000000E+00  8.00000000E-01  8.00000000E-01  1.50000000E+00
  8.00000000E-01  8.00000000E-01  1.50000000E+00  8.00000000E-01  8.00000000E-01
  1.50000000E+00  8.00000000E-01  8.00000000E-01  1.50000000E+00  8.00000000E-01
  8.00000000E-01  1.50000000E+00  8.00000000E-01  8.00000000E-01  1.50000000E+00
  8.00000000E-01  8.00000000E-01  1.50000000E+00  8.00000000E-01  8.00000000E-01
  1.50000000E+00  8.00000000E-01  8.00000000E-01  1.50000000E+00  8.00000000E-01
  8.00000000E-01  1.50000000E+00  8.00000000E-01  8.00000000E-01  1.50000000E+00
  8.00000000E-01  8.00000000E-01  1.50000000E+00  8.00000000E-01  8.00000000E-01
  1.50000000E+00  8.00000000E-01  8.00000000E-01  1.50000000E+00  8.00000000E-01
  8.00000000E-01  1.50000000E+00  8.00000000E-01  8.00000000E-01  1.50000000E+00
  8.00000000E-01  8.00000000E-01  1.50000000E+00  8.00000000E-01  8.00000000E-01
  1.50000000E+00  8.00000000E-01  8.00000000E-01  1.50000000E+00  8.00000000E-01
  8.00000000E-01  1.50000000E+00  8.00000000E-01  8.00000000E-01  1.50000000E+00
  8.00000000E-01  8.00000000E-01  1.50000000E+00  8.00000000E-01  8.00000000E-01
  1.50000000E+00  8.00000000E-01  8.00000000E-01  1.50000000E+00  8.00000000E-01
  8.00000000E-01  1.50000000E+00  8.00000000E-01  8.00000000E-01  1.50000000E+00
  8.00000000E-01  8.00000000E-01  1.50000000E+00  8.00000000E-01  8.00000000E-01
  1.50000000E+00  8.00000000E-01  8.00000000E-01  1.50000000E+00  8.00000000E-01
  8.00000000E-01  1.50000000E+00  8.00000000E-01  8.00000000E-01  1.50000000E+00
  8.00000000E-01  8.00000000E-01  1.50000000E+00  8.00000000E-01  8.00000000E-01
  1.50000000E+00  8.00000000E-01  8.00000000E-01  1.50000000E+00  8.00000000E-01
  8.00000000E-01  1.50000000E+00  8.00000000E-01  8.00000000E-01  1.50000000E+00
  8.00000000E-01  8.00000000E-01  1.50000000E+00  8.00000000E-01  8.00000000E-01
  1.50000000E+00  8.00000000E-01  8.00000000E-01  1.50000000E+00  8.00000000E-01
  8.00000000E-01  1.50000000E+00  8.00000000E-01  8.00000000E-01  1.50000000E+00
  8.00000000E-01  8.00000000E-01  1.50000000E+00  8.00000000E-01  8.00000000E-01
  1.50000000E+00  8.00000000E-01  8.00000000E-01  1.50000000E+00  8.00000000E-01
  8.00000000E-01  1.50000000E+00  8.00000000E-01  8.00000000E-01  1.50000000E+00
  8.00000000E-01  8.00000000E-01  1.50000000E+00  8.00000000E-01  8.00000000E-01
  1.50000000E+00  8.00000000E-01  8.00000000E-01  1.50000000E+00  8.00000000E-01
  8.00000000E-01  1.50000000E+00  8.00000000E-01  8.00000000E-01  1.50000000E+00
  8.00000000E-01  8.00000000E-01  1.50000000E+00  8.00000000E-01  8.00000000E-01
  1.50000000E+00  8.00000000E-01  8.00000000E-01  1.50000000E+00  8.00000000E-01
  8.00000000E-01  1.50000000E+00  8.00000000E-01  8.00000000E-01  1.50000000E+00
  8.00000000E-01  8.00000000E-01  1.50000000E+00  8.00000000E-01  8.00000000E-01
  1.50000000E+00  8.00000000E-01  8.00000000E-01  1.50000000E+00  8.00000000E-01
  8.00000000E-01  1.50000000E+00  8.00000000E-01  8.00000000E-01  1.50000000E+00
  8.00000000E-01  8.00000000E-01  1.50000000E+00  8.00000000E-01  8.00000000E-01
  1.50000000E+00  8.00000000E-01  8.00000000E-01  1.50000000E+00  8.00000000E-01
  8.00000000E-01  1.50000000E+00  8.00000000E-01  8.00000000E-01  1.50000000E+00
  8.00000000E-01  8.00000000E-01  1.50000000E+00  8.00000000E-01  8.00000000E-01
  1.50000000E+00  8.00000000E-01  8.00000000E-01  1.50000000E+00  8.00000000E-01
  8.00000000E-01  1.50000000E+00  8.00000000E-01  8.00000000E-01  1.50000000E+00
  8.00000000E-01  8.00000000E-01  1.50000000E+00  8.00000000E-01  8.00000000E-01
  1.50000000E+00  8.00000000E-01  8.00000000E-01  1.50000000E+00  8.00000000E-01
  8.00000000E-01  1.50000000E+00  8.00000000E-01  8.00000000E-01  1.50000000E+00
  8.00000000E-01  8.00000000E-01  1.50000000E+00  8.00000000E-01  8.00000000E-01
  1.50000000E+00  8.00000000E-01  8.00000000E-01  1.50000000E+00  8.00000000E-01
  8.00000000E-01  1.50000000E+00  8.00000000E-01  8.00000000E-01  1.50000000E+00
  8.00000000E-01  8.00000000E-01  1.50000000E+00  8.00000000E-01  8.00000000E-01
  1.50000000E+00  8.00000000E-01  8.00000000E-01  1.50000000E+00  8.00000000E-01
  8.00000000E-01  1.50000000E+00  8.00000000E-01  8.00000000E-01  1.50000000E+00
  8.00000000E-01  8.00000000E-01  1.50000000E+00  8.00000000E-01  8.00000000E-01
  1.50000000E+00  8.00000000E-01  8.00000000E-01  1.50000000E+00  8.00000000E-01
  8.00000000E-01  1.50000000E+00  8.00000000E-01  8.00000000E-01  1.50000000E+00
  8.00000000E-01  8.00000000E-01  1.50000000E+00  8.00000000E-01  8.00000000E-01
  1.50000000E+00  8.00000000E-01  8.00000000E-01  1.50000000E+00  8.00000000E-01
  8.00000000E-01  1.50000000E+00  8.00000000E-01  8.00000000E-01  1.50000000E+00
  8.00000000E-01  8.00000000E-01  1.50000000E+00  8.00000000E-01  8.00000000E-01
  1.50000000E+00  8.00000000E-01  8.00000000E-01  1.50000000E+00  8.00000000E-01
  8.00000000E-01  1.50000000E+00  8.00000000E-01  8.00000000E-01  1.50000000E+00
  8.00000000E-01  8.00000000E-01  1.50000000E+00  8.00000000E-01  8.00000000E-01
  1.50000000E+00  8.00000000E-01  8.00000000E-01  1.50000000E+00  8.00000000E-01
  8.00000000E-01  1.50000000E+00  8.00000000E-01  8.00000000E-01  1.50000000E+00
  8.00000000E-01  8.00000000E-01  1.50000000E+00  8.00000000E-01  8.00000000E-01
  1.50000000E+00  8.00000000E-01  8.00000000E-01  1.50000000E+00  8.00000000E-01
  8.00000000E-01  1.50000000E+00  8.00000000E-01  8.00000000E-01  1.50000000E+00
  8.00000000E-01  8.00000000E-01  1.50000000E+00  8.00000000E-01  8.00000000E-01
  1.50000000E+00  8.00000000E-01  8.00000000E-01  1.50000000E+00  8.00000000E-01
  8.00000000E-01  1.50000000E+00  8.00000000E-01  8.00000000E-01  1.50000000E+00
  8.00000000E-01  8.00000000E-01  1.50000000E+00  8.00000000E-01  8.00000000E-01
  1.50000000E+00  8.00000000E-01  8.00000000E-01  1.50000000E+00  8.00000000E-01
  8.00000000E-01  1.50000000E+00  8.00000000E-01  8.00000000E-01  1.50000000E+00
  8.00000000E-01  8.00000000E-01  1.50000000E+00  8.00000000E-01  8.00000000E-01
  1.50000000E+00  8.00000000E-01  8.00000000E-01  1.50000000E+00  8.00000000E-01
  8.00000000E-01  1.50000000E+00  8.00000000E-01  8.00000000E-01  1.50000000E+00
  8.00000000E-01  8.00000000E-01  1.50000000E+00  8.00000000E-01  8.00000000E-01
  1.50000000E+00  8.00000000E-01  8.00000000E-01  1.50000000E+00  8.00000000E-01
  8.00000000E-01  1.50000000E+00  8.00000000E-01  8.00000000E-01  1.50000000E+00
  8.00000000E-01  8.00000000E-01  1.50000000E+00  8.00000000E-01  8.00000000E-01
  1.50000000E+00  8.00000000E-01  8.00000000E-01  1.50000000E+00  8.00000000E-01
  8.00000000E-01  1.50000000E+00  8.00000000E-01  8.00000000E-01  1.50000000E+00
  8.00000000E-01  8.00000000E-01  1.50000000E+00  8.00000000E-01  8.00000000E-01
  1.50000000E+00  8.00000000E-01  8.00000000E-01  1.50000000E+00  8.00000000E-01
  8.00000000E-01  1.50000000E+00  8.00000000E-01  8.00000000E-01  1.50000000E+00
  8.00000000E-01  8.00000000E-01  1.50000000E+00  8.00000000E-01  8.00000000E-01
  1.50000000E+00  8.00000000E-01  8.00000000E-01  1.50000000E+00  8.00000000E-01
  8.00000000E-01  1.50000000E+00  8.00000000E-01  8.00000000E-01  1.50000000E+00
  8.00000000E-01  8.00000000E-01  1.50000000E+00  8.00000000E-01  8.00000000E-01
  1.50000000E+00  8.00000000E-01  8.00000000E-01  1.50000000E+00  8.00000000E-01
  8.00000000E-01  1.50000000E+00  8.00000000E-01  8.00000000E-01  1.50000000E+00
  8.00000000E-01  8.00000000E-01  1.50000000E+00  8.00000000E-01  8.00000000E-01
  1.50000000E+00  8.00000000E-01  8.00000000E-01  1.50000000E+00  8.00000000E-01
  8.00000000E-01  1.50000000E+00  8.00000000E-01  8.00000000E-01  1.50000000E+00
  8.00000000E-01  8.00000000E-01  1.50000000E+00  8.00000000E-01  8.00000000E-01
  1.50000000E+00  8.00000000E-01  8.00000000E-01  1.50000000E+00  8.00000000E-01
  8.00000000E-01  1.50000000E+00  8.00000000E-01  8.00000000E-01  1.50000000E+00
  8.00000000E-01  8.00000000E-01  1.50000000E+00  8.00000000E-01  8.00000000E-01
  1.50000000E+00  8.00000000E-01  8.00000000E-01  1.50000000E+00  8.00000000E-01
  8.00000000E-01  1.50000000E+00  8.00000000E-01  8.00000000E-01  1.50000000E+00
  8.00000000E-01  8.00000000E-01  1.50000000E+00  8.00000000E-01  8.00000000E-01
  1.50000000E+00  8.00000000E-01  8.00000000E-01  1.50000000E+00  8.00000000E-01
  8.00000000E-01  1.50000000E+00  8.00000000E-01  8.00000000E-01  1.50000000E+00
  8.00000000E-01  8.00000000E-01  1.50000000E+00  8.00000000E-01  8.00000000E-01
  1.50000000E+00  8.00000000E-01  8.00000000E-01  1.50000000E+00  8.00000000E-01
  8.00000000E-01  1.50000000E+00  8.00000000E-01  8.00000000E-01  1.50000000E+00
  8.00000000E-01  8.00000000E-01  1.50000000E+00  8.00000000E-01  8.00000000E-01
  1.50000000E+00  8.00000000E-01  8.00000000E-01  1.50000000E+00  8.00000000E-01
  8.00000000E-01  1.50000000E+00  8.00000000E-01  8.00000000E-01  1.50000000E+00
  8.00000000E-01  8.00000000E-01  1.50000000E+00  8.00000000E-01  8.00000000E-01
  1.50000000E+00  8.00000000E-01  8.00000000E-01  1.50000000E+00  8.00000000E-01
  8.00000000E-01  1.50000000E+00  8.00000000E-01  8.00000000E-01  1.50000000E+00
  8.00000000E-01  8.00000000E-01  1.50000000E+00  8.00000000E-01  8.00000000E-01
  1.50000000E+00  8.00000000E-01  8.00000000E-01  1.50000000E+00  8.00000000E-01
  8.00000000E-01  1.50000000E+00  8.00000000E-01  8.00000000E-01  1.50000000E+00
  8.00000000E-01  8.00000000E-01  1.50000000E+00  8.00000000E-01  8.00000000E-01
  1.50000000E+00  8.00000000E-01  8.00000000E-01  1.50000000E+00  8.00000000E-01
  8.00000000E-01  1.50000000E+00  8.00000000E-01  8.00000000E-01  1.50000000E+00
  8.00000000E-01  8.00000000E-01  1.50000000E+00  8.00000000E-01  8.00000000E-01
  1.50000000E+00  8.00000000E-01  8.00000000E-01  1.50000000E+00  8.00000000E-01
  8.00000000E-01  1.50000000E+00  8.00000000E-01  8.00000000E-01  1.50000000E+00
  8.00000000E-01  8.00000000E-01  1.50000000E+00  8.00000000E-01  8.00000000E-01
  1.50000000E+00  8.00000000E-01  8.00000000E-01  1.50000000E+00  8.00000000E-01
  8.00000000E-01  1.50000000E+00  8.00000000E-01  8.00000000E-01  1.50000000E+00
  8.00000000E-01  8.00000000E-01  1.50000000E+00  8.00000000E-01  8.00000000E-01
  1.50000000E+00  8.00000000E-01  8.00000000E-01  1.50000000E+00  8.00000000E-01
  8.00000000E-01  1.50000000E+00  8.00000000E-01  8.00000000E-01  1.50000000E+00
  8.00000000E-01  8.00000000E-01  1.50000000E+00  8.00000000E-01  8.00000000E-01
  1.50000000E+00  8.00000000E-01  8.00000000E-01  1.50000000E+00  8.00000000E-01
  8.00000000E-01  1.50000000E+00  8.00000000E-01  8.00000000E-01  1.50000000E+00
  8.00000000E-01  8.00000000E-01  1.50000000E+00  8.00000000E-01  8.00000000E-01
  1.50000000E+00  8.00000000E-01  8.00000000E-01  1.50000000E+00  8.00000000E-01
  8.00000000E-01  1.50000000E+00  8.00000000E-01  8.00000000E-01  1.50000000E+00
  8.00000000E-01  8.00000000E-01  1.50000000E+00  8.00000000E-01  8.00000000E-01
  1.50000000E+00  8.00000000E-01  8.00000000E-01  1.50000000E+00  8.00000000E-01
  8.00000000E-01  1.50000000E+00  8.00000000E-01  8.00000000E-01  1.50000000E+00
  8.00000000E-01  8.00000000E-01  1.50000000E+00  8.00000000E-01  8.00000000E-01
  1.50000000E+00  8.00000000E-01  8.00000000E-01  1.50000000E+00  8.00000000E-01
  8.00000000E-01  1.50000000E+00  8.00000000E-01  8.00000000E-01  1.50000000E+00
  8.00000000E-01  8.00000000E-01  1.50000000E+00  8.00000000E-01  8.00000000E-01
  1.50000000E+00  8.00000000E-01  8.00000000E-01  1.50000000E+00  8.00000000E-01
  8.00000000E-01  1.50000000E+00  8.00000000E-01  8.00000000E-01  1.50000000E+00
  8.00000000E-01  8.00000000E-01  1.50000000E+00  8.00000000E-01  8.00000000E-01
  1.50000000E+00  8.00000000E-01  8.00000000E-01  1.50000000E+00  8.00000000E-01
  8.00000000E-01  1.50000000E+00  8.00000000E-01  8.00000000E-01  1.50000000E+00
  8.00000000E-01  8.00000000E-01  1.50000000E+00  8.00000000E-01  8.00000000E-01
  1.50000000E+00  8.00000000E-01  8.00000000E-01  1.50000000E+00  8.00000000E-01
  8.00000000E-01  1.50000000E+00  8.00000000E-01  8.00000000E-01  1.50000000E+00
  8.00000000E-01  8.00000000E-01  1.50000000E+00  8.00000000E-01  8.00000000E-01
  1.50000000E+00  8.00000000E-01  8.00000000E-01  1.50000000E+00  8.00000000E-01
  8.00000000E-01  1.50000000E+00  8.00000000E-01  8.00000000E-01  1.50000000E+00
  8.00000000E-01  8.00000000E-01  1.50000000E+00  8.00000000E-01  8.00000000E-01
  1.50000000E+00  8.00000000E-01  8.00000000E-01  1.50000000E+00  8.00000000E-01
  8.00000000E-01  1.50000000E+00  8.00000000E-01  8.00000000E-01  1.50000000E+00
  8.00000000E-01  8.00000000E-01  1.50000000E+00  8.00000000E-01  8.00000000E-01
  1.50000000E+00  8.00000000E-01  8.00000000E-01  1.50000000E+00  8.00000000E-01
  8.00000000E-01  1.50000000E+00  8.00000000E-01  8.00000000E-01  1.50000000E+00
  8.00000000E-01  8.00000000E-01  1.50000000E+00  8.00000000E-01  8.00000000E-01
  1.50000000E+00  8.00000000E-01  8.00000000E-01  1.50000000E+00  8.00000000E-01
  8.00000000E-01  1.50000000E+00  8.00000000E-01  8.00000000E-01  1.50000000E+00
  8.00000000E-01  8.00000000E-01  1.50000000E+00  8.00000000E-01  8.00000000E-01
  1.50000000E+00  8.00000000E-01  8.00000000E-01  1.50000000E+00  8.00000000E-01
  8.00000000E-01  1.50000000E+00  8.00000000E-01  8.00000000E-01  1.50000000E+00
  8.00000000E-01  8.00000000E-01  1.50000000E+00  8.00000000E-01  8.00000000E-01
  1.50000000E+00  8.00000000E-01  8.00000000E-01  1.50000000E+00  8.00000000E-01
  8.00000000E-01  1.50000000E+00  8.00000000E-01  8.00000000E-01  1.50000000E+00
  8.00000000E-01  8.00000000E-01  1.50000000E+00  8.00000000E-01  8.00000000E-01
  1.50000000E+00  8.00000000E-01  8.00000000E-01  1.50000000E+00  8.00000000E-01
  8.00000000E-01  1.50000000E+00  8.00000000E-01  8.00000000E-01  1.50000000E+00
  8.00000000E-01  8.00000000E-01  1.50000000E+00  8.00000000E-01  8.00000000E-01
  1.50000000E+00  8.00000000E-01  8.00000000E-01  1.50000000E+00  8.00000000E-01
  8.00000000E-01  1.50000000E+00  8.00000000E-01  8.00000000E-01  1.50000000E+00
  8.00000000E-01  8.00000000E-01  1.50000000E+00  8.00000000E-01  8.00000000E-01
  1.50000000E+00  8.00000000E-01  8.00000000E-01  1.50000000E+00  8.00000000E-01
  8.00000000E-01  1.50000000E+00  8.00000000E-01  8.00000000E-01  1.50000000E+00
  8.00000000E-01  8.00000000E-01  1.50000000E+00  8.00000000E-01  8.00000000E-01
  1.50000000E+00  8.00000000E-01  8.00000000E-01  1.50000000E+00  8.00000000E-01
  8.00000000E-01  1.50000000E+00  8.00000000E-01  8.00000000E-01  1.50000000E+00
  8.00000000E-01  8.00000000E-01  1.50000000E+00  8.00000000E-01  8.00000000E-01
  1.50000000E+00  8.00000000E-01  8.00000000E-01  1.50000000E+00  8.00000000E-01
  8.00000000E-01  1.50000000E+00  8.00000000E-01  8.00000000E-01  1.50000000E+00
  8.00000000E-01  8.00000000E-01  1.50000000E+00  8.00000000E-01  8.00000000E-01
  1.50000000E+00  8.00000000E-01  8.00000000E-01  1.50000000E+00  8.00000000E-01
  8.00000000E-01  1.50000000E+00  8.00000000E-01  8.00000000E-01  1.50000000E+00
  8.00000000E-01  8.00000000E-01  1.50000000E+00  8.00000000E-01  8.00000000E-01
  1.50000000E+00  8.00000000E-01  8.00000000E-01  1.50000000E+00  8.00000000E-01
  8.00000000E-01  1.50000000E+00  8.00000000E-01  8.00000000E-01  1.50000000E+00
  8.00000000E-01  8.00000000E-01  1.50000000E+00  8.00000000E-01  8.00000000E-01
  1.50000000E+00  8.00000000E-01  8.00000000E-01  1.50000000E+00  8.00000000E-01
  8.00000000E-01  1.50000000E+00  8.00000000E-01  8.00000000E-01  1.50000000E+00
  8.00000000E-01  8.00000000E-01  1.50000000E+00  8.00000000E-01  8.00000000E-01
  1.50000000E+00  8.00000000E-01  8.00000000E-01  1.50000000E+00  8.00000000E-01
  8.00000000E-01  1.50000000E+00  8.00000000E-01  8.00000000E-01  1.50000000E+00
  8.00000000E-01  8.00000000E-01  1.50000000E+00  8.00000000E-01  8.00000000E-01
  1.50000000E+00  8.00000000E-01  8.00000000E-01  1.50000000E+00  8.00000000E-01
  8.00000000E-01  1.50000000E+00  8.00000000E-01  8.00000000E-01  1.50000000E+00
  8.00000000E-01  8.00000000E-01  1.50000000E+00  8.00000000E-01  8.00000000E-01
  1.50000000E+00  8.00000000E-01  8.00000000E-01  1.50000000E+00  8.00000000E-01
  8.00000000E-01  1.50000000E+00  8.00000000E-01  8.00000000E-01  1.50000000E+00
  8.00000000E-01  8.00000000E-01  1.50000000E+00  8.00000000E-01  8.00000000E-01
  1.50000000E+00  8.00000000E-01  8.00000000E-01  1.50000000E+00  8.00000000E-01
  8.00000000E-01  1.50000000E+00  8.00000000E-01  8.00000000E-01  1.50000000E+00
  8.00000000E-01  8.00000000E-01  1.50000000E+00  8.00000000E-01  8.00000000E-01
  1.50000000E+00  8.00000000E-01  8.00000000E-01  1.50000000E+00  8.00000000E-01
  8.00000000E-01  1.50000000E+00  8.00000000E-01  8.00000000E-01  1.50000000E+00
  8.00000000E-01  8.00000000E-01  1.50000000E+00  8.00000000E-01  8.00000000E-01
  1.50000000E+00  8.00000000E-01  8.00000000E-01  1.50000000E+00  8.00000000E-01
  8.00000000E-01  1.50000000E+00  8.00000000E-01  8.00000000E-01  1.50000000E+00
  8.00000000E-01  8.00000000E-01  1.50000000E+00  8.00000000E-01  8.00000000E-01
  1.50000000E+00  8.00000000E-01  8.00000000E-01  1.50000000E+00  8.00000000E-01
  8.00000000E-01  1.50000000E+00  8.00000000E-01  8.00000000E-01  1.50000000E+00
  8.00000000E-01  8.00000000E-01  1.50000000E+00  8.00000000E-01  8.00000000E-01
  1.50000000E+00  8.00000000E-01  8.00000000E-01  1.50000000E+00  8.00000000E-01
  8.00000000E-01  1.50000000E+00  8.00000000E-01  8.00000000E-01  1.50000000E+00
  8.00000000E-01  8.00000000E-01  1.50000000E+00  8.00000000E-01  8.00000000E-01
  1.50000000E+00  8.00000000E-01  8.00000000E-01  1.50000000E+00  8.00000000E-01
  8.00000000E-01  1.50000000E+00  8.00000000E-01  8.00000000E-01  1.50000000E+00
  8.00000000E-01  8.00000000E-01  1.50000000E+00  8.00000000E-01  8.00000000E-01
  1.50000000E+00  8.00000000E-01  8.00000000E-01  1.50000000E+00  8.00000000E-01
  8.00000000E-01  1.50000000E+00  8.00000000E-01  8.00000000E-01  1.50000000E+00
  8.00000000E-01  8.00000000E-01  1.50000000E+00  8.00000000E-01  8.00000000E-01
  1.50000000E+00  8.00000000E-01  8.00000000E-01  1.50000000E+00  8.00000000E-01
  8.00000000E-01  1.50000000E+00  8.00000000E-01  8.00000000E-01  1.50000000E+00
  8.00000000E-01  8.00000000E-01  1.50000000E+00  8.00000000E-01  8.00000000E-01
  1.50000000E+00  8.00000000E-01  8.00000000E-01  1.50000000E+00  8.00000000E-01
  8.00000000E-01  1.50000000E+00  8.00000000E-01  8.00000000E-01  1.50000000E+00
  8.00000000E-01  8.00000000E-01  1.50000000E+00  8.00000000E-01  8.00000000E-01
  1.50000000E+00  8.00000000E-01  8.00000000E-01  1.50000000E+00  8.00000000E-01
  8.00000000E-01  1.50000000E+00  8.00000000E-01  8.00000000E-01  1.50000000E+00
  8.00000000E-01  8.00000000E-01  1.50000000E+00  8.00000000E-01  8.00000000E-01
  1.50000000E+00  8.00000000E-01  8.00000000E-01  1.50000000E+00  8.00000000E-01
  8.00000000E-01  1.50000000E+00  8.00000000E-01  8.00000000E-01  1.50000000E+00
  8.00000000E-01  8.00000000E-01  1.50000000E+00  8.00000000E-01  8.00000000E-01
  1.50000000E+00  8.00000000E-01  8.00000000E-01  1.50000000E+00  8.00000000E-01
  8.00000000E-01  1.50000000E+00  8.00000000E-01  8.00000000E-01  1.50000000E+00
  8.00000000E-01  8.00000000E-01  1.50000000E+00  8.00000000E-01  8.00000000E-01
  1.50000000E+00  8.00000000E-01  8.00000000E-01  1.50000000E+00  8.00000000E-01
  8.00000000E-01  1.50000000E+00  8.00000000E-01  8.00000000E-01  1.50000000E+00
  8.00000000E-01  8.00000000E-01  1.50000000E+00  8.00000000E-01  8.00000000E-01
  1.50000000E+00  8.00000000E-01  8.00000000E-01  1.50000000E+00  8.00000000E-01
  8.00000000E-01  1.50000000E+00  8.00000000E-01  8.00000000E-01  1.50000000E+00
  8.00000000E-01  8.00000000E-01  1.50000000E+00  8.00000000E-01  8.00000000E-01
  1.50000000E+00  8.00000000E-01  8.00000000E-01  1.50000000E+00  8.00000000E-01
  8.00000000E-01  1.50000000E+00  8.00000000E-01  8.00000000E-01  1.50000000E+00
  8.00000000E-01  8.00000000E-01  1.50000000E+00  8.00000000E-01  8.00000000E-01
  1.50000000E+00  8.00000000E-01  8.00000000E-01  1.50000000E+00  8.00000000E-01
  8.00000000E-01  1.50000000E+00  8.00000000E-01  8.00000000E-01  1.50000000E+00
  8.00000000E-01  8.00000000E-01  1.50000000E+00  8.00000000E-01  8.00000000E-01
  1.50000000E+00  8.00000000E-01  8.00000000E-01  1.50000000E+00  8.00000000E-01
  8.00000000E-01  1.50000000E+00  8.00000000E-01  8.00000000E-01  1.50000000E+00
  8.00000000E-01  8.00000000E-01  1.50000000E+00  8.00000000E-01  8.00000000E-01
  1.50000000E+00  8.00000000E-01  8.00000000E-01  1.50000000E+00  8.00000000E-01
  8.00000000E-01  1.50000000E+00  8.00000000E-01  8.00000000E-01  1.50000000E+00
  8.00000000E-01  8.00000000E-01  1.50000000E+00  8.00000000E-01  8.00000000E-01
  1.50000000E+00  8.00000000E-01  8.00000000E-01  1.50000000E+00  8.00000000E-01
  8.00000000E-01  1.50000000E+00  8.00000000E-01  8.00000000E-01  1.50000000E+00
  8.00000000E-01  8.00000000E-01  1.50000000E+00  8.00000000E-01  8.00000000E-01
  1.50000000E+00  8.00000000E-01  8.00000000E-01  1.50000000E+00  8.00000000E-01
  8.00000000E-01  1.50000000E+00  8.00000000E-01  8.00000000E-01  1.50000000E+00
  8.00000000E-01  8.00000000E-01  1.50000000E+00  8.00000000E-01  8.00000000E-01
  1.50000000E+00  8.00000000E-01  8.00000000E-01  1.50000000E+00  8.00000000E-01
  8.00000000E-01  1.50000000E+00  8.00000000E-01  8.00000000E-01  1.50000000E+00
  8.00000000E-01  8.00000000E-01  1.50000000E+00  8.00000000E-01  8.00000000E-01
  1.50000000E+00  8.00000000E-01  8.00000000E-01  1.50000000E+00  8.00000000E-01
  8.00000000E-01  1.50000000E+00  8.00000000E-01  8.00000000E-01  1.50000000E+00
  8.00000000E-01  8.00000000E-01  1.50000000E+00  8.00000000E-01  8.00000000E-01
  1.50000000E+00  8.00000000E-01  8.00000000E-01  1.50000000E+00  8.00000000E-01
  8.00000000E-01  1.50000000E+00  8.00000000E-01  8.00000000E-01  1.50000000E+00
  8.00000000E-01  8.00000000E-01  1.50000000E+00  8.00000000E-01  8.00000000E-01
  1.50000000E+00  8.00000000E-01  8.00000000E-01  1.50000000E+00  8.00000000E-01
  8.00000000E-01  1.50000000E+00  8.00000000E-01  8.00000000E-01  1.50000000E+00
  8.00000000E-01  8.00000000E-01  1.50000000E+00  8.00000000E-01  8.00000000E-01
  1.50000000E+00  8.00000000E-01  8.00000000E-01  1.50000000E+00  8.00000000E-01
  8.00000000E-01  1.50000000E+00  8.00000000E-01  8.00000000E-01  1.50000000E+00
  8.00000000E-01  8.00000000E-01  1.50000000E+00  8.00000000E-01  8.00000000E-01
  1.50000000E+00  8.00000000E-01  8.00000000E-01  1.50000000E+00  8.00000000E-01
  8.00000000E-01  1.50000000E+00  8.00000000E-01  8.00000000E-01  1.50000000E+00
  8.00000000E-01  8.00000000E-01  1.50000000E+00  8.00000000E-01  8.00000000E-01
  1.50000000E+00  8.00000000E-01  8.00000000E-01  1.50000000E+00  8.00000000E-01
  8.00000000E-01  1.50000000E+00  8.00000000E-01  8.00000000E-01  1.50000000E+00
  8.00000000E-01  8.00000000E-01  1.50000000E+00  8.00000000E-01  8.00000000E-01
  1.50000000E+00  8.00000000E-01  8.00000000E-01  1.50000000E+00  8.00000000E-01
  8.00000000E-01  1.50000000E+00  8.00000000E-01  8.00000000E-01  1.50000000E+00
  8.00000000E-01  8.00000000E-01  1.50000000E+00  8.00000000E-01  8.00000000E-01
  1.50000000E+00  8.00000000E-01  8.00000000E-01  1.50000000E+00  8.00000000E-01
  8.00000000E-01  1.50000000E+00  8.00000000E-01  8.00000000E-01  1.50000000E+00
  8.00000000E-01  8.00000000E-01  1.50000000E+00  8.00000000E-01  8.00000000E-01
  1.50000000E+00  8.00000000E-01  8.00000000E-01  1.50000000E+00  8.00000000E-01
  8.00000000E-01  1.50000000E+00  8.00000000E-01  8.00000000E-01  1.50000000E+00
  8.00000000E-01  8.00000000E-01  1.50000000E+00  8.00000000E-01  8.00000000E-01
  1.50000000E+00  8.00000000E-01  8.00000000E-01  1.50000000E+00  8.00000000E-01
  8.00000000E-01  1.50000000E+00  8.00000000E-01  8.00000000E-01  1.50000000E+00
  8.00000000E-01  8.00000000E-01  1.50000000E+00  8.00000000E-01  8.00000000E-01
  1.50000000E+00  8.00000000E-01  8.00000000E-01  1.50000000E+00  8.00000000E-01
  8.00000000E-01  1.50000000E+00  8.00000000E-01  8.00000000E-01  1.50000000E+00
  8.00000000E-01  8.00000000E-01  1.50000000E+00  8.00000000E-01  8.00000000E-01
  1.50000000E+00  8.00000000E-01  8.00000000E-01  1.50000000E+00  8.00000000E-01
  8.00000000E-01  1.50000000E+00  8.00000000E-01  8.00000000E-01  1.50000000E+00
  8.00000000E-01  8.00000000E-01  1.50000000E+00  8.00000000E-01  8.00000000E-01
  1.50000000E+00  8.00000000E-01  8.00000000E-01  1.50000000E+00  8.00000000E-01
  8.00000000E-01  1.50000000E+00  8.00000000E-01  8.00000000E-01  1.50000000E+00
  8.00000000E-01  8.00000000E-01  1.50000000E+00  8.00000000E-01  8.00000000E-01
  1.50000000E+00  8.00000000E-01  8.00000000E-01  1.50000000E+00  8.00000000E-01
  8.00000000E-01  1.50000000E+00  8.00000000E-01  8.00000000E-01  1.50000000E+00
  8.00000000E-01  8.00000000E-01  1.50000000E+00  8.00000000E-01  8.00000000E-01
  1.50000000E+00  8.00000000E-01  8.00000000E-01  1.50000000E+00  8.00000000E-01
  8.00000000E-01  1.50000000E+00  8.00000000E-01  8.00000000E-01  1.50000000E+00
  8.00000000E-01  8.00000000E-01  1.50000000E+00  8.00000000E-01  8.00000000E-01
  1.50000000E+00  8.00000000E-01  8.00000000E-01  1.50000000E+00  8.00000000E-01
  8.00000000E-01  1.50000000E+00  8.00000000E-01  8.00000000E-01  1.50000000E+00
  8.00000000E-01  8.00000000E-01  1.50000000E+00  8.00000000E-01  8.00000000E-01
  1.50000000E+00  8.00000000E-01  8.00000000E-01  1.50000000E+00  8.00000000E-01
  8.00000000E-01  1.50000000E+00  8.00000000E-01  8.00000000E-01  1.50000000E+00
  8.00000000E-01  8.00000000E-01  1.50000000E+00  8.00000000E-01  8.00000000E-01
  1.50000000E+00  8.00000000E-01  8.00000000E-01  1.50000000E+00  8.00000000E-01
  8.00000000E-01  1.50000000E+00  8.00000000E-01  8.00000000E-01  1.50000000E+00
  8.00000000E-01  8.00000000E-01  1.50000000E+00  8.00000000E-01  8.00000000E-01
  1.50000000E+00  8.00000000E-01  8.00000000E-01  1.50000000E+00  8.00000000E-01
  8.00000000E-01  1.50000000E+00  8.00000000E-01  8.00000000E-01  1.50000000E+00
  8.00000000E-01  8.00000000E-01  1.50000000E+00  8.00000000E-01  8.00000000E-01
  1.50000000E+00  8.00000000E-01  8.00000000E-01  1.50000000E+00  8.00000000E-01
  8.00000000E-01  1.50000000E+00  8.00000000E-01  8.00000000E-01  1.50000000E+00
  8.00000000E-01  8.00000000E-01  1.50000000E+00  8.00000000E-01  8.00000000E-01
  1.50000000E+00  8.00000000E-01  8.00000000E-01  1.50000000E+00  8.00000000E-01
  8.00000000E-01  1.50000000E+00  8.00000000E-01  8.00000000E-01  1.50000000E+00
  8.00000000E-01  8.00000000E-01  1.50000000E+00  8.00000000E-01  8.00000000E-01
  1.50000000E+00  8.00000000E-01  8.00000000E-01  1.50000000E+00  8.00000000E-01
  8.00000000E-01  1.50000000E+00  8.00000000E-01  8.00000000E-01  1.50000000E+00
  8.00000000E-01  8.00000000E-01  1.50000000E+00  8.00000000E-01  8.00000000E-01
  1.50000000E+00  8.00000000E-01  8.00000000E-01  1.50000000E+00  8.00000000E-01
  8.00000000E-01  1.50000000E+00  8.00000000E-01  8.00000000E-01  1.50000000E+00
  8.00000000E-01  8.00000000E-01  1.50000000E+00  8.00000000E-01  8.00000000E-01
  1.50000000E+00  8.00000000E-01  8.00000000E-01  1.50000000E+00  8.00000000E-01
  8.00000000E-01  1.50000000E+00  8.00000000E-01  8.00000000E-01  1.50000000E+00
  8.00000000E-01  8.00000000E-01  1.50000000E+00  8.00000000E-01  8.00000000E-01
  1.50000000E+00  8.00000000E-01  8.00000000E-01  1.50000000E+00  8.00000000E-01
  8.00000000E-01  1.50000000E+00  8.00000000E-01  8.00000000E-01  1.50000000E+00
  8.00000000E-01  8.00000000E-01  1.50000000E+00  8.00000000E-01  8.00000000E-01
  1.50000000E+00  8.00000000E-01  8.00000000E-01  1.50000000E+00  8.00000000E-01
  8.00000000E-01  1.50000000E+00  8.00000000E-01  8.00000000E-01  1.50000000E+00
  8.00000000E-01  8.00000000E-01  1.50000000E+00  8.00000000E-01  8.00000000E-01
  1.50000000E+00  8.00000000E-01  8.00000000E-01  1.50000000E+00  8.00000000E-01
  8.00000000E-01  1.50000000E+00  8.00000000E-01  8.00000000E-01  1.50000000E+00
  8.00000000E-01  8.00000000E-01  1.50000000E+00  8.00000000E-01  8.00000000E-01
  1.50000000E+00  8.00000000E-01  8.00000000E-01  1.50000000E+00  8.00000000E-01
  8.00000000E-01  1.50000000E+00  8.00000000E-01  8.00000000E-01  1.50000000E+00
  8.00000000E-01  8.00000000E-01  1.50000000E+00  8.00000000E-01  8.00000000E-01
  1.50000000E+00  8.00000000E-01  8.00000000E-01  1.50000000E+00  8.00000000E-01
  8.00000000E-01  1.50000000E+00  8.00000000E-01  8.00000000E-01  1.50000000E+00
  8.00000000E-01  8.00000000E-01  1.50000000E+00  8.00000000E-01  8.00000000E-01
  1.50000000E+00  8.00000000E-01  8.00000000E-01  1.50000000E+00  8.00000000E-01
  8.00000000E-01  1.50000000E+00  8.00000000E-01  8.00000000E-01  1.50000000E+00
  8.00000000E-01  8.00000000E-01  1.50000000E+00  8.00000000E-01  8.00000000E-01
  1.50000000E+00  8.00000000E-01  8.00000000E-01  1.50000000E+00  8.00000000E-01
  8.00000000E-01  1.50000000E+00  8.00000000E-01  8.00000000E-01  1.50000000E+00
  8.00000000E-01  8.00000000E-01  1.50000000E+00  8.00000000E-01  8.00000000E-01
  1.50000000E+00  8.00000000E-01  8.00000000E-01  1.50000000E+00  8.00000000E-01
  8.00000000E-01  1.50000000E+00  8.00000000E-01  8.00000000E-01  1.50000000E+00
  8.00000000E-01  8.00000000E-01  1.50000000E+00  8.00000000E-01  8.00000000E-01
  1.50000000E+00  8.00000000E-01  8.00000000E-01  1.50000000E+00  8.00000000E-01
  8.00000000E-01  1.50000000E+00  8.00000000E-01  8.00000000E-01  1.50000000E+00
  8.00000000E-01  8.00000000E-01  1.50000000E+00  8.00000000E-01  8.00000000E-01
  1.50000000E+00  8.00000000E-01  8.00000000E-01  1.50000000E+00  8.00000000E-01
  8.00000000E-01  1.50000000E+00  8.00000000E-01  8.00000000E-01  1.50000000E+00
  8.00000000E-01  8.00000000E-01  1.50000000E+00  8.00000000E-01  8.00000000E-01
  1.50000000E+00  8.00000000E-01  8.00000000E-01  1.50000000E+00  8.00000000E-01
  8.00000000E-01  1.50000000E+00  8.00000000E-01  8.00000000E-01  1.50000000E+00
  8.00000000E-01  8.00000000E-01  1.50000000E+00  8.00000000E-01  8.00000000E-01
  1.50000000E+00  8.00000000E-01  8.00000000E-01  1.50000000E+00  8.00000000E-01
  8.00000000E-01  1.50000000E+00  8.00000000E-01  8.00000000E-01  1.50000000E+00
  8.00000000E-01  8.00000000E-01  1.50000000E+00  8.00000000E-01  8.00000000E-01
  1.50000000E+00  8.00000000E-01  8.00000000E-01  1.50000000E+00  8.00000000E-01
  8.00000000E-01  1.50000000E+00  8.00000000E-01  8.00000000E-01  1.50000000E+00
  8.00000000E-01  8.00000000E-01  1.50000000E+00  8.00000000E-01  8.00000000E-01
  1.50000000E+00  8.00000000E-01  8.00000000E-01  1.50000000E+00  8.00000000E-01
  8.00000000E-01  1.50000000E+00  8.00000000E-01  8.00000000E-01  1.50000000E+00
  8.00000000E-01  8.00000000E-01  1.50000000E+00  8.00000000E-01  8.00000000E-01
  1.50000000E+00  8.00000000E-01  8.00000000E-01  1.50000000E+00  8.00000000E-01
  8.00000000E-01  1.50000000E+00  8.00000000E-01  8.00000000E-01  1.50000000E+00
  8.00000000E-01  8.00000000E-01  1.50000000E+00  8.00000000E-01  8.00000000E-01
  1.50000000E+00  8.00000000E-01  8.00000000E-01  1.50000000E+00  8.00000000E-01
  8.00000000E-01  1.50000000E+00  8.00000000E-01  8.00000000E-01  1.50000000E+00
  8.00000000E-01  8.00000000E-01  1.50000000E+00  8.00000000E-01  8.00000000E-01
  1.50000000E+00  8.00000000E-01  8.00000000E-01  1.50000000E+00  8.00000000E-01
  8.00000000E-01  1.50000000E+00  8.00000000E-01  8.00000000E-01  1.50000000E+00
  8.00000000E-01  8.00000000E-01  1.50000000E+00  8.00000000E-01  8.00000000E-01
  1.50000000E+00  8.00000000E-01  8.00000000E-01  1.50000000E+00  8.00000000E-01
  8.00000000E-01  1.50000000E+00  8.00000000E-01  8.00000000E-01  1.50000000E+00
  8.00000000E-01  8.00000000E-01  1.50000000E+00  8.00000000E-01  8.00000000E-01
  1.50000000E+00  8.00000000E-01  8.00000000E-01  1.50000000E+00  8.00000000E-01
  8.00000000E-01  1.50000000E+00  8.00000000E-01  8.00000000E-01  1.50000000E+00
  8.00000000E-01  8.00000000E-01  1.50000000E+00  8.00000000E-01  8.00000000E-01
  1.50000000E+00  8.00000000E-01  8.00000000E-01  1.50000000E+00  8.00000000E-01
  8.00000000E-01  1.50000000E+00  8.00000000E-01  8.00000000E-01  1.50000000E+00
  8.00000000E-01  8.00000000E-01  1.50000000E+00  8.00000000E-01  8.00000000E-01
  1.50000000E+00  8.00000000E-01  8.00000000E-01  1.50000000E+00  8.00000000E-01
  8.00000000E-01  1.50000000E+00  8.00000000E-01  8.00000000E-01  1.50000000E+00
  8.00000000E-01  8.00000000E-01  1.50000000E+00  8.00000000E-01  8.00000000E-01
  1.50000000E+00  8.00000000E-01  8.00000000E-01  1.50000000E+00  8.00000000E-01
  8.00000000E-01  1.50000000E+00  8.00000000E-01  8.00000000E-01  1.50000000E+00
  8.00000000E-01  8.00000000E-01  1.50000000E+00  8.00000000E-01  8.00000000E-01
  1.50000000E+00  8.00000000E-01  8.00000000E-01  1.50000000E+00  8.00000000E-01
  8.00000000E-01  1.50000000E+00  8.00000000E-01  8.00000000E-01  1.50000000E+00
  8.00000000E-01  8.00000000E-01  1.50000000E+00  8.00000000E-01  8.00000000E-01
  1.50000000E+00  8.00000000E-01  8.00000000E-01  1.50000000E+00  8.00000000E-01
  8.00000000E-01  1.50000000E+00  8.00000000E-01  8.00000000E-01  1.50000000E+00
  8.00000000E-01  8.00000000E-01  1.50000000E+00  8.00000000E-01  8.00000000E-01
  1.50000000E+00  8.00000000E-01  8.00000000E-01  1.50000000E+00  8.00000000E-01
  8.00000000E-01  1.50000000E+00  8.00000000E-01  8.00000000E-01  1.50000000E+00
  8.00000000E-01  8.00000000E-01  1.50000000E+00  8.00000000E-01  8.00000000E-01
  1.50000000E+00  8.00000000E-01  8.00000000E-01  1.50000000E+00  8.00000000E-01
  8.00000000E-01  1.50000000E+00  8.00000000E-01  8.00000000E-01  1.50000000E+00
  8.00000000E-01  8.00000000E-01  1.50000000E+00  8.00000000E-01  8.00000000E-01
  1.50000000E+00  8.00000000E-01  8.00000000E-01  1.50000000E+00  8.00000000E-01
  8.00000000E-01  1.50000000E+00  8.00000000E-01  8.00000000E-01  1.50000000E+00
  8.00000000E-01  8.00000000E-01  1.50000000E+00  8.00000000E-01  8.00000000E-01
  1.50000000E+00  8.00000000E-01  8.00000000E-01  1.50000000E+00  8.00000000E-01
  8.00000000E-01  1.50000000E+00  8.00000000E-01  8.00000000E-01  1.50000000E+00
  8.00000000E-01  8.00000000E-01  1.50000000E+00  8.00000000E-01  8.00000000E-01
  1.50000000E+00  8.00000000E-01  8.00000000E-01  1.50000000E+00  8.00000000E-01
  8.00000000E-01  1.50000000E+00  8.00000000E-01  8.00000000E-01  1.50000000E+00
  8.00000000E-01  8.00000000E-01  1.50000000E+00  8.00000000E-01  8.00000000E-01
  1.50000000E+00  8.00000000E-01  8.00000000E-01  1.50000000E+00  8.00000000E-01
  8.00000000E-01  1.50000000E+00  8.00000000E-01  8.00000000E-01  1.50000000E+00
  8.00000000E-01  8.00000000E-01  1.50000000E+00  8.00000000E-01  8.00000000E-01
  1.50000000E+00  8.00000000E-01  8.00000000E-01  1.50000000E+00  8.00000000E-01
  8.00000000E-01  1.50000000E+00  8.00000000E-01  8.00000000E-01  1.50000000E+00
  8.00000000E-01  8.00000000E-01  1.50000000E+00  8.00000000E-01  8.00000000E-01
  1.50000000E+00  8.00000000E-01  8.00000000E-01  1.50000000E+00  8.00000000E-01
  8.00000000E-01  1.50000000E+00  8.00000000E-01  8.00000000E-01  1.50000000E+00
  8.00000000E-01  8.00000000E-01  1.50000000E+00  8.00000000E-01  8.00000000E-01
  1.50000000E+00  8.00000000E-01  8.00000000E-01  1.50000000E+00  8.00000000E-01
  8.00000000E-01  1.50000000E+00  8.00000000E-01  8.00000000E-01  1.50000000E+00
  8.00000000E-01  8.00000000E-01  1.50000000E+00  8.00000000E-01  8.00000000E-01
  1.50000000E+00  8.00000000E-01  8.00000000E-01  1.50000000E+00  8.00000000E-01
  8.00000000E-01  1.50000000E+00  8.00000000E-01  8.00000000E-01  1.50000000E+00
  8.00000000E-01  8.00000000E-01  1.50000000E+00  8.00000000E-01  8.00000000E-01
  1.50000000E+00  8.00000000E-01  8.00000000E-01  1.50000000E+00  8.00000000E-01
  8.00000000E-01  1.50000000E+00  8.00000000E-01  8.00000000E-01  1.50000000E+00
  8.00000000E-01  8.00000000E-01  1.50000000E+00  8.00000000E-01  8.00000000E-01
  1.50000000E+00  8.00000000E-01  8.00000000E-01  1.50000000E+00  8.00000000E-01
  8.00000000E-01  1.50000000E+00  8.00000000E-01  8.00000000E-01  1.50000000E+00
  8.00000000E-01  8.00000000E-01  1.50000000E+00  8.00000000E-01  8.00000000E-01
  1.50000000E+00  8.00000000E-01  8.00000000E-01  1.50000000E+00  8.00000000E-01
  8.00000000E-01  1.50000000E+00  8.00000000E-01  8.00000000E-01  1.50000000E+00
  8.00000000E-01  8.00000000E-01  1.50000000E+00  8.00000000E-01  8.00000000E-01
  1.50000000E+00  8.00000000E-01  8.00000000E-01  1.50000000E+00  8.00000000E-01
  8.00000000E-01  1.50000000E+00  8.00000000E-01  8.00000000E-01  1.50000000E+00
  8.00000000E-01  8.00000000E-01  1.50000000E+00  8.00000000E-01  8.00000000E-01
  1.50000000E+00  8.00000000E-01  8.00000000E-01  1.50000000E+00  8.00000000E-01
  8.00000000E-01  1.50000000E+00  8.00000000E-01  8.00000000E-01  1.50000000E+00
  8.00000000E-01  8.00000000E-01  1.50000000E+00  8.00000000E-01  8.00000000E-01
  1.50000000E+00  8.00000000E-01  8.00000000E-01  1.50000000E+00  8.00000000E-01
  8.00000000E-01  1.50000000E+00  8.00000000E-01  8.00000000E-01  1.50000000E+00
  8.00000000E-01  8.00000000E-01  1.50000000E+00  8.00000000E-01  8.00000000E-01
  1.50000000E+00  8.00000000E-01  8.00000000E-01  1.50000000E+00  8.00000000E-01
  8.00000000E-01  1.50000000E+00  8.00000000E-01  8.00000000E-01  1.50000000E+00
  8.00000000E-01  8.00000000E-01  1.50000000E+00  8.00000000E-01  8.00000000E-01
  1.50000000E+00  8.00000000E-01  8.00000000E-01  1.50000000E+00  8.00000000E-01
  8.00000000E-01  1.50000000E+00  8.00000000E-01  8.00000000E-01  1.50000000E+00
  8.00000000E-01  8.00000000E-01  1.50000000E+00  8.00000000E-01  8.00000000E-01
  1.50000000E+00  8.00000000E-01  8.00000000E-01  1.50000000E+00  8.00000000E-01
  8.00000000E-01  1.50000000E+00  8.00000000E-01  8.00000000E-01  1.50000000E+00
  8.00000000E-01  8.00000000E-01  1.50000000E+00  8.00000000E-01  8.00000000E-01
  1.50000000E+00  8.00000000E-01  8.00000000E-01  1.50000000E+00  8.00000000E-01
  8.00000000E-01  1.50000000E+00  8.00000000E-01  8.00000000E-01  1.50000000E+00
  8.00000000E-01  8.00000000E-01  1.50000000E+00  8.00000000E-01  8.00000000E-01
  1.50000000E+00  8.00000000E-01  8.00000000E-01  1.50000000E+00  8.00000000E-01
  8.00000000E-01  1.50000000E+00  8.00000000E-01  8.00000000E-01  1.50000000E+00
  8.00000000E-01  8.00000000E-01  1.50000000E+00  8.00000000E-01  8.00000000E-01
  1.50000000E+00  8.00000000E-01  8.00000000E-01  1.50000000E+00  8.00000000E-01
  8.00000000E-01  1.50000000E+00  8.00000000E-01  8.00000000E-01  1.50000000E+00
  8.00000000E-01  8.00000000E-01  1.50000000E+00  8.00000000E-01  8.00000000E-01
  1.50000000E+00  8.00000000E-01  8.00000000E-01  1.50000000E+00  8.00000000E-01
  8.00000000E-01  1.50000000E+00  8.00000000E-01  8.00000000E-01  1.50000000E+00
  8.00000000E-01  8.00000000E-01  1.50000000E+00  8.00000000E-01  8.00000000E-01
  1.50000000E+00  8.00000000E-01  8.00000000E-01  1.50000000E+00  8.00000000E-01
  8.00000000E-01  1.50000000E+00  8.00000000E-01  8.00000000E-01  1.50000000E+00
  8.00000000E-01  8.00000000E-01  1.50000000E+00  8.00000000E-01  8.00000000E-01
  1.50000000E+00  8.00000000E-01  8.00000000E-01  1.50000000E+00  8.00000000E-01
  8.00000000E-01  1.50000000E+00  8.00000000E-01  8.00000000E-01  1.50000000E+00
  8.00000000E-01  8.00000000E-01  1.50000000E+00  8.00000000E-01  8.00000000E-01
  1.50000000E+00  8.00000000E-01  8.00000000E-01  1.50000000E+00  8.00000000E-01
  8.00000000E-01  1.50000000E+00  8.00000000E-01  8.00000000E-01  1.50000000E+00
  8.00000000E-01  8.00000000E-01  1.50000000E+00  8.00000000E-01  8.00000000E-01
  1.50000000E+00  8.00000000E-01  8.00000000E-01  1.50000000E+00  8.00000000E-01
  8.00000000E-01  1.50000000E+00  8.00000000E-01  8.00000000E-01  1.50000000E+00
  8.00000000E-01  8.00000000E-01  1.50000000E+00  8.00000000E-01  8.00000000E-01
  1.50000000E+00  8.00000000E-01  8.00000000E-01  1.50000000E+00  8.00000000E-01
  8.00000000E-01  1.50000000E+00  8.00000000E-01  8.00000000E-01  1.50000000E+00
  8.00000000E-01  8.00000000E-01  1.50000000E+00  8.00000000E-01  8.00000000E-01
  1.50000000E+00  8.00000000E-01  8.00000000E-01  1.50000000E+00  8.00000000E-01
  8.00000000E-01  1.50000000E+00  8.00000000E-01  8.00000000E-01  1.50000000E+00
  8.00000000E-01  8.00000000E-01  1.50000000E+00  8.00000000E-01  8.00000000E-01
  1.50000000E+00  8.00000000E-01  8.00000000E-01  1.50000000E+00  8.00000000E-01
  8.00000000E-01  1.50000000E+00  8.00000000E-01  8.00000000E-01  1.50000000E+00
  8.00000000E-01  8.00000000E-01  1.50000000E+00  8.00000000E-01  8.00000000E-01
  1.50000000E+00  8.00000000E-01  8.00000000E-01  1.50000000E+00  8.00000000E-01
  8.00000000E-01  1.50000000E+00  8.00000000E-01  8.00000000E-01  1.50000000E+00
  8.00000000E-01  8.00000000E-01  1.50000000E+00  8.00000000E-01  8.00000000E-01
  1.50000000E+00  8.00000000E-01  8.00000000E-01  1.50000000E+00  8.00000000E-01
  8.00000000E-01  1.50000000E+00  8.00000000E-01  8.00000000E-01  1.50000000E+00
  8.00000000E-01  8.00000000E-01  1.50000000E+00  8.00000000E-01  8.00000000E-01
  1.50000000E+00  8.00000000E-01  8.00000000E-01  1.50000000E+00  8.00000000E-01
  8.00000000E-01  1.50000000E+00  8.00000000E-01  8.00000000E-01  1.50000000E+00
  8.00000000E-01  8.00000000E-01  1.50000000E+00  8.00000000E-01  8.00000000E-01
  1.50000000E+00  8.00000000E-01  8.00000000E-01  1.50000000E+00  8.00000000E-01
  8.00000000E-01  1.50000000E+00  8.00000000E-01  8.00000000E-01  1.50000000E+00
  8.00000000E-01  8.00000000E-01  1.50000000E+00  8.00000000E-01  8.00000000E-01
  1.50000000E+00  8.00000000E-01  8.00000000E-01  1.50000000E+00  8.00000000E-01
  8.00000000E-01  1.50000000E+00  8.00000000E-01  8.00000000E-01  1.50000000E+00
  8.00000000E-01  8.00000000E-01  1.50000000E+00  8.00000000E-01  8.00000000E-01
  1.50000000E+00  8.00000000E-01  8.00000000E-01  1.50000000E+00  8.00000000E-01
  8.00000000E-01  1.50000000E+00  8.00000000E-01  8.00000000E-01  1.50000000E+00
  8.00000000E-01  8.00000000E-01  1.50000000E+00  8.00000000E-01  8.00000000E-01
  1.50000000E+00  8.00000000E-01  8.00000000E-01  1.50000000E+00  8.00000000E-01
  8.00000000E-01  1.50000000E+00  8.00000000E-01  8.00000000E-01  1.50000000E+00
  8.00000000E-01  8.00000000E-01  1.50000000E+00  8.00000000E-01  8.00000000E-01
  1.50000000E+00  8.00000000E-01  8.00000000E-01  1.50000000E+00  8.00000000E-01
  8.00000000E-01  1.50000000E+00  8.00000000E-01  8.00000000E-01  1.50000000E+00
  8.00000000E-01  8.00000000E-01  1.50000000E+00  8.00000000E-01  8.00000000E-01
  1.50000000E+00  8.00000000E-01  8.00000000E-01  1.50000000E+00  8.00000000E-01
  8.00000000E-01  1.50000000E+00  8.00000000E-01  8.00000000E-01  1.50000000E+00
  8.00000000E-01  8.00000000E-01  1.50000000E+00  8.00000000E-01  8.00000000E-01
  1.50000000E+00  8.00000000E-01  8.00000000E-01  1.50000000E+00  8.00000000E-01
  8.00000000E-01  1.50000000E+00  8.00000000E-01  8.00000000E-01  1.50000000E+00
  8.00000000E-01  8.00000000E-01  1.50000000E+00  8.00000000E-01  8.00000000E-01
  1.50000000E+00  8.00000000E-01  8.00000000E-01  1.50000000E+00  8.00000000E-01
  8.00000000E-01  1.50000000E+00  8.00000000E-01  8.00000000E-01  1.50000000E+00
  8.00000000E-01  8.00000000E-01  1.50000000E+00  8.00000000E-01  8.00000000E-01
  1.50000000E+00  8.00000000E-01  8.00000000E-01  1.50000000E+00  8.00000000E-01
  8.00000000E-01  1.50000000E+00  8.00000000E-01  8.00000000E-01  1.50000000E+00
  8.00000000E-01  8.00000000E-01  1.50000000E+00  8.00000000E-01  8.00000000E-01
  1.50000000E+00  8.00000000E-01  8.00000000E-01  1.50000000E+00  8.00000000E-01
  8.00000000E-01  1.50000000E+00  8.00000000E-01  8.00000000E-01  1.50000000E+00
  8.00000000E-01  8.00000000E-01  1.50000000E+00  8.00000000E-01  8.00000000E-01
  1.50000000E+00  8.00000000E-01  8.00000000E-01  1.50000000E+00  8.00000000E-01
  8.00000000E-01  1.50000000E+00  8.00000000E-01  8.00000000E-01  1.50000000E+00
  8.00000000E-01  8.00000000E-01  1.50000000E+00  8.00000000E-01  8.00000000E-01
  1.50000000E+00  8.00000000E-01  8.00000000E-01  1.50000000E+00  8.00000000E-01
  8.00000000E-01  1.50000000E+00  8.00000000E-01  8.00000000E-01  1.50000000E+00
  8.00000000E-01  8.00000000E-01  1.50000000E+00  8.00000000E-01  8.00000000E-01
  1.50000000E+00  8.00000000E-01  8.00000000E-01  1.50000000E+00  8.00000000E-01
  8.00000000E-01  1.50000000E+00  8.00000000E-01  8.00000000E-01  1.50000000E+00
  8.00000000E-01  8.00000000E-01  1.50000000E+00  8.00000000E-01  8.00000000E-01
  1.50000000E+00  8.00000000E-01  8.00000000E-01  1.50000000E+00  8.00000000E-01
  8.00000000E-01  1.50000000E+00  8.00000000E-01  8.00000000E-01  1.50000000E+00
  8.00000000E-01  8.00000000E-01  1.50000000E+00  8.00000000E-01  8.00000000E-01
  1.50000000E+00  8.00000000E-01  8.00000000E-01  1.50000000E+00  8.00000000E-01
  8.00000000E-01  1.50000000E+00  8.00000000E-01  8.00000000E-01  1.50000000E+00
  8.00000000E-01  8.00000000E-01  1.50000000E+00  8.00000000E-01  8.00000000E-01
  1.50000000E+00  8.00000000E-01  8.00000000E-01  1.50000000E+00  8.00000000E-01
  8.00000000E-01  1.50000000E+00  8.00000000E-01  8.00000000E-01  1.50000000E+00
  8.00000000E-01  8.00000000E-01  1.50000000E+00  8.00000000E-01  8.00000000E-01
  1.50000000E+00  8.00000000E-01  8.00000000E-01  1.50000000E+00  8.00000000E-01
  8.00000000E-01  1.50000000E+00  8.00000000E-01  8.00000000E-01  1.50000000E+00
  8.00000000E-01  8.00000000E-01  1.50000000E+00  8.00000000E-01  8.00000000E-01
  1.50000000E+00  8.00000000E-01  8.00000000E-01  1.50000000E+00  8.00000000E-01
  8.00000000E-01  1.50000000E+00  8.00000000E-01  8.00000000E-01  1.50000000E+00
  8.00000000E-01  8.00000000E-01  1.50000000E+00  8.00000000E-01  8.00000000E-01
  1.50000000E+00  8.00000000E-01  8.00000000E-01  1.50000000E+00  8.00000000E-01
  8.00000000E-01  1.50000000E+00  8.00000000E-01  8.00000000E-01  1.50000000E+00
  8.00000000E-01  8.00000000E-01  1.50000000E+00  8.00000000E-01  8.00000000E-01
  1.50000000E+00  8.00000000E-01  8.00000000E-01  1.50000000E+00  8.00000000E-01
  8.00000000E-01  1.50000000E+00  8.00000000E-01  8.00000000E-01  1.50000000E+00
  8.00000000E-01  8.00000000E-01  1.50000000E+00  8.00000000E-01  8.00000000E-01
  1.50000000E+00  8.00000000E-01  8.00000000E-01  1.50000000E+00  8.00000000E-01
  8.00000000E-01  1.50000000E+00  8.00000000E-01  8.00000000E-01  1.50000000E+00
  8.00000000E-01  8.00000000E-01  1.50000000E+00  8.00000000E-01  8.00000000E-01
  1.50000000E+00  8.00000000E-01  8.00000000E-01  1.50000000E+00  8.00000000E-01
  8.00000000E-01  1.50000000E+00  8.00000000E-01  8.00000000E-01  1.50000000E+00
  8.00000000E-01  8.00000000E-01  1.50000000E+00  8.00000000E-01  8.00000000E-01
  1.50000000E+00  8.00000000E-01  8.00000000E-01  1.50000000E+00  8.00000000E-01
  8.00000000E-01  1.50000000E+00  8.00000000E-01  8.00000000E-01  1.50000000E+00
  8.00000000E-01  8.00000000E-01  1.50000000E+00  8.00000000E-01  8.00000000E-01
  1.50000000E+00  8.00000000E-01  8.00000000E-01  1.50000000E+00  8.00000000E-01
  8.00000000E-01  1.50000000E+00  8.00000000E-01  8.00000000E-01  1.50000000E+00
  8.00000000E-01  8.00000000E-01  1.50000000E+00  8.00000000E-01  8.00000000E-01
  1.50000000E+00  8.00000000E-01  8.00000000E-01  1.50000000E+00  8.00000000E-01
  8.00000000E-01  1.50000000E+00  8.00000000E-01  8.00000000E-01  1.50000000E+00
  8.00000000E-01  8.00000000E-01  1.50000000E+00  8.00000000E-01  8.00000000E-01
  1.50000000E+00  8.00000000E-01  8.00000000E-01  1.50000000E+00  8.00000000E-01
  8.00000000E-01  1.50000000E+00  8.00000000E-01  8.00000000E-01  1.50000000E+00
  8.00000000E-01  8.00000000E-01  1.50000000E+00  8.00000000E-01  8.00000000E-01
  1.50000000E+00  8.00000000E-01  8.00000000E-01  1.50000000E+00  8.00000000E-01
  8.00000000E-01  1.50000000E+00  8.00000000E-01  8.00000000E-01  1.50000000E+00
  8.00000000E-01  8.00000000E-01  1.50000000E+00  8.00000000E-01  8.00000000E-01
  1.50000000E+00  8.00000000E-01  8.00000000E-01  1.50000000E+00  8.00000000E-01
  8.00000000E-01  1.50000000E+00  8.00000000E-01  8.00000000E-01  1.50000000E+00
  8.00000000E-01  8.00000000E-01  1.50000000E+00  8.00000000E-01  8.00000000E-01
  1.50000000E+00  8.00000000E-01  8.00000000E-01  1.50000000E+00  8.00000000E-01
  8.00000000E-01  1.50000000E+00  8.00000000E-01  8.00000000E-01  1.50000000E+00
  8.00000000E-01  8.00000000E-01  1.50000000E+00  8.00000000E-01  8.00000000E-01
  1.50000000E+00  8.00000000E-01  8.00000000E-01  1.50000000E+00  8.00000000E-01
  8.00000000E-01  1.50000000E+00  8.00000000E-01  8.00000000E-01  1.50000000E+00
  8.00000000E-01  8.00000000E-01  1.50000000E+00  8.00000000E-01  8.00000000E-01
  1.50000000E+00  8.00000000E-01  8.00000000E-01  1.50000000E+00  8.00000000E-01
  8.00000000E-01  1.50000000E+00  8.00000000E-01  8.00000000E-01  1.50000000E+00
  8.00000000E-01  8.00000000E-01  1.50000000E+00  8.00000000E-01  8.00000000E-01
  1.50000000E+00  8.00000000E-01  8.00000000E-01  1.50000000E+00  8.00000000E-01
  8.00000000E-01  1.50000000E+00  8.00000000E-01  8.00000000E-01  1.50000000E+00
  8.00000000E-01  8.00000000E-01  1.50000000E+00  8.00000000E-01  8.00000000E-01
  1.50000000E+00  8.00000000E-01  8.00000000E-01  1.50000000E+00  8.00000000E-01
  8.00000000E-01  1.50000000E+00  8.00000000E-01  8.00000000E-01  1.50000000E+00
  8.00000000E-01  8.00000000E-01  1.50000000E+00  8.00000000E-01  8.00000000E-01
  1.50000000E+00  8.00000000E-01  8.00000000E-01  1.50000000E+00  8.00000000E-01
  8.00000000E-01  1.50000000E+00  8.00000000E-01  8.00000000E-01  1.50000000E+00
  8.00000000E-01  8.00000000E-01  1.50000000E+00  8.00000000E-01  8.00000000E-01
  1.50000000E+00  8.00000000E-01  8.00000000E-01  1.50000000E+00  8.00000000E-01
  8.00000000E-01  1.50000000E+00  8.00000000E-01  8.00000000E-01  1.50000000E+00
  8.00000000E-01  8.00000000E-01  1.50000000E+00  8.00000000E-01  8.00000000E-01
  1.50000000E+00  8.00000000E-01  8.00000000E-01  1.50000000E+00  8.00000000E-01
  8.00000000E-01  1.50000000E+00  8.00000000E-01  8.00000000E-01  1.50000000E+00
  8.00000000E-01  8.00000000E-01  1.50000000E+00  8.00000000E-01  8.00000000E-01
  1.50000000E+00  8.00000000E-01  8.00000000E-01  1.50000000E+00  8.00000000E-01
  8.00000000E-01  1.50000000E+00  8.00000000E-01  8.00000000E-01  1.50000000E+00
  8.00000000E-01  8.00000000E-01  1.50000000E+00  8.00000000E-01  8.00000000E-01
  1.50000000E+00  8.00000000E-01  8.00000000E-01  1.50000000E+00  8.00000000E-01
  8.00000000E-01  1.50000000E+00  8.00000000E-01  8.00000000E-01  1.50000000E+00
  8.00000000E-01  8.00000000E-01  1.50000000E+00  8.00000000E-01  8.00000000E-01
  1.50000000E+00  8.00000000E-01  8.00000000E-01  1.50000000E+00  8.00000000E-01
  8.00000000E-01  1.50000000E+00  8.00000000E-01  8.00000000E-01  1.50000000E+00
  8.00000000E-01  8.00000000E-01  1.50000000E+00  8.00000000E-01  8.00000000E-01
  1.50000000E+00  8.00000000E-01  8.00000000E-01  1.50000000E+00  8.00000000E-01
  8.00000000E-01  1.50000000E+00  8.00000000E-01  8.00000000E-01  1.50000000E+00
  8.00000000E-01  8.00000000E-01  1.50000000E+00  8.00000000E-01  8.00000000E-01
  1.50000000E+00  8.00000000E-01  8.00000000E-01  1.50000000E+00  8.00000000E-01
  8.00000000E-01  1.50000000E+00  8.00000000E-01  8.00000000E-01  1.50000000E+00
  8.00000000E-01  8.00000000E-01  1.50000000E+00  8.00000000E-01  8.00000000E-01
  1.50000000E+00  8.00000000E-01  8.00000000E-01  1.50000000E+00  8.00000000E-01
  8.00000000E-01  1.50000000E+00  8.00000000E-01  8.00000000E-01  1.50000000E+00
  8.00000000E-01  8.00000000E-01  1.50000000E+00  8.00000000E-01  8.00000000E-01
  1.50000000E+00  8.00000000E-01  8.00000000E-01  1.50000000E+00  8.00000000E-01
  8.00000000E-01  1.50000000E+00  8.00000000E-01  8.00000000E-01  1.50000000E+00
  8.00000000E-01  8.00000000E-01  1.50000000E+00  8.00000000E-01  8.00000000E-01
  1.50000000E+00  8.00000000E-01  8.00000000E-01  1.50000000E+00  8.00000000E-01
  8.00000000E-01  1.50000000E+00  8.00000000E-01  8.00000000E-01  1.50000000E+00
  8.00000000E-01  8.00000000E-01  1.50000000E+00  8.00000000E-01  8.00000000E-01
  1.50000000E+00  8.00000000E-01  8.00000000E-01  1.50000000E+00  8.00000000E-01
  8.00000000E-01  1.50000000E+00  8.00000000E-01  8.00000000E-01  1.50000000E+00
  8.00000000E-01  8.00000000E-01  1.50000000E+00  8.00000000E-01  8.00000000E-01
  1.50000000E+00  8.00000000E-01  8.00000000E-01  1.50000000E+00  8.00000000E-01
  8.00000000E-01  1.50000000E+00  8.00000000E-01  8.00000000E-01  1.50000000E+00
  8.00000000E-01  8.00000000E-01  1.50000000E+00  8.00000000E-01  8.00000000E-01
  1.50000000E+00  8.00000000E-01  8.00000000E-01  1.50000000E+00  8.00000000E-01
  8.00000000E-01  1.50000000E+00  8.00000000E-01  8.00000000E-01  1.50000000E+00
  8.00000000E-01  8.00000000E-01  1.50000000E+00  8.00000000E-01  8.00000000E-01
  1.50000000E+00  8.00000000E-01  8.00000000E-01  1.50000000E+00  8.00000000E-01
  8.00000000E-01  1.50000000E+00  8.00000000E-01  8.00000000E-01  1.50000000E+00
  8.00000000E-01  8.00000000E-01  1.50000000E+00  8.00000000E-01  8.00000000E-01
  1.50000000E+00  8.00000000E-01  8.00000000E-01  1.50000000E+00  8.00000000E-01
  8.00000000E-01  1.50000000E+00  8.00000000E-01  8.00000000E-01  1.50000000E+00
  8.00000000E-01  8.00000000E-01  1.50000000E+00  8.00000000E-01  8.00000000E-01
  1.50000000E+00  8.00000000E-01  8.00000000E-01  1.50000000E+00  8.00000000E-01
  8.00000000E-01  1.50000000E+00  8.00000000E-01  8.00000000E-01  1.50000000E+00
  8.00000000E-01  8.00000000E-01  1.50000000E+00  8.00000000E-01  8.00000000E-01
  1.50000000E+00  8.00000000E-01  8.00000000E-01  1.50000000E+00  8.00000000E-01
  8.00000000E-01  1.50000000E+00  8.00000000E-01  8.00000000E-01  1.50000000E+00
  8.00000000E-01  8.00000000E-01  1.50000000E+00  8.00000000E-01  8.00000000E-01
  1.50000000E+00  8.00000000E-01  8.00000000E-01  1.50000000E+00  8.00000000E-01
  8.00000000E-01  1.50000000E+00  8.00000000E-01  8.00000000E-01  1.50000000E+00
  8.00000000E-01  8.00000000E-01  1.50000000E+00  8.00000000E-01  8.00000000E-01
  1.50000000E+00  8.00000000E-01  8.00000000E-01  1.50000000E+00  8.00000000E-01
  8.00000000E-01  1.50000000E+00  8.00000000E-01  8.00000000E-01  1.50000000E+00
  8.00000000E-01  8.00000000E-01  1.50000000E+00  8.00000000E-01  8.00000000E-01
  1.50000000E+00  8.00000000E-01  8.00000000E-01  1.50000000E+00  8.00000000E-01
  8.00000000E-01  1.50000000E+00  8.00000000E-01  8.00000000E-01  1.50000000E+00
  8.00000000E-01  8.00000000E-01  1.50000000E+00  8.00000000E-01  8.00000000E-01
  1.50000000E+00  8.00000000E-01  8.00000000E-01  1.50000000E+00  8.00000000E-01
  8.00000000E-01  1.50000000E+00  8.00000000E-01  8.00000000E-01  1.50000000E+00
  8.00000000E-01  8.00000000E-01  1.50000000E+00  8.00000000E-01  8.00000000E-01
  1.50000000E+00  8.00000000E-01  8.00000000E-01  1.50000000E+00  8.00000000E-01
  8.00000000E-01  1.50000000E+00  8.00000000E-01  8.00000000E-01  1.50000000E+00
  8.00000000E-01  8.00000000E-01  1.50000000E+00  8.00000000E-01  8.00000000E-01
  1.50000000E+00  8.00000000E-01  8.00000000E-01  1.50000000E+00  8.00000000E-01
  8.00000000E-01  1.50000000E+00  8.00000000E-01  8.00000000E-01  1.50000000E+00
  8.00000000E-01  8.00000000E-01  1.50000000E+00  8.00000000E-01  8.00000000E-01
  1.50000000E+00  8.00000000E-01  8.00000000E-01  1.50000000E+00  8.00000000E-01
  8.00000000E-01  1.50000000E+00  8.00000000E-01  8.00000000E-01  1.50000000E+00
  8.00000000E-01  8.00000000E-01  1.50000000E+00  8.00000000E-01  8.00000000E-01
  1.50000000E+00  8.00000000E-01  8.00000000E-01  1.50000000E+00  8.00000000E-01
  8.00000000E-01  1.50000000E+00  8.00000000E-01  8.00000000E-01  1.50000000E+00
  8.00000000E-01  8.00000000E-01  1.50000000E+00  8.00000000E-01  8.00000000E-01
  1.50000000E+00  8.00000000E-01  8.00000000E-01  1.50000000E+00  8.00000000E-01
  8.00000000E-01  1.50000000E+00  8.00000000E-01  8.00000000E-01  1.50000000E+00
  8.00000000E-01  8.00000000E-01  1.50000000E+00  8.00000000E-01  8.00000000E-01
  1.50000000E+00  8.00000000E-01  8.00000000E-01  1.50000000E+00  8.00000000E-01
  8.00000000E-01  1.50000000E+00  8.00000000E-01  8.00000000E-01  1.50000000E+00
  8.00000000E-01  8.00000000E-01  1.50000000E+00  8.00000000E-01  8.00000000E-01
  1.50000000E+00  8.00000000E-01  8.00000000E-01  1.50000000E+00  8.00000000E-01
  8.00000000E-01  1.50000000E+00  8.00000000E-01  8.00000000E-01  1.50000000E+00
  8.00000000E-01  8.00000000E-01  1.50000000E+00  8.00000000E-01  8.00000000E-01
  1.50000000E+00  8.00000000E-01  8.00000000E-01  1.50000000E+00  8.00000000E-01
  8.00000000E-01  1.50000000E+00  8.00000000E-01  8.00000000E-01  1.50000000E+00
  8.00000000E-01  8.00000000E-01  1.50000000E+00  8.00000000E-01  8.00000000E-01
  1.50000000E+00  8.00000000E-01  8.00000000E-01  1.50000000E+00  8.00000000E-01
  8.00000000E-01  1.50000000E+00  8.00000000E-01  8.00000000E-01  1.50000000E+00
  8.00000000E-01  8.00000000E-01  1.50000000E+00  8.00000000E-01  8.00000000E-01
  1.50000000E+00  8.00000000E-01  8.00000000E-01  1.50000000E+00  8.00000000E-01
  8.00000000E-01  1.50000000E+00  8.00000000E-01  8.00000000E-01  1.50000000E+00
  8.00000000E-01  8.00000000E-01  1.50000000E+00  8.00000000E-01  8.00000000E-01
  1.50000000E+00  8.00000000E-01  8.00000000E-01  1.50000000E+00  8.00000000E-01
  8.00000000E-01  1.50000000E+00  8.00000000E-01  8.00000000E-01  1.50000000E+00
  8.00000000E-01  8.00000000E-01  1.50000000E+00  8.00000000E-01  8.00000000E-01
  1.50000000E+00  8.00000000E-01  8.00000000E-01  1.50000000E+00  8.00000000E-01
  8.00000000E-01  1.50000000E+00  8.00000000E-01  8.00000000E-01  1.50000000E+00
  8.00000000E-01  8.00000000E-01  1.50000000E+00  8.00000000E-01  8.00000000E-01
  1.50000000E+00  8.00000000E-01  8.00000000E-01  1.50000000E+00  8.00000000E-01
  8.00000000E-01  1.50000000E+00  8.00000000E-01  8.00000000E-01  1.50000000E+00
  8.00000000E-01  8.00000000E-01  1.50000000E+00  8.00000000E-01  8.00000000E-01
  1.50000000E+00  8.00000000E-01  8.00000000E-01  1.50000000E+00  8.00000000E-01
  8.00000000E-01  1.50000000E+00  8.00000000E-01  8.00000000E-01  1.50000000E+00
  8.00000000E-01  8.00000000E-01  1.50000000E+00  8.00000000E-01  8.00000000E-01
  1.50000000E+00  8.00000000E-01  8.00000000E-01  1.50000000E+00  8.00000000E-01
  8.00000000E-01  1.50000000E+00  8.00000000E-01  8.00000000E-01  1.50000000E+00
  8.00000000E-01  8.00000000E-01  1.50000000E+00  8.00000000E-01  8.00000000E-01
  1.50000000E+00  8.00000000E-01  8.00000000E-01  1.50000000E+00  8.00000000E-01
  8.00000000E-01  1.50000000E+00  8.00000000E-01  8.00000000E-01  1.50000000E+00
  8.00000000E-01  8.00000000E-01  1.50000000E+00  8.00000000E-01  8.00000000E-01
  1.50000000E+00  8.00000000E-01  8.00000000E-01  1.50000000E+00  8.00000000E-01
  8.00000000E-01  1.50000000E+00  8.00000000E-01  8.00000000E-01  1.50000000E+00
  8.00000000E-01  8.00000000E-01  1.50000000E+00  8.00000000E-01  8.00000000E-01
  1.50000000E+00  8.00000000E-01  8.00000000E-01  1.50000000E+00  8.00000000E-01
  8.00000000E-01  1.50000000E+00  8.00000000E-01  8.00000000E-01  1.50000000E+00
  8.00000000E-01  8.00000000E-01  1.50000000E+00  8.00000000E-01  8.00000000E-01
  1.50000000E+00  8.00000000E-01  8.00000000E-01  1.50000000E+00  8.00000000E-01
  8.00000000E-01  1.50000000E+00  8.00000000E-01  8.00000000E-01  1.50000000E+00
  8.00000000E-01  8.00000000E-01  1.50000000E+00  8.00000000E-01  8.00000000E-01
  1.50000000E+00  8.00000000E-01  8.00000000E-01  1.50000000E+00  8.00000000E-01
  8.00000000E-01  1.50000000E+00  8.00000000E-01  8.00000000E-01  1.50000000E+00
  8.00000000E-01  8.00000000E-01  1.50000000E+00  8.00000000E-01  8.00000000E-01
  1.50000000E+00  8.00000000E-01  8.00000000E-01  1.50000000E+00  8.00000000E-01
  8.00000000E-01  1.50000000E+00  8.00000000E-01  8.00000000E-01  1.50000000E+00
  8.00000000E-01  8.00000000E-01  1.50000000E+00  8.00000000E-01  8.00000000E-01
  1.50000000E+00  8.00000000E-01  8.00000000E-01  1.50000000E+00  8.00000000E-01
  8.00000000E-01  1.50000000E+00  8.00000000E-01  8.00000000E-01  1.50000000E+00
  8.00000000E-01  8.00000000E-01  1.50000000E+00  8.00000000E-01  8.00000000E-01
  1.50000000E+00  8.00000000E-01  8.00000000E-01  1.50000000E+00  8.00000000E-01
  8.00000000E-01  1.50000000E+00  8.00000000E-01  8.00000000E-01  1.50000000E+00
  8.00000000E-01  8.00000000E-01  1.50000000E+00  8.00000000E-01  8.00000000E-01
  1.50000000E+00  8.00000000E-01  8.00000000E-01  1.50000000E+00  8.00000000E-01
  8.00000000E-01  1.50000000E+00  8.00000000E-01  8.00000000E-01  1.50000000E+00
  8.00000000E-01  8.00000000E-01  1.50000000E+00  8.00000000E-01  8.00000000E-01
  1.50000000E+00  8.00000000E-01  8.00000000E-01  1.50000000E+00  8.00000000E-01
  8.00000000E-01  1.50000000E+00  8.00000000E-01  8.00000000E-01  1.50000000E+00
  8.00000000E-01  8.00000000E-01  1.50000000E+00  8.00000000E-01  8.00000000E-01
  1.50000000E+00  8.00000000E-01  8.00000000E-01  1.50000000E+00  8.00000000E-01
  8.00000000E-01  1.50000000E+00  8.00000000E-01  8.00000000E-01  1.50000000E+00
  8.00000000E-01  8.00000000E-01  1.50000000E+00  8.00000000E-01  8.00000000E-01
  1.50000000E+00  8.00000000E-01  8.00000000E-01  1.50000000E+00  8.00000000E-01
  8.00000000E-01  1.50000000E+00  8.00000000E-01  8.00000000E-01  1.50000000E+00
  8.00000000E-01  8.00000000E-01  1.50000000E+00  8.00000000E-01  8.00000000E-01
  1.50000000E+00  8.00000000E-01  8.00000000E-01  1.50000000E+00  8.00000000E-01
  8.00000000E-01  1.50000000E+00  8.00000000E-01  8.00000000E-01  1.50000000E+00
  8.00000000E-01  8.00000000E-01  1.50000000E+00  8.00000000E-01  8.00000000E-01
  1.50000000E+00  8.00000000E-01  8.00000000E-01  1.50000000E+00  8.00000000E-01
  8.00000000E-01  1.50000000E+00  8.00000000E-01  8.00000000E-01  1.50000000E+00
  8.00000000E-01  8.00000000E-01  1.50000000E+00  8.00000000E-01  8.00000000E-01
  1.50000000E+00  8.00000000E-01  8.00000000E-01  1.50000000E+00  8.00000000E-01
  8.00000000E-01  1.50000000E+00  8.00000000E-01  8.00000000E-01  1.50000000E+00
  8.00000000E-01  8.00000000E-01  1.50000000E+00  8.00000000E-01  8.00000000E-01
  1.50000000E+00  8.00000000E-01  8.00000000E-01  1.50000000E+00  8.00000000E-01
  8.00000000E-01  1.50000000E+00  8.00000000E-01  8.00000000E-01  1.50000000E+00
  8.00000000E-01  8.00000000E-01  1.50000000E+00  8.00000000E-01  8.00000000E-01
  1.50000000E+00  8.00000000E-01  8.00000000E-01  1.50000000E+00  8.00000000E-01
  8.00000000E-01  1.50000000E+00  8.00000000E-01  8.00000000E-01  1.50000000E+00
  8.00000000E-01  8.00000000E-01  1.50000000E+00  8.00000000E-01  8.00000000E-01
  1.50000000E+00  8.00000000E-01  8.00000000E-01  1.50000000E+00  8.00000000E-01
  8.00000000E-01  1.50000000E+00  8.00000000E-01  8.00000000E-01  1.50000000E+00
  8.00000000E-01  8.00000000E-01  1.50000000E+00  8.00000000E-01  8.00000000E-01
  1.50000000E+00  8.00000000E-01  8.00000000E-01  1.50000000E+00  8.00000000E-01
  8.00000000E-01  1.50000000E+00  8.00000000E-01  8.00000000E-01  1.50000000E+00
  8.00000000E-01  8.00000000E-01  1.50000000E+00  8.00000000E-01  8.00000000E-01
  1.50000000E+00  8.00000000E-01  8.00000000E-01  1.50000000E+00  8.00000000E-01
  8.00000000E-01  1.50000000E+00  8.00000000E-01  8.00000000E-01  1.50000000E+00
  8.00000000E-01  8.00000000E-01  1.50000000E+00  8.00000000E-01  8.00000000E-01
  1.50000000E+00  8.00000000E-01  8.00000000E-01  1.50000000E+00  8.00000000E-01
  8.00000000E-01  1.50000000E+00  8.00000000E-01  8.00000000E-01  1.50000000E+00
  8.00000000E-01  8.00000000E-01  1.50000000E+00  8.00000000E-01  8.00000000E-01
  1.50000000E+00  8.00000000E-01  8.00000000E-01  1.50000000E+00  8.00000000E-01
  8.00000000E-01  1.50000000E+00  8.00000000E-01  8.00000000E-01  1.50000000E+00
  8.00000000E-01  8.00000000E-01  1.50000000E+00  8.00000000E-01  8.00000000E-01
  1.50000000E+00  8.00000000E-01  8.00000000E-01  1.50000000E+00  8.00000000E-01
  8.00000000E-01  1.50000000E+00  8.00000000E-01  8.00000000E-01  1.50000000E+00
  8.00000000E-01  8.00000000E-01  1.50000000E+00  8.00000000E-01  8.00000000E-01
  1.50000000E+00  8.00000000E-01  8.00000000E-01  1.50000000E+00  8.00000000E-01
  8.00000000E-01  1.50000000E+00  8.00000000E-01  8.00000000E-01  1.50000000E+00
  8.00000000E-01  8.00000000E-01  1.50000000E+00  8.00000000E-01  8.00000000E-01
  1.50000000E+00  8.00000000E-01  8.00000000E-01  1.50000000E+00  8.00000000E-01
  8.00000000E-01  1.50000000E+00  8.00000000E-01  8.00000000E-01  1.50000000E+00
  8.00000000E-01  8.00000000E-01  1.50000000E+00  8.00000000E-01  8.00000000E-01
  1.50000000E+00  8.00000000E-01  8.00000000E-01  1.50000000E+00  8.00000000E-01
  8.00000000E-01  1.50000000E+00  8.00000000E-01  8.00000000E-01  1.50000000E+00
  8.00000000E-01  8.00000000E-01  1.50000000E+00  8.00000000E-01  8.00000000E-01
  1.50000000E+00  8.00000000E-01  8.00000000E-01  1.50000000E+00  8.00000000E-01
  8.00000000E-01  1.50000000E+00  8.00000000E-01  8.00000000E-01  1.50000000E+00
  8.00000000E-01  8.00000000E-01  1.50000000E+00  8.00000000E-01  8.00000000E-01
  1.50000000E+00  8.00000000E-01  8.00000000E-01  1.50000000E+00  8.00000000E-01
  8.00000000E-01  1.50000000E+00  8.00000000E-01  8.00000000E-01  1.50000000E+00
  8.00000000E-01  8.00000000E-01  1.50000000E+00  8.00000000E-01  8.00000000E-01
  1.50000000E+00  8.00000000E-01  8.00000000E-01  1.50000000E+00  8.00000000E-01
  8.00000000E-01  1.50000000E+00  8.00000000E-01  8.00000000E-01  1.50000000E+00
  8.00000000E-01  8.00000000E-01  1.50000000E+00  8.00000000E-01  8.00000000E-01
  1.50000000E+00  8.00000000E-01  8.00000000E-01  1.50000000E+00  8.00000000E-01
  8.00000000E-01  1.50000000E+00  8.00000000E-01  8.00000000E-01  1.50000000E+00
  8.00000000E-01  8.00000000E-01  1.50000000E+00  8.00000000E-01  8.00000000E-01
  1.50000000E+00  8.00000000E-01  8.00000000E-01  1.50000000E+00  8.00000000E-01
  8.00000000E-01  1.50000000E+00  8.00000000E-01  8.00000000E-01  1.50000000E+00
  8.00000000E-01  8.00000000E-01  1.50000000E+00  8.00000000E-01  8.00000000E-01
  1.50000000E+00  8.00000000E-01  8.00000000E-01  1.50000000E+00  8.00000000E-01
  8.00000000E-01  1.50000000E+00  8.00000000E-01  8.00000000E-01  1.50000000E+00
  8.00000000E-01  8.00000000E-01  1.50000000E+00  8.00000000E-01  8.00000000E-01
  1.50000000E+00  8.00000000E-01  8.00000000E-01  1.50000000E+00  8.00000000E-01
  8.00000000E-01  1.50000000E+00  8.00000000E-01  8.00000000E-01  1.50000000E+00
  8.00000000E-01  8.00000000E-01  1.50000000E+00  8.00000000E-01  8.00000000E-01
  1.50000000E+00  8.00000000E-01  8.00000000E-01  1.50000000E+00  8.00000000E-01
  8.00000000E-01  1.50000000E+00  8.00000000E-01  8.00000000E-01  1.50000000E+00
  8.00000000E-01  8.00000000E-01  1.50000000E+00  8.00000000E-01  8.00000000E-01
  1.50000000E+00  8.00000000E-01  8.00000000E-01  1.50000000E+00  8.00000000E-01
  8.00000000E-01  1.50000000E+00  8.00000000E-01  8.00000000E-01  1.50000000E+00
  8.00000000E-01  8.00000000E-01  1.50000000E+00  8.00000000E-01  8.00000000E-01
  1.50000000E+00  8.00000000E-01  8.00000000E-01  1.50000000E+00  8.00000000E-01
  8.00000000E-01  1.50000000E+00  8.00000000E-01  8.00000000E-01  1.50000000E+00
  8.00000000E-01  8.00000000E-01  1.50000000E+00  8.00000000E-01  8.00000000E-01
  1.50000000E+00  8.00000000E-01  8.00000000E-01  1.50000000E+00  8.00000000E-01
  8.00000000E-01  1.50000000E+00  8.00000000E-01  8.00000000E-01  1.50000000E+00
  8.00000000E-01  8.00000000E-01  1.50000000E+00  8.00000000E-01  8.00000000E-01
  1.50000000E+00  8.00000000E-01  8.00000000E-01  1.50000000E+00  8.00000000E-01
  8.00000000E-01  1.50000000E+00  8.00000000E-01  8.00000000E-01  1.50000000E+00
  8.00000000E-01  8.00000000E-01  1.50000000E+00  8.00000000E-01  8.00000000E-01
  1.50000000E+00  8.00000000E-01  8.00000000E-01  1.50000000E+00  8.00000000E-01
  8.00000000E-01  1.50000000E+00  8.00000000E-01  8.00000000E-01  1.50000000E+00
  8.00000000E-01  8.00000000E-01  1.50000000E+00  8.00000000E-01  8.00000000E-01
  1.50000000E+00  8.00000000E-01  8.00000000E-01  1.50000000E+00  8.00000000E-01
  8.00000000E-01  1.50000000E+00  8.00000000E-01  8.00000000E-01  1.50000000E+00
  8.00000000E-01  8.00000000E-01  1.50000000E+00  8.00000000E-01  8.00000000E-01
  1.50000000E+00  8.00000000E-01  8.00000000E-01  1.50000000E+00  8.00000000E-01
  8.00000000E-01  1.50000000E+00  8.00000000E-01  8.00000000E-01  1.50000000E+00
  8.00000000E-01  8.00000000E-01  1.50000000E+00  8.00000000E-01  8.00000000E-01
  1.50000000E+00  8.00000000E-01  8.00000000E-01  1.50000000E+00  8.00000000E-01
  8.00000000E-01  1.50000000E+00  8.00000000E-01  8.00000000E-01  1.50000000E+00
  8.00000000E-01  8.00000000E-01  1.50000000E+00  8.00000000E-01  8.00000000E-01
  1.50000000E+00  8.00000000E-01  8.00000000E-01  1.50000000E+00  8.00000000E-01
  8.00000000E-01  1.50000000E+00  8.00000000E-01  8.00000000E-01  1.50000000E+00
  8.00000000E-01  8.00000000E-01  1.50000000E+00  8.00000000E-01  8.00000000E-01
  1.50000000E+00  8.00000000E-01  8.00000000E-01  1.50000000E+00  8.00000000E-01
  8.00000000E-01  1.50000000E+00  8.00000000E-01  8.00000000E-01  1.50000000E+00
  8.00000000E-01  8.00000000E-01  1.50000000E+00  8.00000000E-01  8.00000000E-01
  1.50000000E+00  8.00000000E-01  8.00000000E-01  1.50000000E+00  8.00000000E-01
  8.00000000E-01  1.50000000E+00  8.00000000E-01  8.00000000E-01  1.50000000E+00
  8.00000000E-01  8.00000000E-01  1.50000000E+00  8.00000000E-01  8.00000000E-01
  1.50000000E+00  8.00000000E-01  8.00000000E-01  1.50000000E+00  8.00000000E-01
  8.00000000E-01  1.50000000E+00  8.00000000E-01  8.00000000E-01  1.50000000E+00
  8.00000000E-01  8.00000000E-01  1.50000000E+00  8.00000000E-01  8.00000000E-01
  1.50000000E+00  8.00000000E-01  8.00000000E-01  1.50000000E+00  8.00000000E-01
  8.00000000E-01  1.50000000E+00  8.00000000E-01  8.00000000E-01  1.50000000E+00
  8.00000000E-01  8.00000000E-01  1.50000000E+00  8.00000000E-01  8.00000000E-01
  1.50000000E+00  8.00000000E-01  8.00000000E-01  1.50000000E+00  8.00000000E-01
  8.00000000E-01  1.50000000E+00  8.00000000E-01  8.00000000E-01  1.50000000E+00
  8.00000000E-01  8.00000000E-01  1.50000000E+00  8.00000000E-01  8.00000000E-01
  1.50000000E+00  8.00000000E-01  8.00000000E-01  1.50000000E+00  8.00000000E-01
  8.00000000E-01  1.50000000E+00  8.00000000E-01  8.00000000E-01  1.50000000E+00
  8.00000000E-01  8.00000000E-01  1.50000000E+00  8.00000000E-01  8.00000000E-01
  1.50000000E+00  8.00000000E-01  8.00000000E-01  1.50000000E+00  8.00000000E-01
  8.00000000E-01  1.50000000E+00  8.00000000E-01  8.00000000E-01  1.50000000E+00
  8.00000000E-01  8.00000000E-01  1.50000000E+00  8.00000000E-01  8.00000000E-01
  1.50000000E+00  8.00000000E-01  8.00000000E-01  1.50000000E+00  8.00000000E-01
  8.00000000E-01  1.50000000E+00  8.00000000E-01  8.00000000E-01  1.50000000E+00
  8.00000000E-01  8.00000000E-01  1.50000000E+00  8.00000000E-01  8.00000000E-01
  1.50000000E+00  8.00000000E-01  8.00000000E-01  1.50000000E+00  8.00000000E-01
  8.00000000E-01  1.50000000E+00  8.00000000E-01  8.00000000E-01  1.50000000E+00
  8.00000000E-01  8.00000000E-01  1.50000000E+00  8.00000000E-01  8.00000000E-01
  1.50000000E+00  8.00000000E-01  8.00000000E-01  1.50000000E+00  8.00000000E-01
  8.00000000E-01  1.50000000E+00  8.00000000E-01  8.00000000E-01  1.50000000E+00
  8.00000000E-01  8.00000000E-01  1.50000000E+00  8.00000000E-01  8.00000000E-01
  1.50000000E+00  8.00000000E-01  8.00000000E-01  1.50000000E+00  8.00000000E-01
  8.00000000E-01  1.50000000E+00  8.00000000E-01  8.00000000E-01  1.50000000E+00
  8.00000000E-01  8.00000000E-01  1.50000000E+00  8.00000000E-01  8.00000000E-01
  1.50000000E+00  8.00000000E-01  8.00000000E-01  1.50000000E+00  8.00000000E-01
  8.00000000E-01  1.50000000E+00  8.00000000E-01  8.00000000E-01  1.50000000E+00
  8.00000000E-01  8.00000000E-01  1.50000000E+00  8.00000000E-01  8.00000000E-01
  1.50000000E+00  8.00000000E-01  8.00000000E-01  1.50000000E+00  8.00000000E-01
  8.00000000E-01  1.50000000E+00  8.00000000E-01  8.00000000E-01  1.50000000E+00
  8.00000000E-01  8.00000000E-01  1.50000000E+00  8.00000000E-01  8.00000000E-01
  1.50000000E+00  8.00000000E-01  8.00000000E-01  1.50000000E+00  8.00000000E-01
  8.00000000E-01  1.50000000E+00  8.00000000E-01  8.00000000E-01  1.50000000E+00
  8.00000000E-01  8.00000000E-01  1.50000000E+00  8.00000000E-01  8.00000000E-01
  1.50000000E+00  8.00000000E-01  8.00000000E-01  1.50000000E+00  8.00000000E-01
  8.00000000E-01  1.50000000E+00  8.00000000E-01  8.00000000E-01  1.50000000E+00
  8.00000000E-01  8.00000000E-01  1.50000000E+00  8.00000000E-01  8.00000000E-01
  1.50000000E+00  8.00000000E-01  8.00000000E-01  1.50000000E+00  8.00000000E-01
  8.00000000E-01  1.50000000E+00  8.00000000E-01  8.00000000E-01  1.50000000E+00
  8.00000000E-01  8.00000000E-01  1.50000000E+00  8.00000000E-01  8.00000000E-01
  1.50000000E+00  8.00000000E-01  8.00000000E-01  1.50000000E+00  8.00000000E-01
  8.00000000E-01  1.50000000E+00  8.00000000E-01  8.00000000E-01  1.50000000E+00
  8.00000000E-01  8.00000000E-01  1.50000000E+00  8.00000000E-01  8.00000000E-01
  1.50000000E+00  8.00000000E-01  8.00000000E-01  1.50000000E+00  8.00000000E-01
  8.00000000E-01  1.50000000E+00  8.00000000E-01  8.00000000E-01  1.50000000E+00
  8.00000000E-01  8.00000000E-01  1.50000000E+00  8.00000000E-01  8.00000000E-01
  1.50000000E+00  8.00000000E-01  8.00000000E-01  1.50000000E+00  8.00000000E-01
  8.00000000E-01  1.50000000E+00  8.00000000E-01  8.00000000E-01  1.50000000E+00
  8.00000000E-01  8.00000000E-01  1.50000000E+00  8.00000000E-01  8.00000000E-01
  1.50000000E+00  8.00000000E-01  8.00000000E-01  1.50000000E+00  8.00000000E-01
  8.00000000E-01  1.50000000E+00  8.00000000E-01  8.00000000E-01  1.50000000E+00
  8.00000000E-01  8.00000000E-01  1.50000000E+00  8.00000000E-01  8.00000000E-01
  1.50000000E+00  8.00000000E-01  8.00000000E-01  1.50000000E+00  8.00000000E-01
  8.00000000E-01  1.50000000E+00  8.00000000E-01  8.00000000E-01  1.50000000E+00
  8.00000000E-01  8.00000000E-01  1.50000000E+00  8.00000000E-01  8.00000000E-01
  1.50000000E+00  8.00000000E-01  8.00000000E-01  1.50000000E+00  8.00000000E-01
  8.00000000E-01  1.50000000E+00  8.00000000E-01  8.00000000E-01  1.50000000E+00
  8.00000000E-01  8.00000000E-01  1.50000000E+00  8.00000000E-01  8.00000000E-01
  1.50000000E+00  8.00000000E-01  8.00000000E-01  1.50000000E+00  8.00000000E-01
  8.00000000E-01  1.50000000E+00  8.00000000E-01  8.00000000E-01  1.50000000E+00
  8.00000000E-01  8.00000000E-01  1.50000000E+00  8.00000000E-01  8.00000000E-01
  1.50000000E+00  8.00000000E-01  8.00000000E-01  1.50000000E+00  8.00000000E-01
  8.00000000E-01  1.50000000E+00  8.00000000E-01  8.00000000E-01  1.50000000E+00
  8.00000000E-01  8.00000000E-01  1.50000000E+00  8.00000000E-01  8.00000000E-01
  1.50000000E+00  8.00000000E-01  8.00000000E-01  1.50000000E+00  8.00000000E-01
  8.00000000E-01  1.50000000E+00  8.00000000E-01  8.00000000E-01  1.50000000E+00
  8.00000000E-01  8.00000000E-01  1.50000000E+00  8.00000000E-01  8.00000000E-01
  1.50000000E+00  8.00000000E-01  8.00000000E-01  1.50000000E+00  8.00000000E-01
  8.00000000E-01  1.50000000E+00  8.00000000E-01  8.00000000E-01  1.50000000E+00
  8.00000000E-01  8.00000000E-01  1.50000000E+00  8.00000000E-01  8.00000000E-01
  1.50000000E+00  8.00000000E-01  8.00000000E-01  1.50000000E+00  8.00000000E-01
  8.00000000E-01  1.50000000E+00  8.00000000E-01  8.00000000E-01  1.50000000E+00
  8.00000000E-01  8.00000000E-01  1.50000000E+00  8.00000000E-01  8.00000000E-01
  1.50000000E+00  8.00000000E-01  8.00000000E-01  1.50000000E+00  8.00000000E-01
  8.00000000E-01  1.50000000E+00  8.00000000E-01  8.00000000E-01  1.50000000E+00
  8.00000000E-01  8.00000000E-01  1.50000000E+00  8.00000000E-01  8.00000000E-01
  1.50000000E+00  8.00000000E-01  8.00000000E-01  1.50000000E+00  8.00000000E-01
  8.00000000E-01  1.50000000E+00  8.00000000E-01  8.00000000E-01  1.50000000E+00
  8.00000000E-01  8.00000000E-01  1.50000000E+00  8.00000000E-01  8.00000000E-01
  1.50000000E+00  8.00000000E-01  8.00000000E-01  1.50000000E+00  8.00000000E-01
  8.00000000E-01  1.50000000E+00  8.00000000E-01  8.00000000E-01  1.50000000E+00
  8.00000000E-01  8.00000000E-01  1.50000000E+00  8.00000000E-01  8.00000000E-01
  1.50000000E+00  8.00000000E-01  8.00000000E-01  1.50000000E+00  8.00000000E-01
  8.00000000E-01  1.50000000E+00  8.00000000E-01  8.00000000E-01  1.50000000E+00
  8.00000000E-01  8.00000000E-01  1.50000000E+00  8.00000000E-01  8.00000000E-01
  1.50000000E+00  8.00000000E-01  8.00000000E-01  1.50000000E+00  8.00000000E-01
  8.00000000E-01  1.50000000E+00  8.00000000E-01  8.00000000E-01  1.50000000E+00
  8.00000000E-01  8.00000000E-01  1.50000000E+00  8.00000000E-01  8.00000000E-01
  1.50000000E+00  8.00000000E-01  8.00000000E-01  1.50000000E+00  8.00000000E-01
  8.00000000E-01  1.50000000E+00  8.00000000E-01  8.00000000E-01  1.50000000E+00
  8.00000000E-01  8.00000000E-01  1.50000000E+00  8.00000000E-01  8.00000000E-01
  1.50000000E+00  8.00000000E-01  8.00000000E-01  1.50000000E+00  8.00000000E-01
  8.00000000E-01  1.50000000E+00  8.00000000E-01  8.00000000E-01  1.50000000E+00
  8.00000000E-01  8.00000000E-01  1.50000000E+00  8.00000000E-01  8.00000000E-01
  1.50000000E+00  8.00000000E-01  8.00000000E-01  1.50000000E+00  8.00000000E-01
  8.00000000E-01  1.50000000E+00  8.00000000E-01  8.00000000E-01  1.50000000E+00
  8.00000000E-01  8.00000000E-01  1.50000000E+00  8.00000000E-01  8.00000000E-01
  1.50000000E+00  8.00000000E-01  8.00000000E-01  1.50000000E+00  8.00000000E-01
  8.00000000E-01  1.50000000E+00  8.00000000E-01  8.00000000E-01  1.50000000E+00
  8.00000000E-01  8.00000000E-01  1.50000000E+00  8.00000000E-01  8.00000000E-01
  1.50000000E+00  8.00000000E-01  8.00000000E-01  1.50000000E+00  8.00000000E-01
  8.00000000E-01  1.50000000E+00  8.00000000E-01  8.00000000E-01  1.50000000E+00
  8.00000000E-01  8.00000000E-01  1.50000000E+00  8.00000000E-01  8.00000000E-01
  1.50000000E+00  8.00000000E-01  8.00000000E-01  1.50000000E+00  8.00000000E-01
  8.00000000E-01  1.50000000E+00  8.00000000E-01  8.00000000E-01  1.50000000E+00
  8.00000000E-01  8.00000000E-01  1.50000000E+00  8.00000000E-01  8.00000000E-01
  1.50000000E+00  8.00000000E-01  8.00000000E-01  1.50000000E+00  8.00000000E-01
  8.00000000E-01  1.50000000E+00  8.00000000E-01  8.00000000E-01  1.50000000E+00
  8.00000000E-01  8.00000000E-01  1.50000000E+00  8.00000000E-01  8.00000000E-01
  1.50000000E+00  8.00000000E-01  8.00000000E-01  1.50000000E+00  8.00000000E-01
  8.00000000E-01  1.50000000E+00  8.00000000E-01  8.00000000E-01  1.50000000E+00
  8.00000000E-01  8.00000000E-01  1.50000000E+00  8.00000000E-01  8.00000000E-01
  1.50000000E+00  8.00000000E-01  8.00000000E-01  1.50000000E+00  8.00000000E-01
  8.00000000E-01  1.50000000E+00  8.00000000E-01  8.00000000E-01  1.50000000E+00
  8.00000000E-01  8.00000000E-01  1.50000000E+00  8.00000000E-01  8.00000000E-01
  1.50000000E+00  8.00000000E-01  8.00000000E-01  1.50000000E+00  8.00000000E-01
  8.00000000E-01  1.50000000E+00  8.00000000E-01  8.00000000E-01  1.50000000E+00
  8.00000000E-01  8.00000000E-01  1.50000000E+00  8.00000000E-01  8.00000000E-01
  1.50000000E+00  8.00000000E-01  8.00000000E-01  1.50000000E+00  8.00000000E-01
  8.00000000E-01  1.50000000E+00  8.00000000E-01  8.00000000E-01  1.50000000E+00
  8.00000000E-01  8.00000000E-01  1.50000000E+00  8.00000000E-01  8.00000000E-01
  1.50000000E+00  8.00000000E-01  8.00000000E-01  1.50000000E+00  8.00000000E-01
  8.00000000E-01  1.50000000E+00  8.00000000E-01  8.00000000E-01  1.50000000E+00
  8.00000000E-01  8.00000000E-01  1.50000000E+00  8.00000000E-01  8.00000000E-01
  1.50000000E+00  8.00000000E-01  8.00000000E-01  1.50000000E+00  8.00000000E-01
  8.00000000E-01  1.50000000E+00  8.00000000E-01  8.00000000E-01  1.50000000E+00
  8.00000000E-01  8.00000000E-01  1.50000000E+00  8.00000000E-01  8.00000000E-01
  1.50000000E+00  8.00000000E-01  8.00000000E-01  1.50000000E+00  8.00000000E-01
  8.00000000E-01  1.50000000E+00  8.00000000E-01  8.00000000E-01  1.50000000E+00
  8.00000000E-01  8.00000000E-01  1.50000000E+00  8.00000000E-01  8.00000000E-01
  1.50000000E+00  8.00000000E-01  8.00000000E-01  1.50000000E+00  8.00000000E-01
  8.00000000E-01  1.50000000E+00  8.00000000E-01  8.00000000E-01  1.50000000E+00
  8.00000000E-01  8.00000000E-01  1.50000000E+00  8.00000000E-01  8.00000000E-01
  1.50000000E+00  8.00000000E-01  8.00000000E-01  1.50000000E+00  8.00000000E-01
  8.00000000E-01  1.50000000E+00  8.00000000E-01  8.00000000E-01  1.50000000E+00
  8.00000000E-01  8.00000000E-01  1.50000000E+00  8.00000000E-01  8.00000000E-01
  1.50000000E+00  8.00000000E-01  8.00000000E-01  1.50000000E+00  8.00000000E-01
  8.00000000E-01  1.50000000E+00  8.00000000E-01  8.00000000E-01  1.50000000E+00
  8.00000000E-01  8.00000000E-01  1.50000000E+00  8.00000000E-01  8.00000000E-01
  1.50000000E+00  8.00000000E-01  8.00000000E-01  1.50000000E+00  8.00000000E-01
  8.00000000E-01  1.50000000E+00  8.00000000E-01  8.00000000E-01  1.50000000E+00
  8.00000000E-01  8.00000000E-01  1.50000000E+00  8.00000000E-01  8.00000000E-01
  1.50000000E+00  8.00000000E-01  8.00000000E-01  1.50000000E+00  8.00000000E-01
  8.00000000E-01  1.50000000E+00  8.00000000E-01  8.00000000E-01  1.50000000E+00
  8.00000000E-01  8.00000000E-01  1.50000000E+00  8.00000000E-01  8.00000000E-01
  1.50000000E+00  8.00000000E-01  8.00000000E-01  1.50000000E+00  8.00000000E-01
  8.00000000E-01  1.50000000E+00  8.00000000E-01  8.00000000E-01  1.50000000E+00
  8.00000000E-01  8.00000000E-01  1.50000000E+00  8.00000000E-01  8.00000000E-01
  1.50000000E+00  8.00000000E-01  8.00000000E-01  1.50000000E+00  8.00000000E-01
  8.00000000E-01  1.50000000E+00  8.00000000E-01  8.00000000E-01  1.50000000E+00
  8.00000000E-01  8.00000000E-01  1.50000000E+00  8.00000000E-01  8.00000000E-01
  1.50000000E+00  8.00000000E-01  8.00000000E-01  1.50000000E+00  8.00000000E-01
  8.00000000E-01  1.50000000E+00  8.00000000E-01  8.00000000E-01  1.50000000E+00
  8.00000000E-01  8.00000000E-01  1.50000000E+00  8.00000000E-01  8.00000000E-01
  1.50000000E+00  8.00000000E-01  8.00000000E-01  1.50000000E+00  8.00000000E-01
  8.00000000E-01  1.50000000E+00  8.00000000E-01  8.00000000E-01  1.50000000E+00
  8.00000000E-01  8.00000000E-01  1.50000000E+00  8.00000000E-01  8.00000000E-01
  1.50000000E+00  8.00000000E-01  8.00000000E-01  1.50000000E+00  8.00000000E-01
  8.00000000E-01  1.50000000E+00  8.00000000E-01  8.00000000E-01  1.50000000E+00
  8.00000000E-01  8.00000000E-01  1.50000000E+00  8.00000000E-01  8.00000000E-01
  1.50000000E+00  8.00000000E-01  8.00000000E-01  1.50000000E+00  8.00000000E-01
  8.00000000E-01  1.50000000E+00  8.00000000E-01  8.00000000E-01  1.50000000E+00
  8.00000000E-01  8.00000000E-01  1.50000000E+00  8.00000000E-01  8.00000000E-01
  1.50000000E+00  8.00000000E-01  8.00000000E-01  1.50000000E+00  8.00000000E-01
  8.00000000E-01  1.50000000E+00  8.00000000E-01  8.00000000E-01  1.50000000E+00
  8.00000000E-01  8.00000000E-01  1.50000000E+00  8.00000000E-01  8.00000000E-01
  1.50000000E+00  8.00000000E-01  8.00000000E-01  1.50000000E+00  8.00000000E-01
  8.00000000E-01  1.50000000E+00  8.00000000E-01  8.00000000E-01  1.50000000E+00
  8.00000000E-01  8.00000000E-01  1.50000000E+00  8.00000000E-01  8.00000000E-01
  1.50000000E+00  8.00000000E-01  8.00000000E-01  1.50000000E+00  8.00000000E-01
  8.00000000E-01  1.50000000E+00  8.00000000E-01  8.00000000E-01  1.50000000E+00
  8.00000000E-01  8.00000000E-01  1.50000000E+00  8.00000000E-01  8.00000000E-01
  1.50000000E+00  8.00000000E-01  8.00000000E-01  1.50000000E+00  8.00000000E-01
  8.00000000E-01  1.50000000E+00  8.00000000E-01  8.00000000E-01  1.50000000E+00
  8.00000000E-01  8.00000000E-01  1.50000000E+00  8.00000000E-01  8.00000000E-01
  1.50000000E+00  8.00000000E-01  8.00000000E-01  1.50000000E+00  8.00000000E-01
  8.00000000E-01  1.50000000E+00  8.00000000E-01  8.00000000E-01  1.50000000E+00
  8.00000000E-01  8.00000000E-01  1.50000000E+00  8.00000000E-01  8.00000000E-01
  1.50000000E+00  8.00000000E-01  8.00000000E-01  1.50000000E+00  8.00000000E-01
  8.00000000E-01  1.50000000E+00  8.00000000E-01  8.00000000E-01  1.50000000E+00
  8.00000000E-01  8.00000000E-01  1.50000000E+00  8.00000000E-01  8.00000000E-01
  1.50000000E+00  8.00000000E-01  8.00000000E-01  1.50000000E+00  8.00000000E-01
  8.00000000E-01  1.50000000E+00  8.00000000E-01  8.00000000E-01  1.50000000E+00
  8.00000000E-01  8.00000000E-01  1.50000000E+00  8.00000000E-01  8.00000000E-01
  1.50000000E+00  8.00000000E-01  8.00000000E-01  1.50000000E+00  8.00000000E-01
  8.00000000E-01  1.50000000E+00  8.00000000E-01  8.00000000E-01  1.50000000E+00
  8.00000000E-01  8.00000000E-01  1.50000000E+00  8.00000000E-01  8.00000000E-01
  1.50000000E+00  8.00000000E-01  8.00000000E-01  1.50000000E+00  8.00000000E-01
  8.00000000E-01  1.50000000E+00  8.00000000E-01  8.00000000E-01  1.50000000E+00
  8.00000000E-01  8.00000000E-01  1.50000000E+00  8.00000000E-01  8.00000000E-01
  1.50000000E+00  8.00000000E-01  8.00000000E-01  1.50000000E+00  8.00000000E-01
  8.00000000E-01  1.50000000E+00  8.00000000E-01  8.00000000E-01  1.50000000E+00
  8.00000000E-01  8.00000000E-01  1.50000000E+00  8.00000000E-01  8.00000000E-01
  1.50000000E+00  8.00000000E-01  8.00000000E-01  1.50000000E+00  8.00000000E-01
  8.00000000E-01  1.50000000E+00  8.00000000E-01  8.00000000E-01  1.50000000E+00
  8.00000000E-01  8.00000000E-01  1.50000000E+00  8.00000000E-01  8.00000000E-01
  1.50000000E+00  8.00000000E-01  8.00000000E-01  1.50000000E+00  8.00000000E-01
  8.00000000E-01  1.50000000E+00  8.00000000E-01  8.00000000E-01  1.50000000E+00
  8.00000000E-01  8.00000000E-01  1.50000000E+00  8.00000000E-01  8.00000000E-01
  1.50000000E+00  8.00000000E-01  8.00000000E-01  1.50000000E+00  8.00000000E-01
  8.00000000E-01  1.50000000E+00  8.00000000E-01  8.00000000E-01  1.50000000E+00
  8.00000000E-01  8.00000000E-01  1.50000000E+00  8.00000000E-01  8.00000000E-01
  1.50000000E+00  8.00000000E-01  8.00000000E-01  1.50000000E+00  8.00000000E-01
  8.00000000E-01  1.50000000E+00  8.00000000E-01  8.00000000E-01  1.50000000E+00
  8.00000000E-01  8.00000000E-01  1.50000000E+00  8.00000000E-01  8.00000000E-01
  1.50000000E+00  8.00000000E-01  8.00000000E-01  1.50000000E+00  8.00000000E-01
  8.00000000E-01  1.50000000E+00  8.00000000E-01  8.00000000E-01  1.50000000E+00
  8.00000000E-01  8.00000000E-01  1.50000000E+00  8.00000000E-01  8.00000000E-01
  1.50000000E+00  8.00000000E-01  8.00000000E-01  1.50000000E+00  8.00000000E-01
  8.00000000E-01  1.50000000E+00  8.00000000E-01  8.00000000E-01  1.50000000E+00
  8.00000000E-01  8.00000000E-01  1.50000000E+00  8.00000000E-01  8.00000000E-01
  1.50000000E+00  8.00000000E-01  8.00000000E-01  1.50000000E+00  8.00000000E-01
  8.00000000E-01  1.50000000E+00  8.00000000E-01  8.00000000E-01  1.50000000E+00
  8.00000000E-01  8.00000000E-01  1.50000000E+00  8.00000000E-01  8.00000000E-01
  1.50000000E+00  8.00000000E-01  8.00000000E-01  1.50000000E+00  8.00000000E-01
  8.00000000E-01  1.50000000E+00  8.00000000E-01  8.00000000E-01  1.50000000E+00
  8.00000000E-01  8.00000000E-01  1.50000000E+00  8.00000000E-01  8.00000000E-01
  1.50000000E+00  8.00000000E-01  8.00000000E-01  1.50000000E+00  8.00000000E-01
  8.00000000E-01  1.50000000E+00  8.00000000E-01  8.00000000E-01  1.50000000E+00
  8.00000000E-01  8.00000000E-01  1.50000000E+00  8.00000000E-01  8.00000000E-01
  1.50000000E+00  8.00000000E-01  8.00000000E-01  1.50000000E+00  8.00000000E-01
  8.00000000E-01  1.50000000E+00  8.00000000E-01  8.00000000E-01  1.50000000E+00
  8.00000000E-01  8.00000000E-01  1.50000000E+00  8.00000000E-01  8.00000000E-01
  1.50000000E+00  8.00000000E-01  8.00000000E-01  1.50000000E+00  8.00000000E-01
  8.00000000E-01  1.50000000E+00  8.00000000E-01  8.00000000E-01  1.50000000E+00
  8.00000000E-01  8.00000000E-01  1.50000000E+00  8.00000000E-01  8.00000000E-01
  1.50000000E+00  8.00000000E-01  8.00000000E-01  1.50000000E+00  8.00000000E-01
  8.00000000E-01  1.50000000E+00  8.00000000E-01  8.00000000E-01  1.50000000E+00
  8.00000000E-01  8.00000000E-01  1.50000000E+00  8.00000000E-01  8.00000000E-01
  1.50000000E+00  8.00000000E-01  8.00000000E-01  1.50000000E+00  8.00000000E-01
  8.00000000E-01  1.50000000E+00  8.00000000E-01  8.00000000E-01  1.50000000E+00
  8.00000000E-01  8.00000000E-01  1.50000000E+00  8.00000000E-01  8.00000000E-01
  1.50000000E+00  8.00000000E-01  8.00000000E-01  1.50000000E+00  8.00000000E-01
  8.00000000E-01  1.50000000E+00  8.00000000E-01  8.00000000E-01  1.50000000E+00
  8.00000000E-01  8.00000000E-01  1.50000000E+00  8.00000000E-01  8.00000000E-01
  1.50000000E+00  8.00000000E-01  8.00000000E-01  1.50000000E+00  8.00000000E-01
  8.00000000E-01  1.50000000E+00  8.00000000E-01  8.00000000E-01  1.50000000E+00
  8.00000000E-01  8.00000000E-01  1.50000000E+00  8.00000000E-01  8.00000000E-01
  1.50000000E+00  8.00000000E-01  8.00000000E-01  1.50000000E+00  8.00000000E-01
  8.00000000E-01  1.50000000E+00  8.00000000E-01  8.00000000E-01  1.50000000E+00
  8.00000000E-01  8.00000000E-01  1.50000000E+00  8.00000000E-01  8.00000000E-01
  1.50000000E+00  8.00000000E-01  8.00000000E-01  1.50000000E+00  8.00000000E-01
  8.00000000E-01  1.50000000E+00  8.00000000E-01  8.00000000E-01  1.50000000E+00
  8.00000000E-01  8.00000000E-01  1.50000000E+00  8.00000000E-01  8.00000000E-01
  1.50000000E+00  8.00000000E-01  8.00000000E-01  1.50000000E+00  8.00000000E-01
  8.00000000E-01  1.50000000E+00  8.00000000E-01  8.00000000E-01  1.50000000E+00
  8.00000000E-01  8.00000000E-01  1.50000000E+00  8.00000000E-01  8.00000000E-01
  1.50000000E+00  8.00000000E-01  8.00000000E-01  1.50000000E+00  8.00000000E-01
  8.00000000E-01  1.50000000E+00  8.00000000E-01  8.00000000E-01  1.50000000E+00
  8.00000000E-01  8.00000000E-01  1.50000000E+00  8.00000000E-01  8.00000000E-01
  1.50000000E+00  8.00000000E-01  8.00000000E-01  1.50000000E+00  8.00000000E-01
  8.00000000E-01  1.50000000E+00  8.00000000E-01  8.00000000E-01  1.50000000E+00
  8.00000000E-01  8.00000000E-01  1.50000000E+00  8.00000000E-01  8.00000000E-01
  1.50000000E+00  8.00000000E-01  8.00000000E-01  1.50000000E+00  8.00000000E-01
  8.00000000E-01  1.50000000E+00  8.00000000E-01  8.00000000E-01  1.50000000E+00
  8.00000000E-01  8.00000000E-01  1.50000000E+00  8.00000000E-01  8.00000000E-01
  1.50000000E+00  8.00000000E-01  8.00000000E-01  1.50000000E+00  8.00000000E-01
  8.00000000E-01  1.50000000E+00  8.00000000E-01  8.00000000E-01  1.50000000E+00
  8.00000000E-01  8.00000000E-01  1.50000000E+00  8.00000000E-01  8.00000000E-01
  1.50000000E+00  8.00000000E-01  8.00000000E-01  1.50000000E+00  8.00000000E-01
  8.00000000E-01  1.50000000E+00  8.00000000E-01  8.00000000E-01  1.50000000E+00
  8.00000000E-01  8.00000000E-01  1.50000000E+00  8.00000000E-01  8.00000000E-01
  1.50000000E+00  8.00000000E-01  8.00000000E-01  1.50000000E+00  8.00000000E-01
  8.00000000E-01  1.50000000E+00  8.00000000E-01  8.00000000E-01  1.50000000E+00
  8.00000000E-01  8.00000000E-01  1.50000000E+00  8.00000000E-01  8.00000000E-01
  1.50000000E+00  8.00000000E-01  8.00000000E-01  1.50000000E+00  8.00000000E-01
  8.00000000E-01  1.50000000E+00  8.00000000E-01  8.00000000E-01  1.50000000E+00
  8.00000000E-01  8.00000000E-01  1.50000000E+00  8.00000000E-01  8.00000000E-01
  1.50000000E+00  8.00000000E-01  8.00000000E-01  1.50000000E+00  8.00000000E-01
  8.00000000E-01  1.50000000E+00  8.00000000E-01  8.00000000E-01  1.50000000E+00
  8.00000000E-01  8.00000000E-01  1.50000000E+00  8.00000000E-01  8.00000000E-01
  1.50000000E+00  8.00000000E-01  8.00000000E-01  1.50000000E+00  8.00000000E-01
  8.00000000E-01  1.50000000E+00  8.00000000E-01  8.00000000E-01  1.50000000E+00
  8.00000000E-01  8.00000000E-01  1.50000000E+00  8.00000000E-01  8.00000000E-01
  1.50000000E+00  8.00000000E-01  8.00000000E-01  1.50000000E+00  8.00000000E-01
  8.00000000E-01  1.50000000E+00  8.00000000E-01  8.00000000E-01  1.50000000E+00
  8.00000000E-01  8.00000000E-01  1.50000000E+00  8.00000000E-01  8.00000000E-01
  1.50000000E+00  8.00000000E-01  8.00000000E-01  1.50000000E+00  8.00000000E-01
  8.00000000E-01  1.50000000E+00  8.00000000E-01  8.00000000E-01  1.50000000E+00
  8.00000000E-01  8.00000000E-01  1.50000000E+00  8.00000000E-01  8.00000000E-01
  1.50000000E+00  8.00000000E-01  8.00000000E-01  1.50000000E+00  8.00000000E-01
  8.00000000E-01  1.50000000E+00  8.00000000E-01  8.00000000E-01  1.50000000E+00
  8.00000000E-01  8.00000000E-01  1.50000000E+00  8.00000000E-01  8.00000000E-01
  1.50000000E+00  8.00000000E-01  8.00000000E-01  1.50000000E+00  8.00000000E-01
  8.00000000E-01  1.50000000E+00  8.00000000E-01  8.00000000E-01  1.50000000E+00
  8.00000000E-01  8.00000000E-01  1.50000000E+00  8.00000000E-01  8.00000000E-01
  1.50000000E+00  8.00000000E-01  8.00000000E-01  1.50000000E+00  8.00000000E-01
  8.00000000E-01  1.50000000E+00  8.00000000E-01  8.00000000E-01  1.50000000E+00
  8.00000000E-01  8.00000000E-01  1.50000000E+00  8.00000000E-01  8.00000000E-01
  1.50000000E+00  8.00000000E-01  8.00000000E-01  1.50000000E+00  8.00000000E-01
  8.00000000E-01  1.50000000E+00  8.00000000E-01  8.00000000E-01  1.50000000E+00
  8.00000000E-01  8.00000000E-01  1.50000000E+00  8.00000000E-01  8.00000000E-01
  1.50000000E+00  8.00000000E-01  8.00000000E-01  1.50000000E+00  8.00000000E-01
  8.00000000E-01  1.50000000E+00  8.00000000E-01  8.00000000E-01  1.50000000E+00
  8.00000000E-01  8.00000000E-01  1.50000000E+00  8.00000000E-01  8.00000000E-01
  1.50000000E+00  8.00000000E-01  8.00000000E-01  1.50000000E+00  8.00000000E-01
  8.00000000E-01  1.50000000E+00  8.00000000E-01  8.00000000E-01  1.50000000E+00
  8.00000000E-01  8.00000000E-01  1.50000000E+00  8.00000000E-01  8.00000000E-01
  1.50000000E+00  8.00000000E-01  8.00000000E-01  1.50000000E+00  8.00000000E-01
  8.00000000E-01  1.50000000E+00  8.00000000E-01  8.00000000E-01  1.50000000E+00
  8.00000000E-01  8.00000000E-01  1.50000000E+00  8.00000000E-01  8.00000000E-01
  1.50000000E+00  8.00000000E-01  8.00000000E-01  1.50000000E+00  8.00000000E-01
  8.00000000E-01  1.50000000E+00  8.00000000E-01  8.00000000E-01  1.50000000E+00
  8.00000000E-01  8.00000000E-01  1.50000000E+00  8.00000000E-01  8.00000000E-01
  1.50000000E+00  8.00000000E-01  8.00000000E-01  1.50000000E+00  8.00000000E-01
  8.00000000E-01  1.50000000E+00  8.00000000E-01  8.00000000E-01  1.50000000E+00
  8.00000000E-01  8.00000000E-01  1.50000000E+00  8.00000000E-01  8.00000000E-01
  1.50000000E+00  8.00000000E-01  8.00000000E-01  1.50000000E+00  8.00000000E-01
  8.00000000E-01  1.50000000E+00  8.00000000E-01  8.00000000E-01  1.50000000E+00
  8.00000000E-01  8.00000000E-01  1.50000000E+00  8.00000000E-01  8.00000000E-01
  1.50000000E+00  8.00000000E-01  8.00000000E-01  1.50000000E+00  8.00000000E-01
  8.00000000E-01  1.50000000E+00  8.00000000E-01  8.00000000E-01  1.50000000E+00
  8.00000000E-01  8.00000000E-01  1.50000000E+00  8.00000000E-01  8.00000000E-01
  1.50000000E+00  8.00000000E-01  8.00000000E-01  1.50000000E+00  8.00000000E-01
  8.00000000E-01  1.50000000E+00  8.00000000E-01  8.00000000E-01  1.50000000E+00
  8.00000000E-01  8.00000000E-01  1.50000000E+00  8.00000000E-01  8.00000000E-01
  1.50000000E+00  8.00000000E-01  8.00000000E-01  1.50000000E+00  8.00000000E-01
  8.00000000E-01  1.50000000E+00  8.00000000E-01  8.00000000E-01  1.50000000E+00
  8.00000000E-01  8.00000000E-01  1.50000000E+00  8.00000000E-01  8.00000000E-01
  1.50000000E+00  8.00000000E-01  8.00000000E-01  1.50000000E+00  8.00000000E-01
  8.00000000E-01  1.50000000E+00  8.00000000E-01  8.00000000E-01  1.50000000E+00
  8.00000000E-01  8.00000000E-01  1.50000000E+00  8.00000000E-01  8.00000000E-01
  1.50000000E+00  8.00000000E-01  8.00000000E-01  1.50000000E+00  8.00000000E-01
  8.00000000E-01  1.50000000E+00  8.00000000E-01  8.00000000E-01  1.50000000E+00
  8.00000000E-01  8.00000000E-01  1.50000000E+00  8.00000000E-01  8.00000000E-01
  1.50000000E+00  8.00000000E-01  8.00000000E-01  1.50000000E+00  8.00000000E-01
  8.00000000E-01  1.50000000E+00  8.00000000E-01  8.00000000E-01  1.50000000E+00
  8.00000000E-01  8.00000000E-01  1.50000000E+00  8.00000000E-01  8.00000000E-01
  1.50000000E+00  8.00000000E-01  8.00000000E-01  1.50000000E+00  8.00000000E-01
  8.00000000E-01  1.50000000E+00  8.00000000E-01  8.00000000E-01  1.50000000E+00
  8.00000000E-01  8.00000000E-01  1.50000000E+00  8.00000000E-01  8.00000000E-01
  1.50000000E+00  8.00000000E-01  8.00000000E-01  1.50000000E+00  8.00000000E-01
  8.00000000E-01  1.50000000E+00  8.00000000E-01  8.00000000E-01  1.50000000E+00
  8.00000000E-01  8.00000000E-01  1.50000000E+00  8.00000000E-01  8.00000000E-01
  1.50000000E+00  8.00000000E-01  8.00000000E-01  1.50000000E+00  8.00000000E-01
  8.00000000E-01  1.50000000E+00  8.00000000E-01  8.00000000E-01  1.50000000E+00
  8.00000000E-01  8.00000000E-01  1.50000000E+00  8.00000000E-01  8.00000000E-01
  1.50000000E+00  8.00000000E-01  8.00000000E-01  1.50000000E+00  8.00000000E-01
  8.00000000E-01  1.50000000E+00  8.00000000E-01  8.00000000E-01  1.50000000E+00
  8.00000000E-01  8.00000000E-01  1.50000000E+00  8.00000000E-01  8.00000000E-01
  1.50000000E+00  8.00000000E-01  8.00000000E-01  1.50000000E+00  8.00000000E-01
  8.00000000E-01  1.50000000E+00  8.00000000E-01  8.00000000E-01  1.50000000E+00
  8.00000000E-01  8.00000000E-01  1.50000000E+00  8.00000000E-01  8.00000000E-01
  1.50000000E+00  8.00000000E-01  8.00000000E-01  1.50000000E+00  8.00000000E-01
  8.00000000E-01  1.50000000E+00  8.00000000E-01  8.00000000E-01  1.50000000E+00
  8.00000000E-01  8.00000000E-01  1.50000000E+00  8.00000000E-01  8.00000000E-01
  1.50000000E+00  8.00000000E-01  8.00000000E-01  1.50000000E+00  8.00000000E-01
  8.00000000E-01  1.50000000E+00  8.00000000E-01  8.00000000E-01  1.50000000E+00
  8.00000000E-01  8.00000000E-01  1.50000000E+00  8.00000000E-01  8.00000000E-01
  1.50000000E+00  8.00000000E-01  8.00000000E-01  1.50000000E+00  8.00000000E-01
  8.00000000E-01  1.50000000E+00  8.00000000E-01  8.00000000E-01  1.50000000E+00
  8.00000000E-01  8.00000000E-01  1.50000000E+00  8.00000000E-01  8.00000000E-01
  1.50000000E+00  8.00000000E-01  8.00000000E-01  1.50000000E+00  8.00000000E-01
  8.00000000E-01  1.50000000E+00  8.00000000E-01  8.00000000E-01  1.50000000E+00
  8.00000000E-01  8.00000000E-01  1.50000000E+00  8.00000000E-01  8.00000000E-01
  1.50000000E+00  8.00000000E-01  8.00000000E-01  1.50000000E+00  8.00000000E-01
  8.00000000E-01  1.50000000E+00  8.00000000E-01  8.00000000E-01  1.50000000E+00
  8.00000000E-01  8.00000000E-01  1.50000000E+00  8.00000000E-01  8.00000000E-01
  1.50000000E+00  8.00000000E-01  8.00000000E-01  1.50000000E+00  8.00000000E-01
  8.00000000E-01  1.50000000E+00  8.00000000E-01  8.00000000E-01  1.50000000E+00
  8.00000000E-01  8.00000000E-01  1.50000000E+00  8.00000000E-01  8.00000000E-01
  1.50000000E+00  8.00000000E-01  8.00000000E-01  1.50000000E+00  8.00000000E-01
  8.00000000E-01  1.50000000E+00  8.00000000E-01  8.00000000E-01  1.50000000E+00
  8.00000000E-01  8.00000000E-01  1.50000000E+00  8.00000000E-01  8.00000000E-01
  1.50000000E+00  8.00000000E-01  8.00000000E-01  1.50000000E+00  8.00000000E-01
  8.00000000E-01  1.50000000E+00  8.00000000E-01  8.00000000E-01  1.50000000E+00
  8.00000000E-01  8.00000000E-01  1.50000000E+00  8.00000000E-01  8.00000000E-01
  1.50000000E+00  8.00000000E-01  8.00000000E-01  1.50000000E+00  8.00000000E-01
  8.00000000E-01  1.50000000E+00  8.00000000E-01  8.00000000E-01  1.50000000E+00
  8.00000000E-01  8.00000000E-01  1.50000000E+00  8.00000000E-01  8.00000000E-01
  1.50000000E+00  8.00000000E-01  8.00000000E-01  1.50000000E+00  8.00000000E-01
  8.00000000E-01  1.50000000E+00  8.00000000E-01  8.00000000E-01  1.50000000E+00
  8.00000000E-01  8.00000000E-01  1.50000000E+00  8.00000000E-01  8.00000000E-01
  1.50000000E+00  8.00000000E-01  8.00000000E-01  1.50000000E+00  8.00000000E-01
  8.00000000E-01  1.50000000E+00  8.00000000E-01  8.00000000E-01  1.50000000E+00
  8.00000000E-01  8.00000000E-01  1.50000000E+00  8.00000000E-01  8.00000000E-01
  1.50000000E+00  8.00000000E-01  8.00000000E-01  1.50000000E+00  8.00000000E-01
  8.00000000E-01  1.50000000E+00  8.00000000E-01  8.00000000E-01  1.50000000E+00
  8.00000000E-01  8.00000000E-01  1.50000000E+00  8.00000000E-01  8.00000000E-01
  1.50000000E+00  8.00000000E-01  8.00000000E-01  1.50000000E+00  8.00000000E-01
  8.00000000E-01  1.50000000E+00  8.00000000E-01  8.00000000E-01  1.50000000E+00
  8.00000000E-01  8.00000000E-01  1.50000000E+00  8.00000000E-01  8.00000000E-01
  1.50000000E+00  8.00000000E-01  8.00000000E-01  1.50000000E+00  8.00000000E-01
  8.00000000E-01  1.50000000E+00  8.00000000E-01  8.00000000E-01  1.50000000E+00
  8.00000000E-01  8.00000000E-01  1.50000000E+00  8.00000000E-01  8.00000000E-01
  1.50000000E+00  8.00000000E-01  8.00000000E-01  1.50000000E+00  8.00000000E-01
  8.00000000E-01  1.50000000E+00  8.00000000E-01  8.00000000E-01  1.50000000E+00
  8.00000000E-01  8.00000000E-01  1.50000000E+00  8.00000000E-01  8.00000000E-01
  1.50000000E+00  8.00000000E-01  8.00000000E-01  1.50000000E+00  8.00000000E-01
  8.00000000E-01  1.50000000E+00  8.00000000E-01  8.00000000E-01  1.50000000E+00
  8.00000000E-01  8.00000000E-01  1.50000000E+00  8.00000000E-01  8.00000000E-01
  1.50000000E+00  8.00000000E-01  8.00000000E-01  1.50000000E+00  8.00000000E-01
  8.00000000E-01  1.50000000E+00  8.00000000E-01  8.00000000E-01  1.50000000E+00
  8.00000000E-01  8.00000000E-01  1.50000000E+00  8.00000000E-01  8.00000000E-01
  1.50000000E+00  8.00000000E-01  8.00000000E-01  1.50000000E+00  8.00000000E-01
  8.00000000E-01  1.50000000E+00  8.00000000E-01  8.00000000E-01  1.50000000E+00
  8.00000000E-01  8.00000000E-01  1.50000000E+00  8.00000000E-01  8.00000000E-01
  1.50000000E+00  8.00000000E-01  8.00000000E-01  1.50000000E+00  8.00000000E-01
  8.00000000E-01  1.50000000E+00  8.00000000E-01  8.00000000E-01  1.50000000E+00
  8.00000000E-01  8.00000000E-01  1.50000000E+00  8.00000000E-01  8.00000000E-01
  1.50000000E+00  8.00000000E-01  8.00000000E-01  1.50000000E+00  8.00000000E-01
  8.00000000E-01  1.50000000E+00  8.00000000E-01  8.00000000E-01  1.50000000E+00
  8.00000000E-01  8.00000000E-01  1.50000000E+00  8.00000000E-01  8.00000000E-01
  1.50000000E+00  8.00000000E-01  8.00000000E-01  1.50000000E+00  8.00000000E-01
  8.00000000E-01  1.50000000E+00  8.00000000E-01  8.00000000E-01  1.50000000E+00
  8.00000000E-01  8.00000000E-01  1.50000000E+00  8.00000000E-01  8.00000000E-01
  1.50000000E+00  8.00000000E-01  8.00000000E-01  1.50000000E+00  8.00000000E-01
  8.00000000E-01  1.50000000E+00  8.00000000E-01  8.00000000E-01  1.50000000E+00
  8.00000000E-01  8.00000000E-01  1.50000000E+00  8.00000000E-01  8.00000000E-01
  1.50000000E+00  8.00000000E-01  8.00000000E-01  1.50000000E+00  8.00000000E-01
  8.00000000E-01  1.50000000E+00  8.00000000E-01  8.00000000E-01  1.50000000E+00
  8.00000000E-01  8.00000000E-01  1.50000000E+00  8.00000000E-01  8.00000000E-01
  1.50000000E+00  8.00000000E-01  8.00000000E-01  1.50000000E+00  8.00000000E-01
  8.00000000E-01  1.50000000E+00  8.00000000E-01  8.00000000E-01  1.50000000E+00
  8.00000000E-01  8.00000000E-01  1.50000000E+00  8.00000000E-01  8.00000000E-01
  1.50000000E+00  8.00000000E-01  8.00000000E-01  1.50000000E+00  8.00000000E-01
  8.00000000E-01  1.50000000E+00  8.00000000E-01  8.00000000E-01  1.50000000E+00
  8.00000000E-01  8.00000000E-01  1.50000000E+00  8.00000000E-01  8.00000000E-01
  1.50000000E+00  8.00000000E-01  8.00000000E-01  1.50000000E+00  8.00000000E-01
  8.00000000E-01  1.50000000E+00  8.00000000E-01  8.00000000E-01  1.50000000E+00
  8.00000000E-01  8.00000000E-01  1.50000000E+00  8.00000000E-01  8.00000000E-01
  1.50000000E+00  8.00000000E-01  8.00000000E-01  1.50000000E+00  8.00000000E-01
  8.00000000E-01  1.50000000E+00  8.00000000E-01  8.00000000E-01  1.50000000E+00
  8.00000000E-01  8.00000000E-01  1.50000000E+00  8.00000000E-01  8.00000000E-01
  1.50000000E+00  8.00000000E-01  8.00000000E-01  1.50000000E+00  8.00000000E-01
  8.00000000E-01  1.50000000E+00  8.00000000E-01  8.00000000E-01  1.50000000E+00
  8.00000000E-01  8.00000000E-01  1.50000000E+00  8.00000000E-01  8.00000000E-01
  1.50000000E+00  8.00000000E-01  8.00000000E-01  1.50000000E+00  8.00000000E-01
  8.00000000E-01  1.50000000E+00  8.00000000E-01  8.00000000E-01  1.50000000E+00
  8.00000000E-01  8.00000000E-01  1.50000000E+00  8.00000000E-01  8.00000000E-01
  1.50000000E+00  8.00000000E-01  8.00000000E-01  1.50000000E+00  8.00000000E-01
  8.00000000E-01  1.50000000E+00  8.00000000E-01  8.00000000E-01  1.50000000E+00
  8.00000000E-01  8.00000000E-01  1.50000000E+00  8.00000000E-01  8.00000000E-01
  1.50000000E+00  8.00000000E-01  8.00000000E-01  1.50000000E+00  8.00000000E-01
  8.00000000E-01  1.50000000E+00  8.00000000E-01  8.00000000E-01  1.50000000E+00
  8.00000000E-01  8.00000000E-01  1.50000000E+00  8.00000000E-01  8.00000000E-01
  1.50000000E+00  8.00000000E-01  8.00000000E-01  1.50000000E+00  8.00000000E-01
  8.00000000E-01  1.50000000E+00  8.00000000E-01  8.00000000E-01  1.50000000E+00
  8.00000000E-01  8.00000000E-01  1.50000000E+00  8.00000000E-01  8.00000000E-01
  1.50000000E+00  8.00000000E-01  8.00000000E-01  1.50000000E+00  8.00000000E-01
  8.00000000E-01  1.50000000E+00  8.00000000E-01  8.00000000E-01  1.50000000E+00
  8.00000000E-01  8.00000000E-01  1.50000000E+00  8.00000000E-01  8.00000000E-01
  1.50000000E+00  8.00000000E-01  8.00000000E-01  1.50000000E+00  8.00000000E-01
  8.00000000E-01  1.50000000E+00  8.00000000E-01  8.00000000E-01  1.50000000E+00
  8.00000000E-01  8.00000000E-01  1.50000000E+00  8.00000000E-01  8.00000000E-01
  1.50000000E+00  8.00000000E-01  8.00000000E-01  1.50000000E+00  8.00000000E-01
  8.00000000E-01  1.50000000E+00  8.00000000E-01  8.00000000E-01  1.50000000E+00
  8.00000000E-01  8.00000000E-01  1.50000000E+00  8.00000000E-01  8.00000000E-01
  1.50000000E+00  8.00000000E-01  8.00000000E-01  1.50000000E+00  8.00000000E-01
  8.00000000E-01  1.50000000E+00  8.00000000E-01  8.00000000E-01  1.50000000E+00
  8.00000000E-01  8.00000000E-01  1.50000000E+00  8.00000000E-01  8.00000000E-01
  1.50000000E+00  8.00000000E-01  8.00000000E-01  1.50000000E+00  8.00000000E-01
  8.00000000E-01  1.50000000E+00  8.00000000E-01  8.00000000E-01  1.50000000E+00
  8.00000000E-01  8.00000000E-01  1.50000000E+00  8.00000000E-01  8.00000000E-01
  1.50000000E+00  8.00000000E-01  8.00000000E-01  1.50000000E+00  8.00000000E-01
  8.00000000E-01  1.50000000E+00  8.00000000E-01  8.00000000E-01  1.50000000E+00
  8.00000000E-01  8.00000000E-01  1.50000000E+00  8.00000000E-01  8.00000000E-01
  1.50000000E+00  8.00000000E-01  8.00000000E-01  1.50000000E+00  8.00000000E-01
  8.00000000E-01  1.50000000E+00  8.00000000E-01  8.00000000E-01  1.50000000E+00
  8.00000000E-01  8.00000000E-01  1.50000000E+00  8.00000000E-01  8.00000000E-01
  1.50000000E+00  8.00000000E-01  8.00000000E-01  1.50000000E+00  8.00000000E-01
  8.00000000E-01  1.50000000E+00  8.00000000E-01  8.00000000E-01  1.50000000E+00
  8.00000000E-01  8.00000000E-01  1.50000000E+00  8.00000000E-01  8.00000000E-01
  1.50000000E+00  8.00000000E-01  8.00000000E-01  1.50000000E+00  8.00000000E-01
  8.00000000E-01  1.50000000E+00  8.00000000E-01  8.00000000E-01  1.50000000E+00
  8.00000000E-01  8.00000000E-01  1.50000000E+00  8.00000000E-01  8.00000000E-01
  1.50000000E+00  8.00000000E-01  8.00000000E-01  1.50000000E+00  8.00000000E-01
  8.00000000E-01  1.50000000E+00  8.00000000E-01  8.00000000E-01  1.50000000E+00
  8.00000000E-01  8.00000000E-01  1.50000000E+00  8.00000000E-01  8.00000000E-01
  1.50000000E+00  8.00000000E-01  8.00000000E-01  1.50000000E+00  8.00000000E-01
  8.00000000E-01  1.50000000E+00  8.00000000E-01  8.00000000E-01  1.50000000E+00
  8.00000000E-01  8.00000000E-01  1.50000000E+00  8.00000000E-01  8.00000000E-01
  1.50000000E+00  8.00000000E-01  8.00000000E-01  1.50000000E+00  8.00000000E-01
  8.00000000E-01  1.50000000E+00  8.00000000E-01  8.00000000E-01  1.50000000E+00
  8.00000000E-01  8.00000000E-01  1.50000000E+00  8.00000000E-01  8.00000000E-01
  1.50000000E+00  8.00000000E-01  8.00000000E-01  1.50000000E+00  8.00000000E-01
  8.00000000E-01  1.50000000E+00  8.00000000E-01  8.00000000E-01  1.50000000E+00
  8.00000000E-01  8.00000000E-01  1.50000000E+00  8.00000000E-01  8.00000000E-01
  1.50000000E+00  8.00000000E-01  8.00000000E-01  1.50000000E+00  8.00000000E-01
  8.00000000E-01  1.50000000E+00  8.00000000E-01  8.00000000E-01  1.50000000E+00
  8.00000000E-01  8.00000000E-01  1.50000000E+00  8.00000000E-01  8.00000000E-01
  1.50000000E+00  8.00000000E-01  8.00000000E-01  1.50000000E+00  8.00000000E-01
  8.00000000E-01  1.50000000E+00  8.00000000E-01  8.00000000E-01  1.50000000E+00
  8.00000000E-01  8.00000000E-01  1.50000000E+00  8.00000000E-01  8.00000000E-01
  1.50000000E+00  8.00000000E-01  8.00000000E-01  1.50000000E+00  8.00000000E-01
  8.00000000E-01  1.50000000E+00  8.00000000E-01  8.00000000E-01  1.50000000E+00
  8.00000000E-01  8.00000000E-01  1.50000000E+00  8.00000000E-01  8.00000000E-01
  1.50000000E+00  8.00000000E-01  8.00000000E-01  1.50000000E+00  8.00000000E-01
  8.00000000E-01  1.50000000E+00  8.00000000E-01  8.00000000E-01  1.50000000E+00
  8.00000000E-01  8.00000000E-01  1.50000000E+00  8.00000000E-01  8.00000000E-01
  1.50000000E+00  8.00000000E-01  8.00000000E-01  1.50000000E+00  8.00000000E-01
  8.00000000E-01  1.50000000E+00  8.00000000E-01  8.00000000E-01  1.50000000E+00
  8.00000000E-01  8.00000000E-01  1.50000000E+00  8.00000000E-01  8.00000000E-01
  1.50000000E+00  8.00000000E-01  8.00000000E-01  1.50000000E+00  8.00000000E-01
  8.00000000E-01  1.50000000E+00  8.00000000E-01  8.00000000E-01  1.50000000E+00
  8.00000000E-01  8.00000000E-01  1.50000000E+00  8.00000000E-01  8.00000000E-01
  1.50000000E+00  8.00000000E-01  8.00000000E-01  1.50000000E+00  8.00000000E-01
  8.00000000E-01  1.50000000E+00  8.00000000E-01  8.00000000E-01  1.50000000E+00
  8.00000000E-01  8.00000000E-01  1.50000000E+00  8.00000000E-01  8.00000000E-01
  1.50000000E+00  8.00000000E-01  8.00000000E-01  1.50000000E+00  8.00000000E-01
  8.00000000E-01  1.50000000E+00  8.00000000E-01  8.00000000E-01  1.50000000E+00
  8.00000000E-01  8.00000000E-01  1.50000000E+00  8.00000000E-01  8.00000000E-01
  1.50000000E+00  8.00000000E-01  8.00000000E-01  1.50000000E+00  8.00000000E-01
  8.00000000E-01  1.50000000E+00  8.00000000E-01  8.00000000E-01  1.50000000E+00
  8.00000000E-01  8.00000000E-01  1.50000000E+00  8.00000000E-01  8.00000000E-01
  1.50000000E+00  8.00000000E-01  8.00000000E-01  1.50000000E+00  8.00000000E-01
  8.00000000E-01  1.50000000E+00  8.00000000E-01  8.00000000E-01  1.50000000E+00
  8.00000000E-01  8.00000000E-01  1.50000000E+00  8.00000000E-01  8.00000000E-01
  1.50000000E+00  8.00000000E-01  8.00000000E-01  1.50000000E+00  8.00000000E-01
  8.00000000E-01  1.50000000E+00  8.00000000E-01  8.00000000E-01  1.50000000E+00
  8.00000000E-01  8.00000000E-01  1.50000000E+00  8.00000000E-01  8.00000000E-01
  1.50000000E+00  8.00000000E-01  8.00000000E-01  1.50000000E+00  8.00000000E-01
  8.00000000E-01  1.50000000E+00  8.00000000E-01  8.00000000E-01  1.50000000E+00
  8.00000000E-01  8.00000000E-01  1.50000000E+00  8.00000000E-01  8.00000000E-01
  1.50000000E+00  8.00000000E-01  8.00000000E-01  1.50000000E+00  8.00000000E-01
  8.00000000E-01  1.50000000E+00  8.00000000E-01  8.00000000E-01  1.50000000E+00
  8.00000000E-01  8.00000000E-01  1.50000000E+00  8.00000000E-01  8.00000000E-01
  1.50000000E+00  8.00000000E-01  8.00000000E-01  1.50000000E+00  8.00000000E-01
  8.00000000E-01  1.50000000E+00  8.00000000E-01  8.00000000E-01  1.50000000E+00
  8.00000000E-01  8.00000000E-01  1.50000000E+00  8.00000000E-01  8.00000000E-01
  1.50000000E+00  8.00000000E-01  8.00000000E-01  1.50000000E+00  8.00000000E-01
  8.00000000E-01  1.50000000E+00  8.00000000E-01  8.00000000E-01  1.50000000E+00
  8.00000000E-01  8.00000000E-01  1.50000000E+00  8.00000000E-01  8.00000000E-01
  1.50000000E+00  8.00000000E-01  8.00000000E-01  1.50000000E+00  8.00000000E-01
  8.00000000E-01  1.50000000E+00  8.00000000E-01  8.00000000E-01  1.50000000E+00
  8.00000000E-01  8.00000000E-01  1.50000000E+00  8.00000000E-01  8.00000000E-01
  1.50000000E+00  8.00000000E-01  8.00000000E-01  1.50000000E+00  8.00000000E-01
  8.00000000E-01  1.50000000E+00  8.00000000E-01  8.00000000E-01  1.50000000E+00
  8.00000000E-01  8.00000000E-01  1.50000000E+00  8.00000000E-01  8.00000000E-01
  1.50000000E+00  8.00000000E-01  8.00000000E-01  1.50000000E+00  8.00000000E-01
  8.00000000E-01  1.50000000E+00  8.00000000E-01  8.00000000E-01  1.50000000E+00
  8.00000000E-01  8.00000000E-01  1.50000000E+00  8.00000000E-01  8.00000000E-01
  1.50000000E+00  8.00000000E-01  8.00000000E-01  1.50000000E+00  8.00000000E-01
  8.00000000E-01  1.50000000E+00  8.00000000E-01  8.00000000E-01  1.50000000E+00
  8.00000000E-01  8.00000000E-01  1.50000000E+00  8.00000000E-01  8.00000000E-01
  1.50000000E+00  8.00000000E-01  8.00000000E-01  1.50000000E+00  8.00000000E-01
  8.00000000E-01  1.50000000E+00  8.00000000E-01  8.00000000E-01  1.50000000E+00
  8.00000000E-01  8.00000000E-01  1.50000000E+00  8.00000000E-01  8.00000000E-01
  1.50000000E+00  8.00000000E-01  8.00000000E-01  1.50000000E+00  8.00000000E-01
  8.00000000E-01  1.50000000E+00  8.00000000E-01  8.00000000E-01  1.50000000E+00
  8.00000000E-01  8.00000000E-01  1.50000000E+00  8.00000000E-01  8.00000000E-01
  1.50000000E+00  8.00000000E-01  8.00000000E-01  1.50000000E+00  8.00000000E-01
  8.00000000E-01  1.50000000E+00  8.00000000E-01  8.00000000E-01  1.50000000E+00
  8.00000000E-01  8.00000000E-01  1.50000000E+00  8.00000000E-01  8.00000000E-01
  1.50000000E+00  8.00000000E-01  8.00000000E-01  1.50000000E+00  8.00000000E-01
  8.00000000E-01  1.50000000E+00  8.00000000E-01  8.00000000E-01  1.50000000E+00
  8.00000000E-01  8.00000000E-01  1.50000000E+00  8.00000000E-01  8.00000000E-01
  1.50000000E+00  8.00000000E-01  8.00000000E-01  1.50000000E+00  8.00000000E-01
  8.00000000E-01  1.50000000E+00  8.00000000E-01  8.00000000E-01  1.50000000E+00
  8.00000000E-01  8.00000000E-01  1.50000000E+00  8.00000000E-01  8.00000000E-01
  1.50000000E+00  8.00000000E-01  8.00000000E-01  1.50000000E+00  8.00000000E-01
  8.00000000E-01  1.50000000E+00  8.00000000E-01  8.00000000E-01  1.50000000E+00
  8.00000000E-01  8.00000000E-01  1.50000000E+00  8.00000000E-01  8.00000000E-01
  1.50000000E+00  8.00000000E-01  8.00000000E-01  1.50000000E+00  8.00000000E-01
  8.00000000E-01  1.50000000E+00  8.00000000E-01  8.00000000E-01  1.50000000E+00
  8.00000000E-01  8.00000000E-01  1.50000000E+00  8.00000000E-01  8.00000000E-01
  1.50000000E+00  8.00000000E-01  8.00000000E-01  1.50000000E+00  8.00000000E-01
  8.00000000E-01  1.50000000E+00  8.00000000E-01  8.00000000E-01  1.50000000E+00
  8.00000000E-01  8.00000000E-01  1.50000000E+00  8.00000000E-01  8.00000000E-01
  1.50000000E+00  8.00000000E-01  8.00000000E-01  1.50000000E+00  8.00000000E-01
  8.00000000E-01  1.50000000E+00  8.00000000E-01  8.00000000E-01  1.50000000E+00
  8.00000000E-01  8.00000000E-01  1.50000000E+00  8.00000000E-01  8.00000000E-01
  1.50000000E+00  8.00000000E-01  8.00000000E-01  1.50000000E+00  8.00000000E-01
  8.00000000E-01  1.50000000E+00  8.00000000E-01  8.00000000E-01  1.50000000E+00
  8.00000000E-01  8.00000000E-01  1.50000000E+00  8.00000000E-01  8.00000000E-01
  1.50000000E+00  8.00000000E-01  8.00000000E-01  1.50000000E+00  8.00000000E-01
  8.00000000E-01  1.50000000E+00  8.00000000E-01  8.00000000E-01  1.50000000E+00
  8.00000000E-01  8.00000000E-01  1.50000000E+00  8.00000000E-01  8.00000000E-01
  1.50000000E+00  8.00000000E-01  8.00000000E-01  1.50000000E+00  8.00000000E-01
  8.00000000E-01  1.50000000E+00  8.00000000E-01  8.00000000E-01  1.50000000E+00
  8.00000000E-01  8.00000000E-01  1.50000000E+00  8.00000000E-01  8.00000000E-01
  1.50000000E+00  8.00000000E-01  8.00000000E-01  1.50000000E+00  8.00000000E-01
  8.00000000E-01  1.50000000E+00  8.00000000E-01  8.00000000E-01  1.50000000E+00
  8.00000000E-01  8.00000000E-01  1.50000000E+00  8.00000000E-01  8.00000000E-01
  1.50000000E+00  8.00000000E-01  8.00000000E-01  1.50000000E+00  8.00000000E-01
  8.00000000E-01  1.50000000E+00  8.00000000E-01  8.00000000E-01  1.50000000E+00
  8.00000000E-01  8.00000000E-01  1.50000000E+00  8.00000000E-01  8.00000000E-01
  1.50000000E+00  8.00000000E-01  8.00000000E-01  1.50000000E+00  8.00000000E-01
  8.00000000E-01  1.50000000E+00  8.00000000E-01  8.00000000E-01  1.50000000E+00
  8.00000000E-01  8.00000000E-01  1.50000000E+00  8.00000000E-01  8.00000000E-01
  1.50000000E+00  8.00000000E-01  8.00000000E-01  1.50000000E+00  8.00000000E-01
  8.00000000E-01  1.50000000E+00  8.00000000E-01  8.00000000E-01  1.50000000E+00
  8.00000000E-01  8.00000000E-01  1.50000000E+00  8.00000000E-01  8.00000000E-01
  1.50000000E+00  8.00000000E-01  8.00000000E-01  1.50000000E+00  8.00000000E-01
  8.00000000E-01  1.50000000E+00  8.00000000E-01  8.00000000E-01  1.50000000E+00
  8.00000000E-01  8.00000000E-01  1.50000000E+00  8.00000000E-01  8.00000000E-01
  1.50000000E+00  8.00000000E-01  8.00000000E-01  1.50000000E+00  8.00000000E-01
  8.00000000E-01  1.50000000E+00  8.00000000E-01  8.00000000E-01  1.50000000E+00
  8.00000000E-01  8.00000000E-01  1.50000000E+00  8.00000000E-01  8.00000000E-01
  1.50000000E+00  8.00000000E-01  8.00000000E-01  1.50000000E+00  8.00000000E-01
  8.00000000E-01  1.50000000E+00  8.00000000E-01  8.00000000E-01  1.50000000E+00
  8.00000000E-01  8.00000000E-01  1.50000000E+00  8.00000000E-01  8.00000000E-01
  1.50000000E+00  8.00000000E-01  8.00000000E-01  1.50000000E+00  8.00000000E-01
  8.00000000E-01  1.50000000E+00  8.00000000E-01  8.00000000E-01  1.50000000E+00
  8.00000000E-01  8.00000000E-01  1.50000000E+00  8.00000000E-01  8.00000000E-01
  1.50000000E+00  8.00000000E-01  8.00000000E-01  1.50000000E+00  8.00000000E-01
  8.00000000E-01  1.50000000E+00  8.00000000E-01  8.00000000E-01  1.50000000E+00
  8.00000000E-01  8.00000000E-01  1.50000000E+00  8.00000000E-01  8.00000000E-01
  1.50000000E+00  8.00000000E-01  8.00000000E-01  1.50000000E+00  8.00000000E-01
  8.00000000E-01  1.50000000E+00  8.00000000E-01  8.00000000E-01  1.50000000E+00
  8.00000000E-01  8.00000000E-01  1.50000000E+00  8.00000000E-01  8.00000000E-01
  1.50000000E+00  8.00000000E-01  8.00000000E-01  1.50000000E+00  8.00000000E-01
  8.00000000E-01  1.50000000E+00  8.00000000E-01  8.00000000E-01  1.50000000E+00
  8.00000000E-01  8.00000000E-01  1.50000000E+00  8.00000000E-01  8.00000000E-01
  1.50000000E+00  8.00000000E-01  8.00000000E-01  1.50000000E+00  8.00000000E-01
  8.00000000E-01  1.50000000E+00  8.00000000E-01  8.00000000E-01  1.50000000E+00
  8.00000000E-01  8.00000000E-01  1.50000000E+00  8.00000000E-01  8.00000000E-01
  1.50000000E+00  8.00000000E-01  8.00000000E-01  1.50000000E+00  8.00000000E-01
  8.00000000E-01  1.50000000E+00  8.00000000E-01  8.00000000E-01  1.50000000E+00
  8.00000000E-01  8.00000000E-01  1.50000000E+00  8.00000000E-01  8.00000000E-01
  1.50000000E+00  8.00000000E-01  8.00000000E-01  1.50000000E+00  8.00000000E-01
  8.00000000E-01  1.50000000E+00  8.00000000E-01  8.00000000E-01  1.50000000E+00
  8.00000000E-01  8.00000000E-01  1.50000000E+00  8.00000000E-01  8.00000000E-01
  1.50000000E+00  8.00000000E-01  8.00000000E-01  1.50000000E+00  8.00000000E-01
  8.00000000E-01  1.50000000E+00  8.00000000E-01  8.00000000E-01  1.50000000E+00
  8.00000000E-01  8.00000000E-01  1.50000000E+00  8.00000000E-01  8.00000000E-01
  1.50000000E+00  8.00000000E-01  8.00000000E-01  1.50000000E+00  8.00000000E-01
  8.00000000E-01  1.50000000E+00  8.00000000E-01  8.00000000E-01  1.50000000E+00
  8.00000000E-01  8.00000000E-01  1.50000000E+00  8.00000000E-01  8.00000000E-01
  1.50000000E+00  8.00000000E-01  8.00000000E-01  1.50000000E+00  8.00000000E-01
  8.00000000E-01  1.50000000E+00  8.00000000E-01  8.00000000E-01  1.50000000E+00
  8.00000000E-01  8.00000000E-01  1.50000000E+00  8.00000000E-01  8.00000000E-01
  1.50000000E+00  8.00000000E-01  8.00000000E-01  1.50000000E+00  8.00000000E-01
  8.00000000E-01  1.50000000E+00  8.00000000E-01  8.00000000E-01  1.50000000E+00
  8.00000000E-01  8.00000000E-01  1.50000000E+00  8.00000000E-01  8.00000000E-01
  1.50000000E+00  8.00000000E-01  8.00000000E-01  1.50000000E+00  8.00000000E-01
  8.00000000E-01  1.50000000E+00  8.00000000E-01  8.00000000E-01  1.50000000E+00
  8.00000000E-01  8.00000000E-01  1.50000000E+00  8.00000000E-01  8.00000000E-01
  1.50000000E+00  8.00000000E-01  8.00000000E-01  1.50000000E+00  8.00000000E-01
  8.00000000E-01  1.50000000E+00  8.00000000E-01  8.00000000E-01  1.50000000E+00
  8.00000000E-01  8.00000000E-01  1.50000000E+00  8.00000000E-01  8.00000000E-01
  1.50000000E+00  8.00000000E-01  8.00000000E-01  1.50000000E+00  8.00000000E-01
  8.00000000E-01  1.50000000E+00  8.00000000E-01  8.00000000E-01  1.50000000E+00
  8.00000000E-01  8.00000000E-01  1.50000000E+00  8.00000000E-01  8.00000000E-01
  1.50000000E+00  8.00000000E-01  8.00000000E-01  1.50000000E+00  8.00000000E-01
  8.00000000E-01  1.50000000E+00  8.00000000E-01  8.00000000E-01  1.50000000E+00
  8.00000000E-01  8.00000000E-01  1.50000000E+00  8.00000000E-01  8.00000000E-01
  1.50000000E+00  8.00000000E-01  8.00000000E-01  1.50000000E+00  8.00000000E-01
  8.00000000E-01  1.50000000E+00  8.00000000E-01  8.00000000E-01  1.50000000E+00
  8.00000000E-01  8.00000000E-01  1.50000000E+00  8.00000000E-01  8.00000000E-01
  1.50000000E+00  8.00000000E-01  8.00000000E-01  1.50000000E+00  8.00000000E-01
  8.00000000E-01  1.50000000E+00  8.00000000E-01  8.00000000E-01  1.50000000E+00
  8.00000000E-01  8.00000000E-01  1.50000000E+00  8.00000000E-01  8.00000000E-01
  1.50000000E+00  8.00000000E-01  8.00000000E-01  1.50000000E+00  8.00000000E-01
  8.00000000E-01  1.50000000E+00  8.00000000E-01  8.00000000E-01  1.50000000E+00
  8.00000000E-01  8.00000000E-01  1.50000000E+00  8.00000000E-01  8.00000000E-01
  1.50000000E+00  8.00000000E-01  8.00000000E-01  1.50000000E+00  8.00000000E-01
  8.00000000E-01  1.50000000E+00  8.00000000E-01  8.00000000E-01  1.50000000E+00
  8.00000000E-01  8.00000000E-01  1.50000000E+00  8.00000000E-01  8.00000000E-01
  1.50000000E+00  8.00000000E-01  8.00000000E-01  1.50000000E+00  8.00000000E-01
  8.00000000E-01  1.50000000E+00  8.00000000E-01  8.00000000E-01  1.50000000E+00
  8.00000000E-01  8.00000000E-01  1.50000000E+00  8.00000000E-01  8.00000000E-01
  1.50000000E+00  8.00000000E-01  8.00000000E-01  1.50000000E+00  8.00000000E-01
  8.00000000E-01  1.50000000E+00  8.00000000E-01  8.00000000E-01  1.50000000E+00
  8.00000000E-01  8.00000000E-01  1.50000000E+00  8.00000000E-01  8.00000000E-01
  1.50000000E+00  8.00000000E-01  8.00000000E-01  1.50000000E+00  8.00000000E-01
  8.00000000E-01  1.50000000E+00  8.00000000E-01  8.00000000E-01  1.50000000E+00
  8.00000000E-01  8.00000000E-01  1.50000000E+00  8.00000000E-01  8.00000000E-01
  1.50000000E+00  8.00000000E-01  8.00000000E-01  1.50000000E+00  8.00000000E-01
  8.00000000E-01  1.50000000E+00  8.00000000E-01  8.00000000E-01  1.50000000E+00
  8.00000000E-01  8.00000000E-01  1.50000000E+00  8.00000000E-01  8.00000000E-01
  1.50000000E+00  8.00000000E-01  8.00000000E-01  1.50000000E+00  8.00000000E-01
  8.00000000E-01  1.50000000E+00  8.00000000E-01  8.00000000E-01  1.50000000E+00
  8.00000000E-01  8.00000000E-01  1.50000000E+00  8.00000000E-01  8.00000000E-01
  1.50000000E+00  8.00000000E-01  8.00000000E-01  1.50000000E+00  8.00000000E-01
  8.00000000E-01  1.50000000E+00  8.00000000E-01  8.00000000E-01  1.50000000E+00
  8.00000000E-01  8.00000000E-01  1.50000000E+00  8.00000000E-01  8.00000000E-01
  1.50000000E+00  8.00000000E-01  8.00000000E-01  1.50000000E+00  8.00000000E-01
  8.00000000E-01  1.50000000E+00  8.00000000E-01  8.00000000E-01  1.50000000E+00
  8.00000000E-01  8.00000000E-01  1.50000000E+00  8.00000000E-01  8.00000000E-01
  1.50000000E+00  8.00000000E-01  8.00000000E-01  1.50000000E+00  8.00000000E-01
  8.00000000E-01  1.50000000E+00  8.00000000E-01  8.00000000E-01  1.50000000E+00
  8.00000000E-01  8.00000000E-01  1.50000000E+00  8.00000000E-01  8.00000000E-01
  1.50000000E+00  8.00000000E-01  8.00000000E-01  1.50000000E+00  8.00000000E-01
  8.00000000E-01  1.50000000E+00  8.00000000E-01  8.00000000E-01  1.50000000E+00
  8.00000000E-01  8.00000000E-01  1.50000000E+00  8.00000000E-01  8.00000000E-01
  1.50000000E+00  8.00000000E-01  8.00000000E-01  1.50000000E+00  8.00000000E-01
  8.00000000E-01  1.50000000E+00  8.00000000E-01  8.00000000E-01  1.50000000E+00
  8.00000000E-01  8.00000000E-01  1.50000000E+00  8.00000000E-01  8.00000000E-01
  1.50000000E+00  8.00000000E-01  8.00000000E-01  1.50000000E+00  8.00000000E-01
  8.00000000E-01  1.50000000E+00  8.00000000E-01  8.00000000E-01  1.50000000E+00
  8.00000000E-01  8.00000000E-01  1.50000000E+00  8.00000000E-01  8.00000000E-01
  1.50000000E+00  8.00000000E-01  8.00000000E-01  1.50000000E+00  8.00000000E-01
  8.00000000E-01  1.50000000E+00  8.00000000E-01  8.00000000E-01  1.50000000E+00
  8.00000000E-01  8.00000000E-01  1.50000000E+00  8.00000000E-01  8.00000000E-01
  1.50000000E+00  8.00000000E-01  8.00000000E-01  1.50000000E+00  8.00000000E-01
  8.00000000E-01  1.50000000E+00  8.00000000E-01  8.00000000E-01  1.50000000E+00
  8.00000000E-01  8.00000000E-01  1.50000000E+00  8.00000000E-01  8.00000000E-01
  1.50000000E+00  8.00000000E-01  8.00000000E-01  1.50000000E+00  8.00000000E-01
  8.00000000E-01  1.50000000E+00  8.00000000E-01  8.00000000E-01  1.50000000E+00
  8.00000000E-01  8.00000000E-01  1.50000000E+00  8.00000000E-01  8.00000000E-01
  1.50000000E+00  8.00000000E-01  8.00000000E-01  1.50000000E+00  8.00000000E-01
  8.00000000E-01  1.50000000E+00  8.00000000E-01  8.00000000E-01  1.50000000E+00
  8.00000000E-01  8.00000000E-01  1.50000000E+00  8.00000000E-01  8.00000000E-01
  1.50000000E+00  8.00000000E-01  8.00000000E-01  1.50000000E+00  8.00000000E-01
  8.00000000E-01  1.50000000E+00  8.00000000E-01  8.00000000E-01  1.50000000E+00
  8.00000000E-01  8.00000000E-01  1.50000000E+00  8.00000000E-01  8.00000000E-01
  1.50000000E+00  8.00000000E-01  8.00000000E-01  1.50000000E+00  8.00000000E-01
  8.00000000E-01  1.50000000E+00  8.00000000E-01  8.00000000E-01  1.50000000E+00
  8.00000000E-01  8.00000000E-01  1.50000000E+00  8.00000000E-01  8.00000000E-01
  1.50000000E+00  8.00000000E-01  8.00000000E-01  1.50000000E+00  8.00000000E-01
  8.00000000E-01  1.50000000E+00  8.00000000E-01  8.00000000E-01  1.50000000E+00
  8.00000000E-01  8.00000000E-01  1.50000000E+00  8.00000000E-01  8.00000000E-01
  1.50000000E+00  8.00000000E-01  8.00000000E-01  1.50000000E+00  8.00000000E-01
  8.00000000E-01  1.50000000E+00  8.00000000E-01  8.00000000E-01  1.50000000E+00
  8.00000000E-01  8.00000000E-01  1.50000000E+00  8.00000000E-01  8.00000000E-01
  1.50000000E+00  8.00000000E-01  8.00000000E-01  1.50000000E+00  8.00000000E-01
  8.00000000E-01  1.50000000E+00  8.00000000E-01  8.00000000E-01  1.50000000E+00
  8.00000000E-01  8.00000000E-01  1.50000000E+00  8.00000000E-01  8.00000000E-01
  1.50000000E+00  8.00000000E-01  8.00000000E-01  1.50000000E+00  8.00000000E-01
  8.00000000E-01  1.50000000E+00  8.00000000E-01  8.00000000E-01  1.50000000E+00
  8.00000000E-01  8.00000000E-01  1.50000000E+00  8.00000000E-01  8.00000000E-01
  1.50000000E+00  8.00000000E-01  8.00000000E-01  1.50000000E+00  8.00000000E-01
  8.00000000E-01  1.50000000E+00  8.00000000E-01  8.00000000E-01  1.50000000E+00
  8.00000000E-01  8.00000000E-01  1.50000000E+00  8.00000000E-01  8.00000000E-01
  1.50000000E+00  8.00000000E-01  8.00000000E-01  1.50000000E+00  8.00000000E-01
  8.00000000E-01  1.50000000E+00  8.00000000E-01  8.00000000E-01  1.50000000E+00
  8.00000000E-01  8.00000000E-01  1.50000000E+00  8.00000000E-01  8.00000000E-01
  1.50000000E+00  8.00000000E-01  8.00000000E-01  1.50000000E+00  8.00000000E-01
  8.00000000E-01  1.50000000E+00  8.00000000E-01  8.00000000E-01  1.50000000E+00
  8.00000000E-01  8.00000000E-01  1.50000000E+00  8.00000000E-01  8.00000000E-01
  1.50000000E+00  8.00000000E-01  8.00000000E-01  1.50000000E+00  8.00000000E-01
  8.00000000E-01  1.50000000E+00  8.00000000E-01  8.00000000E-01  1.50000000E+00
  8.00000000E-01  8.00000000E-01  1.50000000E+00  8.00000000E-01  8.00000000E-01
  1.50000000E+00  8.00000000E-01  8.00000000E-01  1.50000000E+00  8.00000000E-01
  8.00000000E-01  1.50000000E+00  8.00000000E-01  8.00000000E-01  1.50000000E+00
  8.00000000E-01  8.00000000E-01  1.50000000E+00  8.00000000E-01  8.00000000E-01
  1.50000000E+00  8.00000000E-01  8.00000000E-01  1.50000000E+00  8.00000000E-01
  8.00000000E-01  1.50000000E+00  8.00000000E-01  8.00000000E-01  1.50000000E+00
  8.00000000E-01  8.00000000E-01  1.50000000E+00  8.00000000E-01  8.00000000E-01
  1.50000000E+00  8.00000000E-01  8.00000000E-01  1.50000000E+00  8.00000000E-01
  8.00000000E-01  1.50000000E+00  8.00000000E-01  8.00000000E-01  1.50000000E+00
  8.00000000E-01  8.00000000E-01  1.50000000E+00  8.00000000E-01  8.00000000E-01
  1.50000000E+00  8.00000000E-01  8.00000000E-01  1.50000000E+00  8.00000000E-01
  8.00000000E-01  1.50000000E+00  8.00000000E-01  8.00000000E-01  1.50000000E+00
  8.00000000E-01  8.00000000E-01  1.50000000E+00  8.00000000E-01  8.00000000E-01
  1.50000000E+00  8.00000000E-01  8.00000000E-01  1.50000000E+00  8.00000000E-01
  8.00000000E-01  1.50000000E+00  8.00000000E-01  8.00000000E-01  1.50000000E+00
  8.00000000E-01  8.00000000E-01  1.50000000E+00  8.00000000E-01  8.00000000E-01
  1.50000000E+00  8.00000000E-01  8.00000000E-01  1.50000000E+00  8.00000000E-01
  8.00000000E-01  1.50000000E+00  8.00000000E-01  8.00000000E-01  1.50000000E+00
  8.00000000E-01  8.00000000E-01  1.50000000E+00  8.00000000E-01  8.00000000E-01
  1.50000000E+00  8.00000000E-01  8.00000000E-01  1.50000000E+00  8.00000000E-01
  8.00000000E-01  1.50000000E+00  8.00000000E-01  8.00000000E-01  1.50000000E+00
  8.00000000E-01  8.00000000E-01  1.50000000E+00  8.00000000E-01  8.00000000E-01
  1.50000000E+00  8.00000000E-01  8.00000000E-01  1.50000000E+00  8.00000000E-01
  8.00000000E-01  1.50000000E+00  8.00000000E-01  8.00000000E-01  1.50000000E+00
  8.00000000E-01  8.00000000E-01  1.50000000E+00  8.00000000E-01  8.00000000E-01
  1.50000000E+00  8.00000000E-01  8.00000000E-01  1.50000000E+00  8.00000000E-01
  8.00000000E-01  1.50000000E+00  8.00000000E-01  8.00000000E-01  1.50000000E+00
  8.00000000E-01  8.00000000E-01  1.50000000E+00  8.00000000E-01  8.00000000E-01
  1.50000000E+00  8.00000000E-01  8.00000000E-01  1.50000000E+00  8.00000000E-01
  8.00000000E-01  1.50000000E+00  8.00000000E-01  8.00000000E-01  1.50000000E+00
  8.00000000E-01  8.00000000E-01  1.50000000E+00  8.00000000E-01  8.00000000E-01
  1.50000000E+00  8.00000000E-01  8.00000000E-01  1.50000000E+00  8.00000000E-01
  8.00000000E-01  1.50000000E+00  8.00000000E-01  8.00000000E-01  1.50000000E+00
  8.00000000E-01  8.00000000E-01  1.50000000E+00  8.00000000E-01  8.00000000E-01
  1.50000000E+00  8.00000000E-01  8.00000000E-01  1.50000000E+00  8.00000000E-01
  8.00000000E-01  1.50000000E+00  8.00000000E-01  8.00000000E-01  1.50000000E+00
  8.00000000E-01  8.00000000E-01  1.50000000E+00  8.00000000E-01  8.00000000E-01
  1.50000000E+00  8.00000000E-01  8.00000000E-01  1.50000000E+00  8.00000000E-01
  8.00000000E-01  1.50000000E+00  8.00000000E-01  8.00000000E-01  1.50000000E+00
  8.00000000E-01  8.00000000E-01  1.50000000E+00  8.00000000E-01  8.00000000E-01
  1.50000000E+00  8.00000000E-01  8.00000000E-01  1.50000000E+00  8.00000000E-01
  8.00000000E-01  1.50000000E+00  8.00000000E-01  8.00000000E-01  1.50000000E+00
  8.00000000E-01  8.00000000E-01  1.50000000E+00  8.00000000E-01  8.00000000E-01
  1.50000000E+00  8.00000000E-01  8.00000000E-01  1.50000000E+00  8.00000000E-01
  8.00000000E-01  1.50000000E+00  8.00000000E-01  8.00000000E-01  1.50000000E+00
  8.00000000E-01  8.00000000E-01  1.50000000E+00  8.00000000E-01  8.00000000E-01
  1.50000000E+00  8.00000000E-01  8.00000000E-01  1.50000000E+00  8.00000000E-01
  8.00000000E-01  1.50000000E+00  8.00000000E-01  8.00000000E-01  1.50000000E+00
  8.00000000E-01  8.00000000E-01  1.50000000E+00  8.00000000E-01  8.00000000E-01
  1.50000000E+00  8.00000000E-01  8.00000000E-01  1.50000000E+00  8.00000000E-01
  8.00000000E-01  1.50000000E+00  8.00000000E-01  8.00000000E-01  1.50000000E+00
  8.00000000E-01  8.00000000E-01  1.50000000E+00  8.00000000E-01  8.00000000E-01
  1.50000000E+00  8.00000000E-01  8.00000000E-01  1.50000000E+00  8.00000000E-01
  8.00000000E-01  1.50000000E+00  8.00000000E-01  8.00000000E-01  1.50000000E+00
  8.00000000E-01  8.00000000E-01  1.50000000E+00  8.00000000E-01  8.00000000E-01
  1.50000000E+00  8.00000000E-01  8.00000000E-01  1.50000000E+00  8.00000000E-01
  8.00000000E-01  1.50000000E+00  8.00000000E-01  8.00000000E-01  1.50000000E+00
  8.00000000E-01  8.00000000E-01  1.50000000E+00  8.00000000E-01  8.00000000E-01
  1.50000000E+00  8.00000000E-01  8.00000000E-01  1.50000000E+00  8.00000000E-01
  8.00000000E-01  1.50000000E+00  8.00000000E-01  8.00000000E-01  1.50000000E+00
  8.00000000E-01  8.00000000E-01  1.50000000E+00  8.00000000E-01  8.00000000E-01
  1.50000000E+00  8.00000000E-01  8.00000000E-01  1.50000000E+00  8.00000000E-01
  8.00000000E-01  1.50000000E+00  8.00000000E-01  8.00000000E-01  1.50000000E+00
  8.00000000E-01  8.00000000E-01  1.50000000E+00  8.00000000E-01  8.00000000E-01
  1.50000000E+00  8.00000000E-01  8.00000000E-01  1.50000000E+00  8.00000000E-01
  8.00000000E-01  1.50000000E+00  8.00000000E-01  8.00000000E-01  1.50000000E+00
  8.00000000E-01  8.00000000E-01  1.50000000E+00  8.00000000E-01  8.00000000E-01
  1.50000000E+00  8.00000000E-01  8.00000000E-01  1.50000000E+00  8.00000000E-01
  8.00000000E-01  1.50000000E+00  8.00000000E-01  8.00000000E-01  1.50000000E+00
  8.00000000E-01  8.00000000E-01  1.50000000E+00  8.00000000E-01  8.00000000E-01
  1.50000000E+00  8.00000000E-01  8.00000000E-01  1.50000000E+00  8.00000000E-01
  8.00000000E-01  1.50000000E+00  8.00000000E-01  8.00000000E-01  1.50000000E+00
  8.00000000E-01  8.00000000E-01  1.50000000E+00  8.00000000E-01  8.00000000E-01
  1.50000000E+00  8.00000000E-01  8.00000000E-01  1.50000000E+00  8.00000000E-01
  8.00000000E-01  1.50000000E+00  8.00000000E-01  8.00000000E-01  1.50000000E+00
  8.00000000E-01  8.00000000E-01  1.50000000E+00  8.00000000E-01  8.00000000E-01
  1.50000000E+00  8.00000000E-01  8.00000000E-01  1.50000000E+00  8.00000000E-01
  8.00000000E-01  1.50000000E+00  8.00000000E-01  8.00000000E-01  1.50000000E+00
  8.00000000E-01  8.00000000E-01  1.50000000E+00  8.00000000E-01  8.00000000E-01
  1.50000000E+00  8.00000000E-01  8.00000000E-01  1.50000000E+00  8.00000000E-01
  8.00000000E-01  1.50000000E+00  8.00000000E-01  8.00000000E-01  1.50000000E+00
  8.00000000E-01  8.00000000E-01  1.50000000E+00  8.00000000E-01  8.00000000E-01
  1.50000000E+00  8.00000000E-01  8.00000000E-01  1.50000000E+00  8.00000000E-01
  8.00000000E-01  1.50000000E+00  8.00000000E-01  8.00000000E-01  1.50000000E+00
  8.00000000E-01  8.00000000E-01  1.50000000E+00  8.00000000E-01  8.00000000E-01
  1.50000000E+00  8.00000000E-01  8.00000000E-01  1.50000000E+00  8.00000000E-01
  8.00000000E-01  1.50000000E+00  8.00000000E-01  8.00000000E-01  1.50000000E+00
  8.00000000E-01  8.00000000E-01  1.50000000E+00  8.00000000E-01  8.00000000E-01
  1.50000000E+00  8.00000000E-01  8.00000000E-01  1.50000000E+00  8.00000000E-01
  8.00000000E-01  1.50000000E+00  8.00000000E-01  8.00000000E-01  1.50000000E+00
  8.00000000E-01  8.00000000E-01  1.50000000E+00  8.00000000E-01  8.00000000E-01
  1.50000000E+00  8.00000000E-01  8.00000000E-01  1.50000000E+00  8.00000000E-01
  8.00000000E-01  1.50000000E+00  8.00000000E-01  8.00000000E-01  1.50000000E+00
  8.00000000E-01  8.00000000E-01  1.50000000E+00  8.00000000E-01  8.00000000E-01
  1.50000000E+00  8.00000000E-01  8.00000000E-01  1.50000000E+00  8.00000000E-01
  8.00000000E-01  1.50000000E+00  8.00000000E-01  8.00000000E-01  1.50000000E+00
  8.00000000E-01  8.00000000E-01  1.50000000E+00  8.00000000E-01  8.00000000E-01
  1.50000000E+00  8.00000000E-01  8.00000000E-01  1.50000000E+00  8.00000000E-01
  8.00000000E-01  1.50000000E+00  8.00000000E-01  8.00000000E-01  1.50000000E+00
  8.00000000E-01  8.00000000E-01  1.50000000E+00  8.00000000E-01  8.00000000E-01
  1.50000000E+00  8.00000000E-01  8.00000000E-01  1.50000000E+00  8.00000000E-01
  8.00000000E-01  1.50000000E+00  8.00000000E-01  8.00000000E-01  1.50000000E+00
  8.00000000E-01  8.00000000E-01  1.50000000E+00  8.00000000E-01  8.00000000E-01
  1.50000000E+00  8.00000000E-01  8.00000000E-01  1.50000000E+00  8.00000000E-01
  8.00000000E-01  1.50000000E+00  8.00000000E-01  8.00000000E-01  1.50000000E+00
  8.00000000E-01  8.00000000E-01  1.50000000E+00  8.00000000E-01  8.00000000E-01
  1.50000000E+00  8.00000000E-01  8.00000000E-01  1.50000000E+00  8.00000000E-01
  8.00000000E-01  1.50000000E+00  8.00000000E-01  8.00000000E-01  1.50000000E+00
  8.00000000E-01  8.00000000E-01  1.50000000E+00  8.00000000E-01  8.00000000E-01
  1.50000000E+00  8.00000000E-01  8.00000000E-01  1.50000000E+00  8.00000000E-01
  8.00000000E-01  1.50000000E+00  8.00000000E-01  8.00000000E-01  1.50000000E+00
  8.00000000E-01  8.00000000E-01  1.50000000E+00  8.00000000E-01  8.00000000E-01
  1.50000000E+00  8.00000000E-01  8.00000000E-01  1.50000000E+00  8.00000000E-01
  8.00000000E-01  1.50000000E+00  8.00000000E-01  8.00000000E-01  1.50000000E+00
  8.00000000E-01  8.00000000E-01  1.50000000E+00  8.00000000E-01  8.00000000E-01
  1.50000000E+00  8.00000000E-01  8.00000000E-01  1.50000000E+00  8.00000000E-01
  8.00000000E-01  1.50000000E+00  8.00000000E-01  8.00000000E-01  1.50000000E+00
  8.00000000E-01  8.00000000E-01  1.50000000E+00  8.00000000E-01  8.00000000E-01
  1.50000000E+00  8.00000000E-01  8.00000000E-01  1.50000000E+00  8.00000000E-01
  8.00000000E-01  1.50000000E+00  8.00000000E-01  8.00000000E-01  1.50000000E+00
  8.00000000E-01  8.00000000E-01  1.50000000E+00  8.00000000E-01  8.00000000E-01
  1.50000000E+00  8.00000000E-01  8.00000000E-01  1.50000000E+00  8.00000000E-01
  8.00000000E-01  1.50000000E+00  8.00000000E-01  8.00000000E-01  1.50000000E+00
  8.00000000E-01  8.00000000E-01  1.50000000E+00  8.00000000E-01  8.00000000E-01
  1.50000000E+00  8.00000000E-01  8.00000000E-01  1.50000000E+00  8.00000000E-01
  8.00000000E-01  1.50000000E+00  8.00000000E-01  8.00000000E-01  1.50000000E+00
  8.00000000E-01  8.00000000E-01  1.50000000E+00  8.00000000E-01  8.00000000E-01
  1.50000000E+00  8.00000000E-01  8.00000000E-01  1.50000000E+00  8.00000000E-01
  8.00000000E-01  1.50000000E+00  8.00000000E-01  8.00000000E-01  1.50000000E+00
  8.00000000E-01  8.00000000E-01  1.50000000E+00  8.00000000E-01  8.00000000E-01
  1.50000000E+00  8.00000000E-01  8.00000000E-01  1.50000000E+00  8.00000000E-01
  8.00000000E-01  1.50000000E+00  8.00000000E-01  8.00000000E-01  1.50000000E+00
  8.00000000E-01  8.00000000E-01  1.50000000E+00  8.00000000E-01  8.00000000E-01
  1.50000000E+00  8.00000000E-01  8.00000000E-01  1.50000000E+00  8.00000000E-01
  8.00000000E-01  1.50000000E+00  8.00000000E-01  8.00000000E-01  1.50000000E+00
  8.00000000E-01  8.00000000E-01  1.50000000E+00  8.00000000E-01  8.00000000E-01
  1.50000000E+00  8.00000000E-01  8.00000000E-01  1.50000000E+00  8.00000000E-01
  8.00000000E-01  1.50000000E+00  8.00000000E-01  8.00000000E-01  1.50000000E+00
  8.00000000E-01  8.00000000E-01  1.50000000E+00  8.00000000E-01  8.00000000E-01
  1.50000000E+00  8.00000000E-01  8.00000000E-01  1.50000000E+00  8.00000000E-01
  8.00000000E-01  1.50000000E+00  8.00000000E-01  8.00000000E-01  1.50000000E+00
  8.00000000E-01  8.00000000E-01  1.50000000E+00  8.00000000E-01  8.00000000E-01
  1.50000000E+00  8.00000000E-01  8.00000000E-01  1.50000000E+00  8.00000000E-01
  8.00000000E-01  1.50000000E+00  8.00000000E-01  8.00000000E-01  1.50000000E+00
  8.00000000E-01  8.00000000E-01  1.50000000E+00  8.00000000E-01  8.00000000E-01
  1.50000000E+00  8.00000000E-01  8.00000000E-01  1.50000000E+00  8.00000000E-01
  8.00000000E-01  1.50000000E+00  8.00000000E-01  8.00000000E-01  1.50000000E+00
  8.00000000E-01  8.00000000E-01  1.50000000E+00  8.00000000E-01  8.00000000E-01
  1.50000000E+00  8.00000000E-01  8.00000000E-01  1.50000000E+00  8.00000000E-01
  8.00000000E-01  1.50000000E+00  8.00000000E-01  8.00000000E-01  1.50000000E+00
  8.00000000E-01  8.00000000E-01  1.50000000E+00  8.00000000E-01  8.00000000E-01
  1.50000000E+00  8.00000000E-01  8.00000000E-01  1.50000000E+00  8.00000000E-01
  8.00000000E-01  1.50000000E+00  8.00000000E-01  8.00000000E-01  1.50000000E+00
  8.00000000E-01  8.00000000E-01  1.50000000E+00  8.00000000E-01  8.00000000E-01
  1.50000000E+00  8.00000000E-01  8.00000000E-01  1.50000000E+00  8.00000000E-01
  8.00000000E-01  1.50000000E+00  8.00000000E-01  8.00000000E-01  1.50000000E+00
  8.00000000E-01  8.00000000E-01  1.50000000E+00  8.00000000E-01  8.00000000E-01
  1.50000000E+00  8.00000000E-01  8.00000000E-01  1.50000000E+00  8.00000000E-01
  8.00000000E-01  1.50000000E+00  8.00000000E-01  8.00000000E-01  1.50000000E+00
  8.00000000E-01  8.00000000E-01  1.50000000E+00  8.00000000E-01  8.00000000E-01
  1.50000000E+00  8.00000000E-01  8.00000000E-01  1.50000000E+00  8.00000000E-01
  8.00000000E-01  1.50000000E+00  8.00000000E-01  8.00000000E-01  1.50000000E+00
  8.00000000E-01  8.00000000E-01  1.50000000E+00  8.00000000E-01  8.00000000E-01
  1.50000000E+00  8.00000000E-01  8.00000000E-01  1.50000000E+00  8.00000000E-01
  8.00000000E-01  1.50000000E+00  8.00000000E-01  8.00000000E-01  1.50000000E+00
  8.00000000E-01  8.00000000E-01  1.50000000E+00  8.00000000E-01  8.00000000E-01
  1.50000000E+00  8.00000000E-01  8.00000000E-01  1.50000000E+00  8.00000000E-01
  8.00000000E-01  1.50000000E+00  8.00000000E-01  8.00000000E-01  1.50000000E+00
  8.00000000E-01  8.00000000E-01  1.50000000E+00  8.00000000E-01  8.00000000E-01
  1.50000000E+00  8.00000000E-01  8.00000000E-01  1.50000000E+00  8.00000000E-01
  8.00000000E-01  1.50000000E+00  8.00000000E-01  8.00000000E-01  1.50000000E+00
  8.00000000E-01  8.00000000E-01  1.50000000E+00  8.00000000E-01  8.00000000E-01
  1.50000000E+00  8.00000000E-01  8.00000000E-01  1.50000000E+00  8.00000000E-01
  8.00000000E-01  1.50000000E+00  8.00000000E-01  8.00000000E-01  1.50000000E+00
  8.00000000E-01  8.00000000E-01  1.50000000E+00  8.00000000E-01  8.00000000E-01
  1.50000000E+00  8.00000000E-01  8.00000000E-01  1.50000000E+00  8.00000000E-01
  8.00000000E-01  1.50000000E+00  8.00000000E-01  8.00000000E-01  1.50000000E+00
  8.00000000E-01  8.00000000E-01  1.50000000E+00  8.00000000E-01  8.00000000E-01
  1.50000000E+00  8.00000000E-01  8.00000000E-01  1.50000000E+00  8.00000000E-01
  8.00000000E-01  1.50000000E+00  8.00000000E-01  8.00000000E-01  1.50000000E+00
  8.00000000E-01  8.00000000E-01  1.50000000E+00  8.00000000E-01  8.00000000E-01
  1.50000000E+00  8.00000000E-01  8.00000000E-01  1.50000000E+00  8.00000000E-01
  8.00000000E-01  1.50000000E+00  8.00000000E-01  8.00000000E-01  1.50000000E+00
  8.00000000E-01  8.00000000E-01  1.50000000E+00  8.00000000E-01  8.00000000E-01
  1.50000000E+00  8.00000000E-01  8.00000000E-01  1.50000000E+00  8.00000000E-01
  8.00000000E-01  1.50000000E+00  8.00000000E-01  8.00000000E-01  1.50000000E+00
  8.00000000E-01  8.00000000E-01  1.50000000E+00  8.00000000E-01  8.00000000E-01
  1.50000000E+00  8.00000000E-01  8.00000000E-01  1.50000000E+00  8.00000000E-01
  8.00000000E-01  1.50000000E+00  8.00000000E-01  8.00000000E-01  1.50000000E+00
  8.00000000E-01  8.00000000E-01  1.50000000E+00  8.00000000E-01  8.00000000E-01
  1.50000000E+00  8.00000000E-01  8.00000000E-01  1.50000000E+00  8.00000000E-01
  8.00000000E-01  1.50000000E+00  8.00000000E-01  8.00000000E-01  1.50000000E+00
  8.00000000E-01  8.00000000E-01  1.50000000E+00  8.00000000E-01  8.00000000E-01
  1.50000000E+00  8.00000000E-01  8.00000000E-01  1.50000000E+00  8.00000000E-01
  8.00000000E-01  1.50000000E+00  8.00000000E-01  8.00000000E-01  1.50000000E+00
  8.00000000E-01  8.00000000E-01  1.50000000E+00  8.00000000E-01  8.00000000E-01
  1.50000000E+00  8.00000000E-01  8.00000000E-01  1.50000000E+00  8.00000000E-01
  8.00000000E-01  1.50000000E+00  8.00000000E-01  8.00000000E-01  1.50000000E+00
  8.00000000E-01  8.00000000E-01  1.50000000E+00  8.00000000E-01  8.00000000E-01
  1.50000000E+00  8.00000000E-01  8.00000000E-01  1.50000000E+00  8.00000000E-01
  8.00000000E-01  1.50000000E+00  8.00000000E-01  8.00000000E-01  1.50000000E+00
  8.00000000E-01  8.00000000E-01  1.50000000E+00  8.00000000E-01  8.00000000E-01
  1.50000000E+00  8.00000000E-01  8.00000000E-01  1.50000000E+00  8.00000000E-01
  8.00000000E-01  1.50000000E+00  8.00000000E-01  8.00000000E-01  1.50000000E+00
  8.00000000E-01  8.00000000E-01  1.50000000E+00  8.00000000E-01  8.00000000E-01
  1.50000000E+00  8.00000000E-01  8.00000000E-01  1.50000000E+00  8.00000000E-01
  8.00000000E-01  1.50000000E+00  8.00000000E-01  8.00000000E-01  1.50000000E+00
  8.00000000E-01  8.00000000E-01  1.50000000E+00  8.00000000E-01  8.00000000E-01
  1.50000000E+00  8.00000000E-01  8.00000000E-01  1.50000000E+00  8.00000000E-01
  8.00000000E-01  1.50000000E+00  8.00000000E-01  8.00000000E-01  1.50000000E+00
  8.00000000E-01  8.00000000E-01  1.50000000E+00  8.00000000E-01  8.00000000E-01
  1.50000000E+00  8.00000000E-01  8.00000000E-01  1.50000000E+00  8.00000000E-01
  8.00000000E-01  1.50000000E+00  8.00000000E-01  8.00000000E-01  1.50000000E+00
  8.00000000E-01  8.00000000E-01  1.50000000E+00  8.00000000E-01  8.00000000E-01
  1.50000000E+00  8.00000000E-01  8.00000000E-01  1.50000000E+00  8.00000000E-01
  8.00000000E-01  1.50000000E+00  8.00000000E-01  8.00000000E-01  1.50000000E+00
  8.00000000E-01  8.00000000E-01  1.50000000E+00  8.00000000E-01  8.00000000E-01
  1.50000000E+00  8.00000000E-01  8.00000000E-01  1.50000000E+00  8.00000000E-01
  8.00000000E-01  1.50000000E+00  8.00000000E-01  8.00000000E-01  1.50000000E+00
  8.00000000E-01  8.00000000E-01  1.50000000E+00  8.00000000E-01  8.00000000E-01
  1.50000000E+00  8.00000000E-01  8.00000000E-01  1.50000000E+00  8.00000000E-01
  8.00000000E-01  1.50000000E+00  8.00000000E-01  8.00000000E-01  1.50000000E+00
  8.00000000E-01  8.00000000E-01  1.50000000E+00  8.00000000E-01  8.00000000E-01
  1.50000000E+00  8.00000000E-01  8.00000000E-01  1.50000000E+00  8.00000000E-01
  8.00000000E-01  1.50000000E+00  8.00000000E-01  8.00000000E-01  1.50000000E+00
  8.00000000E-01  8.00000000E-01  1.50000000E+00  8.00000000E-01  8.00000000E-01
  1.50000000E+00  8.00000000E-01  8.00000000E-01  1.50000000E+00  8.00000000E-01
  8.00000000E-01  1.50000000E+00  8.00000000E-01  8.00000000E-01  1.50000000E+00
  8.00000000E-01  8.00000000E-01  1.50000000E+00  8.00000000E-01  8.00000000E-01
  1.50000000E+00  8.00000000E-01  8.00000000E-01  1.50000000E+00  8.00000000E-01
  8.00000000E-01  1.50000000E+00  8.00000000E-01  8.00000000E-01  1.50000000E+00
  8.00000000E-01  8.00000000E-01  1.50000000E+00  8.00000000E-01  8.00000000E-01
  1.50000000E+00  8.00000000E-01  8.00000000E-01  1.50000000E+00  8.00000000E-01
  8.00000000E-01  1.50000000E+00  8.00000000E-01  8.00000000E-01  1.50000000E+00
  8.00000000E-01  8.00000000E-01  1.50000000E+00  8.00000000E-01  8.00000000E-01
  1.50000000E+00  8.00000000E-01  8.00000000E-01  1.50000000E+00  8.00000000E-01
  8.00000000E-01  1.50000000E+00  8.00000000E-01  8.00000000E-01  1.50000000E+00
  8.00000000E-01  8.00000000E-01  1.50000000E+00  8.00000000E-01  8.00000000E-01
  1.50000000E+00  8.00000000E-01  8.00000000E-01  1.50000000E+00  8.00000000E-01
  8.00000000E-01  1.50000000E+00  8.00000000E-01  8.00000000E-01  1.50000000E+00
  8.00000000E-01  8.00000000E-01  1.50000000E+00  8.00000000E-01  8.00000000E-01
  1.50000000E+00  8.00000000E-01  8.00000000E-01  1.50000000E+00  8.00000000E-01
  8.00000000E-01  1.50000000E+00  8.00000000E-01  8.00000000E-01  1.50000000E+00
  8.00000000E-01  8.00000000E-01  1.50000000E+00  8.00000000E-01  8.00000000E-01
  1.50000000E+00  8.00000000E-01  8.00000000E-01  1.50000000E+00  8.00000000E-01
  8.00000000E-01  1.50000000E+00  8.00000000E-01  8.00000000E-01  1.50000000E+00
  8.00000000E-01  8.00000000E-01  1.50000000E+00  8.00000000E-01  8.00000000E-01
  1.50000000E+00  8.00000000E-01  8.00000000E-01  1.50000000E+00  8.00000000E-01
  8.00000000E-01  1.50000000E+00  8.00000000E-01  8.00000000E-01  1.50000000E+00
  8.00000000E-01  8.00000000E-01  1.50000000E+00  8.00000000E-01  8.00000000E-01
  1.50000000E+00  8.00000000E-01  8.00000000E-01  1.50000000E+00  8.00000000E-01
  8.00000000E-01  1.50000000E+00  8.00000000E-01  8.00000000E-01  1.50000000E+00
  8.00000000E-01  8.00000000E-01  1.50000000E+00  8.00000000E-01  8.00000000E-01
  1.50000000E+00  8.00000000E-01  8.00000000E-01  1.50000000E+00  8.00000000E-01
  8.00000000E-01  1.50000000E+00  8.00000000E-01  8.00000000E-01  1.50000000E+00
  8.00000000E-01  8.00000000E-01  1.50000000E+00  8.00000000E-01  8.00000000E-01
  1.50000000E+00  8.00000000E-01  8.00000000E-01  1.50000000E+00  8.00000000E-01
  8.00000000E-01  1.50000000E+00  8.00000000E-01  8.00000000E-01  1.50000000E+00
  8.00000000E-01  8.00000000E-01  1.50000000E+00  8.00000000E-01  8.00000000E-01
  1.50000000E+00  8.00000000E-01  8.00000000E-01  1.50000000E+00  8.00000000E-01
  8.00000000E-01  1.50000000E+00  8.00000000E-01  8.00000000E-01  1.50000000E+00
  8.00000000E-01  8.00000000E-01  1.50000000E+00  8.00000000E-01  8.00000000E-01
  1.50000000E+00  8.00000000E-01  8.00000000E-01  1.50000000E+00  8.00000000E-01
  8.00000000E-01  1.50000000E+00  8.00000000E-01  8.00000000E-01  1.50000000E+00
  8.00000000E-01  8.00000000E-01  1.50000000E+00  8.00000000E-01  8.00000000E-01
  1.50000000E+00  8.00000000E-01  8.00000000E-01  1.50000000E+00  8.00000000E-01
  8.00000000E-01  1.50000000E+00  8.00000000E-01  8.00000000E-01  1.50000000E+00
  8.00000000E-01  8.00000000E-01  1.50000000E+00  8.00000000E-01  8.00000000E-01
  1.50000000E+00  8.00000000E-01  8.00000000E-01  1.50000000E+00  8.00000000E-01
  8.00000000E-01  1.50000000E+00  8.00000000E-01  8.00000000E-01  1.50000000E+00
  8.00000000E-01  8.00000000E-01  1.50000000E+00  8.00000000E-01  8.00000000E-01
  1.50000000E+00  8.00000000E-01  8.00000000E-01  1.50000000E+00  8.00000000E-01
  8.00000000E-01  1.50000000E+00  8.00000000E-01  8.00000000E-01  1.50000000E+00
  8.00000000E-01  8.00000000E-01  1.50000000E+00  8.00000000E-01  8.00000000E-01
  1.50000000E+00  8.00000000E-01  8.00000000E-01  1.50000000E+00  8.00000000E-01
  8.00000000E-01  1.50000000E+00  8.00000000E-01  8.00000000E-01  1.50000000E+00
  8.00000000E-01  8.00000000E-01  1.50000000E+00  8.00000000E-01  8.00000000E-01
  1.50000000E+00  8.00000000E-01  8.00000000E-01  1.50000000E+00  8.00000000E-01
  8.00000000E-01  1.50000000E+00  8.00000000E-01  8.00000000E-01  1.50000000E+00
  8.00000000E-01  8.00000000E-01  1.50000000E+00  8.00000000E-01  8.00000000E-01
  1.50000000E+00  8.00000000E-01  8.00000000E-01  1.50000000E+00  8.00000000E-01
  8.00000000E-01  1.50000000E+00  8.00000000E-01  8.00000000E-01  1.50000000E+00
  8.00000000E-01  8.00000000E-01  1.50000000E+00  8.00000000E-01  8.00000000E-01
  1.50000000E+00  8.00000000E-01  8.00000000E-01  1.50000000E+00  8.00000000E-01
  8.00000000E-01  1.50000000E+00  8.00000000E-01  8.00000000E-01  1.50000000E+00
  8.00000000E-01  8.00000000E-01  1.50000000E+00  8.00000000E-01  8.00000000E-01
  1.50000000E+00  8.00000000E-01  8.00000000E-01  1.50000000E+00  8.00000000E-01
  8.00000000E-01  1.50000000E+00  8.00000000E-01  8.00000000E-01  1.50000000E+00
  8.00000000E-01  8.00000000E-01  1.50000000E+00  8.00000000E-01  8.00000000E-01
  1.50000000E+00  8.00000000E-01  8.00000000E-01  1.50000000E+00  8.00000000E-01
  8.00000000E-01  1.50000000E+00  8.00000000E-01  8.00000000E-01  1.50000000E+00
  8.00000000E-01  8.00000000E-01  1.50000000E+00  8.00000000E-01  8.00000000E-01
  1.50000000E+00  8.00000000E-01  8.00000000E-01  1.50000000E+00  8.00000000E-01
  8.00000000E-01  1.50000000E+00  8.00000000E-01  8.00000000E-01  1.50000000E+00
  8.00000000E-01  8.00000000E-01  1.50000000E+00  8.00000000E-01  8.00000000E-01
  1.50000000E+00  8.00000000E-01  8.00000000E-01  1.50000000E+00  8.00000000E-01
  8.00000000E-01  1.50000000E+00  8.00000000E-01  8.00000000E-01  1.50000000E+00
  8.00000000E-01  8.00000000E-01  1.50000000E+00  8.00000000E-01  8.00000000E-01
  1.50000000E+00  8.00000000E-01  8.00000000E-01  1.50000000E+00  8.00000000E-01
  8.00000000E-01  1.50000000E+00  8.00000000E-01  8.00000000E-01  1.50000000E+00
  8.00000000E-01  8.00000000E-01  1.50000000E+00  8.00000000E-01  8.00000000E-01
  1.50000000E+00  8.00000000E-01  8.00000000E-01  1.50000000E+00  8.00000000E-01
  8.00000000E-01  1.50000000E+00  8.00000000E-01  8.00000000E-01  1.50000000E+00
  8.00000000E-01  8.00000000E-01  1.50000000E+00  8.00000000E-01  8.00000000E-01
  1.50000000E+00  8.00000000E-01  8.00000000E-01  1.50000000E+00  8.00000000E-01
  8.00000000E-01  1.50000000E+00  8.00000000E-01  8.00000000E-01  1.50000000E+00
  8.00000000E-01  8.00000000E-01  1.50000000E+00  8.00000000E-01  8.00000000E-01
  1.50000000E+00  8.00000000E-01  8.00000000E-01  1.50000000E+00  8.00000000E-01
  8.00000000E-01  1.50000000E+00  8.00000000E-01  8.00000000E-01  1.50000000E+00
  8.00000000E-01  8.00000000E-01  1.50000000E+00  8.00000000E-01  8.00000000E-01
  1.50000000E+00  8.00000000E-01  8.00000000E-01  1.50000000E+00  8.00000000E-01
  8.00000000E-01  1.50000000E+00  8.00000000E-01  8.00000000E-01  1.50000000E+00
  8.00000000E-01  8.00000000E-01  1.50000000E+00  8.00000000E-01  8.00000000E-01
  1.50000000E+00  8.00000000E-01  8.00000000E-01  1.50000000E+00  8.00000000E-01
  8.00000000E-01  1.50000000E+00  8.00000000E-01  8.00000000E-01  1.50000000E+00
  8.00000000E-01  8.00000000E-01  1.50000000E+00  8.00000000E-01  8.00000000E-01
  1.50000000E+00  8.00000000E-01  8.00000000E-01  1.50000000E+00  8.00000000E-01
  8.00000000E-01  1.50000000E+00  8.00000000E-01  8.00000000E-01  1.50000000E+00
  8.00000000E-01  8.00000000E-01  1.50000000E+00  8.00000000E-01  8.00000000E-01
  1.50000000E+00  8.00000000E-01  8.00000000E-01  1.50000000E+00  8.00000000E-01
  8.00000000E-01  1.50000000E+00  8.00000000E-01  8.00000000E-01  1.50000000E+00
  8.00000000E-01  8.00000000E-01  1.50000000E+00  8.00000000E-01  8.00000000E-01
  1.50000000E+00  8.00000000E-01  8.00000000E-01  1.50000000E+00  8.00000000E-01
  8.00000000E-01  1.50000000E+00  8.00000000E-01  8.00000000E-01  1.50000000E+00
  8.00000000E-01  8.00000000E-01  1.50000000E+00  8.00000000E-01  8.00000000E-01
  1.50000000E+00  8.00000000E-01  8.00000000E-01  1.50000000E+00  8.00000000E-01
  8.00000000E-01  1.50000000E+00  8.00000000E-01  8.00000000E-01  1.50000000E+00
  8.00000000E-01  8.00000000E-01  1.50000000E+00  8.00000000E-01  8.00000000E-01
  1.50000000E+00  8.00000000E-01  8.00000000E-01  1.50000000E+00  8.00000000E-01
  8.00000000E-01  1.50000000E+00  8.00000000E-01  8.00000000E-01  1.50000000E+00
  8.00000000E-01  8.00000000E-01  1.50000000E+00  8.00000000E-01  8.00000000E-01
  1.50000000E+00  8.00000000E-01  8.00000000E-01  1.50000000E+00  8.00000000E-01
  8.00000000E-01  1.50000000E+00  8.00000000E-01  8.00000000E-01  1.50000000E+00
  8.00000000E-01  8.00000000E-01  1.50000000E+00  8.00000000E-01  8.00000000E-01
  1.50000000E+00  8.00000000E-01  8.00000000E-01  1.50000000E+00  8.00000000E-01
  8.00000000E-01  1.50000000E+00  8.00000000E-01  8.00000000E-01  1.50000000E+00
  8.00000000E-01  8.00000000E-01  1.50000000E+00  8.00000000E-01  8.00000000E-01
  1.50000000E+00  8.00000000E-01  8.00000000E-01  1.50000000E+00  8.00000000E-01
  8.00000000E-01  1.50000000E+00  8.00000000E-01  8.00000000E-01  1.50000000E+00
  8.00000000E-01  8.00000000E-01  1.50000000E+00  8.00000000E-01  8.00000000E-01
  1.50000000E+00  8.00000000E-01  8.00000000E-01  1.50000000E+00  8.00000000E-01
  8.00000000E-01  1.50000000E+00  8.00000000E-01  8.00000000E-01  1.50000000E+00
  8.00000000E-01  8.00000000E-01  1.50000000E+00  8.00000000E-01  8.00000000E-01
  1.50000000E+00  8.00000000E-01  8.00000000E-01  1.50000000E+00  8.00000000E-01
  8.00000000E-01  1.50000000E+00  8.00000000E-01  8.00000000E-01  1.50000000E+00
  8.00000000E-01  8.00000000E-01  1.50000000E+00  8.00000000E-01  8.00000000E-01
  1.50000000E+00  8.00000000E-01  8.00000000E-01  1.50000000E+00  8.00000000E-01
  8.00000000E-01  1.50000000E+00  8.00000000E-01  8.00000000E-01  1.50000000E+00
  8.00000000E-01  8.00000000E-01  1.50000000E+00  8.00000000E-01  8.00000000E-01
  1.50000000E+00  8.00000000E-01  8.00000000E-01  1.50000000E+00  8.00000000E-01
  8.00000000E-01  1.50000000E+00  8.00000000E-01  8.00000000E-01  1.50000000E+00
  8.00000000E-01  8.00000000E-01  1.50000000E+00  8.00000000E-01  8.00000000E-01
  1.50000000E+00  8.00000000E-01  8.00000000E-01  1.50000000E+00  8.00000000E-01
  8.00000000E-01  1.50000000E+00  8.00000000E-01  8.00000000E-01  1.50000000E+00
  8.00000000E-01  8.00000000E-01  1.50000000E+00  8.00000000E-01  8.00000000E-01
  1.50000000E+00  8.00000000E-01  8.00000000E-01  1.50000000E+00  8.00000000E-01
  8.00000000E-01  1.50000000E+00  8.00000000E-01  8.00000000E-01  1.50000000E+00
  8.00000000E-01  8.00000000E-01  1.50000000E+00  8.00000000E-01  8.00000000E-01
  1.50000000E+00  8.00000000E-01  8.00000000E-01  1.50000000E+00  8.00000000E-01
  8.00000000E-01  1.50000000E+00  8.00000000E-01  8.00000000E-01  1.50000000E+00
  8.00000000E-01  8.00000000E-01  1.50000000E+00  8.00000000E-01  8.00000000E-01
  1.50000000E+00  8.00000000E-01  8.00000000E-01  1.50000000E+00  8.00000000E-01
  8.00000000E-01  1.50000000E+00  8.00000000E-01  8.00000000E-01  1.50000000E+00
  8.00000000E-01  8.00000000E-01  1.50000000E+00  8.00000000E-01  8.00000000E-01
  1.50000000E+00  8.00000000E-01  8.00000000E-01  1.50000000E+00  8.00000000E-01
  8.00000000E-01  1.50000000E+00  8.00000000E-01  8.00000000E-01  1.50000000E+00
  8.00000000E-01  8.00000000E-01  1.50000000E+00  8.00000000E-01  8.00000000E-01
  1.50000000E+00  8.00000000E-01  8.00000000E-01  1.50000000E+00  8.00000000E-01
  8.00000000E-01  1.50000000E+00  8.00000000E-01  8.00000000E-01  1.50000000E+00
  8.00000000E-01  8.00000000E-01  1.50000000E+00  8.00000000E-01  8.00000000E-01
  1.50000000E+00  8.00000000E-01  8.00000000E-01  1.50000000E+00  8.00000000E-01
  8.00000000E-01  1.50000000E+00  8.00000000E-01  8.00000000E-01  1.50000000E+00
  8.00000000E-01  8.00000000E-01  1.50000000E+00  8.00000000E-01  8.00000000E-01
  1.50000000E+00  8.00000000E-01  8.00000000E-01  1.50000000E+00  8.00000000E-01
  8.00000000E-01  1.50000000E+00  8.00000000E-01  8.00000000E-01  1.50000000E+00
  8.00000000E-01  8.00000000E-01  1.50000000E+00  8.00000000E-01  8.00000000E-01
  1.50000000E+00  8.00000000E-01  8.00000000E-01  1.50000000E+00  8.00000000E-01
  8.00000000E-01  1.50000000E+00  8.00000000E-01  8.00000000E-01  1.50000000E+00
  8.00000000E-01  8.00000000E-01  1.50000000E+00  8.00000000E-01  8.00000000E-01
  1.50000000E+00  8.00000000E-01  8.00000000E-01  1.50000000E+00  8.00000000E-01
  8.00000000E-01  1.50000000E+00  8.00000000E-01  8.00000000E-01  1.50000000E+00
  8.00000000E-01  8.00000000E-01  1.50000000E+00  8.00000000E-01  8.00000000E-01
  1.50000000E+00  8.00000000E-01  8.00000000E-01  1.50000000E+00  8.00000000E-01
  8.00000000E-01  1.50000000E+00  8.00000000E-01  8.00000000E-01  1.50000000E+00
  8.00000000E-01  8.00000000E-01  1.50000000E+00  8.00000000E-01  8.00000000E-01
  1.50000000E+00  8.00000000E-01  8.00000000E-01  1.50000000E+00  8.00000000E-01
  8.00000000E-01  1.50000000E+00  8.00000000E-01  8.00000000E-01  1.50000000E+00
  8.00000000E-01  8.00000000E-01  1.50000000E+00  8.00000000E-01  8.00000000E-01
  1.50000000E+00  8.00000000E-01  8.00000000E-01  1.50000000E+00  8.00000000E-01
  8.00000000E-01  1.50000000E+00  8.00000000E-01  8.00000000E-01  1.50000000E+00
  8.00000000E-01  8.00000000E-01  1.50000000E+00  8.00000000E-01  8.00000000E-01
  1.50000000E+00  8.00000000E-01  8.00000000E-01  1.50000000E+00  8.00000000E-01
  8.00000000E-01  1.50000000E+00  8.00000000E-01  8.00000000E-01  1.50000000E+00
  8.00000000E-01  8.00000000E-01  1.50000000E+00  8.00000000E-01  8.00000000E-01
  1.50000000E+00  8.00000000E-01  8.00000000E-01  1.50000000E+00  8.00000000E-01
  8.00000000E-01  1.50000000E+00  8.00000000E-01  8.00000000E-01  1.50000000E+00
  8.00000000E-01  8.00000000E-01  1.50000000E+00  8.00000000E-01  8.00000000E-01
  1.50000000E+00  8.00000000E-01  8.00000000E-01  1.50000000E+00  8.00000000E-01
  8.00000000E-01  1.50000000E+00  8.00000000E-01  8.00000000E-01  1.50000000E+00
  8.00000000E-01  8.00000000E-01  1.50000000E+00  8.00000000E-01  8.00000000E-01
  1.50000000E+00  8.00000000E-01  8.00000000E-01  1.50000000E+00  8.00000000E-01
  8.00000000E-01  1.50000000E+00  8.00000000E-01  8.00000000E-01  1.50000000E+00
  8.00000000E-01  8.00000000E-01  1.50000000E+00  8.00000000E-01  8.00000000E-01
  1.50000000E+00  8.00000000E-01  8.00000000E-01  1.50000000E+00  8.00000000E-01
  8.00000000E-01  1.50000000E+00  8.00000000E-01  8.00000000E-01  1.50000000E+00
  8.00000000E-01  8.00000000E-01  1.50000000E+00  8.00000000E-01  8.00000000E-01
  1.50000000E+00  8.00000000E-01  8.00000000E-01  1.50000000E+00  8.00000000E-01
  8.00000000E-01  1.50000000E+00  8.00000000E-01  8.00000000E-01  1.50000000E+00
  8.00000000E-01  8.00000000E-01  1.50000000E+00  8.00000000E-01  8.00000000E-01
  1.50000000E+00  8.00000000E-01  8.00000000E-01  1.50000000E+00  8.00000000E-01
  8.00000000E-01  1.50000000E+00  8.00000000E-01  8.00000000E-01  1.50000000E+00
  8.00000000E-01  8.00000000E-01  1.50000000E+00  8.00000000E-01  8.00000000E-01
  1.50000000E+00  8.00000000E-01  8.00000000E-01  1.50000000E+00  8.00000000E-01
  8.00000000E-01  1.50000000E+00  8.00000000E-01  8.00000000E-01  1.50000000E+00
  8.00000000E-01  8.00000000E-01  1.50000000E+00  8.00000000E-01  8.00000000E-01
  1.50000000E+00  8.00000000E-01  8.00000000E-01  1.50000000E+00  8.00000000E-01
  8.00000000E-01  1.50000000E+00  8.00000000E-01  8.00000000E-01  1.50000000E+00
  8.00000000E-01  8.00000000E-01  1.50000000E+00  8.00000000E-01  8.00000000E-01
  1.50000000E+00  8.00000000E-01  8.00000000E-01  1.50000000E+00  8.00000000E-01
  8.00000000E-01  1.50000000E+00  8.00000000E-01  8.00000000E-01  1.50000000E+00
  8.00000000E-01  8.00000000E-01  1.50000000E+00  8.00000000E-01  8.00000000E-01
  1.50000000E+00  8.00000000E-01  8.00000000E-01  1.50000000E+00  8.00000000E-01
  8.00000000E-01  1.50000000E+00  8.00000000E-01  8.00000000E-01  1.50000000E+00
  8.00000000E-01  8.00000000E-01  1.50000000E+00  8.00000000E-01  8.00000000E-01
  1.50000000E+00  8.00000000E-01  8.00000000E-01  1.50000000E+00  8.00000000E-01
  8.00000000E-01  1.50000000E+00  8.00000000E-01  8.00000000E-01  1.50000000E+00
  8.00000000E-01  8.00000000E-01  1.50000000E+00  8.00000000E-01  8.00000000E-01
  1.50000000E+00  8.00000000E-01  8.00000000E-01  1.50000000E+00  8.00000000E-01
  8.00000000E-01  1.50000000E+00  8.00000000E-01  8.00000000E-01  1.50000000E+00
  8.00000000E-01  8.00000000E-01  1.50000000E+00  8.00000000E-01  8.00000000E-01
  1.50000000E+00  8.00000000E-01  8.00000000E-01  1.50000000E+00  8.00000000E-01
  8.00000000E-01  1.50000000E+00  8.00000000E-01  8.00000000E-01  1.50000000E+00
  8.00000000E-01  8.00000000E-01  1.50000000E+00  8.00000000E-01  8.00000000E-01
  1.50000000E+00  8.00000000E-01  8.00000000E-01  1.50000000E+00  8.00000000E-01
  8.00000000E-01  1.50000000E+00  8.00000000E-01  8.00000000E-01  1.50000000E+00
  8.00000000E-01  8.00000000E-01  1.50000000E+00  8.00000000E-01  8.00000000E-01
  1.50000000E+00  8.00000000E-01  8.00000000E-01  1.50000000E+00  8.00000000E-01
  8.00000000E-01  1.50000000E+00  8.00000000E-01  8.00000000E-01  1.50000000E+00
  8.00000000E-01  8.00000000E-01  1.50000000E+00  8.00000000E-01  8.00000000E-01
  1.50000000E+00  8.00000000E-01  8.00000000E-01  1.50000000E+00  8.00000000E-01
  8.00000000E-01  1.50000000E+00  8.00000000E-01  8.00000000E-01  1.50000000E+00
  8.00000000E-01  8.00000000E-01  1.50000000E+00  8.00000000E-01  8.00000000E-01
  1.50000000E+00  8.00000000E-01  8.00000000E-01  1.50000000E+00  8.00000000E-01
  8.00000000E-01  1.50000000E+00  8.00000000E-01  8.00000000E-01  1.50000000E+00
  8.00000000E-01  8.00000000E-01  1.50000000E+00  8.00000000E-01  8.00000000E-01
  1.50000000E+00  8.00000000E-01  8.00000000E-01  1.50000000E+00  8.00000000E-01
  8.00000000E-01  1.50000000E+00  8.00000000E-01  8.00000000E-01  1.50000000E+00
  8.00000000E-01  8.00000000E-01  1.50000000E+00  8.00000000E-01  8.00000000E-01
  1.50000000E+00  8.00000000E-01  8.00000000E-01  1.50000000E+00  8.00000000E-01
  8.00000000E-01  1.50000000E+00  8.00000000E-01  8.00000000E-01  1.50000000E+00
  8.00000000E-01  8.00000000E-01  1.50000000E+00  8.00000000E-01  8.00000000E-01
  1.50000000E+00  8.00000000E-01  8.00000000E-01  1.50000000E+00  8.00000000E-01
  8.00000000E-01  1.50000000E+00  8.00000000E-01  8.00000000E-01  1.50000000E+00
  8.00000000E-01  8.00000000E-01  1.50000000E+00  8.00000000E-01  8.00000000E-01
  1.50000000E+00  8.00000000E-01  8.00000000E-01  1.50000000E+00  8.00000000E-01
  8.00000000E-01  1.50000000E+00  8.00000000E-01  8.00000000E-01  1.50000000E+00
  8.00000000E-01  8.00000000E-01  1.50000000E+00  8.00000000E-01  8.00000000E-01
  1.50000000E+00  8.00000000E-01  8.00000000E-01  1.50000000E+00  8.00000000E-01
  8.00000000E-01  1.50000000E+00  8.00000000E-01  8.00000000E-01  1.50000000E+00
  8.00000000E-01  8.00000000E-01  1.50000000E+00  8.00000000E-01  8.00000000E-01
  1.50000000E+00  8.00000000E-01  8.00000000E-01  1.50000000E+00  8.00000000E-01
  8.00000000E-01  1.50000000E+00  8.00000000E-01  8.00000000E-01  1.50000000E+00
  8.00000000E-01  8.00000000E-01  1.50000000E+00  8.00000000E-01  8.00000000E-01
  1.50000000E+00  8.00000000E-01  8.00000000E-01  1.50000000E+00  8.00000000E-01
  8.00000000E-01  1.50000000E+00  8.00000000E-01  8.00000000E-01  1.50000000E+00
  8.00000000E-01  8.00000000E-01  1.50000000E+00  8.00000000E-01  8.00000000E-01
  1.50000000E+00  8.00000000E-01  8.00000000E-01  1.50000000E+00  8.00000000E-01
  8.00000000E-01  1.50000000E+00  8.00000000E-01  8.00000000E-01  1.50000000E+00
  8.00000000E-01  8.00000000E-01  1.50000000E+00  8.00000000E-01  8.00000000E-01
  1.50000000E+00  8.00000000E-01  8.00000000E-01  1.50000000E+00  8.00000000E-01
  8.00000000E-01  1.50000000E+00  8.00000000E-01  8.00000000E-01  1.50000000E+00
  8.00000000E-01  8.00000000E-01  1.50000000E+00  8.00000000E-01  8.00000000E-01
  1.50000000E+00  8.00000000E-01  8.00000000E-01  1.50000000E+00  8.00000000E-01
  8.00000000E-01  1.50000000E+00  8.00000000E-01  8.00000000E-01  1.50000000E+00
  8.00000000E-01  8.00000000E-01  1.50000000E+00  8.00000000E-01  8.00000000E-01
  1.50000000E+00  8.00000000E-01  8.00000000E-01  1.50000000E+00  8.00000000E-01
  8.00000000E-01  1.50000000E+00  8.00000000E-01  8.00000000E-01  1.50000000E+00
  8.00000000E-01  8.00000000E-01  1.50000000E+00  8.00000000E-01  8.00000000E-01
  1.50000000E+00  8.00000000E-01  8.00000000E-01  1.50000000E+00  8.00000000E-01
  8.00000000E-01  1.50000000E+00  8.00000000E-01  8.00000000E-01  1.50000000E+00
  8.00000000E-01  8.00000000E-01  1.50000000E+00  8.00000000E-01  8.00000000E-01
  1.50000000E+00  8.00000000E-01  8.00000000E-01  1.50000000E+00  8.00000000E-01
  8.00000000E-01  1.50000000E+00  8.00000000E-01  8.00000000E-01  1.50000000E+00
  8.00000000E-01  8.00000000E-01  1.50000000E+00  8.00000000E-01  8.00000000E-01
  1.50000000E+00  8.00000000E-01  8.00000000E-01  1.50000000E+00  8.00000000E-01
  8.00000000E-01  1.50000000E+00  8.00000000E-01  8.00000000E-01  1.50000000E+00
  8.00000000E-01  8.00000000E-01  1.50000000E+00  8.00000000E-01  8.00000000E-01
  1.50000000E+00  8.00000000E-01  8.00000000E-01  1.50000000E+00  8.00000000E-01
  8.00000000E-01  1.50000000E+00  8.00000000E-01  8.00000000E-01  1.50000000E+00
  8.00000000E-01  8.00000000E-01  1.50000000E+00  8.00000000E-01  8.00000000E-01
  1.50000000E+00  8.00000000E-01  8.00000000E-01  1.50000000E+00  8.00000000E-01
  8.00000000E-01  1.50000000E+00  8.00000000E-01  8.00000000E-01  1.50000000E+00
  8.00000000E-01  8.00000000E-01  1.50000000E+00  8.00000000E-01  8.00000000E-01
  1.50000000E+00  8.00000000E-01  8.00000000E-01  1.50000000E+00  8.00000000E-01
  8.00000000E-01  1.50000000E+00  8.00000000E-01  8.00000000E-01  1.50000000E+00
  8.00000000E-01  8.00000000E-01  1.50000000E+00  8.00000000E-01  8.00000000E-01
  1.50000000E+00  8.00000000E-01  8.00000000E-01  1.50000000E+00  8.00000000E-01
  8.00000000E-01  1.50000000E+00  8.00000000E-01  8.00000000E-01  1.50000000E+00
  8.00000000E-01  8.00000000E-01  1.50000000E+00  8.00000000E-01  8.00000000E-01
  1.50000000E+00  8.00000000E-01  8.00000000E-01  1.50000000E+00  8.00000000E-01
  8.00000000E-01  1.50000000E+00  8.00000000E-01  8.00000000E-01  1.50000000E+00
  8.00000000E-01  8.00000000E-01  1.50000000E+00  8.00000000E-01  8.00000000E-01
  1.50000000E+00  8.00000000E-01  8.00000000E-01  1.50000000E+00  8.00000000E-01
  8.00000000E-01  1.50000000E+00  8.00000000E-01  8.00000000E-01  1.50000000E+00
  8.00000000E-01  8.00000000E-01  1.50000000E+00  8.00000000E-01  8.00000000E-01
  1.50000000E+00  8.00000000E-01  8.00000000E-01  1.50000000E+00  8.00000000E-01
  8.00000000E-01  1.50000000E+00  8.00000000E-01  8.00000000E-01  1.50000000E+00
  8.00000000E-01  8.00000000E-01  1.50000000E+00  8.00000000E-01  8.00000000E-01
  1.50000000E+00  8.00000000E-01  8.00000000E-01  1.50000000E+00  8.00000000E-01
  8.00000000E-01  1.50000000E+00  8.00000000E-01  8.00000000E-01  1.50000000E+00
  8.00000000E-01  8.00000000E-01  1.50000000E+00  8.00000000E-01  8.00000000E-01
  1.50000000E+00  8.00000000E-01  8.00000000E-01  1.50000000E+00  8.00000000E-01
  8.00000000E-01  1.50000000E+00  8.00000000E-01  8.00000000E-01  1.50000000E+00
  8.00000000E-01  8.00000000E-01  1.50000000E+00  8.00000000E-01  8.00000000E-01
  1.50000000E+00  8.00000000E-01  8.00000000E-01  1.50000000E+00  8.00000000E-01
  8.00000000E-01  1.50000000E+00  8.00000000E-01  8.00000000E-01  1.50000000E+00
  8.00000000E-01  8.00000000E-01  1.50000000E+00  8.00000000E-01  8.00000000E-01
  1.50000000E+00  8.00000000E-01  8.00000000E-01  1.50000000E+00  8.00000000E-01
  8.00000000E-01  1.50000000E+00  8.00000000E-01  8.00000000E-01  1.50000000E+00
  8.00000000E-01  8.00000000E-01  1.50000000E+00  8.00000000E-01  8.00000000E-01
  1.50000000E+00  8.00000000E-01  8.00000000E-01  1.50000000E+00  8.00000000E-01
  8.00000000E-01  1.50000000E+00  8.00000000E-01  8.00000000E-01  1.50000000E+00
  8.00000000E-01  8.00000000E-01  1.50000000E+00  8.00000000E-01  8.00000000E-01
  1.50000000E+00  8.00000000E-01  8.00000000E-01  1.50000000E+00  8.00000000E-01
  8.00000000E-01  1.50000000E+00  8.00000000E-01  8.00000000E-01  1.50000000E+00
  8.00000000E-01  8.00000000E-01  1.50000000E+00  8.00000000E-01  8.00000000E-01
  1.50000000E+00  8.00000000E-01  8.00000000E-01  1.50000000E+00  8.00000000E-01
  8.00000000E-01  1.50000000E+00  8.00000000E-01  8.00000000E-01  1.50000000E+00
  8.00000000E-01  8.00000000E-01  1.50000000E+00  8.00000000E-01  8.00000000E-01
  1.50000000E+00  8.00000000E-01  8.00000000E-01  1.50000000E+00  8.00000000E-01
  8.00000000E-01  1.50000000E+00  8.00000000E-01  8.00000000E-01  1.50000000E+00
  8.00000000E-01  8.00000000E-01  1.50000000E+00  8.00000000E-01  8.00000000E-01
  1.50000000E+00  8.00000000E-01  8.00000000E-01  1.50000000E+00  8.00000000E-01
  8.00000000E-01  1.50000000E+00  8.00000000E-01  8.00000000E-01  1.50000000E+00
  8.00000000E-01  8.00000000E-01  1.50000000E+00  8.00000000E-01  8.00000000E-01
  1.50000000E+00  8.00000000E-01  8.00000000E-01  1.50000000E+00  8.00000000E-01
  8.00000000E-01  1.50000000E+00  8.00000000E-01  8.00000000E-01  1.50000000E+00
  8.00000000E-01  8.00000000E-01  1.50000000E+00  8.00000000E-01  8.00000000E-01
  1.50000000E+00  8.00000000E-01  8.00000000E-01  1.50000000E+00  8.00000000E-01
  8.00000000E-01  1.50000000E+00  8.00000000E-01  8.00000000E-01  1.50000000E+00
  8.00000000E-01  8.00000000E-01  1.50000000E+00  8.00000000E-01  8.00000000E-01
  1.50000000E+00  8.00000000E-01  8.00000000E-01  1.50000000E+00  8.00000000E-01
  8.00000000E-01  1.50000000E+00  8.00000000E-01  8.00000000E-01  1.50000000E+00
  8.00000000E-01  8.00000000E-01  1.50000000E+00  8.00000000E-01  8.00000000E-01
  1.50000000E+00  8.00000000E-01  8.00000000E-01  1.50000000E+00  8.00000000E-01
  8.00000000E-01  1.50000000E+00  8.00000000E-01  8.00000000E-01  1.50000000E+00
  8.00000000E-01  8.00000000E-01  1.50000000E+00  8.00000000E-01  8.00000000E-01
  1.50000000E+00  8.00000000E-01  8.00000000E-01  1.50000000E+00  8.00000000E-01
  8.00000000E-01  1.50000000E+00  8.00000000E-01  8.00000000E-01  1.50000000E+00
  8.00000000E-01  8.00000000E-01  1.50000000E+00  8.00000000E-01  8.00000000E-01
  1.50000000E+00  8.00000000E-01  8.00000000E-01  1.50000000E+00  8.00000000E-01
  8.00000000E-01  1.50000000E+00  8.00000000E-01  8.00000000E-01  1.50000000E+00
  8.00000000E-01  8.00000000E-01  1.50000000E+00  8.00000000E-01  8.00000000E-01
  1.50000000E+00  8.00000000E-01  8.00000000E-01  1.50000000E+00  8.00000000E-01
  8.00000000E-01  1.50000000E+00  8.00000000E-01  8.00000000E-01  1.50000000E+00
  8.00000000E-01  8.00000000E-01  1.50000000E+00  8.00000000E-01  8.00000000E-01
  1.50000000E+00  8.00000000E-01  8.00000000E-01  1.50000000E+00  8.00000000E-01
  8.00000000E-01  1.50000000E+00  8.00000000E-01  8.00000000E-01  1.50000000E+00
  8.00000000E-01  8.00000000E-01  1.50000000E+00  8.00000000E-01  8.00000000E-01
  1.50000000E+00  8.00000000E-01  8.00000000E-01  1.50000000E+00  8.00000000E-01
  8.00000000E-01  1.50000000E+00  8.00000000E-01  8.00000000E-01  1.50000000E+00
  8.00000000E-01  8.00000000E-01  1.50000000E+00  8.00000000E-01  8.00000000E-01
  1.50000000E+00  8.00000000E-01  8.00000000E-01  1.50000000E+00  8.00000000E-01
  8.00000000E-01  1.50000000E+00  8.00000000E-01  8.00000000E-01  1.50000000E+00
  8.00000000E-01  8.00000000E-01  1.50000000E+00  8.00000000E-01  8.00000000E-01
  1.50000000E+00  8.00000000E-01  8.00000000E-01  1.50000000E+00  8.00000000E-01
  8.00000000E-01  1.50000000E+00  8.00000000E-01  8.00000000E-01  1.50000000E+00
  8.00000000E-01  8.00000000E-01  1.50000000E+00  8.00000000E-01  8.00000000E-01
  1.50000000E+00  8.00000000E-01  8.00000000E-01  1.50000000E+00  8.00000000E-01
  8.00000000E-01  1.50000000E+00  8.00000000E-01  8.00000000E-01  1.50000000E+00
  8.00000000E-01  8.00000000E-01  1.50000000E+00  8.00000000E-01  8.00000000E-01
  1.50000000E+00  8.00000000E-01  8.00000000E-01  1.50000000E+00  8.00000000E-01
  8.00000000E-01  1.50000000E+00  8.00000000E-01  8.00000000E-01  1.50000000E+00
  8.00000000E-01  8.00000000E-01  1.50000000E+00  8.00000000E-01  8.00000000E-01
  1.50000000E+00  8.00000000E-01  8.00000000E-01  1.50000000E+00  8.00000000E-01
  8.00000000E-01  1.50000000E+00  8.00000000E-01  8.00000000E-01  1.50000000E+00
  8.00000000E-01  8.00000000E-01  1.50000000E+00  8.00000000E-01  8.00000000E-01
  1.50000000E+00  8.00000000E-01  8.00000000E-01  1.50000000E+00  8.00000000E-01
  8.00000000E-01  1.50000000E+00  8.00000000E-01  8.00000000E-01  1.50000000E+00
  8.00000000E-01  8.00000000E-01  1.50000000E+00  8.00000000E-01  8.00000000E-01
  1.50000000E+00  8.00000000E-01  8.00000000E-01  1.50000000E+00  8.00000000E-01
  8.00000000E-01  1.50000000E+00  8.00000000E-01  8.00000000E-01  1.50000000E+00
  8.00000000E-01  8.00000000E-01  1.50000000E+00  8.00000000E-01  8.00000000E-01
  1.50000000E+00  8.00000000E-01  8.00000000E-01  1.50000000E+00  8.00000000E-01
  8.00000000E-01  1.50000000E+00  8.00000000E-01  8.00000000E-01  1.50000000E+00
  8.00000000E-01  8.00000000E-01  1.50000000E+00  8.00000000E-01  8.00000000E-01
  1.50000000E+00  8.00000000E-01  8.00000000E-01  1.50000000E+00  8.00000000E-01
  8.00000000E-01  1.50000000E+00  8.00000000E-01  8.00000000E-01  1.50000000E+00
  8.00000000E-01  8.00000000E-01  1.50000000E+00  8.00000000E-01  8.00000000E-01
  1.50000000E+00  8.00000000E-01  8.00000000E-01  1.50000000E+00  8.00000000E-01
  8.00000000E-01  1.50000000E+00  8.00000000E-01  8.00000000E-01  1.50000000E+00
  8.00000000E-01  8.00000000E-01  1.50000000E+00  8.00000000E-01  8.00000000E-01
  1.50000000E+00  8.00000000E-01  8.00000000E-01  1.50000000E+00  8.00000000E-01
  8.00000000E-01  1.50000000E+00  8.00000000E-01  8.00000000E-01  1.50000000E+00
  8.00000000E-01  8.00000000E-01  1.50000000E+00  8.00000000E-01  8.00000000E-01
  1.50000000E+00  8.00000000E-01  8.00000000E-01  1.50000000E+00  8.00000000E-01
  8.00000000E-01  1.50000000E+00  8.00000000E-01  8.00000000E-01  1.50000000E+00
  8.00000000E-01  8.00000000E-01  1.50000000E+00  8.00000000E-01  8.00000000E-01
  1.50000000E+00  8.00000000E-01  8.00000000E-01  1.50000000E+00  8.00000000E-01
  8.00000000E-01  1.50000000E+00  8.00000000E-01  8.00000000E-01  1.50000000E+00
  8.00000000E-01  8.00000000E-01  1.50000000E+00  8.00000000E-01  8.00000000E-01
  1.50000000E+00  8.00000000E-01  8.00000000E-01  1.50000000E+00  8.00000000E-01
  8.00000000E-01  1.50000000E+00  8.00000000E-01  8.00000000E-01  1.50000000E+00
  8.00000000E-01  8.00000000E-01  1.50000000E+00  8.00000000E-01  8.00000000E-01
  1.50000000E+00  8.00000000E-01  8.00000000E-01  1.50000000E+00  8.00000000E-01
  8.00000000E-01  1.50000000E+00  8.00000000E-01  8.00000000E-01  1.50000000E+00
  8.00000000E-01  8.00000000E-01  1.50000000E+00  8.00000000E-01  8.00000000E-01
  1.50000000E+00  8.00000000E-01  8.00000000E-01  1.50000000E+00  8.00000000E-01
  8.00000000E-01  1.50000000E+00  8.00000000E-01  8.00000000E-01  1.50000000E+00
  8.00000000E-01  8.00000000E-01  1.50000000E+00  8.00000000E-01  8.00000000E-01
  1.50000000E+00  8.00000000E-01  8.00000000E-01  1.50000000E+00  8.00000000E-01
  8.00000000E-01  1.50000000E+00  8.00000000E-01  8.00000000E-01  1.50000000E+00
  8.00000000E-01  8.00000000E-01  1.50000000E+00  8.00000000E-01  8.00000000E-01
  1.50000000E+00  8.00000000E-01  8.00000000E-01  1.50000000E+00  8.00000000E-01
  8.00000000E-01  1.50000000E+00  8.00000000E-01  8.00000000E-01  1.50000000E+00
  8.00000000E-01  8.00000000E-01  1.50000000E+00  8.00000000E-01  8.00000000E-01
  1.50000000E+00  8.00000000E-01  8.00000000E-01  1.50000000E+00  8.00000000E-01
  8.00000000E-01  1.50000000E+00  8.00000000E-01  8.00000000E-01  1.50000000E+00
  8.00000000E-01  8.00000000E-01  1.50000000E+00  8.00000000E-01  8.00000000E-01
  1.50000000E+00  8.00000000E-01  8.00000000E-01  1.50000000E+00  8.00000000E-01
  8.00000000E-01  1.50000000E+00  8.00000000E-01  8.00000000E-01  1.50000000E+00
  8.00000000E-01  8.00000000E-01  1.50000000E+00  8.00000000E-01  8.00000000E-01
  1.50000000E+00  8.00000000E-01  8.00000000E-01  1.50000000E+00  8.00000000E-01
  8.00000000E-01  1.50000000E+00  8.00000000E-01  8.00000000E-01  1.50000000E+00
  8.00000000E-01  8.00000000E-01  1.50000000E+00  8.00000000E-01  8.00000000E-01
  1.50000000E+00  8.00000000E-01  8.00000000E-01  1.50000000E+00  8.00000000E-01
  8.00000000E-01  1.50000000E+00  8.00000000E-01  8.00000000E-01  1.50000000E+00
  8.00000000E-01  8.00000000E-01  1.50000000E+00  8.00000000E-01  8.00000000E-01
  1.50000000E+00  8.00000000E-01  8.00000000E-01  1.50000000E+00  8.00000000E-01
  8.00000000E-01  1.50000000E+00  8.00000000E-01  8.00000000E-01  1.50000000E+00
  8.00000000E-01  8.00000000E-01  1.50000000E+00  8.00000000E-01  8.00000000E-01
  1.50000000E+00  8.00000000E-01  8.00000000E-01  1.50000000E+00  8.00000000E-01
  8.00000000E-01  1.50000000E+00  8.00000000E-01  8.00000000E-01  1.50000000E+00
  8.00000000E-01  8.00000000E-01  1.50000000E+00  8.00000000E-01  8.00000000E-01
  1.50000000E+00  8.00000000E-01  8.00000000E-01  1.50000000E+00  8.00000000E-01
  8.00000000E-01  1.50000000E+00  8.00000000E-01  8.00000000E-01  1.50000000E+00
  8.00000000E-01  8.00000000E-01  1.50000000E+00  8.00000000E-01  8.00000000E-01
  1.50000000E+00  8.00000000E-01  8.00000000E-01  1.50000000E+00  8.00000000E-01
  8.00000000E-01  1.50000000E+00  8.00000000E-01  8.00000000E-01  1.50000000E+00
  8.00000000E-01  8.00000000E-01  1.50000000E+00  8.00000000E-01  8.00000000E-01
  1.50000000E+00  8.00000000E-01  8.00000000E-01  1.50000000E+00  8.00000000E-01
  8.00000000E-01  1.50000000E+00  8.00000000E-01  8.00000000E-01  1.50000000E+00
  8.00000000E-01  8.00000000E-01  1.50000000E+00  8.00000000E-01  8.00000000E-01
  1.50000000E+00  8.00000000E-01  8.00000000E-01  1.50000000E+00  8.00000000E-01
  8.00000000E-01  1.50000000E+00  8.00000000E-01  8.00000000E-01  1.50000000E+00
  8.00000000E-01  8.00000000E-01  1.50000000E+00  8.00000000E-01  8.00000000E-01
  1.50000000E+00  8.00000000E-01  8.00000000E-01  1.50000000E+00  8.00000000E-01
  8.00000000E-01  1.50000000E+00  8.00000000E-01  8.00000000E-01  1.50000000E+00
  8.00000000E-01  8.00000000E-01  1.50000000E+00  8.00000000E-01  8.00000000E-01
  1.50000000E+00  8.00000000E-01  8.00000000E-01  1.50000000E+00  8.00000000E-01
  8.00000000E-01  1.50000000E+00  8.00000000E-01  8.00000000E-01  1.50000000E+00
  8.00000000E-01  8.00000000E-01  1.50000000E+00  8.00000000E-01  8.00000000E-01
  1.50000000E+00  8.00000000E-01  8.00000000E-01  1.50000000E+00  8.00000000E-01
  8.00000000E-01  1.50000000E+00  8.00000000E-01  8.00000000E-01  1.50000000E+00
  8.00000000E-01  8.00000000E-01  1.50000000E+00  8.00000000E-01  8.00000000E-01
  1.50000000E+00  8.00000000E-01  8.00000000E-01  1.50000000E+00  8.00000000E-01
  8.00000000E-01  1.50000000E+00  8.00000000E-01  8.00000000E-01  1.50000000E+00
  8.00000000E-01  8.00000000E-01  1.50000000E+00  8.00000000E-01  8.00000000E-01
  1.50000000E+00  8.00000000E-01  8.00000000E-01  1.50000000E+00  8.00000000E-01
  8.00000000E-01  1.50000000E+00  8.00000000E-01  8.00000000E-01  1.50000000E+00
  8.00000000E-01  8.00000000E-01  1.50000000E+00  8.00000000E-01  8.00000000E-01
  1.50000000E+00  8.00000000E-01  8.00000000E-01  1.50000000E+00  8.00000000E-01
  8.00000000E-01  1.50000000E+00  8.00000000E-01  8.00000000E-01  1.50000000E+00
  8.00000000E-01  8.00000000E-01  1.50000000E+00  8.00000000E-01  8.00000000E-01
  1.50000000E+00  8.00000000E-01  8.00000000E-01  1.50000000E+00  8.00000000E-01
  8.00000000E-01  1.50000000E+00  8.00000000E-01  8.00000000E-01  1.50000000E+00
  8.00000000E-01  8.00000000E-01  1.50000000E+00  8.00000000E-01  8.00000000E-01
  1.50000000E+00  8.00000000E-01  8.00000000E-01  1.50000000E+00  8.00000000E-01
  8.00000000E-01  1.50000000E+00  8.00000000E-01  8.00000000E-01  1.50000000E+00
  8.00000000E-01  8.00000000E-01  1.50000000E+00  8.00000000E-01  8.00000000E-01
  1.50000000E+00  8.00000000E-01  8.00000000E-01  1.50000000E+00  8.00000000E-01
  8.00000000E-01  1.50000000E+00  8.00000000E-01  8.00000000E-01  1.50000000E+00
  8.00000000E-01  8.00000000E-01  1.50000000E+00  8.00000000E-01  8.00000000E-01
  1.50000000E+00  8.00000000E-01  8.00000000E-01  1.50000000E+00  8.00000000E-01
  8.00000000E-01  1.50000000E+00  8.00000000E-01  8.00000000E-01  1.50000000E+00
  8.00000000E-01  8.00000000E-01  1.50000000E+00  8.00000000E-01  8.00000000E-01
  1.50000000E+00  8.00000000E-01  8.00000000E-01  1.50000000E+00  8.00000000E-01
  8.00000000E-01  1.50000000E+00  8.00000000E-01  8.00000000E-01  1.50000000E+00
  8.00000000E-01  8.00000000E-01  1.50000000E+00  8.00000000E-01  8.00000000E-01
  1.50000000E+00  8.00000000E-01  8.00000000E-01  1.50000000E+00  8.00000000E-01
  8.00000000E-01  1.50000000E+00  8.00000000E-01  8.00000000E-01  1.50000000E+00
  8.00000000E-01  8.00000000E-01  1.50000000E+00  8.00000000E-01  8.00000000E-01
  1.50000000E+00  8.00000000E-01  8.00000000E-01  1.50000000E+00  8.00000000E-01
  8.00000000E-01  1.50000000E+00  8.00000000E-01  8.00000000E-01  1.50000000E+00
  8.00000000E-01  8.00000000E-01  1.50000000E+00  8.00000000E-01  8.00000000E-01
  1.50000000E+00  8.00000000E-01  8.00000000E-01  1.50000000E+00  8.00000000E-01
  8.00000000E-01  1.50000000E+00  8.00000000E-01  8.00000000E-01  1.50000000E+00
  8.00000000E-01  8.00000000E-01  1.50000000E+00  8.00000000E-01  8.00000000E-01
  1.50000000E+00  8.00000000E-01  8.00000000E-01  1.50000000E+00  8.00000000E-01
  8.00000000E-01  1.50000000E+00  8.00000000E-01  8.00000000E-01  1.50000000E+00
  8.00000000E-01  8.00000000E-01  1.50000000E+00  8.00000000E-01  8.00000000E-01
  1.50000000E+00  8.00000000E-01  8.00000000E-01  1.50000000E+00  8.00000000E-01
  8.00000000E-01  1.50000000E+00  8.00000000E-01  8.00000000E-01  1.50000000E+00
  8.00000000E-01  8.00000000E-01  1.50000000E+00  8.00000000E-01  8.00000000E-01
  1.50000000E+00  8.00000000E-01  8.00000000E-01  1.50000000E+00  8.00000000E-01
  8.00000000E-01  1.50000000E+00  8.00000000E-01  8.00000000E-01  1.50000000E+00
  8.00000000E-01  8.00000000E-01  1.50000000E+00  8.00000000E-01  8.00000000E-01
  1.50000000E+00  8.00000000E-01  8.00000000E-01  1.50000000E+00  8.00000000E-01
  8.00000000E-01  1.50000000E+00  8.00000000E-01  8.00000000E-01  1.50000000E+00
  8.00000000E-01  8.00000000E-01  1.50000000E+00  8.00000000E-01  8.00000000E-01
  1.50000000E+00  8.00000000E-01  8.00000000E-01  1.50000000E+00  8.00000000E-01
  8.00000000E-01  1.50000000E+00  8.00000000E-01  8.00000000E-01  1.50000000E+00
  8.00000000E-01  8.00000000E-01  1.50000000E+00  8.00000000E-01  8.00000000E-01
  1.50000000E+00  8.00000000E-01  8.00000000E-01  1.50000000E+00  8.00000000E-01
  8.00000000E-01  1.50000000E+00  8.00000000E-01  8.00000000E-01  1.50000000E+00
  8.00000000E-01  8.00000000E-01  1.50000000E+00  8.00000000E-01  8.00000000E-01
  1.50000000E+00  8.00000000E-01  8.00000000E-01  1.50000000E+00  8.00000000E-01
  8.00000000E-01  1.50000000E+00  8.00000000E-01  8.00000000E-01  1.50000000E+00
  8.00000000E-01  8.00000000E-01  1.50000000E+00  8.00000000E-01  8.00000000E-01
  1.50000000E+00  8.00000000E-01  8.00000000E-01  1.50000000E+00  8.00000000E-01
  8.00000000E-01  1.50000000E+00  8.00000000E-01  8.00000000E-01  1.50000000E+00
  8.00000000E-01  8.00000000E-01  1.50000000E+00  8.00000000E-01  8.00000000E-01
  1.50000000E+00  8.00000000E-01  8.00000000E-01  1.50000000E+00  8.00000000E-01
  8.00000000E-01  1.50000000E+00  8.00000000E-01  8.00000000E-01  1.50000000E+00
  8.00000000E-01  8.00000000E-01  1.50000000E+00  8.00000000E-01  8.00000000E-01
  1.50000000E+00  8.00000000E-01  8.00000000E-01  1.50000000E+00  8.00000000E-01
  8.00000000E-01  1.50000000E+00  8.00000000E-01  8.00000000E-01  1.50000000E+00
  8.00000000E-01  8.00000000E-01  1.50000000E+00  8.00000000E-01  8.00000000E-01
  1.50000000E+00  8.00000000E-01  8.00000000E-01  1.50000000E+00  8.00000000E-01
  8.00000000E-01  1.50000000E+00  8.00000000E-01  8.00000000E-01  1.50000000E+00
  8.00000000E-01  8.00000000E-01  1.50000000E+00  8.00000000E-01  8.00000000E-01
  1.50000000E+00  8.00000000E-01  8.00000000E-01  1.50000000E+00  8.00000000E-01
  8.00000000E-01  1.50000000E+00  8.00000000E-01  8.00000000E-01  1.50000000E+00
  8.00000000E-01  8.00000000E-01  1.50000000E+00  8.00000000E-01  8.00000000E-01
  1.50000000E+00  8.00000000E-01  8.00000000E-01  1.50000000E+00  8.00000000E-01
  8.00000000E-01  1.50000000E+00  8.00000000E-01  8.00000000E-01  1.50000000E+00
  8.00000000E-01  8.00000000E-01  1.50000000E+00  8.00000000E-01  8.00000000E-01
  1.50000000E+00  8.00000000E-01  8.00000000E-01  1.50000000E+00  8.00000000E-01
  8.00000000E-01  1.50000000E+00  8.00000000E-01  8.00000000E-01  1.50000000E+00
  8.00000000E-01  8.00000000E-01  1.50000000E+00  8.00000000E-01  8.00000000E-01
  1.50000000E+00  8.00000000E-01  8.00000000E-01  1.50000000E+00  8.00000000E-01
  8.00000000E-01  1.50000000E+00  8.00000000E-01  8.00000000E-01  1.50000000E+00
  8.00000000E-01  8.00000000E-01  1.50000000E+00  8.00000000E-01  8.00000000E-01
  1.50000000E+00  8.00000000E-01  8.00000000E-01  1.50000000E+00  8.00000000E-01
  8.00000000E-01  1.50000000E+00  8.00000000E-01  8.00000000E-01  1.50000000E+00
  8.00000000E-01  8.00000000E-01  1.50000000E+00  8.00000000E-01  8.00000000E-01
  1.50000000E+00  8.00000000E-01  8.00000000E-01  1.50000000E+00  8.00000000E-01
  8.00000000E-01  1.50000000E+00  8.00000000E-01  8.00000000E-01  1.50000000E+00
  8.00000000E-01  8.00000000E-01  1.50000000E+00  8.00000000E-01  8.00000000E-01
  1.50000000E+00  8.00000000E-01  8.00000000E-01  1.50000000E+00  8.00000000E-01
  8.00000000E-01  1.50000000E+00  8.00000000E-01  8.00000000E-01  1.50000000E+00
  8.00000000E-01  8.00000000E-01  1.50000000E+00  8.00000000E-01  8.00000000E-01
  1.50000000E+00  8.00000000E-01  8.00000000E-01  1.50000000E+00  8.00000000E-01
  8.00000000E-01  1.50000000E+00  8.00000000E-01  8.00000000E-01  1.50000000E+00
  8.00000000E-01  8.00000000E-01  1.50000000E+00  8.00000000E-01  8.00000000E-01
  1.50000000E+00  8.00000000E-01  8.00000000E-01  1.50000000E+00  8.00000000E-01
  8.00000000E-01  1.50000000E+00  8.00000000E-01  8.00000000E-01  1.50000000E+00
  8.00000000E-01  8.00000000E-01  1.50000000E+00  8.00000000E-01  8.00000000E-01
  1.50000000E+00  8.00000000E-01  8.00000000E-01  1.50000000E+00  8.00000000E-01
  8.00000000E-01  1.50000000E+00  8.00000000E-01  8.00000000E-01  1.50000000E+00
  8.00000000E-01  8.00000000E-01  1.50000000E+00  8.00000000E-01  8.00000000E-01
  1.50000000E+00  8.00000000E-01  8.00000000E-01  1.50000000E+00  8.00000000E-01
  8.00000000E-01  1.50000000E+00  8.00000000E-01  8.00000000E-01  1.50000000E+00
  8.00000000E-01  8.00000000E-01  1.50000000E+00  8.00000000E-01  8.00000000E-01
  1.50000000E+00  8.00000000E-01  8.00000000E-01  1.50000000E+00  8.00000000E-01
  8.00000000E-01  1.50000000E+00  8.00000000E-01  8.00000000E-01  1.50000000E+00
  8.00000000E-01  8.00000000E-01  1.50000000E+00  8.00000000E-01  8.00000000E-01
  1.50000000E+00  8.00000000E-01  8.00000000E-01  1.50000000E+00  8.00000000E-01
  8.00000000E-01  1.50000000E+00  8.00000000E-01  8.00000000E-01  1.50000000E+00
  8.00000000E-01  8.00000000E-01  1.50000000E+00  8.00000000E-01  8.00000000E-01
  1.50000000E+00  8.00000000E-01  8.00000000E-01  1.50000000E+00  8.00000000E-01
  8.00000000E-01  1.50000000E+00  8.00000000E-01  8.00000000E-01  1.50000000E+00
  8.00000000E-01  8.00000000E-01  1.50000000E+00  8.00000000E-01  8.00000000E-01
  1.50000000E+00  8.00000000E-01  8.00000000E-01  1.50000000E+00  8.00000000E-01
  8.00000000E-01  1.50000000E+00  8.00000000E-01  8.00000000E-01  1.50000000E+00
  8.00000000E-01  8.00000000E-01  1.50000000E+00  8.00000000E-01  8.00000000E-01
  1.50000000E+00  8.00000000E-01  8.00000000E-01  1.50000000E+00  8.00000000E-01
  8.00000000E-01  1.50000000E+00  8.00000000E-01  8.00000000E-01  1.50000000E+00
  8.00000000E-01  8.00000000E-01  1.50000000E+00  8.00000000E-01  8.00000000E-01
  1.50000000E+00  8.00000000E-01  8.00000000E-01  1.50000000E+00  8.00000000E-01
  8.00000000E-01  1.50000000E+00  8.00000000E-01  8.00000000E-01  1.50000000E+00
  8.00000000E-01  8.00000000E-01  1.50000000E+00  8.00000000E-01  8.00000000E-01
  1.50000000E+00  8.00000000E-01  8.00000000E-01  1.50000000E+00  8.00000000E-01
  8.00000000E-01  1.50000000E+00  8.00000000E-01  8.00000000E-01  1.50000000E+00
  8.00000000E-01  8.00000000E-01  1.50000000E+00  8.00000000E-01  8.00000000E-01
  1.50000000E+00  8.00000000E-01  8.00000000E-01  1.50000000E+00  8.00000000E-01
  8.00000000E-01  1.50000000E+00  8.00000000E-01  8.00000000E-01  1.50000000E+00
  8.00000000E-01  8.00000000E-01  1.50000000E+00  8.00000000E-01  8.00000000E-01
  1.50000000E+00  8.00000000E-01  8.00000000E-01  1.50000000E+00  8.00000000E-01
  8.00000000E-01  1.50000000E+00  8.00000000E-01  8.00000000E-01  1.50000000E+00
  8.00000000E-01  8.00000000E-01  1.50000000E+00  8.00000000E-01  8.00000000E-01
  1.50000000E+00  8.00000000E-01  8.00000000E-01  1.50000000E+00  8.00000000E-01
  8.00000000E-01  1.50000000E+00  8.00000000E-01  8.00000000E-01  1.50000000E+00
  8.00000000E-01  8.00000000E-01  1.50000000E+00  8.00000000E-01  8.00000000E-01
  1.50000000E+00  8.00000000E-01  8.00000000E-01  1.50000000E+00  8.00000000E-01
  8.00000000E-01  1.50000000E+00  8.00000000E-01  8.00000000E-01  1.50000000E+00
  8.00000000E-01  8.00000000E-01  1.50000000E+00  8.00000000E-01  8.00000000E-01
  1.50000000E+00  8.00000000E-01  8.00000000E-01  1.50000000E+00  8.00000000E-01
  8.00000000E-01  1.50000000E+00  8.00000000E-01  8.00000000E-01  1.50000000E+00
  8.00000000E-01  8.00000000E-01  1.50000000E+00  8.00000000E-01  8.00000000E-01
  1.50000000E+00  8.00000000E-01  8.00000000E-01  1.50000000E+00  8.00000000E-01
  8.00000000E-01  1.50000000E+00  8.00000000E-01  8.00000000E-01  1.50000000E+00
  8.00000000E-01  8.00000000E-01  1.50000000E+00  8.00000000E-01  8.00000000E-01
  1.50000000E+00  8.00000000E-01  8.00000000E-01  1.50000000E+00  8.00000000E-01
  8.00000000E-01  1.50000000E+00  8.00000000E-01  8.00000000E-01  1.50000000E+00
  8.00000000E-01  8.00000000E-01  1.50000000E+00  8.00000000E-01  8.00000000E-01
  1.50000000E+00  8.00000000E-01  8.00000000E-01  1.50000000E+00  8.00000000E-01
  8.00000000E-01  1.50000000E+00  8.00000000E-01  8.00000000E-01  1.50000000E+00
  8.00000000E-01  8.00000000E-01  1.50000000E+00  8.00000000E-01  8.00000000E-01
  1.50000000E+00  8.00000000E-01  8.00000000E-01  1.50000000E+00  8.00000000E-01
  8.00000000E-01  1.50000000E+00  8.00000000E-01  8.00000000E-01  1.50000000E+00
  8.00000000E-01  8.00000000E-01  1.50000000E+00  8.00000000E-01  8.00000000E-01
  1.50000000E+00  8.00000000E-01  8.00000000E-01  1.50000000E+00  8.00000000E-01
  8.00000000E-01  1.50000000E+00  8.00000000E-01  8.00000000E-01  1.50000000E+00
  8.00000000E-01  8.00000000E-01  1.50000000E+00  8.00000000E-01  8.00000000E-01
  1.50000000E+00  8.00000000E-01  8.00000000E-01  1.50000000E+00  8.00000000E-01
  8.00000000E-01  1.50000000E+00  8.00000000E-01  8.00000000E-01  1.50000000E+00
  8.00000000E-01  8.00000000E-01  1.50000000E+00  8.00000000E-01  8.00000000E-01
  1.50000000E+00  8.00000000E-01  8.00000000E-01  1.50000000E+00  8.00000000E-01
  8.00000000E-01  1.50000000E+00  8.00000000E-01  8.00000000E-01  1.50000000E+00
  8.00000000E-01  8.00000000E-01  1.50000000E+00  8.00000000E-01  8.00000000E-01
  1.50000000E+00  8.00000000E-01  8.00000000E-01  1.50000000E+00  8.00000000E-01
  8.00000000E-01  1.50000000E+00  8.00000000E-01  8.00000000E-01  1.50000000E+00
  8.00000000E-01  8.00000000E-01  1.50000000E+00  8.00000000E-01  8.00000000E-01
  1.50000000E+00  8.00000000E-01  8.00000000E-01  1.50000000E+00  8.00000000E-01
  8.00000000E-01  1.50000000E+00  8.00000000E-01  8.00000000E-01  1.50000000E+00
  8.00000000E-01  8.00000000E-01  1.50000000E+00  8.00000000E-01  8.00000000E-01
  1.50000000E+00  8.00000000E-01  8.00000000E-01  1.50000000E+00  8.00000000E-01
  8.00000000E-01  1.50000000E+00  8.00000000E-01  8.00000000E-01  1.50000000E+00
  8.00000000E-01  8.00000000E-01  1.50000000E+00  8.00000000E-01  8.00000000E-01
  1.50000000E+00  8.00000000E-01  8.00000000E-01  1.50000000E+00  8.00000000E-01
  8.00000000E-01  1.50000000E+00  8.00000000E-01  8.00000000E-01  1.50000000E+00
  8.00000000E-01  8.00000000E-01  1.50000000E+00  8.00000000E-01  8.00000000E-01
  1.50000000E+00  8.00000000E-01  8.00000000E-01  1.50000000E+00  8.00000000E-01
  8.00000000E-01  1.50000000E+00  8.00000000E-01  8.00000000E-01  1.50000000E+00
  8.00000000E-01  8.00000000E-01  1.50000000E+00  8.00000000E-01  8.00000000E-01
  1.50000000E+00  8.00000000E-01  8.00000000E-01  1.50000000E+00  8.00000000E-01
  8.00000000E-01  1.50000000E+00  8.00000000E-01  8.00000000E-01  1.50000000E+00
  8.00000000E-01  8.00000000E-01  1.50000000E+00  8.00000000E-01  8.00000000E-01
  1.50000000E+00  8.00000000E-01  8.00000000E-01  1.50000000E+00  8.00000000E-01
  8.00000000E-01  1.50000000E+00  8.00000000E-01  8.00000000E-01  1.50000000E+00
  8.00000000E-01  8.00000000E-01  1.50000000E+00  8.00000000E-01  8.00000000E-01
  1.50000000E+00  8.00000000E-01  8.00000000E-01  1.50000000E+00  8.00000000E-01
  8.00000000E-01  1.50000000E+00  8.00000000E-01  8.00000000E-01  1.50000000E+00
  8.00000000E-01  8.00000000E-01  1.50000000E+00  8.00000000E-01  8.00000000E-01
  1.50000000E+00  8.00000000E-01  8.00000000E-01  1.50000000E+00  8.00000000E-01
  8.00000000E-01  1.50000000E+00  8.00000000E-01  8.00000000E-01  1.50000000E+00
  8.00000000E-01  8.00000000E-01  1.50000000E+00  8.00000000E-01  8.00000000E-01
  1.50000000E+00  8.00000000E-01  8.00000000E-01  1.50000000E+00  8.00000000E-01
  8.00000000E-01  1.50000000E+00  8.00000000E-01  8.00000000E-01  1.50000000E+00
  8.00000000E-01  8.00000000E-01  1.50000000E+00  8.00000000E-01  8.00000000E-01
  1.50000000E+00  8.00000000E-01  8.00000000E-01  1.50000000E+00  8.00000000E-01
  8.00000000E-01  1.50000000E+00  8.00000000E-01  8.00000000E-01  1.50000000E+00
  8.00000000E-01  8.00000000E-01  1.50000000E+00  8.00000000E-01  8.00000000E-01
  1.50000000E+00  8.00000000E-01  8.00000000E-01  1.50000000E+00  8.00000000E-01
  8.00000000E-01  1.50000000E+00  8.00000000E-01  8.00000000E-01  1.50000000E+00
  8.00000000E-01  8.00000000E-01  1.50000000E+00  8.00000000E-01  8.00000000E-01
  1.50000000E+00  8.00000000E-01  8.00000000E-01  1.50000000E+00  8.00000000E-01
  8.00000000E-01  1.50000000E+00  8.00000000E-01  8.00000000E-01  1.50000000E+00
  8.00000000E-01  8.00000000E-01  1.50000000E+00  8.00000000E-01  8.00000000E-01
  1.50000000E+00  8.00000000E-01  8.00000000E-01  1.50000000E+00  8.00000000E-01
  8.00000000E-01  1.50000000E+00  8.00000000E-01  8.00000000E-01  1.50000000E+00
  8.00000000E-01  8.00000000E-01  1.50000000E+00  8.00000000E-01  8.00000000E-01
  1.50000000E+00  8.00000000E-01  8.00000000E-01  1.50000000E+00  8.00000000E-01
  8.00000000E-01  1.50000000E+00  8.00000000E-01  8.00000000E-01  1.50000000E+00
  8.00000000E-01  8.00000000E-01  1.50000000E+00  8.00000000E-01  8.00000000E-01
  1.50000000E+00  8.00000000E-01  8.00000000E-01  1.50000000E+00  8.00000000E-01
  8.00000000E-01  1.50000000E+00  8.00000000E-01  8.00000000E-01  1.50000000E+00
  8.00000000E-01  8.00000000E-01  1.50000000E+00  8.00000000E-01  8.00000000E-01
  1.50000000E+00  8.00000000E-01  8.00000000E-01  1.50000000E+00  8.00000000E-01
  8.00000000E-01  1.50000000E+00  8.00000000E-01  8.00000000E-01  1.50000000E+00
  8.00000000E-01  8.00000000E-01  1.50000000E+00  8.00000000E-01  8.00000000E-01
  1.50000000E+00  8.00000000E-01  8.00000000E-01  1.50000000E+00  8.00000000E-01
  8.00000000E-01  1.50000000E+00  8.00000000E-01  8.00000000E-01  1.50000000E+00
  8.00000000E-01  8.00000000E-01  1.50000000E+00  8.00000000E-01  8.00000000E-01
  1.50000000E+00  8.00000000E-01  8.00000000E-01  1.50000000E+00  8.00000000E-01
  8.00000000E-01  1.50000000E+00  8.00000000E-01  8.00000000E-01  1.50000000E+00
  8.00000000E-01  8.00000000E-01  1.50000000E+00  8.00000000E-01  8.00000000E-01
  1.50000000E+00  8.00000000E-01  8.00000000E-01  1.50000000E+00  8.00000000E-01
  8.00000000E-01  1.50000000E+00  8.00000000E-01  8.00000000E-01  1.50000000E+00
  8.00000000E-01  8.00000000E-01  1.50000000E+00  8.00000000E-01  8.00000000E-01
  1.50000000E+00  8.00000000E-01  8.00000000E-01  1.50000000E+00  8.00000000E-01
  8.00000000E-01  1.50000000E+00  8.00000000E-01  8.00000000E-01  1.50000000E+00
  8.00000000E-01  8.00000000E-01  1.50000000E+00  8.00000000E-01  8.00000000E-01
  1.50000000E+00  8.00000000E-01  8.00000000E-01  1.50000000E+00  8.00000000E-01
  8.00000000E-01  1.50000000E+00  8.00000000E-01  8.00000000E-01  1.50000000E+00
  8.00000000E-01  8.00000000E-01  1.50000000E+00  8.00000000E-01  8.00000000E-01
  1.50000000E+00  8.00000000E-01  8.00000000E-01  1.50000000E+00  8.00000000E-01
  8.00000000E-01  1.50000000E+00  8.00000000E-01  8.00000000E-01  1.50000000E+00
  8.00000000E-01  8.00000000E-01  1.50000000E+00  8.00000000E-01  8.00000000E-01
  1.50000000E+00  8.00000000E-01  8.00000000E-01  1.50000000E+00  8.00000000E-01
  8.00000000E-01  1.50000000E+00  8.00000000E-01  8.00000000E-01  1.50000000E+00
  8.00000000E-01  8.00000000E-01  1.50000000E+00  8.00000000E-01  8.00000000E-01
  1.50000000E+00  8.00000000E-01  8.00000000E-01  1.50000000E+00  8.00000000E-01
  8.00000000E-01  1.50000000E+00  8.00000000E-01  8.00000000E-01  1.50000000E+00
  8.00000000E-01  8.00000000E-01  1.50000000E+00  8.00000000E-01  8.00000000E-01
  1.50000000E+00  8.00000000E-01  8.00000000E-01  1.50000000E+00  8.00000000E-01
  8.00000000E-01  1.50000000E+00  8.00000000E-01  8.00000000E-01  1.50000000E+00
  8.00000000E-01  8.00000000E-01  1.50000000E+00  8.00000000E-01  8.00000000E-01
  1.50000000E+00  8.00000000E-01  8.00000000E-01  1.50000000E+00  8.00000000E-01
  8.00000000E-01  1.50000000E+00  8.00000000E-01  8.00000000E-01  1.50000000E+00
  8.00000000E-01  8.00000000E-01  1.50000000E+00  8.00000000E-01  8.00000000E-01
  1.50000000E+00  8.00000000E-01  8.00000000E-01  1.50000000E+00  8.00000000E-01
  8.00000000E-01  1.50000000E+00  8.00000000E-01  8.00000000E-01  1.50000000E+00
  8.00000000E-01  8.00000000E-01  1.50000000E+00  8.00000000E-01  8.00000000E-01
  1.50000000E+00  8.00000000E-01  8.00000000E-01  1.50000000E+00  8.00000000E-01
  8.00000000E-01  1.50000000E+00  8.00000000E-01  8.00000000E-01  1.50000000E+00
  8.00000000E-01  8.00000000E-01  1.50000000E+00  8.00000000E-01  8.00000000E-01
  1.50000000E+00  8.00000000E-01  8.00000000E-01  1.50000000E+00  8.00000000E-01
  8.00000000E-01  1.50000000E+00  8.00000000E-01  8.00000000E-01  1.50000000E+00
  8.00000000E-01  8.00000000E-01  1.50000000E+00  8.00000000E-01  8.00000000E-01
  1.50000000E+00  8.00000000E-01  8.00000000E-01  1.50000000E+00  8.00000000E-01
  8.00000000E-01  1.50000000E+00  8.00000000E-01  8.00000000E-01  1.50000000E+00
  8.00000000E-01  8.00000000E-01  1.50000000E+00  8.00000000E-01  8.00000000E-01
  1.50000000E+00  8.00000000E-01  8.00000000E-01  1.50000000E+00  8.00000000E-01
  8.00000000E-01  1.50000000E+00  8.00000000E-01  8.00000000E-01  1.50000000E+00
  8.00000000E-01  8.00000000E-01  1.50000000E+00  8.00000000E-01  8.00000000E-01
  1.50000000E+00  8.00000000E-01  8.00000000E-01  1.50000000E+00  8.00000000E-01
  8.00000000E-01  1.50000000E+00  8.00000000E-01  8.00000000E-01  1.50000000E+00
  8.00000000E-01  8.00000000E-01  1.50000000E+00  8.00000000E-01  8.00000000E-01
  1.50000000E+00  8.00000000E-01  8.00000000E-01  1.50000000E+00  8.00000000E-01
  8.00000000E-01  1.50000000E+00  8.00000000E-01  8.00000000E-01  1.50000000E+00
  8.00000000E-01  8.00000000E-01  1.50000000E+00  8.00000000E-01  8.00000000E-01
  1.50000000E+00  8.00000000E-01  8.00000000E-01  1.50000000E+00  8.00000000E-01
  8.00000000E-01  1.50000000E+00  8.00000000E-01  8.00000000E-01  1.50000000E+00
  8.00000000E-01  8.00000000E-01  1.50000000E+00  8.00000000E-01  8.00000000E-01
  1.50000000E+00  8.00000000E-01  8.00000000E-01  1.50000000E+00  8.00000000E-01
  8.00000000E-01  1.50000000E+00  8.00000000E-01  8.00000000E-01  1.50000000E+00
  8.00000000E-01  8.00000000E-01  1.50000000E+00  8.00000000E-01  8.00000000E-01
  1.50000000E+00  8.00000000E-01  8.00000000E-01  1.50000000E+00  8.00000000E-01
  8.00000000E-01  1.50000000E+00  8.00000000E-01  8.00000000E-01  1.50000000E+00
  8.00000000E-01  8.00000000E-01  1.50000000E+00  8.00000000E-01  8.00000000E-01
  1.50000000E+00  8.00000000E-01  8.00000000E-01  1.50000000E+00  8.00000000E-01
  8.00000000E-01  1.50000000E+00  8.00000000E-01  8.00000000E-01  1.50000000E+00
  8.00000000E-01  8.00000000E-01  1.50000000E+00  8.00000000E-01  8.00000000E-01
  1.50000000E+00  8.00000000E-01  8.00000000E-01  1.50000000E+00  8.00000000E-01
  8.00000000E-01  1.50000000E+00  8.00000000E-01  8.00000000E-01  1.50000000E+00
  8.00000000E-01  8.00000000E-01  1.50000000E+00  8.00000000E-01  8.00000000E-01
  1.50000000E+00  8.00000000E-01  8.00000000E-01  1.50000000E+00  8.00000000E-01
  8.00000000E-01  1.50000000E+00  8.00000000E-01  8.00000000E-01  1.50000000E+00
  8.00000000E-01  8.00000000E-01  1.50000000E+00  8.00000000E-01  8.00000000E-01
  1.50000000E+00  8.00000000E-01  8.00000000E-01  1.50000000E+00  8.00000000E-01
  8.00000000E-01  1.50000000E+00  8.00000000E-01  8.00000000E-01  1.50000000E+00
  8.00000000E-01  8.00000000E-01  1.50000000E+00  8.00000000E-01  8.00000000E-01
  1.50000000E+00  8.00000000E-01  8.00000000E-01  1.50000000E+00  8.00000000E-01
  8.00000000E-01  1.50000000E+00  8.00000000E-01  8.00000000E-01  1.50000000E+00
  8.00000000E-01  8.00000000E-01  1.50000000E+00  8.00000000E-01  8.00000000E-01
  1.50000000E+00  8.00000000E-01  8.00000000E-01  1.50000000E+00  8.00000000E-01
  8.00000000E-01  1.50000000E+00  8.00000000E-01  8.00000000E-01  1.50000000E+00
  8.00000000E-01  8.00000000E-01  1.50000000E+00  8.00000000E-01  8.00000000E-01
  1.50000000E+00  8.00000000E-01  8.00000000E-01  1.50000000E+00  8.00000000E-01
  8.00000000E-01  1.50000000E+00  8.00000000E-01  8.00000000E-01  1.50000000E+00
  8.00000000E-01  8.00000000E-01  1.50000000E+00  8.00000000E-01  8.00000000E-01
  1.50000000E+00  8.00000000E-01  8.00000000E-01  1.50000000E+00  8.00000000E-01
  8.00000000E-01  1.50000000E+00  8.00000000E-01  8.00000000E-01  1.50000000E+00
  8.00000000E-01  8.00000000E-01  1.50000000E+00  8.00000000E-01  8.00000000E-01
  1.50000000E+00  8.00000000E-01  8.00000000E-01  1.50000000E+00  8.00000000E-01
  8.00000000E-01  1.50000000E+00  8.00000000E-01  8.00000000E-01  1.50000000E+00
  8.00000000E-01  8.00000000E-01  1.50000000E+00  8.00000000E-01  8.00000000E-01
  1.50000000E+00  8.00000000E-01  8.00000000E-01  1.50000000E+00  8.00000000E-01
  8.00000000E-01  1.50000000E+00  8.00000000E-01  8.00000000E-01  1.50000000E+00
  8.00000000E-01  8.00000000E-01  1.50000000E+00  8.00000000E-01  8.00000000E-01
  1.50000000E+00  8.00000000E-01  8.00000000E-01  1.50000000E+00  8.00000000E-01
  8.00000000E-01  1.50000000E+00  8.00000000E-01  8.00000000E-01  1.50000000E+00
  8.00000000E-01  8.00000000E-01  1.50000000E+00  8.00000000E-01  8.00000000E-01
  1.50000000E+00  8.00000000E-01  8.00000000E-01  1.50000000E+00  8.00000000E-01
  8.00000000E-01  1.50000000E+00  8.00000000E-01  8.00000000E-01  1.50000000E+00
  8.00000000E-01  8.00000000E-01  1.50000000E+00  8.00000000E-01  8.00000000E-01
  1.50000000E+00  8.00000000E-01  8.00000000E-01  1.50000000E+00  8.00000000E-01
  8.00000000E-01  1.50000000E+00  8.00000000E-01  8.00000000E-01  1.50000000E+00
  8.00000000E-01  8.00000000E-01  1.50000000E+00  8.00000000E-01  8.00000000E-01
  1.50000000E+00  8.00000000E-01  8.00000000E-01  1.50000000E+00  8.00000000E-01
  8.00000000E-01  1.50000000E+00  8.00000000E-01  8.00000000E-01  1.50000000E+00
  8.00000000E-01  8.00000000E-01  1.50000000E+00  8.00000000E-01  8.00000000E-01
  1.50000000E+00  8.00000000E-01  8.00000000E-01  1.50000000E+00  8.00000000E-01
  8.00000000E-01  1.50000000E+00  8.00000000E-01  8.00000000E-01  1.50000000E+00
  8.00000000E-01  8.00000000E-01  1.50000000E+00  8.00000000E-01  8.00000000E-01
  1.50000000E+00  8.00000000E-01  8.00000000E-01  1.50000000E+00  8.00000000E-01
  8.00000000E-01  1.50000000E+00  8.00000000E-01  8.00000000E-01  1.50000000E+00
  8.00000000E-01  8.00000000E-01  1.50000000E+00  8.00000000E-01  8.00000000E-01
  1.50000000E+00  8.00000000E-01  8.00000000E-01  1.50000000E+00  8.00000000E-01
  8.00000000E-01  1.50000000E+00  8.00000000E-01  8.00000000E-01  1.50000000E+00
  8.00000000E-01  8.00000000E-01  1.50000000E+00  8.00000000E-01  8.00000000E-01
  1.50000000E+00  8.00000000E-01  8.00000000E-01  1.50000000E+00  8.00000000E-01
  8.00000000E-01  1.50000000E+00  8.00000000E-01  8.00000000E-01  1.50000000E+00
  8.00000000E-01  8.00000000E-01  1.50000000E+00  8.00000000E-01  8.00000000E-01
  1.50000000E+00  8.00000000E-01  8.00000000E-01  1.50000000E+00  8.00000000E-01
  8.00000000E-01  1.50000000E+00  8.00000000E-01  8.00000000E-01  1.50000000E+00
  8.00000000E-01  8.00000000E-01  1.50000000E+00  8.00000000E-01  8.00000000E-01
  1.50000000E+00  8.00000000E-01  8.00000000E-01  1.50000000E+00  8.00000000E-01
  8.00000000E-01  1.50000000E+00  8.00000000E-01  8.00000000E-01  1.50000000E+00
  8.00000000E-01  8.00000000E-01  1.50000000E+00  8.00000000E-01  8.00000000E-01
  1.50000000E+00  8.00000000E-01  8.00000000E-01  1.50000000E+00  8.00000000E-01
  8.00000000E-01  1.50000000E+00  8.00000000E-01  8.00000000E-01  1.50000000E+00
  8.00000000E-01  8.00000000E-01  1.50000000E+00  8.00000000E-01  8.00000000E-01
  1.50000000E+00  8.00000000E-01  8.00000000E-01  1.50000000E+00  8.00000000E-01
  8.00000000E-01  1.50000000E+00  8.00000000E-01  8.00000000E-01  1.50000000E+00
  8.00000000E-01  8.00000000E-01  1.50000000E+00  8.00000000E-01  8.00000000E-01
  1.50000000E+00  8.00000000E-01  8.00000000E-01  1.50000000E+00  8.00000000E-01
  8.00000000E-01  1.50000000E+00  8.00000000E-01  8.00000000E-01  1.50000000E+00
  8.00000000E-01  8.00000000E-01  1.50000000E+00  8.00000000E-01  8.00000000E-01
  1.50000000E+00  8.00000000E-01  8.00000000E-01  1.50000000E+00  8.00000000E-01
  8.00000000E-01  1.50000000E+00  8.00000000E-01  8.00000000E-01  1.50000000E+00
  8.00000000E-01  8.00000000E-01  1.50000000E+00  8.00000000E-01  8.00000000E-01
  1.50000000E+00  8.00000000E-01  8.00000000E-01  1.50000000E+00  8.00000000E-01
  8.00000000E-01  1.50000000E+00  8.00000000E-01  8.00000000E-01  1.50000000E+00
  8.00000000E-01  8.00000000E-01  1.50000000E+00  8.00000000E-01  8.00000000E-01
  1.50000000E+00  8.00000000E-01  8.00000000E-01  1.50000000E+00  8.00000000E-01
  8.00000000E-01  1.50000000E+00  8.00000000E-01  8.00000000E-01  1.50000000E+00
  8.00000000E-01  8.00000000E-01  1.50000000E+00  8.00000000E-01  8.00000000E-01
  1.50000000E+00  8.00000000E-01  8.00000000E-01  1.50000000E+00  8.00000000E-01
  8.00000000E-01  1.50000000E+00  8.00000000E-01  8.00000000E-01  1.50000000E+00
  8.00000000E-01  8.00000000E-01  1.50000000E+00  8.00000000E-01  8.00000000E-01
  1.50000000E+00  8.00000000E-01  8.00000000E-01  1.50000000E+00  8.00000000E-01
  8.00000000E-01  1.50000000E+00  8.00000000E-01  8.00000000E-01  1.50000000E+00
  8.00000000E-01  8.00000000E-01  1.50000000E+00  8.00000000E-01  8.00000000E-01
  1.50000000E+00  8.00000000E-01  8.00000000E-01  1.50000000E+00  8.00000000E-01
  8.00000000E-01  1.50000000E+00  8.00000000E-01  8.00000000E-01  1.50000000E+00
  8.00000000E-01  8.00000000E-01  1.50000000E+00  8.00000000E-01  8.00000000E-01
  1.50000000E+00  8.00000000E-01  8.00000000E-01  1.50000000E+00  8.00000000E-01
  8.00000000E-01  1.50000000E+00  8.00000000E-01  8.00000000E-01  1.50000000E+00
  8.00000000E-01  8.00000000E-01  1.50000000E+00  8.00000000E-01  8.00000000E-01
  1.50000000E+00  8.00000000E-01  8.00000000E-01  1.50000000E+00  8.00000000E-01
  8.00000000E-01  1.50000000E+00  8.00000000E-01  8.00000000E-01  1.50000000E+00
  8.00000000E-01  8.00000000E-01  1.50000000E+00  8.00000000E-01  8.00000000E-01
  1.50000000E+00  8.00000000E-01  8.00000000E-01  1.50000000E+00  8.00000000E-01
  8.00000000E-01  1.50000000E+00  8.00000000E-01  8.00000000E-01  1.50000000E+00
  8.00000000E-01  8.00000000E-01  1.50000000E+00  8.00000000E-01  8.00000000E-01
  1.50000000E+00  8.00000000E-01  8.00000000E-01  1.50000000E+00  8.00000000E-01
  8.00000000E-01  1.50000000E+00  8.00000000E-01  8.00000000E-01  1.50000000E+00
  8.00000000E-01  8.00000000E-01  1.50000000E+00  8.00000000E-01  8.00000000E-01
  1.50000000E+00  8.00000000E-01  8.00000000E-01  1.50000000E+00  8.00000000E-01
  8.00000000E-01  1.50000000E+00  8.00000000E-01  8.00000000E-01  1.50000000E+00
  8.00000000E-01  8.00000000E-01  1.50000000E+00  8.00000000E-01  8.00000000E-01
  1.50000000E+00  8.00000000E-01  8.00000000E-01  1.50000000E+00  8.00000000E-01
  8.00000000E-01  1.50000000E+00  8.00000000E-01  8.00000000E-01  1.50000000E+00
  8.00000000E-01  8.00000000E-01  1.50000000E+00  8.00000000E-01  8.00000000E-01
  1.50000000E+00  8.00000000E-01  8.00000000E-01  1.50000000E+00  8.00000000E-01
  8.00000000E-01  1.50000000E+00  8.00000000E-01  8.00000000E-01  1.50000000E+00
  8.00000000E-01  8.00000000E-01  1.50000000E+00  8.00000000E-01  8.00000000E-01
  1.50000000E+00  8.00000000E-01  8.00000000E-01  1.50000000E+00  8.00000000E-01
  8.00000000E-01  1.50000000E+00  8.00000000E-01  8.00000000E-01  1.50000000E+00
  8.00000000E-01  8.00000000E-01  1.50000000E+00  8.00000000E-01  8.00000000E-01
  1.50000000E+00  8.00000000E-01  8.00000000E-01  1.50000000E+00  8.00000000E-01
  8.00000000E-01  1.50000000E+00  8.00000000E-01  8.00000000E-01  1.50000000E+00
  8.00000000E-01  8.00000000E-01  1.50000000E+00  8.00000000E-01  8.00000000E-01
  1.50000000E+00  8.00000000E-01  8.00000000E-01  1.50000000E+00  8.00000000E-01
  8.00000000E-01  1.50000000E+00  8.00000000E-01  8.00000000E-01  1.50000000E+00
  8.00000000E-01  8.00000000E-01  1.50000000E+00  8.00000000E-01  8.00000000E-01
  1.50000000E+00  8.00000000E-01  8.00000000E-01  1.50000000E+00  8.00000000E-01
  8.00000000E-01  1.50000000E+00  8.00000000E-01  8.00000000E-01  1.50000000E+00
  8.00000000E-01  8.00000000E-01  1.50000000E+00  8.00000000E-01  8.00000000E-01
  1.50000000E+00  8.00000000E-01  8.00000000E-01  1.50000000E+00  8.00000000E-01
  8.00000000E-01  1.50000000E+00  8.00000000E-01  8.00000000E-01  1.50000000E+00
  8.00000000E-01  8.00000000E-01  1.50000000E+00  8.00000000E-01  8.00000000E-01
  1.50000000E+00  8.00000000E-01  8.00000000E-01  1.50000000E+00  8.00000000E-01
  8.00000000E-01  1.50000000E+00  8.00000000E-01  8.00000000E-01  1.50000000E+00
  8.00000000E-01  8.00000000E-01  1.50000000E+00  8.00000000E-01  8.00000000E-01
  1.50000000E+00  8.00000000E-01  8.00000000E-01  1.50000000E+00  8.00000000E-01
  8.00000000E-01  1.50000000E+00  8.00000000E-01  8.00000000E-01  1.50000000E+00
  8.00000000E-01  8.00000000E-01  1.50000000E+00  8.00000000E-01  8.00000000E-01
  1.50000000E+00  8.00000000E-01  8.00000000E-01  1.50000000E+00  8.00000000E-01
  8.00000000E-01  1.50000000E+00  8.00000000E-01  8.00000000E-01  1.50000000E+00
  8.00000000E-01  8.00000000E-01  1.50000000E+00  8.00000000E-01  8.00000000E-01
  1.50000000E+00  8.00000000E-01  8.00000000E-01  1.50000000E+00  8.00000000E-01
  8.00000000E-01  1.50000000E+00  8.00000000E-01  8.00000000E-01  1.50000000E+00
  8.00000000E-01  8.00000000E-01  1.50000000E+00  8.00000000E-01  8.00000000E-01
  1.50000000E+00  8.00000000E-01  8.00000000E-01  1.50000000E+00  8.00000000E-01
  8.00000000E-01  1.50000000E+00  8.00000000E-01  8.00000000E-01  1.50000000E+00
  8.00000000E-01  8.00000000E-01  1.50000000E+00  8.00000000E-01  8.00000000E-01
  1.50000000E+00  8.00000000E-01  8.00000000E-01  1.50000000E+00  8.00000000E-01
  8.00000000E-01  1.50000000E+00  8.00000000E-01  8.00000000E-01  1.50000000E+00
  8.00000000E-01  8.00000000E-01  1.50000000E+00  8.00000000E-01  8.00000000E-01
  1.50000000E+00  8.00000000E-01  8.00000000E-01  1.50000000E+00  8.00000000E-01
  8.00000000E-01  1.50000000E+00  8.00000000E-01  8.00000000E-01  1.50000000E+00
  8.00000000E-01  8.00000000E-01  1.50000000E+00  8.00000000E-01  8.00000000E-01
  1.50000000E+00  8.00000000E-01  8.00000000E-01  1.50000000E+00  8.00000000E-01
  8.00000000E-01  1.50000000E+00  8.00000000E-01  8.00000000E-01  1.50000000E+00
  8.00000000E-01  8.00000000E-01  1.50000000E+00  8.00000000E-01  8.00000000E-01
  1.50000000E+00  8.00000000E-01  8.00000000E-01  1.50000000E+00  8.00000000E-01
  8.00000000E-01  1.50000000E+00  8.00000000E-01  8.00000000E-01  1.50000000E+00
  8.00000000E-01  8.00000000E-01  1.50000000E+00  8.00000000E-01  8.00000000E-01
  1.50000000E+00  8.00000000E-01  8.00000000E-01  1.50000000E+00  8.00000000E-01
  8.00000000E-01  1.50000000E+00  8.00000000E-01  8.00000000E-01  1.50000000E+00
  8.00000000E-01  8.00000000E-01  1.50000000E+00  8.00000000E-01  8.00000000E-01
  1.50000000E+00  8.00000000E-01  8.00000000E-01  1.50000000E+00  8.00000000E-01
  8.00000000E-01  1.50000000E+00  8.00000000E-01  8.00000000E-01  1.50000000E+00
  8.00000000E-01  8.00000000E-01  1.50000000E+00  8.00000000E-01  8.00000000E-01
  1.50000000E+00  8.00000000E-01  8.00000000E-01  1.50000000E+00  8.00000000E-01
  8.00000000E-01  1.50000000E+00  8.00000000E-01  8.00000000E-01  1.50000000E+00
  8.00000000E-01  8.00000000E-01  1.50000000E+00  8.00000000E-01  8.00000000E-01
  1.50000000E+00  8.00000000E-01  8.00000000E-01  1.50000000E+00  8.00000000E-01
  8.00000000E-01  1.50000000E+00  8.00000000E-01  8.00000000E-01  1.50000000E+00
  8.00000000E-01  8.00000000E-01  1.50000000E+00  8.00000000E-01  8.00000000E-01
  1.50000000E+00  8.00000000E-01  8.00000000E-01  1.50000000E+00  8.00000000E-01
  8.00000000E-01  1.50000000E+00  8.00000000E-01  8.00000000E-01  1.50000000E+00
  8.00000000E-01  8.00000000E-01  1.50000000E+00  8.00000000E-01  8.00000000E-01
  1.50000000E+00  8.00000000E-01  8.00000000E-01  1.50000000E+00  8.00000000E-01
  8.00000000E-01  1.50000000E+00  8.00000000E-01  8.00000000E-01  1.50000000E+00
  8.00000000E-01  8.00000000E-01  1.50000000E+00  8.00000000E-01  8.00000000E-01
  1.50000000E+00  8.00000000E-01  8.00000000E-01  1.50000000E+00  8.00000000E-01
  8.00000000E-01  1.50000000E+00  8.00000000E-01  8.00000000E-01  1.50000000E+00
  8.00000000E-01  8.00000000E-01  1.50000000E+00  8.00000000E-01  8.00000000E-01
  1.50000000E+00  8.00000000E-01  8.00000000E-01  1.50000000E+00  8.00000000E-01
  8.00000000E-01  1.50000000E+00  8.00000000E-01  8.00000000E-01  1.50000000E+00
  8.00000000E-01  8.00000000E-01  1.50000000E+00  8.00000000E-01  8.00000000E-01
  1.50000000E+00  8.00000000E-01  8.00000000E-01  1.50000000E+00  8.00000000E-01
  8.00000000E-01  1.50000000E+00  8.00000000E-01  8.00000000E-01  1.50000000E+00
  8.00000000E-01  8.00000000E-01  1.50000000E+00  8.00000000E-01  8.00000000E-01
  1.50000000E+00  8.00000000E-01  8.00000000E-01  1.50000000E+00  8.00000000E-01
  8.00000000E-01  1.50000000E+00  8.00000000E-01  8.00000000E-01  1.50000000E+00
  8.00000000E-01  8.00000000E-01  1.50000000E+00  8.00000000E-01  8.00000000E-01
  1.50000000E+00  8.00000000E-01  8.00000000E-01  1.50000000E+00  8.00000000E-01
  8.00000000E-01  1.50000000E+00  8.00000000E-01  8.00000000E-01  1.50000000E+00
  8.00000000E-01  8.00000000E-01  1.50000000E+00  8.00000000E-01  8.00000000E-01
  1.50000000E+00  8.00000000E-01  8.00000000E-01  1.50000000E+00  8.00000000E-01
  8.00000000E-01  1.50000000E+00  8.00000000E-01  8.00000000E-01  1.50000000E+00
  8.00000000E-01  8.00000000E-01  1.50000000E+00  8.00000000E-01  8.00000000E-01
  1.50000000E+00  8.00000000E-01  8.00000000E-01  1.50000000E+00  8.00000000E-01
  8.00000000E-01  1.50000000E+00  8.00000000E-01  8.00000000E-01  1.50000000E+00
  8.00000000E-01  8.00000000E-01  1.50000000E+00  8.00000000E-01  8.00000000E-01
  1.50000000E+00  8.00000000E-01  8.00000000E-01  1.50000000E+00  8.00000000E-01
  8.00000000E-01  1.50000000E+00  8.00000000E-01  8.00000000E-01  1.50000000E+00
  8.00000000E-01  8.00000000E-01  1.50000000E+00  8.00000000E-01  8.00000000E-01
  1.50000000E+00  8.00000000E-01  8.00000000E-01  1.50000000E+00  8.00000000E-01
  8.00000000E-01  1.50000000E+00  8.00000000E-01  8.00000000E-01  1.50000000E+00
  8.00000000E-01  8.00000000E-01  1.50000000E+00  8.00000000E-01  8.00000000E-01
  1.50000000E+00  8.00000000E-01  8.00000000E-01  1.50000000E+00  8.00000000E-01
  8.00000000E-01  1.50000000E+00  8.00000000E-01  8.00000000E-01  1.50000000E+00
  8.00000000E-01  8.00000000E-01  1.50000000E+00  8.00000000E-01  8.00000000E-01
  1.50000000E+00  8.00000000E-01  8.00000000E-01  1.50000000E+00  8.00000000E-01
  8.00000000E-01  1.50000000E+00  8.00000000E-01  8.00000000E-01  1.50000000E+00
  8.00000000E-01  8.00000000E-01  1.50000000E+00  8.00000000E-01  8.00000000E-01
  1.50000000E+00  8.00000000E-01  8.00000000E-01  1.50000000E+00  8.00000000E-01
  8.00000000E-01  1.50000000E+00  8.00000000E-01  8.00000000E-01  1.50000000E+00
  8.00000000E-01  8.00000000E-01  1.50000000E+00  8.00000000E-01  8.00000000E-01
  1.50000000E+00  8.00000000E-01  8.00000000E-01  1.50000000E+00  8.00000000E-01
  8.00000000E-01  1.50000000E+00  8.00000000E-01  8.00000000E-01  1.50000000E+00
  8.00000000E-01  8.00000000E-01  1.50000000E+00  8.00000000E-01  8.00000000E-01
  1.50000000E+00  8.00000000E-01  8.00000000E-01  1.50000000E+00  8.00000000E-01
  8.00000000E-01  1.50000000E+00  8.00000000E-01  8.00000000E-01  1.50000000E+00
  8.00000000E-01  8.00000000E-01  1.50000000E+00  8.00000000E-01  8.00000000E-01
  1.50000000E+00  8.00000000E-01  8.00000000E-01  1.50000000E+00  8.00000000E-01
  8.00000000E-01  1.50000000E+00  8.00000000E-01  8.00000000E-01  1.50000000E+00
  8.00000000E-01  8.00000000E-01  1.50000000E+00  8.00000000E-01  8.00000000E-01
  1.50000000E+00  8.00000000E-01  8.00000000E-01  1.50000000E+00  8.00000000E-01
  8.00000000E-01  1.50000000E+00  8.00000000E-01  8.00000000E-01  1.50000000E+00
  8.00000000E-01  8.00000000E-01  1.50000000E+00  8.00000000E-01  8.00000000E-01
  1.50000000E+00  8.00000000E-01  8.00000000E-01  1.50000000E+00  8.00000000E-01
  8.00000000E-01  1.50000000E+00  8.00000000E-01  8.00000000E-01  1.50000000E+00
  8.00000000E-01  8.00000000E-01  1.50000000E+00  8.00000000E-01  8.00000000E-01
  1.50000000E+00  8.00000000E-01  8.00000000E-01  1.50000000E+00  8.00000000E-01
  8.00000000E-01  1.50000000E+00  8.00000000E-01  8.00000000E-01  1.50000000E+00
  8.00000000E-01  8.00000000E-01  1.50000000E+00  8.00000000E-01  8.00000000E-01
  1.50000000E+00  8.00000000E-01  8.00000000E-01  1.50000000E+00  8.00000000E-01
  8.00000000E-01  1.50000000E+00  8.00000000E-01  8.00000000E-01  1.50000000E+00
  8.00000000E-01  8.00000000E-01  1.50000000E+00  8.00000000E-01  8.00000000E-01
  1.50000000E+00  8.00000000E-01  8.00000000E-01  1.50000000E+00  8.00000000E-01
  8.00000000E-01  1.50000000E+00  8.00000000E-01  8.00000000E-01  1.50000000E+00
  8.00000000E-01  8.00000000E-01  1.50000000E+00  8.00000000E-01  8.00000000E-01
  1.50000000E+00  8.00000000E-01  8.00000000E-01  1.50000000E+00  8.00000000E-01
  8.00000000E-01  1.50000000E+00  8.00000000E-01  8.00000000E-01  1.50000000E+00
  8.00000000E-01  8.00000000E-01  1.50000000E+00  8.00000000E-01  8.00000000E-01
  1.50000000E+00  8.00000000E-01  8.00000000E-01  1.50000000E+00  8.00000000E-01
  8.00000000E-01  1.50000000E+00  8.00000000E-01  8.00000000E-01  1.50000000E+00
  8.00000000E-01  8.00000000E-01  1.50000000E+00  8.00000000E-01  8.00000000E-01
  1.50000000E+00  8.00000000E-01  8.00000000E-01  1.50000000E+00  8.00000000E-01
  8.00000000E-01  1.50000000E+00  8.00000000E-01  8.00000000E-01  1.50000000E+00
  8.00000000E-01  8.00000000E-01  1.50000000E+00  8.00000000E-01  8.00000000E-01
  1.50000000E+00  8.00000000E-01  8.00000000E-01  1.50000000E+00  8.00000000E-01
  8.00000000E-01  1.50000000E+00  8.00000000E-01  8.00000000E-01  1.50000000E+00
  8.00000000E-01  8.00000000E-01  1.50000000E+00  8.00000000E-01  8.00000000E-01
  1.50000000E+00  8.00000000E-01  8.00000000E-01  1.50000000E+00  8.00000000E-01
  8.00000000E-01  1.50000000E+00  8.00000000E-01  8.00000000E-01  1.50000000E+00
  8.00000000E-01  8.00000000E-01  1.50000000E+00  8.00000000E-01  8.00000000E-01
  1.50000000E+00  8.00000000E-01  8.00000000E-01  1.50000000E+00  8.00000000E-01
  8.00000000E-01  1.50000000E+00  8.00000000E-01  8.00000000E-01  1.50000000E+00
  8.00000000E-01  8.00000000E-01  1.50000000E+00  8.00000000E-01  8.00000000E-01
  1.50000000E+00  8.00000000E-01  8.00000000E-01  1.50000000E+00  8.00000000E-01
  8.00000000E-01  1.50000000E+00  8.00000000E-01  8.00000000E-01  1.50000000E+00
  8.00000000E-01  8.00000000E-01  1.50000000E+00  8.00000000E-01  8.00000000E-01
  1.50000000E+00  8.00000000E-01  8.00000000E-01  1.50000000E+00  8.00000000E-01
  8.00000000E-01  1.50000000E+00  8.00000000E-01  8.00000000E-01  1.50000000E+00
  8.00000000E-01  8.00000000E-01  1.50000000E+00  8.00000000E-01  8.00000000E-01
  1.50000000E+00  8.00000000E-01  8.00000000E-01  1.50000000E+00  8.00000000E-01
  8.00000000E-01  1.50000000E+00  8.00000000E-01  8.00000000E-01  1.50000000E+00
  8.00000000E-01  8.00000000E-01  1.50000000E+00  8.00000000E-01  8.00000000E-01
  1.50000000E+00  8.00000000E-01  8.00000000E-01  1.50000000E+00  8.00000000E-01
  8.00000000E-01  1.50000000E+00  8.00000000E-01  8.00000000E-01  1.50000000E+00
  8.00000000E-01  8.00000000E-01  1.50000000E+00  8.00000000E-01  8.00000000E-01
  1.50000000E+00  8.00000000E-01  8.00000000E-01  1.50000000E+00  8.00000000E-01
  8.00000000E-01  1.50000000E+00  8.00000000E-01  8.00000000E-01  1.50000000E+00
  8.00000000E-01  8.00000000E-01  1.50000000E+00  8.00000000E-01  8.00000000E-01
  1.50000000E+00  8.00000000E-01  8.00000000E-01  1.50000000E+00  8.00000000E-01
  8.00000000E-01  1.50000000E+00  8.00000000E-01  8.00000000E-01  1.50000000E+00
  8.00000000E-01  8.00000000E-01  1.50000000E+00  8.00000000E-01  8.00000000E-01
  1.50000000E+00  8.00000000E-01  8.00000000E-01  1.50000000E+00  8.00000000E-01
  8.00000000E-01  1.50000000E+00  8.00000000E-01  8.00000000E-01  1.50000000E+00
  8.00000000E-01  8.00000000E-01  1.50000000E+00  8.00000000E-01  8.00000000E-01
  1.50000000E+00  8.00000000E-01  8.00000000E-01  1.50000000E+00  8.00000000E-01
  8.00000000E-01  1.50000000E+00  8.00000000E-01  8.00000000E-01  1.50000000E+00
  8.00000000E-01  8.00000000E-01  1.50000000E+00  8.00000000E-01  8.00000000E-01
  1.50000000E+00  8.00000000E-01  8.00000000E-01  1.50000000E+00  8.00000000E-01
  8.00000000E-01  1.50000000E+00  8.00000000E-01  8.00000000E-01  1.50000000E+00
  8.00000000E-01  8.00000000E-01  1.50000000E+00  8.00000000E-01  8.00000000E-01
  1.50000000E+00  8.00000000E-01  8.00000000E-01  1.50000000E+00  8.00000000E-01
  8.00000000E-01  1.50000000E+00  8.00000000E-01  8.00000000E-01  1.50000000E+00
  8.00000000E-01  8.00000000E-01  1.50000000E+00  8.00000000E-01  8.00000000E-01
  1.50000000E+00  8.00000000E-01  8.00000000E-01  1.50000000E+00  8.00000000E-01
  8.00000000E-01  1.50000000E+00  8.00000000E-01  8.00000000E-01  1.50000000E+00
  8.00000000E-01  8.00000000E-01  1.50000000E+00  8.00000000E-01  8.00000000E-01
  1.50000000E+00  8.00000000E-01  8.00000000E-01  1.50000000E+00  8.00000000E-01
  8.00000000E-01  1.50000000E+00  8.00000000E-01  8.00000000E-01  1.50000000E+00
  8.00000000E-01  8.00000000E-01  1.50000000E+00  8.00000000E-01  8.00000000E-01
  1.50000000E+00  8.00000000E-01  8.00000000E-01  1.50000000E+00  8.00000000E-01
  8.00000000E-01  1.50000000E+00  8.00000000E-01  8.00000000E-01  1.50000000E+00
  8.00000000E-01  8.00000000E-01  1.50000000E+00  8.00000000E-01  8.00000000E-01
  1.50000000E+00  8.00000000E-01  8.00000000E-01  1.50000000E+00  8.00000000E-01
  8.00000000E-01  1.50000000E+00  8.00000000E-01  8.00000000E-01  1.50000000E+00
  8.00000000E-01  8.00000000E-01  1.50000000E+00  8.00000000E-01  8.00000000E-01
  1.50000000E+00  8.00000000E-01  8.00000000E-01  1.50000000E+00  8.00000000E-01
  8.00000000E-01  1.50000000E+00  8.00000000E-01  8.00000000E-01  1.50000000E+00
  8.00000000E-01  8.00000000E-01  1.50000000E+00  8.00000000E-01  8.00000000E-01
  1.50000000E+00  8.00000000E-01  8.00000000E-01  1.50000000E+00  8.00000000E-01
  8.00000000E-01  1.50000000E+00  8.00000000E-01  8.00000000E-01  1.50000000E+00
  8.00000000E-01  8.00000000E-01  1.50000000E+00  8.00000000E-01  8.00000000E-01
  1.50000000E+00  8.00000000E-01  8.00000000E-01  1.50000000E+00  8.00000000E-01
  8.00000000E-01  1.50000000E+00  8.00000000E-01  8.00000000E-01  1.50000000E+00
  8.00000000E-01  8.00000000E-01  1.50000000E+00  8.00000000E-01  8.00000000E-01
  1.50000000E+00  8.00000000E-01  8.00000000E-01  1.50000000E+00  8.00000000E-01
  8.00000000E-01  1.50000000E+00  8.00000000E-01  8.00000000E-01  1.50000000E+00
  8.00000000E-01  8.00000000E-01  1.50000000E+00  8.00000000E-01  8.00000000E-01
  1.50000000E+00  8.00000000E-01  8.00000000E-01  1.50000000E+00  8.00000000E-01
  8.00000000E-01  1.50000000E+00  8.00000000E-01  8.00000000E-01  1.50000000E+00
  8.00000000E-01  8.00000000E-01  1.50000000E+00  8.00000000E-01  8.00000000E-01
  1.50000000E+00  8.00000000E-01  8.00000000E-01  1.50000000E+00  8.00000000E-01
  8.00000000E-01  1.50000000E+00  8.00000000E-01  8.00000000E-01  1.50000000E+00
  8.00000000E-01  8.00000000E-01  1.50000000E+00  8.00000000E-01  8.00000000E-01
  1.50000000E+00  8.00000000E-01  8.00000000E-01  1.50000000E+00  8.00000000E-01
  8.00000000E-01  1.50000000E+00  8.00000000E-01  8.00000000E-01  1.50000000E+00
  8.00000000E-01  8.00000000E-01  1.50000000E+00  8.00000000E-01  8.00000000E-01
  1.50000000E+00  8.00000000E-01  8.00000000E-01  1.50000000E+00  8.00000000E-01
  8.00000000E-01  1.50000000E+00  8.00000000E-01  8.00000000E-01  1.50000000E+00
  8.00000000E-01  8.00000000E-01  1.50000000E+00  8.00000000E-01  8.00000000E-01
  1.50000000E+00  8.00000000E-01  8.00000000E-01  1.50000000E+00  8.00000000E-01
  8.00000000E-01  1.50000000E+00  8.00000000E-01  8.00000000E-01  1.50000000E+00
  8.00000000E-01  8.00000000E-01  1.50000000E+00  8.00000000E-01  8.00000000E-01
  1.50000000E+00  8.00000000E-01  8.00000000E-01  1.50000000E+00  8.00000000E-01
  8.00000000E-01  1.50000000E+00  8.00000000E-01  8.00000000E-01  1.50000000E+00
  8.00000000E-01  8.00000000E-01  1.50000000E+00  8.00000000E-01  8.00000000E-01
  1.50000000E+00  8.00000000E-01  8.00000000E-01  1.50000000E+00  8.00000000E-01
  8.00000000E-01  1.50000000E+00  8.00000000E-01  8.00000000E-01  1.50000000E+00
  8.00000000E-01  8.00000000E-01  1.50000000E+00  8.00000000E-01  8.00000000E-01
  1.50000000E+00  8.00000000E-01  8.00000000E-01  1.50000000E+00  8.00000000E-01
  8.00000000E-01  1.50000000E+00  8.00000000E-01  8.00000000E-01  1.50000000E+00
  8.00000000E-01  8.00000000E-01  1.50000000E+00  8.00000000E-01  8.00000000E-01
  1.50000000E+00  8.00000000E-01  8.00000000E-01  1.50000000E+00  8.00000000E-01
  8.00000000E-01  1.50000000E+00  8.00000000E-01  8.00000000E-01  1.50000000E+00
  8.00000000E-01  8.00000000E-01  1.50000000E+00  8.00000000E-01  8.00000000E-01
  1.50000000E+00  8.00000000E-01  8.00000000E-01  1.50000000E+00  8.00000000E-01
  8.00000000E-01  1.50000000E+00  8.00000000E-01  8.00000000E-01  1.50000000E+00
  8.00000000E-01  8.00000000E-01  1.50000000E+00  8.00000000E-01  8.00000000E-01
  1.50000000E+00  8.00000000E-01  8.00000000E-01  1.50000000E+00  8.00000000E-01
  8.00000000E-01  1.50000000E+00  8.00000000E-01  8.00000000E-01  1.50000000E+00
  8.00000000E-01  8.00000000E-01  1.50000000E+00  8.00000000E-01  8.00000000E-01
  1.50000000E+00  8.00000000E-01  8.00000000E-01  1.50000000E+00  8.00000000E-01
  8.00000000E-01  1.50000000E+00  8.00000000E-01  8.00000000E-01  1.50000000E+00
  8.00000000E-01  8.00000000E-01  1.50000000E+00  8.00000000E-01  8.00000000E-01
  1.50000000E+00  8.00000000E-01  8.00000000E-01  1.50000000E+00  8.00000000E-01
  8.00000000E-01  1.50000000E+00  8.00000000E-01  8.00000000E-01  1.50000000E+00
  8.00000000E-01  8.00000000E-01  1.50000000E+00  8.00000000E-01  8.00000000E-01
  1.50000000E+00  8.00000000E-01  8.00000000E-01  1.50000000E+00  8.00000000E-01
  8.00000000E-01  1.50000000E+00  8.00000000E-01  8.00000000E-01  1.50000000E+00
  8.00000000E-01  8.00000000E-01  1.50000000E+00  8.00000000E-01  8.00000000E-01
  1.50000000E+00  8.00000000E-01  8.00000000E-01  1.50000000E+00  8.00000000E-01
  8.00000000E-01  1.50000000E+00  8.00000000E-01  8.00000000E-01  1.50000000E+00
  8.00000000E-01  8.00000000E-01  1.50000000E+00  8.00000000E-01  8.00000000E-01
  1.50000000E+00  8.00000000E-01  8.00000000E-01  1.50000000E+00  8.00000000E-01
  8.00000000E-01  1.50000000E+00  8.00000000E-01  8.00000000E-01  1.50000000E+00
  8.00000000E-01  8.00000000E-01  1.50000000E+00  8.00000000E-01  8.00000000E-01
  1.50000000E+00  8.00000000E-01  8.00000000E-01  1.50000000E+00  8.00000000E-01
  8.00000000E-01  1.50000000E+00  8.00000000E-01  8.00000000E-01  1.50000000E+00
  8.00000000E-01  8.00000000E-01  1.50000000E+00  8.00000000E-01  8.00000000E-01
  1.50000000E+00  8.00000000E-01  8.00000000E-01  1.50000000E+00  8.00000000E-01
  8.00000000E-01  1.50000000E+00  8.00000000E-01  8.00000000E-01  1.50000000E+00
  8.00000000E-01  8.00000000E-01  1.50000000E+00  8.00000000E-01  8.00000000E-01
  1.50000000E+00  8.00000000E-01  8.00000000E-01  1.50000000E+00  8.00000000E-01
  8.00000000E-01  1.50000000E+00  8.00000000E-01  8.00000000E-01  1.50000000E+00
  8.00000000E-01  8.00000000E-01  1.50000000E+00  8.00000000E-01  8.00000000E-01
  1.50000000E+00  8.00000000E-01  8.00000000E-01  1.50000000E+00  8.00000000E-01
  8.00000000E-01  1.50000000E+00  8.00000000E-01  8.00000000E-01  1.50000000E+00
  8.00000000E-01  8.00000000E-01  1.50000000E+00  8.00000000E-01  8.00000000E-01
  1.50000000E+00  8.00000000E-01  8.00000000E-01  1.50000000E+00  8.00000000E-01
  8.00000000E-01  1.50000000E+00  8.00000000E-01  8.00000000E-01  1.50000000E+00
  8.00000000E-01  8.00000000E-01  1.50000000E+00  8.00000000E-01  8.00000000E-01
  1.50000000E+00  8.00000000E-01  8.00000000E-01  1.50000000E+00  8.00000000E-01
  8.00000000E-01  1.50000000E+00  8.00000000E-01  8.00000000E-01  1.50000000E+00
  8.00000000E-01  8.00000000E-01  1.50000000E+00  8.00000000E-01  8.00000000E-01
  1.50000000E+00  8.00000000E-01  8.00000000E-01  1.50000000E+00  8.00000000E-01
  8.00000000E-01  1.50000000E+00  8.00000000E-01  8.00000000E-01  1.50000000E+00
  8.00000000E-01  8.00000000E-01  1.50000000E+00  8.00000000E-01  8.00000000E-01
  1.50000000E+00  8.00000000E-01  8.00000000E-01  1.50000000E+00  8.00000000E-01
  8.00000000E-01  1.50000000E+00  8.00000000E-01  8.00000000E-01  1.50000000E+00
  8.00000000E-01  8.00000000E-01  1.50000000E+00  8.00000000E-01  8.00000000E-01
  1.50000000E+00  8.00000000E-01  8.00000000E-01  1.50000000E+00  8.00000000E-01
  8.00000000E-01  1.50000000E+00  8.00000000E-01  8.00000000E-01  1.50000000E+00
  8.00000000E-01  8.00000000E-01  1.50000000E+00  8.00000000E-01  8.00000000E-01
  1.50000000E+00  8.00000000E-01  8.00000000E-01  1.50000000E+00  8.00000000E-01
  8.00000000E-01  1.50000000E+00  8.00000000E-01  8.00000000E-01  1.50000000E+00
  8.00000000E-01  8.00000000E-01  1.50000000E+00  8.00000000E-01  8.00000000E-01
  1.50000000E+00  8.00000000E-01  8.00000000E-01  1.50000000E+00  8.00000000E-01
  8.00000000E-01  1.50000000E+00  8.00000000E-01  8.00000000E-01  1.50000000E+00
  8.00000000E-01  8.00000000E-01  1.50000000E+00  8.00000000E-01  8.00000000E-01
  1.50000000E+00  8.00000000E-01  8.00000000E-01  1.50000000E+00  8.00000000E-01
  8.00000000E-01  1.50000000E+00  8.00000000E-01  8.00000000E-01  1.50000000E+00
  8.00000000E-01  8.00000000E-01  1.50000000E+00  8.00000000E-01  8.00000000E-01
  1.50000000E+00  8.00000000E-01  8.00000000E-01  1.50000000E+00  8.00000000E-01
  8.00000000E-01  1.50000000E+00  8.00000000E-01  8.00000000E-01  1.50000000E+00
  8.00000000E-01  8.00000000E-01  1.50000000E+00  8.00000000E-01  8.00000000E-01
  1.50000000E+00  8.00000000E-01  8.00000000E-01  1.50000000E+00  8.00000000E-01
  8.00000000E-01  1.50000000E+00  8.00000000E-01  8.00000000E-01  1.50000000E+00
  8.00000000E-01  8.00000000E-01  1.50000000E+00  8.00000000E-01  8.00000000E-01
  1.50000000E+00  8.00000000E-01  8.00000000E-01  1.50000000E+00  8.00000000E-01
  8.00000000E-01  1.50000000E+00  8.00000000E-01  8.00000000E-01  1.50000000E+00
  8.00000000E-01  8.00000000E-01  1.50000000E+00  8.00000000E-01  8.00000000E-01
  1.50000000E+00  8.00000000E-01  8.00000000E-01  1.50000000E+00  8.00000000E-01
  8.00000000E-01  1.50000000E+00  8.00000000E-01  8.00000000E-01  1.50000000E+00
  8.00000000E-01  8.00000000E-01  1.50000000E+00  8.00000000E-01  8.00000000E-01
  1.50000000E+00  8.00000000E-01  8.00000000E-01  1.50000000E+00  8.00000000E-01
  8.00000000E-01  1.50000000E+00  8.00000000E-01  8.00000000E-01  1.50000000E+00
  8.00000000E-01  8.00000000E-01  1.50000000E+00  8.00000000E-01  8.00000000E-01
  1.50000000E+00  8.00000000E-01  8.00000000E-01  1.50000000E+00  8.00000000E-01
  8.00000000E-01  1.50000000E+00  8.00000000E-01  8.00000000E-01  1.50000000E+00
  8.00000000E-01  8.00000000E-01  1.50000000E+00  8.00000000E-01  8.00000000E-01
  1.50000000E+00  8.00000000E-01  8.00000000E-01  1.50000000E+00  8.00000000E-01
  8.00000000E-01  1.50000000E+00  8.00000000E-01  8.00000000E-01  1.50000000E+00
  8.00000000E-01  8.00000000E-01  1.50000000E+00  8.00000000E-01  8.00000000E-01
  1.50000000E+00  8.00000000E-01  8.00000000E-01  1.50000000E+00  8.00000000E-01
  8.00000000E-01  1.50000000E+00  8.00000000E-01  8.00000000E-01  1.50000000E+00
  8.00000000E-01  8.00000000E-01  1.50000000E+00  8.00000000E-01  8.00000000E-01
  1.50000000E+00  8.00000000E-01  8.00000000E-01  1.50000000E+00  8.00000000E-01
  8.00000000E-01  1.50000000E+00  8.00000000E-01  8.00000000E-01  1.50000000E+00
  8.00000000E-01  8.00000000E-01  1.50000000E+00  8.00000000E-01  8.00000000E-01
  1.50000000E+00  8.00000000E-01  8.00000000E-01  1.50000000E+00  8.00000000E-01
  8.00000000E-01  1.50000000E+00  8.00000000E-01  8.00000000E-01  1.50000000E+00
  8.00000000E-01  8.00000000E-01  1.50000000E+00  8.00000000E-01  8.00000000E-01
  1.50000000E+00  8.00000000E-01  8.00000000E-01  1.50000000E+00  8.00000000E-01
  8.00000000E-01  1.50000000E+00  8.00000000E-01  8.00000000E-01  1.50000000E+00
  8.00000000E-01  8.00000000E-01  1.50000000E+00  8.00000000E-01  8.00000000E-01
  1.50000000E+00  8.00000000E-01  8.00000000E-01  1.50000000E+00  8.00000000E-01
  8.00000000E-01  1.50000000E+00  8.00000000E-01  8.00000000E-01  1.50000000E+00
  8.00000000E-01  8.00000000E-01  1.50000000E+00  8.00000000E-01  8.00000000E-01
  1.50000000E+00  8.00000000E-01  8.00000000E-01  1.50000000E+00  8.00000000E-01
  8.00000000E-01  1.50000000E+00  8.00000000E-01  8.00000000E-01  1.50000000E+00
  8.00000000E-01  8.00000000E-01  1.50000000E+00  8.00000000E-01  8.00000000E-01
  1.50000000E+00  8.00000000E-01  8.00000000E-01  1.50000000E+00  8.00000000E-01
  8.00000000E-01  1.50000000E+00  8.00000000E-01  8.00000000E-01  1.50000000E+00
  8.00000000E-01  8.00000000E-01  1.50000000E+00  8.00000000E-01  8.00000000E-01
  1.50000000E+00  8.00000000E-01  8.00000000E-01  1.50000000E+00  8.00000000E-01
  8.00000000E-01  1.50000000E+00  8.00000000E-01  8.00000000E-01  1.50000000E+00
  8.00000000E-01  8.00000000E-01  1.50000000E+00  8.00000000E-01  8.00000000E-01
  1.50000000E+00  8.00000000E-01  8.00000000E-01  1.50000000E+00  8.00000000E-01
  8.00000000E-01  1.50000000E+00  8.00000000E-01  8.00000000E-01  1.50000000E+00
  8.00000000E-01  8.00000000E-01  1.50000000E+00  8.00000000E-01  8.00000000E-01
  1.50000000E+00  8.00000000E-01  8.00000000E-01  1.50000000E+00  8.00000000E-01
  8.00000000E-01  1.50000000E+00  8.00000000E-01  8.00000000E-01  1.50000000E+00
  8.00000000E-01  8.00000000E-01  1.50000000E+00  8.00000000E-01  8.00000000E-01
  1.50000000E+00  8.00000000E-01  8.00000000E-01  1.50000000E+00  8.00000000E-01
  8.00000000E-01  1.50000000E+00  8.00000000E-01  8.00000000E-01  1.50000000E+00
  8.00000000E-01  8.00000000E-01  1.50000000E+00  8.00000000E-01  8.00000000E-01
  1.50000000E+00  8.00000000E-01  8.00000000E-01  1.50000000E+00  8.00000000E-01
  8.00000000E-01  1.50000000E+00  8.00000000E-01  8.00000000E-01  1.50000000E+00
  8.00000000E-01  8.00000000E-01  1.50000000E+00  8.00000000E-01  8.00000000E-01
  1.50000000E+00  8.00000000E-01  8.00000000E-01  1.50000000E+00  8.00000000E-01
  8.00000000E-01  1.50000000E+00  8.00000000E-01  8.00000000E-01  1.50000000E+00
  8.00000000E-01  8.00000000E-01  1.50000000E+00  8.00000000E-01  8.00000000E-01
  1.50000000E+00  8.00000000E-01  8.00000000E-01  1.50000000E+00  8.00000000E-01
  8.00000000E-01  1.50000000E+00  8.00000000E-01  8.00000000E-01  1.50000000E+00
  8.00000000E-01  8.00000000E-01  1.50000000E+00  8.00000000E-01  8.00000000E-01
  1.50000000E+00  8.00000000E-01  8.00000000E-01  1.50000000E+00  8.00000000E-01
  8.00000000E-01  1.50000000E+00  8.00000000E-01  8.00000000E-01  1.50000000E+00
  8.00000000E-01  8.00000000E-01  1.50000000E+00  8.00000000E-01  8.00000000E-01
  1.50000000E+00  8.00000000E-01  8.00000000E-01  1.50000000E+00  8.00000000E-01
  8.00000000E-01  1.50000000E+00  8.00000000E-01  8.00000000E-01  1.50000000E+00
  8.00000000E-01  8.00000000E-01  1.50000000E+00  8.00000000E-01  8.00000000E-01
  1.50000000E+00  8.00000000E-01  8.00000000E-01  1.50000000E+00  8.00000000E-01
  8.00000000E-01  1.50000000E+00  8.00000000E-01  8.00000000E-01  1.50000000E+00
  8.00000000E-01  8.00000000E-01  1.50000000E+00  8.00000000E-01  8.00000000E-01
  1.50000000E+00  8.00000000E-01  8.00000000E-01  1.50000000E+00  8.00000000E-01
  8.00000000E-01  1.50000000E+00  8.00000000E-01  8.00000000E-01  1.50000000E+00
  8.00000000E-01  8.00000000E-01  1.50000000E+00  8.00000000E-01  8.00000000E-01
  1.50000000E+00  8.00000000E-01  8.00000000E-01  1.50000000E+00  8.00000000E-01
  8.00000000E-01  1.50000000E+00  8.00000000E-01  8.00000000E-01  1.50000000E+00
  8.00000000E-01  8.00000000E-01  1.50000000E+00  8.00000000E-01  8.00000000E-01
  1.50000000E+00  8.00000000E-01  8.00000000E-01  1.50000000E+00  8.00000000E-01
  8.00000000E-01  1.50000000E+00  8.00000000E-01  8.00000000E-01  1.50000000E+00
  8.00000000E-01  8.00000000E-01  1.50000000E+00  8.00000000E-01  8.00000000E-01
  1.50000000E+00  8.00000000E-01  8.00000000E-01  1.50000000E+00  8.00000000E-01
  8.00000000E-01  1.50000000E+00  8.00000000E-01  8.00000000E-01  1.50000000E+00
  8.00000000E-01  8.00000000E-01  1.50000000E+00  8.00000000E-01  8.00000000E-01
  1.50000000E+00  8.00000000E-01  8.00000000E-01  1.50000000E+00  8.00000000E-01
  8.00000000E-01  1.50000000E+00  8.00000000E-01  8.00000000E-01  1.50000000E+00
  8.00000000E-01  8.00000000E-01  1.50000000E+00  8.00000000E-01  8.00000000E-01
  1.50000000E+00  8.00000000E-01  8.00000000E-01  1.50000000E+00  8.00000000E-01
  8.00000000E-01  1.50000000E+00  8.00000000E-01  8.00000000E-01  1.50000000E+00
  8.00000000E-01  8.00000000E-01  1.50000000E+00  8.00000000E-01  8.00000000E-01
  1.50000000E+00  8.00000000E-01  8.00000000E-01  1.50000000E+00  8.00000000E-01
  8.00000000E-01  1.50000000E+00  8.00000000E-01  8.00000000E-01  1.50000000E+00
  8.00000000E-01  8.00000000E-01  1.50000000E+00  8.00000000E-01  8.00000000E-01
  1.50000000E+00  8.00000000E-01  8.00000000E-01  1.50000000E+00  8.00000000E-01
  8.00000000E-01  1.50000000E+00  8.00000000E-01  8.00000000E-01  1.50000000E+00
  8.00000000E-01  8.00000000E-01  1.50000000E+00  8.00000000E-01  8.00000000E-01
  1.50000000E+00  8.00000000E-01  8.00000000E-01  1.50000000E+00  8.00000000E-01
  8.00000000E-01  1.50000000E+00  8.00000000E-01  8.00000000E-01  1.50000000E+00
  8.00000000E-01  8.00000000E-01  1.50000000E+00  8.00000000E-01  8.00000000E-01
  1.50000000E+00  8.00000000E-01  8.00000000E-01  1.50000000E+00  8.00000000E-01
  8.00000000E-01  1.50000000E+00  8.00000000E-01  8.00000000E-01  1.50000000E+00
  8.00000000E-01  8.00000000E-01  1.50000000E+00  8.00000000E-01  8.00000000E-01
  1.50000000E+00  8.00000000E-01  8.00000000E-01  1.50000000E+00  8.00000000E-01
  8.00000000E-01  1.50000000E+00  8.00000000E-01  8.00000000E-01  1.50000000E+00
  8.00000000E-01  8.00000000E-01  1.50000000E+00  8.00000000E-01  8.00000000E-01
  1.50000000E+00  8.00000000E-01  8.00000000E-01  1.50000000E+00  8.00000000E-01
  8.00000000E-01  1.50000000E+00  8.00000000E-01  8.00000000E-01  1.50000000E+00
  8.00000000E-01  8.00000000E-01  1.50000000E+00  8.00000000E-01  8.00000000E-01
  1.50000000E+00  8.00000000E-01  8.00000000E-01  1.50000000E+00  8.00000000E-01
  8.00000000E-01  1.50000000E+00  8.00000000E-01  8.00000000E-01  1.50000000E+00
  8.00000000E-01  8.00000000E-01  1.50000000E+00  8.00000000E-01  8.00000000E-01
  1.50000000E+00  8.00000000E-01  8.00000000E-01  1.50000000E+00  8.00000000E-01
  8.00000000E-01  1.50000000E+00  8.00000000E-01  8.00000000E-01  1.50000000E+00
  8.00000000E-01  8.00000000E-01  1.50000000E+00  8.00000000E-01  8.00000000E-01
  1.50000000E+00  8.00000000E-01  8.00000000E-01  1.50000000E+00  8.00000000E-01
  8.00000000E-01  1.50000000E+00  8.00000000E-01  8.00000000E-01  1.50000000E+00
  8.00000000E-01  8.00000000E-01  1.50000000E+00  8.00000000E-01  8.00000000E-01
  1.50000000E+00  8.00000000E-01  8.00000000E-01  1.50000000E+00  8.00000000E-01
  8.00000000E-01  1.50000000E+00  8.00000000E-01  8.00000000E-01  1.50000000E+00
  8.00000000E-01  8.00000000E-01  1.50000000E+00  8.00000000E-01  8.00000000E-01
  1.50000000E+00  8.00000000E-01  8.00000000E-01  1.50000000E+00  8.00000000E-01
  8.00000000E-01  1.50000000E+00  8.00000000E-01  8.00000000E-01  1.50000000E+00
  8.00000000E-01  8.00000000E-01  1.50000000E+00  8.00000000E-01  8.00000000E-01
  1.50000000E+00  8.00000000E-01  8.00000000E-01  1.50000000E+00  8.00000000E-01
  8.00000000E-01  1.50000000E+00  8.00000000E-01  8.00000000E-01  1.50000000E+00
  8.00000000E-01  8.00000000E-01  1.50000000E+00  8.00000000E-01  8.00000000E-01
  1.50000000E+00  8.00000000E-01  8.00000000E-01  1.50000000E+00  8.00000000E-01
  8.00000000E-01  1.50000000E+00  8.00000000E-01  8.00000000E-01  1.50000000E+00
  8.00000000E-01  8.00000000E-01  1.50000000E+00  8.00000000E-01  8.00000000E-01
  1.50000000E+00  8.00000000E-01  8.00000000E-01  1.50000000E+00  8.00000000E-01
  8.00000000E-01  1.50000000E+00  8.00000000E-01  8.00000000E-01  1.50000000E+00
  8.00000000E-01  8.00000000E-01  1.50000000E+00  8.00000000E-01  8.00000000E-01
  1.50000000E+00  8.00000000E-01  8.00000000E-01  1.50000000E+00  8.00000000E-01
  8.00000000E-01  1.50000000E+00  8.00000000E-01  8.00000000E-01  1.50000000E+00
  8.00000000E-01  8.00000000E-01  1.50000000E+00  8.00000000E-01  8.00000000E-01
  1.50000000E+00  8.00000000E-01  8.00000000E-01  1.50000000E+00  8.00000000E-01
  8.00000000E-01  1.50000000E+00  8.00000000E-01  8.00000000E-01  1.50000000E+00
  8.00000000E-01  8.00000000E-01  1.50000000E+00  8.00000000E-01  8.00000000E-01
  1.50000000E+00  8.00000000E-01  8.00000000E-01  1.50000000E+00  8.00000000E-01
  8.00000000E-01  1.50000000E+00  8.00000000E-01  8.00000000E-01  1.50000000E+00
  8.00000000E-01  8.00000000E-01  1.50000000E+00  8.00000000E-01  8.00000000E-01
  1.50000000E+00  8.00000000E-01  8.00000000E-01  1.50000000E+00  8.00000000E-01
  8.00000000E-01  1.50000000E+00  8.00000000E-01  8.00000000E-01  1.50000000E+00
  8.00000000E-01  8.00000000E-01  1.50000000E+00  8.00000000E-01  8.00000000E-01
  1.50000000E+00  8.00000000E-01  8.00000000E-01  1.50000000E+00  8.00000000E-01
  8.00000000E-01  1.50000000E+00  8.00000000E-01  8.00000000E-01  1.50000000E+00
  8.00000000E-01  8.00000000E-01  1.50000000E+00  8.00000000E-01  8.00000000E-01
  1.50000000E+00  8.00000000E-01  8.00000000E-01  1.50000000E+00  8.00000000E-01
  8.00000000E-01  1.50000000E+00  8.00000000E-01  8.00000000E-01  1.50000000E+00
  8.00000000E-01  8.00000000E-01  1.50000000E+00  8.00000000E-01  8.00000000E-01
  1.50000000E+00  8.00000000E-01  8.00000000E-01  1.50000000E+00  8.00000000E-01
  8.00000000E-01  1.50000000E+00  8.00000000E-01  8.00000000E-01  1.50000000E+00
  8.00000000E-01  8.00000000E-01  1.50000000E+00  8.00000000E-01  8.00000000E-01
  1.50000000E+00  8.00000000E-01  8.00000000E-01  1.50000000E+00  8.00000000E-01
  8.00000000E-01  1.50000000E+00  8.00000000E-01  8.00000000E-01  1.50000000E+00
  8.00000000E-01  8.00000000E-01  1.50000000E+00  8.00000000E-01  8.00000000E-01
  1.50000000E+00  8.00000000E-01  8.00000000E-01  1.50000000E+00  8.00000000E-01
  8.00000000E-01  1.50000000E+00  8.00000000E-01  8.00000000E-01  1.50000000E+00
  8.00000000E-01  8.00000000E-01  1.50000000E+00  8.00000000E-01  8.00000000E-01
  1.50000000E+00  8.00000000E-01  8.00000000E-01  1.50000000E+00  8.00000000E-01
  8.00000000E-01  1.50000000E+00  8.00000000E-01  8.00000000E-01  1.50000000E+00
  8.00000000E-01  8.00000000E-01  1.50000000E+00  8.00000000E-01  8.00000000E-01
  1.50000000E+00  8.00000000E-01  8.00000000E-01  1.50000000E+00  8.00000000E-01
  8.00000000E-01  1.50000000E+00  8.00000000E-01  8.00000000E-01  1.50000000E+00
  8.00000000E-01  8.00000000E-01  1.50000000E+00  8.00000000E-01  8.00000000E-01
  1.50000000E+00  8.00000000E-01  8.00000000E-01  1.50000000E+00  8.00000000E-01
  8.00000000E-01  1.50000000E+00  8.00000000E-01  8.00000000E-01  1.50000000E+00
  8.00000000E-01  8.00000000E-01  1.50000000E+00  8.00000000E-01  8.00000000E-01
  1.50000000E+00  8.00000000E-01  8.00000000E-01  1.50000000E+00  8.00000000E-01
  8.00000000E-01  1.50000000E+00  8.00000000E-01  8.00000000E-01  1.50000000E+00
  8.00000000E-01  8.00000000E-01  1.50000000E+00  8.00000000E-01  8.00000000E-01
  1.50000000E+00  8.00000000E-01  8.00000000E-01  1.50000000E+00  8.00000000E-01
  8.00000000E-01  1.50000000E+00  8.00000000E-01  8.00000000E-01  1.50000000E+00
  8.00000000E-01  8.00000000E-01  1.50000000E+00  8.00000000E-01  8.00000000E-01
  1.50000000E+00  8.00000000E-01  8.00000000E-01  1.50000000E+00  8.00000000E-01
  8.00000000E-01  1.50000000E+00  8.00000000E-01  8.00000000E-01  1.50000000E+00
  8.00000000E-01  8.00000000E-01  1.50000000E+00  8.00000000E-01  8.00000000E-01
  1.50000000E+00  8.00000000E-01  8.00000000E-01  1.50000000E+00  8.00000000E-01
  8.00000000E-01  1.50000000E+00  8.00000000E-01  8.00000000E-01  1.50000000E+00
  8.00000000E-01  8.00000000E-01  1.50000000E+00  8.00000000E-01  8.00000000E-01
  1.50000000E+00  8.00000000E-01  8.00000000E-01  1.50000000E+00  8.00000000E-01
  8.00000000E-01  1.50000000E+00  8.00000000E-01  8.00000000E-01  1.50000000E+00
  8.00000000E-01  8.00000000E-01  1.50000000E+00  8.00000000E-01  8.00000000E-01
  1.50000000E+00  8.00000000E-01  8.00000000E-01  1.50000000E+00  8.00000000E-01
  8.00000000E-01  1.50000000E+00  8.00000000E-01  8.00000000E-01  1.50000000E+00
  8.00000000E-01  8.00000000E-01  1.50000000E+00  8.00000000E-01  8.00000000E-01
  1.50000000E+00  8.00000000E-01  8.00000000E-01  1.50000000E+00  8.00000000E-01
  8.00000000E-01  1.50000000E+00  8.00000000E-01  8.00000000E-01  1.50000000E+00
  8.00000000E-01  8.00000000E-01  1.50000000E+00  8.00000000E-01  8.00000000E-01
  1.50000000E+00  8.00000000E-01  8.00000000E-01  1.50000000E+00  8.00000000E-01
  8.00000000E-01  1.50000000E+00  8.00000000E-01  8.00000000E-01  1.50000000E+00
  8.00000000E-01  8.00000000E-01  1.50000000E+00  8.00000000E-01  8.00000000E-01
  1.50000000E+00  8.00000000E-01  8.00000000E-01  1.50000000E+00  8.00000000E-01
  8.00000000E-01  1.50000000E+00  8.00000000E-01  8.00000000E-01  1.50000000E+00
  8.00000000E-01  8.00000000E-01  1.50000000E+00  8.00000000E-01  8.00000000E-01
  1.50000000E+00  8.00000000E-01  8.00000000E-01  1.50000000E+00  8.00000000E-01
  8.00000000E-01  1.50000000E+00  8.00000000E-01  8.00000000E-01  1.50000000E+00
  8.00000000E-01  8.00000000E-01  1.50000000E+00  8.00000000E-01  8.00000000E-01
  1.50000000E+00  8.00000000E-01  8.00000000E-01  1.50000000E+00  8.00000000E-01
  8.00000000E-01  1.50000000E+00  8.00000000E-01  8.00000000E-01  1.50000000E+00
  8.00000000E-01  8.00000000E-01  1.50000000E+00  8.00000000E-01  8.00000000E-01
  1.50000000E+00  8.00000000E-01  8.00000000E-01  1.50000000E+00  8.00000000E-01
  8.00000000E-01  1.50000000E+00  8.00000000E-01  8.00000000E-01  1.50000000E+00
  8.00000000E-01  8.00000000E-01  1.50000000E+00  8.00000000E-01  8.00000000E-01
  1.50000000E+00  8.00000000E-01  8.00000000E-01  1.50000000E+00  8.00000000E-01
  8.00000000E-01  1.50000000E+00  8.00000000E-01  8.00000000E-01  1.50000000E+00
  8.00000000E-01  8.00000000E-01  1.50000000E+00  8.00000000E-01  8.00000000E-01
  1.50000000E+00  8.00000000E-01  8.00000000E-01  1.50000000E+00  8.00000000E-01
  8.00000000E-01  1.50000000E+00  8.00000000E-01  8.00000000E-01  1.50000000E+00
  8.00000000E-01  8.00000000E-01  1.50000000E+00  8.00000000E-01  8.00000000E-01
  1.50000000E+00  8.00000000E-01  8.00000000E-01  1.50000000E+00  8.00000000E-01
  8.00000000E-01  1.50000000E+00  8.00000000E-01  8.00000000E-01  1.50000000E+00
  8.00000000E-01  8.00000000E-01  1.50000000E+00  8.00000000E-01  8.00000000E-01
  1.50000000E+00  8.00000000E-01  8.00000000E-01  1.50000000E+00  8.00000000E-01
  8.00000000E-01  1.50000000E+00  8.00000000E-01  8.00000000E-01  1.50000000E+00
  8.00000000E-01  8.00000000E-01  1.50000000E+00  8.00000000E-01  8.00000000E-01
  1.50000000E+00  8.00000000E-01  8.00000000E-01  1.50000000E+00  8.00000000E-01
  8.00000000E-01  1.50000000E+00  8.00000000E-01  8.00000000E-01  1.50000000E+00
  8.00000000E-01  8.00000000E-01  1.50000000E+00  8.00000000E-01  8.00000000E-01
  1.50000000E+00  8.00000000E-01  8.00000000E-01  1.50000000E+00  8.00000000E-01
  8.00000000E-01  1.50000000E+00  8.00000000E-01  8.00000000E-01  1.50000000E+00
  8.00000000E-01  8.00000000E-01  1.50000000E+00  8.00000000E-01  8.00000000E-01
  1.50000000E+00  8.00000000E-01  8.00000000E-01  1.50000000E+00  8.00000000E-01
  8.00000000E-01  1.50000000E+00  8.00000000E-01  8.00000000E-01  1.50000000E+00
  8.00000000E-01  8.00000000E-01  1.50000000E+00  8.00000000E-01  8.00000000E-01
  1.50000000E+00  8.00000000E-01  8.00000000E-01  1.50000000E+00  8.00000000E-01
  8.00000000E-01  1.50000000E+00  8.00000000E-01  8.00000000E-01  1.50000000E+00
  8.00000000E-01  8.00000000E-01  1.50000000E+00  8.00000000E-01  8.00000000E-01
  1.50000000E+00  8.00000000E-01  8.00000000E-01  1.50000000E+00  8.00000000E-01
  8.00000000E-01  1.50000000E+00  8.00000000E-01  8.00000000E-01  1.50000000E+00
  8.00000000E-01  8.00000000E-01  1.50000000E+00  8.00000000E-01  8.00000000E-01
  1.50000000E+00  8.00000000E-01  8.00000000E-01  1.50000000E+00  8.00000000E-01
  8.00000000E-01  1.50000000E+00  8.00000000E-01  8.00000000E-01  1.50000000E+00
  8.00000000E-01  8.00000000E-01  1.50000000E+00  8.00000000E-01  8.00000000E-01
  1.50000000E+00  8.00000000E-01  8.00000000E-01  1.50000000E+00  8.00000000E-01
  8.00000000E-01  1.50000000E+00  8.00000000E-01  8.00000000E-01  1.50000000E+00
  8.00000000E-01  8.00000000E-01  1.50000000E+00  8.00000000E-01  8.00000000E-01
  1.50000000E+00  8.00000000E-01  8.00000000E-01  1.50000000E+00  8.00000000E-01
  8.00000000E-01  1.50000000E+00  8.00000000E-01  8.00000000E-01  1.50000000E+00
  8.00000000E-01  8.00000000E-01  1.50000000E+00  8.00000000E-01  8.00000000E-01
  1.50000000E+00  8.00000000E-01  8.00000000E-01  1.50000000E+00  8.00000000E-01
  8.00000000E-01  1.50000000E+00  8.00000000E-01  8.00000000E-01  1.50000000E+00
  8.00000000E-01  8.00000000E-01  1.50000000E+00  8.00000000E-01  8.00000000E-01
  1.50000000E+00  8.00000000E-01  8.00000000E-01  1.50000000E+00  8.00000000E-01
  8.00000000E-01  1.50000000E+00  8.00000000E-01  8.00000000E-01  1.50000000E+00
  8.00000000E-01  8.00000000E-01  1.50000000E+00  8.00000000E-01  8.00000000E-01
  1.50000000E+00  8.00000000E-01  8.00000000E-01  1.50000000E+00  8.00000000E-01
  8.00000000E-01  1.50000000E+00  8.00000000E-01  8.00000000E-01  1.50000000E+00
  8.00000000E-01  8.00000000E-01  1.50000000E+00  8.00000000E-01  8.00000000E-01
  1.50000000E+00  8.00000000E-01  8.00000000E-01  1.50000000E+00  8.00000000E-01
  8.00000000E-01  1.50000000E+00  8.00000000E-01  8.00000000E-01  1.50000000E+00
  8.00000000E-01  8.00000000E-01  1.50000000E+00  8.00000000E-01  8.00000000E-01
  1.50000000E+00  8.00000000E-01  8.00000000E-01  1.50000000E+00  8.00000000E-01
  8.00000000E-01  1.50000000E+00  8.00000000E-01  8.00000000E-01  1.50000000E+00
  8.00000000E-01  8.00000000E-01  1.50000000E+00  8.00000000E-01  8.00000000E-01
  1.50000000E+00  8.00000000E-01  8.00000000E-01  1.50000000E+00  8.00000000E-01
  8.00000000E-01  1.50000000E+00  8.00000000E-01  8.00000000E-01  1.50000000E+00
  8.00000000E-01  8.00000000E-01  1.50000000E+00  8.00000000E-01  8.00000000E-01
  1.50000000E+00  8.00000000E-01  8.00000000E-01  1.50000000E+00  8.00000000E-01
  8.00000000E-01  1.50000000E+00  8.00000000E-01  8.00000000E-01  1.50000000E+00
  8.00000000E-01  8.00000000E-01  1.50000000E+00  8.00000000E-01  8.00000000E-01
  1.50000000E+00  8.00000000E-01  8.00000000E-01  1.50000000E+00  8.00000000E-01
  8.00000000E-01  1.50000000E+00  8.00000000E-01  8.00000000E-01  1.50000000E+00
  8.00000000E-01  8.00000000E-01  1.50000000E+00  8.00000000E-01  8.00000000E-01
  1.50000000E+00  8.00000000E-01  8.00000000E-01  1.50000000E+00  8.00000000E-01
  8.00000000E-01  1.50000000E+00  8.00000000E-01  8.00000000E-01  1.50000000E+00
  8.00000000E-01  8.00000000E-01  1.50000000E+00  8.00000000E-01  8.00000000E-01
  1.50000000E+00  8.00000000E-01  8.00000000E-01  1.50000000E+00  8.00000000E-01
  8.00000000E-01  1.50000000E+00  8.00000000E-01  8.00000000E-01  1.50000000E+00
  8.00000000E-01  8.00000000E-01  1.50000000E+00  8.00000000E-01  8.00000000E-01
  1.50000000E+00  8.00000000E-01  8.00000000E-01  1.50000000E+00  8.00000000E-01
  8.00000000E-01  1.50000000E+00  8.00000000E-01  8.00000000E-01  1.50000000E+00
  8.00000000E-01  8.00000000E-01  1.50000000E+00  8.00000000E-01  8.00000000E-01
  1.50000000E+00  8.00000000E-01  8.00000000E-01  1.50000000E+00  8.00000000E-01
  8.00000000E-01  1.50000000E+00  8.00000000E-01  8.00000000E-01  1.50000000E+00
  8.00000000E-01  8.00000000E-01  1.50000000E+00  8.00000000E-01  8.00000000E-01
  1.50000000E+00  8.00000000E-01  8.00000000E-01  1.50000000E+00  8.00000000E-01
  8.00000000E-01  1.50000000E+00  8.00000000E-01  8.00000000E-01  1.50000000E+00
  8.00000000E-01  8.00000000E-01  1.50000000E+00  8.00000000E-01  8.00000000E-01
  1.50000000E+00  8.00000000E-01  8.00000000E-01  1.50000000E+00  8.00000000E-01
  8.00000000E-01  1.50000000E+00  8.00000000E-01  8.00000000E-01  1.50000000E+00
  8.00000000E-01  8.00000000E-01  1.50000000E+00  8.00000000E-01  8.00000000E-01
  1.50000000E+00  8.00000000E-01  8.00000000E-01  1.50000000E+00  8.00000000E-01
  8.00000000E-01  1.50000000E+00  8.00000000E-01  8.00000000E-01  1.50000000E+00
  8.00000000E-01  8.00000000E-01  1.50000000E+00  8.00000000E-01  8.00000000E-01
  1.50000000E+00  8.00000000E-01  8.00000000E-01  1.50000000E+00  8.00000000E-01
  8.00000000E-01  1.50000000E+00  8.00000000E-01  8.00000000E-01  1.50000000E+00
  8.00000000E-01  8.00000000E-01  1.50000000E+00  8.00000000E-01  8.00000000E-01
  1.50000000E+00  8.00000000E-01  8.00000000E-01  1.50000000E+00  8.00000000E-01
  8.00000000E-01  1.50000000E+00  8.00000000E-01  8.00000000E-01  1.50000000E+00
  8.00000000E-01  8.00000000E-01  1.50000000E+00  8.00000000E-01  8.00000000E-01
  1.50000000E+00  8.00000000E-01  8.00000000E-01  1.50000000E+00  8.00000000E-01
  8.00000000E-01  1.50000000E+00  8.00000000E-01  8.00000000E-01  1.50000000E+00
  8.00000000E-01  8.00000000E-01  1.50000000E+00  8.00000000E-01  8.00000000E-01
  1.50000000E+00  8.00000000E-01  8.00000000E-01  1.50000000E+00  8.00000000E-01
  8.00000000E-01  1.50000000E+00  8.00000000E-01  8.00000000E-01  1.50000000E+00
  8.00000000E-01  8.00000000E-01  1.50000000E+00  8.00000000E-01  8.00000000E-01
  1.50000000E+00  8.00000000E-01  8.00000000E-01  1.50000000E+00  8.00000000E-01
  8.00000000E-01  1.50000000E+00  8.00000000E-01  8.00000000E-01  1.50000000E+00
  8.00000000E-01  8.00000000E-01  1.50000000E+00  8.00000000E-01  8.00000000E-01
  1.50000000E+00  8.00000000E-01  8.00000000E-01  1.50000000E+00  8.00000000E-01
  8.00000000E-01  1.50000000E+00  8.00000000E-01  8.00000000E-01  1.50000000E+00
  8.00000000E-01  8.00000000E-01  1.50000000E+00  8.00000000E-01  8.00000000E-01
  1.50000000E+00  8.00000000E-01  8.00000000E-01  1.50000000E+00  8.00000000E-01
  8.00000000E-01  1.50000000E+00  8.00000000E-01  8.00000000E-01  1.50000000E+00
  8.00000000E-01  8.00000000E-01  1.50000000E+00  8.00000000E-01  8.00000000E-01
  1.50000000E+00  8.00000000E-01  8.00000000E-01  1.50000000E+00  8.00000000E-01
  8.00000000E-01  1.50000000E+00  8.00000000E-01  8.00000000E-01  1.50000000E+00
  8.00000000E-01  8.00000000E-01  1.50000000E+00  8.00000000E-01  8.00000000E-01
  1.50000000E+00  8.00000000E-01  8.00000000E-01  1.50000000E+00  8.00000000E-01
  8.00000000E-01  1.50000000E+00  8.00000000E-01  8.00000000E-01  1.50000000E+00
  8.00000000E-01  8.00000000E-01  1.50000000E+00  8.00000000E-01  8.00000000E-01
  1.50000000E+00  8.00000000E-01  8.00000000E-01  1.50000000E+00  8.00000000E-01
  8.00000000E-01  1.50000000E+00  8.00000000E-01  8.00000000E-01  1.50000000E+00
  8.00000000E-01  8.00000000E-01  1.50000000E+00  8.00000000E-01  8.00000000E-01
  1.50000000E+00  8.00000000E-01  8.00000000E-01  1.50000000E+00  8.00000000E-01
  8.00000000E-01  1.50000000E+00  8.00000000E-01  8.00000000E-01  1.50000000E+00
  8.00000000E-01  8.00000000E-01  1.50000000E+00  8.00000000E-01  8.00000000E-01
  1.50000000E+00  8.00000000E-01  8.00000000E-01  1.50000000E+00  8.00000000E-01
  8.00000000E-01  1.50000000E+00  8.00000000E-01  8.00000000E-01  1.50000000E+00
  8.00000000E-01  8.00000000E-01  1.50000000E+00  8.00000000E-01  8.00000000E-01
  1.50000000E+00  8.00000000E-01  8.00000000E-01  1.50000000E+00  8.00000000E-01
  8.00000000E-01  1.50000000E+00  8.00000000E-01  8.00000000E-01  1.50000000E+00
  8.00000000E-01  8.00000000E-01  1.50000000E+00  8.00000000E-01  8.00000000E-01
  1.50000000E+00  8.00000000E-01  8.00000000E-01  1.50000000E+00  8.00000000E-01
  8.00000000E-01  1.50000000E+00  8.00000000E-01  8.00000000E-01  1.50000000E+00
  8.00000000E-01  8.00000000E-01  1.50000000E+00  8.00000000E-01  8.00000000E-01
  1.50000000E+00  8.00000000E-01  8.00000000E-01  1.50000000E+00  8.00000000E-01
  8.00000000E-01  1.50000000E+00  8.00000000E-01  8.00000000E-01  1.50000000E+00
  8.00000000E-01  8.00000000E-01  1.50000000E+00  8.00000000E-01  8.00000000E-01
  1.50000000E+00  8.00000000E-01  8.00000000E-01  1.50000000E+00  8.00000000E-01
  8.00000000E-01  1.50000000E+00  8.00000000E-01  8.00000000E-01  1.50000000E+00
  8.00000000E-01  8.00000000E-01  1.50000000E+00  8.00000000E-01  8.00000000E-01
  1.50000000E+00  8.00000000E-01  8.00000000E-01  1.50000000E+00  8.00000000E-01
  8.00000000E-01  1.50000000E+00  8.00000000E-01  8.00000000E-01  1.50000000E+00
  8.00000000E-01  8.00000000E-01  1.50000000E+00  8.00000000E-01  8.00000000E-01
  1.50000000E+00  8.00000000E-01  8.00000000E-01  1.50000000E+00  8.00000000E-01
  8.00000000E-01  1.50000000E+00  8.00000000E-01  8.00000000E-01  1.50000000E+00
  8.00000000E-01  8.00000000E-01  1.50000000E+00  8.00000000E-01  8.00000000E-01
  1.50000000E+00  8.00000000E-01  8.00000000E-01  1.50000000E+00  8.00000000E-01
  8.00000000E-01  1.50000000E+00  8.00000000E-01  8.00000000E-01  1.50000000E+00
  8.00000000E-01  8.00000000E-01  1.50000000E+00  8.00000000E-01  8.00000000E-01
  1.50000000E+00  8.00000000E-01  8.00000000E-01  1.50000000E+00  8.00000000E-01
  8.00000000E-01  1.50000000E+00  8.00000000E-01  8.00000000E-01  1.50000000E+00
  8.00000000E-01  8.00000000E-01  1.50000000E+00  8.00000000E-01  8.00000000E-01
  1.50000000E+00  8.00000000E-01  8.00000000E-01  1.50000000E+00  8.00000000E-01
  8.00000000E-01  1.50000000E+00  8.00000000E-01  8.00000000E-01  1.50000000E+00
  8.00000000E-01  8.00000000E-01  1.50000000E+00  8.00000000E-01  8.00000000E-01
  1.50000000E+00  8.00000000E-01  8.00000000E-01  1.50000000E+00  8.00000000E-01
  8.00000000E-01  1.50000000E+00  8.00000000E-01  8.00000000E-01  1.50000000E+00
  8.00000000E-01  8.00000000E-01  1.50000000E+00  8.00000000E-01  8.00000000E-01
  1.50000000E+00  8.00000000E-01  8.00000000E-01  1.50000000E+00  8.00000000E-01
  8.00000000E-01  1.50000000E+00  8.00000000E-01  8.00000000E-01  1.50000000E+00
  8.00000000E-01  8.00000000E-01  1.50000000E+00  8.00000000E-01  8.00000000E-01
  1.50000000E+00  8.00000000E-01  8.00000000E-01  1.50000000E+00  8.00000000E-01
  8.00000000E-01  1.50000000E+00  8.00000000E-01  8.00000000E-01  1.50000000E+00
  8.00000000E-01  8.00000000E-01  1.50000000E+00  8.00000000E-01  8.00000000E-01
  1.50000000E+00  8.00000000E-01  8.00000000E-01  1.50000000E+00  8.00000000E-01
  8.00000000E-01  1.50000000E+00  8.00000000E-01  8.00000000E-01  1.50000000E+00
  8.00000000E-01  8.00000000E-01  1.50000000E+00  8.00000000E-01  8.00000000E-01
  1.50000000E+00  8.00000000E-01  8.00000000E-01  1.50000000E+00  8.00000000E-01
  8.00000000E-01  1.50000000E+00  8.00000000E-01  8.00000000E-01  1.50000000E+00
  8.00000000E-01  8.00000000E-01  1.50000000E+00  8.00000000E-01  8.00000000E-01
  1.50000000E+00  8.00000000E-01  8.00000000E-01  1.50000000E+00  8.00000000E-01
  8.00000000E-01  1.50000000E+00  8.00000000E-01  8.00000000E-01  1.50000000E+00
  8.00000000E-01  8.00000000E-01  1.50000000E+00  8.00000000E-01  8.00000000E-01
  1.50000000E+00  8.00000000E-01  8.00000000E-01  1.50000000E+00  8.00000000E-01
  8.00000000E-01  1.50000000E+00  8.00000000E-01  8.00000000E-01  1.50000000E+00
  8.00000000E-01  8.00000000E-01  1.50000000E+00  8.00000000E-01  8.00000000E-01
  1.50000000E+00  8.00000000E-01  8.00000000E-01  1.50000000E+00  8.00000000E-01
  8.00000000E-01  1.50000000E+00  8.00000000E-01  8.00000000E-01  1.50000000E+00
  8.00000000E-01  8.00000000E-01  1.50000000E+00  8.00000000E-01  8.00000000E-01
  1.50000000E+00  8.00000000E-01  8.00000000E-01  1.50000000E+00  8.00000000E-01
  8.00000000E-01  1.50000000E+00  8.00000000E-01  8.00000000E-01  1.50000000E+00
  8.00000000E-01  8.00000000E-01  1.50000000E+00  8.00000000E-01  8.00000000E-01
  1.50000000E+00  8.00000000E-01  8.00000000E-01  1.50000000E+00  8.00000000E-01
  8.00000000E-01  1.50000000E+00  8.00000000E-01  8.00000000E-01  1.50000000E+00
  8.00000000E-01  8.00000000E-01  1.50000000E+00  8.00000000E-01  8.00000000E-01
  1.50000000E+00  8.00000000E-01  8.00000000E-01  1.50000000E+00  8.00000000E-01
  8.00000000E-01  1.50000000E+00  8.00000000E-01  8.00000000E-01  1.50000000E+00
  8.00000000E-01  8.00000000E-01  1.50000000E+00  8.00000000E-01  8.00000000E-01
  1.50000000E+00  8.00000000E-01  8.00000000E-01  1.50000000E+00  8.00000000E-01
  8.00000000E-01  1.50000000E+00  8.00000000E-01  8.00000000E-01  1.50000000E+00
  8.00000000E-01  8.00000000E-01  1.50000000E+00  8.00000000E-01  8.00000000E-01
  1.50000000E+00  8.00000000E-01  8.00000000E-01  1.50000000E+00  8.00000000E-01
  8.00000000E-01  1.50000000E+00  8.00000000E-01  8.00000000E-01  1.50000000E+00
  8.00000000E-01  8.00000000E-01  1.50000000E+00  8.00000000E-01  8.00000000E-01
  1.50000000E+00  8.00000000E-01  8.00000000E-01  1.50000000E+00  8.00000000E-01
  8.00000000E-01  1.50000000E+00  8.00000000E-01  8.00000000E-01  1.50000000E+00
  8.00000000E-01  8.00000000E-01  1.50000000E+00  8.00000000E-01  8.00000000E-01
  1.50000000E+00  8.00000000E-01  8.00000000E-01  1.50000000E+00  8.00000000E-01
  8.00000000E-01  1.50000000E+00  8.00000000E-01  8.00000000E-01  1.50000000E+00
  8.00000000E-01  8.00000000E-01  1.50000000E+00  8.00000000E-01  8.00000000E-01
  1.50000000E+00  8.00000000E-01  8.00000000E-01  1.50000000E+00  8.00000000E-01
  8.00000000E-01  1.50000000E+00  8.00000000E-01  8.00000000E-01  1.50000000E+00
  8.00000000E-01  8.00000000E-01  1.50000000E+00  8.00000000E-01  8.00000000E-01
  1.50000000E+00  8.00000000E-01  8.00000000E-01  1.50000000E+00  8.00000000E-01
  8.00000000E-01  1.50000000E+00  8.00000000E-01  8.00000000E-01  1.50000000E+00
  8.00000000E-01  8.00000000E-01  1.50000000E+00  8.00000000E-01  8.00000000E-01
  1.50000000E+00  8.00000000E-01  8.00000000E-01  1.50000000E+00  8.00000000E-01
  8.00000000E-01  1.50000000E+00  8.00000000E-01  8.00000000E-01  1.50000000E+00
  8.00000000E-01  8.00000000E-01  1.50000000E+00  8.00000000E-01  8.00000000E-01
  1.50000000E+00  8.00000000E-01  8.00000000E-01  1.50000000E+00  8.00000000E-01
  8.00000000E-01  1.50000000E+00  8.00000000E-01  8.00000000E-01  1.50000000E+00
  8.00000000E-01  8.00000000E-01  1.50000000E+00  8.00000000E-01  8.00000000E-01
  1.50000000E+00  8.00000000E-01  8.00000000E-01  1.50000000E+00  8.00000000E-01
  8.00000000E-01  1.50000000E+00  8.00000000E-01  8.00000000E-01  1.50000000E+00
  8.00000000E-01  8.00000000E-01  1.50000000E+00  8.00000000E-01  8.00000000E-01
  1.50000000E+00  8.00000000E-01  8.00000000E-01  1.50000000E+00  8.00000000E-01
  8.00000000E-01  1.50000000E+00  8.00000000E-01  8.00000000E-01  1.50000000E+00
  8.00000000E-01  8.00000000E-01  1.50000000E+00  8.00000000E-01  8.00000000E-01
  1.50000000E+00  8.00000000E-01  8.00000000E-01  1.50000000E+00  8.00000000E-01
  8.00000000E-01  1.50000000E+00  8.00000000E-01  8.00000000E-01  1.50000000E+00
  8.00000000E-01  8.00000000E-01  1.50000000E+00  8.00000000E-01  8.00000000E-01
  1.50000000E+00  8.00000000E-01  8.00000000E-01  1.50000000E+00  8.00000000E-01
  8.00000000E-01  1.50000000E+00  8.00000000E-01  8.00000000E-01  1.50000000E+00
  8.00000000E-01  8.00000000E-01  1.50000000E+00  8.00000000E-01  8.00000000E-01
  1.50000000E+00  8.00000000E-01  8.00000000E-01  1.50000000E+00  8.00000000E-01
  8.00000000E-01  1.50000000E+00  8.00000000E-01  8.00000000E-01  1.50000000E+00
  8.00000000E-01  8.00000000E-01  1.50000000E+00  8.00000000E-01  8.00000000E-01
  1.50000000E+00  8.00000000E-01  8.00000000E-01  1.50000000E+00  8.00000000E-01
  8.00000000E-01  1.50000000E+00  8.00000000E-01  8.00000000E-01  1.50000000E+00
  8.00000000E-01  8.00000000E-01  1.50000000E+00  8.00000000E-01  8.00000000E-01
  1.50000000E+00  8.00000000E-01  8.00000000E-01  1.50000000E+00  8.00000000E-01
  8.00000000E-01  1.50000000E+00  8.00000000E-01  8.00000000E-01  1.50000000E+00
  8.00000000E-01  8.00000000E-01  1.50000000E+00  8.00000000E-01  8.00000000E-01
  1.50000000E+00  8.00000000E-01  8.00000000E-01  1.50000000E+00  8.00000000E-01
  8.00000000E-01  1.50000000E+00  8.00000000E-01  8.00000000E-01  1.50000000E+00
  8.00000000E-01  8.00000000E-01  1.50000000E+00  8.00000000E-01  8.00000000E-01
  1.50000000E+00  8.00000000E-01  8.00000000E-01  1.50000000E+00  8.00000000E-01
  8.00000000E-01  1.50000000E+00  8.00000000E-01  8.00000000E-01  1.50000000E+00
  8.00000000E-01  8.00000000E-01  1.50000000E+00  8.00000000E-01  8.00000000E-01
  1.50000000E+00  8.00000000E-01  8.00000000E-01  1.50000000E+00  8.00000000E-01
  8.00000000E-01  1.50000000E+00  8.00000000E-01  8.00000000E-01  1.50000000E+00
  8.00000000E-01  8.00000000E-01  1.50000000E+00  8.00000000E-01  8.00000000E-01
  1.50000000E+00  8.00000000E-01  8.00000000E-01  1.50000000E+00  8.00000000E-01
  8.00000000E-01  1.50000000E+00  8.00000000E-01  8.00000000E-01  1.50000000E+00
  8.00000000E-01  8.00000000E-01  1.50000000E+00  8.00000000E-01  8.00000000E-01
  1.50000000E+00  8.00000000E-01  8.00000000E-01  1.50000000E+00  8.00000000E-01
  8.00000000E-01  1.50000000E+00  8.00000000E-01  8.00000000E-01  1.50000000E+00
  8.00000000E-01  8.00000000E-01  1.50000000E+00  8.00000000E-01  8.00000000E-01
  1.50000000E+00  8.00000000E-01  8.00000000E-01  1.50000000E+00  8.00000000E-01
  8.00000000E-01  1.50000000E+00  8.00000000E-01  8.00000000E-01  1.50000000E+00
  8.00000000E-01  8.00000000E-01  1.50000000E+00  8.00000000E-01  8.00000000E-01
  1.50000000E+00  8.00000000E-01  8.00000000E-01  1.50000000E+00  8.00000000E-01
  8.00000000E-01  1.50000000E+00  8.00000000E-01  8.00000000E-01  1.50000000E+00
  8.00000000E-01  8.00000000E-01  1.50000000E+00  8.00000000E-01  8.00000000E-01
  1.50000000E+00  8.00000000E-01  8.00000000E-01  1.50000000E+00  8.00000000E-01
  8.00000000E-01  1.50000000E+00  8.00000000E-01  8.00000000E-01  1.50000000E+00
  8.00000000E-01  8.00000000E-01  1.50000000E+00  8.00000000E-01  8.00000000E-01
  1.50000000E+00  8.00000000E-01  8.00000000E-01  1.50000000E+00  8.00000000E-01
  8.00000000E-01  1.50000000E+00  8.00000000E-01  8.00000000E-01  1.50000000E+00
  8.00000000E-01  8.00000000E-01  1.50000000E+00  8.00000000E-01  8.00000000E-01
  1.50000000E+00  8.00000000E-01  8.00000000E-01  1.50000000E+00  8.00000000E-01
  8.00000000E-01  1.50000000E+00  8.00000000E-01  8.00000000E-01  1.50000000E+00
  8.00000000E-01  8.00000000E-01  1.50000000E+00  8.00000000E-01  8.00000000E-01
  1.50000000E+00  8.00000000E-01  8.00000000E-01  1.50000000E+00  8.00000000E-01
  8.00000000E-01  1.50000000E+00  8.00000000E-01  8.00000000E-01  1.50000000E+00
  8.00000000E-01  8.00000000E-01  1.50000000E+00  8.00000000E-01  8.00000000E-01
  1.50000000E+00  8.00000000E-01  8.00000000E-01  1.50000000E+00  8.00000000E-01
  8.00000000E-01  1.50000000E+00  8.00000000E-01  8.00000000E-01  1.50000000E+00
  8.00000000E-01  8.00000000E-01  1.50000000E+00  8.00000000E-01  8.00000000E-01
  1.50000000E+00  8.00000000E-01  8.00000000E-01  1.50000000E+00  8.00000000E-01
  8.00000000E-01  1.50000000E+00  8.00000000E-01  8.00000000E-01  1.50000000E+00
  8.00000000E-01  8.00000000E-01  1.50000000E+00  8.00000000E-01  8.00000000E-01
  1.50000000E+00  8.00000000E-01  8.00000000E-01  1.50000000E+00  8.00000000E-01
  8.00000000E-01  1.50000000E+00  8.00000000E-01  8.00000000E-01  1.50000000E+00
  8.00000000E-01  8.00000000E-01  1.50000000E+00  8.00000000E-01  8.00000000E-01
  1.50000000E+00  8.00000000E-01  8.00000000E-01  1.50000000E+00  8.00000000E-01
  8.00000000E-01  1.50000000E+00  8.00000000E-01  8.00000000E-01  1.50000000E+00
  8.00000000E-01  8.00000000E-01  1.50000000E+00  8.00000000E-01  8.00000000E-01
  1.50000000E+00  8.00000000E-01  8.00000000E-01  1.50000000E+00  8.00000000E-01
  8.00000000E-01  1.50000000E+00  8.00000000E-01  8.00000000E-01  1.50000000E+00
  8.00000000E-01  8.00000000E-01  1.50000000E+00  8.00000000E-01  8.00000000E-01
  1.50000000E+00  8.00000000E-01  8.00000000E-01  1.50000000E+00  8.00000000E-01
  8.00000000E-01  1.50000000E+00  8.00000000E-01  8.00000000E-01  1.50000000E+00
  8.00000000E-01  8.00000000E-01  1.50000000E+00  8.00000000E-01  8.00000000E-01
  1.50000000E+00  8.00000000E-01  8.00000000E-01  1.50000000E+00  8.00000000E-01
  8.00000000E-01  1.50000000E+00  8.00000000E-01  8.00000000E-01  1.50000000E+00
  8.00000000E-01  8.00000000E-01  1.50000000E+00  8.00000000E-01  8.00000000E-01
  1.50000000E+00  8.00000000E-01  8.00000000E-01  1.50000000E+00  8.00000000E-01
  8.00000000E-01  1.50000000E+00  8.00000000E-01  8.00000000E-01  1.50000000E+00
  8.00000000E-01  8.00000000E-01  1.50000000E+00  8.00000000E-01  8.00000000E-01
  1.50000000E+00  8.00000000E-01  8.00000000E-01  1.50000000E+00  8.00000000E-01
  8.00000000E-01  1.50000000E+00  8.00000000E-01  8.00000000E-01  1.50000000E+00
  8.00000000E-01  8.00000000E-01  1.50000000E+00  8.00000000E-01  8.00000000E-01
  1.50000000E+00  8.00000000E-01  8.00000000E-01  1.50000000E+00  8.00000000E-01
  8.00000000E-01  1.50000000E+00  8.00000000E-01  8.00000000E-01  1.50000000E+00
  8.00000000E-01  8.00000000E-01  1.50000000E+00  8.00000000E-01  8.00000000E-01
  1.50000000E+00  8.00000000E-01  8.00000000E-01  1.50000000E+00  8.00000000E-01
  8.00000000E-01  1.50000000E+00  8.00000000E-01  8.00000000E-01  1.50000000E+00
  8.00000000E-01  8.00000000E-01  1.50000000E+00  8.00000000E-01  8.00000000E-01
  1.50000000E+00  8.00000000E-01  8.00000000E-01  1.50000000E+00  8.00000000E-01
  8.00000000E-01  1.50000000E+00  8.00000000E-01  8.00000000E-01  1.50000000E+00
  8.00000000E-01  8.00000000E-01  1.50000000E+00  8.00000000E-01  8.00000000E-01
  1.50000000E+00  8.00000000E-01  8.00000000E-01  1.50000000E+00  8.00000000E-01
  8.00000000E-01  1.50000000E+00  8.00000000E-01  8.00000000E-01  1.50000000E+00
  8.00000000E-01  8.00000000E-01  1.50000000E+00  8.00000000E-01  8.00000000E-01
  1.50000000E+00  8.00000000E-01  8.00000000E-01  1.50000000E+00  8.00000000E-01
  8.00000000E-01  1.50000000E+00  8.00000000E-01  8.00000000E-01  1.50000000E+00
  8.00000000E-01  8.00000000E-01  1.50000000E+00  8.00000000E-01  8.00000000E-01
  1.50000000E+00  8.00000000E-01  8.00000000E-01  1.50000000E+00  8.00000000E-01
  8.00000000E-01  1.50000000E+00  8.00000000E-01  8.00000000E-01  1.50000000E+00
  8.00000000E-01  8.00000000E-01  1.50000000E+00  8.00000000E-01  8.00000000E-01
  1.50000000E+00  8.00000000E-01  8.00000000E-01  1.50000000E+00  8.00000000E-01
  8.00000000E-01  1.50000000E+00  8.00000000E-01  8.00000000E-01  1.50000000E+00
  8.00000000E-01  8.00000000E-01  1.50000000E+00  8.00000000E-01  8.00000000E-01
  1.50000000E+00  8.00000000E-01  8.00000000E-01  1.50000000E+00  8.00000000E-01
  8.00000000E-01  1.50000000E+00  8.00000000E-01  8.00000000E-01  1.50000000E+00
  8.00000000E-01  8.00000000E-01  1.50000000E+00  8.00000000E-01  8.00000000E-01
  1.50000000E+00  8.00000000E-01  8.00000000E-01  1.50000000E+00  8.00000000E-01
  8.00000000E-01  1.50000000E+00  8.00000000E-01  8.00000000E-01  1.50000000E+00
  8.00000000E-01  8.00000000E-01  1.50000000E+00  8.00000000E-01  8.00000000E-01
  1.50000000E+00  8.00000000E-01  8.00000000E-01  1.50000000E+00  8.00000000E-01
  8.00000000E-01  1.50000000E+00  8.00000000E-01  8.00000000E-01  1.50000000E+00
  8.00000000E-01  8.00000000E-01  1.50000000E+00  8.00000000E-01  8.00000000E-01
  1.50000000E+00  8.00000000E-01  8.00000000E-01  1.50000000E+00  8.00000000E-01
  8.00000000E-01  1.50000000E+00  8.00000000E-01  8.00000000E-01  1.50000000E+00
  8.00000000E-01  8.00000000E-01  1.50000000E+00  8.00000000E-01  8.00000000E-01
  1.50000000E+00  8.00000000E-01  8.00000000E-01  1.50000000E+00  8.00000000E-01
  8.00000000E-01  1.50000000E+00  8.00000000E-01  8.00000000E-01  1.50000000E+00
  8.00000000E-01  8.00000000E-01  1.50000000E+00  8.00000000E-01  8.00000000E-01
  1.50000000E+00  8.00000000E-01  8.00000000E-01  1.50000000E+00  8.00000000E-01
  8.00000000E-01  1.50000000E+00  8.00000000E-01  8.00000000E-01  1.50000000E+00
  8.00000000E-01  8.00000000E-01  1.50000000E+00  8.00000000E-01  8.00000000E-01
  1.50000000E+00  8.00000000E-01  8.00000000E-01  1.50000000E+00  8.00000000E-01
  8.00000000E-01  1.50000000E+00  8.00000000E-01  8.00000000E-01  1.50000000E+00
  8.00000000E-01  8.00000000E-01  1.50000000E+00  8.00000000E-01  8.00000000E-01
  1.50000000E+00  8.00000000E-01  8.00000000E-01  1.50000000E+00  8.00000000E-01
  8.00000000E-01  1.50000000E+00  8.00000000E-01  8.00000000E-01  1.50000000E+00
  8.00000000E-01  8.00000000E-01  1.50000000E+00  8.00000000E-01  8.00000000E-01
  1.50000000E+00  8.00000000E-01  8.00000000E-01  1.50000000E+00  8.00000000E-01
  8.00000000E-01  1.50000000E+00  8.00000000E-01  8.00000000E-01  1.50000000E+00
  8.00000000E-01  8.00000000E-01  1.50000000E+00  8.00000000E-01  8.00000000E-01
  1.50000000E+00  8.00000000E-01  8.00000000E-01  1.50000000E+00  8.00000000E-01
  8.00000000E-01  1.50000000E+00  8.00000000E-01  8.00000000E-01  1.50000000E+00
  8.00000000E-01  8.00000000E-01  1.50000000E+00  8.00000000E-01  8.00000000E-01
  1.50000000E+00  8.00000000E-01  8.00000000E-01  1.50000000E+00  8.00000000E-01
  8.00000000E-01  1.50000000E+00  8.00000000E-01  8.00000000E-01  1.50000000E+00
  8.00000000E-01  8.00000000E-01  1.50000000E+00  8.00000000E-01  8.00000000E-01
  1.50000000E+00  8.00000000E-01  8.00000000E-01  1.50000000E+00  8.00000000E-01
  8.00000000E-01  1.50000000E+00  8.00000000E-01  8.00000000E-01  1.50000000E+00
  8.00000000E-01  8.00000000E-01  1.50000000E+00  8.00000000E-01  8.00000000E-01
  1.50000000E+00  8.00000000E-01  8.00000000E-01  1.50000000E+00  8.00000000E-01
  8.00000000E-01  1.50000000E+00  8.00000000E-01  8.00000000E-01  1.50000000E+00
  8.00000000E-01  8.00000000E-01  1.50000000E+00  8.00000000E-01  8.00000000E-01
  1.50000000E+00  8.00000000E-01  8.00000000E-01  1.50000000E+00  8.00000000E-01
  8.00000000E-01  1.50000000E+00  8.00000000E-01  8.00000000E-01  1.50000000E+00
  8.00000000E-01  8.00000000E-01  1.50000000E+00  8.00000000E-01  8.00000000E-01
  1.50000000E+00  8.00000000E-01  8.00000000E-01  1.50000000E+00  8.00000000E-01
  8.00000000E-01  1.50000000E+00  8.00000000E-01  8.00000000E-01  1.50000000E+00
  8.00000000E-01  8.00000000E-01  1.50000000E+00  8.00000000E-01  8.00000000E-01
  1.50000000E+00  8.00000000E-01  8.00000000E-01  1.50000000E+00  8.00000000E-01
  8.00000000E-01  1.50000000E+00  8.00000000E-01  8.00000000E-01  1.50000000E+00
  8.00000000E-01  8.00000000E-01  1.50000000E+00  8.00000000E-01  8.00000000E-01
  1.50000000E+00  8.00000000E-01  8.00000000E-01  1.50000000E+00  8.00000000E-01
  8.00000000E-01  1.50000000E+00  8.00000000E-01  8.00000000E-01  1.50000000E+00
  8.00000000E-01  8.00000000E-01  1.50000000E+00  8.00000000E-01  8.00000000E-01
  1.50000000E+00  8.00000000E-01  8.00000000E-01  1.50000000E+00  8.00000000E-01
  8.00000000E-01  1.50000000E+00  8.00000000E-01  8.00000000E-01  1.50000000E+00
  8.00000000E-01  8.00000000E-01  1.50000000E+00  8.00000000E-01  8.00000000E-01
  1.50000000E+00  8.00000000E-01  8.00000000E-01  1.50000000E+00  8.00000000E-01
  8.00000000E-01  1.50000000E+00  8.00000000E-01  8.00000000E-01  1.50000000E+00
  8.00000000E-01  8.00000000E-01  1.50000000E+00  8.00000000E-01  8.00000000E-01
  1.50000000E+00  8.00000000E-01  8.00000000E-01  1.50000000E+00  8.00000000E-01
  8.00000000E-01  1.50000000E+00  8.00000000E-01  8.00000000E-01  1.50000000E+00
  8.00000000E-01  8.00000000E-01  1.50000000E+00  8.00000000E-01  8.00000000E-01
  1.50000000E+00  8.00000000E-01  8.00000000E-01  1.50000000E+00  8.00000000E-01
  8.00000000E-01  1.50000000E+00  8.00000000E-01  8.00000000E-01  1.50000000E+00
  8.00000000E-01  8.00000000E-01  1.50000000E+00  8.00000000E-01  8.00000000E-01
  1.50000000E+00  8.00000000E-01  8.00000000E-01  1.50000000E+00  8.00000000E-01
  8.00000000E-01  1.50000000E+00  8.00000000E-01  8.00000000E-01  1.50000000E+00
  8.00000000E-01  8.00000000E-01  1.50000000E+00  8.00000000E-01  8.00000000E-01
  1.50000000E+00  8.00000000E-01  8.00000000E-01  1.50000000E+00  8.00000000E-01
  8.00000000E-01  1.50000000E+00  8.00000000E-01  8.00000000E-01  1.50000000E+00
  8.00000000E-01  8.00000000E-01  1.50000000E+00  8.00000000E-01  8.00000000E-01
  1.50000000E+00  8.00000000E-01  8.00000000E-01  1.50000000E+00  8.00000000E-01
  8.00000000E-01  1.50000000E+00  8.00000000E-01  8.00000000E-01  1.50000000E+00
  8.00000000E-01  8.00000000E-01  1.50000000E+00  8.00000000E-01  8.00000000E-01
  1.50000000E+00  8.00000000E-01  8.00000000E-01  1.50000000E+00  8.00000000E-01
  8.00000000E-01  1.50000000E+00  8.00000000E-01  8.00000000E-01  1.50000000E+00
  8.00000000E-01  8.00000000E-01  1.50000000E+00  8.00000000E-01  8.00000000E-01
  1.50000000E+00  8.00000000E-01  8.00000000E-01  1.50000000E+00  8.00000000E-01
  8.00000000E-01  1.50000000E+00  8.00000000E-01  8.00000000E-01  1.50000000E+00
  8.00000000E-01  8.00000000E-01  1.50000000E+00  8.00000000E-01  8.00000000E-01
  1.50000000E+00  8.00000000E-01  8.00000000E-01  1.50000000E+00  8.00000000E-01
  8.00000000E-01  1.50000000E+00  8.00000000E-01  8.00000000E-01  1.50000000E+00
  8.00000000E-01  8.00000000E-01  1.50000000E+00  8.00000000E-01  8.00000000E-01
  1.50000000E+00  8.00000000E-01  8.00000000E-01  1.50000000E+00  8.00000000E-01
  8.00000000E-01  1.50000000E+00  8.00000000E-01  8.00000000E-01  1.50000000E+00
  8.00000000E-01  8.00000000E-01  1.50000000E+00  8.00000000E-01  8.00000000E-01
  1.50000000E+00  8.00000000E-01  8.00000000E-01  1.50000000E+00  8.00000000E-01
  8.00000000E-01  1.50000000E+00  8.00000000E-01  8.00000000E-01  1.50000000E+00
  8.00000000E-01  8.00000000E-01  1.50000000E+00  8.00000000E-01  8.00000000E-01
  1.50000000E+00  8.00000000E-01  8.00000000E-01  1.50000000E+00  8.00000000E-01
  8.00000000E-01  1.50000000E+00  8.00000000E-01  8.00000000E-01  1.50000000E+00
  8.00000000E-01  8.00000000E-01  1.50000000E+00  8.00000000E-01  8.00000000E-01
  1.50000000E+00  8.00000000E-01  8.00000000E-01  1.50000000E+00  8.00000000E-01
  8.00000000E-01  1.50000000E+00  8.00000000E-01  8.00000000E-01  1.50000000E+00
  8.00000000E-01  8.00000000E-01  1.50000000E+00  8.00000000E-01  8.00000000E-01
  1.50000000E+00  8.00000000E-01  8.00000000E-01  1.50000000E+00  8.00000000E-01
  8.00000000E-01  1.50000000E+00  8.00000000E-01  8.00000000E-01  1.50000000E+00
  8.00000000E-01  8.00000000E-01  1.50000000E+00  8.00000000E-01  8.00000000E-01
  1.50000000E+00  8.00000000E-01  8.00000000E-01  1.50000000E+00  8.00000000E-01
  8.00000000E-01  1.50000000E+00  8.00000000E-01  8.00000000E-01  1.50000000E+00
  8.00000000E-01  8.00000000E-01  1.50000000E+00  8.00000000E-01  8.00000000E-01
  1.50000000E+00  8.00000000E-01  8.00000000E-01  1.50000000E+00  8.00000000E-01
  8.00000000E-01  1.50000000E+00  8.00000000E-01  8.00000000E-01  1.50000000E+00
  8.00000000E-01  8.00000000E-01  1.50000000E+00  8.00000000E-01  8.00000000E-01
  1.50000000E+00  8.00000000E-01  8.00000000E-01  1.50000000E+00  8.00000000E-01
  8.00000000E-01  1.50000000E+00  8.00000000E-01  8.00000000E-01  1.50000000E+00
  8.00000000E-01  8.00000000E-01  1.50000000E+00  8.00000000E-01  8.00000000E-01
  1.50000000E+00  8.00000000E-01  8.00000000E-01  1.50000000E+00  8.00000000E-01
  8.00000000E-01  1.50000000E+00  8.00000000E-01  8.00000000E-01  1.50000000E+00
  8.00000000E-01  8.00000000E-01  1.50000000E+00  8.00000000E-01  8.00000000E-01
  1.50000000E+00  8.00000000E-01  8.00000000E-01  1.50000000E+00  8.00000000E-01
  8.00000000E-01  1.50000000E+00  8.00000000E-01  8.00000000E-01  1.50000000E+00
  8.00000000E-01  8.00000000E-01  1.50000000E+00  8.00000000E-01  8.00000000E-01
  1.50000000E+00  8.00000000E-01  8.00000000E-01  1.50000000E+00  8.00000000E-01
  8.00000000E-01  1.50000000E+00  8.00000000E-01  8.00000000E-01  1.50000000E+00
  8.00000000E-01  8.00000000E-01  1.50000000E+00  8.00000000E-01  8.00000000E-01
  1.50000000E+00  8.00000000E-01  8.00000000E-01  1.50000000E+00  8.00000000E-01
  8.00000000E-01  1.50000000E+00  8.00000000E-01  8.00000000E-01  1.50000000E+00
  8.00000000E-01  8.00000000E-01  1.50000000E+00  8.00000000E-01  8.00000000E-01
  1.50000000E+00  8.00000000E-01  8.00000000E-01  1.50000000E+00  8.00000000E-01
  8.00000000E-01  1.50000000E+00  8.00000000E-01  8.00000000E-01  1.50000000E+00
  8.00000000E-01  8.00000000E-01  1.50000000E+00  8.00000000E-01  8.00000000E-01
  1.50000000E+00  8.00000000E-01  8.00000000E-01  1.50000000E+00  8.00000000E-01
  8.00000000E-01  1.50000000E+00  8.00000000E-01  8.00000000E-01  1.50000000E+00
  8.00000000E-01  8.00000000E-01  1.50000000E+00  8.00000000E-01  8.00000000E-01
  1.50000000E+00  8.00000000E-01  8.00000000E-01  1.50000000E+00  8.00000000E-01
  8.00000000E-01  1.50000000E+00  8.00000000E-01  8.00000000E-01  1.50000000E+00
  8.00000000E-01  8.00000000E-01  1.50000000E+00  8.00000000E-01  8.00000000E-01
  1.50000000E+00  8.00000000E-01  8.00000000E-01  1.50000000E+00  8.00000000E-01
  8.00000000E-01  1.50000000E+00  8.00000000E-01  8.00000000E-01  1.50000000E+00
  8.00000000E-01  8.00000000E-01  1.50000000E+00  8.00000000E-01  8.00000000E-01
  1.50000000E+00  8.00000000E-01  8.00000000E-01  1.50000000E+00  8.00000000E-01
  8.00000000E-01  1.50000000E+00  8.00000000E-01  8.00000000E-01  1.50000000E+00
  8.00000000E-01  8.00000000E-01  1.50000000E+00  8.00000000E-01  8.00000000E-01
  1.50000000E+00  8.00000000E-01  8.00000000E-01  1.50000000E+00  8.00000000E-01
  8.00000000E-01  1.50000000E+00  8.00000000E-01  8.00000000E-01  1.50000000E+00
  8.00000000E-01  8.00000000E-01  1.50000000E+00  8.00000000E-01  8.00000000E-01
  1.50000000E+00  8.00000000E-01  8.00000000E-01  1.50000000E+00  8.00000000E-01
  8.00000000E-01  1.50000000E+00  8.00000000E-01  8.00000000E-01  1.50000000E+00
  8.00000000E-01  8.00000000E-01  1.50000000E+00  8.00000000E-01  8.00000000E-01
  1.50000000E+00  8.00000000E-01  8.00000000E-01  1.50000000E+00  8.00000000E-01
  8.00000000E-01  1.50000000E+00  8.00000000E-01  8.00000000E-01  1.50000000E+00
  8.00000000E-01  8.00000000E-01  1.50000000E+00  8.00000000E-01  8.00000000E-01
  1.50000000E+00  8.00000000E-01  8.00000000E-01  1.50000000E+00  8.00000000E-01
  8.00000000E-01  1.50000000E+00  8.00000000E-01  8.00000000E-01  1.50000000E+00
  8.00000000E-01  8.00000000E-01  1.50000000E+00  8.00000000E-01  8.00000000E-01
  1.50000000E+00  8.00000000E-01  8.00000000E-01  1.50000000E+00  8.00000000E-01
  8.00000000E-01  1.50000000E+00  8.00000000E-01  8.00000000E-01  1.50000000E+00
  8.00000000E-01  8.00000000E-01  1.50000000E+00  8.00000000E-01  8.00000000E-01
  1.50000000E+00  8.00000000E-01  8.00000000E-01  1.50000000E+00  8.00000000E-01
  8.00000000E-01  1.50000000E+00  8.00000000E-01  8.00000000E-01  1.50000000E+00
  8.00000000E-01  8.00000000E-01  1.50000000E+00  8.00000000E-01  8.00000000E-01
  1.50000000E+00  8.00000000E-01  8.00000000E-01  1.50000000E+00  8.00000000E-01
  8.00000000E-01  1.50000000E+00  8.00000000E-01  8.00000000E-01  1.50000000E+00
  8.00000000E-01  8.00000000E-01  1.50000000E+00  8.00000000E-01  8.00000000E-01
  1.50000000E+00  8.00000000E-01  8.00000000E-01  1.50000000E+00  8.00000000E-01
  8.00000000E-01  1.50000000E+00  8.00000000E-01  8.00000000E-01  1.50000000E+00
  8.00000000E-01  8.00000000E-01  1.50000000E+00  8.00000000E-01  8.00000000E-01
  1.50000000E+00  8.00000000E-01  8.00000000E-01  1.50000000E+00  8.00000000E-01
  8.00000000E-01  1.50000000E+00  8.00000000E-01  8.00000000E-01  1.50000000E+00
  8.00000000E-01  8.00000000E-01  1.50000000E+00  8.00000000E-01  8.00000000E-01
  1.50000000E+00  8.00000000E-01  8.00000000E-01  1.50000000E+00  8.00000000E-01
  8.00000000E-01  1.50000000E+00  8.00000000E-01  8.00000000E-01  1.50000000E+00
  8.00000000E-01  8.00000000E-01  1.50000000E+00  8.00000000E-01  8.00000000E-01
  1.50000000E+00  8.00000000E-01  8.00000000E-01  1.50000000E+00  8.00000000E-01
  8.00000000E-01  1.50000000E+00  8.00000000E-01  8.00000000E-01  1.50000000E+00
  8.00000000E-01  8.00000000E-01  1.50000000E+00  8.00000000E-01  8.00000000E-01
  1.50000000E+00  8.00000000E-01  8.00000000E-01  1.50000000E+00  8.00000000E-01
  8.00000000E-01  1.50000000E+00  8.00000000E-01  8.00000000E-01  1.50000000E+00
  8.00000000E-01  8.00000000E-01  1.50000000E+00  8.00000000E-01  8.00000000E-01
  1.50000000E+00  8.00000000E-01  8.00000000E-01  1.50000000E+00  8.00000000E-01
  8.00000000E-01  1.50000000E+00  8.00000000E-01  8.00000000E-01  1.50000000E+00
  8.00000000E-01  8.00000000E-01  1.50000000E+00  8.00000000E-01  8.00000000E-01
  1.50000000E+00  8.00000000E-01  8.00000000E-01  1.50000000E+00  8.00000000E-01
  8.00000000E-01  1.50000000E+00  8.00000000E-01  8.00000000E-01  1.50000000E+00
  8.00000000E-01  8.00000000E-01  1.50000000E+00  8.00000000E-01  8.00000000E-01
  1.50000000E+00  8.00000000E-01  8.00000000E-01  1.50000000E+00  8.00000000E-01
  8.00000000E-01  1.50000000E+00  8.00000000E-01  8.00000000E-01  1.50000000E+00
  8.00000000E-01  8.00000000E-01  1.50000000E+00  8.00000000E-01  8.00000000E-01
  1.50000000E+00  8.00000000E-01  8.00000000E-01  1.50000000E+00  8.00000000E-01
  8.00000000E-01  1.50000000E+00  8.00000000E-01  8.00000000E-01  1.50000000E+00
  8.00000000E-01  8.00000000E-01  1.50000000E+00  8.00000000E-01  8.00000000E-01
  1.50000000E+00  8.00000000E-01  8.00000000E-01  1.50000000E+00  8.00000000E-01
  8.00000000E-01  1.50000000E+00  8.00000000E-01  8.00000000E-01  1.50000000E+00
  8.00000000E-01  8.00000000E-01  1.50000000E+00  8.00000000E-01  8.00000000E-01
  1.50000000E+00  8.00000000E-01  8.00000000E-01  1.50000000E+00  8.00000000E-01
  8.00000000E-01  1.50000000E+00  8.00000000E-01  8.00000000E-01  1.50000000E+00
  8.00000000E-01  8.00000000E-01  1.50000000E+00  8.00000000E-01  8.00000000E-01
  1.50000000E+00  8.00000000E-01  8.00000000E-01  1.50000000E+00  8.00000000E-01
  8.00000000E-01  1.50000000E+00  8.00000000E-01  8.00000000E-01  1.50000000E+00
  8.00000000E-01  8.00000000E-01  1.50000000E+00  8.00000000E-01  8.00000000E-01
  1.50000000E+00  8.00000000E-01  8.00000000E-01  1.50000000E+00  8.00000000E-01
  8.00000000E-01  1.50000000E+00  8.00000000E-01  8.00000000E-01  1.50000000E+00
  8.00000000E-01  8.00000000E-01  1.50000000E+00  8.00000000E-01  8.00000000E-01
  1.50000000E+00  8.00000000E-01  8.00000000E-01  1.50000000E+00  8.00000000E-01
  8.00000000E-01  1.50000000E+00  8.00000000E-01  8.00000000E-01  1.50000000E+00
  8.00000000E-01  8.00000000E-01  1.50000000E+00  8.00000000E-01  8.00000000E-01
  1.50000000E+00  8.00000000E-01  8.00000000E-01  1.50000000E+00  8.00000000E-01
  8.00000000E-01  1.50000000E+00  8.00000000E-01  8.00000000E-01  1.50000000E+00
  8.00000000E-01  8.00000000E-01  1.50000000E+00  8.00000000E-01  8.00000000E-01
  1.50000000E+00  8.00000000E-01  8.00000000E-01  1.50000000E+00  8.00000000E-01
  8.00000000E-01  1.50000000E+00  8.00000000E-01  8.00000000E-01  1.50000000E+00
  8.00000000E-01  8.00000000E-01  1.50000000E+00  8.00000000E-01  8.00000000E-01
  1.50000000E+00  8.00000000E-01  8.00000000E-01  1.50000000E+00  8.00000000E-01
  8.00000000E-01  1.50000000E+00  8.00000000E-01  8.00000000E-01  1.50000000E+00
  8.00000000E-01  8.00000000E-01  1.50000000E+00  8.00000000E-01  8.00000000E-01
  1.50000000E+00  8.00000000E-01  8.00000000E-01  1.50000000E+00  8.00000000E-01
  8.00000000E-01  1.50000000E+00  8.00000000E-01  8.00000000E-01  1.50000000E+00
  8.00000000E-01  8.00000000E-01  1.50000000E+00  8.00000000E-01  8.00000000E-01
  1.50000000E+00  8.00000000E-01  8.00000000E-01  1.50000000E+00  8.00000000E-01
  8.00000000E-01  1.50000000E+00  8.00000000E-01  8.00000000E-01  1.50000000E+00
  8.00000000E-01  8.00000000E-01  1.50000000E+00  8.00000000E-01  8.00000000E-01
  1.50000000E+00  8.00000000E-01  8.00000000E-01  1.50000000E+00  8.00000000E-01
  8.00000000E-01  1.50000000E+00  8.00000000E-01  8.00000000E-01  1.50000000E+00
  8.00000000E-01  8.00000000E-01  1.50000000E+00  8.00000000E-01  8.00000000E-01
  1.50000000E+00  8.00000000E-01  8.00000000E-01  1.50000000E+00  8.00000000E-01
  8.00000000E-01  1.50000000E+00  8.00000000E-01  8.00000000E-01  1.50000000E+00
  8.00000000E-01  8.00000000E-01  1.50000000E+00  8.00000000E-01  8.00000000E-01
  1.50000000E+00  8.00000000E-01  8.00000000E-01  1.50000000E+00  8.00000000E-01
  8.00000000E-01  1.50000000E+00  8.00000000E-01  8.00000000E-01  1.50000000E+00
  8.00000000E-01  8.00000000E-01  1.50000000E+00  8.00000000E-01  8.00000000E-01
  1.50000000E+00  8.00000000E-01  8.00000000E-01  1.50000000E+00  8.00000000E-01
  8.00000000E-01  1.50000000E+00  8.00000000E-01  8.00000000E-01  1.50000000E+00
  8.00000000E-01  8.00000000E-01  1.50000000E+00  8.00000000E-01  8.00000000E-01
  1.50000000E+00  8.00000000E-01  8.00000000E-01  1.50000000E+00  8.00000000E-01
  8.00000000E-01  1.50000000E+00  8.00000000E-01  8.00000000E-01  1.50000000E+00
  8.00000000E-01  8.00000000E-01  1.50000000E+00  8.00000000E-01  8.00000000E-01
  1.50000000E+00  8.00000000E-01  8.00000000E-01  1.50000000E+00  8.00000000E-01
  8.00000000E-01  1.50000000E+00  8.00000000E-01  8.00000000E-01  1.50000000E+00
  8.00000000E-01  8.00000000E-01  1.50000000E+00  8.00000000E-01  8.00000000E-01
  1.50000000E+00  8.00000000E-01  8.00000000E-01  1.50000000E+00  8.00000000E-01
  8.00000000E-01  1.50000000E+00  8.00000000E-01  8.00000000E-01  1.50000000E+00
  8.00000000E-01  8.00000000E-01  1.50000000E+00  8.00000000E-01  8.00000000E-01
  1.50000000E+00  8.00000000E-01  8.00000000E-01  1.50000000E+00  8.00000000E-01
  8.00000000E-01  1.50000000E+00  8.00000000E-01  8.00000000E-01  1.50000000E+00
  8.00000000E-01  8.00000000E-01  1.50000000E+00  8.00000000E-01  8.00000000E-01
  1.50000000E+00  8.00000000E-01  8.00000000E-01  1.50000000E+00  8.00000000E-01
  8.00000000E-01  1.50000000E+00  8.00000000E-01  8.00000000E-01  1.50000000E+00
  8.00000000E-01  8.00000000E-01  1.50000000E+00  8.00000000E-01  8.00000000E-01
  1.50000000E+00  8.00000000E-01  8.00000000E-01  1.50000000E+00  8.00000000E-01
  8.00000000E-01  1.50000000E+00  8.00000000E-01  8.00000000E-01  1.50000000E+00
  8.00000000E-01  8.00000000E-01  1.50000000E+00  8.00000000E-01  8.00000000E-01
  1.50000000E+00  8.00000000E-01  8.00000000E-01  1.50000000E+00  8.00000000E-01
  8.00000000E-01  1.50000000E+00  8.00000000E-01  8.00000000E-01  1.50000000E+00
  8.00000000E-01  8.00000000E-01  1.50000000E+00  8.00000000E-01  8.00000000E-01
  1.50000000E+00  8.00000000E-01  8.00000000E-01  1.50000000E+00  8.00000000E-01
  8.00000000E-01  1.50000000E+00  8.00000000E-01  8.00000000E-01  1.50000000E+00
  8.00000000E-01  8.00000000E-01  1.50000000E+00  8.00000000E-01  8.00000000E-01
  1.50000000E+00  8.00000000E-01  8.00000000E-01  1.50000000E+00  8.00000000E-01
  8.00000000E-01  1.50000000E+00  8.00000000E-01  8.00000000E-01  1.50000000E+00
  8.00000000E-01  8.00000000E-01  1.50000000E+00  8.00000000E-01  8.00000000E-01
  1.50000000E+00  8.00000000E-01  8.00000000E-01  1.50000000E+00  8.00000000E-01
  8.00000000E-01  1.50000000E+00  8.00000000E-01  8.00000000E-01  1.50000000E+00
  8.00000000E-01  8.00000000E-01  1.50000000E+00  8.00000000E-01  8.00000000E-01
  1.50000000E+00  8.00000000E-01  8.00000000E-01  1.50000000E+00  8.00000000E-01
  8.00000000E-01  1.50000000E+00  8.00000000E-01  8.00000000E-01  1.50000000E+00
  8.00000000E-01  8.00000000E-01  1.50000000E+00  8.00000000E-01  8.00000000E-01
  1.50000000E+00  8.00000000E-01  8.00000000E-01  1.50000000E+00  8.00000000E-01
  8.00000000E-01  1.50000000E+00  8.00000000E-01  8.00000000E-01  1.50000000E+00
  8.00000000E-01  8.00000000E-01  1.50000000E+00  8.00000000E-01  8.00000000E-01
  1.50000000E+00  8.00000000E-01  8.00000000E-01  1.50000000E+00  8.00000000E-01
  8.00000000E-01  1.50000000E+00  8.00000000E-01  8.00000000E-01  1.50000000E+00
  8.00000000E-01  8.00000000E-01  1.50000000E+00  8.00000000E-01  8.00000000E-01
  1.50000000E+00  8.00000000E-01  8.00000000E-01  1.50000000E+00  8.00000000E-01
  8.00000000E-01  1.50000000E+00  8.00000000E-01  8.00000000E-01  1.50000000E+00
  8.00000000E-01  8.00000000E-01  1.50000000E+00  8.00000000E-01  8.00000000E-01
  1.50000000E+00  8.00000000E-01  8.00000000E-01  1.50000000E+00  8.00000000E-01
  8.00000000E-01  1.50000000E+00  8.00000000E-01  8.00000000E-01  1.50000000E+00
  8.00000000E-01  8.00000000E-01  1.50000000E+00  8.00000000E-01  8.00000000E-01
  1.50000000E+00  8.00000000E-01  8.00000000E-01  1.50000000E+00  8.00000000E-01
  8.00000000E-01  1.50000000E+00  8.00000000E-01  8.00000000E-01  1.50000000E+00
  8.00000000E-01  8.00000000E-01  1.50000000E+00  8.00000000E-01  8.00000000E-01
  1.50000000E+00  8.00000000E-01  8.00000000E-01  1.50000000E+00  8.00000000E-01
  8.00000000E-01  1.50000000E+00  8.00000000E-01  8.00000000E-01  1.50000000E+00
  8.00000000E-01  8.00000000E-01  1.50000000E+00  8.00000000E-01  8.00000000E-01
  1.50000000E+00  8.00000000E-01  8.00000000E-01  1.50000000E+00  8.00000000E-01
  8.00000000E-01  1.50000000E+00  8.00000000E-01  8.00000000E-01  1.50000000E+00
  8.00000000E-01  8.00000000E-01  1.50000000E+00  8.00000000E-01  8.00000000E-01
  1.50000000E+00  8.00000000E-01  8.00000000E-01  1.50000000E+00  8.00000000E-01
  8.00000000E-01  1.50000000E+00  8.00000000E-01  8.00000000E-01  1.50000000E+00
  8.00000000E-01  8.00000000E-01  1.50000000E+00  8.00000000E-01  8.00000000E-01
  1.50000000E+00  8.00000000E-01  8.00000000E-01  1.50000000E+00  8.00000000E-01
  8.00000000E-01  1.50000000E+00  8.00000000E-01  8.00000000E-01  1.50000000E+00
  8.00000000E-01  8.00000000E-01  1.50000000E+00  8.00000000E-01  8.00000000E-01
  1.50000000E+00  8.00000000E-01  8.00000000E-01  1.50000000E+00  8.00000000E-01
  8.00000000E-01  1.50000000E+00  8.00000000E-01  8.00000000E-01  1.50000000E+00
  8.00000000E-01  8.00000000E-01  1.50000000E+00  8.00000000E-01  8.00000000E-01
  1.50000000E+00  8.00000000E-01  8.00000000E-01  1.50000000E+00  8.00000000E-01
  8.00000000E-01  1.50000000E+00  8.00000000E-01  8.00000000E-01  1.50000000E+00
  8.00000000E-01  8.00000000E-01  1.50000000E+00  8.00000000E-01  8.00000000E-01
  1.50000000E+00  8.00000000E-01  8.00000000E-01  1.50000000E+00  8.00000000E-01
  8.00000000E-01  1.50000000E+00  8.00000000E-01  8.00000000E-01  1.50000000E+00
  8.00000000E-01  8.00000000E-01  1.50000000E+00  8.00000000E-01  8.00000000E-01
  1.50000000E+00  8.00000000E-01  8.00000000E-01  1.50000000E+00  8.00000000E-01
  8.00000000E-01  1.50000000E+00  8.00000000E-01  8.00000000E-01  1.50000000E+00
  8.00000000E-01  8.00000000E-01  1.50000000E+00  8.00000000E-01  8.00000000E-01
  1.50000000E+00  8.00000000E-01  8.00000000E-01  1.50000000E+00  8.00000000E-01
  8.00000000E-01  1.50000000E+00  8.00000000E-01  8.00000000E-01  1.50000000E+00
  8.00000000E-01  8.00000000E-01  1.50000000E+00  8.00000000E-01  8.00000000E-01
  1.50000000E+00  8.00000000E-01  8.00000000E-01  1.50000000E+00  8.00000000E-01
  8.00000000E-01  1.50000000E+00  8.00000000E-01  8.00000000E-01  1.50000000E+00
  8.00000000E-01  8.00000000E-01  1.50000000E+00  8.00000000E-01  8.00000000E-01
  1.50000000E+00  8.00000000E-01  8.00000000E-01  1.50000000E+00  8.00000000E-01
  8.00000000E-01  1.50000000E+00  8.00000000E-01  8.00000000E-01  1.50000000E+00
  8.00000000E-01  8.00000000E-01  1.50000000E+00  8.00000000E-01  8.00000000E-01
  1.50000000E+00  8.00000000E-01  8.00000000E-01  1.50000000E+00  8.00000000E-01
  8.00000000E-01  1.50000000E+00  8.00000000E-01  8.00000000E-01  1.50000000E+00
  8.00000000E-01  8.00000000E-01  1.50000000E+00  8.00000000E-01  8.00000000E-01
  1.50000000E+00  8.00000000E-01  8.00000000E-01  1.50000000E+00  8.00000000E-01
  8.00000000E-01  1.50000000E+00  8.00000000E-01  8.00000000E-01  1.50000000E+00
  8.00000000E-01  8.00000000E-01  1.50000000E+00  8.00000000E-01  8.00000000E-01
  1.50000000E+00  8.00000000E-01  8.00000000E-01  1.50000000E+00  8.00000000E-01
  8.00000000E-01  1.50000000E+00  8.00000000E-01  8.00000000E-01  1.50000000E+00
  8.00000000E-01  8.00000000E-01  1.50000000E+00  8.00000000E-01  8.00000000E-01
  1.50000000E+00  8.00000000E-01  8.00000000E-01  1.50000000E+00  8.00000000E-01
  8.00000000E-01  1.50000000E+00  8.00000000E-01  8.00000000E-01  1.50000000E+00
  8.00000000E-01  8.00000000E-01  1.50000000E+00  8.00000000E-01  8.00000000E-01
  1.50000000E+00  8.00000000E-01  8.00000000E-01  1.50000000E+00  8.00000000E-01
  8.00000000E-01  1.50000000E+00  8.00000000E-01  8.00000000E-01  1.50000000E+00
  8.00000000E-01  8.00000000E-01  1.50000000E+00  8.00000000E-01  8.00000000E-01
  1.50000000E+00  8.00000000E-01  8.00000000E-01  1.50000000E+00  8.00000000E-01
  8.00000000E-01  1.50000000E+00  8.00000000E-01  8.00000000E-01  1.50000000E+00
  8.00000000E-01  8.00000000E-01  1.50000000E+00  8.00000000E-01  8.00000000E-01
  1.50000000E+00  8.00000000E-01  8.00000000E-01  1.50000000E+00  8.00000000E-01
  8.00000000E-01  1.50000000E+00  8.00000000E-01  8.00000000E-01  1.50000000E+00
  8.00000000E-01  8.00000000E-01  1.50000000E+00  8.00000000E-01  8.00000000E-01
  1.50000000E+00  8.00000000E-01  8.00000000E-01  1.50000000E+00  8.00000000E-01
  8.00000000E-01  1.50000000E+00  8.00000000E-01  8.00000000E-01  1.50000000E+00
  8.00000000E-01  8.00000000E-01  1.50000000E+00  8.00000000E-01  8.00000000E-01
  1.50000000E+00  8.00000000E-01  8.00000000E-01  1.50000000E+00  8.00000000E-01
  8.00000000E-01  1.50000000E+00  8.00000000E-01  8.00000000E-01  1.50000000E+00
  8.00000000E-01  8.00000000E-01  1.50000000E+00  8.00000000E-01  8.00000000E-01
  1.50000000E+00  8.00000000E-01  8.00000000E-01  1.50000000E+00  8.00000000E-01
  8.00000000E-01  1.50000000E+00  8.00000000E-01  8.00000000E-01  1.50000000E+00
  8.00000000E-01  8.00000000E-01  1.50000000E+00  8.00000000E-01  8.00000000E-01
  1.50000000E+00  8.00000000E-01  8.00000000E-01  1.50000000E+00  8.00000000E-01
  8.00000000E-01  1.50000000E+00  8.00000000E-01  8.00000000E-01  1.50000000E+00
  8.00000000E-01  8.00000000E-01  1.50000000E+00  8.00000000E-01  8.00000000E-01
  1.50000000E+00  8.00000000E-01  8.00000000E-01  1.50000000E+00  8.00000000E-01
  8.00000000E-01  1.50000000E+00  8.00000000E-01  8.00000000E-01  1.50000000E+00
  8.00000000E-01  8.00000000E-01  1.50000000E+00  8.00000000E-01  8.00000000E-01
  1.50000000E+00  8.00000000E-01  8.00000000E-01  1.50000000E+00  8.00000000E-01
  8.00000000E-01  1.50000000E+00  8.00000000E-01  8.00000000E-01  1.50000000E+00
  8.00000000E-01  8.00000000E-01  1.50000000E+00  8.00000000E-01  8.00000000E-01
  1.50000000E+00  8.00000000E-01  8.00000000E-01  1.50000000E+00  8.00000000E-01
  8.00000000E-01  1.50000000E+00  8.00000000E-01  8.00000000E-01  1.50000000E+00
  8.00000000E-01  8.00000000E-01  1.50000000E+00  8.00000000E-01  8.00000000E-01
  1.50000000E+00  8.00000000E-01  8.00000000E-01  1.50000000E+00  8.00000000E-01
  8.00000000E-01  1.50000000E+00  8.00000000E-01  8.00000000E-01  1.50000000E+00
  8.00000000E-01  8.00000000E-01  1.50000000E+00  8.00000000E-01  8.00000000E-01
  1.50000000E+00  8.00000000E-01  8.00000000E-01  1.50000000E+00  8.00000000E-01
  8.00000000E-01  1.50000000E+00  8.00000000E-01  8.00000000E-01  1.50000000E+00
  8.00000000E-01  8.00000000E-01  1.50000000E+00  8.00000000E-01  8.00000000E-01
  1.50000000E+00  8.00000000E-01  8.00000000E-01  1.50000000E+00  8.00000000E-01
  8.00000000E-01  1.50000000E+00  8.00000000E-01  8.00000000E-01  1.50000000E+00
  8.00000000E-01  8.00000000E-01  1.50000000E+00  8.00000000E-01  8.00000000E-01
  1.50000000E+00  8.00000000E-01  8.00000000E-01  1.50000000E+00  8.00000000E-01
  8.00000000E-01  1.50000000E+00  8.00000000E-01  8.00000000E-01  1.50000000E+00
  8.00000000E-01  8.00000000E-01  1.50000000E+00  8.00000000E-01  8.00000000E-01
  1.50000000E+00  8.00000000E-01  8.00000000E-01  1.50000000E+00  8.00000000E-01
  8.00000000E-01  1.50000000E+00  8.00000000E-01  8.00000000E-01  1.50000000E+00
  8.00000000E-01  8.00000000E-01  1.50000000E+00  8.00000000E-01  8.00000000E-01
  1.50000000E+00  8.00000000E-01  8.00000000E-01  1.50000000E+00  8.00000000E-01
  8.00000000E-01  1.50000000E+00  8.00000000E-01  8.00000000E-01  1.50000000E+00
  8.00000000E-01  8.00000000E-01  1.50000000E+00  8.00000000E-01  8.00000000E-01
  1.50000000E+00  8.00000000E-01  8.00000000E-01  1.50000000E+00  8.00000000E-01
  8.00000000E-01  1.50000000E+00  8.00000000E-01  8.00000000E-01  1.50000000E+00
  8.00000000E-01  8.00000000E-01  1.50000000E+00  8.00000000E-01  8.00000000E-01
  1.50000000E+00  8.00000000E-01  8.00000000E-01  1.50000000E+00  8.00000000E-01
  8.00000000E-01  1.50000000E+00  8.00000000E-01  8.00000000E-01  1.50000000E+00
  8.00000000E-01  8.00000000E-01  1.50000000E+00  8.00000000E-01  8.00000000E-01
  1.50000000E+00  8.00000000E-01  8.00000000E-01  1.50000000E+00  8.00000000E-01
  8.00000000E-01  1.50000000E+00  8.00000000E-01  8.00000000E-01  1.50000000E+00
  8.00000000E-01  8.00000000E-01  1.50000000E+00  8.00000000E-01  8.00000000E-01
  1.50000000E+00  8.00000000E-01  8.00000000E-01  1.50000000E+00  8.00000000E-01
  8.00000000E-01  1.50000000E+00  8.00000000E-01  8.00000000E-01  1.50000000E+00
  8.00000000E-01  8.00000000E-01  1.50000000E+00  8.00000000E-01  8.00000000E-01
  1.50000000E+00  8.00000000E-01  8.00000000E-01  1.50000000E+00  8.00000000E-01
  8.00000000E-01  1.50000000E+00  8.00000000E-01  8.00000000E-01  1.50000000E+00
  8.00000000E-01  8.00000000E-01  1.50000000E+00  8.00000000E-01  8.00000000E-01
  1.50000000E+00  8.00000000E-01  8.00000000E-01  1.50000000E+00  8.00000000E-01
  8.00000000E-01  1.50000000E+00  8.00000000E-01  8.00000000E-01  1.50000000E+00
  8.00000000E-01  8.00000000E-01  1.50000000E+00  8.00000000E-01  8.00000000E-01
  1.50000000E+00  8.00000000E-01  8.00000000E-01  1.50000000E+00  8.00000000E-01
  8.00000000E-01  1.50000000E+00  8.00000000E-01  8.00000000E-01  1.50000000E+00
  8.00000000E-01  8.00000000E-01  1.50000000E+00  8.00000000E-01  8.00000000E-01
  1.50000000E+00  8.00000000E-01  8.00000000E-01  1.50000000E+00  8.00000000E-01
  8.00000000E-01  1.50000000E+00  8.00000000E-01  8.00000000E-01  1.50000000E+00
  8.00000000E-01  8.00000000E-01  1.50000000E+00  8.00000000E-01  8.00000000E-01
  1.50000000E+00  8.00000000E-01  8.00000000E-01  1.50000000E+00  8.00000000E-01
  8.00000000E-01  1.50000000E+00  8.00000000E-01  8.00000000E-01  1.50000000E+00
  8.00000000E-01  8.00000000E-01  1.50000000E+00  8.00000000E-01  8.00000000E-01
  1.50000000E+00  8.00000000E-01  8.00000000E-01  1.50000000E+00  8.00000000E-01
  8.00000000E-01  1.50000000E+00  8.00000000E-01  8.00000000E-01  1.50000000E+00
  8.00000000E-01  8.00000000E-01  1.50000000E+00  8.00000000E-01  8.00000000E-01
  1.50000000E+00  8.00000000E-01  8.00000000E-01  1.50000000E+00  8.00000000E-01
  8.00000000E-01  1.50000000E+00  8.00000000E-01  8.00000000E-01  1.50000000E+00
  8.00000000E-01  8.00000000E-01  1.50000000E+00  8.00000000E-01  8.00000000E-01
  1.50000000E+00  8.00000000E-01  8.00000000E-01  1.50000000E+00  8.00000000E-01
  8.00000000E-01  1.50000000E+00  8.00000000E-01  8.00000000E-01  1.50000000E+00
  8.00000000E-01  8.00000000E-01  1.50000000E+00  8.00000000E-01  8.00000000E-01
  1.50000000E+00  8.00000000E-01  8.00000000E-01  1.50000000E+00  8.00000000E-01
  8.00000000E-01  1.50000000E+00  8.00000000E-01  8.00000000E-01  1.50000000E+00
  8.00000000E-01  8.00000000E-01  1.50000000E+00  8.00000000E-01  8.00000000E-01
  1.50000000E+00  8.00000000E-01  8.00000000E-01  1.50000000E+00  8.00000000E-01
  8.00000000E-01  1.50000000E+00  8.00000000E-01  8.00000000E-01  1.50000000E+00
  8.00000000E-01  8.00000000E-01  1.50000000E+00  8.00000000E-01  8.00000000E-01
  1.50000000E+00  8.00000000E-01  8.00000000E-01  1.50000000E+00  8.00000000E-01
  8.00000000E-01  1.50000000E+00  8.00000000E-01  8.00000000E-01  1.50000000E+00
  8.00000000E-01  8.00000000E-01  1.50000000E+00  8.00000000E-01  8.00000000E-01
  1.50000000E+00  8.00000000E-01  8.00000000E-01  1.50000000E+00  8.00000000E-01
  8.00000000E-01  1.50000000E+00  8.00000000E-01  8.00000000E-01  1.50000000E+00
  8.00000000E-01  8.00000000E-01  1.50000000E+00  8.00000000E-01  8.00000000E-01
  1.50000000E+00  8.00000000E-01  8.00000000E-01  1.50000000E+00  8.00000000E-01
  8.00000000E-01  1.50000000E+00  8.00000000E-01  8.00000000E-01  1.50000000E+00
  8.00000000E-01  8.00000000E-01  1.50000000E+00  8.00000000E-01  8.00000000E-01
  1.50000000E+00  8.00000000E-01  8.00000000E-01  1.50000000E+00  8.00000000E-01
  8.00000000E-01  1.50000000E+00  8.00000000E-01  8.00000000E-01  1.50000000E+00
  8.00000000E-01  8.00000000E-01  1.50000000E+00  8.00000000E-01  8.00000000E-01
  1.50000000E+00  8.00000000E-01  8.00000000E-01  1.50000000E+00  8.00000000E-01
  8.00000000E-01  1.50000000E+00  8.00000000E-01  8.00000000E-01  1.50000000E+00
  8.00000000E-01  8.00000000E-01  1.50000000E+00  8.00000000E-01  8.00000000E-01
  1.50000000E+00  8.00000000E-01  8.00000000E-01  1.50000000E+00  8.00000000E-01
  8.00000000E-01  1.50000000E+00  8.00000000E-01  8.00000000E-01  1.50000000E+00
  8.00000000E-01  8.00000000E-01  1.50000000E+00  8.00000000E-01  8.00000000E-01
  1.50000000E+00  8.00000000E-01  8.00000000E-01  1.50000000E+00  8.00000000E-01
  8.00000000E-01  1.50000000E+00  8.00000000E-01  8.00000000E-01  1.50000000E+00
  8.00000000E-01  8.00000000E-01  1.50000000E+00  8.00000000E-01  8.00000000E-01
  1.50000000E+00  8.00000000E-01  8.00000000E-01  1.50000000E+00  8.00000000E-01
  8.00000000E-01  1.50000000E+00  8.00000000E-01  8.00000000E-01  1.50000000E+00
  8.00000000E-01  8.00000000E-01  1.50000000E+00  8.00000000E-01  8.00000000E-01
  1.50000000E+00  8.00000000E-01  8.00000000E-01  1.50000000E+00  8.00000000E-01
  8.00000000E-01  1.50000000E+00  8.00000000E-01  8.00000000E-01  1.50000000E+00
  8.00000000E-01  8.00000000E-01  1.50000000E+00  8.00000000E-01  8.00000000E-01
  1.50000000E+00  8.00000000E-01  8.00000000E-01  1.50000000E+00  8.00000000E-01
  8.00000000E-01  1.50000000E+00  8.00000000E-01  8.00000000E-01  1.50000000E+00
  8.00000000E-01  8.00000000E-01  1.50000000E+00  8.00000000E-01  8.00000000E-01
  1.50000000E+00  8.00000000E-01  8.00000000E-01  1.50000000E+00  8.00000000E-01
  8.00000000E-01  1.50000000E+00  8.00000000E-01  8.00000000E-01  1.50000000E+00
  8.00000000E-01  8.00000000E-01  1.50000000E+00  8.00000000E-01  8.00000000E-01
  1.50000000E+00  8.00000000E-01  8.00000000E-01  1.50000000E+00  8.00000000E-01
  8.00000000E-01  1.50000000E+00  8.00000000E-01  8.00000000E-01  1.50000000E+00
  8.00000000E-01  8.00000000E-01  1.50000000E+00  8.00000000E-01  8.00000000E-01
  1.50000000E+00  8.00000000E-01  8.00000000E-01  1.50000000E+00  8.00000000E-01
  8.00000000E-01  1.50000000E+00  8.00000000E-01  8.00000000E-01  1.50000000E+00
  8.00000000E-01  8.00000000E-01  1.50000000E+00  8.00000000E-01  8.00000000E-01
  1.50000000E+00  8.00000000E-01  8.00000000E-01  1.50000000E+00  8.00000000E-01
  8.00000000E-01  1.50000000E+00  8.00000000E-01  8.00000000E-01  1.50000000E+00
  8.00000000E-01  8.00000000E-01  1.50000000E+00  8.00000000E-01  8.00000000E-01
  1.50000000E+00  8.00000000E-01  8.00000000E-01  1.50000000E+00  8.00000000E-01
  8.00000000E-01  1.50000000E+00  8.00000000E-01  8.00000000E-01  1.50000000E+00
  8.00000000E-01  8.00000000E-01  1.50000000E+00  8.00000000E-01  8.00000000E-01
  1.50000000E+00  8.00000000E-01  8.00000000E-01  1.50000000E+00  8.00000000E-01
  8.00000000E-01  1.50000000E+00  8.00000000E-01  8.00000000E-01  1.50000000E+00
  8.00000000E-01  8.00000000E-01  1.50000000E+00  8.00000000E-01  8.00000000E-01
  1.50000000E+00  8.00000000E-01  8.00000000E-01  1.50000000E+00  8.00000000E-01
  8.00000000E-01  1.50000000E+00  8.00000000E-01  8.00000000E-01  1.50000000E+00
  8.00000000E-01  8.00000000E-01  1.50000000E+00  8.00000000E-01  8.00000000E-01
  1.50000000E+00  8.00000000E-01  8.00000000E-01  1.50000000E+00  8.00000000E-01
  8.00000000E-01  1.50000000E+00  8.00000000E-01  8.00000000E-01  1.50000000E+00
  8.00000000E-01  8.00000000E-01  1.50000000E+00  8.00000000E-01  8.00000000E-01
  1.50000000E+00  8.00000000E-01  8.00000000E-01  1.50000000E+00  8.00000000E-01
  8.00000000E-01  1.50000000E+00  8.00000000E-01  8.00000000E-01  1.50000000E+00
  8.00000000E-01  8.00000000E-01  1.50000000E+00  8.00000000E-01  8.00000000E-01
  1.50000000E+00  8.00000000E-01  8.00000000E-01  1.50000000E+00  8.00000000E-01
  8.00000000E-01  1.50000000E+00  8.00000000E-01  8.00000000E-01  1.50000000E+00
  8.00000000E-01  8.00000000E-01  1.50000000E+00  8.00000000E-01  8.00000000E-01
  1.50000000E+00  8.00000000E-01  8.00000000E-01  1.50000000E+00  8.00000000E-01
  8.00000000E-01  1.50000000E+00  8.00000000E-01  8.00000000E-01  1.50000000E+00
  8.00000000E-01  8.00000000E-01  1.50000000E+00  8.00000000E-01  8.00000000E-01
  1.50000000E+00  8.00000000E-01  8.00000000E-01  1.50000000E+00  8.00000000E-01
  8.00000000E-01  1.50000000E+00  8.00000000E-01  8.00000000E-01  1.50000000E+00
  8.00000000E-01  8.00000000E-01  1.50000000E+00  8.00000000E-01  8.00000000E-01
  1.50000000E+00  8.00000000E-01  8.00000000E-01  1.50000000E+00  8.00000000E-01
  8.00000000E-01  1.50000000E+00  8.00000000E-01  8.00000000E-01  1.50000000E+00
  8.00000000E-01  8.00000000E-01  1.50000000E+00  8.00000000E-01  8.00000000E-01
  1.50000000E+00  8.00000000E-01  8.00000000E-01  1.50000000E+00  8.00000000E-01
  8.00000000E-01  1.50000000E+00  8.00000000E-01  8.00000000E-01  1.50000000E+00
  8.00000000E-01  8.00000000E-01  1.50000000E+00  8.00000000E-01  8.00000000E-01
  1.50000000E+00  8.00000000E-01  8.00000000E-01  1.50000000E+00  8.00000000E-01
  8.00000000E-01  1.50000000E+00  8.00000000E-01  8.00000000E-01  1.50000000E+00
  8.00000000E-01  8.00000000E-01  1.50000000E+00  8.00000000E-01  8.00000000E-01
  1.50000000E+00  8.00000000E-01  8.00000000E-01  1.50000000E+00  8.00000000E-01
  8.00000000E-01  1.50000000E+00  8.00000000E-01  8.00000000E-01  1.50000000E+00
  8.00000000E-01  8.00000000E-01  1.50000000E+00  8.00000000E-01  8.00000000E-01
  1.50000000E+00  8.00000000E-01  8.00000000E-01  1.50000000E+00  8.00000000E-01
  8.00000000E-01  1.50000000E+00  8.00000000E-01  8.00000000E-01  1.50000000E+00
  8.00000000E-01  8.00000000E-01  1.50000000E+00  8.00000000E-01  8.00000000E-01
  1.50000000E+00  8.00000000E-01  8.00000000E-01  1.50000000E+00  8.00000000E-01
  8.00000000E-01  1.50000000E+00  8.00000000E-01  8.00000000E-01  1.50000000E+00
  8.00000000E-01  8.00000000E-01  1.50000000E+00  8.00000000E-01  8.00000000E-01
  1.50000000E+00  8.00000000E-01  8.00000000E-01  1.50000000E+00  8.00000000E-01
  8.00000000E-01  1.50000000E+00  8.00000000E-01  8.00000000E-01  1.50000000E+00
  8.00000000E-01  8.00000000E-01  1.50000000E+00  8.00000000E-01  8.00000000E-01
  1.50000000E+00  8.00000000E-01  8.00000000E-01  1.50000000E+00  8.00000000E-01
  8.00000000E-01  1.50000000E+00  8.00000000E-01  8.00000000E-01  1.50000000E+00
  8.00000000E-01  8.00000000E-01  1.50000000E+00  8.00000000E-01  8.00000000E-01
  1.50000000E+00  8.00000000E-01  8.00000000E-01  1.50000000E+00  8.00000000E-01
  8.00000000E-01  1.50000000E+00  8.00000000E-01  8.00000000E-01  1.50000000E+00
  8.00000000E-01  8.00000000E-01  1.50000000E+00  8.00000000E-01  8.00000000E-01
  1.50000000E+00  8.00000000E-01  8.00000000E-01  1.50000000E+00  8.00000000E-01
  8.00000000E-01  1.50000000E+00  8.00000000E-01  8.00000000E-01  1.50000000E+00
  8.00000000E-01  8.00000000E-01  1.50000000E+00  8.00000000E-01  8.00000000E-01
  1.50000000E+00  8.00000000E-01  8.00000000E-01  1.50000000E+00  8.00000000E-01
  8.00000000E-01  1.50000000E+00  8.00000000E-01  8.00000000E-01  1.50000000E+00
  8.00000000E-01  8.00000000E-01  1.50000000E+00  8.00000000E-01  8.00000000E-01
  1.50000000E+00  8.00000000E-01  8.00000000E-01  1.50000000E+00  8.00000000E-01
  8.00000000E-01  1.50000000E+00  8.00000000E-01  8.00000000E-01  1.50000000E+00
  8.00000000E-01  8.00000000E-01  1.50000000E+00  8.00000000E-01  8.00000000E-01
  1.50000000E+00  8.00000000E-01  8.00000000E-01  1.50000000E+00  8.00000000E-01
  8.00000000E-01  1.50000000E+00  8.00000000E-01  8.00000000E-01  1.50000000E+00
  8.00000000E-01  8.00000000E-01  1.50000000E+00  8.00000000E-01  8.00000000E-01
  1.50000000E+00  8.00000000E-01  8.00000000E-01  1.50000000E+00  8.00000000E-01
  8.00000000E-01  1.50000000E+00  8.00000000E-01  8.00000000E-01  1.50000000E+00
  8.00000000E-01  8.00000000E-01  1.50000000E+00  8.00000000E-01  8.00000000E-01
  1.50000000E+00  8.00000000E-01  8.00000000E-01  1.50000000E+00  8.00000000E-01
  8.00000000E-01  1.50000000E+00  8.00000000E-01  8.00000000E-01  1.50000000E+00
  8.00000000E-01  8.00000000E-01  1.50000000E+00  8.00000000E-01  8.00000000E-01
  1.50000000E+00  8.00000000E-01  8.00000000E-01  1.50000000E+00  8.00000000E-01
  8.00000000E-01  1.50000000E+00  8.00000000E-01  8.00000000E-01  1.50000000E+00
  8.00000000E-01  8.00000000E-01  1.50000000E+00  8.00000000E-01  8.00000000E-01
  1.50000000E+00  8.00000000E-01  8.00000000E-01  1.50000000E+00  8.00000000E-01
  8.00000000E-01  1.50000000E+00  8.00000000E-01  8.00000000E-01  1.50000000E+00
  8.00000000E-01  8.00000000E-01  1.50000000E+00  8.00000000E-01  8.00000000E-01
  1.50000000E+00  8.00000000E-01  8.00000000E-01  1.50000000E+00  8.00000000E-01
  8.00000000E-01  1.50000000E+00  8.00000000E-01  8.00000000E-01  1.50000000E+00
  8.00000000E-01  8.00000000E-01  1.50000000E+00  8.00000000E-01  8.00000000E-01
  1.50000000E+00  8.00000000E-01  8.00000000E-01  1.50000000E+00  8.00000000E-01
  8.00000000E-01  1.50000000E+00  8.00000000E-01  8.00000000E-01  1.50000000E+00
  8.00000000E-01  8.00000000E-01  1.50000000E+00  8.00000000E-01  8.00000000E-01
  1.50000000E+00  8.00000000E-01  8.00000000E-01  1.50000000E+00  8.00000000E-01
  8.00000000E-01  1.50000000E+00  8.00000000E-01  8.00000000E-01  1.50000000E+00
  8.00000000E-01  8.00000000E-01  1.50000000E+00  8.00000000E-01  8.00000000E-01
  1.50000000E+00  8.00000000E-01  8.00000000E-01  1.50000000E+00  8.00000000E-01
  8.00000000E-01  1.50000000E+00  8.00000000E-01  8.00000000E-01  1.50000000E+00
  8.00000000E-01  8.00000000E-01  1.50000000E+00  8.00000000E-01  8.00000000E-01
  1.50000000E+00  8.00000000E-01  8.00000000E-01  1.50000000E+00  8.00000000E-01
  8.00000000E-01  1.50000000E+00  8.00000000E-01  8.00000000E-01  1.50000000E+00
  8.00000000E-01  8.00000000E-01  1.50000000E+00  8.00000000E-01  8.00000000E-01
  1.50000000E+00  8.00000000E-01  8.00000000E-01  1.50000000E+00  8.00000000E-01
  8.00000000E-01  1.50000000E+00  8.00000000E-01  8.00000000E-01  1.50000000E+00
  8.00000000E-01  8.00000000E-01  1.50000000E+00  8.00000000E-01  8.00000000E-01
  1.50000000E+00  8.00000000E-01  8.00000000E-01  1.50000000E+00  8.00000000E-01
  8.00000000E-01  1.50000000E+00  8.00000000E-01  8.00000000E-01  1.50000000E+00
  8.00000000E-01  8.00000000E-01  1.50000000E+00  8.00000000E-01  8.00000000E-01
  1.50000000E+00  8.00000000E-01  8.00000000E-01  1.50000000E+00  8.00000000E-01
  8.00000000E-01  1.50000000E+00  8.00000000E-01  8.00000000E-01  1.50000000E+00
  8.00000000E-01  8.00000000E-01  1.50000000E+00  8.00000000E-01  8.00000000E-01
  1.50000000E+00  8.00000000E-01  8.00000000E-01  1.50000000E+00  8.00000000E-01
  8.00000000E-01  1.50000000E+00  8.00000000E-01  8.00000000E-01  1.50000000E+00
  8.00000000E-01  8.00000000E-01  1.50000000E+00  8.00000000E-01  8.00000000E-01
  1.50000000E+00  8.00000000E-01  8.00000000E-01  1.50000000E+00  8.00000000E-01
  8.00000000E-01  1.50000000E+00  8.00000000E-01  8.00000000E-01  1.50000000E+00
  8.00000000E-01  8.00000000E-01  1.50000000E+00  8.00000000E-01  8.00000000E-01
  1.50000000E+00  8.00000000E-01  8.00000000E-01  1.50000000E+00  8.00000000E-01
  8.00000000E-01  1.50000000E+00  8.00000000E-01  8.00000000E-01  1.50000000E+00
  8.00000000E-01  8.00000000E-01  1.50000000E+00  8.00000000E-01  8.00000000E-01
  1.50000000E+00  8.00000000E-01  8.00000000E-01  1.50000000E+00  8.00000000E-01
  8.00000000E-01  1.50000000E+00  8.00000000E-01  8.00000000E-01  1.50000000E+00
  8.00000000E-01  8.00000000E-01  1.50000000E+00  8.00000000E-01  8.00000000E-01
  1.50000000E+00  8.00000000E-01  8.00000000E-01  1.50000000E+00  8.00000000E-01
  8.00000000E-01  1.50000000E+00  8.00000000E-01  8.00000000E-01  1.50000000E+00
  8.00000000E-01  8.00000000E-01  1.50000000E+00  8.00000000E-01  8.00000000E-01
  1.50000000E+00  8.00000000E-01  8.00000000E-01  1.50000000E+00  8.00000000E-01
  8.00000000E-01  1.50000000E+00  8.00000000E-01  8.00000000E-01  1.50000000E+00
  8.00000000E-01  8.00000000E-01  1.50000000E+00  8.00000000E-01  8.00000000E-01
  1.50000000E+00  8.00000000E-01  8.00000000E-01  1.50000000E+00  8.00000000E-01
  8.00000000E-01  1.50000000E+00  8.00000000E-01  8.00000000E-01  1.50000000E+00
  8.00000000E-01  8.00000000E-01  1.50000000E+00  8.00000000E-01  8.00000000E-01
  1.50000000E+00  8.00000000E-01  8.00000000E-01  1.50000000E+00  8.00000000E-01
  8.00000000E-01  1.50000000E+00  8.00000000E-01  8.00000000E-01  1.50000000E+00
  8.00000000E-01  8.00000000E-01  1.50000000E+00  8.00000000E-01  8.00000000E-01
  1.50000000E+00  8.00000000E-01  8.00000000E-01  1.50000000E+00  8.00000000E-01
  8.00000000E-01  1.50000000E+00  8.00000000E-01  8.00000000E-01  1.50000000E+00
  8.00000000E-01  8.00000000E-01  1.50000000E+00  8.00000000E-01  8.00000000E-01
  1.50000000E+00  8.00000000E-01  8.00000000E-01  1.50000000E+00  8.00000000E-01
  8.00000000E-01  1.50000000E+00  8.00000000E-01  8.00000000E-01  1.50000000E+00
  8.00000000E-01  8.00000000E-01  1.50000000E+00  8.00000000E-01  8.00000000E-01
  1.50000000E+00  8.00000000E-01  8.00000000E-01  1.50000000E+00  8.00000000E-01
  8.00000000E-01  1.50000000E+00  8.00000000E-01  8.00000000E-01  1.50000000E+00
  8.00000000E-01  8.00000000E-01  1.50000000E+00  8.00000000E-01  8.00000000E-01
  1.50000000E+00  8.00000000E-01  8.00000000E-01  1.50000000E+00  8.00000000E-01
  8.00000000E-01  1.50000000E+00  8.00000000E-01  8.00000000E-01  1.50000000E+00
  8.00000000E-01  8.00000000E-01  1.50000000E+00  8.00000000E-01  8.00000000E-01
  1.50000000E+00  8.00000000E-01  8.00000000E-01  1.50000000E+00  8.00000000E-01
  8.00000000E-01  1.50000000E+00  8.00000000E-01  8.00000000E-01  1.50000000E+00
  8.00000000E-01  8.00000000E-01  1.50000000E+00  8.00000000E-01  8.00000000E-01
  1.50000000E+00  8.00000000E-01  8.00000000E-01  1.50000000E+00  8.00000000E-01
  8.00000000E-01  1.50000000E+00  8.00000000E-01  8.00000000E-01  1.50000000E+00
  8.00000000E-01  8.00000000E-01  1.50000000E+00  8.00000000E-01  8.00000000E-01
  1.50000000E+00  8.00000000E-01  8.00000000E-01  1.50000000E+00  8.00000000E-01
  8.00000000E-01  1.50000000E+00  8.00000000E-01  8.00000000E-01  1.50000000E+00
  8.00000000E-01  8.00000000E-01  1.50000000E+00  8.00000000E-01  8.00000000E-01
  1.50000000E+00  8.00000000E-01  8.00000000E-01  1.50000000E+00  8.00000000E-01
  8.00000000E-01  1.50000000E+00  8.00000000E-01  8.00000000E-01  1.50000000E+00
  8.00000000E-01  8.00000000E-01  1.50000000E+00  8.00000000E-01  8.00000000E-01
  1.50000000E+00  8.00000000E-01  8.00000000E-01  1.50000000E+00  8.00000000E-01
  8.00000000E-01  1.50000000E+00  8.00000000E-01  8.00000000E-01  1.50000000E+00
  8.00000000E-01  8.00000000E-01  1.50000000E+00  8.00000000E-01  8.00000000E-01
  1.50000000E+00  8.00000000E-01  8.00000000E-01  1.50000000E+00  8.00000000E-01
  8.00000000E-01  1.50000000E+00  8.00000000E-01  8.00000000E-01  1.50000000E+00
  8.00000000E-01  8.00000000E-01  1.50000000E+00  8.00000000E-01  8.00000000E-01
  1.50000000E+00  8.00000000E-01  8.00000000E-01  1.50000000E+00  8.00000000E-01
  8.00000000E-01  1.50000000E+00  8.00000000E-01  8.00000000E-01  1.50000000E+00
  8.00000000E-01  8.00000000E-01  1.50000000E+00  8.00000000E-01  8.00000000E-01
  1.50000000E+00  8.00000000E-01  8.00000000E-01  1.50000000E+00  8.00000000E-01
  8.00000000E-01  1.50000000E+00  8.00000000E-01  8.00000000E-01  1.50000000E+00
  8.00000000E-01  8.00000000E-01  1.50000000E+00  8.00000000E-01  8.00000000E-01
  1.50000000E+00  8.00000000E-01  8.00000000E-01  1.50000000E+00  8.00000000E-01
  8.00000000E-01  1.50000000E+00  8.00000000E-01  8.00000000E-01  1.50000000E+00
  8.00000000E-01  8.00000000E-01  1.50000000E+00  8.00000000E-01  8.00000000E-01
  1.50000000E+00  8.00000000E-01  8.00000000E-01  1.50000000E+00  8.00000000E-01
  8.00000000E-01  1.50000000E+00  8.00000000E-01  8.00000000E-01  1.50000000E+00
  8.00000000E-01  8.00000000E-01  1.50000000E+00  8.00000000E-01  8.00000000E-01
  1.50000000E+00  8.00000000E-01  8.00000000E-01  1.50000000E+00  8.00000000E-01
  8.00000000E-01  1.50000000E+00  8.00000000E-01  8.00000000E-01  1.50000000E+00
  8.00000000E-01  8.00000000E-01  1.50000000E+00  8.00000000E-01  8.00000000E-01
  1.50000000E+00  8.00000000E-01  8.00000000E-01  1.50000000E+00  8.00000000E-01
  8.00000000E-01  1.50000000E+00  8.00000000E-01  8.00000000E-01  1.50000000E+00
  8.00000000E-01  8.00000000E-01  1.50000000E+00  8.00000000E-01  8.00000000E-01
  1.50000000E+00  8.00000000E-01  8.00000000E-01  1.50000000E+00  8.00000000E-01
  8.00000000E-01  1.50000000E+00  8.00000000E-01  8.00000000E-01  1.50000000E+00
  8.00000000E-01  8.00000000E-01  1.50000000E+00  8.00000000E-01  8.00000000E-01
  1.50000000E+00  8.00000000E-01  8.00000000E-01  1.50000000E+00  8.00000000E-01
  8.00000000E-01  1.50000000E+00  8.00000000E-01  8.00000000E-01  1.50000000E+00
  8.00000000E-01  8.00000000E-01  1.50000000E+00  8.00000000E-01  8.00000000E-01
  1.50000000E+00  8.00000000E-01  8.00000000E-01  1.50000000E+00  8.00000000E-01
  8.00000000E-01  1.50000000E+00  8.00000000E-01  8.00000000E-01  1.50000000E+00
  8.00000000E-01  8.00000000E-01  1.50000000E+00  8.00000000E-01  8.00000000E-01
  1.50000000E+00  8.00000000E-01  8.00000000E-01  1.50000000E+00  8.00000000E-01
  8.00000000E-01  1.50000000E+00  8.00000000E-01  8.00000000E-01  1.50000000E+00
  8.00000000E-01  8.00000000E-01  1.50000000E+00  8.00000000E-01  8.00000000E-01
  1.50000000E+00  8.00000000E-01  8.00000000E-01  1.50000000E+00  8.00000000E-01
  8.00000000E-01  1.50000000E+00  8.00000000E-01  8.00000000E-01  1.50000000E+00
  8.00000000E-01  8.00000000E-01  1.50000000E+00  8.00000000E-01  8.00000000E-01
  1.50000000E+00  8.00000000E-01  8.00000000E-01  1.50000000E+00  8.00000000E-01
  8.00000000E-01  1.50000000E+00  8.00000000E-01  8.00000000E-01  1.50000000E+00
  8.00000000E-01  8.00000000E-01  1.50000000E+00  8.00000000E-01  8.00000000E-01
  1.50000000E+00  8.00000000E-01  8.00000000E-01  1.50000000E+00  8.00000000E-01
  8.00000000E-01  1.50000000E+00  8.00000000E-01  8.00000000E-01  1.50000000E+00
  8.00000000E-01  8.00000000E-01  1.50000000E+00  8.00000000E-01  8.00000000E-01
  1.50000000E+00  8.00000000E-01  8.00000000E-01  1.50000000E+00  8.00000000E-01
  8.00000000E-01  1.50000000E+00  8.00000000E-01  8.00000000E-01  1.50000000E+00
  8.00000000E-01  8.00000000E-01  1.50000000E+00  8.00000000E-01  8.00000000E-01
  1.50000000E+00  8.00000000E-01  8.00000000E-01  1.50000000E+00  8.00000000E-01
  8.00000000E-01  1.50000000E+00  8.00000000E-01  8.00000000E-01  1.50000000E+00
  8.00000000E-01  8.00000000E-01  1.50000000E+00  8.00000000E-01  8.00000000E-01
  1.50000000E+00  8.00000000E-01  8.00000000E-01  1.50000000E+00  8.00000000E-01
  8.00000000E-01  1.50000000E+00  8.00000000E-01  8.00000000E-01  1.50000000E+00
  8.00000000E-01  8.00000000E-01  1.50000000E+00  8.00000000E-01  8.00000000E-01
  1.50000000E+00  8.00000000E-01  8.00000000E-01  1.50000000E+00  8.00000000E-01
  8.00000000E-01  1.50000000E+00  8.00000000E-01  8.00000000E-01  1.50000000E+00
  8.00000000E-01  8.00000000E-01  1.50000000E+00  8.00000000E-01  8.00000000E-01
  1.50000000E+00  8.00000000E-01  8.00000000E-01  1.50000000E+00  8.00000000E-01
  8.00000000E-01  1.50000000E+00  8.00000000E-01  8.00000000E-01  1.50000000E+00
  8.00000000E-01  8.00000000E-01  1.50000000E+00  8.00000000E-01  8.00000000E-01
  1.50000000E+00  8.00000000E-01  8.00000000E-01  1.50000000E+00  8.00000000E-01
  8.00000000E-01  1.50000000E+00  8.00000000E-01  8.00000000E-01  1.50000000E+00
  8.00000000E-01  8.00000000E-01  1.50000000E+00  8.00000000E-01  8.00000000E-01
  1.50000000E+00  8.00000000E-01  8.00000000E-01  1.50000000E+00  8.00000000E-01
  8.00000000E-01  1.50000000E+00  8.00000000E-01  8.00000000E-01  1.50000000E+00
  8.00000000E-01  8.00000000E-01  1.50000000E+00  8.00000000E-01  8.00000000E-01
  1.50000000E+00  8.00000000E-01  8.00000000E-01  1.50000000E+00  8.00000000E-01
  8.00000000E-01  1.50000000E+00  8.00000000E-01  8.00000000E-01  1.50000000E+00
  8.00000000E-01  8.00000000E-01  1.50000000E+00  8.00000000E-01  8.00000000E-01
  1.50000000E+00  8.00000000E-01  8.00000000E-01  1.50000000E+00  8.00000000E-01
  8.00000000E-01  1.50000000E+00  8.00000000E-01  8.00000000E-01  1.50000000E+00
  8.00000000E-01  8.00000000E-01  1.50000000E+00  8.00000000E-01  8.00000000E-01
  1.50000000E+00  8.00000000E-01  8.00000000E-01  1.50000000E+00  8.00000000E-01
  8.00000000E-01  1.50000000E+00  8.00000000E-01  8.00000000E-01  1.50000000E+00
  8.00000000E-01  8.00000000E-01  1.50000000E+00  8.00000000E-01  8.00000000E-01
  1.50000000E+00  8.00000000E-01  8.00000000E-01  1.50000000E+00  8.00000000E-01
  8.00000000E-01  1.50000000E+00  8.00000000E-01  8.00000000E-01  1.50000000E+00
  8.00000000E-01  8.00000000E-01  1.50000000E+00  8.00000000E-01  8.00000000E-01
  1.50000000E+00  8.00000000E-01  8.00000000E-01  1.50000000E+00  8.00000000E-01
  8.00000000E-01  1.50000000E+00  8.00000000E-01  8.00000000E-01  1.50000000E+00
  8.00000000E-01  8.00000000E-01  1.50000000E+00  8.00000000E-01  8.00000000E-01
  1.50000000E+00  8.00000000E-01  8.00000000E-01  1.50000000E+00  8.00000000E-01
  8.00000000E-01  1.50000000E+00  8.00000000E-01  8.00000000E-01  1.50000000E+00
  8.00000000E-01  8.00000000E-01  1.50000000E+00  8.00000000E-01  8.00000000E-01
  1.50000000E+00  8.00000000E-01  8.00000000E-01  1.50000000E+00  8.00000000E-01
  8.00000000E-01  1.50000000E+00  8.00000000E-01  8.00000000E-01  1.50000000E+00
  8.00000000E-01  8.00000000E-01  1.50000000E+00  8.00000000E-01  8.00000000E-01
  1.50000000E+00  8.00000000E-01  8.00000000E-01  1.50000000E+00  8.00000000E-01
  8.00000000E-01  1.50000000E+00  8.00000000E-01  8.00000000E-01  1.50000000E+00
  8.00000000E-01  8.00000000E-01  1.50000000E+00  8.00000000E-01  8.00000000E-01
  1.50000000E+00  8.00000000E-01  8.00000000E-01  1.50000000E+00  8.00000000E-01
  8.00000000E-01  1.50000000E+00  8.00000000E-01  8.00000000E-01  1.50000000E+00
  8.00000000E-01  8.00000000E-01  1.50000000E+00  8.00000000E-01  8.00000000E-01
  1.50000000E+00  8.00000000E-01  8.00000000E-01  1.50000000E+00  8.00000000E-01
  8.00000000E-01  1.50000000E+00  8.00000000E-01  8.00000000E-01  1.50000000E+00
  8.00000000E-01  8.00000000E-01  1.50000000E+00  8.00000000E-01  8.00000000E-01
  1.50000000E+00  8.00000000E-01  8.00000000E-01  1.50000000E+00  8.00000000E-01
  8.00000000E-01  1.50000000E+00  8.00000000E-01  8.00000000E-01  1.50000000E+00
  8.00000000E-01  8.00000000E-01  1.50000000E+00  8.00000000E-01  8.00000000E-01
  1.50000000E+00  8.00000000E-01  8.00000000E-01  1.50000000E+00  8.00000000E-01
  8.00000000E-01  1.50000000E+00  8.00000000E-01  8.00000000E-01  1.50000000E+00
  8.00000000E-01  8.00000000E-01  1.50000000E+00  8.00000000E-01  8.00000000E-01
  1.50000000E+00  8.00000000E-01  8.00000000E-01  1.50000000E+00  8.00000000E-01
  8.00000000E-01  1.50000000E+00  8.00000000E-01  8.00000000E-01  1.50000000E+00
  8.00000000E-01  8.00000000E-01  1.50000000E+00  8.00000000E-01  8.00000000E-01
  1.50000000E+00  8.00000000E-01  8.00000000E-01  1.50000000E+00  8.00000000E-01
  8.00000000E-01  1.50000000E+00  8.00000000E-01  8.00000000E-01  1.50000000E+00
  8.00000000E-01  8.00000000E-01  1.50000000E+00  8.00000000E-01  8.00000000E-01
  1.50000000E+00  8.00000000E-01  8.00000000E-01  1.50000000E+00  8.00000000E-01
  8.00000000E-01  1.50000000E+00  8.00000000E-01  8.00000000E-01  1.50000000E+00
  8.00000000E-01  8.00000000E-01  1.50000000E+00  8.00000000E-01  8.00000000E-01
  1.50000000E+00  8.00000000E-01  8.00000000E-01  1.50000000E+00  8.00000000E-01
  8.00000000E-01  1.50000000E+00  8.00000000E-01  8.00000000E-01  1.50000000E+00
  8.00000000E-01  8.00000000E-01  1.50000000E+00  8.00000000E-01  8.00000000E-01
  1.50000000E+00  8.00000000E-01  8.00000000E-01  1.50000000E+00  8.00000000E-01
  8.00000000E-01  1.50000000E+00  8.00000000E-01  8.00000000E-01  1.50000000E+00
  8.00000000E-01  8.00000000E-01  1.50000000E+00  8.00000000E-01  8.00000000E-01
  1.50000000E+00  8.00000000E-01  8.00000000E-01  1.50000000E+00  8.00000000E-01
  8.00000000E-01  1.50000000E+00  8.00000000E-01  8.00000000E-01  1.50000000E+00
  8.00000000E-01  8.00000000E-01  1.50000000E+00  8.00000000E-01  8.00000000E-01
  1.50000000E+00  8.00000000E-01  8.00000000E-01  1.50000000E+00  8.00000000E-01
  8.00000000E-01  1.50000000E+00  8.00000000E-01  8.00000000E-01  1.50000000E+00
  8.00000000E-01  8.00000000E-01  1.50000000E+00  8.00000000E-01  8.00000000E-01
  1.50000000E+00  8.00000000E-01  8.00000000E-01  1.50000000E+00  8.00000000E-01
  8.00000000E-01  1.50000000E+00  8.00000000E-01  8.00000000E-01  1.50000000E+00
  8.00000000E-01  8.00000000E-01  1.50000000E+00  8.00000000E-01  8.00000000E-01
  1.50000000E+00  8.00000000E-01  8.00000000E-01  1.50000000E+00  8.00000000E-01
  8.00000000E-01  1.50000000E+00  8.00000000E-01  8.00000000E-01  1.50000000E+00
  8.00000000E-01  8.00000000E-01  1.50000000E+00  8.00000000E-01  8.00000000E-01
  1.50000000E+00  8.00000000E-01  8.00000000E-01  1.50000000E+00  8.00000000E-01
  8.00000000E-01  1.50000000E+00  8.00000000E-01  8.00000000E-01  1.50000000E+00
  8.00000000E-01  8.00000000E-01  1.50000000E+00  8.00000000E-01  8.00000000E-01
  1.50000000E+00  8.00000000E-01  8.00000000E-01  1.50000000E+00  8.00000000E-01
  8.00000000E-01  1.50000000E+00  8.00000000E-01  8.00000000E-01  1.50000000E+00
  8.00000000E-01  8.00000000E-01  1.50000000E+00  8.00000000E-01  8.00000000E-01
  1.50000000E+00  8.00000000E-01  8.00000000E-01  1.50000000E+00  8.00000000E-01
  8.00000000E-01  1.50000000E+00  8.00000000E-01  8.00000000E-01  1.50000000E+00
  8.00000000E-01  8.00000000E-01  1.50000000E+00  8.00000000E-01  8.00000000E-01
%FLAG SCREEN                                                                    
%FORMAT(5E16.8)                                                                 
  7.20000000E-01  7.20000000E-01  7.20000000E-01  7.20000000E-01  7.20000000E-01
  7.20000000E-01  7.20000000E-01  7.20000000E-01  7.20000000E-01  7.20000000E-01
  7.20000000E-01  7.20000000E-01  7.20000000E-01  7.20000000E-01  7.20000000E-01
  7.20000000E-01  8.50000000E-01  8.50000000E-01  8.50000000E-01  8.50000000E-01
  8.50000000E-01  8.50000000E-01  8.50000000E-01  8.50000000E-01  8.50000000E-01
  8.50000000E-01  7.20000000E-01  8.50000000E-01  8.50000000E-01  8.50000000E-01
  7.20000000E-01  7.20000000E-01  8.50000000E-01  7.20000000E-01  7.20000000E-01
  7.20000000E-01  7.20000000E-01  7.20000000E-01  7.20000000E-01  8.50000000E-01
  7.90000000E-01  7.20000000E-01  7.20000000E-01  7.20000000E-01  7.20000000E-01
  8.50000000E-01  7.20000000E-01  7.20000000E-01  8.50000000E-01  7.20000000E-01
  7.20000000E-01  8.50000000E-01  8.50000000E-01  7.20000000E-01  8.50000000E-01
  7.20000000E-01  8.50000000E-01  7.20000000E-01  8.50000000E-01  8.50000000E-01
  8.50000000E-01  8.50000000E-01  8.50000000E-01  8.50000000E-01  8.50000000E-01
  8.50000000E-01  8.50000000E-01  8.50000000E-01  8.50000000E-01  8.50000000E-01
  8.50000000E-01  8.50000000E-01  8.50000000E-01  8.50000000E-01  8.50000000E-01
  8.50000000E-01  8.50000000E-01  8.50000000E-01  8.50000000E-01  8.50000000E-01
  8.50000000E-01  8.50000000E-01  8.50000000E-01  8.50000000E-01  8.50000000E-01
  7.20000000E-01  7.20000000E-01  8.50000000E-01  7.20000000E-01  7.20000000E-01
  7.20000000E-01  7.20000000E-01  7.20000000E-01  7.20000000E-01  8.50000000E-01
  7.90000000E-01  7.20000000E-01  7.20000000E-01  7.20000000E-01  7.20000000E-01
  8.50000000E-01  7.20000000E-01  7.20000000E-01  8.50000000E-01  7.20000000E-01
  7.20000000E-01  8.50000000E-01  8.50000000E-01  7.20000000E-01  8.50000000E-01
  7.20000000E-01  8.50000000E-01  7.20000000E-01  8.50000000E-01  8.50000000E-01
  8.50000000E-01  8.50000000E-01  8.50000000E-01  8.50000000E-01  8.50000000E-01
  8.50000000E-01  8.50000000E-01  8.50000000E-01  8.50000000E-01  8.50000000E-01
  8.50000000E-01  8.50000000E-01  8.50000000E-01  8.50000000E-01  8.50000000E-01
  8.50000000E-01  8.50000000E-01  8.50000000E-01  8.50000000E-01  8.50000000E-01
  8.50000000E-01  8.50000000E-01  8.50000000E-01  8.50000000E-01  8.50000000E-01
  7.20000000E-01  7.20000000E-01  8.50000000E-01  7.20000000E-01  7.20000000E-01
  7.20000000E-01  7.20000000E-01  7.20000000E-01  7.20000000E-01  8.50000000E-01
  7.90000000E-01  7.20000000E-01  7.20000000E-01  7.20000000E-01  7.20000000E-01
  8.50000000E-01  7.20000000E-01  7.20000000E-01  8.50000000E-01  7.20000000E-01
  7.20000000E-01  8.50000000E-01  8.50000000E-01  7.20000000E-01  8.50000000E-01
  7.20000000E-01  8.50000000E-01  7.20000000E-01  8.50000000E-01  8.50000000E-01
  8.50000000E-01  8.50000000E-01  8.50000000E-01  8.50000000E-01  8.50000000E-01
  8.50000000E-01  8.50000000E-01  8.50000000E-01  8.50000000E-01  8.50000000E-01
  8.50000000E-01  8.50000000E-01  8.50000000E-01  8.50000000E-01  8.50000000E-01
  8.50000000E-01  8.50000000E-01  8.50000000E-01  8.50000000E-01  8.50000000E-01
  8.50000000E-01  8.50000000E-01  8.50000000E-01  8.50000000E-01  8.50000000E-01
  7.20000000E-01  7.20000000E-01  8.50000000E-01  7.20000000E-01  7.20000000E-01
  7.20000000E-01  7.20000000E-01  7.20000000E-01  7.20000000E-01  8.50000000E-01
  7.90000000E-01  7.20000000E-01  7.20000000E-01  7.20000000E-01  7.20000000E-01
  8.50000000E-01  7.20000000E-01  7.20000000E-01  8.50000000E-01  7.20000000E-01
  7.20000000E-01  8.50000000E-01  8.50000000E-01  7.20000000E-01  8.50000000E-01
  7.20000000E-01  8.50000000E-01  7.20000000E-01  8.50000000E-01  8.50000000E-01
  8.50000000E-01  8.50000000E-01  8.50000000E-01  8.50000000E-01  8.50000000E-01
  8.50000000E-01  8.50000000E-01  8.50000000E-01  8.50000000E-01  8.50000000E-01
  8.50000000E-01  8.50000000E-01  8.50000000E-01  8.50000000E-01  8.50000000E-01
  8.50000000E-01  8.50000000E-01  8.50000000E-01  8.50000000E-01  8.50000000E-01
  8.50000000E-01  8.50000000E-01  8.50000000E-01  8.50000000E-01  8.50000000E-01
  7.20000000E-01  7.20000000E-01  8.50000000E-01  7.20000000E-01  7.20000000E-01
  7.20000000E-01  7.20000000E-01  7.20000000E-01  7.20000000E-01  8.50000000E-01
  7.90000000E-01  7.20000000E-01  7.20000000E-01  7.20000000E-01  7.20000000E-01
  8.50000000E-01  7.20000000E-01  7.20000000E-01  8.50000000E-01  7.20000000E-01
  7.20000000E-01  8.50000000E-01  8.50000000E-01  7.20000000E-01  8.50000000E-01
  7.20000000E-01  8.50000000E-01  7.20000000E-01  8.50000000E-01  8.50000000E-01
  8.50000000E-01  8.50000000E-01  8.50000000E-01  8.50000000E-01  8.50000000E-01
  8.50000000E-01  8.50000000E-01  8.50000000E-01  8.50000000E-01  8.50000000E-01
  8.50000000E-01  8.50000000E-01  8.50000000E-01  8.50000000E-01  8.50000000E-01
  8.50000000E-01  8.50000000E-01  8.50000000E-01  8.50000000E-01  8.50000000E-01
  8.50000000E-01  8.50000000E-01  8.50000000E-01  8.50000000E-01  8.50000000E-01
  7.20000000E-01  7.20000000E-01  8.50000000E-01  7.20000000E-01  7.20000000E-01
  7.20000000E-01  7.20000000E-01  7.20000000E-01  7.20000000E-01  8.50000000E-01
  7.90000000E-01  7.20000000E-01  7.20000000E-01  7.20000000E-01  7.20000000E-01
  8.50000000E-01  7.20000000E-01  7.20000000E-01  8.50000000E-01  7.20000000E-01
  7.20000000E-01  8.50000000E-01  8.50000000E-01  7.20000000E-01  8.50000000E-01
  7.20000000E-01  8.50000000E-01  7.20000000E-01  8.50000000E-01  8.50000000E-01
  8.50000000E-01  8.50000000E-01  8.50000000E-01  8.50000000E-01  8.50000000E-01
  8.50000000E-01  8.50000000E-01  8.50000000E-01  8.50000000E-01  8.50000000E-01
  8.50000000E-01  8.50000000E-01  8.50000000E-01  8.50000000E-01  8.50000000E-01
  8.50000000E-01  8.50000000E-01  8.50000000E-01  8.50000000E-01  8.50000000E-01
  8.50000000E-01  8.50000000E-01  8.50000000E-01  8.50000000E-01  8.50000000E-01
  7.20000000E-01  7.20000000E-01  8.50000000E-01  7.20000000E-01  7.20000000E-01
  7.20000000E-01  7.20000000E-01  7.20000000E-01  7.20000000E-01  8.50000000E-01
  7.90000000E-01  7.20000000E-01  7.20000000E-01  7.20000000E-01  7.20000000E-01
  8.50000000E-01  7.20000000E-01  7.20000000E-01  8.50000000E-01  7.20000000E-01
  7.20000000E-01  8.50000000E-01  8.50000000E-01  7.20000000E-01  8.50000000E-01
  7.20000000E-01  8.50000000E-01  7.20000000E-01  8.50000000E-01  8.50000000E-01
  8.50000000E-01  8.50000000E-01  8.50000000E-01  8.50000000E-01  8.50000000E-01
  8.50000000E-01  8.50000000E-01  8.50000000E-01  8.50000000E-01  8.50000000E-01
  8.50000000E-01  8.50000000E-01  8.50000000E-01  8.50000000E-01  8.50000000E-01
  8.50000000E-01  8.50000000E-01  8.50000000E-01  8.50000000E-01  8.50000000E-01
  8.50000000E-01  8.50000000E-01  8.50000000E-01  8.50000000E-01  8.50000000E-01
  7.20000000E-01  7.20000000E-01  8.50000000E-01  7.20000000E-01  7.20000000E-01
  7.20000000E-01  7.20000000E-01  7.20000000E-01  7.20000000E-01  8.50000000E-01
  7.90000000E-01  7.20000000E-01  7.20000000E-01  7.20000000E-01  7.20000000E-01
  8.50000000E-01  7.20000000E-01  7.20000000E-01  8.50000000E-01  7.20000000E-01
  7.20000000E-01  8.50000000E-01  8.50000000E-01  7.20000000E-01  8.50000000E-01
  7.20000000E-01  8.50000000E-01  7.20000000E-01  8.50000000E-01  8.50000000E-01
  8.50000000E-01  8.50000000E-01  8.50000000E-01  8.50000000E-01  8.50000000E-01
  8.50000000E-01  8.50000000E-01  8.50000000E-01  8.50000000E-01  8.50000000E-01
  8.50000000E-01  8.50000000E-01  8.50000000E-01  8.50000000E-01  8.50000000E-01
  8.50000000E-01  8.50000000E-01  8.50000000E-01  8.50000000E-01  8.50000000E-01
  8.50000000E-01  8.50000000E-01  8.50000000E-01  8.50000000E-01  8.50000000E-01
  7.20000000E-01  7.20000000E-01  8.50000000E-01  7.20000000E-01  7.20000000E-01
  7.20000000E-01  7.20000000E-01  7.20000000E-01  7.20000000E-01  8.50000000E-01
  7.90000000E-01  7.20000000E-01  7.20000000E-01  7.20000000E-01  7.20000000E-01
  8.50000000E-01  7.20000000E-01  7.20000000E-01  8.50000000E-01  7.20000000E-01
  7.20000000E-01  8.50000000E-01  8.50000000E-01  7.20000000E-01  8.50000000E-01
  7.20000000E-01  8.50000000E-01  7.20000000E-01  8.50000000E-01  8.50000000E-01
  8.50000000E-01  8.50000000E-01  8.50000000E-01  8.50000000E-01  8.50000000E-01
  8.50000000E-01  8.50000000E-01  8.50000000E-01  8.50000000E-01  8.50000000E-01
  8.50000000E-01  8.50000000E-01  8.50000000E-01  8.50000000E-01  8.50000000E-01
  8.50000000E-01  8.50000000E-01  8.50000000E-01  8.50000000E-01  8.50000000E-01
  8.50000000E-01  8.50000000E-01  8.50000000E-01  8.50000000E-01  8.50000000E-01
  7.20000000E-01  7.20000000E-01  8.50000000E-01  7.20000000E-01  7.20000000E-01
  7.20000000E-01  7.20000000E-01  7.20000000E-01  7.20000000E-01  8.50000000E-01
  7.90000000E-01  7.20000000E-01  7.20000000E-01  7.20000000E-01  7.20000000E-01
  8.50000000E-01  7.20000000E-01  7.20000000E-01  8.50000000E-01  7.20000000E-01
  7.20000000E-01  8.50000000E-01  8.50000000E-01  7.20000000E-01  8.50000000E-01
  7.20000000E-01  8.50000000E-01  7.20000000E-01  8.50000000E-01  8.50000000E-01
  8.50000000E-01  8.50000000E-01  8.50000000E-01  8.50000000E-01  8.50000000E-01
  8.50000000E-01  8.50000000E-01  8.50000000E-01  8.50000000E-01  8.50000000E-01
  8.50000000E-01  8.50000000E-01  8.50000000E-01  8.50000000E-01  8.50000000E-01
  8.50000000E-01  8.50000000E-01  8.50000000E-01  8.50000000E-01  8.50000000E-01
  8.50000000E-01  8.50000000E-01  8.50000000E-01  8.50000000E-01  7.20000000E-01
  8.50000000E-01  8.50000000E-01  7.20000000E-01  8.50000000E-01  8.50000000E-01
  8.50000000E-01  7.20000000E-01  7.20000000E-01  8.50000000E-01  7.20000000E-01
  7.20000000E-01  7.20000000E-01  7.20000000E-01  7.20000000E-01  7.20000000E-01
  8.50000000E-01  7.90000000E-01  7.20000000E-01  7.20000000E-01  7.20000000E-01
  7.20000000E-01  8.50000000E-01  7.20000000E-01  7.20000000E-01  8.50000000E-01
  7.20000000E-01  7.20000000E-01  8.50000000E-01  8.50000000E-01  7.20000000E-01
  8.50000000E-01  7.20000000E-01  8.50000000E-01  7.20000000E-01  8.50000000E-01
  8.50000000E-01  8.50000000E-01  8.50000000E-01  8.50000000E-01  8.50000000E-01
  8.50000000E-01  8.50000000E-01  8.50000000E-01  8.50000000E-01  8.50000000E-01
  8.50000000E-01  8.50000000E-01  8.50000000E-01  8.50000000E-01  8.50000000E-01
  8.50000000E-01  8.50000000E-01  8.50000000E-01  8.50000000E-01  8.50000000E-01
  8.50000000E-01  8.50000000E-01  8.50000000E-01  8.50000000E-01  8.50000000E-01
  8.50000000E-01  7.20000000E-01  7.20000000E-01  8.50000000E-01  7.20000000E-01
  7.20000000E-01  7.20000000E-01  7.20000000E-01  7.20000000E-01  7.20000000E-01
  8.50000000E-01  7.90000000E-01  7.20000000E-01  7.20000000E-01  7.20000000E-01
  7.20000000E-01  8.50000000E-01  7.20000000E-01  7.20000000E-01  8.50000000E-01
  7.20000000E-01  7.20000000E-01  8.50000000E-01  8.50000000E-01  7.20000000E-01
  8.50000000E-01  7.20000000E-01  8.50000000E-01  7.20000000E-01  8.50000000E-01
  8.50000000E-01  8.50000000E-01  8.50000000E-01  8.50000000E-01  8.50000000E-01
  8.50000000E-01  8.50000000E-01  8.50000000E-01  8.50000000E-01  8.50000000E-01
  8.50000000E-01  8.50000000E-01  8.50000000E-01  8.50000000E-01  8.50000000E-01
  8.50000000E-01  8.50000000E-01  8.50000000E-01  8.50000000E-01  8.50000000E-01
  8.50000000E-01  8.50000000E-01  8.50000000E-01  8.50000000E-01  8.50000000E-01
  8.50000000E-01  7.20000000E-01  7.20000000E-01  8.50000000E-01  7.20000000E-01
  7.20000000E-01  7.20000000E-01  7.20000000E-01  7.20000000E-01  7.20000000E-01
  8.50000000E-01  7.90000000E-01  7.20000000E-01  7.20000000E-01  7.20000000E-01
  7.20000000E-01  8.50000000E-01  7.20000000E-01  7.20000000E-01  8.50000000E-01
  7.20000000E-01  7.20000000E-01  8.50000000E-01  8.50000000E-01  7.20000000E-01
  8.50000000E-01  7.20000000E-01  8.50000000E-01  7.20000000E-01  8.50000000E-01
  8.50000000E-01  8.50000000E-01  8.50000000E-01  8.50000000E-01  8.50000000E-01
  8.50000000E-01  8.50000000E-01  8.50000000E-01  8.50000000E-01  8.50000000E-01
  8.50000000E-01  8.50000000E-01  8.50000000E-01  8.50000000E-01  8.50000000E-01
  8.50000000E-01  8.50000000E-01  8.50000000E-01  8.50000000E-01  8.50000000E-01
  8.50000000E-01  8.50000000E-01  8.50000000E-01  8.50000000E-01  8.50000000E-01
  8.50000000E-01  7.20000000E-01  7.20000000E-01  8.50000000E-01  7.20000000E-01
  7.20000000E-01  7.20000000E-01  7.20000000E-01  7.20000000E-01  7.20000000E-01
  8.50000000E-01  7.90000000E-01  7.20000000E-01  7.20000000E-01  7.20000000E-01
  7.20000000E-01  8.50000000E-01  7.20000000E-01  7.20000000E-01  8.50000000E-01
  7.20000000E-01  7.20000000E-01  8.50000000E-01  8.50000000E-01  7.20000000E-01
  8.50000000E-01  7.20000000E-01  8.50000000E-01  7.20000000E-01  8.50000000E-01
  8.50000000E-01  8.50000000E-01  8.50000000E-01  8.50000000E-01  8.50000000E-01
  8.50000000E-01  8.50000000E-01  8.50000000E-01  8.50000000E-01  8.50000000E-01
  8.50000000E-01  8.50000000E-01  8.50000000E-01  8.50000000E-01  8.50000000E-01
  8.50000000E-01  8.50000000E-01  8.50000000E-01  8.50000000E-01  8.50000000E-01
  8.50000000E-01  8.50000000E-01  8.50000000E-01  8.50000000E-01  8.50000000E-01
  8.50000000E-01  7.20000000E-01  7.20000000E-01  8.50000000E-01  7.20000000E-01
  7.20000000E-01  7.20000000E-01  7.20000000E-01  7.20000000E-01  7.20000000E-01
  8.50000000E-01  7.90000000E-01  7.20000000E-01  7.20000000E-01  7.20000000E-01
  7.20000000E-01  8.50000000E-01  7.20000000E-01  7.20000000E-01  8.50000000E-01
  7.20000000E-01  7.20000000E-01  8.50000000E-01  8.50000000E-01  7.20000000E-01
  8.50000000E-01  7.20000000E-01  8.50000000E-01  7.20000000E-01  8.50000000E-01
  8.50000000E-01  8.50000000E-01  8.50000000E-01  8.50000000E-01  8.50000000E-01
  8.50000000E-01  8.50000000E-01  8.50000000E-01  8.50000000E-01  8.50000000E-01
  8.50000000E-01  8.50000000E-01  8.50000000E-01  8.50000000E-01  8.50000000E-01
  8.50000000E-01  8.50000000E-01  8.50000000E-01  8.50000000E-01  8.50000000E-01
  8.50000000E-01  8.50000000E-01  8.50000000E-01  8.50000000E-01  8.50000000E-01
  8.50000000E-01  7.20000000E-01  7.20000000E-01  8.50000000E-01  7.20000000E-01
  7.20000000E-01  7.20000000E-01  7.20000000E-01  7.20000000E-01  7.20000000E-01
  8.50000000E-01  7.90000000E-01  7.20000000E-01  7.20000000E-01  7.20000000E-01
  7.20000000E-01  8.50000000E-01  7.20000000E-01  7.20000000E-01  8.50000000E-01
  7.20000000E-01  7.20000000E-01  8.50000000E-01  8.50000000E-01  7.20000000E-01
  8.50000000E-01  7.20000000E-01  8.50000000E-01  7.20000000E-01  8.50000000E-01
  8.50000000E-01  8.50000000E-01  8.50000000E-01  8.50000000E-01  8.50000000E-01
  8.50000000E-01  8.50000000E-01  8.50000000E-01  8.50000000E-01  8.50000000E-01
  8.50000000E-01  8.50000000E-01  8.50000000E-01  8.50000000E-01  8.50000000E-01
  8.50000000E-01  8.50000000E-01  8.50000000E-01  8.50000000E-01  8.50000000E-01
  8.50000000E-01  8.50000000E-01  8.50000000E-01  8.50000000E-01  8.50000000E-01
  8.50000000E-01  7.20000000E-01  7.20000000E-01  8.50000000E-01  7.20000000E-01
  7.20000000E-01  7.20000000E-01  7.20000000E-01  7.20000000E-01  7.20000000E-01
  8.50000000E-01  7.90000000E-01  7.20000000E-01  7.20000000E-01  7.20000000E-01
  7.20000000E-01  8.50000000E-01  7.20000000E-01  7.20000000E-01  8.50000000E-01
  7.20000000E-01  7.20000000E-01  8.50000000E-01  8.50000000E-01  7.20000000E-01
  8.50000000E-01  7.20000000E-01  8.50000000E-01  7.20000000E-01  8.50000000E-01
  8.50000000E-01  8.50000000E-01  8.50000000E-01  8.50000000E-01  8.50000000E-01
  8.50000000E-01  8.50000000E-01  8.50000000E-01  8.50000000E-01  8.50000000E-01
  8.50000000E-01  8.50000000E-01  8.50000000E-01  8.50000000E-01  8.50000000E-01
  8.50000000E-01  8.50000000E-01  8.50000000E-01  8.50000000E-01  8.50000000E-01
  8.50000000E-01  8.50000000E-01  8.50000000E-01  8.50000000E-01  8.50000000E-01
  8.50000000E-01  7.20000000E-01  7.20000000E-01  8.50000000E-01  7.20000000E-01
  7.20000000E-01  7.20000000E-01  7.20000000E-01  7.20000000E-01  7.20000000E-01
  8.50000000E-01  7.90000000E-01  7.20000000E-01  7.20000000E-01  7.20000000E-01
  7.20000000E-01  8.50000000E-01  7.20000000E-01  7.20000000E-01  8.50000000E-01
  7.20000000E-01  7.20000000E-01  8.50000000E-01  8.50000000E-01  7.20000000E-01
  8.50000000E-01  7.20000000E-01  8.50000000E-01  7.20000000E-01  8.50000000E-01
  8.50000000E-01  8.50000000E-01  8.50000000E-01  8.50000000E-01  8.50000000E-01
  8.50000000E-01  8.50000000E-01  8.50000000E-01  8.50000000E-01  8.50000000E-01
  8.50000000E-01  8.50000000E-01  8.50000000E-01  8.50000000E-01  8.50000000E-01
  8.50000000E-01  8.50000000E-01  8.50000000E-01  8.50000000E-01  8.50000000E-01
  8.50000000E-01  8.50000000E-01  8.50000000E-01  8.50000000E-01  8.50000000E-01
  8.50000000E-01  7.20000000E-01  7.20000000E-01  8.50000000E-01  7.20000000E-01
  7.20000000E-01  7.20000000E-01  7.20000000E-01  7.20000000E-01  7.20000000E-01
  8.50000000E-01  7.90000000E-01  7.20000000E-01  7.20000000E-01  7.20000000E-01
  7.20000000E-01  8.50000000E-01  7.20000000E-01  7.20000000E-01  8.50000000E-01
  7.20000000E-01  7.20000000E-01  8.50000000E-01  8.50000000E-01  7.20000000E-01
  8.50000000E-01  7.20000000E-01  8.50000000E-01  7.20000000E-01  8.50000000E-01
  8.50000000E-01  8.50000000E-01  8.50000000E-01  8.50000000E-01  8.50000000E-01
  8.50000000E-01  8.50000000E-01  8.50000000E-01  8.50000000E-01  8.50000000E-01
  8.50000000E-01  8.50000000E-01  8.50000000E-01  8.50000000E-01  8.50000000E-01
  8.50000000E-01  8.50000000E-01  8.50000000E-01  8.50000000E-01  8.50000000E-01
  8.50000000E-01  8.50000000E-01  8.50000000E-01  8.50000000E-01  8.50000000E-01
  8.50000000E-01  7.20000000E-01  7.20000000E-01  8.50000000E-01  7.20000000E-01
  7.20000000E-01  7.20000000E-01  7.20000000E-01  7.20000000E-01  7.20000000E-01
  8.50000000E-01  7.90000000E-01  7.20000000E-01  7.20000000E-01  7.20000000E-01
  7.20000000E-01  8.50000000E-01  7.20000000E-01  7.20000000E-01  8.50000000E-01
  7.20000000E-01  7.20000000E-01  8.50000000E-01  8.50000000E-01  7.20000000E-01
  8.50000000E-01  7.20000000E-01  8.50000000E-01  7.20000000E-01  8.50000000E-01
  8.50000000E-01  8.50000000E-01  8.50000000E-01  8.50000000E-01  8.50000000E-01
  8.50000000E-01  8.50000000E-01  8.50000000E-01  8.50000000E-01  8.50000000E-01
  8.50000000E-01  8.50000000E-01  8.50000000E-01  8.50000000E-01  8.50000000E-01
  8.50000000E-01  8.50000000E-01  8.50000000E-01  8.50000000E-01  8.50000000E-01
  8.50000000E-01  8.50000000E-01  8.50000000E-01  8.50000000E-01  8.50000000E-01
  7.20000000E-01  8.50000000E-01  8.50000000E-01  7.20000000E-01  8.50000000E-01
  8.50000000E-01  8.50000000E-01  7.20000000E-01  7.20000000E-01  8.50000000E-01
  7.20000000E-01  7.20000000E-01  7.20000000E-01  7.20000000E-01  7.20000000E-01
  7.20000000E-01  8.50000000E-01  7.90000000E-01  7.20000000E-01  7.20000000E-01
  7.20000000E-01  7.20000000E-01  8.50000000E-01  7.20000000E-01  7.20000000E-01
  8.50000000E-01  7.20000000E-01  7.20000000E-01  8.50000000E-01  8.50000000E-01
  7.20000000E-01  8.50000000E-01  7.20000000E-01  8.50000000E-01  7.20000000E-01
  8.50000000E-01  8.50000000E-01  8.50000000E-01  8.50000000E-01  8.50000000E-01
  8.50000000E-01  8.50000000E-01  8.50000000E-01  8.50000000E-01  8.50000000E-01
  8.50000000E-01  8.50000000E-01  8.50000000E-01  8.50000000E-01  8.50000000E-01
  8.50000000E-01  8.50000000E-01  8.50000000E-01  8.50000000E-01  8.50000000E-01
  8.50000000E-01  8.50000000E-01  8.50000000E-01  8.50000000E-01  8.50000000E-01
  8.50000000E-01  8.50000000E-01  7.20000000E-01  7.20000000E-01  8.50000000E-01
  7.20000000E-01  7.20000000E-01  7.20000000E-01  7.20000000E-01  7.20000000E-01
  7.20000000E-01  8.50000000E-01  7.90000000E-01  7.20000000E-01  7.20000000E-01
  7.20000000E-01  7.20000000E-01  8.50000000E-01  7.20000000E-01  7.20000000E-01
  8.50000000E-01  7.20000000E-01  7.20000000E-01  8.50000000E-01  8.50000000E-01
  7.20000000E-01  8.50000000E-01  7.20000000E-01  8.50000000E-01  7.20000000E-01
  8.50000000E-01  8.50000000E-01  8.50000000E-01  8.50000000E-01  8.50000000E-01
  8.50000000E-01  8.50000000E-01  8.50000000E-01  8.50000000E-01  8.50000000E-01
  8.50000000E-01  8.50000000E-01  8.50000000E-01  8.50000000E-01  8.50000000E-01
  8.50000000E-01  8.50000000E-01  8.50000000E-01  8.50000000E-01  8.50000000E-01
  8.50000000E-01  8.50000000E-01  8.50000000E-01  8.50000000E-01  8.50000000E-01
  8.50000000E-01  8.50000000E-01  7.20000000E-01  7.20000000E-01  8.50000000E-01
  7.20000000E-01  7.20000000E-01  7.20000000E-01  7.20000000E-01  7.20000000E-01
  7.20000000E-01  8.50000000E-01  7.90000000E-01  7.20000000E-01  7.20000000E-01
  7.20000000E-01  7.20000000E-01  8.50000000E-01  7.20000000E-01  7.20000000E-01
  8.50000000E-01  7.20000000E-01  7.20000000E-01  8.50000000E-01  8.50000000E-01
  7.20000000E-01  8.50000000E-01  7.20000000E-01  8.50000000E-01  7.20000000E-01
  8.50000000E-01  8.50000000E-01  8.50000000E-01  8.50000000E-01  8.50000000E-01
  8.50000000E-01  8.50000000E-01  8.50000000E-01  8.50000000E-01  8.50000000E-01
  8.50000000E-01  8.50000000E-01  8.50000000E-01  8.50000000E-01  8.50000000E-01
  8.50000000E-01  8.50000000E-01  8.50000000E-01  8.50000000E-01  8.50000000E-01
  8.50000000E-01  8.50000000E-01  8.50000000E-01  8.50000000E-01  8.50000000E-01
  8.50000000E-01  8.50000000E-01  7.20000000E-01  7.20000000E-01  8.50000000E-01
  7.20000000E-01  7.20000000E-01  7.20000000E-01  7.20000000E-01  7.20000000E-01
  7.20000000E-01  8.50000000E-01  7.90000000E-01  7.20000000E-01  7.20000000E-01
  7.20000000E-01  7.20000000E-01  8.50000000E-01  7.20000000E-01  7.20000000E-01
  8.50000000E-01  7.20000000E-01  7.20000000E-01  8.50000000E-01  8.50000000E-01
  7.20000000E-01  8.50000000E-01  7.20000000E-01  8.50000000E-01  7.20000000E-01
  8.50000000E-01  8.50000000E-01  8.50000000E-01  8.50000000E-01  8.50000000E-01
  8.50000000E-01  8.50000000E-01  8.50000000E-01  8.50000000E-01  8.50000000E-01
  8.50000000E-01  8.50000000E-01  8.50000000E-01  8.50000000E-01  8.50000000E-01
  8.50000000E-01  8.50000000E-01  8.50000000E-01  8.50000000E-01  8.50000000E-01
  8.50000000E-01  8.50000000E-01  8.50000000E-01  8.50000000E-01  8.50000000E-01
  8.50000000E-01  8.50000000E-01  7.20000000E-01  7.20000000E-01  8.50000000E-01
  7.20000000E-01  7.20000000E-01  7.20000000E-01  7.20000000E-01  7.20000000E-01
  7.20000000E-01  8.50000000E-01  7.90000000E-01  7.20000000E-01  7.20000000E-01
  7.20000000E-01  7.20000000E-01  8.50000000E-01  7.20000000E-01  7.20000000E-01
  8.50000000E-01  7.20000000E-01  7.20000000E-01  8.50000000E-01  8.50000000E-01
  7.20000000E-01  8.50000000E-01  7.20000000E-01  8.50000000E-01  7.20000000E-01
  8.50000000E-01  8.50000000E-01  8.50000000E-01  8.50000000E-01  8.50000000E-01
  8.50000000E-01  8.50000000E-01  8.50000000E-01  8.50000000E-01  8.50000000E-01
  8.50000000E-01  8.50000000E-01  8.50000000E-01  8.50000000E-01  8.50000000E-01
  8.50000000E-01  8.50000000E-01  8.50000000E-01  8.50000000E-01  8.50000000E-01
  8.50000000E-01  8.50000000E-01  8.50000000E-01  8.50000000E-01  8.50000000E-01
  8.50000000E-01  8.50000000E-01  7.20000000E-01  7.20000000E-01  8.50000000E-01
  7.20000000E-01  7.20000000E-01  7.20000000E-01  7.20000000E-01  7.20000000E-01
  7.20000000E-01  8.50000000E-01  7.90000000E-01  7.20000000E-01  7.20000000E-01
  7.20000000E-01  7.20000000E-01  8.50000000E-01  7.20000000E-01  7.20000000E-01
  8.50000000E-01  7.20000000E-01  7.20000000E-01  8.50000000E-01  8.50000000E-01
  7.20000000E-01  8.50000000E-01  7.20000000E-01  8.50000000E-01  7.20000000E-01
  8.50000000E-01  8.50000000E-01  8.50000000E-01  8.50000000E-01  8.50000000E-01
  8.50000000E-01  8.50000000E-01  8.50000000E-01  8.50000000E-01  8.50000000E-01
  8.50000000E-01  8.50000000E-01  8.50000000E-01  8.50000000E-01  8.50000000E-01
  8.50000000E-01  8.50000000E-01  8.50000000E-01  8.50000000E-01  8.50000000E-01
  8.50000000E-01  8.50000000E-01  8.50000000E-01  8.50000000E-01  8.50000000E-01
  8.50000000E-01  8.50000000E-01  7.20000000E-01  7.20000000E-01  8.50000000E-01
  7.20000000E-01  7.20000000E-01  7.20000000E-01  7.20000000E-01  7.20000000E-01
  7.20000000E-01  8.50000000E-01  7.90000000E-01  7.20000000E-01  7.20000000E-01
  7.20000000E-01  7.20000000E-01  8.50000000E-01  7.20000000E-01  7.20000000E-01
  8.50000000E-01  7.20000000E-01  7.20000000E-01  8.50000000E-01  8.50000000E-01
  7.20000000E-01  8.50000000E-01  7.20000000E-01  8.50000000E-01  7.20000000E-01
  8.50000000E-01  8.50000000E-01  8.50000000E-01  8.50000000E-01  8.50000000E-01
  8.50000000E-01  8.50000000E-01  8.50000000E-01  8.50000000E-01  8.50000000E-01
  8.50000000E-01  8.50000000E-01  8.50000000E-01  8.50000000E-01  8.50000000E-01
  8.50000000E-01  8.50000000E-01  8.50000000E-01  8.50000000E-01  8.50000000E-01
  8.50000000E-01  8.50000000E-01  8.50000000E-01  8.50000000E-01  8.50000000E-01
  8.50000000E-01  8.50000000E-01  7.20000000E-01  7.20000000E-01  8.50000000E-01
  7.20000000E-01  7.20000000E-01  7.20000000E-01  7.20000000E-01  7.20000000E-01
  7.20000000E-01  8.50000000E-01  7.90000000E-01  7.20000000E-01  7.20000000E-01
  7.20000000E-01  7.20000000E-01  8.50000000E-01  7.20000000E-01  7.20000000E-01
  8.50000000E-01  7.20000000E-01  7.20000000E-01  8.50000000E-01  8.50000000E-01
  7.20000000E-01  8.50000000E-01  7.20000000E-01  8.50000000E-01  7.20000000E-01
  8.50000000E-01  8.50000000E-01  8.50000000E-01  8.50000000E-01  8.50000000E-01
  8.50000000E-01  8.50000000E-01  8.50000000E-01  8.50000000E-01  8.50000000E-01
  8.50000000E-01  8.50000000E-01  8.50000000E-01  8.50000000E-01  8.50000000E-01
  8.50000000E-01  8.50000000E-01  8.50000000E-01  8.50000000E-01  8.50000000E-01
  8.50000000E-01  8.50000000E-01  8.50000000E-01  8.50000000E-01  8.50000000E-01
  8.50000000E-01  8.50000000E-01  7.20000000E-01  7.20000000E-01  8.50000000E-01
  7.20000000E-01  7.20000000E-01  7.20000000E-01  7.20000000E-01  7.20000000E-01
  7.20000000E-01  8.50000000E-01  7.90000000E-01  7.20000000E-01  7.20000000E-01
  7.20000000E-01  7.20000000E-01  8.50000000E-01  7.20000000E-01  7.20000000E-01
  8.50000000E-01  7.20000000E-01  7.20000000E-01  8.50000000E-01  8.50000000E-01
  7.20000000E-01  8.50000000E-01  7.20000000E-01  8.50000000E-01  7.20000000E-01
  8.50000000E-01  8.50000000E-01  8.50000000E-01  8.50000000E-01  8.50000000E-01
  8.50000000E-01  8.50000000E-01  8.50000000E-01  8.50000000E-01  8.50000000E-01
  8.50000000E-01  8.50000000E-01  8.50000000E-01  8.50000000E-01  8.50000000E-01
  8.50000000E-01  8.50000000E-01  8.50000000E-01  8.50000000E-01  8.50000000E-01
  8.50000000E-01  8.50000000E-01  8.50000000E-01  8.50000000E-01  8.50000000E-01
  8.50000000E-01  8.50000000E-01  7.20000000E-01  7.20000000E-01  8.50000000E-01
  7.20000000E-01  7.20000000E-01  7.20000000E-01  7.20000000E-01  7.20000000E-01
  7.20000000E-01  8.50000000E-01  7.90000000E-01  7.20000000E-01  7.20000000E-01
  7.20000000E-01  7.20000000E-01  8.50000000E-01  7.20000000E-01  7.20000000E-01
  8.50000000E-01  7.20000000E-01  7.20000000E-01  8.50000000E-01  8.50000000E-01
  7.20000000E-01  8.50000000E-01  7.20000000E-01  8.50000000E-01  7.20000000E-01
  8.50000000E-01  8.50000000E-01  8.50000000E-01  8.50000000E-01  8.50000000E-01
  8.50000000E-01  8.50000000E-01  8.50000000E-01  8.50000000E-01  8.50000000E-01
  8.50000000E-01  8.50000000E-01  8.50000000E-01  8.50000000E-01  8.50000000E-01
  8.50000000E-01  8.50000000E-01  8.50000000E-01  8.50000000E-01  8.50000000E-01
  8.50000000E-01  8.50000000E-01  8.50000000E-01  8.50000000E-01  8.50000000E-01
  8.50000000E-01  7.20000000E-01  8.50000000E-01  8.50000000E-01  7.20000000E-01
  8.50000000E-01  8.50000000E-01  8.50000000E-01  7.20000000E-01  7.20000000E-01
  8.50000000E-01  7.20000000E-01  7.20000000E-01  7.20000000E-01  7.20000000E-01
  7.20000000E-01  7.20000000E-01  8.50000000E-01  7.90000000E-01  7.20000000E-01
  7.20000000E-01  7.20000000E-01  7.20000000E-01  8.50000000E-01  7.20000000E-01
  7.20000000E-01  8.50000000E-01  7.20000000E-01  7.20000000E-01  8.50000000E-01
  8.50000000E-01  7.20000000E-01  8.50000000E-01  7.20000000E-01  8.50000000E-01
  7.20000000E-01  8.50000000E-01  8.50000000E-01  8.50000000E-01  8.50000000E-01
  8.50000000E-01  8.50000000E-01  8.50000000E-01  8.50000000E-01  8.50000000E-01
  8.50000000E-01  8.50000000E-01  8.50000000E-01  8.50000000E-01  8.50000000E-01
  8.50000000E-01  8.50000000E-01  8.50000000E-01  8.50000000E-01  8.50000000E-01
  8.50000000E-01  8.50000000E-01  8.50000000E-01  8.50000000E-01  8.50000000E-01
  8.50000000E-01  8.50000000E-01  8.50000000E-01  7.20000000E-01  7.20000000E-01
  8.50000000E-01  7.20000000E-01  7.20000000E-01  7.20000000E-01  7.20000000E-01
  7.20000000E-01  7.20000000E-01  8.50000000E-01  7.90000000E-01  7.20000000E-01
  7.20000000E-01  7.20000000E-01  7.20000000E-01  8.50000000E-01  7.20000000E-01
  7.20000000E-01  8.50000000E-01  7.20000000E-01  7.20000000E-01  8.50000000E-01
  8.50000000E-01  7.20000000E-01  8.50000000E-01  7.20000000E-01  8.50000000E-01
  7.20000000E-01  8.50000000E-01  8.50000000E-01  8.50000000E-01  8.50000000E-01
  8.50000000E-01  8.50000000E-01  8.50000000E-01  8.50000000E-01  8.50000000E-01
  8.50000000E-01  8.50000000E-01  8.50000000E-01  8.50000000E-01  8.50000000E-01
  8.50000000E-01  8.50000000E-01  8.50000000E-01  8.50000000E-01  8.50000000E-01
  8.50000000E-01  8.50000000E-01  8.50000000E-01  8.50000000E-01  8.50000000E-01
  8.50000000E-01  8.50000000E-01  8.50000000E-01  7.20000000E-01  7.20000000E-01
  8.50000000E-01  7.20000000E-01  7.20000000E-01  7.20000000E-01  7.20000000E-01
  7.20000000E-01  7.20000000E-01  8.50000000E-01  7.90000000E-01  7.20000000E-01
  7.20000000E-01  7.20000000E-01  7.20000000E-01  8.50000000E-01  7.20000000E-01
  7.20000000E-01  8.50000000E-01  7.20000000E-01  7.20000000E-01  8.50000000E-01
  8.50000000E-01  7.20000000E-01  8.50000000E-01  7.20000000E-01  8.50000000E-01
  7.20000000E-01  8.50000000E-01  8.50000000E-01  8.50000000E-01  8.50000000E-01
  8.50000000E-01  8.50000000E-01  8.50000000E-01  8.50000000E-01  8.50000000E-01
  8.50000000E-01  8.50000000E-01  8.50000000E-01  8.50000000E-01  8.50000000E-01
  8.50000000E-01  8.50000000E-01  8.50000000E-01  8.50000000E-01  8.50000000E-01
  8.50000000E-01  8.50000000E-01  8.50000000E-01  8.50000000E-01  8.50000000E-01
  8.50000000E-01  8.50000000E-01  8.50000000E-01  7.20000000E-01  7.20000000E-01
  8.50000000E-01  7.20000000E-01  7.20000000E-01  7.20000000E-01  7.20000000E-01
  7.20000000E-01  7.20000000E-01  8.50000000E-01  7.90000000E-01  7.20000000E-01
  7.20000000E-01  7.20000000E-01  7.20000000E-01  8.50000000E-01  7.20000000E-01
  7.20000000E-01  8.50000000E-01  7.20000000E-01  7.20000000E-01  8.50000000E-01
  8.50000000E-01  7.20000000E-01  8.50000000E-01  7.20000000E-01  8.50000000E-01
  7.20000000E-01  8.50000000E-01  8.50000000E-01  8.50000000E-01  8.50000000E-01
  8.50000000E-01  8.50000000E-01  8.50000000E-01  8.50000000E-01  8.50000000E-01
  8.50000000E-01  8.50000000E-01  8.50000000E-01  8.50000000E-01  8.50000000E-01
  8.50000000E-01  8.50000000E-01  8.50000000E-01  8.50000000E-01  8.50000000E-01
  8.50000000E-01  8.50000000E-01  8.50000000E-01  8.50000000E-01  8.50000000E-01
  8.50000000E-01  8.50000000E-01  8.50000000E-01  7.20000000E-01  7.20000000E-01
  8.50000000E-01  7.20000000E-01  7.20000000E-01  7.20000000E-01  7.20000000E-01
  7.20000000E-01  7.20000000E-01  8.50000000E-01  7.90000000E-01  7.20000000E-01
  7.20000000E-01  7.20000000E-01  7.20000000E-01  8.50000000E-01  7.20000000E-01
  7.20000000E-01  8.50000000E-01  7.20000000E-01  7.20000000E-01  8.50000000E-01
  8.50000000E-01  7.20000000E-01  8.50000000E-01  7.20000000E-01  8.50000000E-01
  7.20000000E-01  8.50000000E-01  8.50000000E-01  8.50000000E-01  8.50000000E-01
  8.50000000E-01  8.50000000E-01  8.50000000E-01  8.50000000E-01  8.50000000E-01
  8.50000000E-01  8.50000000E-01  8.50000000E-01  8.50000000E-01  8.50000000E-01
  8.50000000E-01  8.50000000E-01  8.50000000E-01  8.50000000E-01  8.50000000E-01
  8.50000000E-01  8.50000000E-01  8.50000000E-01  8.50000000E-01  8.50000000E-01
  8.50000000E-01  8.50000000E-01  8.50000000E-01  7.20000000E-01  7.20000000E-01
  8.50000000E-01  7.20000000E-01  7.20000000E-01  7.20000000E-01  7.20000000E-01
  7.20000000E-01  7.20000000E-01  8.50000000E-01  7.90000000E-01  7.20000000E-01
  7.20000000E-01  7.20000000E-01  7.20000000E-01  8.50000000E-01  7.20000000E-01
  7.20000000E-01  8.50000000E-01  7.20000000E-01  7.20000000E-01  8.50000000E-01
  8.50000000E-01  7.20000000E-01  8.50000000E-01  7.20000000E-01  8.50000000E-01
  7.20000000E-01  8.50000000E-01  8.50000000E-01  8.50000000E-01  8.50000000E-01
  8.50000000E-01  8.50000000E-01  8.50000000E-01  8.50000000E-01  8.50000000E-01
  8.50000000E-01  8.50000000E-01  8.50000000E-01  8.50000000E-01  8.50000000E-01
  8.50000000E-01  8.50000000E-01  8.50000000E-01  8.50000000E-01  8.50000000E-01
  8.50000000E-01  8.50000000E-01  8.50000000E-01  8.50000000E-01  8.50000000E-01
  8.50000000E-01  8.50000000E-01  8.50000000E-01  7.20000000E-01  7.20000000E-01
  8.50000000E-01  7.20000000E-01  7.20000000E-01  7.20000000E-01  7.20000000E-01
  7.20000000E-01  7.20000000E-01  8.50000000E-01  7.90000000E-01  7.20000000E-01
  7.20000000E-01  7.20000000E-01  7.20000000E-01  8.50000000E-01  7.20000000E-01
  7.20000000E-01  8.50000000E-01  7.20000000E-01  7.20000000E-01  8.50000000E-01
  8.50000000E-01  7.20000000E-01  8.50000000E-01  7.20000000E-01  8.50000000E-01
  7.20000000E-01  8.50000000E-01  8.50000000E-01  8.50000000E-01  8.50000000E-01
  8.50000000E-01  8.50000000E-01  8.50000000E-01  8.50000000E-01  8.50000000E-01
  8.50000000E-01  8.50000000E-01  8.50000000E-01  8.50000000E-01  8.50000000E-01
  8.50000000E-01  8.50000000E-01  8.50000000E-01  8.50000000E-01  8.50000000E-01
  8.50000000E-01  8.50000000E-01  8.50000000E-01  8.50000000E-01  8.50000000E-01
  8.50000000E-01  8.50000000E-01  8.50000000E-01  7.20000000E-01  7.20000000E-01
  8.50000000E-01  7.20000000E-01  7.20000000E-01  7.20000000E-01  7.20000000E-01
  7.20000000E-01  7.20000000E-01  8.50000000E-01  7.90000000E-01  7.20000000E-01
  7.20000000E-01  7.20000000E-01  7.20000000E-01  8.50000000E-01  7.20000000E-01
  7.20000000E-01  8.50000000E-01  7.20000000E-01  7.20000000E-01  8.50000000E-01
  8.50000000E-01  7.20000000E-01  8.50000000E-01  7.20000000E-01  8.50000000E-01
  7.20000000E-01  8.50000000E-01  8.50000000E-01  8.50000000E-01  8.50000000E-01
  8.50000000E-01  8.50000000E-01  8.50000000E-01  8.50000000E-01  8.50000000E-01
  8.50000000E-01  8.50000000E-01  8.50000000E-01  8.50000000E-01  8.50000000E-01
  8.50000000E-01  8.50000000E-01  8.50000000E-01  8.50000000E-01  8.50000000E-01
  8.50000000E-01  8.50000000E-01  8.50000000E-01  8.50000000E-01  8.50000000E-01
  8.50000000E-01  8.50000000E-01  8.50000000E-01  7.20000000E-01  7.20000000E-01
  8.50000000E-01  7.20000000E-01  7.20000000E-01  7.20000000E-01  7.20000000E-01
  7.20000000E-01  7.20000000E-01  8.50000000E-01  7.90000000E-01  7.20000000E-01
  7.20000000E-01  7.20000000E-01  7.20000000E-01  8.50000000E-01  7.20000000E-01
  7.20000000E-01  8.50000000E-01  7.20000000E-01  7.20000000E-01  8.50000000E-01
  8.50000000E-01  7.20000000E-01  8.50000000E-01  7.20000000E-01  8.50000000E-01
  7.20000000E-01  8.50000000E-01  8.50000000E-01  8.50000000E-01  8.50000000E-01
  8.50000000E-01  8.50000000E-01  8.50000000E-01  8.50000000E-01  8.50000000E-01
  8.50000000E-01  8.50000000E-01  8.50000000E-01  8.50000000E-01  8.50000000E-01
  8.50000000E-01  8.50000000E-01  8.50000000E-01  8.50000000E-01  8.50000000E-01
  8.50000000E-01  8.50000000E-01  8.50000000E-01  8.50000000E-01  8.50000000E-01
  8.50000000E-01  8.50000000E-01  8.50000000E-01  7.20000000E-01  7.20000000E-01
  8.50000000E-01  7.20000000E-01  7.20000000E-01  7.20000000E-01  7.20000000E-01
  7.20000000E-01  7.20000000E-01  8.50000000E-01  7.90000000E-01  7.20000000E-01
  7.20000000E-01  7.20000000E-01  7.20000000E-01  8.50000000E-01  7.20000000E-01
  7.20000000E-01  8.50000000E-01  7.20000000E-01  7.20000000E-01  8.50000000E-01
  8.50000000E-01  7.20000000E-01  8.50000000E-01  7.20000000E-01  8.50000000E-01
  7.20000000E-01  8.50000000E-01  8.50000000E-01  8.50000000E-01  8.50000000E-01
  8.50000000E-01  8.50000000E-01  8.50000000E-01  8.50000000E-01  8.50000000E-01
  8.50000000E-01  8.50000000E-01  8.50000000E-01  8.50000000E-01  8.50000000E-01
  8.50000000E-01  8.50000000E-01  8.50000000E-01  8.50000000E-01  8.50000000E-01
  8.50000000E-01  8.50000000E-01  8.50000000E-01  8.50000000E-01  8.50000000E-01
  8.50000000E-01  8.50000000E-01  7.20000000E-01  8.50000000E-01  8.50000000E-01
  8.50000000E-01  8.50000000E-01  8.50000000E-01  8.50000000E-01  8.50000000E-01
  8.50000000E-01  8.50000000E-01  8.50000000E-01  8.50000000E-01  8.50000000E-01
  8.50000000E-01  8.50000000E-01  8.50000000E-01  8.50000000E-01  8.50000000E-01
  8.50000000E-01  8.50000000E-01  8.50000000E-01  8.50000000E-01  8.50000000E-01
  8.50000000E-01  8.50000000E-01  8.50000000E-01  8.50000000E-01  8.50000000E-01
  8.50000000E-01  8.50000000E-01  8.50000000E-01  8.50000000E-01  8.50000000E-01
  8.50000000E-01  8.50000000E-01  8.50000000E-01  8.50000000E-01  8.50000000E-01
  8.50000000E-01  8.50000000E-01  8.50000000E-01  8.50000000E-01  8.50000000E-01
  8.50000000E-01  8.50000000E-01  8.50000000E-01  8.50000000E-01  8.50000000E-01
  8.50000000E-01  8.50000000E-01  8.50000000E-01  8.50000000E-01  8.50000000E-01
  8.50000000E-01  8.50000000E-01  8.50000000E-01  8.50000000E-01  8.50000000E-01
  8.50000000E-01  8.50000000E-01  8.50000000E-01  8.50000000E-01  8.50000000E-01
  8.50000000E-01  8.50000000E-01  8.50000000E-01  8.50000000E-01  8.50000000E-01
  8.50000000E-01  8.50000000E-01  8.50000000E-01  8.50000000E-01  8.50000000E-01
  8.50000000E-01  8.50000000E-01  8.50000000E-01  8.50000000E-01  8.50000000E-01
  8.50000000E-01  8.50000000E-01  8.50000000E-01  8.50000000E-01  8.50000000E-01
  8.50000000E-01  8.50000000E-01  8.50000000E-01  8.50000000E-01  8.50000000E-01
  8.50000000E-01  8.50000000E-01  8.50000000E-01  8.50000000E-01  8.50000000E-01
  8.50000000E-01  8.50000000E-01  8.50000000E-01  8.50000000E-01  8.50000000E-01
  8.50000000E-01  8.50000000E-01  8.50000000E-01  8.50000000E-01  8.50000000E-01
  8.50000000E-01  8.50000000E-01  8.50000000E-01  8.50000000E-01  8.50000000E-01
  8.50000000E-01  8.50000000E-01  8.50000000E-01  8.50000000E-01  8.50000000E-01
  8.50000000E-01  8.50000000E-01  8.50000000E-01  8.50000000E-01  8.50000000E-01
  8.50000000E-01  8.50000000E-01  8.50000000E-01  8.50000000E-01  8.50000000E-01
  8.50000000E-01  8.50000000E-01  8.50000000E-01  8.50000000E-01  8.50000000E-01
  8.50000000E-01  8.50000000E-01  8.50000000E-01  8.50000000E-01  8.50000000E-01
  8.50000000E-01  8.50000000E-01  8.50000000E-01  8.50000000E-01  8.50000000E-01
  8.50000000E-01  8.50000000E-01  8.50000000E-01  8.50000000E-01  8.50000000E-01
  8.50000000E-01  8.50000000E-01  8.50000000E-01  8.50000000E-01  8.50000000E-01
  8.50000000E-01  8.50000000E-01  8.50000000E-01  8.50000000E-01  8.50000000E-01
  8.50000000E-01  8.50000000E-01  8.50000000E-01  8.50000000E-01  8.50000000E-01
  8.50000000E-01  8.50000000E-01  8.50000000E-01  8.50000000E-01  8.50000000E-01
  8.50000000E-01  8.50000000E-01  8.50000000E-01  8.50000000E-01  8.50000000E-01
  8.50000000E-01  8.50000000E-01  8.50000000E-01  8.50000000E-01  8.50000000E-01
  8.50000000E-01  8.50000000E-01  8.50000000E-01  8.50000000E-01  8.50000000E-01
  8.50000000E-01  8.50000000E-01  8.50000000E-01  8.50000000E-01  8.50000000E-01
  8.50000000E-01  8.50000000E-01  8.50000000E-01  8.50000000E-01  8.50000000E-01
  8.50000000E-01  8.50000000E-01  8.50000000E-01  8.50000000E-01  8.50000000E-01
  8.50000000E-01  8.50000000E-01  8.50000000E-01  8.50000000E-01  8.50000000E-01
  8.50000000E-01  8.50000000E-01  8.50000000E-01  8.50000000E-01  8.50000000E-01
  8.50000000E-01  8.50000000E-01  8.50000000E-01  8.50000000E-01  8.50000000E-01
  8.50000000E-01  8.50000000E-01  8.50000000E-01  8.50000000E-01  8.50000000E-01
  8.50000000E-01  8.50000000E-01  8.50000000E-01  8.50000000E-01  8.50000000E-01
  8.50000000E-01  8.50000000E-01  8.50000000E-01  8.50000000E-01  8.50000000E-01
  8.50000000E-01  8.50000000E-01  8.50000000E-01  8.50000000E-01  8.50000000E-01
  8.50000000E-01  8.50000000E-01  8.50000000E-01  8.50000000E-01  8.50000000E-01
  8.50000000E-01  8.50000000E-01  8.50000000E-01  8.50000000E-01  8.50000000E-01
  8.50000000E-01  8.50000000E-01  8.50000000E-01  8.50000000E-01  8.50000000E-01
  8.50000000E-01  8.50000000E-01  8.50000000E-01  8.50000000E-01  8.50000000E-01
  8.50000000E-01  8.50000000E-01  8.50000000E-01  8.50000000E-01  8.50000000E-01
  8.50000000E-01  8.50000000E-01  8.50000000E-01  8.50000000E-01  8.50000000E-01
  8.50000000E-01  8.50000000E-01  8.50000000E-01  8.50000000E-01  8.50000000E-01
  8.50000000E-01  8.50000000E-01  8.50000000E-01  8.50000000E-01  8.50000000E-01
  8.50000000E-01  8.50000000E-01  8.50000000E-01  8.50000000E-01  8.50000000E-01
  8.50000000E-01  8.50000000E-01  8.50000000E-01  8.50000000E-01  8.50000000E-01
  8.50000000E-01  8.50000000E-01  8.50000000E-01  8.50000000E-01  8.50000000E-01
  8.50000000E-01  8.50000000E-01  8.50000000E-01  8.50000000E-01  8.50000000E-01
  8.50000000E-01  8.50000000E-01  8.50000000E-01  8.50000000E-01  8.50000000E-01
  8.50000000E-01  8.50000000E-01  8.50000000E-01  8.50000000E-01  8.50000000E-01
  8.50000000E-01  8.50000000E-01  8.50000000E-01  8.50000000E-01  8.50000000E-01
  8.50000000E-01  8.50000000E-01  8.50000000E-01  8.50000000E-01  8.50000000E-01
  8.50000000E-01  8.50000000E-01  8.50000000E-01  8.50000000E-01  8.50000000E-01
  8.50000000E-01  8.50000000E-01  8.50000000E-01  8.50000000E-01  8.50000000E-01
  8.50000000E-01  8.50000000E-01  8.50000000E-01  8.50000000E-01  8.50000000E-01
  8.50000000E-01  8.50000000E-01  8.50000000E-01  8.50000000E-01  8.50000000E-01
  8.50000000E-01  8.50000000E-01  8.50000000E-01  8.50000000E-01  8.50000000E-01
  8.50000000E-01  8.50000000E-01  8.50000000E-01  8.50000000E-01  8.50000000E-01
  8.50000000E-01  8.50000000E-01  8.50000000E-01  8.50000000E-01  8.50000000E-01
  8.50000000E-01  8.50000000E-01  8.50000000E-01  8.50000000E-01  8.50000000E-01
  8.50000000E-01  8.50000000E-01  8.50000000E-01  8.50000000E-01  8.50000000E-01
  8.50000000E-01  8.50000000E-01  8.50000000E-01  8.50000000E-01  8.50000000E-01
  8.50000000E-01  8.50000000E-01  8.50000000E-01  8.50000000E-01  8.50000000E-01
  8.50000000E-01  8.50000000E-01  8.50000000E-01  8.50000000E-01  8.50000000E-01
  8.50000000E-01  8.50000000E-01  8.50000000E-01  8.50000000E-01  8.50000000E-01
  8.50000000E-01  8.50000000E-01  8.50000000E-01  8.50000000E-01  8.50000000E-01
  8.50000000E-01  8.50000000E-01  8.50000000E-01  8.50000000E-01  8.50000000E-01
  8.50000000E-01  8.50000000E-01  8.50000000E-01  8.50000000E-01  8.50000000E-01
  8.50000000E-01  8.50000000E-01  8.50000000E-01  8.50000000E-01  8.50000000E-01
  8.50000000E-01  8.50000000E-01  8.50000000E-01  8.50000000E-01  8.50000000E-01
  8.50000000E-01  8.50000000E-01  8.50000000E-01  8.50000000E-01  8.50000000E-01
  8.50000000E-01  8.50000000E-01  8.50000000E-01  8.50000000E-01  8.50000000E-01
  8.50000000E-01  8.50000000E-01  8.50000000E-01  8.50000000E-01  8.50000000E-01
  8.50000000E-01  8.50000000E-01  8.50000000E-01  8.50000000E-01  8.50000000E-01
  8.50000000E-01  8.50000000E-01  8.50000000E-01  8.50000000E-01  8.50000000E-01
  8.50000000E-01  8.50000000E-01  8.50000000E-01  8.50000000E-01  8.50000000E-01
  8.50000000E-01  8.50000000E-01  8.50000000E-01  8.50000000E-01  8.50000000E-01
  8.50000000E-01  8.50000000E-01  8.50000000E-01  8.50000000E-01  8.50000000E-01
  8.50000000E-01  8.50000000E-01  8.50000000E-01  8.50000000E-01  8.50000000E-01
  8.50000000E-01  8.50000000E-01  8.50000000E-01  8.50000000E-01  8.50000000E-01
  8.50000000E-01  8.50000000E-01  8.50000000E-01  8.50000000E-01  8.50000000E-01
  8.50000000E-01  8.50000000E-01  8.50000000E-01  8.50000000E-01  8.50000000E-01
  8.50000000E-01  8.50000000E-01  8.50000000E-01  8.50000000E-01  8.50000000E-01
  8.50000000E-01  8.50000000E-01  8.50000000E-01  8.50000000E-01  8.50000000E-01
  8.50000000E-01  8.50000000E-01  8.50000000E-01  8.50000000E-01  8.50000000E-01
  8.50000000E-01  8.50000000E-01  8.50000000E-01  8.50000000E-01  8.50000000E-01
  8.50000000E-01  8.50000000E-01  8.50000000E-01  8.50000000E-01  8.50000000E-01
  8.50000000E-01  8.50000000E-01  8.50000000E-01  8.50000000E-01  8.50000000E-01
  8.50000000E-01  8.50000000E-01  8.50000000E-01  8.50000000E-01  8.50000000E-01
  8.50000000E-01  8.50000000E-01  8.50000000E-01  8.50000000E-01  8.50000000E-01
  8.50000000E-01  8.50000000E-01  8.50000000E-01  8.50000000E-01  8.50000000E-01
  8.50000000E-01  8.50000000E-01  8.50000000E-01  8.50000000E-01  8.50000000E-01
  8.50000000E-01  8.50000000E-01  8.50000000E-01  8.50000000E-01  8.50000000E-01
  8.50000000E-01  8.50000000E-01  8.50000000E-01  8.50000000E-01  8.50000000E-01
  8.50000000E-01  8.50000000E-01  8.50000000E-01  8.50000000E-01  8.50000000E-01
  8.50000000E-01  8.50000000E-01  8.50000000E-01  8.50000000E-01  8.50000000E-01
  8.50000000E-01  8.50000000E-01  8.50000000E-01  8.50000000E-01  8.50000000E-01
  8.50000000E-01  8.50000000E-01  8.50000000E-01  8.50000000E-01  8.50000000E-01
  8.50000000E-01  8.50000000E-01  8.50000000E-01  8.50000000E-01  8.50000000E-01
  8.50000000E-01  8.50000000E-01  8.50000000E-01  8.50000000E-01  8.50000000E-01
  8.50000000E-01  8.50000000E-01  8.50000000E-01  8.50000000E-01  8.50000000E-01
  8.50000000E-01  8.50000000E-01  8.50000000E-01  8.50000000E-01  8.50000000E-01
  8.50000000E-01  8.50000000E-01  8.50000000E-01  8.50000000E-01  8.50000000E-01
  8.50000000E-01  8.50000000E-01  8.50000000E-01  8.50000000E-01  8.50000000E-01
  8.50000000E-01  8.50000000E-01  8.50000000E-01  8.50000000E-01  8.50000000E-01
  8.50000000E-01  8.50000000E-01  8.50000000E-01  8.50000000E-01  8.50000000E-01
  8.50000000E-01  8.50000000E-01  8.50000000E-01  8.50000000E-01  8.50000000E-01
  8.50000000E-01  8.50000000E-01  8.50000000E-01  8.50000000E-01  8.50000000E-01
  8.50000000E-01  8.50000000E-01  8.50000000E-01  8.50000000E-01  8.50000000E-01
  8.50000000E-01  8.50000000E-01  8.50000000E-01  8.50000000E-01  8.50000000E-01
  8.50000000E-01  8.50000000E-01  8.50000000E-01  8.50000000E-01  8.50000000E-01
  8.50000000E-01  8.50000000E-01  8.50000000E-01  8.50000000E-01  8.50000000E-01
  8.50000000E-01  8.50000000E-01  8.50000000E-01  8.50000000E-01  8.50000000E-01
  8.50000000E-01  8.50000000E-01  8.50000000E-01  8.50000000E-01  8.50000000E-01
  8.50000000E-01  8.50000000E-01  8.50000000E-01  8.50000000E-01  8.50000000E-01
  8.50000000E-01  8.50000000E-01  8.50000000E-01  8.50000000E-01  8.50000000E-01
  8.50000000E-01  8.50000000E-01  8.50000000E-01  8.50000000E-01  8.50000000E-01
  8.50000000E-01  8.50000000E-01  8.50000000E-01  8.50000000E-01  8.50000000E-01
  8.50000000E-01  8.50000000E-01  8.50000000E-01  8.50000000E-01  8.50000000E-01
  8.50000000E-01  8.50000000E-01  8.50000000E-01  8.50000000E-01  8.50000000E-01
  8.50000000E-01  8.50000000E-01  8.50000000E-01  8.50000000E-01  8.50000000E-01
  8.50000000E-01  8.50000000E-01  8.50000000E-01  8.50000000E-01  8.50000000E-01
  8.50000000E-01  8.50000000E-01  8.50000000E-01  8.50000000E-01  8.50000000E-01
  8.50000000E-01  8.50000000E-01  8.50000000E-01  8.50000000E-01  8.50000000E-01
  8.50000000E-01  8.50000000E-01  8.50000000E-01  8.50000000E-01  8.50000000E-01
  8.50000000E-01  8.50000000E-01  8.50000000E-01  8.50000000E-01  8.50000000E-01
  8.50000000E-01  8.50000000E-01  8.50000000E-01  8.50000000E-01  8.50000000E-01
  8.50000000E-01  8.50000000E-01  8.50000000E-01  8.50000000E-01  8.50000000E-01
  8.50000000E-01  8.50000000E-01  8.50000000E-01  8.50000000E-01  8.50000000E-01
  8.50000000E-01  8.50000000E-01  8.50000000E-01  8.50000000E-01  8.50000000E-01
  8.50000000E-01  8.50000000E-01  8.50000000E-01  8.50000000E-01  8.50000000E-01
  8.50000000E-01  8.50000000E-01  8.50000000E-01  8.50000000E-01  8.50000000E-01
  8.50000000E-01  8.50000000E-01  8.50000000E-01  8.50000000E-01  8.50000000E-01
  8.50000000E-01  8.50000000E-01  8.50000000E-01  8.50000000E-01  8.50000000E-01
  8.50000000E-01  8.50000000E-01  8.50000000E-01  8.50000000E-01  8.50000000E-01
  8.50000000E-01  8.50000000E-01  8.50000000E-01  8.50000000E-01  8.50000000E-01
  8.50000000E-01  8.50000000E-01  8.50000000E-01  8.50000000E-01  8.50000000E-01
  8.50000000E-01  8.50000000E-01  8.50000000E-01  8.50000000E-01  8.50000000E-01
  8.50000000E-01  8.50000000E-01  8.50000000E-01  8.50000000E-01  8.50000000E-01
  8.50000000E-01  8.50000000E-01  8.50000000E-01  8.50000000E-01  8.50000000E-01
  8.50000000E-01  8.50000000E-01  8.50000000E-01  8.50000000E-01  8.50000000E-01
  8.50000000E-01  8.50000000E-01  8.50000000E-01  8.50000000E-01  8.50000000E-01
  8.50000000E-01  8.50000000E-01  8.50000000E-01  8.50000000E-01  8.50000000E-01
  8.50000000E-01  8.50000000E-01  8.50000000E-01  8.50000000E-01  8.50000000E-01
  8.50000000E-01  8.50000000E-01  8.50000000E-01  8.50000000E-01  8.50000000E-01
  8.50000000E-01  8.50000000E-01  8.50000000E-01  8.50000000E-01  8.50000000E-01
  8.50000000E-01  8.50000000E-01  8.50000000E-01  8.50000000E-01  8.50000000E-01
  8.50000000E-01  8.50000000E-01  8.50000000E-01  8.50000000E-01  8.50000000E-01
  8.50000000E-01  8.50000000E-01  8.50000000E-01  8.50000000E-01  8.50000000E-01
  8.50000000E-01  8.50000000E-01  8.50000000E-01  8.50000000E-01  8.50000000E-01
  8.50000000E-01  8.50000000E-01  8.50000000E-01  8.50000000E-01  8.50000000E-01
  8.50000000E-01  8.50000000E-01  8.50000000E-01  8.50000000E-01  8.50000000E-01
  8.50000000E-01  8.50000000E-01  8.50000000E-01  8.50000000E-01  8.50000000E-01
  8.50000000E-01  8.50000000E-01  8.50000000E-01  8.50000000E-01  8.50000000E-01
  8.50000000E-01  8.50000000E-01  8.50000000E-01  8.50000000E-01  8.50000000E-01
  8.50000000E-01  8.50000000E-01  8.50000000E-01  8.50000000E-01  8.50000000E-01
  8.50000000E-01  8.50000000E-01  8.50000000E-01  8.50000000E-01  8.50000000E-01
  8.50000000E-01  8.50000000E-01  8.50000000E-01  8.50000000E-01  8.50000000E-01
  8.50000000E-01  8.50000000E-01  8.50000000E-01  8.50000000E-01  8.50000000E-01
  8.50000000E-01  8.50000000E-01  8.50000000E-01  8.50000000E-01  8.50000000E-01
  8.50000000E-01  8.50000000E-01  8.50000000E-01  8.50000000E-01  8.50000000E-01
  8.50000000E-01  8.50000000E-01  8.50000000E-01  8.50000000E-01  8.50000000E-01
  8.50000000E-01  8.50000000E-01  8.50000000E-01  8.50000000E-01  8.50000000E-01
  8.50000000E-01  8.50000000E-01  8.50000000E-01  8.50000000E-01  8.50000000E-01
  8.50000000E-01  8.50000000E-01  8.50000000E-01  8.50000000E-01  8.50000000E-01
  8.50000000E-01  8.50000000E-01  8.50000000E-01  8.50000000E-01  8.50000000E-01
  8.50000000E-01  8.50000000E-01  8.50000000E-01  8.50000000E-01  8.50000000E-01
  8.50000000E-01  8.50000000E-01  8.50000000E-01  8.50000000E-01  8.50000000E-01
  8.50000000E-01  8.50000000E-01  8.50000000E-01  8.50000000E-01  8.50000000E-01
  8.50000000E-01  8.50000000E-01  8.50000000E-01  8.50000000E-01  8.50000000E-01
  8.50000000E-01  8.50000000E-01  8.50000000E-01  8.50000000E-01  8.50000000E-01
  8.50000000E-01  8.50000000E-01  8.50000000E-01  8.50000000E-01  8.50000000E-01
  8.50000000E-01  8.50000000E-01  8.50000000E-01  8.50000000E-01  8.50000000E-01
  8.50000000E-01  8.50000000E-01  8.50000000E-01  8.50000000E-01  8.50000000E-01
  8.50000000E-01  8.50000000E-01  8.50000000E-01  8.50000000E-01  8.50000000E-01
  8.50000000E-01  8.50000000E-01  8.50000000E-01  8.50000000E-01  8.50000000E-01
  8.50000000E-01  8.50000000E-01  8.50000000E-01  8.50000000E-01  8.50000000E-01
  8.50000000E-01  8.50000000E-01  8.50000000E-01  8.50000000E-01  8.50000000E-01
  8.50000000E-01  8.50000000E-01  8.50000000E-01  8.50000000E-01  8.50000000E-01
  8.50000000E-01  8.50000000E-01  8.50000000E-01  8.50000000E-01  8.50000000E-01
  8.50000000E-01  8.50000000E-01  8.50000000E-01  8.50000000E-01  8.50000000E-01
  8.50000000E-01  8.50000000E-01  8.50000000E-01  8.50000000E-01  8.50000000E-01
  8.50000000E-01  8.50000000E-01  8.50000000E-01  8.50000000E-01  8.50000000E-01
  8.50000000E-01  8.50000000E-01  8.50000000E-01  8.50000000E-01  8.50000000E-01
  8.50000000E-01  8.50000000E-01  8.50000000E-01  8.50000000E-01  8.50000000E-01
  8.50000000E-01  8.50000000E-01  8.50000000E-01  8.50000000E-01  8.50000000E-01
  8.50000000E-01  8.50000000E-01  8.50000000E-01  8.50000000E-01  8.50000000E-01
  8.50000000E-01  8.50000000E-01  8.50000000E-01  8.50000000E-01  8.50000000E-01
  8.50000000E-01  8.50000000E-01  8.50000000E-01  8.50000000E-01  8.50000000E-01
  8.50000000E-01  8.50000000E-01  8.50000000E-01  8.50000000E-01  8.50000000E-01
  8.50000000E-01  8.50000000E-01  8.50000000E-01  8.50000000E-01  8.50000000E-01
  8.50000000E-01  8.50000000E-01  8.50000000E-01  8.50000000E-01  8.50000000E-01
  8.50000000E-01  8.50000000E-01  8.50000000E-01  8.50000000E-01  8.50000000E-01
  8.50000000E-01  8.50000000E-01  8.50000000E-01  8.50000000E-01  8.50000000E-01
  8.50000000E-01  8.50000000E-01  8.50000000E-01  8.50000000E-01  8.50000000E-01
  8.50000000E-01  8.50000000E-01  8.50000000E-01  8.50000000E-01  8.50000000E-01
  8.50000000E-01  8.50000000E-01  8.50000000E-01  8.50000000E-01  8.50000000E-01
  8.50000000E-01  8.50000000E-01  8.50000000E-01  8.50000000E-01  8.50000000E-01
  8.50000000E-01  8.50000000E-01  8.50000000E-01  8.50000000E-01  8.50000000E-01
  8.50000000E-01  8.50000000E-01  8.50000000E-01  8.50000000E-01  8.50000000E-01
  8.50000000E-01  8.50000000E-01  8.50000000E-01  8.50000000E-01  8.50000000E-01
  8.50000000E-01  8.50000000E-01  8.50000000E-01  8.50000000E-01  8.50000000E-01
  8.50000000E-01  8.50000000E-01  8.50000000E-01  8.50000000E-01  8.50000000E-01
  8.50000000E-01  8.50000000E-01  8.50000000E-01  8.50000000E-01  8.50000000E-01
  8.50000000E-01  8.50000000E-01  8.50000000E-01  8.50000000E-01  8.50000000E-01
  8.50000000E-01  8.50000000E-01  8.50000000E-01  8.50000000E-01  8.50000000E-01
  8.50000000E-01  8.50000000E-01  8.50000000E-01  8.50000000E-01  8.50000000E-01
  8.50000000E-01  8.50000000E-01  8.50000000E-01  8.50000000E-01  8.50000000E-01
  8.50000000E-01  8.50000000E-01  8.50000000E-01  8.50000000E-01  8.50000000E-01
  8.50000000E-01  8.50000000E-01  8.50000000E-01  8.50000000E-01  8.50000000E-01
  8.50000000E-01  8.50000000E-01  8.50000000E-01  8.50000000E-01  8.50000000E-01
  8.50000000E-01  8.50000000E-01  8.50000000E-01  8.50000000E-01  8.50000000E-01
  8.50000000E-01  8.50000000E-01  8.50000000E-01  8.50000000E-01  8.50000000E-01
  8.50000000E-01  8.50000000E-01  8.50000000E-01  8.50000000E-01  8.50000000E-01
  8.50000000E-01  8.50000000E-01  8.50000000E-01  8.50000000E-01  8.50000000E-01
  8.50000000E-01  8.50000000E-01  8.50000000E-01  8.50000000E-01  8.50000000E-01
  8.50000000E-01  8.50000000E-01  8.50000000E-01  8.50000000E-01  8.50000000E-01
  8.50000000E-01  8.50000000E-01  8.50000000E-01  8.50000000E-01  8.50000000E-01
  8.50000000E-01  8.50000000E-01  8.50000000E-01  8.50000000E-01  8.50000000E-01
  8.50000000E-01  8.50000000E-01  8.50000000E-01  8.50000000E-01  8.50000000E-01
  8.50000000E-01  8.50000000E-01  8.50000000E-01  8.50000000E-01  8.50000000E-01
  8.50000000E-01  8.50000000E-01  8.50000000E-01  8.50000000E-01  8.50000000E-01
  8.50000000E-01  8.50000000E-01  8.50000000E-01  8.50000000E-01  8.50000000E-01
  8.50000000E-01  8.50000000E-01  8.50000000E-01  8.50000000E-01  8.50000000E-01
  8.50000000E-01  8.50000000E-01  8.50000000E-01  8.50000000E-01  8.50000000E-01
  8.50000000E-01  8.50000000E-01  8.50000000E-01  8.50000000E-01  8.50000000E-01
  8.50000000E-01  8.50000000E-01  8.50000000E-01  8.50000000E-01  8.50000000E-01
  8.50000000E-01  8.50000000E-01  8.50000000E-01  8.50000000E-01  8.50000000E-01
  8.50000000E-01  8.50000000E-01  8.50000000E-01  8.50000000E-01  8.50000000E-01
  8.50000000E-01  8.50000000E-01  8.50000000E-01  8.50000000E-01  8.50000000E-01
  8.50000000E-01  8.50000000E-01  8.50000000E-01  8.50000000E-01  8.50000000E-01
  8.50000000E-01  8.50000000E-01  8.50000000E-01  8.50000000E-01  8.50000000E-01
  8.50000000E-01  8.50000000E-01  8.50000000E-01  8.50000000E-01  8.50000000E-01
  8.50000000E-01  8.50000000E-01  8.50000000E-01  8.50000000E-01  8.50000000E-01
  8.50000000E-01  8.50000000E-01  8.50000000E-01  8.50000000E-01  8.50000000E-01
  8.50000000E-01  8.50000000E-01  8.50000000E-01  8.50000000E-01  8.50000000E-01
  8.50000000E-01  8.50000000E-01  8.50000000E-01  8.50000000E-01  8.50000000E-01
  8.50000000E-01  8.50000000E-01  8.50000000E-01  8.50000000E-01  8.50000000E-01
  8.50000000E-01  8.50000000E-01  8.50000000E-01  8.50000000E-01  8.50000000E-01
  8.50000000E-01  8.50000000E-01  8.50000000E-01  8.50000000E-01  8.50000000E-01
  8.50000000E-01  8.50000000E-01  8.50000000E-01  8.50000000E-01  8.50000000E-01
  8.50000000E-01  8.50000000E-01  8.50000000E-01  8.50000000E-01  8.50000000E-01
  8.50000000E-01  8.50000000E-01  8.50000000E-01  8.50000000E-01  8.50000000E-01
  8.50000000E-01  8.50000000E-01  8.50000000E-01  8.50000000E-01  8.50000000E-01
  8.50000000E-01  8.50000000E-01  8.50000000E-01  8.50000000E-01  8.50000000E-01
  8.50000000E-01  8.50000000E-01  8.50000000E-01  8.50000000E-01  8.50000000E-01
  8.50000000E-01  8.50000000E-01  8.50000000E-01  8.50000000E-01  8.50000000E-01
  8.50000000E-01  8.50000000E-01  8.50000000E-01  8.50000000E-01  8.50000000E-01
  8.50000000E-01  8.50000000E-01  8.50000000E-01  8.50000000E-01  8.50000000E-01
  8.50000000E-01  8.50000000E-01  8.50000000E-01  8.50000000E-01  8.50000000E-01
  8.50000000E-01  8.50000000E-01  8.50000000E-01  8.50000000E-01  8.50000000E-01
  8.50000000E-01  8.50000000E-01  8.50000000E-01  8.50000000E-01  8.50000000E-01
  8.50000000E-01  8.50000000E-01  8.50000000E-01  8.50000000E-01  8.50000000E-01
  8.50000000E-01  8.50000000E-01  8.50000000E-01  8.50000000E-01  8.50000000E-01
  8.50000000E-01  8.50000000E-01  8.50000000E-01  8.50000000E-01  8.50000000E-01
  8.50000000E-01  8.50000000E-01  8.50000000E-01  8.50000000E-01  8.50000000E-01
  8.50000000E-01  8.50000000E-01  8.50000000E-01  8.50000000E-01  8.50000000E-01
  8.50000000E-01  8.50000000E-01  8.50000000E-01  8.50000000E-01  8.50000000E-01
  8.50000000E-01  8.50000000E-01  8.50000000E-01  8.50000000E-01  8.50000000E-01
  8.50000000E-01  8.50000000E-01  8.50000000E-01  8.50000000E-01  8.50000000E-01
  8.50000000E-01  8.50000000E-01  8.50000000E-01  8.50000000E-01  8.50000000E-01
  8.50000000E-01  8.50000000E-01  8.50000000E-01  8.50000000E-01  8.50000000E-01
  8.50000000E-01  8.50000000E-01  8.50000000E-01  8.50000000E-01  8.50000000E-01
  8.50000000E-01  8.50000000E-01  8.50000000E-01  8.50000000E-01  8.50000000E-01
  8.50000000E-01  8.50000000E-01  8.50000000E-01  8.50000000E-01  8.50000000E-01
  8.50000000E-01  8.50000000E-01  8.50000000E-01  8.50000000E-01  8.50000000E-01
  8.50000000E-01  8.50000000E-01  8.50000000E-01  8.50000000E-01  8.50000000E-01
  8.50000000E-01  8.50000000E-01  8.50000000E-01  8.50000000E-01  8.50000000E-01
  8.50000000E-01  8.50000000E-01  8.50000000E-01  8.50000000E-01  8.50000000E-01
  8.50000000E-01  8.50000000E-01  8.50000000E-01  8.50000000E-01  8.50000000E-01
  8.50000000E-01  8.50000000E-01  8.50000000E-01  8.50000000E-01  8.50000000E-01
  8.50000000E-01  8.50000000E-01  8.50000000E-01  8.50000000E-01  8.50000000E-01
  8.50000000E-01  8.50000000E-01  8.50000000E-01  8.50000000E-01  8.50000000E-01
  8.50000000E-01  8.50000000E-01  8.50000000E-01  8.50000000E-01  8.50000000E-01
  8.50000000E-01  8.50000000E-01  8.50000000E-01  8.50000000E-01  8.50000000E-01
  8.50000000E-01  8.50000000E-01  8.50000000E-01  8.50000000E-01  8.50000000E-01
  8.50000000E-01  8.50000000E-01  8.50000000E-01  8.50000000E-01  8.50000000E-01
  8.50000000E-01  8.50000000E-01  8.50000000E-01  8.50000000E-01  8.50000000E-01
  8.50000000E-01  8.50000000E-01  8.50000000E-01  8.50000000E-01  8.50000000E-01
  8.50000000E-01  8.50000000E-01  8.50000000E-01  8.50000000E-01  8.50000000E-01
  8.50000000E-01  8.50000000E-01  8.50000000E-01  8.50000000E-01  8.50000000E-01
  8.50000000E-01  8.50000000E-01  8.50000000E-01  8.50000000E-01  8.50000000E-01
  8.50000000E-01  8.50000000E-01  8.50000000E-01  8.50000000E-01  8.50000000E-01
  8.50000000E-01  8.50000000E-01  8.50000000E-01  8.50000000E-01  8.50000000E-01
  8.50000000E-01  8.50000000E-01  8.50000000E-01  8.50000000E-01  8.50000000E-01
  8.50000000E-01  8.50000000E-01  8.50000000E-01  8.50000000E-01  8.50000000E-01
  8.50000000E-01  8.50000000E-01  8.50000000E-01  8.50000000E-01  8.50000000E-01
  8.50000000E-01  8.50000000E-01  8.50000000E-01  8.50000000E-01  8.50000000E-01
  8.50000000E-01  8.50000000E-01  8.50000000E-01  8.50000000E-01  8.50000000E-01
  8.50000000E-01  8.50000000E-01  8.50000000E-01  8.50000000E-01  8.50000000E-01
  8.50000000E-01  8.50000000E-01  8.50000000E-01  8.50000000E-01  8.50000000E-01
  8.50000000E-01  8.50000000E-01  8.50000000E-01  8.50000000E-01  8.50000000E-01
  8.50000000E-01  8.50000000E-01  8.50000000E-01  8.50000000E-01  8.50000000E-01
  8.50000000E-01  8.50000000E-01  8.50000000E-01  8.50000000E-01  8.50000000E-01
  8.50000000E-01  8.50000000E-01  8.50000000E-01  8.50000000E-01  8.50000000E-01
  8.50000000E-01  8.50000000E-01  8.50000000E-01  8.50000000E-01  8.50000000E-01
  8.50000000E-01  8.50000000E-01  8.50000000E-01  8.50000000E-01  8.50000000E-01
  8.50000000E-01  8.50000000E-01  8.50000000E-01  8.50000000E-01  8.50000000E-01
  8.50000000E-01  8.50000000E-01  8.50000000E-01  8.50000000E-01  8.50000000E-01
  8.50000000E-01  8.50000000E-01  8.50000000E-01  8.50000000E-01  8.50000000E-01
  8.50000000E-01  8.50000000E-01  8.50000000E-01  8.50000000E-01  8.50000000E-01
  8.50000000E-01  8.50000000E-01  8.50000000E-01  8.50000000E-01  8.50000000E-01
  8.50000000E-01  8.50000000E-01  8.50000000E-01  8.50000000E-01  8.50000000E-01
  8.50000000E-01  8.50000000E-01  8.50000000E-01  8.50000000E-01  8.50000000E-01
  8.50000000E-01  8.50000000E-01  8.50000000E-01  8.50000000E-01  8.50000000E-01
  8.50000000E-01  8.50000000E-01  8.50000000E-01  8.50000000E-01  8.50000000E-01
  8.50000000E-01  8.50000000E-01  8.50000000E-01  8.50000000E-01  8.50000000E-01
  8.50000000E-01  8.50000000E-01  8.50000000E-01  8.50000000E-01  8.50000000E-01
  8.50000000E-01  8.50000000E-01  8.50000000E-01  8.50000000E-01  8.50000000E-01
  8.50000000E-01  8.50000000E-01  8.50000000E-01  8.50000000E-01  8.50000000E-01
  8.50000000E-01  8.50000000E-01  8.50000000E-01  8.50000000E-01  8.50000000E-01
  8.50000000E-01  8.50000000E-01  8.50000000E-01  8.50000000E-01  8.50000000E-01
  8.50000000E-01  8.50000000E-01  8.50000000E-01  8.50000000E-01  8.50000000E-01
  8.50000000E-01  8.50000000E-01  8.50000000E-01  8.50000000E-01  8.50000000E-01
  8.50000000E-01  8.50000000E-01  8.50000000E-01  8.50000000E-01  8.50000000E-01
  8.50000000E-01  8.50000000E-01  8.50000000E-01  8.50000000E-01  8.50000000E-01
  8.50000000E-01  8.50000000E-01  8.50000000E-01  8.50000000E-01  8.50000000E-01
  8.50000000E-01  8.50000000E-01  8.50000000E-01  8.50000000E-01  8.50000000E-01
  8.50000000E-01  8.50000000E-01  8.50000000E-01  8.50000000E-01  8.50000000E-01
  8.50000000E-01  8.50000000E-01  8.50000000E-01  8.50000000E-01  8.50000000E-01
  8.50000000E-01  8.50000000E-01  8.50000000E-01  8.50000000E-01  8.50000000E-01
  8.50000000E-01  8.50000000E-01  8.50000000E-01  8.50000000E-01  8.50000000E-01
  8.50000000E-01  8.50000000E-01  8.50000000E-01  8.50000000E-01  8.50000000E-01
  8.50000000E-01  8.50000000E-01  8.50000000E-01  8.50000000E-01  8.50000000E-01
  8.50000000E-01  8.50000000E-01  8.50000000E-01  8.50000000E-01  8.50000000E-01
  8.50000000E-01  8.50000000E-01  8.50000000E-01  8.50000000E-01  8.50000000E-01
  8.50000000E-01  8.50000000E-01  8.50000000E-01  8.50000000E-01  8.50000000E-01
  8.50000000E-01  8.50000000E-01  8.50000000E-01  8.50000000E-01  8.50000000E-01
  8.50000000E-01  8.50000000E-01  8.50000000E-01  8.50000000E-01  8.50000000E-01
  8.50000000E-01  8.50000000E-01  8.50000000E-01  8.50000000E-01  8.50000000E-01
  8.50000000E-01  8.50000000E-01  8.50000000E-01  8.50000000E-01  8.50000000E-01
  8.50000000E-01  8.50000000E-01  8.50000000E-01  8.50000000E-01  8.50000000E-01
  8.50000000E-01  8.50000000E-01  8.50000000E-01  8.50000000E-01  8.50000000E-01
  8.50000000E-01  8.50000000E-01  8.50000000E-01  8.50000000E-01  8.50000000E-01
  8.50000000E-01  8.50000000E-01  8.50000000E-01  8.50000000E-01  8.50000000E-01
  8.50000000E-01  8.50000000E-01  8.50000000E-01  8.50000000E-01  8.50000000E-01
  8.50000000E-01  8.50000000E-01  8.50000000E-01  8.50000000E-01  8.50000000E-01
  8.50000000E-01  8.50000000E-01  8.50000000E-01  8.50000000E-01  8.50000000E-01
  8.50000000E-01  8.50000000E-01  8.50000000E-01  8.50000000E-01  8.50000000E-01
  8.50000000E-01  8.50000000E-01  8.50000000E-01  8.50000000E-01  8.50000000E-01
  8.50000000E-01  8.50000000E-01  8.50000000E-01  8.50000000E-01  8.50000000E-01
  8.50000000E-01  8.50000000E-01  8.50000000E-01  8.50000000E-01  8.50000000E-01
  8.50000000E-01  8.50000000E-01  8.50000000E-01  8.50000000E-01  8.50000000E-01
  8.50000000E-01  8.50000000E-01  8.50000000E-01  8.50000000E-01  8.50000000E-01
  8.50000000E-01  8.50000000E-01  8.50000000E-01  8.50000000E-01  8.50000000E-01
  8.50000000E-01  8.50000000E-01  8.50000000E-01  8.50000000E-01  8.50000000E-01
  8.50000000E-01  8.50000000E-01  8.50000000E-01  8.50000000E-01  8.50000000E-01
  8.50000000E-01  8.50000000E-01  8.50000000E-01  8.50000000E-01  8.50000000E-01
  8.50000000E-01  8.50000000E-01  8.50000000E-01  8.50000000E-01  8.50000000E-01
  8.50000000E-01  8.50000000E-01  8.50000000E-01  8.50000000E-01  8.50000000E-01
  8.50000000E-01  8.50000000E-01  8.50000000E-01  8.50000000E-01  8.50000000E-01
  8.50000000E-01  8.50000000E-01  8.50000000E-01  8.50000000E-01  8.50000000E-01
  8.50000000E-01  8.50000000E-01  8.50000000E-01  8.50000000E-01  8.50000000E-01
  8.50000000E-01  8.50000000E-01  8.50000000E-01  8.50000000E-01  8.50000000E-01
  8.50000000E-01  8.50000000E-01  8.50000000E-01  8.50000000E-01  8.50000000E-01
  8.50000000E-01  8.50000000E-01  8.50000000E-01  8.50000000E-01  8.50000000E-01
  8.50000000E-01  8.50000000E-01  8.50000000E-01  8.50000000E-01  8.50000000E-01
  8.50000000E-01  8.50000000E-01  8.50000000E-01  8.50000000E-01  8.50000000E-01
  8.50000000E-01  8.50000000E-01  8.50000000E-01  8.50000000E-01  8.50000000E-01
  8.50000000E-01  8.50000000E-01  8.50000000E-01  8.50000000E-01  8.50000000E-01
  8.50000000E-01  8.50000000E-01  8.50000000E-01  8.50000000E-01  8.50000000E-01
  8.50000000E-01  8.50000000E-01  8.50000000E-01  8.50000000E-01  8.50000000E-01
  8.50000000E-01  8.50000000E-01  8.50000000E-01  8.50000000E-01  8.50000000E-01
  8.50000000E-01  8.50000000E-01  8.50000000E-01  8.50000000E-01  8.50000000E-01
  8.50000000E-01  8.50000000E-01  8.50000000E-01  8.50000000E-01  8.50000000E-01
  8.50000000E-01  8.50000000E-01  8.50000000E-01  8.50000000E-01  8.50000000E-01
  8.50000000E-01  8.50000000E-01  8.50000000E-01  8.50000000E-01  8.50000000E-01
  8.50000000E-01  8.50000000E-01  8.50000000E-01  8.50000000E-01  8.50000000E-01
  8.50000000E-01  8.50000000E-01  8.50000000E-01  8.50000000E-01  8.50000000E-01
  8.50000000E-01  8.50000000E-01  8.50000000E-01  8.50000000E-01  8.50000000E-01
  8.50000000E-01  8.50000000E-01  8.50000000E-01  8.50000000E-01  8.50000000E-01
  8.50000000E-01  8.50000000E-01  8.50000000E-01  8.50000000E-01  8.50000000E-01
  8.50000000E-01  8.50000000E-01  8.50000000E-01  8.50000000E-01  8.50000000E-01
  8.50000000E-01  8.50000000E-01  8.50000000E-01  8.50000000E-01  8.50000000E-01
  8.50000000E-01  8.50000000E-01  8.50000000E-01  8.50000000E-01  8.50000000E-01
  8.50000000E-01  8.50000000E-01  8.50000000E-01  8.50000000E-01  8.50000000E-01
  8.50000000E-01  8.50000000E-01  8.50000000E-01  8.50000000E-01  8.50000000E-01
  8.50000000E-01  8.50000000E-01  8.50000000E-01  8.50000000E-01  8.50000000E-01
  8.50000000E-01  8.50000000E-01  8.50000000E-01  8.50000000E-01  8.50000000E-01
  8.50000000E-01  8.50000000E-01  8.50000000E-01  8.50000000E-01  8.50000000E-01
  8.50000000E-01  8.50000000E-01  8.50000000E-01  8.50000000E-01  8.50000000E-01
  8.50000000E-01  8.50000000E-01  8.50000000E-01  8.50000000E-01  8.50000000E-01
  8.50000000E-01  8.50000000E-01  8.50000000E-01  8.50000000E-01  8.50000000E-01
  8.50000000E-01  8.50000000E-01  8.50000000E-01  8.50000000E-01  8.50000000E-01
  8.50000000E-01  8.50000000E-01  8.50000000E-01  8.50000000E-01  8.50000000E-01
  8.50000000E-01  8.50000000E-01  8.50000000E-01  8.50000000E-01  8.50000000E-01
  8.50000000E-01  8.50000000E-01  8.50000000E-01  8.50000000E-01  8.50000000E-01
  8.50000000E-01  8.50000000E-01  8.50000000E-01  8.50000000E-01  8.50000000E-01
  8.50000000E-01  8.50000000E-01  8.50000000E-01  8.50000000E-01  8.50000000E-01
  8.50000000E-01  8.50000000E-01  8.50000000E-01  8.50000000E-01  8.50000000E-01
  8.50000000E-01  8.50000000E-01  8.50000000E-01  8.50000000E-01  8.50000000E-01
  8.50000000E-01  8.50000000E-01  8.50000000E-01  8.50000000E-01  8.50000000E-01
  8.50000000E-01  8.50000000E-01  8.50000000E-01  8.50000000E-01  8.50000000E-01
  8.50000000E-01  8.50000000E-01  8.50000000E-01  8.50000000E-01  8.50000000E-01
  8.50000000E-01  8.50000000E-01  8.50000000E-01  8.50000000E-01  8.50000000E-01
  8.50000000E-01  8.50000000E-01  8.50000000E-01  8.50000000E-01  8.50000000E-01
  8.50000000E-01  8.50000000E-01  8.50000000E-01  8.50000000E-01  8.50000000E-01
  8.50000000E-01  8.50000000E-01  8.50000000E-01  8.50000000E-01  8.50000000E-01
  8.50000000E-01  8.50000000E-01  8.50000000E-01  8.50000000E-01  8.50000000E-01
  8.50000000E-01  8.50000000E-01  8.50000000E-01  8.50000000E-01  8.50000000E-01
  8.50000000E-01  8.50000000E-01  8.50000000E-01  8.50000000E-01  8.50000000E-01
  8.50000000E-01  8.50000000E-01  8.50000000E-01  8.50000000E-01  8.50000000E-01
  8.50000000E-01  8.50000000E-01  8.50000000E-01  8.50000000E-01  8.50000000E-01
  8.50000000E-01  8.50000000E-01  8.50000000E-01  8.50000000E-01  8.50000000E-01
  8.50000000E-01  8.50000000E-01  8.50000000E-01  8.50000000E-01  8.50000000E-01
  8.50000000E-01  8.50000000E-01  8.50000000E-01  8.50000000E-01  8.50000000E-01
  8.50000000E-01  8.50000000E-01  8.50000000E-01  8.50000000E-01  8.50000000E-01
  8.50000000E-01  8.50000000E-01  8.50000000E-01  8.50000000E-01  8.50000000E-01
  8.50000000E-01  8.50000000E-01  8.50000000E-01  8.50000000E-01  8.50000000E-01
  8.50000000E-01  8.50000000E-01  8.50000000E-01  8.50000000E-01  8.50000000E-01
  8.50000000E-01  8.50000000E-01  8.50000000E-01  8.50000000E-01  8.50000000E-01
  8.50000000E-01  8.50000000E-01  8.50000000E-01  8.50000000E-01  8.50000000E-01
  8.50000000E-01  8.50000000E-01  8.50000000E-01  8.50000000E-01  8.50000000E-01
  8.50000000E-01  8.50000000E-01  8.50000000E-01  8.50000000E-01  8.50000000E-01
  8.50000000E-01  8.50000000E-01  8.50000000E-01  8.50000000E-01  8.50000000E-01
  8.50000000E-01  8.50000000E-01  8.50000000E-01  8.50000000E-01  8.50000000E-01
  8.50000000E-01  8.50000000E-01  8.50000000E-01  8.50000000E-01  8.50000000E-01
  8.50000000E-01  8.50000000E-01  8.50000000E-01  8.50000000E-01  8.50000000E-01
  8.50000000E-01  8.50000000E-01  8.50000000E-01  8.50000000E-01  8.50000000E-01
  8.50000000E-01  8.50000000E-01  8.50000000E-01  8.50000000E-01  8.50000000E-01
  8.50000000E-01  8.50000000E-01  8.50000000E-01  8.50000000E-01  8.50000000E-01
  8.50000000E-01  8.50000000E-01  8.50000000E-01  8.50000000E-01  8.50000000E-01
  8.50000000E-01  8.50000000E-01  8.50000000E-01  8.50000000E-01  8.50000000E-01
  8.50000000E-01  8.50000000E-01  8.50000000E-01  8.50000000E-01  8.50000000E-01
  8.50000000E-01  8.50000000E-01  8.50000000E-01  8.50000000E-01  8.50000000E-01
  8.50000000E-01  8.50000000E-01  8.50000000E-01  8.50000000E-01  8.50000000E-01
  8.50000000E-01  8.50000000E-01  8.50000000E-01  8.50000000E-01  8.50000000E-01
  8.50000000E-01  8.50000000E-01  8.50000000E-01  8.50000000E-01  8.50000000E-01
  8.50000000E-01  8.50000000E-01  8.50000000E-01  8.50000000E-01  8.50000000E-01
  8.50000000E-01  8.50000000E-01  8.50000000E-01  8.50000000E-01  8.50000000E-01
  8.50000000E-01  8.50000000E-01  8.50000000E-01  8.50000000E-01  8.50000000E-01
  8.50000000E-01  8.50000000E-01  8.50000000E-01  8.50000000E-01  8.50000000E-01
  8.50000000E-01  8.50000000E-01  8.50000000E-01  8.50000000E-01  8.50000000E-01
  8.50000000E-01  8.50000000E-01  8.50000000E-01  8.50000000E-01  8.50000000E-01
  8.50000000E-01  8.50000000E-01  8.50000000E-01  8.50000000E-01  8.50000000E-01
  8.50000000E-01  8.50000000E-01  8.50000000E-01  8.50000000E-01  8.50000000E-01
  8.50000000E-01  8.50000000E-01  8.50000000E-01  8.50000000E-01  8.50000000E-01
  8.50000000E-01  8.50000000E-01  8.50000000E-01  8.50000000E-01  8.50000000E-01
  8.50000000E-01  8.50000000E-01  8.50000000E-01  8.50000000E-01  8.50000000E-01
  8.50000000E-01  8.50000000E-01  8.50000000E-01  8.50000000E-01  8.50000000E-01
  8.50000000E-01  8.50000000E-01  8.50000000E-01  8.50000000E-01  8.50000000E-01
  8.50000000E-01  8.50000000E-01  8.50000000E-01  8.50000000E-01  8.50000000E-01
  8.50000000E-01  8.50000000E-01  8.50000000E-01  8.50000000E-01  8.50000000E-01
  8.50000000E-01  8.50000000E-01  8.50000000E-01  8.50000000E-01  8.50000000E-01
  8.50000000E-01  8.50000000E-01  8.50000000E-01  8.50000000E-01  8.50000000E-01
  8.50000000E-01  8.50000000E-01  8.50000000E-01  8.50000000E-01  8.50000000E-01
  8.50000000E-01  8.50000000E-01  8.50000000E-01  8.50000000E-01  8.50000000E-01
  8.50000000E-01  8.50000000E-01  8.50000000E-01  8.50000000E-01  8.50000000E-01
  8.50000000E-01  8.50000000E-01  8.50000000E-01  8.50000000E-01  8.50000000E-01
  8.50000000E-01  8.50000000E-01  8.50000000E-01  8.50000000E-01  8.50000000E-01
  8.50000000E-01  8.50000000E-01  8.50000000E-01  8.50000000E-01  8.50000000E-01
  8.50000000E-01  8.50000000E-01  8.50000000E-01  8.50000000E-01  8.50000000E-01
  8.50000000E-01  8.50000000E-01  8.50000000E-01  8.50000000E-01  8.50000000E-01
  8.50000000E-01  8.50000000E-01  8.50000000E-01  8.50000000E-01  8.50000000E-01
  8.50000000E-01  8.50000000E-01  8.50000000E-01  8.50000000E-01  8.50000000E-01
  8.50000000E-01  8.50000000E-01  8.50000000E-01  8.50000000E-01  8.50000000E-01
  8.50000000E-01  8.50000000E-01  8.50000000E-01  8.50000000E-01  8.50000000E-01
  8.50000000E-01  8.50000000E-01  8.50000000E-01  8.50000000E-01  8.50000000E-01
  8.50000000E-01  8.50000000E-01  8.50000000E-01  8.50000000E-01  8.50000000E-01
  8.50000000E-01  8.50000000E-01  8.50000000E-01  8.50000000E-01  8.50000000E-01
  8.50000000E-01  8.50000000E-01  8.50000000E-01  8.50000000E-01  8.50000000E-01
  8.50000000E-01  8.50000000E-01  8.50000000E-01  8.50000000E-01  8.50000000E-01
  8.50000000E-01  8.50000000E-01  8.50000000E-01  8.50000000E-01  8.50000000E-01
  8.50000000E-01  8.50000000E-01  8.50000000E-01  8.50000000E-01  8.50000000E-01
  8.50000000E-01  8.50000000E-01  8.50000000E-01  8.50000000E-01  8.50000000E-01
  8.50000000E-01  8.50000000E-01  8.50000000E-01  8.50000000E-01  8.50000000E-01
  8.50000000E-01  8.50000000E-01  8.50000000E-01  8.50000000E-01  8.50000000E-01
  8.50000000E-01  8.50000000E-01  8.50000000E-01  8.50000000E-01  8.50000000E-01
  8.50000000E-01  8.50000000E-01  8.50000000E-01  8.50000000E-01  8.50000000E-01
  8.50000000E-01  8.50000000E-01  8.50000000E-01  8.50000000E-01  8.50000000E-01
  8.50000000E-01  8.50000000E-01  8.50000000E-01  8.50000000E-01  8.50000000E-01
  8.50000000E-01  8.50000000E-01  8.50000000E-01  8.50000000E-01  8.50000000E-01
  8.50000000E-01  8.50000000E-01  8.50000000E-01  8.50000000E-01  8.50000000E-01
  8.50000000E-01  8.50000000E-01  8.50000000E-01  8.50000000E-01  8.50000000E-01
  8.50000000E-01  8.50000000E-01  8.50000000E-01  8.50000000E-01  8.50000000E-01
  8.50000000E-01  8.50000000E-01  8.50000000E-01  8.50000000E-01  8.50000000E-01
  8.50000000E-01  8.50000000E-01  8.50000000E-01  8.50000000E-01  8.50000000E-01
  8.50000000E-01  8.50000000E-01  8.50000000E-01  8.50000000E-01  8.50000000E-01
  8.50000000E-01  8.50000000E-01  8.50000000E-01  8.50000000E-01  8.50000000E-01
  8.50000000E-01  8.50000000E-01  8.50000000E-01  8.50000000E-01  8.50000000E-01
  8.50000000E-01  8.50000000E-01  8.50000000E-01  8.50000000E-01  8.50000000E-01
  8.50000000E-01  8.50000000E-01  8.50000000E-01  8.50000000E-01  8.50000000E-01
  8.50000000E-01  8.50000000E-01  8.50000000E-01  8.50000000E-01  8.50000000E-01
  8.50000000E-01  8.50000000E-01  8.50000000E-01  8.50000000E-01  8.50000000E-01
  8.50000000E-01  8.50000000E-01  8.50000000E-01  8.50000000E-01  8.50000000E-01
  8.50000000E-01  8.50000000E-01  8.50000000E-01  8.50000000E-01  8.50000000E-01
  8.50000000E-01  8.50000000E-01  8.50000000E-01  8.50000000E-01  8.50000000E-01
  8.50000000E-01  8.50000000E-01  8.50000000E-01  8.50000000E-01  8.50000000E-01
  8.50000000E-01  8.50000000E-01  8.50000000E-01  8.50000000E-01  8.50000000E-01
  8.50000000E-01  8.50000000E-01  8.50000000E-01  8.50000000E-01  8.50000000E-01
  8.50000000E-01  8.50000000E-01  8.50000000E-01  8.50000000E-01  8.50000000E-01
  8.50000000E-01  8.50000000E-01  8.50000000E-01  8.50000000E-01  8.50000000E-01
  8.50000000E-01  8.50000000E-01  8.50000000E-01  8.50000000E-01  8.50000000E-01
  8.50000000E-01  8.50000000E-01  8.50000000E-01  8.50000000E-01  8.50000000E-01
  8.50000000E-01  8.50000000E-01  8.50000000E-01  8.50000000E-01  8.50000000E-01
  8.50000000E-01  8.50000000E-01  8.50000000E-01  8.50000000E-01  8.50000000E-01
  8.50000000E-01  8.50000000E-01  8.50000000E-01  8.50000000E-01  8.50000000E-01
  8.50000000E-01  8.50000000E-01  8.50000000E-01  8.50000000E-01  8.50000000E-01
  8.50000000E-01  8.50000000E-01  8.50000000E-01  8.50000000E-01  8.50000000E-01
  8.50000000E-01  8.50000000E-01  8.50000000E-01  8.50000000E-01  8.50000000E-01
  8.50000000E-01  8.50000000E-01  8.50000000E-01  8.50000000E-01  8.50000000E-01
  8.50000000E-01  8.50000000E-01  8.50000000E-01  8.50000000E-01  8.50000000E-01
  8.50000000E-01  8.50000000E-01  8.50000000E-01  8.50000000E-01  8.50000000E-01
  8.50000000E-01  8.50000000E-01  8.50000000E-01  8.50000000E-01  8.50000000E-01
  8.50000000E-01  8.50000000E-01  8.50000000E-01  8.50000000E-01  8.50000000E-01
  8.50000000E-01  8.50000000E-01  8.50000000E-01  8.50000000E-01  8.50000000E-01
  8.50000000E-01  8.50000000E-01  8.50000000E-01  8.50000000E-01  8.50000000E-01
  8.50000000E-01  8.50000000E-01  8.50000000E-01  8.50000000E-01  8.50000000E-01
  8.50000000E-01  8.50000000E-01  8.50000000E-01  8.50000000E-01  8.50000000E-01
  8.50000000E-01  8.50000000E-01  8.50000000E-01  8.50000000E-01  8.50000000E-01
  8.50000000E-01  8.50000000E-01  8.50000000E-01  8.50000000E-01  8.50000000E-01
  8.50000000E-01  8.50000000E-01  8.50000000E-01  8.50000000E-01  8.50000000E-01
  8.50000000E-01  8.50000000E-01  8.50000000E-01  8.50000000E-01  8.50000000E-01
  8.50000000E-01  8.50000000E-01  8.50000000E-01  8.50000000E-01  8.50000000E-01
  8.50000000E-01  8.50000000E-01  8.50000000E-01  8.50000000E-01  8.50000000E-01
  8.50000000E-01  8.50000000E-01  8.50000000E-01  8.50000000E-01  8.50000000E-01
  8.50000000E-01  8.50000000E-01  8.50000000E-01  8.50000000E-01  8.50000000E-01
  8.50000000E-01  8.50000000E-01  8.50000000E-01  8.50000000E-01  8.50000000E-01
  8.50000000E-01  8.50000000E-01  8.50000000E-01  8.50000000E-01  8.50000000E-01
  8.50000000E-01  8.50000000E-01  8.50000000E-01  8.50000000E-01  8.50000000E-01
  8.50000000E-01  8.50000000E-01  8.50000000E-01  8.50000000E-01  8.50000000E-01
  8.50000000E-01  8.50000000E-01  8.50000000E-01  8.50000000E-01  8.50000000E-01
  8.50000000E-01  8.50000000E-01  8.50000000E-01  8.50000000E-01  8.50000000E-01
  8.50000000E-01  8.50000000E-01  8.50000000E-01  8.50000000E-01  8.50000000E-01
  8.50000000E-01  8.50000000E-01  8.50000000E-01  8.50000000E-01  8.50000000E-01
  8.50000000E-01  8.50000000E-01  8.50000000E-01  8.50000000E-01  8.50000000E-01
  8.50000000E-01  8.50000000E-01  8.50000000E-01  8.50000000E-01  8.50000000E-01
  8.50000000E-01  8.50000000E-01  8.50000000E-01  8.50000000E-01  8.50000000E-01
  8.50000000E-01  8.50000000E-01  8.50000000E-01  8.50000000E-01  8.50000000E-01
  8.50000000E-01  8.50000000E-01  8.50000000E-01  8.50000000E-01  8.50000000E-01
  8.50000000E-01  8.50000000E-01  8.50000000E-01  8.50000000E-01  8.50000000E-01
  8.50000000E-01  8.50000000E-01  8.50000000E-01  8.50000000E-01  8.50000000E-01
  8.50000000E-01  8.50000000E-01  8.50000000E-01  8.50000000E-01  8.50000000E-01
  8.50000000E-01  8.50000000E-01  8.50000000E-01  8.50000000E-01  8.50000000E-01
  8.50000000E-01  8.50000000E-01  8.50000000E-01  8.50000000E-01  8.50000000E-01
  8.50000000E-01  8.50000000E-01  8.50000000E-01  8.50000000E-01  8.50000000E-01
  8.50000000E-01  8.50000000E-01  8.50000000E-01  8.50000000E-01  8.50000000E-01
  8.50000000E-01  8.50000000E-01  8.50000000E-01  8.50000000E-01  8.50000000E-01
  8.50000000E-01  8.50000000E-01  8.50000000E-01  8.50000000E-01  8.50000000E-01
  8.50000000E-01  8.50000000E-01  8.50000000E-01  8.50000000E-01  8.50000000E-01
  8.50000000E-01  8.50000000E-01  8.50000000E-01  8.50000000E-01  8.50000000E-01
  8.50000000E-01  8.50000000E-01  8.50000000E-01  8.50000000E-01  8.50000000E-01
  8.50000000E-01  8.50000000E-01  8.50000000E-01  8.50000000E-01  8.50000000E-01
  8.50000000E-01  8.50000000E-01  8.50000000E-01  8.50000000E-01  8.50000000E-01
  8.50000000E-01  8.50000000E-01  8.50000000E-01  8.50000000E-01  8.50000000E-01
  8.50000000E-01  8.50000000E-01  8.50000000E-01  8.50000000E-01  8.50000000E-01
  8.50000000E-01  8.50000000E-01  8.50000000E-01  8.50000000E-01  8.50000000E-01
  8.50000000E-01  8.50000000E-01  8.50000000E-01  8.50000000E-01  8.50000000E-01
  8.50000000E-01  8.50000000E-01  8.50000000E-01  8.50000000E-01  8.50000000E-01
  8.50000000E-01  8.50000000E-01  8.50000000E-01  8.50000000E-01  8.50000000E-01
  8.50000000E-01  8.50000000E-01  8.50000000E-01  8.50000000E-01  8.50000000E-01
  8.50000000E-01  8.50000000E-01  8.50000000E-01  8.50000000E-01  8.50000000E-01
  8.50000000E-01  8.50000000E-01  8.50000000E-01  8.50000000E-01  8.50000000E-01
  8.50000000E-01  8.50000000E-01  8.50000000E-01  8.50000000E-01  8.50000000E-01
  8.50000000E-01  8.50000000E-01  8.50000000E-01  8.50000000E-01  8.50000000E-01
  8.50000000E-01  8.50000000E-01  8.50000000E-01  8.50000000E-01  8.50000000E-01
  8.50000000E-01  8.50000000E-01  8.50000000E-01  8.50000000E-01  8.50000000E-01
  8.50000000E-01  8.50000000E-01  8.50000000E-01  8.50000000E-01  8.50000000E-01
  8.50000000E-01  8.50000000E-01  8.50000000E-01  8.50000000E-01  8.50000000E-01
  8.50000000E-01  8.50000000E-01  8.50000000E-01  8.50000000E-01  8.50000000E-01
  8.50000000E-01  8.50000000E-01  8.50000000E-01  8.50000000E-01  8.50000000E-01
  8.50000000E-01  8.50000000E-01  8.50000000E-01  8.50000000E-01  8.50000000E-01
  8.50000000E-01  8.50000000E-01  8.50000000E-01  8.50000000E-01  8.50000000E-01
  8.50000000E-01  8.50000000E-01  8.50000000E-01  8.50000000E-01  8.50000000E-01
  8.50000000E-01  8.50000000E-01  8.50000000E-01  8.50000000E-01  8.50000000E-01
  8.50000000E-01  8.50000000E-01  8.50000000E-01  8.50000000E-01  8.50000000E-01
  8.50000000E-01  8.50000000E-01  8.50000000E-01  8.50000000E-01  8.50000000E-01
  8.50000000E-01  8.50000000E-01  8.50000000E-01  8.50000000E-01  8.50000000E-01
  8.50000000E-01  8.50000000E-01  8.50000000E-01  8.50000000E-01  8.50000000E-01
  8.50000000E-01  8.50000000E-01  8.50000000E-01  8.50000000E-01  8.50000000E-01
  8.50000000E-01  8.50000000E-01  8.50000000E-01  8.50000000E-01  8.50000000E-01
  8.50000000E-01  8.50000000E-01  8.50000000E-01  8.50000000E-01  8.50000000E-01
  8.50000000E-01  8.50000000E-01  8.50000000E-01  8.50000000E-01  8.50000000E-01
  8.50000000E-01  8.50000000E-01  8.50000000E-01  8.50000000E-01  8.50000000E-01
  8.50000000E-01  8.50000000E-01  8.50000000E-01  8.50000000E-01  8.50000000E-01
  8.50000000E-01  8.50000000E-01  8.50000000E-01  8.50000000E-01  8.50000000E-01
  8.50000000E-01  8.50000000E-01  8.50000000E-01  8.50000000E-01  8.50000000E-01
  8.50000000E-01  8.50000000E-01  8.50000000E-01  8.50000000E-01  8.50000000E-01
  8.50000000E-01  8.50000000E-01  8.50000000E-01  8.50000000E-01  8.50000000E-01
  8.50000000E-01  8.50000000E-01  8.50000000E-01  8.50000000E-01  8.50000000E-01
  8.50000000E-01  8.50000000E-01  8.50000000E-01  8.50000000E-01  8.50000000E-01
  8.50000000E-01  8.50000000E-01  8.50000000E-01  8.50000000E-01  8.50000000E-01
  8.50000000E-01  8.50000000E-01  8.50000000E-01  8.50000000E-01  8.50000000E-01
  8.50000000E-01  8.50000000E-01  8.50000000E-01  8.50000000E-01  8.50000000E-01
  8.50000000E-01  8.50000000E-01  8.50000000E-01  8.50000000E-01  8.50000000E-01
  8.50000000E-01  8.50000000E-01  8.50000000E-01  8.50000000E-01  8.50000000E-01
  8.50000000E-01  8.50000000E-01  8.50000000E-01  8.50000000E-01  8.50000000E-01
  8.50000000E-01  8.50000000E-01  8.50000000E-01  8.50000000E-01  8.50000000E-01
  8.50000000E-01  8.50000000E-01  8.50000000E-01  8.50000000E-01  8.50000000E-01
  8.50000000E-01  8.50000000E-01  8.50000000E-01  8.50000000E-01  8.50000000E-01
  8.50000000E-01  8.50000000E-01  8.50000000E-01  8.50000000E-01  8.50000000E-01
  8.50000000E-01  8.50000000E-01  8.50000000E-01  8.50000000E-01  8.50000000E-01
  8.50000000E-01  8.50000000E-01  8.50000000E-01  8.50000000E-01  8.50000000E-01
  8.50000000E-01  8.50000000E-01  8.50000000E-01  8.50000000E-01  8.50000000E-01
  8.50000000E-01  8.50000000E-01  8.50000000E-01  8.50000000E-01  8.50000000E-01
  8.50000000E-01  8.50000000E-01  8.50000000E-01  8.50000000E-01  8.50000000E-01
  8.50000000E-01  8.50000000E-01  8.50000000E-01  8.50000000E-01  8.50000000E-01
  8.50000000E-01  8.50000000E-01  8.50000000E-01  8.50000000E-01  8.50000000E-01
  8.50000000E-01  8.50000000E-01  8.50000000E-01  8.50000000E-01  8.50000000E-01
  8.50000000E-01  8.50000000E-01  8.50000000E-01  8.50000000E-01  8.50000000E-01
  8.50000000E-01  8.50000000E-01  8.50000000E-01  8.50000000E-01  8.50000000E-01
  8.50000000E-01  8.50000000E-01  8.50000000E-01  8.50000000E-01  8.50000000E-01
  8.50000000E-01  8.50000000E-01  8.50000000E-01  8.50000000E-01  8.50000000E-01
  8.50000000E-01  8.50000000E-01  8.50000000E-01  8.50000000E-01  8.50000000E-01
  8.50000000E-01  8.50000000E-01  8.50000000E-01  8.50000000E-01  8.50000000E-01
  8.50000000E-01  8.50000000E-01  8.50000000E-01  8.50000000E-01  8.50000000E-01
  8.50000000E-01  8.50000000E-01  8.50000000E-01  8.50000000E-01  8.50000000E-01
  8.50000000E-01  8.50000000E-01  8.50000000E-01  8.50000000E-01  8.50000000E-01
  8.50000000E-01  8.50000000E-01  8.50000000E-01  8.50000000E-01  8.50000000E-01
  8.50000000E-01  8.50000000E-01  8.50000000E-01  8.50000000E-01  8.50000000E-01
  8.50000000E-01  8.50000000E-01  8.50000000E-01  8.50000000E-01  8.50000000E-01
  8.50000000E-01  8.50000000E-01  8.50000000E-01  8.50000000E-01  8.50000000E-01
  8.50000000E-01  8.50000000E-01  8.50000000E-01  8.50000000E-01  8.50000000E-01
  8.50000000E-01  8.50000000E-01  8.50000000E-01  8.50000000E-01  8.50000000E-01
  8.50000000E-01  8.50000000E-01  8.50000000E-01  8.50000000E-01  8.50000000E-01
  8.50000000E-01  8.50000000E-01  8.50000000E-01  8.50000000E-01  8.50000000E-01
  8.50000000E-01  8.50000000E-01  8.50000000E-01  8.50000000E-01  8.50000000E-01
  8.50000000E-01  8.50000000E-01  8.50000000E-01  8.50000000E-01  8.50000000E-01
  8.50000000E-01  8.50000000E-01  8.50000000E-01  8.50000000E-01  8.50000000E-01
  8.50000000E-01  8.50000000E-01  8.50000000E-01  8.50000000E-01  8.50000000E-01
  8.50000000E-01  8.50000000E-01  8.50000000E-01  8.50000000E-01  8.50000000E-01
  8.50000000E-01  8.50000000E-01  8.50000000E-01  8.50000000E-01  8.50000000E-01
  8.50000000E-01  8.50000000E-01  8.50000000E-01  8.50000000E-01  8.50000000E-01
  8.50000000E-01  8.50000000E-01  8.50000000E-01  8.50000000E-01  8.50000000E-01
  8.50000000E-01  8.50000000E-01  8.50000000E-01  8.50000000E-01  8.50000000E-01
  8.50000000E-01  8.50000000E-01  8.50000000E-01  8.50000000E-01  8.50000000E-01
  8.50000000E-01  8.50000000E-01  8.50000000E-01  8.50000000E-01  8.50000000E-01
  8.50000000E-01  8.50000000E-01  8.50000000E-01  8.50000000E-01  8.50000000E-01
  8.50000000E-01  8.50000000E-01  8.50000000E-01  8.50000000E-01  8.50000000E-01
  8.50000000E-01  8.50000000E-01  8.50000000E-01  8.50000000E-01  8.50000000E-01
  8.50000000E-01  8.50000000E-01  8.50000000E-01  8.50000000E-01  8.50000000E-01
  8.50000000E-01  8.50000000E-01  8.50000000E-01  8.50000000E-01  8.50000000E-01
  8.50000000E-01  8.50000000E-01  8.50000000E-01  8.50000000E-01  8.50000000E-01
  8.50000000E-01  8.50000000E-01  8.50000000E-01  8.50000000E-01  8.50000000E-01
  8.50000000E-01  8.50000000E-01  8.50000000E-01  8.50000000E-01  8.50000000E-01
  8.50000000E-01  8.50000000E-01  8.50000000E-01  8.50000000E-01  8.50000000E-01
  8.50000000E-01  8.50000000E-01  8.50000000E-01  8.50000000E-01  8.50000000E-01
  8.50000000E-01  8.50000000E-01  8.50000000E-01  8.50000000E-01  8.50000000E-01
  8.50000000E-01  8.50000000E-01  8.50000000E-01  8.50000000E-01  8.50000000E-01
  8.50000000E-01  8.50000000E-01  8.50000000E-01  8.50000000E-01  8.50000000E-01
  8.50000000E-01  8.50000000E-01  8.50000000E-01  8.50000000E-01  8.50000000E-01
  8.50000000E-01  8.50000000E-01  8.50000000E-01  8.50000000E-01  8.50000000E-01
  8.50000000E-01  8.50000000E-01  8.50000000E-01  8.50000000E-01  8.50000000E-01
  8.50000000E-01  8.50000000E-01  8.50000000E-01  8.50000000E-01  8.50000000E-01
  8.50000000E-01  8.50000000E-01  8.50000000E-01  8.50000000E-01  8.50000000E-01
  8.50000000E-01  8.50000000E-01  8.50000000E-01  8.50000000E-01  8.50000000E-01
  8.50000000E-01  8.50000000E-01  8.50000000E-01  8.50000000E-01  8.50000000E-01
  8.50000000E-01  8.50000000E-01  8.50000000E-01  8.50000000E-01  8.50000000E-01
  8.50000000E-01  8.50000000E-01  8.50000000E-01  8.50000000E-01  8.50000000E-01
  8.50000000E-01  8.50000000E-01  8.50000000E-01  8.50000000E-01  8.50000000E-01
  8.50000000E-01  8.50000000E-01  8.50000000E-01  8.50000000E-01  8.50000000E-01
  8.50000000E-01  8.50000000E-01  8.50000000E-01  8.50000000E-01  8.50000000E-01
  8.50000000E-01  8.50000000E-01  8.50000000E-01  8.50000000E-01  8.50000000E-01
  8.50000000E-01  8.50000000E-01  8.50000000E-01  8.50000000E-01  8.50000000E-01
  8.50000000E-01  8.50000000E-01  8.50000000E-01  8.50000000E-01  8.50000000E-01
  8.50000000E-01  8.50000000E-01  8.50000000E-01  8.50000000E-01  8.50000000E-01
  8.50000000E-01  8.50000000E-01  8.50000000E-01  8.50000000E-01  8.50000000E-01
  8.50000000E-01  8.50000000E-01  8.50000000E-01  8.50000000E-01  8.50000000E-01
  8.50000000E-01  8.50000000E-01  8.50000000E-01  8.50000000E-01  8.50000000E-01
  8.50000000E-01  8.50000000E-01  8.50000000E-01  8.50000000E-01  8.50000000E-01
  8.50000000E-01  8.50000000E-01  8.50000000E-01  8.50000000E-01  8.50000000E-01
  8.50000000E-01  8.50000000E-01  8.50000000E-01  8.50000000E-01  8.50000000E-01
  8.50000000E-01  8.50000000E-01  8.50000000E-01  8.50000000E-01  8.50000000E-01
  8.50000000E-01  8.50000000E-01  8.50000000E-01  8.50000000E-01  8.50000000E-01
  8.50000000E-01  8.50000000E-01  8.50000000E-01  8.50000000E-01  8.50000000E-01
  8.50000000E-01  8.50000000E-01  8.50000000E-01  8.50000000E-01  8.50000000E-01
  8.50000000E-01  8.50000000E-01  8.50000000E-01  8.50000000E-01  8.50000000E-01
  8.50000000E-01  8.50000000E-01  8.50000000E-01  8.50000000E-01  8.50000000E-01
  8.50000000E-01  8.50000000E-01  8.50000000E-01  8.50000000E-01  8.50000000E-01
  8.50000000E-01  8.50000000E-01  8.50000000E-01  8.50000000E-01  8.50000000E-01
  8.50000000E-01  8.50000000E-01  8.50000000E-01  8.50000000E-01  8.50000000E-01
  8.50000000E-01  8.50000000E-01  8.50000000E-01  8.50000000E-01  8.50000000E-01
  8.50000000E-01  8.50000000E-01  8.50000000E-01  8.50000000E-01  8.50000000E-01
  8.50000000E-01  8.50000000E-01  8.50000000E-01  8.50000000E-01  8.50000000E-01
  8.50000000E-01  8.50000000E-01  8.50000000E-01  8.50000000E-01  8.50000000E-01
  8.50000000E-01  8.50000000E-01  8.50000000E-01  8.50000000E-01  8.50000000E-01
  8.50000000E-01  8.50000000E-01  8.50000000E-01  8.50000000E-01  8.50000000E-01
  8.50000000E-01  8.50000000E-01  8.50000000E-01  8.50000000E-01  8.50000000E-01
  8.50000000E-01  8.50000000E-01  8.50000000E-01  8.50000000E-01  8.50000000E-01
  8.50000000E-01  8.50000000E-01  8.50000000E-01  8.50000000E-01  8.50000000E-01
  8.50000000E-01  8.50000000E-01  8.50000000E-01  8.50000000E-01  8.50000000E-01
  8.50000000E-01  8.50000000E-01  8.50000000E-01  8.50000000E-01  8.50000000E-01
  8.50000000E-01  8.50000000E-01  8.50000000E-01  8.50000000E-01  8.50000000E-01
  8.50000000E-01  8.50000000E-01  8.50000000E-01  8.50000000E-01  8.50000000E-01
  8.50000000E-01  8.50000000E-01  8.50000000E-01  8.50000000E-01  8.50000000E-01
  8.50000000E-01  8.50000000E-01  8.50000000E-01  8.50000000E-01  8.50000000E-01
  8.50000000E-01  8.50000000E-01  8.50000000E-01  8.50000000E-01  8.50000000E-01
  8.50000000E-01  8.50000000E-01  8.50000000E-01  8.50000000E-01  8.50000000E-01
  8.50000000E-01  8.50000000E-01  8.50000000E-01  8.50000000E-01  8.50000000E-01
  8.50000000E-01  8.50000000E-01  8.50000000E-01  8.50000000E-01  8.50000000E-01
  8.50000000E-01  8.50000000E-01  8.50000000E-01  8.50000000E-01  8.50000000E-01
  8.50000000E-01  8.50000000E-01  8.50000000E-01  8.50000000E-01  8.50000000E-01
  8.50000000E-01  8.50000000E-01  8.50000000E-01  8.50000000E-01  8.50000000E-01
  8.50000000E-01  8.50000000E-01  8.50000000E-01  8.50000000E-01  8.50000000E-01
  8.50000000E-01  8.50000000E-01  8.50000000E-01  8.50000000E-01  8.50000000E-01
  8.50000000E-01  8.50000000E-01  8.50000000E-01  8.50000000E-01  8.50000000E-01
  8.50000000E-01  8.50000000E-01  8.50000000E-01  8.50000000E-01  8.50000000E-01
  8.50000000E-01  8.50000000E-01  8.50000000E-01  8.50000000E-01  8.50000000E-01
  8.50000000E-01  8.50000000E-01  8.50000000E-01  8.50000000E-01  8.50000000E-01
  8.50000000E-01  8.50000000E-01  8.50000000E-01  8.50000000E-01  8.50000000E-01
  8.50000000E-01  8.50000000E-01  8.50000000E-01  8.50000000E-01  8.50000000E-01
  8.50000000E-01  8.50000000E-01  8.50000000E-01  8.50000000E-01  8.50000000E-01
  8.50000000E-01  8.50000000E-01  8.50000000E-01  8.50000000E-01  8.50000000E-01
  8.50000000E-01  8.50000000E-01  8.50000000E-01  8.50000000E-01  8.50000000E-01
  8.50000000E-01  8.50000000E-01  8.50000000E-01  8.50000000E-01  8.50000000E-01
  8.50000000E-01  8.50000000E-01  8.50000000E-01  8.50000000E-01  8.50000000E-01
  8.50000000E-01  8.50000000E-01  8.50000000E-01  8.50000000E-01  8.50000000E-01
  8.50000000E-01  8.50000000E-01  8.50000000E-01  8.50000000E-01  8.50000000E-01
  8.50000000E-01  8.50000000E-01  8.50000000E-01  8.50000000E-01  8.50000000E-01
  8.50000000E-01  8.50000000E-01  8.50000000E-01  8.50000000E-01  8.50000000E-01
  8.50000000E-01  8.50000000E-01  8.50000000E-01  8.50000000E-01  8.50000000E-01
  8.50000000E-01  8.50000000E-01  8.50000000E-01  8.50000000E-01  8.50000000E-01
  8.50000000E-01  8.50000000E-01  8.50000000E-01  8.50000000E-01  8.50000000E-01
  8.50000000E-01  8.50000000E-01  8.50000000E-01  8.50000000E-01  8.50000000E-01
  8.50000000E-01  8.50000000E-01  8.50000000E-01  8.50000000E-01  8.50000000E-01
  8.50000000E-01  8.50000000E-01  8.50000000E-01  8.50000000E-01  8.50000000E-01
  8.50000000E-01  8.50000000E-01  8.50000000E-01  8.50000000E-01  8.50000000E-01
  8.50000000E-01  8.50000000E-01  8.50000000E-01  8.50000000E-01  8.50000000E-01
  8.50000000E-01  8.50000000E-01  8.50000000E-01  8.50000000E-01  8.50000000E-01
  8.50000000E-01  8.50000000E-01  8.50000000E-01  8.50000000E-01  8.50000000E-01
  8.50000000E-01  8.50000000E-01  8.50000000E-01  8.50000000E-01  8.50000000E-01
  8.50000000E-01  8.50000000E-01  8.50000000E-01  8.50000000E-01  8.50000000E-01
  8.50000000E-01  8.50000000E-01  8.50000000E-01  8.50000000E-01  8.50000000E-01
  8.50000000E-01  8.50000000E-01  8.50000000E-01  8.50000000E-01  8.50000000E-01
  8.50000000E-01  8.50000000E-01  8.50000000E-01  8.50000000E-01  8.50000000E-01
  8.50000000E-01  8.50000000E-01  8.50000000E-01  8.50000000E-01  8.50000000E-01
  8.50000000E-01  8.50000000E-01  8.50000000E-01  8.50000000E-01  8.50000000E-01
  8.50000000E-01  8.50000000E-01  8.50000000E-01  8.50000000E-01  8.50000000E-01
  8.50000000E-01  8.50000000E-01  8.50000000E-01  8.50000000E-01  8.50000000E-01
  8.50000000E-01  8.50000000E-01  8.50000000E-01  8.50000000E-01  8.50000000E-01
  8.50000000E-01  8.50000000E-01  8.50000000E-01  8.50000000E-01  8.50000000E-01
  8.50000000E-01  8.50000000E-01  8.50000000E-01  8.50000000E-01  8.50000000E-01
  8.50000000E-01  8.50000000E-01  8.50000000E-01  8.50000000E-01  8.50000000E-01
  8.50000000E-01  8.50000000E-01  8.50000000E-01  8.50000000E-01  8.50000000E-01
  8.50000000E-01  8.50000000E-01  8.50000000E-01  8.50000000E-01  8.50000000E-01
  8.50000000E-01  8.50000000E-01  8.50000000E-01  8.50000000E-01  8.50000000E-01
  8.50000000E-01  8.50000000E-01  8.50000000E-01  8.50000000E-01  8.50000000E-01
  8.50000000E-01  8.50000000E-01  8.50000000E-01  8.50000000E-01  8.50000000E-01
  8.50000000E-01  8.50000000E-01  8.50000000E-01  8.50000000E-01  8.50000000E-01
  8.50000000E-01  8.50000000E-01  8.50000000E-01  8.50000000E-01  8.50000000E-01
  8.50000000E-01  8.50000000E-01  8.50000000E-01  8.50000000E-01  8.50000000E-01
  8.50000000E-01  8.50000000E-01  8.50000000E-01  8.50000000E-01  8.50000000E-01
  8.50000000E-01  8.50000000E-01  8.50000000E-01  8.50000000E-01  8.50000000E-01
  8.50000000E-01  8.50000000E-01  8.50000000E-01  8.50000000E-01  8.50000000E-01
  8.50000000E-01  8.50000000E-01  8.50000000E-01  8.50000000E-01  8.50000000E-01
  8.50000000E-01  8.50000000E-01  8.50000000E-01  8.50000000E-01  8.50000000E-01
  8.50000000E-01  8.50000000E-01  8.50000000E-01  8.50000000E-01  8.50000000E-01
  8.50000000E-01  8.50000000E-01  8.50000000E-01  8.50000000E-01  8.50000000E-01
  8.50000000E-01  8.50000000E-01  8.50000000E-01  8.50000000E-01  8.50000000E-01
  8.50000000E-01  8.50000000E-01  8.50000000E-01  8.50000000E-01  8.50000000E-01
  8.50000000E-01  8.50000000E-01  8.50000000E-01  8.50000000E-01  8.50000000E-01
  8.50000000E-01  8.50000000E-01  8.50000000E-01  8.50000000E-01  8.50000000E-01
  8.50000000E-01  8.50000000E-01  8.50000000E-01  8.50000000E-01  8.50000000E-01
  8.50000000E-01  8.50000000E-01  8.50000000E-01  8.50000000E-01  8.50000000E-01
  8.50000000E-01  8.50000000E-01  8.50000000E-01  8.50000000E-01  8.50000000E-01
  8.50000000E-01  8.50000000E-01  8.50000000E-01  8.50000000E-01  8.50000000E-01
  8.50000000E-01  8.50000000E-01  8.50000000E-01  8.50000000E-01  8.50000000E-01
  8.50000000E-01  8.50000000E-01  8.50000000E-01  8.50000000E-01  8.50000000E-01
  8.50000000E-01  8.50000000E-01  8.50000000E-01  8.50000000E-01  8.50000000E-01
  8.50000000E-01  8.50000000E-01  8.50000000E-01  8.50000000E-01  8.50000000E-01
  8.50000000E-01  8.50000000E-01  8.50000000E-01  8.50000000E-01  8.50000000E-01
  8.50000000E-01  8.50000000E-01  8.50000000E-01  8.50000000E-01  8.50000000E-01
  8.50000000E-01  8.50000000E-01  8.50000000E-01  8.50000000E-01  8.50000000E-01
  8.50000000E-01  8.50000000E-01  8.50000000E-01  8.50000000E-01  8.50000000E-01
  8.50000000E-01  8.50000000E-01  8.50000000E-01  8.50000000E-01  8.50000000E-01
  8.50000000E-01  8.50000000E-01  8.50000000E-01  8.50000000E-01  8.50000000E-01
  8.50000000E-01  8.50000000E-01  8.50000000E-01  8.50000000E-01  8.50000000E-01
  8.50000000E-01  8.50000000E-01  8.50000000E-01  8.50000000E-01  8.50000000E-01
  8.50000000E-01  8.50000000E-01  8.50000000E-01  8.50000000E-01  8.50000000E-01
  8.50000000E-01  8.50000000E-01  8.50000000E-01  8.50000000E-01  8.50000000E-01
  8.50000000E-01  8.50000000E-01  8.50000000E-01  8.50000000E-01  8.50000000E-01
  8.50000000E-01  8.50000000E-01  8.50000000E-01  8.50000000E-01  8.50000000E-01
  8.50000000E-01  8.50000000E-01  8.50000000E-01  8.50000000E-01  8.50000000E-01
  8.50000000E-01  8.50000000E-01  8.50000000E-01  8.50000000E-01  8.50000000E-01
  8.50000000E-01  8.50000000E-01  8.50000000E-01  8.50000000E-01  8.50000000E-01
  8.50000000E-01  8.50000000E-01  8.50000000E-01  8.50000000E-01  8.50000000E-01
  8.50000000E-01  8.50000000E-01  8.50000000E-01  8.50000000E-01  8.50000000E-01
  8.50000000E-01  8.50000000E-01  8.50000000E-01  8.50000000E-01  8.50000000E-01
  8.50000000E-01  8.50000000E-01  8.50000000E-01  8.50000000E-01  8.50000000E-01
  8.50000000E-01  8.50000000E-01  8.50000000E-01  8.50000000E-01  8.50000000E-01
  8.50000000E-01  8.50000000E-01  8.50000000E-01  8.50000000E-01  8.50000000E-01
  8.50000000E-01  8.50000000E-01  8.50000000E-01  8.50000000E-01  8.50000000E-01
  8.50000000E-01  8.50000000E-01  8.50000000E-01  8.50000000E-01  8.50000000E-01
  8.50000000E-01  8.50000000E-01  8.50000000E-01  8.50000000E-01  8.50000000E-01
  8.50000000E-01  8.50000000E-01  8.50000000E-01  8.50000000E-01  8.50000000E-01
  8.50000000E-01  8.50000000E-01  8.50000000E-01  8.50000000E-01  8.50000000E-01
  8.50000000E-01  8.50000000E-01  8.50000000E-01  8.50000000E-01  8.50000000E-01
  8.50000000E-01  8.50000000E-01  8.50000000E-01  8.50000000E-01  8.50000000E-01
  8.50000000E-01  8.50000000E-01  8.50000000E-01  8.50000000E-01  8.50000000E-01
  8.50000000E-01  8.50000000E-01  8.50000000E-01  8.50000000E-01  8.50000000E-01
  8.50000000E-01  8.50000000E-01  8.50000000E-01  8.50000000E-01  8.50000000E-01
  8.50000000E-01  8.50000000E-01  8.50000000E-01  8.50000000E-01  8.50000000E-01
  8.50000000E-01  8.50000000E-01  8.50000000E-01  8.50000000E-01  8.50000000E-01
  8.50000000E-01  8.50000000E-01  8.50000000E-01  8.50000000E-01  8.50000000E-01
  8.50000000E-01  8.50000000E-01  8.50000000E-01  8.50000000E-01  8.50000000E-01
  8.50000000E-01  8.50000000E-01  8.50000000E-01  8.50000000E-01  8.50000000E-01
  8.50000000E-01  8.50000000E-01  8.50000000E-01  8.50000000E-01  8.50000000E-01
  8.50000000E-01  8.50000000E-01  8.50000000E-01  8.50000000E-01  8.50000000E-01
  8.50000000E-01  8.50000000E-01  8.50000000E-01  8.50000000E-01  8.50000000E-01
  8.50000000E-01  8.50000000E-01  8.50000000E-01  8.50000000E-01  8.50000000E-01
  8.50000000E-01  8.50000000E-01  8.50000000E-01  8.50000000E-01  8.50000000E-01
  8.50000000E-01  8.50000000E-01  8.50000000E-01  8.50000000E-01  8.50000000E-01
  8.50000000E-01  8.50000000E-01  8.50000000E-01  8.50000000E-01  8.50000000E-01
  8.50000000E-01  8.50000000E-01  8.50000000E-01  8.50000000E-01  8.50000000E-01
  8.50000000E-01  8.50000000E-01  8.50000000E-01  8.50000000E-01  8.50000000E-01
  8.50000000E-01  8.50000000E-01  8.50000000E-01  8.50000000E-01  8.50000000E-01
  8.50000000E-01  8.50000000E-01  8.50000000E-01  8.50000000E-01  8.50000000E-01
  8.50000000E-01  8.50000000E-01  8.50000000E-01  8.50000000E-01  8.50000000E-01
  8.50000000E-01  8.50000000E-01  8.50000000E-01  8.50000000E-01  8.50000000E-01
  8.50000000E-01  8.50000000E-01  8.50000000E-01  8.50000000E-01  8.50000000E-01
  8.50000000E-01  8.50000000E-01  8.50000000E-01  8.50000000E-01  8.50000000E-01
  8.50000000E-01  8.50000000E-01  8.50000000E-01  8.50000000E-01  8.50000000E-01
  8.50000000E-01  8.50000000E-01  8.50000000E-01  8.50000000E-01  8.50000000E-01
  8.50000000E-01  8.50000000E-01  8.50000000E-01  8.50000000E-01  8.50000000E-01
  8.50000000E-01  8.50000000E-01  8.50000000E-01  8.50000000E-01  8.50000000E-01
  8.50000000E-01  8.50000000E-01  8.50000000E-01  8.50000000E-01  8.50000000E-01
  8.50000000E-01  8.50000000E-01  8.50000000E-01  8.50000000E-01  8.50000000E-01
  8.50000000E-01  8.50000000E-01  8.50000000E-01  8.50000000E-01  8.50000000E-01
  8.50000000E-01  8.50000000E-01  8.50000000E-01  8.50000000E-01  8.50000000E-01
  8.50000000E-01  8.50000000E-01  8.50000000E-01  8.50000000E-01  8.50000000E-01
  8.50000000E-01  8.50000000E-01  8.50000000E-01  8.50000000E-01  8.50000000E-01
  8.50000000E-01  8.50000000E-01  8.50000000E-01  8.50000000E-01  8.50000000E-01
  8.50000000E-01  8.50000000E-01  8.50000000E-01  8.50000000E-01  8.50000000E-01
  8.50000000E-01  8.50000000E-01  8.50000000E-01  8.50000000E-01  8.50000000E-01
  8.50000000E-01  8.50000000E-01  8.50000000E-01  8.50000000E-01  8.50000000E-01
  8.50000000E-01  8.50000000E-01  8.50000000E-01  8.50000000E-01  8.50000000E-01
  8.50000000E-01  8.50000000E-01  8.50000000E-01  8.50000000E-01  8.50000000E-01
  8.50000000E-01  8.50000000E-01  8.50000000E-01  8.50000000E-01  8.50000000E-01
  8.50000000E-01  8.50000000E-01  8.50000000E-01  8.50000000E-01  8.50000000E-01
  8.50000000E-01  8.50000000E-01  8.50000000E-01  8.50000000E-01  8.50000000E-01
  8.50000000E-01  8.50000000E-01  8.50000000E-01  8.50000000E-01  8.50000000E-01
  8.50000000E-01  8.50000000E-01  8.50000000E-01  8.50000000E-01  8.50000000E-01
  8.50000000E-01  8.50000000E-01  8.50000000E-01  8.50000000E-01  8.50000000E-01
  8.50000000E-01  8.50000000E-01  8.50000000E-01  8.50000000E-01  8.50000000E-01
  8.50000000E-01  8.50000000E-01  8.50000000E-01  8.50000000E-01  8.50000000E-01
  8.50000000E-01  8.50000000E-01  8.50000000E-01  8.50000000E-01  8.50000000E-01
  8.50000000E-01  8.50000000E-01  8.50000000E-01  8.50000000E-01  8.50000000E-01
  8.50000000E-01  8.50000000E-01  8.50000000E-01  8.50000000E-01  8.50000000E-01
  8.50000000E-01  8.50000000E-01  8.50000000E-01  8.50000000E-01  8.50000000E-01
  8.50000000E-01  8.50000000E-01  8.50000000E-01  8.50000000E-01  8.50000000E-01
  8.50000000E-01  8.50000000E-01  8.50000000E-01  8.50000000E-01  8.50000000E-01
  8.50000000E-01  8.50000000E-01  8.50000000E-01  8.50000000E-01  8.50000000E-01
  8.50000000E-01  8.50000000E-01  8.50000000E-01  8.50000000E-01  8.50000000E-01
  8.50000000E-01  8.50000000E-01  8.50000000E-01  8.50000000E-01  8.50000000E-01
  8.50000000E-01  8.50000000E-01  8.50000000E-01  8.50000000E-01  8.50000000E-01
  8.50000000E-01  8.50000000E-01  8.50000000E-01  8.50000000E-01  8.50000000E-01
  8.50000000E-01  8.50000000E-01  8.50000000E-01  8.50000000E-01  8.50000000E-01
  8.50000000E-01  8.50000000E-01  8.50000000E-01  8.50000000E-01  8.50000000E-01
  8.50000000E-01  8.50000000E-01  8.50000000E-01  8.50000000E-01  8.50000000E-01
  8.50000000E-01  8.50000000E-01  8.50000000E-01  8.50000000E-01  8.50000000E-01
  8.50000000E-01  8.50000000E-01  8.50000000E-01  8.50000000E-01  8.50000000E-01
  8.50000000E-01  8.50000000E-01  8.50000000E-01  8.50000000E-01  8.50000000E-01
  8.50000000E-01  8.50000000E-01  8.50000000E-01  8.50000000E-01  8.50000000E-01
  8.50000000E-01  8.50000000E-01  8.50000000E-01  8.50000000E-01  8.50000000E-01
  8.50000000E-01  8.50000000E-01  8.50000000E-01  8.50000000E-01  8.50000000E-01
  8.50000000E-01  8.50000000E-01  8.50000000E-01  8.50000000E-01  8.50000000E-01
  8.50000000E-01  8.50000000E-01  8.50000000E-01  8.50000000E-01  8.50000000E-01
  8.50000000E-01  8.50000000E-01  8.50000000E-01  8.50000000E-01  8.50000000E-01
  8.50000000E-01  8.50000000E-01  8.50000000E-01  8.50000000E-01  8.50000000E-01
  8.50000000E-01  8.50000000E-01  8.50000000E-01  8.50000000E-01  8.50000000E-01
  8.50000000E-01  8.50000000E-01  8.50000000E-01  8.50000000E-01  8.50000000E-01
  8.50000000E-01  8.50000000E-01  8.50000000E-01  8.50000000E-01  8.50000000E-01
  8.50000000E-01  8.50000000E-01  8.50000000E-01  8.50000000E-01  8.50000000E-01
  8.50000000E-01  8.50000000E-01  8.50000000E-01  8.50000000E-01  8.50000000E-01
  8.50000000E-01  8.50000000E-01  8.50000000E-01  8.50000000E-01  8.50000000E-01
  8.50000000E-01  8.50000000E-01  8.50000000E-01  8.50000000E-01  8.50000000E-01
  8.50000000E-01  8.50000000E-01  8.50000000E-01  8.50000000E-01  8.50000000E-01
  8.50000000E-01  8.50000000E-01  8.50000000E-01  8.50000000E-01  8.50000000E-01
  8.50000000E-01  8.50000000E-01  8.50000000E-01  8.50000000E-01  8.50000000E-01
  8.50000000E-01  8.50000000E-01  8.50000000E-01  8.50000000E-01  8.50000000E-01
  8.50000000E-01  8.50000000E-01  8.50000000E-01  8.50000000E-01  8.50000000E-01
  8.50000000E-01  8.50000000E-01  8.50000000E-01  8.50000000E-01  8.50000000E-01
  8.50000000E-01  8.50000000E-01  8.50000000E-01  8.50000000E-01  8.50000000E-01
  8.50000000E-01  8.50000000E-01  8.50000000E-01  8.50000000E-01  8.50000000E-01
  8.50000000E-01  8.50000000E-01  8.50000000E-01  8.50000000E-01  8.50000000E-01
  8.50000000E-01  8.50000000E-01  8.50000000E-01  8.50000000E-01  8.50000000E-01
  8.50000000E-01  8.50000000E-01  8.50000000E-01  8.50000000E-01  8.50000000E-01
  8.50000000E-01  8.50000000E-01  8.50000000E-01  8.50000000E-01  8.50000000E-01
  8.50000000E-01  8.50000000E-01  8.50000000E-01  8.50000000E-01  8.50000000E-01
  8.50000000E-01  8.50000000E-01  8.50000000E-01  8.50000000E-01  8.50000000E-01
  8.50000000E-01  8.50000000E-01  8.50000000E-01  8.50000000E-01  8.50000000E-01
  8.50000000E-01  8.50000000E-01  8.50000000E-01  8.50000000E-01  8.50000000E-01
  8.50000000E-01  8.50000000E-01  8.50000000E-01  8.50000000E-01  8.50000000E-01
  8.50000000E-01  8.50000000E-01  8.50000000E-01  8.50000000E-01  8.50000000E-01
  8.50000000E-01  8.50000000E-01  8.50000000E-01  8.50000000E-01  8.50000000E-01
  8.50000000E-01  8.50000000E-01  8.50000000E-01  8.50000000E-01  8.50000000E-01
  8.50000000E-01  8.50000000E-01  8.50000000E-01  8.50000000E-01  8.50000000E-01
  8.50000000E-01  8.50000000E-01  8.50000000E-01  8.50000000E-01  8.50000000E-01
  8.50000000E-01  8.50000000E-01  8.50000000E-01  8.50000000E-01  8.50000000E-01
  8.50000000E-01  8.50000000E-01  8.50000000E-01  8.50000000E-01  8.50000000E-01
  8.50000000E-01  8.50000000E-01  8.50000000E-01  8.50000000E-01  8.50000000E-01
  8.50000000E-01  8.50000000E-01  8.50000000E-01  8.50000000E-01  8.50000000E-01
  8.50000000E-01  8.50000000E-01  8.50000000E-01  8.50000000E-01  8.50000000E-01
  8.50000000E-01  8.50000000E-01  8.50000000E-01  8.50000000E-01  8.50000000E-01
  8.50000000E-01  8.50000000E-01  8.50000000E-01  8.50000000E-01  8.50000000E-01
  8.50000000E-01  8.50000000E-01  8.50000000E-01  8.50000000E-01  8.50000000E-01
  8.50000000E-01  8.50000000E-01  8.50000000E-01  8.50000000E-01  8.50000000E-01
  8.50000000E-01  8.50000000E-01  8.50000000E-01  8.50000000E-01  8.50000000E-01
  8.50000000E-01  8.50000000E-01  8.50000000E-01  8.50000000E-01  8.50000000E-01
  8.50000000E-01  8.50000000E-01  8.50000000E-01  8.50000000E-01  8.50000000E-01
  8.50000000E-01  8.50000000E-01  8.50000000E-01  8.50000000E-01  8.50000000E-01
  8.50000000E-01  8.50000000E-01  8.50000000E-01  8.50000000E-01  8.50000000E-01
  8.50000000E-01  8.50000000E-01  8.50000000E-01  8.50000000E-01  8.50000000E-01
  8.50000000E-01  8.50000000E-01  8.50000000E-01  8.50000000E-01  8.50000000E-01
  8.50000000E-01  8.50000000E-01  8.50000000E-01  8.50000000E-01  8.50000000E-01
  8.50000000E-01  8.50000000E-01  8.50000000E-01  8.50000000E-01  8.50000000E-01
  8.50000000E-01  8.50000000E-01  8.50000000E-01  8.50000000E-01  8.50000000E-01
  8.50000000E-01  8.50000000E-01  8.50000000E-01  8.50000000E-01  8.50000000E-01
  8.50000000E-01  8.50000000E-01  8.50000000E-01  8.50000000E-01  8.50000000E-01
  8.50000000E-01  8.50000000E-01  8.50000000E-01  8.50000000E-01  8.50000000E-01
  8.50000000E-01  8.50000000E-01  8.50000000E-01  8.50000000E-01  8.50000000E-01
  8.50000000E-01  8.50000000E-01  8.50000000E-01  8.50000000E-01  8.50000000E-01
  8.50000000E-01  8.50000000E-01  8.50000000E-01  8.50000000E-01  8.50000000E-01
  8.50000000E-01  8.50000000E-01  8.50000000E-01  8.50000000E-01  8.50000000E-01
  8.50000000E-01  8.50000000E-01  8.50000000E-01  8.50000000E-01  8.50000000E-01
  8.50000000E-01  8.50000000E-01  8.50000000E-01  8.50000000E-01  8.50000000E-01
  8.50000000E-01  8.50000000E-01  8.50000000E-01  8.50000000E-01  8.50000000E-01
  8.50000000E-01  8.50000000E-01  8.50000000E-01  8.50000000E-01  8.50000000E-01
  8.50000000E-01  8.50000000E-01  8.50000000E-01  8.50000000E-01  8.50000000E-01
  8.50000000E-01  8.50000000E-01  8.50000000E-01  8.50000000E-01  8.50000000E-01
  8.50000000E-01  8.50000000E-01  8.50000000E-01  8.50000000E-01  8.50000000E-01
  8.50000000E-01  8.50000000E-01  8.50000000E-01  8.50000000E-01  8.50000000E-01
  8.50000000E-01  8.50000000E-01  8.50000000E-01  8.50000000E-01  8.50000000E-01
  8.50000000E-01  8.50000000E-01  8.50000000E-01  8.50000000E-01  8.50000000E-01
  8.50000000E-01  8.50000000E-01  8.50000000E-01  8.50000000E-01  8.50000000E-01
  8.50000000E-01  8.50000000E-01  8.50000000E-01  8.50000000E-01  8.50000000E-01
  8.50000000E-01  8.50000000E-01  8.50000000E-01  8.50000000E-01  8.50000000E-01
  8.50000000E-01  8.50000000E-01  8.50000000E-01  8.50000000E-01  8.50000000E-01
  8.50000000E-01  8.50000000E-01  8.50000000E-01  8.50000000E-01  8.50000000E-01
  8.50000000E-01  8.50000000E-01  8.50000000E-01  8.50000000E-01  8.50000000E-01
  8.50000000E-01  8.50000000E-01  8.50000000E-01  8.50000000E-01  8.50000000E-01
  8.50000000E-01  8.50000000E-01  8.50000000E-01  8.50000000E-01  8.50000000E-01
  8.50000000E-01  8.50000000E-01  8.50000000E-01  8.50000000E-01  8.50000000E-01
  8.50000000E-01  8.50000000E-01  8.50000000E-01  8.50000000E-01  8.50000000E-01
  8.50000000E-01  8.50000000E-01  8.50000000E-01  8.50000000E-01  8.50000000E-01
  8.50000000E-01  8.50000000E-01  8.50000000E-01  8.50000000E-01  8.50000000E-01
  8.50000000E-01  8.50000000E-01  8.50000000E-01  8.50000000E-01  8.50000000E-01
  8.50000000E-01  8.50000000E-01  8.50000000E-01  8.50000000E-01  8.50000000E-01
  8.50000000E-01  8.50000000E-01  8.50000000E-01  8.50000000E-01  8.50000000E-01
  8.50000000E-01  8.50000000E-01  8.50000000E-01  8.50000000E-01  8.50000000E-01
  8.50000000E-01  8.50000000E-01  8.50000000E-01  8.50000000E-01  8.50000000E-01
  8.50000000E-01  8.50000000E-01  8.50000000E-01  8.50000000E-01  8.50000000E-01
  8.50000000E-01  8.50000000E-01  8.50000000E-01  8.50000000E-01  8.50000000E-01
  8.50000000E-01  8.50000000E-01  8.50000000E-01  8.50000000E-01  8.50000000E-01
  8.50000000E-01  8.50000000E-01  8.50000000E-01  8.50000000E-01  8.50000000E-01
  8.50000000E-01  8.50000000E-01  8.50000000E-01  8.50000000E-01  8.50000000E-01
  8.50000000E-01  8.50000000E-01  8.50000000E-01  8.50000000E-01  8.50000000E-01
  8.50000000E-01  8.50000000E-01  8.50000000E-01  8.50000000E-01  8.50000000E-01
  8.50000000E-01  8.50000000E-01  8.50000000E-01  8.50000000E-01  8.50000000E-01
  8.50000000E-01  8.50000000E-01  8.50000000E-01  8.50000000E-01  8.50000000E-01
  8.50000000E-01  8.50000000E-01  8.50000000E-01  8.50000000E-01  8.50000000E-01
  8.50000000E-01  8.50000000E-01  8.50000000E-01  8.50000000E-01  8.50000000E-01
  8.50000000E-01  8.50000000E-01  8.50000000E-01  8.50000000E-01  8.50000000E-01
  8.50000000E-01  8.50000000E-01  8.50000000E-01  8.50000000E-01  8.50000000E-01
  8.50000000E-01  8.50000000E-01  8.50000000E-01  8.50000000E-01  8.50000000E-01
  8.50000000E-01  8.50000000E-01  8.50000000E-01  8.50000000E-01  8.50000000E-01
  8.50000000E-01  8.50000000E-01  8.50000000E-01  8.50000000E-01  8.50000000E-01
  8.50000000E-01  8.50000000E-01  8.50000000E-01  8.50000000E-01  8.50000000E-01
  8.50000000E-01  8.50000000E-01  8.50000000E-01  8.50000000E-01  8.50000000E-01
  8.50000000E-01  8.50000000E-01  8.50000000E-01  8.50000000E-01  8.50000000E-01
  8.50000000E-01  8.50000000E-01  8.50000000E-01  8.50000000E-01  8.50000000E-01
  8.50000000E-01  8.50000000E-01  8.50000000E-01  8.50000000E-01  8.50000000E-01
  8.50000000E-01  8.50000000E-01  8.50000000E-01  8.50000000E-01  8.50000000E-01
  8.50000000E-01  8.50000000E-01  8.50000000E-01  8.50000000E-01  8.50000000E-01
  8.50000000E-01  8.50000000E-01  8.50000000E-01  8.50000000E-01  8.50000000E-01
  8.50000000E-01  8.50000000E-01  8.50000000E-01  8.50000000E-01  8.50000000E-01
  8.50000000E-01  8.50000000E-01  8.50000000E-01  8.50000000E-01  8.50000000E-01
  8.50000000E-01  8.50000000E-01  8.50000000E-01  8.50000000E-01  8.50000000E-01
  8.50000000E-01  8.50000000E-01  8.50000000E-01  8.50000000E-01  8.50000000E-01
  8.50000000E-01  8.50000000E-01  8.50000000E-01  8.50000000E-01  8.50000000E-01
  8.50000000E-01  8.50000000E-01  8.50000000E-01  8.50000000E-01  8.50000000E-01
  8.50000000E-01  8.50000000E-01  8.50000000E-01  8.50000000E-01  8.50000000E-01
  8.50000000E-01  8.50000000E-01  8.50000000E-01  8.50000000E-01  8.50000000E-01
  8.50000000E-01  8.50000000E-01  8.50000000E-01  8.50000000E-01  8.50000000E-01
  8.50000000E-01  8.50000000E-01  8.50000000E-01  8.50000000E-01  8.50000000E-01
  8.50000000E-01  8.50000000E-01  8.50000000E-01  8.50000000E-01  8.50000000E-01
  8.50000000E-01  8.50000000E-01  8.50000000E-01  8.50000000E-01  8.50000000E-01
  8.50000000E-01  8.50000000E-01  8.50000000E-01  8.50000000E-01  8.50000000E-01
  8.50000000E-01  8.50000000E-01  8.50000000E-01  8.50000000E-01  8.50000000E-01
  8.50000000E-01  8.50000000E-01  8.50000000E-01  8.50000000E-01  8.50000000E-01
  8.50000000E-01  8.50000000E-01  8.50000000E-01  8.50000000E-01  8.50000000E-01
  8.50000000E-01  8.50000000E-01  8.50000000E-01  8.50000000E-01  8.50000000E-01
  8.50000000E-01  8.50000000E-01  8.50000000E-01  8.50000000E-01  8.50000000E-01
  8.50000000E-01  8.50000000E-01  8.50000000E-01  8.50000000E-01  8.50000000E-01
  8.50000000E-01  8.50000000E-01  8.50000000E-01  8.50000000E-01  8.50000000E-01
  8.50000000E-01  8.50000000E-01  8.50000000E-01  8.50000000E-01  8.50000000E-01
  8.50000000E-01  8.50000000E-01  8.50000000E-01  8.50000000E-01  8.50000000E-01
  8.50000000E-01  8.50000000E-01  8.50000000E-01  8.50000000E-01  8.50000000E-01
  8.50000000E-01  8.50000000E-01  8.50000000E-01  8.50000000E-01  8.50000000E-01
  8.50000000E-01  8.50000000E-01  8.50000000E-01  8.50000000E-01  8.50000000E-01
  8.50000000E-01  8.50000000E-01  8.50000000E-01  8.50000000E-01  8.50000000E-01
  8.50000000E-01  8.50000000E-01  8.50000000E-01  8.50000000E-01  8.50000000E-01
  8.50000000E-01  8.50000000E-01  8.50000000E-01  8.50000000E-01  8.50000000E-01
  8.50000000E-01  8.50000000E-01  8.50000000E-01  8.50000000E-01  8.50000000E-01
  8.50000000E-01  8.50000000E-01  8.50000000E-01  8.50000000E-01  8.50000000E-01
  8.50000000E-01  8.50000000E-01  8.50000000E-01  8.50000000E-01  8.50000000E-01
  8.50000000E-01  8.50000000E-01  8.50000000E-01  8.50000000E-01  8.50000000E-01
  8.50000000E-01  8.50000000E-01  8.50000000E-01  8.50000000E-01  8.50000000E-01
  8.50000000E-01  8.50000000E-01  8.50000000E-01  8.50000000E-01  8.50000000E-01
  8.50000000E-01  8.50000000E-01  8.50000000E-01  8.50000000E-01  8.50000000E-01
  8.50000000E-01  8.50000000E-01  8.50000000E-01  8.50000000E-01  8.50000000E-01
  8.50000000E-01  8.50000000E-01  8.50000000E-01  8.50000000E-01  8.50000000E-01
  8.50000000E-01  8.50000000E-01  8.50000000E-01  8.50000000E-01  8.50000000E-01
  8.50000000E-01  8.50000000E-01  8.50000000E-01  8.50000000E-01  8.50000000E-01
  8.50000000E-01  8.50000000E-01  8.50000000E-01  8.50000000E-01  8.50000000E-01
  8.50000000E-01  8.50000000E-01  8.50000000E-01  8.50000000E-01  8.50000000E-01
  8.50000000E-01  8.50000000E-01  8.50000000E-01  8.50000000E-01  8.50000000E-01
  8.50000000E-01  8.50000000E-01  8.50000000E-01  8.50000000E-01  8.50000000E-01
  8.50000000E-01  8.50000000E-01  8.50000000E-01  8.50000000E-01  8.50000000E-01
  8.50000000E-01  8.50000000E-01  8.50000000E-01  8.50000000E-01  8.50000000E-01
  8.50000000E-01  8.50000000E-01  8.50000000E-01  8.50000000E-01  8.50000000E-01
  8.50000000E-01  8.50000000E-01  8.50000000E-01  8.50000000E-01  8.50000000E-01
  8.50000000E-01  8.50000000E-01  8.50000000E-01  8.50000000E-01  8.50000000E-01
  8.50000000E-01  8.50000000E-01  8.50000000E-01  8.50000000E-01  8.50000000E-01
  8.50000000E-01  8.50000000E-01  8.50000000E-01  8.50000000E-01  8.50000000E-01
  8.50000000E-01  8.50000000E-01  8.50000000E-01  8.50000000E-01  8.50000000E-01
  8.50000000E-01  8.50000000E-01  8.50000000E-01  8.50000000E-01  8.50000000E-01
  8.50000000E-01  8.50000000E-01  8.50000000E-01  8.50000000E-01  8.50000000E-01
  8.50000000E-01  8.50000000E-01  8.50000000E-01  8.50000000E-01  8.50000000E-01
  8.50000000E-01  8.50000000E-01  8.50000000E-01  8.50000000E-01  8.50000000E-01
  8.50000000E-01  8.50000000E-01  8.50000000E-01  8.50000000E-01  8.50000000E-01
  8.50000000E-01  8.50000000E-01  8.50000000E-01  8.50000000E-01  8.50000000E-01
  8.50000000E-01  8.50000000E-01  8.50000000E-01  8.50000000E-01  8.50000000E-01
  8.50000000E-01  8.50000000E-01  8.50000000E-01  8.50000000E-01  8.50000000E-01
  8.50000000E-01  8.50000000E-01  8.50000000E-01  8.50000000E-01  8.50000000E-01
  8.50000000E-01  8.50000000E-01  8.50000000E-01  8.50000000E-01  8.50000000E-01
  8.50000000E-01  8.50000000E-01  8.50000000E-01  8.50000000E-01  8.50000000E-01
  8.50000000E-01  8.50000000E-01  8.50000000E-01  8.50000000E-01  8.50000000E-01
  8.50000000E-01  8.50000000E-01  8.50000000E-01  8.50000000E-01  8.50000000E-01
  8.50000000E-01  8.50000000E-01  8.50000000E-01  8.50000000E-01  8.50000000E-01
  8.50000000E-01  8.50000000E-01  8.50000000E-01  8.50000000E-01  8.50000000E-01
  8.50000000E-01  8.50000000E-01  8.50000000E-01  8.50000000E-01  8.50000000E-01
  8.50000000E-01  8.50000000E-01  8.50000000E-01  8.50000000E-01  8.50000000E-01
  8.50000000E-01  8.50000000E-01  8.50000000E-01  8.50000000E-01  8.50000000E-01
  8.50000000E-01  8.50000000E-01  8.50000000E-01  8.50000000E-01  8.50000000E-01
  8.50000000E-01  8.50000000E-01  8.50000000E-01  8.50000000E-01  8.50000000E-01
  8.50000000E-01  8.50000000E-01  8.50000000E-01  8.50000000E-01  8.50000000E-01
  8.50000000E-01  8.50000000E-01  8.50000000E-01  8.50000000E-01  8.50000000E-01
  8.50000000E-01  8.50000000E-01  8.50000000E-01  8.50000000E-01  8.50000000E-01
  8.50000000E-01  8.50000000E-01  8.50000000E-01  8.50000000E-01  8.50000000E-01
  8.50000000E-01  8.50000000E-01  8.50000000E-01  8.50000000E-01  8.50000000E-01
  8.50000000E-01  8.50000000E-01  8.50000000E-01  8.50000000E-01  8.50000000E-01
  8.50000000E-01  8.50000000E-01  8.50000000E-01  8.50000000E-01  8.50000000E-01
  8.50000000E-01  8.50000000E-01  8.50000000E-01  8.50000000E-01  8.50000000E-01
  8.50000000E-01  8.50000000E-01  8.50000000E-01  8.50000000E-01  8.50000000E-01
  8.50000000E-01  8.50000000E-01  8.50000000E-01  8.50000000E-01  8.50000000E-01
  8.50000000E-01  8.50000000E-01  8.50000000E-01  8.50000000E-01  8.50000000E-01
  8.50000000E-01  8.50000000E-01  8.50000000E-01  8.50000000E-01  8.50000000E-01
  8.50000000E-01  8.50000000E-01  8.50000000E-01  8.50000000E-01  8.50000000E-01
  8.50000000E-01  8.50000000E-01  8.50000000E-01  8.50000000E-01  8.50000000E-01
  8.50000000E-01  8.50000000E-01  8.50000000E-01  8.50000000E-01  8.50000000E-01
  8.50000000E-01  8.50000000E-01  8.50000000E-01  8.50000000E-01  8.50000000E-01
  8.50000000E-01  8.50000000E-01  8.50000000E-01  8.50000000E-01  8.50000000E-01
  8.50000000E-01  8.50000000E-01  8.50000000E-01  8.50000000E-01  8.50000000E-01
  8.50000000E-01  8.50000000E-01  8.50000000E-01  8.50000000E-01  8.50000000E-01
  8.50000000E-01  8.50000000E-01  8.50000000E-01  8.50000000E-01  8.50000000E-01
  8.50000000E-01  8.50000000E-01  8.50000000E-01  8.50000000E-01  8.50000000E-01
  8.50000000E-01  8.50000000E-01  8.50000000E-01  8.50000000E-01  8.50000000E-01
  8.50000000E-01  8.50000000E-01  8.50000000E-01  8.50000000E-01  8.50000000E-01
  8.50000000E-01  8.50000000E-01  8.50000000E-01  8.50000000E-01  8.50000000E-01
  8.50000000E-01  8.50000000E-01  8.50000000E-01  8.50000000E-01  8.50000000E-01
  8.50000000E-01  8.50000000E-01  8.50000000E-01  8.50000000E-01  8.50000000E-01
  8.50000000E-01  8.50000000E-01  8.50000000E-01  8.50000000E-01  8.50000000E-01
  8.50000000E-01  8.50000000E-01  8.50000000E-01  8.50000000E-01  8.50000000E-01
  8.50000000E-01  8.50000000E-01  8.50000000E-01  8.50000000E-01  8.50000000E-01
  8.50000000E-01  8.50000000E-01  8.50000000E-01  8.50000000E-01  8.50000000E-01
  8.50000000E-01  8.50000000E-01  8.50000000E-01  8.50000000E-01  8.50000000E-01
  8.50000000E-01  8.50000000E-01  8.50000000E-01  8.50000000E-01  8.50000000E-01
  8.50000000E-01  8.50000000E-01  8.50000000E-01  8.50000000E-01  8.50000000E-01
  8.50000000E-01  8.50000000E-01  8.50000000E-01  8.50000000E-01  8.50000000E-01
  8.50000000E-01  8.50000000E-01  8.50000000E-01  8.50000000E-01  8.50000000E-01
  8.50000000E-01  8.50000000E-01  8.50000000E-01  8.50000000E-01  8.50000000E-01
  8.50000000E-01  8.50000000E-01  8.50000000E-01  8.50000000E-01  8.50000000E-01
  8.50000000E-01  8.50000000E-01  8.50000000E-01  8.50000000E-01  8.50000000E-01
  8.50000000E-01  8.50000000E-01  8.50000000E-01  8.50000000E-01  8.50000000E-01
  8.50000000E-01  8.50000000E-01  8.50000000E-01  8.50000000E-01  8.50000000E-01
  8.50000000E-01  8.50000000E-01  8.50000000E-01  8.50000000E-01  8.50000000E-01
  8.50000000E-01  8.50000000E-01  8.50000000E-01  8.50000000E-01  8.50000000E-01
  8.50000000E-01  8.50000000E-01  8.50000000E-01  8.50000000E-01  8.50000000E-01
  8.50000000E-01  8.50000000E-01  8.50000000E-01  8.50000000E-01  8.50000000E-01
  8.50000000E-01  8.50000000E-01  8.50000000E-01  8.50000000E-01  8.50000000E-01
  8.50000000E-01  8.50000000E-01  8.50000000E-01  8.50000000E-01  8.50000000E-01
  8.50000000E-01  8.50000000E-01  8.50000000E-01  8.50000000E-01  8.50000000E-01
  8.50000000E-01  8.50000000E-01  8.50000000E-01  8.50000000E-01  8.50000000E-01
  8.50000000E-01  8.50000000E-01  8.50000000E-01  8.50000000E-01  8.50000000E-01
  8.50000000E-01  8.50000000E-01  8.50000000E-01  8.50000000E-01  8.50000000E-01
  8.50000000E-01  8.50000000E-01  8.50000000E-01  8.50000000E-01  8.50000000E-01
  8.50000000E-01  8.50000000E-01  8.50000000E-01  8.50000000E-01  8.50000000E-01
  8.50000000E-01  8.50000000E-01  8.50000000E-01  8.50000000E-01  8.50000000E-01
  8.50000000E-01  8.50000000E-01  8.50000000E-01  8.50000000E-01  8.50000000E-01
  8.50000000E-01  8.50000000E-01  8.50000000E-01  8.50000000E-01  8.50000000E-01
  8.50000000E-01  8.50000000E-01  8.50000000E-01  8.50000000E-01  8.50000000E-01
  8.50000000E-01  8.50000000E-01  8.50000000E-01  8.50000000E-01  8.50000000E-01
  8.50000000E-01  8.50000000E-01  8.50000000E-01  8.50000000E-01  8.50000000E-01
  8.50000000E-01  8.50000000E-01  8.50000000E-01  8.50000000E-01  8.50000000E-01
  8.50000000E-01  8.50000000E-01  8.50000000E-01  8.50000000E-01  8.50000000E-01
  8.50000000E-01  8.50000000E-01  8.50000000E-01  8.50000000E-01  8.50000000E-01
  8.50000000E-01  8.50000000E-01  8.50000000E-01  8.50000000E-01  8.50000000E-01
  8.50000000E-01  8.50000000E-01  8.50000000E-01  8.50000000E-01  8.50000000E-01
  8.50000000E-01  8.50000000E-01  8.50000000E-01  8.50000000E-01  8.50000000E-01
  8.50000000E-01  8.50000000E-01  8.50000000E-01  8.50000000E-01  8.50000000E-01
  8.50000000E-01  8.50000000E-01  8.50000000E-01  8.50000000E-01  8.50000000E-01
  8.50000000E-01  8.50000000E-01  8.50000000E-01  8.50000000E-01  8.50000000E-01
  8.50000000E-01  8.50000000E-01  8.50000000E-01  8.50000000E-01  8.50000000E-01
  8.50000000E-01  8.50000000E-01  8.50000000E-01  8.50000000E-01  8.50000000E-01
  8.50000000E-01  8.50000000E-01  8.50000000E-01  8.50000000E-01  8.50000000E-01
  8.50000000E-01  8.50000000E-01  8.50000000E-01  8.50000000E-01  8.50000000E-01
  8.50000000E-01  8.50000000E-01  8.50000000E-01  8.50000000E-01  8.50000000E-01
  8.50000000E-01  8.50000000E-01  8.50000000E-01  8.50000000E-01  8.50000000E-01
  8.50000000E-01  8.50000000E-01  8.50000000E-01  8.50000000E-01  8.50000000E-01
  8.50000000E-01  8.50000000E-01  8.50000000E-01  8.50000000E-01  8.50000000E-01
  8.50000000E-01  8.50000000E-01  8.50000000E-01  8.50000000E-01  8.50000000E-01
  8.50000000E-01  8.50000000E-01  8.50000000E-01  8.50000000E-01  8.50000000E-01
  8.50000000E-01  8.50000000E-01  8.50000000E-01  8.50000000E-01  8.50000000E-01
  8.50000000E-01  8.50000000E-01  8.50000000E-01  8.50000000E-01  8.50000000E-01
  8.50000000E-01  8.50000000E-01  8.50000000E-01  8.50000000E-01  8.50000000E-01
  8.50000000E-01  8.50000000E-01  8.50000000E-01  8.50000000E-01  8.50000000E-01
  8.50000000E-01  8.50000000E-01  8.50000000E-01  8.50000000E-01  8.50000000E-01
  8.50000000E-01  8.50000000E-01  8.50000000E-01  8.50000000E-01  8.50000000E-01
  8.50000000E-01  8.50000000E-01  8.50000000E-01  8.50000000E-01  8.50000000E-01
  8.50000000E-01  8.50000000E-01  8.50000000E-01  8.50000000E-01  8.50000000E-01
  8.50000000E-01  8.50000000E-01  8.50000000E-01  8.50000000E-01  8.50000000E-01
  8.50000000E-01  8.50000000E-01  8.50000000E-01  8.50000000E-01  8.50000000E-01
  8.50000000E-01  8.50000000E-01  8.50000000E-01  8.50000000E-01  8.50000000E-01
  8.50000000E-01  8.50000000E-01  8.50000000E-01  8.50000000E-01  8.50000000E-01
  8.50000000E-01  8.50000000E-01  8.50000000E-01  8.50000000E-01  8.50000000E-01
  8.50000000E-01  8.50000000E-01  8.50000000E-01  8.50000000E-01  8.50000000E-01
  8.50000000E-01  8.50000000E-01  8.50000000E-01  8.50000000E-01  8.50000000E-01
  8.50000000E-01  8.50000000E-01  8.50000000E-01  8.50000000E-01  8.50000000E-01
  8.50000000E-01  8.50000000E-01  8.50000000E-01  8.50000000E-01  8.50000000E-01
  8.50000000E-01  8.50000000E-01  8.50000000E-01  8.50000000E-01  8.50000000E-01
  8.50000000E-01  8.50000000E-01  8.50000000E-01  8.50000000E-01  8.50000000E-01
  8.50000000E-01  8.50000000E-01  8.50000000E-01  8.50000000E-01  8.50000000E-01
  8.50000000E-01  8.50000000E-01  8.50000000E-01  8.50000000E-01  8.50000000E-01
  8.50000000E-01  8.50000000E-01  8.50000000E-01  8.50000000E-01  8.50000000E-01
  8.50000000E-01  8.50000000E-01  8.50000000E-01  8.50000000E-01  8.50000000E-01
  8.50000000E-01  8.50000000E-01  8.50000000E-01  8.50000000E-01  8.50000000E-01
  8.50000000E-01  8.50000000E-01  8.50000000E-01  8.50000000E-01  8.50000000E-01
  8.50000000E-01  8.50000000E-01  8.50000000E-01  8.50000000E-01  8.50000000E-01
  8.50000000E-01  8.50000000E-01  8.50000000E-01  8.50000000E-01  8.50000000E-01
  8.50000000E-01  8.50000000E-01  8.50000000E-01  8.50000000E-01  8.50000000E-01
  8.50000000E-01  8.50000000E-01  8.50000000E-01  8.50000000E-01  8.50000000E-01
  8.50000000E-01  8.50000000E-01  8.50000000E-01  8.50000000E-01  8.50000000E-01
  8.50000000E-01  8.50000000E-01  8.50000000E-01  8.50000000E-01  8.50000000E-01
  8.50000000E-01  8.50000000E-01  8.50000000E-01  8.50000000E-01  8.50000000E-01
  8.50000000E-01  8.50000000E-01  8.50000000E-01  8.50000000E-01  8.50000000E-01
  8.50000000E-01  8.50000000E-01  8.50000000E-01  8.50000000E-01  8.50000000E-01
  8.50000000E-01  8.50000000E-01  8.50000000E-01  8.50000000E-01  8.50000000E-01
  8.50000000E-01  8.50000000E-01  8.50000000E-01  8.50000000E-01  8.50000000E-01
  8.50000000E-01  8.50000000E-01  8.50000000E-01  8.50000000E-01  8.50000000E-01
  8.50000000E-01  8.50000000E-01  8.50000000E-01  8.50000000E-01  8.50000000E-01
  8.50000000E-01  8.50000000E-01  8.50000000E-01  8.50000000E-01  8.50000000E-01
  8.50000000E-01  8.50000000E-01  8.50000000E-01  8.50000000E-01  8.50000000E-01
  8.50000000E-01  8.50000000E-01  8.50000000E-01  8.50000000E-01  8.50000000E-01
  8.50000000E-01  8.50000000E-01  8.50000000E-01  8.50000000E-01  8.50000000E-01
  8.50000000E-01  8.50000000E-01  8.50000000E-01  8.50000000E-01  8.50000000E-01
  8.50000000E-01  8.50000000E-01  8.50000000E-01  8.50000000E-01  8.50000000E-01
  8.50000000E-01  8.50000000E-01  8.50000000E-01  8.50000000E-01  8.50000000E-01
  8.50000000E-01  8.50000000E-01  8.50000000E-01  8.50000000E-01  8.50000000E-01
  8.50000000E-01  8.50000000E-01  8.50000000E-01  8.50000000E-01  8.50000000E-01
  8.50000000E-01  8.50000000E-01  8.50000000E-01  8.50000000E-01  8.50000000E-01
  8.50000000E-01  8.50000000E-01  8.50000000E-01  8.50000000E-01  8.50000000E-01
  8.50000000E-01  8.50000000E-01  8.50000000E-01  8.50000000E-01  8.50000000E-01
  8.50000000E-01  8.50000000E-01  8.50000000E-01  8.50000000E-01  8.50000000E-01
  8.50000000E-01  8.50000000E-01  8.50000000E-01  8.50000000E-01  8.50000000E-01
  8.50000000E-01  8.50000000E-01  8.50000000E-01  8.50000000E-01  8.50000000E-01
  8.50000000E-01  8.50000000E-01  8.50000000E-01  8.50000000E-01  8.50000000E-01
  8.50000000E-01  8.50000000E-01  8.50000000E-01  8.50000000E-01  8.50000000E-01
  8.50000000E-01  8.50000000E-01  8.50000000E-01  8.50000000E-01  8.50000000E-01
  8.50000000E-01  8.50000000E-01  8.50000000E-01  8.50000000E-01  8.50000000E-01
  8.50000000E-01  8.50000000E-01  8.50000000E-01  8.50000000E-01  8.50000000E-01
  8.50000000E-01  8.50000000E-01  8.50000000E-01  8.50000000E-01  8.50000000E-01
  8.50000000E-01  8.50000000E-01  8.50000000E-01  8.50000000E-01  8.50000000E-01
  8.50000000E-01  8.50000000E-01  8.50000000E-01  8.50000000E-01  8.50000000E-01
  8.50000000E-01  8.50000000E-01  8.50000000E-01  8.50000000E-01  8.50000000E-01
  8.50000000E-01  8.50000000E-01  8.50000000E-01  8.50000000E-01  8.50000000E-01
  8.50000000E-01  8.50000000E-01  8.50000000E-01  8.50000000E-01  8.50000000E-01
  8.50000000E-01  8.50000000E-01  8.50000000E-01  8.50000000E-01  8.50000000E-01
  8.50000000E-01  8.50000000E-01  8.50000000E-01  8.50000000E-01  8.50000000E-01
  8.50000000E-01  8.50000000E-01  8.50000000E-01  8.50000000E-01  8.50000000E-01
  8.50000000E-01  8.50000000E-01  8.50000000E-01  8.50000000E-01  8.50000000E-01
  8.50000000E-01  8.50000000E-01  8.50000000E-01  8.50000000E-01  8.50000000E-01
  8.50000000E-01  8.50000000E-01  8.50000000E-01  8.50000000E-01  8.50000000E-01
  8.50000000E-01  8.50000000E-01  8.50000000E-01  8.50000000E-01  8.50000000E-01
  8.50000000E-01  8.50000000E-01  8.50000000E-01  8.50000000E-01  8.50000000E-01
  8.50000000E-01  8.50000000E-01  8.50000000E-01  8.50000000E-01  8.50000000E-01
  8.50000000E-01  8.50000000E-01  8.50000000E-01  8.50000000E-01  8.50000000E-01
  8.50000000E-01  8.50000000E-01  8.50000000E-01  8.50000000E-01  8.50000000E-01
  8.50000000E-01  8.50000000E-01  8.50000000E-01  8.50000000E-01  8.50000000E-01
  8.50000000E-01  8.50000000E-01  8.50000000E-01  8.50000000E-01  8.50000000E-01
  8.50000000E-01  8.50000000E-01  8.50000000E-01  8.50000000E-01  8.50000000E-01
  8.50000000E-01  8.50000000E-01  8.50000000E-01  8.50000000E-01  8.50000000E-01
  8.50000000E-01  8.50000000E-01  8.50000000E-01  8.50000000E-01  8.50000000E-01
  8.50000000E-01  8.50000000E-01  8.50000000E-01  8.50000000E-01  8.50000000E-01
  8.50000000E-01  8.50000000E-01  8.50000000E-01  8.50000000E-01  8.50000000E-01
  8.50000000E-01  8.50000000E-01  8.50000000E-01  8.50000000E-01  8.50000000E-01
  8.50000000E-01  8.50000000E-01  8.50000000E-01  8.50000000E-01  8.50000000E-01
  8.50000000E-01  8.50000000E-01  8.50000000E-01  8.50000000E-01  8.50000000E-01
  8.50000000E-01  8.50000000E-01  8.50000000E-01  8.50000000E-01  8.50000000E-01
  8.50000000E-01  8.50000000E-01  8.50000000E-01  8.50000000E-01  8.50000000E-01
  8.50000000E-01  8.50000000E-01  8.50000000E-01  8.50000000E-01  8.50000000E-01
  8.50000000E-01  8.50000000E-01  8.50000000E-01  8.50000000E-01  8.50000000E-01
  8.50000000E-01  8.50000000E-01  8.50000000E-01  8.50000000E-01  8.50000000E-01
  8.50000000E-01  8.50000000E-01  8.50000000E-01  8.50000000E-01  8.50000000E-01
  8.50000000E-01  8.50000000E-01  8.50000000E-01  8.50000000E-01  8.50000000E-01
  8.50000000E-01  8.50000000E-01  8.50000000E-01  8.50000000E-01  8.50000000E-01
  8.50000000E-01  8.50000000E-01  8.50000000E-01  8.50000000E-01  8.50000000E-01
  8.50000000E-01  8.50000000E-01  8.50000000E-01  8.50000000E-01  8.50000000E-01
  8.50000000E-01  8.50000000E-01  8.50000000E-01  8.50000000E-01  8.50000000E-01
  8.50000000E-01  8.50000000E-01  8.50000000E-01  8.50000000E-01  8.50000000E-01
  8.50000000E-01  8.50000000E-01  8.50000000E-01  8.50000000E-01  8.50000000E-01
  8.50000000E-01  8.50000000E-01  8.50000000E-01  8.50000000E-01  8.50000000E-01
  8.50000000E-01  8.50000000E-01  8.50000000E-01  8.50000000E-01  8.50000000E-01
  8.50000000E-01  8.50000000E-01  8.50000000E-01  8.50000000E-01  8.50000000E-01
  8.50000000E-01  8.50000000E-01  8.50000000E-01  8.50000000E-01  8.50000000E-01
  8.50000000E-01  8.50000000E-01  8.50000000E-01  8.50000000E-01  8.50000000E-01
  8.50000000E-01  8.50000000E-01  8.50000000E-01  8.50000000E-01  8.50000000E-01
  8.50000000E-01  8.50000000E-01  8.50000000E-01  8.50000000E-01  8.50000000E-01
  8.50000000E-01  8.50000000E-01  8.50000000E-01  8.50000000E-01  8.50000000E-01
  8.50000000E-01  8.50000000E-01  8.50000000E-01  8.50000000E-01  8.50000000E-01
  8.50000000E-01  8.50000000E-01  8.50000000E-01  8.50000000E-01  8.50000000E-01
  8.50000000E-01  8.50000000E-01  8.50000000E-01  8.50000000E-01  8.50000000E-01
  8.50000000E-01  8.50000000E-01  8.50000000E-01  8.50000000E-01  8.50000000E-01
  8.50000000E-01  8.50000000E-01  8.50000000E-01  8.50000000E-01  8.50000000E-01
  8.50000000E-01  8.50000000E-01  8.50000000E-01  8.50000000E-01  8.50000000E-01
  8.50000000E-01  8.50000000E-01  8.50000000E-01  8.50000000E-01  8.50000000E-01
  8.50000000E-01  8.50000000E-01  8.50000000E-01  8.50000000E-01  8.50000000E-01
  8.50000000E-01  8.50000000E-01  8.50000000E-01  8.50000000E-01  8.50000000E-01
  8.50000000E-01  8.50000000E-01  8.50000000E-01  8.50000000E-01  8.50000000E-01
  8.50000000E-01  8.50000000E-01  8.50000000E-01  8.50000000E-01  8.50000000E-01
  8.50000000E-01  8.50000000E-01  8.50000000E-01  8.50000000E-01  8.50000000E-01
  8.50000000E-01  8.50000000E-01  8.50000000E-01  8.50000000E-01  8.50000000E-01
  8.50000000E-01  8.50000000E-01  8.50000000E-01  8.50000000E-01  8.50000000E-01
  8.50000000E-01  8.50000000E-01  8.50000000E-01  8.50000000E-01  8.50000000E-01
  8.50000000E-01  8.50000000E-01  8.50000000E-01  8.50000000E-01  8.50000000E-01
  8.50000000E-01  8.50000000E-01  8.50000000E-01  8.50000000E-01  8.50000000E-01
  8.50000000E-01  8.50000000E-01  8.50000000E-01  8.50000000E-01  8.50000000E-01
  8.50000000E-01  8.50000000E-01  8.50000000E-01  8.50000000E-01  8.50000000E-01
  8.50000000E-01  8.50000000E-01  8.50000000E-01  8.50000000E-01  8.50000000E-01
  8.50000000E-01  8.50000000E-01  8.50000000E-01  8.50000000E-01  8.50000000E-01
  8.50000000E-01  8.50000000E-01  8.50000000E-01  8.50000000E-01  8.50000000E-01
  8.50000000E-01  8.50000000E-01  8.50000000E-01  8.50000000E-01  8.50000000E-01
  8.50000000E-01  8.50000000E-01  8.50000000E-01  8.50000000E-01  8.50000000E-01
  8.50000000E-01  8.50000000E-01  8.50000000E-01  8.50000000E-01  8.50000000E-01
  8.50000000E-01  8.50000000E-01  8.50000000E-01  8.50000000E-01  8.50000000E-01
  8.50000000E-01  8.50000000E-01  8.50000000E-01  8.50000000E-01  8.50000000E-01
  8.50000000E-01  8.50000000E-01  8.50000000E-01  8.50000000E-01  8.50000000E-01
  8.50000000E-01  8.50000000E-01  8.50000000E-01  8.50000000E-01  8.50000000E-01
  8.50000000E-01  8.50000000E-01  8.50000000E-01  8.50000000E-01  8.50000000E-01
  8.50000000E-01  8.50000000E-01  8.50000000E-01  8.50000000E-01  8.50000000E-01
  8.50000000E-01  8.50000000E-01  8.50000000E-01  8.50000000E-01  8.50000000E-01
  8.50000000E-01  8.50000000E-01  8.50000000E-01  8.50000000E-01  8.50000000E-01
  8.50000000E-01  8.50000000E-01  8.50000000E-01  8.50000000E-01  8.50000000E-01
  8.50000000E-01  8.50000000E-01  8.50000000E-01  8.50000000E-01  8.50000000E-01
  8.50000000E-01  8.50000000E-01  8.50000000E-01  8.50000000E-01  8.50000000E-01
  8.50000000E-01  8.50000000E-01  8.50000000E-01  8.50000000E-01  8.50000000E-01
  8.50000000E-01  8.50000000E-01  8.50000000E-01  8.50000000E-01  8.50000000E-01
  8.50000000E-01  8.50000000E-01  8.50000000E-01  8.50000000E-01  8.50000000E-01
  8.50000000E-01  8.50000000E-01  8.50000000E-01  8.50000000E-01  8.50000000E-01
  8.50000000E-01  8.50000000E-01  8.50000000E-01  8.50000000E-01  8.50000000E-01
  8.50000000E-01  8.50000000E-01  8.50000000E-01  8.50000000E-01  8.50000000E-01
  8.50000000E-01  8.50000000E-01  8.50000000E-01  8.50000000E-01  8.50000000E-01
  8.50000000E-01  8.50000000E-01  8.50000000E-01  8.50000000E-01  8.50000000E-01
  8.50000000E-01  8.50000000E-01  8.50000000E-01  8.50000000E-01  8.50000000E-01
  8.50000000E-01  8.50000000E-01  8.50000000E-01  8.50000000E-01  8.50000000E-01
  8.50000000E-01  8.50000000E-01  8.50000000E-01  8.50000000E-01  8.50000000E-01
  8.50000000E-01  8.50000000E-01  8.50000000E-01  8.50000000E-01  8.50000000E-01
  8.50000000E-01  8.50000000E-01  8.50000000E-01  8.50000000E-01  8.50000000E-01
  8.50000000E-01  8.50000000E-01  8.50000000E-01  8.50000000E-01  8.50000000E-01
  8.50000000E-01  8.50000000E-01  8.50000000E-01  8.50000000E-01  8.50000000E-01
  8.50000000E-01  8.50000000E-01  8.50000000E-01  8.50000000E-01  8.50000000E-01
  8.50000000E-01  8.50000000E-01  8.50000000E-01  8.50000000E-01  8.50000000E-01
  8.50000000E-01  8.50000000E-01  8.50000000E-01  8.50000000E-01  8.50000000E-01
  8.50000000E-01  8.50000000E-01  8.50000000E-01  8.50000000E-01  8.50000000E-01
  8.50000000E-01  8.50000000E-01  8.50000000E-01  8.50000000E-01  8.50000000E-01
  8.50000000E-01  8.50000000E-01  8.50000000E-01  8.50000000E-01  8.50000000E-01
  8.50000000E-01  8.50000000E-01  8.50000000E-01  8.50000000E-01  8.50000000E-01
  8.50000000E-01  8.50000000E-01  8.50000000E-01  8.50000000E-01  8.50000000E-01
  8.50000000E-01  8.50000000E-01  8.50000000E-01  8.50000000E-01  8.50000000E-01
  8.50000000E-01  8.50000000E-01  8.50000000E-01  8.50000000E-01  8.50000000E-01
  8.50000000E-01  8.50000000E-01  8.50000000E-01  8.50000000E-01  8.50000000E-01
  8.50000000E-01  8.50000000E-01  8.50000000E-01  8.50000000E-01  8.50000000E-01
  8.50000000E-01  8.50000000E-01  8.50000000E-01  8.50000000E-01  8.50000000E-01
  8.50000000E-01  8.50000000E-01  8.50000000E-01  8.50000000E-01  8.50000000E-01
  8.50000000E-01  8.50000000E-01  8.50000000E-01  8.50000000E-01  8.50000000E-01
  8.50000000E-01  8.50000000E-01  8.50000000E-01  8.50000000E-01  8.50000000E-01
  8.50000000E-01  8.50000000E-01  8.50000000E-01  8.50000000E-01  8.50000000E-01
  8.50000000E-01  8.50000000E-01  8.50000000E-01  8.50000000E-01  8.50000000E-01
  8.50000000E-01  8.50000000E-01  8.50000000E-01  8.50000000E-01  8.50000000E-01
  8.50000000E-01  8.50000000E-01  8.50000000E-01  8.50000000E-01  8.50000000E-01
  8.50000000E-01  8.50000000E-01  8.50000000E-01  8.50000000E-01  8.50000000E-01
  8.50000000E-01  8.50000000E-01  8.50000000E-01  8.50000000E-01  8.50000000E-01
  8.50000000E-01  8.50000000E-01  8.50000000E-01  8.50000000E-01  8.50000000E-01
  8.50000000E-01  8.50000000E-01  8.50000000E-01  8.50000000E-01  8.50000000E-01
  8.50000000E-01  8.50000000E-01  8.50000000E-01  8.50000000E-01  8.50000000E-01
  8.50000000E-01  8.50000000E-01  8.50000000E-01  8.50000000E-01  8.50000000E-01
  8.50000000E-01  8.50000000E-01  8.50000000E-01  8.50000000E-01  8.50000000E-01
  8.50000000E-01  8.50000000E-01  8.50000000E-01  8.50000000E-01  8.50000000E-01
  8.50000000E-01  8.50000000E-01  8.50000000E-01  8.50000000E-01  8.50000000E-01
  8.50000000E-01  8.50000000E-01  8.50000000E-01  8.50000000E-01  8.50000000E-01
  8.50000000E-01  8.50000000E-01  8.50000000E-01  8.50000000E-01  8.50000000E-01
  8.50000000E-01  8.50000000E-01  8.50000000E-01  8.50000000E-01  8.50000000E-01
  8.50000000E-01  8.50000000E-01  8.50000000E-01  8.50000000E-01  8.50000000E-01
  8.50000000E-01  8.50000000E-01  8.50000000E-01  8.50000000E-01  8.50000000E-01
  8.50000000E-01  8.50000000E-01  8.50000000E-01  8.50000000E-01  8.50000000E-01
  8.50000000E-01  8.50000000E-01  8.50000000E-01  8.50000000E-01  8.50000000E-01
  8.50000000E-01  8.50000000E-01  8.50000000E-01  8.50000000E-01  8.50000000E-01
  8.50000000E-01  8.50000000E-01  8.50000000E-01  8.50000000E-01  8.50000000E-01
  8.50000000E-01  8.50000000E-01  8.50000000E-01  8.50000000E-01  8.50000000E-01
  8.50000000E-01  8.50000000E-01  8.50000000E-01  8.50000000E-01  8.50000000E-01
  8.50000000E-01  8.50000000E-01  8.50000000E-01  8.50000000E-01  8.50000000E-01
  8.50000000E-01  8.50000000E-01  8.50000000E-01  8.50000000E-01  8.50000000E-01
  8.50000000E-01  8.50000000E-01  8.50000000E-01  8.50000000E-01  8.50000000E-01
  8.50000000E-01  8.50000000E-01  8.50000000E-01  8.50000000E-01  8.50000000E-01
  8.50000000E-01  8.50000000E-01  8.50000000E-01  8.50000000E-01  8.50000000E-01
  8.50000000E-01  8.50000000E-01  8.50000000E-01  8.50000000E-01  8.50000000E-01
  8.50000000E-01  8.50000000E-01  8.50000000E-01  8.50000000E-01  8.50000000E-01
  8.50000000E-01  8.50000000E-01  8.50000000E-01  8.50000000E-01  8.50000000E-01
  8.50000000E-01  8.50000000E-01  8.50000000E-01  8.50000000E-01  8.50000000E-01
  8.50000000E-01  8.50000000E-01  8.50000000E-01  8.50000000E-01  8.50000000E-01
  8.50000000E-01  8.50000000E-01  8.50000000E-01  8.50000000E-01  8.50000000E-01
  8.50000000E-01  8.50000000E-01  8.50000000E-01  8.50000000E-01  8.50000000E-01
  8.50000000E-01  8.50000000E-01  8.50000000E-01  8.50000000E-01  8.50000000E-01
  8.50000000E-01  8.50000000E-01  8.50000000E-01  8.50000000E-01  8.50000000E-01
  8.50000000E-01  8.50000000E-01  8.50000000E-01  8.50000000E-01  8.50000000E-01
  8.50000000E-01  8.50000000E-01  8.50000000E-01  8.50000000E-01  8.50000000E-01
  8.50000000E-01  8.50000000E-01  8.50000000E-01  8.50000000E-01  8.50000000E-01
  8.50000000E-01  8.50000000E-01  8.50000000E-01  8.50000000E-01  8.50000000E-01
  8.50000000E-01  8.50000000E-01  8.50000000E-01  8.50000000E-01  8.50000000E-01
  8.50000000E-01  8.50000000E-01  8.50000000E-01  8.50000000E-01  8.50000000E-01
  8.50000000E-01  8.50000000E-01  8.50000000E-01  8.50000000E-01  8.50000000E-01
  8.50000000E-01  8.50000000E-01  8.50000000E-01  8.50000000E-01  8.50000000E-01
  8.50000000E-01  8.50000000E-01  8.50000000E-01  8.50000000E-01  8.50000000E-01
  8.50000000E-01  8.50000000E-01  8.50000000E-01  8.50000000E-01  8.50000000E-01
  8.50000000E-01  8.50000000E-01  8.50000000E-01  8.50000000E-01  8.50000000E-01
  8.50000000E-01  8.50000000E-01  8.50000000E-01  8.50000000E-01  8.50000000E-01
  8.50000000E-01  8.50000000E-01  8.50000000E-01  8.50000000E-01  8.50000000E-01
  8.50000000E-01  8.50000000E-01  8.50000000E-01  8.50000000E-01  8.50000000E-01
  8.50000000E-01  8.50000000E-01  8.50000000E-01  8.50000000E-01  8.50000000E-01
  8.50000000E-01  8.50000000E-01  8.50000000E-01  8.50000000E-01  8.50000000E-01
  8.50000000E-01  8.50000000E-01  8.50000000E-01  8.50000000E-01  8.50000000E-01
  8.50000000E-01  8.50000000E-01  8.50000000E-01  8.50000000E-01  8.50000000E-01
  8.50000000E-01  8.50000000E-01  8.50000000E-01  8.50000000E-01  8.50000000E-01
  8.50000000E-01  8.50000000E-01  8.50000000E-01  8.50000000E-01  8.50000000E-01
  8.50000000E-01  8.50000000E-01  8.50000000E-01  8.50000000E-01  8.50000000E-01
  8.50000000E-01  8.50000000E-01  8.50000000E-01  8.50000000E-01  8.50000000E-01
  8.50000000E-01  8.50000000E-01  8.50000000E-01  8.50000000E-01  8.50000000E-01
  8.50000000E-01  8.50000000E-01  8.50000000E-01  8.50000000E-01  8.50000000E-01
  8.50000000E-01  8.50000000E-01  8.50000000E-01  8.50000000E-01  8.50000000E-01
  8.50000000E-01  8.50000000E-01  8.50000000E-01  8.50000000E-01  8.50000000E-01
  8.50000000E-01  8.50000000E-01  8.50000000E-01  8.50000000E-01  8.50000000E-01
  8.50000000E-01  8.50000000E-01  8.50000000E-01  8.50000000E-01  8.50000000E-01
  8.50000000E-01  8.50000000E-01  8.50000000E-01  8.50000000E-01  8.50000000E-01
  8.50000000E-01  8.50000000E-01  8.50000000E-01  8.50000000E-01  8.50000000E-01
  8.50000000E-01  8.50000000E-01  8.50000000E-01  8.50000000E-01  8.50000000E-01
  8.50000000E-01  8.50000000E-01  8.50000000E-01  8.50000000E-01  8.50000000E-01
  8.50000000E-01  8.50000000E-01  8.50000000E-01  8.50000000E-01  8.50000000E-01
  8.50000000E-01  8.50000000E-01  8.50000000E-01  8.50000000E-01  8.50000000E-01
  8.50000000E-01  8.50000000E-01  8.50000000E-01  8.50000000E-01  8.50000000E-01
  8.50000000E-01  8.50000000E-01  8.50000000E-01  8.50000000E-01  8.50000000E-01
  8.50000000E-01  8.50000000E-01  8.50000000E-01  8.50000000E-01  8.50000000E-01
  8.50000000E-01  8.50000000E-01  8.50000000E-01  8.50000000E-01  8.50000000E-01
  8.50000000E-01  8.50000000E-01  8.50000000E-01  8.50000000E-01  8.50000000E-01
  8.50000000E-01  8.50000000E-01  8.50000000E-01  8.50000000E-01  8.50000000E-01
  8.50000000E-01  8.50000000E-01  8.50000000E-01  8.50000000E-01  8.50000000E-01
  8.50000000E-01  8.50000000E-01  8.50000000E-01  8.50000000E-01  8.50000000E-01
  8.50000000E-01  8.50000000E-01  8.50000000E-01  8.50000000E-01  8.50000000E-01
  8.50000000E-01  8.50000000E-01  8.50000000E-01  8.50000000E-01  8.50000000E-01
  8.50000000E-01  8.50000000E-01  8.50000000E-01  8.50000000E-01  8.50000000E-01
  8.50000000E-01  8.50000000E-01  8.50000000E-01  8.50000000E-01  8.50000000E-01
  8.50000000E-01  8.50000000E-01  8.50000000E-01  8.50000000E-01  8.50000000E-01
  8.50000000E-01  8.50000000E-01  8.50000000E-01  8.50000000E-01  8.50000000E-01
  8.50000000E-01  8.50000000E-01  8.50000000E-01  8.50000000E-01  8.50000000E-01
  8.50000000E-01  8.50000000E-01  8.50000000E-01  8.50000000E-01  8.50000000E-01
  8.50000000E-01  8.50000000E-01  8.50000000E-01  8.50000000E-01  8.50000000E-01
  8.50000000E-01  8.50000000E-01  8.50000000E-01  8.50000000E-01  8.50000000E-01
  8.50000000E-01  8.50000000E-01  8.50000000E-01  8.50000000E-01  8.50000000E-01
  8.50000000E-01  8.50000000E-01  8.50000000E-01  8.50000000E-01  8.50000000E-01
  8.50000000E-01  8.50000000E-01  8.50000000E-01  8.50000000E-01  8.50000000E-01
  8.50000000E-01  8.50000000E-01  8.50000000E-01  8.50000000E-01  8.50000000E-01
  8.50000000E-01  8.50000000E-01  8.50000000E-01  8.50000000E-01  8.50000000E-01
  8.50000000E-01  8.50000000E-01  8.50000000E-01  8.50000000E-01  8.50000000E-01
  8.50000000E-01  8.50000000E-01  8.50000000E-01  8.50000000E-01  8.50000000E-01
  8.50000000E-01  8.50000000E-01  8.50000000E-01  8.50000000E-01  8.50000000E-01
  8.50000000E-01  8.50000000E-01  8.50000000E-01  8.50000000E-01  8.50000000E-01
  8.50000000E-01  8.50000000E-01  8.50000000E-01  8.50000000E-01  8.50000000E-01
  8.50000000E-01  8.50000000E-01  8.50000000E-01  8.50000000E-01  8.50000000E-01
  8.50000000E-01  8.50000000E-01  8.50000000E-01  8.50000000E-01  8.50000000E-01
  8.50000000E-01  8.50000000E-01  8.50000000E-01  8.50000000E-01  8.50000000E-01
  8.50000000E-01  8.50000000E-01  8.50000000E-01  8.50000000E-01  8.50000000E-01
  8.50000000E-01  8.50000000E-01  8.50000000E-01  8.50000000E-01  8.50000000E-01
  8.50000000E-01  8.50000000E-01  8.50000000E-01  8.50000000E-01  8.50000000E-01
  8.50000000E-01  8.50000000E-01  8.50000000E-01  8.50000000E-01  8.50000000E-01
  8.50000000E-01  8.50000000E-01  8.50000000E-01  8.50000000E-01  8.50000000E-01
  8.50000000E-01  8.50000000E-01  8.50000000E-01  8.50000000E-01  8.50000000E-01
  8.50000000E-01  8.50000000E-01  8.50000000E-01  8.50000000E-01  8.50000000E-01
  8.50000000E-01  8.50000000E-01  8.50000000E-01  8.50000000E-01  8.50000000E-01
  8.50000000E-01  8.50000000E-01  8.50000000E-01  8.50000000E-01  8.50000000E-01
  8.50000000E-01  8.50000000E-01  8.50000000E-01  8.50000000E-01  8.50000000E-01
  8.50000000E-01  8.50000000E-01  8.50000000E-01  8.50000000E-01  8.50000000E-01
  8.50000000E-01  8.50000000E-01  8.50000000E-01  8.50000000E-01  8.50000000E-01
  8.50000000E-01  8.50000000E-01  8.50000000E-01  8.50000000E-01  8.50000000E-01
  8.50000000E-01  8.50000000E-01  8.50000000E-01  8.50000000E-01  8.50000000E-01
  8.50000000E-01  8.50000000E-01  8.50000000E-01  8.50000000E-01  8.50000000E-01
  8.50000000E-01  8.50000000E-01  8.50000000E-01  8.50000000E-01  8.50000000E-01
  8.50000000E-01  8.50000000E-01  8.50000000E-01  8.50000000E-01  8.50000000E-01
  8.50000000E-01  8.50000000E-01  8.50000000E-01  8.50000000E-01  8.50000000E-01
  8.50000000E-01  8.50000000E-01  8.50000000E-01  8.50000000E-01  8.50000000E-01
  8.50000000E-01  8.50000000E-01  8.50000000E-01  8.50000000E-01  8.50000000E-01
  8.50000000E-01  8.50000000E-01  8.50000000E-01  8.50000000E-01  8.50000000E-01
  8.50000000E-01  8.50000000E-01  8.50000000E-01  8.50000000E-01  8.50000000E-01
  8.50000000E-01  8.50000000E-01  8.50000000E-01  8.50000000E-01  8.50000000E-01
  8.50000000E-01  8.50000000E-01  8.50000000E-01  8.50000000E-01  8.50000000E-01
  8.50000000E-01  8.50000000E-01  8.50000000E-01  8.50000000E-01  8.50000000E-01
  8.50000000E-01  8.50000000E-01  8.50000000E-01  8.50000000E-01  8.50000000E-01
  8.50000000E-01  8.50000000E-01  8.50000000E-01  8.50000000E-01  8.50000000E-01
  8.50000000E-01  8.50000000E-01  8.50000000E-01  8.50000000E-01  8.50000000E-01
  8.50000000E-01  8.50000000E-01  8.50000000E-01  8.50000000E-01  8.50000000E-01
  8.50000000E-01  8.50000000E-01  8.50000000E-01  8.50000000E-01  8.50000000E-01
  8.50000000E-01  8.50000000E-01  8.50000000E-01  8.50000000E-01  8.50000000E-01
  8.50000000E-01  8.50000000E-01  8.50000000E-01  8.50000000E-01  8.50000000E-01
  8.50000000E-01  8.50000000E-01  8.50000000E-01  8.50000000E-01  8.50000000E-01
  8.50000000E-01  8.50000000E-01  8.50000000E-01  8.50000000E-01  8.50000000E-01
  8.50000000E-01  8.50000000E-01  8.50000000E-01  8.50000000E-01  8.50000000E-01
  8.50000000E-01  8.50000000E-01  8.50000000E-01  8.50000000E-01  8.50000000E-01
  8.50000000E-01  8.50000000E-01  8.50000000E-01  8.50000000E-01  8.50000000E-01
  8.50000000E-01  8.50000000E-01  8.50000000E-01  8.50000000E-01  8.50000000E-01
  8.50000000E-01  8.50000000E-01  8.50000000E-01  8.50000000E-01  8.50000000E-01
  8.50000000E-01  8.50000000E-01  8.50000000E-01  8.50000000E-01  8.50000000E-01
  8.50000000E-01  8.50000000E-01  8.50000000E-01  8.50000000E-01  8.50000000E-01
  8.50000000E-01  8.50000000E-01  8.50000000E-01  8.50000000E-01  8.50000000E-01
  8.50000000E-01  8.50000000E-01  8.50000000E-01  8.50000000E-01  8.50000000E-01
  8.50000000E-01  8.50000000E-01  8.50000000E-01  8.50000000E-01  8.50000000E-01
  8.50000000E-01  8.50000000E-01  8.50000000E-01  8.50000000E-01  8.50000000E-01
  8.50000000E-01  8.50000000E-01  8.50000000E-01  8.50000000E-01  8.50000000E-01
  8.50000000E-01  8.50000000E-01  8.50000000E-01  8.50000000E-01  8.50000000E-01
  8.50000000E-01  8.50000000E-01  8.50000000E-01  8.50000000E-01  8.50000000E-01
  8.50000000E-01  8.50000000E-01  8.50000000E-01  8.50000000E-01  8.50000000E-01
  8.50000000E-01  8.50000000E-01  8.50000000E-01  8.50000000E-01  8.50000000E-01
  8.50000000E-01  8.50000000E-01  8.50000000E-01  8.50000000E-01  8.50000000E-01
  8.50000000E-01  8.50000000E-01  8.50000000E-01  8.50000000E-01  8.50000000E-01
  8.50000000E-01  8.50000000E-01  8.50000000E-01  8.50000000E-01  8.50000000E-01
  8.50000000E-01  8.50000000E-01  8.50000000E-01  8.50000000E-01  8.50000000E-01
  8.50000000E-01  8.50000000E-01  8.50000000E-01  8.50000000E-01  8.50000000E-01
  8.50000000E-01  8.50000000E-01  8.50000000E-01  8.50000000E-01  8.50000000E-01
  8.50000000E-01  8.50000000E-01  8.50000000E-01  8.50000000E-01  8.50000000E-01
  8.50000000E-01  8.50000000E-01  8.50000000E-01  8.50000000E-01  8.50000000E-01
  8.50000000E-01  8.50000000E-01  8.50000000E-01  8.50000000E-01  8.50000000E-01
  8.50000000E-01  8.50000000E-01  8.50000000E-01  8.50000000E-01  8.50000000E-01
  8.50000000E-01  8.50000000E-01  8.50000000E-01  8.50000000E-01  8.50000000E-01
  8.50000000E-01  8.50000000E-01  8.50000000E-01  8.50000000E-01  8.50000000E-01
  8.50000000E-01  8.50000000E-01  8.50000000E-01  8.50000000E-01  8.50000000E-01
  8.50000000E-01  8.50000000E-01  8.50000000E-01  8.50000000E-01  8.50000000E-01
  8.50000000E-01  8.50000000E-01  8.50000000E-01  8.50000000E-01  8.50000000E-01
  8.50000000E-01  8.50000000E-01  8.50000000E-01  8.50000000E-01  8.50000000E-01
  8.50000000E-01  8.50000000E-01  8.50000000E-01  8.50000000E-01  8.50000000E-01
  8.50000000E-01  8.50000000E-01  8.50000000E-01  8.50000000E-01  8.50000000E-01
  8.50000000E-01  8.50000000E-01  8.50000000E-01  8.50000000E-01  8.50000000E-01
  8.50000000E-01  8.50000000E-01  8.50000000E-01  8.50000000E-01  8.50000000E-01
  8.50000000E-01  8.50000000E-01  8.50000000E-01  8.50000000E-01  8.50000000E-01
  8.50000000E-01  8.50000000E-01  8.50000000E-01  8.50000000E-01  8.50000000E-01
  8.50000000E-01  8.50000000E-01  8.50000000E-01  8.50000000E-01  8.50000000E-01
  8.50000000E-01  8.50000000E-01  8.50000000E-01  8.50000000E-01  8.50000000E-01
  8.50000000E-01  8.50000000E-01  8.50000000E-01  8.50000000E-01  8.50000000E-01
  8.50000000E-01  8.50000000E-01  8.50000000E-01  8.50000000E-01  8.50000000E-01
  8.50000000E-01  8.50000000E-01  8.50000000E-01  8.50000000E-01  8.50000000E-01
  8.50000000E-01  8.50000000E-01  8.50000000E-01  8.50000000E-01  8.50000000E-01
  8.50000000E-01  8.50000000E-01  8.50000000E-01  8.50000000E-01  8.50000000E-01
  8.50000000E-01  8.50000000E-01  8.50000000E-01  8.50000000E-01  8.50000000E-01
  8.50000000E-01  8.50000000E-01  8.50000000E-01  8.50000000E-01  8.50000000E-01
  8.50000000E-01  8.50000000E-01  8.50000000E-01  8.50000000E-01  8.50000000E-01
  8.50000000E-01  8.50000000E-01  8.50000000E-01  8.50000000E-01  8.50000000E-01
  8.50000000E-01  8.50000000E-01  8.50000000E-01  8.50000000E-01  8.50000000E-01
  8.50000000E-01  8.50000000E-01  8.50000000E-01  8.50000000E-01  8.50000000E-01
  8.50000000E-01  8.50000000E-01  8.50000000E-01  8.50000000E-01  8.50000000E-01
  8.50000000E-01  8.50000000E-01  8.50000000E-01  8.50000000E-01  8.50000000E-01
  8.50000000E-01  8.50000000E-01  8.50000000E-01  8.50000000E-01  8.50000000E-01
  8.50000000E-01  8.50000000E-01  8.50000000E-01  8.50000000E-01  8.50000000E-01
  8.50000000E-01  8.50000000E-01  8.50000000E-01  8.50000000E-01  8.50000000E-01
  8.50000000E-01  8.50000000E-01  8.50000000E-01  8.50000000E-01  8.50000000E-01
  8.50000000E-01  8.50000000E-01  8.50000000E-01  8.50000000E-01  8.50000000E-01
  8.50000000E-01  8.50000000E-01  8.50000000E-01  8.50000000E-01  8.50000000E-01
  8.50000000E-01  8.50000000E-01  8.50000000E-01  8.50000000E-01  8.50000000E-01
  8.50000000E-01  8.50000000E-01  8.50000000E-01  8.50000000E-01  8.50000000E-01
  8.50000000E-01  8.50000000E-01  8.50000000E-01  8.50000000E-01  8.50000000E-01
  8.50000000E-01  8.50000000E-01  8.50000000E-01  8.50000000E-01  8.50000000E-01
  8.50000000E-01  8.50000000E-01  8.50000000E-01  8.50000000E-01  8.50000000E-01
  8.50000000E-01  8.50000000E-01  8.50000000E-01  8.50000000E-01  8.50000000E-01
  8.50000000E-01  8.50000000E-01  8.50000000E-01  8.50000000E-01  8.50000000E-01
  8.50000000E-01  8.50000000E-01  8.50000000E-01  8.50000000E-01  8.50000000E-01
  8.50000000E-01  8.50000000E-01  8.50000000E-01  8.50000000E-01  8.50000000E-01
  8.50000000E-01  8.50000000E-01  8.50000000E-01  8.50000000E-01  8.50000000E-01
  8.50000000E-01  8.50000000E-01  8.50000000E-01  8.50000000E-01  8.50000000E-01
  8.50000000E-01  8.50000000E-01  8.50000000E-01  8.50000000E-01  8.50000000E-01
  8.50000000E-01  8.50000000E-01  8.50000000E-01  8.50000000E-01  8.50000000E-01
  8.50000000E-01  8.50000000E-01  8.50000000E-01  8.50000000E-01  8.50000000E-01
  8.50000000E-01  8.50000000E-01  8.50000000E-01  8.50000000E-01  8.50000000E-01
  8.50000000E-01  8.50000000E-01  8.50000000E-01  8.50000000E-01  8.50000000E-01
  8.50000000E-01  8.50000000E-01  8.50000000E-01  8.50000000E-01  8.50000000E-01
  8.50000000E-01  8.50000000E-01  8.50000000E-01  8.50000000E-01  8.50000000E-01
  8.50000000E-01  8.50000000E-01  8.50000000E-01  8.50000000E-01  8.50000000E-01
  8.50000000E-01  8.50000000E-01  8.50000000E-01  8.50000000E-01  8.50000000E-01
  8.50000000E-01  8.50000000E-01  8.50000000E-01  8.50000000E-01  8.50000000E-01
  8.50000000E-01  8.50000000E-01  8.50000000E-01  8.50000000E-01  8.50000000E-01
  8.50000000E-01  8.50000000E-01  8.50000000E-01  8.50000000E-01  8.50000000E-01
  8.50000000E-01  8.50000000E-01  8.50000000E-01  8.50000000E-01  8.50000000E-01
  8.50000000E-01  8.50000000E-01  8.50000000E-01  8.50000000E-01  8.50000000E-01
  8.50000000E-01  8.50000000E-01  8.50000000E-01  8.50000000E-01  8.50000000E-01
  8.50000000E-01  8.50000000E-01  8.50000000E-01  8.50000000E-01  8.50000000E-01
  8.50000000E-01  8.50000000E-01  8.50000000E-01  8.50000000E-01  8.50000000E-01
  8.50000000E-01  8.50000000E-01  8.50000000E-01  8.50000000E-01  8.50000000E-01
  8.50000000E-01  8.50000000E-01  8.50000000E-01  8.50000000E-01  8.50000000E-01
  8.50000000E-01  8.50000000E-01  8.50000000E-01  8.50000000E-01  8.50000000E-01
  8.50000000E-01  8.50000000E-01  8.50000000E-01  8.50000000E-01  8.50000000E-01
  8.50000000E-01  8.50000000E-01  8.50000000E-01  8.50000000E-01  8.50000000E-01
  8.50000000E-01  8.50000000E-01  8.50000000E-01  8.50000000E-01  8.50000000E-01
  8.50000000E-01  8.50000000E-01  8.50000000E-01  8.50000000E-01  8.50000000E-01
  8.50000000E-01  8.50000000E-01  8.50000000E-01  8.50000000E-01  8.50000000E-01
  8.50000000E-01  8.50000000E-01  8.50000000E-01  8.50000000E-01  8.50000000E-01
  8.50000000E-01  8.50000000E-01  8.50000000E-01  8.50000000E-01  8.50000000E-01
  8.50000000E-01  8.50000000E-01  8.50000000E-01  8.50000000E-01  8.50000000E-01
  8.50000000E-01  8.50000000E-01  8.50000000E-01  8.50000000E-01  8.50000000E-01
  8.50000000E-01  8.50000000E-01  8.50000000E-01  8.50000000E-01  8.50000000E-01
  8.50000000E-01  8.50000000E-01  8.50000000E-01  8.50000000E-01  8.50000000E-01
  8.50000000E-01  8.50000000E-01  8.50000000E-01  8.50000000E-01  8.50000000E-01
  8.50000000E-01  8.50000000E-01  8.50000000E-01  8.50000000E-01  8.50000000E-01
  8.50000000E-01  8.50000000E-01  8.50000000E-01  8.50000000E-01  8.50000000E-01
  8.50000000E-01  8.50000000E-01  8.50000000E-01  8.50000000E-01  8.50000000E-01
  8.50000000E-01  8.50000000E-01  8.50000000E-01  8.50000000E-01  8.50000000E-01
  8.50000000E-01  8.50000000E-01  8.50000000E-01  8.50000000E-01  8.50000000E-01
  8.50000000E-01  8.50000000E-01  8.50000000E-01  8.50000000E-01  8.50000000E-01
  8.50000000E-01  8.50000000E-01  8.50000000E-01  8.50000000E-01  8.50000000E-01
  8.50000000E-01  8.50000000E-01  8.50000000E-01  8.50000000E-01  8.50000000E-01
  8.50000000E-01  8.50000000E-01  8.50000000E-01  8.50000000E-01  8.50000000E-01
  8.50000000E-01  8.50000000E-01  8.50000000E-01  8.50000000E-01  8.50000000E-01
  8.50000000E-01  8.50000000E-01  8.50000000E-01  8.50000000E-01  8.50000000E-01
  8.50000000E-01  8.50000000E-01  8.50000000E-01  8.50000000E-01  8.50000000E-01
  8.50000000E-01  8.50000000E-01  8.50000000E-01  8.50000000E-01  8.50000000E-01
  8.50000000E-01  8.50000000E-01  8.50000000E-01  8.50000000E-01  8.50000000E-01
  8.50000000E-01  8.50000000E-01  8.50000000E-01  8.50000000E-01  8.50000000E-01
  8.50000000E-01  8.50000000E-01  8.50000000E-01  8.50000000E-01  8.50000000E-01
  8.50000000E-01  8.50000000E-01  8.50000000E-01  8.50000000E-01  8.50000000E-01
  8.50000000E-01  8.50000000E-01  8.50000000E-01  8.50000000E-01  8.50000000E-01
  8.50000000E-01  8.50000000E-01  8.50000000E-01  8.50000000E-01  8.50000000E-01
  8.50000000E-01  8.50000000E-01  8.50000000E-01  8.50000000E-01  8.50000000E-01
  8.50000000E-01  8.50000000E-01  8.50000000E-01  8.50000000E-01  8.50000000E-01
  8.50000000E-01  8.50000000E-01  8.50000000E-01  8.50000000E-01  8.50000000E-01
  8.50000000E-01  8.50000000E-01  8.50000000E-01  8.50000000E-01  8.50000000E-01
  8.50000000E-01  8.50000000E-01  8.50000000E-01  8.50000000E-01  8.50000000E-01
  8.50000000E-01  8.50000000E-01  8.50000000E-01  8.50000000E-01  8.50000000E-01
  8.50000000E-01  8.50000000E-01  8.50000000E-01  8.50000000E-01  8.50000000E-01
  8.50000000E-01  8.50000000E-01  8.50000000E-01  8.50000000E-01  8.50000000E-01
  8.50000000E-01  8.50000000E-01  8.50000000E-01  8.50000000E-01  8.50000000E-01
  8.50000000E-01  8.50000000E-01  8.50000000E-01  8.50000000E-01  8.50000000E-01
  8.50000000E-01  8.50000000E-01  8.50000000E-01  8.50000000E-01  8.50000000E-01
  8.50000000E-01  8.50000000E-01  8.50000000E-01  8.50000000E-01  8.50000000E-01
  8.50000000E-01  8.50000000E-01  8.50000000E-01  8.50000000E-01  8.50000000E-01
  8.50000000E-01  8.50000000E-01  8.50000000E-01  8.50000000E-01  8.50000000E-01
  8.50000000E-01  8.50000000E-01  8.50000000E-01  8.50000000E-01  8.50000000E-01
  8.50000000E-01  8.50000000E-01  8.50000000E-01  8.50000000E-01  8.50000000E-01
  8.50000000E-01  8.50000000E-01  8.50000000E-01  8.50000000E-01  8.50000000E-01
  8.50000000E-01  8.50000000E-01  8.50000000E-01  8.50000000E-01  8.50000000E-01
  8.50000000E-01  8.50000000E-01  8.50000000E-01  8.50000000E-01  8.50000000E-01
  8.50000000E-01  8.50000000E-01  8.50000000E-01  8.50000000E-01  8.50000000E-01
  8.50000000E-01  8.50000000E-01  8.50000000E-01  8.50000000E-01  8.50000000E-01
  8.50000000E-01  8.50000000E-01  8.50000000E-01  8.50000000E-01  8.50000000E-01
  8.50000000E-01  8.50000000E-01  8.50000000E-01  8.50000000E-01  8.50000000E-01
  8.50000000E-01  8.50000000E-01  8.50000000E-01  8.50000000E-01  8.50000000E-01
  8.50000000E-01  8.50000000E-01  8.50000000E-01  8.50000000E-01  8.50000000E-01
  8.50000000E-01  8.50000000E-01  8.50000000E-01  8.50000000E-01  8.50000000E-01
  8.50000000E-01  8.50000000E-01  8.50000000E-01  8.50000000E-01  8.50000000E-01
  8.50000000E-01  8.50000000E-01  8.50000000E-01  8.50000000E-01  8.50000000E-01
  8.50000000E-01  8.50000000E-01  8.50000000E-01  8.50000000E-01  8.50000000E-01
  8.50000000E-01  8.50000000E-01  8.50000000E-01  8.50000000E-01  8.50000000E-01
  8.50000000E-01  8.50000000E-01  8.50000000E-01  8.50000000E-01  8.50000000E-01
  8.50000000E-01  8.50000000E-01  8.50000000E-01  8.50000000E-01  8.50000000E-01
  8.50000000E-01  8.50000000E-01  8.50000000E-01  8.50000000E-01  8.50000000E-01
  8.50000000E-01  8.50000000E-01  8.50000000E-01  8.50000000E-01  8.50000000E-01
  8.50000000E-01  8.50000000E-01  8.50000000E-01  8.50000000E-01  8.50000000E-01
  8.50000000E-01  8.50000000E-01  8.50000000E-01  8.50000000E-01  8.50000000E-01
  8.50000000E-01  8.50000000E-01  8.50000000E-01  8.50000000E-01  8.50000000E-01
  8.50000000E-01  8.50000000E-01  8.50000000E-01  8.50000000E-01  8.50000000E-01
  8.50000000E-01  8.50000000E-01  8.50000000E-01  8.50000000E-01  8.50000000E-01
  8.50000000E-01  8.50000000E-01  8.50000000E-01  8.50000000E-01  8.50000000E-01
  8.50000000E-01  8.50000000E-01  8.50000000E-01  8.50000000E-01  8.50000000E-01
  8.50000000E-01  8.50000000E-01  8.50000000E-01  8.50000000E-01  8.50000000E-01
  8.50000000E-01  8.50000000E-01  8.50000000E-01  8.50000000E-01  8.50000000E-01
  8.50000000E-01  8.50000000E-01  8.50000000E-01  8.50000000E-01  8.50000000E-01
  8.50000000E-01  8.50000000E-01  8.50000000E-01  8.50000000E-01  8.50000000E-01
  8.50000000E-01  8.50000000E-01  8.50000000E-01  8.50000000E-01  8.50000000E-01
  8.50000000E-01  8.50000000E-01  8.50000000E-01  8.50000000E-01  8.50000000E-01
  8.50000000E-01  8.50000000E-01  8.50000000E-01  8.50000000E-01  8.50000000E-01
  8.50000000E-01  8.50000000E-01  8.50000000E-01  8.50000000E-01  8.50000000E-01
  8.50000000E-01  8.50000000E-01  8.50000000E-01  8.50000000E-01  8.50000000E-01
  8.50000000E-01  8.50000000E-01  8.50000000E-01  8.50000000E-01  8.50000000E-01
  8.50000000E-01  8.50000000E-01  8.50000000E-01  8.50000000E-01  8.50000000E-01
  8.50000000E-01  8.50000000E-01  8.50000000E-01  8.50000000E-01  8.50000000E-01
  8.50000000E-01  8.50000000E-01  8.50000000E-01  8.50000000E-01  8.50000000E-01
  8.50000000E-01  8.50000000E-01  8.50000000E-01  8.50000000E-01  8.50000000E-01
  8.50000000E-01  8.50000000E-01  8.50000000E-01  8.50000000E-01  8.50000000E-01
  8.50000000E-01  8.50000000E-01  8.50000000E-01  8.50000000E-01  8.50000000E-01
  8.50000000E-01  8.50000000E-01  8.50000000E-01  8.50000000E-01  8.50000000E-01
  8.50000000E-01  8.50000000E-01  8.50000000E-01  8.50000000E-01  8.50000000E-01
  8.50000000E-01  8.50000000E-01  8.50000000E-01  8.50000000E-01  8.50000000E-01
  8.50000000E-01  8.50000000E-01  8.50000000E-01  8.50000000E-01  8.50000000E-01
  8.50000000E-01  8.50000000E-01  8.50000000E-01  8.50000000E-01  8.50000000E-01
  8.50000000E-01  8.50000000E-01  8.50000000E-01  8.50000000E-01  8.50000000E-01
  8.50000000E-01  8.50000000E-01  8.50000000E-01  8.50000000E-01  8.50000000E-01
  8.50000000E-01  8.50000000E-01  8.50000000E-01  8.50000000E-01  8.50000000E-01
  8.50000000E-01  8.50000000E-01  8.50000000E-01  8.50000000E-01  8.50000000E-01
  8.50000000E-01  8.50000000E-01  8.50000000E-01  8.50000000E-01  8.50000000E-01
  8.50000000E-01  8.50000000E-01  8.50000000E-01  8.50000000E-01  8.50000000E-01
  8.50000000E-01  8.50000000E-01  8.50000000E-01  8.50000000E-01  8.50000000E-01
  8.50000000E-01  8.50000000E-01  8.50000000E-01  8.50000000E-01  8.50000000E-01
  8.50000000E-01  8.50000000E-01  8.50000000E-01  8.50000000E-01  8.50000000E-01
  8.50000000E-01  8.50000000E-01  8.50000000E-01  8.50000000E-01  8.50000000E-01
  8.50000000E-01  8.50000000E-01  8.50000000E-01  8.50000000E-01  8.50000000E-01
  8.50000000E-01  8.50000000E-01  8.50000000E-01  8.50000000E-01  8.50000000E-01
  8.50000000E-01  8.50000000E-01  8.50000000E-01  8.50000000E-01  8.50000000E-01
  8.50000000E-01  8.50000000E-01  8.50000000E-01  8.50000000E-01  8.50000000E-01
  8.50000000E-01  8.50000000E-01  8.50000000E-01  8.50000000E-01  8.50000000E-01
  8.50000000E-01  8.50000000E-01  8.50000000E-01  8.50000000E-01  8.50000000E-01
  8.50000000E-01  8.50000000E-01  8.50000000E-01  8.50000000E-01  8.50000000E-01
  8.50000000E-01  8.50000000E-01  8.50000000E-01  8.50000000E-01  8.50000000E-01
  8.50000000E-01  8.50000000E-01  8.50000000E-01  8.50000000E-01  8.50000000E-01
  8.50000000E-01  8.50000000E-01  8.50000000E-01  8.50000000E-01  8.50000000E-01
  8.50000000E-01  8.50000000E-01  8.50000000E-01  8.50000000E-01  8.50000000E-01
  8.50000000E-01  8.50000000E-01  8.50000000E-01  8.50000000E-01  8.50000000E-01
  8.50000000E-01  8.50000000E-01  8.50000000E-01  8.50000000E-01  8.50000000E-01
  8.50000000E-01  8.50000000E-01  8.50000000E-01  8.50000000E-01  8.50000000E-01
  8.50000000E-01  8.50000000E-01  8.50000000E-01  8.50000000E-01  8.50000000E-01
  8.50000000E-01  8.50000000E-01  8.50000000E-01  8.50000000E-01  8.50000000E-01
  8.50000000E-01  8.50000000E-01  8.50000000E-01  8.50000000E-01  8.50000000E-01
  8.50000000E-01  8.50000000E-01  8.50000000E-01  8.50000000E-01  8.50000000E-01
  8.50000000E-01  8.50000000E-01  8.50000000E-01  8.50000000E-01  8.50000000E-01
  8.50000000E-01  8.50000000E-01  8.50000000E-01  8.50000000E-01  8.50000000E-01
  8.50000000E-01  8.50000000E-01  8.50000000E-01  8.50000000E-01  8.50000000E-01
  8.50000000E-01  8.50000000E-01  8.50000000E-01  8.50000000E-01  8.50000000E-01
  8.50000000E-01  8.50000000E-01  8.50000000E-01  8.50000000E-01  8.50000000E-01
  8.50000000E-01  8.50000000E-01  8.50000000E-01  8.50000000E-01  8.50000000E-01
  8.50000000E-01  8.50000000E-01  8.50000000E-01  8.50000000E-01  8.50000000E-01
  8.50000000E-01  8.50000000E-01  8.50000000E-01  8.50000000E-01  8.50000000E-01
  8.50000000E-01  8.50000000E-01  8.50000000E-01  8.50000000E-01  8.50000000E-01
  8.50000000E-01  8.50000000E-01  8.50000000E-01  8.50000000E-01  8.50000000E-01
  8.50000000E-01  8.50000000E-01  8.50000000E-01  8.50000000E-01  8.50000000E-01
  8.50000000E-01  8.50000000E-01  8.50000000E-01  8.50000000E-01  8.50000000E-01
  8.50000000E-01  8.50000000E-01  8.50000000E-01  8.50000000E-01  8.50000000E-01
  8.50000000E-01  8.50000000E-01  8.50000000E-01  8.50000000E-01  8.50000000E-01
  8.50000000E-01  8.50000000E-01  8.50000000E-01  8.50000000E-01  8.50000000E-01
  8.50000000E-01  8.50000000E-01  8.50000000E-01  8.50000000E-01  8.50000000E-01
  8.50000000E-01  8.50000000E-01  8.50000000E-01  8.50000000E-01  8.50000000E-01
  8.50000000E-01  8.50000000E-01  8.50000000E-01  8.50000000E-01  8.50000000E-01
  8.50000000E-01  8.50000000E-01  8.50000000E-01  8.50000000E-01  8.50000000E-01
  8.50000000E-01  8.50000000E-01  8.50000000E-01  8.50000000E-01  8.50000000E-01
  8.50000000E-01  8.50000000E-01  8.50000000E-01  8.50000000E-01  8.50000000E-01
  8.50000000E-01  8.50000000E-01  8.50000000E-01  8.50000000E-01  8.50000000E-01
  8.50000000E-01  8.50000000E-01  8.50000000E-01  8.50000000E-01  8.50000000E-01
  8.50000000E-01  8.50000000E-01  8.50000000E-01  8.50000000E-01  8.50000000E-01
  8.50000000E-01  8.50000000E-01  8.50000000E-01  8.50000000E-01  8.50000000E-01
  8.50000000E-01  8.50000000E-01  8.50000000E-01  8.50000000E-01  8.50000000E-01
  8.50000000E-01  8.50000000E-01  8.50000000E-01  8.50000000E-01  8.50000000E-01
  8.50000000E-01  8.50000000E-01  8.50000000E-01  8.50000000E-01  8.50000000E-01
  8.50000000E-01  8.50000000E-01  8.50000000E-01  8.50000000E-01  8.50000000E-01
  8.50000000E-01  8.50000000E-01  8.50000000E-01  8.50000000E-01  8.50000000E-01
  8.50000000E-01  8.50000000E-01  8.50000000E-01  8.50000000E-01  8.50000000E-01
  8.50000000E-01  8.50000000E-01  8.50000000E-01  8.50000000E-01  8.50000000E-01
  8.50000000E-01  8.50000000E-01  8.50000000E-01  8.50000000E-01  8.50000000E-01
  8.50000000E-01  8.50000000E-01  8.50000000E-01  8.50000000E-01  8.50000000E-01
  8.50000000E-01  8.50000000E-01  8.50000000E-01  8.50000000E-01  8.50000000E-01
  8.50000000E-01  8.50000000E-01  8.50000000E-01  8.50000000E-01  8.50000000E-01
  8.50000000E-01  8.50000000E-01  8.50000000E-01  8.50000000E-01  8.50000000E-01
  8.50000000E-01  8.50000000E-01  8.50000000E-01  8.50000000E-01  8.50000000E-01
  8.50000000E-01  8.50000000E-01  8.50000000E-01  8.50000000E-01  8.50000000E-01
  8.50000000E-01  8.50000000E-01  8.50000000E-01  8.50000000E-01  8.50000000E-01
  8.50000000E-01  8.50000000E-01  8.50000000E-01  8.50000000E-01  8.50000000E-01
  8.50000000E-01  8.50000000E-01  8.50000000E-01  8.50000000E-01  8.50000000E-01
  8.50000000E-01  8.50000000E-01  8.50000000E-01  8.50000000E-01  8.50000000E-01
  8.50000000E-01  8.50000000E-01  8.50000000E-01  8.50000000E-01  8.50000000E-01
  8.50000000E-01  8.50000000E-01  8.50000000E-01  8.50000000E-01  8.50000000E-01
  8.50000000E-01  8.50000000E-01  8.50000000E-01  8.50000000E-01  8.50000000E-01
  8.50000000E-01  8.50000000E-01  8.50000000E-01  8.50000000E-01  8.50000000E-01
  8.50000000E-01  8.50000000E-01  8.50000000E-01  8.50000000E-01  8.50000000E-01
  8.50000000E-01  8.50000000E-01  8.50000000E-01  8.50000000E-01  8.50000000E-01
  8.50000000E-01  8.50000000E-01  8.50000000E-01  8.50000000E-01  8.50000000E-01
  8.50000000E-01  8.50000000E-01  8.50000000E-01  8.50000000E-01  8.50000000E-01
  8.50000000E-01  8.50000000E-01  8.50000000E-01  8.50000000E-01  8.50000000E-01
  8.50000000E-01  8.50000000E-01  8.50000000E-01  8.50000000E-01  8.50000000E-01
  8.50000000E-01  8.50000000E-01  8.50000000E-01  8.50000000E-01  8.50000000E-01
  8.50000000E-01  8.50000000E-01  8.50000000E-01  8.50000000E-01  8.50000000E-01
  8.50000000E-01  8.50000000E-01  8.50000000E-01  8.50000000E-01  8.50000000E-01
  8.50000000E-01  8.50000000E-01  8.50000000E-01  8.50000000E-01  8.50000000E-01
  8.50000000E-01  8.50000000E-01  8.50000000E-01  8.50000000E-01  8.50000000E-01
  8.50000000E-01  8.50000000E-01  8.50000000E-01  8.50000000E-01  8.50000000E-01
  8.50000000E-01  8.50000000E-01  8.50000000E-01  8.50000000E-01  8.50000000E-01
  8.50000000E-01  8.50000000E-01  8.50000000E-01  8.50000000E-01  8.50000000E-01
  8.50000000E-01  8.50000000E-01  8.50000000E-01  8.50000000E-01  8.50000000E-01
  8.50000000E-01  8.50000000E-01  8.50000000E-01  8.50000000E-01  8.50000000E-01
  8.50000000E-01  8.50000000E-01  8.50000000E-01  8.50000000E-01  8.50000000E-01
  8.50000000E-01  8.50000000E-01  8.50000000E-01  8.50000000E-01  8.50000000E-01
  8.50000000E-01  8.50000000E-01  8.50000000E-01  8.50000000E-01  8.50000000E-01
  8.50000000E-01  8.50000000E-01  8.50000000E-01  8.50000000E-01  8.50000000E-01
  8.50000000E-01  8.50000000E-01  8.50000000E-01  8.50000000E-01  8.50000000E-01
  8.50000000E-01  8.50000000E-01  8.50000000E-01  8.50000000E-01  8.50000000E-01
  8.50000000E-01  8.50000000E-01  8.50000000E-01  8.50000000E-01  8.50000000E-01
  8.50000000E-01  8.50000000E-01  8.50000000E-01  8.50000000E-01  8.50000000E-01
  8.50000000E-01  8.50000000E-01  8.50000000E-01  8.50000000E-01  8.50000000E-01
  8.50000000E-01  8.50000000E-01  8.50000000E-01  8.50000000E-01  8.50000000E-01
  8.50000000E-01  8.50000000E-01  8.50000000E-01  8.50000000E-01  8.50000000E-01
  8.50000000E-01  8.50000000E-01  8.50000000E-01  8.50000000E-01  8.50000000E-01
  8.50000000E-01  8.50000000E-01  8.50000000E-01  8.50000000E-01  8.50000000E-01
  8.50000000E-01  8.50000000E-01  8.50000000E-01  8.50000000E-01  8.50000000E-01
  8.50000000E-01  8.50000000E-01  8.50000000E-01  8.50000000E-01  8.50000000E-01
  8.50000000E-01  8.50000000E-01  8.50000000E-01  8.50000000E-01  8.50000000E-01
  8.50000000E-01  8.50000000E-01  8.50000000E-01  8.50000000E-01  8.50000000E-01
  8.50000000E-01  8.50000000E-01  8.50000000E-01  8.50000000E-01  8.50000000E-01
  8.50000000E-01  8.50000000E-01  8.50000000E-01  8.50000000E-01  8.50000000E-01
  8.50000000E-01  8.50000000E-01  8.50000000E-01  8.50000000E-01  8.50000000E-01
  8.50000000E-01  8.50000000E-01  8.50000000E-01  8.50000000E-01  8.50000000E-01
  8.50000000E-01  8.50000000E-01  8.50000000E-01  8.50000000E-01  8.50000000E-01
  8.50000000E-01  8.50000000E-01  8.50000000E-01  8.50000000E-01  8.50000000E-01
  8.50000000E-01  8.50000000E-01  8.50000000E-01  8.50000000E-01  8.50000000E-01
  8.50000000E-01  8.50000000E-01  8.50000000E-01  8.50000000E-01  8.50000000E-01
  8.50000000E-01  8.50000000E-01  8.50000000E-01  8.50000000E-01  8.50000000E-01
  8.50000000E-01  8.50000000E-01  8.50000000E-01  8.50000000E-01  8.50000000E-01
  8.50000000E-01  8.50000000E-01  8.50000000E-01  8.50000000E-01  8.50000000E-01
  8.50000000E-01  8.50000000E-01  8.50000000E-01  8.50000000E-01  8.50000000E-01
  8.50000000E-01  8.50000000E-01  8.50000000E-01  8.50000000E-01  8.50000000E-01
  8.50000000E-01  8.50000000E-01  8.50000000E-01  8.50000000E-01  8.50000000E-01
  8.50000000E-01  8.50000000E-01  8.50000000E-01  8.50000000E-01  8.50000000E-01
  8.50000000E-01  8.50000000E-01  8.50000000E-01  8.50000000E-01  8.50000000E-01
  8.50000000E-01  8.50000000E-01  8.50000000E-01  8.50000000E-01  8.50000000E-01
  8.50000000E-01  8.50000000E-01  8.50000000E-01  8.50000000E-01  8.50000000E-01
  8.50000000E-01  8.50000000E-01  8.50000000E-01  8.50000000E-01  8.50000000E-01
  8.50000000E-01  8.50000000E-01  8.50000000E-01  8.50000000E-01  8.50000000E-01
  8.50000000E-01  8.50000000E-01  8.50000000E-01  8.50000000E-01  8.50000000E-01
  8.50000000E-01  8.50000000E-01  8.50000000E-01  8.50000000E-01  8.50000000E-01
  8.50000000E-01  8.50000000E-01  8.50000000E-01  8.50000000E-01  8.50000000E-01
  8.50000000E-01  8.50000000E-01  8.50000000E-01  8.50000000E-01  8.50000000E-01
  8.50000000E-01  8.50000000E-01  8.50000000E-01  8.50000000E-01  8.50000000E-01
  8.50000000E-01  8.50000000E-01  8.50000000E-01  8.50000000E-01  8.50000000E-01
  8.50000000E-01  8.50000000E-01  8.50000000E-01  8.50000000E-01  8.50000000E-01
  8.50000000E-01  8.50000000E-01  8.50000000E-01  8.50000000E-01  8.50000000E-01
  8.50000000E-01  8.50000000E-01  8.50000000E-01  8.50000000E-01  8.50000000E-01
  8.50000000E-01  8.50000000E-01  8.50000000E-01  8.50000000E-01  8.50000000E-01
  8.50000000E-01  8.50000000E-01  8.50000000E-01  8.50000000E-01  8.50000000E-01
  8.50000000E-01  8.50000000E-01  8.50000000E-01  8.50000000E-01  8.50000000E-01
  8.50000000E-01  8.50000000E-01  8.50000000E-01  8.50000000E-01  8.50000000E-01
  8.50000000E-01  8.50000000E-01  8.50000000E-01  8.50000000E-01  8.50000000E-01
  8.50000000E-01  8.50000000E-01  8.50000000E-01  8.50000000E-01  8.50000000E-01
  8.50000000E-01  8.50000000E-01  8.50000000E-01  8.50000000E-01  8.50000000E-01
  8.50000000E-01  8.50000000E-01  8.50000000E-01  8.50000000E-01  8.50000000E-01
  8.50000000E-01  8.50000000E-01  8.50000000E-01  8.50000000E-01  8.50000000E-01
  8.50000000E-01  8.50000000E-01  8.50000000E-01  8.50000000E-01  8.50000000E-01
  8.50000000E-01  8.50000000E-01  8.50000000E-01  8.50000000E-01  8.50000000E-01
  8.50000000E-01  8.50000000E-01  8.50000000E-01  8.50000000E-01  8.50000000E-01
  8.50000000E-01  8.50000000E-01  8.50000000E-01  8.50000000E-01  8.50000000E-01
  8.50000000E-01  8.50000000E-01  8.50000000E-01  8.50000000E-01  8.50000000E-01
  8.50000000E-01  8.50000000E-01  8.50000000E-01  8.50000000E-01  8.50000000E-01
  8.50000000E-01  8.50000000E-01  8.50000000E-01  8.50000000E-01  8.50000000E-01
  8.50000000E-01  8.50000000E-01  8.50000000E-01  8.50000000E-01  8.50000000E-01
  8.50000000E-01  8.50000000E-01  8.50000000E-01  8.50000000E-01  8.50000000E-01
  8.50000000E-01  8.50000000E-01  8.50000000E-01  8.50000000E-01  8.50000000E-01
  8.50000000E-01  8.50000000E-01  8.50000000E-01  8.50000000E-01  8.50000000E-01
  8.50000000E-01  8.50000000E-01  8.50000000E-01  8.50000000E-01  8.50000000E-01
  8.50000000E-01  8.50000000E-01  8.50000000E-01  8.50000000E-01  8.50000000E-01
  8.50000000E-01  8.50000000E-01  8.50000000E-01  8.50000000E-01  8.50000000E-01
  8.50000000E-01  8.50000000E-01  8.50000000E-01  8.50000000E-01  8.50000000E-01
  8.50000000E-01  8.50000000E-01  8.50000000E-01  8.50000000E-01  8.50000000E-01
  8.50000000E-01  8.50000000E-01  8.50000000E-01  8.50000000E-01  8.50000000E-01
  8.50000000E-01  8.50000000E-01  8.50000000E-01  8.50000000E-01  8.50000000E-01
  8.50000000E-01  8.50000000E-01  8.50000000E-01  8.50000000E-01  8.50000000E-01
  8.50000000E-01  8.50000000E-01  8.50000000E-01  8.50000000E-01  8.50000000E-01
  8.50000000E-01  8.50000000E-01  8.50000000E-01  8.50000000E-01  8.50000000E-01
  8.50000000E-01  8.50000000E-01  8.50000000E-01  8.50000000E-01  8.50000000E-01
  8.50000000E-01  8.50000000E-01  8.50000000E-01  8.50000000E-01  8.50000000E-01
  8.50000000E-01  8.50000000E-01  8.50000000E-01  8.50000000E-01  8.50000000E-01
  8.50000000E-01  8.50000000E-01  8.50000000E-01  8.50000000E-01  8.50000000E-01
  8.50000000E-01  8.50000000E-01  8.50000000E-01  8.50000000E-01  8.50000000E-01
  8.50000000E-01  8.50000000E-01  8.50000000E-01  8.50000000E-01  8.50000000E-01
  8.50000000E-01  8.50000000E-01  8.50000000E-01  8.50000000E-01  8.50000000E-01
  8.50000000E-01  8.50000000E-01  8.50000000E-01  8.50000000E-01  8.50000000E-01
  8.50000000E-01  8.50000000E-01  8.50000000E-01  8.50000000E-01  8.50000000E-01
  8.50000000E-01  8.50000000E-01  8.50000000E-01  8.50000000E-01  8.50000000E-01
  8.50000000E-01  8.50000000E-01  8.50000000E-01  8.50000000E-01  8.50000000E-01
  8.50000000E-01  8.50000000E-01  8.50000000E-01  8.50000000E-01  8.50000000E-01
  8.50000000E-01  8.50000000E-01  8.50000000E-01  8.50000000E-01  8.50000000E-01
  8.50000000E-01  8.50000000E-01  8.50000000E-01  8.50000000E-01  8.50000000E-01
  8.50000000E-01  8.50000000E-01  8.50000000E-01  8.50000000E-01  8.50000000E-01
  8.50000000E-01  8.50000000E-01  8.50000000E-01  8.50000000E-01  8.50000000E-01
  8.50000000E-01  8.50000000E-01  8.50000000E-01  8.50000000E-01  8.50000000E-01
  8.50000000E-01  8.50000000E-01  8.50000000E-01  8.50000000E-01  8.50000000E-01
  8.50000000E-01  8.50000000E-01  8.50000000E-01  8.50000000E-01  8.50000000E-01
  8.50000000E-01  8.50000000E-01  8.50000000E-01  8.50000000E-01  8.50000000E-01
  8.50000000E-01  8.50000000E-01  8.50000000E-01  8.50000000E-01  8.50000000E-01
  8.50000000E-01  8.50000000E-01  8.50000000E-01  8.50000000E-01  8.50000000E-01
  8.50000000E-01  8.50000000E-01  8.50000000E-01  8.50000000E-01  8.50000000E-01
  8.50000000E-01  8.50000000E-01  8.50000000E-01  8.50000000E-01  8.50000000E-01
  8.50000000E-01  8.50000000E-01  8.50000000E-01  8.50000000E-01  8.50000000E-01
  8.50000000E-01  8.50000000E-01  8.50000000E-01  8.50000000E-01  8.50000000E-01
  8.50000000E-01  8.50000000E-01  8.50000000E-01  8.50000000E-01  8.50000000E-01
  8.50000000E-01  8.50000000E-01  8.50000000E-01  8.50000000E-01  8.50000000E-01
  8.50000000E-01  8.50000000E-01  8.50000000E-01  8.50000000E-01  8.50000000E-01
  8.50000000E-01  8.50000000E-01  8.50000000E-01  8.50000000E-01  8.50000000E-01
  8.50000000E-01  8.50000000E-01  8.50000000E-01  8.50000000E-01  8.50000000E-01
  8.50000000E-01  8.50000000E-01  8.50000000E-01  8.50000000E-01  8.50000000E-01
  8.50000000E-01  8.50000000E-01  8.50000000E-01  8.50000000E-01  8.50000000E-01
  8.50000000E-01  8.50000000E-01  8.50000000E-01  8.50000000E-01  8.50000000E-01
  8.50000000E-01  8.50000000E-01  8.50000000E-01  8.50000000E-01  8.50000000E-01
  8.50000000E-01  8.50000000E-01  8.50000000E-01  8.50000000E-01  8.50000000E-01
  8.50000000E-01  8.50000000E-01  8.50000000E-01  8.50000000E-01  8.50000000E-01
  8.50000000E-01  8.50000000E-01  8.50000000E-01  8.50000000E-01  8.50000000E-01
  8.50000000E-01  8.50000000E-01  8.50000000E-01  8.50000000E-01  8.50000000E-01
  8.50000000E-01  8.50000000E-01  8.50000000E-01  8.50000000E-01  8.50000000E-01
  8.50000000E-01  8.50000000E-01  8.50000000E-01  8.50000000E-01  8.50000000E-01
  8.50000000E-01  8.50000000E-01  8.50000000E-01  8.50000000E-01  8.50000000E-01
  8.50000000E-01  8.50000000E-01  8.50000000E-01  8.50000000E-01  8.50000000E-01
  8.50000000E-01  8.50000000E-01  8.50000000E-01  8.50000000E-01  8.50000000E-01
  8.50000000E-01  8.50000000E-01  8.50000000E-01  8.50000000E-01  8.50000000E-01
  8.50000000E-01  8.50000000E-01  8.50000000E-01  8.50000000E-01  8.50000000E-01
  8.50000000E-01  8.50000000E-01  8.50000000E-01  8.50000000E-01  8.50000000E-01
  8.50000000E-01  8.50000000E-01  8.50000000E-01  8.50000000E-01  8.50000000E-01
  8.50000000E-01  8.50000000E-01  8.50000000E-01  8.50000000E-01  8.50000000E-01
  8.50000000E-01  8.50000000E-01  8.50000000E-01  8.50000000E-01  8.50000000E-01
  8.50000000E-01  8.50000000E-01  8.50000000E-01  8.50000000E-01  8.50000000E-01
  8.50000000E-01  8.50000000E-01  8.50000000E-01  8.50000000E-01  8.50000000E-01
  8.50000000E-01  8.50000000E-01  8.50000000E-01  8.50000000E-01  8.50000000E-01
  8.50000000E-01  8.50000000E-01  8.50000000E-01  8.50000000E-01  8.50000000E-01
  8.50000000E-01  8.50000000E-01  8.50000000E-01  8.50000000E-01  8.50000000E-01
  8.50000000E-01  8.50000000E-01  8.50000000E-01  8.50000000E-01  8.50000000E-01
  8.50000000E-01  8.50000000E-01  8.50000000E-01  8.50000000E-01  8.50000000E-01
  8.50000000E-01  8.50000000E-01  8.50000000E-01  8.50000000E-01  8.50000000E-01
  8.50000000E-01  8.50000000E-01  8.50000000E-01  8.50000000E-01  8.50000000E-01
  8.50000000E-01  8.50000000E-01  8.50000000E-01  8.50000000E-01  8.50000000E-01
  8.50000000E-01  8.50000000E-01  8.50000000E-01  8.50000000E-01  8.50000000E-01
  8.50000000E-01  8.50000000E-01  8.50000000E-01  8.50000000E-01  8.50000000E-01
  8.50000000E-01  8.50000000E-01  8.50000000E-01  8.50000000E-01  8.50000000E-01
  8.50000000E-01  8.50000000E-01  8.50000000E-01  8.50000000E-01  8.50000000E-01
  8.50000000E-01  8.50000000E-01  8.50000000E-01  8.50000000E-01  8.50000000E-01
  8.50000000E-01  8.50000000E-01  8.50000000E-01  8.50000000E-01  8.50000000E-01
  8.50000000E-01  8.50000000E-01  8.50000000E-01  8.50000000E-01  8.50000000E-01
  8.50000000E-01  8.50000000E-01  8.50000000E-01  8.50000000E-01  8.50000000E-01
  8.50000000E-01  8.50000000E-01  8.50000000E-01  8.50000000E-01  8.50000000E-01
  8.50000000E-01  8.50000000E-01  8.50000000E-01  8.50000000E-01  8.50000000E-01
  8.50000000E-01  8.50000000E-01  8.50000000E-01  8.50000000E-01  8.50000000E-01
  8.50000000E-01  8.50000000E-01  8.50000000E-01  8.50000000E-01  8.50000000E-01
  8.50000000E-01  8.50000000E-01  8.50000000E-01  8.50000000E-01  8.50000000E-01
  8.50000000E-01  8.50000000E-01  8.50000000E-01  8.50000000E-01  8.50000000E-01
  8.50000000E-01  8.50000000E-01  8.50000000E-01  8.50000000E-01  8.50000000E-01
  8.50000000E-01  8.50000000E-01  8.50000000E-01  8.50000000E-01  8.50000000E-01
  8.50000000E-01  8.50000000E-01  8.50000000E-01  8.50000000E-01  8.50000000E-01
  8.50000000E-01  8.50000000E-01  8.50000000E-01  8.50000000E-01  8.50000000E-01
  8.50000000E-01  8.50000000E-01  8.50000000E-01  8.50000000E-01  8.50000000E-01
  8.50000000E-01  8.50000000E-01  8.50000000E-01  8.50000000E-01  8.50000000E-01
  8.50000000E-01  8.50000000E-01  8.50000000E-01  8.50000000E-01  8.50000000E-01
  8.50000000E-01  8.50000000E-01  8.50000000E-01  8.50000000E-01  8.50000000E-01
  8.50000000E-01  8.50000000E-01  8.50000000E-01  8.50000000E-01  8.50000000E-01
  8.50000000E-01  8.50000000E-01  8.50000000E-01  8.50000000E-01  8.50000000E-01
  8.50000000E-01  8.50000000E-01  8.50000000E-01  8.50000000E-01  8.50000000E-01
  8.50000000E-01  8.50000000E-01  8.50000000E-01  8.50000000E-01  8.50000000E-01
  8.50000000E-01  8.50000000E-01  8.50000000E-01  8.50000000E-01  8.50000000E-01
  8.50000000E-01  8.50000000E-01  8.50000000E-01  8.50000000E-01  8.50000000E-01
  8.50000000E-01  8.50000000E-01  8.50000000E-01  8.50000000E-01  8.50000000E-01
  8.50000000E-01  8.50000000E-01  8.50000000E-01  8.50000000E-01  8.50000000E-01
  8.50000000E-01  8.50000000E-01  8.50000000E-01  8.50000000E-01  8.50000000E-01
  8.50000000E-01  8.50000000E-01  8.50000000E-01  8.50000000E-01  8.50000000E-01
  8.50000000E-01  8.50000000E-01  8.50000000E-01  8.50000000E-01  8.50000000E-01
  8.50000000E-01  8.50000000E-01  8.50000000E-01  8.50000000E-01  8.50000000E-01
  8.50000000E-01  8.50000000E-01  8.50000000E-01  8.50000000E-01  8.50000000E-01
  8.50000000E-01  8.50000000E-01  8.50000000E-01  8.50000000E-01  8.50000000E-01
  8.50000000E-01  8.50000000E-01  8.50000000E-01  8.50000000E-01  8.50000000E-01
  8.50000000E-01  8.50000000E-01  8.50000000E-01  8.50000000E-01  8.50000000E-01
  8.50000000E-01  8.50000000E-01  8.50000000E-01  8.50000000E-01  8.50000000E-01
  8.50000000E-01  8.50000000E-01  8.50000000E-01  8.50000000E-01  8.50000000E-01
  8.50000000E-01  8.50000000E-01  8.50000000E-01  8.50000000E-01  8.50000000E-01
  8.50000000E-01  8.50000000E-01  8.50000000E-01  8.50000000E-01  8.50000000E-01
  8.50000000E-01  8.50000000E-01  8.50000000E-01  8.50000000E-01  8.50000000E-01
  8.50000000E-01  8.50000000E-01  8.50000000E-01  8.50000000E-01  8.50000000E-01
  8.50000000E-01  8.50000000E-01  8.50000000E-01  8.50000000E-01  8.50000000E-01
  8.50000000E-01  8.50000000E-01  8.50000000E-01  8.50000000E-01  8.50000000E-01
  8.50000000E-01  8.50000000E-01  8.50000000E-01  8.50000000E-01  8.50000000E-01
  8.50000000E-01  8.50000000E-01  8.50000000E-01  8.50000000E-01  8.50000000E-01
  8.50000000E-01  8.50000000E-01  8.50000000E-01  8.50000000E-01  8.50000000E-01
  8.50000000E-01  8.50000000E-01  8.50000000E-01  8.50000000E-01  8.50000000E-01
  8.50000000E-01  8.50000000E-01  8.50000000E-01  8.50000000E-01  8.50000000E-01
  8.50000000E-01  8.50000000E-01  8.50000000E-01  8.50000000E-01  8.50000000E-01
  8.50000000E-01  8.50000000E-01  8.50000000E-01  8.50000000E-01  8.50000000E-01
  8.50000000E-01  8.50000000E-01  8.50000000E-01  8.50000000E-01  8.50000000E-01
  8.50000000E-01  8.50000000E-01  8.50000000E-01  8.50000000E-01  8.50000000E-01
  8.50000000E-01  8.50000000E-01  8.50000000E-01  8.50000000E-01  8.50000000E-01
  8.50000000E-01  8.50000000E-01  8.50000000E-01  8.50000000E-01  8.50000000E-01
  8.50000000E-01  8.50000000E-01  8.50000000E-01  8.50000000E-01  8.50000000E-01
  8.50000000E-01  8.50000000E-01  8.50000000E-01  8.50000000E-01  8.50000000E-01
  8.50000000E-01  8.50000000E-01  8.50000000E-01  8.50000000E-01  8.50000000E-01
  8.50000000E-01  8.50000000E-01  8.50000000E-01  8.50000000E-01  8.50000000E-01
  8.50000000E-01  8.50000000E-01  8.50000000E-01  8.50000000E-01  8.50000000E-01
  8.50000000E-01  8.50000000E-01  8.50000000E-01  8.50000000E-01  8.50000000E-01
  8.50000000E-01  8.50000000E-01  8.50000000E-01  8.50000000E-01  8.50000000E-01
  8.50000000E-01  8.50000000E-01  8.50000000E-01  8.50000000E-01  8.50000000E-01
  8.50000000E-01  8.50000000E-01  8.50000000E-01  8.50000000E-01  8.50000000E-01
  8.50000000E-01  8.50000000E-01  8.50000000E-01  8.50000000E-01  8.50000000E-01
  8.50000000E-01  8.50000000E-01  8.50000000E-01  8.50000000E-01  8.50000000E-01
  8.50000000E-01  8.50000000E-01  8.50000000E-01  8.50000000E-01  8.50000000E-01
  8.50000000E-01  8.50000000E-01  8.50000000E-01  8.50000000E-01  8.50000000E-01
  8.50000000E-01  8.50000000E-01  8.50000000E-01  8.50000000E-01  8.50000000E-01
  8.50000000E-01  8.50000000E-01  8.50000000E-01  8.50000000E-01  8.50000000E-01
  8.50000000E-01  8.50000000E-01  8.50000000E-01  8.50000000E-01  8.50000000E-01
  8.50000000E-01  8.50000000E-01  8.50000000E-01  8.50000000E-01  8.50000000E-01
  8.50000000E-01  8.50000000E-01  8.50000000E-01  8.50000000E-01  8.50000000E-01
  8.50000000E-01  8.50000000E-01  8.50000000E-01  8.50000000E-01  8.50000000E-01
  8.50000000E-01  8.50000000E-01  8.50000000E-01  8.50000000E-01  8.50000000E-01
  8.50000000E-01  8.50000000E-01  8.50000000E-01  8.50000000E-01  8.50000000E-01
  8.50000000E-01  8.50000000E-01  8.50000000E-01  8.50000000E-01  8.50000000E-01
  8.50000000E-01  8.50000000E-01  8.50000000E-01  8.50000000E-01  8.50000000E-01
  8.50000000E-01  8.50000000E-01  8.50000000E-01  8.50000000E-01  8.50000000E-01
  8.50000000E-01  8.50000000E-01  8.50000000E-01  8.50000000E-01  8.50000000E-01
  8.50000000E-01  8.50000000E-01  8.50000000E-01  8.50000000E-01  8.50000000E-01
  8.50000000E-01  8.50000000E-01  8.50000000E-01  8.50000000E-01  8.50000000E-01
  8.50000000E-01  8.50000000E-01  8.50000000E-01  8.50000000E-01  8.50000000E-01
  8.50000000E-01  8.50000000E-01  8.50000000E-01  8.50000000E-01  8.50000000E-01
  8.50000000E-01  8.50000000E-01  8.50000000E-01  8.50000000E-01  8.50000000E-01
  8.50000000E-01  8.50000000E-01  8.50000000E-01  8.50000000E-01  8.50000000E-01
  8.50000000E-01  8.50000000E-01  8.50000000E-01  8.50000000E-01  8.50000000E-01
  8.50000000E-01  8.50000000E-01  8.50000000E-01  8.50000000E-01  8.50000000E-01
  8.50000000E-01  8.50000000E-01  8.50000000E-01  8.50000000E-01  8.50000000E-01
  8.50000000E-01  8.50000000E-01  8.50000000E-01  8.50000000E-01  8.50000000E-01
  8.50000000E-01  8.50000000E-01  8.50000000E-01  8.50000000E-01  8.50000000E-01
  8.50000000E-01  8.50000000E-01  8.50000000E-01  8.50000000E-01  8.50000000E-01
  8.50000000E-01  8.50000000E-01  8.50000000E-01  8.50000000E-01  8.50000000E-01
  8.50000000E-01  8.50000000E-01  8.50000000E-01  8.50000000E-01  8.50000000E-01
  8.50000000E-01  8.50000000E-01  8.50000000E-01  8.50000000E-01  8.50000000E-01
  8.50000000E-01  8.50000000E-01  8.50000000E-01  8.50000000E-01  8.50000000E-01
  8.50000000E-01  8.50000000E-01  8.50000000E-01  8.50000000E-01  8.50000000E-01
  8.50000000E-01  8.50000000E-01  8.50000000E-01  8.50000000E-01  8.50000000E-01
  8.50000000E-01  8.50000000E-01  8.50000000E-01  8.50000000E-01  8.50000000E-01
  8.50000000E-01  8.50000000E-01  8.50000000E-01  8.50000000E-01  8.50000000E-01
  8.50000000E-01  8.50000000E-01  8.50000000E-01  8.50000000E-01  8.50000000E-01
  8.50000000E-01  8.50000000E-01  8.50000000E-01  8.50000000E-01  8.50000000E-01
  8.50000000E-01  8.50000000E-01  8.50000000E-01  8.50000000E-01  8.50000000E-01
  8.50000000E-01  8.50000000E-01  8.50000000E-01  8.50000000E-01  8.50000000E-01
  8.50000000E-01  8.50000000E-01  8.50000000E-01  8.50000000E-01  8.50000000E-01
  8.50000000E-01  8.50000000E-01  8.50000000E-01  8.50000000E-01  8.50000000E-01
  8.50000000E-01  8.50000000E-01  8.50000000E-01  8.50000000E-01  8.50000000E-01
  8.50000000E-01  8.50000000E-01  8.50000000E-01  8.50000000E-01  8.50000000E-01
  8.50000000E-01  8.50000000E-01  8.50000000E-01  8.50000000E-01  8.50000000E-01
  8.50000000E-01  8.50000000E-01  8.50000000E-01  8.50000000E-01  8.50000000E-01
  8.50000000E-01  8.50000000E-01  8.50000000E-01  8.50000000E-01  8.50000000E-01
  8.50000000E-01  8.50000000E-01  8.50000000E-01  8.50000000E-01  8.50000000E-01
  8.50000000E-01  8.50000000E-01  8.50000000E-01  8.50000000E-01  8.50000000E-01
  8.50000000E-01  8.50000000E-01  8.50000000E-01  8.50000000E-01  8.50000000E-01
  8.50000000E-01  8.50000000E-01  8.50000000E-01  8.50000000E-01  8.50000000E-01
  8.50000000E-01  8.50000000E-01  8.50000000E-01  8.50000000E-01  8.50000000E-01
  8.50000000E-01  8.50000000E-01  8.50000000E-01  8.50000000E-01  8.50000000E-01
  8.50000000E-01  8.50000000E-01  8.50000000E-01  8.50000000E-01  8.50000000E-01
  8.50000000E-01  8.50000000E-01  8.50000000E-01  8.50000000E-01  8.50000000E-01
  8.50000000E-01  8.50000000E-01  8.50000000E-01  8.50000000E-01  8.50000000E-01
  8.50000000E-01  8.50000000E-01  8.50000000E-01  8.50000000E-01  8.50000000E-01
  8.50000000E-01  8.50000000E-01  8.50000000E-01  8.50000000E-01  8.50000000E-01
  8.50000000E-01  8.50000000E-01  8.50000000E-01  8.50000000E-01  8.50000000E-01
  8.50000000E-01  8.50000000E-01  8.50000000E-01  8.50000000E-01  8.50000000E-01
  8.50000000E-01  8.50000000E-01  8.50000000E-01  8.50000000E-01  8.50000000E-01
  8.50000000E-01  8.50000000E-01  8.50000000E-01  8.50000000E-01  8.50000000E-01
  8.50000000E-01  8.50000000E-01  8.50000000E-01  8.50000000E-01  8.50000000E-01
  8.50000000E-01  8.50000000E-01  8.50000000E-01  8.50000000E-01  8.50000000E-01
  8.50000000E-01  8.50000000E-01  8.50000000E-01  8.50000000E-01  8.50000000E-01
  8.50000000E-01  8.50000000E-01  8.50000000E-01  8.50000000E-01  8.50000000E-01
  8.50000000E-01  8.50000000E-01  8.50000000E-01  8.50000000E-01  8.50000000E-01
  8.50000000E-01  8.50000000E-01  8.50000000E-01  8.50000000E-01  8.50000000E-01
  8.50000000E-01  8.50000000E-01  8.50000000E-01  8.50000000E-01  8.50000000E-01
  8.50000000E-01  8.50000000E-01  8.50000000E-01  8.50000000E-01  8.50000000E-01
  8.50000000E-01  8.50000000E-01  8.50000000E-01  8.50000000E-01  8.50000000E-01
  8.50000000E-01  8.50000000E-01  8.50000000E-01  8.50000000E-01  8.50000000E-01
  8.50000000E-01  8.50000000E-01  8.50000000E-01  8.50000000E-01  8.50000000E-01
  8.50000000E-01  8.50000000E-01  8.50000000E-01  8.50000000E-01  8.50000000E-01
  8.50000000E-01  8.50000000E-01  8.50000000E-01  8.50000000E-01  8.50000000E-01
  8.50000000E-01  8.50000000E-01  8.50000000E-01  8.50000000E-01  8.50000000E-01
  8.50000000E-01  8.50000000E-01  8.50000000E-01  8.50000000E-01  8.50000000E-01
  8.50000000E-01  8.50000000E-01  8.50000000E-01  8.50000000E-01  8.50000000E-01
  8.50000000E-01  8.50000000E-01  8.50000000E-01  8.50000000E-01  8.50000000E-01
  8.50000000E-01  8.50000000E-01  8.50000000E-01  8.50000000E-01  8.50000000E-01
  8.50000000E-01  8.50000000E-01  8.50000000E-01  8.50000000E-01  8.50000000E-01
  8.50000000E-01  8.50000000E-01  8.50000000E-01  8.50000000E-01  8.50000000E-01
  8.50000000E-01  8.50000000E-01  8.50000000E-01  8.50000000E-01  8.50000000E-01
  8.50000000E-01  8.50000000E-01  8.50000000E-01  8.50000000E-01  8.50000000E-01
  8.50000000E-01  8.50000000E-01  8.50000000E-01  8.50000000E-01  8.50000000E-01
  8.50000000E-01  8.50000000E-01  8.50000000E-01  8.50000000E-01  8.50000000E-01
  8.50000000E-01  8.50000000E-01  8.50000000E-01  8.50000000E-01  8.50000000E-01
  8.50000000E-01  8.50000000E-01  8.50000000E-01  8.50000000E-01  8.50000000E-01
  8.50000000E-01  8.50000000E-01  8.50000000E-01  8.50000000E-01  8.50000000E-01
  8.50000000E-01  8.50000000E-01  8.50000000E-01  8.50000000E-01  8.50000000E-01
  8.50000000E-01  8.50000000E-01  8.50000000E-01  8.50000000E-01  8.50000000E-01
  8.50000000E-01  8.50000000E-01  8.50000000E-01  8.50000000E-01  8.50000000E-01
  8.50000000E-01  8.50000000E-01  8.50000000E-01  8.50000000E-01  8.50000000E-01
  8.50000000E-01  8.50000000E-01  8.50000000E-01  8.50000000E-01  8.50000000E-01
  8.50000000E-01  8.50000000E-01  8.50000000E-01  8.50000000E-01  8.50000000E-01
  8.50000000E-01  8.50000000E-01  8.50000000E-01  8.50000000E-01  8.50000000E-01
  8.50000000E-01  8.50000000E-01  8.50000000E-01  8.50000000E-01  8.50000000E-01
  8.50000000E-01  8.50000000E-01  8.50000000E-01  8.50000000E-01  8.50000000E-01
  8.50000000E-01  8.50000000E-01  8.50000000E-01  8.50000000E-01  8.50000000E-01
  8.50000000E-01  8.50000000E-01  8.50000000E-01  8.50000000E-01  8.50000000E-01
  8.50000000E-01  8.50000000E-01  8.50000000E-01  8.50000000E-01  8.50000000E-01
  8.50000000E-01  8.50000000E-01  8.50000000E-01  8.50000000E-01  8.50000000E-01
  8.50000000E-01  8.50000000E-01  8.50000000E-01  8.50000000E-01  8.50000000E-01
  8.50000000E-01  8.50000000E-01  8.50000000E-01  8.50000000E-01  8.50000000E-01
  8.50000000E-01  8.50000000E-01  8.50000000E-01  8.50000000E-01  8.50000000E-01
  8.50000000E-01  8.50000000E-01  8.50000000E-01  8.50000000E-01  8.50000000E-01
  8.50000000E-01  8.50000000E-01  8.50000000E-01  8.50000000E-01  8.50000000E-01
  8.50000000E-01  8.50000000E-01  8.50000000E-01  8.50000000E-01  8.50000000E-01
  8.50000000E-01  8.50000000E-01  8.50000000E-01  8.50000000E-01  8.50000000E-01
  8.50000000E-01  8.50000000E-01  8.50000000E-01  8.50000000E-01  8.50000000E-01
  8.50000000E-01  8.50000000E-01  8.50000000E-01  8.50000000E-01  8.50000000E-01
  8.50000000E-01  8.50000000E-01  8.50000000E-01  8.50000000E-01  8.50000000E-01
  8.50000000E-01  8.50000000E-01  8.50000000E-01  8.50000000E-01  8.50000000E-01
  8.50000000E-01  8.50000000E-01  8.50000000E-01  8.50000000E-01  8.50000000E-01
  8.50000000E-01  8.50000000E-01  8.50000000E-01  8.50000000E-01  8.50000000E-01
  8.50000000E-01  8.50000000E-01  8.50000000E-01  8.50000000E-01  8.50000000E-01
  8.50000000E-01  8.50000000E-01  8.50000000E-01  8.50000000E-01  8.50000000E-01
  8.50000000E-01  8.50000000E-01  8.50000000E-01  8.50000000E-01  8.50000000E-01
  8.50000000E-01  8.50000000E-01  8.50000000E-01  8.50000000E-01  8.50000000E-01
  8.50000000E-01  8.50000000E-01  8.50000000E-01  8.50000000E-01  8.50000000E-01
  8.50000000E-01  8.50000000E-01  8.50000000E-01  8.50000000E-01  8.50000000E-01
  8.50000000E-01  8.50000000E-01  8.50000000E-01  8.50000000E-01  8.50000000E-01
  8.50000000E-01  8.50000000E-01  8.50000000E-01  8.50000000E-01  8.50000000E-01
  8.50000000E-01  8.50000000E-01  8.50000000E-01  8.50000000E-01  8.50000000E-01
  8.50000000E-01  8.50000000E-01  8.50000000E-01  8.50000000E-01  8.50000000E-01
  8.50000000E-01  8.50000000E-01  8.50000000E-01  8.50000000E-01  8.50000000E-01
  8.50000000E-01  8.50000000E-01  8.50000000E-01  8.50000000E-01  8.50000000E-01
  8.50000000E-01  8.50000000E-01  8.50000000E-01  8.50000000E-01  8.50000000E-01
  8.50000000E-01  8.50000000E-01  8.50000000E-01  8.50000000E-01  8.50000000E-01
  8.50000000E-01  8.50000000E-01  8.50000000E-01  8.50000000E-01  8.50000000E-01
  8.50000000E-01  8.50000000E-01  8.50000000E-01  8.50000000E-01  8.50000000E-01
  8.50000000E-01  8.50000000E-01  8.50000000E-01  8.50000000E-01  8.50000000E-01
  8.50000000E-01  8.50000000E-01  8.50000000E-01  8.50000000E-01  8.50000000E-01
  8.50000000E-01  8.50000000E-01  8.50000000E-01  8.50000000E-01  8.50000000E-01
  8.50000000E-01  8.50000000E-01  8.50000000E-01  8.50000000E-01  8.50000000E-01
  8.50000000E-01  8.50000000E-01  8.50000000E-01  8.50000000E-01  8.50000000E-01
  8.50000000E-01  8.50000000E-01  8.50000000E-01  8.50000000E-01  8.50000000E-01
  8.50000000E-01  8.50000000E-01  8.50000000E-01  8.50000000E-01  8.50000000E-01
  8.50000000E-01  8.50000000E-01  8.50000000E-01  8.50000000E-01  8.50000000E-01
  8.50000000E-01  8.50000000E-01  8.50000000E-01  8.50000000E-01  8.50000000E-01
  8.50000000E-01  8.50000000E-01  8.50000000E-01  8.50000000E-01  8.50000000E-01
  8.50000000E-01  8.50000000E-01  8.50000000E-01  8.50000000E-01  8.50000000E-01
  8.50000000E-01  8.50000000E-01  8.50000000E-01  8.50000000E-01  8.50000000E-01
  8.50000000E-01  8.50000000E-01  8.50000000E-01  8.50000000E-01  8.50000000E-01
  8.50000000E-01  8.50000000E-01  8.50000000E-01  8.50000000E-01  8.50000000E-01
  8.50000000E-01  8.50000000E-01  8.50000000E-01  8.50000000E-01  8.50000000E-01
  8.50000000E-01  8.50000000E-01  8.50000000E-01  8.50000000E-01  8.50000000E-01
  8.50000000E-01  8.50000000E-01  8.50000000E-01  8.50000000E-01  8.50000000E-01
  8.50000000E-01  8.50000000E-01  8.50000000E-01  8.50000000E-01  8.50000000E-01
  8.50000000E-01  8.50000000E-01  8.50000000E-01  8.50000000E-01  8.50000000E-01
  8.50000000E-01  8.50000000E-01  8.50000000E-01  8.50000000E-01  8.50000000E-01
  8.50000000E-01  8.50000000E-01  8.50000000E-01  8.50000000E-01  8.50000000E-01
  8.50000000E-01  8.50000000E-01  8.50000000E-01  8.50000000E-01  8.50000000E-01
  8.50000000E-01  8.50000000E-01  8.50000000E-01  8.50000000E-01  8.50000000E-01
  8.50000000E-01  8.50000000E-01  8.50000000E-01  8.50000000E-01  8.50000000E-01
  8.50000000E-01  8.50000000E-01  8.50000000E-01  8.50000000E-01  8.50000000E-01
  8.50000000E-01  8.50000000E-01  8.50000000E-01  8.50000000E-01  8.50000000E-01
  8.50000000E-01  8.50000000E-01  8.50000000E-01  8.50000000E-01  8.50000000E-01
  8.50000000E-01  8.50000000E-01  8.50000000E-01  8.50000000E-01  8.50000000E-01
  8.50000000E-01  8.50000000E-01  8.50000000E-01  8.50000000E-01  8.50000000E-01
  8.50000000E-01  8.50000000E-01  8.50000000E-01  8.50000000E-01  8.50000000E-01
  8.50000000E-01  8.50000000E-01  8.50000000E-01  8.50000000E-01  8.50000000E-01
  8.50000000E-01  8.50000000E-01  8.50000000E-01  8.50000000E-01  8.50000000E-01
  8.50000000E-01  8.50000000E-01  8.50000000E-01  8.50000000E-01  8.50000000E-01
  8.50000000E-01  8.50000000E-01  8.50000000E-01  8.50000000E-01  8.50000000E-01
  8.50000000E-01  8.50000000E-01  8.50000000E-01  8.50000000E-01  8.50000000E-01
  8.50000000E-01  8.50000000E-01  8.50000000E-01  8.50000000E-01  8.50000000E-01
  8.50000000E-01  8.50000000E-01  8.50000000E-01  8.50000000E-01  8.50000000E-01
  8.50000000E-01  8.50000000E-01  8.50000000E-01  8.50000000E-01  8.50000000E-01
  8.50000000E-01  8.50000000E-01  8.50000000E-01  8.50000000E-01  8.50000000E-01
  8.50000000E-01  8.50000000E-01  8.50000000E-01  8.50000000E-01  8.50000000E-01
  8.50000000E-01  8.50000000E-01  8.50000000E-01  8.50000000E-01  8.50000000E-01
  8.50000000E-01  8.50000000E-01  8.50000000E-01  8.50000000E-01  8.50000000E-01
  8.50000000E-01  8.50000000E-01  8.50000000E-01  8.50000000E-01  8.50000000E-01
  8.50000000E-01  8.50000000E-01  8.50000000E-01  8.50000000E-01  8.50000000E-01
  8.50000000E-01  8.50000000E-01  8.50000000E-01  8.50000000E-01  8.50000000E-01
  8.50000000E-01  8.50000000E-01  8.50000000E-01  8.50000000E-01  8.50000000E-01
  8.50000000E-01  8.50000000E-01  8.50000000E-01  8.50000000E-01  8.50000000E-01
  8.50000000E-01  8.50000000E-01  8.50000000E-01  8.50000000E-01  8.50000000E-01
  8.50000000E-01  8.50000000E-01  8.50000000E-01  8.50000000E-01  8.50000000E-01
  8.50000000E-01  8.50000000E-01  8.50000000E-01  8.50000000E-01  8.50000000E-01
  8.50000000E-01  8.50000000E-01  8.50000000E-01  8.50000000E-01  8.50000000E-01
  8.50000000E-01  8.50000000E-01  8.50000000E-01  8.50000000E-01  8.50000000E-01
  8.50000000E-01  8.50000000E-01  8.50000000E-01  8.50000000E-01  8.50000000E-01
  8.50000000E-01  8.50000000E-01  8.50000000E-01  8.50000000E-01  8.50000000E-01
  8.50000000E-01  8.50000000E-01  8.50000000E-01  8.50000000E-01  8.50000000E-01
  8.50000000E-01  8.50000000E-01  8.50000000E-01  8.50000000E-01  8.50000000E-01
  8.50000000E-01  8.50000000E-01  8.50000000E-01  8.50000000E-01  8.50000000E-01
  8.50000000E-01  8.50000000E-01  8.50000000E-01  8.50000000E-01  8.50000000E-01
  8.50000000E-01  8.50000000E-01  8.50000000E-01  8.50000000E-01  8.50000000E-01
  8.50000000E-01  8.50000000E-01  8.50000000E-01  8.50000000E-01  8.50000000E-01
  8.50000000E-01  8.50000000E-01  8.50000000E-01  8.50000000E-01  8.50000000E-01
  8.50000000E-01  8.50000000E-01  8.50000000E-01  8.50000000E-01  8.50000000E-01
  8.50000000E-01  8.50000000E-01  8.50000000E-01  8.50000000E-01  8.50000000E-01
  8.50000000E-01  8.50000000E-01  8.50000000E-01  8.50000000E-01  8.50000000E-01
  8.50000000E-01  8.50000000E-01  8.50000000E-01  8.50000000E-01  8.50000000E-01
  8.50000000E-01  8.50000000E-01  8.50000000E-01  8.50000000E-01  8.50000000E-01
  8.50000000E-01  8.50000000E-01  8.50000000E-01  8.50000000E-01  8.50000000E-01
  8.50000000E-01  8.50000000E-01  8.50000000E-01  8.50000000E-01  8.50000000E-01
  8.50000000E-01  8.50000000E-01  8.50000000E-01  8.50000000E-01  8.50000000E-01
  8.50000000E-01  8.50000000E-01  8.50000000E-01  8.50000000E-01  8.50000000E-01
  8.50000000E-01  8.50000000E-01  8.50000000E-01  8.50000000E-01  8.50000000E-01
  8.50000000E-01  8.50000000E-01  8.50000000E-01  8.50000000E-01  8.50000000E-01
  8.50000000E-01  8.50000000E-01  8.50000000E-01  8.50000000E-01  8.50000000E-01
  8.50000000E-01  8.50000000E-01  8.50000000E-01  8.50000000E-01  8.50000000E-01
  8.50000000E-01  8.50000000E-01  8.50000000E-01  8.50000000E-01  8.50000000E-01
  8.50000000E-01  8.50000000E-01  8.50000000E-01  8.50000000E-01  8.50000000E-01
  8.50000000E-01  8.50000000E-01  8.50000000E-01  8.50000000E-01  8.50000000E-01
  8.50000000E-01  8.50000000E-01  8.50000000E-01  8.50000000E-01  8.50000000E-01
  8.50000000E-01  8.50000000E-01  8.50000000E-01  8.50000000E-01  8.50000000E-01
  8.50000000E-01  8.50000000E-01  8.50000000E-01  8.50000000E-01  8.50000000E-01
  8.50000000E-01  8.50000000E-01  8.50000000E-01  8.50000000E-01  8.50000000E-01
  8.50000000E-01  8.50000000E-01  8.50000000E-01  8.50000000E-01  8.50000000E-01
  8.50000000E-01  8.50000000E-01  8.50000000E-01  8.50000000E-01  8.50000000E-01
  8.50000000E-01  8.50000000E-01  8.50000000E-01  8.50000000E-01  8.50000000E-01
  8.50000000E-01  8.50000000E-01  8.50000000E-01  8.50000000E-01  8.50000000E-01
  8.50000000E-01  8.50000000E-01  8.50000000E-01  8.50000000E-01  8.50000000E-01
  8.50000000E-01  8.50000000E-01  8.50000000E-01  8.50000000E-01  8.50000000E-01
  8.50000000E-01  8.50000000E-01  8.50000000E-01  8.50000000E-01  8.50000000E-01
  8.50000000E-01  8.50000000E-01  8.50000000E-01  8.50000000E-01  8.50000000E-01
  8.50000000E-01  8.50000000E-01  8.50000000E-01  8.50000000E-01  8.50000000E-01
  8.50000000E-01  8.50000000E-01  8.50000000E-01  8.50000000E-01  8.50000000E-01
  8.50000000E-01  8.50000000E-01  8.50000000E-01  8.50000000E-01  8.50000000E-01
  8.50000000E-01  8.50000000E-01  8.50000000E-01  8.50000000E-01  8.50000000E-01
  8.50000000E-01  8.50000000E-01  8.50000000E-01  8.50000000E-01  8.50000000E-01
  8.50000000E-01  8.50000000E-01  8.50000000E-01  8.50000000E-01  8.50000000E-01
  8.50000000E-01  8.50000000E-01  8.50000000E-01  8.50000000E-01  8.50000000E-01
  8.50000000E-01  8.50000000E-01  8.50000000E-01  8.50000000E-01  8.50000000E-01
  8.50000000E-01  8.50000000E-01  8.50000000E-01  8.50000000E-01  8.50000000E-01
  8.50000000E-01  8.50000000E-01  8.50000000E-01  8.50000000E-01  8.50000000E-01
  8.50000000E-01  8.50000000E-01  8.50000000E-01  8.50000000E-01  8.50000000E-01
  8.50000000E-01  8.50000000E-01  8.50000000E-01  8.50000000E-01  8.50000000E-01
  8.50000000E-01  8.50000000E-01  8.50000000E-01  8.50000000E-01  8.50000000E-01
  8.50000000E-01  8.50000000E-01  8.50000000E-01  8.50000000E-01  8.50000000E-01
  8.50000000E-01  8.50000000E-01  8.50000000E-01  8.50000000E-01  8.50000000E-01
  8.50000000E-01  8.50000000E-01  8.50000000E-01  8.50000000E-01  8.50000000E-01
  8.50000000E-01  8.50000000E-01  8.50000000E-01  8.50000000E-01  8.50000000E-01
  8.50000000E-01  8.50000000E-01  8.50000000E-01  8.50000000E-01  8.50000000E-01
  8.50000000E-01  8.50000000E-01  8.50000000E-01  8.50000000E-01  8.50000000E-01
  8.50000000E-01  8.50000000E-01  8.50000000E-01  8.50000000E-01  8.50000000E-01
  8.50000000E-01  8.50000000E-01  8.50000000E-01  8.50000000E-01  8.50000000E-01
  8.50000000E-01  8.50000000E-01  8.50000000E-01  8.50000000E-01  8.50000000E-01
  8.50000000E-01  8.50000000E-01  8.50000000E-01  8.50000000E-01  8.50000000E-01
  8.50000000E-01  8.50000000E-01  8.50000000E-01  8.50000000E-01  8.50000000E-01
  8.50000000E-01  8.50000000E-01  8.50000000E-01  8.50000000E-01  8.50000000E-01
  8.50000000E-01  8.50000000E-01  8.50000000E-01  8.50000000E-01  8.50000000E-01
  8.50000000E-01  8.50000000E-01  8.50000000E-01  8.50000000E-01  8.50000000E-01
  8.50000000E-01  8.50000000E-01  8.50000000E-01  8.50000000E-01  8.50000000E-01
  8.50000000E-01  8.50000000E-01  8.50000000E-01  8.50000000E-01  8.50000000E-01
  8.50000000E-01  8.50000000E-01  8.50000000E-01  8.50000000E-01  8.50000000E-01
  8.50000000E-01  8.50000000E-01  8.50000000E-01  8.50000000E-01  8.50000000E-01
  8.50000000E-01  8.50000000E-01  8.50000000E-01  8.50000000E-01  8.50000000E-01
  8.50000000E-01  8.50000000E-01  8.50000000E-01  8.50000000E-01  8.50000000E-01
  8.50000000E-01  8.50000000E-01  8.50000000E-01  8.50000000E-01  8.50000000E-01
  8.50000000E-01  8.50000000E-01  8.50000000E-01  8.50000000E-01  8.50000000E-01
  8.50000000E-01  8.50000000E-01  8.50000000E-01  8.50000000E-01  8.50000000E-01
  8.50000000E-01  8.50000000E-01  8.50000000E-01  8.50000000E-01  8.50000000E-01
  8.50000000E-01  8.50000000E-01  8.50000000E-01  8.50000000E-01  8.50000000E-01
  8.50000000E-01  8.50000000E-01  8.50000000E-01  8.50000000E-01  8.50000000E-01
  8.50000000E-01  8.50000000E-01  8.50000000E-01  8.50000000E-01  8.50000000E-01
  8.50000000E-01  8.50000000E-01  8.50000000E-01  8.50000000E-01  8.50000000E-01
  8.50000000E-01  8.50000000E-01  8.50000000E-01  8.50000000E-01  8.50000000E-01
  8.50000000E-01  8.50000000E-01  8.50000000E-01  8.50000000E-01  8.50000000E-01
  8.50000000E-01  8.50000000E-01  8.50000000E-01  8.50000000E-01  8.50000000E-01
  8.50000000E-01  8.50000000E-01  8.50000000E-01  8.50000000E-01  8.50000000E-01
  8.50000000E-01  8.50000000E-01  8.50000000E-01  8.50000000E-01  8.50000000E-01
  8.50000000E-01  8.50000000E-01  8.50000000E-01  8.50000000E-01  8.50000000E-01
  8.50000000E-01  8.50000000E-01  8.50000000E-01  8.50000000E-01  8.50000000E-01
  8.50000000E-01  8.50000000E-01  8.50000000E-01  8.50000000E-01  8.50000000E-01
  8.50000000E-01  8.50000000E-01  8.50000000E-01  8.50000000E-01  8.50000000E-01
  8.50000000E-01  8.50000000E-01  8.50000000E-01  8.50000000E-01  8.50000000E-01
  8.50000000E-01  8.50000000E-01  8.50000000E-01  8.50000000E-01  8.50000000E-01
  8.50000000E-01  8.50000000E-01  8.50000000E-01  8.50000000E-01  8.50000000E-01
  8.50000000E-01  8.50000000E-01  8.50000000E-01  8.50000000E-01  8.50000000E-01
  8.50000000E-01  8.50000000E-01  8.50000000E-01  8.50000000E-01  8.50000000E-01
  8.50000000E-01  8.50000000E-01  8.50000000E-01  8.50000000E-01  8.50000000E-01
  8.50000000E-01  8.50000000E-01  8.50000000E-01  8.50000000E-01  8.50000000E-01
  8.50000000E-01  8.50000000E-01  8.50000000E-01  8.50000000E-01  8.50000000E-01
  8.50000000E-01  8.50000000E-01  8.50000000E-01  8.50000000E-01  8.50000000E-01
  8.50000000E-01  8.50000000E-01  8.50000000E-01  8.50000000E-01  8.50000000E-01
  8.50000000E-01  8.50000000E-01  8.50000000E-01  8.50000000E-01  8.50000000E-01
  8.50000000E-01  8.50000000E-01  8.50000000E-01  8.50000000E-01  8.50000000E-01
  8.50000000E-01  8.50000000E-01  8.50000000E-01  8.50000000E-01  8.50000000E-01
  8.50000000E-01  8.50000000E-01  8.50000000E-01  8.50000000E-01  8.50000000E-01
  8.50000000E-01  8.50000000E-01  8.50000000E-01  8.50000000E-01  8.50000000E-01
  8.50000000E-01  8.50000000E-01  8.50000000E-01  8.50000000E-01  8.50000000E-01
  8.50000000E-01  8.50000000E-01  8.50000000E-01  8.50000000E-01  8.50000000E-01
  8.50000000E-01  8.50000000E-01  8.50000000E-01  8.50000000E-01  8.50000000E-01
  8.50000000E-01  8.50000000E-01  8.50000000E-01  8.50000000E-01  8.50000000E-01
  8.50000000E-01  8.50000000E-01  8.50000000E-01  8.50000000E-01  8.50000000E-01
  8.50000000E-01  8.50000000E-01  8.50000000E-01  8.50000000E-01  8.50000000E-01
  8.50000000E-01  8.50000000E-01  8.50000000E-01  8.50000000E-01  8.50000000E-01
  8.50000000E-01  8.50000000E-01  8.50000000E-01  8.50000000E-01  8.50000000E-01
  8.50000000E-01  8.50000000E-01  8.50000000E-01  8.50000000E-01  8.50000000E-01
  8.50000000E-01  8.50000000E-01  8.50000000E-01  8.50000000E-01  8.50000000E-01
  8.50000000E-01  8.50000000E-01  8.50000000E-01  8.50000000E-01  8.50000000E-01
  8.50000000E-01  8.50000000E-01  8.50000000E-01  8.50000000E-01  8.50000000E-01
  8.50000000E-01  8.50000000E-01  8.50000000E-01  8.50000000E-01  8.50000000E-01
  8.50000000E-01  8.50000000E-01  8.50000000E-01  8.50000000E-01  8.50000000E-01
  8.50000000E-01  8.50000000E-01  8.50000000E-01  8.50000000E-01  8.50000000E-01
  8.50000000E-01  8.50000000E-01  8.50000000E-01  8.50000000E-01  8.50000000E-01
  8.50000000E-01  8.50000000E-01  8.50000000E-01  8.50000000E-01  8.50000000E-01
  8.50000000E-01  8.50000000E-01  8.50000000E-01  8.50000000E-01  8.50000000E-01
  8.50000000E-01  8.50000000E-01  8.50000000E-01  8.50000000E-01  8.50000000E-01
  8.50000000E-01  8.50000000E-01  8.50000000E-01  8.50000000E-01  8.50000000E-01
  8.50000000E-01  8.50000000E-01  8.50000000E-01  8.50000000E-01  8.50000000E-01
  8.50000000E-01  8.50000000E-01  8.50000000E-01  8.50000000E-01  8.50000000E-01
  8.50000000E-01  8.50000000E-01  8.50000000E-01  8.50000000E-01  8.50000000E-01
  8.50000000E-01  8.50000000E-01  8.50000000E-01  8.50000000E-01  8.50000000E-01
  8.50000000E-01  8.50000000E-01  8.50000000E-01  8.50000000E-01  8.50000000E-01
  8.50000000E-01  8.50000000E-01  8.50000000E-01  8.50000000E-01  8.50000000E-01
  8.50000000E-01  8.50000000E-01  8.50000000E-01  8.50000000E-01  8.50000000E-01
  8.50000000E-01  8.50000000E-01  8.50000000E-01  8.50000000E-01  8.50000000E-01
  8.50000000E-01  8.50000000E-01  8.50000000E-01  8.50000000E-01  8.50000000E-01
  8.50000000E-01  8.50000000E-01  8.50000000E-01  8.50000000E-01  8.50000000E-01
  8.50000000E-01  8.50000000E-01  8.50000000E-01  8.50000000E-01  8.50000000E-01
  8.50000000E-01  8.50000000E-01  8.50000000E-01  8.50000000E-01  8.50000000E-01
  8.50000000E-01  8.50000000E-01  8.50000000E-01  8.50000000E-01  8.50000000E-01
  8.50000000E-01  8.50000000E-01  8.50000000E-01  8.50000000E-01  8.50000000E-01
  8.50000000E-01  8.50000000E-01  8.50000000E-01  8.50000000E-01  8.50000000E-01
  8.50000000E-01  8.50000000E-01  8.50000000E-01  8.50000000E-01  8.50000000E-01
  8.50000000E-01  8.50000000E-01  8.50000000E-01  8.50000000E-01  8.50000000E-01
  8.50000000E-01  8.50000000E-01  8.50000000E-01  8.50000000E-01  8.50000000E-01
  8.50000000E-01  8.50000000E-01  8.50000000E-01  8.50000000E-01  8.50000000E-01
  8.50000000E-01  8.50000000E-01  8.50000000E-01  8.50000000E-01  8.50000000E-01
  8.50000000E-01  8.50000000E-01  8.50000000E-01  8.50000000E-01  8.50000000E-01
  8.50000000E-01  8.50000000E-01  8.50000000E-01  8.50000000E-01  8.50000000E-01
  8.50000000E-01  8.50000000E-01  8.50000000E-01  8.50000000E-01  8.50000000E-01
  8.50000000E-01  8.50000000E-01  8.50000000E-01  8.50000000E-01  8.50000000E-01
  8.50000000E-01  8.50000000E-01  8.50000000E-01  8.50000000E-01  8.50000000E-01
  8.50000000E-01  8.50000000E-01  8.50000000E-01  8.50000000E-01  8.50000000E-01
  8.50000000E-01  8.50000000E-01  8.50000000E-01  8.50000000E-01  8.50000000E-01
  8.50000000E-01  8.50000000E-01  8.50000000E-01  8.50000000E-01  8.50000000E-01
  8.50000000E-01  8.50000000E-01  8.50000000E-01  8.50000000E-01  8.50000000E-01
  8.50000000E-01  8.50000000E-01  8.50000000E-01  8.50000000E-01  8.50000000E-01
  8.50000000E-01  8.50000000E-01  8.50000000E-01  8.50000000E-01  8.50000000E-01
  8.50000000E-01  8.50000000E-01  8.50000000E-01  8.50000000E-01  8.50000000E-01
  8.50000000E-01  8.50000000E-01  8.50000000E-01  8.50000000E-01  8.50000000E-01
  8.50000000E-01  8.50000000E-01  8.50000000E-01  8.50000000E-01  8.50000000E-01
  8.50000000E-01  8.50000000E-01  8.50000000E-01  8.50000000E-01  8.50000000E-01
  8.50000000E-01  8.50000000E-01  8.50000000E-01  8.50000000E-01  8.50000000E-01
  8.50000000E-01  8.50000000E-01  8.50000000E-01  8.50000000E-01  8.50000000E-01
  8.50000000E-01  8.50000000E-01  8.50000000E-01  8.50000000E-01  8.50000000E-01
  8.50000000E-01  8.50000000E-01  8.50000000E-01  8.50000000E-01  8.50000000E-01
  8.50000000E-01  8.50000000E-01  8.50000000E-01  8.50000000E-01  8.50000000E-01
  8.50000000E-01  8.50000000E-01  8.50000000E-01  8.50000000E-01  8.50000000E-01
  8.50000000E-01  8.50000000E-01  8.50000000E-01  8.50000000E-01  8.50000000E-01
  8.50000000E-01  8.50000000E-01  8.50000000E-01  8.50000000E-01  8.50000000E-01
  8.50000000E-01  8.50000000E-01  8.50000000E-01  8.50000000E-01  8.50000000E-01
  8.50000000E-01  8.50000000E-01  8.50000000E-01  8.50000000E-01  8.50000000E-01
  8.50000000E-01  8.50000000E-01  8.50000000E-01  8.50000000E-01  8.50000000E-01
  8.50000000E-01  8.50000000E-01  8.50000000E-01  8.50000000E-01  8.50000000E-01
  8.50000000E-01  8.50000000E-01  8.50000000E-01  8.50000000E-01  8.50000000E-01
  8.50000000E-01  8.50000000E-01  8.50000000E-01  8.50000000E-01  8.50000000E-01
  8.50000000E-01  8.50000000E-01  8.50000000E-01  8.50000000E-01  8.50000000E-01
  8.50000000E-01  8.50000000E-01  8.50000000E-01  8.50000000E-01  8.50000000E-01
  8.50000000E-01  8.50000000E-01  8.50000000E-01  8.50000000E-01  8.50000000E-01
  8.50000000E-01  8.50000000E-01  8.50000000E-01  8.50000000E-01  8.50000000E-01
  8.50000000E-01  8.50000000E-01  8.50000000E-01  8.50000000E-01  8.50000000E-01
  8.50000000E-01  8.50000000E-01  8.50000000E-01  8.50000000E-01  8.50000000E-01
  8.50000000E-01  8.50000000E-01  8.50000000E-01  8.50000000E-01  8.50000000E-01
  8.50000000E-01  8.50000000E-01  8.50000000E-01  8.50000000E-01  8.50000000E-01
  8.50000000E-01  8.50000000E-01  8.50000000E-01  8.50000000E-01  8.50000000E-01
  8.50000000E-01  8.50000000E-01  8.50000000E-01  8.50000000E-01  8.50000000E-01
  8.50000000E-01  8.50000000E-01  8.50000000E-01  8.50000000E-01  8.50000000E-01
  8.50000000E-01  8.50000000E-01  8.50000000E-01  8.50000000E-01  8.50000000E-01
  8.50000000E-01  8.50000000E-01  8.50000000E-01  8.50000000E-01  8.50000000E-01
  8.50000000E-01  8.50000000E-01  8.50000000E-01  8.50000000E-01  8.50000000E-01
  8.50000000E-01  8.50000000E-01  8.50000000E-01  8.50000000E-01  8.50000000E-01
  8.50000000E-01  8.50000000E-01  8.50000000E-01  8.50000000E-01  8.50000000E-01
  8.50000000E-01  8.50000000E-01  8.50000000E-01  8.50000000E-01  8.50000000E-01
  8.50000000E-01  8.50000000E-01  8.50000000E-01  8.50000000E-01  8.50000000E-01
  8.50000000E-01  8.50000000E-01  8.50000000E-01  8.50000000E-01  8.50000000E-01
  8.50000000E-01  8.50000000E-01  8.50000000E-01  8.50000000E-01  8.50000000E-01
  8.50000000E-01  8.50000000E-01  8.50000000E-01  8.50000000E-01  8.50000000E-01
  8.50000000E-01  8.50000000E-01  8.50000000E-01  8.50000000E-01  8.50000000E-01
  8.50000000E-01  8.50000000E-01  8.50000000E-01  8.50000000E-01  8.50000000E-01
  8.50000000E-01  8.50000000E-01  8.50000000E-01  8.50000000E-01  8.50000000E-01
  8.50000000E-01  8.50000000E-01  8.50000000E-01  8.50000000E-01  8.50000000E-01
  8.50000000E-01  8.50000000E-01  8.50000000E-01  8.50000000E-01  8.50000000E-01
  8.50000000E-01  8.50000000E-01  8.50000000E-01  8.50000000E-01  8.50000000E-01
  8.50000000E-01  8.50000000E-01  8.50000000E-01  8.50000000E-01  8.50000000E-01
  8.50000000E-01  8.50000000E-01  8.50000000E-01  8.50000000E-01  8.50000000E-01
  8.50000000E-01  8.50000000E-01  8.50000000E-01  8.50000000E-01  8.50000000E-01
  8.50000000E-01  8.50000000E-01  8.50000000E-01  8.50000000E-01  8.50000000E-01
  8.50000000E-01  8.50000000E-01  8.50000000E-01  8.50000000E-01  8.50000000E-01
  8.50000000E-01  8.50000000E-01  8.50000000E-01  8.50000000E-01  8.50000000E-01
  8.50000000E-01  8.50000000E-01  8.50000000E-01  8.50000000E-01  8.50000000E-01
  8.50000000E-01  8.50000000E-01  8.50000000E-01  8.50000000E-01  8.50000000E-01
  8.50000000E-01  8.50000000E-01  8.50000000E-01  8.50000000E-01  8.50000000E-01
  8.50000000E-01  8.50000000E-01  8.50000000E-01  8.50000000E-01  8.50000000E-01
  8.50000000E-01  8.50000000E-01  8.50000000E-01  8.50000000E-01  8.50000000E-01
  8.50000000E-01  8.50000000E-01  8.50000000E-01  8.50000000E-01  8.50000000E-01
  8.50000000E-01  8.50000000E-01  8.50000000E-01  8.50000000E-01  8.50000000E-01
  8.50000000E-01  8.50000000E-01  8.50000000E-01  8.50000000E-01  8.50000000E-01
  8.50000000E-01  8.50000000E-01  8.50000000E-01  8.50000000E-01  8.50000000E-01
  8.50000000E-01  8.50000000E-01  8.50000000E-01  8.50000000E-01  8.50000000E-01
  8.50000000E-01  8.50000000E-01  8.50000000E-01  8.50000000E-01  8.50000000E-01
  8.50000000E-01  8.50000000E-01  8.50000000E-01  8.50000000E-01  8.50000000E-01
  8.50000000E-01  8.50000000E-01  8.50000000E-01  8.50000000E-01  8.50000000E-01
  8.50000000E-01  8.50000000E-01  8.50000000E-01  8.50000000E-01  8.50000000E-01
  8.50000000E-01  8.50000000E-01  8.50000000E-01  8.50000000E-01  8.50000000E-01
  8.50000000E-01  8.50000000E-01  8.50000000E-01  8.50000000E-01  8.50000000E-01
  8.50000000E-01  8.50000000E-01  8.50000000E-01  8.50000000E-01  8.50000000E-01
  8.50000000E-01  8.50000000E-01  8.50000000E-01  8.50000000E-01  8.50000000E-01
  8.50000000E-01  8.50000000E-01  8.50000000E-01  8.50000000E-01  8.50000000E-01
  8.50000000E-01  8.50000000E-01  8.50000000E-01  8.50000000E-01  8.50000000E-01
  8.50000000E-01  8.50000000E-01  8.50000000E-01  8.50000000E-01  8.50000000E-01
  8.50000000E-01  8.50000000E-01  8.50000000E-01  8.50000000E-01  8.50000000E-01
  8.50000000E-01  8.50000000E-01  8.50000000E-01  8.50000000E-01  8.50000000E-01
  8.50000000E-01  8.50000000E-01  8.50000000E-01  8.50000000E-01  8.50000000E-01
  8.50000000E-01  8.50000000E-01  8.50000000E-01  8.50000000E-01  8.50000000E-01
  8.50000000E-01  8.50000000E-01  8.50000000E-01  8.50000000E-01  8.50000000E-01
  8.50000000E-01  8.50000000E-01  8.50000000E-01  8.50000000E-01  8.50000000E-01
  8.50000000E-01  8.50000000E-01  8.50000000E-01  8.50000000E-01  8.50000000E-01
  8.50000000E-01  8.50000000E-01  8.50000000E-01  8.50000000E-01  8.50000000E-01
  8.50000000E-01  8.50000000E-01  8.50000000E-01  8.50000000E-01  8.50000000E-01
  8.50000000E-01  8.50000000E-01  8.50000000E-01  8.50000000E-01  8.50000000E-01
  8.50000000E-01  8.50000000E-01  8.50000000E-01  8.50000000E-01  8.50000000E-01
  8.50000000E-01  8.50000000E-01  8.50000000E-01  8.50000000E-01  8.50000000E-01
  8.50000000E-01  8.50000000E-01  8.50000000E-01  8.50000000E-01  8.50000000E-01
  8.50000000E-01  8.50000000E-01  8.50000000E-01  8.50000000E-01  8.50000000E-01
  8.50000000E-01  8.50000000E-01  8.50000000E-01  8.50000000E-01  8.50000000E-01
  8.50000000E-01  8.50000000E-01  8.50000000E-01  8.50000000E-01  8.50000000E-01
  8.50000000E-01  8.50000000E-01  8.50000000E-01  8.50000000E-01  8.50000000E-01
  8.50000000E-01  8.50000000E-01  8.50000000E-01  8.50000000E-01  8.50000000E-01
  8.50000000E-01  8.50000000E-01  8.50000000E-01  8.50000000E-01  8.50000000E-01
  8.50000000E-01  8.50000000E-01  8.50000000E-01  8.50000000E-01  8.50000000E-01
  8.50000000E-01  8.50000000E-01  8.50000000E-01  8.50000000E-01  8.50000000E-01
  8.50000000E-01  8.50000000E-01  8.50000000E-01  8.50000000E-01  8.50000000E-01
  8.50000000E-01  8.50000000E-01  8.50000000E-01  8.50000000E-01  8.50000000E-01
  8.50000000E-01  8.50000000E-01  8.50000000E-01  8.50000000E-01  8.50000000E-01
  8.50000000E-01  8.50000000E-01  8.50000000E-01  8.50000000E-01  8.50000000E-01
  8.50000000E-01  8.50000000E-01  8.50000000E-01  8.50000000E-01  8.50000000E-01
  8.50000000E-01  8.50000000E-01  8.50000000E-01  8.50000000E-01  8.50000000E-01
  8.50000000E-01  8.50000000E-01  8.50000000E-01  8.50000000E-01  8.50000000E-01
  8.50000000E-01  8.50000000E-01  8.50000000E-01  8.50000000E-01  8.50000000E-01
  8.50000000E-01  8.50000000E-01  8.50000000E-01  8.50000000E-01  8.50000000E-01
  8.50000000E-01  8.50000000E-01  8.50000000E-01  8.50000000E-01  8.50000000E-01
  8.50000000E-01  8.50000000E-01  8.50000000E-01  8.50000000E-01  8.50000000E-01
  8.50000000E-01  8.50000000E-01  8.50000000E-01  8.50000000E-01  8.50000000E-01
  8.50000000E-01  8.50000000E-01  8.50000000E-01  8.50000000E-01  8.50000000E-01
  8.50000000E-01  8.50000000E-01  8.50000000E-01  8.50000000E-01  8.50000000E-01
  8.50000000E-01  8.50000000E-01  8.50000000E-01  8.50000000E-01  8.50000000E-01
  8.50000000E-01  8.50000000E-01  8.50000000E-01  8.50000000E-01  8.50000000E-01
  8.50000000E-01  8.50000000E-01  8.50000000E-01  8.50000000E-01  8.50000000E-01
  8.50000000E-01  8.50000000E-01  8.50000000E-01  8.50000000E-01  8.50000000E-01
  8.50000000E-01  8.50000000E-01  8.50000000E-01  8.50000000E-01  8.50000000E-01
  8.50000000E-01  8.50000000E-01  8.50000000E-01  8.50000000E-01  8.50000000E-01
  8.50000000E-01  8.50000000E-01  8.50000000E-01  8.50000000E-01  8.50000000E-01
  8.50000000E-01  8.50000000E-01  8.50000000E-01  8.50000000E-01  8.50000000E-01
  8.50000000E-01  8.50000000E-01  8.50000000E-01  8.50000000E-01  8.50000000E-01
  8.50000000E-01  8.50000000E-01  8.50000000E-01  8.50000000E-01  8.50000000E-01
  8.50000000E-01  8.50000000E-01  8.50000000E-01  8.50000000E-01  8.50000000E-01
  8.50000000E-01  8.50000000E-01  8.50000000E-01  8.50000000E-01  8.50000000E-01
  8.50000000E-01  8.50000000E-01  8.50000000E-01  8.50000000E-01  8.50000000E-01
  8.50000000E-01  8.50000000E-01  8.50000000E-01  8.50000000E-01  8.50000000E-01
  8.50000000E-01  8.50000000E-01  8.50000000E-01  8.50000000E-01  8.50000000E-01
  8.50000000E-01  8.50000000E-01  8.50000000E-01  8.50000000E-01  8.50000000E-01
  8.50000000E-01  8.50000000E-01  8.50000000E-01  8.50000000E-01  8.50000000E-01
  8.50000000E-01  8.50000000E-01  8.50000000E-01  8.50000000E-01  8.50000000E-01
  8.50000000E-01  8.50000000E-01  8.50000000E-01  8.50000000E-01  8.50000000E-01
  8.50000000E-01  8.50000000E-01  8.50000000E-01  8.50000000E-01  8.50000000E-01
  8.50000000E-01  8.50000000E-01  8.50000000E-01  8.50000000E-01  8.50000000E-01
  8.50000000E-01  8.50000000E-01  8.50000000E-01  8.50000000E-01  8.50000000E-01
  8.50000000E-01  8.50000000E-01  8.50000000E-01  8.50000000E-01  8.50000000E-01
  8.50000000E-01  8.50000000E-01  8.50000000E-01  8.50000000E-01  8.50000000E-01
  8.50000000E-01  8.50000000E-01  8.50000000E-01  8.50000000E-01  8.50000000E-01
  8.50000000E-01  8.50000000E-01  8.50000000E-01  8.50000000E-01  8.50000000E-01
  8.50000000E-01  8.50000000E-01  8.50000000E-01  8.50000000E-01  8.50000000E-01
  8.50000000E-01  8.50000000E-01  8.50000000E-01  8.50000000E-01  8.50000000E-01
  8.50000000E-01  8.50000000E-01  8.50000000E-01  8.50000000E-01  8.50000000E-01
  8.50000000E-01  8.50000000E-01  8.50000000E-01  8.50000000E-01  8.50000000E-01
  8.50000000E-01  8.50000000E-01  8.50000000E-01  8.50000000E-01  8.50000000E-01
  8.50000000E-01  8.50000000E-01  8.50000000E-01  8.50000000E-01  8.50000000E-01
  8.50000000E-01  8.50000000E-01  8.50000000E-01  8.50000000E-01  8.50000000E-01
  8.50000000E-01  8.50000000E-01  8.50000000E-01  8.50000000E-01  8.50000000E-01
  8.50000000E-01  8.50000000E-01  8.50000000E-01  8.50000000E-01  8.50000000E-01
  8.50000000E-01  8.50000000E-01  8.50000000E-01  8.50000000E-01  8.50000000E-01
  8.50000000E-01  8.50000000E-01  8.50000000E-01  8.50000000E-01  8.50000000E-01
  8.50000000E-01  8.50000000E-01  8.50000000E-01  8.50000000E-01  8.50000000E-01
  8.50000000E-01  8.50000000E-01  8.50000000E-01  8.50000000E-01  8.50000000E-01
  8.50000000E-01  8.50000000E-01  8.50000000E-01  8.50000000E-01  8.50000000E-01
  8.50000000E-01  8.50000000E-01  8.50000000E-01  8.50000000E-01  8.50000000E-01
  8.50000000E-01  8.50000000E-01  8.50000000E-01  8.50000000E-01  8.50000000E-01
  8.50000000E-01  8.50000000E-01  8.50000000E-01  8.50000000E-01  8.50000000E-01
  8.50000000E-01  8.50000000E-01  8.50000000E-01  8.50000000E-01  8.50000000E-01
  8.50000000E-01  8.50000000E-01  8.50000000E-01  8.50000000E-01  8.50000000E-01
  8.50000000E-01  8.50000000E-01  8.50000000E-01  8.50000000E-01  8.50000000E-01
  8.50000000E-01  8.50000000E-01  8.50000000E-01  8.50000000E-01  8.50000000E-01
  8.50000000E-01  8.50000000E-01  8.50000000E-01  8.50000000E-01  8.50000000E-01
  8.50000000E-01  8.50000000E-01  8.50000000E-01  8.50000000E-01  8.50000000E-01
  8.50000000E-01  8.50000000E-01  8.50000000E-01  8.50000000E-01  8.50000000E-01
  8.50000000E-01  8.50000000E-01  8.50000000E-01  8.50000000E-01  8.50000000E-01
  8.50000000E-01  8.50000000E-01  8.50000000E-01  8.50000000E-01  8.50000000E-01
  8.50000000E-01  8.50000000E-01  8.50000000E-01  8.50000000E-01  8.50000000E-01
  8.50000000E-01  8.50000000E-01  8.50000000E-01  8.50000000E-01  8.50000000E-01
  8.50000000E-01  8.50000000E-01  8.50000000E-01  8.50000000E-01  8.50000000E-01
  8.50000000E-01  8.50000000E-01  8.50000000E-01  8.50000000E-01  8.50000000E-01
  8.50000000E-01  8.50000000E-01  8.50000000E-01  8.50000000E-01  8.50000000E-01
  8.50000000E-01  8.50000000E-01  8.50000000E-01  8.50000000E-01  8.50000000E-01
  8.50000000E-01  8.50000000E-01  8.50000000E-01  8.50000000E-01  8.50000000E-01
  8.50000000E-01  8.50000000E-01  8.50000000E-01  8.50000000E-01  8.50000000E-01
  8.50000000E-01  8.50000000E-01  8.50000000E-01  8.50000000E-01  8.50000000E-01
  8.50000000E-01  8.50000000E-01  8.50000000E-01  8.50000000E-01  8.50000000E-01
  8.50000000E-01  8.50000000E-01  8.50000000E-01  8.50000000E-01  8.50000000E-01
  8.50000000E-01  8.50000000E-01  8.50000000E-01  8.50000000E-01  8.50000000E-01
  8.50000000E-01  8.50000000E-01  8.50000000E-01  8.50000000E-01  8.50000000E-01
  8.50000000E-01  8.50000000E-01  8.50000000E-01  8.50000000E-01  8.50000000E-01
  8.50000000E-01  8.50000000E-01  8.50000000E-01  8.50000000E-01  8.50000000E-01
  8.50000000E-01  8.50000000E-01  8.50000000E-01  8.50000000E-01  8.50000000E-01
  8.50000000E-01  8.50000000E-01  8.50000000E-01  8.50000000E-01  8.50000000E-01
  8.50000000E-01  8.50000000E-01  8.50000000E-01  8.50000000E-01  8.50000000E-01
  8.50000000E-01  8.50000000E-01  8.50000000E-01  8.50000000E-01  8.50000000E-01
  8.50000000E-01  8.50000000E-01  8.50000000E-01  8.50000000E-01  8.50000000E-01
  8.50000000E-01  8.50000000E-01  8.50000000E-01  8.50000000E-01  8.50000000E-01
  8.50000000E-01  8.50000000E-01  8.50000000E-01  8.50000000E-01  8.50000000E-01
  8.50000000E-01  8.50000000E-01  8.50000000E-01  8.50000000E-01  8.50000000E-01
  8.50000000E-01  8.50000000E-01  8.50000000E-01  8.50000000E-01  8.50000000E-01
  8.50000000E-01  8.50000000E-01  8.50000000E-01  8.50000000E-01  8.50000000E-01
  8.50000000E-01  8.50000000E-01  8.50000000E-01  8.50000000E-01  8.50000000E-01
  8.50000000E-01  8.50000000E-01  8.50000000E-01  8.50000000E-01  8.50000000E-01
  8.50000000E-01  8.50000000E-01  8.50000000E-01  8.50000000E-01  8.50000000E-01
  8.50000000E-01  8.50000000E-01  8.50000000E-01  8.50000000E-01  8.50000000E-01
  8.50000000E-01  8.50000000E-01  8.50000000E-01  8.50000000E-01  8.50000000E-01
  8.50000000E-01  8.50000000E-01  8.50000000E-01  8.50000000E-01  8.50000000E-01
  8.50000000E-01  8.50000000E-01  8.50000000E-01  8.50000000E-01  8.50000000E-01
  8.50000000E-01  8.50000000E-01  8.50000000E-01  8.50000000E-01  8.50000000E-01
  8.50000000E-01  8.50000000E-01  8.50000000E-01  8.50000000E-01  8.50000000E-01
  8.50000000E-01  8.50000000E-01  8.50000000E-01  8.50000000E-01  8.50000000E-01
  8.50000000E-01  8.50000000E-01  8.50000000E-01  8.50000000E-01  8.50000000E-01
  8.50000000E-01  8.50000000E-01  8.50000000E-01  8.50000000E-01  8.50000000E-01
  8.50000000E-01  8.50000000E-01  8.50000000E-01  8.50000000E-01  8.50000000E-01
  8.50000000E-01  8.50000000E-01  8.50000000E-01  8.50000000E-01  8.50000000E-01
  8.50000000E-01  8.50000000E-01  8.50000000E-01  8.50000000E-01  8.50000000E-01
  8.50000000E-01  8.50000000E-01  8.50000000E-01  8.50000000E-01  8.50000000E-01
  8.50000000E-01  8.50000000E-01  8.50000000E-01  8.50000000E-01  8.50000000E-01
  8.50000000E-01  8.50000000E-01  8.50000000E-01  8.50000000E-01  8.50000000E-01
  8.50000000E-01  8.50000000E-01  8.50000000E-01  8.50000000E-01  8.50000000E-01
  8.50000000E-01  8.50000000E-01  8.50000000E-01  8.50000000E-01  8.50000000E-01
  8.50000000E-01  8.50000000E-01  8.50000000E-01  8.50000000E-01  8.50000000E-01
  8.50000000E-01  8.50000000E-01  8.50000000E-01  8.50000000E-01  8.50000000E-01
  8.50000000E-01  8.50000000E-01  8.50000000E-01  8.50000000E-01  8.50000000E-01
  8.50000000E-01  8.50000000E-01  8.50000000E-01  8.50000000E-01  8.50000000E-01
  8.50000000E-01  8.50000000E-01  8.50000000E-01  8.50000000E-01  8.50000000E-01
  8.50000000E-01  8.50000000E-01  8.50000000E-01  8.50000000E-01  8.50000000E-01
  8.50000000E-01  8.50000000E-01  8.50000000E-01  8.50000000E-01  8.50000000E-01
  8.50000000E-01  8.50000000E-01  8.50000000E-01  8.50000000E-01  8.50000000E-01
  8.50000000E-01  8.50000000E-01  8.50000000E-01  8.50000000E-01  8.50000000E-01
  8.50000000E-01  8.50000000E-01  8.50000000E-01  8.50000000E-01  8.50000000E-01
  8.50000000E-01  8.50000000E-01  8.50000000E-01  8.50000000E-01  8.50000000E-01
  8.50000000E-01  8.50000000E-01  8.50000000E-01  8.50000000E-01  8.50000000E-01
  8.50000000E-01  8.50000000E-01  8.50000000E-01  8.50000000E-01  8.50000000E-01
  8.50000000E-01  8.50000000E-01  8.50000000E-01  8.50000000E-01  8.50000000E-01
  8.50000000E-01  8.50000000E-01  8.50000000E-01  8.50000000E-01  8.50000000E-01
  8.50000000E-01  8.50000000E-01  8.50000000E-01  8.50000000E-01  8.50000000E-01
  8.50000000E-01  8.50000000E-01  8.50000000E-01  8.50000000E-01  8.50000000E-01
  8.50000000E-01  8.50000000E-01  8.50000000E-01  8.50000000E-01  8.50000000E-01
  8.50000000E-01  8.50000000E-01  8.50000000E-01  8.50000000E-01  8.50000000E-01
  8.50000000E-01  8.50000000E-01  8.50000000E-01  8.50000000E-01  8.50000000E-01
  8.50000000E-01  8.50000000E-01  8.50000000E-01  8.50000000E-01  8.50000000E-01
  8.50000000E-01  8.50000000E-01  8.50000000E-01  8.50000000E-01  8.50000000E-01
  8.50000000E-01  8.50000000E-01  8.50000000E-01  8.50000000E-01  8.50000000E-01
  8.50000000E-01  8.50000000E-01  8.50000000E-01  8.50000000E-01  8.50000000E-01
  8.50000000E-01  8.50000000E-01  8.50000000E-01  8.50000000E-01  8.50000000E-01
  8.50000000E-01  8.50000000E-01  8.50000000E-01  8.50000000E-01  8.50000000E-01
  8.50000000E-01  8.50000000E-01  8.50000000E-01  8.50000000E-01  8.50000000E-01
  8.50000000E-01  8.50000000E-01  8.50000000E-01  8.50000000E-01  8.50000000E-01
  8.50000000E-01  8.50000000E-01  8.50000000E-01  8.50000000E-01  8.50000000E-01
  8.50000000E-01  8.50000000E-01  8.50000000E-01  8.50000000E-01  8.50000000E-01
  8.50000000E-01  8.50000000E-01  8.50000000E-01  8.50000000E-01  8.50000000E-01
  8.50000000E-01  8.50000000E-01  8.50000000E-01  8.50000000E-01  8.50000000E-01
  8.50000000E-01  8.50000000E-01  8.50000000E-01  8.50000000E-01  8.50000000E-01
  8.50000000E-01  8.50000000E-01  8.50000000E-01  8.50000000E-01  8.50000000E-01
  8.50000000E-01  8.50000000E-01  8.50000000E-01  8.50000000E-01  8.50000000E-01
  8.50000000E-01  8.50000000E-01  8.50000000E-01  8.50000000E-01  8.50000000E-01
  8.50000000E-01  8.50000000E-01  8.50000000E-01  8.50000000E-01  8.50000000E-01
  8.50000000E-01  8.50000000E-01  8.50000000E-01  8.50000000E-01  8.50000000E-01
  8.50000000E-01  8.50000000E-01  8.50000000E-01  8.50000000E-01  8.50000000E-01
  8.50000000E-01  8.50000000E-01  8.50000000E-01  8.50000000E-01  8.50000000E-01
  8.50000000E-01  8.50000000E-01  8.50000000E-01  8.50000000E-01  8.50000000E-01
  8.50000000E-01  8.50000000E-01  8.50000000E-01  8.50000000E-01  8.50000000E-01
  8.50000000E-01  8.50000000E-01  8.50000000E-01  8.50000000E-01  8.50000000E-01
  8.50000000E-01  8.50000000E-01  8.50000000E-01  8.50000000E-01  8.50000000E-01
  8.50000000E-01  8.50000000E-01  8.50000000E-01  8.50000000E-01  8.50000000E-01
  8.50000000E-01  8.50000000E-01  8.50000000E-01  8.50000000E-01  8.50000000E-01
  8.50000000E-01  8.50000000E-01  8.50000000E-01  8.50000000E-01  8.50000000E-01
  8.50000000E-01  8.50000000E-01  8.50000000E-01  8.50000000E-01  8.50000000E-01
  8.50000000E-01  8.50000000E-01  8.50000000E-01  8.50000000E-01  8.50000000E-01
  8.50000000E-01  8.50000000E-01  8.50000000E-01  8.50000000E-01  8.50000000E-01
  8.50000000E-01  8.50000000E-01  8.50000000E-01  8.50000000E-01  8.50000000E-01
  8.50000000E-01  8.50000000E-01  8.50000000E-01  8.50000000E-01  8.50000000E-01
  8.50000000E-01  8.50000000E-01  8.50000000E-01  8.50000000E-01  8.50000000E-01
  8.50000000E-01  8.50000000E-01  8.50000000E-01  8.50000000E-01  8.50000000E-01
  8.50000000E-01  8.50000000E-01  8.50000000E-01  8.50000000E-01  8.50000000E-01
  8.50000000E-01  8.50000000E-01  8.50000000E-01  8.50000000E-01  8.50000000E-01
  8.50000000E-01  8.50000000E-01  8.50000000E-01  8.50000000E-01  8.50000000E-01
  8.50000000E-01  8.50000000E-01  8.50000000E-01  8.50000000E-01  8.50000000E-01
  8.50000000E-01  8.50000000E-01  8.50000000E-01  8.50000000E-01  8.50000000E-01
  8.50000000E-01  8.50000000E-01  8.50000000E-01  8.50000000E-01  8.50000000E-01
  8.50000000E-01  8.50000000E-01  8.50000000E-01  8.50000000E-01  8.50000000E-01
  8.50000000E-01  8.50000000E-01  8.50000000E-01  8.50000000E-01  8.50000000E-01
  8.50000000E-01  8.50000000E-01  8.50000000E-01  8.50000000E-01  8.50000000E-01
  8.50000000E-01  8.50000000E-01  8.50000000E-01  8.50000000E-01  8.50000000E-01
  8.50000000E-01  8.50000000E-01  8.50000000E-01  8.50000000E-01  8.50000000E-01
  8.50000000E-01  8.50000000E-01  8.50000000E-01  8.50000000E-01  8.50000000E-01
  8.50000000E-01  8.50000000E-01  8.50000000E-01  8.50000000E-01  8.50000000E-01
  8.50000000E-01  8.50000000E-01  8.50000000E-01  8.50000000E-01  8.50000000E-01
  8.50000000E-01  8.50000000E-01  8.50000000E-01  8.50000000E-01  8.50000000E-01
  8.50000000E-01  8.50000000E-01  8.50000000E-01  8.50000000E-01  8.50000000E-01
  8.50000000E-01  8.50000000E-01  8.50000000E-01  8.50000000E-01  8.50000000E-01
  8.50000000E-01  8.50000000E-01  8.50000000E-01  8.50000000E-01  8.50000000E-01
  8.50000000E-01  8.50000000E-01  8.50000000E-01  8.50000000E-01  8.50000000E-01
  8.50000000E-01  8.50000000E-01  8.50000000E-01  8.50000000E-01  8.50000000E-01
  8.50000000E-01  8.50000000E-01  8.50000000E-01  8.50000000E-01  8.50000000E-01
  8.50000000E-01  8.50000000E-01  8.50000000E-01  8.50000000E-01  8.50000000E-01
  8.50000000E-01  8.50000000E-01  8.50000000E-01  8.50000000E-01  8.50000000E-01
  8.50000000E-01  8.50000000E-01  8.50000000E-01  8.50000000E-01  8.50000000E-01
  8.50000000E-01  8.50000000E-01  8.50000000E-01  8.50000000E-01  8.50000000E-01
  8.50000000E-01  8.50000000E-01  8.50000000E-01  8.50000000E-01  8.50000000E-01
  8.50000000E-01  8.50000000E-01  8.50000000E-01  8.50000000E-01  8.50000000E-01
  8.50000000E-01  8.50000000E-01  8.50000000E-01  8.50000000E-01  8.50000000E-01
  8.50000000E-01  8.50000000E-01  8.50000000E-01  8.50000000E-01  8.50000000E-01
  8.50000000E-01  8.50000000E-01  8.50000000E-01  8.50000000E-01  8.50000000E-01
  8.50000000E-01  8.50000000E-01  8.50000000E-01  8.50000000E-01  8.50000000E-01
  8.50000000E-01  8.50000000E-01  8.50000000E-01  8.50000000E-01  8.50000000E-01
  8.50000000E-01  8.50000000E-01  8.50000000E-01  8.50000000E-01  8.50000000E-01
  8.50000000E-01  8.50000000E-01  8.50000000E-01  8.50000000E-01  8.50000000E-01
  8.50000000E-01  8.50000000E-01  8.50000000E-01  8.50000000E-01  8.50000000E-01
  8.50000000E-01  8.50000000E-01  8.50000000E-01  8.50000000E-01  8.50000000E-01
  8.50000000E-01  8.50000000E-01  8.50000000E-01  8.50000000E-01  8.50000000E-01
  8.50000000E-01  8.50000000E-01  8.50000000E-01  8.50000000E-01  8.50000000E-01
  8.50000000E-01  8.50000000E-01  8.50000000E-01  8.50000000E-01  8.50000000E-01
  8.50000000E-01  8.50000000E-01  8.50000000E-01  8.50000000E-01  8.50000000E-01
  8.50000000E-01  8.50000000E-01  8.50000000E-01  8.50000000E-01  8.50000000E-01
  8.50000000E-01  8.50000000E-01  8.50000000E-01  8.50000000E-01  8.50000000E-01
  8.50000000E-01  8.50000000E-01  8.50000000E-01  8.50000000E-01  8.50000000E-01
  8.50000000E-01  8.50000000E-01  8.50000000E-01  8.50000000E-01  8.50000000E-01
  8.50000000E-01  8.50000000E-01  8.50000000E-01  8.50000000E-01  8.50000000E-01
  8.50000000E-01  8.50000000E-01  8.50000000E-01  8.50000000E-01  8.50000000E-01
  8.50000000E-01  8.50000000E-01  8.50000000E-01  8.50000000E-01  8.50000000E-01
  8.50000000E-01  8.50000000E-01  8.50000000E-01  8.50000000E-01  8.50000000E-01
  8.50000000E-01  8.50000000E-01  8.50000000E-01  8.50000000E-01  8.50000000E-01
  8.50000000E-01  8.50000000E-01  8.50000000E-01  8.50000000E-01  8.50000000E-01
  8.50000000E-01  8.50000000E-01  8.50000000E-01  8.50000000E-01  8.50000000E-01
  8.50000000E-01  8.50000000E-01  8.50000000E-01  8.50000000E-01  8.50000000E-01
  8.50000000E-01  8.50000000E-01  8.50000000E-01  8.50000000E-01  8.50000000E-01
  8.50000000E-01  8.50000000E-01  8.50000000E-01  8.50000000E-01  8.50000000E-01
  8.50000000E-01  8.50000000E-01  8.50000000E-01  8.50000000E-01  8.50000000E-01
  8.50000000E-01  8.50000000E-01  8.50000000E-01  8.50000000E-01  8.50000000E-01
  8.50000000E-01  8.50000000E-01  8.50000000E-01  8.50000000E-01  8.50000000E-01
  8.50000000E-01  8.50000000E-01  8.50000000E-01  8.50000000E-01  8.50000000E-01
  8.50000000E-01  8.50000000E-01  8.50000000E-01  8.50000000E-01  8.50000000E-01
  8.50000000E-01  8.50000000E-01  8.50000000E-01  8.50000000E-01  8.50000000E-01
  8.50000000E-01  8.50000000E-01  8.50000000E-01  8.50000000E-01  8.50000000E-01
  8.50000000E-01  8.50000000E-01  8.50000000E-01  8.50000000E-01  8.50000000E-01
  8.50000000E-01  8.50000000E-01  8.50000000E-01  8.50000000E-01  8.50000000E-01
  8.50000000E-01  8.50000000E-01  8.50000000E-01  8.50000000E-01  8.50000000E-01
  8.50000000E-01  8.50000000E-01  8.50000000E-01  8.50000000E-01  8.50000000E-01
  8.50000000E-01  8.50000000E-01  8.50000000E-01  8.50000000E-01  8.50000000E-01
  8.50000000E-01  8.50000000E-01  8.50000000E-01  8.50000000E-01  8.50000000E-01
  8.50000000E-01  8.50000000E-01  8.50000000E-01  8.50000000E-01  8.50000000E-01
  8.50000000E-01  8.50000000E-01  8.50000000E-01  8.50000000E-01  8.50000000E-01
  8.50000000E-01  8.50000000E-01  8.50000000E-01  8.50000000E-01  8.50000000E-01
  8.50000000E-01  8.50000000E-01  8.50000000E-01  8.50000000E-01  8.50000000E-01
  8.50000000E-01  8.50000000E-01  8.50000000E-01  8.50000000E-01  8.50000000E-01
  8.50000000E-01  8.50000000E-01  8.50000000E-01  8.50000000E-01  8.50000000E-01
  8.50000000E-01  8.50000000E-01  8.50000000E-01  8.50000000E-01  8.50000000E-01
  8.50000000E-01  8.50000000E-01  8.50000000E-01  8.50000000E-01  8.50000000E-01
  8.50000000E-01  8.50000000E-01  8.50000000E-01  8.50000000E-01  8.50000000E-01
  8.50000000E-01  8.50000000E-01  8.50000000E-01  8.50000000E-01  8.50000000E-01
  8.50000000E-01  8.50000000E-01  8.50000000E-01  8.50000000E-01  8.50000000E-01
  8.50000000E-01  8.50000000E-01  8.50000000E-01  8.50000000E-01  8.50000000E-01
  8.50000000E-01  8.50000000E-01  8.50000000E-01  8.50000000E-01  8.50000000E-01
  8.50000000E-01  8.50000000E-01  8.50000000E-01  8.50000000E-01  8.50000000E-01
  8.50000000E-01  8.50000000E-01  8.50000000E-01  8.50000000E-01  8.50000000E-01
  8.50000000E-01  8.50000000E-01  8.50000000E-01  8.50000000E-01  8.50000000E-01
  8.50000000E-01  8.50000000E-01  8.50000000E-01  8.50000000E-01  8.50000000E-01
  8.50000000E-01  8.50000000E-01  8.50000000E-01  8.50000000E-01  8.50000000E-01
  8.50000000E-01  8.50000000E-01  8.50000000E-01  8.50000000E-01  8.50000000E-01
  8.50000000E-01  8.50000000E-01  8.50000000E-01  8.50000000E-01  8.50000000E-01
  8.50000000E-01  8.50000000E-01  8.50000000E-01  8.50000000E-01  8.50000000E-01
  8.50000000E-01  8.50000000E-01  8.50000000E-01  8.50000000E-01  8.50000000E-01
  8.50000000E-01  8.50000000E-01  8.50000000E-01  8.50000000E-01  8.50000000E-01
  8.50000000E-01  8.50000000E-01  8.50000000E-01  8.50000000E-01  8.50000000E-01
  8.50000000E-01  8.50000000E-01  8.50000000E-01  8.50000000E-01  8.50000000E-01
  8.50000000E-01  8.50000000E-01  8.50000000E-01  8.50000000E-01  8.50000000E-01
  8.50000000E-01  8.50000000E-01  8.50000000E-01  8.50000000E-01  8.50000000E-01
  8.50000000E-01  8.50000000E-01  8.50000000E-01  8.50000000E-01  8.50000000E-01
  8.50000000E-01  8.50000000E-01  8.50000000E-01  8.50000000E-01  8.50000000E-01
  8.50000000E-01  8.50000000E-01  8.50000000E-01  8.50000000E-01  8.50000000E-01
  8.50000000E-01  8.50000000E-01  8.50000000E-01  8.50000000E-01  8.50000000E-01
  8.50000000E-01  8.50000000E-01  8.50000000E-01  8.50000000E-01  8.50000000E-01
  8.50000000E-01  8.50000000E-01  8.50000000E-01  8.50000000E-01  8.50000000E-01
  8.50000000E-01  8.50000000E-01  8.50000000E-01  8.50000000E-01  8.50000000E-01
  8.50000000E-01  8.50000000E-01  8.50000000E-01  8.50000000E-01  8.50000000E-01
  8.50000000E-01  8.50000000E-01  8.50000000E-01  8.50000000E-01  8.50000000E-01
  8.50000000E-01  8.50000000E-01  8.50000000E-01  8.50000000E-01  8.50000000E-01
  8.50000000E-01  8.50000000E-01  8.50000000E-01  8.50000000E-01  8.50000000E-01
  8.50000000E-01  8.50000000E-01  8.50000000E-01  8.50000000E-01  8.50000000E-01
  8.50000000E-01  8.50000000E-01  8.50000000E-01  8.50000000E-01  8.50000000E-01
  8.50000000E-01  8.50000000E-01  8.50000000E-01  8.50000000E-01  8.50000000E-01
  8.50000000E-01  8.50000000E-01  8.50000000E-01  8.50000000E-01  8.50000000E-01
  8.50000000E-01  8.50000000E-01  8.50000000E-01  8.50000000E-01  8.50000000E-01
  8.50000000E-01  8.50000000E-01  8.50000000E-01  8.50000000E-01  8.50000000E-01
  8.50000000E-01  8.50000000E-01  8.50000000E-01  8.50000000E-01  8.50000000E-01
  8.50000000E-01  8.50000000E-01  8.50000000E-01  8.50000000E-01  8.50000000E-01
  8.50000000E-01  8.50000000E-01  8.50000000E-01  8.50000000E-01  8.50000000E-01
  8.50000000E-01  8.50000000E-01  8.50000000E-01  8.50000000E-01  8.50000000E-01
  8.50000000E-01  8.50000000E-01  8.50000000E-01  8.50000000E-01  8.50000000E-01
  8.50000000E-01  8.50000000E-01  8.50000000E-01  8.50000000E-01  8.50000000E-01
  8.50000000E-01  8.50000000E-01  8.50000000E-01  8.50000000E-01  8.50000000E-01
  8.50000000E-01  8.50000000E-01  8.50000000E-01  8.50000000E-01  8.50000000E-01
  8.50000000E-01  8.50000000E-01  8.50000000E-01  8.50000000E-01  8.50000000E-01
  8.50000000E-01  8.50000000E-01  8.50000000E-01  8.50000000E-01  8.50000000E-01
  8.50000000E-01  8.50000000E-01  8.50000000E-01  8.50000000E-01  8.50000000E-01
  8.50000000E-01  8.50000000E-01  8.50000000E-01  8.50000000E-01  8.50000000E-01
  8.50000000E-01  8.50000000E-01  8.50000000E-01  8.50000000E-01  8.50000000E-01
  8.50000000E-01  8.50000000E-01  8.50000000E-01  8.50000000E-01  8.50000000E-01
  8.50000000E-01  8.50000000E-01  8.50000000E-01  8.50000000E-01  8.50000000E-01
  8.50000000E-01  8.50000000E-01  8.50000000E-01  8.50000000E-01  8.50000000E-01
  8.50000000E-01  8.50000000E-01  8.50000000E-01  8.50000000E-01  8.50000000E-01
  8.50000000E-01  8.50000000E-01  8.50000000E-01  8.50000000E-01  8.50000000E-01
  8.50000000E-01  8.50000000E-01  8.50000000E-01  8.50000000E-01  8.50000000E-01
  8.50000000E-01  8.50000000E-01  8.50000000E-01  8.50000000E-01  8.50000000E-01
  8.50000000E-01  8.50000000E-01  8.50000000E-01  8.50000000E-01  8.50000000E-01
  8.50000000E-01  8.50000000E-01  8.50000000E-01  8.50000000E-01  8.50000000E-01
  8.50000000E-01  8.50000000E-01  8.50000000E-01  8.50000000E-01  8.50000000E-01
  8.50000000E-01  8.50000000E-01  8.50000000E-01  8.50000000E-01  8.50000000E-01
  8.50000000E-01  8.50000000E-01  8.50000000E-01  8.50000000E-01  8.50000000E-01
  8.50000000E-01  8.50000000E-01  8.50000000E-01  8.50000000E-01  8.50000000E-01
  8.50000000E-01  8.50000000E-01  8.50000000E-01  8.50000000E-01  8.50000000E-01
  8.50000000E-01  8.50000000E-01  8.50000000E-01  8.50000000E-01  8.50000000E-01
  8.50000000E-01  8.50000000E-01  8.50000000E-01  8.50000000E-01  8.50000000E-01
  8.50000000E-01  8.50000000E-01  8.50000000E-01  8.50000000E-01  8.50000000E-01
  8.50000000E-01  8.50000000E-01  8.50000000E-01  8.50000000E-01  8.50000000E-01
  8.50000000E-01  8.50000000E-01  8.50000000E-01  8.50000000E-01  8.50000000E-01
  8.50000000E-01  8.50000000E-01  8.50000000E-01  8.50000000E-01  8.50000000E-01
  8.50000000E-01  8.50000000E-01  8.50000000E-01  8.50000000E-01  8.50000000E-01
  8.50000000E-01  8.50000000E-01  8.50000000E-01  8.50000000E-01  8.50000000E-01
  8.50000000E-01  8.50000000E-01  8.50000000E-01  8.50000000E-01  8.50000000E-01
  8.50000000E-01  8.50000000E-01  8.50000000E-01  8.50000000E-01  8.50000000E-01
  8.50000000E-01  8.50000000E-01  8.50000000E-01  8.50000000E-01  8.50000000E-01
  8.50000000E-01  8.50000000E-01  8.50000000E-01  8.50000000E-01  8.50000000E-01
  8.50000000E-01  8.50000000E-01  8.50000000E-01  8.50000000E-01  8.50000000E-01
  8.50000000E-01  8.50000000E-01  8.50000000E-01  8.50000000E-01  8.50000000E-01
  8.50000000E-01  8.50000000E-01  8.50000000E-01  8.50000000E-01  8.50000000E-01
  8.50000000E-01  8.50000000E-01  8.50000000E-01  8.50000000E-01  8.50000000E-01
  8.50000000E-01  8.50000000E-01  8.50000000E-01  8.50000000E-01  8.50000000E-01
  8.50000000E-01  8.50000000E-01  8.50000000E-01  8.50000000E-01  8.50000000E-01
  8.50000000E-01  8.50000000E-01  8.50000000E-01  8.50000000E-01  8.50000000E-01
  8.50000000E-01  8.50000000E-01  8.50000000E-01  8.50000000E-01  8.50000000E-01
  8.50000000E-01  8.50000000E-01  8.50000000E-01  8.50000000E-01  8.50000000E-01
  8.50000000E-01  8.50000000E-01  8.50000000E-01  8.50000000E-01  8.50000000E-01
  8.50000000E-01  8.50000000E-01  8.50000000E-01  8.50000000E-01  8.50000000E-01
  8.50000000E-01  8.50000000E-01  8.50000000E-01  8.50000000E-01  8.50000000E-01
  8.50000000E-01  8.50000000E-01  8.50000000E-01  8.50000000E-01  8.50000000E-01
  8.50000000E-01  8.50000000E-01  8.50000000E-01  8.50000000E-01  8.50000000E-01
  8.50000000E-01  8.50000000E-01  8.50000000E-01  8.50000000E-01  8.50000000E-01
  8.50000000E-01  8.50000000E-01  8.50000000E-01  8.50000000E-01  8.50000000E-01
  8.50000000E-01  8.50000000E-01  8.50000000E-01  8.50000000E-01  8.50000000E-01
  8.50000000E-01  8.50000000E-01  8.50000000E-01  8.50000000E-01  8.50000000E-01
  8.50000000E-01  8.50000000E-01  8.50000000E-01  8.50000000E-01  8.50000000E-01
  8.50000000E-01  8.50000000E-01  8.50000000E-01  8.50000000E-01  8.50000000E-01
  8.50000000E-01  8.50000000E-01  8.50000000E-01  8.50000000E-01  8.50000000E-01
  8.50000000E-01  8.50000000E-01  8.50000000E-01  8.50000000E-01  8.50000000E-01
  8.50000000E-01  8.50000000E-01  8.50000000E-01  8.50000000E-01  8.50000000E-01
  8.50000000E-01  8.50000000E-01  8.50000000E-01  8.50000000E-01  8.50000000E-01
  8.50000000E-01  8.50000000E-01  8.50000000E-01  8.50000000E-01  8.50000000E-01
  8.50000000E-01  8.50000000E-01  8.50000000E-01  8.50000000E-01  8.50000000E-01
  8.50000000E-01  8.50000000E-01  8.50000000E-01  8.50000000E-01  8.50000000E-01
  8.50000000E-01  8.50000000E-01  8.50000000E-01  8.50000000E-01  8.50000000E-01
  8.50000000E-01  8.50000000E-01  8.50000000E-01  8.50000000E-01  8.50000000E-01
  8.50000000E-01  8.50000000E-01  8.50000000E-01  8.50000000E-01  8.50000000E-01
  8.50000000E-01  8.50000000E-01  8.50000000E-01  8.50000000E-01  8.50000000E-01
  8.50000000E-01  8.50000000E-01  8.50000000E-01  8.50000000E-01  8.50000000E-01
  8.50000000E-01  8.50000000E-01  8.50000000E-01  8.50000000E-01  8.50000000E-01
  8.50000000E-01  8.50000000E-01  8.50000000E-01  8.50000000E-01  8.50000000E-01
  8.50000000E-01  8.50000000E-01  8.50000000E-01  8.50000000E-01  8.50000000E-01
  8.50000000E-01  8.50000000E-01  8.50000000E-01  8.50000000E-01  8.50000000E-01
  8.50000000E-01  8.50000000E-01  8.50000000E-01  8.50000000E-01  8.50000000E-01
  8.50000000E-01  8.50000000E-01  8.50000000E-01  8.50000000E-01  8.50000000E-01
  8.50000000E-01  8.50000000E-01  8.50000000E-01  8.50000000E-01  8.50000000E-01
  8.50000000E-01  8.50000000E-01  8.50000000E-01  8.50000000E-01  8.50000000E-01
  8.50000000E-01  8.50000000E-01  8.50000000E-01  8.50000000E-01  8.50000000E-01
  8.50000000E-01  8.50000000E-01  8.50000000E-01  8.50000000E-01  8.50000000E-01
  8.50000000E-01  8.50000000E-01  8.50000000E-01  8.50000000E-01  8.50000000E-01
  8.50000000E-01  8.50000000E-01  8.50000000E-01  8.50000000E-01  8.50000000E-01
  8.50000000E-01  8.50000000E-01  8.50000000E-01  8.50000000E-01  8.50000000E-01
  8.50000000E-01  8.50000000E-01  8.50000000E-01  8.50000000E-01  8.50000000E-01
  8.50000000E-01  8.50000000E-01  8.50000000E-01  8.50000000E-01  8.50000000E-01
  8.50000000E-01  8.50000000E-01  8.50000000E-01  8.50000000E-01  8.50000000E-01
  8.50000000E-01  8.50000000E-01  8.50000000E-01  8.50000000E-01  8.50000000E-01
  8.50000000E-01  8.50000000E-01  8.50000000E-01  8.50000000E-01  8.50000000E-01
  8.50000000E-01  8.50000000E-01  8.50000000E-01  8.50000000E-01  8.50000000E-01
  8.50000000E-01  8.50000000E-01  8.50000000E-01  8.50000000E-01  8.50000000E-01
  8.50000000E-01  8.50000000E-01  8.50000000E-01  8.50000000E-01  8.50000000E-01
  8.50000000E-01  8.50000000E-01  8.50000000E-01  8.50000000E-01  8.50000000E-01
  8.50000000E-01  8.50000000E-01  8.50000000E-01  8.50000000E-01  8.50000000E-01
  8.50000000E-01  8.50000000E-01  8.50000000E-01  8.50000000E-01  8.50000000E-01
  8.50000000E-01  8.50000000E-01  8.50000000E-01  8.50000000E-01  8.50000000E-01
  8.50000000E-01  8.50000000E-01  8.50000000E-01  8.50000000E-01  8.50000000E-01
  8.50000000E-01  8.50000000E-01  8.50000000E-01  8.50000000E-01  8.50000000E-01
  8.50000000E-01  8.50000000E-01  8.50000000E-01  8.50000000E-01  8.50000000E-01
  8.50000000E-01  8.50000000E-01  8.50000000E-01  8.50000000E-01  8.50000000E-01
  8.50000000E-01  8.50000000E-01  8.50000000E-01  8.50000000E-01  8.50000000E-01
  8.50000000E-01  8.50000000E-01  8.50000000E-01  8.50000000E-01  8.50000000E-01
  8.50000000E-01  8.50000000E-01  8.50000000E-01  8.50000000E-01  8.50000000E-01
  8.50000000E-01  8.50000000E-01  8.50000000E-01  8.50000000E-01  8.50000000E-01
  8.50000000E-01  8.50000000E-01  8.50000000E-01  8.50000000E-01  8.50000000E-01
  8.50000000E-01  8.50000000E-01  8.50000000E-01  8.50000000E-01  8.50000000E-01
  8.50000000E-01  8.50000000E-01  8.50000000E-01  8.50000000E-01  8.50000000E-01
  8.50000000E-01  8.50000000E-01  8.50000000E-01  8.50000000E-01  8.50000000E-01
  8.50000000E-01  8.50000000E-01  8.50000000E-01  8.50000000E-01  8.50000000E-01
  8.50000000E-01  8.50000000E-01  8.50000000E-01  8.50000000E-01  8.50000000E-01
  8.50000000E-01  8.50000000E-01  8.50000000E-01  8.50000000E-01  8.50000000E-01
  8.50000000E-01  8.50000000E-01  8.50000000E-01  8.50000000E-01  8.50000000E-01
  8.50000000E-01  8.50000000E-01  8.50000000E-01  8.50000000E-01  8.50000000E-01
  8.50000000E-01  8.50000000E-01  8.50000000E-01  8.50000000E-01  8.50000000E-01
  8.50000000E-01  8.50000000E-01  8.50000000E-01  8.50000000E-01  8.50000000E-01
  8.50000000E-01  8.50000000E-01  8.50000000E-01  8.50000000E-01  8.50000000E-01
  8.50000000E-01  8.50000000E-01  8.50000000E-01  8.50000000E-01  8.50000000E-01
  8.50000000E-01  8.50000000E-01  8.50000000E-01  8.50000000E-01  8.50000000E-01
  8.50000000E-01  8.50000000E-01  8.50000000E-01  8.50000000E-01  8.50000000E-01
  8.50000000E-01  8.50000000E-01  8.50000000E-01  8.50000000E-01  8.50000000E-01
  8.50000000E-01  8.50000000E-01  8.50000000E-01  8.50000000E-01  8.50000000E-01
  8.50000000E-01  8.50000000E-01  8.50000000E-01  8.50000000E-01  8.50000000E-01
  8.50000000E-01  8.50000000E-01  8.50000000E-01  8.50000000E-01  8.50000000E-01
  8.50000000E-01  8.50000000E-01  8.50000000E-01  8.50000000E-01  8.50000000E-01
  8.50000000E-01  8.50000000E-01  8.50000000E-01  8.50000000E-01  8.50000000E-01
  8.50000000E-01  8.50000000E-01  8.50000000E-01  8.50000000E-01  8.50000000E-01
  8.50000000E-01  8.50000000E-01  8.50000000E-01  8.50000000E-01  8.50000000E-01
  8.50000000E-01  8.50000000E-01  8.50000000E-01  8.50000000E-01  8.50000000E-01
  8.50000000E-01  8.50000000E-01  8.50000000E-01  8.50000000E-01  8.50000000E-01
  8.50000000E-01  8.50000000E-01  8.50000000E-01  8.50000000E-01  8.50000000E-01
  8.50000000E-01  8.50000000E-01  8.50000000E-01  8.50000000E-01  8.50000000E-01
  8.50000000E-01  8.50000000E-01  8.50000000E-01  8.50000000E-01  8.50000000E-01
  8.50000000E-01  8.50000000E-01  8.50000000E-01  8.50000000E-01  8.50000000E-01
  8.50000000E-01  8.50000000E-01  8.50000000E-01  8.50000000E-01  8.50000000E-01
  8.50000000E-01  8.50000000E-01  8.50000000E-01  8.50000000E-01  8.50000000E-01
  8.50000000E-01  8.50000000E-01  8.50000000E-01  8.50000000E-01  8.50000000E-01
  8.50000000E-01  8.50000000E-01  8.50000000E-01  8.50000000E-01  8.50000000E-01
  8.50000000E-01  8.50000000E-01  8.50000000E-01  8.50000000E-01  8.50000000E-01
  8.50000000E-01  8.50000000E-01  8.50000000E-01  8.50000000E-01  8.50000000E-01
  8.50000000E-01  8.50000000E-01  8.50000000E-01  8.50000000E-01  8.50000000E-01
  8.50000000E-01  8.50000000E-01  8.50000000E-01  8.50000000E-01  8.50000000E-01
  8.50000000E-01  8.50000000E-01  8.50000000E-01  8.50000000E-01  8.50000000E-01
  8.50000000E-01  8.50000000E-01  8.50000000E-01  8.50000000E-01  8.50000000E-01
  8.50000000E-01  8.50000000E-01  8.50000000E-01  8.50000000E-01  8.50000000E-01
  8.50000000E-01  8.50000000E-01  8.50000000E-01  8.50000000E-01  8.50000000E-01
  8.50000000E-01  8.50000000E-01  8.50000000E-01  8.50000000E-01  8.50000000E-01
  8.50000000E-01  8.50000000E-01  8.50000000E-01  8.50000000E-01  8.50000000E-01
  8.50000000E-01  8.50000000E-01  8.50000000E-01  8.50000000E-01  8.50000000E-01
  8.50000000E-01  8.50000000E-01  8.50000000E-01  8.50000000E-01  8.50000000E-01
  8.50000000E-01  8.50000000E-01  8.50000000E-01  8.50000000E-01  8.50000000E-01
  8.50000000E-01  8.50000000E-01  8.50000000E-01  8.50000000E-01  8.50000000E-01
  8.50000000E-01  8.50000000E-01  8.50000000E-01  8.50000000E-01  8.50000000E-01
  8.50000000E-01  8.50000000E-01  8.50000000E-01  8.50000000E-01  8.50000000E-01
  8.50000000E-01  8.50000000E-01  8.50000000E-01  8.50000000E-01  8.50000000E-01
  8.50000000E-01  8.50000000E-01  8.50000000E-01  8.50000000E-01  8.50000000E-01
  8.50000000E-01  8.50000000E-01  8.50000000E-01  8.50000000E-01  8.50000000E-01
  8.50000000E-01  8.50000000E-01  8.50000000E-01  8.50000000E-01  8.50000000E-01
  8.50000000E-01  8.50000000E-01  8.50000000E-01  8.50000000E-01  8.50000000E-01
  8.50000000E-01  8.50000000E-01  8.50000000E-01  8.50000000E-01  8.50000000E-01
  8.50000000E-01  8.50000000E-01  8.50000000E-01  8.50000000E-01  8.50000000E-01
  8.50000000E-01  8.50000000E-01  8.50000000E-01  8.50000000E-01  8.50000000E-01
  8.50000000E-01  8.50000000E-01  8.50000000E-01  8.50000000E-01  8.50000000E-01
  8.50000000E-01  8.50000000E-01  8.50000000E-01  8.50000000E-01  8.50000000E-01
  8.50000000E-01  8.50000000E-01  8.50000000E-01  8.50000000E-01  8.50000000E-01
  8.50000000E-01  8.50000000E-01  8.50000000E-01  8.50000000E-01  8.50000000E-01
  8.50000000E-01  8.50000000E-01  8.50000000E-01  8.50000000E-01  8.50000000E-01
  8.50000000E-01  8.50000000E-01  8.50000000E-01  8.50000000E-01  8.50000000E-01
  8.50000000E-01  8.50000000E-01  8.50000000E-01  8.50000000E-01  8.50000000E-01
  8.50000000E-01  8.50000000E-01  8.50000000E-01  8.50000000E-01  8.50000000E-01
  8.50000000E-01  8.50000000E-01  8.50000000E-01  8.50000000E-01  8.50000000E-01
  8.50000000E-01  8.50000000E-01  8.50000000E-01  8.50000000E-01  8.50000000E-01
  8.50000000E-01  8.50000000E-01  8.50000000E-01  8.50000000E-01  8.50000000E-01
  8.50000000E-01  8.50000000E-01  8.50000000E-01  8.50000000E-01  8.50000000E-01
  8.50000000E-01  8.50000000E-01  8.50000000E-01  8.50000000E-01  8.50000000E-01
  8.50000000E-01  8.50000000E-01  8.50000000E-01  8.50000000E-01  8.50000000E-01
  8.50000000E-01  8.50000000E-01  8.50000000E-01  8.50000000E-01  8.50000000E-01
  8.50000000E-01  8.50000000E-01  8.50000000E-01  8.50000000E-01  8.50000000E-01
  8.50000000E-01  8.50000000E-01  8.50000000E-01  8.50000000E-01  8.50000000E-01
  8.50000000E-01  8.50000000E-01  8.50000000E-01  8.50000000E-01  8.50000000E-01
  8.50000000E-01  8.50000000E-01  8.50000000E-01  8.50000000E-01  8.50000000E-01
  8.50000000E-01  8.50000000E-01  8.50000000E-01  8.50000000E-01  8.50000000E-01
  8.50000000E-01  8.50000000E-01  8.50000000E-01  8.50000000E-01  8.50000000E-01
  8.50000000E-01  8.50000000E-01  8.50000000E-01  8.50000000E-01  8.50000000E-01
  8.50000000E-01  8.50000000E-01  8.50000000E-01  8.50000000E-01  8.50000000E-01
  8.50000000E-01  8.50000000E-01  8.50000000E-01  8.50000000E-01  8.50000000E-01
  8.50000000E-01  8.50000000E-01  8.50000000E-01  8.50000000E-01  8.50000000E-01
  8.50000000E-01  8.50000000E-01  8.50000000E-01  8.50000000E-01  8.50000000E-01
  8.50000000E-01  8.50000000E-01  8.50000000E-01  8.50000000E-01  8.50000000E-01
  8.50000000E-01  8.50000000E-01  8.50000000E-01  8.50000000E-01  8.50000000E-01
  8.50000000E-01  8.50000000E-01  8.50000000E-01  8.50000000E-01  8.50000000E-01
  8.50000000E-01  8.50000000E-01  8.50000000E-01  8.50000000E-01  8.50000000E-01
  8.50000000E-01  8.50000000E-01  8.50000000E-01  8.50000000E-01  8.50000000E-01
  8.50000000E-01  8.50000000E-01  8.50000000E-01  8.50000000E-01  8.50000000E-01
  8.50000000E-01  8.50000000E-01  8.50000000E-01  8.50000000E-01  8.50000000E-01
  8.50000000E-01  8.50000000E-01  8.50000000E-01  8.50000000E-01  8.50000000E-01
  8.50000000E-01  8.50000000E-01  8.50000000E-01  8.50000000E-01  8.50000000E-01
  8.50000000E-01  8.50000000E-01  8.50000000E-01  8.50000000E-01  8.50000000E-01
  8.50000000E-01  8.50000000E-01  8.50000000E-01  8.50000000E-01  8.50000000E-01
  8.50000000E-01  8.50000000E-01  8.50000000E-01  8.50000000E-01  8.50000000E-01
  8.50000000E-01  8.50000000E-01  8.50000000E-01  8.50000000E-01  8.50000000E-01
  8.50000000E-01  8.50000000E-01  8.50000000E-01  8.50000000E-01  8.50000000E-01
  8.50000000E-01  8.50000000E-01  8.50000000E-01  8.50000000E-01  8.50000000E-01
  8.50000000E-01  8.50000000E-01  8.50000000E-01  8.50000000E-01  8.50000000E-01
  8.50000000E-01  8.50000000E-01  8.50000000E-01  8.50000000E-01  8.50000000E-01
  8.50000000E-01  8.50000000E-01  8.50000000E-01  8.50000000E-01  8.50000000E-01
  8.50000000E-01  8.50000000E-01  8.50000000E-01  8.50000000E-01  8.50000000E-01
  8.50000000E-01  8.50000000E-01  8.50000000E-01  8.50000000E-01  8.50000000E-01
  8.50000000E-01  8.50000000E-01  8.50000000E-01  8.50000000E-01  8.50000000E-01
  8.50000000E-01  8.50000000E-01  8.50000000E-01  8.50000000E-01  8.50000000E-01
  8.50000000E-01  8.50000000E-01  8.50000000E-01  8.50000000E-01  8.50000000E-01
  8.50000000E-01  8.50000000E-01  8.50000000E-01  8.50000000E-01  8.50000000E-01
  8.50000000E-01  8.50000000E-01  8.50000000E-01  8.50000000E-01  8.50000000E-01
  8.50000000E-01  8.50000000E-01  8.50000000E-01  8.50000000E-01  8.50000000E-01
  8.50000000E-01  8.50000000E-01  8.50000000E-01  8.50000000E-01  8.50000000E-01
  8.50000000E-01  8.50000000E-01  8.50000000E-01  8.50000000E-01  8.50000000E-01
  8.50000000E-01  8.50000000E-01  8.50000000E-01  8.50000000E-01  8.50000000E-01
  8.50000000E-01  8.50000000E-01  8.50000000E-01  8.50000000E-01  8.50000000E-01
  8.50000000E-01  8.50000000E-01  8.50000000E-01  8.50000000E-01  8.50000000E-01
  8.50000000E-01  8.50000000E-01  8.50000000E-01  8.50000000E-01  8.50000000E-01
  8.50000000E-01  8.50000000E-01  8.50000000E-01  8.50000000E-01  8.50000000E-01
  8.50000000E-01  8.50000000E-01  8.50000000E-01  8.50000000E-01  8.50000000E-01
  8.50000000E-01  8.50000000E-01  8.50000000E-01  8.50000000E-01  8.50000000E-01
  8.50000000E-01  8.50000000E-01  8.50000000E-01  8.50000000E-01  8.50000000E-01
  8.50000000E-01  8.50000000E-01  8.50000000E-01  8.50000000E-01  8.50000000E-01
  8.50000000E-01  8.50000000E-01  8.50000000E-01  8.50000000E-01  8.50000000E-01
  8.50000000E-01  8.50000000E-01  8.50000000E-01  8.50000000E-01  8.50000000E-01
  8.50000000E-01  8.50000000E-01  8.50000000E-01  8.50000000E-01  8.50000000E-01
  8.50000000E-01  8.50000000E-01  8.50000000E-01  8.50000000E-01  8.50000000E-01
  8.50000000E-01  8.50000000E-01  8.50000000E-01  8.50000000E-01  8.50000000E-01
  8.50000000E-01  8.50000000E-01  8.50000000E-01  8.50000000E-01  8.50000000E-01
  8.50000000E-01  8.50000000E-01  8.50000000E-01  8.50000000E-01  8.50000000E-01
  8.50000000E-01  8.50000000E-01  8.50000000E-01  8.50000000E-01  8.50000000E-01
  8.50000000E-01  8.50000000E-01  8.50000000E-01  8.50000000E-01  8.50000000E-01
  8.50000000E-01  8.50000000E-01  8.50000000E-01  8.50000000E-01  8.50000000E-01
  8.50000000E-01  8.50000000E-01  8.50000000E-01  8.50000000E-01  8.50000000E-01
  8.50000000E-01  8.50000000E-01  8.50000000E-01  8.50000000E-01  8.50000000E-01
  8.50000000E-01  8.50000000E-01  8.50000000E-01  8.50000000E-01  8.50000000E-01
  8.50000000E-01  8.50000000E-01  8.50000000E-01  8.50000000E-01  8.50000000E-01
  8.50000000E-01  8.50000000E-01  8.50000000E-01  8.50000000E-01  8.50000000E-01
  8.50000000E-01  8.50000000E-01  8.50000000E-01  8.50000000E-01  8.50000000E-01
  8.50000000E-01  8.50000000E-01  8.50000000E-01  8.50000000E-01  8.50000000E-01
  8.50000000E-01  8.50000000E-01  8.50000000E-01  8.50000000E-01  8.50000000E-01
  8.50000000E-01  8.50000000E-01  8.50000000E-01  8.50000000E-01  8.50000000E-01
  8.50000000E-01  8.50000000E-01  8.50000000E-01  8.50000000E-01  8.50000000E-01
  8.50000000E-01  8.50000000E-01  8.50000000E-01  8.50000000E-01  8.50000000E-01
  8.50000000E-01  8.50000000E-01  8.50000000E-01  8.50000000E-01  8.50000000E-01
  8.50000000E-01  8.50000000E-01  8.50000000E-01  8.50000000E-01  8.50000000E-01
  8.50000000E-01  8.50000000E-01  8.50000000E-01  8.50000000E-01  8.50000000E-01
  8.50000000E-01  8.50000000E-01  8.50000000E-01  8.50000000E-01  8.50000000E-01
  8.50000000E-01  8.50000000E-01  8.50000000E-01  8.50000000E-01  8.50000000E-01
  8.50000000E-01  8.50000000E-01  8.50000000E-01  8.50000000E-01  8.50000000E-01
  8.50000000E-01  8.50000000E-01  8.50000000E-01  8.50000000E-01  8.50000000E-01
  8.50000000E-01  8.50000000E-01  8.50000000E-01  8.50000000E-01  8.50000000E-01
  8.50000000E-01  8.50000000E-01  8.50000000E-01  8.50000000E-01  8.50000000E-01
  8.50000000E-01  8.50000000E-01  8.50000000E-01  8.50000000E-01  8.50000000E-01
  8.50000000E-01  8.50000000E-01  8.50000000E-01  8.50000000E-01  8.50000000E-01
  8.50000000E-01  8.50000000E-01  8.50000000E-01  8.50000000E-01  8.50000000E-01
  8.50000000E-01  8.50000000E-01  8.50000000E-01  8.50000000E-01  8.50000000E-01
  8.50000000E-01  8.50000000E-01  8.50000000E-01  8.50000000E-01  8.50000000E-01
  8.50000000E-01  8.50000000E-01  8.50000000E-01  8.50000000E-01  8.50000000E-01
  8.50000000E-01  8.50000000E-01  8.50000000E-01  8.50000000E-01  8.50000000E-01
  8.50000000E-01  8.50000000E-01  8.50000000E-01  8.50000000E-01  8.50000000E-01
  8.50000000E-01  8.50000000E-01  8.50000000E-01  8.50000000E-01  8.50000000E-01
  8.50000000E-01  8.50000000E-01  8.50000000E-01  8.50000000E-01  8.50000000E-01
  8.50000000E-01  8.50000000E-01  8.50000000E-01  8.50000000E-01  8.50000000E-01
  8.50000000E-01  8.50000000E-01  8.50000000E-01  8.50000000E-01  8.50000000E-01
  8.50000000E-01  8.50000000E-01  8.50000000E-01  8.50000000E-01  8.50000000E-01
  8.50000000E-01  8.50000000E-01  8.50000000E-01  8.50000000E-01  8.50000000E-01
  8.50000000E-01  8.50000000E-01  8.50000000E-01  8.50000000E-01  8.50000000E-01
  8.50000000E-01  8.50000000E-01  8.50000000E-01  8.50000000E-01  8.50000000E-01
  8.50000000E-01  8.50000000E-01  8.50000000E-01  8.50000000E-01  8.50000000E-01
  8.50000000E-01  8.50000000E-01  8.50000000E-01  8.50000000E-01  8.50000000E-01
  8.50000000E-01  8.50000000E-01  8.50000000E-01  8.50000000E-01  8.50000000E-01
  8.50000000E-01  8.50000000E-01  8.50000000E-01  8.50000000E-01  8.50000000E-01
  8.50000000E-01  8.50000000E-01  8.50000000E-01  8.50000000E-01  8.50000000E-01
  8.50000000E-01  8.50000000E-01  8.50000000E-01  8.50000000E-01  8.50000000E-01
  8.50000000E-01  8.50000000E-01  8.50000000E-01  8.50000000E-01  8.50000000E-01
  8.50000000E-01  8.50000000E-01  8.50000000E-01  8.50000000E-01  8.50000000E-01
  8.50000000E-01  8.50000000E-01  8.50000000E-01  8.50000000E-01  8.50000000E-01
  8.50000000E-01  8.50000000E-01  8.50000000E-01  8.50000000E-01  8.50000000E-01
  8.50000000E-01  8.50000000E-01  8.50000000E-01  8.50000000E-01  8.50000000E-01
  8.50000000E-01  8.50000000E-01  8.50000000E-01  8.50000000E-01  8.50000000E-01
  8.50000000E-01  8.50000000E-01  8.50000000E-01  8.50000000E-01  8.50000000E-01
  8.50000000E-01  8.50000000E-01  8.50000000E-01  8.50000000E-01  8.50000000E-01
  8.50000000E-01  8.50000000E-01  8.50000000E-01  8.50000000E-01  8.50000000E-01
  8.50000000E-01  8.50000000E-01  8.50000000E-01  8.50000000E-01  8.50000000E-01
  8.50000000E-01  8.50000000E-01  8.50000000E-01  8.50000000E-01  8.50000000E-01
  8.50000000E-01  8.50000000E-01  8.50000000E-01  8.50000000E-01  8.50000000E-01
  8.50000000E-01  8.50000000E-01  8.50000000E-01  8.50000000E-01  8.50000000E-01
  8.50000000E-01  8.50000000E-01  8.50000000E-01  8.50000000E-01  8.50000000E-01
  8.50000000E-01  8.50000000E-01  8.50000000E-01  8.50000000E-01  8.50000000E-01
  8.50000000E-01  8.50000000E-01  8.50000000E-01  8.50000000E-01  8.50000000E-01
  8.50000000E-01  8.50000000E-01  8.50000000E-01  8.50000000E-01  8.50000000E-01
  8.50000000E-01  8.50000000E-01  8.50000000E-01  8.50000000E-01  8.50000000E-01
  8.50000000E-01  8.50000000E-01  8.50000000E-01  8.50000000E-01  8.50000000E-01
  8.50000000E-01  8.50000000E-01  8.50000000E-01  8.50000000E-01  8.50000000E-01
  8.50000000E-01  8.50000000E-01  8.50000000E-01  8.50000000E-01  8.50000000E-01
  8.50000000E-01  8.50000000E-01  8.50000000E-01  8.50000000E-01  8.50000000E-01
  8.50000000E-01  8.50000000E-01  8.50000000E-01  8.50000000E-01  8.50000000E-01
  8.50000000E-01  8.50000000E-01  8.50000000E-01  8.50000000E-01  8.50000000E-01
  8.50000000E-01  8.50000000E-01  8.50000000E-01  8.50000000E-01  8.50000000E-01
  8.50000000E-01  8.50000000E-01  8.50000000E-01  8.50000000E-01  8.50000000E-01
  8.50000000E-01  8.50000000E-01  8.50000000E-01  8.50000000E-01  8.50000000E-01
  8.50000000E-01  8.50000000E-01  8.50000000E-01  8.50000000E-01  8.50000000E-01
  8.50000000E-01  8.50000000E-01  8.50000000E-01  8.50000000E-01  8.50000000E-01
  8.50000000E-01  8.50000000E-01  8.50000000E-01  8.50000000E-01  8.50000000E-01
  8.50000000E-01  8.50000000E-01  8.50000000E-01  8.50000000E-01  8.50000000E-01
  8.50000000E-01  8.50000000E-01  8.50000000E-01  8.50000000E-01  8.50000000E-01
  8.50000000E-01  8.50000000E-01  8.50000000E-01  8.50000000E-01  8.50000000E-01
  8.50000000E-01  8.50000000E-01  8.50000000E-01  8.50000000E-01  8.50000000E-01
  8.50000000E-01  8.50000000E-01  8.50000000E-01  8.50000000E-01  8.50000000E-01
  8.50000000E-01  8.50000000E-01  8.50000000E-01  8.50000000E-01  8.50000000E-01
  8.50000000E-01  8.50000000E-01  8.50000000E-01  8.50000000E-01  8.50000000E-01
  8.50000000E-01  8.50000000E-01  8.50000000E-01  8.50000000E-01  8.50000000E-01
  8.50000000E-01  8.50000000E-01  8.50000000E-01  8.50000000E-01  8.50000000E-01
  8.50000000E-01  8.50000000E-01  8.50000000E-01  8.50000000E-01  8.50000000E-01
  8.50000000E-01  8.50000000E-01  8.50000000E-01  8.50000000E-01  8.50000000E-01
  8.50000000E-01  8.50000000E-01  8.50000000E-01  8.50000000E-01  8.50000000E-01
  8.50000000E-01  8.50000000E-01  8.50000000E-01  8.50000000E-01  8.50000000E-01
  8.50000000E-01  8.50000000E-01  8.50000000E-01  8.50000000E-01  8.50000000E-01
  8.50000000E-01  8.50000000E-01  8.50000000E-01  8.50000000E-01  8.50000000E-01
  8.50000000E-01  8.50000000E-01  8.50000000E-01  8.50000000E-01  8.50000000E-01
  8.50000000E-01  8.50000000E-01  8.50000000E-01  8.50000000E-01  8.50000000E-01
  8.50000000E-01  8.50000000E-01  8.50000000E-01  8.50000000E-01  8.50000000E-01
  8.50000000E-01  8.50000000E-01  8.50000000E-01  8.50000000E-01  8.50000000E-01
  8.50000000E-01  8.50000000E-01  8.50000000E-01  8.50000000E-01  8.50000000E-01
  8.50000000E-01  8.50000000E-01  8.50000000E-01  8.50000000E-01  8.50000000E-01
  8.50000000E-01  8.50000000E-01  8.50000000E-01  8.50000000E-01  8.50000000E-01
  8.50000000E-01  8.50000000E-01  8.50000000E-01  8.50000000E-01  8.50000000E-01
  8.50000000E-01  8.50000000E-01  8.50000000E-01  8.50000000E-01  8.50000000E-01
  8.50000000E-01  8.50000000E-01  8.50000000E-01  8.50000000E-01  8.50000000E-01
  8.50000000E-01  8.50000000E-01  8.50000000E-01  8.50000000E-01  8.50000000E-01
  8.50000000E-01  8.50000000E-01  8.50000000E-01  8.50000000E-01  8.50000000E-01
  8.50000000E-01  8.50000000E-01  8.50000000E-01  8.50000000E-01  8.50000000E-01
  8.50000000E-01  8.50000000E-01  8.50000000E-01  8.50000000E-01  8.50000000E-01
  8.50000000E-01  8.50000000E-01  8.50000000E-01  8.50000000E-01  8.50000000E-01
  8.50000000E-01  8.50000000E-01  8.50000000E-01  8.50000000E-01  8.50000000E-01
  8.50000000E-01  8.50000000E-01  8.50000000E-01  8.50000000E-01  8.50000000E-01
  8.50000000E-01  8.50000000E-01  8.50000000E-01  8.50000000E-01  8.50000000E-01
  8.50000000E-01  8.50000000E-01  8.50000000E-01  8.50000000E-01  8.50000000E-01
  8.50000000E-01  8.50000000E-01  8.50000000E-01  8.50000000E-01  8.50000000E-01
  8.50000000E-01  8.50000000E-01  8.50000000E-01  8.50000000E-01  8.50000000E-01
  8.50000000E-01  8.50000000E-01  8.50000000E-01  8.50000000E-01  8.50000000E-01
  8.50000000E-01  8.50000000E-01  8.50000000E-01  8.50000000E-01  8.50000000E-01
  8.50000000E-01  8.50000000E-01  8.50000000E-01  8.50000000E-01  8.50000000E-01
  8.50000000E-01  8.50000000E-01  8.50000000E-01  8.50000000E-01  8.50000000E-01
  8.50000000E-01  8.50000000E-01  8.50000000E-01  8.50000000E-01  8.50000000E-01
  8.50000000E-01  8.50000000E-01  8.50000000E-01  8.50000000E-01  8.50000000E-01
  8.50000000E-01  8.50000000E-01  8.50000000E-01  8.50000000E-01  8.50000000E-01
  8.50000000E-01  8.50000000E-01  8.50000000E-01  8.50000000E-01  8.50000000E-01
  8.50000000E-01  8.50000000E-01  8.50000000E-01  8.50000000E-01  8.50000000E-01
  8.50000000E-01  8.50000000E-01  8.50000000E-01  8.50000000E-01  8.50000000E-01
  8.50000000E-01  8.50000000E-01  8.50000000E-01  8.50000000E-01  8.50000000E-01
  8.50000000E-01  8.50000000E-01  8.50000000E-01  8.50000000E-01  8.50000000E-01
  8.50000000E-01  8.50000000E-01  8.50000000E-01  8.50000000E-01  8.50000000E-01
  8.50000000E-01  8.50000000E-01  8.50000000E-01  8.50000000E-01  8.50000000E-01
  8.50000000E-01  8.50000000E-01  8.50000000E-01  8.50000000E-01  8.50000000E-01
  8.50000000E-01  8.50000000E-01  8.50000000E-01  8.50000000E-01  8.50000000E-01
  8.50000000E-01  8.50000000E-01  8.50000000E-01  8.50000000E-01  8.50000000E-01
  8.50000000E-01  8.50000000E-01  8.50000000E-01  8.50000000E-01  8.50000000E-01
  8.50000000E-01  8.50000000E-01  8.50000000E-01  8.50000000E-01  8.50000000E-01
  8.50000000E-01  8.50000000E-01  8.50000000E-01  8.50000000E-01  8.50000000E-01
  8.50000000E-01  8.50000000E-01  8.50000000E-01  8.50000000E-01  8.50000000E-01
  8.50000000E-01  8.50000000E-01  8.50000000E-01  8.50000000E-01  8.50000000E-01
  8.50000000E-01  8.50000000E-01  8.50000000E-01  8.50000000E-01  8.50000000E-01
  8.50000000E-01  8.50000000E-01  8.50000000E-01  8.50000000E-01  8.50000000E-01
  8.50000000E-01  8.50000000E-01  8.50000000E-01  8.50000000E-01  8.50000000E-01
  8.50000000E-01  8.50000000E-01  8.50000000E-01  8.50000000E-01  8.50000000E-01
  8.50000000E-01  8.50000000E-01  8.50000000E-01  8.50000000E-01  8.50000000E-01
  8.50000000E-01  8.50000000E-01  8.50000000E-01  8.50000000E-01  8.50000000E-01
  8.50000000E-01  8.50000000E-01  8.50000000E-01  8.50000000E-01  8.50000000E-01
  8.50000000E-01  8.50000000E-01  8.50000000E-01  8.50000000E-01  8.50000000E-01
  8.50000000E-01  8.50000000E-01  8.50000000E-01  8.50000000E-01  8.50000000E-01
  8.50000000E-01  8.50000000E-01  8.50000000E-01  8.50000000E-01  8.50000000E-01
  8.50000000E-01  8.50000000E-01  8.50000000E-01  8.50000000E-01  8.50000000E-01
  8.50000000E-01  8.50000000E-01  8.50000000E-01  8.50000000E-01  8.50000000E-01
  8.50000000E-01  8.50000000E-01  8.50000000E-01  8.50000000E-01  8.50000000E-01
  8.50000000E-01  8.50000000E-01  8.50000000E-01  8.50000000E-01  8.50000000E-01
  8.50000000E-01  8.50000000E-01  8.50000000E-01  8.50000000E-01  8.50000000E-01
  8.50000000E-01  8.50000000E-01  8.50000000E-01  8.50000000E-01  8.50000000E-01
  8.50000000E-01  8.50000000E-01  8.50000000E-01  8.50000000E-01  8.50000000E-01
  8.50000000E-01  8.50000000E-01  8.50000000E-01  8.50000000E-01  8.50000000E-01
  8.50000000E-01  8.50000000E-01  8.50000000E-01  8.50000000E-01  8.50000000E-01
  8.50000000E-01  8.50000000E-01  8.50000000E-01  8.50000000E-01  8.50000000E-01
  8.50000000E-01  8.50000000E-01  8.50000000E-01  8.50000000E-01  8.50000000E-01
  8.50000000E-01  8.50000000E-01  8.50000000E-01  8.50000000E-01  8.50000000E-01
  8.50000000E-01  8.50000000E-01  8.50000000E-01  8.50000000E-01  8.50000000E-01
  8.50000000E-01  8.50000000E-01  8.50000000E-01  8.50000000E-01  8.50000000E-01
  8.50000000E-01  8.50000000E-01  8.50000000E-01  8.50000000E-01  8.50000000E-01
  8.50000000E-01  8.50000000E-01  8.50000000E-01  8.50000000E-01  8.50000000E-01
  8.50000000E-01  8.50000000E-01  8.50000000E-01  8.50000000E-01  8.50000000E-01
  8.50000000E-01  8.50000000E-01  8.50000000E-01  8.50000000E-01  8.50000000E-01
  8.50000000E-01  8.50000000E-01  8.50000000E-01  8.50000000E-01  8.50000000E-01
  8.50000000E-01  8.50000000E-01  8.50000000E-01  8.50000000E-01  8.50000000E-01
  8.50000000E-01  8.50000000E-01  8.50000000E-01  8.50000000E-01  8.50000000E-01
  8.50000000E-01  8.50000000E-01  8.50000000E-01  8.50000000E-01  8.50000000E-01
  8.50000000E-01  8.50000000E-01  8.50000000E-01  8.50000000E-01  8.50000000E-01
  8.50000000E-01  8.50000000E-01  8.50000000E-01  8.50000000E-01  8.50000000E-01
  8.50000000E-01  8.50000000E-01  8.50000000E-01  8.50000000E-01  8.50000000E-01
  8.50000000E-01  8.50000000E-01  8.50000000E-01  8.50000000E-01  8.50000000E-01
  8.50000000E-01  8.50000000E-01  8.50000000E-01  8.50000000E-01  8.50000000E-01
  8.50000000E-01  8.50000000E-01  8.50000000E-01  8.50000000E-01  8.50000000E-01
  8.50000000E-01  8.50000000E-01  8.50000000E-01  8.50000000E-01  8.50000000E-01
  8.50000000E-01  8.50000000E-01  8.50000000E-01  8.50000000E-01  8.50000000E-01
  8.50000000E-01  8.50000000E-01  8.50000000E-01  8.50000000E-01  8.50000000E-01
  8.50000000E-01  8.50000000E-01  8.50000000E-01  8.50000000E-01  8.50000000E-01
  8.50000000E-01  8.50000000E-01  8.50000000E-01  8.50000000E-01  8.50000000E-01
  8.50000000E-01  8.50000000E-01  8.50000000E-01  8.50000000E-01  8.50000000E-01
  8.50000000E-01  8.50000000E-01  8.50000000E-01  8.50000000E-01  8.50000000E-01
  8.50000000E-01  8.50000000E-01  8.50000000E-01  8.50000000E-01  8.50000000E-01
  8.50000000E-01  8.50000000E-01  8.50000000E-01  8.50000000E-01  8.50000000E-01
  8.50000000E-01  8.50000000E-01  8.50000000E-01  8.50000000E-01  8.50000000E-01
  8.50000000E-01  8.50000000E-01  8.50000000E-01  8.50000000E-01  8.50000000E-01
  8.50000000E-01  8.50000000E-01  8.50000000E-01  8.50000000E-01  8.50000000E-01
  8.50000000E-01  8.50000000E-01  8.50000000E-01  8.50000000E-01  8.50000000E-01
  8.50000000E-01  8.50000000E-01  8.50000000E-01  8.50000000E-01  8.50000000E-01
  8.50000000E-01  8.50000000E-01  8.50000000E-01  8.50000000E-01  8.50000000E-01
  8.50000000E-01  8.50000000E-01  8.50000000E-01  8.50000000E-01  8.50000000E-01
  8.50000000E-01  8.50000000E-01  8.50000000E-01  8.50000000E-01  8.50000000E-01
  8.50000000E-01  8.50000000E-01  8.50000000E-01  8.50000000E-01  8.50000000E-01
  8.50000000E-01  8.50000000E-01  8.50000000E-01  8.50000000E-01  8.50000000E-01
  8.50000000E-01  8.50000000E-01  8.50000000E-01  8.50000000E-01  8.50000000E-01
  8.50000000E-01  8.50000000E-01  8.50000000E-01  8.50000000E-01  8.50000000E-01
  8.50000000E-01  8.50000000E-01  8.50000000E-01  8.50000000E-01  8.50000000E-01
  8.50000000E-01  8.50000000E-01  8.50000000E-01  8.50000000E-01  8.50000000E-01
  8.50000000E-01  8.50000000E-01  8.50000000E-01  8.50000000E-01  8.50000000E-01
  8.50000000E-01  8.50000000E-01  8.50000000E-01  8.50000000E-01  8.50000000E-01
  8.50000000E-01  8.50000000E-01  8.50000000E-01  8.50000000E-01  8.50000000E-01
  8.50000000E-01  8.50000000E-01  8.50000000E-01  8.50000000E-01  8.50000000E-01
  8.50000000E-01  8.50000000E-01  8.50000000E-01  8.50000000E-01  8.50000000E-01
  8.50000000E-01  8.50000000E-01  8.50000000E-01  8.50000000E-01  8.50000000E-01
  8.50000000E-01  8.50000000E-01  8.50000000E-01  8.50000000E-01  8.50000000E-01
  8.50000000E-01  8.50000000E-01  8.50000000E-01  8.50000000E-01  8.50000000E-01
  8.50000000E-01  8.50000000E-01  8.50000000E-01  8.50000000E-01  8.50000000E-01
  8.50000000E-01  8.50000000E-01  8.50000000E-01  8.50000000E-01  8.50000000E-01
  8.50000000E-01  8.50000000E-01  8.50000000E-01  8.50000000E-01  8.50000000E-01
  8.50000000E-01  8.50000000E-01  8.50000000E-01  8.50000000E-01  8.50000000E-01
  8.50000000E-01  8.50000000E-01  8.50000000E-01  8.50000000E-01  8.50000000E-01
  8.50000000E-01  8.50000000E-01  8.50000000E-01  8.50000000E-01  8.50000000E-01
  8.50000000E-01  8.50000000E-01  8.50000000E-01  8.50000000E-01  8.50000000E-01
  8.50000000E-01  8.50000000E-01  8.50000000E-01  8.50000000E-01  8.50000000E-01
  8.50000000E-01  8.50000000E-01  8.50000000E-01  8.50000000E-01  8.50000000E-01
  8.50000000E-01  8.50000000E-01  8.50000000E-01  8.50000000E-01  8.50000000E-01
  8.50000000E-01  8.50000000E-01  8.50000000E-01  8.50000000E-01  8.50000000E-01
  8.50000000E-01  8.50000000E-01  8.50000000E-01  8.50000000E-01  8.50000000E-01
  8.50000000E-01  8.50000000E-01  8.50000000E-01  8.50000000E-01  8.50000000E-01
  8.50000000E-01  8.50000000E-01  8.50000000E-01  8.50000000E-01  8.50000000E-01
  8.50000000E-01  8.50000000E-01  8.50000000E-01  8.50000000E-01  8.50000000E-01
  8.50000000E-01  8.50000000E-01  8.50000000E-01  8.50000000E-01  8.50000000E-01
  8.50000000E-01  8.50000000E-01  8.50000000E-01  8.50000000E-01  8.50000000E-01
  8.50000000E-01  8.50000000E-01  8.50000000E-01  8.50000000E-01  8.50000000E-01
  8.50000000E-01  8.50000000E-01  8.50000000E-01  8.50000000E-01  8.50000000E-01
  8.50000000E-01  8.50000000E-01  8.50000000E-01  8.50000000E-01  8.50000000E-01
  8.50000000E-01  8.50000000E-01  8.50000000E-01  8.50000000E-01  8.50000000E-01
  8.50000000E-01  8.50000000E-01  8.50000000E-01  8.50000000E-01  8.50000000E-01
  8.50000000E-01  8.50000000E-01  8.50000000E-01  8.50000000E-01  8.50000000E-01
  8.50000000E-01  8.50000000E-01  8.50000000E-01  8.50000000E-01  8.50000000E-01
  8.50000000E-01  8.50000000E-01  8.50000000E-01  8.50000000E-01  8.50000000E-01
  8.50000000E-01  8.50000000E-01  8.50000000E-01  8.50000000E-01  8.50000000E-01
  8.50000000E-01  8.50000000E-01  8.50000000E-01  8.50000000E-01  8.50000000E-01
  8.50000000E-01  8.50000000E-01  8.50000000E-01  8.50000000E-01  8.50000000E-01
  8.50000000E-01  8.50000000E-01  8.50000000E-01  8.50000000E-01  8.50000000E-01
  8.50000000E-01  8.50000000E-01  8.50000000E-01  8.50000000E-01  8.50000000E-01
  8.50000000E-01  8.50000000E-01  8.50000000E-01  8.50000000E-01  8.50000000E-01
  8.50000000E-01  8.50000000E-01  8.50000000E-01  8.50000000E-01  8.50000000E-01
  8.50000000E-01  8.50000000E-01  8.50000000E-01  8.50000000E-01  8.50000000E-01
  8.50000000E-01  8.50000000E-01  8.50000000E-01  8.50000000E-01  8.50000000E-01
  8.50000000E-01  8.50000000E-01  8.50000000E-01  8.50000000E-01  8.50000000E-01
  8.50000000E-01  8.50000000E-01  8.50000000E-01  8.50000000E-01  8.50000000E-01
  8.50000000E-01  8.50000000E-01  8.50000000E-01  8.50000000E-01  8.50000000E-01
  8.50000000E-01  8.50000000E-01  8.50000000E-01  8.50000000E-01  8.50000000E-01
  8.50000000E-01  8.50000000E-01  8.50000000E-01  8.50000000E-01  8.50000000E-01
  8.50000000E-01  8.50000000E-01  8.50000000E-01  8.50000000E-01  8.50000000E-01
  8.50000000E-01  8.50000000E-01  8.50000000E-01  8.50000000E-01  8.50000000E-01
  8.50000000E-01  8.50000000E-01  8.50000000E-01  8.50000000E-01  8.50000000E-01
  8.50000000E-01  8.50000000E-01  8.50000000E-01  8.50000000E-01  8.50000000E-01
  8.50000000E-01  8.50000000E-01  8.50000000E-01  8.50000000E-01  8.50000000E-01
  8.50000000E-01  8.50000000E-01  8.50000000E-01  8.50000000E-01  8.50000000E-01
  8.50000000E-01  8.50000000E-01  8.50000000E-01  8.50000000E-01  8.50000000E-01
  8.50000000E-01  8.50000000E-01  8.50000000E-01  8.50000000E-01  8.50000000E-01
  8.50000000E-01  8.50000000E-01  8.50000000E-01  8.50000000E-01  8.50000000E-01
  8.50000000E-01  8.50000000E-01  8.50000000E-01  8.50000000E-01  8.50000000E-01
  8.50000000E-01  8.50000000E-01  8.50000000E-01  8.50000000E-01  8.50000000E-01
  8.50000000E-01  8.50000000E-01  8.50000000E-01  8.50000000E-01  8.50000000E-01
  8.50000000E-01  8.50000000E-01  8.50000000E-01  8.50000000E-01  8.50000000E-01
  8.50000000E-01  8.50000000E-01  8.50000000E-01  8.50000000E-01  8.50000000E-01
  8.50000000E-01  8.50000000E-01  8.50000000E-01  8.50000000E-01  8.50000000E-01
  8.50000000E-01  8.50000000E-01  8.50000000E-01  8.50000000E-01  8.50000000E-01
  8.50000000E-01  8.50000000E-01  8.50000000E-01  8.50000000E-01  8.50000000E-01
  8.50000000E-01  8.50000000E-01  8.50000000E-01  8.50000000E-01  8.50000000E-01
  8.50000000E-01  8.50000000E-01  8.50000000E-01  8.50000000E-01  8.50000000E-01
  8.50000000E-01  8.50000000E-01  8.50000000E-01  8.50000000E-01  8.50000000E-01
  8.50000000E-01  8.50000000E-01  8.50000000E-01  8.50000000E-01  8.50000000E-01
  8.50000000E-01  8.50000000E-01  8.50000000E-01  8.50000000E-01  8.50000000E-01
  8.50000000E-01  8.50000000E-01  8.50000000E-01  8.50000000E-01  8.50000000E-01
  8.50000000E-01  8.50000000E-01  8.50000000E-01  8.50000000E-01  8.50000000E-01
  8.50000000E-01  8.50000000E-01  8.50000000E-01  8.50000000E-01  8.50000000E-01
  8.50000000E-01  8.50000000E-01  8.50000000E-01  8.50000000E-01  8.50000000E-01
  8.50000000E-01  8.50000000E-01  8.50000000E-01  8.50000000E-01  8.50000000E-01
  8.50000000E-01  8.50000000E-01  8.50000000E-01  8.50000000E-01  8.50000000E-01
  8.50000000E-01  8.50000000E-01  8.50000000E-01  8.50000000E-01  8.50000000E-01
  8.50000000E-01  8.50000000E-01  8.50000000E-01  8.50000000E-01  8.50000000E-01
  8.50000000E-01  8.50000000E-01  8.50000000E-01  8.50000000E-01  8.50000000E-01
  8.50000000E-01  8.50000000E-01  8.50000000E-01  8.50000000E-01  8.50000000E-01
  8.50000000E-01  8.50000000E-01  8.50000000E-01  8.50000000E-01  8.50000000E-01
  8.50000000E-01  8.50000000E-01  8.50000000E-01  8.50000000E-01  8.50000000E-01
  8.50000000E-01  8.50000000E-01  8.50000000E-01  8.50000000E-01  8.50000000E-01
  8.50000000E-01  8.50000000E-01  8.50000000E-01  8.50000000E-01  8.50000000E-01
  8.50000000E-01  8.50000000E-01  8.50000000E-01  8.50000000E-01  8.50000000E-01
  8.50000000E-01  8.50000000E-01  8.50000000E-01  8.50000000E-01  8.50000000E-01
  8.50000000E-01  8.50000000E-01  8.50000000E-01  8.50000000E-01  8.50000000E-01
  8.50000000E-01  8.50000000E-01  8.50000000E-01  8.50000000E-01  8.50000000E-01
  8.50000000E-01  8.50000000E-01  8.50000000E-01  8.50000000E-01  8.50000000E-01
  8.50000000E-01  8.50000000E-01  8.50000000E-01  8.50000000E-01  8.50000000E-01
  8.50000000E-01  8.50000000E-01  8.50000000E-01  8.50000000E-01  8.50000000E-01
  8.50000000E-01  8.50000000E-01  8.50000000E-01  8.50000000E-01  8.50000000E-01
  8.50000000E-01  8.50000000E-01  8.50000000E-01  8.50000000E-01  8.50000000E-01
  8.50000000E-01  8.50000000E-01  8.50000000E-01  8.50000000E-01  8.50000000E-01
  8.50000000E-01  8.50000000E-01  8.50000000E-01  8.50000000E-01  8.50000000E-01
  8.50000000E-01  8.50000000E-01  8.50000000E-01  8.50000000E-01  8.50000000E-01
  8.50000000E-01  8.50000000E-01  8.50000000E-01  8.50000000E-01  8.50000000E-01
  8.50000000E-01  8.50000000E-01  8.50000000E-01  8.50000000E-01  8.50000000E-01
  8.50000000E-01  8.50000000E-01  8.50000000E-01  8.50000000E-01  8.50000000E-01
  8.50000000E-01  8.50000000E-01  8.50000000E-01  8.50000000E-01  8.50000000E-01
  8.50000000E-01  8.50000000E-01  8.50000000E-01  8.50000000E-01  8.50000000E-01
  8.50000000E-01  8.50000000E-01  8.50000000E-01  8.50000000E-01  8.50000000E-01
  8.50000000E-01  8.50000000E-01  8.50000000E-01  8.50000000E-01  8.50000000E-01
  8.50000000E-01  8.50000000E-01  8.50000000E-01  8.50000000E-01  8.50000000E-01
  8.50000000E-01  8.50000000E-01  8.50000000E-01  8.50000000E-01  8.50000000E-01
  8.50000000E-01  8.50000000E-01  8.50000000E-01  8.50000000E-01  8.50000000E-01
  8.50000000E-01  8.50000000E-01  8.50000000E-01  8.50000000E-01  8.50000000E-01
  8.50000000E-01  8.50000000E-01  8.50000000E-01  8.50000000E-01  8.50000000E-01
  8.50000000E-01  8.50000000E-01  8.50000000E-01  8.50000000E-01  8.50000000E-01
  8.50000000E-01  8.50000000E-01  8.50000000E-01  8.50000000E-01  8.50000000E-01
  8.50000000E-01  8.50000000E-01  8.50000000E-01  8.50000000E-01  8.50000000E-01
  8.50000000E-01  8.50000000E-01  8.50000000E-01  8.50000000E-01  8.50000000E-01
  8.50000000E-01  8.50000000E-01  8.50000000E-01  8.50000000E-01  8.50000000E-01
  8.50000000E-01  8.50000000E-01  8.50000000E-01  8.50000000E-01  8.50000000E-01
  8.50000000E-01  8.50000000E-01  8.50000000E-01  8.50000000E-01  8.50000000E-01
  8.50000000E-01  8.50000000E-01  8.50000000E-01  8.50000000E-01  8.50000000E-01
  8.50000000E-01  8.50000000E-01  8.50000000E-01  8.50000000E-01  8.50000000E-01
  8.50000000E-01  8.50000000E-01  8.50000000E-01  8.50000000E-01  8.50000000E-01
  8.50000000E-01  8.50000000E-01  8.50000000E-01  8.50000000E-01  8.50000000E-01
  8.50000000E-01  8.50000000E-01  8.50000000E-01  8.50000000E-01  8.50000000E-01
  8.50000000E-01  8.50000000E-01  8.50000000E-01  8.50000000E-01  8.50000000E-01
  8.50000000E-01  8.50000000E-01  8.50000000E-01  8.50000000E-01  8.50000000E-01
  8.50000000E-01  8.50000000E-01  8.50000000E-01  8.50000000E-01  8.50000000E-01
  8.50000000E-01  8.50000000E-01  8.50000000E-01  8.50000000E-01  8.50000000E-01
  8.50000000E-01  8.50000000E-01  8.50000000E-01  8.50000000E-01  8.50000000E-01
  8.50000000E-01  8.50000000E-01  8.50000000E-01  8.50000000E-01  8.50000000E-01
  8.50000000E-01  8.50000000E-01  8.50000000E-01  8.50000000E-01  8.50000000E-01
  8.50000000E-01  8.50000000E-01  8.50000000E-01  8.50000000E-01  8.50000000E-01
  8.50000000E-01  8.50000000E-01  8.50000000E-01  8.50000000E-01  8.50000000E-01
  8.50000000E-01  8.50000000E-01  8.50000000E-01  8.50000000E-01  8.50000000E-01
  8.50000000E-01  8.50000000E-01  8.50000000E-01  8.50000000E-01  8.50000000E-01
  8.50000000E-01  8.50000000E-01  8.50000000E-01  8.50000000E-01  8.50000000E-01
  8.50000000E-01  8.50000000E-01  8.50000000E-01  8.50000000E-01  8.50000000E-01
  8.50000000E-01  8.50000000E-01  8.50000000E-01  8.50000000E-01  8.50000000E-01
  8.50000000E-01  8.50000000E-01  8.50000000E-01  8.50000000E-01  8.50000000E-01
  8.50000000E-01  8.50000000E-01  8.50000000E-01  8.50000000E-01  8.50000000E-01
  8.50000000E-01  8.50000000E-01  8.50000000E-01  8.50000000E-01  8.50000000E-01
  8.50000000E-01  8.50000000E-01  8.50000000E-01  8.50000000E-01  8.50000000E-01
  8.50000000E-01  8.50000000E-01  8.50000000E-01  8.50000000E-01  8.50000000E-01
  8.50000000E-01  8.50000000E-01  8.50000000E-01  8.50000000E-01  8.50000000E-01
  8.50000000E-01  8.50000000E-01  8.50000000E-01  8.50000000E-01  8.50000000E-01
  8.50000000E-01  8.50000000E-01  8.50000000E-01  8.50000000E-01  8.50000000E-01
  8.50000000E-01  8.50000000E-01  8.50000000E-01  8.50000000E-01  8.50000000E-01
  8.50000000E-01  8.50000000E-01  8.50000000E-01  8.50000000E-01  8.50000000E-01
  8.50000000E-01  8.50000000E-01  8.50000000E-01  8.50000000E-01  8.50000000E-01
  8.50000000E-01  8.50000000E-01  8.50000000E-01  8.50000000E-01  8.50000000E-01
  8.50000000E-01  8.50000000E-01  8.50000000E-01  8.50000000E-01  8.50000000E-01
  8.50000000E-01  8.50000000E-01  8.50000000E-01  8.50000000E-01  8.50000000E-01
  8.50000000E-01  8.50000000E-01  8.50000000E-01  8.50000000E-01  8.50000000E-01
  8.50000000E-01  8.50000000E-01  8.50000000E-01  8.50000000E-01  8.50000000E-01
  8.50000000E-01  8.50000000E-01  8.50000000E-01  8.50000000E-01  8.50000000E-01
  8.50000000E-01  8.50000000E-01  8.50000000E-01  8.50000000E-01  8.50000000E-01
  8.50000000E-01  8.50000000E-01  8.50000000E-01  8.50000000E-01  8.50000000E-01
  8.50000000E-01  8.50000000E-01  8.50000000E-01  8.50000000E-01  8.50000000E-01
  8.50000000E-01  8.50000000E-01  8.50000000E-01  8.50000000E-01  8.50000000E-01
  8.50000000E-01  8.50000000E-01  8.50000000E-01  8.50000000E-01  8.50000000E-01
  8.50000000E-01  8.50000000E-01  8.50000000E-01  8.50000000E-01  8.50000000E-01
  8.50000000E-01  8.50000000E-01  8.50000000E-01  8.50000000E-01  8.50000000E-01
  8.50000000E-01  8.50000000E-01  8.50000000E-01  8.50000000E-01  8.50000000E-01
  8.50000000E-01  8.50000000E-01  8.50000000E-01  8.50000000E-01  8.50000000E-01
  8.50000000E-01  8.50000000E-01  8.50000000E-01  8.50000000E-01  8.50000000E-01
  8.50000000E-01  8.50000000E-01  8.50000000E-01  8.50000000E-01  8.50000000E-01
  8.50000000E-01  8.50000000E-01  8.50000000E-01  8.50000000E-01  8.50000000E-01
  8.50000000E-01  8.50000000E-01  8.50000000E-01  8.50000000E-01  8.50000000E-01
  8.50000000E-01  8.50000000E-01  8.50000000E-01  8.50000000E-01  8.50000000E-01
  8.50000000E-01  8.50000000E-01  8.50000000E-01  8.50000000E-01  8.50000000E-01
  8.50000000E-01  8.50000000E-01  8.50000000E-01  8.50000000E-01  8.50000000E-01
  8.50000000E-01  8.50000000E-01  8.50000000E-01  8.50000000E-01  8.50000000E-01
  8.50000000E-01  8.50000000E-01  8.50000000E-01  8.50000000E-01  8.50000000E-01
  8.50000000E-01  8.50000000E-01  8.50000000E-01  8.50000000E-01  8.50000000E-01
  8.50000000E-01  8.50000000E-01  8.50000000E-01  8.50000000E-01  8.50000000E-01
  8.50000000E-01  8.50000000E-01  8.50000000E-01  8.50000000E-01  8.50000000E-01
  8.50000000E-01  8.50000000E-01  8.50000000E-01  8.50000000E-01  8.50000000E-01
  8.50000000E-01  8.50000000E-01  8.50000000E-01  8.50000000E-01  8.50000000E-01
  8.50000000E-01  8.50000000E-01  8.50000000E-01  8.50000000E-01  8.50000000E-01
  8.50000000E-01  8.50000000E-01  8.50000000E-01  8.50000000E-01  8.50000000E-01
  8.50000000E-01  8.50000000E-01  8.50000000E-01  8.50000000E-01  8.50000000E-01
  8.50000000E-01  8.50000000E-01  8.50000000E-01  8.50000000E-01  8.50000000E-01
  8.50000000E-01  8.50000000E-01  8.50000000E-01  8.50000000E-01  8.50000000E-01
  8.50000000E-01  8.50000000E-01  8.50000000E-01  8.50000000E-01  8.50000000E-01
  8.50000000E-01  8.50000000E-01  8.50000000E-01  8.50000000E-01  8.50000000E-01
  8.50000000E-01  8.50000000E-01  8.50000000E-01  8.50000000E-01  8.50000000E-01
  8.50000000E-01  8.50000000E-01  8.50000000E-01  8.50000000E-01  8.50000000E-01
  8.50000000E-01  8.50000000E-01  8.50000000E-01  8.50000000E-01  8.50000000E-01
  8.50000000E-01  8.50000000E-01  8.50000000E-01  8.50000000E-01  8.50000000E-01
  8.50000000E-01  8.50000000E-01  8.50000000E-01  8.50000000E-01  8.50000000E-01
  8.50000000E-01  8.50000000E-01  8.50000000E-01  8.50000000E-01  8.50000000E-01
  8.50000000E-01  8.50000000E-01  8.50000000E-01  8.50000000E-01  8.50000000E-01
  8.50000000E-01  8.50000000E-01  8.50000000E-01  8.50000000E-01  8.50000000E-01
  8.50000000E-01  8.50000000E-01  8.50000000E-01  8.50000000E-01  8.50000000E-01
  8.50000000E-01  8.50000000E-01  8.50000000E-01  8.50000000E-01  8.50000000E-01
  8.50000000E-01  8.50000000E-01  8.50000000E-01  8.50000000E-01  8.50000000E-01
  8.50000000E-01  8.50000000E-01  8.50000000E-01  8.50000000E-01  8.50000000E-01
  8.50000000E-01  8.50000000E-01  8.50000000E-01  8.50000000E-01  8.50000000E-01
  8.50000000E-01  8.50000000E-01  8.50000000E-01  8.50000000E-01  8.50000000E-01
  8.50000000E-01  8.50000000E-01  8.50000000E-01  8.50000000E-01  8.50000000E-01
  8.50000000E-01  8.50000000E-01  8.50000000E-01  8.50000000E-01  8.50000000E-01
  8.50000000E-01  8.50000000E-01  8.50000000E-01  8.50000000E-01  8.50000000E-01
  8.50000000E-01  8.50000000E-01  8.50000000E-01  8.50000000E-01  8.50000000E-01
  8.50000000E-01  8.50000000E-01  8.50000000E-01  8.50000000E-01  8.50000000E-01
  8.50000000E-01  8.50000000E-01  8.50000000E-01  8.50000000E-01  8.50000000E-01
  8.50000000E-01  8.50000000E-01  8.50000000E-01  8.50000000E-01  8.50000000E-01
  8.50000000E-01  8.50000000E-01  8.50000000E-01  8.50000000E-01  8.50000000E-01
  8.50000000E-01  8.50000000E-01  8.50000000E-01  8.50000000E-01  8.50000000E-01
  8.50000000E-01  8.50000000E-01  8.50000000E-01  8.50000000E-01  8.50000000E-01
  8.50000000E-01  8.50000000E-01  8.50000000E-01  8.50000000E-01  8.50000000E-01
  8.50000000E-01  8.50000000E-01  8.50000000E-01  8.50000000E-01  8.50000000E-01
  8.50000000E-01  8.50000000E-01  8.50000000E-01  8.50000000E-01  8.50000000E-01
  8.50000000E-01  8.50000000E-01  8.50000000E-01  8.50000000E-01  8.50000000E-01
  8.50000000E-01  8.50000000E-01  8.50000000E-01  8.50000000E-01  8.50000000E-01
  8.50000000E-01  8.50000000E-01  8.50000000E-01  8.50000000E-01  8.50000000E-01
  8.50000000E-01  8.50000000E-01  8.50000000E-01  8.50000000E-01  8.50000000E-01
  8.50000000E-01  8.50000000E-01  8.50000000E-01  8.50000000E-01  8.50000000E-01
  8.50000000E-01  8.50000000E-01  8.50000000E-01  8.50000000E-01  8.50000000E-01
  8.50000000E-01  8.50000000E-01  8.50000000E-01  8.50000000E-01  8.50000000E-01
  8.50000000E-01  8.50000000E-01  8.50000000E-01  8.50000000E-01  8.50000000E-01
  8.50000000E-01  8.50000000E-01  8.50000000E-01  8.50000000E-01  8.50000000E-01
  8.50000000E-01  8.50000000E-01  8.50000000E-01  8.50000000E-01  8.50000000E-01
  8.50000000E-01  8.50000000E-01  8.50000000E-01  8.50000000E-01  8.50000000E-01
  8.50000000E-01  8.50000000E-01  8.50000000E-01  8.50000000E-01  8.50000000E-01
  8.50000000E-01  8.50000000E-01  8.50000000E-01  8.50000000E-01  8.50000000E-01
  8.50000000E-01  8.50000000E-01  8.50000000E-01  8.50000000E-01  8.50000000E-01
  8.50000000E-01  8.50000000E-01  8.50000000E-01  8.50000000E-01  8.50000000E-01
  8.50000000E-01  8.50000000E-01  8.50000000E-01  8.50000000E-01  8.50000000E-01
  8.50000000E-01  8.50000000E-01  8.50000000E-01  8.50000000E-01  8.50000000E-01
  8.50000000E-01  8.50000000E-01  8.50000000E-01  8.50000000E-01  8.50000000E-01
  8.50000000E-01  8.50000000E-01  8.50000000E-01  8.50000000E-01  8.50000000E-01
  8.50000000E-01  8.50000000E-01  8.50000000E-01  8.50000000E-01  8.50000000E-01
  8.50000000E-01  8.50000000E-01  8.50000000E-01  8.50000000E-01  8.50000000E-01
  8.50000000E-01  8.50000000E-01  8.50000000E-01  8.50000000E-01  8.50000000E-01
  8.50000000E-01  8.50000000E-01  8.50000000E-01  8.50000000E-01  8.50000000E-01
  8.50000000E-01  8.50000000E-01  8.50000000E-01  8.50000000E-01  8.50000000E-01
  8.50000000E-01  8.50000000E-01  8.50000000E-01  8.50000000E-01  8.50000000E-01
  8.50000000E-01  8.50000000E-01  8.50000000E-01  8.50000000E-01  8.50000000E-01
  8.50000000E-01  8.50000000E-01  8.50000000E-01  8.50000000E-01  8.50000000E-01
  8.50000000E-01  8.50000000E-01  8.50000000E-01  8.50000000E-01  8.50000000E-01
  8.50000000E-01  8.50000000E-01  8.50000000E-01  8.50000000E-01  8.50000000E-01
  8.50000000E-01  8.50000000E-01  8.50000000E-01  8.50000000E-01  8.50000000E-01
  8.50000000E-01  8.50000000E-01  8.50000000E-01  8.50000000E-01  8.50000000E-01
  8.50000000E-01  8.50000000E-01  8.50000000E-01  8.50000000E-01  8.50000000E-01
  8.50000000E-01  8.50000000E-01  8.50000000E-01  8.50000000E-01  8.50000000E-01
  8.50000000E-01  8.50000000E-01  8.50000000E-01  8.50000000E-01  8.50000000E-01
  8.50000000E-01  8.50000000E-01  8.50000000E-01  8.50000000E-01  8.50000000E-01
  8.50000000E-01  8.50000000E-01  8.50000000E-01  8.50000000E-01  8.50000000E-01
  8.50000000E-01  8.50000000E-01  8.50000000E-01  8.50000000E-01  8.50000000E-01
  8.50000000E-01  8.50000000E-01  8.50000000E-01  8.50000000E-01  8.50000000E-01
  8.50000000E-01  8.50000000E-01  8.50000000E-01  8.50000000E-01  8.50000000E-01
  8.50000000E-01  8.50000000E-01  8.50000000E-01  8.50000000E-01  8.50000000E-01
  8.50000000E-01  8.50000000E-01  8.50000000E-01  8.50000000E-01  8.50000000E-01
  8.50000000E-01  8.50000000E-01  8.50000000E-01  8.50000000E-01  8.50000000E-01
  8.50000000E-01  8.50000000E-01  8.50000000E-01  8.50000000E-01  8.50000000E-01
  8.50000000E-01  8.50000000E-01  8.50000000E-01  8.50000000E-01  8.50000000E-01
  8.50000000E-01  8.50000000E-01  8.50000000E-01  8.50000000E-01  8.50000000E-01
  8.50000000E-01  8.50000000E-01  8.50000000E-01  8.50000000E-01  8.50000000E-01
  8.50000000E-01  8.50000000E-01  8.50000000E-01  8.50000000E-01  8.50000000E-01
  8.50000000E-01  8.50000000E-01  8.50000000E-01  8.50000000E-01  8.50000000E-01
  8.50000000E-01  8.50000000E-01  8.50000000E-01  8.50000000E-01  8.50000000E-01
  8.50000000E-01  8.50000000E-01  8.50000000E-01  8.50000000E-01  8.50000000E-01
  8.50000000E-01  8.50000000E-01  8.50000000E-01  8.50000000E-01  8.50000000E-01
  8.50000000E-01  8.50000000E-01  8.50000000E-01  8.50000000E-01  8.50000000E-01
  8.50000000E-01  8.50000000E-01  8.50000000E-01  8.50000000E-01  8.50000000E-01
  8.50000000E-01  8.50000000E-01  8.50000000E-01  8.50000000E-01  8.50000000E-01
  8.50000000E-01  8.50000000E-01  8.50000000E-01  8.50000000E-01  8.50000000E-01
  8.50000000E-01  8.50000000E-01  8.50000000E-01  8.50000000E-01  8.50000000E-01
  8.50000000E-01  8.50000000E-01  8.50000000E-01  8.50000000E-01  8.50000000E-01
  8.50000000E-01  8.50000000E-01  8.50000000E-01  8.50000000E-01  8.50000000E-01
  8.50000000E-01  8.50000000E-01  8.50000000E-01  8.50000000E-01  8.50000000E-01
  8.50000000E-01  8.50000000E-01  8.50000000E-01  8.50000000E-01  8.50000000E-01
  8.50000000E-01  8.50000000E-01  8.50000000E-01  8.50000000E-01  8.50000000E-01
  8.50000000E-01  8.50000000E-01  8.50000000E-01  8.50000000E-01  8.50000000E-01
  8.50000000E-01  8.50000000E-01  8.50000000E-01  8.50000000E-01  8.50000000E-01
  8.50000000E-01  8.50000000E-01  8.50000000E-01  8.50000000E-01  8.50000000E-01
  8.50000000E-01  8.50000000E-01  8.50000000E-01  8.50000000E-01  8.50000000E-01
  8.50000000E-01  8.50000000E-01  8.50000000E-01  8.50000000E-01  8.50000000E-01
  8.50000000E-01  8.50000000E-01  8.50000000E-01  8.50000000E-01  8.50000000E-01
  8.50000000E-01  8.50000000E-01  8.50000000E-01  8.50000000E-01  8.50000000E-01
  8.50000000E-01  8.50000000E-01  8.50000000E-01  8.50000000E-01  8.50000000E-01
  8.50000000E-01  8.50000000E-01  8.50000000E-01  8.50000000E-01  8.50000000E-01
  8.50000000E-01  8.50000000E-01  8.50000000E-01  8.50000000E-01  8.50000000E-01
  8.50000000E-01  8.50000000E-01  8.50000000E-01  8.50000000E-01  8.50000000E-01
  8.50000000E-01  8.50000000E-01  8.50000000E-01  8.50000000E-01  8.50000000E-01
  8.50000000E-01  8.50000000E-01  8.50000000E-01  8.50000000E-01  8.50000000E-01
  8.50000000E-01  8.50000000E-01  8.50000000E-01  8.50000000E-01  8.50000000E-01
  8.50000000E-01  8.50000000E-01  8.50000000E-01  8.50000000E-01  8.50000000E-01
  8.50000000E-01  8.50000000E-01  8.50000000E-01  8.50000000E-01  8.50000000E-01
  8.50000000E-01  8.50000000E-01  8.50000000E-01  8.50000000E-01  8.50000000E-01
  8.50000000E-01  8.50000000E-01  8.50000000E-01  8.50000000E-01  8.50000000E-01
  8.50000000E-01  8.50000000E-01  8.50000000E-01  8.50000000E-01  8.50000000E-01
  8.50000000E-01  8.50000000E-01  8.50000000E-01  8.50000000E-01  8.50000000E-01
  8.50000000E-01  8.50000000E-01  8.50000000E-01  8.50000000E-01  8.50000000E-01
  8.50000000E-01  8.50000000E-01  8.50000000E-01  8.50000000E-01  8.50000000E-01
  8.50000000E-01  8.50000000E-01  8.50000000E-01  8.50000000E-01  8.50000000E-01
  8.50000000E-01  8.50000000E-01  8.50000000E-01  8.50000000E-01  8.50000000E-01
  8.50000000E-01  8.50000000E-01  8.50000000E-01  8.50000000E-01  8.50000000E-01
  8.50000000E-01  8.50000000E-01  8.50000000E-01  8.50000000E-01  8.50000000E-01
  8.50000000E-01  8.50000000E-01  8.50000000E-01  8.50000000E-01  8.50000000E-01
  8.50000000E-01  8.50000000E-01  8.50000000E-01  8.50000000E-01  8.50000000E-01
  8.50000000E-01  8.50000000E-01  8.50000000E-01  8.50000000E-01  8.50000000E-01
  8.50000000E-01  8.50000000E-01  8.50000000E-01  8.50000000E-01  8.50000000E-01
  8.50000000E-01  8.50000000E-01  8.50000000E-01  8.50000000E-01  8.50000000E-01
  8.50000000E-01  8.50000000E-01  8.50000000E-01  8.50000000E-01  8.50000000E-01
  8.50000000E-01  8.50000000E-01  8.50000000E-01  8.50000000E-01  8.50000000E-01
  8.50000000E-01  8.50000000E-01  8.50000000E-01  8.50000000E-01  8.50000000E-01
  8.50000000E-01  8.50000000E-01  8.50000000E-01  8.50000000E-01  8.50000000E-01
  8.50000000E-01  8.50000000E-01  8.50000000E-01  8.50000000E-01  8.50000000E-01
  8.50000000E-01  8.50000000E-01  8.50000000E-01  8.50000000E-01  8.50000000E-01
  8.50000000E-01  8.50000000E-01  8.50000000E-01  8.50000000E-01  8.50000000E-01
  8.50000000E-01  8.50000000E-01  8.50000000E-01  8.50000000E-01  8.50000000E-01
  8.50000000E-01  8.50000000E-01  8.50000000E-01  8.50000000E-01  8.50000000E-01
  8.50000000E-01  8.50000000E-01  8.50000000E-01  8.50000000E-01  8.50000000E-01
  8.50000000E-01  8.50000000E-01  8.50000000E-01  8.50000000E-01  8.50000000E-01
  8.50000000E-01  8.50000000E-01  8.50000000E-01  8.50000000E-01  8.50000000E-01
  8.50000000E-01  8.50000000E-01  8.50000000E-01  8.50000000E-01  8.50000000E-01
  8.50000000E-01  8.50000000E-01  8.50000000E-01  8.50000000E-01  8.50000000E-01
  8.50000000E-01  8.50000000E-01  8.50000000E-01  8.50000000E-01  8.50000000E-01
  8.50000000E-01  8.50000000E-01  8.50000000E-01  8.50000000E-01  8.50000000E-01
  8.50000000E-01  8.50000000E-01  8.50000000E-01  8.50000000E-01  8.50000000E-01
  8.50000000E-01  8.50000000E-01  8.50000000E-01  8.50000000E-01  8.50000000E-01
  8.50000000E-01  8.50000000E-01  8.50000000E-01  8.50000000E-01  8.50000000E-01
  8.50000000E-01  8.50000000E-01  8.50000000E-01  8.50000000E-01  8.50000000E-01
  8.50000000E-01  8.50000000E-01  8.50000000E-01  8.50000000E-01  8.50000000E-01
  8.50000000E-01  8.50000000E-01  8.50000000E-01  8.50000000E-01  8.50000000E-01
  8.50000000E-01  8.50000000E-01  8.50000000E-01  8.50000000E-01  8.50000000E-01
  8.50000000E-01  8.50000000E-01  8.50000000E-01  8.50000000E-01  8.50000000E-01
  8.50000000E-01  8.50000000E-01  8.50000000E-01  8.50000000E-01  8.50000000E-01
  8.50000000E-01  8.50000000E-01  8.50000000E-01  8.50000000E-01  8.50000000E-01
  8.50000000E-01  8.50000000E-01  8.50000000E-01  8.50000000E-01  8.50000000E-01
  8.50000000E-01  8.50000000E-01  8.50000000E-01  8.50000000E-01  8.50000000E-01
  8.50000000E-01  8.50000000E-01  8.50000000E-01  8.50000000E-01  8.50000000E-01
  8.50000000E-01  8.50000000E-01  8.50000000E-01  8.50000000E-01  8.50000000E-01
  8.50000000E-01  8.50000000E-01  8.50000000E-01  8.50000000E-01  8.50000000E-01
  8.50000000E-01  8.50000000E-01  8.50000000E-01  8.50000000E-01  8.50000000E-01
  8.50000000E-01  8.50000000E-01  8.50000000E-01  8.50000000E-01  8.50000000E-01
  8.50000000E-01  8.50000000E-01  8.50000000E-01  8.50000000E-01  8.50000000E-01
  8.50000000E-01  8.50000000E-01  8.50000000E-01  8.50000000E-01  8.50000000E-01
  8.50000000E-01  8.50000000E-01  8.50000000E-01  8.50000000E-01  8.50000000E-01
  8.50000000E-01  8.50000000E-01  8.50000000E-01  8.50000000E-01  8.50000000E-01
  8.50000000E-01  8.50000000E-01  8.50000000E-01  8.50000000E-01  8.50000000E-01
  8.50000000E-01  8.50000000E-01  8.50000000E-01  8.50000000E-01  8.50000000E-01
  8.50000000E-01  8.50000000E-01  8.50000000E-01  8.50000000E-01  8.50000000E-01
  8.50000000E-01  8.50000000E-01  8.50000000E-01  8.50000000E-01  8.50000000E-01
  8.50000000E-01  8.50000000E-01  8.50000000E-01  8.50000000E-01  8.50000000E-01
  8.50000000E-01  8.50000000E-01  8.50000000E-01  8.50000000E-01  8.50000000E-01
  8.50000000E-01  8.50000000E-01  8.50000000E-01  8.50000000E-01  8.50000000E-01
  8.50000000E-01  8.50000000E-01  8.50000000E-01  8.50000000E-01  8.50000000E-01
  8.50000000E-01  8.50000000E-01  8.50000000E-01  8.50000000E-01  8.50000000E-01
  8.50000000E-01  8.50000000E-01  8.50000000E-01  8.50000000E-01  8.50000000E-01
  8.50000000E-01  8.50000000E-01  8.50000000E-01  8.50000000E-01  8.50000000E-01
  8.50000000E-01  8.50000000E-01  8.50000000E-01  8.50000000E-01  8.50000000E-01
  8.50000000E-01  8.50000000E-01  8.50000000E-01  8.50000000E-01  8.50000000E-01
  8.50000000E-01  8.50000000E-01  8.50000000E-01  8.50000000E-01  8.50000000E-01
  8.50000000E-01  8.50000000E-01  8.50000000E-01  8.50000000E-01  8.50000000E-01
  8.50000000E-01  8.50000000E-01  8.50000000E-01  8.50000000E-01  8.50000000E-01
  8.50000000E-01  8.50000000E-01  8.50000000E-01  8.50000000E-01  8.50000000E-01
  8.50000000E-01  8.50000000E-01  8.50000000E-01  8.50000000E-01  8.50000000E-01
  8.50000000E-01  8.50000000E-01  8.50000000E-01  8.50000000E-01  8.50000000E-01
  8.50000000E-01  8.50000000E-01  8.50000000E-01  8.50000000E-01  8.50000000E-01
  8.50000000E-01  8.50000000E-01  8.50000000E-01  8.50000000E-01  8.50000000E-01
  8.50000000E-01  8.50000000E-01  8.50000000E-01  8.50000000E-01  8.50000000E-01
  8.50000000E-01  8.50000000E-01  8.50000000E-01  8.50000000E-01  8.50000000E-01
  8.50000000E-01  8.50000000E-01  8.50000000E-01  8.50000000E-01  8.50000000E-01
  8.50000000E-01  8.50000000E-01  8.50000000E-01  8.50000000E-01  8.50000000E-01
  8.50000000E-01  8.50000000E-01  8.50000000E-01  8.50000000E-01  8.50000000E-01
  8.50000000E-01  8.50000000E-01  8.50000000E-01  8.50000000E-01  8.50000000E-01
  8.50000000E-01  8.50000000E-01  8.50000000E-01  8.50000000E-01  8.50000000E-01
  8.50000000E-01  8.50000000E-01  8.50000000E-01  8.50000000E-01  8.50000000E-01
  8.50000000E-01  8.50000000E-01  8.50000000E-01  8.50000000E-01  8.50000000E-01
  8.50000000E-01  8.50000000E-01  8.50000000E-01  8.50000000E-01  8.50000000E-01
  8.50000000E-01  8.50000000E-01  8.50000000E-01  8.50000000E-01  8.50000000E-01
  8.50000000E-01  8.50000000E-01  8.50000000E-01  8.50000000E-01  8.50000000E-01
  8.50000000E-01  8.50000000E-01  8.50000000E-01  8.50000000E-01  8.50000000E-01
  8.50000000E-01  8.50000000E-01  8.50000000E-01  8.50000000E-01  8.50000000E-01
  8.50000000E-01  8.50000000E-01  8.50000000E-01  8.50000000E-01  8.50000000E-01
  8.50000000E-01  8.50000000E-01  8.50000000E-01  8.50000000E-01  8.50000000E-01
  8.50000000E-01  8.50000000E-01  8.50000000E-01  8.50000000E-01  8.50000000E-01
  8.50000000E-01  8.50000000E-01  8.50000000E-01  8.50000000E-01  8.50000000E-01
  8.50000000E-01  8.50000000E-01  8.50000000E-01  8.50000000E-01  8.50000000E-01
  8.50000000E-01  8.50000000E-01  8.50000000E-01  8.50000000E-01  8.50000000E-01
  8.50000000E-01  8.50000000E-01  8.50000000E-01  8.50000000E-01  8.50000000E-01
  8.50000000E-01  8.50000000E-01  8.50000000E-01  8.50000000E-01  8.50000000E-01
  8.50000000E-01  8.50000000E-01  8.50000000E-01  8.50000000E-01  8.50000000E-01
  8.50000000E-01  8.50000000E-01  8.50000000E-01  8.50000000E-01  8.50000000E-01
  8.50000000E-01  8.50000000E-01  8.50000000E-01  8.50000000E-01  8.50000000E-01
  8.50000000E-01  8.50000000E-01  8.50000000E-01  8.50000000E-01  8.50000000E-01
  8.50000000E-01  8.50000000E-01  8.50000000E-01  8.50000000E-01  8.50000000E-01
  8.50000000E-01  8.50000000E-01  8.50000000E-01  8.50000000E-01  8.50000000E-01
  8.50000000E-01  8.50000000E-01  8.50000000E-01  8.50000000E-01  8.50000000E-01
  8.50000000E-01  8.50000000E-01  8.50000000E-01  8.50000000E-01  8.50000000E-01
  8.50000000E-01  8.50000000E-01  8.50000000E-01  8.50000000E-01  8.50000000E-01
  8.50000000E-01  8.50000000E-01  8.50000000E-01  8.50000000E-01  8.50000000E-01
  8.50000000E-01  8.50000000E-01  8.50000000E-01  8.50000000E-01  8.50000000E-01
  8.50000000E-01  8.50000000E-01  8.50000000E-01  8.50000000E-01  8.50000000E-01
  8.50000000E-01  8.50000000E-01  8.50000000E-01  8.50000000E-01  8.50000000E-01
  8.50000000E-01  8.50000000E-01  8.50000000E-01  8.50000000E-01  8.50000000E-01
  8.50000000E-01  8.50000000E-01  8.50000000E-01  8.50000000E-01  8.50000000E-01
  8.50000000E-01  8.50000000E-01  8.50000000E-01  8.50000000E-01  8.50000000E-01
  8.50000000E-01  8.50000000E-01  8.50000000E-01  8.50000000E-01  8.50000000E-01
  8.50000000E-01  8.50000000E-01  8.50000000E-01  8.50000000E-01  8.50000000E-01
  8.50000000E-01  8.50000000E-01  8.50000000E-01  8.50000000E-01  8.50000000E-01
  8.50000000E-01  8.50000000E-01  8.50000000E-01  8.50000000E-01  8.50000000E-01
  8.50000000E-01  8.50000000E-01  8.50000000E-01  8.50000000E-01  8.50000000E-01
  8.50000000E-01  8.50000000E-01  8.50000000E-01  8.50000000E-01  8.50000000E-01
  8.50000000E-01  8.50000000E-01  8.50000000E-01  8.50000000E-01  8.50000000E-01
  8.50000000E-01  8.50000000E-01  8.50000000E-01  8.50000000E-01  8.50000000E-01
  8.50000000E-01  8.50000000E-01  8.50000000E-01  8.50000000E-01  8.50000000E-01
  8.50000000E-01  8.50000000E-01  8.50000000E-01  8.50000000E-01  8.50000000E-01
  8.50000000E-01  8.50000000E-01  8.50000000E-01  8.50000000E-01  8.50000000E-01
  8.50000000E-01  8.50000000E-01  8.50000000E-01  8.50000000E-01  8.50000000E-01
  8.50000000E-01  8.50000000E-01  8.50000000E-01  8.50000000E-01  8.50000000E-01
  8.50000000E-01  8.50000000E-01  8.50000000E-01  8.50000000E-01  8.50000000E-01
  8.50000000E-01  8.50000000E-01  8.50000000E-01  8.50000000E-01  8.50000000E-01
  8.50000000E-01  8.50000000E-01  8.50000000E-01  8.50000000E-01  8.50000000E-01
  8.50000000E-01  8.50000000E-01  8.50000000E-01  8.50000000E-01  8.50000000E-01
  8.50000000E-01  8.50000000E-01  8.50000000E-01  8.50000000E-01  8.50000000E-01
  8.50000000E-01  8.50000000E-01  8.50000000E-01  8.50000000E-01  8.50000000E-01
  8.50000000E-01  8.50000000E-01  8.50000000E-01  8.50000000E-01  8.50000000E-01
  8.50000000E-01  8.50000000E-01  8.50000000E-01  8.50000000E-01  8.50000000E-01
  8.50000000E-01  8.50000000E-01  8.50000000E-01  8.50000000E-01  8.50000000E-01
  8.50000000E-01  8.50000000E-01  8.50000000E-01  8.50000000E-01  8.50000000E-01
  8.50000000E-01  8.50000000E-01  8.50000000E-01  8.50000000E-01  8.50000000E-01
  8.50000000E-01  8.50000000E-01  8.50000000E-01  8.50000000E-01  8.50000000E-01
  8.50000000E-01  8.50000000E-01  8.50000000E-01  8.50000000E-01  8.50000000E-01
  8.50000000E-01  8.50000000E-01  8.50000000E-01  8.50000000E-01  8.50000000E-01
  8.50000000E-01  8.50000000E-01  8.50000000E-01  8.50000000E-01  8.50000000E-01
  8.50000000E-01  8.50000000E-01  8.50000000E-01  8.50000000E-01  8.50000000E-01
  8.50000000E-01  8.50000000E-01  8.50000000E-01  8.50000000E-01  8.50000000E-01
  8.50000000E-01  8.50000000E-01  8.50000000E-01  8.50000000E-01  8.50000000E-01
  8.50000000E-01  8.50000000E-01  8.50000000E-01  8.50000000E-01  8.50000000E-01
  8.50000000E-01  8.50000000E-01  8.50000000E-01  8.50000000E-01  8.50000000E-01
  8.50000000E-01  8.50000000E-01  8.50000000E-01  8.50000000E-01  8.50000000E-01
  8.50000000E-01  8.50000000E-01  8.50000000E-01  8.50000000E-01  8.50000000E-01
  8.50000000E-01  8.50000000E-01  8.50000000E-01  8.50000000E-01  8.50000000E-01
  8.50000000E-01  8.50000000E-01  8.50000000E-01  8.50000000E-01  8.50000000E-01
  8.50000000E-01  8.50000000E-01  8.50000000E-01  8.50000000E-01  8.50000000E-01
  8.50000000E-01  8.50000000E-01  8.50000000E-01  8.50000000E-01  8.50000000E-01
  8.50000000E-01  8.50000000E-01  8.50000000E-01  8.50000000E-01  8.50000000E-01
  8.50000000E-01  8.50000000E-01  8.50000000E-01  8.50000000E-01  8.50000000E-01
  8.50000000E-01  8.50000000E-01  8.50000000E-01  8.50000000E-01  8.50000000E-01
  8.50000000E-01  8.50000000E-01  8.50000000E-01  8.50000000E-01  8.50000000E-01
  8.50000000E-01  8.50000000E-01  8.50000000E-01  8.50000000E-01  8.50000000E-01
  8.50000000E-01  8.50000000E-01  8.50000000E-01  8.50000000E-01  8.50000000E-01
  8.50000000E-01  8.50000000E-01  8.50000000E-01  8.50000000E-01  8.50000000E-01
  8.50000000E-01  8.50000000E-01  8.50000000E-01  8.50000000E-01  8.50000000E-01
  8.50000000E-01  8.50000000E-01  8.50000000E-01  8.50000000E-01  8.50000000E-01
  8.50000000E-01  8.50000000E-01  8.50000000E-01  8.50000000E-01  8.50000000E-01
  8.50000000E-01  8.50000000E-01  8.50000000E-01  8.50000000E-01  8.50000000E-01
  8.50000000E-01  8.50000000E-01  8.50000000E-01  8.50000000E-01  8.50000000E-01
  8.50000000E-01  8.50000000E-01  8.50000000E-01  8.50000000E-01  8.50000000E-01
  8.50000000E-01  8.50000000E-01  8.50000000E-01  8.50000000E-01  8.50000000E-01
  8.50000000E-01  8.50000000E-01  8.50000000E-01  8.50000000E-01  8.50000000E-01
  8.50000000E-01  8.50000000E-01  8.50000000E-01  8.50000000E-01  8.50000000E-01
  8.50000000E-01  8.50000000E-01  8.50000000E-01  8.50000000E-01  8.50000000E-01
  8.50000000E-01  8.50000000E-01  8.50000000E-01  8.50000000E-01  8.50000000E-01
  8.50000000E-01  8.50000000E-01  8.50000000E-01  8.50000000E-01  8.50000000E-01
  8.50000000E-01  8.50000000E-01  8.50000000E-01  8.50000000E-01  8.50000000E-01
  8.50000000E-01  8.50000000E-01  8.50000000E-01  8.50000000E-01  8.50000000E-01
  8.50000000E-01  8.50000000E-01  8.50000000E-01  8.50000000E-01  8.50000000E-01
  8.50000000E-01  8.50000000E-01  8.50000000E-01  8.50000000E-01  8.50000000E-01
  8.50000000E-01  8.50000000E-01  8.50000000E-01  8.50000000E-01  8.50000000E-01
  8.50000000E-01  8.50000000E-01  8.50000000E-01  8.50000000E-01  8.50000000E-01
  8.50000000E-01  8.50000000E-01  8.50000000E-01  8.50000000E-01  8.50000000E-01
  8.50000000E-01  8.50000000E-01  8.50000000E-01  8.50000000E-01  8.50000000E-01
  8.50000000E-01  8.50000000E-01  8.50000000E-01  8.50000000E-01  8.50000000E-01
  8.50000000E-01  8.50000000E-01  8.50000000E-01  8.50000000E-01  8.50000000E-01
  8.50000000E-01  8.50000000E-01  8.50000000E-01  8.50000000E-01  8.50000000E-01
  8.50000000E-01  8.50000000E-01  8.50000000E-01  8.50000000E-01  8.50000000E-01
  8.50000000E-01  8.50000000E-01  8.50000000E-01  8.50000000E-01  8.50000000E-01
  8.50000000E-01  8.50000000E-01  8.50000000E-01  8.50000000E-01  8.50000000E-01
  8.50000000E-01  8.50000000E-01  8.50000000E-01  8.50000000E-01  8.50000000E-01
  8.50000000E-01  8.50000000E-01  8.50000000E-01  8.50000000E-01  8.50000000E-01
  8.50000000E-01  8.50000000E-01  8.50000000E-01  8.50000000E-01  8.50000000E-01
  8.50000000E-01  8.50000000E-01  8.50000000E-01  8.50000000E-01  8.50000000E-01
  8.50000000E-01  8.50000000E-01  8.50000000E-01  8.50000000E-01  8.50000000E-01
  8.50000000E-01  8.50000000E-01  8.50000000E-01  8.50000000E-01  8.50000000E-01
  8.50000000E-01  8.50000000E-01  8.50000000E-01  8.50000000E-01  8.50000000E-01
  8.50000000E-01  8.50000000E-01  8.50000000E-01  8.50000000E-01  8.50000000E-01
  8.50000000E-01  8.50000000E-01  8.50000000E-01  8.50000000E-01  8.50000000E-01
  8.50000000E-01  8.50000000E-01  8.50000000E-01  8.50000000E-01  8.50000000E-01
  8.50000000E-01  8.50000000E-01  8.50000000E-01  8.50000000E-01  8.50000000E-01
  8.50000000E-01  8.50000000E-01  8.50000000E-01  8.50000000E-01  8.50000000E-01
  8.50000000E-01  8.50000000E-01  8.50000000E-01  8.50000000E-01  8.50000000E-01
  8.50000000E-01  8.50000000E-01  8.50000000E-01  8.50000000E-01  8.50000000E-01
  8.50000000E-01  8.50000000E-01  8.50000000E-01  8.50000000E-01  8.50000000E-01
  8.50000000E-01  8.50000000E-01  8.50000000E-01  8.50000000E-01  8.50000000E-01
  8.50000000E-01  8.50000000E-01  8.50000000E-01  8.50000000E-01  8.50000000E-01
  8.50000000E-01  8.50000000E-01  8.50000000E-01  8.50000000E-01  8.50000000E-01
  8.50000000E-01  8.50000000E-01  8.50000000E-01  8.50000000E-01  8.50000000E-01
  8.50000000E-01  8.50000000E-01  8.50000000E-01  8.50000000E-01  8.50000000E-01
  8.50000000E-01  8.50000000E-01  8.50000000E-01  8.50000000E-01  8.50000000E-01
  8.50000000E-01  8.50000000E-01  8.50000000E-01  8.50000000E-01  8.50000000E-01
  8.50000000E-01  8.50000000E-01  8.50000000E-01  8.50000000E-01  8.50000000E-01
  8.50000000E-01  8.50000000E-01  8.50000000E-01  8.50000000E-01  8.50000000E-01
  8.50000000E-01  8.50000000E-01  8.50000000E-01  8.50000000E-01  8.50000000E-01
  8.50000000E-01  8.50000000E-01  8.50000000E-01  8.50000000E-01  8.50000000E-01
  8.50000000E-01  8.50000000E-01  8.50000000E-01  8.50000000E-01  8.50000000E-01
  8.50000000E-01  8.50000000E-01  8.50000000E-01  8.50000000E-01  8.50000000E-01
  8.50000000E-01  8.50000000E-01  8.50000000E-01  8.50000000E-01  8.50000000E-01
  8.50000000E-01  8.50000000E-01  8.50000000E-01  8.50000000E-01  8.50000000E-01
  8.50000000E-01  8.50000000E-01  8.50000000E-01  8.50000000E-01  8.50000000E-01
  8.50000000E-01  8.50000000E-01  8.50000000E-01  8.50000000E-01  8.50000000E-01
  8.50000000E-01  8.50000000E-01  8.50000000E-01  8.50000000E-01  8.50000000E-01
  8.50000000E-01  8.50000000E-01  8.50000000E-01  8.50000000E-01  8.50000000E-01
  8.50000000E-01  8.50000000E-01  8.50000000E-01  8.50000000E-01  8.50000000E-01
  8.50000000E-01  8.50000000E-01  8.50000000E-01  8.50000000E-01  8.50000000E-01
  8.50000000E-01  8.50000000E-01  8.50000000E-01  8.50000000E-01  8.50000000E-01
  8.50000000E-01  8.50000000E-01  8.50000000E-01  8.50000000E-01  8.50000000E-01
  8.50000000E-01  8.50000000E-01  8.50000000E-01  8.50000000E-01  8.50000000E-01
  8.50000000E-01  8.50000000E-01  8.50000000E-01  8.50000000E-01  8.50000000E-01
  8.50000000E-01  8.50000000E-01  8.50000000E-01  8.50000000E-01  8.50000000E-01
  8.50000000E-01  8.50000000E-01  8.50000000E-01  8.50000000E-01  8.50000000E-01
  8.50000000E-01  8.50000000E-01  8.50000000E-01  8.50000000E-01  8.50000000E-01
  8.50000000E-01  8.50000000E-01  8.50000000E-01  8.50000000E-01  8.50000000E-01
  8.50000000E-01  8.50000000E-01  8.50000000E-01  8.50000000E-01  8.50000000E-01
  8.50000000E-01  8.50000000E-01  8.50000000E-01  8.50000000E-01  8.50000000E-01
  8.50000000E-01  8.50000000E-01  8.50000000E-01  8.50000000E-01  8.50000000E-01
  8.50000000E-01  8.50000000E-01  8.50000000E-01  8.50000000E-01  8.50000000E-01
  8.50000000E-01  8.50000000E-01  8.50000000E-01  8.50000000E-01  8.50000000E-01
  8.50000000E-01  8.50000000E-01  8.50000000E-01  8.50000000E-01  8.50000000E-01
  8.50000000E-01  8.50000000E-01  8.50000000E-01  8.50000000E-01  8.50000000E-01
  8.50000000E-01  8.50000000E-01  8.50000000E-01  8.50000000E-01  8.50000000E-01
  8.50000000E-01  8.50000000E-01  8.50000000E-01  8.50000000E-01  8.50000000E-01
  8.50000000E-01  8.50000000E-01  8.50000000E-01  8.50000000E-01  8.50000000E-01
  8.50000000E-01  8.50000000E-01  8.50000000E-01  8.50000000E-01  8.50000000E-01
  8.50000000E-01  8.50000000E-01  8.50000000E-01  8.50000000E-01  8.50000000E-01
  8.50000000E-01  8.50000000E-01  8.50000000E-01  8.50000000E-01  8.50000000E-01
  8.50000000E-01  8.50000000E-01  8.50000000E-01  8.50000000E-01  8.50000000E-01
  8.50000000E-01  8.50000000E-01  8.50000000E-01  8.50000000E-01  8.50000000E-01
  8.50000000E-01  8.50000000E-01  8.50000000E-01  8.50000000E-01  8.50000000E-01
  8.50000000E-01  8.50000000E-01  8.50000000E-01  8.50000000E-01  8.50000000E-01
  8.50000000E-01  8.50000000E-01  8.50000000E-01  8.50000000E-01  8.50000000E-01
  8.50000000E-01  8.50000000E-01  8.50000000E-01  8.50000000E-01  8.50000000E-01
  8.50000000E-01  8.50000000E-01  8.50000000E-01  8.50000000E-01  8.50000000E-01
  8.50000000E-01  8.50000000E-01  8.50000000E-01  8.50000000E-01  8.50000000E-01
  8.50000000E-01  8.50000000E-01  8.50000000E-01  8.50000000E-01  8.50000000E-01
  8.50000000E-01  8.50000000E-01  8.50000000E-01  8.50000000E-01  8.50000000E-01
  8.50000000E-01  8.50000000E-01  8.50000000E-01  8.50000000E-01  8.50000000E-01
  8.50000000E-01  8.50000000E-01  8.50000000E-01  8.50000000E-01  8.50000000E-01
  8.50000000E-01  8.50000000E-01  8.50000000E-01  8.50000000E-01  8.50000000E-01
  8.50000000E-01  8.50000000E-01  8.50000000E-01  8.50000000E-01  8.50000000E-01
  8.50000000E-01  8.50000000E-01  8.50000000E-01  8.50000000E-01  8.50000000E-01
  8.50000000E-01  8.50000000E-01  8.50000000E-01  8.50000000E-01  8.50000000E-01
  8.50000000E-01  8.50000000E-01  8.50000000E-01  8.50000000E-01  8.50000000E-01
  8.50000000E-01  8.50000000E-01  8.50000000E-01  8.50000000E-01  8.50000000E-01
  8.50000000E-01  8.50000000E-01  8.50000000E-01  8.50000000E-01  8.50000000E-01
  8.50000000E-01  8.50000000E-01  8.50000000E-01  8.50000000E-01  8.50000000E-01
  8.50000000E-01  8.50000000E-01  8.50000000E-01  8.50000000E-01  8.50000000E-01
  8.50000000E-01  8.50000000E-01  8.50000000E-01  8.50000000E-01  8.50000000E-01
  8.50000000E-01  8.50000000E-01  8.50000000E-01  8.50000000E-01  8.50000000E-01
  8.50000000E-01  8.50000000E-01  8.50000000E-01  8.50000000E-01  8.50000000E-01
  8.50000000E-01  8.50000000E-01  8.50000000E-01  8.50000000E-01  8.50000000E-01
  8.50000000E-01  8.50000000E-01  8.50000000E-01  8.50000000E-01  8.50000000E-01
  8.50000000E-01  8.50000000E-01  8.50000000E-01  8.50000000E-01  8.50000000E-01
  8.50000000E-01  8.50000000E-01  8.50000000E-01  8.50000000E-01  8.50000000E-01
  8.50000000E-01  8.50000000E-01  8.50000000E-01  8.50000000E-01  8.50000000E-01
  8.50000000E-01  8.50000000E-01  8.50000000E-01  8.50000000E-01  8.50000000E-01
  8.50000000E-01  8.50000000E-01  8.50000000E-01  8.50000000E-01  8.50000000E-01
  8.50000000E-01  8.50000000E-01  8.50000000E-01  8.50000000E-01  8.50000000E-01
  8.50000000E-01  8.50000000E-01  8.50000000E-01  8.50000000E-01  8.50000000E-01
  8.50000000E-01  8.50000000E-01  8.50000000E-01  8.50000000E-01  8.50000000E-01
  8.50000000E-01  8.50000000E-01  8.50000000E-01  8.50000000E-01  8.50000000E-01
  8.50000000E-01  8.50000000E-01  8.50000000E-01  8.50000000E-01  8.50000000E-01
  8.50000000E-01  8.50000000E-01  8.50000000E-01  8.50000000E-01  8.50000000E-01
  8.50000000E-01  8.50000000E-01  8.50000000E-01  8.50000000E-01  8.50000000E-01
  8.50000000E-01  8.50000000E-01  8.50000000E-01  8.50000000E-01  8.50000000E-01
  8.50000000E-01  8.50000000E-01  8.50000000E-01  8.50000000E-01  8.50000000E-01
  8.50000000E-01  8.50000000E-01  8.50000000E-01  8.50000000E-01  8.50000000E-01
  8.50000000E-01  8.50000000E-01  8.50000000E-01  8.50000000E-01  8.50000000E-01
  8.50000000E-01  8.50000000E-01  8.50000000E-01  8.50000000E-01  8.50000000E-01
  8.50000000E-01  8.50000000E-01  8.50000000E-01  8.50000000E-01  8.50000000E-01
  8.50000000E-01  8.50000000E-01  8.50000000E-01  8.50000000E-01  8.50000000E-01
  8.50000000E-01  8.50000000E-01  8.50000000E-01  8.50000000E-01  8.50000000E-01
  8.50000000E-01  8.50000000E-01  8.50000000E-01  8.50000000E-01  8.50000000E-01
  8.50000000E-01  8.50000000E-01  8.50000000E-01  8.50000000E-01  8.50000000E-01
  8.50000000E-01  8.50000000E-01  8.50000000E-01  8.50000000E-01  8.50000000E-01
  8.50000000E-01  8.50000000E-01  8.50000000E-01  8.50000000E-01  8.50000000E-01
  8.50000000E-01  8.50000000E-01  8.50000000E-01  8.50000000E-01  8.50000000E-01
  8.50000000E-01  8.50000000E-01  8.50000000E-01  8.50000000E-01  8.50000000E-01
  8.50000000E-01  8.50000000E-01  8.50000000E-01  8.50000000E-01  8.50000000E-01
  8.50000000E-01  8.50000000E-01  8.50000000E-01  8.50000000E-01  8.50000000E-01
  8.50000000E-01  8.50000000E-01  8.50000000E-01  8.50000000E-01  8.50000000E-01
  8.50000000E-01  8.50000000E-01  8.50000000E-01  8.50000000E-01  8.50000000E-01
  8.50000000E-01  8.50000000E-01  8.50000000E-01  8.50000000E-01  8.50000000E-01
  8.50000000E-01  8.50000000E-01  8.50000000E-01  8.50000000E-01  8.50000000E-01
  8.50000000E-01  8.50000000E-01  8.50000000E-01  8.50000000E-01  8.50000000E-01
  8.50000000E-01  8.50000000E-01  8.50000000E-01  8.50000000E-01  8.50000000E-01
  8.50000000E-01  8.50000000E-01  8.50000000E-01  8.50000000E-01  8.50000000E-01
  8.50000000E-01  8.50000000E-01  8.50000000E-01  8.50000000E-01  8.50000000E-01
  8.50000000E-01  8.50000000E-01  8.50000000E-01  8.50000000E-01  8.50000000E-01
  8.50000000E-01  8.50000000E-01  8.50000000E-01  8.50000000E-01  8.50000000E-01
  8.50000000E-01  8.50000000E-01  8.50000000E-01  8.50000000E-01  8.50000000E-01
  8.50000000E-01  8.50000000E-01  8.50000000E-01  8.50000000E-01  8.50000000E-01
  8.50000000E-01  8.50000000E-01  8.50000000E-01  8.50000000E-01  8.50000000E-01
  8.50000000E-01  8.50000000E-01  8.50000000E-01  8.50000000E-01  8.50000000E-01
  8.50000000E-01  8.50000000E-01  8.50000000E-01  8.50000000E-01  8.50000000E-01
  8.50000000E-01  8.50000000E-01  8.50000000E-01  8.50000000E-01  8.50000000E-01
  8.50000000E-01  8.50000000E-01  8.50000000E-01  8.50000000E-01  8.50000000E-01
  8.50000000E-01  8.50000000E-01  8.50000000E-01  8.50000000E-01  8.50000000E-01
  8.50000000E-01  8.50000000E-01  8.50000000E-01  8.50000000E-01  8.50000000E-01
  8.50000000E-01  8.50000000E-01  8.50000000E-01  8.50000000E-01  8.50000000E-01
  8.50000000E-01  8.50000000E-01  8.50000000E-01  8.50000000E-01  8.50000000E-01
  8.50000000E-01  8.50000000E-01  8.50000000E-01  8.50000000E-01  8.50000000E-01
  8.50000000E-01  8.50000000E-01  8.50000000E-01  8.50000000E-01  8.50000000E-01
  8.50000000E-01  8.50000000E-01  8.50000000E-01  8.50000000E-01  8.50000000E-01
  8.50000000E-01  8.50000000E-01  8.50000000E-01  8.50000000E-01  8.50000000E-01
  8.50000000E-01  8.50000000E-01  8.50000000E-01  8.50000000E-01  8.50000000E-01
  8.50000000E-01  8.50000000E-01  8.50000000E-01  8.50000000E-01  8.50000000E-01
  8.50000000E-01  8.50000000E-01  8.50000000E-01  8.50000000E-01  8.50000000E-01
  8.50000000E-01  8.50000000E-01  8.50000000E-01  8.50000000E-01  8.50000000E-01
  8.50000000E-01  8.50000000E-01  8.50000000E-01  8.50000000E-01  8.50000000E-01
  8.50000000E-01  8.50000000E-01  8.50000000E-01  8.50000000E-01  8.50000000E-01
  8.50000000E-01  8.50000000E-01  8.50000000E-01  8.50000000E-01  8.50000000E-01
  8.50000000E-01  8.50000000E-01  8.50000000E-01  8.50000000E-01  8.50000000E-01
  8.50000000E-01  8.50000000E-01  8.50000000E-01  8.50000000E-01  8.50000000E-01
  8.50000000E-01  8.50000000E-01  8.50000000E-01  8.50000000E-01  8.50000000E-01
  8.50000000E-01  8.50000000E-01  8.50000000E-01  8.50000000E-01  8.50000000E-01
  8.50000000E-01  8.50000000E-01  8.50000000E-01  8.50000000E-01  8.50000000E-01
  8.50000000E-01  8.50000000E-01  8.50000000E-01  8.50000000E-01  8.50000000E-01
  8.50000000E-01  8.50000000E-01  8.50000000E-01  8.50000000E-01  8.50000000E-01
  8.50000000E-01  8.50000000E-01  8.50000000E-01  8.50000000E-01  8.50000000E-01
  8.50000000E-01  8.50000000E-01  8.50000000E-01  8.50000000E-01  8.50000000E-01
  8.50000000E-01  8.50000000E-01  8.50000000E-01  8.50000000E-01  8.50000000E-01
  8.50000000E-01  8.50000000E-01  8.50000000E-01  8.50000000E-01  8.50000000E-01
  8.50000000E-01  8.50000000E-01  8.50000000E-01  8.50000000E-01  8.50000000E-01
  8.50000000E-01  8.50000000E-01  8.50000000E-01  8.50000000E-01  8.50000000E-01
  8.50000000E-01  8.50000000E-01  8.50000000E-01  8.50000000E-01  8.50000000E-01
  8.50000000E-01  8.50000000E-01  8.50000000E-01  8.50000000E-01  8.50000000E-01
  8.50000000E-01  8.50000000E-01  8.50000000E-01  8.50000000E-01  8.50000000E-01
  8.50000000E-01  8.50000000E-01  8.50000000E-01  8.50000000E-01  8.50000000E-01
  8.50000000E-01  8.50000000E-01  8.50000000E-01  8.50000000E-01  8.50000000E-01
  8.50000000E-01  8.50000000E-01  8.50000000E-01  8.50000000E-01  8.50000000E-01
  8.50000000E-01  8.50000000E-01  8.50000000E-01  8.50000000E-01  8.50000000E-01
  8.50000000E-01  8.50000000E-01  8.50000000E-01  8.50000000E-01  8.50000000E-01
  8.50000000E-01  8.50000000E-01  8.50000000E-01  8.50000000E-01  8.50000000E-01
  8.50000000E-01  8.50000000E-01  8.50000000E-01  8.50000000E-01  8.50000000E-01
  8.50000000E-01  8.50000000E-01  8.50000000E-01  8.50000000E-01  8.50000000E-01
  8.50000000E-01  8.50000000E-01  8.50000000E-01  8.50000000E-01  8.50000000E-01
  8.50000000E-01  8.50000000E-01  8.50000000E-01  8.50000000E-01  8.50000000E-01
  8.50000000E-01  8.50000000E-01  8.50000000E-01  8.50000000E-01  8.50000000E-01
  8.50000000E-01  8.50000000E-01  8.50000000E-01  8.50000000E-01  8.50000000E-01
  8.50000000E-01  8.50000000E-01  8.50000000E-01  8.50000000E-01  8.50000000E-01
  8.50000000E-01  8.50000000E-01  8.50000000E-01  8.50000000E-01  8.50000000E-01
  8.50000000E-01  8.50000000E-01  8.50000000E-01  8.50000000E-01  8.50000000E-01
  8.50000000E-01  8.50000000E-01  8.50000000E-01  8.50000000E-01  8.50000000E-01
  8.50000000E-01  8.50000000E-01  8.50000000E-01  8.50000000E-01  8.50000000E-01
  8.50000000E-01  8.50000000E-01  8.50000000E-01  8.50000000E-01  8.50000000E-01
  8.50000000E-01  8.50000000E-01  8.50000000E-01  8.50000000E-01  8.50000000E-01
  8.50000000E-01  8.50000000E-01  8.50000000E-01  8.50000000E-01  8.50000000E-01
  8.50000000E-01  8.50000000E-01  8.50000000E-01  8.50000000E-01  8.50000000E-01
  8.50000000E-01  8.50000000E-01  8.50000000E-01  8.50000000E-01  8.50000000E-01
  8.50000000E-01  8.50000000E-01  8.50000000E-01  8.50000000E-01  8.50000000E-01
  8.50000000E-01  8.50000000E-01  8.50000000E-01  8.50000000E-01  8.50000000E-01
  8.50000000E-01  8.50000000E-01  8.50000000E-01  8.50000000E-01  8.50000000E-01
  8.50000000E-01  8.50000000E-01  8.50000000E-01  8.50000000E-01  8.50000000E-01
  8.50000000E-01  8.50000000E-01  8.50000000E-01  8.50000000E-01  8.50000000E-01
  8.50000000E-01  8.50000000E-01  8.50000000E-01  8.50000000E-01  8.50000000E-01
  8.50000000E-01  8.50000000E-01  8.50000000E-01  8.50000000E-01  8.50000000E-01
  8.50000000E-01  8.50000000E-01  8.50000000E-01  8.50000000E-01  8.50000000E-01
  8.50000000E-01  8.50000000E-01  8.50000000E-01  8.50000000E-01  8.50000000E-01
  8.50000000E-01  8.50000000E-01  8.50000000E-01  8.50000000E-01  8.50000000E-01
  8.50000000E-01  8.50000000E-01  8.50000000E-01  8.50000000E-01  8.50000000E-01
  8.50000000E-01  8.50000000E-01  8.50000000E-01  8.50000000E-01  8.50000000E-01
  8.50000000E-01  8.50000000E-01  8.50000000E-01  8.50000000E-01  8.50000000E-01
  8.50000000E-01  8.50000000E-01  8.50000000E-01  8.50000000E-01  8.50000000E-01
  8.50000000E-01  8.50000000E-01  8.50000000E-01  8.50000000E-01  8.50000000E-01
  8.50000000E-01  8.50000000E-01  8.50000000E-01  8.50000000E-01  8.50000000E-01
  8.50000000E-01  8.50000000E-01  8.50000000E-01  8.50000000E-01  8.50000000E-01
  8.50000000E-01  8.50000000E-01  8.50000000E-01  8.50000000E-01  8.50000000E-01
  8.50000000E-01  8.50000000E-01  8.50000000E-01  8.50000000E-01  8.50000000E-01
  8.50000000E-01  8.50000000E-01  8.50000000E-01  8.50000000E-01  8.50000000E-01
  8.50000000E-01  8.50000000E-01  8.50000000E-01  8.50000000E-01  8.50000000E-01
  8.50000000E-01  8.50000000E-01  8.50000000E-01  8.50000000E-01  8.50000000E-01
  8.50000000E-01  8.50000000E-01  8.50000000E-01  8.50000000E-01  8.50000000E-01
  8.50000000E-01  8.50000000E-01  8.50000000E-01  8.50000000E-01  8.50000000E-01
  8.50000000E-01  8.50000000E-01  8.50000000E-01  8.50000000E-01  8.50000000E-01
  8.50000000E-01  8.50000000E-01  8.50000000E-01  8.50000000E-01  8.50000000E-01
  8.50000000E-01  8.50000000E-01  8.50000000E-01  8.50000000E-01  8.50000000E-01
  8.50000000E-01  8.50000000E-01  8.50000000E-01  8.50000000E-01  8.50000000E-01
  8.50000000E-01  8.50000000E-01  8.50000000E-01  8.50000000E-01  8.50000000E-01
  8.50000000E-01  8.50000000E-01  8.50000000E-01  8.50000000E-01  8.50000000E-01
  8.50000000E-01  8.50000000E-01  8.50000000E-01  8.50000000E-01  8.50000000E-01
  8.50000000E-01  8.50000000E-01  8.50000000E-01  8.50000000E-01  8.50000000E-01
  8.50000000E-01  8.50000000E-01  8.50000000E-01  8.50000000E-01  8.50000000E-01
  8.50000000E-01  8.50000000E-01  8.50000000E-01  8.50000000E-01  8.50000000E-01
  8.50000000E-01  8.50000000E-01  8.50000000E-01  8.50000000E-01  8.50000000E-01
  8.50000000E-01  8.50000000E-01  8.50000000E-01  8.50000000E-01  8.50000000E-01
  8.50000000E-01  8.50000000E-01  8.50000000E-01  8.50000000E-01  8.50000000E-01
  8.50000000E-01  8.50000000E-01  8.50000000E-01  8.50000000E-01  8.50000000E-01
  8.50000000E-01  8.50000000E-01  8.50000000E-01  8.50000000E-01  8.50000000E-01
  8.50000000E-01  8.50000000E-01  8.50000000E-01  8.50000000E-01  8.50000000E-01
  8.50000000E-01  8.50000000E-01  8.50000000E-01  8.50000000E-01  8.50000000E-01
  8.50000000E-01  8.50000000E-01  8.50000000E-01  8.50000000E-01  8.50000000E-01
  8.50000000E-01  8.50000000E-01  8.50000000E-01  8.50000000E-01  8.50000000E-01
  8.50000000E-01  8.50000000E-01  8.50000000E-01  8.50000000E-01  8.50000000E-01
  8.50000000E-01  8.50000000E-01  8.50000000E-01  8.50000000E-01  8.50000000E-01
  8.50000000E-01  8.50000000E-01  8.50000000E-01  8.50000000E-01  8.50000000E-01
  8.50000000E-01  8.50000000E-01  8.50000000E-01  8.50000000E-01  8.50000000E-01
  8.50000000E-01  8.50000000E-01  8.50000000E-01  8.50000000E-01  8.50000000E-01
  8.50000000E-01  8.50000000E-01  8.50000000E-01  8.50000000E-01  8.50000000E-01
  8.50000000E-01  8.50000000E-01  8.50000000E-01  8.50000000E-01  8.50000000E-01
  8.50000000E-01  8.50000000E-01  8.50000000E-01  8.50000000E-01  8.50000000E-01
  8.50000000E-01  8.50000000E-01  8.50000000E-01  8.50000000E-01  8.50000000E-01
  8.50000000E-01  8.50000000E-01  8.50000000E-01  8.50000000E-01  8.50000000E-01
  8.50000000E-01  8.50000000E-01  8.50000000E-01  8.50000000E-01  8.50000000E-01
  8.50000000E-01  8.50000000E-01  8.50000000E-01  8.50000000E-01  8.50000000E-01
  8.50000000E-01  8.50000000E-01  8.50000000E-01  8.50000000E-01  8.50000000E-01
  8.50000000E-01  8.50000000E-01  8.50000000E-01  8.50000000E-01  8.50000000E-01
  8.50000000E-01  8.50000000E-01  8.50000000E-01  8.50000000E-01  8.50000000E-01
  8.50000000E-01  8.50000000E-01  8.50000000E-01  8.50000000E-01  8.50000000E-01
  8.50000000E-01  8.50000000E-01  8.50000000E-01  8.50000000E-01  8.50000000E-01
  8.50000000E-01  8.50000000E-01  8.50000000E-01  8.50000000E-01  8.50000000E-01
  8.50000000E-01  8.50000000E-01  8.50000000E-01  8.50000000E-01  8.50000000E-01
  8.50000000E-01  8.50000000E-01  8.50000000E-01  8.50000000E-01  8.50000000E-01
  8.50000000E-01  8.50000000E-01  8.50000000E-01  8.50000000E-01  8.50000000E-01
  8.50000000E-01  8.50000000E-01  8.50000000E-01  8.50000000E-01  8.50000000E-01
  8.50000000E-01  8.50000000E-01  8.50000000E-01  8.50000000E-01  8.50000000E-01
  8.50000000E-01  8.50000000E-01  8.50000000E-01  8.50000000E-01  8.50000000E-01
  8.50000000E-01  8.50000000E-01  8.50000000E-01  8.50000000E-01  8.50000000E-01
  8.50000000E-01  8.50000000E-01  8.50000000E-01  8.50000000E-01  8.50000000E-01
  8.50000000E-01  8.50000000E-01  8.50000000E-01  8.50000000E-01  8.50000000E-01
  8.50000000E-01  8.50000000E-01  8.50000000E-01  8.50000000E-01  8.50000000E-01
  8.50000000E-01  8.50000000E-01  8.50000000E-01  8.50000000E-01  8.50000000E-01
  8.50000000E-01  8.50000000E-01  8.50000000E-01  8.50000000E-01  8.50000000E-01
  8.50000000E-01  8.50000000E-01  8.50000000E-01  8.50000000E-01  8.50000000E-01
  8.50000000E-01  8.50000000E-01  8.50000000E-01  8.50000000E-01  8.50000000E-01
  8.50000000E-01  8.50000000E-01  8.50000000E-01  8.50000000E-01  8.50000000E-01
  8.50000000E-01  8.50000000E-01  8.50000000E-01  8.50000000E-01  8.50000000E-01
  8.50000000E-01  8.50000000E-01  8.50000000E-01  8.50000000E-01  8.50000000E-01
  8.50000000E-01  8.50000000E-01  8.50000000E-01  8.50000000E-01  8.50000000E-01
  8.50000000E-01  8.50000000E-01  8.50000000E-01  8.50000000E-01  8.50000000E-01
  8.50000000E-01  8.50000000E-01  8.50000000E-01  8.50000000E-01  8.50000000E-01
  8.50000000E-01  8.50000000E-01  8.50000000E-01  8.50000000E-01  8.50000000E-01
  8.50000000E-01  8.50000000E-01  8.50000000E-01  8.50000000E-01  8.50000000E-01
  8.50000000E-01  8.50000000E-01  8.50000000E-01  8.50000000E-01  8.50000000E-01
  8.50000000E-01  8.50000000E-01  8.50000000E-01  8.50000000E-01  8.50000000E-01
  8.50000000E-01  8.50000000E-01  8.50000000E-01  8.50000000E-01  8.50000000E-01
  8.50000000E-01  8.50000000E-01  8.50000000E-01  8.50000000E-01  8.50000000E-01
  8.50000000E-01  8.50000000E-01  8.50000000E-01  8.50000000E-01  8.50000000E-01
  8.50000000E-01  8.50000000E-01  8.50000000E-01  8.50000000E-01  8.50000000E-01
  8.50000000E-01  8.50000000E-01  8.50000000E-01  8.50000000E-01  8.50000000E-01
  8.50000000E-01  8.50000000E-01  8.50000000E-01  8.50000000E-01  8.50000000E-01
  8.50000000E-01  8.50000000E-01  8.50000000E-01  8.50000000E-01  8.50000000E-01
  8.50000000E-01  8.50000000E-01  8.50000000E-01  8.50000000E-01  8.50000000E-01
  8.50000000E-01  8.50000000E-01  8.50000000E-01  8.50000000E-01  8.50000000E-01
  8.50000000E-01  8.50000000E-01  8.50000000E-01  8.50000000E-01  8.50000000E-01
  8.50000000E-01  8.50000000E-01  8.50000000E-01  8.50000000E-01  8.50000000E-01
  8.50000000E-01  8.50000000E-01  8.50000000E-01  8.50000000E-01  8.50000000E-01
  8.50000000E-01  8.50000000E-01  8.50000000E-01  8.50000000E-01  8.50000000E-01
  8.50000000E-01  8.50000000E-01  8.50000000E-01  8.50000000E-01  8.50000000E-01
  8.50000000E-01  8.50000000E-01  8.50000000E-01  8.50000000E-01  8.50000000E-01
  8.50000000E-01  8.50000000E-01  8.50000000E-01  8.50000000E-01  8.50000000E-01
  8.50000000E-01  8.50000000E-01  8.50000000E-01  8.50000000E-01  8.50000000E-01
  8.50000000E-01  8.50000000E-01  8.50000000E-01  8.50000000E-01  8.50000000E-01
  8.50000000E-01  8.50000000E-01  8.50000000E-01  8.50000000E-01  8.50000000E-01
  8.50000000E-01  8.50000000E-01  8.50000000E-01  8.50000000E-01  8.50000000E-01
  8.50000000E-01  8.50000000E-01  8.50000000E-01  8.50000000E-01  8.50000000E-01
  8.50000000E-01  8.50000000E-01  8.50000000E-01  8.50000000E-01  8.50000000E-01
  8.50000000E-01  8.50000000E-01  8.50000000E-01  8.50000000E-01  8.50000000E-01
  8.50000000E-01  8.50000000E-01  8.50000000E-01  8.50000000E-01  8.50000000E-01
  8.50000000E-01  8.50000000E-01  8.50000000E-01  8.50000000E-01  8.50000000E-01
  8.50000000E-01  8.50000000E-01  8.50000000E-01  8.50000000E-01  8.50000000E-01
  8.50000000E-01  8.50000000E-01  8.50000000E-01  8.50000000E-01  8.50000000E-01
  8.50000000E-01  8.50000000E-01  8.50000000E-01  8.50000000E-01  8.50000000E-01
  8.50000000E-01  8.50000000E-01  8.50000000E-01  8.50000000E-01  8.50000000E-01
  8.50000000E-01  8.50000000E-01  8.50000000E-01  8.50000000E-01  8.50000000E-01
  8.50000000E-01  8.50000000E-01  8.50000000E-01  8.50000000E-01  8.50000000E-01
  8.50000000E-01  8.50000000E-01  8.50000000E-01  8.50000000E-01  8.50000000E-01
  8.50000000E-01  8.50000000E-01  8.50000000E-01  8.50000000E-01  8.50000000E-01
  8.50000000E-01  8.50000000E-01  8.50000000E-01  8.50000000E-01  8.50000000E-01
  8.50000000E-01  8.50000000E-01  8.50000000E-01  8.50000000E-01  8.50000000E-01
  8.50000000E-01  8.50000000E-01  8.50000000E-01  8.50000000E-01  8.50000000E-01
  8.50000000E-01  8.50000000E-01  8.50000000E-01  8.50000000E-01  8.50000000E-01
  8.50000000E-01  8.50000000E-01  8.50000000E-01  8.50000000E-01  8.50000000E-01
  8.50000000E-01  8.50000000E-01  8.50000000E-01  8.50000000E-01  8.50000000E-01
  8.50000000E-01  8.50000000E-01  8.50000000E-01  8.50000000E-01  8.50000000E-01
  8.50000000E-01  8.50000000E-01  8.50000000E-01  8.50000000E-01  8.50000000E-01
  8.50000000E-01  8.50000000E-01  8.50000000E-01  8.50000000E-01  8.50000000E-01
  8.50000000E-01  8.50000000E-01  8.50000000E-01  8.50000000E-01  8.50000000E-01
  8.50000000E-01  8.50000000E-01  8.50000000E-01  8.50000000E-01  8.50000000E-01
  8.50000000E-01  8.50000000E-01  8.50000000E-01  8.50000000E-01  8.50000000E-01
  8.50000000E-01  8.50000000E-01  8.50000000E-01  8.50000000E-01  8.50000000E-01
  8.50000000E-01  8.50000000E-01  8.50000000E-01  8.50000000E-01  8.50000000E-01
  8.50000000E-01  8.50000000E-01  8.50000000E-01  8.50000000E-01  8.50000000E-01
  8.50000000E-01  8.50000000E-01  8.50000000E-01  8.50000000E-01  8.50000000E-01
  8.50000000E-01  8.50000000E-01  8.50000000E-01  8.50000000E-01  8.50000000E-01
  8.50000000E-01  8.50000000E-01  8.50000000E-01  8.50000000E-01  8.50000000E-01
  8.50000000E-01  8.50000000E-01  8.50000000E-01  8.50000000E-01  8.50000000E-01
  8.50000000E-01  8.50000000E-01  8.50000000E-01  8.50000000E-01  8.50000000E-01
  8.50000000E-01  8.50000000E-01  8.50000000E-01  8.50000000E-01  8.50000000E-01
  8.50000000E-01  8.50000000E-01  8.50000000E-01  8.50000000E-01  8.50000000E-01
  8.50000000E-01  8.50000000E-01  8.50000000E-01  8.50000000E-01  8.50000000E-01
  8.50000000E-01  8.50000000E-01  8.50000000E-01  8.50000000E-01  8.50000000E-01
  8.50000000E-01  8.50000000E-01  8.50000000E-01  8.50000000E-01  8.50000000E-01
  8.50000000E-01  8.50000000E-01  8.50000000E-01  8.50000000E-01  8.50000000E-01
  8.50000000E-01  8.50000000E-01  8.50000000E-01  8.50000000E-01  8.50000000E-01
  8.50000000E-01  8.50000000E-01  8.50000000E-01  8.50000000E-01  8.50000000E-01
  8.50000000E-01  8.50000000E-01  8.50000000E-01  8.50000000E-01  8.50000000E-01
  8.50000000E-01  8.50000000E-01  8.50000000E-01  8.50000000E-01  8.50000000E-01
  8.50000000E-01  8.50000000E-01  8.50000000E-01  8.50000000E-01  8.50000000E-01
  8.50000000E-01  8.50000000E-01  8.50000000E-01  8.50000000E-01  8.50000000E-01
  8.50000000E-01  8.50000000E-01  8.50000000E-01  8.50000000E-01  8.50000000E-01
  8.50000000E-01  8.50000000E-01  8.50000000E-01  8.50000000E-01  8.50000000E-01
  8.50000000E-01  8.50000000E-01  8.50000000E-01  8.50000000E-01  8.50000000E-01
  8.50000000E-01  8.50000000E-01  8.50000000E-01  8.50000000E-01  8.50000000E-01
  8.50000000E-01  8.50000000E-01  8.50000000E-01  8.50000000E-01  8.50000000E-01
  8.50000000E-01  8.50000000E-01  8.50000000E-01  8.50000000E-01  8.50000000E-01
  8.50000000E-01  8.50000000E-01  8.50000000E-01  8.50000000E-01  8.50000000E-01
  8.50000000E-01  8.50000000E-01  8.50000000E-01  8.50000000E-01  8.50000000E-01
  8.50000000E-01  8.50000000E-01  8.50000000E-01  8.50000000E-01  8.50000000E-01
  8.50000000E-01  8.50000000E-01  8.50000000E-01  8.50000000E-01  8.50000000E-01
  8.50000000E-01  8.50000000E-01  8.50000000E-01  8.50000000E-01  8.50000000E-01
  8.50000000E-01  8.50000000E-01  8.50000000E-01  8.50000000E-01  8.50000000E-01
  8.50000000E-01  8.50000000E-01  8.50000000E-01  8.50000000E-01  8.50000000E-01
  8.50000000E-01  8.50000000E-01  8.50000000E-01  8.50000000E-01  8.50000000E-01
  8.50000000E-01  8.50000000E-01  8.50000000E-01  8.50000000E-01  8.50000000E-01
  8.50000000E-01  8.50000000E-01  8.50000000E-01  8.50000000E-01  8.50000000E-01
  8.50000000E-01  8.50000000E-01  8.50000000E-01  8.50000000E-01  8.50000000E-01
  8.50000000E-01  8.50000000E-01  8.50000000E-01  8.50000000E-01  8.50000000E-01
  8.50000000E-01  8.50000000E-01  8.50000000E-01  8.50000000E-01  8.50000000E-01
  8.50000000E-01  8.50000000E-01  8.50000000E-01  8.50000000E-01  8.50000000E-01
  8.50000000E-01  8.50000000E-01  8.50000000E-01  8.50000000E-01  8.50000000E-01
  8.50000000E-01  8.50000000E-01  8.50000000E-01  8.50000000E-01  8.50000000E-01
  8.50000000E-01  8.50000000E-01  8.50000000E-01  8.50000000E-01  8.50000000E-01
  8.50000000E-01  8.50000000E-01  8.50000000E-01  8.50000000E-01  8.50000000E-01
  8.50000000E-01  8.50000000E-01  8.50000000E-01  8.50000000E-01  8.50000000E-01
  8.50000000E-01  8.50000000E-01  8.50000000E-01  8.50000000E-01  8.50000000E-01
  8.50000000E-01  8.50000000E-01  8.50000000E-01  8.50000000E-01  8.50000000E-01
  8.50000000E-01  8.50000000E-01  8.50000000E-01  8.50000000E-01  8.50000000E-01
  8.50000000E-01  8.50000000E-01  8.50000000E-01  8.50000000E-01  8.50000000E-01
  8.50000000E-01  8.50000000E-01  8.50000000E-01  8.50000000E-01  8.50000000E-01
  8.50000000E-01  8.50000000E-01  8.50000000E-01  8.50000000E-01  8.50000000E-01
  8.50000000E-01  8.50000000E-01  8.50000000E-01  8.50000000E-01  8.50000000E-01
  8.50000000E-01  8.50000000E-01  8.50000000E-01  8.50000000E-01  8.50000000E-01
  8.50000000E-01  8.50000000E-01  8.50000000E-01  8.50000000E-01  8.50000000E-01
  8.50000000E-01  8.50000000E-01  8.50000000E-01  8.50000000E-01  8.50000000E-01
  8.50000000E-01  8.50000000E-01  8.50000000E-01  8.50000000E-01  8.50000000E-01
  8.50000000E-01  8.50000000E-01  8.50000000E-01  8.50000000E-01  8.50000000E-01
  8.50000000E-01  8.50000000E-01  8.50000000E-01  8.50000000E-01  8.50000000E-01
  8.50000000E-01  8.50000000E-01  8.50000000E-01  8.50000000E-01  8.50000000E-01
  8.50000000E-01  8.50000000E-01  8.50000000E-01  8.50000000E-01  8.50000000E-01
  8.50000000E-01  8.50000000E-01  8.50000000E-01  8.50000000E-01  8.50000000E-01
  8.50000000E-01  8.50000000E-01  8.50000000E-01  8.50000000E-01  8.50000000E-01
  8.50000000E-01  8.50000000E-01  8.50000000E-01  8.50000000E-01  8.50000000E-01
  8.50000000E-01  8.50000000E-01  8.50000000E-01  8.50000000E-01  8.50000000E-01
  8.50000000E-01  8.50000000E-01  8.50000000E-01  8.50000000E-01  8.50000000E-01
  8.50000000E-01  8.50000000E-01  8.50000000E-01  8.50000000E-01  8.50000000E-01
  8.50000000E-01  8.50000000E-01  8.50000000E-01  8.50000000E-01  8.50000000E-01
  8.50000000E-01  8.50000000E-01  8.50000000E-01  8.50000000E-01  8.50000000E-01
  8.50000000E-01  8.50000000E-01  8.50000000E-01  8.50000000E-01  8.50000000E-01
  8.50000000E-01  8.50000000E-01  8.50000000E-01  8.50000000E-01  8.50000000E-01
  8.50000000E-01  8.50000000E-01  8.50000000E-01  8.50000000E-01  8.50000000E-01
  8.50000000E-01  8.50000000E-01  8.50000000E-01  8.50000000E-01  8.50000000E-01
  8.50000000E-01  8.50000000E-01  8.50000000E-01  8.50000000E-01  8.50000000E-01
  8.50000000E-01  8.50000000E-01  8.50000000E-01  8.50000000E-01  8.50000000E-01
  8.50000000E-01  8.50000000E-01  8.50000000E-01  8.50000000E-01  8.50000000E-01
  8.50000000E-01  8.50000000E-01  8.50000000E-01  8.50000000E-01  8.50000000E-01
  8.50000000E-01  8.50000000E-01  8.50000000E-01  8.50000000E-01  8.50000000E-01
  8.50000000E-01  8.50000000E-01  8.50000000E-01  8.50000000E-01  8.50000000E-01
  8.50000000E-01  8.50000000E-01  8.50000000E-01  8.50000000E-01  8.50000000E-01
  8.50000000E-01  8.50000000E-01  8.50000000E-01  8.50000000E-01  8.50000000E-01
  8.50000000E-01  8.50000000E-01  8.50000000E-01  8.50000000E-01  8.50000000E-01
  8.50000000E-01  8.50000000E-01  8.50000000E-01  8.50000000E-01  8.50000000E-01
  8.50000000E-01  8.50000000E-01  8.50000000E-01  8.50000000E-01  8.50000000E-01
  8.50000000E-01  8.50000000E-01  8.50000000E-01  8.50000000E-01  8.50000000E-01
  8.50000000E-01  8.50000000E-01  8.50000000E-01  8.50000000E-01  8.50000000E-01
  8.50000000E-01  8.50000000E-01  8.50000000E-01  8.50000000E-01  8.50000000E-01
  8.50000000E-01  8.50000000E-01  8.50000000E-01  8.50000000E-01  8.50000000E-01
  8.50000000E-01  8.50000000E-01  8.50000000E-01  8.50000000E-01  8.50000000E-01
  8.50000000E-01  8.50000000E-01  8.50000000E-01  8.50000000E-01  8.50000000E-01
  8.50000000E-01  8.50000000E-01  8.50000000E-01  8.50000000E-01  8.50000000E-01
  8.50000000E-01  8.50000000E-01  8.50000000E-01  8.50000000E-01  8.50000000E-01
  8.50000000E-01  8.50000000E-01  8.50000000E-01  8.50000000E-01  8.50000000E-01
  8.50000000E-01  8.50000000E-01  8.50000000E-01  8.50000000E-01  8.50000000E-01
  8.50000000E-01  8.50000000E-01  8.50000000E-01  8.50000000E-01  8.50000000E-01
  8.50000000E-01  8.50000000E-01  8.50000000E-01  8.50000000E-01  8.50000000E-01
  8.50000000E-01  8.50000000E-01  8.50000000E-01  8.50000000E-01  8.50000000E-01
  8.50000000E-01  8.50000000E-01  8.50000000E-01  8.50000000E-01  8.50000000E-01
  8.50000000E-01  8.50000000E-01  8.50000000E-01  8.50000000E-01  8.50000000E-01
  8.50000000E-01  8.50000000E-01  8.50000000E-01  8.50000000E-01  8.50000000E-01
  8.50000000E-01  8.50000000E-01  8.50000000E-01  8.50000000E-01  8.50000000E-01
  8.50000000E-01  8.50000000E-01  8.50000000E-01  8.50000000E-01  8.50000000E-01
  8.50000000E-01  8.50000000E-01  8.50000000E-01  8.50000000E-01  8.50000000E-01
  8.50000000E-01  8.50000000E-01  8.50000000E-01  8.50000000E-01  8.50000000E-01
  8.50000000E-01  8.50000000E-01  8.50000000E-01  8.50000000E-01  8.50000000E-01
  8.50000000E-01  8.50000000E-01  8.50000000E-01  8.50000000E-01  8.50000000E-01
  8.50000000E-01  8.50000000E-01  8.50000000E-01  8.50000000E-01  8.50000000E-01
  8.50000000E-01  8.50000000E-01  8.50000000E-01  8.50000000E-01  8.50000000E-01
  8.50000000E-01  8.50000000E-01  8.50000000E-01  8.50000000E-01  8.50000000E-01
  8.50000000E-01  8.50000000E-01  8.50000000E-01  8.50000000E-01  8.50000000E-01
  8.50000000E-01  8.50000000E-01  8.50000000E-01  8.50000000E-01  8.50000000E-01
  8.50000000E-01  8.50000000E-01  8.50000000E-01  8.50000000E-01  8.50000000E-01
  8.50000000E-01  8.50000000E-01  8.50000000E-01  8.50000000E-01  8.50000000E-01
  8.50000000E-01  8.50000000E-01  8.50000000E-01  8.50000000E-01  8.50000000E-01
  8.50000000E-01  8.50000000E-01  8.50000000E-01  8.50000000E-01  8.50000000E-01
  8.50000000E-01  8.50000000E-01  8.50000000E-01  8.50000000E-01  8.50000000E-01
  8.50000000E-01  8.50000000E-01  8.50000000E-01  8.50000000E-01  8.50000000E-01
  8.50000000E-01  8.50000000E-01  8.50000000E-01  8.50000000E-01  8.50000000E-01
  8.50000000E-01  8.50000000E-01  8.50000000E-01  8.50000000E-01  8.50000000E-01
  8.50000000E-01  8.50000000E-01  8.50000000E-01  8.50000000E-01  8.50000000E-01
  8.50000000E-01  8.50000000E-01  8.50000000E-01  8.50000000E-01  8.50000000E-01
  8.50000000E-01  8.50000000E-01  8.50000000E-01  8.50000000E-01  8.50000000E-01
  8.50000000E-01  8.50000000E-01  8.50000000E-01  8.50000000E-01  8.50000000E-01
  8.50000000E-01  8.50000000E-01  8.50000000E-01  8.50000000E-01  8.50000000E-01
  8.50000000E-01  8.50000000E-01  8.50000000E-01  8.50000000E-01  8.50000000E-01
  8.50000000E-01  8.50000000E-01  8.50000000E-01  8.50000000E-01  8.50000000E-01
  8.50000000E-01  8.50000000E-01  8.50000000E-01  8.50000000E-01  8.50000000E-01
  8.50000000E-01  8.50000000E-01  8.50000000E-01  8.50000000E-01  8.50000000E-01
  8.50000000E-01  8.50000000E-01  8.50000000E-01  8.50000000E-01  8.50000000E-01
  8.50000000E-01  8.50000000E-01  8.50000000E-01  8.50000000E-01  8.50000000E-01
  8.50000000E-01  8.50000000E-01  8.50000000E-01  8.50000000E-01  8.50000000E-01
  8.50000000E-01  8.50000000E-01  8.50000000E-01  8.50000000E-01  8.50000000E-01
  8.50000000E-01  8.50000000E-01  8.50000000E-01  8.50000000E-01  8.50000000E-01
  8.50000000E-01  8.50000000E-01  8.50000000E-01  8.50000000E-01  8.50000000E-01
  8.50000000E-01  8.50000000E-01  8.50000000E-01  8.50000000E-01  8.50000000E-01
  8.50000000E-01  8.50000000E-01  8.50000000E-01  8.50000000E-01  8.50000000E-01
  8.50000000E-01  8.50000000E-01  8.50000000E-01  8.50000000E-01  8.50000000E-01
  8.50000000E-01  8.50000000E-01  8.50000000E-01  8.50000000E-01  8.50000000E-01
  8.50000000E-01  8.50000000E-01  8.50000000E-01  8.50000000E-01  8.50000000E-01
  8.50000000E-01  8.50000000E-01  8.50000000E-01  8.50000000E-01  8.50000000E-01
  8.50000000E-01  8.50000000E-01  8.50000000E-01  8.50000000E-01  8.50000000E-01
  8.50000000E-01  8.50000000E-01  8.50000000E-01  8.50000000E-01  8.50000000E-01
  8.50000000E-01  8.50000000E-01  8.50000000E-01  8.50000000E-01  8.50000000E-01
  8.50000000E-01  8.50000000E-01  8.50000000E-01  8.50000000E-01  8.50000000E-01
  8.50000000E-01  8.50000000E-01  8.50000000E-01  8.50000000E-01  8.50000000E-01
  8.50000000E-01  8.50000000E-01  8.50000000E-01  8.50000000E-01  8.50000000E-01
  8.50000000E-01  8.50000000E-01  8.50000000E-01  8.50000000E-01  8.50000000E-01
  8.50000000E-01  8.50000000E-01  8.50000000E-01  8.50000000E-01  8.50000000E-01
  8.50000000E-01  8.50000000E-01  8.50000000E-01  8.50000000E-01  8.50000000E-01
  8.50000000E-01  8.50000000E-01  8.50000000E-01  8.50000000E-01  8.50000000E-01
  8.50000000E-01  8.50000000E-01  8.50000000E-01  8.50000000E-01  8.50000000E-01
  8.50000000E-01  8.50000000E-01  8.50000000E-01  8.50000000E-01  8.50000000E-01
  8.50000000E-01  8.50000000E-01  8.50000000E-01  8.50000000E-01  8.50000000E-01
  8.50000000E-01  8.50000000E-01  8.50000000E-01  8.50000000E-01  8.50000000E-01
  8.50000000E-01  8.50000000E-01  8.50000000E-01  8.50000000E-01  8.50000000E-01
  8.50000000E-01  8.50000000E-01  8.50000000E-01  8.50000000E-01  8.50000000E-01
  8.50000000E-01  8.50000000E-01  8.50000000E-01  8.50000000E-01  8.50000000E-01
  8.50000000E-01  8.50000000E-01  8.50000000E-01  8.50000000E-01  8.50000000E-01
  8.50000000E-01  8.50000000E-01  8.50000000E-01  8.50000000E-01  8.50000000E-01
  8.50000000E-01  8.50000000E-01  8.50000000E-01  8.50000000E-01  8.50000000E-01
  8.50000000E-01  8.50000000E-01  8.50000000E-01  8.50000000E-01  8.50000000E-01
  8.50000000E-01  8.50000000E-01  8.50000000E-01  8.50000000E-01  8.50000000E-01
  8.50000000E-01  8.50000000E-01  8.50000000E-01  8.50000000E-01  8.50000000E-01
  8.50000000E-01  8.50000000E-01  8.50000000E-01  8.50000000E-01  8.50000000E-01
  8.50000000E-01  8.50000000E-01  8.50000000E-01  8.50000000E-01  8.50000000E-01
  8.50000000E-01  8.50000000E-01  8.50000000E-01  8.50000000E-01  8.50000000E-01
  8.50000000E-01  8.50000000E-01  8.50000000E-01  8.50000000E-01  8.50000000E-01
  8.50000000E-01  8.50000000E-01  8.50000000E-01  8.50000000E-01  8.50000000E-01
  8.50000000E-01  8.50000000E-01  8.50000000E-01  8.50000000E-01  8.50000000E-01
  8.50000000E-01  8.50000000E-01  8.50000000E-01  8.50000000E-01  8.50000000E-01
  8.50000000E-01  8.50000000E-01  8.50000000E-01  8.50000000E-01  8.50000000E-01
  8.50000000E-01  8.50000000E-01  8.50000000E-01  8.50000000E-01  8.50000000E-01
  8.50000000E-01  8.50000000E-01  8.50000000E-01  8.50000000E-01  8.50000000E-01
  8.50000000E-01  8.50000000E-01  8.50000000E-01  8.50000000E-01  8.50000000E-01
  8.50000000E-01  8.50000000E-01  8.50000000E-01  8.50000000E-01  8.50000000E-01
  8.50000000E-01  8.50000000E-01  8.50000000E-01  8.50000000E-01  8.50000000E-01
  8.50000000E-01  8.50000000E-01  8.50000000E-01  8.50000000E-01  8.50000000E-01
  8.50000000E-01  8.50000000E-01  8.50000000E-01  8.50000000E-01  8.50000000E-01
  8.50000000E-01  8.50000000E-01  8.50000000E-01  8.50000000E-01  8.50000000E-01
  8.50000000E-01  8.50000000E-01  8.50000000E-01  8.50000000E-01  8.50000000E-01
  8.50000000E-01  8.50000000E-01  8.50000000E-01  8.50000000E-01  8.50000000E-01
  8.50000000E-01  8.50000000E-01  8.50000000E-01  8.50000000E-01  8.50000000E-01
  8.50000000E-01  8.50000000E-01  8.50000000E-01  8.50000000E-01  8.50000000E-01
  8.50000000E-01  8.50000000E-01  8.50000000E-01  8.50000000E-01  8.50000000E-01
  8.50000000E-01  8.50000000E-01  8.50000000E-01  8.50000000E-01  8.50000000E-01
  8.50000000E-01  8.50000000E-01  8.50000000E-01  8.50000000E-01  8.50000000E-01
  8.50000000E-01  8.50000000E-01  8.50000000E-01  8.50000000E-01  8.50000000E-01
  8.50000000E-01  8.50000000E-01  8.50000000E-01  8.50000000E-01  8.50000000E-01
  8.50000000E-01  8.50000000E-01  8.50000000E-01  8.50000000E-01  8.50000000E-01
  8.50000000E-01  8.50000000E-01  8.50000000E-01  8.50000000E-01  8.50000000E-01
  8.50000000E-01  8.50000000E-01  8.50000000E-01  8.50000000E-01  8.50000000E-01
  8.50000000E-01  8.50000000E-01  8.50000000E-01  8.50000000E-01  8.50000000E-01
  8.50000000E-01  8.50000000E-01  8.50000000E-01  8.50000000E-01  8.50000000E-01
  8.50000000E-01  8.50000000E-01  8.50000000E-01  8.50000000E-01  8.50000000E-01
  8.50000000E-01  8.50000000E-01  8.50000000E-01  8.50000000E-01  8.50000000E-01
  8.50000000E-01  8.50000000E-01  8.50000000E-01  8.50000000E-01  8.50000000E-01
  8.50000000E-01  8.50000000E-01  8.50000000E-01  8.50000000E-01  8.50000000E-01
  8.50000000E-01  8.50000000E-01  8.50000000E-01  8.50000000E-01  8.50000000E-01
  8.50000000E-01  8.50000000E-01  8.50000000E-01  8.50000000E-01  8.50000000E-01
  8.50000000E-01  8.50000000E-01  8.50000000E-01  8.50000000E-01  8.50000000E-01
  8.50000000E-01  8.50000000E-01  8.50000000E-01  8.50000000E-01  8.50000000E-01
  8.50000000E-01  8.50000000E-01  8.50000000E-01  8.50000000E-01  8.50000000E-01
  8.50000000E-01  8.50000000E-01  8.50000000E-01  8.50000000E-01  8.50000000E-01
  8.50000000E-01  8.50000000E-01  8.50000000E-01  8.50000000E-01  8.50000000E-01
  8.50000000E-01  8.50000000E-01  8.50000000E-01  8.50000000E-01  8.50000000E-01
  8.50000000E-01  8.50000000E-01  8.50000000E-01  8.50000000E-01  8.50000000E-01
  8.50000000E-01  8.50000000E-01  8.50000000E-01  8.50000000E-01  8.50000000E-01
  8.50000000E-01  8.50000000E-01  8.50000000E-01  8.50000000E-01  8.50000000E-01
  8.50000000E-01  8.50000000E-01  8.50000000E-01  8.50000000E-01  8.50000000E-01
  8.50000000E-01  8.50000000E-01  8.50000000E-01  8.50000000E-01  8.50000000E-01
  8.50000000E-01  8.50000000E-01  8.50000000E-01  8.50000000E-01  8.50000000E-01
  8.50000000E-01  8.50000000E-01  8.50000000E-01  8.50000000E-01  8.50000000E-01
  8.50000000E-01  8.50000000E-01  8.50000000E-01  8.50000000E-01  8.50000000E-01
  8.50000000E-01  8.50000000E-01  8.50000000E-01  8.50000000E-01  8.50000000E-01
  8.50000000E-01  8.50000000E-01  8.50000000E-01  8.50000000E-01  8.50000000E-01
  8.50000000E-01  8.50000000E-01  8.50000000E-01  8.50000000E-01  8.50000000E-01
  8.50000000E-01  8.50000000E-01  8.50000000E-01  8.50000000E-01  8.50000000E-01
  8.50000000E-01  8.50000000E-01  8.50000000E-01  8.50000000E-01  8.50000000E-01
  8.50000000E-01  8.50000000E-01  8.50000000E-01  8.50000000E-01  8.50000000E-01
  8.50000000E-01  8.50000000E-01  8.50000000E-01  8.50000000E-01  8.50000000E-01
  8.50000000E-01  8.50000000E-01  8.50000000E-01  8.50000000E-01  8.50000000E-01
  8.50000000E-01  8.50000000E-01  8.50000000E-01  8.50000000E-01  8.50000000E-01
  8.50000000E-01  8.50000000E-01  8.50000000E-01  8.50000000E-01  8.50000000E-01
  8.50000000E-01  8.50000000E-01  8.50000000E-01  8.50000000E-01  8.50000000E-01
  8.50000000E-01  8.50000000E-01  8.50000000E-01  8.50000000E-01  8.50000000E-01
  8.50000000E-01  8.50000000E-01  8.50000000E-01  8.50000000E-01  8.50000000E-01
  8.50000000E-01  8.50000000E-01  8.50000000E-01  8.50000000E-01  8.50000000E-01
  8.50000000E-01  8.50000000E-01  8.50000000E-01  8.50000000E-01  8.50000000E-01
  8.50000000E-01  8.50000000E-01  8.50000000E-01  8.50000000E-01  8.50000000E-01
  8.50000000E-01  8.50000000E-01  8.50000000E-01  8.50000000E-01  8.50000000E-01
  8.50000000E-01  8.50000000E-01  8.50000000E-01  8.50000000E-01  8.50000000E-01
  8.50000000E-01  8.50000000E-01  8.50000000E-01  8.50000000E-01  8.50000000E-01
  8.50000000E-01  8.50000000E-01  8.50000000E-01  8.50000000E-01  8.50000000E-01
  8.50000000E-01  8.50000000E-01  8.50000000E-01  8.50000000E-01  8.50000000E-01
  8.50000000E-01  8.50000000E-01  8.50000000E-01  8.50000000E-01  8.50000000E-01
  8.50000000E-01  8.50000000E-01  8.50000000E-01  8.50000000E-01  8.50000000E-01
  8.50000000E-01  8.50000000E-01  8.50000000E-01  8.50000000E-01  8.50000000E-01
  8.50000000E-01  8.50000000E-01  8.50000000E-01  8.50000000E-01  8.50000000E-01
  8.50000000E-01  8.50000000E-01  8.50000000E-01  8.50000000E-01  8.50000000E-01
  8.50000000E-01  8.50000000E-01  8.50000000E-01  8.50000000E-01  8.50000000E-01
  8.50000000E-01  8.50000000E-01  8.50000000E-01  8.50000000E-01  8.50000000E-01
  8.50000000E-01  8.50000000E-01  8.50000000E-01  8.50000000E-01  8.50000000E-01
  8.50000000E-01  8.50000000E-01  8.50000000E-01  8.50000000E-01  8.50000000E-01
  8.50000000E-01  8.50000000E-01  8.50000000E-01  8.50000000E-01  8.50000000E-01
  8.50000000E-01  8.50000000E-01  8.50000000E-01  8.50000000E-01  8.50000000E-01
  8.50000000E-01  8.50000000E-01  8.50000000E-01  8.50000000E-01  8.50000000E-01
  8.50000000E-01  8.50000000E-01  8.50000000E-01  8.50000000E-01  8.50000000E-01
  8.50000000E-01  8.50000000E-01  8.50000000E-01  8.50000000E-01  8.50000000E-01
  8.50000000E-01  8.50000000E-01  8.50000000E-01  8.50000000E-01  8.50000000E-01
  8.50000000E-01  8.50000000E-01  8.50000000E-01  8.50000000E-01  8.50000000E-01
  8.50000000E-01  8.50000000E-01  8.50000000E-01  8.50000000E-01  8.50000000E-01
  8.50000000E-01  8.50000000E-01  8.50000000E-01  8.50000000E-01  8.50000000E-01
  8.50000000E-01  8.50000000E-01  8.50000000E-01  8.50000000E-01  8.50000000E-01
  8.50000000E-01  8.50000000E-01  8.50000000E-01  8.50000000E-01  8.50000000E-01
  8.50000000E-01  8.50000000E-01  8.50000000E-01  8.50000000E-01  8.50000000E-01
  8.50000000E-01  8.50000000E-01  8.50000000E-01  8.50000000E-01  8.50000000E-01
  8.50000000E-01  8.50000000E-01  8.50000000E-01  8.50000000E-01  8.50000000E-01
  8.50000000E-01  8.50000000E-01  8.50000000E-01  8.50000000E-01  8.50000000E-01
  8.50000000E-01  8.50000000E-01  8.50000000E-01  8.50000000E-01  8.50000000E-01
  8.50000000E-01  8.50000000E-01  8.50000000E-01  8.50000000E-01  8.50000000E-01
  8.50000000E-01  8.50000000E-01  8.50000000E-01  8.50000000E-01  8.50000000E-01
  8.50000000E-01  8.50000000E-01  8.50000000E-01  8.50000000E-01  8.50000000E-01
  8.50000000E-01  8.50000000E-01  8.50000000E-01  8.50000000E-01  8.50000000E-01
  8.50000000E-01  8.50000000E-01  8.50000000E-01  8.50000000E-01  8.50000000E-01
  8.50000000E-01  8.50000000E-01  8.50000000E-01  8.50000000E-01  8.50000000E-01
  8.50000000E-01  8.50000000E-01  8.50000000E-01  8.50000000E-01  8.50000000E-01
  8.50000000E-01  8.50000000E-01  8.50000000E-01  8.50000000E-01  8.50000000E-01
  8.50000000E-01  8.50000000E-01  8.50000000E-01  8.50000000E-01  8.50000000E-01
  8.50000000E-01  8.50000000E-01  8.50000000E-01  8.50000000E-01  8.50000000E-01
  8.50000000E-01  8.50000000E-01  8.50000000E-01  8.50000000E-01  8.50000000E-01
  8.50000000E-01  8.50000000E-01  8.50000000E-01  8.50000000E-01  8.50000000E-01
  8.50000000E-01  8.50000000E-01  8.50000000E-01  8.50000000E-01  8.50000000E-01
  8.50000000E-01  8.50000000E-01  8.50000000E-01  8.50000000E-01  8.50000000E-01
  8.50000000E-01  8.50000000E-01  8.50000000E-01  8.50000000E-01  8.50000000E-01
  8.50000000E-01  8.50000000E-01  8.50000000E-01  8.50000000E-01  8.50000000E-01
  8.50000000E-01  8.50000000E-01  8.50000000E-01  8.50000000E-01  8.50000000E-01
  8.50000000E-01  8.50000000E-01  8.50000000E-01  8.50000000E-01  8.50000000E-01
  8.50000000E-01  8.50000000E-01  8.50000000E-01  8.50000000E-01  8.50000000E-01
  8.50000000E-01  8.50000000E-01  8.50000000E-01  8.50000000E-01  8.50000000E-01
  8.50000000E-01  8.50000000E-01  8.50000000E-01  8.50000000E-01  8.50000000E-01
  8.50000000E-01  8.50000000E-01  8.50000000E-01  8.50000000E-01  8.50000000E-01
  8.50000000E-01  8.50000000E-01  8.50000000E-01  8.50000000E-01  8.50000000E-01
  8.50000000E-01  8.50000000E-01  8.50000000E-01  8.50000000E-01  8.50000000E-01
  8.50000000E-01  8.50000000E-01  8.50000000E-01  8.50000000E-01  8.50000000E-01
  8.50000000E-01  8.50000000E-01  8.50000000E-01  8.50000000E-01  8.50000000E-01
  8.50000000E-01  8.50000000E-01  8.50000000E-01  8.50000000E-01  8.50000000E-01
  8.50000000E-01  8.50000000E-01  8.50000000E-01  8.50000000E-01  8.50000000E-01
  8.50000000E-01  8.50000000E-01  8.50000000E-01  8.50000000E-01  8.50000000E-01
  8.50000000E-01  8.50000000E-01  8.50000000E-01  8.50000000E-01  8.50000000E-01
  8.50000000E-01  8.50000000E-01  8.50000000E-01  8.50000000E-01  8.50000000E-01
  8.50000000E-01  8.50000000E-01  8.50000000E-01  8.50000000E-01  8.50000000E-01
  8.50000000E-01  8.50000000E-01  8.50000000E-01  8.50000000E-01  8.50000000E-01
  8.50000000E-01  8.50000000E-01  8.50000000E-01  8.50000000E-01  8.50000000E-01
  8.50000000E-01  8.50000000E-01  8.50000000E-01  8.50000000E-01  8.50000000E-01
  8.50000000E-01  8.50000000E-01  8.50000000E-01  8.50000000E-01  8.50000000E-01
  8.50000000E-01  8.50000000E-01  8.50000000E-01  8.50000000E-01  8.50000000E-01
  8.50000000E-01  8.50000000E-01  8.50000000E-01  8.50000000E-01  8.50000000E-01
  8.50000000E-01  8.50000000E-01  8.50000000E-01  8.50000000E-01  8.50000000E-01
  8.50000000E-01  8.50000000E-01  8.50000000E-01  8.50000000E-01  8.50000000E-01
  8.50000000E-01  8.50000000E-01  8.50000000E-01  8.50000000E-01  8.50000000E-01
  8.50000000E-01  8.50000000E-01  8.50000000E-01  8.50000000E-01  8.50000000E-01
  8.50000000E-01  8.50000000E-01  8.50000000E-01  8.50000000E-01  8.50000000E-01
  8.50000000E-01  8.50000000E-01  8.50000000E-01  8.50000000E-01  8.50000000E-01
  8.50000000E-01  8.50000000E-01  8.50000000E-01  8.50000000E-01  8.50000000E-01
  8.50000000E-01  8.50000000E-01  8.50000000E-01  8.50000000E-01  8.50000000E-01
  8.50000000E-01  8.50000000E-01  8.50000000E-01  8.50000000E-01  8.50000000E-01
  8.50000000E-01  8.50000000E-01  8.50000000E-01  8.50000000E-01  8.50000000E-01
  8.50000000E-01  8.50000000E-01  8.50000000E-01  8.50000000E-01  8.50000000E-01
  8.50000000E-01  8.50000000E-01  8.50000000E-01  8.50000000E-01  8.50000000E-01
  8.50000000E-01  8.50000000E-01  8.50000000E-01  8.50000000E-01  8.50000000E-01
  8.50000000E-01  8.50000000E-01  8.50000000E-01  8.50000000E-01  8.50000000E-01
  8.50000000E-01  8.50000000E-01  8.50000000E-01  8.50000000E-01  8.50000000E-01
  8.50000000E-01  8.50000000E-01  8.50000000E-01  8.50000000E-01  8.50000000E-01
  8.50000000E-01  8.50000000E-01  8.50000000E-01  8.50000000E-01  8.50000000E-01
  8.50000000E-01  8.50000000E-01  8.50000000E-01  8.50000000E-01  8.50000000E-01
  8.50000000E-01  8.50000000E-01  8.50000000E-01  8.50000000E-01  8.50000000E-01
  8.50000000E-01  8.50000000E-01  8.50000000E-01  8.50000000E-01  8.50000000E-01
  8.50000000E-01  8.50000000E-01  8.50000000E-01  8.50000000E-01  8.50000000E-01
  8.50000000E-01  8.50000000E-01  8.50000000E-01  8.50000000E-01  8.50000000E-01
  8.50000000E-01  8.50000000E-01  8.50000000E-01  8.50000000E-01  8.50000000E-01
  8.50000000E-01  8.50000000E-01  8.50000000E-01  8.50000000E-01  8.50000000E-01
  8.50000000E-01  8.50000000E-01  8.50000000E-01  8.50000000E-01  8.50000000E-01
  8.50000000E-01  8.50000000E-01  8.50000000E-01  8.50000000E-01  8.50000000E-01
  8.50000000E-01  8.50000000E-01  8.50000000E-01  8.50000000E-01  8.50000000E-01
  8.50000000E-01  8.50000000E-01  8.50000000E-01  8.50000000E-01  8.50000000E-01
  8.50000000E-01  8.50000000E-01  8.50000000E-01  8.50000000E-01  8.50000000E-01
  8.50000000E-01  8.50000000E-01  8.50000000E-01  8.50000000E-01  8.50000000E-01
  8.50000000E-01  8.50000000E-01  8.50000000E-01  8.50000000E-01  8.50000000E-01
  8.50000000E-01  8.50000000E-01  8.50000000E-01  8.50000000E-01  8.50000000E-01
  8.50000000E-01  8.50000000E-01  8.50000000E-01  8.50000000E-01  8.50000000E-01
  8.50000000E-01  8.50000000E-01  8.50000000E-01  8.50000000E-01  8.50000000E-01
  8.50000000E-01  8.50000000E-01  8.50000000E-01  8.50000000E-01  8.50000000E-01
  8.50000000E-01  8.50000000E-01  8.50000000E-01  8.50000000E-01  8.50000000E-01
  8.50000000E-01  8.50000000E-01  8.50000000E-01  8.50000000E-01  8.50000000E-01
  8.50000000E-01  8.50000000E-01  8.50000000E-01  8.50000000E-01  8.50000000E-01
  8.50000000E-01  8.50000000E-01  8.50000000E-01  8.50000000E-01  8.50000000E-01
  8.50000000E-01  8.50000000E-01  8.50000000E-01  8.50000000E-01  8.50000000E-01
  8.50000000E-01  8.50000000E-01  8.50000000E-01  8.50000000E-01  8.50000000E-01
  8.50000000E-01  8.50000000E-01  8.50000000E-01  8.50000000E-01  8.50000000E-01
  8.50000000E-01  8.50000000E-01  8.50000000E-01  8.50000000E-01  8.50000000E-01
  8.50000000E-01  8.50000000E-01  8.50000000E-01  8.50000000E-01  8.50000000E-01
  8.50000000E-01  8.50000000E-01  8.50000000E-01  8.50000000E-01  8.50000000E-01
  8.50000000E-01  8.50000000E-01  8.50000000E-01  8.50000000E-01  8.50000000E-01
  8.50000000E-01  8.50000000E-01  8.50000000E-01  8.50000000E-01  8.50000000E-01
  8.50000000E-01  8.50000000E-01  8.50000000E-01  8.50000000E-01  8.50000000E-01
  8.50000000E-01  8.50000000E-01  8.50000000E-01  8.50000000E-01  8.50000000E-01
  8.50000000E-01  8.50000000E-01  8.50000000E-01  8.50000000E-01  8.50000000E-01
  8.50000000E-01  8.50000000E-01  8.50000000E-01  8.50000000E-01  8.50000000E-01
  8.50000000E-01  8.50000000E-01  8.50000000E-01  8.50000000E-01  8.50000000E-01
  8.50000000E-01  8.50000000E-01  8.50000000E-01  8.50000000E-01  8.50000000E-01
  8.50000000E-01  8.50000000E-01  8.50000000E-01  8.50000000E-01  8.50000000E-01
  8.50000000E-01  8.50000000E-01  8.50000000E-01  8.50000000E-01  8.50000000E-01
  8.50000000E-01  8.50000000E-01  8.50000000E-01  8.50000000E-01  8.50000000E-01
  8.50000000E-01  8.50000000E-01  8.50000000E-01  8.50000000E-01  8.50000000E-01
  8.50000000E-01  8.50000000E-01  8.50000000E-01  8.50000000E-01  8.50000000E-01
  8.50000000E-01  8.50000000E-01  8.50000000E-01  8.50000000E-01  8.50000000E-01
  8.50000000E-01  8.50000000E-01  8.50000000E-01  8.50000000E-01  8.50000000E-01
  8.50000000E-01  8.50000000E-01  8.50000000E-01  8.50000000E-01  8.50000000E-01
  8.50000000E-01  8.50000000E-01  8.50000000E-01  8.50000000E-01  8.50000000E-01
  8.50000000E-01  8.50000000E-01  8.50000000E-01  8.50000000E-01  8.50000000E-01
  8.50000000E-01  8.50000000E-01  8.50000000E-01  8.50000000E-01  8.50000000E-01
  8.50000000E-01  8.50000000E-01  8.50000000E-01  8.50000000E-01  8.50000000E-01
  8.50000000E-01  8.50000000E-01  8.50000000E-01  8.50000000E-01  8.50000000E-01
  8.50000000E-01  8.50000000E-01  8.50000000E-01  8.50000000E-01  8.50000000E-01
  8.50000000E-01  8.50000000E-01  8.50000000E-01  8.50000000E-01  8.50000000E-01
  8.50000000E-01  8.50000000E-01  8.50000000E-01  8.50000000E-01  8.50000000E-01
  8.50000000E-01  8.50000000E-01  8.50000000E-01  8.50000000E-01  8.50000000E-01
  8.50000000E-01  8.50000000E-01  8.50000000E-01  8.50000000E-01  8.50000000E-01
  8.50000000E-01  8.50000000E-01  8.50000000E-01  8.50000000E-01  8.50000000E-01
  8.50000000E-01  8.50000000E-01  8.50000000E-01  8.50000000E-01  8.50000000E-01
  8.50000000E-01  8.50000000E-01  8.50000000E-01  8.50000000E-01  8.50000000E-01
  8.50000000E-01  8.50000000E-01  8.50000000E-01  8.50000000E-01  8.50000000E-01
  8.50000000E-01  8.50000000E-01  8.50000000E-01  8.50000000E-01  8.50000000E-01
  8.50000000E-01  8.50000000E-01  8.50000000E-01  8.50000000E-01  8.50000000E-01
  8.50000000E-01  8.50000000E-01  8.50000000E-01  8.50000000E-01  8.50000000E-01
  8.50000000E-01  8.50000000E-01  8.50000000E-01  8.50000000E-01  8.50000000E-01
  8.50000000E-01  8.50000000E-01  8.50000000E-01  8.50000000E-01  8.50000000E-01
  8.50000000E-01  8.50000000E-01  8.50000000E-01  8.50000000E-01  8.50000000E-01
  8.50000000E-01  8.50000000E-01  8.50000000E-01  8.50000000E-01  8.50000000E-01
  8.50000000E-01  8.50000000E-01  8.50000000E-01  8.50000000E-01  8.50000000E-01
  8.50000000E-01  8.50000000E-01  8.50000000E-01  8.50000000E-01  8.50000000E-01
  8.50000000E-01  8.50000000E-01  8.50000000E-01  8.50000000E-01  8.50000000E-01
  8.50000000E-01  8.50000000E-01  8.50000000E-01  8.50000000E-01  8.50000000E-01
  8.50000000E-01  8.50000000E-01  8.50000000E-01  8.50000000E-01  8.50000000E-01
  8.50000000E-01  8.50000000E-01  8.50000000E-01  8.50000000E-01  8.50000000E-01
  8.50000000E-01  8.50000000E-01  8.50000000E-01  8.50000000E-01  8.50000000E-01
  8.50000000E-01  8.50000000E-01  8.50000000E-01  8.50000000E-01  8.50000000E-01
  8.50000000E-01  8.50000000E-01  8.50000000E-01  8.50000000E-01  8.50000000E-01
  8.50000000E-01  8.50000000E-01  8.50000000E-01  8.50000000E-01  8.50000000E-01
  8.50000000E-01  8.50000000E-01  8.50000000E-01  8.50000000E-01  8.50000000E-01
  8.50000000E-01  8.50000000E-01  8.50000000E-01  8.50000000E-01  8.50000000E-01
  8.50000000E-01  8.50000000E-01  8.50000000E-01  8.50000000E-01  8.50000000E-01
  8.50000000E-01  8.50000000E-01  8.50000000E-01  8.50000000E-01  8.50000000E-01
  8.50000000E-01  8.50000000E-01  8.50000000E-01  8.50000000E-01  8.50000000E-01
  8.50000000E-01  8.50000000E-01  8.50000000E-01  8.50000000E-01  8.50000000E-01
  8.50000000E-01  8.50000000E-01  8.50000000E-01  8.50000000E-01  8.50000000E-01
  8.50000000E-01  8.50000000E-01  8.50000000E-01  8.50000000E-01  8.50000000E-01
  8.50000000E-01  8.50000000E-01  8.50000000E-01  8.50000000E-01  8.50000000E-01
  8.50000000E-01  8.50000000E-01  8.50000000E-01  8.50000000E-01  8.50000000E-01
  8.50000000E-01  8.50000000E-01  8.50000000E-01  8.50000000E-01  8.50000000E-01
  8.50000000E-01  8.50000000E-01  8.50000000E-01  8.50000000E-01  8.50000000E-01
  8.50000000E-01  8.50000000E-01  8.50000000E-01  8.50000000E-01  8.50000000E-01
  8.50000000E-01  8.50000000E-01  8.50000000E-01  8.50000000E-01  8.50000000E-01
  8.50000000E-01  8.50000000E-01  8.50000000E-01  8.50000000E-01  8.50000000E-01
  8.50000000E-01  8.50000000E-01  8.50000000E-01  8.50000000E-01  8.50000000E-01
  8.50000000E-01  8.50000000E-01  8.50000000E-01  8.50000000E-01  8.50000000E-01
  8.50000000E-01  8.50000000E-01  8.50000000E-01  8.50000000E-01  8.50000000E-01
  8.50000000E-01  8.50000000E-01  8.50000000E-01  8.50000000E-01  8.50000000E-01
  8.50000000E-01  8.50000000E-01  8.50000000E-01  8.50000000E-01  8.50000000E-01
  8.50000000E-01  8.50000000E-01  8.50000000E-01  8.50000000E-01  8.50000000E-01
  8.50000000E-01  8.50000000E-01  8.50000000E-01  8.50000000E-01  8.50000000E-01
  8.50000000E-01  8.50000000E-01  8.50000000E-01  8.50000000E-01  8.50000000E-01
  8.50000000E-01  8.50000000E-01  8.50000000E-01  8.50000000E-01  8.50000000E-01
  8.50000000E-01  8.50000000E-01  8.50000000E-01  8.50000000E-01  8.50000000E-01
  8.50000000E-01  8.50000000E-01  8.50000000E-01  8.50000000E-01  8.50000000E-01
  8.50000000E-01  8.50000000E-01  8.50000000E-01  8.50000000E-01  8.50000000E-01
  8.50000000E-01  8.50000000E-01  8.50000000E-01  8.50000000E-01  8.50000000E-01
  8.50000000E-01  8.50000000E-01  8.50000000E-01  8.50000000E-01  8.50000000E-01
  8.50000000E-01  8.50000000E-01  8.50000000E-01  8.50000000E-01  8.50000000E-01
  8.50000000E-01  8.50000000E-01  8.50000000E-01  8.50000000E-01  8.50000000E-01
  8.50000000E-01  8.50000000E-01  8.50000000E-01  8.50000000E-01  8.50000000E-01
  8.50000000E-01  8.50000000E-01  8.50000000E-01  8.50000000E-01  8.50000000E-01
  8.50000000E-01  8.50000000E-01  8.50000000E-01  8.50000000E-01  8.50000000E-01
  8.50000000E-01  8.50000000E-01  8.50000000E-01  8.50000000E-01  8.50000000E-01
  8.50000000E-01  8.50000000E-01  8.50000000E-01  8.50000000E-01  8.50000000E-01
  8.50000000E-01  8.50000000E-01  8.50000000E-01  8.50000000E-01  8.50000000E-01
  8.50000000E-01  8.50000000E-01  8.50000000E-01  8.50000000E-01  8.50000000E-01
  8.50000000E-01  8.50000000E-01  8.50000000E-01  8.50000000E-01  8.50000000E-01
  8.50000000E-01  8.50000000E-01  8.50000000E-01  8.50000000E-01  8.50000000E-01
  8.50000000E-01  8.50000000E-01  8.50000000E-01  8.50000000E-01  8.50000000E-01
  8.50000000E-01  8.50000000E-01  8.50000000E-01  8.50000000E-01  8.50000000E-01
  8.50000000E-01  8.50000000E-01  8.50000000E-01  8.50000000E-01  8.50000000E-01
  8.50000000E-01  8.50000000E-01  8.50000000E-01  8.50000000E-01  8.50000000E-01
  8.50000000E-01  8.50000000E-01  8.50000000E-01  8.50000000E-01  8.50000000E-01
  8.50000000E-01  8.50000000E-01  8.50000000E-01  8.50000000E-01  8.50000000E-01
  8.50000000E-01  8.50000000E-01  8.50000000E-01  8.50000000E-01  8.50000000E-01
  8.50000000E-01  8.50000000E-01  8.50000000E-01  8.50000000E-01  8.50000000E-01
  8.50000000E-01  8.50000000E-01  8.50000000E-01  8.50000000E-01  8.50000000E-01
  8.50000000E-01  8.50000000E-01  8.50000000E-01  8.50000000E-01  8.50000000E-01
  8.50000000E-01  8.50000000E-01  8.50000000E-01  8.50000000E-01  8.50000000E-01
  8.50000000E-01  8.50000000E-01  8.50000000E-01  8.50000000E-01  8.50000000E-01
  8.50000000E-01  8.50000000E-01  8.50000000E-01  8.50000000E-01  8.50000000E-01
  8.50000000E-01  8.50000000E-01  8.50000000E-01  8.50000000E-01  8.50000000E-01
  8.50000000E-01  8.50000000E-01  8.50000000E-01  8.50000000E-01  8.50000000E-01
  8.50000000E-01  8.50000000E-01  8.50000000E-01  8.50000000E-01  8.50000000E-01
  8.50000000E-01  8.50000000E-01  8.50000000E-01  8.50000000E-01  8.50000000E-01
  8.50000000E-01  8.50000000E-01  8.50000000E-01  8.50000000E-01  8.50000000E-01
  8.50000000E-01  8.50000000E-01  8.50000000E-01  8.50000000E-01  8.50000000E-01
  8.50000000E-01  8.50000000E-01  8.50000000E-01  8.50000000E-01  8.50000000E-01
  8.50000000E-01  8.50000000E-01  8.50000000E-01  8.50000000E-01  8.50000000E-01
  8.50000000E-01  8.50000000E-01  8.50000000E-01  8.50000000E-01  8.50000000E-01
  8.50000000E-01  8.50000000E-01  8.50000000E-01  8.50000000E-01  8.50000000E-01
  8.50000000E-01  8.50000000E-01  8.50000000E-01  8.50000000E-01  8.50000000E-01
  8.50000000E-01  8.50000000E-01  8.50000000E-01  8.50000000E-01  8.50000000E-01
  8.50000000E-01  8.50000000E-01  8.50000000E-01  8.50000000E-01  8.50000000E-01
  8.50000000E-01  8.50000000E-01  8.50000000E-01  8.50000000E-01  8.50000000E-01
  8.50000000E-01  8.50000000E-01  8.50000000E-01  8.50000000E-01  8.50000000E-01
  8.50000000E-01  8.50000000E-01  8.50000000E-01  8.50000000E-01  8.50000000E-01
  8.50000000E-01  8.50000000E-01  8.50000000E-01  8.50000000E-01  8.50000000E-01
  8.50000000E-01  8.50000000E-01  8.50000000E-01  8.50000000E-01  8.50000000E-01
  8.50000000E-01  8.50000000E-01  8.50000000E-01  8.50000000E-01  8.50000000E-01
  8.50000000E-01  8.50000000E-01  8.50000000E-01  8.50000000E-01  8.50000000E-01
  8.50000000E-01  8.50000000E-01  8.50000000E-01  8.50000000E-01  8.50000000E-01
  8.50000000E-01  8.50000000E-01  8.50000000E-01  8.50000000E-01  8.50000000E-01
  8.50000000E-01  8.50000000E-01  8.50000000E-01  8.50000000E-01  8.50000000E-01
  8.50000000E-01  8.50000000E-01  8.50000000E-01  8.50000000E-01  8.50000000E-01
  8.50000000E-01  8.50000000E-01  8.50000000E-01  8.50000000E-01  8.50000000E-01
  8.50000000E-01  8.50000000E-01  8.50000000E-01  8.50000000E-01  8.50000000E-01
  8.50000000E-01  8.50000000E-01  8.50000000E-01  8.50000000E-01  8.50000000E-01
  8.50000000E-01  8.50000000E-01  8.50000000E-01  8.50000000E-01  8.50000000E-01
  8.50000000E-01  8.50000000E-01  8.50000000E-01  8.50000000E-01  8.50000000E-01
  8.50000000E-01  8.50000000E-01  8.50000000E-01  8.50000000E-01  8.50000000E-01
  8.50000000E-01  8.50000000E-01  8.50000000E-01  8.50000000E-01  8.50000000E-01
  8.50000000E-01  8.50000000E-01  8.50000000E-01  8.50000000E-01  8.50000000E-01
  8.50000000E-01  8.50000000E-01  8.50000000E-01  8.50000000E-01  8.50000000E-01
  8.50000000E-01  8.50000000E-01  8.50000000E-01  8.50000000E-01  8.50000000E-01
  8.50000000E-01  8.50000000E-01  8.50000000E-01  8.50000000E-01  8.50000000E-01
  8.50000000E-01  8.50000000E-01  8.50000000E-01  8.50000000E-01  8.50000000E-01
  8.50000000E-01  8.50000000E-01  8.50000000E-01  8.50000000E-01  8.50000000E-01
  8.50000000E-01  8.50000000E-01  8.50000000E-01  8.50000000E-01  8.50000000E-01
  8.50000000E-01  8.50000000E-01  8.50000000E-01  8.50000000E-01  8.50000000E-01
  8.50000000E-01  8.50000000E-01  8.50000000E-01  8.50000000E-01  8.50000000E-01
  8.50000000E-01  8.50000000E-01  8.50000000E-01  8.50000000E-01  8.50000000E-01
  8.50000000E-01  8.50000000E-01  8.50000000E-01  8.50000000E-01  8.50000000E-01
  8.50000000E-01  8.50000000E-01  8.50000000E-01  8.50000000E-01  8.50000000E-01
  8.50000000E-01  8.50000000E-01  8.50000000E-01  8.50000000E-01  8.50000000E-01
  8.50000000E-01  8.50000000E-01  8.50000000E-01  8.50000000E-01  8.50000000E-01
  8.50000000E-01  8.50000000E-01  8.50000000E-01  8.50000000E-01  8.50000000E-01
  8.50000000E-01  8.50000000E-01  8.50000000E-01  8.50000000E-01  8.50000000E-01
  8.50000000E-01  8.50000000E-01  8.50000000E-01  8.50000000E-01  8.50000000E-01
  8.50000000E-01  8.50000000E-01  8.50000000E-01  8.50000000E-01  8.50000000E-01
  8.50000000E-01  8.50000000E-01  8.50000000E-01  8.50000000E-01  8.50000000E-01
  8.50000000E-01  8.50000000E-01  8.50000000E-01  8.50000000E-01  8.50000000E-01
  8.50000000E-01  8.50000000E-01  8.50000000E-01  8.50000000E-01  8.50000000E-01
  8.50000000E-01  8.50000000E-01  8.50000000E-01  8.50000000E-01  8.50000000E-01
  8.50000000E-01  8.50000000E-01  8.50000000E-01  8.50000000E-01  8.50000000E-01
  8.50000000E-01  8.50000000E-01  8.50000000E-01  8.50000000E-01  8.50000000E-01
  8.50000000E-01  8.50000000E-01  8.50000000E-01  8.50000000E-01  8.50000000E-01
  8.50000000E-01  8.50000000E-01  8.50000000E-01  8.50000000E-01  8.50000000E-01
  8.50000000E-01  8.50000000E-01  8.50000000E-01  8.50000000E-01  8.50000000E-01
  8.50000000E-01  8.50000000E-01  8.50000000E-01  8.50000000E-01  8.50000000E-01
  8.50000000E-01  8.50000000E-01  8.50000000E-01  8.50000000E-01  8.50000000E-01
  8.50000000E-01  8.50000000E-01  8.50000000E-01  8.50000000E-01  8.50000000E-01
  8.50000000E-01  8.50000000E-01  8.50000000E-01  8.50000000E-01  8.50000000E-01
  8.50000000E-01  8.50000000E-01  8.50000000E-01  8.50000000E-01  8.50000000E-01
  8.50000000E-01  8.50000000E-01  8.50000000E-01  8.50000000E-01  8.50000000E-01
  8.50000000E-01  8.50000000E-01  8.50000000E-01  8.50000000E-01  8.50000000E-01
  8.50000000E-01  8.50000000E-01  8.50000000E-01  8.50000000E-01  8.50000000E-01
  8.50000000E-01  8.50000000E-01  8.50000000E-01  8.50000000E-01  8.50000000E-01
  8.50000000E-01  8.50000000E-01  8.50000000E-01  8.50000000E-01  8.50000000E-01
  8.50000000E-01  8.50000000E-01  8.50000000E-01  8.50000000E-01  8.50000000E-01
  8.50000000E-01  8.50000000E-01  8.50000000E-01  8.50000000E-01  8.50000000E-01
  8.50000000E-01  8.50000000E-01  8.50000000E-01  8.50000000E-01  8.50000000E-01
  8.50000000E-01  8.50000000E-01  8.50000000E-01  8.50000000E-01  8.50000000E-01
  8.50000000E-01  8.50000000E-01  8.50000000E-01  8.50000000E-01  8.50000000E-01
  8.50000000E-01  8.50000000E-01  8.50000000E-01  8.50000000E-01  8.50000000E-01
  8.50000000E-01  8.50000000E-01  8.50000000E-01  8.50000000E-01  8.50000000E-01
  8.50000000E-01  8.50000000E-01  8.50000000E-01  8.50000000E-01  8.50000000E-01
  8.50000000E-01  8.50000000E-01  8.50000000E-01  8.50000000E-01  8.50000000E-01
  8.50000000E-01  8.50000000E-01  8.50000000E-01  8.50000000E-01  8.50000000E-01
  8.50000000E-01  8.50000000E-01  8.50000000E-01  8.50000000E-01  8.50000000E-01
  8.50000000E-01  8.50000000E-01  8.50000000E-01  8.50000000E-01  8.50000000E-01
  8.50000000E-01  8.50000000E-01  8.50000000E-01  8.50000000E-01  8.50000000E-01
  8.50000000E-01  8.50000000E-01  8.50000000E-01  8.50000000E-01  8.50000000E-01
  8.50000000E-01  8.50000000E-01  8.50000000E-01  8.50000000E-01  8.50000000E-01
  8.50000000E-01  8.50000000E-01  8.50000000E-01  8.50000000E-01  8.50000000E-01
  8.50000000E-01  8.50000000E-01  8.50000000E-01  8.50000000E-01  8.50000000E-01
  8.50000000E-01  8.50000000E-01  8.50000000E-01  8.50000000E-01  8.50000000E-01
  8.50000000E-01  8.50000000E-01  8.50000000E-01  8.50000000E-01  8.50000000E-01
  8.50000000E-01  8.50000000E-01  8.50000000E-01  8.50000000E-01  8.50000000E-01
  8.50000000E-01  8.50000000E-01  8.50000000E-01  8.50000000E-01  8.50000000E-01
  8.50000000E-01  8.50000000E-01  8.50000000E-01  8.50000000E-01  8.50000000E-01
  8.50000000E-01  8.50000000E-01  8.50000000E-01  8.50000000E-01  8.50000000E-01
  8.50000000E-01  8.50000000E-01  8.50000000E-01  8.50000000E-01  8.50000000E-01
  8.50000000E-01  8.50000000E-01  8.50000000E-01  8.50000000E-01  8.50000000E-01
  8.50000000E-01  8.50000000E-01  8.50000000E-01  8.50000000E-01  8.50000000E-01
  8.50000000E-01  8.50000000E-01  8.50000000E-01  8.50000000E-01  8.50000000E-01
  8.50000000E-01  8.50000000E-01  8.50000000E-01  8.50000000E-01  8.50000000E-01
  8.50000000E-01  8.50000000E-01  8.50000000E-01  8.50000000E-01  8.50000000E-01
  8.50000000E-01  8.50000000E-01  8.50000000E-01  8.50000000E-01  8.50000000E-01
  8.50000000E-01  8.50000000E-01  8.50000000E-01  8.50000000E-01  8.50000000E-01
  8.50000000E-01  8.50000000E-01  8.50000000E-01  8.50000000E-01  8.50000000E-01
  8.50000000E-01  8.50000000E-01  8.50000000E-01  8.50000000E-01  8.50000000E-01
  8.50000000E-01  8.50000000E-01  8.50000000E-01  8.50000000E-01  8.50000000E-01
  8.50000000E-01  8.50000000E-01  8.50000000E-01  8.50000000E-01  8.50000000E-01
  8.50000000E-01  8.50000000E-01  8.50000000E-01  8.50000000E-01  8.50000000E-01
  8.50000000E-01  8.50000000E-01  8.50000000E-01  8.50000000E-01  8.50000000E-01
  8.50000000E-01  8.50000000E-01  8.50000000E-01  8.50000000E-01  8.50000000E-01
  8.50000000E-01  8.50000000E-01  8.50000000E-01  8.50000000E-01  8.50000000E-01
  8.50000000E-01  8.50000000E-01  8.50000000E-01  8.50000000E-01  8.50000000E-01
  8.50000000E-01  8.50000000E-01  8.50000000E-01  8.50000000E-01  8.50000000E-01
  8.50000000E-01  8.50000000E-01  8.50000000E-01  8.50000000E-01  8.50000000E-01
  8.50000000E-01  8.50000000E-01  8.50000000E-01  8.50000000E-01  8.50000000E-01
  8.50000000E-01  8.50000000E-01  8.50000000E-01  8.50000000E-01  8.50000000E-01
  8.50000000E-01  8.50000000E-01  8.50000000E-01  8.50000000E-01  8.50000000E-01
  8.50000000E-01  8.50000000E-01  8.50000000E-01  8.50000000E-01  8.50000000E-01
  8.50000000E-01  8.50000000E-01  8.50000000E-01  8.50000000E-01  8.50000000E-01
  8.50000000E-01  8.50000000E-01  8.50000000E-01  8.50000000E-01  8.50000000E-01
  8.50000000E-01  8.50000000E-01  8.50000000E-01  8.50000000E-01  8.50000000E-01
  8.50000000E-01  8.50000000E-01  8.50000000E-01  8.50000000E-01  8.50000000E-01
  8.50000000E-01  8.50000000E-01  8.50000000E-01  8.50000000E-01  8.50000000E-01
  8.50000000E-01  8.50000000E-01  8.50000000E-01  8.50000000E-01  8.50000000E-01
  8.50000000E-01  8.50000000E-01  8.50000000E-01  8.50000000E-01  8.50000000E-01
  8.50000000E-01  8.50000000E-01  8.50000000E-01  8.50000000E-01  8.50000000E-01
  8.50000000E-01  8.50000000E-01  8.50000000E-01  8.50000000E-01  8.50000000E-01
  8.50000000E-01  8.50000000E-01  8.50000000E-01  8.50000000E-01  8.50000000E-01
  8.50000000E-01  8.50000000E-01  8.50000000E-01  8.50000000E-01  8.50000000E-01
  8.50000000E-01  8.50000000E-01  8.50000000E-01  8.50000000E-01  8.50000000E-01
  8.50000000E-01  8.50000000E-01  8.50000000E-01  8.50000000E-01  8.50000000E-01
  8.50000000E-01  8.50000000E-01  8.50000000E-01  8.50000000E-01  8.50000000E-01
  8.50000000E-01  8.50000000E-01  8.50000000E-01  8.50000000E-01  8.50000000E-01
  8.50000000E-01  8.50000000E-01  8.50000000E-01  8.50000000E-01  8.50000000E-01
  8.50000000E-01  8.50000000E-01  8.50000000E-01  8.50000000E-01  8.50000000E-01
  8.50000000E-01  8.50000000E-01  8.50000000E-01  8.50000000E-01  8.50000000E-01
  8.50000000E-01  8.50000000E-01  8.50000000E-01  8.50000000E-01  8.50000000E-01
  8.50000000E-01  8.50000000E-01  8.50000000E-01  8.50000000E-01  8.50000000E-01
  8.50000000E-01  8.50000000E-01  8.50000000E-01  8.50000000E-01  8.50000000E-01
  8.50000000E-01  8.50000000E-01  8.50000000E-01  8.50000000E-01  8.50000000E-01
  8.50000000E-01  8.50000000E-01  8.50000000E-01  8.50000000E-01  8.50000000E-01
  8.50000000E-01  8.50000000E-01  8.50000000E-01  8.50000000E-01  8.50000000E-01
  8.50000000E-01  8.50000000E-01  8.50000000E-01  8.50000000E-01  8.50000000E-01
  8.50000000E-01  8.50000000E-01  8.50000000E-01  8.50000000E-01  8.50000000E-01
  8.50000000E-01  8.50000000E-01  8.50000000E-01  8.50000000E-01  8.50000000E-01
  8.50000000E-01  8.50000000E-01  8.50000000E-01  8.50000000E-01  8.50000000E-01
  8.50000000E-01  8.50000000E-01  8.50000000E-01  8.50000000E-01  8.50000000E-01
  8.50000000E-01  8.50000000E-01  8.50000000E-01  8.50000000E-01  8.50000000E-01
  8.50000000E-01  8.50000000E-01  8.50000000E-01  8.50000000E-01  8.50000000E-01
  8.50000000E-01  8.50000000E-01  8.50000000E-01  8.50000000E-01  8.50000000E-01
  8.50000000E-01  8.50000000E-01  8.50000000E-01  8.50000000E-01  8.50000000E-01
  8.50000000E-01  8.50000000E-01  8.50000000E-01  8.50000000E-01  8.50000000E-01
  8.50000000E-01  8.50000000E-01  8.50000000E-01  8.50000000E-01  8.50000000E-01
  8.50000000E-01  8.50000000E-01  8.50000000E-01  8.50000000E-01  8.50000000E-01
  8.50000000E-01  8.50000000E-01  8.50000000E-01  8.50000000E-01  8.50000000E-01
  8.50000000E-01  8.50000000E-01  8.50000000E-01  8.50000000E-01  8.50000000E-01
  8.50000000E-01  8.50000000E-01  8.50000000E-01  8.50000000E-01  8.50000000E-01
  8.50000000E-01  8.50000000E-01  8.50000000E-01  8.50000000E-01  8.50000000E-01
  8.50000000E-01  8.50000000E-01  8.50000000E-01  8.50000000E-01  8.50000000E-01
  8.50000000E-01  8.50000000E-01  8.50000000E-01  8.50000000E-01  8.50000000E-01
  8.50000000E-01  8.50000000E-01  8.50000000E-01  8.50000000E-01  8.50000000E-01
  8.50000000E-01  8.50000000E-01  8.50000000E-01  8.50000000E-01  8.50000000E-01
  8.50000000E-01  8.50000000E-01  8.50000000E-01  8.50000000E-01  8.50000000E-01
  8.50000000E-01  8.50000000E-01  8.50000000E-01  8.50000000E-01  8.50000000E-01
  8.50000000E-01  8.50000000E-01  8.50000000E-01  8.50000000E-01  8.50000000E-01
  8.50000000E-01  8.50000000E-01  8.50000000E-01  8.50000000E-01  8.50000000E-01
  8.50000000E-01  8.50000000E-01  8.50000000E-01  8.50000000E-01  8.50000000E-01
  8.50000000E-01  8.50000000E-01  8.50000000E-01  8.50000000E-01  8.50000000E-01
  8.50000000E-01  8.50000000E-01  8.50000000E-01  8.50000000E-01  8.50000000E-01
  8.50000000E-01  8.50000000E-01  8.50000000E-01  8.50000000E-01  8.50000000E-01
  8.50000000E-01  8.50000000E-01  8.50000000E-01  8.50000000E-01  8.50000000E-01
  8.50000000E-01  8.50000000E-01  8.50000000E-01  8.50000000E-01  8.50000000E-01
  8.50000000E-01  8.50000000E-01  8.50000000E-01  8.50000000E-01  8.50000000E-01
  8.50000000E-01  8.50000000E-01  8.50000000E-01  8.50000000E-01  8.50000000E-01
  8.50000000E-01  8.50000000E-01  8.50000000E-01  8.50000000E-01  8.50000000E-01
  8.50000000E-01  8.50000000E-01  8.50000000E-01  8.50000000E-01  8.50000000E-01
  8.50000000E-01  8.50000000E-01  8.50000000E-01  8.50000000E-01  8.50000000E-01
  8.50000000E-01  8.50000000E-01  8.50000000E-01  8.50000000E-01  8.50000000E-01
  8.50000000E-01  8.50000000E-01  8.50000000E-01  8.50000000E-01  8.50000000E-01
  8.50000000E-01  8.50000000E-01  8.50000000E-01  8.50000000E-01  8.50000000E-01
  8.50000000E-01  8.50000000E-01  8.50000000E-01  8.50000000E-01  8.50000000E-01
  8.50000000E-01  8.50000000E-01  8.50000000E-01  8.50000000E-01  8.50000000E-01
  8.50000000E-01  8.50000000E-01  8.50000000E-01  8.50000000E-01  8.50000000E-01
  8.50000000E-01  8.50000000E-01  8.50000000E-01  8.50000000E-01  8.50000000E-01
  8.50000000E-01  8.50000000E-01  8.50000000E-01  8.50000000E-01  8.50000000E-01
  8.50000000E-01  8.50000000E-01  8.50000000E-01  8.50000000E-01  8.50000000E-01
  8.50000000E-01  8.50000000E-01  8.50000000E-01  8.50000000E-01  8.50000000E-01
  8.50000000E-01  8.50000000E-01  8.50000000E-01  8.50000000E-01  8.50000000E-01
  8.50000000E-01  8.50000000E-01  8.50000000E-01  8.50000000E-01  8.50000000E-01
  8.50000000E-01  8.50000000E-01  8.50000000E-01  8.50000000E-01  8.50000000E-01
  8.50000000E-01  8.50000000E-01  8.50000000E-01  8.50000000E-01  8.50000000E-01
  8.50000000E-01  8.50000000E-01  8.50000000E-01  8.50000000E-01  8.50000000E-01
  8.50000000E-01  8.50000000E-01  8.50000000E-01  8.50000000E-01  8.50000000E-01
  8.50000000E-01  8.50000000E-01  8.50000000E-01  8.50000000E-01  8.50000000E-01
  8.50000000E-01  8.50000000E-01  8.50000000E-01  8.50000000E-01  8.50000000E-01
  8.50000000E-01  8.50000000E-01  8.50000000E-01  8.50000000E-01  8.50000000E-01
  8.50000000E-01  8.50000000E-01  8.50000000E-01  8.50000000E-01  8.50000000E-01
  8.50000000E-01  8.50000000E-01  8.50000000E-01  8.50000000E-01  8.50000000E-01
  8.50000000E-01  8.50000000E-01  8.50000000E-01  8.50000000E-01  8.50000000E-01
  8.50000000E-01  8.50000000E-01  8.50000000E-01  8.50000000E-01  8.50000000E-01
  8.50000000E-01  8.50000000E-01  8.50000000E-01  8.50000000E-01  8.50000000E-01
  8.50000000E-01  8.50000000E-01  8.50000000E-01  8.50000000E-01  8.50000000E-01
  8.50000000E-01  8.50000000E-01  8.50000000E-01  8.50000000E-01  8.50000000E-01
  8.50000000E-01  8.50000000E-01  8.50000000E-01  8.50000000E-01  8.50000000E-01
  8.50000000E-01  8.50000000E-01  8.50000000E-01  8.50000000E-01  8.50000000E-01
  8.50000000E-01  8.50000000E-01  8.50000000E-01  8.50000000E-01  8.50000000E-01
  8.50000000E-01  8.50000000E-01  8.50000000E-01  8.50000000E-01  8.50000000E-01
  8.50000000E-01  8.50000000E-01  8.50000000E-01  8.50000000E-01  8.50000000E-01
  8.50000000E-01  8.50000000E-01  8.50000000E-01  8.50000000E-01  8.50000000E-01
  8.50000000E-01  8.50000000E-01  8.50000000E-01  8.50000000E-01  8.50000000E-01
  8.50000000E-01  8.50000000E-01  8.50000000E-01  8.50000000E-01  8.50000000E-01
  8.50000000E-01  8.50000000E-01  8.50000000E-01  8.50000000E-01  8.50000000E-01
  8.50000000E-01  8.50000000E-01  8.50000000E-01  8.50000000E-01  8.50000000E-01
  8.50000000E-01  8.50000000E-01  8.50000000E-01  8.50000000E-01  8.50000000E-01
  8.50000000E-01  8.50000000E-01  8.50000000E-01  8.50000000E-01  8.50000000E-01
  8.50000000E-01  8.50000000E-01  8.50000000E-01  8.50000000E-01  8.50000000E-01
  8.50000000E-01  8.50000000E-01  8.50000000E-01  8.50000000E-01  8.50000000E-01
  8.50000000E-01  8.50000000E-01  8.50000000E-01  8.50000000E-01  8.50000000E-01
  8.50000000E-01  8.50000000E-01  8.50000000E-01  8.50000000E-01  8.50000000E-01
  8.50000000E-01  8.50000000E-01  8.50000000E-01  8.50000000E-01  8.50000000E-01
  8.50000000E-01  8.50000000E-01  8.50000000E-01  8.50000000E-01  8.50000000E-01
  8.50000000E-01  8.50000000E-01  8.50000000E-01  8.50000000E-01  8.50000000E-01
  8.50000000E-01  8.50000000E-01  8.50000000E-01  8.50000000E-01  8.50000000E-01
  8.50000000E-01  8.50000000E-01  8.50000000E-01  8.50000000E-01  8.50000000E-01
  8.50000000E-01  8.50000000E-01  8.50000000E-01  8.50000000E-01  8.50000000E-01
  8.50000000E-01  8.50000000E-01  8.50000000E-01  8.50000000E-01  8.50000000E-01
  8.50000000E-01  8.50000000E-01  8.50000000E-01  8.50000000E-01  8.50000000E-01
  8.50000000E-01  8.50000000E-01  8.50000000E-01  8.50000000E-01  8.50000000E-01
  8.50000000E-01  8.50000000E-01  8.50000000E-01  8.50000000E-01  8.50000000E-01
  8.50000000E-01  8.50000000E-01  8.50000000E-01  8.50000000E-01  8.50000000E-01
  8.50000000E-01  8.50000000E-01  8.50000000E-01  8.50000000E-01  8.50000000E-01
  8.50000000E-01  8.50000000E-01  8.50000000E-01  8.50000000E-01  8.50000000E-01
  8.50000000E-01  8.50000000E-01  8.50000000E-01  8.50000000E-01  8.50000000E-01
  8.50000000E-01  8.50000000E-01  8.50000000E-01  8.50000000E-01  8.50000000E-01
  8.50000000E-01  8.50000000E-01  8.50000000E-01  8.50000000E-01  8.50000000E-01
  8.50000000E-01  8.50000000E-01  8.50000000E-01  8.50000000E-01  8.50000000E-01
  8.50000000E-01  8.50000000E-01  8.50000000E-01  8.50000000E-01  8.50000000E-01
  8.50000000E-01  8.50000000E-01  8.50000000E-01  8.50000000E-01  8.50000000E-01
  8.50000000E-01  8.50000000E-01  8.50000000E-01  8.50000000E-01  8.50000000E-01
  8.50000000E-01  8.50000000E-01  8.50000000E-01  8.50000000E-01  8.50000000E-01
  8.50000000E-01  8.50000000E-01  8.50000000E-01  8.50000000E-01  8.50000000E-01
  8.50000000E-01  8.50000000E-01  8.50000000E-01  8.50000000E-01  8.50000000E-01
  8.50000000E-01  8.50000000E-01  8.50000000E-01  8.50000000E-01  8.50000000E-01
  8.50000000E-01  8.50000000E-01  8.50000000E-01  8.50000000E-01  8.50000000E-01
  8.50000000E-01  8.50000000E-01  8.50000000E-01  8.50000000E-01  8.50000000E-01
  8.50000000E-01  8.50000000E-01  8.50000000E-01  8.50000000E-01  8.50000000E-01
  8.50000000E-01  8.50000000E-01  8.50000000E-01  8.50000000E-01  8.50000000E-01
  8.50000000E-01  8.50000000E-01  8.50000000E-01  8.50000000E-01  8.50000000E-01
  8.50000000E-01  8.50000000E-01  8.50000000E-01  8.50000000E-01  8.50000000E-01
  8.50000000E-01  8.50000000E-01  8.50000000E-01  8.50000000E-01  8.50000000E-01
  8.50000000E-01  8.50000000E-01  8.50000000E-01  8.50000000E-01  8.50000000E-01
  8.50000000E-01  8.50000000E-01  8.50000000E-01  8.50000000E-01  8.50000000E-01
  8.50000000E-01  8.50000000E-01  8.50000000E-01  8.50000000E-01  8.50000000E-01
  8.50000000E-01  8.50000000E-01  8.50000000E-01  8.50000000E-01  8.50000000E-01
  8.50000000E-01  8.50000000E-01  8.50000000E-01  8.50000000E-01  8.50000000E-01
  8.50000000E-01  8.50000000E-01  8.50000000E-01  8.50000000E-01  8.50000000E-01
  8.50000000E-01  8.50000000E-01  8.50000000E-01  8.50000000E-01  8.50000000E-01
  8.50000000E-01  8.50000000E-01  8.50000000E-01  8.50000000E-01  8.50000000E-01
  8.50000000E-01  8.50000000E-01  8.50000000E-01  8.50000000E-01  8.50000000E-01
  8.50000000E-01  8.50000000E-01  8.50000000E-01  8.50000000E-01  8.50000000E-01
  8.50000000E-01  8.50000000E-01  8.50000000E-01  8.50000000E-01  8.50000000E-01
  8.50000000E-01  8.50000000E-01  8.50000000E-01  8.50000000E-01  8.50000000E-01
  8.50000000E-01  8.50000000E-01  8.50000000E-01  8.50000000E-01  8.50000000E-01
  8.50000000E-01  8.50000000E-01  8.50000000E-01  8.50000000E-01  8.50000000E-01
  8.50000000E-01  8.50000000E-01  8.50000000E-01  8.50000000E-01  8.50000000E-01
  8.50000000E-01  8.50000000E-01  8.50000000E-01  8.50000000E-01  8.50000000E-01
  8.50000000E-01  8.50000000E-01  8.50000000E-01  8.50000000E-01  8.50000000E-01
  8.50000000E-01  8.50000000E-01  8.50000000E-01  8.50000000E-01  8.50000000E-01
  8.50000000E-01  8.50000000E-01  8.50000000E-01  8.50000000E-01  8.50000000E-01
  8.50000000E-01  8.50000000E-01  8.50000000E-01  8.50000000E-01  8.50000000E-01
  8.50000000E-01  8.50000000E-01  8.50000000E-01  8.50000000E-01  8.50000000E-01
  8.50000000E-01  8.50000000E-01  8.50000000E-01  8.50000000E-01  8.50000000E-01
  8.50000000E-01  8.50000000E-01  8.50000000E-01  8.50000000E-01  8.50000000E-01
  8.50000000E-01  8.50000000E-01  8.50000000E-01  8.50000000E-01  8.50000000E-01
  8.50000000E-01  8.50000000E-01  8.50000000E-01  8.50000000E-01  8.50000000E-01
  8.50000000E-01  8.50000000E-01  8.50000000E-01  8.50000000E-01  8.50000000E-01
  8.50000000E-01  8.50000000E-01  8.50000000E-01  8.50000000E-01  8.50000000E-01
  8.50000000E-01  8.50000000E-01  8.50000000E-01  8.50000000E-01  8.50000000E-01
  8.50000000E-01  8.50000000E-01  8.50000000E-01  8.50000000E-01  8.50000000E-01
  8.50000000E-01  8.50000000E-01  8.50000000E-01  8.50000000E-01  8.50000000E-01
  8.50000000E-01  8.50000000E-01  8.50000000E-01  8.50000000E-01  8.50000000E-01
  8.50000000E-01  8.50000000E-01  8.50000000E-01  8.50000000E-01  8.50000000E-01
  8.50000000E-01  8.50000000E-01  8.50000000E-01  8.50000000E-01  8.50000000E-01
  8.50000000E-01  8.50000000E-01  8.50000000E-01  8.50000000E-01  8.50000000E-01
  8.50000000E-01  8.50000000E-01  8.50000000E-01  8.50000000E-01  8.50000000E-01
  8.50000000E-01  8.50000000E-01  8.50000000E-01  8.50000000E-01  8.50000000E-01
  8.50000000E-01  8.50000000E-01  8.50000000E-01  8.50000000E-01  8.50000000E-01
  8.50000000E-01  8.50000000E-01  8.50000000E-01  8.50000000E-01  8.50000000E-01
  8.50000000E-01  8.50000000E-01  8.50000000E-01  8.50000000E-01  8.50000000E-01
  8.50000000E-01  8.50000000E-01  8.50000000E-01  8.50000000E-01  8.50000000E-01
  8.50000000E-01  8.50000000E-01  8.50000000E-01  8.50000000E-01  8.50000000E-01
  8.50000000E-01  8.50000000E-01  8.50000000E-01  8.50000000E-01  8.50000000E-01
  8.50000000E-01  8.50000000E-01  8.50000000E-01  8.50000000E-01  8.50000000E-01
  8.50000000E-01  8.50000000E-01  8.50000000E-01  8.50000000E-01  8.50000000E-01
  8.50000000E-01  8.50000000E-01  8.50000000E-01  8.50000000E-01  8.50000000E-01
  8.50000000E-01  8.50000000E-01  8.50000000E-01  8.50000000E-01  8.50000000E-01
  8.50000000E-01  8.50000000E-01  8.50000000E-01  8.50000000E-01  8.50000000E-01
  8.50000000E-01  8.50000000E-01  8.50000000E-01  8.50000000E-01  8.50000000E-01
  8.50000000E-01  8.50000000E-01  8.50000000E-01  8.50000000E-01  8.50000000E-01
  8.50000000E-01  8.50000000E-01  8.50000000E-01  8.50000000E-01  8.50000000E-01
  8.50000000E-01  8.50000000E-01  8.50000000E-01  8.50000000E-01  8.50000000E-01
  8.50000000E-01  8.50000000E-01  8.50000000E-01  8.50000000E-01  8.50000000E-01
  8.50000000E-01  8.50000000E-01  8.50000000E-01  8.50000000E-01  8.50000000E-01
  8.50000000E-01  8.50000000E-01  8.50000000E-01  8.50000000E-01  8.50000000E-01
  8.50000000E-01  8.50000000E-01  8.50000000E-01  8.50000000E-01  8.50000000E-01
  8.50000000E-01  8.50000000E-01  8.50000000E-01  8.50000000E-01  8.50000000E-01
  8.50000000E-01  8.50000000E-01  8.50000000E-01  8.50000000E-01  8.50000000E-01
  8.50000000E-01  8.50000000E-01  8.50000000E-01  8.50000000E-01  8.50000000E-01
  8.50000000E-01  8.50000000E-01  8.50000000E-01  8.50000000E-01  8.50000000E-01
  8.50000000E-01  8.50000000E-01  8.50000000E-01  8.50000000E-01  8.50000000E-01
  8.50000000E-01  8.50000000E-01  8.50000000E-01  8.50000000E-01  8.50000000E-01
  8.50000000E-01  8.50000000E-01  8.50000000E-01  8.50000000E-01  8.50000000E-01
  8.50000000E-01  8.50000000E-01  8.50000000E-01  8.50000000E-01  8.50000000E-01
  8.50000000E-01  8.50000000E-01  8.50000000E-01  8.50000000E-01  8.50000000E-01
  8.50000000E-01  8.50000000E-01  8.50000000E-01  8.50000000E-01  8.50000000E-01
  8.50000000E-01  8.50000000E-01  8.50000000E-01  8.50000000E-01  8.50000000E-01
  8.50000000E-01  8.50000000E-01  8.50000000E-01  8.50000000E-01  8.50000000E-01
  8.50000000E-01  8.50000000E-01  8.50000000E-01  8.50000000E-01  8.50000000E-01
  8.50000000E-01  8.50000000E-01  8.50000000E-01  8.50000000E-01  8.50000000E-01
  8.50000000E-01  8.50000000E-01  8.50000000E-01  8.50000000E-01  8.50000000E-01
  8.50000000E-01  8.50000000E-01  8.50000000E-01  8.50000000E-01  8.50000000E-01
  8.50000000E-01  8.50000000E-01  8.50000000E-01  8.50000000E-01  8.50000000E-01
  8.50000000E-01  8.50000000E-01  8.50000000E-01  8.50000000E-01  8.50000000E-01
  8.50000000E-01  8.50000000E-01  8.50000000E-01  8.50000000E-01  8.50000000E-01
  8.50000000E-01  8.50000000E-01  8.50000000E-01  8.50000000E-01  8.50000000E-01
  8.50000000E-01  8.50000000E-01  8.50000000E-01  8.50000000E-01  8.50000000E-01
  8.50000000E-01  8.50000000E-01  8.50000000E-01  8.50000000E-01  8.50000000E-01
  8.50000000E-01  8.50000000E-01  8.50000000E-01  8.50000000E-01  8.50000000E-01
  8.50000000E-01  8.50000000E-01  8.50000000E-01  8.50000000E-01  8.50000000E-01
  8.50000000E-01  8.50000000E-01  8.50000000E-01  8.50000000E-01  8.50000000E-01
  8.50000000E-01  8.50000000E-01  8.50000000E-01  8.50000000E-01  8.50000000E-01
  8.50000000E-01  8.50000000E-01  8.50000000E-01  8.50000000E-01  8.50000000E-01
  8.50000000E-01  8.50000000E-01  8.50000000E-01  8.50000000E-01  8.50000000E-01
  8.50000000E-01  8.50000000E-01  8.50000000E-01  8.50000000E-01  8.50000000E-01
  8.50000000E-01  8.50000000E-01  8.50000000E-01  8.50000000E-01  8.50000000E-01
  8.50000000E-01  8.50000000E-01  8.50000000E-01  8.50000000E-01  8.50000000E-01
  8.50000000E-01  8.50000000E-01  8.50000000E-01  8.50000000E-01  8.50000000E-01
  8.50000000E-01  8.50000000E-01  8.50000000E-01  8.50000000E-01  8.50000000E-01
  8.50000000E-01  8.50000000E-01  8.50000000E-01  8.50000000E-01  8.50000000E-01
  8.50000000E-01  8.50000000E-01  8.50000000E-01  8.50000000E-01  8.50000000E-01
  8.50000000E-01  8.50000000E-01  8.50000000E-01  8.50000000E-01  8.50000000E-01
  8.50000000E-01  8.50000000E-01  8.50000000E-01  8.50000000E-01  8.50000000E-01
  8.50000000E-01  8.50000000E-01  8.50000000E-01  8.50000000E-01  8.50000000E-01
  8.50000000E-01  8.50000000E-01  8.50000000E-01  8.50000000E-01  8.50000000E-01
  8.50000000E-01  8.50000000E-01  8.50000000E-01  8.50000000E-01  8.50000000E-01
  8.50000000E-01  8.50000000E-01  8.50000000E-01  8.50000000E-01  8.50000000E-01
  8.50000000E-01  8.50000000E-01  8.50000000E-01  8.50000000E-01  8.50000000E-01
  8.50000000E-01  8.50000000E-01  8.50000000E-01  8.50000000E-01  8.50000000E-01
  8.50000000E-01  8.50000000E-01  8.50000000E-01  8.50000000E-01  8.50000000E-01
  8.50000000E-01  8.50000000E-01  8.50000000E-01  8.50000000E-01  8.50000000E-01
  8.50000000E-01  8.50000000E-01  8.50000000E-01  8.50000000E-01  8.50000000E-01
  8.50000000E-01  8.50000000E-01  8.50000000E-01  8.50000000E-01  8.50000000E-01
  8.50000000E-01  8.50000000E-01  8.50000000E-01  8.50000000E-01  8.50000000E-01
  8.50000000E-01  8.50000000E-01  8.50000000E-01  8.50000000E-01  8.50000000E-01
  8.50000000E-01  8.50000000E-01  8.50000000E-01  8.50000000E-01  8.50000000E-01
  8.50000000E-01  8.50000000E-01  8.50000000E-01  8.50000000E-01  8.50000000E-01
  8.50000000E-01  8.50000000E-01  8.50000000E-01  8.50000000E-01  8.50000000E-01
  8.50000000E-01  8.50000000E-01  8.50000000E-01  8.50000000E-01  8.50000000E-01
  8.50000000E-01  8.50000000E-01  8.50000000E-01  8.50000000E-01  8.50000000E-01
  8.50000000E-01  8.50000000E-01  8.50000000E-01  8.50000000E-01  8.50000000E-01
  8.50000000E-01  8.50000000E-01  8.50000000E-01  8.50000000E-01  8.50000000E-01
  8.50000000E-01  8.50000000E-01  8.50000000E-01  8.50000000E-01  8.50000000E-01
  8.50000000E-01  8.50000000E-01  8.50000000E-01  8.50000000E-01  8.50000000E-01
  8.50000000E-01  8.50000000E-01  8.50000000E-01  8.50000000E-01  8.50000000E-01
  8.50000000E-01  8.50000000E-01  8.50000000E-01  8.50000000E-01  8.50000000E-01
  8.50000000E-01  8.50000000E-01  8.50000000E-01  8.50000000E-01  8.50000000E-01
  8.50000000E-01  8.50000000E-01  8.50000000E-01  8.50000000E-01  8.50000000E-01
  8.50000000E-01  8.50000000E-01  8.50000000E-01  8.50000000E-01  8.50000000E-01
  8.50000000E-01  8.50000000E-01  8.50000000E-01  8.50000000E-01  8.50000000E-01
  8.50000000E-01  8.50000000E-01  8.50000000E-01  8.50000000E-01  8.50000000E-01
  8.50000000E-01  8.50000000E-01  8.50000000E-01  8.50000000E-01  8.50000000E-01
  8.50000000E-01  8.50000000E-01  8.50000000E-01  8.50000000E-01  8.50000000E-01
  8.50000000E-01  8.50000000E-01  8.50000000E-01  8.50000000E-01  8.50000000E-01
  8.50000000E-01  8.50000000E-01  8.50000000E-01  8.50000000E-01  8.50000000E-01
  8.50000000E-01  8.50000000E-01  8.50000000E-01  8.50000000E-01  8.50000000E-01
  8.50000000E-01  8.50000000E-01  8.50000000E-01  8.50000000E-01  8.50000000E-01
  8.50000000E-01  8.50000000E-01  8.50000000E-01  8.50000000E-01  8.50000000E-01
  8.50000000E-01  8.50000000E-01  8.50000000E-01  8.50000000E-01  8.50000000E-01
  8.50000000E-01  8.50000000E-01  8.50000000E-01  8.50000000E-01  8.50000000E-01
  8.50000000E-01  8.50000000E-01  8.50000000E-01  8.50000000E-01  8.50000000E-01
  8.50000000E-01  8.50000000E-01  8.50000000E-01  8.50000000E-01  8.50000000E-01
  8.50000000E-01  8.50000000E-01  8.50000000E-01  8.50000000E-01  8.50000000E-01
  8.50000000E-01  8.50000000E-01  8.50000000E-01  8.50000000E-01  8.50000000E-01
  8.50000000E-01  8.50000000E-01  8.50000000E-01  8.50000000E-01  8.50000000E-01
  8.50000000E-01  8.50000000E-01  8.50000000E-01  8.50000000E-01  8.50000000E-01
  8.50000000E-01  8.50000000E-01  8.50000000E-01  8.50000000E-01  8.50000000E-01
  8.50000000E-01  8.50000000E-01  8.50000000E-01  8.50000000E-01  8.50000000E-01
  8.50000000E-01  8.50000000E-01  8.50000000E-01  8.50000000E-01  8.50000000E-01
  8.50000000E-01  8.50000000E-01  8.50000000E-01  8.50000000E-01  8.50000000E-01
  8.50000000E-01  8.50000000E-01  8.50000000E-01  8.50000000E-01  8.50000000E-01
  8.50000000E-01  8.50000000E-01  8.50000000E-01  8.50000000E-01  8.50000000E-01
  8.50000000E-01  8.50000000E-01  8.50000000E-01  8.50000000E-01  8.50000000E-01
  8.50000000E-01  8.50000000E-01  8.50000000E-01  8.50000000E-01  8.50000000E-01
  8.50000000E-01  8.50000000E-01  8.50000000E-01  8.50000000E-01  8.50000000E-01
  8.50000000E-01  8.50000000E-01  8.50000000E-01  8.50000000E-01  8.50000000E-01
  8.50000000E-01  8.50000000E-01  8.50000000E-01  8.50000000E-01  8.50000000E-01
  8.50000000E-01  8.50000000E-01  8.50000000E-01  8.50000000E-01  8.50000000E-01
  8.50000000E-01  8.50000000E-01  8.50000000E-01  8.50000000E-01  8.50000000E-01
  8.50000000E-01  8.50000000E-01  8.50000000E-01  8.50000000E-01  8.50000000E-01
  8.50000000E-01  8.50000000E-01  8.50000000E-01  8.50000000E-01  8.50000000E-01
  8.50000000E-01  8.50000000E-01  8.50000000E-01  8.50000000E-01  8.50000000E-01
  8.50000000E-01  8.50000000E-01  8.50000000E-01  8.50000000E-01  8.50000000E-01
  8.50000000E-01  8.50000000E-01  8.50000000E-01  8.50000000E-01  8.50000000E-01
  8.50000000E-01  8.50000000E-01  8.50000000E-01  8.50000000E-01  8.50000000E-01
  8.50000000E-01  8.50000000E-01  8.50000000E-01  8.50000000E-01  8.50000000E-01
  8.50000000E-01  8.50000000E-01  8.50000000E-01  8.50000000E-01  8.50000000E-01
  8.50000000E-01  8.50000000E-01  8.50000000E-01  8.50000000E-01  8.50000000E-01
  8.50000000E-01  8.50000000E-01  8.50000000E-01  8.50000000E-01  8.50000000E-01
  8.50000000E-01  8.50000000E-01  8.50000000E-01  8.50000000E-01  8.50000000E-01
  8.50000000E-01  8.50000000E-01  8.50000000E-01  8.50000000E-01  8.50000000E-01
  8.50000000E-01  8.50000000E-01  8.50000000E-01  8.50000000E-01  8.50000000E-01
  8.50000000E-01  8.50000000E-01  8.50000000E-01  8.50000000E-01  8.50000000E-01
  8.50000000E-01  8.50000000E-01  8.50000000E-01  8.50000000E-01  8.50000000E-01
  8.50000000E-01  8.50000000E-01  8.50000000E-01  8.50000000E-01  8.50000000E-01
  8.50000000E-01  8.50000000E-01  8.50000000E-01  8.50000000E-01  8.50000000E-01
  8.50000000E-01  8.50000000E-01  8.50000000E-01  8.50000000E-01  8.50000000E-01
  8.50000000E-01  8.50000000E-01  8.50000000E-01  8.50000000E-01  8.50000000E-01
  8.50000000E-01  8.50000000E-01  8.50000000E-01  8.50000000E-01  8.50000000E-01
  8.50000000E-01  8.50000000E-01  8.50000000E-01  8.50000000E-01  8.50000000E-01
  8.50000000E-01  8.50000000E-01  8.50000000E-01  8.50000000E-01  8.50000000E-01
  8.50000000E-01  8.50000000E-01  8.50000000E-01  8.50000000E-01  8.50000000E-01
  8.50000000E-01  8.50000000E-01  8.50000000E-01  8.50000000E-01  8.50000000E-01
  8.50000000E-01  8.50000000E-01  8.50000000E-01  8.50000000E-01  8.50000000E-01
  8.50000000E-01  8.50000000E-01  8.50000000E-01  8.50000000E-01  8.50000000E-01
  8.50000000E-01  8.50000000E-01  8.50000000E-01  8.50000000E-01  8.50000000E-01
  8.50000000E-01  8.50000000E-01  8.50000000E-01  8.50000000E-01  8.50000000E-01
  8.50000000E-01  8.50000000E-01  8.50000000E-01  8.50000000E-01  8.50000000E-01
  8.50000000E-01  8.50000000E-01  8.50000000E-01  8.50000000E-01  8.50000000E-01
  8.50000000E-01  8.50000000E-01  8.50000000E-01  8.50000000E-01  8.50000000E-01
  8.50000000E-01  8.50000000E-01  8.50000000E-01  8.50000000E-01  8.50000000E-01
  8.50000000E-01  8.50000000E-01  8.50000000E-01  8.50000000E-01  8.50000000E-01
  8.50000000E-01  8.50000000E-01  8.50000000E-01  8.50000000E-01  8.50000000E-01
  8.50000000E-01  8.50000000E-01  8.50000000E-01  8.50000000E-01  8.50000000E-01
  8.50000000E-01  8.50000000E-01  8.50000000E-01  8.50000000E-01  8.50000000E-01
  8.50000000E-01  8.50000000E-01  8.50000000E-01  8.50000000E-01  8.50000000E-01
  8.50000000E-01  8.50000000E-01  8.50000000E-01  8.50000000E-01  8.50000000E-01
  8.50000000E-01  8.50000000E-01  8.50000000E-01  8.50000000E-01  8.50000000E-01
  8.50000000E-01  8.50000000E-01  8.50000000E-01  8.50000000E-01  8.50000000E-01
  8.50000000E-01  8.50000000E-01  8.50000000E-01  8.50000000E-01  8.50000000E-01
  8.50000000E-01  8.50000000E-01  8.50000000E-01  8.50000000E-01  8.50000000E-01
  8.50000000E-01  8.50000000E-01  8.50000000E-01  8.50000000E-01  8.50000000E-01
  8.50000000E-01  8.50000000E-01  8.50000000E-01  8.50000000E-01  8.50000000E-01
  8.50000000E-01  8.50000000E-01  8.50000000E-01  8.50000000E-01  8.50000000E-01
  8.50000000E-01  8.50000000E-01  8.50000000E-01  8.50000000E-01  8.50000000E-01
  8.50000000E-01  8.50000000E-01  8.50000000E-01  8.50000000E-01  8.50000000E-01
  8.50000000E-01  8.50000000E-01  8.50000000E-01  8.50000000E-01  8.50000000E-01
  8.50000000E-01  8.50000000E-01  8.50000000E-01  8.50000000E-01  8.50000000E-01
  8.50000000E-01  8.50000000E-01  8.50000000E-01  8.50000000E-01  8.50000000E-01
  8.50000000E-01  8.50000000E-01  8.50000000E-01  8.50000000E-01  8.50000000E-01
  8.50000000E-01  8.50000000E-01  8.50000000E-01  8.50000000E-01  8.50000000E-01
  8.50000000E-01  8.50000000E-01  8.50000000E-01  8.50000000E-01  8.50000000E-01
  8.50000000E-01  8.50000000E-01  8.50000000E-01  8.50000000E-01  8.50000000E-01
  8.50000000E-01  8.50000000E-01  8.50000000E-01  8.50000000E-01  8.50000000E-01
  8.50000000E-01  8.50000000E-01  8.50000000E-01  8.50000000E-01  8.50000000E-01
  8.50000000E-01  8.50000000E-01  8.50000000E-01  8.50000000E-01  8.50000000E-01
  8.50000000E-01  8.50000000E-01  8.50000000E-01  8.50000000E-01  8.50000000E-01
  8.50000000E-01  8.50000000E-01  8.50000000E-01  8.50000000E-01  8.50000000E-01
  8.50000000E-01  8.50000000E-01  8.50000000E-01  8.50000000E-01  8.50000000E-01
  8.50000000E-01  8.50000000E-01  8.50000000E-01  8.50000000E-01  8.50000000E-01
  8.50000000E-01  8.50000000E-01  8.50000000E-01  8.50000000E-01  8.50000000E-01
  8.50000000E-01  8.50000000E-01  8.50000000E-01  8.50000000E-01  8.50000000E-01
  8.50000000E-01  8.50000000E-01  8.50000000E-01  8.50000000E-01  8.50000000E-01
  8.50000000E-01  8.50000000E-01  8.50000000E-01  8.50000000E-01  8.50000000E-01
  8.50000000E-01  8.50000000E-01  8.50000000E-01  8.50000000E-01  8.50000000E-01
  8.50000000E-01  8.50000000E-01  8.50000000E-01  8.50000000E-01  8.50000000E-01
  8.50000000E-01  8.50000000E-01  8.50000000E-01  8.50000000E-01  8.50000000E-01
  8.50000000E-01  8.50000000E-01  8.50000000E-01  8.50000000E-01  8.50000000E-01
  8.50000000E-01  8.50000000E-01  8.50000000E-01  8.50000000E-01  8.50000000E-01
  8.50000000E-01  8.50000000E-01  8.50000000E-01  8.50000000E-01  8.50000000E-01
  8.50000000E-01  8.50000000E-01  8.50000000E-01  8.50000000E-01  8.50000000E-01
  8.50000000E-01  8.50000000E-01  8.50000000E-01  8.50000000E-01  8.50000000E-01
  8.50000000E-01  8.50000000E-01  8.50000000E-01  8.50000000E-01  8.50000000E-01
  8.50000000E-01  8.50000000E-01  8.50000000E-01  8.50000000E-01  8.50000000E-01
  8.50000000E-01  8.50000000E-01  8.50000000E-01  8.50000000E-01  8.50000000E-01
  8.50000000E-01  8.50000000E-01  8.50000000E-01  8.50000000E-01  8.50000000E-01
  8.50000000E-01  8.50000000E-01  8.50000000E-01  8.50000000E-01  8.50000000E-01
  8.50000000E-01  8.50000000E-01  8.50000000E-01  8.50000000E-01  8.50000000E-01
  8.50000000E-01  8.50000000E-01  8.50000000E-01  8.50000000E-01  8.50000000E-01
  8.50000000E-01  8.50000000E-01  8.50000000E-01  8.50000000E-01  8.50000000E-01
  8.50000000E-01  8.50000000E-01  8.50000000E-01  8.50000000E-01  8.50000000E-01
  8.50000000E-01  8.50000000E-01  8.50000000E-01  8.50000000E-01  8.50000000E-01
  8.50000000E-01  8.50000000E-01  8.50000000E-01  8.50000000E-01  8.50000000E-01
  8.50000000E-01  8.50000000E-01  8.50000000E-01  8.50000000E-01  8.50000000E-01
  8.50000000E-01  8.50000000E-01  8.50000000E-01  8.50000000E-01  8.50000000E-01
  8.50000000E-01  8.50000000E-01  8.50000000E-01  8.50000000E-01  8.50000000E-01
  8.50000000E-01  8.50000000E-01  8.50000000E-01  8.50000000E-01  8.50000000E-01
  8.50000000E-01  8.50000000E-01  8.50000000E-01  8.50000000E-01  8.50000000E-01
  8.50000000E-01  8.50000000E-01  8.50000000E-01  8.50000000E-01  8.50000000E-01
  8.50000000E-01  8.50000000E-01  8.50000000E-01  8.50000000E-01  8.50000000E-01
  8.50000000E-01  8.50000000E-01  8.50000000E-01  8.50000000E-01  8.50000000E-01
  8.50000000E-01  8.50000000E-01  8.50000000E-01  8.50000000E-01  8.50000000E-01
  8.50000000E-01  8.50000000E-01  8.50000000E-01  8.50000000E-01  8.50000000E-01
  8.50000000E-01  8.50000000E-01  8.50000000E-01  8.50000000E-01  8.50000000E-01
  8.50000000E-01  8.50000000E-01  8.50000000E-01  8.50000000E-01  8.50000000E-01
  8.50000000E-01  8.50000000E-01  8.50000000E-01  8.50000000E-01  8.50000000E-01
  8.50000000E-01  8.50000000E-01  8.50000000E-01  8.50000000E-01  8.50000000E-01
  8.50000000E-01  8.50000000E-01  8.50000000E-01  8.50000000E-01  8.50000000E-01
  8.50000000E-01  8.50000000E-01  8.50000000E-01  8.50000000E-01  8.50000000E-01
  8.50000000E-01  8.50000000E-01  8.50000000E-01  8.50000000E-01  8.50000000E-01
  8.50000000E-01  8.50000000E-01  8.50000000E-01  8.50000000E-01  8.50000000E-01
  8.50000000E-01  8.50000000E-01  8.50000000E-01  8.50000000E-01  8.50000000E-01
  8.50000000E-01  8.50000000E-01  8.50000000E-01  8.50000000E-01  8.50000000E-01
  8.50000000E-01  8.50000000E-01  8.50000000E-01  8.50000000E-01  8.50000000E-01
  8.50000000E-01  8.50000000E-01  8.50000000E-01  8.50000000E-01  8.50000000E-01
  8.50000000E-01  8.50000000E-01  8.50000000E-01  8.50000000E-01  8.50000000E-01
  8.50000000E-01  8.50000000E-01  8.50000000E-01  8.50000000E-01  8.50000000E-01
  8.50000000E-01  8.50000000E-01  8.50000000E-01  8.50000000E-01  8.50000000E-01
  8.50000000E-01  8.50000000E-01  8.50000000E-01  8.50000000E-01  8.50000000E-01
  8.50000000E-01  8.50000000E-01  8.50000000E-01  8.50000000E-01  8.50000000E-01
  8.50000000E-01  8.50000000E-01  8.50000000E-01  8.50000000E-01  8.50000000E-01
  8.50000000E-01  8.50000000E-01  8.50000000E-01  8.50000000E-01  8.50000000E-01
  8.50000000E-01  8.50000000E-01  8.50000000E-01  8.50000000E-01  8.50000000E-01
  8.50000000E-01  8.50000000E-01  8.50000000E-01  8.50000000E-01  8.50000000E-01
  8.50000000E-01  8.50000000E-01  8.50000000E-01  8.50000000E-01  8.50000000E-01
  8.50000000E-01  8.50000000E-01  8.50000000E-01  8.50000000E-01  8.50000000E-01
  8.50000000E-01  8.50000000E-01  8.50000000E-01  8.50000000E-01  8.50000000E-01
  8.50000000E-01  8.50000000E-01  8.50000000E-01  8.50000000E-01  8.50000000E-01
  8.50000000E-01  8.50000000E-01  8.50000000E-01  8.50000000E-01  8.50000000E-01
  8.50000000E-01  8.50000000E-01  8.50000000E-01  8.50000000E-01  8.50000000E-01
  8.50000000E-01  8.50000000E-01  8.50000000E-01  8.50000000E-01  8.50000000E-01
  8.50000000E-01  8.50000000E-01  8.50000000E-01  8.50000000E-01  8.50000000E-01
  8.50000000E-01  8.50000000E-01  8.50000000E-01  8.50000000E-01  8.50000000E-01
  8.50000000E-01  8.50000000E-01  8.50000000E-01  8.50000000E-01  8.50000000E-01
  8.50000000E-01  8.50000000E-01  8.50000000E-01  8.50000000E-01  8.50000000E-01
  8.50000000E-01  8.50000000E-01  8.50000000E-01  8.50000000E-01  8.50000000E-01
  8.50000000E-01  8.50000000E-01  8.50000000E-01  8.50000000E-01  8.50000000E-01
  8.50000000E-01  8.50000000E-01  8.50000000E-01  8.50000000E-01  8.50000000E-01
  8.50000000E-01  8.50000000E-01  8.50000000E-01  8.50000000E-01  8.50000000E-01
  8.50000000E-01  8.50000000E-01  8.50000000E-01  8.50000000E-01  8.50000000E-01
  8.50000000E-01  8.50000000E-01  8.50000000E-01  8.50000000E-01  8.50000000E-01
  8.50000000E-01  8.50000000E-01  8.50000000E-01  8.50000000E-01  8.50000000E-01
  8.50000000E-01  8.50000000E-01  8.50000000E-01  8.50000000E-01  8.50000000E-01
  8.50000000E-01  8.50000000E-01  8.50000000E-01  8.50000000E-01  8.50000000E-01
  8.50000000E-01  8.50000000E-01  8.50000000E-01  8.50000000E-01  8.50000000E-01
  8.50000000E-01  8.50000000E-01  8.50000000E-01  8.50000000E-01  8.50000000E-01
  8.50000000E-01  8.50000000E-01  8.50000000E-01  8.50000000E-01  8.50000000E-01
  8.50000000E-01  8.50000000E-01  8.50000000E-01  8.50000000E-01  8.50000000E-01
  8.50000000E-01  8.50000000E-01  8.50000000E-01  8.50000000E-01  8.50000000E-01
  8.50000000E-01  8.50000000E-01  8.50000000E-01  8.50000000E-01  8.50000000E-01
  8.50000000E-01  8.50000000E-01  8.50000000E-01  8.50000000E-01  8.50000000E-01
  8.50000000E-01  8.50000000E-01  8.50000000E-01  8.50000000E-01  8.50000000E-01
  8.50000000E-01  8.50000000E-01  8.50000000E-01  8.50000000E-01  8.50000000E-01
  8.50000000E-01  8.50000000E-01  8.50000000E-01  8.50000000E-01  8.50000000E-01
  8.50000000E-01  8.50000000E-01  8.50000000E-01  8.50000000E-01  8.50000000E-01
  8.50000000E-01  8.50000000E-01  8.50000000E-01  8.50000000E-01  8.50000000E-01
  8.50000000E-01  8.50000000E-01  8.50000000E-01  8.50000000E-01  8.50000000E-01
  8.50000000E-01  8.50000000E-01  8.50000000E-01  8.50000000E-01  8.50000000E-01
  8.50000000E-01  8.50000000E-01  8.50000000E-01  8.50000000E-01  8.50000000E-01
  8.50000000E-01  8.50000000E-01  8.50000000E-01  8.50000000E-01  8.50000000E-01
  8.50000000E-01  8.50000000E-01  8.50000000E-01  8.50000000E-01  8.50000000E-01
  8.50000000E-01  8.50000000E-01  8.50000000E-01  8.50000000E-01  8.50000000E-01
  8.50000000E-01  8.50000000E-01  8.50000000E-01  8.50000000E-01  8.50000000E-01
  8.50000000E-01  8.50000000E-01  8.50000000E-01  8.50000000E-01  8.50000000E-01
  8.50000000E-01  8.50000000E-01  8.50000000E-01  8.50000000E-01  8.50000000E-01
  8.50000000E-01  8.50000000E-01  8.50000000E-01  8.50000000E-01  8.50000000E-01
  8.50000000E-01  8.50000000E-01  8.50000000E-01  8.50000000E-01  8.50000000E-01
  8.50000000E-01  8.50000000E-01  8.50000000E-01  8.50000000E-01  8.50000000E-01
  8.50000000E-01  8.50000000E-01  8.50000000E-01  8.50000000E-01  8.50000000E-01
  8.50000000E-01  8.50000000E-01  8.50000000E-01  8.50000000E-01  8.50000000E-01
  8.50000000E-01  8.50000000E-01  8.50000000E-01  8.50000000E-01  8.50000000E-01
  8.50000000E-01  8.50000000E-01  8.50000000E-01  8.50000000E-01  8.50000000E-01
  8.50000000E-01  8.50000000E-01  8.50000000E-01  8.50000000E-01  8.50000000E-01
  8.50000000E-01  8.50000000E-01  8.50000000E-01  8.50000000E-01  8.50000000E-01
  8.50000000E-01  8.50000000E-01  8.50000000E-01  8.50000000E-01  8.50000000E-01
  8.50000000E-01  8.50000000E-01  8.50000000E-01  8.50000000E-01  8.50000000E-01
  8.50000000E-01  8.50000000E-01  8.50000000E-01  8.50000000E-01  8.50000000E-01
  8.50000000E-01  8.50000000E-01  8.50000000E-01  8.50000000E-01  8.50000000E-01
  8.50000000E-01  8.50000000E-01  8.50000000E-01  8.50000000E-01  8.50000000E-01
  8.50000000E-01  8.50000000E-01  8.50000000E-01  8.50000000E-01  8.50000000E-01
  8.50000000E-01  8.50000000E-01  8.50000000E-01  8.50000000E-01  8.50000000E-01
  8.50000000E-01  8.50000000E-01  8.50000000E-01  8.50000000E-01  8.50000000E-01
  8.50000000E-01  8.50000000E-01  8.50000000E-01  8.50000000E-01  8.50000000E-01
  8.50000000E-01  8.50000000E-01  8.50000000E-01  8.50000000E-01  8.50000000E-01
  8.50000000E-01  8.50000000E-01  8.50000000E-01  8.50000000E-01  8.50000000E-01
  8.50000000E-01  8.50000000E-01  8.50000000E-01  8.50000000E-01  8.50000000E-01
  8.50000000E-01  8.50000000E-01  8.50000000E-01  8.50000000E-01  8.50000000E-01
  8.50000000E-01  8.50000000E-01  8.50000000E-01  8.50000000E-01  8.50000000E-01
  8.50000000E-01  8.50000000E-01  8.50000000E-01  8.50000000E-01  8.50000000E-01
  8.50000000E-01  8.50000000E-01  8.50000000E-01  8.50000000E-01  8.50000000E-01
  8.50000000E-01  8.50000000E-01  8.50000000E-01  8.50000000E-01  8.50000000E-01
  8.50000000E-01  8.50000000E-01  8.50000000E-01  8.50000000E-01  8.50000000E-01
  8.50000000E-01  8.50000000E-01  8.50000000E-01  8.50000000E-01  8.50000000E-01
  8.50000000E-01  8.50000000E-01  8.50000000E-01  8.50000000E-01  8.50000000E-01
  8.50000000E-01  8.50000000E-01  8.50000000E-01  8.50000000E-01  8.50000000E-01
  8.50000000E-01  8.50000000E-01  8.50000000E-01  8.50000000E-01  8.50000000E-01
  8.50000000E-01  8.50000000E-01  8.50000000E-01  8.50000000E-01  8.50000000E-01
  8.50000000E-01  8.50000000E-01  8.50000000E-01  8.50000000E-01  8.50000000E-01
  8.50000000E-01  8.50000000E-01  8.50000000E-01  8.50000000E-01  8.50000000E-01
  8.50000000E-01  8.50000000E-01  8.50000000E-01  8.50000000E-01  8.50000000E-01
  8.50000000E-01  8.50000000E-01  8.50000000E-01  8.50000000E-01  8.50000000E-01
  8.50000000E-01  8.50000000E-01  8.50000000E-01  8.50000000E-01  8.50000000E-01
  8.50000000E-01  8.50000000E-01  8.50000000E-01  8.50000000E-01  8.50000000E-01
  8.50000000E-01  8.50000000E-01  8.50000000E-01  8.50000000E-01  8.50000000E-01
  8.50000000E-01  8.50000000E-01  8.50000000E-01  8.50000000E-01  8.50000000E-01
  8.50000000E-01  8.50000000E-01  8.50000000E-01  8.50000000E-01  8.50000000E-01
  8.50000000E-01  8.50000000E-01  8.50000000E-01  8.50000000E-01  8.50000000E-01
  8.50000000E-01  8.50000000E-01  8.50000000E-01  8.50000000E-01  8.50000000E-01
  8.50000000E-01  8.50000000E-01  8.50000000E-01  8.50000000E-01  8.50000000E-01
  8.50000000E-01  8.50000000E-01  8.50000000E-01  8.50000000E-01  8.50000000E-01
  8.50000000E-01  8.50000000E-01  8.50000000E-01  8.50000000E-01  8.50000000E-01
  8.50000000E-01  8.50000000E-01  8.50000000E-01  8.50000000E-01  8.50000000E-01
  8.50000000E-01  8.50000000E-01  8.50000000E-01  8.50000000E-01  8.50000000E-01
  8.50000000E-01  8.50000000E-01  8.50000000E-01  8.50000000E-01  8.50000000E-01
  8.50000000E-01  8.50000000E-01  8.50000000E-01  8.50000000E-01  8.50000000E-01
  8.50000000E-01  8.50000000E-01  8.50000000E-01  8.50000000E-01  8.50000000E-01
  8.50000000E-01  8.50000000E-01  8.50000000E-01  8.50000000E-01  8.50000000E-01
  8.50000000E-01  8.50000000E-01  8.50000000E-01  8.50000000E-01  8.50000000E-01
  8.50000000E-01  8.50000000E-01  8.50000000E-01  8.50000000E-01  8.50000000E-01
  8.50000000E-01  8.50000000E-01  8.50000000E-01  8.50000000E-01  8.50000000E-01
  8.50000000E-01  8.50000000E-01  8.50000000E-01  8.50000000E-01  8.50000000E-01
  8.50000000E-01  8.50000000E-01  8.50000000E-01  8.50000000E-01  8.50000000E-01
  8.50000000E-01  8.50000000E-01  8.50000000E-01  8.50000000E-01  8.50000000E-01
  8.50000000E-01  8.50000000E-01  8.50000000E-01  8.50000000E-01  8.50000000E-01
  8.50000000E-01  8.50000000E-01  8.50000000E-01  8.50000000E-01  8.50000000E-01
  8.50000000E-01  8.50000000E-01  8.50000000E-01  8.50000000E-01  8.50000000E-01
  8.50000000E-01  8.50000000E-01  8.50000000E-01  8.50000000E-01  8.50000000E-01
  8.50000000E-01  8.50000000E-01  8.50000000E-01  8.50000000E-01  8.50000000E-01
  8.50000000E-01  8.50000000E-01  8.50000000E-01  8.50000000E-01  8.50000000E-01
  8.50000000E-01  8.50000000E-01  8.50000000E-01  8.50000000E-01  8.50000000E-01
  8.50000000E-01  8.50000000E-01  8.50000000E-01  8.50000000E-01  8.50000000E-01
  8.50000000E-01  8.50000000E-01  8.50000000E-01  8.50000000E-01  8.50000000E-01
  8.50000000E-01  8.50000000E-01  8.50000000E-01  8.50000000E-01  8.50000000E-01
  8.50000000E-01  8.50000000E-01  8.50000000E-01  8.50000000E-01  8.50000000E-01
  8.50000000E-01  8.50000000E-01  8.50000000E-01  8.50000000E-01  8.50000000E-01
  8.50000000E-01  8.50000000E-01  8.50000000E-01  8.50000000E-01  8.50000000E-01
  8.50000000E-01  8.50000000E-01  8.50000000E-01  8.50000000E-01  8.50000000E-01
  8.50000000E-01  8.50000000E-01  8.50000000E-01  8.50000000E-01  8.50000000E-01
  8.50000000E-01  8.50000000E-01  8.50000000E-01  8.50000000E-01  8.50000000E-01
  8.50000000E-01  8.50000000E-01  8.50000000E-01  8.50000000E-01  8.50000000E-01
  8.50000000E-01  8.50000000E-01  8.50000000E-01  8.50000000E-01  8.50000000E-01
  8.50000000E-01  8.50000000E-01  8.50000000E-01  8.50000000E-01  8.50000000E-01
  8.50000000E-01  8.50000000E-01  8.50000000E-01  8.50000000E-01  8.50000000E-01
  8.50000000E-01  8.50000000E-01  8.50000000E-01  8.50000000E-01  8.50000000E-01
  8.50000000E-01  8.50000000E-01  8.50000000E-01  8.50000000E-01  8.50000000E-01
  8.50000000E-01  8.50000000E-01  8.50000000E-01  8.50000000E-01  8.50000000E-01
  8.50000000E-01  8.50000000E-01  8.50000000E-01  8.50000000E-01  8.50000000E-01
  8.50000000E-01  8.50000000E-01  8.50000000E-01  8.50000000E-01  8.50000000E-01
  8.50000000E-01  8.50000000E-01  8.50000000E-01  8.50000000E-01  8.50000000E-01
  8.50000000E-01  8.50000000E-01  8.50000000E-01  8.50000000E-01  8.50000000E-01
  8.50000000E-01  8.50000000E-01  8.50000000E-01  8.50000000E-01  8.50000000E-01
  8.50000000E-01  8.50000000E-01  8.50000000E-01  8.50000000E-01  8.50000000E-01
  8.50000000E-01  8.50000000E-01  8.50000000E-01  8.50000000E-01  8.50000000E-01
  8.50000000E-01  8.50000000E-01  8.50000000E-01  8.50000000E-01  8.50000000E-01
  8.50000000E-01  8.50000000E-01  8.50000000E-01  8.50000000E-01  8.50000000E-01
  8.50000000E-01  8.50000000E-01  8.50000000E-01  8.50000000E-01  8.50000000E-01
  8.50000000E-01  8.50000000E-01  8.50000000E-01  8.50000000E-01  8.50000000E-01
  8.50000000E-01  8.50000000E-01  8.50000000E-01  8.50000000E-01  8.50000000E-01
  8.50000000E-01  8.50000000E-01  8.50000000E-01  8.50000000E-01  8.50000000E-01
  8.50000000E-01  8.50000000E-01  8.50000000E-01  8.50000000E-01  8.50000000E-01
  8.50000000E-01  8.50000000E-01  8.50000000E-01  8.50000000E-01  8.50000000E-01
  8.50000000E-01  8.50000000E-01  8.50000000E-01  8.50000000E-01  8.50000000E-01
  8.50000000E-01  8.50000000E-01  8.50000000E-01  8.50000000E-01  8.50000000E-01
  8.50000000E-01  8.50000000E-01  8.50000000E-01  8.50000000E-01  8.50000000E-01
  8.50000000E-01  8.50000000E-01  8.50000000E-01  8.50000000E-01  8.50000000E-01
  8.50000000E-01  8.50000000E-01  8.50000000E-01  8.50000000E-01  8.50000000E-01
  8.50000000E-01  8.50000000E-01  8.50000000E-01  8.50000000E-01  8.50000000E-01
  8.50000000E-01  8.50000000E-01  8.50000000E-01  8.50000000E-01  8.50000000E-01
  8.50000000E-01  8.50000000E-01  8.50000000E-01  8.50000000E-01  8.50000000E-01
  8.50000000E-01  8.50000000E-01  8.50000000E-01  8.50000000E-01  8.50000000E-01
  8.50000000E-01  8.50000000E-01  8.50000000E-01  8.50000000E-01  8.50000000E-01
  8.50000000E-01  8.50000000E-01  8.50000000E-01  8.50000000E-01  8.50000000E-01
  8.50000000E-01  8.50000000E-01  8.50000000E-01  8.50000000E-01  8.50000000E-01
  8.50000000E-01  8.50000000E-01  8.50000000E-01  8.50000000E-01  8.50000000E-01
  8.50000000E-01  8.50000000E-01  8.50000000E-01  8.50000000E-01  8.50000000E-01
  8.50000000E-01  8.50000000E-01  8.50000000E-01  8.50000000E-01  8.50000000E-01
  8.50000000E-01  8.50000000E-01  8.50000000E-01  8.50000000E-01  8.50000000E-01
  8.50000000E-01  8.50000000E-01  8.50000000E-01  8.50000000E-01  8.50000000E-01
  8.50000000E-01  8.50000000E-01  8.50000000E-01  8.50000000E-01  8.50000000E-01
  8.50000000E-01  8.50000000E-01  8.50000000E-01  8.50000000E-01  8.50000000E-01
  8.50000000E-01  8.50000000E-01  8.50000000E-01  8.50000000E-01  8.50000000E-01
  8.50000000E-01  8.50000000E-01  8.50000000E-01  8.50000000E-01  8.50000000E-01
  8.50000000E-01  8.50000000E-01  8.50000000E-01  8.50000000E-01  8.50000000E-01
  8.50000000E-01  8.50000000E-01  8.50000000E-01  8.50000000E-01  8.50000000E-01
  8.50000000E-01  8.50000000E-01  8.50000000E-01  8.50000000E-01  8.50000000E-01
  8.50000000E-01  8.50000000E-01  8.50000000E-01  8.50000000E-01  8.50000000E-01
  8.50000000E-01  8.50000000E-01  8.50000000E-01  8.50000000E-01  8.50000000E-01
  8.50000000E-01  8.50000000E-01  8.50000000E-01  8.50000000E-01  8.50000000E-01
  8.50000000E-01  8.50000000E-01  8.50000000E-01  8.50000000E-01  8.50000000E-01
  8.50000000E-01  8.50000000E-01  8.50000000E-01  8.50000000E-01  8.50000000E-01
  8.50000000E-01  8.50000000E-01  8.50000000E-01  8.50000000E-01  8.50000000E-01
  8.50000000E-01  8.50000000E-01  8.50000000E-01  8.50000000E-01  8.50000000E-01
  8.50000000E-01  8.50000000E-01  8.50000000E-01  8.50000000E-01  8.50000000E-01
  8.50000000E-01  8.50000000E-01  8.50000000E-01  8.50000000E-01  8.50000000E-01
  8.50000000E-01  8.50000000E-01  8.50000000E-01  8.50000000E-01  8.50000000E-01
  8.50000000E-01  8.50000000E-01  8.50000000E-01  8.50000000E-01  8.50000000E-01
  8.50000000E-01  8.50000000E-01  8.50000000E-01  8.50000000E-01  8.50000000E-01
  8.50000000E-01  8.50000000E-01  8.50000000E-01  8.50000000E-01  8.50000000E-01
  8.50000000E-01  8.50000000E-01  8.50000000E-01  8.50000000E-01  8.50000000E-01
  8.50000000E-01  8.50000000E-01  8.50000000E-01  8.50000000E-01  8.50000000E-01
  8.50000000E-01  8.50000000E-01  8.50000000E-01  8.50000000E-01  8.50000000E-01
  8.50000000E-01  8.50000000E-01  8.50000000E-01  8.50000000E-01  8.50000000E-01
  8.50000000E-01  8.50000000E-01  8.50000000E-01  8.50000000E-01  8.50000000E-01
  8.50000000E-01  8.50000000E-01  8.50000000E-01  8.50000000E-01  8.50000000E-01
  8.50000000E-01  8.50000000E-01  8.50000000E-01  8.50000000E-01  8.50000000E-01
  8.50000000E-01  8.50000000E-01  8.50000000E-01  8.50000000E-01  8.50000000E-01
  8.50000000E-01  8.50000000E-01  8.50000000E-01  8.50000000E-01  8.50000000E-01
  8.50000000E-01  8.50000000E-01  8.50000000E-01  8.50000000E-01  8.50000000E-01
  8.50000000E-01  8.50000000E-01  8.50000000E-01  8.50000000E-01  8.50000000E-01
  8.50000000E-01  8.50000000E-01  8.50000000E-01  8.50000000E-01  8.50000000E-01
  8.50000000E-01  8.50000000E-01  8.50000000E-01  8.50000000E-01  8.50000000E-01
  8.50000000E-01  8.50000000E-01  8.50000000E-01  8.50000000E-01  8.50000000E-01
  8.50000000E-01  8.50000000E-01  8.50000000E-01  8.50000000E-01  8.50000000E-01
  8.50000000E-01  8.50000000E-01  8.50000000E-01  8.50000000E-01  8.50000000E-01
  8.50000000E-01  8.50000000E-01  8.50000000E-01  8.50000000E-01  8.50000000E-01
  8.50000000E-01  8.50000000E-01  8.50000000E-01  8.50000000E-01  8.50000000E-01
  8.50000000E-01  8.50000000E-01  8.50000000E-01  8.50000000E-01  8.50000000E-01
  8.50000000E-01  8.50000000E-01  8.50000000E-01  8.50000000E-01  8.50000000E-01
  8.50000000E-01  8.50000000E-01  8.50000000E-01  8.50000000E-01  8.50000000E-01
  8.50000000E-01  8.50000000E-01  8.50000000E-01  8.50000000E-01  8.50000000E-01
  8.50000000E-01  8.50000000E-01  8.50000000E-01  8.50000000E-01  8.50000000E-01
  8.50000000E-01  8.50000000E-01  8.50000000E-01  8.50000000E-01  8.50000000E-01
  8.50000000E-01  8.50000000E-01  8.50000000E-01  8.50000000E-01  8.50000000E-01
  8.50000000E-01  8.50000000E-01  8.50000000E-01  8.50000000E-01  8.50000000E-01
  8.50000000E-01  8.50000000E-01  8.50000000E-01  8.50000000E-01  8.50000000E-01
  8.50000000E-01  8.50000000E-01  8.50000000E-01  8.50000000E-01  8.50000000E-01
  8.50000000E-01  8.50000000E-01  8.50000000E-01  8.50000000E-01  8.50000000E-01
  8.50000000E-01  8.50000000E-01  8.50000000E-01  8.50000000E-01  8.50000000E-01
  8.50000000E-01  8.50000000E-01  8.50000000E-01  8.50000000E-01  8.50000000E-01
  8.50000000E-01  8.50000000E-01  8.50000000E-01  8.50000000E-01  8.50000000E-01
  8.50000000E-01  8.50000000E-01  8.50000000E-01  8.50000000E-01  8.50000000E-01
  8.50000000E-01  8.50000000E-01  8.50000000E-01  8.50000000E-01  8.50000000E-01
  8.50000000E-01  8.50000000E-01  8.50000000E-01  8.50000000E-01  8.50000000E-01
  8.50000000E-01  8.50000000E-01  8.50000000E-01  8.50000000E-01  8.50000000E-01
  8.50000000E-01  8.50000000E-01  8.50000000E-01  8.50000000E-01  8.50000000E-01
  8.50000000E-01  8.50000000E-01  8.50000000E-01  8.50000000E-01  8.50000000E-01
  8.50000000E-01  8.50000000E-01  8.50000000E-01  8.50000000E-01  8.50000000E-01
  8.50000000E-01  8.50000000E-01  8.50000000E-01  8.50000000E-01  8.50000000E-01
  8.50000000E-01  8.50000000E-01  8.50000000E-01  8.50000000E-01  8.50000000E-01
  8.50000000E-01  8.50000000E-01  8.50000000E-01  8.50000000E-01  8.50000000E-01
  8.50000000E-01  8.50000000E-01  8.50000000E-01  8.50000000E-01  8.50000000E-01
  8.50000000E-01  8.50000000E-01  8.50000000E-01  8.50000000E-01  8.50000000E-01
  8.50000000E-01  8.50000000E-01  8.50000000E-01  8.50000000E-01  8.50000000E-01
  8.50000000E-01  8.50000000E-01  8.50000000E-01  8.50000000E-01  8.50000000E-01
  8.50000000E-01  8.50000000E-01  8.50000000E-01  8.50000000E-01  8.50000000E-01
  8.50000000E-01  8.50000000E-01  8.50000000E-01  8.50000000E-01  8.50000000E-01
  8.50000000E-01  8.50000000E-01  8.50000000E-01  8.50000000E-01  8.50000000E-01
  8.50000000E-01  8.50000000E-01  8.50000000E-01  8.50000000E-01  8.50000000E-01
  8.50000000E-01  8.50000000E-01  8.50000000E-01  8.50000000E-01  8.50000000E-01
  8.50000000E-01  8.50000000E-01  8.50000000E-01  8.50000000E-01  8.50000000E-01
  8.50000000E-01  8.50000000E-01  8.50000000E-01  8.50000000E-01  8.50000000E-01
  8.50000000E-01  8.50000000E-01  8.50000000E-01  8.50000000E-01  8.50000000E-01
  8.50000000E-01  8.50000000E-01  8.50000000E-01  8.50000000E-01  8.50000000E-01
  8.50000000E-01  8.50000000E-01  8.50000000E-01  8.50000000E-01  8.50000000E-01
  8.50000000E-01  8.50000000E-01  8.50000000E-01  8.50000000E-01  8.50000000E-01
  8.50000000E-01  8.50000000E-01  8.50000000E-01  8.50000000E-01  8.50000000E-01
  8.50000000E-01  8.50000000E-01  8.50000000E-01  8.50000000E-01  8.50000000E-01
  8.50000000E-01  8.50000000E-01  8.50000000E-01  8.50000000E-01  8.50000000E-01
  8.50000000E-01  8.50000000E-01  8.50000000E-01  8.50000000E-01  8.50000000E-01
  8.50000000E-01  8.50000000E-01  8.50000000E-01  8.50000000E-01  8.50000000E-01
  8.50000000E-01  8.50000000E-01  8.50000000E-01  8.50000000E-01  8.50000000E-01
  8.50000000E-01  8.50000000E-01  8.50000000E-01  8.50000000E-01  8.50000000E-01
  8.50000000E-01  8.50000000E-01  8.50000000E-01  8.50000000E-01  8.50000000E-01
  8.50000000E-01  8.50000000E-01  8.50000000E-01  8.50000000E-01  8.50000000E-01
  8.50000000E-01  8.50000000E-01  8.50000000E-01  8.50000000E-01  8.50000000E-01
  8.50000000E-01  8.50000000E-01  8.50000000E-01  8.50000000E-01  8.50000000E-01
  8.50000000E-01  8.50000000E-01  8.50000000E-01  8.50000000E-01  8.50000000E-01
  8.50000000E-01  8.50000000E-01  8.50000000E-01  8.50000000E-01  8.50000000E-01
  8.50000000E-01  8.50000000E-01  8.50000000E-01  8.50000000E-01  8.50000000E-01
  8.50000000E-01  8.50000000E-01  8.50000000E-01  8.50000000E-01  8.50000000E-01
  8.50000000E-01  8.50000000E-01  8.50000000E-01  8.50000000E-01  8.50000000E-01
  8.50000000E-01  8.50000000E-01  8.50000000E-01  8.50000000E-01  8.50000000E-01
  8.50000000E-01  8.50000000E-01  8.50000000E-01  8.50000000E-01  8.50000000E-01
  8.50000000E-01  8.50000000E-01  8.50000000E-01  8.50000000E-01  8.50000000E-01
  8.50000000E-01  8.50000000E-01  8.50000000E-01  8.50000000E-01  8.50000000E-01
  8.50000000E-01  8.50000000E-01  8.50000000E-01  8.50000000E-01  8.50000000E-01
  8.50000000E-01  8.50000000E-01  8.50000000E-01  8.50000000E-01  8.50000000E-01
  8.50000000E-01  8.50000000E-01  8.50000000E-01  8.50000000E-01  8.50000000E-01
  8.50000000E-01  8.50000000E-01  8.50000000E-01  8.50000000E-01  8.50000000E-01
  8.50000000E-01  8.50000000E-01  8.50000000E-01  8.50000000E-01  8.50000000E-01
  8.50000000E-01  8.50000000E-01  8.50000000E-01  8.50000000E-01  8.50000000E-01
  8.50000000E-01  8.50000000E-01  8.50000000E-01  8.50000000E-01  8.50000000E-01
  8.50000000E-01  8.50000000E-01  8.50000000E-01  8.50000000E-01  8.50000000E-01
  8.50000000E-01  8.50000000E-01  8.50000000E-01  8.50000000E-01  8.50000000E-01
  8.50000000E-01  8.50000000E-01  8.50000000E-01  8.50000000E-01  8.50000000E-01
  8.50000000E-01  8.50000000E-01  8.50000000E-01  8.50000000E-01  8.50000000E-01
  8.50000000E-01  8.50000000E-01  8.50000000E-01  8.50000000E-01  8.50000000E-01
  8.50000000E-01  8.50000000E-01  8.50000000E-01  8.50000000E-01  8.50000000E-01
  8.50000000E-01  8.50000000E-01  8.50000000E-01  8.50000000E-01  8.50000000E-01
  8.50000000E-01  8.50000000E-01  8.50000000E-01  8.50000000E-01  8.50000000E-01
  8.50000000E-01  8.50000000E-01  8.50000000E-01  8.50000000E-01  8.50000000E-01
  8.50000000E-01  8.50000000E-01  8.50000000E-01  8.50000000E-01  8.50000000E-01
  8.50000000E-01  8.50000000E-01  8.50000000E-01  8.50000000E-01  8.50000000E-01
  8.50000000E-01  8.50000000E-01  8.50000000E-01  8.50000000E-01  8.50000000E-01
  8.50000000E-01  8.50000000E-01  8.50000000E-01  8.50000000E-01  8.50000000E-01
  8.50000000E-01  8.50000000E-01  8.50000000E-01  8.50000000E-01  8.50000000E-01
  8.50000000E-01  8.50000000E-01  8.50000000E-01  8.50000000E-01  8.50000000E-01
  8.50000000E-01  8.50000000E-01  8.50000000E-01  8.50000000E-01  8.50000000E-01
  8.50000000E-01  8.50000000E-01  8.50000000E-01  8.50000000E-01  8.50000000E-01
  8.50000000E-01  8.50000000E-01  8.50000000E-01  8.50000000E-01  8.50000000E-01
  8.50000000E-01  8.50000000E-01  8.50000000E-01  8.50000000E-01  8.50000000E-01
  8.50000000E-01  8.50000000E-01  8.50000000E-01  8.50000000E-01  8.50000000E-01
  8.50000000E-01  8.50000000E-01  8.50000000E-01  8.50000000E-01  8.50000000E-01
  8.50000000E-01  8.50000000E-01  8.50000000E-01  8.50000000E-01  8.50000000E-01
  8.50000000E-01  8.50000000E-01  8.50000000E-01  8.50000000E-01  8.50000000E-01
  8.50000000E-01  8.50000000E-01  8.50000000E-01  8.50000000E-01  8.50000000E-01
  8.50000000E-01  8.50000000E-01  8.50000000E-01  8.50000000E-01  8.50000000E-01
  8.50000000E-01  8.50000000E-01  8.50000000E-01  8.50000000E-01  8.50000000E-01
  8.50000000E-01  8.50000000E-01  8.50000000E-01  8.50000000E-01  8.50000000E-01
  8.50000000E-01  8.50000000E-01  8.50000000E-01  8.50000000E-01  8.50000000E-01
  8.50000000E-01  8.50000000E-01  8.50000000E-01  8.50000000E-01  8.50000000E-01
  8.50000000E-01  8.50000000E-01  8.50000000E-01  8.50000000E-01  8.50000000E-01
  8.50000000E-01  8.50000000E-01  8.50000000E-01  8.50000000E-01  8.50000000E-01
  8.50000000E-01  8.50000000E-01  8.50000000E-01  8.50000000E-01  8.50000000E-01
  8.50000000E-01  8.50000000E-01  8.50000000E-01  8.50000000E-01  8.50000000E-01
  8.50000000E-01  8.50000000E-01  8.50000000E-01  8.50000000E-01  8.50000000E-01
  8.50000000E-01  8.50000000E-01  8.50000000E-01  8.50000000E-01  8.50000000E-01
  8.50000000E-01  8.50000000E-01  8.50000000E-01  8.50000000E-01  8.50000000E-01
  8.50000000E-01  8.50000000E-01  8.50000000E-01  8.50000000E-01  8.50000000E-01
  8.50000000E-01  8.50000000E-01  8.50000000E-01  8.50000000E-01  8.50000000E-01
  8.50000000E-01  8.50000000E-01  8.50000000E-01  8.50000000E-01  8.50000000E-01
  8.50000000E-01  8.50000000E-01  8.50000000E-01  8.50000000E-01  8.50000000E-01
  8.50000000E-01  8.50000000E-01  8.50000000E-01  8.50000000E-01  8.50000000E-01
  8.50000000E-01  8.50000000E-01  8.50000000E-01  8.50000000E-01  8.50000000E-01
  8.50000000E-01  8.50000000E-01  8.50000000E-01  8.50000000E-01  8.50000000E-01
  8.50000000E-01  8.50000000E-01  8.50000000E-01  8.50000000E-01  8.50000000E-01
  8.50000000E-01  8.50000000E-01  8.50000000E-01  8.50000000E-01  8.50000000E-01
  8.50000000E-01  8.50000000E-01  8.50000000E-01  8.50000000E-01  8.50000000E-01
  8.50000000E-01  8.50000000E-01  8.50000000E-01  8.50000000E-01  8.50000000E-01
  8.50000000E-01  8.50000000E-01  8.50000000E-01  8.50000000E-01  8.50000000E-01
  8.50000000E-01  8.50000000E-01  8.50000000E-01  8.50000000E-01  8.50000000E-01
  8.50000000E-01  8.50000000E-01  8.50000000E-01  8.50000000E-01  8.50000000E-01
  8.50000000E-01  8.50000000E-01  8.50000000E-01  8.50000000E-01  8.50000000E-01
  8.50000000E-01  8.50000000E-01  8.50000000E-01  8.50000000E-01  8.50000000E-01
  8.50000000E-01  8.50000000E-01  8.50000000E-01  8.50000000E-01  8.50000000E-01
  8.50000000E-01  8.50000000E-01  8.50000000E-01  8.50000000E-01  8.50000000E-01
  8.50000000E-01  8.50000000E-01  8.50000000E-01  8.50000000E-01  8.50000000E-01
  8.50000000E-01  8.50000000E-01  8.50000000E-01  8.50000000E-01  8.50000000E-01
  8.50000000E-01  8.50000000E-01  8.50000000E-01  8.50000000E-01  8.50000000E-01
  8.50000000E-01  8.50000000E-01  8.50000000E-01  8.50000000E-01  8.50000000E-01
  8.50000000E-01  8.50000000E-01  8.50000000E-01  8.50000000E-01  8.50000000E-01
  8.50000000E-01  8.50000000E-01  8.50000000E-01  8.50000000E-01  8.50000000E-01
  8.50000000E-01  8.50000000E-01  8.50000000E-01  8.50000000E-01  8.50000000E-01
  8.50000000E-01  8.50000000E-01  8.50000000E-01  8.50000000E-01  8.50000000E-01
  8.50000000E-01  8.50000000E-01  8.50000000E-01  8.50000000E-01  8.50000000E-01
  8.50000000E-01  8.50000000E-01  8.50000000E-01  8.50000000E-01  8.50000000E-01
  8.50000000E-01  8.50000000E-01  8.50000000E-01  8.50000000E-01  8.50000000E-01
  8.50000000E-01  8.50000000E-01  8.50000000E-01  8.50000000E-01  8.50000000E-01
  8.50000000E-01  8.50000000E-01  8.50000000E-01  8.50000000E-01  8.50000000E-01
  8.50000000E-01  8.50000000E-01  8.50000000E-01  8.50000000E-01  8.50000000E-01
  8.50000000E-01  8.50000000E-01  8.50000000E-01  8.50000000E-01  8.50000000E-01
  8.50000000E-01  8.50000000E-01  8.50000000E-01  8.50000000E-01  8.50000000E-01
  8.50000000E-01  8.50000000E-01  8.50000000E-01  8.50000000E-01  8.50000000E-01
  8.50000000E-01  8.50000000E-01  8.50000000E-01  8.50000000E-01  8.50000000E-01
  8.50000000E-01  8.50000000E-01  8.50000000E-01  8.50000000E-01  8.50000000E-01
  8.50000000E-01  8.50000000E-01  8.50000000E-01  8.50000000E-01  8.50000000E-01
  8.50000000E-01  8.50000000E-01  8.50000000E-01  8.50000000E-01  8.50000000E-01
  8.50000000E-01  8.50000000E-01  8.50000000E-01  8.50000000E-01  8.50000000E-01
  8.50000000E-01  8.50000000E-01  8.50000000E-01  8.50000000E-01  8.50000000E-01
  8.50000000E-01  8.50000000E-01  8.50000000E-01  8.50000000E-01  8.50000000E-01
  8.50000000E-01  8.50000000E-01  8.50000000E-01  8.50000000E-01  8.50000000E-01
  8.50000000E-01  8.50000000E-01  8.50000000E-01  8.50000000E-01  8.50000000E-01
  8.50000000E-01  8.50000000E-01  8.50000000E-01  8.50000000E-01  8.50000000E-01
  8.50000000E-01  8.50000000E-01  8.50000000E-01  8.50000000E-01  8.50000000E-01
  8.50000000E-01  8.50000000E-01  8.50000000E-01  8.50000000E-01  8.50000000E-01
  8.50000000E-01  8.50000000E-01  8.50000000E-01  8.50000000E-01  8.50000000E-01
  8.50000000E-01  8.50000000E-01  8.50000000E-01  8.50000000E-01  8.50000000E-01
  8.50000000E-01  8.50000000E-01  8.50000000E-01  8.50000000E-01  8.50000000E-01
  8.50000000E-01  8.50000000E-01  8.50000000E-01  8.50000000E-01  8.50000000E-01
  8.50000000E-01  8.50000000E-01  8.50000000E-01  8.50000000E-01  8.50000000E-01
  8.50000000E-01  8.50000000E-01  8.50000000E-01  8.50000000E-01  8.50000000E-01
  8.50000000E-01  8.50000000E-01  8.50000000E-01  8.50000000E-01  8.50000000E-01
  8.50000000E-01  8.50000000E-01  8.50000000E-01  8.50000000E-01  8.50000000E-01
  8.50000000E-01  8.50000000E-01  8.50000000E-01  8.50000000E-01  8.50000000E-01
  8.50000000E-01  8.50000000E-01  8.50000000E-01  8.50000000E-01  8.50000000E-01
  8.50000000E-01  8.50000000E-01  8.50000000E-01  8.50000000E-01  8.50000000E-01
  8.50000000E-01  8.50000000E-01  8.50000000E-01  8.50000000E-01  8.50000000E-01
  8.50000000E-01  8.50000000E-01  8.50000000E-01  8.50000000E-01  8.50000000E-01
  8.50000000E-01  8.50000000E-01  8.50000000E-01  8.50000000E-01  8.50000000E-01
  8.50000000E-01  8.50000000E-01  8.50000000E-01  8.50000000E-01  8.50000000E-01
  8.50000000E-01  8.50000000E-01  8.50000000E-01  8.50000000E-01  8.50000000E-01
  8.50000000E-01  8.50000000E-01  8.50000000E-01  8.50000000E-01  8.50000000E-01
  8.50000000E-01  8.50000000E-01  8.50000000E-01  8.50000000E-01  8.50000000E-01
  8.50000000E-01  8.50000000E-01  8.50000000E-01  8.50000000E-01  8.50000000E-01
  8.50000000E-01  8.50000000E-01  8.50000000E-01  8.50000000E-01  8.50000000E-01
  8.50000000E-01  8.50000000E-01  8.50000000E-01  8.50000000E-01  8.50000000E-01
  8.50000000E-01  8.50000000E-01  8.50000000E-01  8.50000000E-01  8.50000000E-01
  8.50000000E-01  8.50000000E-01  8.50000000E-01  8.50000000E-01  8.50000000E-01
  8.50000000E-01  8.50000000E-01  8.50000000E-01  8.50000000E-01  8.50000000E-01
  8.50000000E-01  8.50000000E-01  8.50000000E-01  8.50000000E-01  8.50000000E-01
  8.50000000E-01  8.50000000E-01  8.50000000E-01  8.50000000E-01  8.50000000E-01
  8.50000000E-01  8.50000000E-01  8.50000000E-01  8.50000000E-01  8.50000000E-01
  8.50000000E-01  8.50000000E-01  8.50000000E-01  8.50000000E-01  8.50000000E-01
  8.50000000E-01  8.50000000E-01  8.50000000E-01  8.50000000E-01  8.50000000E-01
  8.50000000E-01  8.50000000E-01  8.50000000E-01  8.50000000E-01  8.50000000E-01
  8.50000000E-01  8.50000000E-01  8.50000000E-01  8.50000000E-01  8.50000000E-01
  8.50000000E-01  8.50000000E-01  8.50000000E-01  8.50000000E-01  8.50000000E-01
  8.50000000E-01  8.50000000E-01  8.50000000E-01  8.50000000E-01  8.50000000E-01
  8.50000000E-01  8.50000000E-01  8.50000000E-01  8.50000000E-01  8.50000000E-01
  8.50000000E-01  8.50000000E-01  8.50000000E-01  8.50000000E-01  8.50000000E-01
  8.50000000E-01  8.50000000E-01  8.50000000E-01  8.50000000E-01  8.50000000E-01
  8.50000000E-01  8.50000000E-01  8.50000000E-01  8.50000000E-01  8.50000000E-01
  8.50000000E-01  8.50000000E-01  8.50000000E-01  8.50000000E-01  8.50000000E-01
  8.50000000E-01  8.50000000E-01  8.50000000E-01  8.50000000E-01  8.50000000E-01
  8.50000000E-01  8.50000000E-01  8.50000000E-01  8.50000000E-01  8.50000000E-01
  8.50000000E-01  8.50000000E-01  8.50000000E-01  8.50000000E-01  8.50000000E-01
  8.50000000E-01  8.50000000E-01  8.50000000E-01  8.50000000E-01  8.50000000E-01
  8.50000000E-01  8.50000000E-01  8.50000000E-01  8.50000000E-01  8.50000000E-01
  8.50000000E-01  8.50000000E-01  8.50000000E-01  8.50000000E-01  8.50000000E-01
  8.50000000E-01  8.50000000E-01  8.50000000E-01  8.50000000E-01  8.50000000E-01
  8.50000000E-01  8.50000000E-01  8.50000000E-01  8.50000000E-01  8.50000000E-01
  8.50000000E-01  8.50000000E-01  8.50000000E-01  8.50000000E-01  8.50000000E-01
  8.50000000E-01  8.50000000E-01  8.50000000E-01  8.50000000E-01  8.50000000E-01
  8.50000000E-01  8.50000000E-01  8.50000000E-01  8.50000000E-01  8.50000000E-01
  8.50000000E-01  8.50000000E-01  8.50000000E-01  8.50000000E-01  8.50000000E-01
  8.50000000E-01  8.50000000E-01  8.50000000E-01  8.50000000E-01  8.50000000E-01
  8.50000000E-01  8.50000000E-01  8.50000000E-01  8.50000000E-01  8.50000000E-01
  8.50000000E-01  8.50000000E-01  8.50000000E-01  8.50000000E-01  8.50000000E-01
  8.50000000E-01  8.50000000E-01  8.50000000E-01  8.50000000E-01  8.50000000E-01
  8.50000000E-01  8.50000000E-01  8.50000000E-01  8.50000000E-01  8.50000000E-01
  8.50000000E-01  8.50000000E-01  8.50000000E-01  8.50000000E-01  8.50000000E-01
  8.50000000E-01  8.50000000E-01  8.50000000E-01  8.50000000E-01  8.50000000E-01
  8.50000000E-01  8.50000000E-01  8.50000000E-01  8.50000000E-01  8.50000000E-01
  8.50000000E-01  8.50000000E-01  8.50000000E-01  8.50000000E-01  8.50000000E-01
  8.50000000E-01  8.50000000E-01  8.50000000E-01  8.50000000E-01  8.50000000E-01
  8.50000000E-01  8.50000000E-01  8.50000000E-01  8.50000000E-01  8.50000000E-01
  8.50000000E-01  8.50000000E-01  8.50000000E-01  8.50000000E-01  8.50000000E-01
  8.50000000E-01  8.50000000E-01  8.50000000E-01  8.50000000E-01  8.50000000E-01
  8.50000000E-01  8.50000000E-01  8.50000000E-01  8.50000000E-01  8.50000000E-01
  8.50000000E-01  8.50000000E-01  8.50000000E-01  8.50000000E-01  8.50000000E-01
  8.50000000E-01  8.50000000E-01  8.50000000E-01  8.50000000E-01  8.50000000E-01
  8.50000000E-01  8.50000000E-01  8.50000000E-01  8.50000000E-01  8.50000000E-01
  8.50000000E-01  8.50000000E-01  8.50000000E-01  8.50000000E-01  8.50000000E-01
  8.50000000E-01  8.50000000E-01  8.50000000E-01  8.50000000E-01  8.50000000E-01
  8.50000000E-01  8.50000000E-01  8.50000000E-01  8.50000000E-01  8.50000000E-01
  8.50000000E-01  8.50000000E-01  8.50000000E-01  8.50000000E-01  8.50000000E-01
  8.50000000E-01  8.50000000E-01  8.50000000E-01  8.50000000E-01  8.50000000E-01
  8.50000000E-01  8.50000000E-01  8.50000000E-01  8.50000000E-01  8.50000000E-01
  8.50000000E-01  8.50000000E-01  8.50000000E-01  8.50000000E-01  8.50000000E-01
  8.50000000E-01  8.50000000E-01  8.50000000E-01  8.50000000E-01  8.50000000E-01
  8.50000000E-01  8.50000000E-01  8.50000000E-01  8.50000000E-01  8.50000000E-01
  8.50000000E-01  8.50000000E-01  8.50000000E-01  8.50000000E-01  8.50000000E-01
  8.50000000E-01  8.50000000E-01  8.50000000E-01  8.50000000E-01  8.50000000E-01
  8.50000000E-01  8.50000000E-01  8.50000000E-01  8.50000000E-01  8.50000000E-01
  8.50000000E-01  8.50000000E-01  8.50000000E-01  8.50000000E-01  8.50000000E-01
  8.50000000E-01  8.50000000E-01  8.50000000E-01  8.50000000E-01  8.50000000E-01
  8.50000000E-01  8.50000000E-01  8.50000000E-01  8.50000000E-01  8.50000000E-01
  8.50000000E-01  8.50000000E-01  8.50000000E-01  8.50000000E-01  8.50000000E-01
  8.50000000E-01  8.50000000E-01  8.50000000E-01  8.50000000E-01  8.50000000E-01
  8.50000000E-01  8.50000000E-01  8.50000000E-01  8.50000000E-01  8.50000000E-01
  8.50000000E-01  8.50000000E-01  8.50000000E-01  8.50000000E-01  8.50000000E-01
  8.50000000E-01  8.50000000E-01  8.50000000E-01  8.50000000E-01  8.50000000E-01
  8.50000000E-01  8.50000000E-01  8.50000000E-01  8.50000000E-01  8.50000000E-01
  8.50000000E-01  8.50000000E-01  8.50000000E-01  8.50000000E-01  8.50000000E-01
  8.50000000E-01  8.50000000E-01  8.50000000E-01  8.50000000E-01  8.50000000E-01
  8.50000000E-01  8.50000000E-01  8.50000000E-01  8.50000000E-01  8.50000000E-01
  8.50000000E-01  8.50000000E-01  8.50000000E-01  8.50000000E-01  8.50000000E-01
  8.50000000E-01  8.50000000E-01  8.50000000E-01  8.50000000E-01  8.50000000E-01
  8.50000000E-01  8.50000000E-01  8.50000000E-01  8.50000000E-01  8.50000000E-01
  8.50000000E-01  8.50000000E-01  8.50000000E-01  8.50000000E-01  8.50000000E-01
  8.50000000E-01  8.50000000E-01  8.50000000E-01  8.50000000E-01  8.50000000E-01
  8.50000000E-01  8.50000000E-01  8.50000000E-01  8.50000000E-01  8.50000000E-01
  8.50000000E-01  8.50000000E-01  8.50000000E-01  8.50000000E-01  8.50000000E-01
  8.50000000E-01  8.50000000E-01  8.50000000E-01  8.50000000E-01  8.50000000E-01
  8.50000000E-01  8.50000000E-01  8.50000000E-01  8.50000000E-01  8.50000000E-01
  8.50000000E-01  8.50000000E-01  8.50000000E-01  8.50000000E-01  8.50000000E-01
  8.50000000E-01  8.50000000E-01  8.50000000E-01  8.50000000E-01  8.50000000E-01
  8.50000000E-01  8.50000000E-01  8.50000000E-01  8.50000000E-01  8.50000000E-01
  8.50000000E-01  8.50000000E-01  8.50000000E-01  8.50000000E-01  8.50000000E-01
  8.50000000E-01  8.50000000E-01  8.50000000E-01  8.50000000E-01  8.50000000E-01
  8.50000000E-01  8.50000000E-01  8.50000000E-01  8.50000000E-01  8.50000000E-01
  8.50000000E-01  8.50000000E-01  8.50000000E-01  8.50000000E-01  8.50000000E-01
  8.50000000E-01  8.50000000E-01  8.50000000E-01  8.50000000E-01  8.50000000E-01
  8.50000000E-01  8.50000000E-01  8.50000000E-01  8.50000000E-01  8.50000000E-01
  8.50000000E-01  8.50000000E-01  8.50000000E-01  8.50000000E-01  8.50000000E-01
  8.50000000E-01  8.50000000E-01  8.50000000E-01  8.50000000E-01  8.50000000E-01
  8.50000000E-01  8.50000000E-01  8.50000000E-01  8.50000000E-01  8.50000000E-01
  8.50000000E-01  8.50000000E-01  8.50000000E-01  8.50000000E-01  8.50000000E-01
  8.50000000E-01  8.50000000E-01  8.50000000E-01  8.50000000E-01  8.50000000E-01
  8.50000000E-01  8.50000000E-01  8.50000000E-01  8.50000000E-01  8.50000000E-01
  8.50000000E-01  8.50000000E-01  8.50000000E-01  8.50000000E-01  8.50000000E-01
  8.50000000E-01  8.50000000E-01  8.50000000E-01  8.50000000E-01  8.50000000E-01
  8.50000000E-01  8.50000000E-01  8.50000000E-01  8.50000000E-01  8.50000000E-01
  8.50000000E-01  8.50000000E-01  8.50000000E-01  8.50000000E-01  8.50000000E-01
  8.50000000E-01  8.50000000E-01  8.50000000E-01  8.50000000E-01  8.50000000E-01
  8.50000000E-01  8.50000000E-01  8.50000000E-01  8.50000000E-01  8.50000000E-01
  8.50000000E-01  8.50000000E-01  8.50000000E-01  8.50000000E-01  8.50000000E-01
  8.50000000E-01  8.50000000E-01  8.50000000E-01  8.50000000E-01  8.50000000E-01
  8.50000000E-01  8.50000000E-01  8.50000000E-01  8.50000000E-01  8.50000000E-01
  8.50000000E-01  8.50000000E-01  8.50000000E-01  8.50000000E-01  8.50000000E-01
  8.50000000E-01  8.50000000E-01  8.50000000E-01  8.50000000E-01  8.50000000E-01
  8.50000000E-01  8.50000000E-01  8.50000000E-01  8.50000000E-01  8.50000000E-01
  8.50000000E-01  8.50000000E-01  8.50000000E-01  8.50000000E-01  8.50000000E-01
  8.50000000E-01  8.50000000E-01  8.50000000E-01  8.50000000E-01  8.50000000E-01
  8.50000000E-01  8.50000000E-01  8.50000000E-01  8.50000000E-01  8.50000000E-01
  8.50000000E-01  8.50000000E-01  8.50000000E-01  8.50000000E-01  8.50000000E-01
  8.50000000E-01  8.50000000E-01  8.50000000E-01  8.50000000E-01  8.50000000E-01
  8.50000000E-01  8.50000000E-01  8.50000000E-01  8.50000000E-01  8.50000000E-01
  8.50000000E-01  8.50000000E-01  8.50000000E-01  8.50000000E-01  8.50000000E-01
  8.50000000E-01  8.50000000E-01  8.50000000E-01  8.50000000E-01  8.50000000E-01
  8.50000000E-01  8.50000000E-01  8.50000000E-01  8.50000000E-01  8.50000000E-01
  8.50000000E-01  8.50000000E-01  8.50000000E-01  8.50000000E-01  8.50000000E-01
  8.50000000E-01  8.50000000E-01  8.50000000E-01  8.50000000E-01  8.50000000E-01
  8.50000000E-01  8.50000000E-01  8.50000000E-01  8.50000000E-01  8.50000000E-01
  8.50000000E-01  8.50000000E-01  8.50000000E-01  8.50000000E-01  8.50000000E-01
  8.50000000E-01  8.50000000E-01  8.50000000E-01  8.50000000E-01  8.50000000E-01
  8.50000000E-01  8.50000000E-01  8.50000000E-01  8.50000000E-01  8.50000000E-01
  8.50000000E-01  8.50000000E-01  8.50000000E-01  8.50000000E-01  8.50000000E-01
  8.50000000E-01  8.50000000E-01  8.50000000E-01  8.50000000E-01  8.50000000E-01
  8.50000000E-01  8.50000000E-01  8.50000000E-01  8.50000000E-01  8.50000000E-01
  8.50000000E-01  8.50000000E-01  8.50000000E-01  8.50000000E-01  8.50000000E-01
  8.50000000E-01  8.50000000E-01  8.50000000E-01  8.50000000E-01  8.50000000E-01
  8.50000000E-01  8.50000000E-01  8.50000000E-01  8.50000000E-01  8.50000000E-01
  8.50000000E-01  8.50000000E-01  8.50000000E-01  8.50000000E-01  8.50000000E-01
  8.50000000E-01  8.50000000E-01  8.50000000E-01  8.50000000E-01  8.50000000E-01
  8.50000000E-01  8.50000000E-01  8.50000000E-01  8.50000000E-01  8.50000000E-01
  8.50000000E-01  8.50000000E-01  8.50000000E-01  8.50000000E-01  8.50000000E-01
  8.50000000E-01  8.50000000E-01  8.50000000E-01  8.50000000E-01  8.50000000E-01
  8.50000000E-01  8.50000000E-01  8.50000000E-01  8.50000000E-01  8.50000000E-01
  8.50000000E-01  8.50000000E-01  8.50000000E-01  8.50000000E-01  8.50000000E-01
  8.50000000E-01  8.50000000E-01  8.50000000E-01  8.50000000E-01  8.50000000E-01
  8.50000000E-01  8.50000000E-01  8.50000000E-01  8.50000000E-01  8.50000000E-01
  8.50000000E-01  8.50000000E-01  8.50000000E-01  8.50000000E-01  8.50000000E-01
  8.50000000E-01  8.50000000E-01  8.50000000E-01  8.50000000E-01  8.50000000E-01
  8.50000000E-01  8.50000000E-01  8.50000000E-01  8.50000000E-01  8.50000000E-01
  8.50000000E-01  8.50000000E-01  8.50000000E-01  8.50000000E-01  8.50000000E-01
  8.50000000E-01  8.50000000E-01  8.50000000E-01  8.50000000E-01  8.50000000E-01
  8.50000000E-01  8.50000000E-01  8.50000000E-01  8.50000000E-01  8.50000000E-01
  8.50000000E-01  8.50000000E-01  8.50000000E-01  8.50000000E-01  8.50000000E-01
  8.50000000E-01  8.50000000E-01  8.50000000E-01  8.50000000E-01  8.50000000E-01
  8.50000000E-01  8.50000000E-01  8.50000000E-01  8.50000000E-01  8.50000000E-01
  8.50000000E-01  8.50000000E-01  8.50000000E-01  8.50000000E-01  8.50000000E-01
  8.50000000E-01  8.50000000E-01  8.50000000E-01  8.50000000E-01  8.50000000E-01
  8.50000000E-01  8.50000000E-01  8.50000000E-01  8.50000000E-01  8.50000000E-01
  8.50000000E-01  8.50000000E-01  8.50000000E-01  8.50000000E-01  8.50000000E-01
  8.50000000E-01  8.50000000E-01  8.50000000E-01  8.50000000E-01  8.50000000E-01
  8.50000000E-01  8.50000000E-01  8.50000000E-01  8.50000000E-01  8.50000000E-01
  8.50000000E-01  8.50000000E-01  8.50000000E-01  8.50000000E-01  8.50000000E-01
  8.50000000E-01  8.50000000E-01  8.50000000E-01  8.50000000E-01  8.50000000E-01
  8.50000000E-01  8.50000000E-01  8.50000000E-01  8.50000000E-01  8.50000000E-01
  8.50000000E-01  8.50000000E-01  8.50000000E-01  8.50000000E-01  8.50000000E-01
  8.50000000E-01  8.50000000E-01  8.50000000E-01  8.50000000E-01  8.50000000E-01
  8.50000000E-01  8.50000000E-01  8.50000000E-01  8.50000000E-01  8.50000000E-01
  8.50000000E-01  8.50000000E-01  8.50000000E-01  8.50000000E-01  8.50000000E-01
  8.50000000E-01  8.50000000E-01  8.50000000E-01  8.50000000E-01  8.50000000E-01
  8.50000000E-01  8.50000000E-01  8.50000000E-01  8.50000000E-01  8.50000000E-01
  8.50000000E-01  8.50000000E-01  8.50000000E-01  8.50000000E-01  8.50000000E-01
  8.50000000E-01  8.50000000E-01  8.50000000E-01  8.50000000E-01  8.50000000E-01
  8.50000000E-01  8.50000000E-01  8.50000000E-01  8.50000000E-01  8.50000000E-01
  8.50000000E-01  8.50000000E-01  8.50000000E-01  8.50000000E-01  8.50000000E-01
  8.50000000E-01  8.50000000E-01  8.50000000E-01  8.50000000E-01  8.50000000E-01
  8.50000000E-01  8.50000000E-01  8.50000000E-01  8.50000000E-01  8.50000000E-01
  8.50000000E-01  8.50000000E-01  8.50000000E-01  8.50000000E-01  8.50000000E-01
  8.50000000E-01  8.50000000E-01  8.50000000E-01  8.50000000E-01  8.50000000E-01
  8.50000000E-01  8.50000000E-01  8.50000000E-01  8.50000000E-01  8.50000000E-01
  8.50000000E-01  8.50000000E-01  8.50000000E-01  8.50000000E-01  8.50000000E-01
  8.50000000E-01  8.50000000E-01  8.50000000E-01  8.50000000E-01  8.50000000E-01
  8.50000000E-01  8.50000000E-01  8.50000000E-01  8.50000000E-01  8.50000000E-01
  8.50000000E-01  8.50000000E-01  8.50000000E-01  8.50000000E-01  8.50000000E-01
  8.50000000E-01  8.50000000E-01  8.50000000E-01  8.50000000E-01  8.50000000E-01
  8.50000000E-01  8.50000000E-01  8.50000000E-01  8.50000000E-01  8.50000000E-01
  8.50000000E-01  8.50000000E-01  8.50000000E-01  8.50000000E-01  8.50000000E-01
  8.50000000E-01  8.50000000E-01  8.50000000E-01  8.50000000E-01  8.50000000E-01
  8.50000000E-01  8.50000000E-01  8.50000000E-01  8.50000000E-01  8.50000000E-01
  8.50000000E-01  8.50000000E-01  8.50000000E-01  8.50000000E-01  8.50000000E-01
  8.50000000E-01  8.50000000E-01  8.50000000E-01  8.50000000E-01  8.50000000E-01
  8.50000000E-01  8.50000000E-01  8.50000000E-01  8.50000000E-01  8.50000000E-01
  8.50000000E-01  8.50000000E-01  8.50000000E-01  8.50000000E-01  8.50000000E-01
  8.50000000E-01  8.50000000E-01  8.50000000E-01  8.50000000E-01  8.50000000E-01
  8.50000000E-01  8.50000000E-01  8.50000000E-01  8.50000000E-01  8.50000000E-01
  8.50000000E-01  8.50000000E-01  8.50000000E-01  8.50000000E-01  8.50000000E-01
  8.50000000E-01  8.50000000E-01  8.50000000E-01  8.50000000E-01  8.50000000E-01
  8.50000000E-01  8.50000000E-01  8.50000000E-01  8.50000000E-01  8.50000000E-01
  8.50000000E-01  8.50000000E-01  8.50000000E-01  8.50000000E-01  8.50000000E-01
  8.50000000E-01  8.50000000E-01  8.50000000E-01  8.50000000E-01  8.50000000E-01
  8.50000000E-01  8.50000000E-01  8.50000000E-01  8.50000000E-01  8.50000000E-01
  8.50000000E-01  8.50000000E-01  8.50000000E-01  8.50000000E-01  8.50000000E-01
  8.50000000E-01  8.50000000E-01  8.50000000E-01  8.50000000E-01  8.50000000E-01
  8.50000000E-01  8.50000000E-01  8.50000000E-01  8.50000000E-01  8.50000000E-01
  8.50000000E-01  8.50000000E-01  8.50000000E-01  8.50000000E-01  8.50000000E-01
  8.50000000E-01  8.50000000E-01  8.50000000E-01  8.50000000E-01  8.50000000E-01
  8.50000000E-01  8.50000000E-01  8.50000000E-01  8.50000000E-01  8.50000000E-01
  8.50000000E-01  8.50000000E-01  8.50000000E-01  8.50000000E-01  8.50000000E-01
  8.50000000E-01  8.50000000E-01  8.50000000E-01  8.50000000E-01  8.50000000E-01
  8.50000000E-01  8.50000000E-01  8.50000000E-01  8.50000000E-01  8.50000000E-01
  8.50000000E-01  8.50000000E-01  8.50000000E-01  8.50000000E-01  8.50000000E-01
  8.50000000E-01  8.50000000E-01  8.50000000E-01  8.50000000E-01  8.50000000E-01
  8.50000000E-01  8.50000000E-01  8.50000000E-01  8.50000000E-01  8.50000000E-01
  8.50000000E-01  8.50000000E-01  8.50000000E-01  8.50000000E-01  8.50000000E-01
  8.50000000E-01  8.50000000E-01  8.50000000E-01  8.50000000E-01  8.50000000E-01
  8.50000000E-01  8.50000000E-01  8.50000000E-01  8.50000000E-01  8.50000000E-01
  8.50000000E-01  8.50000000E-01  8.50000000E-01  8.50000000E-01  8.50000000E-01
  8.50000000E-01  8.50000000E-01  8.50000000E-01  8.50000000E-01  8.50000000E-01
  8.50000000E-01  8.50000000E-01  8.50000000E-01  8.50000000E-01  8.50000000E-01
  8.50000000E-01  8.50000000E-01  8.50000000E-01  8.50000000E-01  8.50000000E-01
  8.50000000E-01  8.50000000E-01  8.50000000E-01  8.50000000E-01  8.50000000E-01
  8.50000000E-01  8.50000000E-01  8.50000000E-01  8.50000000E-01  8.50000000E-01
  8.50000000E-01  8.50000000E-01  8.50000000E-01  8.50000000E-01  8.50000000E-01
  8.50000000E-01  8.50000000E-01  8.50000000E-01  8.50000000E-01  8.50000000E-01
  8.50000000E-01  8.50000000E-01  8.50000000E-01  8.50000000E-01  8.50000000E-01
  8.50000000E-01  8.50000000E-01  8.50000000E-01  8.50000000E-01  8.50000000E-01
  8.50000000E-01  8.50000000E-01  8.50000000E-01  8.50000000E-01  8.50000000E-01
  8.50000000E-01  8.50000000E-01  8.50000000E-01  8.50000000E-01  8.50000000E-01
  8.50000000E-01  8.50000000E-01  8.50000000E-01  8.50000000E-01  8.50000000E-01
  8.50000000E-01  8.50000000E-01  8.50000000E-01  8.50000000E-01  8.50000000E-01
  8.50000000E-01  8.50000000E-01  8.50000000E-01  8.50000000E-01  8.50000000E-01
  8.50000000E-01  8.50000000E-01  8.50000000E-01  8.50000000E-01  8.50000000E-01
  8.50000000E-01  8.50000000E-01  8.50000000E-01  8.50000000E-01  8.50000000E-01
  8.50000000E-01  8.50000000E-01  8.50000000E-01  8.50000000E-01  8.50000000E-01
  8.50000000E-01  8.50000000E-01  8.50000000E-01  8.50000000E-01  8.50000000E-01
  8.50000000E-01  8.50000000E-01  8.50000000E-01  8.50000000E-01  8.50000000E-01
  8.50000000E-01  8.50000000E-01  8.50000000E-01  8.50000000E-01  8.50000000E-01
  8.50000000E-01  8.50000000E-01  8.50000000E-01  8.50000000E-01  8.50000000E-01
  8.50000000E-01  8.50000000E-01  8.50000000E-01  8.50000000E-01  8.50000000E-01
  8.50000000E-01  8.50000000E-01  8.50000000E-01  8.50000000E-01  8.50000000E-01
  8.50000000E-01  8.50000000E-01  8.50000000E-01  8.50000000E-01  8.50000000E-01
  8.50000000E-01  8.50000000E-01  8.50000000E-01  8.50000000E-01  8.50000000E-01
  8.50000000E-01  8.50000000E-01  8.50000000E-01  8.50000000E-01  8.50000000E-01
  8.50000000E-01  8.50000000E-01  8.50000000E-01  8.50000000E-01  8.50000000E-01
  8.50000000E-01  8.50000000E-01  8.50000000E-01  8.50000000E-01  8.50000000E-01
  8.50000000E-01  8.50000000E-01  8.50000000E-01  8.50000000E-01  8.50000000E-01
  8.50000000E-01  8.50000000E-01  8.50000000E-01  8.50000000E-01  8.50000000E-01
  8.50000000E-01  8.50000000E-01  8.50000000E-01  8.50000000E-01  8.50000000E-01
  8.50000000E-01  8.50000000E-01  8.50000000E-01  8.50000000E-01  8.50000000E-01
  8.50000000E-01  8.50000000E-01  8.50000000E-01  8.50000000E-01  8.50000000E-01
  8.50000000E-01  8.50000000E-01  8.50000000E-01  8.50000000E-01  8.50000000E-01
  8.50000000E-01  8.50000000E-01  8.50000000E-01  8.50000000E-01  8.50000000E-01
  8.50000000E-01  8.50000000E-01  8.50000000E-01  8.50000000E-01  8.50000000E-01
  8.50000000E-01  8.50000000E-01  8.50000000E-01  8.50000000E-01  8.50000000E-01
  8.50000000E-01  8.50000000E-01  8.50000000E-01  8.50000000E-01  8.50000000E-01
  8.50000000E-01  8.50000000E-01  8.50000000E-01  8.50000000E-01  8.50000000E-01
  8.50000000E-01  8.50000000E-01  8.50000000E-01  8.50000000E-01  8.50000000E-01
  8.50000000E-01  8.50000000E-01  8.50000000E-01  8.50000000E-01  8.50000000E-01
  8.50000000E-01  8.50000000E-01  8.50000000E-01  8.50000000E-01  8.50000000E-01
  8.50000000E-01  8.50000000E-01  8.50000000E-01  8.50000000E-01  8.50000000E-01
  8.50000000E-01  8.50000000E-01  8.50000000E-01  8.50000000E-01  8.50000000E-01
  8.50000000E-01  8.50000000E-01  8.50000000E-01  8.50000000E-01  8.50000000E-01
  8.50000000E-01  8.50000000E-01  8.50000000E-01  8.50000000E-01  8.50000000E-01
  8.50000000E-01  8.50000000E-01  8.50000000E-01  8.50000000E-01  8.50000000E-01
  8.50000000E-01  8.50000000E-01  8.50000000E-01  8.50000000E-01  8.50000000E-01
  8.50000000E-01  8.50000000E-01  8.50000000E-01  8.50000000E-01  8.50000000E-01
  8.50000000E-01  8.50000000E-01  8.50000000E-01  8.50000000E-01  8.50000000E-01
  8.50000000E-01  8.50000000E-01  8.50000000E-01  8.50000000E-01  8.50000000E-01
  8.50000000E-01  8.50000000E-01  8.50000000E-01  8.50000000E-01  8.50000000E-01
  8.50000000E-01  8.50000000E-01  8.50000000E-01  8.50000000E-01  8.50000000E-01
  8.50000000E-01  8.50000000E-01  8.50000000E-01  8.50000000E-01  8.50000000E-01
  8.50000000E-01  8.50000000E-01  8.50000000E-01  8.50000000E-01  8.50000000E-01
  8.50000000E-01  8.50000000E-01  8.50000000E-01  8.50000000E-01  8.50000000E-01
  8.50000000E-01  8.50000000E-01  8.50000000E-01  8.50000000E-01  8.50000000E-01
  8.50000000E-01  8.50000000E-01  8.50000000E-01  8.50000000E-01  8.50000000E-01
  8.50000000E-01  8.50000000E-01  8.50000000E-01  8.50000000E-01  8.50000000E-01
  8.50000000E-01  8.50000000E-01  8.50000000E-01  8.50000000E-01  8.50000000E-01
  8.50000000E-01  8.50000000E-01  8.50000000E-01  8.50000000E-01  8.50000000E-01
  8.50000000E-01  8.50000000E-01  8.50000000E-01  8.50000000E-01  8.50000000E-01
  8.50000000E-01  8.50000000E-01  8.50000000E-01  8.50000000E-01  8.50000000E-01
  8.50000000E-01  8.50000000E-01  8.50000000E-01  8.50000000E-01  8.50000000E-01
  8.50000000E-01  8.50000000E-01  8.50000000E-01  8.50000000E-01  8.50000000E-01
  8.50000000E-01  8.50000000E-01  8.50000000E-01  8.50000000E-01  8.50000000E-01
  8.50000000E-01  8.50000000E-01  8.50000000E-01  8.50000000E-01  8.50000000E-01
  8.50000000E-01  8.50000000E-01  8.50000000E-01  8.50000000E-01  8.50000000E-01
  8.50000000E-01  8.50000000E-01  8.50000000E-01  8.50000000E-01  8.50000000E-01
  8.50000000E-01  8.50000000E-01  8.50000000E-01  8.50000000E-01  8.50000000E-01
  8.50000000E-01  8.50000000E-01  8.50000000E-01  8.50000000E-01  8.50000000E-01
  8.50000000E-01  8.50000000E-01  8.50000000E-01  8.50000000E-01  8.50000000E-01
  8.50000000E-01  8.50000000E-01  8.50000000E-01  8.50000000E-01  8.50000000E-01
  8.50000000E-01  8.50000000E-01  8.50000000E-01  8.50000000E-01  8.50000000E-01
  8.50000000E-01  8.50000000E-01  8.50000000E-01  8.50000000E-01  8.50000000E-01
  8.50000000E-01  8.50000000E-01  8.50000000E-01  8.50000000E-01  8.50000000E-01
  8.50000000E-01  8.50000000E-01  8.50000000E-01  8.50000000E-01  8.50000000E-01
  8.50000000E-01  8.50000000E-01  8.50000000E-01  8.50000000E-01  8.50000000E-01
  8.50000000E-01  8.50000000E-01  8.50000000E-01  8.50000000E-01  8.50000000E-01
  8.50000000E-01  8.50000000E-01  8.50000000E-01  8.50000000E-01  8.50000000E-01
  8.50000000E-01  8.50000000E-01  8.50000000E-01  8.50000000E-01  8.50000000E-01
  8.50000000E-01  8.50000000E-01  8.50000000E-01  8.50000000E-01  8.50000000E-01
  8.50000000E-01  8.50000000E-01  8.50000000E-01  8.50000000E-01  8.50000000E-01
  8.50000000E-01  8.50000000E-01  8.50000000E-01  8.50000000E-01  8.50000000E-01
  8.50000000E-01  8.50000000E-01  8.50000000E-01  8.50000000E-01  8.50000000E-01
  8.50000000E-01  8.50000000E-01  8.50000000E-01  8.50000000E-01  8.50000000E-01
  8.50000000E-01  8.50000000E-01  8.50000000E-01  8.50000000E-01  8.50000000E-01
  8.50000000E-01  8.50000000E-01  8.50000000E-01  8.50000000E-01  8.50000000E-01
  8.50000000E-01  8.50000000E-01  8.50000000E-01  8.50000000E-01  8.50000000E-01
  8.50000000E-01  8.50000000E-01  8.50000000E-01  8.50000000E-01  8.50000000E-01
  8.50000000E-01  8.50000000E-01  8.50000000E-01  8.50000000E-01  8.50000000E-01
  8.50000000E-01  8.50000000E-01  8.50000000E-01  8.50000000E-01  8.50000000E-01
  8.50000000E-01  8.50000000E-01  8.50000000E-01  8.50000000E-01  8.50000000E-01
  8.50000000E-01  8.50000000E-01  8.50000000E-01  8.50000000E-01  8.50000000E-01
  8.50000000E-01  8.50000000E-01  8.50000000E-01  8.50000000E-01  8.50000000E-01
  8.50000000E-01  8.50000000E-01  8.50000000E-01  8.50000000E-01  8.50000000E-01
  8.50000000E-01  8.50000000E-01  8.50000000E-01  8.50000000E-01  8.50000000E-01
  8.50000000E-01  8.50000000E-01  8.50000000E-01  8.50000000E-01  8.50000000E-01
  8.50000000E-01  8.50000000E-01  8.50000000E-01  8.50000000E-01  8.50000000E-01
  8.50000000E-01  8.50000000E-01  8.50000000E-01  8.50000000E-01  8.50000000E-01
  8.50000000E-01  8.50000000E-01  8.50000000E-01  8.50000000E-01  8.50000000E-01
  8.50000000E-01  8.50000000E-01  8.50000000E-01  8.50000000E-01  8.50000000E-01
  8.50000000E-01  8.50000000E-01  8.50000000E-01  8.50000000E-01  8.50000000E-01
  8.50000000E-01  8.50000000E-01  8.50000000E-01  8.50000000E-01  8.50000000E-01
  8.50000000E-01  8.50000000E-01  8.50000000E-01  8.50000000E-01  8.50000000E-01
  8.50000000E-01  8.50000000E-01  8.50000000E-01  8.50000000E-01  8.50000000E-01
  8.50000000E-01  8.50000000E-01  8.50000000E-01  8.50000000E-01  8.50000000E-01
  8.50000000E-01  8.50000000E-01  8.50000000E-01  8.50000000E-01  8.50000000E-01
  8.50000000E-01  8.50000000E-01  8.50000000E-01  8.50000000E-01  8.50000000E-01
  8.50000000E-01  8.50000000E-01  8.50000000E-01  8.50000000E-01  8.50000000E-01
  8.50000000E-01  8.50000000E-01  8.50000000E-01  8.50000000E-01  8.50000000E-01
  8.50000000E-01  8.50000000E-01  8.50000000E-01  8.50000000E-01  8.50000000E-01
  8.50000000E-01  8.50000000E-01  8.50000000E-01  8.50000000E-01  8.50000000E-01
  8.50000000E-01  8.50000000E-01  8.50000000E-01  8.50000000E-01  8.50000000E-01
  8.50000000E-01  8.50000000E-01  8.50000000E-01  8.50000000E-01  8.50000000E-01
  8.50000000E-01  8.50000000E-01  8.50000000E-01  8.50000000E-01  8.50000000E-01
  8.50000000E-01  8.50000000E-01  8.50000000E-01  8.50000000E-01  8.50000000E-01
  8.50000000E-01  8.50000000E-01  8.50000000E-01  8.50000000E-01  8.50000000E-01
  8.50000000E-01  8.50000000E-01  8.50000000E-01  8.50000000E-01  8.50000000E-01
  8.50000000E-01  8.50000000E-01  8.50000000E-01  8.50000000E-01  8.50000000E-01
  8.50000000E-01  8.50000000E-01  8.50000000E-01  8.50000000E-01  8.50000000E-01
  8.50000000E-01  8.50000000E-01  8.50000000E-01  8.50000000E-01  8.50000000E-01
  8.50000000E-01  8.50000000E-01  8.50000000E-01  8.50000000E-01  8.50000000E-01
  8.50000000E-01  8.50000000E-01  8.50000000E-01  8.50000000E-01  8.50000000E-01
  8.50000000E-01  8.50000000E-01  8.50000000E-01  8.50000000E-01  8.50000000E-01
  8.50000000E-01  8.50000000E-01  8.50000000E-01  8.50000000E-01  8.50000000E-01
  8.50000000E-01  8.50000000E-01  8.50000000E-01  8.50000000E-01  8.50000000E-01
  8.50000000E-01  8.50000000E-01  8.50000000E-01  8.50000000E-01  8.50000000E-01
  8.50000000E-01  8.50000000E-01  8.50000000E-01  8.50000000E-01  8.50000000E-01
  8.50000000E-01  8.50000000E-01  8.50000000E-01  8.50000000E-01  8.50000000E-01
  8.50000000E-01  8.50000000E-01  8.50000000E-01  8.50000000E-01  8.50000000E-01
  8.50000000E-01  8.50000000E-01  8.50000000E-01  8.50000000E-01  8.50000000E-01
  8.50000000E-01  8.50000000E-01  8.50000000E-01  8.50000000E-01  8.50000000E-01
  8.50000000E-01  8.50000000E-01  8.50000000E-01  8.50000000E-01  8.50000000E-01
  8.50000000E-01  8.50000000E-01  8.50000000E-01  8.50000000E-01  8.50000000E-01
  8.50000000E-01  8.50000000E-01  8.50000000E-01  8.50000000E-01  8.50000000E-01
  8.50000000E-01  8.50000000E-01  8.50000000E-01  8.50000000E-01  8.50000000E-01
  8.50000000E-01  8.50000000E-01  8.50000000E-01  8.50000000E-01  8.50000000E-01
  8.50000000E-01  8.50000000E-01  8.50000000E-01  8.50000000E-01  8.50000000E-01
  8.50000000E-01  8.50000000E-01  8.50000000E-01  8.50000000E-01  8.50000000E-01
  8.50000000E-01  8.50000000E-01  8.50000000E-01  8.50000000E-01  8.50000000E-01
  8.50000000E-01  8.50000000E-01  8.50000000E-01  8.50000000E-01  8.50000000E-01
  8.50000000E-01  8.50000000E-01  8.50000000E-01  8.50000000E-01  8.50000000E-01
  8.50000000E-01  8.50000000E-01  8.50000000E-01  8.50000000E-01  8.50000000E-01
  8.50000000E-01  8.50000000E-01  8.50000000E-01  8.50000000E-01  8.50000000E-01
  8.50000000E-01  8.50000000E-01  8.50000000E-01  8.50000000E-01  8.50000000E-01
  8.50000000E-01  8.50000000E-01  8.50000000E-01  8.50000000E-01  8.50000000E-01
  8.50000000E-01  8.50000000E-01  8.50000000E-01  8.50000000E-01  8.50000000E-01
  8.50000000E-01  8.50000000E-01  8.50000000E-01  8.50000000E-01  8.50000000E-01
  8.50000000E-01  8.50000000E-01  8.50000000E-01  8.50000000E-01  8.50000000E-01
  8.50000000E-01  8.50000000E-01  8.50000000E-01  8.50000000E-01  8.50000000E-01
  8.50000000E-01  8.50000000E-01  8.50000000E-01  8.50000000E-01  8.50000000E-01
  8.50000000E-01  8.50000000E-01  8.50000000E-01  8.50000000E-01  8.50000000E-01
  8.50000000E-01  8.50000000E-01  8.50000000E-01  8.50000000E-01  8.50000000E-01
  8.50000000E-01  8.50000000E-01  8.50000000E-01  8.50000000E-01  8.50000000E-01
  8.50000000E-01  8.50000000E-01  8.50000000E-01  8.50000000E-01  8.50000000E-01
  8.50000000E-01  8.50000000E-01  8.50000000E-01  8.50000000E-01  8.50000000E-01
  8.50000000E-01  8.50000000E-01  8.50000000E-01  8.50000000E-01  8.50000000E-01
  8.50000000E-01  8.50000000E-01  8.50000000E-01  8.50000000E-01  8.50000000E-01
  8.50000000E-01  8.50000000E-01  8.50000000E-01  8.50000000E-01  8.50000000E-01
  8.50000000E-01  8.50000000E-01  8.50000000E-01  8.50000000E-01  8.50000000E-01
  8.50000000E-01  8.50000000E-01  8.50000000E-01  8.50000000E-01  8.50000000E-01
  8.50000000E-01  8.50000000E-01  8.50000000E-01  8.50000000E-01  8.50000000E-01
  8.50000000E-01  8.50000000E-01  8.50000000E-01  8.50000000E-01  8.50000000E-01
  8.50000000E-01  8.50000000E-01  8.50000000E-01  8.50000000E-01  8.50000000E-01
  8.50000000E-01  8.50000000E-01  8.50000000E-01  8.50000000E-01  8.50000000E-01
  8.50000000E-01  8.50000000E-01  8.50000000E-01  8.50000000E-01  8.50000000E-01
  8.50000000E-01  8.50000000E-01  8.50000000E-01  8.50000000E-01  8.50000000E-01
  8.50000000E-01  8.50000000E-01  8.50000000E-01  8.50000000E-01  8.50000000E-01
  8.50000000E-01  8.50000000E-01  8.50000000E-01  8.50000000E-01  8.50000000E-01
  8.50000000E-01  8.50000000E-01  8.50000000E-01  8.50000000E-01  8.50000000E-01
  8.50000000E-01  8.50000000E-01  8.50000000E-01  8.50000000E-01  8.50000000E-01
  8.50000000E-01  8.50000000E-01  8.50000000E-01  8.50000000E-01  8.50000000E-01
  8.50000000E-01  8.50000000E-01  8.50000000E-01  8.50000000E-01  8.50000000E-01
  8.50000000E-01  8.50000000E-01  8.50000000E-01  8.50000000E-01  8.50000000E-01
  8.50000000E-01  8.50000000E-01  8.50000000E-01  8.50000000E-01  8.50000000E-01
  8.50000000E-01  8.50000000E-01  8.50000000E-01  8.50000000E-01  8.50000000E-01
  8.50000000E-01  8.50000000E-01  8.50000000E-01  8.50000000E-01  8.50000000E-01
  8.50000000E-01  8.50000000E-01  8.50000000E-01  8.50000000E-01  8.50000000E-01
  8.50000000E-01  8.50000000E-01  8.50000000E-01  8.50000000E-01  8.50000000E-01
  8.50000000E-01  8.50000000E-01  8.50000000E-01  8.50000000E-01  8.50000000E-01
  8.50000000E-01  8.50000000E-01  8.50000000E-01  8.50000000E-01  8.50000000E-01
  8.50000000E-01  8.50000000E-01  8.50000000E-01  8.50000000E-01  8.50000000E-01
  8.50000000E-01  8.50000000E-01  8.50000000E-01  8.50000000E-01  8.50000000E-01
  8.50000000E-01  8.50000000E-01  8.50000000E-01  8.50000000E-01  8.50000000E-01
  8.50000000E-01  8.50000000E-01  8.50000000E-01  8.50000000E-01  8.50000000E-01
  8.50000000E-01  8.50000000E-01  8.50000000E-01  8.50000000E-01  8.50000000E-01
  8.50000000E-01  8.50000000E-01  8.50000000E-01  8.50000000E-01  8.50000000E-01
  8.50000000E-01  8.50000000E-01  8.50000000E-01  8.50000000E-01  8.50000000E-01
  8.50000000E-01  8.50000000E-01  8.50000000E-01  8.50000000E-01  8.50000000E-01
  8.50000000E-01  8.50000000E-01  8.50000000E-01  8.50000000E-01  8.50000000E-01
  8.50000000E-01  8.50000000E-01  8.50000000E-01  8.50000000E-01  8.50000000E-01
  8.50000000E-01  8.50000000E-01  8.50000000E-01  8.50000000E-01  8.50000000E-01
  8.50000000E-01  8.50000000E-01  8.50000000E-01  8.50000000E-01  8.50000000E-01
  8.50000000E-01  8.50000000E-01  8.50000000E-01  8.50000000E-01  8.50000000E-01
  8.50000000E-01  8.50000000E-01  8.50000000E-01  8.50000000E-01  8.50000000E-01
  8.50000000E-01  8.50000000E-01  8.50000000E-01  8.50000000E-01  8.50000000E-01
  8.50000000E-01  8.50000000E-01  8.50000000E-01  8.50000000E-01  8.50000000E-01
  8.50000000E-01  8.50000000E-01  8.50000000E-01  8.50000000E-01  8.50000000E-01
  8.50000000E-01  8.50000000E-01  8.50000000E-01  8.50000000E-01  8.50000000E-01
  8.50000000E-01  8.50000000E-01  8.50000000E-01  8.50000000E-01  8.50000000E-01
  8.50000000E-01  8.50000000E-01  8.50000000E-01  8.50000000E-01  8.50000000E-01
  8.50000000E-01  8.50000000E-01  8.50000000E-01  8.50000000E-01  8.50000000E-01
  8.50000000E-01  8.50000000E-01  8.50000000E-01  8.50000000E-01  8.50000000E-01
  8.50000000E-01  8.50000000E-01  8.50000000E-01  8.50000000E-01  8.50000000E-01
  8.50000000E-01  8.50000000E-01  8.50000000E-01  8.50000000E-01  8.50000000E-01
  8.50000000E-01  8.50000000E-01  8.50000000E-01  8.50000000E-01  8.50000000E-01
  8.50000000E-01  8.50000000E-01  8.50000000E-01  8.50000000E-01  8.50000000E-01
  8.50000000E-01  8.50000000E-01  8.50000000E-01  8.50000000E-01  8.50000000E-01
  8.50000000E-01  8.50000000E-01  8.50000000E-01  8.50000000E-01  8.50000000E-01
  8.50000000E-01  8.50000000E-01  8.50000000E-01  8.50000000E-01  8.50000000E-01
  8.50000000E-01  8.50000000E-01  8.50000000E-01  8.50000000E-01  8.50000000E-01
  8.50000000E-01  8.50000000E-01  8.50000000E-01  8.50000000E-01  8.50000000E-01
  8.50000000E-01  8.50000000E-01  8.50000000E-01  8.50000000E-01  8.50000000E-01
  8.50000000E-01  8.50000000E-01  8.50000000E-01  8.50000000E-01  8.50000000E-01
  8.50000000E-01  8.50000000E-01  8.50000000E-01  8.50000000E-01  8.50000000E-01
  8.50000000E-01  8.50000000E-01  8.50000000E-01  8.50000000E-01  8.50000000E-01
  8.50000000E-01  8.50000000E-01  8.50000000E-01  8.50000000E-01  8.50000000E-01
  8.50000000E-01  8.50000000E-01  8.50000000E-01  8.50000000E-01  8.50000000E-01
  8.50000000E-01  8.50000000E-01  8.50000000E-01  8.50000000E-01  8.50000000E-01
  8.50000000E-01  8.50000000E-01  8.50000000E-01  8.50000000E-01  8.50000000E-01
  8.50000000E-01  8.50000000E-01  8.50000000E-01  8.50000000E-01  8.50000000E-01
  8.50000000E-01  8.50000000E-01  8.50000000E-01  8.50000000E-01  8.50000000E-01
  8.50000000E-01  8.50000000E-01  8.50000000E-01  8.50000000E-01  8.50000000E-01
  8.50000000E-01  8.50000000E-01  8.50000000E-01  8.50000000E-01  8.50000000E-01
  8.50000000E-01  8.50000000E-01  8.50000000E-01  8.50000000E-01  8.50000000E-01
  8.50000000E-01  8.50000000E-01  8.50000000E-01  8.50000000E-01  8.50000000E-01
  8.50000000E-01  8.50000000E-01  8.50000000E-01  8.50000000E-01  8.50000000E-01
  8.50000000E-01  8.50000000E-01  8.50000000E-01  8.50000000E-01  8.50000000E-01
  8.50000000E-01  8.50000000E-01  8.50000000E-01  8.50000000E-01  8.50000000E-01
  8.50000000E-01  8.50000000E-01  8.50000000E-01  8.50000000E-01  8.50000000E-01
  8.50000000E-01  8.50000000E-01  8.50000000E-01  8.50000000E-01  8.50000000E-01
  8.50000000E-01  8.50000000E-01  8.50000000E-01  8.50000000E-01  8.50000000E-01
  8.50000000E-01  8.50000000E-01  8.50000000E-01  8.50000000E-01  8.50000000E-01
  8.50000000E-01  8.50000000E-01  8.50000000E-01  8.50000000E-01  8.50000000E-01
  8.50000000E-01  8.50000000E-01  8.50000000E-01  8.50000000E-01  8.50000000E-01
  8.50000000E-01  8.50000000E-01  8.50000000E-01  8.50000000E-01  8.50000000E-01
  8.50000000E-01  8.50000000E-01  8.50000000E-01  8.50000000E-01  8.50000000E-01
  8.50000000E-01  8.50000000E-01  8.50000000E-01  8.50000000E-01  8.50000000E-01
  8.50000000E-01  8.50000000E-01  8.50000000E-01  8.50000000E-01  8.50000000E-01
  8.50000000E-01  8.50000000E-01  8.50000000E-01  8.50000000E-01  8.50000000E-01
  8.50000000E-01  8.50000000E-01  8.50000000E-01  8.50000000E-01  8.50000000E-01
  8.50000000E-01  8.50000000E-01  8.50000000E-01  8.50000000E-01  8.50000000E-01
  8.50000000E-01  8.50000000E-01  8.50000000E-01  8.50000000E-01  8.50000000E-01
  8.50000000E-01  8.50000000E-01  8.50000000E-01  8.50000000E-01  8.50000000E-01
  8.50000000E-01  8.50000000E-01  8.50000000E-01  8.50000000E-01  8.50000000E-01
  8.50000000E-01  8.50000000E-01  8.50000000E-01  8.50000000E-01  8.50000000E-01
  8.50000000E-01  8.50000000E-01  8.50000000E-01  8.50000000E-01  8.50000000E-01
  8.50000000E-01  8.50000000E-01  8.50000000E-01  8.50000000E-01  8.50000000E-01
  8.50000000E-01  8.50000000E-01  8.50000000E-01  8.50000000E-01  8.50000000E-01
  8.50000000E-01  8.50000000E-01  8.50000000E-01  8.50000000E-01  8.50000000E-01
  8.50000000E-01  8.50000000E-01  8.50000000E-01  8.50000000E-01  8.50000000E-01
  8.50000000E-01  8.50000000E-01  8.50000000E-01  8.50000000E-01  8.50000000E-01
  8.50000000E-01  8.50000000E-01  8.50000000E-01  8.50000000E-01  8.50000000E-01
  8.50000000E-01  8.50000000E-01  8.50000000E-01  8.50000000E-01  8.50000000E-01
  8.50000000E-01  8.50000000E-01  8.50000000E-01  8.50000000E-01  8.50000000E-01
  8.50000000E-01  8.50000000E-01  8.50000000E-01  8.50000000E-01  8.50000000E-01
  8.50000000E-01  8.50000000E-01  8.50000000E-01  8.50000000E-01  8.50000000E-01
  8.50000000E-01  8.50000000E-01  8.50000000E-01  8.50000000E-01  8.50000000E-01
  8.50000000E-01  8.50000000E-01  8.50000000E-01  8.50000000E-01  8.50000000E-01
  8.50000000E-01  8.50000000E-01  8.50000000E-01  8.50000000E-01  8.50000000E-01
  8.50000000E-01  8.50000000E-01  8.50000000E-01  8.50000000E-01  8.50000000E-01
  8.50000000E-01  8.50000000E-01  8.50000000E-01  8.50000000E-01  8.50000000E-01
  8.50000000E-01  8.50000000E-01  8.50000000E-01  8.50000000E-01  8.50000000E-01
  8.50000000E-01  8.50000000E-01  8.50000000E-01  8.50000000E-01  8.50000000E-01
  8.50000000E-01  8.50000000E-01  8.50000000E-01  8.50000000E-01  8.50000000E-01
  8.50000000E-01  8.50000000E-01  8.50000000E-01  8.50000000E-01  8.50000000E-01
  8.50000000E-01  8.50000000E-01  8.50000000E-01  8.50000000E-01  8.50000000E-01
  8.50000000E-01  8.50000000E-01  8.50000000E-01  8.50000000E-01  8.50000000E-01
  8.50000000E-01  8.50000000E-01  8.50000000E-01  8.50000000E-01  8.50000000E-01
  8.50000000E-01  8.50000000E-01  8.50000000E-01  8.50000000E-01  8.50000000E-01
  8.50000000E-01  8.50000000E-01  8.50000000E-01  8.50000000E-01  8.50000000E-01
  8.50000000E-01  8.50000000E-01  8.50000000E-01  8.50000000E-01  8.50000000E-01
  8.50000000E-01  8.50000000E-01  8.50000000E-01  8.50000000E-01  8.50000000E-01
  8.50000000E-01  8.50000000E-01  8.50000000E-01  8.50000000E-01  8.50000000E-01
  8.50000000E-01  8.50000000E-01  8.50000000E-01  8.50000000E-01  8.50000000E-01
  8.50000000E-01  8.50000000E-01  8.50000000E-01  8.50000000E-01  8.50000000E-01
  8.50000000E-01  8.50000000E-01  8.50000000E-01  8.50000000E-01  8.50000000E-01
  8.50000000E-01  8.50000000E-01  8.50000000E-01  8.50000000E-01  8.50000000E-01
  8.50000000E-01  8.50000000E-01  8.50000000E-01  8.50000000E-01  8.50000000E-01
  8.50000000E-01  8.50000000E-01  8.50000000E-01  8.50000000E-01  8.50000000E-01
  8.50000000E-01  8.50000000E-01  8.50000000E-01  8.50000000E-01  8.50000000E-01
  8.50000000E-01  8.50000000E-01  8.50000000E-01  8.50000000E-01  8.50000000E-01
  8.50000000E-01  8.50000000E-01  8.50000000E-01  8.50000000E-01  8.50000000E-01
  8.50000000E-01  8.50000000E-01  8.50000000E-01  8.50000000E-01  8.50000000E-01
  8.50000000E-01  8.50000000E-01  8.50000000E-01  8.50000000E-01  8.50000000E-01
  8.50000000E-01  8.50000000E-01  8.50000000E-01  8.50000000E-01  8.50000000E-01
  8.50000000E-01  8.50000000E-01  8.50000000E-01  8.50000000E-01  8.50000000E-01
  8.50000000E-01  8.50000000E-01  8.50000000E-01  8.50000000E-01  8.50000000E-01
  8.50000000E-01  8.50000000E-01  8.50000000E-01  8.50000000E-01  8.50000000E-01
  8.50000000E-01  8.50000000E-01  8.50000000E-01  8.50000000E-01  8.50000000E-01
  8.50000000E-01  8.50000000E-01  8.50000000E-01  8.50000000E-01  8.50000000E-01
  8.50000000E-01  8.50000000E-01  8.50000000E-01  8.50000000E-01  8.50000000E-01
  8.50000000E-01  8.50000000E-01  8.50000000E-01  8.50000000E-01  8.50000000E-01
  8.50000000E-01  8.50000000E-01  8.50000000E-01  8.50000000E-01  8.50000000E-01
  8.50000000E-01  8.50000000E-01  8.50000000E-01  8.50000000E-01  8.50000000E-01
  8.50000000E-01  8.50000000E-01  8.50000000E-01  8.50000000E-01  8.50000000E-01
  8.50000000E-01  8.50000000E-01  8.50000000E-01  8.50000000E-01  8.50000000E-01
  8.50000000E-01  8.50000000E-01  8.50000000E-01  8.50000000E-01  8.50000000E-01
  8.50000000E-01  8.50000000E-01  8.50000000E-01  8.50000000E-01  8.50000000E-01
  8.50000000E-01  8.50000000E-01  8.50000000E-01  8.50000000E-01  8.50000000E-01
  8.50000000E-01  8.50000000E-01  8.50000000E-01  8.50000000E-01  8.50000000E-01
  8.50000000E-01  8.50000000E-01  8.50000000E-01  8.50000000E-01  8.50000000E-01
  8.50000000E-01  8.50000000E-01  8.50000000E-01  8.50000000E-01  8.50000000E-01
  8.50000000E-01  8.50000000E-01  8.50000000E-01  8.50000000E-01  8.50000000E-01
  8.50000000E-01  8.50000000E-01  8.50000000E-01  8.50000000E-01  8.50000000E-01
  8.50000000E-01  8.50000000E-01  8.50000000E-01  8.50000000E-01  8.50000000E-01
  8.50000000E-01  8.50000000E-01  8.50000000E-01  8.50000000E-01  8.50000000E-01
  8.50000000E-01  8.50000000E-01  8.50000000E-01  8.50000000E-01  8.50000000E-01
  8.50000000E-01  8.50000000E-01  8.50000000E-01  8.50000000E-01  8.50000000E-01
  8.50000000E-01  8.50000000E-01  8.50000000E-01  8.50000000E-01  8.50000000E-01
  8.50000000E-01  8.50000000E-01  8.50000000E-01  8.50000000E-01  8.50000000E-01
  8.50000000E-01  8.50000000E-01  8.50000000E-01  8.50000000E-01  8.50000000E-01
  8.50000000E-01  8.50000000E-01  8.50000000E-01  8.50000000E-01  8.50000000E-01
  8.50000000E-01  8.50000000E-01  8.50000000E-01  8.50000000E-01  8.50000000E-01
  8.50000000E-01  8.50000000E-01  8.50000000E-01  8.50000000E-01  8.50000000E-01
  8.50000000E-01  8.50000000E-01  8.50000000E-01  8.50000000E-01  8.50000000E-01
  8.50000000E-01  8.50000000E-01  8.50000000E-01  8.50000000E-01  8.50000000E-01
  8.50000000E-01  8.50000000E-01  8.50000000E-01  8.50000000E-01  8.50000000E-01
  8.50000000E-01  8.50000000E-01  8.50000000E-01  8.50000000E-01  8.50000000E-01
  8.50000000E-01  8.50000000E-01  8.50000000E-01  8.50000000E-01  8.50000000E-01
  8.50000000E-01  8.50000000E-01  8.50000000E-01  8.50000000E-01  8.50000000E-01
  8.50000000E-01  8.50000000E-01  8.50000000E-01  8.50000000E-01  8.50000000E-01
  8.50000000E-01  8.50000000E-01  8.50000000E-01  8.50000000E-01  8.50000000E-01
  8.50000000E-01  8.50000000E-01  8.50000000E-01  8.50000000E-01  8.50000000E-01
  8.50000000E-01  8.50000000E-01  8.50000000E-01  8.50000000E-01  8.50000000E-01
  8.50000000E-01  8.50000000E-01  8.50000000E-01  8.50000000E-01  8.50000000E-01
  8.50000000E-01  8.50000000E-01  8.50000000E-01  8.50000000E-01  8.50000000E-01
  8.50000000E-01  8.50000000E-01  8.50000000E-01  8.50000000E-01  8.50000000E-01
  8.50000000E-01  8.50000000E-01  8.50000000E-01  8.50000000E-01  8.50000000E-01
  8.50000000E-01  8.50000000E-01  8.50000000E-01  8.50000000E-01  8.50000000E-01
  8.50000000E-01  8.50000000E-01  8.50000000E-01  8.50000000E-01  8.50000000E-01
  8.50000000E-01  8.50000000E-01  8.50000000E-01  8.50000000E-01  8.50000000E-01
  8.50000000E-01  8.50000000E-01  8.50000000E-01  8.50000000E-01  8.50000000E-01
  8.50000000E-01  8.50000000E-01  8.50000000E-01  8.50000000E-01  8.50000000E-01
  8.50000000E-01  8.50000000E-01  8.50000000E-01  8.50000000E-01  8.50000000E-01
  8.50000000E-01  8.50000000E-01  8.50000000E-01  8.50000000E-01  8.50000000E-01
  8.50000000E-01  8.50000000E-01  8.50000000E-01  8.50000000E-01  8.50000000E-01
  8.50000000E-01  8.50000000E-01  8.50000000E-01  8.50000000E-01  8.50000000E-01
  8.50000000E-01  8.50000000E-01  8.50000000E-01  8.50000000E-01  8.50000000E-01
  8.50000000E-01  8.50000000E-01  8.50000000E-01  8.50000000E-01  8.50000000E-01
  8.50000000E-01  8.50000000E-01  8.50000000E-01  8.50000000E-01  8.50000000E-01
  8.50000000E-01  8.50000000E-01  8.50000000E-01  8.50000000E-01  8.50000000E-01
  8.50000000E-01  8.50000000E-01  8.50000000E-01  8.50000000E-01  8.50000000E-01
  8.50000000E-01  8.50000000E-01  8.50000000E-01  8.50000000E-01  8.50000000E-01
  8.50000000E-01  8.50000000E-01  8.50000000E-01  8.50000000E-01  8.50000000E-01
  8.50000000E-01  8.50000000E-01  8.50000000E-01  8.50000000E-01  8.50000000E-01
  8.50000000E-01  8.50000000E-01  8.50000000E-01  8.50000000E-01  8.50000000E-01
  8.50000000E-01  8.50000000E-01  8.50000000E-01  8.50000000E-01  8.50000000E-01
  8.50000000E-01  8.50000000E-01  8.50000000E-01  8.50000000E-01  8.50000000E-01
  8.50000000E-01  8.50000000E-01  8.50000000E-01  8.50000000E-01  8.50000000E-01
  8.50000000E-01  8.50000000E-01  8.50000000E-01  8.50000000E-01  8.50000000E-01
  8.50000000E-01  8.50000000E-01  8.50000000E-01  8.50000000E-01  8.50000000E-01
  8.50000000E-01  8.50000000E-01  8.50000000E-01  8.50000000E-01  8.50000000E-01
  8.50000000E-01  8.50000000E-01  8.50000000E-01  8.50000000E-01  8.50000000E-01
  8.50000000E-01  8.50000000E-01  8.50000000E-01  8.50000000E-01  8.50000000E-01
  8.50000000E-01  8.50000000E-01  8.50000000E-01  8.50000000E-01  8.50000000E-01
  8.50000000E-01  8.50000000E-01  8.50000000E-01  8.50000000E-01  8.50000000E-01
  8.50000000E-01  8.50000000E-01  8.50000000E-01  8.50000000E-01  8.50000000E-01
  8.50000000E-01  8.50000000E-01  8.50000000E-01  8.50000000E-01  8.50000000E-01
  8.50000000E-01  8.50000000E-01  8.50000000E-01  8.50000000E-01  8.50000000E-01
  8.50000000E-01  8.50000000E-01  8.50000000E-01  8.50000000E-01  8.50000000E-01
  8.50000000E-01  8.50000000E-01  8.50000000E-01  8.50000000E-01  8.50000000E-01
  8.50000000E-01  8.50000000E-01  8.50000000E-01  8.50000000E-01  8.50000000E-01
  8.50000000E-01  8.50000000E-01  8.50000000E-01  8.50000000E-01  8.50000000E-01
  8.50000000E-01  8.50000000E-01  8.50000000E-01  8.50000000E-01  8.50000000E-01
  8.50000000E-01  8.50000000E-01  8.50000000E-01  8.50000000E-01  8.50000000E-01
  8.50000000E-01  8.50000000E-01  8.50000000E-01  8.50000000E-01  8.50000000E-01
  8.50000000E-01  8.50000000E-01  8.50000000E-01  8.50000000E-01  8.50000000E-01
  8.50000000E-01  8.50000000E-01  8.50000000E-01  8.50000000E-01  8.50000000E-01
  8.50000000E-01  8.50000000E-01  8.50000000E-01  8.50000000E-01  8.50000000E-01
  8.50000000E-01  8.50000000E-01  8.50000000E-01  8.50000000E-01  8.50000000E-01
  8.50000000E-01  8.50000000E-01  8.50000000E-01  8.50000000E-01  8.50000000E-01
  8.50000000E-01  8.50000000E-01  8.50000000E-01  8.50000000E-01  8.50000000E-01
  8.50000000E-01  8.50000000E-01  8.50000000E-01  8.50000000E-01  8.50000000E-01
  8.50000000E-01  8.50000000E-01  8.50000000E-01  8.50000000E-01  8.50000000E-01
  8.50000000E-01  8.50000000E-01  8.50000000E-01  8.50000000E-01  8.50000000E-01
  8.50000000E-01  8.50000000E-01  8.50000000E-01  8.50000000E-01  8.50000000E-01
  8.50000000E-01  8.50000000E-01  8.50000000E-01  8.50000000E-01  8.50000000E-01
  8.50000000E-01  8.50000000E-01  8.50000000E-01  8.50000000E-01  8.50000000E-01
  8.50000000E-01  8.50000000E-01  8.50000000E-01  8.50000000E-01  8.50000000E-01
  8.50000000E-01  8.50000000E-01  8.50000000E-01  8.50000000E-01  8.50000000E-01
  8.50000000E-01  8.50000000E-01  8.50000000E-01  8.50000000E-01  8.50000000E-01
  8.50000000E-01  8.50000000E-01  8.50000000E-01  8.50000000E-01  8.50000000E-01
  8.50000000E-01  8.50000000E-01  8.50000000E-01  8.50000000E-01  8.50000000E-01
  8.50000000E-01  8.50000000E-01  8.50000000E-01  8.50000000E-01  8.50000000E-01
  8.50000000E-01  8.50000000E-01  8.50000000E-01  8.50000000E-01  8.50000000E-01
  8.50000000E-01  8.50000000E-01  8.50000000E-01  8.50000000E-01  8.50000000E-01
  8.50000000E-01  8.50000000E-01  8.50000000E-01  8.50000000E-01  8.50000000E-01
  8.50000000E-01  8.50000000E-01  8.50000000E-01  8.50000000E-01  8.50000000E-01
  8.50000000E-01  8.50000000E-01  8.50000000E-01  8.50000000E-01  8.50000000E-01
  8.50000000E-01  8.50000000E-01  8.50000000E-01  8.50000000E-01  8.50000000E-01
  8.50000000E-01  8.50000000E-01  8.50000000E-01  8.50000000E-01  8.50000000E-01
  8.50000000E-01  8.50000000E-01  8.50000000E-01  8.50000000E-01  8.50000000E-01
  8.50000000E-01  8.50000000E-01  8.50000000E-01  8.50000000E-01  8.50000000E-01
  8.50000000E-01  8.50000000E-01  8.50000000E-01  8.50000000E-01  8.50000000E-01
  8.50000000E-01  8.50000000E-01  8.50000000E-01  8.50000000E-01  8.50000000E-01
  8.50000000E-01  8.50000000E-01  8.50000000E-01  8.50000000E-01  8.50000000E-01
  8.50000000E-01  8.50000000E-01  8.50000000E-01  8.50000000E-01  8.50000000E-01
  8.50000000E-01  8.50000000E-01  8.50000000E-01  8.50000000E-01  8.50000000E-01
  8.50000000E-01  8.50000000E-01  8.50000000E-01  8.50000000E-01  8.50000000E-01
  8.50000000E-01  8.50000000E-01  8.50000000E-01  8.50000000E-01  8.50000000E-01
  8.50000000E-01  8.50000000E-01  8.50000000E-01  8.50000000E-01  8.50000000E-01
  8.50000000E-01  8.50000000E-01  8.50000000E-01  8.50000000E-01  8.50000000E-01
  8.50000000E-01  8.50000000E-01  8.50000000E-01  8.50000000E-01  8.50000000E-01
  8.50000000E-01  8.50000000E-01  8.50000000E-01  8.50000000E-01  8.50000000E-01
  8.50000000E-01  8.50000000E-01  8.50000000E-01  8.50000000E-01  8.50000000E-01
  8.50000000E-01  8.50000000E-01  8.50000000E-01  8.50000000E-01  8.50000000E-01
  8.50000000E-01  8.50000000E-01  8.50000000E-01  8.50000000E-01  8.50000000E-01
  8.50000000E-01  8.50000000E-01  8.50000000E-01  8.50000000E-01  8.50000000E-01
  8.50000000E-01  8.50000000E-01  8.50000000E-01  8.50000000E-01  8.50000000E-01
  8.50000000E-01  8.50000000E-01  8.50000000E-01  8.50000000E-01  8.50000000E-01
  8.50000000E-01  8.50000000E-01  8.50000000E-01  8.50000000E-01  8.50000000E-01
  8.50000000E-01  8.50000000E-01  8.50000000E-01  8.50000000E-01  8.50000000E-01
  8.50000000E-01  8.50000000E-01  8.50000000E-01  8.50000000E-01  8.50000000E-01
  8.50000000E-01  8.50000000E-01  8.50000000E-01  8.50000000E-01  8.50000000E-01
  8.50000000E-01  8.50000000E-01  8.50000000E-01  8.50000000E-01  8.50000000E-01
  8.50000000E-01  8.50000000E-01  8.50000000E-01  8.50000000E-01  8.50000000E-01
  8.50000000E-01  8.50000000E-01  8.50000000E-01  8.50000000E-01  8.50000000E-01
  8.50000000E-01  8.50000000E-01  8.50000000E-01  8.50000000E-01  8.50000000E-01
  8.50000000E-01  8.50000000E-01  8.50000000E-01  8.50000000E-01  8.50000000E-01
  8.50000000E-01  8.50000000E-01  8.50000000E-01  8.50000000E-01  8.50000000E-01
  8.50000000E-01  8.50000000E-01  8.50000000E-01  8.50000000E-01  8.50000000E-01
  8.50000000E-01  8.50000000E-01  8.50000000E-01  8.50000000E-01  8.50000000E-01
  8.50000000E-01  8.50000000E-01  8.50000000E-01  8.50000000E-01  8.50000000E-01
  8.50000000E-01  8.50000000E-01  8.50000000E-01  8.50000000E-01  8.50000000E-01
  8.50000000E-01  8.50000000E-01  8.50000000E-01  8.50000000E-01  8.50000000E-01
  8.50000000E-01  8.50000000E-01  8.50000000E-01  8.50000000E-01  8.50000000E-01
  8.50000000E-01  8.50000000E-01  8.50000000E-01  8.50000000E-01  8.50000000E-01
  8.50000000E-01  8.50000000E-01  8.50000000E-01  8.50000000E-01  8.50000000E-01
  8.50000000E-01  8.50000000E-01  8.50000000E-01  8.50000000E-01  8.50000000E-01
  8.50000000E-01  8.50000000E-01  8.50000000E-01  8.50000000E-01  8.50000000E-01
  8.50000000E-01  8.50000000E-01  8.50000000E-01  8.50000000E-01  8.50000000E-01
  8.50000000E-01  8.50000000E-01  8.50000000E-01  8.50000000E-01  8.50000000E-01
  8.50000000E-01  8.50000000E-01  8.50000000E-01  8.50000000E-01  8.50000000E-01
  8.50000000E-01  8.50000000E-01  8.50000000E-01  8.50000000E-01  8.50000000E-01
  8.50000000E-01  8.50000000E-01  8.50000000E-01  8.50000000E-01  8.50000000E-01
  8.50000000E-01  8.50000000E-01  8.50000000E-01  8.50000000E-01  8.50000000E-01
  8.50000000E-01  8.50000000E-01  8.50000000E-01  8.50000000E-01  8.50000000E-01
  8.50000000E-01  8.50000000E-01  8.50000000E-01  8.50000000E-01  8.50000000E-01
  8.50000000E-01  8.50000000E-01  8.50000000E-01  8.50000000E-01  8.50000000E-01
  8.50000000E-01  8.50000000E-01  8.50000000E-01  8.50000000E-01  8.50000000E-01
  8.50000000E-01  8.50000000E-01  8.50000000E-01  8.50000000E-01  8.50000000E-01
  8.50000000E-01  8.50000000E-01  8.50000000E-01  8.50000000E-01  8.50000000E-01
  8.50000000E-01  8.50000000E-01  8.50000000E-01  8.50000000E-01  8.50000000E-01
  8.50000000E-01  8.50000000E-01  8.50000000E-01  8.50000000E-01  8.50000000E-01
  8.50000000E-01  8.50000000E-01  8.50000000E-01  8.50000000E-01  8.50000000E-01
  8.50000000E-01  8.50000000E-01  8.50000000E-01  8.50000000E-01  8.50000000E-01
  8.50000000E-01  8.50000000E-01  8.50000000E-01  8.50000000E-01  8.50000000E-01
  8.50000000E-01  8.50000000E-01  8.50000000E-01  8.50000000E-01  8.50000000E-01
  8.50000000E-01  8.50000000E-01  8.50000000E-01  8.50000000E-01  8.50000000E-01
  8.50000000E-01  8.50000000E-01  8.50000000E-01  8.50000000E-01  8.50000000E-01
  8.50000000E-01  8.50000000E-01  8.50000000E-01  8.50000000E-01  8.50000000E-01
  8.50000000E-01  8.50000000E-01  8.50000000E-01  8.50000000E-01  8.50000000E-01
  8.50000000E-01  8.50000000E-01  8.50000000E-01  8.50000000E-01  8.50000000E-01
  8.50000000E-01  8.50000000E-01  8.50000000E-01  8.50000000E-01  8.50000000E-01
  8.50000000E-01  8.50000000E-01  8.50000000E-01  8.50000000E-01  8.50000000E-01
  8.50000000E-01  8.50000000E-01  8.50000000E-01  8.50000000E-01  8.50000000E-01
  8.50000000E-01  8.50000000E-01  8.50000000E-01  8.50000000E-01  8.50000000E-01
  8.50000000E-01  8.50000000E-01  8.50000000E-01  8.50000000E-01  8.50000000E-01
  8.50000000E-01  8.50000000E-01  8.50000000E-01  8.50000000E-01  8.50000000E-01
  8.50000000E-01  8.50000000E-01  8.50000000E-01  8.50000000E-01  8.50000000E-01
  8.50000000E-01  8.50000000E-01  8.50000000E-01  8.50000000E-01  8.50000000E-01
  8.50000000E-01  8.50000000E-01  8.50000000E-01  8.50000000E-01  8.50000000E-01
  8.50000000E-01  8.50000000E-01  8.50000000E-01  8.50000000E-01  8.50000000E-01
  8.50000000E-01  8.50000000E-01  8.50000000E-01  8.50000000E-01  8.50000000E-01
  8.50000000E-01  8.50000000E-01  8.50000000E-01  8.50000000E-01  8.50000000E-01
  8.50000000E-01  8.50000000E-01  8.50000000E-01  8.50000000E-01  8.50000000E-01
  8.50000000E-01  8.50000000E-01  8.50000000E-01  8.50000000E-01  8.50000000E-01
  8.50000000E-01  8.50000000E-01  8.50000000E-01  8.50000000E-01  8.50000000E-01
  8.50000000E-01  8.50000000E-01  8.50000000E-01  8.50000000E-01  8.50000000E-01
  8.50000000E-01  8.50000000E-01  8.50000000E-01  8.50000000E-01  8.50000000E-01
  8.50000000E-01  8.50000000E-01  8.50000000E-01  8.50000000E-01  8.50000000E-01
  8.50000000E-01  8.50000000E-01  8.50000000E-01  8.50000000E-01  8.50000000E-01
  8.50000000E-01  8.50000000E-01  8.50000000E-01  8.50000000E-01  8.50000000E-01
  8.50000000E-01  8.50000000E-01  8.50000000E-01  8.50000000E-01  8.50000000E-01
  8.50000000E-01  8.50000000E-01  8.50000000E-01  8.50000000E-01  8.50000000E-01
  8.50000000E-01  8.50000000E-01  8.50000000E-01  8.50000000E-01  8.50000000E-01
  8.50000000E-01  8.50000000E-01  8.50000000E-01  8.50000000E-01  8.50000000E-01
  8.50000000E-01  8.50000000E-01  8.50000000E-01  8.50000000E-01  8.50000000E-01
  8.50000000E-01  8.50000000E-01  8.50000000E-01  8.50000000E-01  8.50000000E-01
  8.50000000E-01  8.50000000E-01  8.50000000E-01  8.50000000E-01  8.50000000E-01
  8.50000000E-01  8.50000000E-01  8.50000000E-01  8.50000000E-01  8.50000000E-01
  8.50000000E-01  8.50000000E-01  8.50000000E-01  8.50000000E-01  8.50000000E-01
  8.50000000E-01  8.50000000E-01  8.50000000E-01  8.50000000E-01  8.50000000E-01
  8.50000000E-01  8.50000000E-01  8.50000000E-01  8.50000000E-01  8.50000000E-01
  8.50000000E-01  8.50000000E-01  8.50000000E-01  8.50000000E-01  8.50000000E-01
  8.50000000E-01  8.50000000E-01  8.50000000E-01  8.50000000E-01  8.50000000E-01
  8.50000000E-01  8.50000000E-01  8.50000000E-01  8.50000000E-01  8.50000000E-01
  8.50000000E-01  8.50000000E-01  8.50000000E-01  8.50000000E-01  8.50000000E-01
  8.50000000E-01  8.50000000E-01  8.50000000E-01  8.50000000E-01  8.50000000E-01
  8.50000000E-01  8.50000000E-01  8.50000000E-01  8.50000000E-01  8.50000000E-01
  8.50000000E-01  8.50000000E-01  8.50000000E-01  8.50000000E-01  8.50000000E-01
  8.50000000E-01  8.50000000E-01  8.50000000E-01  8.50000000E-01  8.50000000E-01
  8.50000000E-01  8.50000000E-01  8.50000000E-01  8.50000000E-01  8.50000000E-01
  8.50000000E-01  8.50000000E-01  8.50000000E-01  8.50000000E-01  8.50000000E-01
  8.50000000E-01  8.50000000E-01  8.50000000E-01  8.50000000E-01  8.50000000E-01
  8.50000000E-01  8.50000000E-01  8.50000000E-01  8.50000000E-01  8.50000000E-01
  8.50000000E-01  8.50000000E-01  8.50000000E-01  8.50000000E-01  8.50000000E-01
  8.50000000E-01  8.50000000E-01  8.50000000E-01  8.50000000E-01  8.50000000E-01
  8.50000000E-01  8.50000000E-01  8.50000000E-01  8.50000000E-01  8.50000000E-01
  8.50000000E-01  8.50000000E-01  8.50000000E-01  8.50000000E-01  8.50000000E-01
  8.50000000E-01  8.50000000E-01  8.50000000E-01  8.50000000E-01  8.50000000E-01
  8.50000000E-01  8.50000000E-01  8.50000000E-01  8.50000000E-01  8.50000000E-01
  8.50000000E-01  8.50000000E-01  8.50000000E-01  8.50000000E-01  8.50000000E-01
  8.50000000E-01  8.50000000E-01  8.50000000E-01  8.50000000E-01  8.50000000E-01
  8.50000000E-01  8.50000000E-01  8.50000000E-01  8.50000000E-01  8.50000000E-01
  8.50000000E-01  8.50000000E-01  8.50000000E-01  8.50000000E-01  8.50000000E-01
  8.50000000E-01  8.50000000E-01  8.50000000E-01  8.50000000E-01  8.50000000E-01
  8.50000000E-01  8.50000000E-01  8.50000000E-01  8.50000000E-01  8.50000000E-01
  8.50000000E-01  8.50000000E-01  8.50000000E-01  8.50000000E-01  8.50000000E-01
  8.50000000E-01  8.50000000E-01  8.50000000E-01  8.50000000E-01  8.50000000E-01
  8.50000000E-01  8.50000000E-01  8.50000000E-01  8.50000000E-01  8.50000000E-01
  8.50000000E-01  8.50000000E-01  8.50000000E-01  8.50000000E-01  8.50000000E-01
  8.50000000E-01  8.50000000E-01  8.50000000E-01  8.50000000E-01  8.50000000E-01
  8.50000000E-01  8.50000000E-01  8.50000000E-01  8.50000000E-01  8.50000000E-01
  8.50000000E-01  8.50000000E-01  8.50000000E-01  8.50000000E-01  8.50000000E-01
  8.50000000E-01  8.50000000E-01  8.50000000E-01  8.50000000E-01  8.50000000E-01
  8.50000000E-01  8.50000000E-01  8.50000000E-01  8.50000000E-01  8.50000000E-01
  8.50000000E-01  8.50000000E-01  8.50000000E-01  8.50000000E-01  8.50000000E-01
  8.50000000E-01  8.50000000E-01  8.50000000E-01  8.50000000E-01  8.50000000E-01
  8.50000000E-01  8.50000000E-01  8.50000000E-01  8.50000000E-01  8.50000000E-01
  8.50000000E-01  8.50000000E-01  8.50000000E-01  8.50000000E-01  8.50000000E-01
  8.50000000E-01  8.50000000E-01  8.50000000E-01  8.50000000E-01  8.50000000E-01
  8.50000000E-01  8.50000000E-01  8.50000000E-01  8.50000000E-01  8.50000000E-01
  8.50000000E-01  8.50000000E-01  8.50000000E-01  8.50000000E-01  8.50000000E-01
  8.50000000E-01  8.50000000E-01  8.50000000E-01  8.50000000E-01  8.50000000E-01
  8.50000000E-01  8.50000000E-01  8.50000000E-01  8.50000000E-01  8.50000000E-01
  8.50000000E-01  8.50000000E-01  8.50000000E-01  8.50000000E-01  8.50000000E-01
  8.50000000E-01  8.50000000E-01  8.50000000E-01  8.50000000E-01  8.50000000E-01
  8.50000000E-01  8.50000000E-01  8.50000000E-01  8.50000000E-01  8.50000000E-01
  8.50000000E-01  8.50000000E-01  8.50000000E-01  8.50000000E-01  8.50000000E-01
  8.50000000E-01  8.50000000E-01  8.50000000E-01  8.50000000E-01  8.50000000E-01
  8.50000000E-01  8.50000000E-01  8.50000000E-01  8.50000000E-01  8.50000000E-01
  8.50000000E-01  8.50000000E-01  8.50000000E-01  8.50000000E-01  8.50000000E-01
  8.50000000E-01  8.50000000E-01  8.50000000E-01  8.50000000E-01  8.50000000E-01
  8.50000000E-01  8.50000000E-01  8.50000000E-01  8.50000000E-01  8.50000000E-01
  8.50000000E-01  8.50000000E-01  8.50000000E-01  8.50000000E-01  8.50000000E-01
  8.50000000E-01  8.50000000E-01  8.50000000E-01  8.50000000E-01  8.50000000E-01
  8.50000000E-01  8.50000000E-01  8.50000000E-01  8.50000000E-01  8.50000000E-01
  8.50000000E-01  8.50000000E-01  8.50000000E-01  8.50000000E-01  8.50000000E-01
  8.50000000E-01  8.50000000E-01  8.50000000E-01  8.50000000E-01  8.50000000E-01
  8.50000000E-01  8.50000000E-01  8.50000000E-01  8.50000000E-01  8.50000000E-01
  8.50000000E-01  8.50000000E-01  8.50000000E-01  8.50000000E-01  8.50000000E-01
  8.50000000E-01  8.50000000E-01  8.50000000E-01  8.50000000E-01  8.50000000E-01
  8.50000000E-01  8.50000000E-01  8.50000000E-01  8.50000000E-01  8.50000000E-01
  8.50000000E-01  8.50000000E-01  8.50000000E-01  8.50000000E-01  8.50000000E-01
  8.50000000E-01  8.50000000E-01  8.50000000E-01  8.50000000E-01  8.50000000E-01
  8.50000000E-01  8.50000000E-01  8.50000000E-01  8.50000000E-01  8.50000000E-01
  8.50000000E-01  8.50000000E-01  8.50000000E-01  8.50000000E-01  8.50000000E-01
  8.50000000E-01  8.50000000E-01  8.50000000E-01  8.50000000E-01  8.50000000E-01
  8.50000000E-01  8.50000000E-01  8.50000000E-01  8.50000000E-01  8.50000000E-01
  8.50000000E-01  8.50000000E-01  8.50000000E-01  8.50000000E-01  8.50000000E-01
  8.50000000E-01  8.50000000E-01  8.50000000E-01  8.50000000E-01  8.50000000E-01
  8.50000000E-01  8.50000000E-01  8.50000000E-01  8.50000000E-01  8.50000000E-01
  8.50000000E-01  8.50000000E-01  8.50000000E-01  8.50000000E-01  8.50000000E-01
  8.50000000E-01  8.50000000E-01  8.50000000E-01  8.50000000E-01  8.50000000E-01
  8.50000000E-01  8.50000000E-01  8.50000000E-01  8.50000000E-01  8.50000000E-01
  8.50000000E-01  8.50000000E-01  8.50000000E-01  8.50000000E-01  8.50000000E-01
  8.50000000E-01  8.50000000E-01  8.50000000E-01  8.50000000E-01  8.50000000E-01
  8.50000000E-01  8.50000000E-01  8.50000000E-01  8.50000000E-01  8.50000000E-01
  8.50000000E-01  8.50000000E-01  8.50000000E-01  8.50000000E-01  8.50000000E-01
  8.50000000E-01  8.50000000E-01  8.50000000E-01  8.50000000E-01  8.50000000E-01
  8.50000000E-01  8.50000000E-01  8.50000000E-01  8.50000000E-01  8.50000000E-01
  8.50000000E-01  8.50000000E-01  8.50000000E-01  8.50000000E-01  8.50000000E-01
  8.50000000E-01  8.50000000E-01  8.50000000E-01  8.50000000E-01  8.50000000E-01
  8.50000000E-01  8.50000000E-01  8.50000000E-01  8.50000000E-01  8.50000000E-01
  8.50000000E-01  8.50000000E-01  8.50000000E-01  8.50000000E-01  8.50000000E-01
  8.50000000E-01  8.50000000E-01  8.50000000E-01  8.50000000E-01  8.50000000E-01
  8.50000000E-01  8.50000000E-01  8.50000000E-01  8.50000000E-01  8.50000000E-01
  8.50000000E-01  8.50000000E-01  8.50000000E-01  8.50000000E-01  8.50000000E-01
  8.50000000E-01  8.50000000E-01  8.50000000E-01  8.50000000E-01  8.50000000E-01
  8.50000000E-01  8.50000000E-01  8.50000000E-01  8.50000000E-01  8.50000000E-01
  8.50000000E-01  8.50000000E-01  8.50000000E-01  8.50000000E-01  8.50000000E-01
  8.50000000E-01  8.50000000E-01  8.50000000E-01  8.50000000E-01  8.50000000E-01
  8.50000000E-01  8.50000000E-01  8.50000000E-01  8.50000000E-01  8.50000000E-01
  8.50000000E-01  8.50000000E-01  8.50000000E-01  8.50000000E-01  8.50000000E-01
  8.50000000E-01  8.50000000E-01  8.50000000E-01  8.50000000E-01  8.50000000E-01
  8.50000000E-01  8.50000000E-01  8.50000000E-01  8.50000000E-01  8.50000000E-01
  8.50000000E-01  8.50000000E-01  8.50000000E-01  8.50000000E-01  8.50000000E-01
  8.50000000E-01  8.50000000E-01  8.50000000E-01  8.50000000E-01  8.50000000E-01
  8.50000000E-01  8.50000000E-01  8.50000000E-01  8.50000000E-01  8.50000000E-01
  8.50000000E-01  8.50000000E-01  8.50000000E-01  8.50000000E-01  8.50000000E-01
  8.50000000E-01  8.50000000E-01  8.50000000E-01  8.50000000E-01  8.50000000E-01
  8.50000000E-01  8.50000000E-01  8.50000000E-01  8.50000000E-01  8.50000000E-01
  8.50000000E-01  8.50000000E-01  8.50000000E-01  8.50000000E-01  8.50000000E-01
  8.50000000E-01  8.50000000E-01  8.50000000E-01  8.50000000E-01  8.50000000E-01
  8.50000000E-01  8.50000000E-01  8.50000000E-01  8.50000000E-01  8.50000000E-01
  8.50000000E-01  8.50000000E-01  8.50000000E-01  8.50000000E-01  8.50000000E-01
  8.50000000E-01  8.50000000E-01  8.50000000E-01  8.50000000E-01  8.50000000E-01
  8.50000000E-01  8.50000000E-01  8.50000000E-01  8.50000000E-01  8.50000000E-01
  8.50000000E-01  8.50000000E-01  8.50000000E-01  8.50000000E-01  8.50000000E-01
  8.50000000E-01  8.50000000E-01  8.50000000E-01  8.50000000E-01  8.50000000E-01
  8.50000000E-01  8.50000000E-01  8.50000000E-01  8.50000000E-01  8.50000000E-01
  8.50000000E-01  8.50000000E-01  8.50000000E-01  8.50000000E-01  8.50000000E-01
  8.50000000E-01  8.50000000E-01  8.50000000E-01  8.50000000E-01  8.50000000E-01
  8.50000000E-01  8.50000000E-01  8.50000000E-01  8.50000000E-01  8.50000000E-01
  8.50000000E-01  8.50000000E-01  8.50000000E-01  8.50000000E-01  8.50000000E-01
  8.50000000E-01  8.50000000E-01  8.50000000E-01  8.50000000E-01  8.50000000E-01
  8.50000000E-01  8.50000000E-01  8.50000000E-01  8.50000000E-01  8.50000000E-01
  8.50000000E-01  8.50000000E-01  8.50000000E-01  8.50000000E-01  8.50000000E-01
  8.50000000E-01  8.50000000E-01  8.50000000E-01  8.50000000E-01  8.50000000E-01
  8.50000000E-01  8.50000000E-01  8.50000000E-01  8.50000000E-01  8.50000000E-01
  8.50000000E-01  8.50000000E-01  8.50000000E-01  8.50000000E-01  8.50000000E-01
  8.50000000E-01  8.50000000E-01  8.50000000E-01  8.50000000E-01  8.50000000E-01
  8.50000000E-01  8.50000000E-01  8.50000000E-01  8.50000000E-01  8.50000000E-01
  8.50000000E-01  8.50000000E-01  8.50000000E-01  8.50000000E-01  8.50000000E-01
  8.50000000E-01  8.50000000E-01  8.50000000E-01  8.50000000E-01  8.50000000E-01
  8.50000000E-01  8.50000000E-01  8.50000000E-01  8.50000000E-01  8.50000000E-01
  8.50000000E-01  8.50000000E-01  8.50000000E-01  8.50000000E-01  8.50000000E-01
  8.50000000E-01  8.50000000E-01  8.50000000E-01  8.50000000E-01  8.50000000E-01
  8.50000000E-01  8.50000000E-01  8.50000000E-01  8.50000000E-01  8.50000000E-01
  8.50000000E-01  8.50000000E-01  8.50000000E-01  8.50000000E-01  8.50000000E-01
  8.50000000E-01  8.50000000E-01  8.50000000E-01  8.50000000E-01  8.50000000E-01
  8.50000000E-01  8.50000000E-01  8.50000000E-01  8.50000000E-01  8.50000000E-01
  8.50000000E-01  8.50000000E-01  8.50000000E-01  8.50000000E-01  8.50000000E-01
  8.50000000E-01  8.50000000E-01  8.50000000E-01  8.50000000E-01  8.50000000E-01
  8.50000000E-01  8.50000000E-01  8.50000000E-01  8.50000000E-01  8.50000000E-01
  8.50000000E-01  8.50000000E-01  8.50000000E-01  8.50000000E-01  8.50000000E-01
  8.50000000E-01  8.50000000E-01  8.50000000E-01  8.50000000E-01  8.50000000E-01
  8.50000000E-01  8.50000000E-01  8.50000000E-01  8.50000000E-01  8.50000000E-01
  8.50000000E-01  8.50000000E-01  8.50000000E-01  8.50000000E-01  8.50000000E-01
  8.50000000E-01  8.50000000E-01  8.50000000E-01  8.50000000E-01  8.50000000E-01
  8.50000000E-01  8.50000000E-01  8.50000000E-01  8.50000000E-01  8.50000000E-01
  8.50000000E-01  8.50000000E-01  8.50000000E-01  8.50000000E-01  8.50000000E-01
  8.50000000E-01  8.50000000E-01  8.50000000E-01  8.50000000E-01  8.50000000E-01
  8.50000000E-01  8.50000000E-01  8.50000000E-01  8.50000000E-01  8.50000000E-01
  8.50000000E-01  8.50000000E-01  8.50000000E-01  8.50000000E-01  8.50000000E-01
  8.50000000E-01  8.50000000E-01  8.50000000E-01  8.50000000E-01  8.50000000E-01
  8.50000000E-01  8.50000000E-01  8.50000000E-01  8.50000000E-01  8.50000000E-01
  8.50000000E-01  8.50000000E-01  8.50000000E-01  8.50000000E-01  8.50000000E-01
  8.50000000E-01  8.50000000E-01  8.50000000E-01  8.50000000E-01  8.50000000E-01
  8.50000000E-01  8.50000000E-01  8.50000000E-01  8.50000000E-01  8.50000000E-01
  8.50000000E-01  8.50000000E-01  8.50000000E-01  8.50000000E-01  8.50000000E-01
  8.50000000E-01  8.50000000E-01  8.50000000E-01  8.50000000E-01  8.50000000E-01
  8.50000000E-01  8.50000000E-01  8.50000000E-01  8.50000000E-01  8.50000000E-01
  8.50000000E-01  8.50000000E-01  8.50000000E-01  8.50000000E-01  8.50000000E-01
  8.50000000E-01  8.50000000E-01  8.50000000E-01  8.50000000E-01  8.50000000E-01
  8.50000000E-01  8.50000000E-01  8.50000000E-01  8.50000000E-01  8.50000000E-01
  8.50000000E-01  8.50000000E-01  8.50000000E-01  8.50000000E-01  8.50000000E-01
  8.50000000E-01  8.50000000E-01  8.50000000E-01  8.50000000E-01  8.50000000E-01
  8.50000000E-01  8.50000000E-01  8.50000000E-01  8.50000000E-01  8.50000000E-01
  8.50000000E-01  8.50000000E-01  8.50000000E-01  8.50000000E-01  8.50000000E-01
  8.50000000E-01  8.50000000E-01  8.50000000E-01  8.50000000E-01  8.50000000E-01
  8.50000000E-01  8.50000000E-01  8.50000000E-01  8.50000000E-01  8.50000000E-01
  8.50000000E-01  8.50000000E-01  8.50000000E-01  8.50000000E-01  8.50000000E-01
  8.50000000E-01  8.50000000E-01  8.50000000E-01  8.50000000E-01  8.50000000E-01
  8.50000000E-01  8.50000000E-01  8.50000000E-01  8.50000000E-01  8.50000000E-01
  8.50000000E-01  8.50000000E-01  8.50000000E-01  8.50000000E-01  8.50000000E-01
  8.50000000E-01  8.50000000E-01  8.50000000E-01  8.50000000E-01  8.50000000E-01
  8.50000000E-01  8.50000000E-01  8.50000000E-01  8.50000000E-01  8.50000000E-01
  8.50000000E-01  8.50000000E-01  8.50000000E-01  8.50000000E-01  8.50000000E-01
  8.50000000E-01  8.50000000E-01  8.50000000E-01  8.50000000E-01  8.50000000E-01
  8.50000000E-01  8.50000000E-01  8.50000000E-01  8.50000000E-01  8.50000000E-01
  8.50000000E-01  8.50000000E-01  8.50000000E-01  8.50000000E-01  8.50000000E-01
  8.50000000E-01  8.50000000E-01  8.50000000E-01  8.50000000E-01  8.50000000E-01
  8.50000000E-01  8.50000000E-01  8.50000000E-01  8.50000000E-01  8.50000000E-01
  8.50000000E-01  8.50000000E-01  8.50000000E-01  8.50000000E-01  8.50000000E-01
  8.50000000E-01  8.50000000E-01  8.50000000E-01  8.50000000E-01  8.50000000E-01
  8.50000000E-01  8.50000000E-01  8.50000000E-01  8.50000000E-01  8.50000000E-01
  8.50000000E-01  8.50000000E-01  8.50000000E-01  8.50000000E-01  8.50000000E-01
  8.50000000E-01  8.50000000E-01  8.50000000E-01  8.50000000E-01  8.50000000E-01
  8.50000000E-01  8.50000000E-01  8.50000000E-01  8.50000000E-01  8.50000000E-01
  8.50000000E-01  8.50000000E-01  8.50000000E-01  8.50000000E-01  8.50000000E-01
  8.50000000E-01  8.50000000E-01  8.50000000E-01  8.50000000E-01  8.50000000E-01
  8.50000000E-01  8.50000000E-01  8.50000000E-01  8.50000000E-01  8.50000000E-01
  8.50000000E-01  8.50000000E-01  8.50000000E-01  8.50000000E-01  8.50000000E-01
  8.50000000E-01  8.50000000E-01  8.50000000E-01  8.50000000E-01  8.50000000E-01
  8.50000000E-01  8.50000000E-01  8.50000000E-01  8.50000000E-01  8.50000000E-01
  8.50000000E-01  8.50000000E-01  8.50000000E-01  8.50000000E-01  8.50000000E-01
  8.50000000E-01  8.50000000E-01  8.50000000E-01  8.50000000E-01  8.50000000E-01
  8.50000000E-01  8.50000000E-01  8.50000000E-01  8.50000000E-01  8.50000000E-01
  8.50000000E-01  8.50000000E-01  8.50000000E-01  8.50000000E-01  8.50000000E-01
  8.50000000E-01  8.50000000E-01  8.50000000E-01  8.50000000E-01  8.50000000E-01
  8.50000000E-01  8.50000000E-01  8.50000000E-01  8.50000000E-01  8.50000000E-01
  8.50000000E-01  8.50000000E-01  8.50000000E-01  8.50000000E-01  8.50000000E-01
  8.50000000E-01  8.50000000E-01  8.50000000E-01  8.50000000E-01  8.50000000E-01
  8.50000000E-01  8.50000000E-01  8.50000000E-01  8.50000000E-01  8.50000000E-01
  8.50000000E-01  8.50000000E-01  8.50000000E-01  8.50000000E-01  8.50000000E-01
  8.50000000E-01  8.50000000E-01  8.50000000E-01  8.50000000E-01  8.50000000E-01
  8.50000000E-01  8.50000000E-01  8.50000000E-01  8.50000000E-01  8.50000000E-01
  8.50000000E-01  8.50000000E-01  8.50000000E-01  8.50000000E-01  8.50000000E-01
  8.50000000E-01  8.50000000E-01  8.50000000E-01  8.50000000E-01  8.50000000E-01
  8.50000000E-01  8.50000000E-01  8.50000000E-01  8.50000000E-01  8.50000000E-01
  8.50000000E-01  8.50000000E-01  8.50000000E-01  8.50000000E-01  8.50000000E-01
  8.50000000E-01  8.50000000E-01  8.50000000E-01  8.50000000E-01  8.50000000E-01
  8.50000000E-01  8.50000000E-01  8.50000000E-01  8.50000000E-01  8.50000000E-01
  8.50000000E-01  8.50000000E-01  8.50000000E-01  8.50000000E-01  8.50000000E-01
  8.50000000E-01  8.50000000E-01  8.50000000E-01  8.50000000E-01  8.50000000E-01
  8.50000000E-01  8.50000000E-01  8.50000000E-01  8.50000000E-01  8.50000000E-01
  8.50000000E-01  8.50000000E-01  8.50000000E-01  8.50000000E-01  8.50000000E-01
  8.50000000E-01  8.50000000E-01  8.50000000E-01  8.50000000E-01  8.50000000E-01
  8.50000000E-01  8.50000000E-01  8.50000000E-01  8.50000000E-01  8.50000000E-01
  8.50000000E-01  8.50000000E-01  8.50000000E-01  8.50000000E-01  8.50000000E-01
  8.50000000E-01  8.50000000E-01  8.50000000E-01  8.50000000E-01  8.50000000E-01
  8.50000000E-01  8.50000000E-01  8.50000000E-01  8.50000000E-01  8.50000000E-01
  8.50000000E-01  8.50000000E-01  8.50000000E-01  8.50000000E-01  8.50000000E-01
  8.50000000E-01  8.50000000E-01  8.50000000E-01  8.50000000E-01  8.50000000E-01
  8.50000000E-01  8.50000000E-01  8.50000000E-01  8.50000000E-01  8.50000000E-01
  8.50000000E-01  8.50000000E-01  8.50000000E-01  8.50000000E-01  8.50000000E-01
  8.50000000E-01  8.50000000E-01  8.50000000E-01  8.50000000E-01  8.50000000E-01
  8.50000000E-01  8.50000000E-01  8.50000000E-01  8.50000000E-01  8.50000000E-01
  8.50000000E-01  8.50000000E-01  8.50000000E-01  8.50000000E-01  8.50000000E-01
  8.50000000E-01  8.50000000E-01  8.50000000E-01  8.50000000E-01  8.50000000E-01
  8.50000000E-01  8.50000000E-01  8.50000000E-01  8.50000000E-01  8.50000000E-01
  8.50000000E-01  8.50000000E-01  8.50000000E-01  8.50000000E-01  8.50000000E-01
  8.50000000E-01  8.50000000E-01  8.50000000E-01  8.50000000E-01  8.50000000E-01
  8.50000000E-01  8.50000000E-01  8.50000000E-01  8.50000000E-01  8.50000000E-01
  8.50000000E-01  8.50000000E-01  8.50000000E-01  8.50000000E-01  8.50000000E-01
  8.50000000E-01  8.50000000E-01  8.50000000E-01  8.50000000E-01  8.50000000E-01
  8.50000000E-01  8.50000000E-01  8.50000000E-01  8.50000000E-01  8.50000000E-01
  8.50000000E-01  8.50000000E-01  8.50000000E-01  8.50000000E-01  8.50000000E-01
  8.50000000E-01  8.50000000E-01  8.50000000E-01  8.50000000E-01  8.50000000E-01
  8.50000000E-01  8.50000000E-01  8.50000000E-01  8.50000000E-01  8.50000000E-01
  8.50000000E-01  8.50000000E-01  8.50000000E-01  8.50000000E-01  8.50000000E-01
  8.50000000E-01  8.50000000E-01  8.50000000E-01  8.50000000E-01  8.50000000E-01
  8.50000000E-01  8.50000000E-01  8.50000000E-01  8.50000000E-01  8.50000000E-01
  8.50000000E-01  8.50000000E-01  8.50000000E-01  8.50000000E-01  8.50000000E-01
  8.50000000E-01  8.50000000E-01  8.50000000E-01  8.50000000E-01  8.50000000E-01
  8.50000000E-01  8.50000000E-01  8.50000000E-01  8.50000000E-01  8.50000000E-01
  8.50000000E-01  8.50000000E-01  8.50000000E-01  8.50000000E-01  8.50000000E-01
  8.50000000E-01  8.50000000E-01  8.50000000E-01  8.50000000E-01  8.50000000E-01
  8.50000000E-01  8.50000000E-01  8.50000000E-01  8.50000000E-01  8.50000000E-01
  8.50000000E-01  8.50000000E-01  8.50000000E-01  8.50000000E-01  8.50000000E-01
  8.50000000E-01  8.50000000E-01  8.50000000E-01  8.50000000E-01  8.50000000E-01
  8.50000000E-01  8.50000000E-01  8.50000000E-01  8.50000000E-01  8.50000000E-01
  8.50000000E-01  8.50000000E-01  8.50000000E-01  8.50000000E-01  8.50000000E-01
  8.50000000E-01  8.50000000E-01  8.50000000E-01  8.50000000E-01  8.50000000E-01
  8.50000000E-01  8.50000000E-01  8.50000000E-01  8.50000000E-01  8.50000000E-01
  8.50000000E-01  8.50000000E-01  8.50000000E-01  8.50000000E-01  8.50000000E-01
  8.50000000E-01  8.50000000E-01  8.50000000E-01  8.50000000E-01  8.50000000E-01
  8.50000000E-01  8.50000000E-01  8.50000000E-01  8.50000000E-01  8.50000000E-01
  8.50000000E-01  8.50000000E-01  8.50000000E-01  8.50000000E-01  8.50000000E-01
  8.50000000E-01  8.50000000E-01  8.50000000E-01  8.50000000E-01  8.50000000E-01
  8.50000000E-01  8.50000000E-01  8.50000000E-01  8.50000000E-01  8.50000000E-01
  8.50000000E-01  8.50000000E-01  8.50000000E-01  8.50000000E-01  8.50000000E-01
  8.50000000E-01  8.50000000E-01  8.50000000E-01  8.50000000E-01  8.50000000E-01
  8.50000000E-01  8.50000000E-01  8.50000000E-01  8.50000000E-01  8.50000000E-01
  8.50000000E-01  8.50000000E-01  8.50000000E-01  8.50000000E-01  8.50000000E-01
  8.50000000E-01  8.50000000E-01  8.50000000E-01  8.50000000E-01  8.50000000E-01
  8.50000000E-01  8.50000000E-01  8.50000000E-01  8.50000000E-01  8.50000000E-01
  8.50000000E-01  8.50000000E-01  8.50000000E-01  8.50000000E-01  8.50000000E-01
  8.50000000E-01  8.50000000E-01  8.50000000E-01  8.50000000E-01  8.50000000E-01
  8.50000000E-01  8.50000000E-01  8.50000000E-01  8.50000000E-01  8.50000000E-01
  8.50000000E-01  8.50000000E-01  8.50000000E-01  8.50000000E-01  8.50000000E-01
  8.50000000E-01  8.50000000E-01  8.50000000E-01  8.50000000E-01  8.50000000E-01
  8.50000000E-01  8.50000000E-01  8.50000000E-01  8.50000000E-01  8.50000000E-01
  8.50000000E-01  8.50000000E-01  8.50000000E-01  8.50000000E-01  8.50000000E-01
  8.50000000E-01  8.50000000E-01  8.50000000E-01  8.50000000E-01  8.50000000E-01
  8.50000000E-01  8.50000000E-01  8.50000000E-01  8.50000000E-01  8.50000000E-01
  8.50000000E-01  8.50000000E-01  8.50000000E-01  8.50000000E-01  8.50000000E-01
  8.50000000E-01  8.50000000E-01  8.50000000E-01  8.50000000E-01  8.50000000E-01
  8.50000000E-01  8.50000000E-01  8.50000000E-01  8.50000000E-01  8.50000000E-01
  8.50000000E-01  8.50000000E-01  8.50000000E-01  8.50000000E-01  8.50000000E-01
  8.50000000E-01  8.50000000E-01  8.50000000E-01  8.50000000E-01  8.50000000E-01
  8.50000000E-01  8.50000000E-01  8.50000000E-01  8.50000000E-01  8.50000000E-01
  8.50000000E-01  8.50000000E-01  8.50000000E-01  8.50000000E-01  8.50000000E-01
  8.50000000E-01  8.50000000E-01  8.50000000E-01  8.50000000E-01  8.50000000E-01
  8.50000000E-01  8.50000000E-01  8.50000000E-01  8.50000000E-01  8.50000000E-01
  8.50000000E-01  8.50000000E-01  8.50000000E-01  8.50000000E-01  8.50000000E-01
  8.50000000E-01  8.50000000E-01  8.50000000E-01  8.50000000E-01  8.50000000E-01
  8.50000000E-01  8.50000000E-01  8.50000000E-01  8.50000000E-01  8.50000000E-01
  8.50000000E-01  8.50000000E-01  8.50000000E-01  8.50000000E-01  8.50000000E-01
  8.50000000E-01  8.50000000E-01  8.50000000E-01  8.50000000E-01  8.50000000E-01
  8.50000000E-01  8.50000000E-01  8.50000000E-01  8.50000000E-01  8.50000000E-01
  8.50000000E-01  8.50000000E-01  8.50000000E-01  8.50000000E-01  8.50000000E-01
  8.50000000E-01  8.50000000E-01  8.50000000E-01  8.50000000E-01  8.50000000E-01
  8.50000000E-01  8.50000000E-01  8.50000000E-01  8.50000000E-01  8.50000000E-01
  8.50000000E-01  8.50000000E-01  8.50000000E-01  8.50000000E-01  8.50000000E-01
  8.50000000E-01  8.50000000E-01  8.50000000E-01  8.50000000E-01  8.50000000E-01
  8.50000000E-01  8.50000000E-01  8.50000000E-01  8.50000000E-01  8.50000000E-01
  8.50000000E-01  8.50000000E-01  8.50000000E-01  8.50000000E-01  8.50000000E-01
  8.50000000E-01  8.50000000E-01  8.50000000E-01  8.50000000E-01  8.50000000E-01
  8.50000000E-01  8.50000000E-01  8.50000000E-01  8.50000000E-01  8.50000000E-01
  8.50000000E-01  8.50000000E-01  8.50000000E-01  8.50000000E-01  8.50000000E-01
  8.50000000E-01  8.50000000E-01  8.50000000E-01  8.50000000E-01  8.50000000E-01
  8.50000000E-01  8.50000000E-01  8.50000000E-01  8.50000000E-01  8.50000000E-01
  8.50000000E-01  8.50000000E-01  8.50000000E-01  8.50000000E-01  8.50000000E-01
  8.50000000E-01  8.50000000E-01  8.50000000E-01  8.50000000E-01  8.50000000E-01
  8.50000000E-01  8.50000000E-01  8.50000000E-01  8.50000000E-01  8.50000000E-01
  8.50000000E-01  8.50000000E-01  8.50000000E-01  8.50000000E-01  8.50000000E-01
  8.50000000E-01  8.50000000E-01  8.50000000E-01  8.50000000E-01  8.50000000E-01
  8.50000000E-01  8.50000000E-01  8.50000000E-01  8.50000000E-01  8.50000000E-01
  8.50000000E-01  8.50000000E-01  8.50000000E-01  8.50000000E-01  8.50000000E-01
  8.50000000E-01  8.50000000E-01  8.50000000E-01  8.50000000E-01  8.50000000E-01
  8.50000000E-01  8.50000000E-01  8.50000000E-01  8.50000000E-01  8.50000000E-01
  8.50000000E-01  8.50000000E-01  8.50000000E-01  8.50000000E-01  8.50000000E-01
  8.50000000E-01  8.50000000E-01  8.50000000E-01  8.50000000E-01  8.50000000E-01
  8.50000000E-01  8.50000000E-01  8.50000000E-01  8.50000000E-01  8.50000000E-01
  8.50000000E-01  8.50000000E-01  8.50000000E-01  8.50000000E-01  8.50000000E-01
  8.50000000E-01  8.50000000E-01  8.50000000E-01  8.50000000E-01  8.50000000E-01
  8.50000000E-01  8.50000000E-01  8.50000000E-01  8.50000000E-01  8.50000000E-01
  8.50000000E-01  8.50000000E-01  8.50000000E-01  8.50000000E-01  8.50000000E-01
  8.50000000E-01  8.50000000E-01  8.50000000E-01  8.50000000E-01  8.50000000E-01
  8.50000000E-01  8.50000000E-01  8.50000000E-01  8.50000000E-01  8.50000000E-01
  8.50000000E-01  8.50000000E-01  8.50000000E-01  8.50000000E-01  8.50000000E-01
  8.50000000E-01  8.50000000E-01  8.50000000E-01  8.50000000E-01  8.50000000E-01
  8.50000000E-01  8.50000000E-01  8.50000000E-01  8.50000000E-01  8.50000000E-01
  8.50000000E-01  8.50000000E-01  8.50000000E-01  8.50000000E-01  8.50000000E-01
  8.50000000E-01  8.50000000E-01  8.50000000E-01  8.50000000E-01  8.50000000E-01
  8.50000000E-01  8.50000000E-01  8.50000000E-01  8.50000000E-01  8.50000000E-01
  8.50000000E-01  8.50000000E-01  8.50000000E-01  8.50000000E-01  8.50000000E-01
  8.50000000E-01  8.50000000E-01  8.50000000E-01  8.50000000E-01  8.50000000E-01
  8.50000000E-01  8.50000000E-01  8.50000000E-01  8.50000000E-01  8.50000000E-01
  8.50000000E-01  8.50000000E-01  8.50000000E-01  8.50000000E-01  8.50000000E-01
  8.50000000E-01  8.50000000E-01  8.50000000E-01  8.50000000E-01  8.50000000E-01
  8.50000000E-01  8.50000000E-01  8.50000000E-01  8.50000000E-01  8.50000000E-01
  8.50000000E-01  8.50000000E-01  8.50000000E-01  8.50000000E-01  8.50000000E-01
  8.50000000E-01  8.50000000E-01  8.50000000E-01  8.50000000E-01  8.50000000E-01
  8.50000000E-01  8.50000000E-01  8.50000000E-01  8.50000000E-01  8.50000000E-01
  8.50000000E-01  8.50000000E-01  8.50000000E-01  8.50000000E-01  8.50000000E-01
  8.50000000E-01  8.50000000E-01  8.50000000E-01  8.50000000E-01  8.50000000E-01
  8.50000000E-01  8.50000000E-01  8.50000000E-01  8.50000000E-01  8.50000000E-01
  8.50000000E-01  8.50000000E-01  8.50000000E-01  8.50000000E-01  8.50000000E-01
  8.50000000E-01  8.50000000E-01  8.50000000E-01  8.50000000E-01  8.50000000E-01
  8.50000000E-01  8.50000000E-01  8.50000000E-01  8.50000000E-01  8.50000000E-01
  8.50000000E-01  8.50000000E-01  8.50000000E-01  8.50000000E-01  8.50000000E-01
  8.50000000E-01  8.50000000E-01  8.50000000E-01  8.50000000E-01  8.50000000E-01
  8.50000000E-01  8.50000000E-01  8.50000000E-01  8.50000000E-01  8.50000000E-01
  8.50000000E-01  8.50000000E-01  8.50000000E-01  8.50000000E-01  8.50000000E-01
  8.50000000E-01  8.50000000E-01  8.50000000E-01  8.50000000E-01  8.50000000E-01
  8.50000000E-01  8.50000000E-01  8.50000000E-01  8.50000000E-01  8.50000000E-01
  8.50000000E-01  8.50000000E-01  8.50000000E-01  8.50000000E-01  8.50000000E-01
  8.50000000E-01  8.50000000E-01  8.50000000E-01  8.50000000E-01  8.50000000E-01
  8.50000000E-01  8.50000000E-01  8.50000000E-01  8.50000000E-01  8.50000000E-01
  8.50000000E-01  8.50000000E-01  8.50000000E-01  8.50000000E-01  8.50000000E-01
  8.50000000E-01  8.50000000E-01  8.50000000E-01  8.50000000E-01  8.50000000E-01
  8.50000000E-01  8.50000000E-01  8.50000000E-01  8.50000000E-01  8.50000000E-01
  8.50000000E-01  8.50000000E-01  8.50000000E-01  8.50000000E-01  8.50000000E-01
  8.50000000E-01  8.50000000E-01  8.50000000E-01  8.50000000E-01  8.50000000E-01
  8.50000000E-01  8.50000000E-01  8.50000000E-01  8.50000000E-01  8.50000000E-01
  8.50000000E-01  8.50000000E-01  8.50000000E-01  8.50000000E-01  8.50000000E-01
  8.50000000E-01  8.50000000E-01  8.50000000E-01  8.50000000E-01  8.50000000E-01
  8.50000000E-01  8.50000000E-01  8.50000000E-01  8.50000000E-01  8.50000000E-01
  8.50000000E-01  8.50000000E-01  8.50000000E-01  8.50000000E-01  8.50000000E-01
  8.50000000E-01  8.50000000E-01  8.50000000E-01  8.50000000E-01  8.50000000E-01
  8.50000000E-01  8.50000000E-01  8.50000000E-01  8.50000000E-01  8.50000000E-01
  8.50000000E-01  8.50000000E-01  8.50000000E-01  8.50000000E-01  8.50000000E-01
  8.50000000E-01  8.50000000E-01  8.50000000E-01  8.50000000E-01  8.50000000E-01
  8.50000000E-01  8.50000000E-01  8.50000000E-01  8.50000000E-01  8.50000000E-01
  8.50000000E-01  8.50000000E-01  8.50000000E-01  8.50000000E-01  8.50000000E-01
  8.50000000E-01  8.50000000E-01  8.50000000E-01  8.50000000E-01  8.50000000E-01
  8.50000000E-01  8.50000000E-01  8.50000000E-01  8.50000000E-01  8.50000000E-01
  8.50000000E-01  8.50000000E-01  8.50000000E-01  8.50000000E-01  8.50000000E-01
  8.50000000E-01  8.50000000E-01  8.50000000E-01  8.50000000E-01  8.50000000E-01
  8.50000000E-01  8.50000000E-01  8.50000000E-01  8.50000000E-01  8.50000000E-01
  8.50000000E-01  8.50000000E-01  8.50000000E-01  8.50000000E-01  8.50000000E-01
  8.50000000E-01  8.50000000E-01  8.50000000E-01  8.50000000E-01  8.50000000E-01
  8.50000000E-01  8.50000000E-01  8.50000000E-01  8.50000000E-01  8.50000000E-01
  8.50000000E-01  8.50000000E-01  8.50000000E-01  8.50000000E-01  8.50000000E-01
  8.50000000E-01  8.50000000E-01  8.50000000E-01  8.50000000E-01  8.50000000E-01
  8.50000000E-01  8.50000000E-01  8.50000000E-01  8.50000000E-01  8.50000000E-01
  8.50000000E-01  8.50000000E-01  8.50000000E-01  8.50000000E-01  8.50000000E-01
  8.50000000E-01  8.50000000E-01  8.50000000E-01  8.50000000E-01  8.50000000E-01
  8.50000000E-01  8.50000000E-01  8.50000000E-01  8.50000000E-01  8.50000000E-01
  8.50000000E-01  8.50000000E-01  8.50000000E-01  8.50000000E-01  8.50000000E-01
  8.50000000E-01  8.50000000E-01  8.50000000E-01  8.50000000E-01  8.50000000E-01
  8.50000000E-01  8.50000000E-01  8.50000000E-01  8.50000000E-01  8.50000000E-01
  8.50000000E-01  8.50000000E-01  8.50000000E-01  8.50000000E-01  8.50000000E-01
  8.50000000E-01  8.50000000E-01  8.50000000E-01  8.50000000E-01  8.50000000E-01
  8.50000000E-01  8.50000000E-01  8.50000000E-01  8.50000000E-01  8.50000000E-01
  8.50000000E-01  8.50000000E-01  8.50000000E-01  8.50000000E-01  8.50000000E-01
  8.50000000E-01  8.50000000E-01  8.50000000E-01  8.50000000E-01  8.50000000E-01
  8.50000000E-01  8.50000000E-01  8.50000000E-01  8.50000000E-01  8.50000000E-01
  8.50000000E-01  8.50000000E-01  8.50000000E-01  8.50000000E-01  8.50000000E-01
  8.50000000E-01  8.50000000E-01  8.50000000E-01  8.50000000E-01  8.50000000E-01
  8.50000000E-01  8.50000000E-01  8.50000000E-01  8.50000000E-01  8.50000000E-01
  8.50000000E-01  8.50000000E-01  8.50000000E-01  8.50000000E-01  8.50000000E-01
  8.50000000E-01  8.50000000E-01  8.50000000E-01  8.50000000E-01  8.50000000E-01
  8.50000000E-01  8.50000000E-01  8.50000000E-01  8.50000000E-01  8.50000000E-01
  8.50000000E-01  8.50000000E-01  8.50000000E-01  8.50000000E-01  8.50000000E-01
  8.50000000E-01  8.50000000E-01  8.50000000E-01  8.50000000E-01  8.50000000E-01
  8.50000000E-01  8.50000000E-01  8.50000000E-01  8.50000000E-01  8.50000000E-01
  8.50000000E-01  8.50000000E-01  8.50000000E-01  8.50000000E-01  8.50000000E-01
  8.50000000E-01  8.50000000E-01  8.50000000E-01  8.50000000E-01  8.50000000E-01
  8.50000000E-01  8.50000000E-01  8.50000000E-01  8.50000000E-01  8.50000000E-01
  8.50000000E-01  8.50000000E-01  8.50000000E-01  8.50000000E-01  8.50000000E-01
  8.50000000E-01  8.50000000E-01  8.50000000E-01  8.50000000E-01  8.50000000E-01
  8.50000000E-01  8.50000000E-01  8.50000000E-01  8.50000000E-01  8.50000000E-01
  8.50000000E-01  8.50000000E-01  8.50000000E-01  8.50000000E-01  8.50000000E-01
  8.50000000E-01  8.50000000E-01  8.50000000E-01  8.50000000E-01  8.50000000E-01
  8.50000000E-01  8.50000000E-01  8.50000000E-01  8.50000000E-01  8.50000000E-01
  8.50000000E-01  8.50000000E-01  8.50000000E-01  8.50000000E-01  8.50000000E-01
  8.50000000E-01  8.50000000E-01  8.50000000E-01  8.50000000E-01  8.50000000E-01
  8.50000000E-01  8.50000000E-01  8.50000000E-01  8.50000000E-01  8.50000000E-01
  8.50000000E-01  8.50000000E-01  8.50000000E-01  8.50000000E-01  8.50000000E-01
  8.50000000E-01  8.50000000E-01  8.50000000E-01  8.50000000E-01  8.50000000E-01
  8.50000000E-01  8.50000000E-01  8.50000000E-01  8.50000000E-01  8.50000000E-01
  8.50000000E-01  8.50000000E-01  8.50000000E-01  8.50000000E-01  8.50000000E-01
  8.50000000E-01  8.50000000E-01  8.50000000E-01  8.50000000E-01  8.50000000E-01
  8.50000000E-01  8.50000000E-01  8.50000000E-01  8.50000000E-01  8.50000000E-01
  8.50000000E-01  8.50000000E-01  8.50000000E-01  8.50000000E-01  8.50000000E-01
  8.50000000E-01  8.50000000E-01  8.50000000E-01  8.50000000E-01  8.50000000E-01
  8.50000000E-01  8.50000000E-01  8.50000000E-01  8.50000000E-01  8.50000000E-01
  8.50000000E-01  8.50000000E-01  8.50000000E-01  8.50000000E-01  8.50000000E-01
  8.50000000E-01  8.50000000E-01  8.50000000E-01  8.50000000E-01  8.50000000E-01
  8.50000000E-01  8.50000000E-01  8.50000000E-01  8.50000000E-01  8.50000000E-01
  8.50000000E-01  8.50000000E-01  8.50000000E-01  8.50000000E-01  8.50000000E-01
  8.50000000E-01  8.50000000E-01  8.50000000E-01  8.50000000E-01  8.50000000E-01
  8.50000000E-01  8.50000000E-01  8.50000000E-01  8.50000000E-01  8.50000000E-01
  8.50000000E-01  8.50000000E-01  8.50000000E-01  8.50000000E-01  8.50000000E-01
  8.50000000E-01  8.50000000E-01  8.50000000E-01  8.50000000E-01  8.50000000E-01
  8.50000000E-01  8.50000000E-01  8.50000000E-01  8.50000000E-01  8.50000000E-01
  8.50000000E-01  8.50000000E-01  8.50000000E-01  8.50000000E-01  8.50000000E-01
  8.50000000E-01  8.50000000E-01  8.50000000E-01  8.50000000E-01  8.50000000E-01
  8.50000000E-01  8.50000000E-01  8.50000000E-01  8.50000000E-01  8.50000000E-01
  8.50000000E-01  8.50000000E-01  8.50000000E-01  8.50000000E-01  8.50000000E-01
  8.50000000E-01  8.50000000E-01  8.50000000E-01  8.50000000E-01  8.50000000E-01
  8.50000000E-01  8.50000000E-01  8.50000000E-01  8.50000000E-01  8.50000000E-01
  8.50000000E-01  8.50000000E-01  8.50000000E-01  8.50000000E-01  8.50000000E-01
  8.50000000E-01  8.50000000E-01  8.50000000E-01  8.50000000E-01  8.50000000E-01
  8.50000000E-01  8.50000000E-01  8.50000000E-01  8.50000000E-01  8.50000000E-01
  8.50000000E-01  8.50000000E-01  8.50000000E-01  8.50000000E-01  8.50000000E-01
  8.50000000E-01  8.50000000E-01  8.50000000E-01  8.50000000E-01  8.50000000E-01
  8.50000000E-01  8.50000000E-01  8.50000000E-01  8.50000000E-01  8.50000000E-01
  8.50000000E-01  8.50000000E-01  8.50000000E-01  8.50000000E-01  8.50000000E-01
  8.50000000E-01  8.50000000E-01  8.50000000E-01  8.50000000E-01  8.50000000E-01
  8.50000000E-01  8.50000000E-01  8.50000000E-01  8.50000000E-01  8.50000000E-01
  8.50000000E-01  8.50000000E-01  8.50000000E-01  8.50000000E-01  8.50000000E-01
  8.50000000E-01  8.50000000E-01  8.50000000E-01  8.50000000E-01  8.50000000E-01
  8.50000000E-01  8.50000000E-01  8.50000000E-01  8.50000000E-01  8.50000000E-01
  8.50000000E-01  8.50000000E-01  8.50000000E-01  8.50000000E-01  8.50000000E-01
  8.50000000E-01  8.50000000E-01  8.50000000E-01  8.50000000E-01  8.50000000E-01
  8.50000000E-01  8.50000000E-01  8.50000000E-01  8.50000000E-01  8.50000000E-01
  8.50000000E-01  8.50000000E-01  8.50000000E-01  8.50000000E-01  8.50000000E-01
  8.50000000E-01  8.50000000E-01  8.50000000E-01  8.50000000E-01  8.50000000E-01
  8.50000000E-01  8.50000000E-01  8.50000000E-01  8.50000000E-01  8.50000000E-01
  8.50000000E-01  8.50000000E-01  8.50000000E-01  8.50000000E-01  8.50000000E-01
  8.50000000E-01  8.50000000E-01  8.50000000E-01  8.50000000E-01  8.50000000E-01
  8.50000000E-01  8.50000000E-01  8.50000000E-01  8.50000000E-01  8.50000000E-01
  8.50000000E-01  8.50000000E-01  8.50000000E-01  8.50000000E-01  8.50000000E-01
  8.50000000E-01  8.50000000E-01  8.50000000E-01  8.50000000E-01  8.50000000E-01
  8.50000000E-01  8.50000000E-01  8.50000000E-01  8.50000000E-01  8.50000000E-01
  8.50000000E-01  8.50000000E-01  8.50000000E-01  8.50000000E-01  8.50000000E-01
  8.50000000E-01  8.50000000E-01  8.50000000E-01  8.50000000E-01  8.50000000E-01
  8.50000000E-01  8.50000000E-01  8.50000000E-01  8.50000000E-01  8.50000000E-01
  8.50000000E-01  8.50000000E-01  8.50000000E-01  8.50000000E-01  8.50000000E-01
  8.50000000E-01  8.50000000E-01  8.50000000E-01  8.50000000E-01  8.50000000E-01
  8.50000000E-01  8.50000000E-01  8.50000000E-01  8.50000000E-01  8.50000000E-01
  8.50000000E-01  8.50000000E-01  8.50000000E-01  8.50000000E-01  8.50000000E-01
  8.50000000E-01  8.50000000E-01  8.50000000E-01  8.50000000E-01  8.50000000E-01
  8.50000000E-01  8.50000000E-01  8.50000000E-01  8.50000000E-01  8.50000000E-01
  8.50000000E-01  8.50000000E-01  8.50000000E-01  8.50000000E-01  8.50000000E-01
  8.50000000E-01  8.50000000E-01  8.50000000E-01  8.50000000E-01  8.50000000E-01
  8.50000000E-01  8.50000000E-01  8.50000000E-01  8.50000000E-01  8.50000000E-01
  8.50000000E-01  8.50000000E-01  8.50000000E-01  8.50000000E-01  8.50000000E-01
  8.50000000E-01  8.50000000E-01  8.50000000E-01  8.50000000E-01  8.50000000E-01
  8.50000000E-01  8.50000000E-01  8.50000000E-01  8.50000000E-01  8.50000000E-01
  8.50000000E-01  8.50000000E-01  8.50000000E-01  8.50000000E-01  8.50000000E-01
  8.50000000E-01  8.50000000E-01  8.50000000E-01  8.50000000E-01  8.50000000E-01
  8.50000000E-01  8.50000000E-01  8.50000000E-01  8.50000000E-01  8.50000000E-01
  8.50000000E-01  8.50000000E-01  8.50000000E-01  8.50000000E-01  8.50000000E-01
  8.50000000E-01  8.50000000E-01  8.50000000E-01  8.50000000E-01  8.50000000E-01
  8.50000000E-01  8.50000000E-01  8.50000000E-01  8.50000000E-01  8.50000000E-01
  8.50000000E-01  8.50000000E-01  8.50000000E-01  8.50000000E-01  8.50000000E-01
  8.50000000E-01  8.50000000E-01  8.50000000E-01  8.50000000E-01  8.50000000E-01
  8.50000000E-01  8.50000000E-01  8.50000000E-01  8.50000000E-01  8.50000000E-01
  8.50000000E-01  8.50000000E-01  8.50000000E-01  8.50000000E-01  8.50000000E-01
  8.50000000E-01  8.50000000E-01  8.50000000E-01  8.50000000E-01  8.50000000E-01
  8.50000000E-01  8.50000000E-01  8.50000000E-01  8.50000000E-01  8.50000000E-01
  8.50000000E-01  8.50000000E-01  8.50000000E-01  8.50000000E-01  8.50000000E-01
  8.50000000E-01  8.50000000E-01  8.50000000E-01  8.50000000E-01  8.50000000E-01
  8.50000000E-01  8.50000000E-01  8.50000000E-01  8.50000000E-01  8.50000000E-01
  8.50000000E-01  8.50000000E-01  8.50000000E-01  8.50000000E-01  8.50000000E-01
  8.50000000E-01  8.50000000E-01  8.50000000E-01  8.50000000E-01  8.50000000E-01
  8.50000000E-01  8.50000000E-01  8.50000000E-01  8.50000000E-01  8.50000000E-01
  8.50000000E-01  8.50000000E-01  8.50000000E-01  8.50000000E-01  8.50000000E-01
  8.50000000E-01  8.50000000E-01  8.50000000E-01  8.50000000E-01  8.50000000E-01
  8.50000000E-01  8.50000000E-01  8.50000000E-01  8.50000000E-01  8.50000000E-01
  8.50000000E-01  8.50000000E-01  8.50000000E-01  8.50000000E-01  8.50000000E-01
  8.50000000E-01  8.50000000E-01  8.50000000E-01  8.50000000E-01  8.50000000E-01
  8.50000000E-01  8.50000000E-01  8.50000000E-01  8.50000000E-01  8.50000000E-01
  8.50000000E-01  8.50000000E-01  8.50000000E-01  8.50000000E-01  8.50000000E-01
  8.50000000E-01  8.50000000E-01  8.50000000E-01  8.50000000E-01  8.50000000E-01
  8.50000000E-01  8.50000000E-01  8.50000000E-01  8.50000000E-01  8.50000000E-01
  8.50000000E-01  8.50000000E-01  8.50000000E-01  8.50000000E-01  8.50000000E-01
  8.50000000E-01  8.50000000E-01  8.50000000E-01  8.50000000E-01  8.50000000E-01
  8.50000000E-01  8.50000000E-01  8.50000000E-01  8.50000000E-01  8.50000000E-01
  8.50000000E-01  8.50000000E-01  8.50000000E-01  8.50000000E-01  8.50000000E-01
  8.50000000E-01  8.50000000E-01  8.50000000E-01  8.50000000E-01  8.50000000E-01
  8.50000000E-01  8.50000000E-01  8.50000000E-01  8.50000000E-01  8.50000000E-01
  8.50000000E-01  8.50000000E-01  8.50000000E-01  8.50000000E-01  8.50000000E-01
  8.50000000E-01  8.50000000E-01  8.50000000E-01  8.50000000E-01  8.50000000E-01
  8.50000000E-01  8.50000000E-01  8.50000000E-01  8.50000000E-01  8.50000000E-01
  8.50000000E-01  8.50000000E-01  8.50000000E-01  8.50000000E-01  8.50000000E-01
  8.50000000E-01  8.50000000E-01  8.50000000E-01  8.50000000E-01  8.50000000E-01
  8.50000000E-01  8.50000000E-01  8.50000000E-01  8.50000000E-01  8.50000000E-01
  8.50000000E-01  8.50000000E-01  8.50000000E-01  8.50000000E-01  8.50000000E-01
  8.50000000E-01  8.50000000E-01  8.50000000E-01  8.50000000E-01  8.50000000E-01
  8.50000000E-01  8.50000000E-01  8.50000000E-01  8.50000000E-01  8.50000000E-01
  8.50000000E-01  8.50000000E-01  8.50000000E-01  8.50000000E-01  8.50000000E-01
  8.50000000E-01  8.50000000E-01  8.50000000E-01  8.50000000E-01  8.50000000E-01
  8.50000000E-01  8.50000000E-01  8.50000000E-01  8.50000000E-01  8.50000000E-01
  8.50000000E-01  8.50000000E-01  8.50000000E-01  8.50000000E-01  8.50000000E-01
  8.50000000E-01  8.50000000E-01  8.50000000E-01  8.50000000E-01  8.50000000E-01
  8.50000000E-01  8.50000000E-01  8.50000000E-01  8.50000000E-01  8.50000000E-01
  8.50000000E-01  8.50000000E-01  8.50000000E-01  8.50000000E-01  8.50000000E-01
  8.50000000E-01  8.50000000E-01  8.50000000E-01  8.50000000E-01  8.50000000E-01
  8.50000000E-01  8.50000000E-01  8.50000000E-01  8.50000000E-01  8.50000000E-01
  8.50000000E-01  8.50000000E-01  8.50000000E-01  8.50000000E-01  8.50000000E-01
  8.50000000E-01  8.50000000E-01  8.50000000E-01  8.50000000E-01  8.50000000E-01
  8.50000000E-01  8.50000000E-01  8.50000000E-01  8.50000000E-01  8.50000000E-01
  8.50000000E-01  8.50000000E-01  8.50000000E-01  8.50000000E-01  8.50000000E-01
  8.50000000E-01  8.50000000E-01  8.50000000E-01  8.50000000E-01  8.50000000E-01
  8.50000000E-01  8.50000000E-01  8.50000000E-01  8.50000000E-01  8.50000000E-01
  8.50000000E-01  8.50000000E-01  8.50000000E-01  8.50000000E-01  8.50000000E-01
  8.50000000E-01  8.50000000E-01  8.50000000E-01  8.50000000E-01  8.50000000E-01
  8.50000000E-01  8.50000000E-01  8.50000000E-01  8.50000000E-01  8.50000000E-01
  8.50000000E-01  8.50000000E-01  8.50000000E-01  8.50000000E-01  8.50000000E-01
  8.50000000E-01  8.50000000E-01  8.50000000E-01  8.50000000E-01  8.50000000E-01
  8.50000000E-01  8.50000000E-01  8.50000000E-01  8.50000000E-01  8.50000000E-01
  8.50000000E-01  8.50000000E-01  8.50000000E-01  8.50000000E-01  8.50000000E-01
  8.50000000E-01  8.50000000E-01  8.50000000E-01  8.50000000E-01  8.50000000E-01
  8.50000000E-01  8.50000000E-01  8.50000000E-01  8.50000000E-01  8.50000000E-01
  8.50000000E-01  8.50000000E-01  8.50000000E-01  8.50000000E-01  8.50000000E-01
  8.50000000E-01  8.50000000E-01  8.50000000E-01  8.50000000E-01  8.50000000E-01
  8.50000000E-01  8.50000000E-01  8.50000000E-01  8.50000000E-01  8.50000000E-01
  8.50000000E-01  8.50000000E-01  8.50000000E-01  8.50000000E-01  8.50000000E-01
  8.50000000E-01  8.50000000E-01  8.50000000E-01  8.50000000E-01  8.50000000E-01
  8.50000000E-01  8.50000000E-01  8.50000000E-01  8.50000000E-01  8.50000000E-01
  8.50000000E-01  8.50000000E-01  8.50000000E-01  8.50000000E-01  8.50000000E-01
  8.50000000E-01  8.50000000E-01  8.50000000E-01  8.50000000E-01  8.50000000E-01
  8.50000000E-01  8.50000000E-01  8.50000000E-01  8.50000000E-01  8.50000000E-01
  8.50000000E-01  8.50000000E-01  8.50000000E-01  8.50000000E-01  8.50000000E-01
  8.50000000E-01  8.50000000E-01  8.50000000E-01  8.50000000E-01  8.50000000E-01
  8.50000000E-01  8.50000000E-01  8.50000000E-01  8.50000000E-01  8.50000000E-01
  8.50000000E-01  8.50000000E-01  8.50000000E-01  8.50000000E-01  8.50000000E-01
  8.50000000E-01  8.50000000E-01  8.50000000E-01  8.50000000E-01  8.50000000E-01
  8.50000000E-01  8.50000000E-01  8.50000000E-01  8.50000000E-01  8.50000000E-01
  8.50000000E-01  8.50000000E-01  8.50000000E-01  8.50000000E-01  8.50000000E-01
  8.50000000E-01  8.50000000E-01  8.50000000E-01  8.50000000E-01  8.50000000E-01
  8.50000000E-01  8.50000000E-01  8.50000000E-01  8.50000000E-01  8.50000000E-01
  8.50000000E-01  8.50000000E-01  8.50000000E-01  8.50000000E-01  8.50000000E-01
  8.50000000E-01  8.50000000E-01  8.50000000E-01  8.50000000E-01  8.50000000E-01
  8.50000000E-01  8.50000000E-01  8.50000000E-01  8.50000000E-01  8.50000000E-01
  8.50000000E-01  8.50000000E-01  8.50000000E-01  8.50000000E-01  8.50000000E-01
  8.50000000E-01  8.50000000E-01  8.50000000E-01  8.50000000E-01  8.50000000E-01
  8.50000000E-01  8.50000000E-01  8.50000000E-01  8.50000000E-01  8.50000000E-01
  8.50000000E-01  8.50000000E-01  8.50000000E-01  8.50000000E-01  8.50000000E-01
  8.50000000E-01  8.50000000E-01  8.50000000E-01  8.50000000E-01  8.50000000E-01
  8.50000000E-01  8.50000000E-01  8.50000000E-01  8.50000000E-01  8.50000000E-01
  8.50000000E-01  8.50000000E-01  8.50000000E-01  8.50000000E-01  8.50000000E-01
  8.50000000E-01  8.50000000E-01  8.50000000E-01  8.50000000E-01  8.50000000E-01
  8.50000000E-01  8.50000000E-01  8.50000000E-01  8.50000000E-01  8.50000000E-01
  8.50000000E-01  8.50000000E-01  8.50000000E-01  8.50000000E-01  8.50000000E-01
  8.50000000E-01  8.50000000E-01  8.50000000E-01  8.50000000E-01  8.50000000E-01
  8.50000000E-01  8.50000000E-01  8.50000000E-01  8.50000000E-01  8.50000000E-01
  8.50000000E-01  8.50000000E-01  8.50000000E-01  8.50000000E-01  8.50000000E-01
  8.50000000E-01  8.50000000E-01  8.50000000E-01  8.50000000E-01  8.50000000E-01
  8.50000000E-01  8.50000000E-01  8.50000000E-01  8.50000000E-01  8.50000000E-01
  8.50000000E-01  8.50000000E-01  8.50000000E-01  8.50000000E-01  8.50000000E-01
  8.50000000E-01  8.50000000E-01  8.50000000E-01  8.50000000E-01  8.50000000E-01
  8.50000000E-01  8.50000000E-01  8.50000000E-01  8.50000000E-01  8.50000000E-01
  8.50000000E-01  8.50000000E-01  8.50000000E-01  8.50000000E-01  8.50000000E-01
  8.50000000E-01  8.50000000E-01  8.50000000E-01  8.50000000E-01  8.50000000E-01
  8.50000000E-01  8.50000000E-01  8.50000000E-01  8.50000000E-01  8.50000000E-01
  8.50000000E-01  8.50000000E-01  8.50000000E-01  8.50000000E-01  8.50000000E-01
  8.50000000E-01  8.50000000E-01  8.50000000E-01  8.50000000E-01  8.50000000E-01
  8.50000000E-01  8.50000000E-01  8.50000000E-01  8.50000000E-01  8.50000000E-01
  8.50000000E-01  8.50000000E-01  8.50000000E-01  8.50000000E-01  8.50000000E-01
  8.50000000E-01  8.50000000E-01  8.50000000E-01  8.50000000E-01  8.50000000E-01
  8.50000000E-01  8.50000000E-01  8.50000000E-01  8.50000000E-01  8.50000000E-01
  8.50000000E-01  8.50000000E-01  8.50000000E-01  8.50000000E-01  8.50000000E-01
  8.50000000E-01  8.50000000E-01  8.50000000E-01  8.50000000E-01  8.50000000E-01
  8.50000000E-01  8.50000000E-01  8.50000000E-01  8.50000000E-01  8.50000000E-01
  8.50000000E-01  8.50000000E-01  8.50000000E-01  8.50000000E-01  8.50000000E-01
  8.50000000E-01  8.50000000E-01  8.50000000E-01  8.50000000E-01  8.50000000E-01
  8.50000000E-01  8.50000000E-01  8.50000000E-01  8.50000000E-01  8.50000000E-01
  8.50000000E-01  8.50000000E-01  8.50000000E-01  8.50000000E-01  8.50000000E-01
  8.50000000E-01  8.50000000E-01  8.50000000E-01  8.50000000E-01  8.50000000E-01
  8.50000000E-01  8.50000000E-01  8.50000000E-01  8.50000000E-01  8.50000000E-01
  8.50000000E-01  8.50000000E-01  8.50000000E-01  8.50000000E-01  8.50000000E-01
  8.50000000E-01  8.50000000E-01  8.50000000E-01  8.50000000E-01  8.50000000E-01
  8.50000000E-01  8.50000000E-01  8.50000000E-01  8.50000000E-01  8.50000000E-01
  8.50000000E-01  8.50000000E-01  8.50000000E-01  8.50000000E-01  8.50000000E-01
  8.50000000E-01  8.50000000E-01  8.50000000E-01  8.50000000E-01  8.50000000E-01
  8.50000000E-01  8.50000000E-01  8.50000000E-01  8.50000000E-01  8.50000000E-01
  8.50000000E-01  8.50000000E-01  8.50000000E-01  8.50000000E-01  8.50000000E-01
  8.50000000E-01  8.50000000E-01  8.50000000E-01  8.50000000E-01  8.50000000E-01
  8.50000000E-01  8.50000000E-01  8.50000000E-01  8.50000000E-01  8.50000000E-01
  8.50000000E-01  8.50000000E-01  8.50000000E-01  8.50000000E-01  8.50000000E-01
  8.50000000E-01  8.50000000E-01  8.50000000E-01  8.50000000E-01  8.50000000E-01
  8.50000000E-01  8.50000000E-01  8.50000000E-01  8.50000000E-01  8.50000000E-01
  8.50000000E-01  8.50000000E-01  8.50000000E-01  8.50000000E-01  8.50000000E-01
  8.50000000E-01  8.50000000E-01  8.50000000E-01  8.50000000E-01  8.50000000E-01
  8.50000000E-01  8.50000000E-01  8.50000000E-01  8.50000000E-01  8.50000000E-01
  8.50000000E-01  8.50000000E-01  8.50000000E-01  8.50000000E-01  8.50000000E-01
  8.50000000E-01  8.50000000E-01  8.50000000E-01  8.50000000E-01  8.50000000E-01
  8.50000000E-01  8.50000000E-01  8.50000000E-01  8.50000000E-01  8.50000000E-01
  8.50000000E-01  8.50000000E-01  8.50000000E-01  8.50000000E-01  8.50000000E-01
  8.50000000E-01  8.50000000E-01  8.50000000E-01  8.50000000E-01  8.50000000E-01
  8.50000000E-01  8.50000000E-01  8.50000000E-01  8.50000000E-01  8.50000000E-01
  8.50000000E-01  8.50000000E-01  8.50000000E-01  8.50000000E-01  8.50000000E-01
  8.50000000E-01  8.50000000E-01  8.50000000E-01  8.50000000E-01  8.50000000E-01
  8.50000000E-01  8.50000000E-01  8.50000000E-01  8.50000000E-01  8.50000000E-01
  8.50000000E-01  8.50000000E-01  8.50000000E-01  8.50000000E-01  8.50000000E-01
  8.50000000E-01  8.50000000E-01  8.50000000E-01  8.50000000E-01  8.50000000E-01
  8.50000000E-01  8.50000000E-01  8.50000000E-01  8.50000000E-01  8.50000000E-01
  8.50000000E-01  8.50000000E-01  8.50000000E-01  8.50000000E-01  8.50000000E-01
  8.50000000E-01  8.50000000E-01  8.50000000E-01  8.50000000E-01  8.50000000E-01
  8.50000000E-01  8.50000000E-01  8.50000000E-01  8.50000000E-01  8.50000000E-01
  8.50000000E-01  8.50000000E-01  8.50000000E-01  8.50000000E-01  8.50000000E-01
  8.50000000E-01  8.50000000E-01  8.50000000E-01  8.50000000E-01  8.50000000E-01
  8.50000000E-01  8.50000000E-01  8.50000000E-01  8.50000000E-01  8.50000000E-01
  8.50000000E-01  8.50000000E-01  8.50000000E-01  8.50000000E-01  8.50000000E-01
  8.50000000E-01  8.50000000E-01  8.50000000E-01  8.50000000E-01  8.50000000E-01
  8.50000000E-01  8.50000000E-01  8.50000000E-01  8.50000000E-01  8.50000000E-01
  8.50000000E-01  8.50000000E-01  8.50000000E-01  8.50000000E-01  8.50000000E-01
  8.50000000E-01  8.50000000E-01  8.50000000E-01  8.50000000E-01  8.50000000E-01
  8.50000000E-01  8.50000000E-01  8.50000000E-01  8.50000000E-01  8.50000000E-01
  8.50000000E-01  8.50000000E-01  8.50000000E-01  8.50000000E-01  8.50000000E-01
  8.50000000E-01  8.50000000E-01  8.50000000E-01  8.50000000E-01  8.50000000E-01
  8.50000000E-01  8.50000000E-01  8.50000000E-01  8.50000000E-01  8.50000000E-01
  8.50000000E-01  8.50000000E-01  8.50000000E-01  8.50000000E-01  8.50000000E-01
  8.50000000E-01  8.50000000E-01  8.50000000E-01  8.50000000E-01  8.50000000E-01
  8.50000000E-01  8.50000000E-01  8.50000000E-01  8.50000000E-01  8.50000000E-01
  8.50000000E-01  8.50000000E-01  8.50000000E-01  8.50000000E-01  8.50000000E-01
  8.50000000E-01  8.50000000E-01  8.50000000E-01  8.50000000E-01  8.50000000E-01
  8.50000000E-01  8.50000000E-01  8.50000000E-01  8.50000000E-01  8.50000000E-01
  8.50000000E-01  8.50000000E-01  8.50000000E-01  8.50000000E-01  8.50000000E-01
  8.50000000E-01  8.50000000E-01  8.50000000E-01  8.50000000E-01  8.50000000E-01
  8.50000000E-01  8.50000000E-01  8.50000000E-01  8.50000000E-01  8.50000000E-01
  8.50000000E-01  8.50000000E-01  8.50000000E-01  8.50000000E-01  8.50000000E-01
  8.50000000E-01  8.50000000E-01  8.50000000E-01  8.50000000E-01  8.50000000E-01
  8.50000000E-01  8.50000000E-01  8.50000000E-01  8.50000000E-01  8.50000000E-01
  8.50000000E-01  8.50000000E-01  8.50000000E-01  8.50000000E-01  8.50000000E-01
  8.50000000E-01  8.50000000E-01  8.50000000E-01  8.50000000E-01  8.50000000E-01
  8.50000000E-01  8.50000000E-01  8.50000000E-01  8.50000000E-01  8.50000000E-01
  8.50000000E-01  8.50000000E-01  8.50000000E-01  8.50000000E-01  8.50000000E-01
  8.50000000E-01  8.50000000E-01  8.50000000E-01  8.50000000E-01  8.50000000E-01
  8.50000000E-01  8.50000000E-01  8.50000000E-01  8.50000000E-01  8.50000000E-01
  8.50000000E-01  8.50000000E-01  8.50000000E-01  8.50000000E-01  8.50000000E-01
  8.50000000E-01  8.50000000E-01  8.50000000E-01  8.50000000E-01  8.50000000E-01
  8.50000000E-01  8.50000000E-01  8.50000000E-01  8.50000000E-01  8.50000000E-01
  8.50000000E-01  8.50000000E-01  8.50000000E-01  8.50000000E-01  8.50000000E-01
  8.50000000E-01  8.50000000E-01  8.50000000E-01  8.50000000E-01  8.50000000E-01
  8.50000000E-01  8.50000000E-01  8.50000000E-01  8.50000000E-01  8.50000000E-01
  8.50000000E-01  8.50000000E-01  8.50000000E-01  8.50000000E-01  8.50000000E-01
  8.50000000E-01  8.50000000E-01  8.50000000E-01  8.50000000E-01  8.50000000E-01
  8.50000000E-01  8.50000000E-01  8.50000000E-01  8.50000000E-01  8.50000000E-01
  8.50000000E-01  8.50000000E-01  8.50000000E-01  8.50000000E-01  8.50000000E-01
  8.50000000E-01  8.50000000E-01  8.50000000E-01  8.50000000E-01  8.50000000E-01
  8.50000000E-01  8.50000000E-01  8.50000000E-01  8.50000000E-01  8.50000000E-01
  8.50000000E-01  8.50000000E-01  8.50000000E-01  8.50000000E-01  8.50000000E-01
  8.50000000E-01  8.50000000E-01  8.50000000E-01  8.50000000E-01  8.50000000E-01
  8.50000000E-01  8.50000000E-01  8.50000000E-01  8.50000000E-01  8.50000000E-01
  8.50000000E-01  8.50000000E-01  8.50000000E-01  8.50000000E-01  8.50000000E-01
  8.50000000E-01  8.50000000E-01  8.50000000E-01  8.50000000E-01  8.50000000E-01
  8.50000000E-01  8.50000000E-01  8.50000000E-01  8.50000000E-01  8.50000000E-01
  8.50000000E-01  8.50000000E-01  8.50000000E-01  8.50000000E-01  8.50000000E-01
  8.50000000E-01  8.50000000E-01  8.50000000E-01  8.50000000E-01  8.50000000E-01
  8.50000000E-01  8.50000000E-01  8.50000000E-01  8.50000000E-01  8.50000000E-01
  8.50000000E-01  8.50000000E-01  8.50000000E-01  8.50000000E-01  8.50000000E-01
  8.50000000E-01  8.50000000E-01  8.50000000E-01  8.50000000E-01  8.50000000E-01
  8.50000000E-01  8.50000000E-01  8.50000000E-01  8.50000000E-01  8.50000000E-01
  8.50000000E-01  8.50000000E-01  8.50000000E-01  8.50000000E-01  8.50000000E-01
  8.50000000E-01  8.50000000E-01  8.50000000E-01  8.50000000E-01  8.50000000E-01
  8.50000000E-01  8.50000000E-01  8.50000000E-01  8.50000000E-01  8.50000000E-01
  8.50000000E-01  8.50000000E-01  8.50000000E-01  8.50000000E-01  8.50000000E-01
  8.50000000E-01  8.50000000E-01  8.50000000E-01  8.50000000E-01  8.50000000E-01
  8.50000000E-01  8.50000000E-01  8.50000000E-01  8.50000000E-01  8.50000000E-01
  8.50000000E-01  8.50000000E-01  8.50000000E-01  8.50000000E-01  8.50000000E-01
  8.50000000E-01  8.50000000E-01  8.50000000E-01  8.50000000E-01  8.50000000E-01
  8.50000000E-01  8.50000000E-01  8.50000000E-01  8.50000000E-01  8.50000000E-01
  8.50000000E-01  8.50000000E-01  8.50000000E-01  8.50000000E-01  8.50000000E-01
  8.50000000E-01  8.50000000E-01  8.50000000E-01  8.50000000E-01  8.50000000E-01
  8.50000000E-01  8.50000000E-01  8.50000000E-01  8.50000000E-01  8.50000000E-01
  8.50000000E-01  8.50000000E-01  8.50000000E-01  8.50000000E-01  8.50000000E-01
  8.50000000E-01  8.50000000E-01  8.50000000E-01  8.50000000E-01  8.50000000E-01
  8.50000000E-01  8.50000000E-01  8.50000000E-01  8.50000000E-01  8.50000000E-01
  8.50000000E-01  8.50000000E-01  8.50000000E-01  8.50000000E-01  8.50000000E-01
  8.50000000E-01  8.50000000E-01  8.50000000E-01  8.50000000E-01  8.50000000E-01
  8.50000000E-01  8.50000000E-01  8.50000000E-01  8.50000000E-01  8.50000000E-01
  8.50000000E-01  8.50000000E-01  8.50000000E-01  8.50000000E-01  8.50000000E-01
  8.50000000E-01  8.50000000E-01  8.50000000E-01  8.50000000E-01  8.50000000E-01
  8.50000000E-01  8.50000000E-01  8.50000000E-01  8.50000000E-01  8.50000000E-01
  8.50000000E-01  8.50000000E-01  8.50000000E-01  8.50000000E-01  8.50000000E-01
  8.50000000E-01  8.50000000E-01  8.50000000E-01  8.50000000E-01  8.50000000E-01
  8.50000000E-01  8.50000000E-01  8.50000000E-01  8.50000000E-01  8.50000000E-01
  8.50000000E-01  8.50000000E-01  8.50000000E-01  8.50000000E-01  8.50000000E-01
  8.50000000E-01  8.50000000E-01  8.50000000E-01  8.50000000E-01  8.50000000E-01
  8.50000000E-01  8.50000000E-01  8.50000000E-01  8.50000000E-01  8.50000000E-01
  8.50000000E-01  8.50000000E-01  8.50000000E-01  8.50000000E-01  8.50000000E-01
  8.50000000E-01  8.50000000E-01  8.50000000E-01  8.50000000E-01  8.50000000E-01
  8.50000000E-01  8.50000000E-01  8.50000000E-01  8.50000000E-01  8.50000000E-01
  8.50000000E-01  8.50000000E-01  8.50000000E-01  8.50000000E-01  8.50000000E-01
  8.50000000E-01  8.50000000E-01  8.50000000E-01  8.50000000E-01  8.50000000E-01
  8.50000000E-01  8.50000000E-01  8.50000000E-01  8.50000000E-01  8.50000000E-01
  8.50000000E-01  8.50000000E-01  8.50000000E-01  8.50000000E-01  8.50000000E-01
  8.50000000E-01  8.50000000E-01  8.50000000E-01  8.50000000E-01  8.50000000E-01
  8.50000000E-01  8.50000000E-01  8.50000000E-01  8.50000000E-01  8.50000000E-01
  8.50000000E-01  8.50000000E-01  8.50000000E-01  8.50000000E-01  8.50000000E-01
  8.50000000E-01  8.50000000E-01  8.50000000E-01  8.50000000E-01  8.50000000E-01
  8.50000000E-01  8.50000000E-01  8.50000000E-01  8.50000000E-01  8.50000000E-01
  8.50000000E-01  8.50000000E-01  8.50000000E-01  8.50000000E-01  8.50000000E-01
  8.50000000E-01  8.50000000E-01  8.50000000E-01  8.50000000E-01  8.50000000E-01
  8.50000000E-01  8.50000000E-01  8.50000000E-01  8.50000000E-01  8.50000000E-01
  8.50000000E-01  8.50000000E-01  8.50000000E-01  8.50000000E-01  8.50000000E-01
  8.50000000E-01  8.50000000E-01  8.50000000E-01  8.50000000E-01  8.50000000E-01
  8.50000000E-01  8.50000000E-01  8.50000000E-01  8.50000000E-01  8.50000000E-01
  8.50000000E-01  8.50000000E-01  8.50000000E-01  8.50000000E-01  8.50000000E-01
  8.50000000E-01  8.50000000E-01  8.50000000E-01  8.50000000E-01  8.50000000E-01
  8.50000000E-01  8.50000000E-01  8.50000000E-01  8.50000000E-01  8.50000000E-01
  8.50000000E-01  8.50000000E-01  8.50000000E-01  8.50000000E-01  8.50000000E-01
  8.50000000E-01  8.50000000E-01  8.50000000E-01  8.50000000E-01  8.50000000E-01
  8.50000000E-01  8.50000000E-01  8.50000000E-01  8.50000000E-01  8.50000000E-01
  8.50000000E-01  8.50000000E-01  8.50000000E-01  8.50000000E-01  8.50000000E-01
  8.50000000E-01  8.50000000E-01  8.50000000E-01  8.50000000E-01  8.50000000E-01
  8.50000000E-01  8.50000000E-01  8.50000000E-01  8.50000000E-01  8.50000000E-01
  8.50000000E-01  8.50000000E-01  8.50000000E-01  8.50000000E-01  8.50000000E-01
  8.50000000E-01  8.50000000E-01  8.50000000E-01  8.50000000E-01  8.50000000E-01
  8.50000000E-01  8.50000000E-01  8.50000000E-01  8.50000000E-01  8.50000000E-01
  8.50000000E-01  8.50000000E-01  8.50000000E-01  8.50000000E-01  8.50000000E-01
  8.50000000E-01  8.50000000E-01  8.50000000E-01  8.50000000E-01  8.50000000E-01
  8.50000000E-01  8.50000000E-01  8.50000000E-01  8.50000000E-01  8.50000000E-01
  8.50000000E-01  8.50000000E-01  8.50000000E-01  8.50000000E-01  8.50000000E-01
  8.50000000E-01  8.50000000E-01  8.50000000E-01  8.50000000E-01  8.50000000E-01
  8.50000000E-01  8.50000000E-01  8.50000000E-01  8.50000000E-01  8.50000000E-01
  8.50000000E-01  8.50000000E-01  8.50000000E-01  8.50000000E-01  8.50000000E-01
  8.50000000E-01  8.50000000E-01  8.50000000E-01  8.50000000E-01  8.50000000E-01
  8.50000000E-01  8.50000000E-01  8.50000000E-01  8.50000000E-01  8.50000000E-01
  8.50000000E-01  8.50000000E-01  8.50000000E-01  8.50000000E-01  8.50000000E-01
  8.50000000E-01  8.50000000E-01  8.50000000E-01  8.50000000E-01  8.50000000E-01
  8.50000000E-01  8.50000000E-01  8.50000000E-01  8.50000000E-01  8.50000000E-01
  8.50000000E-01  8.50000000E-01  8.50000000E-01  8.50000000E-01  8.50000000E-01
  8.50000000E-01  8.50000000E-01  8.50000000E-01  8.50000000E-01  8.50000000E-01
  8.50000000E-01  8.50000000E-01  8.50000000E-01  8.50000000E-01  8.50000000E-01
  8.50000000E-01  8.50000000E-01  8.50000000E-01  8.50000000E-01  8.50000000E-01
  8.50000000E-01  8.50000000E-01  8.50000000E-01  8.50000000E-01  8.50000000E-01
  8.50000000E-01  8.50000000E-01  8.50000000E-01  8.50000000E-01  8.50000000E-01
  8.50000000E-01  8.50000000E-01  8.50000000E-01  8.50000000E-01  8.50000000E-01
  8.50000000E-01  8.50000000E-01  8.50000000E-01  8.50000000E-01  8.50000000E-01
  8.50000000E-01  8.50000000E-01  8.50000000E-01  8.50000000E-01  8.50000000E-01
  8.50000000E-01  8.50000000E-01  8.50000000E-01  8.50000000E-01  8.50000000E-01
  8.50000000E-01  8.50000000E-01  8.50000000E-01  8.50000000E-01  8.50000000E-01
  8.50000000E-01  8.50000000E-01  8.50000000E-01  8.50000000E-01  8.50000000E-01
  8.50000000E-01  8.50000000E-01  8.50000000E-01  8.50000000E-01  8.50000000E-01
  8.50000000E-01  8.50000000E-01  8.50000000E-01  8.50000000E-01  8.50000000E-01
  8.50000000E-01  8.50000000E-01  8.50000000E-01  8.50000000E-01  8.50000000E-01
  8.50000000E-01  8.50000000E-01  8.50000000E-01  8.50000000E-01  8.50000000E-01
  8.50000000E-01  8.50000000E-01  8.50000000E-01  8.50000000E-01  8.50000000E-01
  8.50000000E-01  8.50000000E-01  8.50000000E-01  8.50000000E-01  8.50000000E-01
  8.50000000E-01  8.50000000E-01  8.50000000E-01  8.50000000E-01  8.50000000E-01
  8.50000000E-01  8.50000000E-01  8.50000000E-01  8.50000000E-01  8.50000000E-01
  8.50000000E-01  8.50000000E-01  8.50000000E-01  8.50000000E-01  8.50000000E-01
  8.50000000E-01  8.50000000E-01  8.50000000E-01  8.50000000E-01  8.50000000E-01
  8.50000000E-01  8.50000000E-01  8.50000000E-01  8.50000000E-01  8.50000000E-01
  8.50000000E-01  8.50000000E-01  8.50000000E-01  8.50000000E-01  8.50000000E-01
  8.50000000E-01  8.50000000E-01  8.50000000E-01  8.50000000E-01  8.50000000E-01
  8.50000000E-01  8.50000000E-01  8.50000000E-01  8.50000000E-01  8.50000000E-01
  8.50000000E-01  8.50000000E-01  8.50000000E-01  8.50000000E-01  8.50000000E-01
  8.50000000E-01  8.50000000E-01  8.50000000E-01  8.50000000E-01  8.50000000E-01
  8.50000000E-01  8.50000000E-01  8.50000000E-01  8.50000000E-01  8.50000000E-01
  8.50000000E-01  8.50000000E-01  8.50000000E-01  8.50000000E-01  8.50000000E-01
  8.50000000E-01  8.50000000E-01  8.50000000E-01  8.50000000E-01  8.50000000E-01
  8.50000000E-01  8.50000000E-01  8.50000000E-01  8.50000000E-01  8.50000000E-01
  8.50000000E-01  8.50000000E-01  8.50000000E-01  8.50000000E-01  8.50000000E-01
  8.50000000E-01  8.50000000E-01  8.50000000E-01  8.50000000E-01  8.50000000E-01
  8.50000000E-01  8.50000000E-01  8.50000000E-01  8.50000000E-01  8.50000000E-01
  8.50000000E-01  8.50000000E-01  8.50000000E-01  8.50000000E-01  8.50000000E-01
  8.50000000E-01  8.50000000E-01  8.50000000E-01  8.50000000E-01  8.50000000E-01
  8.50000000E-01  8.50000000E-01  8.50000000E-01  8.50000000E-01  8.50000000E-01
  8.50000000E-01  8.50000000E-01  8.50000000E-01  8.50000000E-01  8.50000000E-01
  8.50000000E-01  8.50000000E-01  8.50000000E-01  8.50000000E-01  8.50000000E-01
  8.50000000E-01  8.50000000E-01  8.50000000E-01  8.50000000E-01  8.50000000E-01
  8.50000000E-01  8.50000000E-01  8.50000000E-01  8.50000000E-01  8.50000000E-01
  8.50000000E-01  8.50000000E-01  8.50000000E-01  8.50000000E-01  8.50000000E-01
  8.50000000E-01  8.50000000E-01  8.50000000E-01  8.50000000E-01  8.50000000E-01
  8.50000000E-01  8.50000000E-01  8.50000000E-01  8.50000000E-01  8.50000000E-01
  8.50000000E-01  8.50000000E-01  8.50000000E-01  8.50000000E-01  8.50000000E-01
  8.50000000E-01  8.50000000E-01  8.50000000E-01  8.50000000E-01  8.50000000E-01
  8.50000000E-01  8.50000000E-01  8.50000000E-01  8.50000000E-01  8.50000000E-01
  8.50000000E-01  8.50000000E-01  8.50000000E-01  8.50000000E-01  8.50000000E-01
  8.50000000E-01  8.50000000E-01  8.50000000E-01  8.50000000E-01  8.50000000E-01
  8.50000000E-01  8.50000000E-01  8.50000000E-01  8.50000000E-01  8.50000000E-01
  8.50000000E-01  8.50000000E-01  8.50000000E-01  8.50000000E-01  8.50000000E-01
  8.50000000E-01  8.50000000E-01  8.50000000E-01  8.50000000E-01  8.50000000E-01
  8.50000000E-01  8.50000000E-01  8.50000000E-01  8.50000000E-01  8.50000000E-01
  8.50000000E-01  8.50000000E-01  8.50000000E-01  8.50000000E-01  8.50000000E-01
  8.50000000E-01  8.50000000E-01  8.50000000E-01  8.50000000E-01  8.50000000E-01
  8.50000000E-01  8.50000000E-01  8.50000000E-01  8.50000000E-01  8.50000000E-01
  8.50000000E-01  8.50000000E-01  8.50000000E-01  8.50000000E-01  8.50000000E-01
  8.50000000E-01  8.50000000E-01  8.50000000E-01  8.50000000E-01  8.50000000E-01
  8.50000000E-01  8.50000000E-01  8.50000000E-01  8.50000000E-01  8.50000000E-01
  8.50000000E-01  8.50000000E-01  8.50000000E-01  8.50000000E-01  8.50000000E-01
  8.50000000E-01  8.50000000E-01  8.50000000E-01  8.50000000E-01  8.50000000E-01
  8.50000000E-01  8.50000000E-01  8.50000000E-01  8.50000000E-01  8.50000000E-01
  8.50000000E-01  8.50000000E-01  8.50000000E-01  8.50000000E-01  8.50000000E-01
  8.50000000E-01  8.50000000E-01  8.50000000E-01  8.50000000E-01  8.50000000E-01
  8.50000000E-01  8.50000000E-01  8.50000000E-01  8.50000000E-01  8.50000000E-01
  8.50000000E-01  8.50000000E-01  8.50000000E-01  8.50000000E-01  8.50000000E-01
  8.50000000E-01  8.50000000E-01  8.50000000E-01  8.50000000E-01  8.50000000E-01
  8.50000000E-01  8.50000000E-01  8.50000000E-01  8.50000000E-01  8.50000000E-01
  8.50000000E-01  8.50000000E-01  8.50000000E-01  8.50000000E-01  8.50000000E-01
  8.50000000E-01  8.50000000E-01  8.50000000E-01  8.50000000E-01  8.50000000E-01
  8.50000000E-01  8.50000000E-01  8.50000000E-01  8.50000000E-01  8.50000000E-01
  8.50000000E-01  8.50000000E-01  8.50000000E-01  8.50000000E-01  8.50000000E-01
  8.50000000E-01  8.50000000E-01  8.50000000E-01  8.50000000E-01  8.50000000E-01
  8.50000000E-01  8.50000000E-01  8.50000000E-01  8.50000000E-01  8.50000000E-01
  8.50000000E-01  8.50000000E-01  8.50000000E-01  8.50000000E-01  8.50000000E-01
  8.50000000E-01  8.50000000E-01  8.50000000E-01  8.50000000E-01  8.50000000E-01
  8.50000000E-01  8.50000000E-01  8.50000000E-01  8.50000000E-01  8.50000000E-01
  8.50000000E-01  8.50000000E-01  8.50000000E-01  8.50000000E-01  8.50000000E-01
  8.50000000E-01  8.50000000E-01  8.50000000E-01  8.50000000E-01  8.50000000E-01
  8.50000000E-01  8.50000000E-01  8.50000000E-01  8.50000000E-01  8.50000000E-01
  8.50000000E-01  8.50000000E-01  8.50000000E-01  8.50000000E-01  8.50000000E-01
  8.50000000E-01  8.50000000E-01  8.50000000E-01  8.50000000E-01  8.50000000E-01
  8.50000000E-01  8.50000000E-01  8.50000000E-01  8.50000000E-01  8.50000000E-01
  8.50000000E-01  8.50000000E-01  8.50000000E-01  8.50000000E-01  8.50000000E-01
  8.50000000E-01  8.50000000E-01  8.50000000E-01  8.50000000E-01  8.50000000E-01
  8.50000000E-01  8.50000000E-01  8.50000000E-01  8.50000000E-01  8.50000000E-01
  8.50000000E-01  8.50000000E-01  8.50000000E-01  8.50000000E-01  8.50000000E-01
  8.50000000E-01  8.50000000E-01  8.50000000E-01  8.50000000E-01  8.50000000E-01
  8.50000000E-01  8.50000000E-01  8.50000000E-01  8.50000000E-01  8.50000000E-01
  8.50000000E-01  8.50000000E-01  8.50000000E-01  8.50000000E-01  8.50000000E-01
  8.50000000E-01  8.50000000E-01  8.50000000E-01  8.50000000E-01  8.50000000E-01
  8.50000000E-01  8.50000000E-01  8.50000000E-01  8.50000000E-01  8.50000000E-01
  8.50000000E-01  8.50000000E-01  8.50000000E-01  8.50000000E-01  8.50000000E-01
  8.50000000E-01  8.50000000E-01  8.50000000E-01  8.50000000E-01  8.50000000E-01
  8.50000000E-01  8.50000000E-01  8.50000000E-01  8.50000000E-01  8.50000000E-01
  8.50000000E-01  8.50000000E-01  8.50000000E-01  8.50000000E-01  8.50000000E-01
  8.50000000E-01  8.50000000E-01  8.50000000E-01  8.50000000E-01  8.50000000E-01
  8.50000000E-01  8.50000000E-01  8.50000000E-01  8.50000000E-01  8.50000000E-01
  8.50000000E-01  8.50000000E-01  8.50000000E-01  8.50000000E-01  8.50000000E-01
  8.50000000E-01  8.50000000E-01  8.50000000E-01  8.50000000E-01  8.50000000E-01
  8.50000000E-01  8.50000000E-01  8.50000000E-01  8.50000000E-01  8.50000000E-01
  8.50000000E-01  8.50000000E-01  8.50000000E-01  8.50000000E-01  8.50000000E-01
  8.50000000E-01  8.50000000E-01  8.50000000E-01  8.50000000E-01  8.50000000E-01
  8.50000000E-01  8.50000000E-01  8.50000000E-01  8.50000000E-01  8.50000000E-01
  8.50000000E-01  8.50000000E-01  8.50000000E-01  8.50000000E-01  8.50000000E-01
  8.50000000E-01  8.50000000E-01  8.50000000E-01  8.50000000E-01  8.50000000E-01
  8.50000000E-01  8.50000000E-01  8.50000000E-01  8.50000000E-01  8.50000000E-01
  8.50000000E-01  8.50000000E-01  8.50000000E-01  8.50000000E-01  8.50000000E-01
  8.50000000E-01  8.50000000E-01  8.50000000E-01  8.50000000E-01  8.50000000E-01
  8.50000000E-01  8.50000000E-01  8.50000000E-01  8.50000000E-01  8.50000000E-01
  8.50000000E-01  8.50000000E-01  8.50000000E-01  8.50000000E-01  8.50000000E-01
  8.50000000E-01  8.50000000E-01  8.50000000E-01  8.50000000E-01  8.50000000E-01
  8.50000000E-01  8.50000000E-01  8.50000000E-01  8.50000000E-01  8.50000000E-01
  8.50000000E-01  8.50000000E-01  8.50000000E-01  8.50000000E-01  8.50000000E-01
  8.50000000E-01  8.50000000E-01  8.50000000E-01  8.50000000E-01  8.50000000E-01
  8.50000000E-01  8.50000000E-01  8.50000000E-01  8.50000000E-01  8.50000000E-01
  8.50000000E-01  8.50000000E-01  8.50000000E-01  8.50000000E-01  8.50000000E-01
  8.50000000E-01  8.50000000E-01  8.50000000E-01  8.50000000E-01  8.50000000E-01
  8.50000000E-01  8.50000000E-01  8.50000000E-01  8.50000000E-01  8.50000000E-01
  8.50000000E-01  8.50000000E-01  8.50000000E-01  8.50000000E-01  8.50000000E-01
  8.50000000E-01  8.50000000E-01  8.50000000E-01  8.50000000E-01  8.50000000E-01
  8.50000000E-01  8.50000000E-01  8.50000000E-01  8.50000000E-01  8.50000000E-01
  8.50000000E-01  8.50000000E-01  8.50000000E-01  8.50000000E-01  8.50000000E-01
  8.50000000E-01  8.50000000E-01  8.50000000E-01  8.50000000E-01  8.50000000E-01
  8.50000000E-01  8.50000000E-01  8.50000000E-01  8.50000000E-01  8.50000000E-01
  8.50000000E-01  8.50000000E-01  8.50000000E-01  8.50000000E-01  8.50000000E-01
  8.50000000E-01  8.50000000E-01  8.50000000E-01  8.50000000E-01  8.50000000E-01
  8.50000000E-01  8.50000000E-01  8.50000000E-01  8.50000000E-01  8.50000000E-01
  8.50000000E-01  8.50000000E-01  8.50000000E-01  8.50000000E-01  8.50000000E-01
  8.50000000E-01  8.50000000E-01  8.50000000E-01  8.50000000E-01  8.50000000E-01
  8.50000000E-01  8.50000000E-01  8.50000000E-01  8.50000000E-01  8.50000000E-01
  8.50000000E-01  8.50000000E-01  8.50000000E-01  8.50000000E-01  8.50000000E-01
  8.50000000E-01  8.50000000E-01  8.50000000E-01  8.50000000E-01  8.50000000E-01
  8.50000000E-01  8.50000000E-01  8.50000000E-01  8.50000000E-01  8.50000000E-01
  8.50000000E-01  8.50000000E-01  8.50000000E-01  8.50000000E-01  8.50000000E-01
  8.50000000E-01  8.50000000E-01  8.50000000E-01  8.50000000E-01  8.50000000E-01
  8.50000000E-01  8.50000000E-01  8.50000000E-01  8.50000000E-01  8.50000000E-01
  8.50000000E-01  8.50000000E-01  8.50000000E-01  8.50000000E-01  8.50000000E-01
  8.50000000E-01  8.50000000E-01  8.50000000E-01  8.50000000E-01  8.50000000E-01
  8.50000000E-01  8.50000000E-01  8.50000000E-01  8.50000000E-01  8.50000000E-01
  8.50000000E-01  8.50000000E-01  8.50000000E-01  8.50000000E-01  8.50000000E-01
  8.50000000E-01  8.50000000E-01  8.50000000E-01  8.50000000E-01  8.50000000E-01
  8.50000000E-01  8.50000000E-01  8.50000000E-01  8.50000000E-01  8.50000000E-01
  8.50000000E-01  8.50000000E-01  8.50000000E-01  8.50000000E-01  8.50000000E-01
  8.50000000E-01  8.50000000E-01  8.50000000E-01  8.50000000E-01  8.50000000E-01
  8.50000000E-01  8.50000000E-01  8.50000000E-01  8.50000000E-01  8.50000000E-01
  8.50000000E-01  8.50000000E-01  8.50000000E-01  8.50000000E-01  8.50000000E-01
  8.50000000E-01  8.50000000E-01  8.50000000E-01  8.50000000E-01  8.50000000E-01
  8.50000000E-01  8.50000000E-01  8.50000000E-01  8.50000000E-01  8.50000000E-01
  8.50000000E-01  8.50000000E-01  8.50000000E-01  8.50000000E-01  8.50000000E-01
  8.50000000E-01  8.50000000E-01  8.50000000E-01  8.50000000E-01  8.50000000E-01
  8.50000000E-01  8.50000000E-01  8.50000000E-01  8.50000000E-01  8.50000000E-01
  8.50000000E-01  8.50000000E-01  8.50000000E-01  8.50000000E-01  8.50000000E-01
  8.50000000E-01  8.50000000E-01  8.50000000E-01  8.50000000E-01  8.50000000E-01
  8.50000000E-01  8.50000000E-01  8.50000000E-01  8.50000000E-01  8.50000000E-01
  8.50000000E-01  8.50000000E-01  8.50000000E-01  8.50000000E-01  8.50000000E-01
  8.50000000E-01  8.50000000E-01  8.50000000E-01  8.50000000E-01  8.50000000E-01
  8.50000000E-01  8.50000000E-01  8.50000000E-01  8.50000000E-01  8.50000000E-01
  8.50000000E-01  8.50000000E-01  8.50000000E-01  8.50000000E-01  8.50000000E-01
  8.50000000E-01  8.50000000E-01  8.50000000E-01  8.50000000E-01  8.50000000E-01
  8.50000000E-01  8.50000000E-01  8.50000000E-01  8.50000000E-01  8.50000000E-01
  8.50000000E-01  8.50000000E-01  8.50000000E-01  8.50000000E-01  8.50000000E-01
  8.50000000E-01  8.50000000E-01  8.50000000E-01  8.50000000E-01  8.50000000E-01
  8.50000000E-01  8.50000000E-01  8.50000000E-01  8.50000000E-01  8.50000000E-01
  8.50000000E-01  8.50000000E-01  8.50000000E-01  8.50000000E-01  8.50000000E-01
  8.50000000E-01  8.50000000E-01  8.50000000E-01  8.50000000E-01  8.50000000E-01
  8.50000000E-01  8.50000000E-01  8.50000000E-01  8.50000000E-01  8.50000000E-01
  8.50000000E-01  8.50000000E-01  8.50000000E-01  8.50000000E-01  8.50000000E-01
  8.50000000E-01  8.50000000E-01  8.50000000E-01  8.50000000E-01  8.50000000E-01
  8.50000000E-01  8.50000000E-01  8.50000000E-01  8.50000000E-01  8.50000000E-01
  8.50000000E-01  8.50000000E-01  8.50000000E-01  8.50000000E-01  8.50000000E-01
  8.50000000E-01  8.50000000E-01  8.50000000E-01  8.50000000E-01  8.50000000E-01
  8.50000000E-01  8.50000000E-01  8.50000000E-01  8.50000000E-01  8.50000000E-01
  8.50000000E-01  8.50000000E-01  8.50000000E-01  8.50000000E-01  8.50000000E-01
  8.50000000E-01  8.50000000E-01  8.50000000E-01  8.50000000E-01  8.50000000E-01
  8.50000000E-01  8.50000000E-01  8.50000000E-01  8.50000000E-01  8.50000000E-01
  8.50000000E-01  8.50000000E-01  8.50000000E-01  8.50000000E-01  8.50000000E-01
  8.50000000E-01  8.50000000E-01  8.50000000E-01  8.50000000E-01  8.50000000E-01
  8.50000000E-01  8.50000000E-01  8.50000000E-01  8.50000000E-01  8.50000000E-01
  8.50000000E-01  8.50000000E-01  8.50000000E-01  8.50000000E-01  8.50000000E-01
  8.50000000E-01  8.50000000E-01  8.50000000E-01  8.50000000E-01  8.50000000E-01
  8.50000000E-01  8.50000000E-01  8.50000000E-01  8.50000000E-01  8.50000000E-01
  8.50000000E-01  8.50000000E-01  8.50000000E-01  8.50000000E-01  8.50000000E-01
  8.50000000E-01  8.50000000E-01  8.50000000E-01  8.50000000E-01  8.50000000E-01
  8.50000000E-01  8.50000000E-01  8.50000000E-01  8.50000000E-01  8.50000000E-01
  8.50000000E-01  8.50000000E-01  8.50000000E-01  8.50000000E-01  8.50000000E-01
  8.50000000E-01  8.50000000E-01  8.50000000E-01  8.50000000E-01  8.50000000E-01
  8.50000000E-01  8.50000000E-01  8.50000000E-01  8.50000000E-01  8.50000000E-01
  8.50000000E-01  8.50000000E-01  8.50000000E-01  8.50000000E-01  8.50000000E-01
  8.50000000E-01  8.50000000E-01  8.50000000E-01  8.50000000E-01  8.50000000E-01
  8.50000000E-01  8.50000000E-01  8.50000000E-01  8.50000000E-01  8.50000000E-01
  8.50000000E-01  8.50000000E-01  8.50000000E-01  8.50000000E-01  8.50000000E-01
  8.50000000E-01  8.50000000E-01  8.50000000E-01  8.50000000E-01  8.50000000E-01
  8.50000000E-01  8.50000000E-01  8.50000000E-01  8.50000000E-01  8.50000000E-01
  8.50000000E-01  8.50000000E-01  8.50000000E-01  8.50000000E-01  8.50000000E-01
  8.50000000E-01  8.50000000E-01  8.50000000E-01  8.50000000E-01  8.50000000E-01
  8.50000000E-01  8.50000000E-01  8.50000000E-01  8.50000000E-01  8.50000000E-01
  8.50000000E-01  8.50000000E-01  8.50000000E-01  8.50000000E-01  8.50000000E-01
  8.50000000E-01  8.50000000E-01  8.50000000E-01  8.50000000E-01  8.50000000E-01
  8.50000000E-01  8.50000000E-01  8.50000000E-01  8.50000000E-01  8.50000000E-01
  8.50000000E-01  8.50000000E-01  8.50000000E-01  8.50000000E-01  8.50000000E-01
  8.50000000E-01  8.50000000E-01  8.50000000E-01  8.50000000E-01  8.50000000E-01
  8.50000000E-01  8.50000000E-01  8.50000000E-01  8.50000000E-01  8.50000000E-01
  8.50000000E-01  8.50000000E-01  8.50000000E-01  8.50000000E-01  8.50000000E-01
  8.50000000E-01  8.50000000E-01  8.50000000E-01  8.50000000E-01  8.50000000E-01
  8.50000000E-01  8.50000000E-01  8.50000000E-01  8.50000000E-01  8.50000000E-01
  8.50000000E-01  8.50000000E-01  8.50000000E-01  8.50000000E-01  8.50000000E-01
  8.50000000E-01  8.50000000E-01  8.50000000E-01  8.50000000E-01  8.50000000E-01
  8.50000000E-01  8.50000000E-01  8.50000000E-01  8.50000000E-01  8.50000000E-01
  8.50000000E-01  8.50000000E-01  8.50000000E-01  8.50000000E-01  8.50000000E-01
  8.50000000E-01  8.50000000E-01  8.50000000E-01  8.50000000E-01  8.50000000E-01
  8.50000000E-01  8.50000000E-01  8.50000000E-01  8.50000000E-01  8.50000000E-01
  8.50000000E-01  8.50000000E-01  8.50000000E-01  8.50000000E-01  8.50000000E-01
  8.50000000E-01  8.50000000E-01  8.50000000E-01  8.50000000E-01  8.50000000E-01
  8.50000000E-01  8.50000000E-01  8.50000000E-01  8.50000000E-01  8.50000000E-01
  8.50000000E-01  8.50000000E-01  8.50000000E-01  8.50000000E-01  8.50000000E-01
  8.50000000E-01  8.50000000E-01  8.50000000E-01  8.50000000E-01  8.50000000E-01
  8.50000000E-01  8.50000000E-01  8.50000000E-01  8.50000000E-01  8.50000000E-01
  8.50000000E-01  8.50000000E-01  8.50000000E-01  8.50000000E-01  8.50000000E-01
  8.50000000E-01  8.50000000E-01  8.50000000E-01  8.50000000E-01  8.50000000E-01
  8.50000000E-01  8.50000000E-01  8.50000000E-01  8.50000000E-01  8.50000000E-01
  8.50000000E-01  8.50000000E-01  8.50000000E-01  8.50000000E-01  8.50000000E-01
  8.50000000E-01  8.50000000E-01  8.50000000E-01  8.50000000E-01  8.50000000E-01
  8.50000000E-01  8.50000000E-01  8.50000000E-01  8.50000000E-01  8.50000000E-01
  8.50000000E-01  8.50000000E-01  8.50000000E-01  8.50000000E-01  8.50000000E-01
  8.50000000E-01  8.50000000E-01  8.50000000E-01  8.50000000E-01  8.50000000E-01
  8.50000000E-01  8.50000000E-01  8.50000000E-01  8.50000000E-01  8.50000000E-01
  8.50000000E-01  8.50000000E-01  8.50000000E-01  8.50000000E-01  8.50000000E-01
  8.50000000E-01  8.50000000E-01  8.50000000E-01  8.50000000E-01  8.50000000E-01
  8.50000000E-01  8.50000000E-01  8.50000000E-01  8.50000000E-01  8.50000000E-01
  8.50000000E-01  8.50000000E-01  8.50000000E-01  8.50000000E-01  8.50000000E-01
  8.50000000E-01  8.50000000E-01  8.50000000E-01  8.50000000E-01  8.50000000E-01
  8.50000000E-01  8.50000000E-01  8.50000000E-01  8.50000000E-01  8.50000000E-01
  8.50000000E-01  8.50000000E-01  8.50000000E-01  8.50000000E-01  8.50000000E-01
  8.50000000E-01  8.50000000E-01  8.50000000E-01  8.50000000E-01  8.50000000E-01
  8.50000000E-01  8.50000000E-01  8.50000000E-01  8.50000000E-01  8.50000000E-01
  8.50000000E-01  8.50000000E-01  8.50000000E-01  8.50000000E-01  8.50000000E-01
  8.50000000E-01  8.50000000E-01  8.50000000E-01  8.50000000E-01  8.50000000E-01
  8.50000000E-01  8.50000000E-01  8.50000000E-01  8.50000000E-01  8.50000000E-01
  8.50000000E-01  8.50000000E-01  8.50000000E-01  8.50000000E-01  8.50000000E-01
  8.50000000E-01  8.50000000E-01  8.50000000E-01  8.50000000E-01  8.50000000E-01
  8.50000000E-01  8.50000000E-01  8.50000000E-01  8.50000000E-01  8.50000000E-01
  8.50000000E-01  8.50000000E-01  8.50000000E-01  8.50000000E-01  8.50000000E-01
  8.50000000E-01  8.50000000E-01  8.50000000E-01  8.50000000E-01  8.50000000E-01
  8.50000000E-01  8.50000000E-01  8.50000000E-01  8.50000000E-01  8.50000000E-01
  8.50000000E-01  8.50000000E-01  8.50000000E-01  8.50000000E-01  8.50000000E-01
  8.50000000E-01  8.50000000E-01  8.50000000E-01  8.50000000E-01  8.50000000E-01
  8.50000000E-01  8.50000000E-01  8.50000000E-01  8.50000000E-01  8.50000000E-01
  8.50000000E-01  8.50000000E-01  8.50000000E-01  8.50000000E-01  8.50000000E-01
  8.50000000E-01  8.50000000E-01  8.50000000E-01  8.50000000E-01  8.50000000E-01
  8.50000000E-01  8.50000000E-01  8.50000000E-01  8.50000000E-01  8.50000000E-01
  8.50000000E-01  8.50000000E-01  8.50000000E-01  8.50000000E-01  8.50000000E-01
  8.50000000E-01  8.50000000E-01  8.50000000E-01  8.50000000E-01  8.50000000E-01
  8.50000000E-01  8.50000000E-01  8.50000000E-01  8.50000000E-01  8.50000000E-01
  8.50000000E-01  8.50000000E-01  8.50000000E-01  8.50000000E-01  8.50000000E-01
  8.50000000E-01  8.50000000E-01  8.50000000E-01  8.50000000E-01  8.50000000E-01
  8.50000000E-01  8.50000000E-01  8.50000000E-01  8.50000000E-01  8.50000000E-01
  8.50000000E-01  8.50000000E-01  8.50000000E-01  8.50000000E-01  8.50000000E-01
  8.50000000E-01  8.50000000E-01  8.50000000E-01  8.50000000E-01  8.50000000E-01
  8.50000000E-01  8.50000000E-01  8.50000000E-01  8.50000000E-01  8.50000000E-01
  8.50000000E-01  8.50000000E-01  8.50000000E-01  8.50000000E-01  8.50000000E-01
  8.50000000E-01  8.50000000E-01  8.50000000E-01  8.50000000E-01  8.50000000E-01
  8.50000000E-01  8.50000000E-01  8.50000000E-01  8.50000000E-01  8.50000000E-01
  8.50000000E-01  8.50000000E-01  8.50000000E-01  8.50000000E-01  8.50000000E-01
  8.50000000E-01  8.50000000E-01  8.50000000E-01  8.50000000E-01  8.50000000E-01
  8.50000000E-01  8.50000000E-01  8.50000000E-01  8.50000000E-01  8.50000000E-01
  8.50000000E-01  8.50000000E-01  8.50000000E-01  8.50000000E-01  8.50000000E-01
  8.50000000E-01  8.50000000E-01  8.50000000E-01  8.50000000E-01  8.50000000E-01
  8.50000000E-01  8.50000000E-01  8.50000000E-01  8.50000000E-01  8.50000000E-01
  8.50000000E-01  8.50000000E-01  8.50000000E-01  8.50000000E-01  8.50000000E-01
  8.50000000E-01  8.50000000E-01  8.50000000E-01  8.50000000E-01  8.50000000E-01
  8.50000000E-01  8.50000000E-01  8.50000000E-01  8.50000000E-01  8.50000000E-01
  8.50000000E-01  8.50000000E-01  8.50000000E-01  8.50000000E-01  8.50000000E-01
  8.50000000E-01  8.50000000E-01  8.50000000E-01  8.50000000E-01  8.50000000E-01
  8.50000000E-01  8.50000000E-01  8.50000000E-01  8.50000000E-01  8.50000000E-01
  8.50000000E-01  8.50000000E-01  8.50000000E-01  8.50000000E-01  8.50000000E-01
  8.50000000E-01  8.50000000E-01  8.50000000E-01  8.50000000E-01  8.50000000E-01
  8.50000000E-01  8.50000000E-01  8.50000000E-01  8.50000000E-01  8.50000000E-01
  8.50000000E-01  8.50000000E-01  8.50000000E-01  8.50000000E-01  8.50000000E-01
  8.50000000E-01  8.50000000E-01  8.50000000E-01  8.50000000E-01  8.50000000E-01
  8.50000000E-01  8.50000000E-01  8.50000000E-01  8.50000000E-01  8.50000000E-01
  8.50000000E-01  8.50000000E-01  8.50000000E-01  8.50000000E-01  8.50000000E-01
  8.50000000E-01  8.50000000E-01  8.50000000E-01  8.50000000E-01  8.50000000E-01
  8.50000000E-01  8.50000000E-01  8.50000000E-01  8.50000000E-01  8.50000000E-01
  8.50000000E-01  8.50000000E-01  8.50000000E-01  8.50000000E-01  8.50000000E-01
  8.50000000E-01  8.50000000E-01  8.50000000E-01  8.50000000E-01  8.50000000E-01
  8.50000000E-01  8.50000000E-01  8.50000000E-01  8.50000000E-01  8.50000000E-01
  8.50000000E-01  8.50000000E-01  8.50000000E-01  8.50000000E-01  8.50000000E-01
  8.50000000E-01  8.50000000E-01  8.50000000E-01  8.50000000E-01  8.50000000E-01
  8.50000000E-01  8.50000000E-01  8.50000000E-01  8.50000000E-01  8.50000000E-01
  8.50000000E-01  8.50000000E-01  8.50000000E-01  8.50000000E-01  8.50000000E-01
  8.50000000E-01  8.50000000E-01  8.50000000E-01  8.50000000E-01  8.50000000E-01
  8.50000000E-01  8.50000000E-01  8.50000000E-01  8.50000000E-01  8.50000000E-01
  8.50000000E-01  8.50000000E-01  8.50000000E-01  8.50000000E-01  8.50000000E-01
  8.50000000E-01  8.50000000E-01  8.50000000E-01  8.50000000E-01  8.50000000E-01
  8.50000000E-01  8.50000000E-01  8.50000000E-01  8.50000000E-01  8.50000000E-01
  8.50000000E-01  8.50000000E-01  8.50000000E-01  8.50000000E-01  8.50000000E-01
  8.50000000E-01  8.50000000E-01  8.50000000E-01  8.50000000E-01  8.50000000E-01
  8.50000000E-01  8.50000000E-01  8.50000000E-01  8.50000000E-01  8.50000000E-01
  8.50000000E-01  8.50000000E-01  8.50000000E-01  8.50000000E-01  8.50000000E-01
  8.50000000E-01  8.50000000E-01  8.50000000E-01  8.50000000E-01  8.50000000E-01
  8.50000000E-01  8.50000000E-01  8.50000000E-01  8.50000000E-01  8.50000000E-01
  8.50000000E-01  8.50000000E-01  8.50000000E-01  8.50000000E-01  8.50000000E-01
  8.50000000E-01  8.50000000E-01  8.50000000E-01  8.50000000E-01  8.50000000E-01
  8.50000000E-01  8.50000000E-01  8.50000000E-01  8.50000000E-01  8.50000000E-01
  8.50000000E-01  8.50000000E-01  8.50000000E-01  8.50000000E-01  8.50000000E-01
  8.50000000E-01  8.50000000E-01  8.50000000E-01  8.50000000E-01  8.50000000E-01
  8.50000000E-01  8.50000000E-01  8.50000000E-01  8.50000000E-01  8.50000000E-01
  8.50000000E-01  8.50000000E-01  8.50000000E-01  8.50000000E-01  8.50000000E-01
  8.50000000E-01  8.50000000E-01  8.50000000E-01  8.50000000E-01  8.50000000E-01
  8.50000000E-01  8.50000000E-01  8.50000000E-01  8.50000000E-01  8.50000000E-01
  8.50000000E-01  8.50000000E-01  8.50000000E-01  8.50000000E-01  8.50000000E-01
  8.50000000E-01  8.50000000E-01  8.50000000E-01  8.50000000E-01  8.50000000E-01
  8.50000000E-01  8.50000000E-01  8.50000000E-01  8.50000000E-01  8.50000000E-01
  8.50000000E-01  8.50000000E-01  8.50000000E-01  8.50000000E-01  8.50000000E-01
  8.50000000E-01  8.50000000E-01  8.50000000E-01  8.50000000E-01  8.50000000E-01
  8.50000000E-01  8.50000000E-01  8.50000000E-01  8.50000000E-01  8.50000000E-01
  8.50000000E-01  8.50000000E-01  8.50000000E-01  8.50000000E-01  8.50000000E-01
  8.50000000E-01  8.50000000E-01  8.50000000E-01  8.50000000E-01  8.50000000E-01
  8.50000000E-01  8.50000000E-01  8.50000000E-01  8.50000000E-01  8.50000000E-01
  8.50000000E-01  8.50000000E-01  8.50000000E-01  8.50000000E-01  8.50000000E-01
  8.50000000E-01  8.50000000E-01  8.50000000E-01  8.50000000E-01  8.50000000E-01
  8.50000000E-01  8.50000000E-01  8.50000000E-01  8.50000000E-01  8.50000000E-01
  8.50000000E-01  8.50000000E-01  8.50000000E-01  8.50000000E-01  8.50000000E-01
  8.50000000E-01  8.50000000E-01  8.50000000E-01  8.50000000E-01  8.50000000E-01
  8.50000000E-01  8.50000000E-01  8.50000000E-01  8.50000000E-01  8.50000000E-01
  8.50000000E-01  8.50000000E-01  8.50000000E-01  8.50000000E-01  8.50000000E-01
  8.50000000E-01  8.50000000E-01  8.50000000E-01  8.50000000E-01  8.50000000E-01
  8.50000000E-01  8.50000000E-01  8.50000000E-01  8.50000000E-01  8.50000000E-01
  8.50000000E-01  8.50000000E-01  8.50000000E-01  8.50000000E-01  8.50000000E-01
  8.50000000E-01  8.50000000E-01  8.50000000E-01  8.50000000E-01  8.50000000E-01
  8.50000000E-01  8.50000000E-01  8.50000000E-01  8.50000000E-01  8.50000000E-01
  8.50000000E-01  8.50000000E-01  8.50000000E-01  8.50000000E-01  8.50000000E-01
  8.50000000E-01  8.50000000E-01  8.50000000E-01  8.50000000E-01  8.50000000E-01
  8.50000000E-01  8.50000000E-01  8.50000000E-01  8.50000000E-01  8.50000000E-01
  8.50000000E-01  8.50000000E-01  8.50000000E-01  8.50000000E-01  8.50000000E-01
  8.50000000E-01  8.50000000E-01  8.50000000E-01  8.50000000E-01  8.50000000E-01
  8.50000000E-01  8.50000000E-01  8.50000000E-01  8.50000000E-01  8.50000000E-01
  8.50000000E-01  8.50000000E-01  8.50000000E-01  8.50000000E-01  8.50000000E-01
  8.50000000E-01  8.50000000E-01  8.50000000E-01  8.50000000E-01  8.50000000E-01
  8.50000000E-01  8.50000000E-01  8.50000000E-01  8.50000000E-01  8.50000000E-01
  8.50000000E-01  8.50000000E-01  8.50000000E-01  8.50000000E-01  8.50000000E-01
  8.50000000E-01  8.50000000E-01  8.50000000E-01  8.50000000E-01  8.50000000E-01
  8.50000000E-01  8.50000000E-01  8.50000000E-01  8.50000000E-01  8.50000000E-01
  8.50000000E-01  8.50000000E-01  8.50000000E-01  8.50000000E-01  8.50000000E-01
  8.50000000E-01  8.50000000E-01  8.50000000E-01  8.50000000E-01  8.50000000E-01
  8.50000000E-01  8.50000000E-01  8.50000000E-01  8.50000000E-01  8.50000000E-01
  8.50000000E-01  8.50000000E-01  8.50000000E-01  8.50000000E-01  8.50000000E-01
  8.50000000E-01  8.50000000E-01  8.50000000E-01  8.50000000E-01  8.50000000E-01
  8.50000000E-01  8.50000000E-01  8.50000000E-01  8.50000000E-01  8.50000000E-01
  8.50000000E-01  8.50000000E-01  8.50000000E-01  8.50000000E-01  8.50000000E-01
  8.50000000E-01  8.50000000E-01  8.50000000E-01  8.50000000E-01  8.50000000E-01
  8.50000000E-01  8.50000000E-01  8.50000000E-01  8.50000000E-01  8.50000000E-01
  8.50000000E-01  8.50000000E-01  8.50000000E-01  8.50000000E-01  8.50000000E-01
  8.50000000E-01  8.50000000E-01  8.50000000E-01  8.50000000E-01  8.50000000E-01
  8.50000000E-01  8.50000000E-01  8.50000000E-01  8.50000000E-01  8.50000000E-01
  8.50000000E-01  8.50000000E-01  8.50000000E-01  8.50000000E-01  8.50000000E-01
  8.50000000E-01  8.50000000E-01  8.50000000E-01  8.50000000E-01  8.50000000E-01
  8.50000000E-01  8.50000000E-01  8.50000000E-01  8.50000000E-01  8.50000000E-01
  8.50000000E-01  8.50000000E-01  8.50000000E-01  8.50000000E-01  8.50000000E-01
  8.50000000E-01  8.50000000E-01  8.50000000E-01  8.50000000E-01  8.50000000E-01
  8.50000000E-01  8.50000000E-01  8.50000000E-01  8.50000000E-01  8.50000000E-01
  8.50000000E-01  8.50000000E-01  8.50000000E-01  8.50000000E-01  8.50000000E-01
  8.50000000E-01  8.50000000E-01  8.50000000E-01  8.50000000E-01  8.50000000E-01
  8.50000000E-01  8.50000000E-01  8.50000000E-01  8.50000000E-01  8.50000000E-01
  8.50000000E-01  8.50000000E-01  8.50000000E-01  8.50000000E-01  8.50000000E-01
  8.50000000E-01  8.50000000E-01  8.50000000E-01  8.50000000E-01  8.50000000E-01
  8.50000000E-01  8.50000000E-01  8.50000000E-01  8.50000000E-01  8.50000000E-01
  8.50000000E-01  8.50000000E-01  8.50000000E-01  8.50000000E-01  8.50000000E-01
  8.50000000E-01  8.50000000E-01  8.50000000E-01  8.50000000E-01  8.50000000E-01
  8.50000000E-01  8.50000000E-01  8.50000000E-01  8.50000000E-01  8.50000000E-01
  8.50000000E-01  8.50000000E-01  8.50000000E-01  8.50000000E-01  8.50000000E-01
  8.50000000E-01  8.50000000E-01  8.50000000E-01  8.50000000E-01  8.50000000E-01
  8.50000000E-01  8.50000000E-01  8.50000000E-01  8.50000000E-01  8.50000000E-01
  8.50000000E-01  8.50000000E-01  8.50000000E-01  8.50000000E-01  8.50000000E-01
  8.50000000E-01  8.50000000E-01  8.50000000E-01  8.50000000E-01  8.50000000E-01
  8.50000000E-01  8.50000000E-01  8.50000000E-01  8.50000000E-01  8.50000000E-01
  8.50000000E-01  8.50000000E-01  8.50000000E-01  8.50000000E-01  8.50000000E-01
  8.50000000E-01  8.50000000E-01  8.50000000E-01  8.50000000E-01  8.50000000E-01
  8.50000000E-01  8.50000000E-01  8.50000000E-01  8.50000000E-01  8.50000000E-01
  8.50000000E-01  8.50000000E-01  8.50000000E-01  8.50000000E-01  8.50000000E-01
  8.50000000E-01  8.50000000E-01  8.50000000E-01  8.50000000E-01  8.50000000E-01
  8.50000000E-01  8.50000000E-01  8.50000000E-01  8.50000000E-01  8.50000000E-01
  8.50000000E-01  8.50000000E-01  8.50000000E-01  8.50000000E-01  8.50000000E-01
  8.50000000E-01  8.50000000E-01  8.50000000E-01  8.50000000E-01  8.50000000E-01
  8.50000000E-01  8.50000000E-01  8.50000000E-01  8.50000000E-01  8.50000000E-01
  8.50000000E-01  8.50000000E-01  8.50000000E-01  8.50000000E-01  8.50000000E-01
  8.50000000E-01  8.50000000E-01  8.50000000E-01  8.50000000E-01  8.50000000E-01
  8.50000000E-01  8.50000000E-01  8.50000000E-01  8.50000000E-01  8.50000000E-01
  8.50000000E-01  8.50000000E-01  8.50000000E-01  8.50000000E-01  8.50000000E-01
  8.50000000E-01  8.50000000E-01  8.50000000E-01  8.50000000E-01  8.50000000E-01
  8.50000000E-01  8.50000000E-01  8.50000000E-01  8.50000000E-01  8.50000000E-01
  8.50000000E-01  8.50000000E-01  8.50000000E-01  8.50000000E-01  8.50000000E-01
  8.50000000E-01  8.50000000E-01  8.50000000E-01  8.50000000E-01  8.50000000E-01
  8.50000000E-01  8.50000000E-01  8.50000000E-01  8.50000000E-01  8.50000000E-01
  8.50000000E-01  8.50000000E-01  8.50000000E-01  8.50000000E-01  8.50000000E-01
  8.50000000E-01  8.50000000E-01  8.50000000E-01  8.50000000E-01  8.50000000E-01
  8.50000000E-01  8.50000000E-01  8.50000000E-01  8.50000000E-01  8.50000000E-01
  8.50000000E-01  8.50000000E-01  8.50000000E-01  8.50000000E-01  8.50000000E-01
  8.50000000E-01  8.50000000E-01  8.50000000E-01  8.50000000E-01  8.50000000E-01
  8.50000000E-01  8.50000000E-01  8.50000000E-01  8.50000000E-01  8.50000000E-01
  8.50000000E-01  8.50000000E-01  8.50000000E-01  8.50000000E-01  8.50000000E-01
  8.50000000E-01  8.50000000E-01  8.50000000E-01  8.50000000E-01  8.50000000E-01
  8.50000000E-01  8.50000000E-01  8.50000000E-01  8.50000000E-01  8.50000000E-01
  8.50000000E-01  8.50000000E-01  8.50000000E-01  8.50000000E-01  8.50000000E-01
  8.50000000E-01  8.50000000E-01  8.50000000E-01  8.50000000E-01  8.50000000E-01
  8.50000000E-01  8.50000000E-01  8.50000000E-01  8.50000000E-01  8.50000000E-01
  8.50000000E-01  8.50000000E-01  8.50000000E-01  8.50000000E-01  8.50000000E-01
  8.50000000E-01  8.50000000E-01  8.50000000E-01  8.50000000E-01  8.50000000E-01
  8.50000000E-01  8.50000000E-01  8.50000000E-01  8.50000000E-01  8.50000000E-01
  8.50000000E-01  8.50000000E-01  8.50000000E-01  8.50000000E-01  8.50000000E-01
  8.50000000E-01  8.50000000E-01  8.50000000E-01  8.50000000E-01  8.50000000E-01
  8.50000000E-01  8.50000000E-01  8.50000000E-01  8.50000000E-01  8.50000000E-01
  8.50000000E-01  8.50000000E-01  8.50000000E-01  8.50000000E-01  8.50000000E-01
  8.50000000E-01  8.50000000E-01  8.50000000E-01  8.50000000E-01  8.50000000E-01
  8.50000000E-01  8.50000000E-01  8.50000000E-01  8.50000000E-01  8.50000000E-01
  8.50000000E-01  8.50000000E-01  8.50000000E-01  8.50000000E-01  8.50000000E-01
  8.50000000E-01  8.50000000E-01  8.50000000E-01  8.50000000E-01  8.50000000E-01
  8.50000000E-01  8.50000000E-01  8.50000000E-01  8.50000000E-01  8.50000000E-01
  8.50000000E-01  8.50000000E-01  8.50000000E-01  8.50000000E-01  8.50000000E-01
  8.50000000E-01  8.50000000E-01  8.50000000E-01  8.50000000E-01  8.50000000E-01
  8.50000000E-01  8.50000000E-01  8.50000000E-01  8.50000000E-01  8.50000000E-01
  8.50000000E-01  8.50000000E-01  8.50000000E-01  8.50000000E-01  8.50000000E-01
  8.50000000E-01  8.50000000E-01  8.50000000E-01  8.50000000E-01  8.50000000E-01
  8.50000000E-01  8.50000000E-01  8.50000000E-01  8.50000000E-01  8.50000000E-01
  8.50000000E-01  8.50000000E-01  8.50000000E-01  8.50000000E-01  8.50000000E-01
  8.50000000E-01  8.50000000E-01  8.50000000E-01  8.50000000E-01  8.50000000E-01
  8.50000000E-01  8.50000000E-01  8.50000000E-01  8.50000000E-01  8.50000000E-01
  8.50000000E-01  8.50000000E-01  8.50000000E-01  8.50000000E-01  8.50000000E-01
  8.50000000E-01  8.50000000E-01  8.50000000E-01  8.50000000E-01  8.50000000E-01
  8.50000000E-01  8.50000000E-01  8.50000000E-01  8.50000000E-01  8.50000000E-01
  8.50000000E-01  8.50000000E-01  8.50000000E-01  8.50000000E-01  8.50000000E-01
  8.50000000E-01  8.50000000E-01  8.50000000E-01  8.50000000E-01  8.50000000E-01
  8.50000000E-01  8.50000000E-01  8.50000000E-01  8.50000000E-01  8.50000000E-01
  8.50000000E-01  8.50000000E-01  8.50000000E-01  8.50000000E-01  8.50000000E-01
  8.50000000E-01  8.50000000E-01  8.50000000E-01  8.50000000E-01  8.50000000E-01
  8.50000000E-01  8.50000000E-01  8.50000000E-01  8.50000000E-01  8.50000000E-01
  8.50000000E-01  8.50000000E-01  8.50000000E-01  8.50000000E-01  8.50000000E-01
  8.50000000E-01  8.50000000E-01  8.50000000E-01  8.50000000E-01  8.50000000E-01
  8.50000000E-01  8.50000000E-01  8.50000000E-01  8.50000000E-01  8.50000000E-01
  8.50000000E-01  8.50000000E-01  8.50000000E-01  8.50000000E-01  8.50000000E-01
  8.50000000E-01  8.50000000E-01  8.50000000E-01  8.50000000E-01  8.50000000E-01
  8.50000000E-01  8.50000000E-01  8.50000000E-01  8.50000000E-01  8.50000000E-01
  8.50000000E-01  8.50000000E-01  8.50000000E-01  8.50000000E-01  8.50000000E-01
  8.50000000E-01  8.50000000E-01  8.50000000E-01  8.50000000E-01  8.50000000E-01
  8.50000000E-01  8.50000000E-01  8.50000000E-01  8.50000000E-01  8.50000000E-01
  8.50000000E-01  8.50000000E-01  8.50000000E-01  8.50000000E-01  8.50000000E-01
  8.50000000E-01  8.50000000E-01  8.50000000E-01  8.50000000E-01  8.50000000E-01
  8.50000000E-01  8.50000000E-01  8.50000000E-01  8.50000000E-01  8.50000000E-01
  8.50000000E-01  8.50000000E-01  8.50000000E-01  8.50000000E-01  8.50000000E-01
  8.50000000E-01  8.50000000E-01  8.50000000E-01  8.50000000E-01  8.50000000E-01
  8.50000000E-01  8.50000000E-01  8.50000000E-01  8.50000000E-01  8.50000000E-01
  8.50000000E-01  8.50000000E-01  8.50000000E-01  8.50000000E-01  8.50000000E-01
  8.50000000E-01  8.50000000E-01  8.50000000E-01  8.50000000E-01  8.50000000E-01
  8.50000000E-01  8.50000000E-01  8.50000000E-01  8.50000000E-01  8.50000000E-01
  8.50000000E-01  8.50000000E-01  8.50000000E-01  8.50000000E-01  8.50000000E-01
  8.50000000E-01  8.50000000E-01  8.50000000E-01  8.50000000E-01  8.50000000E-01
  8.50000000E-01  8.50000000E-01  8.50000000E-01  8.50000000E-01  8.50000000E-01
  8.50000000E-01  8.50000000E-01  8.50000000E-01  8.50000000E-01  8.50000000E-01
  8.50000000E-01  8.50000000E-01  8.50000000E-01  8.50000000E-01  8.50000000E-01
  8.50000000E-01  8.50000000E-01  8.50000000E-01  8.50000000E-01  8.50000000E-01
  8.50000000E-01  8.50000000E-01  8.50000000E-01  8.50000000E-01  8.50000000E-01
  8.50000000E-01  8.50000000E-01  8.50000000E-01  8.50000000E-01  8.50000000E-01
  8.50000000E-01  8.50000000E-01  8.50000000E-01  8.50000000E-01  8.50000000E-01
  8.50000000E-01  8.50000000E-01  8.50000000E-01  8.50000000E-01  8.50000000E-01
  8.50000000E-01  8.50000000E-01  8.50000000E-01  8.50000000E-01  8.50000000E-01
  8.50000000E-01  8.50000000E-01  8.50000000E-01  8.50000000E-01  8.50000000E-01
  8.50000000E-01  8.50000000E-01  8.50000000E-01  8.50000000E-01  8.50000000E-01
  8.50000000E-01  8.50000000E-01  8.50000000E-01  8.50000000E-01  8.50000000E-01
  8.50000000E-01  8.50000000E-01  8.50000000E-01  8.50000000E-01  8.50000000E-01
  8.50000000E-01  8.50000000E-01  8.50000000E-01  8.50000000E-01  8.50000000E-01
  8.50000000E-01  8.50000000E-01  8.50000000E-01  8.50000000E-01  8.50000000E-01
  8.50000000E-01  8.50000000E-01  8.50000000E-01  8.50000000E-01  8.50000000E-01
  8.50000000E-01  8.50000000E-01  8.50000000E-01  8.50000000E-01  8.50000000E-01
  8.50000000E-01  8.50000000E-01  8.50000000E-01  8.50000000E-01  8.50000000E-01
  8.50000000E-01  8.50000000E-01  8.50000000E-01  8.50000000E-01  8.50000000E-01
  8.50000000E-01  8.50000000E-01  8.50000000E-01  8.50000000E-01  8.50000000E-01
  8.50000000E-01  8.50000000E-01  8.50000000E-01  8.50000000E-01  8.50000000E-01
  8.50000000E-01  8.50000000E-01  8.50000000E-01  8.50000000E-01  8.50000000E-01
  8.50000000E-01  8.50000000E-01  8.50000000E-01  8.50000000E-01  8.50000000E-01
  8.50000000E-01  8.50000000E-01  8.50000000E-01  8.50000000E-01  8.50000000E-01
  8.50000000E-01  8.50000000E-01  8.50000000E-01  8.50000000E-01  8.50000000E-01
  8.50000000E-01  8.50000000E-01  8.50000000E-01  8.50000000E-01  8.50000000E-01
  8.50000000E-01  8.50000000E-01  8.50000000E-01  8.50000000E-01  8.50000000E-01
  8.50000000E-01  8.50000000E-01  8.50000000E-01  8.50000000E-01  8.50000000E-01
  8.50000000E-01  8.50000000E-01  8.50000000E-01  8.50000000E-01  8.50000000E-01
  8.50000000E-01  8.50000000E-01  8.50000000E-01  8.50000000E-01  8.50000000E-01
  8.50000000E-01  8.50000000E-01  8.50000000E-01  8.50000000E-01  8.50000000E-01
  8.50000000E-01  8.50000000E-01  8.50000000E-01  8.50000000E-01  8.50000000E-01
  8.50000000E-01  8.50000000E-01  8.50000000E-01  8.50000000E-01  8.50000000E-01
  8.50000000E-01  8.50000000E-01  8.50000000E-01  8.50000000E-01  8.50000000E-01
  8.50000000E-01  8.50000000E-01  8.50000000E-01  8.50000000E-01  8.50000000E-01
  8.50000000E-01  8.50000000E-01  8.50000000E-01  8.50000000E-01  8.50000000E-01
  8.50000000E-01  8.50000000E-01  8.50000000E-01  8.50000000E-01  8.50000000E-01
  8.50000000E-01  8.50000000E-01  8.50000000E-01  8.50000000E-01  8.50000000E-01
  8.50000000E-01  8.50000000E-01  8.50000000E-01  8.50000000E-01  8.50000000E-01
  8.50000000E-01  8.50000000E-01  8.50000000E-01  8.50000000E-01  8.50000000E-01
  8.50000000E-01  8.50000000E-01  8.50000000E-01  8.50000000E-01  8.50000000E-01
  8.50000000E-01  8.50000000E-01  8.50000000E-01  8.50000000E-01  8.50000000E-01
  8.50000000E-01  8.50000000E-01  8.50000000E-01  8.50000000E-01  8.50000000E-01
  8.50000000E-01  8.50000000E-01  8.50000000E-01  8.50000000E-01  8.50000000E-01
  8.50000000E-01  8.50000000E-01  8.50000000E-01  8.50000000E-01  8.50000000E-01
  8.50000000E-01  8.50000000E-01  8.50000000E-01  8.50000000E-01  8.50000000E-01
  8.50000000E-01  8.50000000E-01  8.50000000E-01  8.50000000E-01  8.50000000E-01
  8.50000000E-01  8.50000000E-01  8.50000000E-01  8.50000000E-01  8.50000000E-01
  8.50000000E-01  8.50000000E-01  8.50000000E-01  8.50000000E-01  8.50000000E-01
  8.50000000E-01  8.50000000E-01  8.50000000E-01  8.50000000E-01  8.50000000E-01
  8.50000000E-01  8.50000000E-01  8.50000000E-01  8.50000000E-01  8.50000000E-01
  8.50000000E-01  8.50000000E-01  8.50000000E-01  8.50000000E-01  8.50000000E-01
  8.50000000E-01  8.50000000E-01  8.50000000E-01  8.50000000E-01  8.50000000E-01
  8.50000000E-01  8.50000000E-01  8.50000000E-01  8.50000000E-01  8.50000000E-01
  8.50000000E-01  8.50000000E-01  8.50000000E-01  8.50000000E-01  8.50000000E-01
  8.50000000E-01  8.50000000E-01  8.50000000E-01  8.50000000E-01  8.50000000E-01
  8.50000000E-01  8.50000000E-01  8.50000000E-01  8.50000000E-01  8.50000000E-01
  8.50000000E-01  8.50000000E-01  8.50000000E-01  8.50000000E-01  8.50000000E-01
  8.50000000E-01  8.50000000E-01  8.50000000E-01  8.50000000E-01  8.50000000E-01
  8.50000000E-01  8.50000000E-01  8.50000000E-01  8.50000000E-01  8.50000000E-01
  8.50000000E-01  8.50000000E-01  8.50000000E-01  8.50000000E-01  8.50000000E-01
  8.50000000E-01  8.50000000E-01  8.50000000E-01  8.50000000E-01  8.50000000E-01
  8.50000000E-01  8.50000000E-01  8.50000000E-01  8.50000000E-01  8.50000000E-01
  8.50000000E-01  8.50000000E-01  8.50000000E-01  8.50000000E-01  8.50000000E-01
  8.50000000E-01  8.50000000E-01  8.50000000E-01  8.50000000E-01  8.50000000E-01
  8.50000000E-01  8.50000000E-01  8.50000000E-01  8.50000000E-01  8.50000000E-01
  8.50000000E-01  8.50000000E-01  8.50000000E-01  8.50000000E-01  8.50000000E-01
  8.50000000E-01  8.50000000E-01  8.50000000E-01  8.50000000E-01  8.50000000E-01
  8.50000000E-01  8.50000000E-01  8.50000000E-01  8.50000000E-01  8.50000000E-01
  8.50000000E-01  8.50000000E-01  8.50000000E-01  8.50000000E-01  8.50000000E-01
  8.50000000E-01  8.50000000E-01  8.50000000E-01  8.50000000E-01  8.50000000E-01
  8.50000000E-01  8.50000000E-01  8.50000000E-01  8.50000000E-01  8.50000000E-01
  8.50000000E-01  8.50000000E-01  8.50000000E-01  8.50000000E-01  8.50000000E-01
  8.50000000E-01  8.50000000E-01  8.50000000E-01  8.50000000E-01  8.50000000E-01
  8.50000000E-01  8.50000000E-01  8.50000000E-01  8.50000000E-01  8.50000000E-01
  8.50000000E-01  8.50000000E-01  8.50000000E-01  8.50000000E-01  8.50000000E-01
  8.50000000E-01  8.50000000E-01  8.50000000E-01  8.50000000E-01  8.50000000E-01
  8.50000000E-01  8.50000000E-01  8.50000000E-01  8.50000000E-01  8.50000000E-01
  8.50000000E-01  8.50000000E-01  8.50000000E-01  8.50000000E-01  8.50000000E-01
  8.50000000E-01  8.50000000E-01  8.50000000E-01  8.50000000E-01  8.50000000E-01
  8.50000000E-01  8.50000000E-01  8.50000000E-01  8.50000000E-01  8.50000000E-01
  8.50000000E-01  8.50000000E-01  8.50000000E-01  8.50000000E-01  8.50000000E-01
  8.50000000E-01  8.50000000E-01  8.50000000E-01  8.50000000E-01  8.50000000E-01
  8.50000000E-01  8.50000000E-01  8.50000000E-01  8.50000000E-01  8.50000000E-01
  8.50000000E-01  8.50000000E-01  8.50000000E-01  8.50000000E-01  8.50000000E-01
  8.50000000E-01  8.50000000E-01  8.50000000E-01  8.50000000E-01  8.50000000E-01
  8.50000000E-01  8.50000000E-01  8.50000000E-01  8.50000000E-01  8.50000000E-01
  8.50000000E-01  8.50000000E-01  8.50000000E-01  8.50000000E-01  8.50000000E-01
  8.50000000E-01  8.50000000E-01  8.50000000E-01  8.50000000E-01  8.50000000E-01
  8.50000000E-01  8.50000000E-01  8.50000000E-01  8.50000000E-01  8.50000000E-01
  8.50000000E-01  8.50000000E-01  8.50000000E-01  8.50000000E-01  8.50000000E-01
  8.50000000E-01  8.50000000E-01  8.50000000E-01  8.50000000E-01  8.50000000E-01
  8.50000000E-01  8.50000000E-01  8.50000000E-01  8.50000000E-01  8.50000000E-01
  8.50000000E-01  8.50000000E-01  8.50000000E-01  8.50000000E-01  8.50000000E-01
  8.50000000E-01  8.50000000E-01  8.50000000E-01  8.50000000E-01  8.50000000E-01
  8.50000000E-01  8.50000000E-01  8.50000000E-01  8.50000000E-01  8.50000000E-01
  8.50000000E-01  8.50000000E-01  8.50000000E-01  8.50000000E-01  8.50000000E-01
  8.50000000E-01  8.50000000E-01  8.50000000E-01  8.50000000E-01  8.50000000E-01
  8.50000000E-01  8.50000000E-01  8.50000000E-01  8.50000000E-01  8.50000000E-01
  8.50000000E-01  8.50000000E-01  8.50000000E-01  8.50000000E-01  8.50000000E-01
  8.50000000E-01  8.50000000E-01  8.50000000E-01  8.50000000E-01  8.50000000E-01
  8.50000000E-01  8.50000000E-01  8.50000000E-01  8.50000000E-01  8.50000000E-01
  8.50000000E-01  8.50000000E-01  8.50000000E-01  8.50000000E-01  8.50000000E-01
  8.50000000E-01  8.50000000E-01  8.50000000E-01  8.50000000E-01  8.50000000E-01
  8.50000000E-01  8.50000000E-01  8.50000000E-01  8.50000000E-01  8.50000000E-01
  8.50000000E-01  8.50000000E-01  8.50000000E-01  8.50000000E-01  8.50000000E-01
  8.50000000E-01  8.50000000E-01  8.50000000E-01  8.50000000E-01  8.50000000E-01
  8.50000000E-01  8.50000000E-01  8.50000000E-01  8.50000000E-01  8.50000000E-01
  8.50000000E-01  8.50000000E-01  8.50000000E-01  8.50000000E-01  8.50000000E-01
  8.50000000E-01  8.50000000E-01  8.50000000E-01  8.50000000E-01  8.50000000E-01
  8.50000000E-01  8.50000000E-01  8.50000000E-01  8.50000000E-01  8.50000000E-01
  8.50000000E-01  8.50000000E-01  8.50000000E-01  8.50000000E-01  8.50000000E-01
  8.50000000E-01  8.50000000E-01  8.50000000E-01  8.50000000E-01  8.50000000E-01
  8.50000000E-01  8.50000000E-01  8.50000000E-01  8.50000000E-01  8.50000000E-01
  8.50000000E-01  8.50000000E-01  8.50000000E-01  8.50000000E-01  8.50000000E-01
  8.50000000E-01  8.50000000E-01  8.50000000E-01  8.50000000E-01  8.50000000E-01
  8.50000000E-01  8.50000000E-01  8.50000000E-01  8.50000000E-01  8.50000000E-01
  8.50000000E-01  8.50000000E-01  8.50000000E-01  8.50000000E-01  8.50000000E-01
  8.50000000E-01  8.50000000E-01  8.50000000E-01  8.50000000E-01  8.50000000E-01
  8.50000000E-01  8.50000000E-01  8.50000000E-01  8.50000000E-01  8.50000000E-01
  8.50000000E-01  8.50000000E-01  8.50000000E-01  8.50000000E-01  8.50000000E-01
  8.50000000E-01  8.50000000E-01  8.50000000E-01  8.50000000E-01  8.50000000E-01
  8.50000000E-01  8.50000000E-01  8.50000000E-01  8.50000000E-01  8.50000000E-01
  8.50000000E-01  8.50000000E-01  8.50000000E-01  8.50000000E-01  8.50000000E-01
  8.50000000E-01  8.50000000E-01  8.50000000E-01  8.50000000E-01  8.50000000E-01
  8.50000000E-01  8.50000000E-01  8.50000000E-01  8.50000000E-01  8.50000000E-01
  8.50000000E-01  8.50000000E-01  8.50000000E-01  8.50000000E-01  8.50000000E-01
  8.50000000E-01  8.50000000E-01  8.50000000E-01  8.50000000E-01  8.50000000E-01
  8.50000000E-01  8.50000000E-01  8.50000000E-01  8.50000000E-01  8.50000000E-01
  8.50000000E-01  8.50000000E-01  8.50000000E-01  8.50000000E-01  8.50000000E-01
  8.50000000E-01  8.50000000E-01  8.50000000E-01  8.50000000E-01  8.50000000E-01
  8.50000000E-01  8.50000000E-01  8.50000000E-01  8.50000000E-01  8.50000000E-01
  8.50000000E-01  8.50000000E-01  8.50000000E-01  8.50000000E-01  8.50000000E-01
  8.50000000E-01  8.50000000E-01  8.50000000E-01  8.50000000E-01  8.50000000E-01
  8.50000000E-01  8.50000000E-01  8.50000000E-01  8.50000000E-01  8.50000000E-01
  8.50000000E-01  8.50000000E-01  8.50000000E-01  8.50000000E-01  8.50000000E-01
  8.50000000E-01  8.50000000E-01  8.50000000E-01  8.50000000E-01  8.50000000E-01
  8.50000000E-01  8.50000000E-01  8.50000000E-01  8.50000000E-01  8.50000000E-01
  8.50000000E-01  8.50000000E-01  8.50000000E-01  8.50000000E-01  8.50000000E-01
  8.50000000E-01  8.50000000E-01  8.50000000E-01  8.50000000E-01  8.50000000E-01
  8.50000000E-01  8.50000000E-01  8.50000000E-01  8.50000000E-01  8.50000000E-01
  8.50000000E-01  8.50000000E-01  8.50000000E-01  8.50000000E-01  8.50000000E-01
  8.50000000E-01  8.50000000E-01  8.50000000E-01  8.50000000E-01  8.50000000E-01
  8.50000000E-01  8.50000000E-01  8.50000000E-01  8.50000000E-01  8.50000000E-01
  8.50000000E-01  8.50000000E-01  8.50000000E-01  8.50000000E-01  8.50000000E-01
  8.50000000E-01  8.50000000E-01  8.50000000E-01  8.50000000E-01  8.50000000E-01
  8.50000000E-01  8.50000000E-01  8.50000000E-01  8.50000000E-01  8.50000000E-01
  8.50000000E-01  8.50000000E-01  8.50000000E-01  8.50000000E-01  8.50000000E-01
  8.50000000E-01  8.50000000E-01  8.50000000E-01  8.50000000E-01  8.50000000E-01
  8.50000000E-01  8.50000000E-01  8.50000000E-01  8.50000000E-01  8.50000000E-01
  8.50000000E-01  8.50000000E-01  8.50000000E-01  8.50000000E-01  8.50000000E-01
  8.50000000E-01  8.50000000E-01  8.50000000E-01  8.50000000E-01  8.50000000E-01
  8.50000000E-01  8.50000000E-01  8.50000000E-01  8.50000000E-01  8.50000000E-01
  8.50000000E-01  8.50000000E-01  8.50000000E-01  8.50000000E-01  8.50000000E-01
  8.50000000E-01  8.50000000E-01  8.50000000E-01  8.50000000E-01  8.50000000E-01
  8.50000000E-01  8.50000000E-01  8.50000000E-01  8.50000000E-01  8.50000000E-01
  8.50000000E-01  8.50000000E-01  8.50000000E-01  8.50000000E-01  8.50000000E-01
  8.50000000E-01  8.50000000E-01  8.50000000E-01  8.50000000E-01  8.50000000E-01
  8.50000000E-01  8.50000000E-01  8.50000000E-01  8.50000000E-01  8.50000000E-01
  8.50000000E-01  8.50000000E-01  8.50000000E-01  8.50000000E-01  8.50000000E-01
  8.50000000E-01  8.50000000E-01  8.50000000E-01  8.50000000E-01  8.50000000E-01
  8.50000000E-01  8.50000000E-01  8.50000000E-01  8.50000000E-01  8.50000000E-01
  8.50000000E-01  8.50000000E-01  8.50000000E-01  8.50000000E-01  8.50000000E-01
  8.50000000E-01  8.50000000E-01  8.50000000E-01  8.50000000E-01  8.50000000E-01
  8.50000000E-01  8.50000000E-01  8.50000000E-01  8.50000000E-01  8.50000000E-01
  8.50000000E-01  8.50000000E-01  8.50000000E-01  8.50000000E-01  8.50000000E-01
  8.50000000E-01  8.50000000E-01  8.50000000E-01  8.50000000E-01  8.50000000E-01
  8.50000000E-01  8.50000000E-01  8.50000000E-01  8.50000000E-01  8.50000000E-01
  8.50000000E-01  8.50000000E-01  8.50000000E-01  8.50000000E-01  8.50000000E-01
  8.50000000E-01  8.50000000E-01  8.50000000E-01  8.50000000E-01  8.50000000E-01
  8.50000000E-01  8.50000000E-01  8.50000000E-01  8.50000000E-01  8.50000000E-01
  8.50000000E-01  8.50000000E-01  8.50000000E-01  8.50000000E-01  8.50000000E-01
  8.50000000E-01  8.50000000E-01  8.50000000E-01  8.50000000E-01  8.50000000E-01
  8.50000000E-01  8.50000000E-01  8.50000000E-01  8.50000000E-01  8.50000000E-01
  8.50000000E-01  8.50000000E-01  8.50000000E-01  8.50000000E-01  8.50000000E-01
  8.50000000E-01  8.50000000E-01  8.50000000E-01  8.50000000E-01  8.50000000E-01
  8.50000000E-01  8.50000000E-01  8.50000000E-01  8.50000000E-01  8.50000000E-01
  8.50000000E-01  8.50000000E-01  8.50000000E-01  8.50000000E-01  8.50000000E-01
  8.50000000E-01  8.50000000E-01  8.50000000E-01  8.50000000E-01  8.50000000E-01
  8.50000000E-01  8.50000000E-01  8.50000000E-01  8.50000000E-01  8.50000000E-01
  8.50000000E-01  8.50000000E-01  8.50000000E-01  8.50000000E-01  8.50000000E-01
  8.50000000E-01  8.50000000E-01  8.50000000E-01  8.50000000E-01  8.50000000E-01
  8.50000000E-01  8.50000000E-01  8.50000000E-01  8.50000000E-01  8.50000000E-01
  8.50000000E-01  8.50000000E-01  8.50000000E-01  8.50000000E-01  8.50000000E-01
  8.50000000E-01  8.50000000E-01  8.50000000E-01  8.50000000E-01  8.50000000E-01
  8.50000000E-01  8.50000000E-01  8.50000000E-01  8.50000000E-01  8.50000000E-01
  8.50000000E-01  8.50000000E-01  8.50000000E-01  8.50000000E-01  8.50000000E-01
  8.50000000E-01  8.50000000E-01  8.50000000E-01  8.50000000E-01  8.50000000E-01
  8.50000000E-01  8.50000000E-01  8.50000000E-01  8.50000000E-01  8.50000000E-01
  8.50000000E-01  8.50000000E-01  8.50000000E-01  8.50000000E-01  8.50000000E-01
  8.50000000E-01  8.50000000E-01  8.50000000E-01  8.50000000E-01  8.50000000E-01
  8.50000000E-01  8.50000000E-01  8.50000000E-01  8.50000000E-01  8.50000000E-01
  8.50000000E-01  8.50000000E-01  8.50000000E-01  8.50000000E-01  8.50000000E-01
  8.50000000E-01  8.50000000E-01  8.50000000E-01  8.50000000E-01  8.50000000E-01
  8.50000000E-01  8.50000000E-01  8.50000000E-01  8.50000000E-01  8.50000000E-01
  8.50000000E-01  8.50000000E-01  8.50000000E-01  8.50000000E-01  8.50000000E-01
  8.50000000E-01  8.50000000E-01  8.50000000E-01  8.50000000E-01  8.50000000E-01
  8.50000000E-01  8.50000000E-01  8.50000000E-01  8.50000000E-01  8.50000000E-01
  8.50000000E-01  8.50000000E-01  8.50000000E-01  8.50000000E-01  8.50000000E-01
  8.50000000E-01  8.50000000E-01  8.50000000E-01  8.50000000E-01  8.50000000E-01
  8.50000000E-01  8.50000000E-01  8.50000000E-01  8.50000000E-01  8.50000000E-01
  8.50000000E-01  8.50000000E-01  8.50000000E-01  8.50000000E-01  8.50000000E-01
  8.50000000E-01  8.50000000E-01  8.50000000E-01  8.50000000E-01  8.50000000E-01
  8.50000000E-01  8.50000000E-01  8.50000000E-01  8.50000000E-01  8.50000000E-01
  8.50000000E-01  8.50000000E-01  8.50000000E-01  8.50000000E-01  8.50000000E-01
  8.50000000E-01  8.50000000E-01  8.50000000E-01  8.50000000E-01  8.50000000E-01
  8.50000000E-01  8.50000000E-01  8.50000000E-01  8.50000000E-01  8.50000000E-01
  8.50000000E-01  8.50000000E-01  8.50000000E-01  8.50000000E-01  8.50000000E-01
  8.50000000E-01  8.50000000E-01  8.50000000E-01  8.50000000E-01  8.50000000E-01
  8.50000000E-01  8.50000000E-01  8.50000000E-01  8.50000000E-01  8.50000000E-01
  8.50000000E-01  8.50000000E-01  8.50000000E-01  8.50000000E-01  8.50000000E-01
  8.50000000E-01  8.50000000E-01  8.50000000E-01  8.50000000E-01  8.50000000E-01
  8.50000000E-01  8.50000000E-01  8.50000000E-01  8.50000000E-01  8.50000000E-01
  8.50000000E-01  8.50000000E-01  8.50000000E-01  8.50000000E-01  8.50000000E-01
  8.50000000E-01  8.50000000E-01  8.50000000E-01  8.50000000E-01  8.50000000E-01
  8.50000000E-01  8.50000000E-01  8.50000000E-01  8.50000000E-01  8.50000000E-01
  8.50000000E-01  8.50000000E-01  8.50000000E-01  8.50000000E-01  8.50000000E-01
  8.50000000E-01  8.50000000E-01  8.50000000E-01  8.50000000E-01  8.50000000E-01
  8.50000000E-01  8.50000000E-01  8.50000000E-01  8.50000000E-01  8.50000000E-01
  8.50000000E-01  8.50000000E-01  8.50000000E-01  8.50000000E-01  8.50000000E-01
  8.50000000E-01  8.50000000E-01  8.50000000E-01  8.50000000E-01  8.50000000E-01
  8.50000000E-01  8.50000000E-01  8.50000000E-01  8.50000000E-01  8.50000000E-01
  8.50000000E-01  8.50000000E-01  8.50000000E-01  8.50000000E-01  8.50000000E-01
  8.50000000E-01  8.50000000E-01  8.50000000E-01  8.50000000E-01  8.50000000E-01
  8.50000000E-01  8.50000000E-01  8.50000000E-01  8.50000000E-01  8.50000000E-01
  8.50000000E-01  8.50000000E-01  8.50000000E-01  8.50000000E-01  8.50000000E-01
  8.50000000E-01  8.50000000E-01  8.50000000E-01  8.50000000E-01  8.50000000E-01
  8.50000000E-01  8.50000000E-01  8.50000000E-01  8.50000000E-01  8.50000000E-01
  8.50000000E-01  8.50000000E-01  8.50000000E-01  8.50000000E-01  8.50000000E-01
  8.50000000E-01  8.50000000E-01  8.50000000E-01  8.50000000E-01  8.50000000E-01
  8.50000000E-01  8.50000000E-01  8.50000000E-01  8.50000000E-01  8.50000000E-01
  8.50000000E-01  8.50000000E-01  8.50000000E-01  8.50000000E-01  8.50000000E-01
  8.50000000E-01  8.50000000E-01  8.50000000E-01  8.50000000E-01  8.50000000E-01
  8.50000000E-01  8.50000000E-01  8.50000000E-01  8.50000000E-01  8.50000000E-01
  8.50000000E-01  8.50000000E-01  8.50000000E-01  8.50000000E-01  8.50000000E-01
  8.50000000E-01  8.50000000E-01  8.50000000E-01  8.50000000E-01  8.50000000E-01
  8.50000000E-01  8.50000000E-01  8.50000000E-01  8.50000000E-01  8.50000000E-01
  8.50000000E-01  8.50000000E-01  8.50000000E-01  8.50000000E-01  8.50000000E-01
  8.50000000E-01  8.50000000E-01  8.50000000E-01  8.50000000E-01  8.50000000E-01
  8.50000000E-01  8.50000000E-01  8.50000000E-01  8.50000000E-01  8.50000000E-01
  8.50000000E-01  8.50000000E-01  8.50000000E-01  8.50000000E-01  8.50000000E-01
  8.50000000E-01  8.50000000E-01  8.50000000E-01  8.50000000E-01  8.50000000E-01
  8.50000000E-01  8.50000000E-01  8.50000000E-01  8.50000000E-01  8.50000000E-01
  8.50000000E-01  8.50000000E-01  8.50000000E-01  8.50000000E-01  8.50000000E-01
  8.50000000E-01  8.50000000E-01  8.50000000E-01  8.50000000E-01  8.50000000E-01
  8.50000000E-01  8.50000000E-01  8.50000000E-01  8.50000000E-01  8.50000000E-01
  8.50000000E-01  8.50000000E-01  8.50000000E-01  8.50000000E-01  8.50000000E-01
  8.50000000E-01  8.50000000E-01  8.50000000E-01  8.50000000E-01  8.50000000E-01
  8.50000000E-01  8.50000000E-01  8.50000000E-01  8.50000000E-01  8.50000000E-01
  8.50000000E-01  8.50000000E-01  8.50000000E-01  8.50000000E-01  8.50000000E-01
  8.50000000E-01  8.50000000E-01  8.50000000E-01  8.50000000E-01  8.50000000E-01
  8.50000000E-01  8.50000000E-01  8.50000000E-01  8.50000000E-01  8.50000000E-01
  8.50000000E-01  8.50000000E-01  8.50000000E-01  8.50000000E-01  8.50000000E-01
  8.50000000E-01  8.50000000E-01  8.50000000E-01  8.50000000E-01  8.50000000E-01
  8.50000000E-01  8.50000000E-01  8.50000000E-01  8.50000000E-01  8.50000000E-01
  8.50000000E-01  8.50000000E-01  8.50000000E-01  8.50000000E-01  8.50000000E-01
  8.50000000E-01  8.50000000E-01  8.50000000E-01  8.50000000E-01  8.50000000E-01
  8.50000000E-01  8.50000000E-01  8.50000000E-01  8.50000000E-01  8.50000000E-01
  8.50000000E-01  8.50000000E-01  8.50000000E-01  8.50000000E-01  8.50000000E-01
  8.50000000E-01  8.50000000E-01  8.50000000E-01  8.50000000E-01  8.50000000E-01
  8.50000000E-01  8.50000000E-01  8.50000000E-01  8.50000000E-01  8.50000000E-01
  8.50000000E-01  8.50000000E-01  8.50000000E-01  8.50000000E-01  8.50000000E-01
  8.50000000E-01  8.50000000E-01  8.50000000E-01  8.50000000E-01  8.50000000E-01
  8.50000000E-01  8.50000000E-01  8.50000000E-01  8.50000000E-01  8.50000000E-01
  8.50000000E-01  8.50000000E-01  8.50000000E-01  8.50000000E-01  8.50000000E-01
  8.50000000E-01  8.50000000E-01  8.50000000E-01  8.50000000E-01  8.50000000E-01
  8.50000000E-01  8.50000000E-01  8.50000000E-01  8.50000000E-01  8.50000000E-01
  8.50000000E-01  8.50000000E-01  8.50000000E-01  8.50000000E-01  8.50000000E-01
  8.50000000E-01  8.50000000E-01  8.50000000E-01  8.50000000E-01  8.50000000E-01
  8.50000000E-01  8.50000000E-01  8.50000000E-01  8.50000000E-01  8.50000000E-01
  8.50000000E-01  8.50000000E-01  8.50000000E-01  8.50000000E-01  8.50000000E-01
  8.50000000E-01  8.50000000E-01  8.50000000E-01  8.50000000E-01  8.50000000E-01
  8.50000000E-01  8.50000000E-01  8.50000000E-01  8.50000000E-01  8.50000000E-01
  8.50000000E-01  8.50000000E-01  8.50000000E-01  8.50000000E-01  8.50000000E-01
  8.50000000E-01  8.50000000E-01  8.50000000E-01  8.50000000E-01  8.50000000E-01
  8.50000000E-01  8.50000000E-01  8.50000000E-01  8.50000000E-01  8.50000000E-01
  8.50000000E-01  8.50000000E-01  8.50000000E-01  8.50000000E-01  8.50000000E-01
  8.50000000E-01  8.50000000E-01  8.50000000E-01  8.50000000E-01  8.50000000E-01
  8.50000000E-01  8.50000000E-01  8.50000000E-01  8.50000000E-01  8.50000000E-01
  8.50000000E-01  8.50000000E-01  8.50000000E-01  8.50000000E-01  8.50000000E-01
  8.50000000E-01  8.50000000E-01  8.50000000E-01  8.50000000E-01  8.50000000E-01
  8.50000000E-01  8.50000000E-01  8.50000000E-01  8.50000000E-01  8.50000000E-01
  8.50000000E-01  8.50000000E-01  8.50000000E-01  8.50000000E-01  8.50000000E-01
  8.50000000E-01  8.50000000E-01  8.50000000E-01  8.50000000E-01  8.50000000E-01
  8.50000000E-01  8.50000000E-01  8.50000000E-01  8.50000000E-01  8.50000000E-01
  8.50000000E-01  8.50000000E-01  8.50000000E-01  8.50000000E-01  8.50000000E-01
  8.50000000E-01  8.50000000E-01  8.50000000E-01  8.50000000E-01  8.50000000E-01
  8.50000000E-01  8.50000000E-01  8.50000000E-01  8.50000000E-01  8.50000000E-01
  8.50000000E-01  8.50000000E-01  8.50000000E-01  8.50000000E-01  8.50000000E-01
  8.50000000E-01  8.50000000E-01  8.50000000E-01  8.50000000E-01  8.50000000E-01
  8.50000000E-01  8.50000000E-01  8.50000000E-01  8.50000000E-01  8.50000000E-01
  8.50000000E-01  8.50000000E-01  8.50000000E-01  8.50000000E-01  8.50000000E-01
  8.50000000E-01  8.50000000E-01  8.50000000E-01  8.50000000E-01  8.50000000E-01
  8.50000000E-01  8.50000000E-01  8.50000000E-01  8.50000000E-01  8.50000000E-01
  8.50000000E-01  8.50000000E-01  8.50000000E-01  8.50000000E-01  8.50000000E-01
  8.50000000E-01  8.50000000E-01  8.50000000E-01  8.50000000E-01  8.50000000E-01
  8.50000000E-01  8.50000000E-01  8.50000000E-01  8.50000000E-01  8.50000000E-01
  8.50000000E-01  8.50000000E-01  8.50000000E-01  8.50000000E-01  8.50000000E-01
  8.50000000E-01  8.50000000E-01  8.50000000E-01  8.50000000E-01  8.50000000E-01
  8.50000000E-01  8.50000000E-01  8.50000000E-01  8.50000000E-01  8.50000000E-01
  8.50000000E-01  8.50000000E-01  8.50000000E-01  8.50000000E-01  8.50000000E-01
  8.50000000E-01  8.50000000E-01  8.50000000E-01  8.50000000E-01  8.50000000E-01
  8.50000000E-01  8.50000000E-01  8.50000000E-01  8.50000000E-01  8.50000000E-01
  8.50000000E-01  8.50000000E-01  8.50000000E-01  8.50000000E-01  8.50000000E-01
  8.50000000E-01  8.50000000E-01  8.50000000E-01  8.50000000E-01  8.50000000E-01
  8.50000000E-01  8.50000000E-01  8.50000000E-01  8.50000000E-01  8.50000000E-01
  8.50000000E-01  8.50000000E-01  8.50000000E-01  8.50000000E-01  8.50000000E-01
  8.50000000E-01  8.50000000E-01  8.50000000E-01  8.50000000E-01  8.50000000E-01
  8.50000000E-01  8.50000000E-01  8.50000000E-01  8.50000000E-01  8.50000000E-01
  8.50000000E-01  8.50000000E-01  8.50000000E-01  8.50000000E-01  8.50000000E-01
  8.50000000E-01  8.50000000E-01  8.50000000E-01  8.50000000E-01  8.50000000E-01
  8.50000000E-01  8.50000000E-01  8.50000000E-01  8.50000000E-01  8.50000000E-01
  8.50000000E-01  8.50000000E-01  8.50000000E-01  8.50000000E-01  8.50000000E-01
  8.50000000E-01  8.50000000E-01  8.50000000E-01  8.50000000E-01  8.50000000E-01
  8.50000000E-01  8.50000000E-01  8.50000000E-01  8.50000000E-01  8.50000000E-01
  8.50000000E-01  8.50000000E-01  8.50000000E-01  8.50000000E-01  8.50000000E-01
  8.50000000E-01  8.50000000E-01  8.50000000E-01  8.50000000E-01  8.50000000E-01
  8.50000000E-01  8.50000000E-01  8.50000000E-01  8.50000000E-01  8.50000000E-01
  8.50000000E-01  8.50000000E-01  8.50000000E-01  8.50000000E-01  8.50000000E-01
  8.50000000E-01  8.50000000E-01  8.50000000E-01  8.50000000E-01  8.50000000E-01
  8.50000000E-01  8.50000000E-01  8.50000000E-01  8.50000000E-01  8.50000000E-01
  8.50000000E-01  8.50000000E-01  8.50000000E-01  8.50000000E-01  8.50000000E-01
  8.50000000E-01  8.50000000E-01  8.50000000E-01  8.50000000E-01  8.50000000E-01
  8.50000000E-01  8.50000000E-01  8.50000000E-01  8.50000000E-01  8.50000000E-01
  8.50000000E-01  8.50000000E-01  8.50000000E-01  8.50000000E-01  8.50000000E-01
  8.50000000E-01  8.50000000E-01  8.50000000E-01  8.50000000E-01  8.50000000E-01
  8.50000000E-01  8.50000000E-01  8.50000000E-01  8.50000000E-01  8.50000000E-01
  8.50000000E-01  8.50000000E-01  8.50000000E-01  8.50000000E-01  8.50000000E-01
  8.50000000E-01  8.50000000E-01  8.50000000E-01  8.50000000E-01  8.50000000E-01
  8.50000000E-01  8.50000000E-01  8.50000000E-01  8.50000000E-01  8.50000000E-01
  8.50000000E-01  8.50000000E-01  8.50000000E-01  8.50000000E-01  8.50000000E-01
  8.50000000E-01  8.50000000E-01  8.50000000E-01  8.50000000E-01  8.50000000E-01
  8.50000000E-01  8.50000000E-01  8.50000000E-01  8.50000000E-01  8.50000000E-01
  8.50000000E-01  8.50000000E-01  8.50000000E-01  8.50000000E-01  8.50000000E-01
  8.50000000E-01  8.50000000E-01  8.50000000E-01  8.50000000E-01  8.50000000E-01
  8.50000000E-01  8.50000000E-01  8.50000000E-01  8.50000000E-01  8.50000000E-01
  8.50000000E-01  8.50000000E-01  8.50000000E-01  8.50000000E-01  8.50000000E-01
  8.50000000E-01  8.50000000E-01  8.50000000E-01  8.50000000E-01  8.50000000E-01
  8.50000000E-01  8.50000000E-01  8.50000000E-01  8.50000000E-01  8.50000000E-01
  8.50000000E-01  8.50000000E-01  8.50000000E-01  8.50000000E-01  8.50000000E-01
  8.50000000E-01  8.50000000E-01  8.50000000E-01  8.50000000E-01  8.50000000E-01
  8.50000000E-01  8.50000000E-01  8.50000000E-01  8.50000000E-01  8.50000000E-01
  8.50000000E-01  8.50000000E-01  8.50000000E-01  8.50000000E-01  8.50000000E-01
  8.50000000E-01  8.50000000E-01  8.50000000E-01  8.50000000E-01  8.50000000E-01
  8.50000000E-01  8.50000000E-01  8.50000000E-01  8.50000000E-01  8.50000000E-01
  8.50000000E-01  8.50000000E-01  8.50000000E-01  8.50000000E-01  8.50000000E-01
  8.50000000E-01  8.50000000E-01  8.50000000E-01  8.50000000E-01  8.50000000E-01
  8.50000000E-01  8.50000000E-01  8.50000000E-01  8.50000000E-01  8.50000000E-01
  8.50000000E-01  8.50000000E-01  8.50000000E-01  8.50000000E-01  8.50000000E-01
  8.50000000E-01  8.50000000E-01  8.50000000E-01  8.50000000E-01  8.50000000E-01
  8.50000000E-01  8.50000000E-01  8.50000000E-01  8.50000000E-01  8.50000000E-01
  8.50000000E-01  8.50000000E-01  8.50000000E-01  8.50000000E-01  8.50000000E-01
  8.50000000E-01  8.50000000E-01  8.50000000E-01  8.50000000E-01  8.50000000E-01
  8.50000000E-01  8.50000000E-01  8.50000000E-01  8.50000000E-01  8.50000000E-01
  8.50000000E-01  8.50000000E-01  8.50000000E-01  8.50000000E-01  8.50000000E-01
  8.50000000E-01  8.50000000E-01  8.50000000E-01  8.50000000E-01  8.50000000E-01
  8.50000000E-01  8.50000000E-01  8.50000000E-01  8.50000000E-01  8.50000000E-01
  8.50000000E-01  8.50000000E-01  8.50000000E-01  8.50000000E-01  8.50000000E-01
  8.50000000E-01  8.50000000E-01  8.50000000E-01  8.50000000E-01  8.50000000E-01
  8.50000000E-01  8.50000000E-01  8.50000000E-01  8.50000000E-01  8.50000000E-01
  8.50000000E-01  8.50000000E-01  8.50000000E-01  8.50000000E-01  8.50000000E-01
  8.50000000E-01  8.50000000E-01  8.50000000E-01  8.50000000E-01  8.50000000E-01
  8.50000000E-01  8.50000000E-01  8.50000000E-01  8.50000000E-01  8.50000000E-01
  8.50000000E-01  8.50000000E-01  8.50000000E-01  8.50000000E-01  8.50000000E-01
  8.50000000E-01  8.50000000E-01  8.50000000E-01  8.50000000E-01  8.50000000E-01
  8.50000000E-01  8.50000000E-01  8.50000000E-01  8.50000000E-01  8.50000000E-01
  8.50000000E-01  8.50000000E-01  8.50000000E-01  8.50000000E-01  8.50000000E-01
  8.50000000E-01  8.50000000E-01  8.50000000E-01  8.50000000E-01  8.50000000E-01
  8.50000000E-01  8.50000000E-01  8.50000000E-01  8.50000000E-01  8.50000000E-01
  8.50000000E-01  8.50000000E-01  8.50000000E-01  8.50000000E-01  8.50000000E-01
  8.50000000E-01  8.50000000E-01  8.50000000E-01  8.50000000E-01  8.50000000E-01
  8.50000000E-01  8.50000000E-01  8.50000000E-01  8.50000000E-01  8.50000000E-01
  8.50000000E-01  8.50000000E-01  8.50000000E-01  8.50000000E-01  8.50000000E-01
  8.50000000E-01  8.50000000E-01  8.50000000E-01  8.50000000E-01  8.50000000E-01
  8.50000000E-01  8.50000000E-01  8.50000000E-01  8.50000000E-01  8.50000000E-01
  8.50000000E-01  8.50000000E-01  8.50000000E-01  8.50000000E-01  8.50000000E-01
  8.50000000E-01  8.50000000E-01  8.50000000E-01  8.50000000E-01  8.50000000E-01
  8.50000000E-01  8.50000000E-01  8.50000000E-01  8.50000000E-01  8.50000000E-01
  8.50000000E-01  8.50000000E-01  8.50000000E-01  8.50000000E-01  8.50000000E-01
  8.50000000E-01  8.50000000E-01  8.50000000E-01  8.50000000E-01  8.50000000E-01
  8.50000000E-01  8.50000000E-01  8.50000000E-01  8.50000000E-01  8.50000000E-01
  8.50000000E-01  8.50000000E-01  8.50000000E-01  8.50000000E-01  8.50000000E-01
  8.50000000E-01  8.50000000E-01  8.50000000E-01  8.50000000E-01  8.50000000E-01
  8.50000000E-01  8.50000000E-01  8.50000000E-01  8.50000000E-01  8.50000000E-01
  8.50000000E-01  8.50000000E-01  8.50000000E-01  8.50000000E-01  8.50000000E-01
  8.50000000E-01  8.50000000E-01  8.50000000E-01  8.50000000E-01  8.50000000E-01
  8.50000000E-01  8.50000000E-01  8.50000000E-01  8.50000000E-01  8.50000000E-01
  8.50000000E-01  8.50000000E-01  8.50000000E-01  8.50000000E-01  8.50000000E-01
  8.50000000E-01  8.50000000E-01  8.50000000E-01  8.50000000E-01  8.50000000E-01
  8.50000000E-01  8.50000000E-01  8.50000000E-01  8.50000000E-01  8.50000000E-01
  8.50000000E-01  8.50000000E-01  8.50000000E-01  8.50000000E-01  8.50000000E-01
  8.50000000E-01  8.50000000E-01  8.50000000E-01  8.50000000E-01  8.50000000E-01
  8.50000000E-01  8.50000000E-01  8.50000000E-01  8.50000000E-01  8.50000000E-01
  8.50000000E-01  8.50000000E-01  8.50000000E-01  8.50000000E-01  8.50000000E-01
  8.50000000E-01  8.50000000E-01  8.50000000E-01  8.50000000E-01  8.50000000E-01
  8.50000000E-01  8.50000000E-01  8.50000000E-01  8.50000000E-01  8.50000000E-01
  8.50000000E-01  8.50000000E-01  8.50000000E-01  8.50000000E-01  8.50000000E-01
  8.50000000E-01  8.50000000E-01  8.50000000E-01  8.50000000E-01  8.50000000E-01
  8.50000000E-01  8.50000000E-01  8.50000000E-01  8.50000000E-01  8.50000000E-01
  8.50000000E-01  8.50000000E-01  8.50000000E-01  8.50000000E-01  8.50000000E-01
  8.50000000E-01  8.50000000E-01  8.50000000E-01  8.50000000E-01  8.50000000E-01
  8.50000000E-01  8.50000000E-01  8.50000000E-01  8.50000000E-01  8.50000000E-01
  8.50000000E-01  8.50000000E-01  8.50000000E-01  8.50000000E-01  8.50000000E-01
  8.50000000E-01  8.50000000E-01  8.50000000E-01  8.50000000E-01  8.50000000E-01
  8.50000000E-01  8.50000000E-01  8.50000000E-01  8.50000000E-01  8.50000000E-01
  8.50000000E-01  8.50000000E-01  8.50000000E-01  8.50000000E-01  8.50000000E-01
  8.50000000E-01  8.50000000E-01  8.50000000E-01  8.50000000E-01  8.50000000E-01
  8.50000000E-01  8.50000000E-01  8.50000000E-01  8.50000000E-01  8.50000000E-01
  8.50000000E-01  8.50000000E-01  8.50000000E-01  8.50000000E-01  8.50000000E-01
  8.50000000E-01  8.50000000E-01  8.50000000E-01  8.50000000E-01  8.50000000E-01
  8.50000000E-01  8.50000000E-01  8.50000000E-01  8.50000000E-01  8.50000000E-01
  8.50000000E-01  8.50000000E-01  8.50000000E-01  8.50000000E-01  8.50000000E-01
  8.50000000E-01  8.50000000E-01  8.50000000E-01  8.50000000E-01  8.50000000E-01
  8.50000000E-01  8.50000000E-01  8.50000000E-01  8.50000000E-01  8.50000000E-01
  8.50000000E-01  8.50000000E-01  8.50000000E-01  8.50000000E-01  8.50000000E-01
  8.50000000E-01  8.50000000E-01  8.50000000E-01  8.50000000E-01  8.50000000E-01
  8.50000000E-01  8.50000000E-01  8.50000000E-01  8.50000000E-01  8.50000000E-01
  8.50000000E-01  8.50000000E-01  8.50000000E-01  8.50000000E-01  8.50000000E-01
  8.50000000E-01  8.50000000E-01  8.50000000E-01  8.50000000E-01  8.50000000E-01
  8.50000000E-01  8.50000000E-01  8.50000000E-01  8.50000000E-01  8.50000000E-01
  8.50000000E-01  8.50000000E-01  8.50000000E-01  8.50000000E-01  8.50000000E-01
  8.50000000E-01  8.50000000E-01  8.50000000E-01  8.50000000E-01  8.50000000E-01
  8.50000000E-01  8.50000000E-01  8.50000000E-01  8.50000000E-01  8.50000000E-01
  8.50000000E-01  8.50000000E-01  8.50000000E-01  8.50000000E-01  8.50000000E-01
  8.50000000E-01  8.50000000E-01  8.50000000E-01  8.50000000E-01  8.50000000E-01
  8.50000000E-01  8.50000000E-01  8.50000000E-01  8.50000000E-01  8.50000000E-01
  8.50000000E-01  8.50000000E-01  8.50000000E-01  8.50000000E-01  8.50000000E-01
  8.50000000E-01  8.50000000E-01  8.50000000E-01  8.50000000E-01  8.50000000E-01
  8.50000000E-01  8.50000000E-01  8.50000000E-01  8.50000000E-01  8.50000000E-01
  8.50000000E-01  8.50000000E-01  8.50000000E-01  8.50000000E-01  8.50000000E-01
  8.50000000E-01  8.50000000E-01  8.50000000E-01  8.50000000E-01  8.50000000E-01
  8.50000000E-01  8.50000000E-01  8.50000000E-01  8.50000000E-01  8.50000000E-01
  8.50000000E-01  8.50000000E-01  8.50000000E-01  8.50000000E-01  8.50000000E-01
  8.50000000E-01  8.50000000E-01  8.50000000E-01  8.50000000E-01  8.50000000E-01
  8.50000000E-01  8.50000000E-01  8.50000000E-01  8.50000000E-01  8.50000000E-01
  8.50000000E-01  8.50000000E-01  8.50000000E-01  8.50000000E-01  8.50000000E-01
  8.50000000E-01  8.50000000E-01  8.50000000E-01  8.50000000E-01  8.50000000E-01
  8.50000000E-01  8.50000000E-01  8.50000000E-01  8.50000000E-01  8.50000000E-01
  8.50000000E-01  8.50000000E-01  8.50000000E-01  8.50000000E-01  8.50000000E-01
  8.50000000E-01  8.50000000E-01  8.50000000E-01  8.50000000E-01  8.50000000E-01
  8.50000000E-01  8.50000000E-01  8.50000000E-01  8.50000000E-01  8.50000000E-01
  8.50000000E-01  8.50000000E-01  8.50000000E-01  8.50000000E-01  8.50000000E-01
  8.50000000E-01  8.50000000E-01  8.50000000E-01  8.50000000E-01  8.50000000E-01
  8.50000000E-01  8.50000000E-01  8.50000000E-01  8.50000000E-01  8.50000000E-01
  8.50000000E-01  8.50000000E-01  8.50000000E-01  8.50000000E-01  8.50000000E-01
  8.50000000E-01  8.50000000E-01  8.50000000E-01  8.50000000E-01  8.50000000E-01
  8.50000000E-01  8.50000000E-01  8.50000000E-01  8.50000000E-01  8.50000000E-01
  8.50000000E-01  8.50000000E-01  8.50000000E-01  8.50000000E-01  8.50000000E-01
  8.50000000E-01  8.50000000E-01  8.50000000E-01  8.50000000E-01  8.50000000E-01
  8.50000000E-01  8.50000000E-01  8.50000000E-01  8.50000000E-01  8.50000000E-01
  8.50000000E-01  8.50000000E-01  8.50000000E-01  8.50000000E-01  8.50000000E-01
  8.50000000E-01  8.50000000E-01  8.50000000E-01  8.50000000E-01  8.50000000E-01
  8.50000000E-01  8.50000000E-01  8.50000000E-01  8.50000000E-01  8.50000000E-01
  8.50000000E-01  8.50000000E-01  8.50000000E-01  8.50000000E-01  8.50000000E-01
  8.50000000E-01  8.50000000E-01  8.50000000E-01  8.50000000E-01  8.50000000E-01
  8.50000000E-01  8.50000000E-01  8.50000000E-01  8.50000000E-01  8.50000000E-01
  8.50000000E-01  8.50000000E-01  8.50000000E-01  8.50000000E-01  8.50000000E-01
  8.50000000E-01  8.50000000E-01  8.50000000E-01  8.50000000E-01  8.50000000E-01
  8.50000000E-01  8.50000000E-01  8.50000000E-01  8.50000000E-01  8.50000000E-01
  8.50000000E-01  8.50000000E-01  8.50000000E-01  8.50000000E-01  8.50000000E-01
  8.50000000E-01  8.50000000E-01  8.50000000E-01  8.50000000E-01  8.50000000E-01
  8.50000000E-01  8.50000000E-01  8.50000000E-01  8.50000000E-01  8.50000000E-01
  8.50000000E-01  8.50000000E-01  8.50000000E-01  8.50000000E-01  8.50000000E-01
  8.50000000E-01  8.50000000E-01  8.50000000E-01  8.50000000E-01  8.50000000E-01
  8.50000000E-01  8.50000000E-01  8.50000000E-01  8.50000000E-01  8.50000000E-01
  8.50000000E-01  8.50000000E-01  8.50000000E-01  8.50000000E-01  8.50000000E-01
  8.50000000E-01  8.50000000E-01  8.50000000E-01  8.50000000E-01  8.50000000E-01
  8.50000000E-01  8.50000000E-01  8.50000000E-01  8.50000000E-01  8.50000000E-01
  8.50000000E-01  8.50000000E-01  8.50000000E-01  8.50000000E-01  8.50000000E-01
  8.50000000E-01  8.50000000E-01  8.50000000E-01  8.50000000E-01  8.50000000E-01
  8.50000000E-01  8.50000000E-01  8.50000000E-01  8.50000000E-01  8.50000000E-01
  8.50000000E-01  8.50000000E-01  8.50000000E-01  8.50000000E-01  8.50000000E-01
  8.50000000E-01  8.50000000E-01  8.50000000E-01  8.50000000E-01  8.50000000E-01
  8.50000000E-01  8.50000000E-01  8.50000000E-01  8.50000000E-01  8.50000000E-01
  8.50000000E-01  8.50000000E-01  8.50000000E-01  8.50000000E-01  8.50000000E-01
  8.50000000E-01  8.50000000E-01  8.50000000E-01  8.50000000E-01  8.50000000E-01
  8.50000000E-01  8.50000000E-01  8.50000000E-01  8.50000000E-01  8.50000000E-01
  8.50000000E-01  8.50000000E-01  8.50000000E-01  8.50000000E-01  8.50000000E-01
  8.50000000E-01  8.50000000E-01  8.50000000E-01  8.50000000E-01  8.50000000E-01
  8.50000000E-01  8.50000000E-01  8.50000000E-01  8.50000000E-01  8.50000000E-01
  8.50000000E-01  8.50000000E-01  8.50000000E-01  8.50000000E-01  8.50000000E-01
  8.50000000E-01  8.50000000E-01  8.50000000E-01  8.50000000E-01  8.50000000E-01
  8.50000000E-01  8.50000000E-01  8.50000000E-01  8.50000000E-01  8.50000000E-01
  8.50000000E-01  8.50000000E-01  8.50000000E-01  8.50000000E-01  8.50000000E-01
  8.50000000E-01  8.50000000E-01  8.50000000E-01  8.50000000E-01  8.50000000E-01
  8.50000000E-01  8.50000000E-01  8.50000000E-01  8.50000000E-01  8.50000000E-01
  8.50000000E-01  8.50000000E-01  8.50000000E-01  8.50000000E-01  8.50000000E-01
  8.50000000E-01  8.50000000E-01  8.50000000E-01  8.50000000E-01  8.50000000E-01
  8.50000000E-01  8.50000000E-01  8.50000000E-01  8.50000000E-01  8.50000000E-01
  8.50000000E-01  8.50000000E-01  8.50000000E-01  8.50000000E-01  8.50000000E-01
  8.50000000E-01  8.50000000E-01  8.50000000E-01  8.50000000E-01  8.50000000E-01
  8.50000000E-01  8.50000000E-01  8.50000000E-01  8.50000000E-01  8.50000000E-01
  8.50000000E-01  8.50000000E-01  8.50000000E-01  8.50000000E-01  8.50000000E-01
  8.50000000E-01  8.50000000E-01  8.50000000E-01  8.50000000E-01  8.50000000E-01
  8.50000000E-01  8.50000000E-01  8.50000000E-01  8.50000000E-01  8.50000000E-01
  8.50000000E-01  8.50000000E-01  8.50000000E-01  8.50000000E-01  8.50000000E-01
  8.50000000E-01  8.50000000E-01  8.50000000E-01  8.50000000E-01  8.50000000E-01
  8.50000000E-01  8.50000000E-01  8.50000000E-01  8.50000000E-01  8.50000000E-01
  8.50000000E-01  8.50000000E-01  8.50000000E-01  8.50000000E-01  8.50000000E-01
  8.50000000E-01  8.50000000E-01  8.50000000E-01  8.50000000E-01  8.50000000E-01
  8.50000000E-01  8.50000000E-01  8.50000000E-01  8.50000000E-01  8.50000000E-01
  8.50000000E-01  8.50000000E-01  8.50000000E-01  8.50000000E-01  8.50000000E-01
  8.50000000E-01  8.50000000E-01  8.50000000E-01  8.50000000E-01  8.50000000E-01
  8.50000000E-01  8.50000000E-01  8.50000000E-01  8.50000000E-01  8.50000000E-01
  8.50000000E-01  8.50000000E-01  8.50000000E-01  8.50000000E-01  8.50000000E-01
  8.50000000E-01  8.50000000E-01  8.50000000E-01  8.50000000E-01  8.50000000E-01
  8.50000000E-01  8.50000000E-01  8.50000000E-01  8.50000000E-01  8.50000000E-01
  8.50000000E-01  8.50000000E-01  8.50000000E-01  8.50000000E-01  8.50000000E-01
  8.50000000E-01  8.50000000E-01  8.50000000E-01  8.50000000E-01  8.50000000E-01
  8.50000000E-01  8.50000000E-01  8.50000000E-01  8.50000000E-01  8.50000000E-01
  8.50000000E-01  8.50000000E-01  8.50000000E-01  8.50000000E-01  8.50000000E-01
  8.50000000E-01  8.50000000E-01  8.50000000E-01  8.50000000E-01  8.50000000E-01
  8.50000000E-01  8.50000000E-01  8.50000000E-01  8.50000000E-01  8.50000000E-01
  8.50000000E-01  8.50000000E-01  8.50000000E-01  8.50000000E-01  8.50000000E-01
  8.50000000E-01  8.50000000E-01  8.50000000E-01  8.50000000E-01  8.50000000E-01
  8.50000000E-01  8.50000000E-01  8.50000000E-01  8.50000000E-01  8.50000000E-01
  8.50000000E-01  8.50000000E-01  8.50000000E-01  8.50000000E-01  8.50000000E-01
  8.50000000E-01  8.50000000E-01  8.50000000E-01  8.50000000E-01  8.50000000E-01
  8.50000000E-01  8.50000000E-01  8.50000000E-01  8.50000000E-01  8.50000000E-01
  8.50000000E-01  8.50000000E-01  8.50000000E-01  8.50000000E-01  8.50000000E-01
  8.50000000E-01  8.50000000E-01  8.50000000E-01  8.50000000E-01  8.50000000E-01
  8.50000000E-01  8.50000000E-01  8.50000000E-01  8.50000000E-01  8.50000000E-01
  8.50000000E-01  8.50000000E-01  8.50000000E-01  8.50000000E-01  8.50000000E-01
  8.50000000E-01  8.50000000E-01  8.50000000E-01  8.50000000E-01  8.50000000E-01
  8.50000000E-01  8.50000000E-01  8.50000000E-01  8.50000000E-01  8.50000000E-01
  8.50000000E-01  8.50000000E-01  8.50000000E-01  8.50000000E-01  8.50000000E-01
  8.50000000E-01  8.50000000E-01  8.50000000E-01  8.50000000E-01  8.50000000E-01
  8.50000000E-01  8.50000000E-01  8.50000000E-01  8.50000000E-01  8.50000000E-01
  8.50000000E-01  8.50000000E-01  8.50000000E-01  8.50000000E-01  8.50000000E-01
  8.50000000E-01  8.50000000E-01  8.50000000E-01  8.50000000E-01  8.50000000E-01
  8.50000000E-01  8.50000000E-01  8.50000000E-01  8.50000000E-01  8.50000000E-01
  8.50000000E-01  8.50000000E-01  8.50000000E-01  8.50000000E-01  8.50000000E-01
  8.50000000E-01  8.50000000E-01  8.50000000E-01  8.50000000E-01  8.50000000E-01
  8.50000000E-01  8.50000000E-01  8.50000000E-01  8.50000000E-01  8.50000000E-01
  8.50000000E-01  8.50000000E-01  8.50000000E-01  8.50000000E-01  8.50000000E-01
  8.50000000E-01  8.50000000E-01  8.50000000E-01  8.50000000E-01  8.50000000E-01
  8.50000000E-01  8.50000000E-01  8.50000000E-01  8.50000000E-01  8.50000000E-01
  8.50000000E-01  8.50000000E-01  8.50000000E-01  8.50000000E-01  8.50000000E-01
  8.50000000E-01  8.50000000E-01  8.50000000E-01  8.50000000E-01  8.50000000E-01
  8.50000000E-01  8.50000000E-01  8.50000000E-01  8.50000000E-01  8.50000000E-01
  8.50000000E-01  8.50000000E-01  8.50000000E-01  8.50000000E-01  8.50000000E-01
  8.50000000E-01  8.50000000E-01  8.50000000E-01  8.50000000E-01  8.50000000E-01
  8.50000000E-01  8.50000000E-01  8.50000000E-01  8.50000000E-01  8.50000000E-01
  8.50000000E-01  8.50000000E-01  8.50000000E-01  8.50000000E-01  8.50000000E-01
  8.50000000E-01  8.50000000E-01  8.50000000E-01  8.50000000E-01  8.50000000E-01
  8.50000000E-01  8.50000000E-01  8.50000000E-01  8.50000000E-01  8.50000000E-01
  8.50000000E-01  8.50000000E-01  8.50000000E-01  8.50000000E-01  8.50000000E-01
  8.50000000E-01  8.50000000E-01  8.50000000E-01  8.50000000E-01  8.50000000E-01
  8.50000000E-01  8.50000000E-01  8.50000000E-01  8.50000000E-01  8.50000000E-01
  8.50000000E-01  8.50000000E-01  8.50000000E-01  8.50000000E-01  8.50000000E-01
  8.50000000E-01  8.50000000E-01  8.50000000E-01  8.50000000E-01  8.50000000E-01
  8.50000000E-01  8.50000000E-01  8.50000000E-01  8.50000000E-01  8.50000000E-01
  8.50000000E-01  8.50000000E-01  8.50000000E-01  8.50000000E-01  8.50000000E-01
  8.50000000E-01  8.50000000E-01  8.50000000E-01  8.50000000E-01  8.50000000E-01
  8.50000000E-01  8.50000000E-01  8.50000000E-01  8.50000000E-01  8.50000000E-01
  8.50000000E-01  8.50000000E-01  8.50000000E-01  8.50000000E-01  8.50000000E-01
  8.50000000E-01  8.50000000E-01  8.50000000E-01  8.50000000E-01  8.50000000E-01
  8.50000000E-01  8.50000000E-01  8.50000000E-01  8.50000000E-01  8.50000000E-01
  8.50000000E-01  8.50000000E-01  8.50000000E-01  8.50000000E-01  8.50000000E-01
  8.50000000E-01  8.50000000E-01  8.50000000E-01  8.50000000E-01  8.50000000E-01
  8.50000000E-01  8.50000000E-01  8.50000000E-01  8.50000000E-01  8.50000000E-01
  8.50000000E-01  8.50000000E-01  8.50000000E-01  8.50000000E-01  8.50000000E-01
  8.50000000E-01  8.50000000E-01  8.50000000E-01  8.50000000E-01  8.50000000E-01
  8.50000000E-01  8.50000000E-01  8.50000000E-01  8.50000000E-01  8.50000000E-01
  8.50000000E-01  8.50000000E-01  8.50000000E-01  8.50000000E-01  8.50000000E-01
  8.50000000E-01  8.50000000E-01  8.50000000E-01  8.50000000E-01  8.50000000E-01
  8.50000000E-01  8.50000000E-01  8.50000000E-01  8.50000000E-01  8.50000000E-01
  8.50000000E-01  8.50000000E-01  8.50000000E-01  8.50000000E-01  8.50000000E-01
  8.50000000E-01  8.50000000E-01  8.50000000E-01  8.50000000E-01  8.50000000E-01
  8.50000000E-01  8.50000000E-01  8.50000000E-01  8.50000000E-01  8.50000000E-01
  8.50000000E-01  8.50000000E-01  8.50000000E-01  8.50000000E-01  8.50000000E-01
  8.50000000E-01  8.50000000E-01  8.50000000E-01  8.50000000E-01  8.50000000E-01
  8.50000000E-01  8.50000000E-01  8.50000000E-01  8.50000000E-01  8.50000000E-01
  8.50000000E-01  8.50000000E-01  8.50000000E-01  8.50000000E-01  8.50000000E-01
  8.50000000E-01  8.50000000E-01  8.50000000E-01  8.50000000E-01  8.50000000E-01
  8.50000000E-01  8.50000000E-01  8.50000000E-01  8.50000000E-01  8.50000000E-01
  8.50000000E-01  8.50000000E-01  8.50000000E-01  8.50000000E-01  8.50000000E-01
  8.50000000E-01  8.50000000E-01  8.50000000E-01  8.50000000E-01  8.50000000E-01
  8.50000000E-01  8.50000000E-01  8.50000000E-01  8.50000000E-01  8.50000000E-01
  8.50000000E-01  8.50000000E-01  8.50000000E-01  8.50000000E-01  8.50000000E-01
  8.50000000E-01  8.50000000E-01  8.50000000E-01  8.50000000E-01  8.50000000E-01
  8.50000000E-01  8.50000000E-01  8.50000000E-01  8.50000000E-01  8.50000000E-01
  8.50000000E-01  8.50000000E-01  8.50000000E-01  8.50000000E-01  8.50000000E-01
  8.50000000E-01  8.50000000E-01  8.50000000E-01  8.50000000E-01  8.50000000E-01
  8.50000000E-01  8.50000000E-01  8.50000000E-01  8.50000000E-01  8.50000000E-01
  8.50000000E-01  8.50000000E-01  8.50000000E-01  8.50000000E-01  8.50000000E-01
  8.50000000E-01  8.50000000E-01  8.50000000E-01  8.50000000E-01  8.50000000E-01
  8.50000000E-01  8.50000000E-01  8.50000000E-01  8.50000000E-01  8.50000000E-01
  8.50000000E-01  8.50000000E-01  8.50000000E-01  8.50000000E-01  8.50000000E-01
  8.50000000E-01  8.50000000E-01  8.50000000E-01  8.50000000E-01  8.50000000E-01
  8.50000000E-01  8.50000000E-01  8.50000000E-01  8.50000000E-01  8.50000000E-01
  8.50000000E-01  8.50000000E-01  8.50000000E-01  8.50000000E-01  8.50000000E-01
  8.50000000E-01  8.50000000E-01  8.50000000E-01  8.50000000E-01  8.50000000E-01
  8.50000000E-01  8.50000000E-01  8.50000000E-01  8.50000000E-01  8.50000000E-01
  8.50000000E-01  8.50000000E-01  8.50000000E-01  8.50000000E-01  8.50000000E-01
  8.50000000E-01  8.50000000E-01  8.50000000E-01  8.50000000E-01  8.50000000E-01
  8.50000000E-01  8.50000000E-01  8.50000000E-01  8.50000000E-01  8.50000000E-01
  8.50000000E-01  8.50000000E-01  8.50000000E-01  8.50000000E-01  8.50000000E-01
  8.50000000E-01  8.50000000E-01  8.50000000E-01  8.50000000E-01  8.50000000E-01
  8.50000000E-01  8.50000000E-01  8.50000000E-01  8.50000000E-01  8.50000000E-01
  8.50000000E-01  8.50000000E-01  8.50000000E-01  8.50000000E-01  8.50000000E-01
  8.50000000E-01  8.50000000E-01  8.50000000E-01  8.50000000E-01  8.50000000E-01
  8.50000000E-01  8.50000000E-01  8.50000000E-01  8.50000000E-01  8.50000000E-01
  8.50000000E-01  8.50000000E-01  8.50000000E-01  8.50000000E-01  8.50000000E-01
  8.50000000E-01  8.50000000E-01  8.50000000E-01  8.50000000E-01  8.50000000E-01
  8.50000000E-01  8.50000000E-01  8.50000000E-01  8.50000000E-01  8.50000000E-01
  8.50000000E-01  8.50000000E-01  8.50000000E-01  8.50000000E-01  8.50000000E-01
  8.50000000E-01  8.50000000E-01  8.50000000E-01  8.50000000E-01  8.50000000E-01
  8.50000000E-01  8.50000000E-01  8.50000000E-01  8.50000000E-01  8.50000000E-01
  8.50000000E-01  8.50000000E-01  8.50000000E-01  8.50000000E-01  8.50000000E-01
  8.50000000E-01  8.50000000E-01  8.50000000E-01  8.50000000E-01  8.50000000E-01
  8.50000000E-01  8.50000000E-01  8.50000000E-01  8.50000000E-01  8.50000000E-01
  8.50000000E-01  8.50000000E-01  8.50000000E-01  8.50000000E-01  8.50000000E-01
  8.50000000E-01  8.50000000E-01  8.50000000E-01  8.50000000E-01  8.50000000E-01
  8.50000000E-01  8.50000000E-01  8.50000000E-01  8.50000000E-01  8.50000000E-01
  8.50000000E-01  8.50000000E-01  8.50000000E-01  8.50000000E-01  8.50000000E-01
  8.50000000E-01  8.50000000E-01  8.50000000E-01  8.50000000E-01  8.50000000E-01
  8.50000000E-01  8.50000000E-01  8.50000000E-01  8.50000000E-01  8.50000000E-01
  8.50000000E-01  8.50000000E-01  8.50000000E-01  8.50000000E-01  8.50000000E-01
  8.50000000E-01  8.50000000E-01  8.50000000E-01  8.50000000E-01  8.50000000E-01
  8.50000000E-01  8.50000000E-01  8.50000000E-01  8.50000000E-01  8.50000000E-01
  8.50000000E-01  8.50000000E-01  8.50000000E-01  8.50000000E-01  8.50000000E-01
  8.50000000E-01  8.50000000E-01  8.50000000E-01  8.50000000E-01  8.50000000E-01
  8.50000000E-01  8.50000000E-01  8.50000000E-01  8.50000000E-01  8.50000000E-01
  8.50000000E-01  8.50000000E-01  8.50000000E-01  8.50000000E-01  8.50000000E-01
  8.50000000E-01  8.50000000E-01  8.50000000E-01  8.50000000E-01  8.50000000E-01
  8.50000000E-01  8.50000000E-01  8.50000000E-01  8.50000000E-01  8.50000000E-01
  8.50000000E-01  8.50000000E-01  8.50000000E-01  8.50000000E-01  8.50000000E-01
  8.50000000E-01  8.50000000E-01  8.50000000E-01  8.50000000E-01  8.50000000E-01
  8.50000000E-01  8.50000000E-01  8.50000000E-01  8.50000000E-01  8.50000000E-01
  8.50000000E-01  8.50000000E-01  8.50000000E-01  8.50000000E-01  8.50000000E-01
  8.50000000E-01  8.50000000E-01  8.50000000E-01  8.50000000E-01  8.50000000E-01
  8.50000000E-01  8.50000000E-01  8.50000000E-01  8.50000000E-01  8.50000000E-01
  8.50000000E-01  8.50000000E-01  8.50000000E-01  8.50000000E-01  8.50000000E-01
  8.50000000E-01  8.50000000E-01  8.50000000E-01  8.50000000E-01  8.50000000E-01
  8.50000000E-01  8.50000000E-01  8.50000000E-01  8.50000000E-01  8.50000000E-01
  8.50000000E-01  8.50000000E-01  8.50000000E-01  8.50000000E-01  8.50000000E-01
  8.50000000E-01  8.50000000E-01  8.50000000E-01  8.50000000E-01  8.50000000E-01
  8.50000000E-01  8.50000000E-01  8.50000000E-01  8.50000000E-01  8.50000000E-01
  8.50000000E-01  8.50000000E-01  8.50000000E-01  8.50000000E-01  8.50000000E-01
  8.50000000E-01  8.50000000E-01  8.50000000E-01  8.50000000E-01  8.50000000E-01
  8.50000000E-01  8.50000000E-01  8.50000000E-01  8.50000000E-01  8.50000000E-01
  8.50000000E-01  8.50000000E-01  8.50000000E-01  8.50000000E-01  8.50000000E-01
  8.50000000E-01  8.50000000E-01  8.50000000E-01  8.50000000E-01  8.50000000E-01
  8.50000000E-01  8.50000000E-01  8.50000000E-01  8.50000000E-01  8.50000000E-01
  8.50000000E-01  8.50000000E-01  8.50000000E-01  8.50000000E-01  8.50000000E-01
  8.50000000E-01  8.50000000E-01  8.50000000E-01  8.50000000E-01  8.50000000E-01
  8.50000000E-01  8.50000000E-01  8.50000000E-01  8.50000000E-01  8.50000000E-01
  8.50000000E-01  8.50000000E-01  8.50000000E-01  8.50000000E-01  8.50000000E-01
  8.50000000E-01  8.50000000E-01  8.50000000E-01  8.50000000E-01  8.50000000E-01
  8.50000000E-01  8.50000000E-01  8.50000000E-01  8.50000000E-01  8.50000000E-01
  8.50000000E-01  8.50000000E-01  8.50000000E-01  8.50000000E-01  8.50000000E-01
  8.50000000E-01  8.50000000E-01  8.50000000E-01  8.50000000E-01  8.50000000E-01
  8.50000000E-01  8.50000000E-01  8.50000000E-01  8.50000000E-01  8.50000000E-01
  8.50000000E-01  8.50000000E-01  8.50000000E-01  8.50000000E-01  8.50000000E-01
  8.50000000E-01  8.50000000E-01  8.50000000E-01  8.50000000E-01  8.50000000E-01
  8.50000000E-01  8.50000000E-01  8.50000000E-01  8.50000000E-01  8.50000000E-01
  8.50000000E-01  8.50000000E-01  8.50000000E-01  8.50000000E-01  8.50000000E-01
  8.50000000E-01  8.50000000E-01  8.50000000E-01  8.50000000E-01  8.50000000E-01
  8.50000000E-01  8.50000000E-01  8.50000000E-01  8.50000000E-01  8.50000000E-01
  8.50000000E-01  8.50000000E-01  8.50000000E-01  8.50000000E-01  8.50000000E-01
  8.50000000E-01  8.50000000E-01  8.50000000E-01  8.50000000E-01  8.50000000E-01
  8.50000000E-01  8.50000000E-01  8.50000000E-01  8.50000000E-01  8.50000000E-01
  8.50000000E-01  8.50000000E-01  8.50000000E-01  8.50000000E-01  8.50000000E-01
  8.50000000E-01  8.50000000E-01  8.50000000E-01  8.50000000E-01  8.50000000E-01
  8.50000000E-01  8.50000000E-01  8.50000000E-01  8.50000000E-01  8.50000000E-01
  8.50000000E-01  8.50000000E-01  8.50000000E-01  8.50000000E-01  8.50000000E-01
  8.50000000E-01  8.50000000E-01  8.50000000E-01  8.50000000E-01  8.50000000E-01
  8.50000000E-01  8.50000000E-01  8.50000000E-01  8.50000000E-01  8.50000000E-01
  8.50000000E-01  8.50000000E-01  8.50000000E-01  8.50000000E-01  8.50000000E-01
  8.50000000E-01  8.50000000E-01  8.50000000E-01  8.50000000E-01  8.50000000E-01
  8.50000000E-01  8.50000000E-01  8.50000000E-01  8.50000000E-01  8.50000000E-01
  8.50000000E-01  8.50000000E-01  8.50000000E-01  8.50000000E-01  8.50000000E-01
  8.50000000E-01  8.50000000E-01  8.50000000E-01  8.50000000E-01  8.50000000E-01
  8.50000000E-01  8.50000000E-01  8.50000000E-01  8.50000000E-01  8.50000000E-01
  8.50000000E-01  8.50000000E-01  8.50000000E-01  8.50000000E-01  8.50000000E-01
  8.50000000E-01  8.50000000E-01  8.50000000E-01  8.50000000E-01  8.50000000E-01
  8.50000000E-01  8.50000000E-01  8.50000000E-01  8.50000000E-01  8.50000000E-01
  8.50000000E-01  8.50000000E-01  8.50000000E-01  8.50000000E-01  8.50000000E-01
  8.50000000E-01  8.50000000E-01  8.50000000E-01  8.50000000E-01  8.50000000E-01
  8.50000000E-01  8.50000000E-01  8.50000000E-01  8.50000000E-01  8.50000000E-01
  8.50000000E-01  8.50000000E-01  8.50000000E-01  8.50000000E-01  8.50000000E-01
  8.50000000E-01  8.50000000E-01  8.50000000E-01  8.50000000E-01  8.50000000E-01
  8.50000000E-01  8.50000000E-01  8.50000000E-01  8.50000000E-01  8.50000000E-01
  8.50000000E-01  8.50000000E-01  8.50000000E-01  8.50000000E-01  8.50000000E-01
  8.50000000E-01  8.50000000E-01  8.50000000E-01  8.50000000E-01  8.50000000E-01
  8.50000000E-01  8.50000000E-01  8.50000000E-01  8.50000000E-01  8.50000000E-01
  8.50000000E-01  8.50000000E-01  8.50000000E-01  8.50000000E-01  8.50000000E-01
  8.50000000E-01  8.50000000E-01  8.50000000E-01  8.50000000E-01  8.50000000E-01
  8.50000000E-01  8.50000000E-01  8.50000000E-01  8.50000000E-01  8.50000000E-01
  8.50000000E-01  8.50000000E-01  8.50000000E-01  8.50000000E-01  8.50000000E-01
  8.50000000E-01  8.50000000E-01  8.50000000E-01  8.50000000E-01  8.50000000E-01
  8.50000000E-01  8.50000000E-01  8.50000000E-01  8.50000000E-01  8.50000000E-01
  8.50000000E-01  8.50000000E-01  8.50000000E-01  8.50000000E-01  8.50000000E-01
  8.50000000E-01  8.50000000E-01  8.50000000E-01  8.50000000E-01  8.50000000E-01
  8.50000000E-01  8.50000000E-01  8.50000000E-01  8.50000000E-01  8.50000000E-01
  8.50000000E-01  8.50000000E-01  8.50000000E-01  8.50000000E-01  8.50000000E-01
  8.50000000E-01  8.50000000E-01  8.50000000E-01  8.50000000E-01  8.50000000E-01
  8.50000000E-01  8.50000000E-01  8.50000000E-01  8.50000000E-01  8.50000000E-01
  8.50000000E-01  8.50000000E-01  8.50000000E-01  8.50000000E-01  8.50000000E-01
  8.50000000E-01  8.50000000E-01  8.50000000E-01  8.50000000E-01  8.50000000E-01
  8.50000000E-01  8.50000000E-01  8.50000000E-01  8.50000000E-01  8.50000000E-01
  8.50000000E-01  8.50000000E-01  8.50000000E-01  8.50000000E-01  8.50000000E-01
  8.50000000E-01  8.50000000E-01  8.50000000E-01  8.50000000E-01  8.50000000E-01
  8.50000000E-01  8.50000000E-01  8.50000000E-01  8.50000000E-01  8.50000000E-01
  8.50000000E-01  8.50000000E-01  8.50000000E-01  8.50000000E-01  8.50000000E-01
  8.50000000E-01  8.50000000E-01  8.50000000E-01  8.50000000E-01  8.50000000E-01
  8.50000000E-01  8.50000000E-01  8.50000000E-01  8.50000000E-01  8.50000000E-01
  8.50000000E-01  8.50000000E-01  8.50000000E-01  8.50000000E-01  8.50000000E-01
  8.50000000E-01  8.50000000E-01  8.50000000E-01  8.50000000E-01  8.50000000E-01
  8.50000000E-01  8.50000000E-01  8.50000000E-01  8.50000000E-01  8.50000000E-01
  8.50000000E-01  8.50000000E-01  8.50000000E-01  8.50000000E-01  8.50000000E-01
  8.50000000E-01  8.50000000E-01  8.50000000E-01  8.50000000E-01  8.50000000E-01
  8.50000000E-01  8.50000000E-01  8.50000000E-01  8.50000000E-01  8.50000000E-01
  8.50000000E-01  8.50000000E-01  8.50000000E-01  8.50000000E-01  8.50000000E-01
  8.50000000E-01  8.50000000E-01  8.50000000E-01  8.50000000E-01  8.50000000E-01
  8.50000000E-01  8.50000000E-01  8.50000000E-01  8.50000000E-01  8.50000000E-01
  8.50000000E-01  8.50000000E-01  8.50000000E-01  8.50000000E-01  8.50000000E-01
  8.50000000E-01  8.50000000E-01  8.50000000E-01  8.50000000E-01  8.50000000E-01
  8.50000000E-01  8.50000000E-01  8.50000000E-01  8.50000000E-01  8.50000000E-01
  8.50000000E-01  8.50000000E-01  8.50000000E-01  8.50000000E-01  8.50000000E-01
  8.50000000E-01  8.50000000E-01  8.50000000E-01  8.50000000E-01  8.50000000E-01
  8.50000000E-01  8.50000000E-01  8.50000000E-01  8.50000000E-01  8.50000000E-01
  8.50000000E-01  8.50000000E-01  8.50000000E-01  8.50000000E-01  8.50000000E-01
  8.50000000E-01  8.50000000E-01  8.50000000E-01  8.50000000E-01  8.50000000E-01
  8.50000000E-01  8.50000000E-01  8.50000000E-01  8.50000000E-01  8.50000000E-01
  8.50000000E-01  8.50000000E-01  8.50000000E-01  8.50000000E-01  8.50000000E-01
  8.50000000E-01  8.50000000E-01  8.50000000E-01  8.50000000E-01  8.50000000E-01
  8.50000000E-01  8.50000000E-01  8.50000000E-01  8.50000000E-01  8.50000000E-01
  8.50000000E-01  8.50000000E-01  8.50000000E-01  8.50000000E-01  8.50000000E-01
  8.50000000E-01  8.50000000E-01  8.50000000E-01  8.50000000E-01  8.50000000E-01
  8.50000000E-01  8.50000000E-01  8.50000000E-01  8.50000000E-01  8.50000000E-01
  8.50000000E-01  8.50000000E-01  8.50000000E-01  8.50000000E-01  8.50000000E-01
  8.50000000E-01  8.50000000E-01  8.50000000E-01  8.50000000E-01  8.50000000E-01
  8.50000000E-01  8.50000000E-01  8.50000000E-01  8.50000000E-01  8.50000000E-01
  8.50000000E-01  8.50000000E-01  8.50000000E-01  8.50000000E-01  8.50000000E-01
  8.50000000E-01  8.50000000E-01  8.50000000E-01  8.50000000E-01  8.50000000E-01
  8.50000000E-01  8.50000000E-01  8.50000000E-01  8.50000000E-01  8.50000000E-01
  8.50000000E-01  8.50000000E-01  8.50000000E-01  8.50000000E-01  8.50000000E-01
  8.50000000E-01  8.50000000E-01  8.50000000E-01  8.50000000E-01  8.50000000E-01
  8.50000000E-01  8.50000000E-01  8.50000000E-01  8.50000000E-01  8.50000000E-01
  8.50000000E-01  8.50000000E-01  8.50000000E-01  8.50000000E-01  8.50000000E-01
  8.50000000E-01  8.50000000E-01  8.50000000E-01  8.50000000E-01  8.50000000E-01
  8.50000000E-01  8.50000000E-01  8.50000000E-01  8.50000000E-01  8.50000000E-01
  8.50000000E-01  8.50000000E-01  8.50000000E-01  8.50000000E-01  8.50000000E-01
  8.50000000E-01  8.50000000E-01  8.50000000E-01  8.50000000E-01  8.50000000E-01
  8.50000000E-01  8.50000000E-01  8.50000000E-01  8.50000000E-01  8.50000000E-01
  8.50000000E-01  8.50000000E-01  8.50000000E-01  8.50000000E-01  8.50000000E-01
  8.50000000E-01  8.50000000E-01  8.50000000E-01  8.50000000E-01  8.50000000E-01
  8.50000000E-01  8.50000000E-01  8.50000000E-01  8.50000000E-01  8.50000000E-01
  8.50000000E-01  8.50000000E-01  8.50000000E-01  8.50000000E-01  8.50000000E-01
  8.50000000E-01  8.50000000E-01  8.50000000E-01  8.50000000E-01  8.50000000E-01
  8.50000000E-01  8.50000000E-01  8.50000000E-01  8.50000000E-01  8.50000000E-01
  8.50000000E-01  8.50000000E-01  8.50000000E-01  8.50000000E-01  8.50000000E-01
  8.50000000E-01  8.50000000E-01  8.50000000E-01  8.50000000E-01  8.50000000E-01
  8.50000000E-01  8.50000000E-01  8.50000000E-01  8.50000000E-01  8.50000000E-01
  8.50000000E-01  8.50000000E-01  8.50000000E-01  8.50000000E-01  8.50000000E-01
  8.50000000E-01  8.50000000E-01  8.50000000E-01  8.50000000E-01  8.50000000E-01
  8.50000000E-01  8.50000000E-01  8.50000000E-01  8.50000000E-01  8.50000000E-01
  8.50000000E-01  8.50000000E-01  8.50000000E-01  8.50000000E-01  8.50000000E-01
  8.50000000E-01  8.50000000E-01  8.50000000E-01  8.50000000E-01  8.50000000E-01
  8.50000000E-01  8.50000000E-01  8.50000000E-01  8.50000000E-01  8.50000000E-01
  8.50000000E-01  8.50000000E-01  8.50000000E-01  8.50000000E-01  8.50000000E-01
  8.50000000E-01  8.50000000E-01  8.50000000E-01  8.50000000E-01  8.50000000E-01
  8.50000000E-01  8.50000000E-01  8.50000000E-01  8.50000000E-01  8.50000000E-01
  8.50000000E-01  8.50000000E-01  8.50000000E-01  8.50000000E-01  8.50000000E-01
  8.50000000E-01  8.50000000E-01  8.50000000E-01  8.50000000E-01  8.50000000E-01
  8.50000000E-01  8.50000000E-01  8.50000000E-01  8.50000000E-01  8.50000000E-01
  8.50000000E-01  8.50000000E-01  8.50000000E-01  8.50000000E-01  8.50000000E-01
  8.50000000E-01  8.50000000E-01  8.50000000E-01  8.50000000E-01  8.50000000E-01
  8.50000000E-01  8.50000000E-01  8.50000000E-01  8.50000000E-01  8.50000000E-01
  8.50000000E-01  8.50000000E-01  8.50000000E-01  8.50000000E-01  8.50000000E-01
  8.50000000E-01  8.50000000E-01  8.50000000E-01  8.50000000E-01  8.50000000E-01
  8.50000000E-01  8.50000000E-01  8.50000000E-01  8.50000000E-01  8.50000000E-01
  8.50000000E-01  8.50000000E-01  8.50000000E-01  8.50000000E-01  8.50000000E-01
  8.50000000E-01  8.50000000E-01  8.50000000E-01  8.50000000E-01  8.50000000E-01
  8.50000000E-01  8.50000000E-01  8.50000000E-01  8.50000000E-01  8.50000000E-01
  8.50000000E-01  8.50000000E-01  8.50000000E-01  8.50000000E-01  8.50000000E-01
  8.50000000E-01  8.50000000E-01  8.50000000E-01  8.50000000E-01  8.50000000E-01
  8.50000000E-01  8.50000000E-01  8.50000000E-01  8.50000000E-01  8.50000000E-01
  8.50000000E-01  8.50000000E-01  8.50000000E-01  8.50000000E-01  8.50000000E-01
  8.50000000E-01  8.50000000E-01  8.50000000E-01  8.50000000E-01  8.50000000E-01
  8.50000000E-01  8.50000000E-01  8.50000000E-01  8.50000000E-01  8.50000000E-01
  8.50000000E-01  8.50000000E-01  8.50000000E-01  8.50000000E-01  8.50000000E-01
  8.50000000E-01  8.50000000E-01  8.50000000E-01  8.50000000E-01  8.50000000E-01
  8.50000000E-01  8.50000000E-01  8.50000000E-01  8.50000000E-01  8.50000000E-01
  8.50000000E-01  8.50000000E-01  8.50000000E-01  8.50000000E-01  8.50000000E-01
  8.50000000E-01  8.50000000E-01  8.50000000E-01  8.50000000E-01  8.50000000E-01
  8.50000000E-01  8.50000000E-01  8.50000000E-01  8.50000000E-01  8.50000000E-01
  8.50000000E-01  8.50000000E-01  8.50000000E-01  8.50000000E-01  8.50000000E-01
  8.50000000E-01  8.50000000E-01  8.50000000E-01  8.50000000E-01  8.50000000E-01
  8.50000000E-01  8.50000000E-01  8.50000000E-01  8.50000000E-01  8.50000000E-01
  8.50000000E-01  8.50000000E-01  8.50000000E-01  8.50000000E-01  8.50000000E-01
  8.50000000E-01  8.50000000E-01  8.50000000E-01  8.50000000E-01  8.50000000E-01
  8.50000000E-01  8.50000000E-01  8.50000000E-01  8.50000000E-01  8.50000000E-01
  8.50000000E-01  8.50000000E-01  8.50000000E-01  8.50000000E-01  8.50000000E-01
  8.50000000E-01  8.50000000E-01  8.50000000E-01  8.50000000E-01  8.50000000E-01
  8.50000000E-01  8.50000000E-01  8.50000000E-01  8.50000000E-01  8.50000000E-01
  8.50000000E-01  8.50000000E-01  8.50000000E-01  8.50000000E-01  8.50000000E-01
  8.50000000E-01  8.50000000E-01  8.50000000E-01  8.50000000E-01  8.50000000E-01
  8.50000000E-01  8.50000000E-01  8.50000000E-01  8.50000000E-01  8.50000000E-01
  8.50000000E-01  8.50000000E-01  8.50000000E-01  8.50000000E-01  8.50000000E-01
  8.50000000E-01  8.50000000E-01  8.50000000E-01  8.50000000E-01  8.50000000E-01
  8.50000000E-01  8.50000000E-01  8.50000000E-01  8.50000000E-01  8.50000000E-01
  8.50000000E-01  8.50000000E-01  8.50000000E-01  8.50000000E-01  8.50000000E-01
  8.50000000E-01  8.50000000E-01  8.50000000E-01  8.50000000E-01  8.50000000E-01
  8.50000000E-01  8.50000000E-01  8.50000000E-01  8.50000000E-01  8.50000000E-01
  8.50000000E-01  8.50000000E-01  8.50000000E-01  8.50000000E-01  8.50000000E-01
  8.50000000E-01  8.50000000E-01  8.50000000E-01  8.50000000E-01  8.50000000E-01
  8.50000000E-01  8.50000000E-01  8.50000000E-01  8.50000000E-01  8.50000000E-01
  8.50000000E-01  8.50000000E-01  8.50000000E-01  8.50000000E-01  8.50000000E-01
  8.50000000E-01  8.50000000E-01  8.50000000E-01  8.50000000E-01  8.50000000E-01
  8.50000000E-01  8.50000000E-01  8.50000000E-01  8.50000000E-01  8.50000000E-01
  8.50000000E-01  8.50000000E-01  8.50000000E-01  8.50000000E-01  8.50000000E-01
  8.50000000E-01  8.50000000E-01  8.50000000E-01  8.50000000E-01  8.50000000E-01
  8.50000000E-01  8.50000000E-01  8.50000000E-01  8.50000000E-01  8.50000000E-01
  8.50000000E-01  8.50000000E-01  8.50000000E-01  8.50000000E-01  8.50000000E-01
  8.50000000E-01  8.50000000E-01  8.50000000E-01  8.50000000E-01  8.50000000E-01
  8.50000000E-01  8.50000000E-01  8.50000000E-01  8.50000000E-01  8.50000000E-01
  8.50000000E-01  8.50000000E-01  8.50000000E-01  8.50000000E-01  8.50000000E-01
  8.50000000E-01  8.50000000E-01  8.50000000E-01  8.50000000E-01  8.50000000E-01
  8.50000000E-01  8.50000000E-01  8.50000000E-01  8.50000000E-01  8.50000000E-01
  8.50000000E-01  8.50000000E-01  8.50000000E-01  8.50000000E-01  8.50000000E-01
  8.50000000E-01  8.50000000E-01  8.50000000E-01  8.50000000E-01  8.50000000E-01
  8.50000000E-01  8.50000000E-01  8.50000000E-01  8.50000000E-01  8.50000000E-01
  8.50000000E-01  8.50000000E-01  8.50000000E-01  8.50000000E-01  8.50000000E-01
  8.50000000E-01  8.50000000E-01  8.50000000E-01  8.50000000E-01  8.50000000E-01
  8.50000000E-01  8.50000000E-01  8.50000000E-01  8.50000000E-01  8.50000000E-01
  8.50000000E-01  8.50000000E-01  8.50000000E-01  8.50000000E-01  8.50000000E-01
  8.50000000E-01  8.50000000E-01  8.50000000E-01  8.50000000E-01  8.50000000E-01
  8.50000000E-01  8.50000000E-01  8.50000000E-01  8.50000000E-01  8.50000000E-01
  8.50000000E-01  8.50000000E-01  8.50000000E-01  8.50000000E-01  8.50000000E-01
  8.50000000E-01  8.50000000E-01  8.50000000E-01  8.50000000E-01  8.50000000E-01
  8.50000000E-01  8.50000000E-01  8.50000000E-01  8.50000000E-01  8.50000000E-01
  8.50000000E-01  8.50000000E-01  8.50000000E-01  8.50000000E-01  8.50000000E-01
  8.50000000E-01  8.50000000E-01  8.50000000E-01  8.50000000E-01  8.50000000E-01
  8.50000000E-01  8.50000000E-01  8.50000000E-01  8.50000000E-01  8.50000000E-01
  8.50000000E-01  8.50000000E-01  8.50000000E-01  8.50000000E-01  8.50000000E-01
  8.50000000E-01  8.50000000E-01  8.50000000E-01  8.50000000E-01  8.50000000E-01
  8.50000000E-01  8.50000000E-01  8.50000000E-01  8.50000000E-01  8.50000000E-01
  8.50000000E-01  8.50000000E-01  8.50000000E-01  8.50000000E-01  8.50000000E-01
  8.50000000E-01  8.50000000E-01  8.50000000E-01  8.50000000E-01  8.50000000E-01
  8.50000000E-01  8.50000000E-01  8.50000000E-01  8.50000000E-01  8.50000000E-01
  8.50000000E-01  8.50000000E-01  8.50000000E-01  8.50000000E-01  8.50000000E-01
  8.50000000E-01  8.50000000E-01  8.50000000E-01  8.50000000E-01  8.50000000E-01
  8.50000000E-01  8.50000000E-01  8.50000000E-01  8.50000000E-01  8.50000000E-01
  8.50000000E-01  8.50000000E-01  8.50000000E-01  8.50000000E-01  8.50000000E-01
  8.50000000E-01  8.50000000E-01  8.50000000E-01  8.50000000E-01  8.50000000E-01
  8.50000000E-01  8.50000000E-01  8.50000000E-01  8.50000000E-01  8.50000000E-01
  8.50000000E-01  8.50000000E-01  8.50000000E-01  8.50000000E-01  8.50000000E-01
  8.50000000E-01  8.50000000E-01  8.50000000E-01  8.50000000E-01  8.50000000E-01
  8.50000000E-01  8.50000000E-01  8.50000000E-01  8.50000000E-01  8.50000000E-01
  8.50000000E-01  8.50000000E-01  8.50000000E-01  8.50000000E-01  8.50000000E-01
  8.50000000E-01  8.50000000E-01  8.50000000E-01  8.50000000E-01  8.50000000E-01
  8.50000000E-01  8.50000000E-01  8.50000000E-01  8.50000000E-01  8.50000000E-01
  8.50000000E-01  8.50000000E-01  8.50000000E-01  8.50000000E-01  8.50000000E-01
  8.50000000E-01  8.50000000E-01  8.50000000E-01  8.50000000E-01  8.50000000E-01
  8.50000000E-01  8.50000000E-01  8.50000000E-01  8.50000000E-01  8.50000000E-01
  8.50000000E-01  8.50000000E-01  8.50000000E-01  8.50000000E-01  8.50000000E-01
  8.50000000E-01  8.50000000E-01  8.50000000E-01  8.50000000E-01  8.50000000E-01
  8.50000000E-01  8.50000000E-01  8.50000000E-01  8.50000000E-01  8.50000000E-01
  8.50000000E-01  8.50000000E-01  8.50000000E-01  8.50000000E-01  8.50000000E-01
  8.50000000E-01  8.50000000E-01  8.50000000E-01  8.50000000E-01  8.50000000E-01
  8.50000000E-01  8.50000000E-01  8.50000000E-01  8.50000000E-01  8.50000000E-01
  8.50000000E-01  8.50000000E-01  8.50000000E-01  8.50000000E-01  8.50000000E-01
  8.50000000E-01  8.50000000E-01  8.50000000E-01  8.50000000E-01  8.50000000E-01
  8.50000000E-01  8.50000000E-01  8.50000000E-01  8.50000000E-01  8.50000000E-01
  8.50000000E-01  8.50000000E-01  8.50000000E-01  8.50000000E-01  8.50000000E-01
  8.50000000E-01  8.50000000E-01  8.50000000E-01  8.50000000E-01  8.50000000E-01
  8.50000000E-01  8.50000000E-01  8.50000000E-01  8.50000000E-01  8.50000000E-01
  8.50000000E-01  8.50000000E-01  8.50000000E-01  8.50000000E-01  8.50000000E-01
  8.50000000E-01  8.50000000E-01  8.50000000E-01  8.50000000E-01  8.50000000E-01
  8.50000000E-01  8.50000000E-01  8.50000000E-01  8.50000000E-01  8.50000000E-01
  8.50000000E-01  8.50000000E-01  8.50000000E-01  8.50000000E-01  8.50000000E-01
  8.50000000E-01  8.50000000E-01  8.50000000E-01  8.50000000E-01  8.50000000E-01
  8.50000000E-01  8.50000000E-01  8.50000000E-01  8.50000000E-01  8.50000000E-01
  8.50000000E-01  8.50000000E-01  8.50000000E-01  8.50000000E-01  8.50000000E-01
  8.50000000E-01  8.50000000E-01  8.50000000E-01  8.50000000E-01  8.50000000E-01
  8.50000000E-01  8.50000000E-01  8.50000000E-01  8.50000000E-01  8.50000000E-01
  8.50000000E-01  8.50000000E-01  8.50000000E-01  8.50000000E-01  8.50000000E-01
  8.50000000E-01  8.50000000E-01  8.50000000E-01  8.50000000E-01  8.50000000E-01
  8.50000000E-01  8.50000000E-01  8.50000000E-01  8.50000000E-01  8.50000000E-01
  8.50000000E-01  8.50000000E-01  8.50000000E-01  8.50000000E-01  8.50000000E-01
  8.50000000E-01  8.50000000E-01  8.50000000E-01  8.50000000E-01  8.50000000E-01
  8.50000000E-01  8.50000000E-01  8.50000000E-01  8.50000000E-01  8.50000000E-01
  8.50000000E-01  8.50000000E-01  8.50000000E-01  8.50000000E-01  8.50000000E-01
  8.50000000E-01  8.50000000E-01  8.50000000E-01  8.50000000E-01  8.50000000E-01
  8.50000000E-01  8.50000000E-01  8.50000000E-01  8.50000000E-01  8.50000000E-01
  8.50000000E-01  8.50000000E-01  8.50000000E-01  8.50000000E-01  8.50000000E-01
  8.50000000E-01  8.50000000E-01  8.50000000E-01  8.50000000E-01  8.50000000E-01
  8.50000000E-01  8.50000000E-01  8.50000000E-01  8.50000000E-01  8.50000000E-01
  8.50000000E-01  8.50000000E-01  8.50000000E-01  8.50000000E-01  8.50000000E-01
  8.50000000E-01  8.50000000E-01  8.50000000E-01  8.50000000E-01  8.50000000E-01
  8.50000000E-01  8.50000000E-01  8.50000000E-01  8.50000000E-01  8.50000000E-01
  8.50000000E-01  8.50000000E-01  8.50000000E-01  8.50000000E-01  8.50000000E-01
  8.50000000E-01  8.50000000E-01  8.50000000E-01  8.50000000E-01  8.50000000E-01
  8.50000000E-01  8.50000000E-01  8.50000000E-01  8.50000000E-01  8.50000000E-01
  8.50000000E-01  8.50000000E-01  8.50000000E-01  8.50000000E-01  8.50000000E-01
  8.50000000E-01  8.50000000E-01  8.50000000E-01  8.50000000E-01  8.50000000E-01
  8.50000000E-01  8.50000000E-01  8.50000000E-01  8.50000000E-01  8.50000000E-01
  8.50000000E-01  8.50000000E-01  8.50000000E-01  8.50000000E-01  8.50000000E-01
  8.50000000E-01  8.50000000E-01  8.50000000E-01  8.50000000E-01  8.50000000E-01
  8.50000000E-01  8.50000000E-01  8.50000000E-01  8.50000000E-01  8.50000000E-01
  8.50000000E-01  8.50000000E-01  8.50000000E-01  8.50000000E-01  8.50000000E-01
  8.50000000E-01  8.50000000E-01  8.50000000E-01  8.50000000E-01  8.50000000E-01
  8.50000000E-01  8.50000000E-01  8.50000000E-01  8.50000000E-01  8.50000000E-01
  8.50000000E-01  8.50000000E-01  8.50000000E-01  8.50000000E-01  8.50000000E-01
  8.50000000E-01  8.50000000E-01  8.50000000E-01  8.50000000E-01  8.50000000E-01
  8.50000000E-01  8.50000000E-01  8.50000000E-01  8.50000000E-01  8.50000000E-01
  8.50000000E-01  8.50000000E-01  8.50000000E-01  8.50000000E-01  8.50000000E-01
  8.50000000E-01  8.50000000E-01  8.50000000E-01  8.50000000E-01  8.50000000E-01
  8.50000000E-01  8.50000000E-01  8.50000000E-01  8.50000000E-01  8.50000000E-01
  8.50000000E-01  8.50000000E-01  8.50000000E-01  8.50000000E-01  8.50000000E-01
  8.50000000E-01  8.50000000E-01  8.50000000E-01  8.50000000E-01  8.50000000E-01
  8.50000000E-01  8.50000000E-01  8.50000000E-01  8.50000000E-01  8.50000000E-01
  8.50000000E-01  8.50000000E-01  8.50000000E-01  8.50000000E-01  8.50000000E-01
  8.50000000E-01  8.50000000E-01  8.50000000E-01  8.50000000E-01  8.50000000E-01
  8.50000000E-01  8.50000000E-01  8.50000000E-01  8.50000000E-01  8.50000000E-01
  8.50000000E-01  8.50000000E-01  8.50000000E-01  8.50000000E-01  8.50000000E-01
  8.50000000E-01  8.50000000E-01  8.50000000E-01  8.50000000E-01  8.50000000E-01
  8.50000000E-01  8.50000000E-01  8.50000000E-01  8.50000000E-01  8.50000000E-01
  8.50000000E-01  8.50000000E-01  8.50000000E-01  8.50000000E-01  8.50000000E-01
  8.50000000E-01  8.50000000E-01  8.50000000E-01  8.50000000E-01  8.50000000E-01
  8.50000000E-01  8.50000000E-01  8.50000000E-01  8.50000000E-01  8.50000000E-01
  8.50000000E-01  8.50000000E-01  8.50000000E-01  8.50000000E-01  8.50000000E-01
  8.50000000E-01  8.50000000E-01  8.50000000E-01  8.50000000E-01  8.50000000E-01
  8.50000000E-01  8.50000000E-01  8.50000000E-01  8.50000000E-01  8.50000000E-01
  8.50000000E-01  8.50000000E-01  8.50000000E-01  8.50000000E-01  8.50000000E-01
  8.50000000E-01  8.50000000E-01  8.50000000E-01  8.50000000E-01  8.50000000E-01
  8.50000000E-01  8.50000000E-01  8.50000000E-01  8.50000000E-01  8.50000000E-01
  8.50000000E-01  8.50000000E-01  8.50000000E-01  8.50000000E-01  8.50000000E-01
  8.50000000E-01  8.50000000E-01  8.50000000E-01  8.50000000E-01  8.50000000E-01
  8.50000000E-01  8.50000000E-01  8.50000000E-01  8.50000000E-01  8.50000000E-01
  8.50000000E-01  8.50000000E-01  8.50000000E-01  8.50000000E-01  8.50000000E-01
  8.50000000E-01  8.50000000E-01  8.50000000E-01  8.50000000E-01  8.50000000E-01
  8.50000000E-01  8.50000000E-01  8.50000000E-01  8.50000000E-01  8.50000000E-01
  8.50000000E-01  8.50000000E-01  8.50000000E-01  8.50000000E-01  8.50000000E-01
  8.50000000E-01  8.50000000E-01  8.50000000E-01  8.50000000E-01  8.50000000E-01
  8.50000000E-01  8.50000000E-01  8.50000000E-01  8.50000000E-01  8.50000000E-01
  8.50000000E-01  8.50000000E-01  8.50000000E-01  8.50000000E-01  8.50000000E-01
  8.50000000E-01  8.50000000E-01  8.50000000E-01  8.50000000E-01  8.50000000E-01
  8.50000000E-01  8.50000000E-01  8.50000000E-01  8.50000000E-01  8.50000000E-01
  8.50000000E-01  8.50000000E-01  8.50000000E-01  8.50000000E-01  8.50000000E-01
  8.50000000E-01  8.50000000E-01  8.50000000E-01  8.50000000E-01  8.50000000E-01
  8.50000000E-01  8.50000000E-01  8.50000000E-01  8.50000000E-01  8.50000000E-01
  8.50000000E-01  8.50000000E-01  8.50000000E-01  8.50000000E-01  8.50000000E-01
  8.50000000E-01  8.50000000E-01  8.50000000E-01  8.50000000E-01  8.50000000E-01
  8.50000000E-01  8.50000000E-01  8.50000000E-01  8.50000000E-01  8.50000000E-01
  8.50000000E-01  8.50000000E-01  8.50000000E-01  8.50000000E-01  8.50000000E-01
  8.50000000E-01  8.50000000E-01  8.50000000E-01  8.50000000E-01  8.50000000E-01
  8.50000000E-01  8.50000000E-01  8.50000000E-01  8.50000000E-01  8.50000000E-01
  8.50000000E-01  8.50000000E-01  8.50000000E-01  8.50000000E-01  8.50000000E-01
  8.50000000E-01  8.50000000E-01  8.50000000E-01  8.50000000E-01  8.50000000E-01
  8.50000000E-01  8.50000000E-01  8.50000000E-01  8.50000000E-01  8.50000000E-01
  8.50000000E-01  8.50000000E-01  8.50000000E-01  8.50000000E-01  8.50000000E-01
  8.50000000E-01  8.50000000E-01  8.50000000E-01  8.50000000E-01  8.50000000E-01
  8.50000000E-01  8.50000000E-01  8.50000000E-01  8.50000000E-01  8.50000000E-01
  8.50000000E-01  8.50000000E-01  8.50000000E-01  8.50000000E-01  8.50000000E-01
  8.50000000E-01  8.50000000E-01  8.50000000E-01  8.50000000E-01  8.50000000E-01
  8.50000000E-01  8.50000000E-01  8.50000000E-01  8.50000000E-01  8.50000000E-01
  8.50000000E-01  8.50000000E-01  8.50000000E-01  8.50000000E-01  8.50000000E-01
  8.50000000E-01  8.50000000E-01  8.50000000E-01  8.50000000E-01  8.50000000E-01
  8.50000000E-01  8.50000000E-01  8.50000000E-01  8.50000000E-01  8.50000000E-01
  8.50000000E-01  8.50000000E-01  8.50000000E-01  8.50000000E-01  8.50000000E-01
  8.50000000E-01  8.50000000E-01  8.50000000E-01  8.50000000E-01  8.50000000E-01
  8.50000000E-01  8.50000000E-01  8.50000000E-01  8.50000000E-01  8.50000000E-01
  8.50000000E-01  8.50000000E-01  8.50000000E-01  8.50000000E-01  8.50000000E-01
  8.50000000E-01  8.50000000E-01  8.50000000E-01  8.50000000E-01  8.50000000E-01
  8.50000000E-01  8.50000000E-01  8.50000000E-01  8.50000000E-01  8.50000000E-01
  8.50000000E-01  8.50000000E-01  8.50000000E-01  8.50000000E-01  8.50000000E-01
  8.50000000E-01  8.50000000E-01  8.50000000E-01  8.50000000E-01  8.50000000E-01
  8.50000000E-01  8.50000000E-01  8.50000000E-01  8.50000000E-01  8.50000000E-01
  8.50000000E-01  8.50000000E-01  8.50000000E-01  8.50000000E-01  8.50000000E-01
  8.50000000E-01  8.50000000E-01  8.50000000E-01  8.50000000E-01  8.50000000E-01
  8.50000000E-01  8.50000000E-01  8.50000000E-01  8.50000000E-01  8.50000000E-01
  8.50000000E-01  8.50000000E-01  8.50000000E-01  8.50000000E-01  8.50000000E-01
  8.50000000E-01  8.50000000E-01  8.50000000E-01  8.50000000E-01  8.50000000E-01
  8.50000000E-01  8.50000000E-01  8.50000000E-01  8.50000000E-01  8.50000000E-01
  8.50000000E-01  8.50000000E-01  8.50000000E-01  8.50000000E-01  8.50000000E-01
  8.50000000E-01  8.50000000E-01  8.50000000E-01  8.50000000E-01  8.50000000E-01
  8.50000000E-01  8.50000000E-01  8.50000000E-01  8.50000000E-01  8.50000000E-01
  8.50000000E-01  8.50000000E-01  8.50000000E-01  8.50000000E-01  8.50000000E-01
  8.50000000E-01  8.50000000E-01  8.50000000E-01  8.50000000E-01  8.50000000E-01
  8.50000000E-01  8.50000000E-01  8.50000000E-01  8.50000000E-01  8.50000000E-01
  8.50000000E-01  8.50000000E-01  8.50000000E-01  8.50000000E-01  8.50000000E-01
  8.50000000E-01  8.50000000E-01  8.50000000E-01  8.50000000E-01  8.50000000E-01
  8.50000000E-01  8.50000000E-01  8.50000000E-01  8.50000000E-01  8.50000000E-01
  8.50000000E-01  8.50000000E-01  8.50000000E-01  8.50000000E-01  8.50000000E-01
  8.50000000E-01  8.50000000E-01  8.50000000E-01  8.50000000E-01  8.50000000E-01
  8.50000000E-01  8.50000000E-01  8.50000000E-01  8.50000000E-01  8.50000000E-01
  8.50000000E-01  8.50000000E-01  8.50000000E-01  8.50000000E-01  8.50000000E-01
  8.50000000E-01  8.50000000E-01  8.50000000E-01  8.50000000E-01  8.50000000E-01
  8.50000000E-01  8.50000000E-01  8.50000000E-01  8.50000000E-01  8.50000000E-01
  8.50000000E-01  8.50000000E-01  8.50000000E-01  8.50000000E-01  8.50000000E-01
  8.50000000E-01  8.50000000E-01  8.50000000E-01  8.50000000E-01  8.50000000E-01
  8.50000000E-01  8.50000000E-01  8.50000000E-01  8.50000000E-01  8.50000000E-01
  8.50000000E-01  8.50000000E-01  8.50000000E-01  8.50000000E-01  8.50000000E-01
  8.50000000E-01  8.50000000E-01  8.50000000E-01  8.50000000E-01  8.50000000E-01
  8.50000000E-01  8.50000000E-01  8.50000000E-01  8.50000000E-01  8.50000000E-01
  8.50000000E-01  8.50000000E-01  8.50000000E-01  8.50000000E-01  8.50000000E-01
  8.50000000E-01  8.50000000E-01  8.50000000E-01  8.50000000E-01  8.50000000E-01
  8.50000000E-01  8.50000000E-01  8.50000000E-01  8.50000000E-01  8.50000000E-01
  8.50000000E-01  8.50000000E-01  8.50000000E-01  8.50000000E-01  8.50000000E-01
  8.50000000E-01  8.50000000E-01  8.50000000E-01  8.50000000E-01  8.50000000E-01
  8.50000000E-01  8.50000000E-01  8.50000000E-01  8.50000000E-01  8.50000000E-01
  8.50000000E-01  8.50000000E-01  8.50000000E-01  8.50000000E-01  8.50000000E-01
  8.50000000E-01  8.50000000E-01  8.50000000E-01  8.50000000E-01  8.50000000E-01
  8.50000000E-01  8.50000000E-01  8.50000000E-01  8.50000000E-01  8.50000000E-01
  8.50000000E-01  8.50000000E-01  8.50000000E-01  8.50000000E-01  8.50000000E-01
  8.50000000E-01  8.50000000E-01  8.50000000E-01  8.50000000E-01  8.50000000E-01
  8.50000000E-01  8.50000000E-01  8.50000000E-01  8.50000000E-01  8.50000000E-01
  8.50000000E-01  8.50000000E-01  8.50000000E-01  8.50000000E-01  8.50000000E-01
  8.50000000E-01  8.50000000E-01  8.50000000E-01  8.50000000E-01  8.50000000E-01
  8.50000000E-01  8.50000000E-01  8.50000000E-01  8.50000000E-01  8.50000000E-01
  8.50000000E-01  8.50000000E-01  8.50000000E-01  8.50000000E-01  8.50000000E-01
  8.50000000E-01  8.50000000E-01  8.50000000E-01  8.50000000E-01  8.50000000E-01
  8.50000000E-01  8.50000000E-01  8.50000000E-01  8.50000000E-01  8.50000000E-01
  8.50000000E-01  8.50000000E-01  8.50000000E-01  8.50000000E-01  8.50000000E-01
  8.50000000E-01  8.50000000E-01  8.50000000E-01  8.50000000E-01  8.50000000E-01
  8.50000000E-01  8.50000000E-01  8.50000000E-01  8.50000000E-01  8.50000000E-01
  8.50000000E-01  8.50000000E-01  8.50000000E-01  8.50000000E-01  8.50000000E-01
  8.50000000E-01  8.50000000E-01  8.50000000E-01  8.50000000E-01  8.50000000E-01
  8.50000000E-01  8.50000000E-01  8.50000000E-01  8.50000000E-01  8.50000000E-01
  8.50000000E-01  8.50000000E-01  8.50000000E-01  8.50000000E-01  8.50000000E-01
  8.50000000E-01  8.50000000E-01  8.50000000E-01  8.50000000E-01  8.50000000E-01
  8.50000000E-01  8.50000000E-01  8.50000000E-01  8.50000000E-01  8.50000000E-01
  8.50000000E-01  8.50000000E-01  8.50000000E-01  8.50000000E-01  8.50000000E-01
  8.50000000E-01  8.50000000E-01  8.50000000E-01  8.50000000E-01  8.50000000E-01
  8.50000000E-01  8.50000000E-01  8.50000000E-01  8.50000000E-01  8.50000000E-01
  8.50000000E-01  8.50000000E-01  8.50000000E-01  8.50000000E-01  8.50000000E-01
  8.50000000E-01  8.50000000E-01  8.50000000E-01  8.50000000E-01  8.50000000E-01
  8.50000000E-01  8.50000000E-01  8.50000000E-01  8.50000000E-01  8.50000000E-01
  8.50000000E-01  8.50000000E-01  8.50000000E-01  8.50000000E-01  8.50000000E-01
  8.50000000E-01  8.50000000E-01  8.50000000E-01  8.50000000E-01  8.50000000E-01
  8.50000000E-01  8.50000000E-01  8.50000000E-01  8.50000000E-01  8.50000000E-01
  8.50000000E-01  8.50000000E-01  8.50000000E-01  8.50000000E-01  8.50000000E-01
  8.50000000E-01  8.50000000E-01  8.50000000E-01  8.50000000E-01  8.50000000E-01
  8.50000000E-01  8.50000000E-01  8.50000000E-01  8.50000000E-01  8.50000000E-01
  8.50000000E-01  8.50000000E-01  8.50000000E-01  8.50000000E-01  8.50000000E-01
  8.50000000E-01  8.50000000E-01  8.50000000E-01  8.50000000E-01  8.50000000E-01
  8.50000000E-01  8.50000000E-01  8.50000000E-01  8.50000000E-01  8.50000000E-01
  8.50000000E-01  8.50000000E-01  8.50000000E-01  8.50000000E-01  8.50000000E-01
  8.50000000E-01  8.50000000E-01  8.50000000E-01  8.50000000E-01  8.50000000E-01
  8.50000000E-01  8.50000000E-01  8.50000000E-01  8.50000000E-01  8.50000000E-01
  8.50000000E-01  8.50000000E-01  8.50000000E-01  8.50000000E-01  8.50000000E-01
  8.50000000E-01  8.50000000E-01  8.50000000E-01  8.50000000E-01  8.50000000E-01
  8.50000000E-01  8.50000000E-01  8.50000000E-01  8.50000000E-01  8.50000000E-01
  8.50000000E-01  8.50000000E-01  8.50000000E-01  8.50000000E-01  8.50000000E-01
  8.50000000E-01  8.50000000E-01  8.50000000E-01  8.50000000E-01  8.50000000E-01
  8.50000000E-01  8.50000000E-01  8.50000000E-01  8.50000000E-01  8.50000000E-01
  8.50000000E-01  8.50000000E-01  8.50000000E-01  8.50000000E-01  8.50000000E-01
  8.50000000E-01  8.50000000E-01  8.50000000E-01  8.50000000E-01  8.50000000E-01
  8.50000000E-01  8.50000000E-01  8.50000000E-01  8.50000000E-01  8.50000000E-01
  8.50000000E-01  8.50000000E-01  8.50000000E-01  8.50000000E-01  8.50000000E-01
  8.50000000E-01  8.50000000E-01  8.50000000E-01  8.50000000E-01  8.50000000E-01
  8.50000000E-01  8.50000000E-01  8.50000000E-01  8.50000000E-01  8.50000000E-01
  8.50000000E-01  8.50000000E-01  8.50000000E-01  8.50000000E-01  8.50000000E-01
  8.50000000E-01  8.50000000E-01  8.50000000E-01  8.50000000E-01  8.50000000E-01
  8.50000000E-01  8.50000000E-01  8.50000000E-01  8.50000000E-01  8.50000000E-01
  8.50000000E-01  8.50000000E-01  8.50000000E-01  8.50000000E-01  8.50000000E-01
  8.50000000E-01  8.50000000E-01  8.50000000E-01  8.50000000E-01  8.50000000E-01
  8.50000000E-01  8.50000000E-01  8.50000000E-01  8.50000000E-01  8.50000000E-01
  8.50000000E-01  8.50000000E-01  8.50000000E-01  8.50000000E-01  8.50000000E-01
  8.50000000E-01  8.50000000E-01  8.50000000E-01  8.50000000E-01  8.50000000E-01
  8.50000000E-01  8.50000000E-01  8.50000000E-01  8.50000000E-01  8.50000000E-01
  8.50000000E-01  8.50000000E-01  8.50000000E-01  8.50000000E-01  8.50000000E-01
  8.50000000E-01  8.50000000E-01  8.50000000E-01  8.50000000E-01  8.50000000E-01
  8.50000000E-01  8.50000000E-01  8.50000000E-01  8.50000000E-01  8.50000000E-01
  8.50000000E-01  8.50000000E-01  8.50000000E-01  8.50000000E-01  8.50000000E-01
  8.50000000E-01  8.50000000E-01  8.50000000E-01  8.50000000E-01  8.50000000E-01
  8.50000000E-01  8.50000000E-01  8.50000000E-01  8.50000000E-01  8.50000000E-01
  8.50000000E-01  8.50000000E-01  8.50000000E-01  8.50000000E-01  8.50000000E-01
  8.50000000E-01  8.50000000E-01  8.50000000E-01  8.50000000E-01  8.50000000E-01
  8.50000000E-01  8.50000000E-01  8.50000000E-01  8.50000000E-01  8.50000000E-01
  8.50000000E-01  8.50000000E-01  8.50000000E-01  8.50000000E-01  8.50000000E-01
  8.50000000E-01  8.50000000E-01  8.50000000E-01  8.50000000E-01  8.50000000E-01
  8.50000000E-01  8.50000000E-01  8.50000000E-01  8.50000000E-01  8.50000000E-01
  8.50000000E-01  8.50000000E-01  8.50000000E-01  8.50000000E-01  8.50000000E-01
  8.50000000E-01  8.50000000E-01  8.50000000E-01  8.50000000E-01  8.50000000E-01
  8.50000000E-01  8.50000000E-01  8.50000000E-01  8.50000000E-01  8.50000000E-01
  8.50000000E-01  8.50000000E-01  8.50000000E-01  8.50000000E-01  8.50000000E-01
  8.50000000E-01  8.50000000E-01  8.50000000E-01  8.50000000E-01  8.50000000E-01
  8.50000000E-01  8.50000000E-01  8.50000000E-01  8.50000000E-01  8.50000000E-01
  8.50000000E-01  8.50000000E-01  8.50000000E-01  8.50000000E-01  8.50000000E-01
  8.50000000E-01  8.50000000E-01  8.50000000E-01  8.50000000E-01  8.50000000E-01
  8.50000000E-01  8.50000000E-01  8.50000000E-01  8.50000000E-01  8.50000000E-01
  8.50000000E-01  8.50000000E-01  8.50000000E-01  8.50000000E-01  8.50000000E-01
  8.50000000E-01  8.50000000E-01  8.50000000E-01  8.50000000E-01  8.50000000E-01
  8.50000000E-01  8.50000000E-01  8.50000000E-01  8.50000000E-01  8.50000000E-01
  8.50000000E-01  8.50000000E-01  8.50000000E-01  8.50000000E-01  8.50000000E-01
  8.50000000E-01  8.50000000E-01  8.50000000E-01  8.50000000E-01  8.50000000E-01
  8.50000000E-01  8.50000000E-01  8.50000000E-01  8.50000000E-01  8.50000000E-01
  8.50000000E-01  8.50000000E-01  8.50000000E-01  8.50000000E-01  8.50000000E-01
  8.50000000E-01  8.50000000E-01  8.50000000E-01  8.50000000E-01  8.50000000E-01
  8.50000000E-01  8.50000000E-01  8.50000000E-01  8.50000000E-01  8.50000000E-01
  8.50000000E-01  8.50000000E-01  8.50000000E-01  8.50000000E-01  8.50000000E-01
  8.50000000E-01  8.50000000E-01  8.50000000E-01  8.50000000E-01  8.50000000E-01
  8.50000000E-01  8.50000000E-01  8.50000000E-01  8.50000000E-01  8.50000000E-01
  8.50000000E-01  8.50000000E-01  8.50000000E-01  8.50000000E-01  8.50000000E-01
  8.50000000E-01  8.50000000E-01  8.50000000E-01  8.50000000E-01  8.50000000E-01
  8.50000000E-01  8.50000000E-01  8.50000000E-01  8.50000000E-01  8.50000000E-01
  8.50000000E-01  8.50000000E-01  8.50000000E-01  8.50000000E-01  8.50000000E-01
  8.50000000E-01  8.50000000E-01  8.50000000E-01  8.50000000E-01  8.50000000E-01
  8.50000000E-01  8.50000000E-01  8.50000000E-01  8.50000000E-01  8.50000000E-01
  8.50000000E-01  8.50000000E-01  8.50000000E-01  8.50000000E-01  8.50000000E-01
  8.50000000E-01  8.50000000E-01  8.50000000E-01  8.50000000E-01  8.50000000E-01
  8.50000000E-01  8.50000000E-01  8.50000000E-01  8.50000000E-01  8.50000000E-01
  8.50000000E-01  8.50000000E-01  8.50000000E-01  8.50000000E-01  8.50000000E-01
  8.50000000E-01  8.50000000E-01  8.50000000E-01  8.50000000E-01  8.50000000E-01
  8.50000000E-01  8.50000000E-01  8.50000000E-01  8.50000000E-01  8.50000000E-01
  8.50000000E-01  8.50000000E-01  8.50000000E-01  8.50000000E-01  8.50000000E-01
  8.50000000E-01  8.50000000E-01  8.50000000E-01  8.50000000E-01  8.50000000E-01
  8.50000000E-01  8.50000000E-01  8.50000000E-01  8.50000000E-01  8.50000000E-01
  8.50000000E-01  8.50000000E-01  8.50000000E-01  8.50000000E-01  8.50000000E-01
  8.50000000E-01  8.50000000E-01  8.50000000E-01  8.50000000E-01  8.50000000E-01
  8.50000000E-01  8.50000000E-01  8.50000000E-01  8.50000000E-01  8.50000000E-01
  8.50000000E-01  8.50000000E-01  8.50000000E-01  8.50000000E-01  8.50000000E-01
  8.50000000E-01  8.50000000E-01  8.50000000E-01  8.50000000E-01  8.50000000E-01
  8.50000000E-01  8.50000000E-01  8.50000000E-01  8.50000000E-01  8.50000000E-01
  8.50000000E-01  8.50000000E-01  8.50000000E-01  8.50000000E-01  8.50000000E-01
  8.50000000E-01  8.50000000E-01  8.50000000E-01  8.50000000E-01  8.50000000E-01
  8.50000000E-01  8.50000000E-01  8.50000000E-01  8.50000000E-01  8.50000000E-01
  8.50000000E-01  8.50000000E-01  8.50000000E-01  8.50000000E-01  8.50000000E-01
  8.50000000E-01  8.50000000E-01  8.50000000E-01  8.50000000E-01  8.50000000E-01
  8.50000000E-01  8.50000000E-01  8.50000000E-01  8.50000000E-01  8.50000000E-01
  8.50000000E-01  8.50000000E-01  8.50000000E-01  8.50000000E-01  8.50000000E-01
  8.50000000E-01  8.50000000E-01  8.50000000E-01  8.50000000E-01  8.50000000E-01
  8.50000000E-01  8.50000000E-01  8.50000000E-01  8.50000000E-01  8.50000000E-01
  8.50000000E-01  8.50000000E-01  8.50000000E-01  8.50000000E-01  8.50000000E-01
  8.50000000E-01  8.50000000E-01  8.50000000E-01  8.50000000E-01  8.50000000E-01
  8.50000000E-01  8.50000000E-01  8.50000000E-01  8.50000000E-01  8.50000000E-01
  8.50000000E-01  8.50000000E-01  8.50000000E-01  8.50000000E-01  8.50000000E-01
  8.50000000E-01  8.50000000E-01  8.50000000E-01  8.50000000E-01  8.50000000E-01
  8.50000000E-01  8.50000000E-01  8.50000000E-01  8.50000000E-01  8.50000000E-01
  8.50000000E-01  8.50000000E-01  8.50000000E-01  8.50000000E-01  8.50000000E-01
  8.50000000E-01  8.50000000E-01  8.50000000E-01  8.50000000E-01  8.50000000E-01
  8.50000000E-01  8.50000000E-01  8.50000000E-01  8.50000000E-01  8.50000000E-01
  8.50000000E-01  8.50000000E-01  8.50000000E-01  8.50000000E-01  8.50000000E-01
  8.50000000E-01  8.50000000E-01  8.50000000E-01  8.50000000E-01  8.50000000E-01
  8.50000000E-01  8.50000000E-01  8.50000000E-01  8.50000000E-01  8.50000000E-01
  8.50000000E-01  8.50000000E-01  8.50000000E-01  8.50000000E-01  8.50000000E-01
  8.50000000E-01  8.50000000E-01  8.50000000E-01  8.50000000E-01  8.50000000E-01
  8.50000000E-01  8.50000000E-01  8.50000000E-01  8.50000000E-01  8.50000000E-01
  8.50000000E-01  8.50000000E-01  8.50000000E-01  8.50000000E-01  8.50000000E-01
  8.50000000E-01  8.50000000E-01  8.50000000E-01  8.50000000E-01  8.50000000E-01
  8.50000000E-01  8.50000000E-01  8.50000000E-01  8.50000000E-01  8.50000000E-01
  8.50000000E-01  8.50000000E-01  8.50000000E-01  8.50000000E-01  8.50000000E-01
  8.50000000E-01  8.50000000E-01  8.50000000E-01  8.50000000E-01  8.50000000E-01
  8.50000000E-01  8.50000000E-01  8.50000000E-01  8.50000000E-01  8.50000000E-01
  8.50000000E-01  8.50000000E-01  8.50000000E-01  8.50000000E-01  8.50000000E-01
  8.50000000E-01  8.50000000E-01  8.50000000E-01  8.50000000E-01  8.50000000E-01
  8.50000000E-01  8.50000000E-01  8.50000000E-01  8.50000000E-01  8.50000000E-01
  8.50000000E-01  8.50000000E-01  8.50000000E-01  8.50000000E-01  8.50000000E-01
  8.50000000E-01  8.50000000E-01  8.50000000E-01  8.50000000E-01  8.50000000E-01
  8.50000000E-01  8.50000000E-01  8.50000000E-01  8.50000000E-01  8.50000000E-01
  8.50000000E-01  8.50000000E-01  8.50000000E-01  8.50000000E-01  8.50000000E-01
  8.50000000E-01  8.50000000E-01  8.50000000E-01  8.50000000E-01  8.50000000E-01
  8.50000000E-01  8.50000000E-01  8.50000000E-01  8.50000000E-01  8.50000000E-01
  8.50000000E-01  8.50000000E-01  8.50000000E-01  8.50000000E-01  8.50000000E-01
  8.50000000E-01  8.50000000E-01  8.50000000E-01  8.50000000E-01  8.50000000E-01
  8.50000000E-01  8.50000000E-01  8.50000000E-01  8.50000000E-01  8.50000000E-01
  8.50000000E-01  8.50000000E-01  8.50000000E-01  8.50000000E-01  8.50000000E-01
  8.50000000E-01  8.50000000E-01  8.50000000E-01  8.50000000E-01  8.50000000E-01
  8.50000000E-01  8.50000000E-01  8.50000000E-01  8.50000000E-01  8.50000000E-01
  8.50000000E-01  8.50000000E-01  8.50000000E-01  8.50000000E-01  8.50000000E-01
  8.50000000E-01  8.50000000E-01  8.50000000E-01  8.50000000E-01  8.50000000E-01
  8.50000000E-01  8.50000000E-01  8.50000000E-01  8.50000000E-01  8.50000000E-01
  8.50000000E-01  8.50000000E-01  8.50000000E-01  8.50000000E-01  8.50000000E-01
  8.50000000E-01  8.50000000E-01  8.50000000E-01  8.50000000E-01  8.50000000E-01
  8.50000000E-01  8.50000000E-01  8.50000000E-01  8.50000000E-01  8.50000000E-01
  8.50000000E-01  8.50000000E-01  8.50000000E-01  8.50000000E-01  8.50000000E-01
  8.50000000E-01  8.50000000E-01  8.50000000E-01  8.50000000E-01  8.50000000E-01
  8.50000000E-01  8.50000000E-01  8.50000000E-01  8.50000000E-01  8.50000000E-01
  8.50000000E-01  8.50000000E-01  8.50000000E-01  8.50000000E-01  8.50000000E-01
  8.50000000E-01  8.50000000E-01  8.50000000E-01  8.50000000E-01  8.50000000E-01
  8.50000000E-01  8.50000000E-01  8.50000000E-01  8.50000000E-01  8.50000000E-01
  8.50000000E-01  8.50000000E-01  8.50000000E-01  8.50000000E-01  8.50000000E-01
  8.50000000E-01  8.50000000E-01  8.50000000E-01  8.50000000E-01  8.50000000E-01
  8.50000000E-01  8.50000000E-01  8.50000000E-01  8.50000000E-01  8.50000000E-01
  8.50000000E-01  8.50000000E-01  8.50000000E-01  8.50000000E-01  8.50000000E-01
  8.50000000E-01  8.50000000E-01  8.50000000E-01  8.50000000E-01  8.50000000E-01
  8.50000000E-01  8.50000000E-01  8.50000000E-01  8.50000000E-01  8.50000000E-01
  8.50000000E-01  8.50000000E-01  8.50000000E-01  8.50000000E-01  8.50000000E-01
  8.50000000E-01  8.50000000E-01  8.50000000E-01  8.50000000E-01  8.50000000E-01
  8.50000000E-01  8.50000000E-01  8.50000000E-01  8.50000000E-01  8.50000000E-01
  8.50000000E-01  8.50000000E-01  8.50000000E-01  8.50000000E-01  8.50000000E-01
  8.50000000E-01  8.50000000E-01  8.50000000E-01  8.50000000E-01  8.50000000E-01
  8.50000000E-01  8.50000000E-01  8.50000000E-01  8.50000000E-01  8.50000000E-01
  8.50000000E-01  8.50000000E-01  8.50000000E-01  8.50000000E-01  8.50000000E-01
  8.50000000E-01  8.50000000E-01  8.50000000E-01  8.50000000E-01  8.50000000E-01
  8.50000000E-01  8.50000000E-01  8.50000000E-01  8.50000000E-01  8.50000000E-01
  8.50000000E-01  8.50000000E-01  8.50000000E-01  8.50000000E-01  8.50000000E-01
  8.50000000E-01  8.50000000E-01  8.50000000E-01  8.50000000E-01  8.50000000E-01
  8.50000000E-01  8.50000000E-01  8.50000000E-01  8.50000000E-01  8.50000000E-01
  8.50000000E-01  8.50000000E-01  8.50000000E-01  8.50000000E-01  8.50000000E-01
  8.50000000E-01  8.50000000E-01  8.50000000E-01  8.50000000E-01  8.50000000E-01
  8.50000000E-01  8.50000000E-01  8.50000000E-01  8.50000000E-01  8.50000000E-01
  8.50000000E-01  8.50000000E-01  8.50000000E-01  8.50000000E-01  8.50000000E-01
  8.50000000E-01  8.50000000E-01  8.50000000E-01  8.50000000E-01  8.50000000E-01
  8.50000000E-01  8.50000000E-01  8.50000000E-01  8.50000000E-01  8.50000000E-01
  8.50000000E-01  8.50000000E-01  8.50000000E-01  8.50000000E-01  8.50000000E-01
  8.50000000E-01  8.50000000E-01  8.50000000E-01  8.50000000E-01  8.50000000E-01
  8.50000000E-01  8.50000000E-01  8.50000000E-01  8.50000000E-01  8.50000000E-01
  8.50000000E-01  8.50000000E-01  8.50000000E-01  8.50000000E-01  8.50000000E-01
  8.50000000E-01  8.50000000E-01  8.50000000E-01  8.50000000E-01  8.50000000E-01
  8.50000000E-01  8.50000000E-01  8.50000000E-01  8.50000000E-01  8.50000000E-01
  8.50000000E-01  8.50000000E-01  8.50000000E-01  8.50000000E-01  8.50000000E-01
  8.50000000E-01  8.50000000E-01  8.50000000E-01  8.50000000E-01  8.50000000E-01
  8.50000000E-01  8.50000000E-01  8.50000000E-01  8.50000000E-01  8.50000000E-01
  8.50000000E-01  8.50000000E-01  8.50000000E-01  8.50000000E-01  8.50000000E-01
  8.50000000E-01  8.50000000E-01  8.50000000E-01  8.50000000E-01  8.50000000E-01
  8.50000000E-01  8.50000000E-01  8.50000000E-01  8.50000000E-01  8.50000000E-01
  8.50000000E-01  8.50000000E-01  8.50000000E-01  8.50000000E-01  8.50000000E-01
  8.50000000E-01  8.50000000E-01  8.50000000E-01  8.50000000E-01  8.50000000E-01
  8.50000000E-01  8.50000000E-01  8.50000000E-01  8.50000000E-01  8.50000000E-01
  8.50000000E-01  8.50000000E-01  8.50000000E-01  8.50000000E-01  8.50000000E-01
  8.50000000E-01  8.50000000E-01  8.50000000E-01  8.50000000E-01  8.50000000E-01
  8.50000000E-01  8.50000000E-01  8.50000000E-01  8.50000000E-01  8.50000000E-01
  8.50000000E-01  8.50000000E-01  8.50000000E-01  8.50000000E-01  8.50000000E-01
  8.50000000E-01  8.50000000E-01  8.50000000E-01  8.50000000E-01  8.50000000E-01
  8.50000000E-01  8.50000000E-01  8.50000000E-01  8.50000000E-01  8.50000000E-01
  8.50000000E-01  8.50000000E-01  8.50000000E-01  8.50000000E-01  8.50000000E-01
  8.50000000E-01  8.50000000E-01  8.50000000E-01  8.50000000E-01  8.50000000E-01
  8.50000000E-01  8.50000000E-01  8.50000000E-01  8.50000000E-01  8.50000000E-01
  8.50000000E-01  8.50000000E-01  8.50000000E-01  8.50000000E-01  8.50000000E-01
  8.50000000E-01  8.50000000E-01  8.50000000E-01  8.50000000E-01  8.50000000E-01
  8.50000000E-01  8.50000000E-01  8.50000000E-01  8.50000000E-01  8.50000000E-01
  8.50000000E-01  8.50000000E-01  8.50000000E-01  8.50000000E-01  8.50000000E-01
  8.50000000E-01  8.50000000E-01  8.50000000E-01  8.50000000E-01  8.50000000E-01
  8.50000000E-01  8.50000000E-01  8.50000000E-01  8.50000000E-01  8.50000000E-01
  8.50000000E-01  8.50000000E-01  8.50000000E-01  8.50000000E-01  8.50000000E-01
  8.50000000E-01  8.50000000E-01  8.50000000E-01  8.50000000E-01  8.50000000E-01
  8.50000000E-01  8.50000000E-01  8.50000000E-01  8.50000000E-01  8.50000000E-01
  8.50000000E-01  8.50000000E-01  8.50000000E-01  8.50000000E-01  8.50000000E-01
  8.50000000E-01  8.50000000E-01  8.50000000E-01  8.50000000E-01  8.50000000E-01
  8.50000000E-01  8.50000000E-01  8.50000000E-01  8.50000000E-01  8.50000000E-01
  8.50000000E-01  8.50000000E-01  8.50000000E-01  8.50000000E-01  8.50000000E-01
  8.50000000E-01  8.50000000E-01  8.50000000E-01  8.50000000E-01  8.50000000E-01
  8.50000000E-01  8.50000000E-01  8.50000000E-01  8.50000000E-01  8.50000000E-01
  8.50000000E-01  8.50000000E-01  8.50000000E-01  8.50000000E-01  8.50000000E-01
  8.50000000E-01  8.50000000E-01  8.50000000E-01  8.50000000E-01  8.50000000E-01
  8.50000000E-01  8.50000000E-01  8.50000000E-01  8.50000000E-01  8.50000000E-01
  8.50000000E-01  8.50000000E-01  8.50000000E-01  8.50000000E-01  8.50000000E-01
  8.50000000E-01  8.50000000E-01  8.50000000E-01  8.50000000E-01  8.50000000E-01
  8.50000000E-01  8.50000000E-01  8.50000000E-01  8.50000000E-01  8.50000000E-01
  8.50000000E-01  8.50000000E-01  8.50000000E-01  8.50000000E-01  8.50000000E-01
  8.50000000E-01  8.50000000E-01  8.50000000E-01  8.50000000E-01  8.50000000E-01
  8.50000000E-01  8.50000000E-01  8.50000000E-01  8.50000000E-01  8.50000000E-01
  8.50000000E-01  8.50000000E-01  8.50000000E-01  8.50000000E-01  8.50000000E-01
  8.50000000E-01  8.50000000E-01  8.50000000E-01  8.50000000E-01  8.50000000E-01
  8.50000000E-01  8.50000000E-01  8.50000000E-01  8.50000000E-01  8.50000000E-01
  8.50000000E-01  8.50000000E-01  8.50000000E-01  8.50000000E-01  8.50000000E-01
  8.50000000E-01  8.50000000E-01  8.50000000E-01  8.50000000E-01  8.50000000E-01
  8.50000000E-01  8.50000000E-01  8.50000000E-01  8.50000000E-01  8.50000000E-01
  8.50000000E-01  8.50000000E-01  8.50000000E-01  8.50000000E-01  8.50000000E-01
  8.50000000E-01  8.50000000E-01  8.50000000E-01  8.50000000E-01  8.50000000E-01
  8.50000000E-01  8.50000000E-01  8.50000000E-01  8.50000000E-01  8.50000000E-01
  8.50000000E-01  8.50000000E-01  8.50000000E-01  8.50000000E-01  8.50000000E-01
  8.50000000E-01  8.50000000E-01  8.50000000E-01  8.50000000E-01  8.50000000E-01
  8.50000000E-01  8.50000000E-01  8.50000000E-01  8.50000000E-01  8.50000000E-01
  8.50000000E-01  8.50000000E-01  8.50000000E-01  8.50000000E-01  8.50000000E-01
  8.50000000E-01  8.50000000E-01  8.50000000E-01  8.50000000E-01  8.50000000E-01
  8.50000000E-01  8.50000000E-01  8.50000000E-01  8.50000000E-01  8.50000000E-01
  8.50000000E-01  8.50000000E-01  8.50000000E-01  8.50000000E-01  8.50000000E-01
  8.50000000E-01  8.50000000E-01  8.50000000E-01  8.50000000E-01  8.50000000E-01
  8.50000000E-01  8.50000000E-01  8.50000000E-01  8.50000000E-01  8.50000000E-01
  8.50000000E-01  8.50000000E-01  8.50000000E-01  8.50000000E-01  8.50000000E-01
  8.50000000E-01  8.50000000E-01  8.50000000E-01  8.50000000E-01  8.50000000E-01
  8.50000000E-01  8.50000000E-01  8.50000000E-01  8.50000000E-01  8.50000000E-01
  8.50000000E-01  8.50000000E-01  8.50000000E-01  8.50000000E-01  8.50000000E-01
  8.50000000E-01  8.50000000E-01  8.50000000E-01  8.50000000E-01  8.50000000E-01
  8.50000000E-01  8.50000000E-01  8.50000000E-01  8.50000000E-01  8.50000000E-01
  8.50000000E-01  8.50000000E-01  8.50000000E-01  8.50000000E-01  8.50000000E-01
  8.50000000E-01  8.50000000E-01  8.50000000E-01  8.50000000E-01  8.50000000E-01
  8.50000000E-01  8.50000000E-01  8.50000000E-01  8.50000000E-01  8.50000000E-01
  8.50000000E-01  8.50000000E-01  8.50000000E-01  8.50000000E-01  8.50000000E-01
  8.50000000E-01  8.50000000E-01  8.50000000E-01  8.50000000E-01  8.50000000E-01
  8.50000000E-01  8.50000000E-01  8.50000000E-01  8.50000000E-01  8.50000000E-01
  8.50000000E-01  8.50000000E-01  8.50000000E-01  8.50000000E-01  8.50000000E-01
  8.50000000E-01  8.50000000E-01  8.50000000E-01  8.50000000E-01  8.50000000E-01
  8.50000000E-01  8.50000000E-01  8.50000000E-01  8.50000000E-01  8.50000000E-01
  8.50000000E-01  8.50000000E-01  8.50000000E-01  8.50000000E-01  8.50000000E-01
  8.50000000E-01  8.50000000E-01  8.50000000E-01  8.50000000E-01  8.50000000E-01
  8.50000000E-01  8.50000000E-01  8.50000000E-01  8.50000000E-01  8.50000000E-01
  8.50000000E-01  8.50000000E-01  8.50000000E-01  8.50000000E-01  8.50000000E-01
  8.50000000E-01  8.50000000E-01  8.50000000E-01  8.50000000E-01  8.50000000E-01
  8.50000000E-01  8.50000000E-01  8.50000000E-01  8.50000000E-01  8.50000000E-01
  8.50000000E-01  8.50000000E-01  8.50000000E-01  8.50000000E-01  8.50000000E-01
  8.50000000E-01  8.50000000E-01  8.50000000E-01  8.50000000E-01  8.50000000E-01
  8.50000000E-01  8.50000000E-01  8.50000000E-01  8.50000000E-01  8.50000000E-01
  8.50000000E-01  8.50000000E-01  8.50000000E-01  8.50000000E-01  8.50000000E-01
  8.50000000E-01  8.50000000E-01  8.50000000E-01  8.50000000E-01  8.50000000E-01
  8.50000000E-01  8.50000000E-01  8.50000000E-01  8.50000000E-01  8.50000000E-01
  8.50000000E-01  8.50000000E-01  8.50000000E-01  8.50000000E-01  8.50000000E-01
  8.50000000E-01  8.50000000E-01  8.50000000E-01  8.50000000E-01  8.50000000E-01
  8.50000000E-01  8.50000000E-01  8.50000000E-01  8.50000000E-01  8.50000000E-01
  8.50000000E-01  8.50000000E-01  8.50000000E-01  8.50000000E-01  8.50000000E-01
  8.50000000E-01  8.50000000E-01  8.50000000E-01  8.50000000E-01  8.50000000E-01
  8.50000000E-01  8.50000000E-01  8.50000000E-01  8.50000000E-01  8.50000000E-01
  8.50000000E-01  8.50000000E-01  8.50000000E-01  8.50000000E-01  8.50000000E-01
  8.50000000E-01  8.50000000E-01  8.50000000E-01  8.50000000E-01  8.50000000E-01
  8.50000000E-01  8.50000000E-01  8.50000000E-01  8.50000000E-01  8.50000000E-01
  8.50000000E-01  8.50000000E-01  8.50000000E-01  8.50000000E-01  8.50000000E-01
  8.50000000E-01  8.50000000E-01  8.50000000E-01  8.50000000E-01  8.50000000E-01
  8.50000000E-01  8.50000000E-01  8.50000000E-01  8.50000000E-01  8.50000000E-01
  8.50000000E-01  8.50000000E-01  8.50000000E-01  8.50000000E-01  8.50000000E-01
  8.50000000E-01  8.50000000E-01  8.50000000E-01  8.50000000E-01  8.50000000E-01
  8.50000000E-01  8.50000000E-01  8.50000000E-01  8.50000000E-01  8.50000000E-01
  8.50000000E-01  8.50000000E-01  8.50000000E-01  8.50000000E-01  8.50000000E-01
  8.50000000E-01  8.50000000E-01  8.50000000E-01  8.50000000E-01  8.50000000E-01
  8.50000000E-01  8.50000000E-01  8.50000000E-01  8.50000000E-01  8.50000000E-01
  8.50000000E-01  8.50000000E-01  8.50000000E-01  8.50000000E-01  8.50000000E-01
  8.50000000E-01  8.50000000E-01  8.50000000E-01  8.50000000E-01  8.50000000E-01
  8.50000000E-01  8.50000000E-01  8.50000000E-01  8.50000000E-01  8.50000000E-01
  8.50000000E-01  8.50000000E-01  8.50000000E-01  8.50000000E-01  8.50000000E-01
  8.50000000E-01  8.50000000E-01  8.50000000E-01  8.50000000E-01  8.50000000E-01
  8.50000000E-01  8.50000000E-01  8.50000000E-01  8.50000000E-01  8.50000000E-01
  8.50000000E-01  8.50000000E-01  8.50000000E-01  8.50000000E-01  8.50000000E-01
  8.50000000E-01  8.50000000E-01  8.50000000E-01  8.50000000E-01  8.50000000E-01
  8.50000000E-01  8.50000000E-01  8.50000000E-01  8.50000000E-01  8.50000000E-01
  8.50000000E-01  8.50000000E-01  8.50000000E-01  8.50000000E-01  8.50000000E-01
  8.50000000E-01  8.50000000E-01  8.50000000E-01  8.50000000E-01  8.50000000E-01
  8.50000000E-01  8.50000000E-01  8.50000000E-01  8.50000000E-01  8.50000000E-01
  8.50000000E-01  8.50000000E-01  8.50000000E-01  8.50000000E-01  8.50000000E-01
  8.50000000E-01  8.50000000E-01  8.50000000E-01  8.50000000E-01  8.50000000E-01
  8.50000000E-01  8.50000000E-01  8.50000000E-01  8.50000000E-01  8.50000000E-01
  8.50000000E-01  8.50000000E-01  8.50000000E-01  8.50000000E-01  8.50000000E-01
  8.50000000E-01  8.50000000E-01  8.50000000E-01  8.50000000E-01  8.50000000E-01
  8.50000000E-01  8.50000000E-01  8.50000000E-01  8.50000000E-01  8.50000000E-01
  8.50000000E-01  8.50000000E-01  8.50000000E-01  8.50000000E-01  8.50000000E-01
  8.50000000E-01  8.50000000E-01  8.50000000E-01  8.50000000E-01  8.50000000E-01
  8.50000000E-01  8.50000000E-01  8.50000000E-01  8.50000000E-01  8.50000000E-01
  8.50000000E-01  8.50000000E-01  8.50000000E-01  8.50000000E-01  8.50000000E-01
  8.50000000E-01  8.50000000E-01  8.50000000E-01  8.50000000E-01  8.50000000E-01
  8.50000000E-01  8.50000000E-01  8.50000000E-01  8.50000000E-01  8.50000000E-01
  8.50000000E-01  8.50000000E-01  8.50000000E-01  8.50000000E-01  8.50000000E-01
  8.50000000E-01  8.50000000E-01  8.50000000E-01  8.50000000E-01  8.50000000E-01
  8.50000000E-01  8.50000000E-01  8.50000000E-01  8.50000000E-01  8.50000000E-01
  8.50000000E-01  8.50000000E-01  8.50000000E-01  8.50000000E-01  8.50000000E-01
  8.50000000E-01  8.50000000E-01  8.50000000E-01  8.50000000E-01  8.50000000E-01
  8.50000000E-01  8.50000000E-01  8.50000000E-01  8.50000000E-01  8.50000000E-01
  8.50000000E-01  8.50000000E-01  8.50000000E-01  8.50000000E-01  8.50000000E-01
  8.50000000E-01  8.50000000E-01  8.50000000E-01  8.50000000E-01  8.50000000E-01
  8.50000000E-01  8.50000000E-01  8.50000000E-01  8.50000000E-01  8.50000000E-01
  8.50000000E-01  8.50000000E-01  8.50000000E-01  8.50000000E-01  8.50000000E-01
  8.50000000E-01  8.50000000E-01  8.50000000E-01  8.50000000E-01  8.50000000E-01
  8.50000000E-01  8.50000000E-01  8.50000000E-01  8.50000000E-01  8.50000000E-01
  8.50000000E-01  8.50000000E-01  8.50000000E-01  8.50000000E-01  8.50000000E-01
  8.50000000E-01  8.50000000E-01  8.50000000E-01  8.50000000E-01  8.50000000E-01
  8.50000000E-01  8.50000000E-01  8.50000000E-01  8.50000000E-01  8.50000000E-01
  8.50000000E-01  8.50000000E-01  8.50000000E-01  8.50000000E-01  8.50000000E-01
  8.50000000E-01  8.50000000E-01  8.50000000E-01  8.50000000E-01  8.50000000E-01
  8.50000000E-01  8.50000000E-01  8.50000000E-01  8.50000000E-01  8.50000000E-01
  8.50000000E-01  8.50000000E-01  8.50000000E-01  8.50000000E-01  8.50000000E-01
  8.50000000E-01  8.50000000E-01  8.50000000E-01  8.50000000E-01  8.50000000E-01
  8.50000000E-01  8.50000000E-01  8.50000000E-01  8.50000000E-01  8.50000000E-01
  8.50000000E-01  8.50000000E-01  8.50000000E-01  8.50000000E-01  8.50000000E-01
  8.50000000E-01  8.50000000E-01  8.50000000E-01  8.50000000E-01  8.50000000E-01
  8.50000000E-01  8.50000000E-01  8.50000000E-01  8.50000000E-01  8.50000000E-01
  8.50000000E-01  8.50000000E-01  8.50000000E-01  8.50000000E-01  8.50000000E-01
  8.50000000E-01  8.50000000E-01  8.50000000E-01  8.50000000E-01  8.50000000E-01
  8.50000000E-01  8.50000000E-01  8.50000000E-01  8.50000000E-01  8.50000000E-01
  8.50000000E-01  8.50000000E-01  8.50000000E-01  8.50000000E-01  8.50000000E-01
  8.50000000E-01  8.50000000E-01  8.50000000E-01  8.50000000E-01  8.50000000E-01
  8.50000000E-01  8.50000000E-01  8.50000000E-01  8.50000000E-01  8.50000000E-01
  8.50000000E-01  8.50000000E-01  8.50000000E-01  8.50000000E-01  8.50000000E-01
  8.50000000E-01  8.50000000E-01  8.50000000E-01  8.50000000E-01  8.50000000E-01
  8.50000000E-01  8.50000000E-01  8.50000000E-01  8.50000000E-01  8.50000000E-01
  8.50000000E-01  8.50000000E-01  8.50000000E-01  8.50000000E-01  8.50000000E-01
  8.50000000E-01  8.50000000E-01  8.50000000E-01  8.50000000E-01  8.50000000E-01
  8.50000000E-01  8.50000000E-01  8.50000000E-01  8.50000000E-01  8.50000000E-01
  8.50000000E-01  8.50000000E-01  8.50000000E-01  8.50000000E-01  8.50000000E-01
  8.50000000E-01  8.50000000E-01  8.50000000E-01  8.50000000E-01  8.50000000E-01
  8.50000000E-01  8.50000000E-01  8.50000000E-01  8.50000000E-01  8.50000000E-01
  8.50000000E-01  8.50000000E-01  8.50000000E-01  8.50000000E-01  8.50000000E-01
  8.50000000E-01  8.50000000E-01  8.50000000E-01  8.50000000E-01  8.50000000E-01
  8.50000000E-01  8.50000000E-01  8.50000000E-01  8.50000000E-01  8.50000000E-01
  8.50000000E-01  8.50000000E-01  8.50000000E-01  8.50000000E-01  8.50000000E-01
  8.50000000E-01  8.50000000E-01  8.50000000E-01  8.50000000E-01  8.50000000E-01
  8.50000000E-01  8.50000000E-01  8.50000000E-01  8.50000000E-01  8.50000000E-01
  8.50000000E-01  8.50000000E-01  8.50000000E-01  8.50000000E-01  8.50000000E-01
  8.50000000E-01  8.50000000E-01  8.50000000E-01  8.50000000E-01  8.50000000E-01
  8.50000000E-01  8.50000000E-01  8.50000000E-01  8.50000000E-01  8.50000000E-01
  8.50000000E-01  8.50000000E-01  8.50000000E-01  8.50000000E-01  8.50000000E-01
  8.50000000E-01  8.50000000E-01  8.50000000E-01  8.50000000E-01  8.50000000E-01
  8.50000000E-01  8.50000000E-01  8.50000000E-01  8.50000000E-01  8.50000000E-01
  8.50000000E-01  8.50000000E-01  8.50000000E-01  8.50000000E-01  8.50000000E-01
  8.50000000E-01  8.50000000E-01  8.50000000E-01  8.50000000E-01  8.50000000E-01
  8.50000000E-01  8.50000000E-01  8.50000000E-01  8.50000000E-01  8.50000000E-01
  8.50000000E-01  8.50000000E-01  8.50000000E-01  8.50000000E-01  8.50000000E-01
  8.50000000E-01  8.50000000E-01  8.50000000E-01  8.50000000E-01  8.50000000E-01
  8.50000000E-01  8.50000000E-01  8.50000000E-01  8.50000000E-01  8.50000000E-01
  8.50000000E-01  8.50000000E-01  8.50000000E-01  8.50000000E-01  8.50000000E-01
  8.50000000E-01  8.50000000E-01  8.50000000E-01  8.50000000E-01  8.50000000E-01
  8.50000000E-01  8.50000000E-01  8.50000000E-01  8.50000000E-01  8.50000000E-01
  8.50000000E-01  8.50000000E-01  8.50000000E-01  8.50000000E-01  8.50000000E-01
  8.50000000E-01  8.50000000E-01  8.50000000E-01  8.50000000E-01  8.50000000E-01
  8.50000000E-01  8.50000000E-01  8.50000000E-01  8.50000000E-01  8.50000000E-01
  8.50000000E-01  8.50000000E-01  8.50000000E-01  8.50000000E-01  8.50000000E-01
  8.50000000E-01  8.50000000E-01  8.50000000E-01  8.50000000E-01  8.50000000E-01
  8.50000000E-01  8.50000000E-01  8.50000000E-01  8.50000000E-01  8.50000000E-01
  8.50000000E-01  8.50000000E-01  8.50000000E-01  8.50000000E-01  8.50000000E-01
  8.50000000E-01  8.50000000E-01  8.50000000E-01  8.50000000E-01  8.50000000E-01
  8.50000000E-01  8.50000000E-01  8.50000000E-01  8.50000000E-01  8.50000000E-01
  8.50000000E-01  8.50000000E-01  8.50000000E-01  8.50000000E-01  8.50000000E-01
  8.50000000E-01  8.50000000E-01  8.50000000E-01  8.50000000E-01  8.50000000E-01
  8.50000000E-01  8.50000000E-01  8.50000000E-01  8.50000000E-01  8.50000000E-01
  8.50000000E-01  8.50000000E-01  8.50000000E-01  8.50000000E-01  8.50000000E-01
  8.50000000E-01  8.50000000E-01  8.50000000E-01  8.50000000E-01  8.50000000E-01
  8.50000000E-01  8.50000000E-01  8.50000000E-01  8.50000000E-01  8.50000000E-01
  8.50000000E-01  8.50000000E-01  8.50000000E-01  8.50000000E-01  8.50000000E-01
  8.50000000E-01  8.50000000E-01  8.50000000E-01  8.50000000E-01  8.50000000E-01
  8.50000000E-01  8.50000000E-01  8.50000000E-01  8.50000000E-01  8.50000000E-01
  8.50000000E-01  8.50000000E-01  8.50000000E-01  8.50000000E-01  8.50000000E-01
  8.50000000E-01  8.50000000E-01  8.50000000E-01  8.50000000E-01  8.50000000E-01
  8.50000000E-01  8.50000000E-01  8.50000000E-01  8.50000000E-01  8.50000000E-01
  8.50000000E-01  8.50000000E-01  8.50000000E-01  8.50000000E-01  8.50000000E-01
  8.50000000E-01  8.50000000E-01  8.50000000E-01  8.50000000E-01  8.50000000E-01
  8.50000000E-01  8.50000000E-01  8.50000000E-01  8.50000000E-01  8.50000000E-01
  8.50000000E-01  8.50000000E-01  8.50000000E-01  8.50000000E-01  8.50000000E-01
  8.50000000E-01  8.50000000E-01  8.50000000E-01  8.50000000E-01  8.50000000E-01
  8.50000000E-01  8.50000000E-01  8.50000000E-01  8.50000000E-01  8.50000000E-01
  8.50000000E-01  8.50000000E-01  8.50000000E-01  8.50000000E-01  8.50000000E-01
  8.50000000E-01  8.50000000E-01  8.50000000E-01  8.50000000E-01  8.50000000E-01
  8.50000000E-01  8.50000000E-01  8.50000000E-01  8.50000000E-01  8.50000000E-01
  8.50000000E-01  8.50000000E-01  8.50000000E-01  8.50000000E-01  8.50000000E-01
  8.50000000E-01  8.50000000E-01  8.50000000E-01  8.50000000E-01  8.50000000E-01
  8.50000000E-01  8.50000000E-01  8.50000000E-01  8.50000000E-01  8.50000000E-01
  8.50000000E-01  8.50000000E-01  8.50000000E-01  8.50000000E-01  8.50000000E-01
  8.50000000E-01  8.50000000E-01  8.50000000E-01  8.50000000E-01  8.50000000E-01
  8.50000000E-01  8.50000000E-01  8.50000000E-01  8.50000000E-01  8.50000000E-01
  8.50000000E-01  8.50000000E-01  8.50000000E-01  8.50000000E-01  8.50000000E-01
  8.50000000E-01  8.50000000E-01  8.50000000E-01  8.50000000E-01  8.50000000E-01
  8.50000000E-01  8.50000000E-01  8.50000000E-01  8.50000000E-01  8.50000000E-01
  8.50000000E-01  8.50000000E-01  8.50000000E-01  8.50000000E-01  8.50000000E-01
  8.50000000E-01  8.50000000E-01  8.50000000E-01  8.50000000E-01  8.50000000E-01
  8.50000000E-01  8.50000000E-01  8.50000000E-01  8.50000000E-01  8.50000000E-01
  8.50000000E-01  8.50000000E-01  8.50000000E-01  8.50000000E-01  8.50000000E-01
  8.50000000E-01  8.50000000E-01  8.50000000E-01  8.50000000E-01  8.50000000E-01
  8.50000000E-01  8.50000000E-01  8.50000000E-01  8.50000000E-01  8.50000000E-01
  8.50000000E-01  8.50000000E-01  8.50000000E-01  8.50000000E-01  8.50000000E-01
  8.50000000E-01  8.50000000E-01  8.50000000E-01  8.50000000E-01  8.50000000E-01
  8.50000000E-01  8.50000000E-01  8.50000000E-01  8.50000000E-01  8.50000000E-01
  8.50000000E-01  8.50000000E-01  8.50000000E-01  8.50000000E-01  8.50000000E-01
  8.50000000E-01  8.50000000E-01  8.50000000E-01  8.50000000E-01  8.50000000E-01
  8.50000000E-01  8.50000000E-01  8.50000000E-01  8.50000000E-01  8.50000000E-01
  8.50000000E-01  8.50000000E-01  8.50000000E-01  8.50000000E-01  8.50000000E-01
  8.50000000E-01  8.50000000E-01  8.50000000E-01  8.50000000E-01  8.50000000E-01
  8.50000000E-01  8.50000000E-01  8.50000000E-01  8.50000000E-01  8.50000000E-01
  8.50000000E-01  8.50000000E-01  8.50000000E-01  8.50000000E-01  8.50000000E-01
  8.50000000E-01  8.50000000E-01  8.50000000E-01  8.50000000E-01  8.50000000E-01
  8.50000000E-01  8.50000000E-01  8.50000000E-01  8.50000000E-01  8.50000000E-01
  8.50000000E-01  8.50000000E-01  8.50000000E-01  8.50000000E-01  8.50000000E-01
  8.50000000E-01  8.50000000E-01  8.50000000E-01  8.50000000E-01  8.50000000E-01
  8.50000000E-01  8.50000000E-01  8.50000000E-01  8.50000000E-01  8.50000000E-01
  8.50000000E-01  8.50000000E-01  8.50000000E-01  8.50000000E-01  8.50000000E-01
  8.50000000E-01  8.50000000E-01  8.50000000E-01  8.50000000E-01  8.50000000E-01
  8.50000000E-01  8.50000000E-01  8.50000000E-01  8.50000000E-01  8.50000000E-01
  8.50000000E-01  8.50000000E-01  8.50000000E-01  8.50000000E-01  8.50000000E-01
  8.50000000E-01  8.50000000E-01  8.50000000E-01  8.50000000E-01  8.50000000E-01
  8.50000000E-01  8.50000000E-01  8.50000000E-01  8.50000000E-01  8.50000000E-01
  8.50000000E-01  8.50000000E-01  8.50000000E-01  8.50000000E-01  8.50000000E-01
  8.50000000E-01  8.50000000E-01  8.50000000E-01  8.50000000E-01  8.50000000E-01
  8.50000000E-01  8.50000000E-01  8.50000000E-01  8.50000000E-01  8.50000000E-01
  8.50000000E-01  8.50000000E-01  8.50000000E-01  8.50000000E-01  8.50000000E-01
  8.50000000E-01  8.50000000E-01  8.50000000E-01  8.50000000E-01  8.50000000E-01
  8.50000000E-01  8.50000000E-01  8.50000000E-01  8.50000000E-01  8.50000000E-01
  8.50000000E-01  8.50000000E-01  8.50000000E-01  8.50000000E-01  8.50000000E-01
  8.50000000E-01  8.50000000E-01  8.50000000E-01  8.50000000E-01  8.50000000E-01
  8.50000000E-01  8.50000000E-01  8.50000000E-01  8.50000000E-01  8.50000000E-01
  8.50000000E-01  8.50000000E-01  8.50000000E-01  8.50000000E-01  8.50000000E-01
  8.50000000E-01  8.50000000E-01  8.50000000E-01  8.50000000E-01  8.50000000E-01
  8.50000000E-01  8.50000000E-01  8.50000000E-01  8.50000000E-01  8.50000000E-01
  8.50000000E-01  8.50000000E-01  8.50000000E-01  8.50000000E-01  8.50000000E-01
  8.50000000E-01  8.50000000E-01  8.50000000E-01  8.50000000E-01  8.50000000E-01
  8.50000000E-01  8.50000000E-01  8.50000000E-01  8.50000000E-01  8.50000000E-01
  8.50000000E-01  8.50000000E-01  8.50000000E-01  8.50000000E-01  8.50000000E-01
  8.50000000E-01  8.50000000E-01  8.50000000E-01  8.50000000E-01  8.50000000E-01
  8.50000000E-01  8.50000000E-01  8.50000000E-01  8.50000000E-01  8.50000000E-01
  8.50000000E-01  8.50000000E-01  8.50000000E-01  8.50000000E-01  8.50000000E-01
  8.50000000E-01  8.50000000E-01  8.50000000E-01  8.50000000E-01  8.50000000E-01
  8.50000000E-01  8.50000000E-01  8.50000000E-01  8.50000000E-01  8.50000000E-01
  8.50000000E-01  8.50000000E-01  8.50000000E-01  8.50000000E-01  8.50000000E-01
  8.50000000E-01  8.50000000E-01  8.50000000E-01  8.50000000E-01  8.50000000E-01
  8.50000000E-01  8.50000000E-01  8.50000000E-01  8.50000000E-01  8.50000000E-01
  8.50000000E-01  8.50000000E-01  8.50000000E-01  8.50000000E-01  8.50000000E-01
  8.50000000E-01  8.50000000E-01  8.50000000E-01  8.50000000E-01  8.50000000E-01
  8.50000000E-01  8.50000000E-01  8.50000000E-01  8.50000000E-01  8.50000000E-01
  8.50000000E-01  8.50000000E-01  8.50000000E-01  8.50000000E-01  8.50000000E-01
  8.50000000E-01  8.50000000E-01  8.50000000E-01  8.50000000E-01  8.50000000E-01
  8.50000000E-01  8.50000000E-01  8.50000000E-01  8.50000000E-01  8.50000000E-01
  8.50000000E-01  8.50000000E-01  8.50000000E-01  8.50000000E-01  8.50000000E-01
  8.50000000E-01  8.50000000E-01  8.50000000E-01  8.50000000E-01  8.50000000E-01
  8.50000000E-01  8.50000000E-01  8.50000000E-01  8.50000000E-01  8.50000000E-01
  8.50000000E-01  8.50000000E-01  8.50000000E-01  8.50000000E-01  8.50000000E-01
  8.50000000E-01  8.50000000E-01  8.50000000E-01  8.50000000E-01  8.50000000E-01
  8.50000000E-01  8.50000000E-01  8.50000000E-01  8.50000000E-01  8.50000000E-01
  8.50000000E-01  8.50000000E-01  8.50000000E-01  8.50000000E-01  8.50000000E-01
  8.50000000E-01  8.50000000E-01  8.50000000E-01  8.50000000E-01  8.50000000E-01
  8.50000000E-01  8.50000000E-01  8.50000000E-01  8.50000000E-01  8.50000000E-01
  8.50000000E-01  8.50000000E-01  8.50000000E-01  8.50000000E-01  8.50000000E-01
  8.50000000E-01  8.50000000E-01  8.50000000E-01  8.50000000E-01  8.50000000E-01
  8.50000000E-01  8.50000000E-01  8.50000000E-01  8.50000000E-01  8.50000000E-01
  8.50000000E-01  8.50000000E-01  8.50000000E-01  8.50000000E-01  8.50000000E-01
  8.50000000E-01  8.50000000E-01  8.50000000E-01  8.50000000E-01  8.50000000E-01
  8.50000000E-01  8.50000000E-01  8.50000000E-01  8.50000000E-01  8.50000000E-01
  8.50000000E-01  8.50000000E-01  8.50000000E-01  8.50000000E-01  8.50000000E-01
  8.50000000E-01  8.50000000E-01  8.50000000E-01  8.50000000E-01  8.50000000E-01
  8.50000000E-01  8.50000000E-01  8.50000000E-01  8.50000000E-01  8.50000000E-01
  8.50000000E-01  8.50000000E-01  8.50000000E-01  8.50000000E-01  8.50000000E-01
  8.50000000E-01  8.50000000E-01  8.50000000E-01  8.50000000E-01  8.50000000E-01
  8.50000000E-01  8.50000000E-01  8.50000000E-01  8.50000000E-01  8.50000000E-01
  8.50000000E-01  8.50000000E-01  8.50000000E-01  8.50000000E-01  8.50000000E-01
  8.50000000E-01  8.50000000E-01  8.50000000E-01  8.50000000E-01  8.50000000E-01
  8.50000000E-01  8.50000000E-01  8.50000000E-01  8.50000000E-01  8.50000000E-01
  8.50000000E-01  8.50000000E-01  8.50000000E-01  8.50000000E-01  8.50000000E-01
  8.50000000E-01  8.50000000E-01  8.50000000E-01  8.50000000E-01  8.50000000E-01
  8.50000000E-01  8.50000000E-01  8.50000000E-01  8.50000000E-01  8.50000000E-01
  8.50000000E-01  8.50000000E-01  8.50000000E-01  8.50000000E-01  8.50000000E-01
  8.50000000E-01  8.50000000E-01  8.50000000E-01  8.50000000E-01  8.50000000E-01
  8.50000000E-01  8.50000000E-01  8.50000000E-01  8.50000000E-01  8.50000000E-01
  8.50000000E-01  8.50000000E-01  8.50000000E-01  8.50000000E-01  8.50000000E-01
  8.50000000E-01  8.50000000E-01  8.50000000E-01  8.50000000E-01  8.50000000E-01
  8.50000000E-01  8.50000000E-01  8.50000000E-01  8.50000000E-01  8.50000000E-01
  8.50000000E-01  8.50000000E-01  8.50000000E-01  8.50000000E-01  8.50000000E-01
  8.50000000E-01  8.50000000E-01  8.50000000E-01  8.50000000E-01  8.50000000E-01
  8.50000000E-01  8.50000000E-01  8.50000000E-01  8.50000000E-01  8.50000000E-01
  8.50000000E-01  8.50000000E-01  8.50000000E-01  8.50000000E-01  8.50000000E-01
  8.50000000E-01  8.50000000E-01  8.50000000E-01  8.50000000E-01  8.50000000E-01
  8.50000000E-01  8.50000000E-01  8.50000000E-01  8.50000000E-01  8.50000000E-01
  8.50000000E-01  8.50000000E-01  8.50000000E-01  8.50000000E-01  8.50000000E-01
  8.50000000E-01  8.50000000E-01  8.50000000E-01  8.50000000E-01  8.50000000E-01
  8.50000000E-01  8.50000000E-01  8.50000000E-01  8.50000000E-01  8.50000000E-01
  8.50000000E-01  8.50000000E-01  8.50000000E-01  8.50000000E-01  8.50000000E-01
  8.50000000E-01  8.50000000E-01  8.50000000E-01  8.50000000E-01  8.50000000E-01
  8.50000000E-01  8.50000000E-01  8.50000000E-01  8.50000000E-01  8.50000000E-01
  8.50000000E-01  8.50000000E-01  8.50000000E-01  8.50000000E-01  8.50000000E-01
  8.50000000E-01  8.50000000E-01  8.50000000E-01  8.50000000E-01  8.50000000E-01
  8.50000000E-01  8.50000000E-01  8.50000000E-01  8.50000000E-01  8.50000000E-01
  8.50000000E-01  8.50000000E-01  8.50000000E-01  8.50000000E-01  8.50000000E-01
  8.50000000E-01  8.50000000E-01  8.50000000E-01  8.50000000E-01  8.50000000E-01
  8.50000000E-01  8.50000000E-01  8.50000000E-01  8.50000000E-01  8.50000000E-01
  8.50000000E-01  8.50000000E-01  8.50000000E-01  8.50000000E-01  8.50000000E-01
  8.50000000E-01  8.50000000E-01  8.50000000E-01  8.50000000E-01  8.50000000E-01
  8.50000000E-01  8.50000000E-01  8.50000000E-01  8.50000000E-01  8.50000000E-01
  8.50000000E-01  8.50000000E-01  8.50000000E-01  8.50000000E-01  8.50000000E-01
  8.50000000E-01  8.50000000E-01  8.50000000E-01  8.50000000E-01  8.50000000E-01
  8.50000000E-01  8.50000000E-01  8.50000000E-01  8.50000000E-01  8.50000000E-01
  8.50000000E-01  8.50000000E-01  8.50000000E-01  8.50000000E-01  8.50000000E-01
  8.50000000E-01  8.50000000E-01  8.50000000E-01  8.50000000E-01  8.50000000E-01
  8.50000000E-01  8.50000000E-01  8.50000000E-01  8.50000000E-01  8.50000000E-01
  8.50000000E-01  8.50000000E-01  8.50000000E-01  8.50000000E-01  8.50000000E-01
  8.50000000E-01  8.50000000E-01  8.50000000E-01  8.50000000E-01  8.50000000E-01
  8.50000000E-01  8.50000000E-01  8.50000000E-01  8.50000000E-01  8.50000000E-01
  8.50000000E-01  8.50000000E-01  8.50000000E-01  8.50000000E-01  8.50000000E-01
  8.50000000E-01  8.50000000E-01  8.50000000E-01  8.50000000E-01  8.50000000E-01
  8.50000000E-01  8.50000000E-01  8.50000000E-01  8.50000000E-01  8.50000000E-01
  8.50000000E-01  8.50000000E-01  8.50000000E-01  8.50000000E-01  8.50000000E-01
  8.50000000E-01  8.50000000E-01  8.50000000E-01  8.50000000E-01  8.50000000E-01
  8.50000000E-01  8.50000000E-01  8.50000000E-01  8.50000000E-01  8.50000000E-01
  8.50000000E-01  8.50000000E-01  8.50000000E-01  8.50000000E-01  8.50000000E-01
  8.50000000E-01  8.50000000E-01  8.50000000E-01  8.50000000E-01  8.50000000E-01
  8.50000000E-01  8.50000000E-01  8.50000000E-01  8.50000000E-01  8.50000000E-01
  8.50000000E-01  8.50000000E-01  8.50000000E-01  8.50000000E-01  8.50000000E-01
  8.50000000E-01  8.50000000E-01  8.50000000E-01  8.50000000E-01  8.50000000E-01
  8.50000000E-01  8.50000000E-01  8.50000000E-01  8.50000000E-01  8.50000000E-01
  8.50000000E-01  8.50000000E-01  8.50000000E-01  8.50000000E-01  8.50000000E-01
  8.50000000E-01  8.50000000E-01  8.50000000E-01  8.50000000E-01  8.50000000E-01
  8.50000000E-01  8.50000000E-01  8.50000000E-01  8.50000000E-01  8.50000000E-01
  8.50000000E-01  8.50000000E-01  8.50000000E-01  8.50000000E-01  8.50000000E-01
  8.50000000E-01  8.50000000E-01  8.50000000E-01  8.50000000E-01  8.50000000E-01
  8.50000000E-01  8.50000000E-01  8.50000000E-01  8.50000000E-01  8.50000000E-01
  8.50000000E-01  8.50000000E-01  8.50000000E-01  8.50000000E-01  8.50000000E-01
  8.50000000E-01  8.50000000E-01  8.50000000E-01  8.50000000E-01  8.50000000E-01
  8.50000000E-01  8.50000000E-01  8.50000000E-01  8.50000000E-01  8.50000000E-01
  8.50000000E-01  8.50000000E-01  8.50000000E-01  8.50000000E-01  8.50000000E-01
  8.50000000E-01  8.50000000E-01  8.50000000E-01  8.50000000E-01  8.50000000E-01
  8.50000000E-01  8.50000000E-01  8.50000000E-01  8.50000000E-01  8.50000000E-01
  8.50000000E-01  8.50000000E-01  8.50000000E-01  8.50000000E-01  8.50000000E-01
  8.50000000E-01  8.50000000E-01  8.50000000E-01  8.50000000E-01  8.50000000E-01
  8.50000000E-01  8.50000000E-01  8.50000000E-01  8.50000000E-01  8.50000000E-01
  8.50000000E-01  8.50000000E-01  8.50000000E-01  8.50000000E-01  8.50000000E-01
  8.50000000E-01  8.50000000E-01  8.50000000E-01  8.50000000E-01  8.50000000E-01
  8.50000000E-01  8.50000000E-01  8.50000000E-01  8.50000000E-01  8.50000000E-01
  8.50000000E-01  8.50000000E-01  8.50000000E-01  8.50000000E-01  8.50000000E-01
  8.50000000E-01  8.50000000E-01  8.50000000E-01  8.50000000E-01  8.50000000E-01
  8.50000000E-01  8.50000000E-01  8.50000000E-01  8.50000000E-01  8.50000000E-01
  8.50000000E-01  8.50000000E-01  8.50000000E-01  8.50000000E-01  8.50000000E-01
  8.50000000E-01  8.50000000E-01  8.50000000E-01  8.50000000E-01  8.50000000E-01
  8.50000000E-01  8.50000000E-01  8.50000000E-01  8.50000000E-01  8.50000000E-01
  8.50000000E-01  8.50000000E-01  8.50000000E-01  8.50000000E-01  8.50000000E-01
  8.50000000E-01  8.50000000E-01  8.50000000E-01  8.50000000E-01  8.50000000E-01
  8.50000000E-01  8.50000000E-01  8.50000000E-01  8.50000000E-01  8.50000000E-01
  8.50000000E-01  8.50000000E-01  8.50000000E-01  8.50000000E-01  8.50000000E-01
  8.50000000E-01  8.50000000E-01  8.50000000E-01  8.50000000E-01  8.50000000E-01
  8.50000000E-01  8.50000000E-01  8.50000000E-01  8.50000000E-01  8.50000000E-01
  8.50000000E-01  8.50000000E-01  8.50000000E-01  8.50000000E-01  8.50000000E-01
  8.50000000E-01  8.50000000E-01  8.50000000E-01  8.50000000E-01  8.50000000E-01
  8.50000000E-01  8.50000000E-01  8.50000000E-01  8.50000000E-01  8.50000000E-01
  8.50000000E-01  8.50000000E-01  8.50000000E-01  8.50000000E-01  8.50000000E-01
  8.50000000E-01  8.50000000E-01  8.50000000E-01  8.50000000E-01  8.50000000E-01
  8.50000000E-01  8.50000000E-01  8.50000000E-01  8.50000000E-01  8.50000000E-01
  8.50000000E-01  8.50000000E-01  8.50000000E-01  8.50000000E-01  8.50000000E-01
  8.50000000E-01  8.50000000E-01  8.50000000E-01  8.50000000E-01  8.50000000E-01
  8.50000000E-01  8.50000000E-01  8.50000000E-01  8.50000000E-01  8.50000000E-01
  8.50000000E-01  8.50000000E-01  8.50000000E-01  8.50000000E-01  8.50000000E-01
  8.50000000E-01  8.50000000E-01  8.50000000E-01  8.50000000E-01  8.50000000E-01
  8.50000000E-01  8.50000000E-01  8.50000000E-01  8.50000000E-01  8.50000000E-01
  8.50000000E-01  8.50000000E-01  8.50000000E-01  8.50000000E-01  8.50000000E-01
  8.50000000E-01  8.50000000E-01  8.50000000E-01  8.50000000E-01  8.50000000E-01
  8.50000000E-01  8.50000000E-01  8.50000000E-01  8.50000000E-01  8.50000000E-01
  8.50000000E-01  8.50000000E-01  8.50000000E-01  8.50000000E-01  8.50000000E-01
  8.50000000E-01  8.50000000E-01  8.50000000E-01  8.50000000E-01  8.50000000E-01
  8.50000000E-01  8.50000000E-01  8.50000000E-01  8.50000000E-01  8.50000000E-01
  8.50000000E-01  8.50000000E-01  8.50000000E-01  8.50000000E-01  8.50000000E-01
  8.50000000E-01  8.50000000E-01  8.50000000E-01  8.50000000E-01  8.50000000E-01
  8.50000000E-01  8.50000000E-01  8.50000000E-01  8.50000000E-01  8.50000000E-01
  8.50000000E-01  8.50000000E-01  8.50000000E-01  8.50000000E-01  8.50000000E-01
  8.50000000E-01  8.50000000E-01  8.50000000E-01  8.50000000E-01  8.50000000E-01
  8.50000000E-01  8.50000000E-01  8.50000000E-01  8.50000000E-01  8.50000000E-01
  8.50000000E-01  8.50000000E-01  8.50000000E-01  8.50000000E-01  8.50000000E-01
  8.50000000E-01  8.50000000E-01  8.50000000E-01  8.50000000E-01  8.50000000E-01
  8.50000000E-01  8.50000000E-01  8.50000000E-01  8.50000000E-01  8.50000000E-01
  8.50000000E-01  8.50000000E-01  8.50000000E-01  8.50000000E-01  8.50000000E-01
  8.50000000E-01  8.50000000E-01  8.50000000E-01  8.50000000E-01  8.50000000E-01
  8.50000000E-01  8.50000000E-01  8.50000000E-01  8.50000000E-01  8.50000000E-01
  8.50000000E-01  8.50000000E-01  8.50000000E-01  8.50000000E-01  8.50000000E-01
  8.50000000E-01  8.50000000E-01  8.50000000E-01  8.50000000E-01  8.50000000E-01
  8.50000000E-01  8.50000000E-01  8.50000000E-01  8.50000000E-01  8.50000000E-01
  8.50000000E-01  8.50000000E-01  8.50000000E-01  8.50000000E-01  8.50000000E-01
  8.50000000E-01  8.50000000E-01  8.50000000E-01  8.50000000E-01  8.50000000E-01
  8.50000000E-01  8.50000000E-01  8.50000000E-01  8.50000000E-01  8.50000000E-01
  8.50000000E-01  8.50000000E-01  8.50000000E-01  8.50000000E-01  8.50000000E-01
  8.50000000E-01  8.50000000E-01  8.50000000E-01  8.50000000E-01  8.50000000E-01
  8.50000000E-01  8.50000000E-01  8.50000000E-01  8.50000000E-01  8.50000000E-01
  8.50000000E-01  8.50000000E-01  8.50000000E-01  8.50000000E-01  8.50000000E-01
  8.50000000E-01  8.50000000E-01  8.50000000E-01  8.50000000E-01  8.50000000E-01
  8.50000000E-01  8.50000000E-01  8.50000000E-01  8.50000000E-01  8.50000000E-01
  8.50000000E-01  8.50000000E-01  8.50000000E-01  8.50000000E-01  8.50000000E-01
  8.50000000E-01  8.50000000E-01  8.50000000E-01  8.50000000E-01  8.50000000E-01
  8.50000000E-01  8.50000000E-01  8.50000000E-01  8.50000000E-01  8.50000000E-01
  8.50000000E-01  8.50000000E-01  8.50000000E-01  8.50000000E-01  8.50000000E-01
  8.50000000E-01  8.50000000E-01  8.50000000E-01  8.50000000E-01  8.50000000E-01
  8.50000000E-01  8.50000000E-01  8.50000000E-01  8.50000000E-01  8.50000000E-01
  8.50000000E-01  8.50000000E-01  8.50000000E-01  8.50000000E-01  8.50000000E-01
  8.50000000E-01  8.50000000E-01  8.50000000E-01  8.50000000E-01  8.50000000E-01
  8.50000000E-01  8.50000000E-01  8.50000000E-01  8.50000000E-01  8.50000000E-01
  8.50000000E-01  8.50000000E-01  8.50000000E-01  8.50000000E-01  8.50000000E-01
  8.50000000E-01  8.50000000E-01  8.50000000E-01  8.50000000E-01  8.50000000E-01
  8.50000000E-01  8.50000000E-01  8.50000000E-01  8.50000000E-01  8.50000000E-01
  8.50000000E-01  8.50000000E-01  8.50000000E-01  8.50000000E-01  8.50000000E-01
  8.50000000E-01  8.50000000E-01  8.50000000E-01  8.50000000E-01  8.50000000E-01
  8.50000000E-01  8.50000000E-01  8.50000000E-01  8.50000000E-01  8.50000000E-01
  8.50000000E-01  8.50000000E-01  8.50000000E-01  8.50000000E-01  8.50000000E-01
  8.50000000E-01  8.50000000E-01  8.50000000E-01  8.50000000E-01  8.50000000E-01
  8.50000000E-01  8.50000000E-01  8.50000000E-01  8.50000000E-01  8.50000000E-01
  8.50000000E-01  8.50000000E-01  8.50000000E-01  8.50000000E-01  8.50000000E-01
  8.50000000E-01  8.50000000E-01  8.50000000E-01  8.50000000E-01  8.50000000E-01
  8.50000000E-01  8.50000000E-01  8.50000000E-01  8.50000000E-01  8.50000000E-01
  8.50000000E-01  8.50000000E-01  8.50000000E-01  8.50000000E-01  8.50000000E-01
  8.50000000E-01  8.50000000E-01  8.50000000E-01  8.50000000E-01  8.50000000E-01
  8.50000000E-01  8.50000000E-01  8.50000000E-01  8.50000000E-01  8.50000000E-01
  8.50000000E-01  8.50000000E-01  8.50000000E-01  8.50000000E-01  8.50000000E-01
  8.50000000E-01  8.50000000E-01  8.50000000E-01  8.50000000E-01  8.50000000E-01
  8.50000000E-01  8.50000000E-01  8.50000000E-01  8.50000000E-01  8.50000000E-01
  8.50000000E-01  8.50000000E-01  8.50000000E-01  8.50000000E-01  8.50000000E-01
  8.50000000E-01  8.50000000E-01  8.50000000E-01  8.50000000E-01  8.50000000E-01
  8.50000000E-01  8.50000000E-01  8.50000000E-01  8.50000000E-01  8.50000000E-01
  8.50000000E-01  8.50000000E-01  8.50000000E-01  8.50000000E-01  8.50000000E-01
  8.50000000E-01  8.50000000E-01  8.50000000E-01  8.50000000E-01  8.50000000E-01
  8.50000000E-01  8.50000000E-01  8.50000000E-01  8.50000000E-01  8.50000000E-01
  8.50000000E-01  8.50000000E-01  8.50000000E-01  8.50000000E-01  8.50000000E-01
  8.50000000E-01  8.50000000E-01  8.50000000E-01  8.50000000E-01  8.50000000E-01
  8.50000000E-01  8.50000000E-01  8.50000000E-01  8.50000000E-01  8.50000000E-01
  8.50000000E-01  8.50000000E-01  8.50000000E-01  8.50000000E-01  8.50000000E-01
  8.50000000E-01  8.50000000E-01  8.50000000E-01  8.50000000E-01  8.50000000E-01
  8.50000000E-01  8.50000000E-01  8.50000000E-01  8.50000000E-01  8.50000000E-01
  8.50000000E-01  8.50000000E-01  8.50000000E-01  8.50000000E-01  8.50000000E-01
  8.50000000E-01  8.50000000E-01  8.50000000E-01  8.50000000E-01  8.50000000E-01
  8.50000000E-01  8.50000000E-01  8.50000000E-01  8.50000000E-01  8.50000000E-01
  8.50000000E-01  8.50000000E-01  8.50000000E-01  8.50000000E-01  8.50000000E-01
  8.50000000E-01  8.50000000E-01  8.50000000E-01  8.50000000E-01  8.50000000E-01
  8.50000000E-01  8.50000000E-01  8.50000000E-01  8.50000000E-01  8.50000000E-01
  8.50000000E-01  8.50000000E-01  8.50000000E-01  8.50000000E-01  8.50000000E-01
  8.50000000E-01  8.50000000E-01  8.50000000E-01  8.50000000E-01  8.50000000E-01
  8.50000000E-01  8.50000000E-01  8.50000000E-01  8.50000000E-01  8.50000000E-01
  8.50000000E-01  8.50000000E-01  8.50000000E-01  8.50000000E-01  8.50000000E-01
  8.50000000E-01  8.50000000E-01  8.50000000E-01  8.50000000E-01  8.50000000E-01
  8.50000000E-01  8.50000000E-01  8.50000000E-01  8.50000000E-01  8.50000000E-01
  8.50000000E-01  8.50000000E-01  8.50000000E-01  8.50000000E-01  8.50000000E-01
  8.50000000E-01  8.50000000E-01  8.50000000E-01  8.50000000E-01  8.50000000E-01
  8.50000000E-01  8.50000000E-01  8.50000000E-01  8.50000000E-01  8.50000000E-01
  8.50000000E-01  8.50000000E-01  8.50000000E-01  8.50000000E-01  8.50000000E-01
  8.50000000E-01  8.50000000E-01  8.50000000E-01  8.50000000E-01  8.50000000E-01
  8.50000000E-01  8.50000000E-01  8.50000000E-01  8.50000000E-01  8.50000000E-01
  8.50000000E-01  8.50000000E-01  8.50000000E-01  8.50000000E-01  8.50000000E-01
  8.50000000E-01  8.50000000E-01  8.50000000E-01  8.50000000E-01  8.50000000E-01
  8.50000000E-01  8.50000000E-01  8.50000000E-01  8.50000000E-01  8.50000000E-01
  8.50000000E-01  8.50000000E-01  8.50000000E-01  8.50000000E-01  8.50000000E-01
  8.50000000E-01  8.50000000E-01  8.50000000E-01  8.50000000E-01  8.50000000E-01
  8.50000000E-01  8.50000000E-01  8.50000000E-01  8.50000000E-01  8.50000000E-01
  8.50000000E-01  8.50000000E-01  8.50000000E-01  8.50000000E-01  8.50000000E-01
  8.50000000E-01  8.50000000E-01  8.50000000E-01  8.50000000E-01  8.50000000E-01
  8.50000000E-01  8.50000000E-01  8.50000000E-01  8.50000000E-01  8.50000000E-01
  8.50000000E-01  8.50000000E-01  8.50000000E-01  8.50000000E-01  8.50000000E-01
  8.50000000E-01  8.50000000E-01  8.50000000E-01  8.50000000E-01  8.50000000E-01
  8.50000000E-01  8.50000000E-01  8.50000000E-01  8.50000000E-01  8.50000000E-01
  8.50000000E-01  8.50000000E-01  8.50000000E-01  8.50000000E-01  8.50000000E-01
  8.50000000E-01  8.50000000E-01  8.50000000E-01  8.50000000E-01  8.50000000E-01
  8.50000000E-01  8.50000000E-01  8.50000000E-01  8.50000000E-01  8.50000000E-01
  8.50000000E-01  8.50000000E-01  8.50000000E-01  8.50000000E-01  8.50000000E-01
  8.50000000E-01  8.50000000E-01  8.50000000E-01  8.50000000E-01  8.50000000E-01
  8.50000000E-01  8.50000000E-01  8.50000000E-01  8.50000000E-01  8.50000000E-01
  8.50000000E-01  8.50000000E-01  8.50000000E-01  8.50000000E-01  8.50000000E-01
  8.50000000E-01  8.50000000E-01  8.50000000E-01  8.50000000E-01  8.50000000E-01
  8.50000000E-01  8.50000000E-01  8.50000000E-01  8.50000000E-01  8.50000000E-01
  8.50000000E-01  8.50000000E-01  8.50000000E-01  8.50000000E-01  8.50000000E-01
  8.50000000E-01  8.50000000E-01  8.50000000E-01  8.50000000E-01  8.50000000E-01
  8.50000000E-01  8.50000000E-01  8.50000000E-01  8.50000000E-01  8.50000000E-01
  8.50000000E-01  8.50000000E-01  8.50000000E-01  8.50000000E-01  8.50000000E-01
  8.50000000E-01  8.50000000E-01  8.50000000E-01  8.50000000E-01  8.50000000E-01
  8.50000000E-01  8.50000000E-01  8.50000000E-01  8.50000000E-01  8.50000000E-01
  8.50000000E-01  8.50000000E-01  8.50000000E-01  8.50000000E-01  8.50000000E-01
  8.50000000E-01  8.50000000E-01  8.50000000E-01  8.50000000E-01  8.50000000E-01
  8.50000000E-01  8.50000000E-01  8.50000000E-01  8.50000000E-01  8.50000000E-01
  8.50000000E-01  8.50000000E-01  8.50000000E-01  8.50000000E-01  8.50000000E-01
  8.50000000E-01  8.50000000E-01  8.50000000E-01  8.50000000E-01  8.50000000E-01
  8.50000000E-01  8.50000000E-01  8.50000000E-01  8.50000000E-01  8.50000000E-01
  8.50000000E-01  8.50000000E-01  8.50000000E-01  8.50000000E-01  8.50000000E-01
  8.50000000E-01  8.50000000E-01  8.50000000E-01  8.50000000E-01  8.50000000E-01
  8.50000000E-01  8.50000000E-01  8.50000000E-01  8.50000000E-01  8.50000000E-01
  8.50000000E-01  8.50000000E-01  8.50000000E-01  8.50000000E-01  8.50000000E-01
  8.50000000E-01  8.50000000E-01  8.50000000E-01  8.50000000E-01  8.50000000E-01
  8.50000000E-01  8.50000000E-01  8.50000000E-01  8.50000000E-01  8.50000000E-01
  8.50000000E-01  8.50000000E-01  8.50000000E-01  8.50000000E-01  8.50000000E-01
  8.50000000E-01  8.50000000E-01  8.50000000E-01  8.50000000E-01  8.50000000E-01
  8.50000000E-01  8.50000000E-01  8.50000000E-01  8.50000000E-01  8.50000000E-01
  8.50000000E-01  8.50000000E-01  8.50000000E-01  8.50000000E-01  8.50000000E-01
  8.50000000E-01  8.50000000E-01  8.50000000E-01  8.50000000E-01  8.50000000E-01
  8.50000000E-01  8.50000000E-01  8.50000000E-01  8.50000000E-01  8.50000000E-01
  8.50000000E-01  8.50000000E-01  8.50000000E-01  8.50000000E-01  8.50000000E-01
  8.50000000E-01  8.50000000E-01  8.50000000E-01  8.50000000E-01  8.50000000E-01
  8.50000000E-01  8.50000000E-01  8.50000000E-01  8.50000000E-01  8.50000000E-01
  8.50000000E-01  8.50000000E-01  8.50000000E-01  8.50000000E-01  8.50000000E-01
  8.50000000E-01  8.50000000E-01  8.50000000E-01  8.50000000E-01  8.50000000E-01
  8.50000000E-01  8.50000000E-01  8.50000000E-01  8.50000000E-01  8.50000000E-01
  8.50000000E-01  8.50000000E-01  8.50000000E-01  8.50000000E-01  8.50000000E-01
  8.50000000E-01  8.50000000E-01  8.50000000E-01  8.50000000E-01  8.50000000E-01
  8.50000000E-01  8.50000000E-01  8.50000000E-01  8.50000000E-01  8.50000000E-01
  8.50000000E-01  8.50000000E-01  8.50000000E-01  8.50000000E-01  8.50000000E-01
  8.50000000E-01  8.50000000E-01  8.50000000E-01  8.50000000E-01  8.50000000E-01
  8.50000000E-01  8.50000000E-01  8.50000000E-01  8.50000000E-01  8.50000000E-01
  8.50000000E-01  8.50000000E-01  8.50000000E-01  8.50000000E-01  8.50000000E-01
  8.50000000E-01  8.50000000E-01  8.50000000E-01  8.50000000E-01  8.50000000E-01
  8.50000000E-01  8.50000000E-01  8.50000000E-01  8.50000000E-01  8.50000000E-01
  8.50000000E-01  8.50000000E-01  8.50000000E-01  8.50000000E-01  8.50000000E-01
  8.50000000E-01  8.50000000E-01  8.50000000E-01  8.50000000E-01  8.50000000E-01
  8.50000000E-01  8.50000000E-01  8.50000000E-01  8.50000000E-01  8.50000000E-01
  8.50000000E-01  8.50000000E-01  8.50000000E-01  8.50000000E-01  8.50000000E-01
  8.50000000E-01  8.50000000E-01  8.50000000E-01  8.50000000E-01  8.50000000E-01
  8.50000000E-01  8.50000000E-01  8.50000000E-01  8.50000000E-01  8.50000000E-01
  8.50000000E-01  8.50000000E-01  8.50000000E-01  8.50000000E-01  8.50000000E-01
  8.50000000E-01  8.50000000E-01  8.50000000E-01  8.50000000E-01  8.50000000E-01
  8.50000000E-01  8.50000000E-01  8.50000000E-01  8.50000000E-01  8.50000000E-01
  8.50000000E-01  8.50000000E-01  8.50000000E-01  8.50000000E-01  8.50000000E-01
  8.50000000E-01  8.50000000E-01  8.50000000E-01  8.50000000E-01  8.50000000E-01
  8.50000000E-01  8.50000000E-01  8.50000000E-01  8.50000000E-01  8.50000000E-01
  8.50000000E-01  8.50000000E-01  8.50000000E-01  8.50000000E-01  8.50000000E-01
  8.50000000E-01  8.50000000E-01  8.50000000E-01  8.50000000E-01  8.50000000E-01
  8.50000000E-01  8.50000000E-01  8.50000000E-01  8.50000000E-01  8.50000000E-01
  8.50000000E-01  8.50000000E-01  8.50000000E-01  8.50000000E-01  8.50000000E-01
  8.50000000E-01  8.50000000E-01  8.50000000E-01  8.50000000E-01  8.50000000E-01
  8.50000000E-01  8.50000000E-01  8.50000000E-01  8.50000000E-01  8.50000000E-01
  8.50000000E-01  8.50000000E-01  8.50000000E-01  8.50000000E-01  8.50000000E-01
  8.50000000E-01  8.50000000E-01  8.50000000E-01  8.50000000E-01  8.50000000E-01
  8.50000000E-01  8.50000000E-01  8.50000000E-01  8.50000000E-01  8.50000000E-01
  8.50000000E-01  8.50000000E-01  8.50000000E-01  8.50000000E-01  8.50000000E-01
  8.50000000E-01  8.50000000E-01  8.50000000E-01  8.50000000E-01  8.50000000E-01
  8.50000000E-01  8.50000000E-01  8.50000000E-01  8.50000000E-01  8.50000000E-01
  8.50000000E-01  8.50000000E-01  8.50000000E-01  8.50000000E-01  8.50000000E-01
  8.50000000E-01  8.50000000E-01  8.50000000E-01  8.50000000E-01  8.50000000E-01
  8.50000000E-01  8.50000000E-01  8.50000000E-01  8.50000000E-01  8.50000000E-01
  8.50000000E-01  8.50000000E-01  8.50000000E-01  8.50000000E-01  8.50000000E-01
  8.50000000E-01  8.50000000E-01  8.50000000E-01  8.50000000E-01  8.50000000E-01
  8.50000000E-01  8.50000000E-01  8.50000000E-01  8.50000000E-01  8.50000000E-01
  8.50000000E-01  8.50000000E-01  8.50000000E-01  8.50000000E-01  8.50000000E-01
  8.50000000E-01  8.50000000E-01  8.50000000E-01  8.50000000E-01  8.50000000E-01
  8.50000000E-01  8.50000000E-01  8.50000000E-01  8.50000000E-01  8.50000000E-01
  8.50000000E-01  8.50000000E-01  8.50000000E-01  8.50000000E-01  8.50000000E-01
  8.50000000E-01  8.50000000E-01  8.50000000E-01  8.50000000E-01  8.50000000E-01
  8.50000000E-01  8.50000000E-01  8.50000000E-01  8.50000000E-01  8.50000000E-01
  8.50000000E-01  8.50000000E-01  8.50000000E-01  8.50000000E-01  8.50000000E-01
  8.50000000E-01  8.50000000E-01  8.50000000E-01  8.50000000E-01  8.50000000E-01
  8.50000000E-01  8.50000000E-01  8.50000000E-01  8.50000000E-01  8.50000000E-01
  8.50000000E-01  8.50000000E-01  8.50000000E-01  8.50000000E-01  8.50000000E-01
  8.50000000E-01  8.50000000E-01  8.50000000E-01  8.50000000E-01  8.50000000E-01
  8.50000000E-01  8.50000000E-01  8.50000000E-01  8.50000000E-01  8.50000000E-01
  8.50000000E-01  8.50000000E-01  8.50000000E-01  8.50000000E-01  8.50000000E-01
  8.50000000E-01  8.50000000E-01  8.50000000E-01  8.50000000E-01  8.50000000E-01
  8.50000000E-01  8.50000000E-01  8.50000000E-01  8.50000000E-01  8.50000000E-01
  8.50000000E-01  8.50000000E-01  8.50000000E-01  8.50000000E-01  8.50000000E-01
  8.50000000E-01  8.50000000E-01  8.50000000E-01  8.50000000E-01  8.50000000E-01
  8.50000000E-01  8.50000000E-01  8.50000000E-01  8.50000000E-01  8.50000000E-01
  8.50000000E-01  8.50000000E-01  8.50000000E-01  8.50000000E-01  8.50000000E-01
  8.50000000E-01  8.50000000E-01  8.50000000E-01  8.50000000E-01  8.50000000E-01
  8.50000000E-01  8.50000000E-01  8.50000000E-01  8.50000000E-01  8.50000000E-01
  8.50000000E-01  8.50000000E-01  8.50000000E-01  8.50000000E-01  8.50000000E-01
  8.50000000E-01  8.50000000E-01  8.50000000E-01  8.50000000E-01  8.50000000E-01
  8.50000000E-01  8.50000000E-01  8.50000000E-01  8.50000000E-01  8.50000000E-01
  8.50000000E-01  8.50000000E-01  8.50000000E-01  8.50000000E-01  8.50000000E-01
  8.50000000E-01  8.50000000E-01  8.50000000E-01  8.50000000E-01  8.50000000E-01
  8.50000000E-01  8.50000000E-01  8.50000000E-01  8.50000000E-01  8.50000000E-01
  8.50000000E-01  8.50000000E-01  8.50000000E-01  8.50000000E-01  8.50000000E-01
  8.50000000E-01  8.50000000E-01  8.50000000E-01  8.50000000E-01  8.50000000E-01
  8.50000000E-01  8.50000000E-01  8.50000000E-01  8.50000000E-01  8.50000000E-01
  8.50000000E-01  8.50000000E-01  8.50000000E-01  8.50000000E-01  8.50000000E-01
  8.50000000E-01  8.50000000E-01  8.50000000E-01  8.50000000E-01  8.50000000E-01
  8.50000000E-01  8.50000000E-01  8.50000000E-01  8.50000000E-01  8.50000000E-01
  8.50000000E-01  8.50000000E-01  8.50000000E-01  8.50000000E-01  8.50000000E-01
  8.50000000E-01  8.50000000E-01  8.50000000E-01  8.50000000E-01  8.50000000E-01
  8.50000000E-01  8.50000000E-01  8.50000000E-01  8.50000000E-01  8.50000000E-01
  8.50000000E-01  8.50000000E-01  8.50000000E-01  8.50000000E-01  8.50000000E-01
  8.50000000E-01  8.50000000E-01  8.50000000E-01  8.50000000E-01  8.50000000E-01
  8.50000000E-01  8.50000000E-01  8.50000000E-01  8.50000000E-01  8.50000000E-01
  8.50000000E-01  8.50000000E-01  8.50000000E-01  8.50000000E-01  8.50000000E-01
  8.50000000E-01  8.50000000E-01  8.50000000E-01  8.50000000E-01  8.50000000E-01
  8.50000000E-01  8.50000000E-01  8.50000000E-01  8.50000000E-01  8.50000000E-01
  8.50000000E-01  8.50000000E-01  8.50000000E-01  8.50000000E-01  8.50000000E-01
  8.50000000E-01  8.50000000E-01  8.50000000E-01  8.50000000E-01  8.50000000E-01
  8.50000000E-01  8.50000000E-01  8.50000000E-01  8.50000000E-01  8.50000000E-01
  8.50000000E-01  8.50000000E-01  8.50000000E-01  8.50000000E-01  8.50000000E-01
  8.50000000E-01  8.50000000E-01  8.50000000E-01  8.50000000E-01  8.50000000E-01
  8.50000000E-01  8.50000000E-01  8.50000000E-01  8.50000000E-01  8.50000000E-01
  8.50000000E-01  8.50000000E-01  8.50000000E-01  8.50000000E-01  8.50000000E-01
  8.50000000E-01  8.50000000E-01  8.50000000E-01  8.50000000E-01  8.50000000E-01
  8.50000000E-01  8.50000000E-01  8.50000000E-01  8.50000000E-01  8.50000000E-01
  8.50000000E-01  8.50000000E-01  8.50000000E-01  8.50000000E-01  8.50000000E-01
  8.50000000E-01  8.50000000E-01  8.50000000E-01  8.50000000E-01  8.50000000E-01
  8.50000000E-01  8.50000000E-01  8.50000000E-01  8.50000000E-01  8.50000000E-01
  8.50000000E-01  8.50000000E-01  8.50000000E-01  8.50000000E-01  8.50000000E-01
  8.50000000E-01  8.50000000E-01  8.50000000E-01  8.50000000E-01  8.50000000E-01
  8.50000000E-01  8.50000000E-01  8.50000000E-01  8.50000000E-01  8.50000000E-01
  8.50000000E-01  8.50000000E-01  8.50000000E-01  8.50000000E-01  8.50000000E-01
  8.50000000E-01  8.50000000E-01  8.50000000E-01  8.50000000E-01  8.50000000E-01
  8.50000000E-01  8.50000000E-01  8.50000000E-01  8.50000000E-01  8.50000000E-01
  8.50000000E-01  8.50000000E-01  8.50000000E-01  8.50000000E-01  8.50000000E-01
  8.50000000E-01  8.50000000E-01  8.50000000E-01  8.50000000E-01  8.50000000E-01
  8.50000000E-01  8.50000000E-01  8.50000000E-01  8.50000000E-01  8.50000000E-01
  8.50000000E-01  8.50000000E-01  8.50000000E-01  8.50000000E-01  8.50000000E-01
  8.50000000E-01  8.50000000E-01  8.50000000E-01  8.50000000E-01  8.50000000E-01
  8.50000000E-01  8.50000000E-01  8.50000000E-01  8.50000000E-01  8.50000000E-01
  8.50000000E-01  8.50000000E-01  8.50000000E-01  8.50000000E-01  8.50000000E-01
  8.50000000E-01  8.50000000E-01  8.50000000E-01  8.50000000E-01  8.50000000E-01
  8.50000000E-01  8.50000000E-01  8.50000000E-01  8.50000000E-01  8.50000000E-01
  8.50000000E-01  8.50000000E-01  8.50000000E-01  8.50000000E-01  8.50000000E-01
  8.50000000E-01  8.50000000E-01  8.50000000E-01  8.50000000E-01  8.50000000E-01
  8.50000000E-01  8.50000000E-01  8.50000000E-01  8.50000000E-01  8.50000000E-01
  8.50000000E-01  8.50000000E-01  8.50000000E-01  8.50000000E-01  8.50000000E-01
  8.50000000E-01  8.50000000E-01  8.50000000E-01  8.50000000E-01  8.50000000E-01
  8.50000000E-01  8.50000000E-01  8.50000000E-01  8.50000000E-01  8.50000000E-01
  8.50000000E-01  8.50000000E-01  8.50000000E-01  8.50000000E-01  8.50000000E-01
  8.50000000E-01  8.50000000E-01  8.50000000E-01  8.50000000E-01  8.50000000E-01
  8.50000000E-01  8.50000000E-01  8.50000000E-01  8.50000000E-01  8.50000000E-01
  8.50000000E-01  8.50000000E-01  8.50000000E-01  8.50000000E-01  8.50000000E-01
  8.50000000E-01  8.50000000E-01  8.50000000E-01  8.50000000E-01  8.50000000E-01
  8.50000000E-01  8.50000000E-01  8.50000000E-01  8.50000000E-01  8.50000000E-01
  8.50000000E-01  8.50000000E-01  8.50000000E-01  8.50000000E-01  8.50000000E-01
  8.50000000E-01  8.50000000E-01  8.50000000E-01  8.50000000E-01  8.50000000E-01
  8.50000000E-01  8.50000000E-01  8.50000000E-01  8.50000000E-01  8.50000000E-01
  8.50000000E-01  8.50000000E-01  8.50000000E-01  8.50000000E-01  8.50000000E-01
  8.50000000E-01  8.50000000E-01  8.50000000E-01  8.50000000E-01  8.50000000E-01
  8.50000000E-01  8.50000000E-01  8.50000000E-01  8.50000000E-01  8.50000000E-01
  8.50000000E-01  8.50000000E-01  8.50000000E-01  8.50000000E-01  8.50000000E-01
  8.50000000E-01  8.50000000E-01  8.50000000E-01  8.50000000E-01  8.50000000E-01
  8.50000000E-01  8.50000000E-01  8.50000000E-01  8.50000000E-01  8.50000000E-01
  8.50000000E-01  8.50000000E-01  8.50000000E-01  8.50000000E-01  8.50000000E-01
  8.50000000E-01  8.50000000E-01  8.50000000E-01  8.50000000E-01  8.50000000E-01
  8.50000000E-01  8.50000000E-01  8.50000000E-01  8.50000000E-01  8.50000000E-01
  8.50000000E-01  8.50000000E-01  8.50000000E-01  8.50000000E-01  8.50000000E-01
  8.50000000E-01  8.50000000E-01  8.50000000E-01  8.50000000E-01  8.50000000E-01
  8.50000000E-01  8.50000000E-01  8.50000000E-01  8.50000000E-01  8.50000000E-01
  8.50000000E-01  8.50000000E-01  8.50000000E-01  8.50000000E-01  8.50000000E-01
  8.50000000E-01  8.50000000E-01  8.50000000E-01  8.50000000E-01  8.50000000E-01
  8.50000000E-01  8.50000000E-01  8.50000000E-01  8.50000000E-01  8.50000000E-01
  8.50000000E-01  8.50000000E-01  8.50000000E-01  8.50000000E-01  8.50000000E-01
  8.50000000E-01  8.50000000E-01  8.50000000E-01  8.50000000E-01  8.50000000E-01
  8.50000000E-01  8.50000000E-01  8.50000000E-01  8.50000000E-01  8.50000000E-01
  8.50000000E-01  8.50000000E-01  8.50000000E-01  8.50000000E-01  8.50000000E-01
  8.50000000E-01  8.50000000E-01  8.50000000E-01  8.50000000E-01  8.50000000E-01
  8.50000000E-01  8.50000000E-01  8.50000000E-01  8.50000000E-01  8.50000000E-01
  8.50000000E-01  8.50000000E-01  8.50000000E-01  8.50000000E-01  8.50000000E-01
  8.50000000E-01  8.50000000E-01  8.50000000E-01  8.50000000E-01  8.50000000E-01
  8.50000000E-01  8.50000000E-01  8.50000000E-01  8.50000000E-01  8.50000000E-01
  8.50000000E-01  8.50000000E-01  8.50000000E-01  8.50000000E-01  8.50000000E-01
  8.50000000E-01  8.50000000E-01  8.50000000E-01  8.50000000E-01  8.50000000E-01
  8.50000000E-01  8.50000000E-01  8.50000000E-01  8.50000000E-01  8.50000000E-01
  8.50000000E-01  8.50000000E-01  8.50000000E-01  8.50000000E-01  8.50000000E-01
  8.50000000E-01  8.50000000E-01  8.50000000E-01  8.50000000E-01  8.50000000E-01
  8.50000000E-01  8.50000000E-01  8.50000000E-01  8.50000000E-01  8.50000000E-01
  8.50000000E-01  8.50000000E-01  8.50000000E-01  8.50000000E-01  8.50000000E-01
  8.50000000E-01  8.50000000E-01  8.50000000E-01  8.50000000E-01  8.50000000E-01
  8.50000000E-01  8.50000000E-01  8.50000000E-01  8.50000000E-01  8.50000000E-01
  8.50000000E-01  8.50000000E-01  8.50000000E-01  8.50000000E-01  8.50000000E-01
  8.50000000E-01  8.50000000E-01  8.50000000E-01  8.50000000E-01  8.50000000E-01
  8.50000000E-01  8.50000000E-01  8.50000000E-01  8.50000000E-01  8.50000000E-01
  8.50000000E-01  8.50000000E-01  8.50000000E-01  8.50000000E-01  8.50000000E-01
  8.50000000E-01  8.50000000E-01  8.50000000E-01  8.50000000E-01  8.50000000E-01
  8.50000000E-01  8.50000000E-01  8.50000000E-01  8.50000000E-01  8.50000000E-01
  8.50000000E-01  8.50000000E-01  8.50000000E-01  8.50000000E-01  8.50000000E-01
  8.50000000E-01  8.50000000E-01  8.50000000E-01  8.50000000E-01  8.50000000E-01
  8.50000000E-01  8.50000000E-01  8.50000000E-01  8.50000000E-01  8.50000000E-01
  8.50000000E-01  8.50000000E-01  8.50000000E-01  8.50000000E-01  8.50000000E-01
  8.50000000E-01  8.50000000E-01  8.50000000E-01  8.50000000E-01  8.50000000E-01
  8.50000000E-01  8.50000000E-01  8.50000000E-01  8.50000000E-01  8.50000000E-01
  8.50000000E-01  8.50000000E-01  8.50000000E-01  8.50000000E-01  8.50000000E-01
  8.50000000E-01  8.50000000E-01  8.50000000E-01  8.50000000E-01  8.50000000E-01
  8.50000000E-01  8.50000000E-01  8.50000000E-01  8.50000000E-01  8.50000000E-01
  8.50000000E-01  8.50000000E-01  8.50000000E-01  8.50000000E-01  8.50000000E-01
  8.50000000E-01  8.50000000E-01  8.50000000E-01  8.50000000E-01  8.50000000E-01
  8.50000000E-01  8.50000000E-01  8.50000000E-01  8.50000000E-01  8.50000000E-01
  8.50000000E-01  8.50000000E-01  8.50000000E-01  8.50000000E-01  8.50000000E-01
  8.50000000E-01  8.50000000E-01  8.50000000E-01  8.50000000E-01  8.50000000E-01
  8.50000000E-01  8.50000000E-01  8.50000000E-01  8.50000000E-01  8.50000000E-01
  8.50000000E-01  8.50000000E-01  8.50000000E-01  8.50000000E-01  8.50000000E-01
  8.50000000E-01  8.50000000E-01  8.50000000E-01  8.50000000E-01  8.50000000E-01
  8.50000000E-01  8.50000000E-01  8.50000000E-01  8.50000000E-01  8.50000000E-01
  8.50000000E-01  8.50000000E-01  8.50000000E-01  8.50000000E-01  8.50000000E-01
  8.50000000E-01  8.50000000E-01  8.50000000E-01  8.50000000E-01  8.50000000E-01
  8.50000000E-01  8.50000000E-01  8.50000000E-01  8.50000000E-01  8.50000000E-01
  8.50000000E-01  8.50000000E-01  8.50000000E-01  8.50000000E-01  8.50000000E-01
  8.50000000E-01  8.50000000E-01  8.50000000E-01  8.50000000E-01  8.50000000E-01
  8.50000000E-01  8.50000000E-01  8.50000000E-01  8.50000000E-01  8.50000000E-01
  8.50000000E-01  8.50000000E-01  8.50000000E-01  8.50000000E-01  8.50000000E-01
  8.50000000E-01  8.50000000E-01  8.50000000E-01  8.50000000E-01  8.50000000E-01
  8.50000000E-01  8.50000000E-01  8.50000000E-01  8.50000000E-01  8.50000000E-01
  8.50000000E-01  8.50000000E-01  8.50000000E-01  8.50000000E-01  8.50000000E-01
  8.50000000E-01  8.50000000E-01  8.50000000E-01  8.50000000E-01  8.50000000E-01
  8.50000000E-01  8.50000000E-01  8.50000000E-01  8.50000000E-01  8.50000000E-01
  8.50000000E-01  8.50000000E-01  8.50000000E-01  8.50000000E-01  8.50000000E-01
  8.50000000E-01  8.50000000E-01  8.50000000E-01  8.50000000E-01  8.50000000E-01
  8.50000000E-01  8.50000000E-01  8.50000000E-01  8.50000000E-01  8.50000000E-01
  8.50000000E-01  8.50000000E-01  8.50000000E-01  8.50000000E-01  8.50000000E-01
  8.50000000E-01  8.50000000E-01  8.50000000E-01  8.50000000E-01  8.50000000E-01
  8.50000000E-01  8.50000000E-01  8.50000000E-01  8.50000000E-01  8.50000000E-01
  8.50000000E-01  8.50000000E-01  8.50000000E-01  8.50000000E-01  8.50000000E-01
  8.50000000E-01  8.50000000E-01  8.50000000E-01  8.50000000E-01  8.50000000E-01
  8.50000000E-01  8.50000000E-01  8.50000000E-01  8.50000000E-01  8.50000000E-01
  8.50000000E-01  8.50000000E-01  8.50000000E-01  8.50000000E-01  8.50000000E-01
  8.50000000E-01  8.50000000E-01  8.50000000E-01  8.50000000E-01  8.50000000E-01
  8.50000000E-01  8.50000000E-01  8.50000000E-01  8.50000000E-01  8.50000000E-01
  8.50000000E-01  8.50000000E-01  8.50000000E-01  8.50000000E-01  8.50000000E-01
  8.50000000E-01  8.50000000E-01  8.50000000E-01  8.50000000E-01  8.50000000E-01
  8.50000000E-01  8.50000000E-01  8.50000000E-01  8.50000000E-01  8.50000000E-01
  8.50000000E-01  8.50000000E-01  8.50000000E-01  8.50000000E-01  8.50000000E-01
  8.50000000E-01  8.50000000E-01  8.50000000E-01  8.50000000E-01  8.50000000E-01
  8.50000000E-01  8.50000000E-01  8.50000000E-01  8.50000000E-01  8.50000000E-01
  8.50000000E-01  8.50000000E-01  8.50000000E-01  8.50000000E-01  8.50000000E-01
  8.50000000E-01  8.50000000E-01  8.50000000E-01  8.50000000E-01  8.50000000E-01
  8.50000000E-01  8.50000000E-01  8.50000000E-01  8.50000000E-01  8.50000000E-01
  8.50000000E-01  8.50000000E-01  8.50000000E-01  8.50000000E-01  8.50000000E-01
  8.50000000E-01  8.50000000E-01  8.50000000E-01  8.50000000E-01  8.50000000E-01
  8.50000000E-01  8.50000000E-01  8.50000000E-01  8.50000000E-01  8.50000000E-01
  8.50000000E-01  8.50000000E-01  8.50000000E-01  8.50000000E-01  8.50000000E-01
  8.50000000E-01  8.50000000E-01  8.50000000E-01  8.50000000E-01  8.50000000E-01
  8.50000000E-01  8.50000000E-01  8.50000000E-01  8.50000000E-01  8.50000000E-01
  8.50000000E-01  8.50000000E-01  8.50000000E-01  8.50000000E-01  8.50000000E-01
  8.50000000E-01  8.50000000E-01  8.50000000E-01  8.50000000E-01  8.50000000E-01
  8.50000000E-01  8.50000000E-01  8.50000000E-01  8.50000000E-01  8.50000000E-01
  8.50000000E-01  8.50000000E-01  8.50000000E-01  8.50000000E-01  8.50000000E-01
  8.50000000E-01  8.50000000E-01  8.50000000E-01  8.50000000E-01  8.50000000E-01
  8.50000000E-01  8.50000000E-01  8.50000000E-01  8.50000000E-01  8.50000000E-01
  8.50000000E-01  8.50000000E-01  8.50000000E-01  8.50000000E-01  8.50000000E-01
  8.50000000E-01  8.50000000E-01  8.50000000E-01  8.50000000E-01  8.50000000E-01
  8.50000000E-01  8.50000000E-01  8.50000000E-01  8.50000000E-01  8.50000000E-01
  8.50000000E-01  8.50000000E-01  8.50000000E-01  8.50000000E-01  8.50000000E-01
  8.50000000E-01  8.50000000E-01  8.50000000E-01  8.50000000E-01  8.50000000E-01
  8.50000000E-01  8.50000000E-01  8.50000000E-01  8.50000000E-01  8.50000000E-01
  8.50000000E-01  8.50000000E-01  8.50000000E-01  8.50000000E-01  8.50000000E-01
  8.50000000E-01  8.50000000E-01  8.50000000E-01  8.50000000E-01  8.50000000E-01
  8.50000000E-01  8.50000000E-01  8.50000000E-01  8.50000000E-01  8.50000000E-01
  8.50000000E-01  8.50000000E-01  8.50000000E-01  8.50000000E-01  8.50000000E-01
  8.50000000E-01  8.50000000E-01  8.50000000E-01  8.50000000E-01  8.50000000E-01
  8.50000000E-01  8.50000000E-01  8.50000000E-01  8.50000000E-01  8.50000000E-01
  8.50000000E-01  8.50000000E-01  8.50000000E-01  8.50000000E-01  8.50000000E-01
  8.50000000E-01  8.50000000E-01  8.50000000E-01  8.50000000E-01  8.50000000E-01
  8.50000000E-01  8.50000000E-01  8.50000000E-01  8.50000000E-01  8.50000000E-01
  8.50000000E-01  8.50000000E-01  8.50000000E-01  8.50000000E-01  8.50000000E-01
  8.50000000E-01  8.50000000E-01  8.50000000E-01  8.50000000E-01  8.50000000E-01
  8.50000000E-01  8.50000000E-01  8.50000000E-01  8.50000000E-01  8.50000000E-01
  8.50000000E-01  8.50000000E-01  8.50000000E-01  8.50000000E-01  8.50000000E-01
  8.50000000E-01  8.50000000E-01  8.50000000E-01  8.50000000E-01  8.50000000E-01
  8.50000000E-01  8.50000000E-01  8.50000000E-01  8.50000000E-01  8.50000000E-01
  8.50000000E-01  8.50000000E-01  8.50000000E-01  8.50000000E-01  8.50000000E-01
  8.50000000E-01  8.50000000E-01  8.50000000E-01  8.50000000E-01  8.50000000E-01
  8.50000000E-01  8.50000000E-01  8.50000000E-01  8.50000000E-01  8.50000000E-01
  8.50000000E-01  8.50000000E-01  8.50000000E-01  8.50000000E-01  8.50000000E-01
  8.50000000E-01  8.50000000E-01  8.50000000E-01  8.50000000E-01  8.50000000E-01
  8.50000000E-01  8.50000000E-01  8.50000000E-01  8.50000000E-01  8.50000000E-01
  8.50000000E-01  8.50000000E-01  8.50000000E-01  8.50000000E-01  8.50000000E-01
  8.50000000E-01  8.50000000E-01  8.50000000E-01  8.50000000E-01  8.50000000E-01
  8.50000000E-01  8.50000000E-01  8.50000000E-01  8.50000000E-01  8.50000000E-01
  8.50000000E-01  8.50000000E-01  8.50000000E-01  8.50000000E-01  8.50000000E-01
  8.50000000E-01  8.50000000E-01  8.50000000E-01  8.50000000E-01  8.50000000E-01
  8.50000000E-01  8.50000000E-01  8.50000000E-01  8.50000000E-01  8.50000000E-01
  8.50000000E-01  8.50000000E-01  8.50000000E-01  8.50000000E-01  8.50000000E-01
  8.50000000E-01  8.50000000E-01  8.50000000E-01  8.50000000E-01  8.50000000E-01
  8.50000000E-01  8.50000000E-01  8.50000000E-01  8.50000000E-01  8.50000000E-01
  8.50000000E-01  8.50000000E-01  8.50000000E-01  8.50000000E-01  8.50000000E-01
  8.50000000E-01  8.50000000E-01  8.50000000E-01  8.50000000E-01  8.50000000E-01
  8.50000000E-01  8.50000000E-01  8.50000000E-01  8.50000000E-01  8.50000000E-01
  8.50000000E-01  8.50000000E-01  8.50000000E-01  8.50000000E-01  8.50000000E-01
  8.50000000E-01  8.50000000E-01  8.50000000E-01  8.50000000E-01  8.50000000E-01
  8.50000000E-01  8.50000000E-01  8.50000000E-01  8.50000000E-01  8.50000000E-01
  8.50000000E-01  8.50000000E-01  8.50000000E-01  8.50000000E-01  8.50000000E-01
  8.50000000E-01  8.50000000E-01  8.50000000E-01  8.50000000E-01  8.50000000E-01
  8.50000000E-01  8.50000000E-01  8.50000000E-01  8.50000000E-01  8.50000000E-01
  8.50000000E-01  8.50000000E-01  8.50000000E-01  8.50000000E-01  8.50000000E-01
  8.50000000E-01  8.50000000E-01  8.50000000E-01  8.50000000E-01  8.50000000E-01
  8.50000000E-01  8.50000000E-01  8.50000000E-01  8.50000000E-01  8.50000000E-01
  8.50000000E-01  8.50000000E-01  8.50000000E-01  8.50000000E-01  8.50000000E-01
  8.50000000E-01  8.50000000E-01  8.50000000E-01  8.50000000E-01  8.50000000E-01
  8.50000000E-01  8.50000000E-01  8.50000000E-01  8.50000000E-01  8.50000000E-01
  8.50000000E-01  8.50000000E-01  8.50000000E-01  8.50000000E-01  8.50000000E-01
  8.50000000E-01  8.50000000E-01  8.50000000E-01  8.50000000E-01  8.50000000E-01
  8.50000000E-01  8.50000000E-01  8.50000000E-01  8.50000000E-01  8.50000000E-01
  8.50000000E-01  8.50000000E-01  8.50000000E-01  8.50000000E-01  8.50000000E-01
  8.50000000E-01  8.50000000E-01  8.50000000E-01  8.50000000E-01  8.50000000E-01
  8.50000000E-01  8.50000000E-01  8.50000000E-01  8.50000000E-01  8.50000000E-01
  8.50000000E-01  8.50000000E-01  8.50000000E-01  8.50000000E-01  8.50000000E-01
  8.50000000E-01  8.50000000E-01  8.50000000E-01  8.50000000E-01  8.50000000E-01
  8.50000000E-01  8.50000000E-01  8.50000000E-01  8.50000000E-01  8.50000000E-01
  8.50000000E-01  8.50000000E-01  8.50000000E-01  8.50000000E-01  8.50000000E-01
  8.50000000E-01  8.50000000E-01  8.50000000E-01  8.50000000E-01  8.50000000E-01
  8.50000000E-01  8.50000000E-01  8.50000000E-01  8.50000000E-01  8.50000000E-01
  8.50000000E-01  8.50000000E-01  8.50000000E-01  8.50000000E-01  8.50000000E-01
  8.50000000E-01  8.50000000E-01  8.50000000E-01  8.50000000E-01  8.50000000E-01
  8.50000000E-01  8.50000000E-01  8.50000000E-01  8.50000000E-01  8.50000000E-01
  8.50000000E-01  8.50000000E-01  8.50000000E-01  8.50000000E-01  8.50000000E-01
  8.50000000E-01  8.50000000E-01  8.50000000E-01  8.50000000E-01  8.50000000E-01
  8.50000000E-01  8.50000000E-01  8.50000000E-01  8.50000000E-01  8.50000000E-01
  8.50000000E-01  8.50000000E-01  8.50000000E-01  8.50000000E-01  8.50000000E-01
  8.50000000E-01  8.50000000E-01  8.50000000E-01  8.50000000E-01  8.50000000E-01
  8.50000000E-01  8.50000000E-01  8.50000000E-01  8.50000000E-01  8.50000000E-01
  8.50000000E-01  8.50000000E-01  8.50000000E-01  8.50000000E-01  8.50000000E-01
  8.50000000E-01  8.50000000E-01  8.50000000E-01  8.50000000E-01  8.50000000E-01
  8.50000000E-01  8.50000000E-01  8.50000000E-01  8.50000000E-01  8.50000000E-01
  8.50000000E-01  8.50000000E-01  8.50000000E-01  8.50000000E-01  8.50000000E-01
  8.50000000E-01  8.50000000E-01  8.50000000E-01  8.50000000E-01  8.50000000E-01
  8.50000000E-01  8.50000000E-01  8.50000000E-01  8.50000000E-01  8.50000000E-01
  8.50000000E-01  8.50000000E-01  8.50000000E-01  8.50000000E-01  8.50000000E-01
  8.50000000E-01  8.50000000E-01  8.50000000E-01  8.50000000E-01  8.50000000E-01
  8.50000000E-01  8.50000000E-01  8.50000000E-01  8.50000000E-01  8.50000000E-01
  8.50000000E-01  8.50000000E-01  8.50000000E-01  8.50000000E-01  8.50000000E-01
  8.50000000E-01  8.50000000E-01  8.50000000E-01  8.50000000E-01  8.50000000E-01
  8.50000000E-01  8.50000000E-01  8.50000000E-01  8.50000000E-01  8.50000000E-01
  8.50000000E-01  8.50000000E-01  8.50000000E-01  8.50000000E-01  8.50000000E-01
  8.50000000E-01  8.50000000E-01  8.50000000E-01  8.50000000E-01  8.50000000E-01
  8.50000000E-01  8.50000000E-01  8.50000000E-01  8.50000000E-01  8.50000000E-01
  8.50000000E-01  8.50000000E-01  8.50000000E-01  8.50000000E-01  8.50000000E-01
  8.50000000E-01  8.50000000E-01  8.50000000E-01  8.50000000E-01  8.50000000E-01
  8.50000000E-01  8.50000000E-01  8.50000000E-01  8.50000000E-01  8.50000000E-01
  8.50000000E-01  8.50000000E-01  8.50000000E-01  8.50000000E-01  8.50000000E-01
  8.50000000E-01  8.50000000E-01  8.50000000E-01  8.50000000E-01  8.50000000E-01
  8.50000000E-01  8.50000000E-01  8.50000000E-01  8.50000000E-01  8.50000000E-01
  8.50000000E-01  8.50000000E-01  8.50000000E-01  8.50000000E-01  8.50000000E-01
  8.50000000E-01  8.50000000E-01  8.50000000E-01  8.50000000E-01  8.50000000E-01
  8.50000000E-01  8.50000000E-01  8.50000000E-01  8.50000000E-01  8.50000000E-01
  8.50000000E-01  8.50000000E-01  8.50000000E-01  8.50000000E-01  8.50000000E-01
  8.50000000E-01  8.50000000E-01  8.50000000E-01  8.50000000E-01  8.50000000E-01
  8.50000000E-01  8.50000000E-01  8.50000000E-01  8.50000000E-01  8.50000000E-01
  8.50000000E-01  8.50000000E-01  8.50000000E-01  8.50000000E-01  8.50000000E-01
  8.50000000E-01  8.50000000E-01  8.50000000E-01  8.50000000E-01  8.50000000E-01
  8.50000000E-01  8.50000000E-01  8.50000000E-01  8.50000000E-01  8.50000000E-01
  8.50000000E-01  8.50000000E-01  8.50000000E-01  8.50000000E-01  8.50000000E-01
  8.50000000E-01  8.50000000E-01  8.50000000E-01  8.50000000E-01  8.50000000E-01
  8.50000000E-01  8.50000000E-01  8.50000000E-01  8.50000000E-01  8.50000000E-01
  8.50000000E-01  8.50000000E-01  8.50000000E-01  8.50000000E-01  8.50000000E-01
  8.50000000E-01  8.50000000E-01  8.50000000E-01  8.50000000E-01  8.50000000E-01
  8.50000000E-01  8.50000000E-01  8.50000000E-01  8.50000000E-01  8.50000000E-01
  8.50000000E-01  8.50000000E-01  8.50000000E-01  8.50000000E-01  8.50000000E-01
  8.50000000E-01  8.50000000E-01  8.50000000E-01  8.50000000E-01  8.50000000E-01
  8.50000000E-01  8.50000000E-01  8.50000000E-01  8.50000000E-01  8.50000000E-01
  8.50000000E-01  8.50000000E-01  8.50000000E-01  8.50000000E-01  8.50000000E-01
  8.50000000E-01  8.50000000E-01  8.50000000E-01  8.50000000E-01  8.50000000E-01
  8.50000000E-01  8.50000000E-01  8.50000000E-01  8.50000000E-01  8.50000000E-01
  8.50000000E-01  8.50000000E-01  8.50000000E-01  8.50000000E-01  8.50000000E-01
  8.50000000E-01  8.50000000E-01  8.50000000E-01  8.50000000E-01  8.50000000E-01
  8.50000000E-01  8.50000000E-01  8.50000000E-01  8.50000000E-01  8.50000000E-01
  8.50000000E-01  8.50000000E-01  8.50000000E-01  8.50000000E-01  8.50000000E-01
  8.50000000E-01  8.50000000E-01  8.50000000E-01  8.50000000E-01  8.50000000E-01
  8.50000000E-01  8.50000000E-01  8.50000000E-01  8.50000000E-01  8.50000000E-01
  8.50000000E-01  8.50000000E-01  8.50000000E-01  8.50000000E-01  8.50000000E-01
  8.50000000E-01  8.50000000E-01  8.50000000E-01  8.50000000E-01  8.50000000E-01
  8.50000000E-01  8.50000000E-01  8.50000000E-01  8.50000000E-01  8.50000000E-01
  8.50000000E-01  8.50000000E-01  8.50000000E-01  8.50000000E-01  8.50000000E-01
  8.50000000E-01  8.50000000E-01  8.50000000E-01  8.50000000E-01  8.50000000E-01
  8.50000000E-01  8.50000000E-01  8.50000000E-01  8.50000000E-01  8.50000000E-01
  8.50000000E-01  8.50000000E-01  8.50000000E-01  8.50000000E-01  8.50000000E-01
  8.50000000E-01  8.50000000E-01  8.50000000E-01  8.50000000E-01  8.50000000E-01
  8.50000000E-01  8.50000000E-01  8.50000000E-01  8.50000000E-01  8.50000000E-01
  8.50000000E-01  8.50000000E-01  8.50000000E-01  8.50000000E-01  8.50000000E-01
  8.50000000E-01  8.50000000E-01  8.50000000E-01  8.50000000E-01  8.50000000E-01
  8.50000000E-01  8.50000000E-01  8.50000000E-01  8.50000000E-01  8.50000000E-01
  8.50000000E-01  8.50000000E-01  8.50000000E-01  8.50000000E-01  8.50000000E-01
  8.50000000E-01  8.50000000E-01  8.50000000E-01  8.50000000E-01  8.50000000E-01
  8.50000000E-01  8.50000000E-01  8.50000000E-01  8.50000000E-01  8.50000000E-01
  8.50000000E-01  8.50000000E-01  8.50000000E-01  8.50000000E-01  8.50000000E-01
  8.50000000E-01  8.50000000E-01  8.50000000E-01  8.50000000E-01  8.50000000E-01
  8.50000000E-01  8.50000000E-01  8.50000000E-01  8.50000000E-01  8.50000000E-01
  8.50000000E-01  8.50000000E-01  8.50000000E-01  8.50000000E-01  8.50000000E-01
  8.50000000E-01  8.50000000E-01  8.50000000E-01  8.50000000E-01  8.50000000E-01
  8.50000000E-01  8.50000000E-01  8.50000000E-01  8.50000000E-01  8.50000000E-01
  8.50000000E-01  8.50000000E-01  8.50000000E-01  8.50000000E-01  8.50000000E-01
  8.50000000E-01  8.50000000E-01  8.50000000E-01  8.50000000E-01  8.50000000E-01
  8.50000000E-01  8.50000000E-01  8.50000000E-01  8.50000000E-01  8.50000000E-01
  8.50000000E-01  8.50000000E-01  8.50000000E-01  8.50000000E-01  8.50000000E-01
  8.50000000E-01  8.50000000E-01  8.50000000E-01  8.50000000E-01  8.50000000E-01
  8.50000000E-01  8.50000000E-01  8.50000000E-01  8.50000000E-01  8.50000000E-01
  8.50000000E-01  8.50000000E-01  8.50000000E-01  8.50000000E-01  8.50000000E-01
  8.50000000E-01  8.50000000E-01  8.50000000E-01  8.50000000E-01  8.50000000E-01
  8.50000000E-01  8.50000000E-01  8.50000000E-01  8.50000000E-01  8.50000000E-01
  8.50000000E-01  8.50000000E-01  8.50000000E-01  8.50000000E-01  8.50000000E-01
  8.50000000E-01  8.50000000E-01  8.50000000E-01  8.50000000E-01  8.50000000E-01
  8.50000000E-01  8.50000000E-01  8.50000000E-01  8.50000000E-01  8.50000000E-01
  8.50000000E-01  8.50000000E-01  8.50000000E-01  8.50000000E-01  8.50000000E-01
  8.50000000E-01  8.50000000E-01  8.50000000E-01  8.50000000E-01  8.50000000E-01
  8.50000000E-01  8.50000000E-01  8.50000000E-01  8.50000000E-01  8.50000000E-01
  8.50000000E-01  8.50000000E-01  8.50000000E-01  8.50000000E-01  8.50000000E-01
  8.50000000E-01  8.50000000E-01  8.50000000E-01  8.50000000E-01  8.50000000E-01
  8.50000000E-01  8.50000000E-01  8.50000000E-01  8.50000000E-01  8.50000000E-01
  8.50000000E-01  8.50000000E-01  8.50000000E-01  8.50000000E-01  8.50000000E-01
  8.50000000E-01  8.50000000E-01  8.50000000E-01  8.50000000E-01  8.50000000E-01
  8.50000000E-01  8.50000000E-01  8.50000000E-01  8.50000000E-01  8.50000000E-01
  8.50000000E-01  8.50000000E-01  8.50000000E-01  8.50000000E-01  8.50000000E-01
  8.50000000E-01  8.50000000E-01  8.50000000E-01  8.50000000E-01  8.50000000E-01
  8.50000000E-01  8.50000000E-01  8.50000000E-01  8.50000000E-01  8.50000000E-01
  8.50000000E-01  8.50000000E-01  8.50000000E-01  8.50000000E-01  8.50000000E-01
  8.50000000E-01  8.50000000E-01  8.50000000E-01  8.50000000E-01  8.50000000E-01
  8.50000000E-01  8.50000000E-01  8.50000000E-01  8.50000000E-01  8.50000000E-01
  8.50000000E-01  8.50000000E-01  8.50000000E-01  8.50000000E-01  8.50000000E-01
  8.50000000E-01  8.50000000E-01  8.50000000E-01  8.50000000E-01  8.50000000E-01
  8.50000000E-01  8.50000000E-01  8.50000000E-01  8.50000000E-01  8.50000000E-01
  8.50000000E-01  8.50000000E-01  8.50000000E-01  8.50000000E-01  8.50000000E-01
  8.50000000E-01  8.50000000E-01  8.50000000E-01  8.50000000E-01  8.50000000E-01
  8.50000000E-01  8.50000000E-01  8.50000000E-01  8.50000000E-01  8.50000000E-01
  8.50000000E-01  8.50000000E-01  8.50000000E-01  8.50000000E-01  8.50000000E-01
  8.50000000E-01  8.50000000E-01  8.50000000E-01  8.50000000E-01  8.50000000E-01
  8.50000000E-01  8.50000000E-01  8.50000000E-01  8.50000000E-01  8.50000000E-01
  8.50000000E-01  8.50000000E-01  8.50000000E-01  8.50000000E-01  8.50000000E-01
  8.50000000E-01  8.50000000E-01  8.50000000E-01  8.50000000E-01  8.50000000E-01
  8.50000000E-01  8.50000000E-01  8.50000000E-01  8.50000000E-01  8.50000000E-01
  8.50000000E-01  8.50000000E-01  8.50000000E-01  8.50000000E-01  8.50000000E-01
  8.50000000E-01  8.50000000E-01  8.50000000E-01  8.50000000E-01  8.50000000E-01
  8.50000000E-01  8.50000000E-01  8.50000000E-01  8.50000000E-01  8.50000000E-01
  8.50000000E-01  8.50000000E-01  8.50000000E-01  8.50000000E-01  8.50000000E-01
  8.50000000E-01  8.50000000E-01  8.50000000E-01  8.50000000E-01  8.50000000E-01
  8.50000000E-01  8.50000000E-01  8.50000000E-01  8.50000000E-01  8.50000000E-01
  8.50000000E-01  8.50000000E-01  8.50000000E-01  8.50000000E-01  8.50000000E-01
  8.50000000E-01  8.50000000E-01  8.50000000E-01  8.50000000E-01  8.50000000E-01
  8.50000000E-01  8.50000000E-01  8.50000000E-01  8.50000000E-01  8.50000000E-01
  8.50000000E-01  8.50000000E-01  8.50000000E-01  8.50000000E-01  8.50000000E-01
  8.50000000E-01  8.50000000E-01  8.50000000E-01  8.50000000E-01  8.50000000E-01
  8.50000000E-01  8.50000000E-01  8.50000000E-01  8.50000000E-01  8.50000000E-01
  8.50000000E-01  8.50000000E-01  8.50000000E-01  8.50000000E-01  8.50000000E-01
  8.50000000E-01  8.50000000E-01  8.50000000E-01  8.50000000E-01  8.50000000E-01
  8.50000000E-01  8.50000000E-01  8.50000000E-01  8.50000000E-01  8.50000000E-01
  8.50000000E-01  8.50000000E-01  8.50000000E-01  8.50000000E-01  8.50000000E-01
  8.50000000E-01  8.50000000E-01  8.50000000E-01  8.50000000E-01  8.50000000E-01
  8.50000000E-01  8.50000000E-01  8.50000000E-01  8.50000000E-01  8.50000000E-01
  8.50000000E-01  8.50000000E-01  8.50000000E-01  8.50000000E-01  8.50000000E-01
  8.50000000E-01  8.50000000E-01  8.50000000E-01  8.50000000E-01  8.50000000E-01
  8.50000000E-01  8.50000000E-01  8.50000000E-01  8.50000000E-01  8.50000000E-01
  8.50000000E-01  8.50000000E-01  8.50000000E-01  8.50000000E-01  8.50000000E-01
  8.50000000E-01  8.50000000E-01  8.50000000E-01  8.50000000E-01  8.50000000E-01
  8.50000000E-01  8.50000000E-01  8.50000000E-01  8.50000000E-01  8.50000000E-01
  8.50000000E-01  8.50000000E-01  8.50000000E-01  8.50000000E-01  8.50000000E-01
  8.50000000E-01  8.50000000E-01  8.50000000E-01  8.50000000E-01  8.50000000E-01
  8.50000000E-01  8.50000000E-01  8.50000000E-01  8.50000000E-01  8.50000000E-01
  8.50000000E-01  8.50000000E-01  8.50000000E-01  8.50000000E-01  8.50000000E-01
  8.50000000E-01  8.50000000E-01  8.50000000E-01  8.50000000E-01  8.50000000E-01
  8.50000000E-01  8.50000000E-01  8.50000000E-01  8.50000000E-01  8.50000000E-01
  8.50000000E-01  8.50000000E-01  8.50000000E-01  8.50000000E-01  8.50000000E-01
  8.50000000E-01  8.50000000E-01  8.50000000E-01  8.50000000E-01  8.50000000E-01
  8.50000000E-01  8.50000000E-01  8.50000000E-01  8.50000000E-01  8.50000000E-01
  8.50000000E-01  8.50000000E-01  8.50000000E-01  8.50000000E-01  8.50000000E-01
  8.50000000E-01  8.50000000E-01  8.50000000E-01  8.50000000E-01  8.50000000E-01
  8.50000000E-01  8.50000000E-01  8.50000000E-01  8.50000000E-01  8.50000000E-01
  8.50000000E-01  8.50000000E-01  8.50000000E-01  8.50000000E-01  8.50000000E-01
  8.50000000E-01  8.50000000E-01  8.50000000E-01  8.50000000E-01  8.50000000E-01
  8.50000000E-01  8.50000000E-01  8.50000000E-01  8.50000000E-01  8.50000000E-01
  8.50000000E-01  8.50000000E-01  8.50000000E-01  8.50000000E-01  8.50000000E-01
  8.50000000E-01  8.50000000E-01  8.50000000E-01  8.50000000E-01  8.50000000E-01
  8.50000000E-01  8.50000000E-01  8.50000000E-01  8.50000000E-01  8.50000000E-01
  8.50000000E-01  8.50000000E-01  8.50000000E-01  8.50000000E-01  8.50000000E-01
  8.50000000E-01  8.50000000E-01  8.50000000E-01  8.50000000E-01  8.50000000E-01
  8.50000000E-01  8.50000000E-01  8.50000000E-01  8.50000000E-01  8.50000000E-01
  8.50000000E-01  8.50000000E-01  8.50000000E-01  8.50000000E-01  8.50000000E-01
  8.50000000E-01  8.50000000E-01  8.50000000E-01  8.50000000E-01  8.50000000E-01
  8.50000000E-01  8.50000000E-01  8.50000000E-01  8.50000000E-01  8.50000000E-01
  8.50000000E-01  8.50000000E-01  8.50000000E-01  8.50000000E-01  8.50000000E-01
  8.50000000E-01  8.50000000E-01  8.50000000E-01  8.50000000E-01  8.50000000E-01
  8.50000000E-01  8.50000000E-01  8.50000000E-01  8.50000000E-01  8.50000000E-01
  8.50000000E-01  8.50000000E-01  8.50000000E-01  8.50000000E-01  8.50000000E-01
  8.50000000E-01  8.50000000E-01  8.50000000E-01  8.50000000E-01  8.50000000E-01
  8.50000000E-01  8.50000000E-01  8.50000000E-01  8.50000000E-01  8.50000000E-01
  8.50000000E-01  8.50000000E-01  8.50000000E-01  8.50000000E-01  8.50000000E-01
  8.50000000E-01  8.50000000E-01  8.50000000E-01  8.50000000E-01  8.50000000E-01
  8.50000000E-01  8.50000000E-01  8.50000000E-01  8.50000000E-01  8.50000000E-01
  8.50000000E-01  8.50000000E-01  8.50000000E-01  8.50000000E-01  8.50000000E-01
  8.50000000E-01  8.50000000E-01  8.50000000E-01  8.50000000E-01  8.50000000E-01
  8.50000000E-01  8.50000000E-01  8.50000000E-01  8.50000000E-01  8.50000000E-01
  8.50000000E-01  8.50000000E-01  8.50000000E-01  8.50000000E-01  8.50000000E-01
  8.50000000E-01  8.50000000E-01  8.50000000E-01  8.50000000E-01  8.50000000E-01
  8.50000000E-01  8.50000000E-01  8.50000000E-01  8.50000000E-01  8.50000000E-01
  8.50000000E-01  8.50000000E-01  8.50000000E-01  8.50000000E-01  8.50000000E-01
  8.50000000E-01  8.50000000E-01  8.50000000E-01  8.50000000E-01  8.50000000E-01
  8.50000000E-01  8.50000000E-01  8.50000000E-01  8.50000000E-01  8.50000000E-01
  8.50000000E-01  8.50000000E-01  8.50000000E-01  8.50000000E-01  8.50000000E-01
  8.50000000E-01  8.50000000E-01  8.50000000E-01  8.50000000E-01  8.50000000E-01
  8.50000000E-01  8.50000000E-01  8.50000000E-01  8.50000000E-01  8.50000000E-01
  8.50000000E-01  8.50000000E-01  8.50000000E-01  8.50000000E-01  8.50000000E-01
  8.50000000E-01  8.50000000E-01  8.50000000E-01  8.50000000E-01  8.50000000E-01
  8.50000000E-01  8.50000000E-01  8.50000000E-01  8.50000000E-01  8.50000000E-01
  8.50000000E-01  8.50000000E-01  8.50000000E-01  8.50000000E-01  8.50000000E-01
  8.50000000E-01  8.50000000E-01  8.50000000E-01  8.50000000E-01  8.50000000E-01
  8.50000000E-01  8.50000000E-01  8.50000000E-01  8.50000000E-01  8.50000000E-01
  8.50000000E-01  8.50000000E-01  8.50000000E-01  8.50000000E-01  8.50000000E-01
  8.50000000E-01  8.50000000E-01  8.50000000E-01  8.50000000E-01  8.50000000E-01
  8.50000000E-01  8.50000000E-01  8.50000000E-01  8.50000000E-01  8.50000000E-01
  8.50000000E-01  8.50000000E-01  8.50000000E-01  8.50000000E-01  8.50000000E-01
  8.50000000E-01  8.50000000E-01  8.50000000E-01  8.50000000E-01  8.50000000E-01
  8.50000000E-01  8.50000000E-01  8.50000000E-01  8.50000000E-01  8.50000000E-01
  8.50000000E-01  8.50000000E-01  8.50000000E-01  8.50000000E-01  8.50000000E-01
  8.50000000E-01  8.50000000E-01  8.50000000E-01  8.50000000E-01  8.50000000E-01
  8.50000000E-01  8.50000000E-01  8.50000000E-01  8.50000000E-01  8.50000000E-01
  8.50000000E-01  8.50000000E-01  8.50000000E-01  8.50000000E-01  8.50000000E-01
  8.50000000E-01  8.50000000E-01  8.50000000E-01  8.50000000E-01  8.50000000E-01
  8.50000000E-01  8.50000000E-01  8.50000000E-01  8.50000000E-01  8.50000000E-01
  8.50000000E-01  8.50000000E-01  8.50000000E-01  8.50000000E-01  8.50000000E-01
  8.50000000E-01  8.50000000E-01  8.50000000E-01  8.50000000E-01  8.50000000E-01
  8.50000000E-01  8.50000000E-01  8.50000000E-01  8.50000000E-01  8.50000000E-01
  8.50000000E-01  8.50000000E-01  8.50000000E-01  8.50000000E-01  8.50000000E-01
  8.50000000E-01  8.50000000E-01  8.50000000E-01  8.50000000E-01  8.50000000E-01
  8.50000000E-01  8.50000000E-01  8.50000000E-01  8.50000000E-01  8.50000000E-01
  8.50000000E-01  8.50000000E-01  8.50000000E-01  8.50000000E-01  8.50000000E-01
  8.50000000E-01  8.50000000E-01  8.50000000E-01  8.50000000E-01  8.50000000E-01
  8.50000000E-01  8.50000000E-01  8.50000000E-01  8.50000000E-01  8.50000000E-01
  8.50000000E-01  8.50000000E-01  8.50000000E-01  8.50000000E-01  8.50000000E-01
  8.50000000E-01  8.50000000E-01  8.50000000E-01  8.50000000E-01  8.50000000E-01
  8.50000000E-01  8.50000000E-01  8.50000000E-01  8.50000000E-01  8.50000000E-01
  8.50000000E-01  8.50000000E-01  8.50000000E-01  8.50000000E-01  8.50000000E-01
  8.50000000E-01  8.50000000E-01  8.50000000E-01  8.50000000E-01  8.50000000E-01
  8.50000000E-01  8.50000000E-01  8.50000000E-01  8.50000000E-01  8.50000000E-01
  8.50000000E-01  8.50000000E-01  8.50000000E-01  8.50000000E-01  8.50000000E-01
  8.50000000E-01  8.50000000E-01  8.50000000E-01  8.50000000E-01  8.50000000E-01
  8.50000000E-01  8.50000000E-01  8.50000000E-01  8.50000000E-01  8.50000000E-01
  8.50000000E-01  8.50000000E-01  8.50000000E-01  8.50000000E-01  8.50000000E-01
  8.50000000E-01  8.50000000E-01  8.50000000E-01  8.50000000E-01  8.50000000E-01
  8.50000000E-01  8.50000000E-01  8.50000000E-01  8.50000000E-01  8.50000000E-01
  8.50000000E-01  8.50000000E-01  8.50000000E-01  8.50000000E-01  8.50000000E-01
  8.50000000E-01  8.50000000E-01  8.50000000E-01  8.50000000E-01  8.50000000E-01
  8.50000000E-01  8.50000000E-01  8.50000000E-01  8.50000000E-01  8.50000000E-01
  8.50000000E-01  8.50000000E-01  8.50000000E-01  8.50000000E-01  8.50000000E-01
  8.50000000E-01  8.50000000E-01  8.50000000E-01  8.50000000E-01  8.50000000E-01
  8.50000000E-01  8.50000000E-01  8.50000000E-01  8.50000000E-01  8.50000000E-01
  8.50000000E-01  8.50000000E-01  8.50000000E-01  8.50000000E-01  8.50000000E-01
  8.50000000E-01  8.50000000E-01  8.50000000E-01  8.50000000E-01  8.50000000E-01
  8.50000000E-01  8.50000000E-01  8.50000000E-01  8.50000000E-01  8.50000000E-01
  8.50000000E-01  8.50000000E-01  8.50000000E-01  8.50000000E-01  8.50000000E-01
  8.50000000E-01  8.50000000E-01  8.50000000E-01  8.50000000E-01  8.50000000E-01
  8.50000000E-01  8.50000000E-01  8.50000000E-01  8.50000000E-01  8.50000000E-01
  8.50000000E-01  8.50000000E-01  8.50000000E-01  8.50000000E-01  8.50000000E-01
  8.50000000E-01  8.50000000E-01  8.50000000E-01  8.50000000E-01  8.50000000E-01
  8.50000000E-01  8.50000000E-01  8.50000000E-01  8.50000000E-01  8.50000000E-01
  8.50000000E-01  8.50000000E-01  8.50000000E-01  8.50000000E-01  8.50000000E-01
  8.50000000E-01  8.50000000E-01  8.50000000E-01  8.50000000E-01  8.50000000E-01
  8.50000000E-01  8.50000000E-01  8.50000000E-01  8.50000000E-01  8.50000000E-01
  8.50000000E-01  8.50000000E-01  8.50000000E-01  8.50000000E-01  8.50000000E-01
  8.50000000E-01  8.50000000E-01  8.50000000E-01  8.50000000E-01  8.50000000E-01
  8.50000000E-01  8.50000000E-01  8.50000000E-01  8.50000000E-01  8.50000000E-01
  8.50000000E-01  8.50000000E-01  8.50000000E-01  8.50000000E-01  8.50000000E-01
  8.50000000E-01  8.50000000E-01  8.50000000E-01  8.50000000E-01  8.50000000E-01
  8.50000000E-01  8.50000000E-01  8.50000000E-01  8.50000000E-01  8.50000000E-01
  8.50000000E-01  8.50000000E-01  8.50000000E-01  8.50000000E-01  8.50000000E-01
  8.50000000E-01  8.50000000E-01  8.50000000E-01  8.50000000E-01  8.50000000E-01
  8.50000000E-01  8.50000000E-01  8.50000000E-01  8.50000000E-01  8.50000000E-01
  8.50000000E-01  8.50000000E-01  8.50000000E-01  8.50000000E-01  8.50000000E-01
  8.50000000E-01  8.50000000E-01  8.50000000E-01  8.50000000E-01  8.50000000E-01
  8.50000000E-01  8.50000000E-01  8.50000000E-01  8.50000000E-01  8.50000000E-01
  8.50000000E-01  8.50000000E-01  8.50000000E-01  8.50000000E-01  8.50000000E-01
  8.50000000E-01  8.50000000E-01  8.50000000E-01  8.50000000E-01  8.50000000E-01
  8.50000000E-01  8.50000000E-01  8.50000000E-01  8.50000000E-01  8.50000000E-01
  8.50000000E-01  8.50000000E-01  8.50000000E-01  8.50000000E-01  8.50000000E-01
  8.50000000E-01  8.50000000E-01  8.50000000E-01  8.50000000E-01  8.50000000E-01
  8.50000000E-01  8.50000000E-01  8.50000000E-01  8.50000000E-01  8.50000000E-01
  8.50000000E-01  8.50000000E-01  8.50000000E-01  8.50000000E-01  8.50000000E-01
  8.50000000E-01  8.50000000E-01  8.50000000E-01  8.50000000E-01  8.50000000E-01
  8.50000000E-01  8.50000000E-01  8.50000000E-01  8.50000000E-01  8.50000000E-01
  8.50000000E-01  8.50000000E-01  8.50000000E-01  8.50000000E-01  8.50000000E-01
  8.50000000E-01  8.50000000E-01  8.50000000E-01  8.50000000E-01  8.50000000E-01
  8.50000000E-01  8.50000000E-01  8.50000000E-01  8.50000000E-01  8.50000000E-01
  8.50000000E-01  8.50000000E-01  8.50000000E-01  8.50000000E-01  8.50000000E-01
  8.50000000E-01  8.50000000E-01  8.50000000E-01  8.50000000E-01  8.50000000E-01
  8.50000000E-01  8.50000000E-01  8.50000000E-01  8.50000000E-01  8.50000000E-01
  8.50000000E-01  8.50000000E-01  8.50000000E-01  8.50000000E-01  8.50000000E-01
  8.50000000E-01  8.50000000E-01  8.50000000E-01  8.50000000E-01  8.50000000E-01
  8.50000000E-01  8.50000000E-01  8.50000000E-01  8.50000000E-01  8.50000000E-01
  8.50000000E-01  8.50000000E-01  8.50000000E-01  8.50000000E-01  8.50000000E-01
  8.50000000E-01  8.50000000E-01  8.50000000E-01  8.50000000E-01  8.50000000E-01
  8.50000000E-01  8.50000000E-01  8.50000000E-01  8.50000000E-01  8.50000000E-01
  8.50000000E-01  8.50000000E-01  8.50000000E-01  8.50000000E-01  8.50000000E-01
  8.50000000E-01  8.50000000E-01  8.50000000E-01  8.50000000E-01  8.50000000E-01
  8.50000000E-01  8.50000000E-01  8.50000000E-01  8.50000000E-01  8.50000000E-01
  8.50000000E-01  8.50000000E-01  8.50000000E-01  8.50000000E-01  8.50000000E-01
  8.50000000E-01  8.50000000E-01  8.50000000E-01  8.50000000E-01  8.50000000E-01
  8.50000000E-01  8.50000000E-01  8.50000000E-01  8.50000000E-01  8.50000000E-01
  8.50000000E-01  8.50000000E-01  8.50000000E-01  8.50000000E-01  8.50000000E-01
  8.50000000E-01  8.50000000E-01  8.50000000E-01  8.50000000E-01  8.50000000E-01
  8.50000000E-01  8.50000000E-01  8.50000000E-01  8.50000000E-01  8.50000000E-01
  8.50000000E-01  8.50000000E-01  8.50000000E-01  8.50000000E-01  8.50000000E-01
  8.50000000E-01  8.50000000E-01  8.50000000E-01  8.50000000E-01  8.50000000E-01
  8.50000000E-01  8.50000000E-01  8.50000000E-01  8.50000000E-01  8.50000000E-01
  8.50000000E-01  8.50000000E-01  8.50000000E-01  8.50000000E-01  8.50000000E-01
  8.50000000E-01  8.50000000E-01  8.50000000E-01  8.50000000E-01  8.50000000E-01
  8.50000000E-01  8.50000000E-01  8.50000000E-01  8.50000000E-01  8.50000000E-01
  8.50000000E-01  8.50000000E-01  8.50000000E-01  8.50000000E-01  8.50000000E-01
  8.50000000E-01  8.50000000E-01  8.50000000E-01  8.50000000E-01  8.50000000E-01
  8.50000000E-01  8.50000000E-01  8.50000000E-01  8.50000000E-01  8.50000000E-01
  8.50000000E-01  8.50000000E-01  8.50000000E-01  8.50000000E-01  8.50000000E-01
  8.50000000E-01  8.50000000E-01  8.50000000E-01  8.50000000E-01  8.50000000E-01
  8.50000000E-01  8.50000000E-01  8.50000000E-01  8.50000000E-01  8.50000000E-01
  8.50000000E-01  8.50000000E-01  8.50000000E-01  8.50000000E-01  8.50000000E-01
  8.50000000E-01  8.50000000E-01  8.50000000E-01  8.50000000E-01  8.50000000E-01
  8.50000000E-01  8.50000000E-01  8.50000000E-01  8.50000000E-01  8.50000000E-01
  8.50000000E-01  8.50000000E-01  8.50000000E-01  8.50000000E-01  8.50000000E-01
  8.50000000E-01  8.50000000E-01  8.50000000E-01  8.50000000E-01  8.50000000E-01
  8.50000000E-01  8.50000000E-01  8.50000000E-01  8.50000000E-01  8.50000000E-01
  8.50000000E-01  8.50000000E-01  8.50000000E-01  8.50000000E-01  8.50000000E-01
  8.50000000E-01  8.50000000E-01  8.50000000E-01  8.50000000E-01  8.50000000E-01
  8.50000000E-01  8.50000000E-01  8.50000000E-01  8.50000000E-01  8.50000000E-01
  8.50000000E-01  8.50000000E-01  8.50000000E-01  8.50000000E-01  8.50000000E-01
  8.50000000E-01  8.50000000E-01  8.50000000E-01  8.50000000E-01  8.50000000E-01
  8.50000000E-01  8.50000000E-01  8.50000000E-01  8.50000000E-01  8.50000000E-01
  8.50000000E-01  8.50000000E-01  8.50000000E-01  8.50000000E-01  8.50000000E-01
  8.50000000E-01  8.50000000E-01  8.50000000E-01  8.50000000E-01  8.50000000E-01
  8.50000000E-01  8.50000000E-01  8.50000000E-01  8.50000000E-01  8.50000000E-01
  8.50000000E-01  8.50000000E-01  8.50000000E-01  8.50000000E-01  8.50000000E-01
  8.50000000E-01  8.50000000E-01  8.50000000E-01  8.50000000E-01  8.50000000E-01
  8.50000000E-01  8.50000000E-01  8.50000000E-01  8.50000000E-01  8.50000000E-01
  8.50000000E-01  8.50000000E-01  8.50000000E-01  8.50000000E-01  8.50000000E-01
  8.50000000E-01  8.50000000E-01  8.50000000E-01  8.50000000E-01  8.50000000E-01
  8.50000000E-01  8.50000000E-01  8.50000000E-01  8.50000000E-01  8.50000000E-01
  8.50000000E-01  8.50000000E-01  8.50000000E-01  8.50000000E-01  8.50000000E-01
  8.50000000E-01  8.50000000E-01  8.50000000E-01  8.50000000E-01  8.50000000E-01
  8.50000000E-01  8.50000000E-01  8.50000000E-01  8.50000000E-01  8.50000000E-01
  8.50000000E-01  8.50000000E-01  8.50000000E-01  8.50000000E-01  8.50000000E-01
  8.50000000E-01  8.50000000E-01  8.50000000E-01  8.50000000E-01  8.50000000E-01
  8.50000000E-01  8.50000000E-01  8.50000000E-01  8.50000000E-01  8.50000000E-01
  8.50000000E-01  8.50000000E-01  8.50000000E-01  8.50000000E-01  8.50000000E-01
  8.50000000E-01  8.50000000E-01  8.50000000E-01  8.50000000E-01  8.50000000E-01
  8.50000000E-01  8.50000000E-01  8.50000000E-01  8.50000000E-01  8.50000000E-01
  8.50000000E-01  8.50000000E-01  8.50000000E-01  8.50000000E-01  8.50000000E-01
  8.50000000E-01  8.50000000E-01  8.50000000E-01  8.50000000E-01  8.50000000E-01
  8.50000000E-01  8.50000000E-01  8.50000000E-01  8.50000000E-01  8.50000000E-01
  8.50000000E-01  8.50000000E-01  8.50000000E-01  8.50000000E-01  8.50000000E-01
  8.50000000E-01  8.50000000E-01  8.50000000E-01  8.50000000E-01  8.50000000E-01
  8.50000000E-01  8.50000000E-01  8.50000000E-01  8.50000000E-01  8.50000000E-01
  8.50000000E-01  8.50000000E-01  8.50000000E-01  8.50000000E-01  8.50000000E-01
  8.50000000E-01  8.50000000E-01  8.50000000E-01  8.50000000E-01  8.50000000E-01
  8.50000000E-01  8.50000000E-01  8.50000000E-01  8.50000000E-01  8.50000000E-01
  8.50000000E-01  8.50000000E-01  8.50000000E-01  8.50000000E-01  8.50000000E-01
  8.50000000E-01  8.50000000E-01  8.50000000E-01  8.50000000E-01  8.50000000E-01
  8.50000000E-01  8.50000000E-01  8.50000000E-01  8.50000000E-01  8.50000000E-01
  8.50000000E-01  8.50000000E-01  8.50000000E-01  8.50000000E-01  8.50000000E-01
  8.50000000E-01  8.50000000E-01  8.50000000E-01  8.50000000E-01  8.50000000E-01
  8.50000000E-01  8.50000000E-01  8.50000000E-01  8.50000000E-01  8.50000000E-01
  8.50000000E-01  8.50000000E-01  8.50000000E-01  8.50000000E-01  8.50000000E-01
  8.50000000E-01  8.50000000E-01  8.50000000E-01  8.50000000E-01  8.50000000E-01
  8.50000000E-01  8.50000000E-01  8.50000000E-01  8.50000000E-01  8.50000000E-01
  8.50000000E-01  8.50000000E-01  8.50000000E-01  8.50000000E-01  8.50000000E-01
  8.50000000E-01  8.50000000E-01  8.50000000E-01  8.50000000E-01  8.50000000E-01
  8.50000000E-01  8.50000000E-01  8.50000000E-01  8.50000000E-01  8.50000000E-01
  8.50000000E-01  8.50000000E-01  8.50000000E-01  8.50000000E-01  8.50000000E-01
  8.50000000E-01  8.50000000E-01  8.50000000E-01  8.50000000E-01  8.50000000E-01
  8.50000000E-01  8.50000000E-01  8.50000000E-01  8.50000000E-01  8.50000000E-01
  8.50000000E-01  8.50000000E-01  8.50000000E-01  8.50000000E-01  8.50000000E-01
  8.50000000E-01  8.50000000E-01  8.50000000E-01  8.50000000E-01  8.50000000E-01
  8.50000000E-01  8.50000000E-01  8.50000000E-01  8.50000000E-01  8.50000000E-01
  8.50000000E-01  8.50000000E-01  8.50000000E-01  8.50000000E-01  8.50000000E-01
  8.50000000E-01  8.50000000E-01  8.50000000E-01  8.50000000E-01  8.50000000E-01
  8.50000000E-01  8.50000000E-01  8.50000000E-01  8.50000000E-01  8.50000000E-01
  8.50000000E-01  8.50000000E-01  8.50000000E-01  8.50000000E-01  8.50000000E-01
  8.50000000E-01  8.50000000E-01  8.50000000E-01  8.50000000E-01  8.50000000E-01
  8.50000000E-01  8.50000000E-01  8.50000000E-01  8.50000000E-01  8.50000000E-01
  8.50000000E-01  8.50000000E-01  8.50000000E-01  8.50000000E-01  8.50000000E-01
  8.50000000E-01  8.50000000E-01  8.50000000E-01  8.50000000E-01  8.50000000E-01
  8.50000000E-01  8.50000000E-01  8.50000000E-01  8.50000000E-01  8.50000000E-01
  8.50000000E-01  8.50000000E-01  8.50000000E-01  8.50000000E-01  8.50000000E-01
  8.50000000E-01  8.50000000E-01  8.50000000E-01  8.50000000E-01  8.50000000E-01
  8.50000000E-01  8.50000000E-01  8.50000000E-01  8.50000000E-01  8.50000000E-01
  8.50000000E-01  8.50000000E-01  8.50000000E-01  8.50000000E-01  8.50000000E-01
  8.50000000E-01  8.50000000E-01  8.50000000E-01  8.50000000E-01  8.50000000E-01
  8.50000000E-01  8.50000000E-01  8.50000000E-01  8.50000000E-01  8.50000000E-01
  8.50000000E-01  8.50000000E-01  8.50000000E-01  8.50000000E-01  8.50000000E-01
  8.50000000E-01  8.50000000E-01  8.50000000E-01  8.50000000E-01  8.50000000E-01
  8.50000000E-01  8.50000000E-01  8.50000000E-01  8.50000000E-01  8.50000000E-01
  8.50000000E-01  8.50000000E-01  8.50000000E-01  8.50000000E-01  8.50000000E-01
  8.50000000E-01  8.50000000E-01  8.50000000E-01  8.50000000E-01  8.50000000E-01
  8.50000000E-01  8.50000000E-01  8.50000000E-01  8.50000000E-01  8.50000000E-01
  8.50000000E-01  8.50000000E-01  8.50000000E-01  8.50000000E-01  8.50000000E-01
  8.50000000E-01  8.50000000E-01  8.50000000E-01  8.50000000E-01  8.50000000E-01
  8.50000000E-01  8.50000000E-01  8.50000000E-01  8.50000000E-01  8.50000000E-01
  8.50000000E-01  8.50000000E-01  8.50000000E-01  8.50000000E-01  8.50000000E-01
  8.50000000E-01  8.50000000E-01  8.50000000E-01  8.50000000E-01  8.50000000E-01
  8.50000000E-01  8.50000000E-01  8.50000000E-01  8.50000000E-01  8.50000000E-01
  8.50000000E-01  8.50000000E-01  8.50000000E-01  8.50000000E-01  8.50000000E-01
  8.50000000E-01  8.50000000E-01  8.50000000E-01  8.50000000E-01  8.50000000E-01
  8.50000000E-01  8.50000000E-01  8.50000000E-01  8.50000000E-01  8.50000000E-01
  8.50000000E-01  8.50000000E-01  8.50000000E-01  8.50000000E-01  8.50000000E-01
  8.50000000E-01  8.50000000E-01  8.50000000E-01  8.50000000E-01  8.50000000E-01
  8.50000000E-01  8.50000000E-01  8.50000000E-01  8.50000000E-01  8.50000000E-01
  8.50000000E-01  8.50000000E-01  8.50000000E-01  8.50000000E-01  8.50000000E-01
  8.50000000E-01  8.50000000E-01  8.50000000E-01  8.50000000E-01  8.50000000E-01
  8.50000000E-01  8.50000000E-01  8.50000000E-01  8.50000000E-01  8.50000000E-01
  8.50000000E-01  8.50000000E-01  8.50000000E-01  8.50000000E-01  8.50000000E-01
  8.50000000E-01  8.50000000E-01  8.50000000E-01  8.50000000E-01  8.50000000E-01
  8.50000000E-01  8.50000000E-01  8.50000000E-01  8.50000000E-01  8.50000000E-01
  8.50000000E-01  8.50000000E-01  8.50000000E-01  8.50000000E-01  8.50000000E-01
  8.50000000E-01  8.50000000E-01  8.50000000E-01  8.50000000E-01  8.50000000E-01
  8.50000000E-01  8.50000000E-01  8.50000000E-01  8.50000000E-01  8.50000000E-01
  8.50000000E-01  8.50000000E-01  8.50000000E-01  8.50000000E-01  8.50000000E-01
  8.50000000E-01  8.50000000E-01  8.50000000E-01  8.50000000E-01  8.50000000E-01
  8.50000000E-01  8.50000000E-01  8.50000000E-01  8.50000000E-01  8.50000000E-01
  8.50000000E-01  8.50000000E-01  8.50000000E-01  8.50000000E-01  8.50000000E-01
  8.50000000E-01  8.50000000E-01  8.50000000E-01  8.50000000E-01  8.50000000E-01
  8.50000000E-01  8.50000000E-01  8.50000000E-01  8.50000000E-01  8.50000000E-01
  8.50000000E-01  8.50000000E-01  8.50000000E-01  8.50000000E-01  8.50000000E-01
  8.50000000E-01  8.50000000E-01  8.50000000E-01  8.50000000E-01  8.50000000E-01
  8.50000000E-01  8.50000000E-01  8.50000000E-01  8.50000000E-01  8.50000000E-01
  8.50000000E-01  8.50000000E-01  8.50000000E-01  8.50000000E-01  8.50000000E-01
  8.50000000E-01  8.50000000E-01  8.50000000E-01  8.50000000E-01  8.50000000E-01
  8.50000000E-01  8.50000000E-01  8.50000000E-01  8.50000000E-01  8.50000000E-01
  8.50000000E-01  8.50000000E-01  8.50000000E-01  8.50000000E-01  8.50000000E-01
  8.50000000E-01  8.50000000E-01  8.50000000E-01  8.50000000E-01  8.50000000E-01
  8.50000000E-01  8.50000000E-01  8.50000000E-01  8.50000000E-01  8.50000000E-01
  8.50000000E-01  8.50000000E-01  8.50000000E-01  8.50000000E-01  8.50000000E-01
  8.50000000E-01  8.50000000E-01  8.50000000E-01  8.50000000E-01  8.50000000E-01
  8.50000000E-01  8.50000000E-01  8.50000000E-01  8.50000000E-01  8.50000000E-01
  8.50000000E-01  8.50000000E-01  8.50000000E-01  8.50000000E-01  8.50000000E-01
  8.50000000E-01  8.50000000E-01  8.50000000E-01  8.50000000E-01  8.50000000E-01
  8.50000000E-01  8.50000000E-01  8.50000000E-01  8.50000000E-01  8.50000000E-01
  8.50000000E-01  8.50000000E-01  8.50000000E-01  8.50000000E-01  8.50000000E-01
  8.50000000E-01  8.50000000E-01  8.50000000E-01  8.50000000E-01  8.50000000E-01
  8.50000000E-01  8.50000000E-01  8.50000000E-01  8.50000000E-01  8.50000000E-01
  8.50000000E-01  8.50000000E-01  8.50000000E-01  8.50000000E-01  8.50000000E-01
  8.50000000E-01  8.50000000E-01  8.50000000E-01  8.50000000E-01  8.50000000E-01
  8.50000000E-01  8.50000000E-01  8.50000000E-01  8.50000000E-01  8.50000000E-01
  8.50000000E-01  8.50000000E-01  8.50000000E-01  8.50000000E-01  8.50000000E-01
  8.50000000E-01  8.50000000E-01  8.50000000E-01  8.50000000E-01  8.50000000E-01
  8.50000000E-01  8.50000000E-01  8.50000000E-01  8.50000000E-01  8.50000000E-01
  8.50000000E-01  8.50000000E-01  8.50000000E-01  8.50000000E-01  8.50000000E-01
  8.50000000E-01  8.50000000E-01  8.50000000E-01  8.50000000E-01  8.50000000E-01
  8.50000000E-01  8.50000000E-01  8.50000000E-01  8.50000000E-01  8.50000000E-01
  8.50000000E-01  8.50000000E-01  8.50000000E-01  8.50000000E-01  8.50000000E-01
  8.50000000E-01  8.50000000E-01  8.50000000E-01  8.50000000E-01  8.50000000E-01
  8.50000000E-01  8.50000000E-01  8.50000000E-01  8.50000000E-01  8.50000000E-01
  8.50000000E-01  8.50000000E-01  8.50000000E-01  8.50000000E-01  8.50000000E-01
  8.50000000E-01  8.50000000E-01  8.50000000E-01  8.50000000E-01  8.50000000E-01
  8.50000000E-01  8.50000000E-01  8.50000000E-01  8.50000000E-01  8.50000000E-01
  8.50000000E-01  8.50000000E-01  8.50000000E-01  8.50000000E-01  8.50000000E-01
  8.50000000E-01  8.50000000E-01  8.50000000E-01  8.50000000E-01  8.50000000E-01
  8.50000000E-01  8.50000000E-01  8.50000000E-01  8.50000000E-01  8.50000000E-01
  8.50000000E-01  8.50000000E-01  8.50000000E-01  8.50000000E-01  8.50000000E-01
  8.50000000E-01  8.50000000E-01  8.50000000E-01  8.50000000E-01  8.50000000E-01
  8.50000000E-01  8.50000000E-01  8.50000000E-01  8.50000000E-01  8.50000000E-01
  8.50000000E-01  8.50000000E-01  8.50000000E-01  8.50000000E-01  8.50000000E-01
  8.50000000E-01  8.50000000E-01  8.50000000E-01  8.50000000E-01  8.50000000E-01
  8.50000000E-01  8.50000000E-01  8.50000000E-01  8.50000000E-01  8.50000000E-01
  8.50000000E-01  8.50000000E-01  8.50000000E-01  8.50000000E-01  8.50000000E-01
  8.50000000E-01  8.50000000E-01  8.50000000E-01  8.50000000E-01  8.50000000E-01
  8.50000000E-01  8.50000000E-01  8.50000000E-01  8.50000000E-01  8.50000000E-01
  8.50000000E-01  8.50000000E-01  8.50000000E-01  8.50000000E-01  8.50000000E-01
  8.50000000E-01  8.50000000E-01  8.50000000E-01  8.50000000E-01  8.50000000E-01
  8.50000000E-01  8.50000000E-01  8.50000000E-01  8.50000000E-01  8.50000000E-01
  8.50000000E-01  8.50000000E-01  8.50000000E-01  8.50000000E-01  8.50000000E-01
  8.50000000E-01  8.50000000E-01  8.50000000E-01  8.50000000E-01  8.50000000E-01
  8.50000000E-01  8.50000000E-01  8.50000000E-01  8.50000000E-01  8.50000000E-01
  8.50000000E-01  8.50000000E-01  8.50000000E-01  8.50000000E-01  8.50000000E-01
  8.50000000E-01  8.50000000E-01  8.50000000E-01  8.50000000E-01  8.50000000E-01
  8.50000000E-01  8.50000000E-01  8.50000000E-01  8.50000000E-01  8.50000000E-01
  8.50000000E-01  8.50000000E-01  8.50000000E-01  8.50000000E-01  8.50000000E-01
  8.50000000E-01  8.50000000E-01  8.50000000E-01  8.50000000E-01  8.50000000E-01
  8.50000000E-01  8.50000000E-01  8.50000000E-01  8.50000000E-01  8.50000000E-01
  8.50000000E-01  8.50000000E-01  8.50000000E-01  8.50000000E-01  8.50000000E-01
  8.50000000E-01  8.50000000E-01  8.50000000E-01  8.50000000E-01  8.50000000E-01
  8.50000000E-01  8.50000000E-01  8.50000000E-01  8.50000000E-01  8.50000000E-01
  8.50000000E-01  8.50000000E-01  8.50000000E-01  8.50000000E-01  8.50000000E-01
  8.50000000E-01  8.50000000E-01  8.50000000E-01  8.50000000E-01  8.50000000E-01
  8.50000000E-01  8.50000000E-01  8.50000000E-01  8.50000000E-01  8.50000000E-01
  8.50000000E-01  8.50000000E-01  8.50000000E-01  8.50000000E-01  8.50000000E-01
  8.50000000E-01  8.50000000E-01  8.50000000E-01  8.50000000E-01  8.50000000E-01
  8.50000000E-01  8.50000000E-01  8.50000000E-01  8.50000000E-01  8.50000000E-01
  8.50000000E-01  8.50000000E-01  8.50000000E-01  8.50000000E-01  8.50000000E-01
  8.50000000E-01  8.50000000E-01  8.50000000E-01  8.50000000E-01  8.50000000E-01
  8.50000000E-01  8.50000000E-01  8.50000000E-01  8.50000000E-01  8.50000000E-01
  8.50000000E-01  8.50000000E-01  8.50000000E-01  8.50000000E-01  8.50000000E-01
  8.50000000E-01  8.50000000E-01  8.50000000E-01  8.50000000E-01  8.50000000E-01
  8.50000000E-01  8.50000000E-01  8.50000000E-01  8.50000000E-01  8.50000000E-01
  8.50000000E-01  8.50000000E-01  8.50000000E-01  8.50000000E-01  8.50000000E-01
  8.50000000E-01  8.50000000E-01  8.50000000E-01  8.50000000E-01  8.50000000E-01
  8.50000000E-01  8.50000000E-01  8.50000000E-01  8.50000000E-01  8.50000000E-01
  8.50000000E-01  8.50000000E-01  8.50000000E-01  8.50000000E-01  8.50000000E-01
  8.50000000E-01  8.50000000E-01  8.50000000E-01  8.50000000E-01  8.50000000E-01
  8.50000000E-01  8.50000000E-01  8.50000000E-01  8.50000000E-01  8.50000000E-01
  8.50000000E-01  8.50000000E-01  8.50000000E-01  8.50000000E-01  8.50000000E-01
  8.50000000E-01  8.50000000E-01  8.50000000E-01  8.50000000E-01  8.50000000E-01
  8.50000000E-01  8.50000000E-01  8.50000000E-01  8.50000000E-01  8.50000000E-01
  8.50000000E-01  8.50000000E-01  8.50000000E-01  8.50000000E-01  8.50000000E-01
  8.50000000E-01  8.50000000E-01  8.50000000E-01  8.50000000E-01  8.50000000E-01
  8.50000000E-01  8.50000000E-01  8.50000000E-01  8.50000000E-01  8.50000000E-01
  8.50000000E-01  8.50000000E-01  8.50000000E-01  8.50000000E-01  8.50000000E-01
  8.50000000E-01  8.50000000E-01  8.50000000E-01  8.50000000E-01  8.50000000E-01
  8.50000000E-01  8.50000000E-01  8.50000000E-01  8.50000000E-01  8.50000000E-01
  8.50000000E-01  8.50000000E-01  8.50000000E-01  8.50000000E-01  8.50000000E-01
  8.50000000E-01  8.50000000E-01  8.50000000E-01  8.50000000E-01  8.50000000E-01
  8.50000000E-01  8.50000000E-01  8.50000000E-01  8.50000000E-01  8.50000000E-01
  8.50000000E-01  8.50000000E-01  8.50000000E-01  8.50000000E-01  8.50000000E-01
  8.50000000E-01  8.50000000E-01  8.50000000E-01  8.50000000E-01  8.50000000E-01
  8.50000000E-01  8.50000000E-01  8.50000000E-01  8.50000000E-01  8.50000000E-01
  8.50000000E-01  8.50000000E-01  8.50000000E-01  8.50000000E-01  8.50000000E-01
  8.50000000E-01  8.50000000E-01  8.50000000E-01  8.50000000E-01  8.50000000E-01
  8.50000000E-01  8.50000000E-01  8.50000000E-01  8.50000000E-01  8.50000000E-01
  8.50000000E-01  8.50000000E-01  8.50000000E-01  8.50000000E-01  8.50000000E-01
  8.50000000E-01  8.50000000E-01  8.50000000E-01  8.50000000E-01  8.50000000E-01
  8.50000000E-01  8.50000000E-01  8.50000000E-01  8.50000000E-01  8.50000000E-01
  8.50000000E-01  8.50000000E-01  8.50000000E-01  8.50000000E-01  8.50000000E-01
  8.50000000E-01  8.50000000E-01  8.50000000E-01  8.50000000E-01  8.50000000E-01
  8.50000000E-01  8.50000000E-01  8.50000000E-01  8.50000000E-01  8.50000000E-01
  8.50000000E-01  8.50000000E-01  8.50000000E-01  8.50000000E-01  8.50000000E-01
  8.50000000E-01  8.50000000E-01  8.50000000E-01  8.50000000E-01  8.50000000E-01
  8.50000000E-01  8.50000000E-01  8.50000000E-01  8.50000000E-01  8.50000000E-01
  8.50000000E-01  8.50000000E-01  8.50000000E-01  8.50000000E-01  8.50000000E-01
  8.50000000E-01  8.50000000E-01  8.50000000E-01  8.50000000E-01  8.50000000E-01
  8.50000000E-01  8.50000000E-01  8.50000000E-01  8.50000000E-01  8.50000000E-01
  8.50000000E-01  8.50000000E-01  8.50000000E-01  8.50000000E-01  8.50000000E-01
  8.50000000E-01  8.50000000E-01  8.50000000E-01  8.50000000E-01  8.50000000E-01
  8.50000000E-01  8.50000000E-01  8.50000000E-01  8.50000000E-01  8.50000000E-01
  8.50000000E-01  8.50000000E-01  8.50000000E-01  8.50000000E-01  8.50000000E-01
  8.50000000E-01  8.50000000E-01  8.50000000E-01  8.50000000E-01  8.50000000E-01
  8.50000000E-01  8.50000000E-01  8.50000000E-01  8.50000000E-01  8.50000000E-01
  8.50000000E-01  8.50000000E-01  8.50000000E-01  8.50000000E-01  8.50000000E-01
  8.50000000E-01  8.50000000E-01  8.50000000E-01  8.50000000E-01  8.50000000E-01
  8.50000000E-01  8.50000000E-01  8.50000000E-01  8.50000000E-01  8.50000000E-01
  8.50000000E-01  8.50000000E-01  8.50000000E-01  8.50000000E-01  8.50000000E-01
  8.50000000E-01  8.50000000E-01  8.50000000E-01  8.50000000E-01  8.50000000E-01
  8.50000000E-01  8.50000000E-01  8.50000000E-01  8.50000000E-01  8.50000000E-01
  8.50000000E-01  8.50000000E-01  8.50000000E-01  8.50000000E-01  8.50000000E-01
  8.50000000E-01  8.50000000E-01  8.50000000E-01  8.50000000E-01  8.50000000E-01
  8.50000000E-01  8.50000000E-01  8.50000000E-01  8.50000000E-01  8.50000000E-01
  8.50000000E-01  8.50000000E-01  8.50000000E-01  8.50000000E-01  8.50000000E-01
  8.50000000E-01  8.50000000E-01  8.50000000E-01  8.50000000E-01  8.50000000E-01
  8.50000000E-01  8.50000000E-01  8.50000000E-01  8.50000000E-01  8.50000000E-01
  8.50000000E-01  8.50000000E-01  8.50000000E-01  8.50000000E-01  8.50000000E-01
  8.50000000E-01  8.50000000E-01  8.50000000E-01  8.50000000E-01  8.50000000E-01
  8.50000000E-01  8.50000000E-01  8.50000000E-01  8.50000000E-01  8.50000000E-01
  8.50000000E-01  8.50000000E-01  8.50000000E-01  8.50000000E-01  8.50000000E-01
  8.50000000E-01  8.50000000E-01  8.50000000E-01  8.50000000E-01  8.50000000E-01
  8.50000000E-01  8.50000000E-01  8.50000000E-01  8.50000000E-01  8.50000000E-01
  8.50000000E-01  8.50000000E-01  8.50000000E-01  8.50000000E-01  8.50000000E-01
  8.50000000E-01  8.50000000E-01  8.50000000E-01  8.50000000E-01  8.50000000E-01
  8.50000000E-01  8.50000000E-01  8.50000000E-01  8.50000000E-01  8.50000000E-01
  8.50000000E-01  8.50000000E-01  8.50000000E-01  8.50000000E-01  8.50000000E-01
  8.50000000E-01  8.50000000E-01  8.50000000E-01  8.50000000E-01  8.50000000E-01
  8.50000000E-01  8.50000000E-01  8.50000000E-01  8.50000000E-01  8.50000000E-01
  8.50000000E-01  8.50000000E-01  8.50000000E-01  8.50000000E-01  8.50000000E-01
  8.50000000E-01  8.50000000E-01  8.50000000E-01  8.50000000E-01  8.50000000E-01
  8.50000000E-01  8.50000000E-01  8.50000000E-01  8.50000000E-01  8.50000000E-01
  8.50000000E-01  8.50000000E-01  8.50000000E-01  8.50000000E-01  8.50000000E-01
  8.50000000E-01  8.50000000E-01  8.50000000E-01  8.50000000E-01  8.50000000E-01
  8.50000000E-01  8.50000000E-01  8.50000000E-01  8.50000000E-01  8.50000000E-01
  8.50000000E-01  8.50000000E-01  8.50000000E-01  8.50000000E-01  8.50000000E-01
  8.50000000E-01  8.50000000E-01  8.50000000E-01  8.50000000E-01  8.50000000E-01
  8.50000000E-01  8.50000000E-01  8.50000000E-01  8.50000000E-01  8.50000000E-01
  8.50000000E-01  8.50000000E-01  8.50000000E-01  8.50000000E-01  8.50000000E-01
  8.50000000E-01  8.50000000E-01  8.50000000E-01  8.50000000E-01  8.50000000E-01
  8.50000000E-01  8.50000000E-01  8.50000000E-01  8.50000000E-01  8.50000000E-01
  8.50000000E-01  8.50000000E-01  8.50000000E-01  8.50000000E-01  8.50000000E-01
  8.50000000E-01  8.50000000E-01  8.50000000E-01  8.50000000E-01  8.50000000E-01
  8.50000000E-01  8.50000000E-01  8.50000000E-01  8.50000000E-01  8.50000000E-01
  8.50000000E-01  8.50000000E-01  8.50000000E-01  8.50000000E-01  8.50000000E-01
  8.50000000E-01  8.50000000E-01  8.50000000E-01  8.50000000E-01  8.50000000E-01
  8.50000000E-01  8.50000000E-01  8.50000000E-01  8.50000000E-01  8.50000000E-01
  8.50000000E-01  8.50000000E-01  8.50000000E-01  8.50000000E-01  8.50000000E-01
  8.50000000E-01  8.50000000E-01  8.50000000E-01  8.50000000E-01  8.50000000E-01
  8.50000000E-01  8.50000000E-01  8.50000000E-01  8.50000000E-01  8.50000000E-01
  8.50000000E-01  8.50000000E-01  8.50000000E-01  8.50000000E-01  8.50000000E-01
  8.50000000E-01  8.50000000E-01  8.50000000E-01  8.50000000E-01  8.50000000E-01
  8.50000000E-01  8.50000000E-01  8.50000000E-01  8.50000000E-01  8.50000000E-01
  8.50000000E-01  8.50000000E-01  8.50000000E-01  8.50000000E-01  8.50000000E-01
  8.50000000E-01  8.50000000E-01  8.50000000E-01  8.50000000E-01  8.50000000E-01
  8.50000000E-01  8.50000000E-01  8.50000000E-01  8.50000000E-01  8.50000000E-01
  8.50000000E-01  8.50000000E-01  8.50000000E-01  8.50000000E-01  8.50000000E-01
  8.50000000E-01  8.50000000E-01  8.50000000E-01  8.50000000E-01  8.50000000E-01
  8.50000000E-01  8.50000000E-01  8.50000000E-01  8.50000000E-01  8.50000000E-01
  8.50000000E-01  8.50000000E-01  8.50000000E-01  8.50000000E-01  8.50000000E-01
  8.50000000E-01  8.50000000E-01  8.50000000E-01  8.50000000E-01  8.50000000E-01
  8.50000000E-01  8.50000000E-01  8.50000000E-01  8.50000000E-01  8.50000000E-01
  8.50000000E-01  8.50000000E-01  8.50000000E-01  8.50000000E-01  8.50000000E-01
  8.50000000E-01  8.50000000E-01  8.50000000E-01  8.50000000E-01  8.50000000E-01
  8.50000000E-01  8.50000000E-01  8.50000000E-01  8.50000000E-01  8.50000000E-01
  8.50000000E-01  8.50000000E-01  8.50000000E-01  8.50000000E-01  8.50000000E-01
  8.50000000E-01  8.50000000E-01  8.50000000E-01  8.50000000E-01  8.50000000E-01
  8.50000000E-01  8.50000000E-01  8.50000000E-01  8.50000000E-01  8.50000000E-01
  8.50000000E-01  8.50000000E-01  8.50000000E-01  8.50000000E-01  8.50000000E-01
  8.50000000E-01  8.50000000E-01  8.50000000E-01  8.50000000E-01  8.50000000E-01
  8.50000000E-01  8.50000000E-01  8.50000000E-01  8.50000000E-01  8.50000000E-01
  8.50000000E-01  8.50000000E-01  8.50000000E-01  8.50000000E-01  8.50000000E-01
  8.50000000E-01  8.50000000E-01  8.50000000E-01  8.50000000E-01  8.50000000E-01
  8.50000000E-01  8.50000000E-01  8.50000000E-01  8.50000000E-01  8.50000000E-01
  8.50000000E-01  8.50000000E-01  8.50000000E-01  8.50000000E-01  8.50000000E-01
  8.50000000E-01  8.50000000E-01  8.50000000E-01  8.50000000E-01  8.50000000E-01
  8.50000000E-01  8.50000000E-01  8.50000000E-01  8.50000000E-01  8.50000000E-01
  8.50000000E-01  8.50000000E-01  8.50000000E-01  8.50000000E-01  8.50000000E-01
  8.50000000E-01  8.50000000E-01  8.50000000E-01  8.50000000E-01  8.50000000E-01
  8.50000000E-01  8.50000000E-01  8.50000000E-01  8.50000000E-01  8.50000000E-01
  8.50000000E-01  8.50000000E-01  8.50000000E-01  8.50000000E-01  8.50000000E-01
  8.50000000E-01  8.50000000E-01  8.50000000E-01  8.50000000E-01  8.50000000E-01
  8.50000000E-01  8.50000000E-01  8.50000000E-01  8.50000000E-01  8.50000000E-01
  8.50000000E-01  8.50000000E-01  8.50000000E-01  8.50000000E-01  8.50000000E-01
  8.50000000E-01  8.50000000E-01  8.50000000E-01  8.50000000E-01  8.50000000E-01
  8.50000000E-01  8.50000000E-01  8.50000000E-01  8.50000000E-01  8.50000000E-01
  8.50000000E-01  8.50000000E-01  8.50000000E-01  8.50000000E-01  8.50000000E-01
  8.50000000E-01  8.50000000E-01  8.50000000E-01  8.50000000E-01  8.50000000E-01
  8.50000000E-01  8.50000000E-01  8.50000000E-01  8.50000000E-01  8.50000000E-01
  8.50000000E-01  8.50000000E-01  8.50000000E-01  8.50000000E-01  8.50000000E-01
  8.50000000E-01  8.50000000E-01  8.50000000E-01  8.50000000E-01  8.50000000E-01
  8.50000000E-01  8.50000000E-01  8.50000000E-01  8.50000000E-01  8.50000000E-01
  8.50000000E-01  8.50000000E-01  8.50000000E-01  8.50000000E-01  8.50000000E-01
  8.50000000E-01  8.50000000E-01  8.50000000E-01  8.50000000E-01  8.50000000E-01
  8.50000000E-01  8.50000000E-01  8.50000000E-01  8.50000000E-01  8.50000000E-01
  8.50000000E-01  8.50000000E-01  8.50000000E-01  8.50000000E-01  8.50000000E-01
  8.50000000E-01  8.50000000E-01  8.50000000E-01  8.50000000E-01  8.50000000E-01
  8.50000000E-01  8.50000000E-01  8.50000000E-01  8.50000000E-01  8.50000000E-01
  8.50000000E-01  8.50000000E-01  8.50000000E-01  8.50000000E-01  8.50000000E-01
  8.50000000E-01  8.50000000E-01  8.50000000E-01  8.50000000E-01  8.50000000E-01
  8.50000000E-01  8.50000000E-01  8.50000000E-01  8.50000000E-01  8.50000000E-01
  8.50000000E-01  8.50000000E-01  8.50000000E-01  8.50000000E-01  8.50000000E-01
  8.50000000E-01  8.50000000E-01  8.50000000E-01  8.50000000E-01  8.50000000E-01
  8.50000000E-01  8.50000000E-01  8.50000000E-01  8.50000000E-01  8.50000000E-01
  8.50000000E-01  8.50000000E-01  8.50000000E-01  8.50000000E-01  8.50000000E-01
  8.50000000E-01  8.50000000E-01  8.50000000E-01  8.50000000E-01  8.50000000E-01
  8.50000000E-01  8.50000000E-01  8.50000000E-01  8.50000000E-01  8.50000000E-01
  8.50000000E-01  8.50000000E-01  8.50000000E-01  8.50000000E-01  8.50000000E-01
  8.50000000E-01  8.50000000E-01  8.50000000E-01  8.50000000E-01  8.50000000E-01
  8.50000000E-01  8.50000000E-01  8.50000000E-01  8.50000000E-01  8.50000000E-01
  8.50000000E-01  8.50000000E-01  8.50000000E-01  8.50000000E-01  8.50000000E-01
  8.50000000E-01  8.50000000E-01  8.50000000E-01  8.50000000E-01  8.50000000E-01
  8.50000000E-01  8.50000000E-01  8.50000000E-01  8.50000000E-01  8.50000000E-01
  8.50000000E-01  8.50000000E-01  8.50000000E-01  8.50000000E-01  8.50000000E-01
  8.50000000E-01  8.50000000E-01  8.50000000E-01  8.50000000E-01  8.50000000E-01
  8.50000000E-01  8.50000000E-01  8.50000000E-01  8.50000000E-01  8.50000000E-01
  8.50000000E-01  8.50000000E-01  8.50000000E-01  8.50000000E-01  8.50000000E-01
  8.50000000E-01  8.50000000E-01  8.50000000E-01  8.50000000E-01  8.50000000E-01
  8.50000000E-01  8.50000000E-01  8.50000000E-01  8.50000000E-01  8.50000000E-01
  8.50000000E-01  8.50000000E-01  8.50000000E-01  8.50000000E-01  8.50000000E-01
  8.50000000E-01  8.50000000E-01  8.50000000E-01  8.50000000E-01  8.50000000E-01
  8.50000000E-01  8.50000000E-01  8.50000000E-01  8.50000000E-01  8.50000000E-01
  8.50000000E-01  8.50000000E-01  8.50000000E-01  8.50000000E-01  8.50000000E-01
  8.50000000E-01  8.50000000E-01  8.50000000E-01  8.50000000E-01  8.50000000E-01
  8.50000000E-01  8.50000000E-01  8.50000000E-01  8.50000000E-01  8.50000000E-01
  8.50000000E-01  8.50000000E-01  8.50000000E-01  8.50000000E-01  8.50000000E-01
  8.50000000E-01  8.50000000E-01  8.50000000E-01  8.50000000E-01  8.50000000E-01
  8.50000000E-01  8.50000000E-01  8.50000000E-01  8.50000000E-01  8.50000000E-01
  8.50000000E-01  8.50000000E-01  8.50000000E-01  8.50000000E-01  8.50000000E-01
  8.50000000E-01  8.50000000E-01  8.50000000E-01  8.50000000E-01  8.50000000E-01
  8.50000000E-01  8.50000000E-01  8.50000000E-01  8.50000000E-01  8.50000000E-01
  8.50000000E-01  8.50000000E-01  8.50000000E-01  8.50000000E-01  8.50000000E-01
  8.50000000E-01  8.50000000E-01  8.50000000E-01  8.50000000E-01  8.50000000E-01
  8.50000000E-01  8.50000000E-01  8.50000000E-01  8.50000000E-01  8.50000000E-01
  8.50000000E-01  8.50000000E-01  8.50000000E-01  8.50000000E-01  8.50000000E-01
  8.50000000E-01  8.50000000E-01  8.50000000E-01  8.50000000E-01  8.50000000E-01
  8.50000000E-01  8.50000000E-01  8.50000000E-01  8.50000000E-01  8.50000000E-01
  8.50000000E-01  8.50000000E-01  8.50000000E-01  8.50000000E-01  8.50000000E-01
  8.50000000E-01  8.50000000E-01  8.50000000E-01  8.50000000E-01  8.50000000E-01
  8.50000000E-01  8.50000000E-01  8.50000000E-01  8.50000000E-01  8.50000000E-01
  8.50000000E-01  8.50000000E-01  8.50000000E-01  8.50000000E-01  8.50000000E-01
  8.50000000E-01  8.50000000E-01  8.50000000E-01  8.50000000E-01  8.50000000E-01
  8.50000000E-01  8.50000000E-01  8.50000000E-01  8.50000000E-01  8.50000000E-01
  8.50000000E-01  8.50000000E-01  8.50000000E-01  8.50000000E-01  8.50000000E-01
  8.50000000E-01  8.50000000E-01  8.50000000E-01  8.50000000E-01  8.50000000E-01
  8.50000000E-01  8.50000000E-01  8.50000000E-01  8.50000000E-01  8.50000000E-01
  8.50000000E-01  8.50000000E-01  8.50000000E-01  8.50000000E-01  8.50000000E-01
  8.50000000E-01  8.50000000E-01  8.50000000E-01  8.50000000E-01  8.50000000E-01
  8.50000000E-01  8.50000000E-01  8.50000000E-01  8.50000000E-01  8.50000000E-01
  8.50000000E-01  8.50000000E-01  8.50000000E-01  8.50000000E-01  8.50000000E-01
  8.50000000E-01  8.50000000E-01  8.50000000E-01  8.50000000E-01  8.50000000E-01
  8.50000000E-01  8.50000000E-01  8.50000000E-01  8.50000000E-01  8.50000000E-01
  8.50000000E-01  8.50000000E-01  8.50000000E-01  8.50000000E-01  8.50000000E-01
  8.50000000E-01  8.50000000E-01  8.50000000E-01  8.50000000E-01  8.50000000E-01
  8.50000000E-01  8.50000000E-01  8.50000000E-01  8.50000000E-01  8.50000000E-01
  8.50000000E-01  8.50000000E-01  8.50000000E-01  8.50000000E-01  8.50000000E-01
  8.50000000E-01  8.50000000E-01  8.50000000E-01  8.50000000E-01  8.50000000E-01
  8.50000000E-01  8.50000000E-01  8.50000000E-01  8.50000000E-01  8.50000000E-01
  8.50000000E-01  8.50000000E-01  8.50000000E-01  8.50000000E-01  8.50000000E-01
  8.50000000E-01  8.50000000E-01  8.50000000E-01  8.50000000E-01  8.50000000E-01
  8.50000000E-01  8.50000000E-01  8.50000000E-01  8.50000000E-01  8.50000000E-01
  8.50000000E-01  8.50000000E-01  8.50000000E-01  8.50000000E-01  8.50000000E-01
  8.50000000E-01  8.50000000E-01  8.50000000E-01  8.50000000E-01  8.50000000E-01
  8.50000000E-01  8.50000000E-01  8.50000000E-01  8.50000000E-01  8.50000000E-01
  8.50000000E-01  8.50000000E-01  8.50000000E-01  8.50000000E-01  8.50000000E-01
  8.50000000E-01  8.50000000E-01  8.50000000E-01  8.50000000E-01  8.50000000E-01
  8.50000000E-01  8.50000000E-01  8.50000000E-01  8.50000000E-01  8.50000000E-01
  8.50000000E-01  8.50000000E-01  8.50000000E-01  8.50000000E-01  8.50000000E-01
  8.50000000E-01  8.50000000E-01  8.50000000E-01  8.50000000E-01  8.50000000E-01
  8.50000000E-01  8.50000000E-01  8.50000000E-01  8.50000000E-01  8.50000000E-01
  8.50000000E-01  8.50000000E-01  8.50000000E-01  8.50000000E-01  8.50000000E-01
  8.50000000E-01  8.50000000E-01  8.50000000E-01  8.50000000E-01  8.50000000E-01
  8.50000000E-01  8.50000000E-01  8.50000000E-01  8.50000000E-01  8.50000000E-01
  8.50000000E-01  8.50000000E-01  8.50000000E-01  8.50000000E-01  8.50000000E-01
  8.50000000E-01  8.50000000E-01  8.50000000E-01  8.50000000E-01  8.50000000E-01
  8.50000000E-01  8.50000000E-01  8.50000000E-01  8.50000000E-01  8.50000000E-01
  8.50000000E-01  8.50000000E-01  8.50000000E-01  8.50000000E-01  8.50000000E-01
  8.50000000E-01  8.50000000E-01  8.50000000E-01  8.50000000E-01  8.50000000E-01
  8.50000000E-01  8.50000000E-01  8.50000000E-01  8.50000000E-01  8.50000000E-01
  8.50000000E-01  8.50000000E-01  8.50000000E-01  8.50000000E-01  8.50000000E-01
  8.50000000E-01  8.50000000E-01  8.50000000E-01  8.50000000E-01  8.50000000E-01
  8.50000000E-01  8.50000000E-01  8.50000000E-01  8.50000000E-01  8.50000000E-01
  8.50000000E-01  8.50000000E-01  8.50000000E-01  8.50000000E-01  8.50000000E-01
  8.50000000E-01  8.50000000E-01  8.50000000E-01  8.50000000E-01  8.50000000E-01
  8.50000000E-01  8.50000000E-01  8.50000000E-01  8.50000000E-01  8.50000000E-01
  8.50000000E-01  8.50000000E-01  8.50000000E-01  8.50000000E-01  8.50000000E-01
  8.50000000E-01  8.50000000E-01  8.50000000E-01  8.50000000E-01  8.50000000E-01
  8.50000000E-01  8.50000000E-01  8.50000000E-01  8.50000000E-01  8.50000000E-01
  8.50000000E-01  8.50000000E-01  8.50000000E-01  8.50000000E-01  8.50000000E-01
  8.50000000E-01  8.50000000E-01  8.50000000E-01  8.50000000E-01  8.50000000E-01
  8.50000000E-01  8.50000000E-01  8.50000000E-01  8.50000000E-01  8.50000000E-01
  8.50000000E-01  8.50000000E-01  8.50000000E-01  8.50000000E-01  8.50000000E-01
  8.50000000E-01  8.50000000E-01  8.50000000E-01  8.50000000E-01  8.50000000E-01
  8.50000000E-01  8.50000000E-01  8.50000000E-01  8.50000000E-01  8.50000000E-01
  8.50000000E-01  8.50000000E-01  8.50000000E-01  8.50000000E-01  8.50000000E-01
  8.50000000E-01  8.50000000E-01  8.50000000E-01  8.50000000E-01  8.50000000E-01
  8.50000000E-01  8.50000000E-01  8.50000000E-01  8.50000000E-01  8.50000000E-01
  8.50000000E-01  8.50000000E-01  8.50000000E-01  8.50000000E-01  8.50000000E-01
  8.50000000E-01  8.50000000E-01  8.50000000E-01  8.50000000E-01  8.50000000E-01
  8.50000000E-01  8.50000000E-01  8.50000000E-01  8.50000000E-01  8.50000000E-01
  8.50000000E-01  8.50000000E-01  8.50000000E-01  8.50000000E-01  8.50000000E-01
  8.50000000E-01  8.50000000E-01  8.50000000E-01  8.50000000E-01  8.50000000E-01
  8.50000000E-01  8.50000000E-01  8.50000000E-01  8.50000000E-01  8.50000000E-01
  8.50000000E-01  8.50000000E-01  8.50000000E-01  8.50000000E-01  8.50000000E-01
  8.50000000E-01  8.50000000E-01  8.50000000E-01  8.50000000E-01  8.50000000E-01
  8.50000000E-01  8.50000000E-01  8.50000000E-01  8.50000000E-01  8.50000000E-01
  8.50000000E-01  8.50000000E-01  8.50000000E-01  8.50000000E-01  8.50000000E-01
  8.50000000E-01  8.50000000E-01  8.50000000E-01  8.50000000E-01  8.50000000E-01
  8.50000000E-01  8.50000000E-01  8.50000000E-01  8.50000000E-01  8.50000000E-01
  8.50000000E-01  8.50000000E-01  8.50000000E-01  8.50000000E-01  8.50000000E-01
  8.50000000E-01  8.50000000E-01  8.50000000E-01  8.50000000E-01  8.50000000E-01
  8.50000000E-01  8.50000000E-01  8.50000000E-01  8.50000000E-01  8.50000000E-01
  8.50000000E-01  8.50000000E-01  8.50000000E-01  8.50000000E-01  8.50000000E-01
  8.50000000E-01  8.50000000E-01  8.50000000E-01  8.50000000E-01  8.50000000E-01
  8.50000000E-01  8.50000000E-01  8.50000000E-01  8.50000000E-01  8.50000000E-01
  8.50000000E-01  8.50000000E-01  8.50000000E-01  8.50000000E-01  8.50000000E-01
  8.50000000E-01  8.50000000E-01  8.50000000E-01  8.50000000E-01  8.50000000E-01
  8.50000000E-01  8.50000000E-01  8.50000000E-01  8.50000000E-01  8.50000000E-01
  8.50000000E-01  8.50000000E-01  8.50000000E-01  8.50000000E-01  8.50000000E-01
  8.50000000E-01  8.50000000E-01  8.50000000E-01  8.50000000E-01  8.50000000E-01
  8.50000000E-01  8.50000000E-01  8.50000000E-01  8.50000000E-01  8.50000000E-01
  8.50000000E-01  8.50000000E-01  8.50000000E-01  8.50000000E-01  8.50000000E-01
  8.50000000E-01  8.50000000E-01  8.50000000E-01  8.50000000E-01  8.50000000E-01
  8.50000000E-01  8.50000000E-01  8.50000000E-01  8.50000000E-01  8.50000000E-01
  8.50000000E-01  8.50000000E-01  8.50000000E-01  8.50000000E-01  8.50000000E-01
  8.50000000E-01  8.50000000E-01  8.50000000E-01  8.50000000E-01  8.50000000E-01
  8.50000000E-01  8.50000000E-01  8.50000000E-01  8.50000000E-01  8.50000000E-01
  8.50000000E-01  8.50000000E-01  8.50000000E-01  8.50000000E-01  8.50000000E-01
  8.50000000E-01  8.50000000E-01  8.50000000E-01  8.50000000E-01  8.50000000E-01
  8.50000000E-01  8.50000000E-01  8.50000000E-01  8.50000000E-01  8.50000000E-01
  8.50000000E-01  8.50000000E-01  8.50000000E-01  8.50000000E-01  8.50000000E-01
  8.50000000E-01  8.50000000E-01  8.50000000E-01  8.50000000E-01  8.50000000E-01
  8.50000000E-01  8.50000000E-01  8.50000000E-01  8.50000000E-01  8.50000000E-01
  8.50000000E-01  8.50000000E-01  8.50000000E-01  8.50000000E-01  8.50000000E-01
  8.50000000E-01  8.50000000E-01  8.50000000E-01  8.50000000E-01  8.50000000E-01
  8.50000000E-01  8.50000000E-01  8.50000000E-01  8.50000000E-01  8.50000000E-01
  8.50000000E-01  8.50000000E-01  8.50000000E-01  8.50000000E-01  8.50000000E-01
  8.50000000E-01  8.50000000E-01  8.50000000E-01  8.50000000E-01  8.50000000E-01
  8.50000000E-01  8.50000000E-01  8.50000000E-01  8.50000000E-01  8.50000000E-01
  8.50000000E-01  8.50000000E-01  8.50000000E-01  8.50000000E-01  8.50000000E-01
  8.50000000E-01  8.50000000E-01  8.50000000E-01  8.50000000E-01  8.50000000E-01
  8.50000000E-01  8.50000000E-01  8.50000000E-01  8.50000000E-01  8.50000000E-01
  8.50000000E-01  8.50000000E-01  8.50000000E-01  8.50000000E-01  8.50000000E-01
  8.50000000E-01  8.50000000E-01  8.50000000E-01  8.50000000E-01  8.50000000E-01
  8.50000000E-01  8.50000000E-01  8.50000000E-01  8.50000000E-01  8.50000000E-01
  8.50000000E-01  8.50000000E-01  8.50000000E-01  8.50000000E-01  8.50000000E-01
  8.50000000E-01  8.50000000E-01  8.50000000E-01  8.50000000E-01  8.50000000E-01
  8.50000000E-01  8.50000000E-01  8.50000000E-01  8.50000000E-01  8.50000000E-01
  8.50000000E-01  8.50000000E-01  8.50000000E-01  8.50000000E-01  8.50000000E-01
  8.50000000E-01  8.50000000E-01  8.50000000E-01  8.50000000E-01  8.50000000E-01
  8.50000000E-01  8.50000000E-01  8.50000000E-01  8.50000000E-01  8.50000000E-01
  8.50000000E-01  8.50000000E-01  8.50000000E-01  8.50000000E-01  8.50000000E-01
  8.50000000E-01  8.50000000E-01  8.50000000E-01  8.50000000E-01  8.50000000E-01
  8.50000000E-01  8.50000000E-01  8.50000000E-01  8.50000000E-01  8.50000000E-01
  8.50000000E-01  8.50000000E-01  8.50000000E-01  8.50000000E-01  8.50000000E-01
  8.50000000E-01  8.50000000E-01  8.50000000E-01  8.50000000E-01  8.50000000E-01
  8.50000000E-01  8.50000000E-01  8.50000000E-01  8.50000000E-01  8.50000000E-01
  8.50000000E-01  8.50000000E-01  8.50000000E-01  8.50000000E-01  8.50000000E-01
  8.50000000E-01  8.50000000E-01  8.50000000E-01  8.50000000E-01  8.50000000E-01
  8.50000000E-01  8.50000000E-01  8.50000000E-01  8.50000000E-01  8.50000000E-01
  8.50000000E-01  8.50000000E-01  8.50000000E-01  8.50000000E-01  8.50000000E-01
  8.50000000E-01  8.50000000E-01  8.50000000E-01  8.50000000E-01  8.50000000E-01
  8.50000000E-01  8.50000000E-01  8.50000000E-01  8.50000000E-01  8.50000000E-01
  8.50000000E-01  8.50000000E-01  8.50000000E-01  8.50000000E-01  8.50000000E-01
  8.50000000E-01  8.50000000E-01  8.50000000E-01  8.50000000E-01  8.50000000E-01
  8.50000000E-01  8.50000000E-01  8.50000000E-01  8.50000000E-01  8.50000000E-01
  8.50000000E-01  8.50000000E-01  8.50000000E-01  8.50000000E-01  8.50000000E-01
  8.50000000E-01  8.50000000E-01  8.50000000E-01  8.50000000E-01  8.50000000E-01
  8.50000000E-01  8.50000000E-01  8.50000000E-01  8.50000000E-01  8.50000000E-01
  8.50000000E-01  8.50000000E-01  8.50000000E-01  8.50000000E-01  8.50000000E-01
  8.50000000E-01  8.50000000E-01  8.50000000E-01  8.50000000E-01  8.50000000E-01
  8.50000000E-01  8.50000000E-01  8.50000000E-01  8.50000000E-01  8.50000000E-01
  8.50000000E-01  8.50000000E-01  8.50000000E-01  8.50000000E-01  8.50000000E-01
  8.50000000E-01  8.50000000E-01  8.50000000E-01  8.50000000E-01  8.50000000E-01
  8.50000000E-01  8.50000000E-01  8.50000000E-01  8.50000000E-01  8.50000000E-01
  8.50000000E-01  8.50000000E-01  8.50000000E-01  8.50000000E-01  8.50000000E-01
  8.50000000E-01  8.50000000E-01  8.50000000E-01  8.50000000E-01  8.50000000E-01
  8.50000000E-01  8.50000000E-01  8.50000000E-01  8.50000000E-01  8.50000000E-01
  8.50000000E-01  8.50000000E-01  8.50000000E-01  8.50000000E-01  8.50000000E-01
  8.50000000E-01  8.50000000E-01  8.50000000E-01  8.50000000E-01  8.50000000E-01
  8.50000000E-01  8.50000000E-01  8.50000000E-01  8.50000000E-01  8.50000000E-01
  8.50000000E-01  8.50000000E-01  8.50000000E-01  8.50000000E-01  8.50000000E-01
  8.50000000E-01  8.50000000E-01  8.50000000E-01  8.50000000E-01  8.50000000E-01
  8.50000000E-01  8.50000000E-01  8.50000000E-01  8.50000000E-01  8.50000000E-01
  8.50000000E-01  8.50000000E-01  8.50000000E-01  8.50000000E-01  8.50000000E-01
  8.50000000E-01  8.50000000E-01  8.50000000E-01  8.50000000E-01  8.50000000E-01
  8.50000000E-01  8.50000000E-01  8.50000000E-01  8.50000000E-01  8.50000000E-01
  8.50000000E-01  8.50000000E-01  8.50000000E-01  8.50000000E-01  8.50000000E-01
  8.50000000E-01  8.50000000E-01  8.50000000E-01  8.50000000E-01  8.50000000E-01
  8.50000000E-01  8.50000000E-01  8.50000000E-01  8.50000000E-01  8.50000000E-01
  8.50000000E-01  8.50000000E-01  8.50000000E-01  8.50000000E-01  8.50000000E-01
  8.50000000E-01  8.50000000E-01  8.50000000E-01  8.50000000E-01  8.50000000E-01
  8.50000000E-01  8.50000000E-01  8.50000000E-01  8.50000000E-01  8.50000000E-01
  8.50000000E-01  8.50000000E-01  8.50000000E-01  8.50000000E-01  8.50000000E-01
  8.50000000E-01  8.50000000E-01  8.50000000E-01  8.50000000E-01  8.50000000E-01
  8.50000000E-01  8.50000000E-01  8.50000000E-01  8.50000000E-01  8.50000000E-01
  8.50000000E-01  8.50000000E-01  8.50000000E-01  8.50000000E-01  8.50000000E-01
  8.50000000E-01  8.50000000E-01  8.50000000E-01  8.50000000E-01  8.50000000E-01
  8.50000000E-01  8.50000000E-01  8.50000000E-01  8.50000000E-01  8.50000000E-01
  8.50000000E-01  8.50000000E-01  8.50000000E-01  8.50000000E-01  8.50000000E-01
  8.50000000E-01  8.50000000E-01  8.50000000E-01  8.50000000E-01  8.50000000E-01
  8.50000000E-01  8.50000000E-01  8.50000000E-01  8.50000000E-01  8.50000000E-01
  8.50000000E-01  8.50000000E-01  8.50000000E-01  8.50000000E-01  8.50000000E-01
  8.50000000E-01  8.50000000E-01  8.50000000E-01  8.50000000E-01  8.50000000E-01
  8.50000000E-01  8.50000000E-01  8.50000000E-01  8.50000000E-01  8.50000000E-01
  8.50000000E-01  8.50000000E-01  8.50000000E-01  8.50000000E-01  8.50000000E-01
  8.50000000E-01  8.50000000E-01  8.50000000E-01  8.50000000E-01  8.50000000E-01
  8.50000000E-01  8.50000000E-01  8.50000000E-01  8.50000000E-01  8.50000000E-01
  8.50000000E-01  8.50000000E-01  8.50000000E-01  8.50000000E-01  8.50000000E-01
  8.50000000E-01  8.50000000E-01  8.50000000E-01  8.50000000E-01  8.50000000E-01
  8.50000000E-01  8.50000000E-01  8.50000000E-01  8.50000000E-01  8.50000000E-01
  8.50000000E-01  8.50000000E-01  8.50000000E-01  8.50000000E-01  8.50000000E-01
  8.50000000E-01  8.50000000E-01  8.50000000E-01  8.50000000E-01  8.50000000E-01
  8.50000000E-01  8.50000000E-01  8.50000000E-01  8.50000000E-01  8.50000000E-01
  8.50000000E-01  8.50000000E-01  8.50000000E-01  8.50000000E-01  8.50000000E-01
  8.50000000E-01  8.50000000E-01  8.50000000E-01  8.50000000E-01  8.50000000E-01
  8.50000000E-01  8.50000000E-01  8.50000000E-01  8.50000000E-01  8.50000000E-01
  8.50000000E-01  8.50000000E-01  8.50000000E-01  8.50000000E-01  8.50000000E-01
  8.50000000E-01  8.50000000E-01  8.50000000E-01  8.50000000E-01  8.50000000E-01
  8.50000000E-01  8.50000000E-01  8.50000000E-01  8.50000000E-01  8.50000000E-01
  8.50000000E-01  8.50000000E-01  8.50000000E-01  8.50000000E-01  8.50000000E-01
  8.50000000E-01  8.50000000E-01  8.50000000E-01  8.50000000E-01  8.50000000E-01
  8.50000000E-01  8.50000000E-01  8.50000000E-01  8.50000000E-01  8.50000000E-01
  8.50000000E-01  8.50000000E-01  8.50000000E-01  8.50000000E-01  8.50000000E-01
  8.50000000E-01  8.50000000E-01  8.50000000E-01  8.50000000E-01  8.50000000E-01
  8.50000000E-01  8.50000000E-01  8.50000000E-01  8.50000000E-01  8.50000000E-01
  8.50000000E-01  8.50000000E-01  8.50000000E-01  8.50000000E-01  8.50000000E-01
  8.50000000E-01  8.50000000E-01  8.50000000E-01  8.50000000E-01  8.50000000E-01
  8.50000000E-01  8.50000000E-01  8.50000000E-01  8.50000000E-01  8.50000000E-01
  8.50000000E-01  8.50000000E-01  8.50000000E-01  8.50000000E-01  8.50000000E-01
  8.50000000E-01  8.50000000E-01  8.50000000E-01  8.50000000E-01  8.50000000E-01
  8.50000000E-01  8.50000000E-01  8.50000000E-01  8.50000000E-01  8.50000000E-01
  8.50000000E-01  8.50000000E-01  8.50000000E-01  8.50000000E-01  8.50000000E-01
  8.50000000E-01  8.50000000E-01  8.50000000E-01  8.50000000E-01  8.50000000E-01
  8.50000000E-01  8.50000000E-01  8.50000000E-01  8.50000000E-01  8.50000000E-01
  8.50000000E-01  8.50000000E-01  8.50000000E-01  8.50000000E-01  8.50000000E-01
  8.50000000E-01  8.50000000E-01  8.50000000E-01  8.50000000E-01  8.50000000E-01
  8.50000000E-01  8.50000000E-01  8.50000000E-01  8.50000000E-01  8.50000000E-01
  8.50000000E-01  8.50000000E-01  8.50000000E-01  8.50000000E-01  8.50000000E-01
  8.50000000E-01  8.50000000E-01  8.50000000E-01  8.50000000E-01  8.50000000E-01
  8.50000000E-01  8.50000000E-01  8.50000000E-01  8.50000000E-01  8.50000000E-01
  8.50000000E-01  8.50000000E-01  8.50000000E-01  8.50000000E-01  8.50000000E-01
  8.50000000E-01  8.50000000E-01  8.50000000E-01  8.50000000E-01  8.50000000E-01
  8.50000000E-01  8.50000000E-01  8.50000000E-01  8.50000000E-01  8.50000000E-01
  8.50000000E-01  8.50000000E-01  8.50000000E-01  8.50000000E-01  8.50000000E-01
  8.50000000E-01  8.50000000E-01  8.50000000E-01  8.50000000E-01  8.50000000E-01
  8.50000000E-01  8.50000000E-01  8.50000000E-01  8.50000000E-01  8.50000000E-01
  8.50000000E-01  8.50000000E-01  8.50000000E-01  8.50000000E-01  8.50000000E-01
  8.50000000E-01  8.50000000E-01  8.50000000E-01  8.50000000E-01  8.50000000E-01
  8.50000000E-01  8.50000000E-01  8.50000000E-01  8.50000000E-01  8.50000000E-01
  8.50000000E-01  8.50000000E-01  8.50000000E-01  8.50000000E-01  8.50000000E-01
  8.50000000E-01  8.50000000E-01  8.50000000E-01  8.50000000E-01  8.50000000E-01
  8.50000000E-01  8.50000000E-01  8.50000000E-01  8.50000000E-01  8.50000000E-01
  8.50000000E-01  8.50000000E-01  8.50000000E-01  8.50000000E-01  8.50000000E-01
  8.50000000E-01  8.50000000E-01  8.50000000E-01  8.50000000E-01  8.50000000E-01
  8.50000000E-01  8.50000000E-01  8.50000000E-01  8.50000000E-01  8.50000000E-01
  8.50000000E-01  8.50000000E-01  8.50000000E-01  8.50000000E-01  8.50000000E-01
  8.50000000E-01  8.50000000E-01  8.50000000E-01  8.50000000E-01  8.50000000E-01
  8.50000000E-01  8.50000000E-01  8.50000000E-01  8.50000000E-01  8.50000000E-01
  8.50000000E-01  8.50000000E-01  8.50000000E-01  8.50000000E-01  8.50000000E-01
  8.50000000E-01  8.50000000E-01  8.50000000E-01  8.50000000E-01  8.50000000E-01
  8.50000000E-01  8.50000000E-01  8.50000000E-01  8.50000000E-01  8.50000000E-01
  8.50000000E-01  8.50000000E-01  8.50000000E-01  8.50000000E-01  8.50000000E-01
  8.50000000E-01  8.50000000E-01  8.50000000E-01  8.50000000E-01  8.50000000E-01
  8.50000000E-01  8.50000000E-01  8.50000000E-01  8.50000000E-01  8.50000000E-01
  8.50000000E-01  8.50000000E-01  8.50000000E-01  8.50000000E-01  8.50000000E-01
  8.50000000E-01  8.50000000E-01  8.50000000E-01  8.50000000E-01  8.50000000E-01
  8.50000000E-01  8.50000000E-01  8.50000000E-01  8.50000000E-01  8.50000000E-01
  8.50000000E-01  8.50000000E-01  8.50000000E-01  8.50000000E-01  8.50000000E-01
  8.50000000E-01  8.50000000E-01  8.50000000E-01  8.50000000E-01  8.50000000E-01
  8.50000000E-01  8.50000000E-01  8.50000000E-01  8.50000000E-01  8.50000000E-01
  8.50000000E-01  8.50000000E-01  8.50000000E-01  8.50000000E-01  8.50000000E-01
  8.50000000E-01  8.50000000E-01  8.50000000E-01  8.50000000E-01  8.50000000E-01
  8.50000000E-01  8.50000000E-01  8.50000000E-01  8.50000000E-01  8.50000000E-01
  8.50000000E-01  8.50000000E-01  8.50000000E-01  8.50000000E-01  8.50000000E-01
  8.50000000E-01  8.50000000E-01  8.50000000E-01  8.50000000E-01  8.50000000E-01
  8.50000000E-01  8.50000000E-01  8.50000000E-01  8.50000000E-01  8.50000000E-01
  8.50000000E-01  8.50000000E-01  8.50000000E-01  8.50000000E-01  8.50000000E-01
  8.50000000E-01  8.50000000E-01  8.50000000E-01  8.50000000E-01  8.50000000E-01
  8.50000000E-01  8.50000000E-01  8.50000000E-01  8.50000000E-01  8.50000000E-01
  8.50000000E-01  8.50000000E-01  8.50000000E-01  8.50000000E-01  8.50000000E-01
  8.50000000E-01  8.50000000E-01  8.50000000E-01  8.50000000E-01  8.50000000E-01
  8.50000000E-01  8.50000000E-01  8.50000000E-01  8.50000000E-01  8.50000000E-01
  8.50000000E-01  8.50000000E-01  8.50000000E-01  8.50000000E-01  8.50000000E-01
  8.50000000E-01  8.50000000E-01  8.50000000E-01  8.50000000E-01  8.50000000E-01
  8.50000000E-01  8.50000000E-01  8.50000000E-01  8.50000000E-01  8.50000000E-01
  8.50000000E-01  8.50000000E-01  8.50000000E-01  8.50000000E-01  8.50000000E-01
  8.50000000E-01  8.50000000E-01  8.50000000E-01  8.50000000E-01  8.50000000E-01
  8.50000000E-01  8.50000000E-01  8.50000000E-01  8.50000000E-01  8.50000000E-01
  8.50000000E-01  8.50000000E-01  8.50000000E-01  8.50000000E-01  8.50000000E-01
  8.50000000E-01  8.50000000E-01  8.50000000E-01  8.50000000E-01  8.50000000E-01
  8.50000000E-01  8.50000000E-01  8.50000000E-01  8.50000000E-01  8.50000000E-01
  8.50000000E-01  8.50000000E-01  8.50000000E-01  8.50000000E-01  8.50000000E-01
  8.50000000E-01  8.50000000E-01  8.50000000E-01  8.50000000E-01  8.50000000E-01
  8.50000000E-01  8.50000000E-01  8.50000000E-01  8.50000000E-01  8.50000000E-01
  8.50000000E-01  8.50000000E-01  8.50000000E-01  8.50000000E-01  8.50000000E-01
  8.50000000E-01  8.50000000E-01  8.50000000E-01  8.50000000E-01  8.50000000E-01
  8.50000000E-01  8.50000000E-01  8.50000000E-01  8.50000000E-01  8.50000000E-01
  8.50000000E-01  8.50000000E-01  8.50000000E-01  8.50000000E-01  8.50000000E-01
  8.50000000E-01  8.50000000E-01  8.50000000E-01  8.50000000E-01  8.50000000E-01
  8.50000000E-01  8.50000000E-01  8.50000000E-01  8.50000000E-01  8.50000000E-01
  8.50000000E-01  8.50000000E-01  8.50000000E-01  8.50000000E-01  8.50000000E-01
  8.50000000E-01  8.50000000E-01  8.50000000E-01  8.50000000E-01  8.50000000E-01
  8.50000000E-01  8.50000000E-01  8.50000000E-01  8.50000000E-01  8.50000000E-01
  8.50000000E-01  8.50000000E-01  8.50000000E-01  8.50000000E-01  8.50000000E-01
  8.50000000E-01  8.50000000E-01  8.50000000E-01  8.50000000E-01  8.50000000E-01
  8.50000000E-01  8.50000000E-01  8.50000000E-01  8.50000000E-01  8.50000000E-01
  8.50000000E-01  8.50000000E-01  8.50000000E-01  8.50000000E-01  8.50000000E-01
  8.50000000E-01  8.50000000E-01  8.50000000E-01  8.50000000E-01  8.50000000E-01
  8.50000000E-01  8.50000000E-01  8.50000000E-01  8.50000000E-01  8.50000000E-01
  8.50000000E-01  8.50000000E-01  8.50000000E-01  8.50000000E-01  8.50000000E-01
  8.50000000E-01  8.50000000E-01  8.50000000E-01  8.50000000E-01  8.50000000E-01
  8.50000000E-01  8.50000000E-01  8.50000000E-01  8.50000000E-01  8.50000000E-01
  8.50000000E-01  8.50000000E-01  8.50000000E-01  8.50000000E-01  8.50000000E-01
  8.50000000E-01  8.50000000E-01  8.50000000E-01  8.50000000E-01  8.50000000E-01
  8.50000000E-01  8.50000000E-01  8.50000000E-01  8.50000000E-01  8.50000000E-01
  8.50000000E-01  8.50000000E-01  8.50000000E-01  8.50000000E-01  8.50000000E-01
  8.50000000E-01  8.50000000E-01  8.50000000E-01  8.50000000E-01  8.50000000E-01
  8.50000000E-01  8.50000000E-01  8.50000000E-01  8.50000000E-01  8.50000000E-01
  8.50000000E-01  8.50000000E-01  8.50000000E-01  8.50000000E-01  8.50000000E-01
  8.50000000E-01  8.50000000E-01  8.50000000E-01  8.50000000E-01  8.50000000E-01
  8.50000000E-01  8.50000000E-01  8.50000000E-01  8.50000000E-01  8.50000000E-01
  8.50000000E-01  8.50000000E-01  8.50000000E-01  8.50000000E-01  8.50000000E-01
  8.50000000E-01  8.50000000E-01  8.50000000E-01  8.50000000E-01  8.50000000E-01
  8.50000000E-01  8.50000000E-01  8.50000000E-01  8.50000000E-01  8.50000000E-01
  8.50000000E-01  8.50000000E-01  8.50000000E-01  8.50000000E-01  8.50000000E-01
  8.50000000E-01  8.50000000E-01  8.50000000E-01  8.50000000E-01  8.50000000E-01
  8.50000000E-01  8.50000000E-01  8.50000000E-01  8.50000000E-01  8.50000000E-01
  8.50000000E-01  8.50000000E-01  8.50000000E-01  8.50000000E-01  8.50000000E-01
  8.50000000E-01  8.50000000E-01  8.50000000E-01  8.50000000E-01  8.50000000E-01
  8.50000000E-01  8.50000000E-01  8.50000000E-01  8.50000000E-01  8.50000000E-01
  8.50000000E-01  8.50000000E-01  8.50000000E-01  8.50000000E-01  8.50000000E-01
  8.50000000E-01  8.50000000E-01  8.50000000E-01  8.50000000E-01  8.50000000E-01
  8.50000000E-01  8.50000000E-01  8.50000000E-01  8.50000000E-01  8.50000000E-01
  8.50000000E-01  8.50000000E-01  8.50000000E-01  8.50000000E-01  8.50000000E-01
  8.50000000E-01  8.50000000E-01  8.50000000E-01  8.50000000E-01  8.50000000E-01
  8.50000000E-01  8.50000000E-01  8.50000000E-01  8.50000000E-01  8.50000000E-01
  8.50000000E-01  8.50000000E-01  8.50000000E-01  8.50000000E-01  8.50000000E-01
  8.50000000E-01  8.50000000E-01  8.50000000E-01  8.50000000E-01  8.50000000E-01
  8.50000000E-01  8.50000000E-01  8.50000000E-01  8.50000000E-01  8.50000000E-01
  8.50000000E-01  8.50000000E-01  8.50000000E-01  8.50000000E-01  8.50000000E-01
  8.50000000E-01  8.50000000E-01  8.50000000E-01  8.50000000E-01  8.50000000E-01
  8.50000000E-01  8.50000000E-01  8.50000000E-01  8.50000000E-01  8.50000000E-01
  8.50000000E-01  8.50000000E-01  8.50000000E-01  8.50000000E-01  8.50000000E-01
  8.50000000E-01  8.50000000E-01  8.50000000E-01  8.50000000E-01  8.50000000E-01
  8.50000000E-01  8.50000000E-01  8.50000000E-01  8.50000000E-01  8.50000000E-01
  8.50000000E-01  8.50000000E-01  8.50000000E-01  8.50000000E-01  8.50000000E-01
  8.50000000E-01  8.50000000E-01  8.50000000E-01  8.50000000E-01  8.50000000E-01
  8.50000000E-01  8.50000000E-01  8.50000000E-01  8.50000000E-01  8.50000000E-01
  8.50000000E-01  8.50000000E-01  8.50000000E-01  8.50000000E-01  8.50000000E-01
  8.50000000E-01  8.50000000E-01  8.50000000E-01  8.50000000E-01  8.50000000E-01
  8.50000000E-01  8.50000000E-01  8.50000000E-01  8.50000000E-01  8.50000000E-01
  8.50000000E-01  8.50000000E-01  8.50000000E-01  8.50000000E-01  8.50000000E-01
  8.50000000E-01  8.50000000E-01  8.50000000E-01  8.50000000E-01  8.50000000E-01
  8.50000000E-01  8.50000000E-01  8.50000000E-01  8.50000000E-01  8.50000000E-01
  8.50000000E-01  8.50000000E-01  8.50000000E-01  8.50000000E-01  8.50000000E-01
  8.50000000E-01  8.50000000E-01  8.50000000E-01  8.50000000E-01  8.50000000E-01
  8.50000000E-01  8.50000000E-01  8.50000000E-01  8.50000000E-01  8.50000000E-01
  8.50000000E-01  8.50000000E-01  8.50000000E-01  8.50000000E-01  8.50000000E-01
  8.50000000E-01  8.50000000E-01  8.50000000E-01  8.50000000E-01  8.50000000E-01
  8.50000000E-01  8.50000000E-01  8.50000000E-01  8.50000000E-01  8.50000000E-01
  8.50000000E-01  8.50000000E-01  8.50000000E-01  8.50000000E-01  8.50000000E-01
  8.50000000E-01  8.50000000E-01  8.50000000E-01  8.50000000E-01  8.50000000E-01
  8.50000000E-01  8.50000000E-01  8.50000000E-01  8.50000000E-01  8.50000000E-01
  8.50000000E-01  8.50000000E-01  8.50000000E-01  8.50000000E-01  8.50000000E-01
  8.50000000E-01  8.50000000E-01  8.50000000E-01  8.50000000E-01  8.50000000E-01
  8.50000000E-01  8.50000000E-01  8.50000000E-01  8.50000000E-01  8.50000000E-01
  8.50000000E-01  8.50000000E-01  8.50000000E-01  8.50000000E-01  8.50000000E-01
  8.50000000E-01  8.50000000E-01  8.50000000E-01  8.50000000E-01  8.50000000E-01
  8.50000000E-01  8.50000000E-01  8.50000000E-01  8.50000000E-01  8.50000000E-01
  8.50000000E-01  8.50000000E-01  8.50000000E-01  8.50000000E-01  8.50000000E-01
  8.50000000E-01  8.50000000E-01  8.50000000E-01  8.50000000E-01  8.50000000E-01
  8.50000000E-01  8.50000000E-01  8.50000000E-01  8.50000000E-01  8.50000000E-01
  8.50000000E-01  8.50000000E-01  8.50000000E-01  8.50000000E-01  8.50000000E-01
  8.50000000E-01  8.50000000E-01  8.50000000E-01  8.50000000E-01  8.50000000E-01
  8.50000000E-01  8.50000000E-01  8.50000000E-01  8.50000000E-01  8.50000000E-01
  8.50000000E-01  8.50000000E-01  8.50000000E-01  8.50000000E-01  8.50000000E-01
  8.50000000E-01  8.50000000E-01  8.50000000E-01  8.50000000E-01  8.50000000E-01
  8.50000000E-01  8.50000000E-01  8.50000000E-01  8.50000000E-01  8.50000000E-01
  8.50000000E-01  8.50000000E-01  8.50000000E-01  8.50000000E-01  8.50000000E-01
  8.50000000E-01  8.50000000E-01  8.50000000E-01  8.50000000E-01  8.50000000E-01
  8.50000000E-01  8.50000000E-01  8.50000000E-01  8.50000000E-01  8.50000000E-01
  8.50000000E-01  8.50000000E-01  8.50000000E-01  8.50000000E-01  8.50000000E-01
  8.50000000E-01  8.50000000E-01  8.50000000E-01  8.50000000E-01  8.50000000E-01
  8.50000000E-01  8.50000000E-01  8.50000000E-01  8.50000000E-01  8.50000000E-01
  8.50000000E-01  8.50000000E-01  8.50000000E-01  8.50000000E-01  8.50000000E-01
  8.50000000E-01  8.50000000E-01  8.50000000E-01  8.50000000E-01  8.50000000E-01
  8.50000000E-01  8.50000000E-01  8.50000000E-01  8.50000000E-01  8.50000000E-01
  8.50000000E-01  8.50000000E-01  8.50000000E-01  8.50000000E-01  8.50000000E-01
  8.50000000E-01  8.50000000E-01  8.50000000E-01  8.50000000E-01  8.50000000E-01
  8.50000000E-01  8.50000000E-01  8.50000000E-01  8.50000000E-01  8.50000000E-01
  8.50000000E-01  8.50000000E-01  8.50000000E-01  8.50000000E-01  8.50000000E-01
  8.50000000E-01  8.50000000E-01  8.50000000E-01  8.50000000E-01  8.50000000E-01
  8.50000000E-01  8.50000000E-01  8.50000000E-01  8.50000000E-01  8.50000000E-01
  8.50000000E-01  8.50000000E-01  8.50000000E-01  8.50000000E-01  8.50000000E-01
  8.50000000E-01  8.50000000E-01  8.50000000E-01  8.50000000E-01  8.50000000E-01
  8.50000000E-01  8.50000000E-01  8.50000000E-01  8.50000000E-01  8.50000000E-01
  8.50000000E-01  8.50000000E-01  8.50000000E-01  8.50000000E-01  8.50000000E-01
  8.50000000E-01  8.50000000E-01  8.50000000E-01  8.50000000E-01  8.50000000E-01
  8.50000000E-01  8.50000000E-01  8.50000000E-01  8.50000000E-01  8.50000000E-01
  8.50000000E-01  8.50000000E-01  8.50000000E-01  8.50000000E-01  8.50000000E-01
  8.50000000E-01  8.50000000E-01  8.50000000E-01  8.50000000E-01  8.50000000E-01
  8.50000000E-01  8.50000000E-01  8.50000000E-01  8.50000000E-01  8.50000000E-01
  8.50000000E-01  8.50000000E-01  8.50000000E-01  8.50000000E-01  8.50000000E-01
  8.50000000E-01  8.50000000E-01  8.50000000E-01  8.50000000E-01  8.50000000E-01
  8.50000000E-01  8.50000000E-01  8.50000000E-01  8.50000000E-01  8.50000000E-01
  8.50000000E-01  8.50000000E-01  8.50000000E-01  8.50000000E-01  8.50000000E-01
  8.50000000E-01  8.50000000E-01  8.50000000E-01  8.50000000E-01  8.50000000E-01
  8.50000000E-01  8.50000000E-01  8.50000000E-01  8.50000000E-01  8.50000000E-01
  8.50000000E-01  8.50000000E-01  8.50000000E-01  8.50000000E-01  8.50000000E-01
  8.50000000E-01  8.50000000E-01  8.50000000E-01  8.50000000E-01  8.50000000E-01
  8.50000000E-01  8.50000000E-01  8.50000000E-01  8.50000000E-01  8.50000000E-01
  8.50000000E-01  8.50000000E-01  8.50000000E-01  8.50000000E-01  8.50000000E-01
  8.50000000E-01  8.50000000E-01  8.50000000E-01  8.50000000E-01  8.50000000E-01
  8.50000000E-01  8.50000000E-01  8.50000000E-01  8.50000000E-01  8.50000000E-01
  8.50000000E-01  8.50000000E-01  8.50000000E-01  8.50000000E-01  8.50000000E-01
  8.50000000E-01  8.50000000E-01  8.50000000E-01  8.50000000E-01  8.50000000E-01
  8.50000000E-01  8.50000000E-01  8.50000000E-01  8.50000000E-01  8.50000000E-01
  8.50000000E-01  8.50000000E-01  8.50000000E-01  8.50000000E-01  8.50000000E-01
  8.50000000E-01  8.50000000E-01  8.50000000E-01  8.50000000E-01  8.50000000E-01
  8.50000000E-01  8.50000000E-01  8.50000000E-01  8.50000000E-01  8.50000000E-01
  8.50000000E-01  8.50000000E-01  8.50000000E-01  8.50000000E-01  8.50000000E-01
  8.50000000E-01  8.50000000E-01  8.50000000E-01  8.50000000E-01  8.50000000E-01
  8.50000000E-01  8.50000000E-01  8.50000000E-01  8.50000000E-01  8.50000000E-01
  8.50000000E-01  8.50000000E-01  8.50000000E-01  8.50000000E-01  8.50000000E-01
  8.50000000E-01  8.50000000E-01  8.50000000E-01  8.50000000E-01  8.50000000E-01
  8.50000000E-01  8.50000000E-01  8.50000000E-01  8.50000000E-01  8.50000000E-01
  8.50000000E-01  8.50000000E-01  8.50000000E-01  8.50000000E-01  8.50000000E-01
  8.50000000E-01  8.50000000E-01  8.50000000E-01  8.50000000E-01  8.50000000E-01
  8.50000000E-01  8.50000000E-01  8.50000000E-01  8.50000000E-01  8.50000000E-01
  8.50000000E-01  8.50000000E-01  8.50000000E-01  8.50000000E-01  8.50000000E-01
  8.50000000E-01  8.50000000E-01  8.50000000E-01  8.50000000E-01  8.50000000E-01
  8.50000000E-01  8.50000000E-01  8.50000000E-01  8.50000000E-01  8.50000000E-01
  8.50000000E-01  8.50000000E-01  8.50000000E-01  8.50000000E-01  8.50000000E-01
  8.50000000E-01  8.50000000E-01  8.50000000E-01  8.50000000E-01  8.50000000E-01
  8.50000000E-01  8.50000000E-01  8.50000000E-01  8.50000000E-01  8.50000000E-01
  8.50000000E-01  8.50000000E-01  8.50000000E-01  8.50000000E-01  8.50000000E-01
  8.50000000E-01  8.50000000E-01  8.50000000E-01  8.50000000E-01  8.50000000E-01
  8.50000000E-01  8.50000000E-01  8.50000000E-01  8.50000000E-01  8.50000000E-01
  8.50000000E-01  8.50000000E-01  8.50000000E-01  8.50000000E-01  8.50000000E-01
  8.50000000E-01  8.50000000E-01  8.50000000E-01  8.50000000E-01  8.50000000E-01
  8.50000000E-01  8.50000000E-01  8.50000000E-01  8.50000000E-01  8.50000000E-01
  8.50000000E-01  8.50000000E-01  8.50000000E-01  8.50000000E-01  8.50000000E-01
  8.50000000E-01  8.50000000E-01  8.50000000E-01  8.50000000E-01  8.50000000E-01
  8.50000000E-01  8.50000000E-01  8.50000000E-01  8.50000000E-01  8.50000000E-01
  8.50000000E-01  8.50000000E-01  8.50000000E-01  8.50000000E-01  8.50000000E-01
  8.50000000E-01  8.50000000E-01  8.50000000E-01  8.50000000E-01  8.50000000E-01
  8.50000000E-01  8.50000000E-01  8.50000000E-01  8.50000000E-01  8.50000000E-01
  8.50000000E-01  8.50000000E-01  8.50000000E-01  8.50000000E-01  8.50000000E-01
  8.50000000E-01  8.50000000E-01  8.50000000E-01  8.50000000E-01  8.50000000E-01
  8.50000000E-01  8.50000000E-01  8.50000000E-01  8.50000000E-01  8.50000000E-01
  8.50000000E-01  8.50000000E-01  8.50000000E-01  8.50000000E-01  8.50000000E-01
  8.50000000E-01  8.50000000E-01  8.50000000E-01  8.50000000E-01  8.50000000E-01
  8.50000000E-01  8.50000000E-01  8.50000000E-01  8.50000000E-01  8.50000000E-01
  8.50000000E-01  8.50000000E-01  8.50000000E-01  8.50000000E-01  8.50000000E-01
  8.50000000E-01  8.50000000E-01  8.50000000E-01  8.50000000E-01  8.50000000E-01
  8.50000000E-01  8.50000000E-01  8.50000000E-01  8.50000000E-01  8.50000000E-01
  8.50000000E-01  8.50000000E-01  8.50000000E-01  8.50000000E-01  8.50000000E-01
  8.50000000E-01  8.50000000E-01  8.50000000E-01  8.50000000E-01  8.50000000E-01
  8.50000000E-01  8.50000000E-01  8.50000000E-01  8.50000000E-01  8.50000000E-01
  8.50000000E-01  8.50000000E-01  8.50000000E-01  8.50000000E-01  8.50000000E-01
  8.50000000E-01  8.50000000E-01  8.50000000E-01  8.50000000E-01  8.50000000E-01
  8.50000000E-01  8.50000000E-01  8.50000000E-01  8.50000000E-01  8.50000000E-01
  8.50000000E-01  8.50000000E-01  8.50000000E-01  8.50000000E-01  8.50000000E-01
  8.50000000E-01  8.50000000E-01  8.50000000E-01  8.50000000E-01  8.50000000E-01
  8.50000000E-01  8.50000000E-01  8.50000000E-01  8.50000000E-01  8.50000000E-01
  8.50000000E-01  8.50000000E-01  8.50000000E-01  8.50000000E-01  8.50000000E-01
  8.50000000E-01  8.50000000E-01  8.50000000E-01  8.50000000E-01  8.50000000E-01
  8.50000000E-01  8.50000000E-01  8.50000000E-01  8.50000000E-01  8.50000000E-01
  8.50000000E-01  8.50000000E-01  8.50000000E-01  8.50000000E-01  8.50000000E-01
  8.50000000E-01  8.50000000E-01  8.50000000E-01  8.50000000E-01  8.50000000E-01
  8.50000000E-01  8.50000000E-01  8.50000000E-01  8.50000000E-01  8.50000000E-01
  8.50000000E-01  8.50000000E-01  8.50000000E-01  8.50000000E-01  8.50000000E-01
  8.50000000E-01  8.50000000E-01  8.50000000E-01  8.50000000E-01  8.50000000E-01
  8.50000000E-01  8.50000000E-01  8.50000000E-01  8.50000000E-01  8.50000000E-01
  8.50000000E-01  8.50000000E-01  8.50000000E-01  8.50000000E-01  8.50000000E-01
  8.50000000E-01  8.50000000E-01  8.50000000E-01  8.50000000E-01  8.50000000E-01
  8.50000000E-01  8.50000000E-01  8.50000000E-01  8.50000000E-01  8.50000000E-01
  8.50000000E-01  8.50000000E-01  8.50000000E-01  8.50000000E-01  8.50000000E-01
  8.50000000E-01  8.50000000E-01  8.50000000E-01  8.50000000E-01  8.50000000E-01
  8.50000000E-01  8.50000000E-01  8.50000000E-01  8.50000000E-01  8.50000000E-01
  8.50000000E-01  8.50000000E-01  8.50000000E-01  8.50000000E-01  8.50000000E-01
  8.50000000E-01  8.50000000E-01  8.50000000E-01  8.50000000E-01  8.50000000E-01
  8.50000000E-01  8.50000000E-01  8.50000000E-01  8.50000000E-01  8.50000000E-01
  8.50000000E-01  8.50000000E-01  8.50000000E-01  8.50000000E-01  8.50000000E-01
  8.50000000E-01  8.50000000E-01  8.50000000E-01  8.50000000E-01  8.50000000E-01
  8.50000000E-01  8.50000000E-01  8.50000000E-01  8.50000000E-01  8.50000000E-01
  8.50000000E-01  8.50000000E-01  8.50000000E-01  8.50000000E-01  8.50000000E-01
  8.50000000E-01  8.50000000E-01  8.50000000E-01  8.50000000E-01  8.50000000E-01
  8.50000000E-01  8.50000000E-01  8.50000000E-01  8.50000000E-01  8.50000000E-01
  8.50000000E-01  8.50000000E-01  8.50000000E-01  8.50000000E-01  8.50000000E-01
  8.50000000E-01  8.50000000E-01  8.50000000E-01  8.50000000E-01  8.50000000E-01
  8.50000000E-01  8.50000000E-01  8.50000000E-01  8.50000000E-01  8.50000000E-01
  8.50000000E-01  8.50000000E-01  8.50000000E-01  8.50000000E-01  8.50000000E-01
  8.50000000E-01  8.50000000E-01  8.50000000E-01  8.50000000E-01  8.50000000E-01
  8.50000000E-01  8.50000000E-01  8.50000000E-01  8.50000000E-01  8.50000000E-01
  8.50000000E-01  8.50000000E-01  8.50000000E-01  8.50000000E-01  8.50000000E-01
  8.50000000E-01  8.50000000E-01  8.50000000E-01  8.50000000E-01  8.50000000E-01
  8.50000000E-01  8.50000000E-01  8.50000000E-01  8.50000000E-01  8.50000000E-01
  8.50000000E-01  8.50000000E-01  8.50000000E-01  8.50000000E-01  8.50000000E-01
  8.50000000E-01  8.50000000E-01  8.50000000E-01  8.50000000E-01  8.50000000E-01
  8.50000000E-01  8.50000000E-01  8.50000000E-01  8.50000000E-01  8.50000000E-01
  8.50000000E-01  8.50000000E-01  8.50000000E-01  8.50000000E-01  8.50000000E-01
  8.50000000E-01  8.50000000E-01  8.50000000E-01  8.50000000E-01  8.50000000E-01
  8.50000000E-01  8.50000000E-01  8.50000000E-01  8.50000000E-01  8.50000000E-01
  8.50000000E-01  8.50000000E-01  8.50000000E-01  8.50000000E-01  8.50000000E-01
  8.50000000E-01  8.50000000E-01  8.50000000E-01  8.50000000E-01  8.50000000E-01
  8.50000000E-01  8.50000000E-01  8.50000000E-01  8.50000000E-01  8.50000000E-01
  8.50000000E-01  8.50000000E-01  8.50000000E-01  8.50000000E-01  8.50000000E-01
  8.50000000E-01  8.50000000E-01  8.50000000E-01  8.50000000E-01  8.50000000E-01
  8.50000000E-01  8.50000000E-01  8.50000000E-01  8.50000000E-01  8.50000000E-01
  8.50000000E-01  8.50000000E-01  8.50000000E-01  8.50000000E-01  8.50000000E-01
  8.50000000E-01  8.50000000E-01  8.50000000E-01  8.50000000E-01  8.50000000E-01
  8.50000000E-01  8.50000000E-01  8.50000000E-01  8.50000000E-01  8.50000000E-01
  8.50000000E-01  8.50000000E-01  8.50000000E-01  8.50000000E-01  8.50000000E-01
  8.50000000E-01  8.50000000E-01  8.50000000E-01  8.50000000E-01  8.50000000E-01
  8.50000000E-01  8.50000000E-01  8.50000000E-01  8.50000000E-01  8.50000000E-01
  8.50000000E-01  8.50000000E-01  8.50000000E-01  8.50000000E-01  8.50000000E-01
  8.50000000E-01  8.50000000E-01  8.50000000E-01  8.50000000E-01  8.50000000E-01
  8.50000000E-01  8.50000000E-01  8.50000000E-01  8.50000000E-01  8.50000000E-01
  8.50000000E-01  8.50000000E-01  8.50000000E-01  8.50000000E-01  8.50000000E-01
  8.50000000E-01  8.50000000E-01  8.50000000E-01  8.50000000E-01  8.50000000E-01
  8.50000000E-01  8.50000000E-01  8.50000000E-01  8.50000000E-01  8.50000000E-01
  8.50000000E-01  8.50000000E-01  8.50000000E-01  8.50000000E-01  8.50000000E-01
  8.50000000E-01  8.50000000E-01  8.50000000E-01  8.50000000E-01  8.50000000E-01
  8.50000000E-01  8.50000000E-01  8.50000000E-01  8.50000000E-01  8.50000000E-01
  8.50000000E-01  8.50000000E-01  8.50000000E-01  8.50000000E-01  8.50000000E-01
  8.50000000E-01  8.50000000E-01  8.50000000E-01  8.50000000E-01  8.50000000E-01
  8.50000000E-01  8.50000000E-01  8.50000000E-01  8.50000000E-01  8.50000000E-01
  8.50000000E-01  8.50000000E-01  8.50000000E-01  8.50000000E-01  8.50000000E-01
  8.50000000E-01  8.50000000E-01  8.50000000E-01  8.50000000E-01  8.50000000E-01
  8.50000000E-01  8.50000000E-01  8.50000000E-01  8.50000000E-01  8.50000000E-01
  8.50000000E-01  8.50000000E-01  8.50000000E-01  8.50000000E-01  8.50000000E-01
  8.50000000E-01  8.50000000E-01  8.50000000E-01  8.50000000E-01  8.50000000E-01
  8.50000000E-01  8.50000000E-01  8.50000000E-01  8.50000000E-01  8.50000000E-01
  8.50000000E-01  8.50000000E-01  8.50000000E-01  8.50000000E-01  8.50000000E-01
  8.50000000E-01  8.50000000E-01  8.50000000E-01  8.50000000E-01  8.50000000E-01
  8.50000000E-01  8.50000000E-01  8.50000000E-01  8.50000000E-01  8.50000000E-01
  8.50000000E-01  8.50000000E-01  8.50000000E-01  8.50000000E-01  8.50000000E-01
  8.50000000E-01  8.50000000E-01  8.50000000E-01  8.50000000E-01  8.50000000E-01
  8.50000000E-01  8.50000000E-01  8.50000000E-01  8.50000000E-01  8.50000000E-01
  8.50000000E-01  8.50000000E-01  8.50000000E-01  8.50000000E-01  8.50000000E-01
  8.50000000E-01  8.50000000E-01  8.50000000E-01  8.50000000E-01  8.50000000E-01
  8.50000000E-01  8.50000000E-01  8.50000000E-01  8.50000000E-01  8.50000000E-01
  8.50000000E-01  8.50000000E-01  8.50000000E-01  8.50000000E-01  8.50000000E-01
  8.50000000E-01  8.50000000E-01  8.50000000E-01  8.50000000E-01  8.50000000E-01
  8.50000000E-01  8.50000000E-01  8.50000000E-01  8.50000000E-01  8.50000000E-01
  8.50000000E-01  8.50000000E-01  8.50000000E-01  8.50000000E-01  8.50000000E-01
  8.50000000E-01  8.50000000E-01  8.50000000E-01  8.50000000E-01  8.50000000E-01
  8.50000000E-01  8.50000000E-01  8.50000000E-01  8.50000000E-01  8.50000000E-01
  8.50000000E-01  8.50000000E-01  8.50000000E-01  8.50000000E-01  8.50000000E-01
  8.50000000E-01  8.50000000E-01  8.50000000E-01  8.50000000E-01  8.50000000E-01
  8.50000000E-01  8.50000000E-01  8.50000000E-01  8.50000000E-01  8.50000000E-01
  8.50000000E-01  8.50000000E-01  8.50000000E-01  8.50000000E-01  8.50000000E-01
  8.50000000E-01  8.50000000E-01  8.50000000E-01  8.50000000E-01  8.50000000E-01
  8.50000000E-01  8.50000000E-01  8.50000000E-01  8.50000000E-01  8.50000000E-01
  8.50000000E-01  8.50000000E-01  8.50000000E-01  8.50000000E-01  8.50000000E-01
  8.50000000E-01  8.50000000E-01  8.50000000E-01  8.50000000E-01  8.50000000E-01
  8.50000000E-01  8.50000000E-01  8.50000000E-01  8.50000000E-01  8.50000000E-01
  8.50000000E-01  8.50000000E-01  8.50000000E-01  8.50000000E-01  8.50000000E-01
  8.50000000E-01  8.50000000E-01  8.50000000E-01  8.50000000E-01  8.50000000E-01
  8.50000000E-01  8.50000000E-01  8.50000000E-01  8.50000000E-01  8.50000000E-01
  8.50000000E-01  8.50000000E-01  8.50000000E-01  8.50000000E-01  8.50000000E-01
  8.50000000E-01  8.50000000E-01  8.50000000E-01  8.50000000E-01  8.50000000E-01
  8.50000000E-01  8.50000000E-01  8.50000000E-01  8.50000000E-01  8.50000000E-01
  8.50000000E-01  8.50000000E-01  8.50000000E-01  8.50000000E-01  8.50000000E-01
  8.50000000E-01  8.50000000E-01  8.50000000E-01  8.50000000E-01  8.50000000E-01
  8.50000000E-01  8.50000000E-01  8.50000000E-01  8.50000000E-01  8.50000000E-01
  8.50000000E-01  8.50000000E-01  8.50000000E-01  8.50000000E-01  8.50000000E-01
  8.50000000E-01  8.50000000E-01  8.50000000E-01  8.50000000E-01  8.50000000E-01
  8.50000000E-01  8.50000000E-01  8.50000000E-01  8.50000000E-01  8.50000000E-01
  8.50000000E-01  8.50000000E-01  8.50000000E-01  8.50000000E-01  8.50000000E-01
  8.50000000E-01  8.50000000E-01  8.50000000E-01  8.50000000E-01  8.50000000E-01
  8.50000000E-01  8.50000000E-01  8.50000000E-01  8.50000000E-01  8.50000000E-01
  8.50000000E-01  8.50000000E-01  8.50000000E-01  8.50000000E-01  8.50000000E-01
  8.50000000E-01  8.50000000E-01  8.50000000E-01  8.50000000E-01  8.50000000E-01
  8.50000000E-01  8.50000000E-01  8.50000000E-01  8.50000000E-01  8.50000000E-01
  8.50000000E-01  8.50000000E-01  8.50000000E-01  8.50000000E-01  8.50000000E-01
  8.50000000E-01  8.50000000E-01  8.50000000E-01  8.50000000E-01  8.50000000E-01
  8.50000000E-01  8.50000000E-01  8.50000000E-01  8.50000000E-01  8.50000000E-01
  8.50000000E-01  8.50000000E-01  8.50000000E-01  8.50000000E-01  8.50000000E-01
  8.50000000E-01  8.50000000E-01  8.50000000E-01  8.50000000E-01  8.50000000E-01
  8.50000000E-01  8.50000000E-01  8.50000000E-01  8.50000000E-01  8.50000000E-01
  8.50000000E-01  8.50000000E-01  8.50000000E-01  8.50000000E-01  8.50000000E-01
  8.50000000E-01  8.50000000E-01  8.50000000E-01  8.50000000E-01  8.50000000E-01
  8.50000000E-01  8.50000000E-01  8.50000000E-01  8.50000000E-01  8.50000000E-01
  8.50000000E-01  8.50000000E-01  8.50000000E-01  8.50000000E-01  8.50000000E-01
  8.50000000E-01  8.50000000E-01  8.50000000E-01  8.50000000E-01  8.50000000E-01
  8.50000000E-01  8.50000000E-01  8.50000000E-01  8.50000000E-01  8.50000000E-01
  8.50000000E-01  8.50000000E-01  8.50000000E-01  8.50000000E-01  8.50000000E-01
  8.50000000E-01  8.50000000E-01  8.50000000E-01  8.50000000E-01  8.50000000E-01
  8.50000000E-01  8.50000000E-01  8.50000000E-01  8.50000000E-01  8.50000000E-01
  8.50000000E-01  8.50000000E-01  8.50000000E-01  8.50000000E-01  8.50000000E-01
  8.50000000E-01  8.50000000E-01  8.50000000E-01  8.50000000E-01  8.50000000E-01
  8.50000000E-01  8.50000000E-01  8.50000000E-01  8.50000000E-01  8.50000000E-01
  8.50000000E-01  8.50000000E-01  8.50000000E-01  8.50000000E-01  8.50000000E-01
  8.50000000E-01  8.50000000E-01  8.50000000E-01  8.50000000E-01  8.50000000E-01
  8.50000000E-01  8.50000000E-01  8.50000000E-01  8.50000000E-01  8.50000000E-01
  8.50000000E-01  8.50000000E-01  8.50000000E-01  8.50000000E-01  8.50000000E-01
  8.50000000E-01  8.50000000E-01  8.50000000E-01  8.50000000E-01  8.50000000E-01
  8.50000000E-01  8.50000000E-01  8.50000000E-01  8.50000000E-01  8.50000000E-01
  8.50000000E-01  8.50000000E-01  8.50000000E-01  8.50000000E-01  8.50000000E-01
  8.50000000E-01  8.50000000E-01  8.50000000E-01  8.50000000E-01  8.50000000E-01
  8.50000000E-01  8.50000000E-01  8.50000000E-01  8.50000000E-01  8.50000000E-01
  8.50000000E-01  8.50000000E-01  8.50000000E-01  8.50000000E-01  8.50000000E-01
  8.50000000E-01  8.50000000E-01  8.50000000E-01  8.50000000E-01  8.50000000E-01
  8.50000000E-01  8.50000000E-01  8.50000000E-01  8.50000000E-01  8.50000000E-01
  8.50000000E-01  8.50000000E-01  8.50000000E-01  8.50000000E-01  8.50000000E-01
  8.50000000E-01  8.50000000E-01  8.50000000E-01  8.50000000E-01  8.50000000E-01
  8.50000000E-01  8.50000000E-01  8.50000000E-01  8.50000000E-01  8.50000000E-01
  8.50000000E-01  8.50000000E-01  8.50000000E-01  8.50000000E-01  8.50000000E-01
  8.50000000E-01  8.50000000E-01  8.50000000E-01  8.50000000E-01  8.50000000E-01
  8.50000000E-01  8.50000000E-01  8.50000000E-01  8.50000000E-01  8.50000000E-01
  8.50000000E-01  8.50000000E-01  8.50000000E-01  8.50000000E-01  8.50000000E-01
  8.50000000E-01  8.50000000E-01  8.50000000E-01  8.50000000E-01  8.50000000E-01
  8.50000000E-01  8.50000000E-01  8.50000000E-01  8.50000000E-01  8.50000000E-01
  8.50000000E-01  8.50000000E-01  8.50000000E-01  8.50000000E-01  8.50000000E-01
  8.50000000E-01  8.50000000E-01  8.50000000E-01  8.50000000E-01  8.50000000E-01
  8.50000000E-01  8.50000000E-01  8.50000000E-01  8.50000000E-01  8.50000000E-01
  8.50000000E-01  8.50000000E-01  8.50000000E-01  8.50000000E-01  8.50000000E-01
  8.50000000E-01  8.50000000E-01  8.50000000E-01  8.50000000E-01  8.50000000E-01
  8.50000000E-01  8.50000000E-01  8.50000000E-01  8.50000000E-01  8.50000000E-01
  8.50000000E-01  8.50000000E-01  8.50000000E-01  8.50000000E-01  8.50000000E-01
  8.50000000E-01  8.50000000E-01  8.50000000E-01  8.50000000E-01  8.50000000E-01
  8.50000000E-01  8.50000000E-01  8.50000000E-01  8.50000000E-01  8.50000000E-01
  8.50000000E-01  8.50000000E-01  8.50000000E-01  8.50000000E-01  8.50000000E-01
  8.50000000E-01  8.50000000E-01  8.50000000E-01  8.50000000E-01  8.50000000E-01
  8.50000000E-01  8.50000000E-01  8.50000000E-01  8.50000000E-01  8.50000000E-01
  8.50000000E-01  8.50000000E-01  8.50000000E-01  8.50000000E-01  8.50000000E-01
  8.50000000E-01  8.50000000E-01  8.50000000E-01  8.50000000E-01  8.50000000E-01
  8.50000000E-01  8.50000000E-01  8.50000000E-01  8.50000000E-01  8.50000000E-01
  8.50000000E-01  8.50000000E-01  8.50000000E-01  8.50000000E-01  8.50000000E-01
  8.50000000E-01  8.50000000E-01  8.50000000E-01  8.50000000E-01  8.50000000E-01
  8.50000000E-01  8.50000000E-01  8.50000000E-01  8.50000000E-01  8.50000000E-01
  8.50000000E-01  8.50000000E-01  8.50000000E-01  8.50000000E-01  8.50000000E-01
  8.50000000E-01  8.50000000E-01  8.50000000E-01  8.50000000E-01  8.50000000E-01
  8.50000000E-01  8.50000000E-01  8.50000000E-01  8.50000000E-01  8.50000000E-01
  8.50000000E-01  8.50000000E-01  8.50000000E-01  8.50000000E-01  8.50000000E-01
  8.50000000E-01  8.50000000E-01  8.50000000E-01  8.50000000E-01  8.50000000E-01
  8.50000000E-01  8.50000000E-01  8.50000000E-01  8.50000000E-01  8.50000000E-01
  8.50000000E-01  8.50000000E-01  8.50000000E-01  8.50000000E-01  8.50000000E-01
  8.50000000E-01  8.50000000E-01  8.50000000E-01  8.50000000E-01  8.50000000E-01
  8.50000000E-01  8.50000000E-01  8.50000000E-01  8.50000000E-01  8.50000000E-01
  8.50000000E-01  8.50000000E-01  8.50000000E-01  8.50000000E-01  8.50000000E-01
  8.50000000E-01  8.50000000E-01  8.50000000E-01  8.50000000E-01  8.50000000E-01
  8.50000000E-01  8.50000000E-01  8.50000000E-01  8.50000000E-01  8.50000000E-01
  8.50000000E-01  8.50000000E-01  8.50000000E-01  8.50000000E-01  8.50000000E-01
  8.50000000E-01  8.50000000E-01  8.50000000E-01  8.50000000E-01  8.50000000E-01
  8.50000000E-01  8.50000000E-01  8.50000000E-01  8.50000000E-01  8.50000000E-01
  8.50000000E-01  8.50000000E-01  8.50000000E-01  8.50000000E-01  8.50000000E-01
  8.50000000E-01  8.50000000E-01  8.50000000E-01  8.50000000E-01  8.50000000E-01
  8.50000000E-01  8.50000000E-01  8.50000000E-01  8.50000000E-01  8.50000000E-01
  8.50000000E-01  8.50000000E-01  8.50000000E-01  8.50000000E-01  8.50000000E-01
  8.50000000E-01  8.50000000E-01  8.50000000E-01  8.50000000E-01  8.50000000E-01
  8.50000000E-01  8.50000000E-01  8.50000000E-01  8.50000000E-01  8.50000000E-01
  8.50000000E-01  8.50000000E-01  8.50000000E-01  8.50000000E-01  8.50000000E-01
  8.50000000E-01  8.50000000E-01  8.50000000E-01  8.50000000E-01  8.50000000E-01
  8.50000000E-01  8.50000000E-01  8.50000000E-01  8.50000000E-01  8.50000000E-01
  8.50000000E-01  8.50000000E-01  8.50000000E-01  8.50000000E-01  8.50000000E-01
  8.50000000E-01  8.50000000E-01  8.50000000E-01  8.50000000E-01  8.50000000E-01
  8.50000000E-01  8.50000000E-01  8.50000000E-01  8.50000000E-01  8.50000000E-01
  8.50000000E-01  8.50000000E-01  8.50000000E-01  8.50000000E-01  8.50000000E-01
  8.50000000E-01  8.50000000E-01  8.50000000E-01  8.50000000E-01  8.50000000E-01
  8.50000000E-01  8.50000000E-01  8.50000000E-01  8.50000000E-01  8.50000000E-01
  8.50000000E-01  8.50000000E-01  8.50000000E-01  8.50000000E-01  8.50000000E-01
  8.50000000E-01  8.50000000E-01  8.50000000E-01  8.50000000E-01  8.50000000E-01
  8.50000000E-01  8.50000000E-01  8.50000000E-01  8.50000000E-01  8.50000000E-01
  8.50000000E-01  8.50000000E-01  8.50000000E-01  8.50000000E-01  8.50000000E-01
  8.50000000E-01  8.50000000E-01  8.50000000E-01  8.50000000E-01  8.50000000E-01
  8.50000000E-01  8.50000000E-01  8.50000000E-01  8.50000000E-01  8.50000000E-01
  8.50000000E-01  8.50000000E-01  8.50000000E-01  8.50000000E-01  8.50000000E-01
  8.50000000E-01  8.50000000E-01  8.50000000E-01  8.50000000E-01  8.50000000E-01
  8.50000000E-01  8.50000000E-01  8.50000000E-01  8.50000000E-01  8.50000000E-01
  8.50000000E-01  8.50000000E-01  8.50000000E-01  8.50000000E-01  8.50000000E-01
  8.50000000E-01  8.50000000E-01  8.50000000E-01  8.50000000E-01  8.50000000E-01
  8.50000000E-01  8.50000000E-01  8.50000000E-01  8.50000000E-01  8.50000000E-01
  8.50000000E-01  8.50000000E-01  8.50000000E-01  8.50000000E-01  8.50000000E-01
  8.50000000E-01  8.50000000E-01  8.50000000E-01  8.50000000E-01  8.50000000E-01
  8.50000000E-01  8.50000000E-01  8.50000000E-01  8.50000000E-01  8.50000000E-01
  8.50000000E-01  8.50000000E-01  8.50000000E-01  8.50000000E-01  8.50000000E-01
  8.50000000E-01  8.50000000E-01  8.50000000E-01  8.50000000E-01  8.50000000E-01
  8.50000000E-01  8.50000000E-01  8.50000000E-01  8.50000000E-01  8.50000000E-01
  8.50000000E-01  8.50000000E-01  8.50000000E-01  8.50000000E-01  8.50000000E-01
  8.50000000E-01  8.50000000E-01  8.50000000E-01  8.50000000E-01  8.50000000E-01
  8.50000000E-01  8.50000000E-01  8.50000000E-01  8.50000000E-01  8.50000000E-01
  8.50000000E-01  8.50000000E-01  8.50000000E-01  8.50000000E-01  8.50000000E-01
  8.50000000E-01  8.50000000E-01  8.50000000E-01  8.50000000E-01  8.50000000E-01
  8.50000000E-01  8.50000000E-01  8.50000000E-01  8.50000000E-01  8.50000000E-01
  8.50000000E-01  8.50000000E-01  8.50000000E-01  8.50000000E-01  8.50000000E-01
  8.50000000E-01  8.50000000E-01  8.50000000E-01  8.50000000E-01  8.50000000E-01
  8.50000000E-01  8.50000000E-01  8.50000000E-01  8.50000000E-01  8.50000000E-01
  8.50000000E-01  8.50000000E-01  8.50000000E-01  8.50000000E-01  8.50000000E-01
  8.50000000E-01  8.50000000E-01  8.50000000E-01  8.50000000E-01  8.50000000E-01
  8.50000000E-01  8.50000000E-01  8.50000000E-01  8.50000000E-01  8.50000000E-01
  8.50000000E-01  8.50000000E-01  8.50000000E-01  8.50000000E-01  8.50000000E-01
  8.50000000E-01  8.50000000E-01  8.50000000E-01  8.50000000E-01  8.50000000E-01
  8.50000000E-01  8.50000000E-01  8.50000000E-01  8.50000000E-01  8.50000000E-01
  8.50000000E-01  8.50000000E-01  8.50000000E-01  8.50000000E-01  8.50000000E-01
  8.50000000E-01  8.50000000E-01  8.50000000E-01  8.50000000E-01  8.50000000E-01
  8.50000000E-01  8.50000000E-01  8.50000000E-01  8.50000000E-01  8.50000000E-01
  8.50000000E-01  8.50000000E-01  8.50000000E-01  8.50000000E-01  8.50000000E-01
  8.50000000E-01  8.50000000E-01  8.50000000E-01  8.50000000E-01  8.50000000E-01
  8.50000000E-01  8.50000000E-01  8.50000000E-01  8.50000000E-01  8.50000000E-01
  8.50000000E-01  8.50000000E-01  8.50000000E-01  8.50000000E-01  8.50000000E-01
  8.50000000E-01  8.50000000E-01  8.50000000E-01  8.50000000E-01  8.50000000E-01
  8.50000000E-01  8.50000000E-01  8.50000000E-01  8.50000000E-01  8.50000000E-01
  8.50000000E-01  8.50000000E-01  8.50000000E-01  8.50000000E-01  8.50000000E-01
  8.50000000E-01  8.50000000E-01  8.50000000E-01  8.50000000E-01  8.50000000E-01
  8.50000000E-01  8.50000000E-01  8.50000000E-01  8.50000000E-01  8.50000000E-01
  8.50000000E-01  8.50000000E-01  8.50000000E-01  8.50000000E-01  8.50000000E-01
  8.50000000E-01  8.50000000E-01  8.50000000E-01  8.50000000E-01  8.50000000E-01
  8.50000000E-01  8.50000000E-01  8.50000000E-01  8.50000000E-01  8.50000000E-01
  8.50000000E-01  8.50000000E-01  8.50000000E-01  8.50000000E-01  8.50000000E-01
  8.50000000E-01  8.50000000E-01  8.50000000E-01  8.50000000E-01  8.50000000E-01
  8.50000000E-01  8.50000000E-01  8.50000000E-01  8.50000000E-01  8.50000000E-01
  8.50000000E-01  8.50000000E-01  8.50000000E-01  8.50000000E-01  8.50000000E-01
  8.50000000E-01  8.50000000E-01  8.50000000E-01  8.50000000E-01  8.50000000E-01
  8.50000000E-01  8.50000000E-01  8.50000000E-01  8.50000000E-01  8.50000000E-01
  8.50000000E-01  8.50000000E-01  8.50000000E-01  8.50000000E-01  8.50000000E-01
  8.50000000E-01  8.50000000E-01  8.50000000E-01  8.50000000E-01  8.50000000E-01
  8.50000000E-01  8.50000000E-01  8.50000000E-01  8.50000000E-01  8.50000000E-01
  8.50000000E-01  8.50000000E-01  8.50000000E-01  8.50000000E-01  8.50000000E-01
  8.50000000E-01  8.50000000E-01  8.50000000E-01  8.50000000E-01  8.50000000E-01
  8.50000000E-01  8.50000000E-01  8.50000000E-01  8.50000000E-01  8.50000000E-01
  8.50000000E-01  8.50000000E-01  8.50000000E-01  8.50000000E-01  8.50000000E-01
  8.50000000E-01  8.50000000E-01  8.50000000E-01  8.50000000E-01  8.50000000E-01
  8.50000000E-01  8.50000000E-01  8.50000000E-01  8.50000000E-01  8.50000000E-01
  8.50000000E-01  8.50000000E-01  8.50000000E-01  8.50000000E-01  8.50000000E-01
  8.50000000E-01  8.50000000E-01  8.50000000E-01  8.50000000E-01  8.50000000E-01
  8.50000000E-01  8.50000000E-01  8.50000000E-01  8.50000000E-01  8.50000000E-01
  8.50000000E-01  8.50000000E-01  8.50000000E-01  8.50000000E-01  8.50000000E-01
  8.50000000E-01  8.50000000E-01  8.50000000E-01  8.50000000E-01  8.50000000E-01
  8.50000000E-01  8.50000000E-01  8.50000000E-01  8.50000000E-01  8.50000000E-01
  8.50000000E-01  8.50000000E-01  8.50000000E-01  8.50000000E-01  8.50000000E-01
  8.50000000E-01  8.50000000E-01  8.50000000E-01  8.50000000E-01  8.50000000E-01
  8.50000000E-01  8.50000000E-01  8.50000000E-01  8.50000000E-01  8.50000000E-01
  8.50000000E-01  8.50000000E-01  8.50000000E-01  8.50000000E-01  8.50000000E-01
  8.50000000E-01  8.50000000E-01  8.50000000E-01  8.50000000E-01  8.50000000E-01
  8.50000000E-01  8.50000000E-01  8.50000000E-01  8.50000000E-01  8.50000000E-01
  8.50000000E-01  8.50000000E-01  8.50000000E-01  8.50000000E-01  8.50000000E-01
  8.50000000E-01  8.50000000E-01  8.50000000E-01  8.50000000E-01  8.50000000E-01
  8.50000000E-01  8.50000000E-01  8.50000000E-01  8.50000000E-01  8.50000000E-01
  8.50000000E-01  8.50000000E-01  8.50000000E-01  8.50000000E-01  8.50000000E-01
  8.50000000E-01  8.50000000E-01  8.50000000E-01  8.50000000E-01  8.50000000E-01
  8.50000000E-01  8.50000000E-01  8.50000000E-01  8.50000000E-01  8.50000000E-01
  8.50000000E-01  8.50000000E-01  8.50000000E-01  8.50000000E-01  8.50000000E-01
  8.50000000E-01  8.50000000E-01  8.50000000E-01  8.50000000E-01  8.50000000E-01
  8.50000000E-01  8.50000000E-01  8.50000000E-01  8.50000000E-01  8.50000000E-01
  8.50000000E-01  8.50000000E-01  8.50000000E-01  8.50000000E-01  8.50000000E-01
  8.50000000E-01  8.50000000E-01  8.50000000E-01  8.50000000E-01  8.50000000E-01
  8.50000000E-01  8.50000000E-01  8.50000000E-01  8.50000000E-01  8.50000000E-01
  8.50000000E-01  8.50000000E-01  8.50000000E-01  8.50000000E-01  8.50000000E-01
  8.50000000E-01  8.50000000E-01  8.50000000E-01  8.50000000E-01  8.50000000E-01
  8.50000000E-01  8.50000000E-01  8.50000000E-01  8.50000000E-01  8.50000000E-01
  8.50000000E-01  8.50000000E-01  8.50000000E-01  8.50000000E-01  8.50000000E-01
  8.50000000E-01  8.50000000E-01  8.50000000E-01  8.50000000E-01  8.50000000E-01
  8.50000000E-01  8.50000000E-01  8.50000000E-01  8.50000000E-01  8.50000000E-01
  8.50000000E-01  8.50000000E-01  8.50000000E-01  8.50000000E-01  8.50000000E-01
  8.50000000E-01  8.50000000E-01  8.50000000E-01  8.50000000E-01  8.50000000E-01
  8.50000000E-01  8.50000000E-01  8.50000000E-01  8.50000000E-01  8.50000000E-01
  8.50000000E-01  8.50000000E-01  8.50000000E-01  8.50000000E-01  8.50000000E-01
  8.50000000E-01  8.50000000E-01  8.50000000E-01  8.50000000E-01  8.50000000E-01
  8.50000000E-01  8.50000000E-01  8.50000000E-01  8.50000000E-01  8.50000000E-01
  8.50000000E-01  8.50000000E-01  8.50000000E-01  8.50000000E-01  8.50000000E-01
  8.50000000E-01  8.50000000E-01  8.50000000E-01  8.50000000E-01  8.50000000E-01
  8.50000000E-01  8.50000000E-01  8.50000000E-01  8.50000000E-01  8.50000000E-01
  8.50000000E-01  8.50000000E-01  8.50000000E-01  8.50000000E-01  8.50000000E-01
  8.50000000E-01  8.50000000E-01  8.50000000E-01  8.50000000E-01  8.50000000E-01
  8.50000000E-01  8.50000000E-01  8.50000000E-01  8.50000000E-01  8.50000000E-01
  8.50000000E-01  8.50000000E-01  8.50000000E-01  8.50000000E-01  8.50000000E-01
  8.50000000E-01  8.50000000E-01  8.50000000E-01  8.50000000E-01  8.50000000E-01
  8.50000000E-01  8.50000000E-01  8.50000000E-01  8.50000000E-01  8.50000000E-01
  8.50000000E-01  8.50000000E-01  8.50000000E-01  8.50000000E-01  8.50000000E-01
  8.50000000E-01  8.50000000E-01  8.50000000E-01  8.50000000E-01  8.50000000E-01
  8.50000000E-01  8.50000000E-01  8.50000000E-01  8.50000000E-01  8.50000000E-01
  8.50000000E-01  8.50000000E-01  8.50000000E-01  8.50000000E-01  8.50000000E-01
  8.50000000E-01  8.50000000E-01  8.50000000E-01  8.50000000E-01  8.50000000E-01
  8.50000000E-01  8.50000000E-01  8.50000000E-01  8.50000000E-01  8.50000000E-01
  8.50000000E-01  8.50000000E-01  8.50000000E-01  8.50000000E-01  8.50000000E-01
  8.50000000E-01  8.50000000E-01  8.50000000E-01  8.50000000E-01  8.50000000E-01
  8.50000000E-01  8.50000000E-01  8.50000000E-01  8.50000000E-01  8.50000000E-01
  8.50000000E-01  8.50000000E-01  8.50000000E-01  8.50000000E-01  8.50000000E-01
  8.50000000E-01  8.50000000E-01  8.50000000E-01  8.50000000E-01  8.50000000E-01
  8.50000000E-01  8.50000000E-01  8.50000000E-01  8.50000000E-01  8.50000000E-01
  8.50000000E-01  8.50000000E-01  8.50000000E-01  8.50000000E-01  8.50000000E-01
  8.50000000E-01  8.50000000E-01  8.50000000E-01  8.50000000E-01  8.50000000E-01
  8.50000000E-01  8.50000000E-01  8.50000000E-01  8.50000000E-01  8.50000000E-01
  8.50000000E-01  8.50000000E-01  8.50000000E-01  8.50000000E-01  8.50000000E-01
  8.50000000E-01  8.50000000E-01  8.50000000E-01  8.50000000E-01  8.50000000E-01
  8.50000000E-01  8.50000000E-01  8.50000000E-01  8.50000000E-01  8.50000000E-01
  8.50000000E-01  8.50000000E-01  8.50000000E-01  8.50000000E-01  8.50000000E-01
  8.50000000E-01  8.50000000E-01  8.50000000E-01  8.50000000E-01  8.50000000E-01
  8.50000000E-01  8.50000000E-01  8.50000000E-01  8.50000000E-01  8.50000000E-01
  8.50000000E-01  8.50000000E-01  8.50000000E-01  8.50000000E-01  8.50000000E-01
  8.50000000E-01  8.50000000E-01  8.50000000E-01  8.50000000E-01  8.50000000E-01
  8.50000000E-01  8.50000000E-01  8.50000000E-01  8.50000000E-01  8.50000000E-01
  8.50000000E-01  8.50000000E-01  8.50000000E-01  8.50000000E-01  8.50000000E-01
  8.50000000E-01  8.50000000E-01  8.50000000E-01  8.50000000E-01  8.50000000E-01
  8.50000000E-01  8.50000000E-01  8.50000000E-01  8.50000000E-01  8.50000000E-01
  8.50000000E-01  8.50000000E-01  8.50000000E-01  8.50000000E-01  8.50000000E-01
  8.50000000E-01  8.50000000E-01  8.50000000E-01  8.50000000E-01  8.50000000E-01
  8.50000000E-01  8.50000000E-01  8.50000000E-01  8.50000000E-01  8.50000000E-01
  8.50000000E-01  8.50000000E-01  8.50000000E-01  8.50000000E-01  8.50000000E-01
  8.50000000E-01  8.50000000E-01  8.50000000E-01  8.50000000E-01  8.50000000E-01
  8.50000000E-01  8.50000000E-01  8.50000000E-01  8.50000000E-01  8.50000000E-01
  8.50000000E-01  8.50000000E-01  8.50000000E-01  8.50000000E-01  8.50000000E-01
  8.50000000E-01  8.50000000E-01  8.50000000E-01  8.50000000E-01  8.50000000E-01
  8.50000000E-01  8.50000000E-01  8.50000000E-01  8.50000000E-01  8.50000000E-01
  8.50000000E-01  8.50000000E-01  8.50000000E-01  8.50000000E-01  8.50000000E-01
  8.50000000E-01  8.50000000E-01  8.50000000E-01  8.50000000E-01  8.50000000E-01
  8.50000000E-01  8.50000000E-01  8.50000000E-01  8.50000000E-01  8.50000000E-01
  8.50000000E-01  8.50000000E-01  8.50000000E-01  8.50000000E-01  8.50000000E-01
  8.50000000E-01  8.50000000E-01  8.50000000E-01  8.50000000E-01  8.50000000E-01
  8.50000000E-01  8.50000000E-01  8.50000000E-01  8.50000000E-01  8.50000000E-01
  8.50000000E-01  8.50000000E-01  8.50000000E-01  8.50000000E-01  8.50000000E-01
  8.50000000E-01  8.50000000E-01  8.50000000E-01  8.50000000E-01  8.50000000E-01
  8.50000000E-01  8.50000000E-01  8.50000000E-01  8.50000000E-01  8.50000000E-01
  8.50000000E-01  8.50000000E-01  8.50000000E-01  8.50000000E-01  8.50000000E-01
  8.50000000E-01  8.50000000E-01  8.50000000E-01  8.50000000E-01  8.50000000E-01
  8.50000000E-01  8.50000000E-01  8.50000000E-01  8.50000000E-01  8.50000000E-01
  8.50000000E-01  8.50000000E-01  8.50000000E-01  8.50000000E-01  8.50000000E-01
  8.50000000E-01  8.50000000E-01  8.50000000E-01  8.50000000E-01  8.50000000E-01
  8.50000000E-01  8.50000000E-01  8.50000000E-01  8.50000000E-01  8.50000000E-01
  8.50000000E-01  8.50000000E-01  8.50000000E-01  8.50000000E-01  8.50000000E-01
  8.50000000E-01  8.50000000E-01  8.50000000E-01  8.50000000E-01  8.50000000E-01
  8.50000000E-01  8.50000000E-01  8.50000000E-01  8.50000000E-01  8.50000000E-01
  8.50000000E-01  8.50000000E-01  8.50000000E-01  8.50000000E-01  8.50000000E-01
  8.50000000E-01  8.50000000E-01  8.50000000E-01  8.50000000E-01  8.50000000E-01
  8.50000000E-01  8.50000000E-01  8.50000000E-01  8.50000000E-01  8.50000000E-01
  8.50000000E-01  8.50000000E-01  8.50000000E-01  8.50000000E-01  8.50000000E-01
  8.50000000E-01  8.50000000E-01  8.50000000E-01  8.50000000E-01  8.50000000E-01
  8.50000000E-01  8.50000000E-01  8.50000000E-01  8.50000000E-01  8.50000000E-01
  8.50000000E-01  8.50000000E-01  8.50000000E-01  8.50000000E-01  8.50000000E-01
  8.50000000E-01  8.50000000E-01  8.50000000E-01  8.50000000E-01  8.50000000E-01
  8.50000000E-01  8.50000000E-01  8.50000000E-01  8.50000000E-01  8.50000000E-01
  8.50000000E-01  8.50000000E-01  8.50000000E-01  8.50000000E-01  8.50000000E-01
  8.50000000E-01  8.50000000E-01  8.50000000E-01  8.50000000E-01  8.50000000E-01
  8.50000000E-01  8.50000000E-01  8.50000000E-01  8.50000000E-01  8.50000000E-01
  8.50000000E-01  8.50000000E-01  8.50000000E-01  8.50000000E-01  8.50000000E-01
  8.50000000E-01  8.50000000E-01  8.50000000E-01  8.50000000E-01  8.50000000E-01
  8.50000000E-01  8.50000000E-01  8.50000000E-01  8.50000000E-01  8.50000000E-01
  8.50000000E-01  8.50000000E-01  8.50000000E-01  8.50000000E-01  8.50000000E-01
  8.50000000E-01  8.50000000E-01  8.50000000E-01  8.50000000E-01  8.50000000E-01
  8.50000000E-01  8.50000000E-01  8.50000000E-01  8.50000000E-01  8.50000000E-01
  8.50000000E-01  8.50000000E-01  8.50000000E-01  8.50000000E-01  8.50000000E-01
  8.50000000E-01  8.50000000E-01  8.50000000E-01  8.50000000E-01  8.50000000E-01
  8.50000000E-01  8.50000000E-01  8.50000000E-01  8.50000000E-01  8.50000000E-01
  8.50000000E-01  8.50000000E-01  8.50000000E-01  8.50000000E-01  8.50000000E-01
  8.50000000E-01  8.50000000E-01  8.50000000E-01  8.50000000E-01  8.50000000E-01
  8.50000000E-01  8.50000000E-01  8.50000000E-01  8.50000000E-01  8.50000000E-01
  8.50000000E-01  8.50000000E-01  8.50000000E-01  8.50000000E-01  8.50000000E-01
  8.50000000E-01  8.50000000E-01  8.50000000E-01  8.50000000E-01  8.50000000E-01
  8.50000000E-01  8.50000000E-01  8.50000000E-01  8.50000000E-01  8.50000000E-01
  8.50000000E-01  8.50000000E-01  8.50000000E-01  8.50000000E-01  8.50000000E-01
  8.50000000E-01  8.50000000E-01  8.50000000E-01  8.50000000E-01  8.50000000E-01
  8.50000000E-01  8.50000000E-01  8.50000000E-01  8.50000000E-01  8.50000000E-01
  8.50000000E-01  8.50000000E-01  8.50000000E-01  8.50000000E-01  8.50000000E-01
  8.50000000E-01  8.50000000E-01  8.50000000E-01  8.50000000E-01  8.50000000E-01
  8.50000000E-01  8.50000000E-01  8.50000000E-01  8.50000000E-01  8.50000000E-01
  8.50000000E-01  8.50000000E-01  8.50000000E-01  8.50000000E-01  8.50000000E-01
  8.50000000E-01  8.50000000E-01  8.50000000E-01  8.50000000E-01  8.50000000E-01
  8.50000000E-01  8.50000000E-01  8.50000000E-01  8.50000000E-01  8.50000000E-01
  8.50000000E-01  8.50000000E-01  8.50000000E-01  8.50000000E-01  8.50000000E-01
  8.50000000E-01  8.50000000E-01  8.50000000E-01  8.50000000E-01  8.50000000E-01
  8.50000000E-01  8.50000000E-01  8.50000000E-01  8.50000000E-01  8.50000000E-01
  8.50000000E-01  8.50000000E-01  8.50000000E-01  8.50000000E-01  8.50000000E-01
  8.50000000E-01  8.50000000E-01  8.50000000E-01  8.50000000E-01  8.50000000E-01
  8.50000000E-01  8.50000000E-01  8.50000000E-01  8.50000000E-01  8.50000000E-01
  8.50000000E-01  8.50000000E-01  8.50000000E-01  8.50000000E-01  8.50000000E-01
  8.50000000E-01  8.50000000E-01  8.50000000E-01  8.50000000E-01  8.50000000E-01
  8.50000000E-01  8.50000000E-01  8.50000000E-01  8.50000000E-01  8.50000000E-01
  8.50000000E-01  8.50000000E-01  8.50000000E-01  8.50000000E-01  8.50000000E-01
  8.50000000E-01  8.50000000E-01  8.50000000E-01  8.50000000E-01  8.50000000E-01
  8.50000000E-01  8.50000000E-01  8.50000000E-01  8.50000000E-01  8.50000000E-01
  8.50000000E-01  8.50000000E-01  8.50000000E-01  8.50000000E-01  8.50000000E-01
  8.50000000E-01  8.50000000E-01  8.50000000E-01  8.50000000E-01  8.50000000E-01
  8.50000000E-01  8.50000000E-01  8.50000000E-01  8.50000000E-01  8.50000000E-01
  8.50000000E-01  8.50000000E-01  8.50000000E-01  8.50000000E-01  8.50000000E-01
  8.50000000E-01  8.50000000E-01  8.50000000E-01  8.50000000E-01  8.50000000E-01
  8.50000000E-01  8.50000000E-01  8.50000000E-01  8.50000000E-01  8.50000000E-01
  8.50000000E-01  8.50000000E-01  8.50000000E-01  8.50000000E-01  8.50000000E-01
  8.50000000E-01  8.50000000E-01  8.50000000E-01  8.50000000E-01  8.50000000E-01
  8.50000000E-01  8.50000000E-01  8.50000000E-01  8.50000000E-01  8.50000000E-01
  8.50000000E-01  8.50000000E-01  8.50000000E-01  8.50000000E-01  8.50000000E-01
  8.50000000E-01  8.50000000E-01  8.50000000E-01  8.50000000E-01  8.50000000E-01
  8.50000000E-01  8.50000000E-01  8.50000000E-01  8.50000000E-01  8.50000000E-01
  8.50000000E-01  8.50000000E-01  8.50000000E-01  8.50000000E-01  8.50000000E-01
  8.50000000E-01  8.50000000E-01  8.50000000E-01  8.50000000E-01  8.50000000E-01
  8.50000000E-01  8.50000000E-01  8.50000000E-01  8.50000000E-01  8.50000000E-01
  8.50000000E-01  8.50000000E-01  8.50000000E-01  8.50000000E-01  8.50000000E-01
  8.50000000E-01  8.50000000E-01  8.50000000E-01  8.50000000E-01  8.50000000E-01
  8.50000000E-01  8.50000000E-01  8.50000000E-01  8.50000000E-01  8.50000000E-01
  8.50000000E-01  8.50000000E-01  8.50000000E-01  8.50000000E-01  8.50000000E-01
  8.50000000E-01  8.50000000E-01  8.50000000E-01  8.50000000E-01  8.50000000E-01
  8.50000000E-01  8.50000000E-01  8.50000000E-01  8.50000000E-01  8.50000000E-01
  8.50000000E-01  8.50000000E-01  8.50000000E-01  8.50000000E-01  8.50000000E-01
  8.50000000E-01  8.50000000E-01  8.50000000E-01  8.50000000E-01  8.50000000E-01
  8.50000000E-01  8.50000000E-01  8.50000000E-01  8.50000000E-01  8.50000000E-01
  8.50000000E-01  8.50000000E-01  8.50000000E-01  8.50000000E-01  8.50000000E-01
  8.50000000E-01  8.50000000E-01  8.50000000E-01  8.50000000E-01  8.50000000E-01
  8.50000000E-01  8.50000000E-01  8.50000000E-01  8.50000000E-01  8.50000000E-01
  8.50000000E-01  8.50000000E-01  8.50000000E-01  8.50000000E-01  8.50000000E-01
  8.50000000E-01  8.50000000E-01  8.50000000E-01  8.50000000E-01  8.50000000E-01
  8.50000000E-01  8.50000000E-01  8.50000000E-01  8.50000000E-01  8.50000000E-01
  8.50000000E-01  8.50000000E-01  8.50000000E-01  8.50000000E-01  8.50000000E-01
  8.50000000E-01  8.50000000E-01  8.50000000E-01  8.50000000E-01  8.50000000E-01
  8.50000000E-01  8.50000000E-01  8.50000000E-01  8.50000000E-01  8.50000000E-01
  8.50000000E-01  8.50000000E-01  8.50000000E-01  8.50000000E-01  8.50000000E-01
  8.50000000E-01  8.50000000E-01  8.50000000E-01  8.50000000E-01  8.50000000E-01
  8.50000000E-01  8.50000000E-01  8.50000000E-01  8.50000000E-01  8.50000000E-01
  8.50000000E-01  8.50000000E-01  8.50000000E-01  8.50000000E-01  8.50000000E-01
  8.50000000E-01  8.50000000E-01  8.50000000E-01  8.50000000E-01  8.50000000E-01
  8.50000000E-01  8.50000000E-01  8.50000000E-01  8.50000000E-01  8.50000000E-01
  8.50000000E-01  8.50000000E-01  8.50000000E-01  8.50000000E-01  8.50000000E-01
  8.50000000E-01  8.50000000E-01  8.50000000E-01  8.50000000E-01  8.50000000E-01
  8.50000000E-01  8.50000000E-01  8.50000000E-01  8.50000000E-01  8.50000000E-01
  8.50000000E-01  8.50000000E-01  8.50000000E-01  8.50000000E-01  8.50000000E-01
  8.50000000E-01  8.50000000E-01  8.50000000E-01  8.50000000E-01  8.50000000E-01
  8.50000000E-01  8.50000000E-01  8.50000000E-01  8.50000000E-01  8.50000000E-01
  8.50000000E-01  8.50000000E-01  8.50000000E-01  8.50000000E-01  8.50000000E-01
  8.50000000E-01  8.50000000E-01  8.50000000E-01  8.50000000E-01  8.50000000E-01
  8.50000000E-01  8.50000000E-01  8.50000000E-01  8.50000000E-01  8.50000000E-01
  8.50000000E-01  8.50000000E-01  8.50000000E-01  8.50000000E-01  8.50000000E-01
  8.50000000E-01  8.50000000E-01  8.50000000E-01  8.50000000E-01  8.50000000E-01
  8.50000000E-01  8.50000000E-01  8.50000000E-01  8.50000000E-01  8.50000000E-01
  8.50000000E-01  8.50000000E-01  8.50000000E-01  8.50000000E-01  8.50000000E-01
  8.50000000E-01  8.50000000E-01  8.50000000E-01  8.50000000E-01  8.50000000E-01
  8.50000000E-01  8.50000000E-01  8.50000000E-01  8.50000000E-01  8.50000000E-01
  8.50000000E-01  8.50000000E-01  8.50000000E-01  8.50000000E-01  8.50000000E-01
  8.50000000E-01  8.50000000E-01  8.50000000E-01  8.50000000E-01  8.50000000E-01
  8.50000000E-01  8.50000000E-01  8.50000000E-01  8.50000000E-01  8.50000000E-01
  8.50000000E-01  8.50000000E-01  8.50000000E-01  8.50000000E-01  8.50000000E-01
  8.50000000E-01  8.50000000E-01  8.50000000E-01  8.50000000E-01  8.50000000E-01
  8.50000000E-01  8.50000000E-01  8.50000000E-01  8.50000000E-01  8.50000000E-01
  8.50000000E-01  8.50000000E-01  8.50000000E-01  8.50000000E-01  8.50000000E-01
  8.50000000E-01  8.50000000E-01  8.50000000E-01  8.50000000E-01  8.50000000E-01
  8.50000000E-01  8.50000000E-01  8.50000000E-01  8.50000000E-01  8.50000000E-01
  8.50000000E-01  8.50000000E-01  8.50000000E-01  8.50000000E-01  8.50000000E-01
  8.50000000E-01  8.50000000E-01  8.50000000E-01  8.50000000E-01  8.50000000E-01
  8.50000000E-01  8.50000000E-01  8.50000000E-01  8.50000000E-01  8.50000000E-01
  8.50000000E-01  8.50000000E-01  8.50000000E-01  8.50000000E-01  8.50000000E-01
  8.50000000E-01  8.50000000E-01  8.50000000E-01  8.50000000E-01  8.50000000E-01
  8.50000000E-01  8.50000000E-01  8.50000000E-01  8.50000000E-01  8.50000000E-01
  8.50000000E-01  8.50000000E-01  8.50000000E-01  8.50000000E-01  8.50000000E-01
  8.50000000E-01  8.50000000E-01  8.50000000E-01  8.50000000E-01  8.50000000E-01
  8.50000000E-01  8.50000000E-01  8.50000000E-01  8.50000000E-01  8.50000000E-01
  8.50000000E-01  8.50000000E-01  8.50000000E-01  8.50000000E-01  8.50000000E-01
  8.50000000E-01  8.50000000E-01  8.50000000E-01  8.50000000E-01  8.50000000E-01
  8.50000000E-01  8.50000000E-01  8.50000000E-01  8.50000000E-01  8.50000000E-01
  8.50000000E-01  8.50000000E-01  8.50000000E-01  8.50000000E-01  8.50000000E-01
  8.50000000E-01  8.50000000E-01  8.50000000E-01  8.50000000E-01  8.50000000E-01
  8.50000000E-01  8.50000000E-01  8.50000000E-01  8.50000000E-01  8.50000000E-01
  8.50000000E-01  8.50000000E-01  8.50000000E-01  8.50000000E-01  8.50000000E-01
  8.50000000E-01  8.50000000E-01  8.50000000E-01  8.50000000E-01  8.50000000E-01
  8.50000000E-01  8.50000000E-01  8.50000000E-01  8.50000000E-01  8.50000000E-01
  8.50000000E-01  8.50000000E-01  8.50000000E-01  8.50000000E-01  8.50000000E-01
  8.50000000E-01  8.50000000E-01  8.50000000E-01  8.50000000E-01  8.50000000E-01
  8.50000000E-01  8.50000000E-01  8.50000000E-01  8.50000000E-01  8.50000000E-01
  8.50000000E-01  8.50000000E-01  8.50000000E-01  8.50000000E-01  8.50000000E-01
  8.50000000E-01  8.50000000E-01  8.50000000E-01  8.50000000E-01  8.50000000E-01
  8.50000000E-01  8.50000000E-01  8.50000000E-01  8.50000000E-01  8.50000000E-01
  8.50000000E-01  8.50000000E-01  8.50000000E-01  8.50000000E-01  8.50000000E-01
  8.50000000E-01  8.50000000E-01  8.50000000E-01  8.50000000E-01  8.50000000E-01
  8.50000000E-01  8.50000000E-01  8.50000000E-01  8.50000000E-01  8.50000000E-01
  8.50000000E-01  8.50000000E-01  8.50000000E-01  8.50000000E-01  8.50000000E-01
  8.50000000E-01  8.50000000E-01  8.50000000E-01  8.50000000E-01  8.50000000E-01
  8.50000000E-01  8.50000000E-01  8.50000000E-01  8.50000000E-01  8.50000000E-01
  8.50000000E-01  8.50000000E-01  8.50000000E-01  8.50000000E-01  8.50000000E-01
  8.50000000E-01  8.50000000E-01  8.50000000E-01  8.50000000E-01  8.50000000E-01
  8.50000000E-01  8.50000000E-01  8.50000000E-01  8.50000000E-01  8.50000000E-01
  8.50000000E-01  8.50000000E-01  8.50000000E-01  8.50000000E-01  8.50000000E-01
  8.50000000E-01  8.50000000E-01  8.50000000E-01  8.50000000E-01  8.50000000E-01
  8.50000000E-01  8.50000000E-01  8.50000000E-01  8.50000000E-01  8.50000000E-01
  8.50000000E-01  8.50000000E-01  8.50000000E-01  8.50000000E-01  8.50000000E-01
  8.50000000E-01  8.50000000E-01  8.50000000E-01  8.50000000E-01  8.50000000E-01
  8.50000000E-01  8.50000000E-01  8.50000000E-01  8.50000000E-01  8.50000000E-01
  8.50000000E-01  8.50000000E-01  8.50000000E-01  8.50000000E-01  8.50000000E-01
  8.50000000E-01  8.50000000E-01  8.50000000E-01  8.50000000E-01  8.50000000E-01
  8.50000000E-01  8.50000000E-01  8.50000000E-01  8.50000000E-01  8.50000000E-01
  8.50000000E-01  8.50000000E-01  8.50000000E-01  8.50000000E-01  8.50000000E-01
  8.50000000E-01  8.50000000E-01  8.50000000E-01  8.50000000E-01  8.50000000E-01
  8.50000000E-01  8.50000000E-01  8.50000000E-01  8.50000000E-01  8.50000000E-01
  8.50000000E-01  8.50000000E-01  8.50000000E-01  8.50000000E-01  8.50000000E-01
  8.50000000E-01  8.50000000E-01  8.50000000E-01  8.50000000E-01  8.50000000E-01
  8.50000000E-01  8.50000000E-01  8.50000000E-01  8.50000000E-01  8.50000000E-01
  8.50000000E-01  8.50000000E-01  8.50000000E-01  8.50000000E-01  8.50000000E-01
  8.50000000E-01  8.50000000E-01  8.50000000E-01  8.50000000E-01  8.50000000E-01
  8.50000000E-01  8.50000000E-01  8.50000000E-01  8.50000000E-01  8.50000000E-01
  8.50000000E-01  8.50000000E-01  8.50000000E-01  8.50000000E-01  8.50000000E-01
  8.50000000E-01  8.50000000E-01  8.50000000E-01  8.50000000E-01  8.50000000E-01
  8.50000000E-01  8.50000000E-01  8.50000000E-01  8.50000000E-01  8.50000000E-01
  8.50000000E-01  8.50000000E-01  8.50000000E-01  8.50000000E-01  8.50000000E-01
  8.50000000E-01  8.50000000E-01  8.50000000E-01  8.50000000E-01  8.50000000E-01
  8.50000000E-01  8.50000000E-01  8.50000000E-01  8.50000000E-01  8.50000000E-01
  8.50000000E-01  8.50000000E-01  8.50000000E-01  8.50000000E-01  8.50000000E-01
  8.50000000E-01  8.50000000E-01  8.50000000E-01  8.50000000E-01  8.50000000E-01
  8.50000000E-01  8.50000000E-01  8.50000000E-01  8.50000000E-01  8.50000000E-01
  8.50000000E-01  8.50000000E-01  8.50000000E-01  8.50000000E-01  8.50000000E-01
  8.50000000E-01  8.50000000E-01  8.50000000E-01  8.50000000E-01  8.50000000E-01
  8.50000000E-01  8.50000000E-01  8.50000000E-01  8.50000000E-01  8.50000000E-01
  8.50000000E-01  8.50000000E-01  8.50000000E-01  8.50000000E-01  8.50000000E-01
  8.50000000E-01  8.50000000E-01  8.50000000E-01  8.50000000E-01  8.50000000E-01
  8.50000000E-01  8.50000000E-01  8.50000000E-01  8.50000000E-01  8.50000000E-01
  8.50000000E-01  8.50000000E-01  8.50000000E-01  8.50000000E-01  8.50000000E-01
  8.50000000E-01  8.50000000E-01  8.50000000E-01  8.50000000E-01  8.50000000E-01
  8.50000000E-01  8.50000000E-01  8.50000000E-01  8.50000000E-01  8.50000000E-01
  8.50000000E-01  8.50000000E-01  8.50000000E-01  8.50000000E-01  8.50000000E-01
  8.50000000E-01  8.50000000E-01  8.50000000E-01  8.50000000E-01  8.50000000E-01
  8.50000000E-01  8.50000000E-01  8.50000000E-01  8.50000000E-01  8.50000000E-01
  8.50000000E-01  8.50000000E-01  8.50000000E-01  8.50000000E-01  8.50000000E-01
  8.50000000E-01  8.50000000E-01  8.50000000E-01  8.50000000E-01  8.50000000E-01
  8.50000000E-01  8.50000000E-01  8.50000000E-01  8.50000000E-01  8.50000000E-01
  8.50000000E-01  8.50000000E-01  8.50000000E-01  8.50000000E-01  8.50000000E-01
  8.50000000E-01  8.50000000E-01  8.50000000E-01  8.50000000E-01  8.50000000E-01
  8.50000000E-01  8.50000000E-01  8.50000000E-01  8.50000000E-01  8.50000000E-01
  8.50000000E-01  8.50000000E-01  8.50000000E-01  8.50000000E-01  8.50000000E-01
  8.50000000E-01  8.50000000E-01  8.50000000E-01  8.50000000E-01  8.50000000E-01
  8.50000000E-01  8.50000000E-01  8.50000000E-01  8.50000000E-01  8.50000000E-01
  8.50000000E-01  8.50000000E-01  8.50000000E-01  8.50000000E-01  8.50000000E-01
  8.50000000E-01  8.50000000E-01  8.50000000E-01  8.50000000E-01  8.50000000E-01
  8.50000000E-01  8.50000000E-01  8.50000000E-01  8.50000000E-01  8.50000000E-01
  8.50000000E-01  8.50000000E-01  8.50000000E-01  8.50000000E-01  8.50000000E-01
  8.50000000E-01  8.50000000E-01  8.50000000E-01  8.50000000E-01  8.50000000E-01
  8.50000000E-01  8.50000000E-01  8.50000000E-01  8.50000000E-01  8.50000000E-01
  8.50000000E-01  8.50000000E-01  8.50000000E-01  8.50000000E-01  8.50000000E-01
  8.50000000E-01  8.50000000E-01  8.50000000E-01  8.50000000E-01  8.50000000E-01
  8.50000000E-01  8.50000000E-01  8.50000000E-01  8.50000000E-01  8.50000000E-01
  8.50000000E-01  8.50000000E-01  8.50000000E-01  8.50000000E-01  8.50000000E-01
  8.50000000E-01  8.50000000E-01  8.50000000E-01  8.50000000E-01  8.50000000E-01
  8.50000000E-01  8.50000000E-01  8.50000000E-01  8.50000000E-01  8.50000000E-01
  8.50000000E-01  8.50000000E-01  8.50000000E-01  8.50000000E-01  8.50000000E-01
  8.50000000E-01  8.50000000E-01  8.50000000E-01  8.50000000E-01  8.50000000E-01
  8.50000000E-01  8.50000000E-01  8.50000000E-01  8.50000000E-01  8.50000000E-01
  8.50000000E-01  8.50000000E-01  8.50000000E-01  8.50000000E-01  8.50000000E-01
  8.50000000E-01  8.50000000E-01  8.50000000E-01  8.50000000E-01  8.50000000E-01
  8.50000000E-01  8.50000000E-01  8.50000000E-01  8.50000000E-01  8.50000000E-01
  8.50000000E-01  8.50000000E-01  8.50000000E-01  8.50000000E-01  8.50000000E-01
  8.50000000E-01  8.50000000E-01  8.50000000E-01  8.50000000E-01  8.50000000E-01
  8.50000000E-01  8.50000000E-01  8.50000000E-01  8.50000000E-01  8.50000000E-01
  8.50000000E-01  8.50000000E-01  8.50000000E-01  8.50000000E-01  8.50000000E-01
  8.50000000E-01  8.50000000E-01  8.50000000E-01  8.50000000E-01  8.50000000E-01
  8.50000000E-01  8.50000000E-01  8.50000000E-01  8.50000000E-01  8.50000000E-01
  8.50000000E-01  8.50000000E-01  8.50000000E-01  8.50000000E-01  8.50000000E-01
  8.50000000E-01  8.50000000E-01  8.50000000E-01  8.50000000E-01  8.50000000E-01
  8.50000000E-01  8.50000000E-01  8.50000000E-01  8.50000000E-01  8.50000000E-01
  8.50000000E-01  8.50000000E-01  8.50000000E-01  8.50000000E-01  8.50000000E-01
  8.50000000E-01  8.50000000E-01  8.50000000E-01  8.50000000E-01  8.50000000E-01
  8.50000000E-01  8.50000000E-01  8.50000000E-01  8.50000000E-01  8.50000000E-01
  8.50000000E-01  8.50000000E-01  8.50000000E-01  8.50000000E-01  8.50000000E-01
  8.50000000E-01  8.50000000E-01  8.50000000E-01  8.50000000E-01  8.50000000E-01
  8.50000000E-01  8.50000000E-01  8.50000000E-01  8.50000000E-01  8.50000000E-01
  8.50000000E-01  8.50000000E-01  8.50000000E-01  8.50000000E-01  8.50000000E-01
  8.50000000E-01  8.50000000E-01  8.50000000E-01  8.50000000E-01  8.50000000E-01
  8.50000000E-01  8.50000000E-01  8.50000000E-01  8.50000000E-01  8.50000000E-01
  8.50000000E-01  8.50000000E-01  8.50000000E-01  8.50000000E-01  8.50000000E-01
  8.50000000E-01  8.50000000E-01  8.50000000E-01  8.50000000E-01  8.50000000E-01
  8.50000000E-01  8.50000000E-01  8.50000000E-01  8.50000000E-01  8.50000000E-01
  8.50000000E-01  8.50000000E-01  8.50000000E-01  8.50000000E-01  8.50000000E-01
  8.50000000E-01  8.50000000E-01  8.50000000E-01  8.50000000E-01  8.50000000E-01
  8.50000000E-01  8.50000000E-01  8.50000000E-01  8.50000000E-01  8.50000000E-01
  8.50000000E-01  8.50000000E-01  8.50000000E-01  8.50000000E-01  8.50000000E-01
  8.50000000E-01  8.50000000E-01  8.50000000E-01  8.50000000E-01  8.50000000E-01
  8.50000000E-01  8.50000000E-01  8.50000000E-01  8.50000000E-01  8.50000000E-01
  8.50000000E-01  8.50000000E-01  8.50000000E-01  8.50000000E-01  8.50000000E-01
  8.50000000E-01  8.50000000E-01  8.50000000E-01  8.50000000E-01  8.50000000E-01
  8.50000000E-01  8.50000000E-01  8.50000000E-01  8.50000000E-01  8.50000000E-01
  8.50000000E-01  8.50000000E-01  8.50000000E-01  8.50000000E-01  8.50000000E-01
  8.50000000E-01  8.50000000E-01  8.50000000E-01  8.50000000E-01  8.50000000E-01
  8.50000000E-01  8.50000000E-01  8.50000000E-01  8.50000000E-01  8.50000000E-01
  8.50000000E-01  8.50000000E-01  8.50000000E-01  8.50000000E-01  8.50000000E-01
  8.50000000E-01  8.50000000E-01  8.50000000E-01  8.50000000E-01  8.50000000E-01
  8.50000000E-01  8.50000000E-01  8.50000000E-01  8.50000000E-01  8.50000000E-01
  8.50000000E-01  8.50000000E-01  8.50000000E-01  8.50000000E-01  8.50000000E-01
  8.50000000E-01  8.50000000E-01  8.50000000E-01  8.50000000E-01  8.50000000E-01
  8.50000000E-01  8.50000000E-01  8.50000000E-01  8.50000000E-01  8.50000000E-01
  8.50000000E-01  8.50000000E-01  8.50000000E-01  8.50000000E-01  8.50000000E-01
  8.50000000E-01  8.50000000E-01  8.50000000E-01  8.50000000E-01  8.50000000E-01
  8.50000000E-01  8.50000000E-01  8.50000000E-01  8.50000000E-01  8.50000000E-01
  8.50000000E-01  8.50000000E-01  8.50000000E-01  8.50000000E-01  8.50000000E-01
  8.50000000E-01  8.50000000E-01  8.50000000E-01  8.50000000E-01  8.50000000E-01
  8.50000000E-01  8.50000000E-01  8.50000000E-01  8.50000000E-01  8.50000000E-01
  8.50000000E-01  8.50000000E-01  8.50000000E-01  8.50000000E-01  8.50000000E-01
  8.50000000E-01  8.50000000E-01  8.50000000E-01  8.50000000E-01  8.50000000E-01
  8.50000000E-01  8.50000000E-01  8.50000000E-01  8.50000000E-01  8.50000000E-01
  8.50000000E-01  8.50000000E-01  8.50000000E-01  8.50000000E-01  8.50000000E-01
  8.50000000E-01  8.50000000E-01  8.50000000E-01  8.50000000E-01  8.50000000E-01
  8.50000000E-01  8.50000000E-01  8.50000000E-01  8.50000000E-01  8.50000000E-01
  8.50000000E-01  8.50000000E-01  8.50000000E-01  8.50000000E-01  8.50000000E-01
  8.50000000E-01  8.50000000E-01  8.50000000E-01  8.50000000E-01  8.50000000E-01
  8.50000000E-01  8.50000000E-01  8.50000000E-01  8.50000000E-01  8.50000000E-01
  8.50000000E-01  8.50000000E-01  8.50000000E-01  8.50000000E-01  8.50000000E-01
  8.50000000E-01  8.50000000E-01  8.50000000E-01  8.50000000E-01  8.50000000E-01
  8.50000000E-01  8.50000000E-01  8.50000000E-01  8.50000000E-01  8.50000000E-01
  8.50000000E-01  8.50000000E-01  8.50000000E-01  8.50000000E-01  8.50000000E-01
  8.50000000E-01  8.50000000E-01  8.50000000E-01  8.50000000E-01  8.50000000E-01
  8.50000000E-01  8.50000000E-01  8.50000000E-01  8.50000000E-01  8.50000000E-01
  8.50000000E-01  8.50000000E-01  8.50000000E-01  8.50000000E-01  8.50000000E-01
  8.50000000E-01  8.50000000E-01  8.50000000E-01  8.50000000E-01  8.50000000E-01
  8.50000000E-01  8.50000000E-01  8.50000000E-01  8.50000000E-01  8.50000000E-01
  8.50000000E-01  8.50000000E-01  8.50000000E-01  8.50000000E-01  8.50000000E-01
  8.50000000E-01  8.50000000E-01  8.50000000E-01  8.50000000E-01  8.50000000E-01
  8.50000000E-01  8.50000000E-01  8.50000000E-01  8.50000000E-01  8.50000000E-01
  8.50000000E-01  8.50000000E-01  8.50000000E-01  8.50000000E-01  8.50000000E-01
  8.50000000E-01  8.50000000E-01  8.50000000E-01  8.50000000E-01  8.50000000E-01
  8.50000000E-01  8.50000000E-01  8.50000000E-01  8.50000000E-01  8.50000000E-01
  8.50000000E-01  8.50000000E-01  8.50000000E-01  8.50000000E-01  8.50000000E-01
  8.50000000E-01  8.50000000E-01  8.50000000E-01  8.50000000E-01  8.50000000E-01
  8.50000000E-01  8.50000000E-01  8.50000000E-01  8.50000000E-01  8.50000000E-01
  8.50000000E-01  8.50000000E-01  8.50000000E-01  8.50000000E-01  8.50000000E-01
  8.50000000E-01  8.50000000E-01  8.50000000E-01  8.50000000E-01  8.50000000E-01
  8.50000000E-01  8.50000000E-01  8.50000000E-01  8.50000000E-01  8.50000000E-01
  8.50000000E-01  8.50000000E-01  8.50000000E-01  8.50000000E-01  8.50000000E-01
  8.50000000E-01  8.50000000E-01  8.50000000E-01  8.50000000E-01  8.50000000E-01
  8.50000000E-01  8.50000000E-01  8.50000000E-01  8.50000000E-01  8.50000000E-01
  8.50000000E-01  8.50000000E-01  8.50000000E-01  8.50000000E-01  8.50000000E-01
  8.50000000E-01  8.50000000E-01  8.50000000E-01  8.50000000E-01  8.50000000E-01
  8.50000000E-01  8.50000000E-01  8.50000000E-01  8.50000000E-01  8.50000000E-01
  8.50000000E-01  8.50000000E-01  8.50000000E-01  8.50000000E-01  8.50000000E-01
  8.50000000E-01  8.50000000E-01  8.50000000E-01  8.50000000E-01  8.50000000E-01
  8.50000000E-01  8.50000000E-01  8.50000000E-01  8.50000000E-01  8.50000000E-01
  8.50000000E-01  8.50000000E-01  8.50000000E-01  8.50000000E-01  8.50000000E-01
  8.50000000E-01  8.50000000E-01  8.50000000E-01  8.50000000E-01  8.50000000E-01
  8.50000000E-01  8.50000000E-01  8.50000000E-01  8.50000000E-01  8.50000000E-01
  8.50000000E-01  8.50000000E-01  8.50000000E-01  8.50000000E-01  8.50000000E-01
  8.50000000E-01  8.50000000E-01  8.50000000E-01  8.50000000E-01  8.50000000E-01
  8.50000000E-01  8.50000000E-01  8.50000000E-01  8.50000000E-01  8.50000000E-01
  8.50000000E-01  8.50000000E-01  8.50000000E-01  8.50000000E-01  8.50000000E-01
  8.50000000E-01  8.50000000E-01  8.50000000E-01  8.50000000E-01  8.50000000E-01
  8.50000000E-01  8.50000000E-01  8.50000000E-01  8.50000000E-01  8.50000000E-01
  8.50000000E-01  8.50000000E-01  8.50000000E-01  8.50000000E-01  8.50000000E-01
  8.50000000E-01  8.50000000E-01  8.50000000E-01  8.50000000E-01  8.50000000E-01
  8.50000000E-01  8.50000000E-01  8.50000000E-01  8.50000000E-01  8.50000000E-01
  8.50000000E-01  8.50000000E-01  8.50000000E-01  8.50000000E-01  8.50000000E-01
  8.50000000E-01  8.50000000E-01  8.50000000E-01  8.50000000E-01  8.50000000E-01
  8.50000000E-01  8.50000000E-01  8.50000000E-01  8.50000000E-01  8.50000000E-01
  8.50000000E-01  8.50000000E-01  8.50000000E-01  8.50000000E-01  8.50000000E-01
  8.50000000E-01  8.50000000E-01  8.50000000E-01  8.50000000E-01  8.50000000E-01
  8.50000000E-01  8.50000000E-01  8.50000000E-01  8.50000000E-01  8.50000000E-01
  8.50000000E-01  8.50000000E-01  8.50000000E-01  8.50000000E-01  8.50000000E-01
  8.50000000E-01  8.50000000E-01  8.50000000E-01  8.50000000E-01  8.50000000E-01
  8.50000000E-01  8.50000000E-01  8.50000000E-01  8.50000000E-01  8.50000000E-01
  8.50000000E-01  8.50000000E-01  8.50000000E-01  8.50000000E-01  8.50000000E-01
  8.50000000E-01  8.50000000E-01  8.50000000E-01  8.50000000E-01  8.50000000E-01
  8.50000000E-01  8.50000000E-01  8.50000000E-01  8.50000000E-01  8.50000000E-01
  8.50000000E-01  8.50000000E-01  8.50000000E-01  8.50000000E-01  8.50000000E-01
  8.50000000E-01  8.50000000E-01  8.50000000E-01  8.50000000E-01  8.50000000E-01
  8.50000000E-01  8.50000000E-01  8.50000000E-01  8.50000000E-01  8.50000000E-01
  8.50000000E-01  8.50000000E-01  8.50000000E-01  8.50000000E-01  8.50000000E-01
  8.50000000E-01  8.50000000E-01  8.50000000E-01  8.50000000E-01  8.50000000E-01
  8.50000000E-01  8.50000000E-01  8.50000000E-01  8.50000000E-01  8.50000000E-01
  8.50000000E-01  8.50000000E-01  8.50000000E-01  8.50000000E-01  8.50000000E-01
  8.50000000E-01  8.50000000E-01  8.50000000E-01  8.50000000E-01  8.50000000E-01
  8.50000000E-01  8.50000000E-01  8.50000000E-01  8.50000000E-01  8.50000000E-01
  8.50000000E-01  8.50000000E-01  8.50000000E-01  8.50000000E-01  8.50000000E-01
  8.50000000E-01  8.50000000E-01  8.50000000E-01  8.50000000E-01  8.50000000E-01
  8.50000000E-01  8.50000000E-01  8.50000000E-01  8.50000000E-01  8.50000000E-01
  8.50000000E-01  8.50000000E-01  8.50000000E-01  8.50000000E-01  8.50000000E-01
  8.50000000E-01  8.50000000E-01  8.50000000E-01  8.50000000E-01  8.50000000E-01
  8.50000000E-01  8.50000000E-01  8.50000000E-01  8.50000000E-01  8.50000000E-01
  8.50000000E-01  8.50000000E-01  8.50000000E-01  8.50000000E-01  8.50000000E-01
  8.50000000E-01  8.50000000E-01  8.50000000E-01  8.50000000E-01  8.50000000E-01
  8.50000000E-01  8.50000000E-01  8.50000000E-01  8.50000000E-01  8.50000000E-01
  8.50000000E-01  8.50000000E-01  8.50000000E-01  8.50000000E-01  8.50000000E-01
  8.50000000E-01  8.50000000E-01  8.50000000E-01  8.50000000E-01  8.50000000E-01
  8.50000000E-01  8.50000000E-01  8.50000000E-01  8.50000000E-01  8.50000000E-01
  8.50000000E-01  8.50000000E-01  8.50000000E-01  8.50000000E-01  8.50000000E-01
  8.50000000E-01  8.50000000E-01  8.50000000E-01  8.50000000E-01  8.50000000E-01
  8.50000000E-01  8.50000000E-01  8.50000000E-01  8.50000000E-01  8.50000000E-01
  8.50000000E-01  8.50000000E-01  8.50000000E-01  8.50000000E-01  8.50000000E-01
  8.50000000E-01  8.50000000E-01  8.50000000E-01  8.50000000E-01  8.50000000E-01
  8.50000000E-01  8.50000000E-01  8.50000000E-01  8.50000000E-01  8.50000000E-01
  8.50000000E-01  8.50000000E-01  8.50000000E-01  8.50000000E-01  8.50000000E-01
  8.50000000E-01  8.50000000E-01  8.50000000E-01  8.50000000E-01  8.50000000E-01
  8.50000000E-01  8.50000000E-01  8.50000000E-01  8.50000000E-01  8.50000000E-01
  8.50000000E-01  8.50000000E-01  8.50000000E-01  8.50000000E-01  8.50000000E-01
  8.50000000E-01  8.50000000E-01  8.50000000E-01  8.50000000E-01  8.50000000E-01
  8.50000000E-01  8.50000000E-01  8.50000000E-01  8.50000000E-01  8.50000000E-01
  8.50000000E-01  8.50000000E-01  8.50000000E-01  8.50000000E-01  8.50000000E-01
  8.50000000E-01  8.50000000E-01  8.50000000E-01  8.50000000E-01  8.50000000E-01
  8.50000000E-01  8.50000000E-01  8.50000000E-01  8.50000000E-01  8.50000000E-01
  8.50000000E-01  8.50000000E-01  8.50000000E-01  8.50000000E-01  8.50000000E-01
  8.50000000E-01  8.50000000E-01  8.50000000E-01  8.50000000E-01  8.50000000E-01
  8.50000000E-01  8.50000000E-01  8.50000000E-01  8.50000000E-01  8.50000000E-01
  8.50000000E-01  8.50000000E-01  8.50000000E-01  8.50000000E-01  8.50000000E-01
  8.50000000E-01  8.50000000E-01  8.50000000E-01  8.50000000E-01  8.50000000E-01
  8.50000000E-01  8.50000000E-01  8.50000000E-01  8.50000000E-01  8.50000000E-01
  8.50000000E-01  8.50000000E-01  8.50000000E-01  8.50000000E-01  8.50000000E-01
  8.50000000E-01  8.50000000E-01  8.50000000E-01  8.50000000E-01  8.50000000E-01
  8.50000000E-01  8.50000000E-01  8.50000000E-01  8.50000000E-01  8.50000000E-01
  8.50000000E-01  8.50000000E-01  8.50000000E-01  8.50000000E-01  8.50000000E-01
  8.50000000E-01  8.50000000E-01  8.50000000E-01  8.50000000E-01  8.50000000E-01
  8.50000000E-01  8.50000000E-01  8.50000000E-01  8.50000000E-01  8.50000000E-01
  8.50000000E-01  8.50000000E-01  8.50000000E-01  8.50000000E-01  8.50000000E-01
  8.50000000E-01  8.50000000E-01  8.50000000E-01  8.50000000E-01  8.50000000E-01
  8.50000000E-01  8.50000000E-01  8.50000000E-01  8.50000000E-01  8.50000000E-01
  8.50000000E-01  8.50000000E-01  8.50000000E-01  8.50000000E-01  8.50000000E-01
  8.50000000E-01  8.50000000E-01  8.50000000E-01  8.50000000E-01  8.50000000E-01
  8.50000000E-01  8.50000000E-01  8.50000000E-01  8.50000000E-01  8.50000000E-01
  8.50000000E-01  8.50000000E-01  8.50000000E-01  8.50000000E-01  8.50000000E-01
  8.50000000E-01  8.50000000E-01  8.50000000E-01  8.50000000E-01  8.50000000E-01
  8.50000000E-01  8.50000000E-01  8.50000000E-01  8.50000000E-01  8.50000000E-01
  8.50000000E-01  8.50000000E-01  8.50000000E-01  8.50000000E-01  8.50000000E-01
  8.50000000E-01  8.50000000E-01  8.50000000E-01  8.50000000E-01  8.50000000E-01
  8.50000000E-01  8.50000000E-01  8.50000000E-01  8.50000000E-01  8.50000000E-01
  8.50000000E-01  8.50000000E-01  8.50000000E-01  8.50000000E-01  8.50000000E-01
  8.50000000E-01  8.50000000E-01  8.50000000E-01  8.50000000E-01  8.50000000E-01
  8.50000000E-01  8.50000000E-01  8.50000000E-01  8.50000000E-01  8.50000000E-01
  8.50000000E-01  8.50000000E-01  8.50000000E-01  8.50000000E-01  8.50000000E-01
  8.50000000E-01  8.50000000E-01  8.50000000E-01  8.50000000E-01  8.50000000E-01
  8.50000000E-01  8.50000000E-01  8.50000000E-01  8.50000000E-01  8.50000000E-01
  8.50000000E-01  8.50000000E-01  8.50000000E-01  8.50000000E-01  8.50000000E-01
  8.50000000E-01  8.50000000E-01  8.50000000E-01  8.50000000E-01  8.50000000E-01
  8.50000000E-01  8.50000000E-01  8.50000000E-01  8.50000000E-01  8.50000000E-01
  8.50000000E-01  8.50000000E-01  8.50000000E-01  8.50000000E-01  8.50000000E-01
  8.50000000E-01  8.50000000E-01  8.50000000E-01  8.50000000E-01  8.50000000E-01
  8.50000000E-01  8.50000000E-01  8.50000000E-01  8.50000000E-01  8.50000000E-01
  8.50000000E-01  8.50000000E-01  8.50000000E-01  8.50000000E-01  8.50000000E-01
  8.50000000E-01  8.50000000E-01  8.50000000E-01  8.50000000E-01  8.50000000E-01
  8.50000000E-01  8.50000000E-01  8.50000000E-01  8.50000000E-01  8.50000000E-01
  8.50000000E-01  8.50000000E-01  8.50000000E-01  8.50000000E-01  8.50000000E-01
  8.50000000E-01  8.50000000E-01  8.50000000E-01  8.50000000E-01  8.50000000E-01
  8.50000000E-01  8.50000000E-01  8.50000000E-01  8.50000000E-01  8.50000000E-01
  8.50000000E-01  8.50000000E-01  8.50000000E-01  8.50000000E-01  8.50000000E-01
  8.50000000E-01  8.50000000E-01  8.50000000E-01  8.50000000E-01  8.50000000E-01
  8.50000000E-01  8.50000000E-01  8.50000000E-01  8.50000000E-01  8.50000000E-01
  8.50000000E-01  8.50000000E-01  8.50000000E-01  8.50000000E-01  8.50000000E-01
  8.50000000E-01  8.50000000E-01  8.50000000E-01  8.50000000E-01  8.50000000E-01
  8.50000000E-01  8.50000000E-01  8.50000000E-01  8.50000000E-01  8.50000000E-01
  8.50000000E-01  8.50000000E-01  8.50000000E-01  8.50000000E-01  8.50000000E-01
  8.50000000E-01  8.50000000E-01  8.50000000E-01  8.50000000E-01  8.50000000E-01
  8.50000000E-01  8.50000000E-01  8.50000000E-01  8.50000000E-01  8.50000000E-01
  8.50000000E-01  8.50000000E-01  8.50000000E-01  8.50000000E-01  8.50000000E-01
  8.50000000E-01  8.50000000E-01  8.50000000E-01  8.50000000E-01  8.50000000E-01
  8.50000000E-01  8.50000000E-01  8.50000000E-01  8.50000000E-01  8.50000000E-01
  8.50000000E-01  8.50000000E-01  8.50000000E-01  8.50000000E-01  8.50000000E-01
  8.50000000E-01  8.50000000E-01  8.50000000E-01  8.50000000E-01  8.50000000E-01
  8.50000000E-01  8.50000000E-01  8.50000000E-01  8.50000000E-01  8.50000000E-01
  8.50000000E-01  8.50000000E-01  8.50000000E-01  8.50000000E-01  8.50000000E-01
  8.50000000E-01  8.50000000E-01  8.50000000E-01  8.50000000E-01  8.50000000E-01
  8.50000000E-01  8.50000000E-01  8.50000000E-01  8.50000000E-01  8.50000000E-01
  8.50000000E-01  8.50000000E-01  8.50000000E-01  8.50000000E-01  8.50000000E-01
  8.50000000E-01  8.50000000E-01  8.50000000E-01  8.50000000E-01  8.50000000E-01
  8.50000000E-01  8.50000000E-01  8.50000000E-01  8.50000000E-01  8.50000000E-01
  8.50000000E-01  8.50000000E-01  8.50000000E-01  8.50000000E-01  8.50000000E-01
  8.50000000E-01  8.50000000E-01  8.50000000E-01  8.50000000E-01  8.50000000E-01
  8.50000000E-01  8.50000000E-01  8.50000000E-01  8.50000000E-01  8.50000000E-01
  8.50000000E-01  8.50000000E-01  8.50000000E-01  8.50000000E-01  8.50000000E-01
  8.50000000E-01  8.50000000E-01  8.50000000E-01  8.50000000E-01  8.50000000E-01
  8.50000000E-01  8.50000000E-01  8.50000000E-01  8.50000000E-01  8.50000000E-01
  8.50000000E-01  8.50000000E-01  8.50000000E-01  8.50000000E-01  8.50000000E-01
  8.50000000E-01  8.50000000E-01  8.50000000E-01  8.50000000E-01  8.50000000E-01
  8.50000000E-01  8.50000000E-01  8.50000000E-01  8.50000000E-01  8.50000000E-01
  8.50000000E-01  8.50000000E-01  8.50000000E-01  8.50000000E-01  8.50000000E-01
  8.50000000E-01  8.50000000E-01  8.50000000E-01  8.50000000E-01  8.50000000E-01
  8.50000000E-01  8.50000000E-01  8.50000000E-01  8.50000000E-01  8.50000000E-01
  8.50000000E-01  8.50000000E-01  8.50000000E-01  8.50000000E-01  8.50000000E-01
  8.50000000E-01  8.50000000E-01  8.50000000E-01  8.50000000E-01  8.50000000E-01
  8.50000000E-01  8.50000000E-01  8.50000000E-01  8.50000000E-01  8.50000000E-01
  8.50000000E-01  8.50000000E-01  8.50000000E-01  8.50000000E-01  8.50000000E-01
  8.50000000E-01  8.50000000E-01  8.50000000E-01  8.50000000E-01  8.50000000E-01
  8.50000000E-01  8.50000000E-01  8.50000000E-01  8.50000000E-01  8.50000000E-01
  8.50000000E-01  8.50000000E-01  8.50000000E-01  8.50000000E-01  8.50000000E-01
  8.50000000E-01  8.50000000E-01  8.50000000E-01  8.50000000E-01  8.50000000E-01
  8.50000000E-01  8.50000000E-01  8.50000000E-01  8.50000000E-01  8.50000000E-01
  8.50000000E-01  8.50000000E-01  8.50000000E-01  8.50000000E-01  8.50000000E-01
  8.50000000E-01  8.50000000E-01  8.50000000E-01  8.50000000E-01  8.50000000E-01
  8.50000000E-01  8.50000000E-01  8.50000000E-01  8.50000000E-01  8.50000000E-01
  8.50000000E-01  8.50000000E-01  8.50000000E-01  8.50000000E-01  8.50000000E-01
  8.50000000E-01  8.50000000E-01  8.50000000E-01  8.50000000E-01  8.50000000E-01
  8.50000000E-01  8.50000000E-01  8.50000000E-01  8.50000000E-01  8.50000000E-01
  8.50000000E-01  8.50000000E-01  8.50000000E-01  8.50000000E-01  8.50000000E-01
  8.50000000E-01  8.50000000E-01  8.50000000E-01  8.50000000E-01  8.50000000E-01
  8.50000000E-01  8.50000000E-01  8.50000000E-01  8.50000000E-01  8.50000000E-01
  8.50000000E-01  8.50000000E-01  8.50000000E-01  8.50000000E-01  8.50000000E-01
  8.50000000E-01  8.50000000E-01  8.50000000E-01  8.50000000E-01  8.50000000E-01
  8.50000000E-01  8.50000000E-01  8.50000000E-01  8.50000000E-01  8.50000000E-01
  8.50000000E-01  8.50000000E-01  8.50000000E-01  8.50000000E-01  8.50000000E-01
  8.50000000E-01  8.50000000E-01  8.50000000E-01  8.50000000E-01  8.50000000E-01
  8.50000000E-01  8.50000000E-01  8.50000000E-01  8.50000000E-01  8.50000000E-01
  8.50000000E-01  8.50000000E-01  8.50000000E-01  8.50000000E-01  8.50000000E-01
  8.50000000E-01  8.50000000E-01  8.50000000E-01  8.50000000E-01  8.50000000E-01
  8.50000000E-01  8.50000000E-01  8.50000000E-01  8.50000000E-01  8.50000000E-01
  8.50000000E-01  8.50000000E-01  8.50000000E-01  8.50000000E-01  8.50000000E-01
  8.50000000E-01  8.50000000E-01  8.50000000E-01  8.50000000E-01  8.50000000E-01
  8.50000000E-01  8.50000000E-01  8.50000000E-01  8.50000000E-01  8.50000000E-01
  8.50000000E-01  8.50000000E-01  8.50000000E-01  8.50000000E-01  8.50000000E-01
  8.50000000E-01  8.50000000E-01  8.50000000E-01  8.50000000E-01  8.50000000E-01
  8.50000000E-01  8.50000000E-01  8.50000000E-01  8.50000000E-01  8.50000000E-01
  8.50000000E-01  8.50000000E-01  8.50000000E-01  8.50000000E-01  8.50000000E-01
  8.50000000E-01  8.50000000E-01  8.50000000E-01  8.50000000E-01  8.50000000E-01
  8.50000000E-01  8.50000000E-01  8.50000000E-01  8.50000000E-01  8.50000000E-01
  8.50000000E-01  8.50000000E-01  8.50000000E-01  8.50000000E-01  8.50000000E-01
  8.50000000E-01  8.50000000E-01  8.50000000E-01  8.50000000E-01  8.50000000E-01
  8.50000000E-01  8.50000000E-01  8.50000000E-01  8.50000000E-01  8.50000000E-01
  8.50000000E-01  8.50000000E-01  8.50000000E-01  8.50000000E-01  8.50000000E-01
  8.50000000E-01  8.50000000E-01  8.50000000E-01  8.50000000E-01  8.50000000E-01
  8.50000000E-01  8.50000000E-01  8.50000000E-01  8.50000000E-01  8.50000000E-01
  8.50000000E-01  8.50000000E-01  8.50000000E-01  8.50000000E-01  8.50000000E-01
  8.50000000E-01  8.50000000E-01  8.50000000E-01  8.50000000E-01  8.50000000E-01
  8.50000000E-01  8.50000000E-01  8.50000000E-01  8.50000000E-01  8.50000000E-01
  8.50000000E-01  8.50000000E-01  8.50000000E-01  8.50000000E-01  8.50000000E-01
  8.50000000E-01  8.50000000E-01  8.50000000E-01  8.50000000E-01  8.50000000E-01
  8.50000000E-01  8.50000000E-01  8.50000000E-01  8.50000000E-01  8.50000000E-01
  8.50000000E-01  8.50000000E-01  8.50000000E-01  8.50000000E-01  8.50000000E-01
  8.50000000E-01  8.50000000E-01  8.50000000E-01  8.50000000E-01  8.50000000E-01
  8.50000000E-01  8.50000000E-01  8.50000000E-01  8.50000000E-01  8.50000000E-01
  8.50000000E-01  8.50000000E-01  8.50000000E-01  8.50000000E-01  8.50000000E-01
  8.50000000E-01  8.50000000E-01  8.50000000E-01  8.50000000E-01  8.50000000E-01
  8.50000000E-01  8.50000000E-01  8.50000000E-01  8.50000000E-01  8.50000000E-01
  8.50000000E-01  8.50000000E-01  8.50000000E-01  8.50000000E-01  8.50000000E-01
  8.50000000E-01  8.50000000E-01  8.50000000E-01  8.50000000E-01  8.50000000E-01
  8.50000000E-01  8.50000000E-01  8.50000000E-01  8.50000000E-01  8.50000000E-01
  8.50000000E-01  8.50000000E-01  8.50000000E-01  8.50000000E-01  8.50000000E-01
  8.50000000E-01  8.50000000E-01  8.50000000E-01  8.50000000E-01  8.50000000E-01
  8.50000000E-01  8.50000000E-01  8.50000000E-01  8.50000000E-01  8.50000000E-01
  8.50000000E-01  8.50000000E-01  8.50000000E-01  8.50000000E-01  8.50000000E-01
  8.50000000E-01  8.50000000E-01  8.50000000E-01  8.50000000E-01  8.50000000E-01
  8.50000000E-01  8.50000000E-01  8.50000000E-01  8.50000000E-01  8.50000000E-01
  8.50000000E-01  8.50000000E-01  8.50000000E-01  8.50000000E-01  8.50000000E-01
  8.50000000E-01  8.50000000E-01  8.50000000E-01  8.50000000E-01  8.50000000E-01
  8.50000000E-01  8.50000000E-01  8.50000000E-01  8.50000000E-01  8.50000000E-01
  8.50000000E-01  8.50000000E-01  8.50000000E-01  8.50000000E-01  8.50000000E-01
  8.50000000E-01  8.50000000E-01  8.50000000E-01  8.50000000E-01  8.50000000E-01
  8.50000000E-01  8.50000000E-01  8.50000000E-01  8.50000000E-01  8.50000000E-01
  8.50000000E-01  8.50000000E-01  8.50000000E-01  8.50000000E-01  8.50000000E-01
  8.50000000E-01  8.50000000E-01  8.50000000E-01  8.50000000E-01  8.50000000E-01
  8.50000000E-01  8.50000000E-01  8.50000000E-01  8.50000000E-01  8.50000000E-01
  8.50000000E-01  8.50000000E-01  8.50000000E-01  8.50000000E-01  8.50000000E-01
  8.50000000E-01  8.50000000E-01  8.50000000E-01  8.50000000E-01  8.50000000E-01
  8.50000000E-01  8.50000000E-01  8.50000000E-01  8.50000000E-01  8.50000000E-01
  8.50000000E-01  8.50000000E-01  8.50000000E-01  8.50000000E-01  8.50000000E-01
  8.50000000E-01  8.50000000E-01  8.50000000E-01  8.50000000E-01  8.50000000E-01
  8.50000000E-01  8.50000000E-01  8.50000000E-01  8.50000000E-01  8.50000000E-01
  8.50000000E-01  8.50000000E-01  8.50000000E-01  8.50000000E-01  8.50000000E-01
  8.50000000E-01  8.50000000E-01  8.50000000E-01  8.50000000E-01  8.50000000E-01
  8.50000000E-01  8.50000000E-01  8.50000000E-01  8.50000000E-01  8.50000000E-01
  8.50000000E-01  8.50000000E-01  8.50000000E-01  8.50000000E-01  8.50000000E-01
  8.50000000E-01  8.50000000E-01  8.50000000E-01  8.50000000E-01  8.50000000E-01
  8.50000000E-01  8.50000000E-01  8.50000000E-01  8.50000000E-01  8.50000000E-01
  8.50000000E-01  8.50000000E-01  8.50000000E-01  8.50000000E-01  8.50000000E-01
  8.50000000E-01  8.50000000E-01  8.50000000E-01  8.50000000E-01  8.50000000E-01
  8.50000000E-01  8.50000000E-01  8.50000000E-01  8.50000000E-01  8.50000000E-01
  8.50000000E-01  8.50000000E-01  8.50000000E-01  8.50000000E-01  8.50000000E-01
  8.50000000E-01  8.50000000E-01  8.50000000E-01  8.50000000E-01  8.50000000E-01
  8.50000000E-01  8.50000000E-01  8.50000000E-01  8.50000000E-01  8.50000000E-01
  8.50000000E-01  8.50000000E-01  8.50000000E-01  8.50000000E-01  8.50000000E-01
  8.50000000E-01  8.50000000E-01  8.50000000E-01  8.50000000E-01  8.50000000E-01
  8.50000000E-01  8.50000000E-01  8.50000000E-01  8.50000000E-01  8.50000000E-01
  8.50000000E-01  8.50000000E-01  8.50000000E-01  8.50000000E-01  8.50000000E-01
  8.50000000E-01  8.50000000E-01  8.50000000E-01  8.50000000E-01  8.50000000E-01
  8.50000000E-01  8.50000000E-01  8.50000000E-01  8.50000000E-01  8.50000000E-01
  8.50000000E-01  8.50000000E-01  8.50000000E-01  8.50000000E-01  8.50000000E-01
  8.50000000E-01  8.50000000E-01  8.50000000E-01  8.50000000E-01  8.50000000E-01
  8.50000000E-01  8.50000000E-01  8.50000000E-01  8.50000000E-01  8.50000000E-01
  8.50000000E-01  8.50000000E-01  8.50000000E-01  8.50000000E-01  8.50000000E-01
  8.50000000E-01  8.50000000E-01  8.50000000E-01  8.50000000E-01  8.50000000E-01
  8.50000000E-01  8.50000000E-01  8.50000000E-01  8.50000000E-01  8.50000000E-01
  8.50000000E-01  8.50000000E-01  8.50000000E-01  8.50000000E-01  8.50000000E-01
  8.50000000E-01  8.50000000E-01  8.50000000E-01  8.50000000E-01  8.50000000E-01
  8.50000000E-01  8.50000000E-01  8.50000000E-01  8.50000000E-01  8.50000000E-01
  8.50000000E-01  8.50000000E-01  8.50000000E-01  8.50000000E-01  8.50000000E-01
  8.50000000E-01  8.50000000E-01  8.50000000E-01  8.50000000E-01  8.50000000E-01
  8.50000000E-01  8.50000000E-01  8.50000000E-01  8.50000000E-01  8.50000000E-01
  8.50000000E-01  8.50000000E-01  8.50000000E-01  8.50000000E-01  8.50000000E-01
  8.50000000E-01  8.50000000E-01  8.50000000E-01  8.50000000E-01  8.50000000E-01
  8.50000000E-01  8.50000000E-01  8.50000000E-01  8.50000000E-01  8.50000000E-01
  8.50000000E-01  8.50000000E-01  8.50000000E-01  8.50000000E-01  8.50000000E-01
  8.50000000E-01  8.50000000E-01  8.50000000E-01  8.50000000E-01  8.50000000E-01
  8.50000000E-01  8.50000000E-01  8.50000000E-01  8.50000000E-01  8.50000000E-01
  8.50000000E-01  8.50000000E-01  8.50000000E-01  8.50000000E-01  8.50000000E-01
  8.50000000E-01  8.50000000E-01  8.50000000E-01  8.50000000E-01  8.50000000E-01
  8.50000000E-01  8.50000000E-01  8.50000000E-01  8.50000000E-01  8.50000000E-01
  8.50000000E-01  8.50000000E-01  8.50000000E-01  8.50000000E-01  8.50000000E-01
  8.50000000E-01  8.50000000E-01  8.50000000E-01  8.50000000E-01  8.50000000E-01
  8.50000000E-01  8.50000000E-01  8.50000000E-01  8.50000000E-01  8.50000000E-01
  8.50000000E-01  8.50000000E-01  8.50000000E-01  8.50000000E-01  8.50000000E-01
  8.50000000E-01  8.50000000E-01  8.50000000E-01  8.50000000E-01  8.50000000E-01
  8.50000000E-01  8.50000000E-01  8.50000000E-01  8.50000000E-01  8.50000000E-01
  8.50000000E-01  8.50000000E-01  8.50000000E-01  8.50000000E-01  8.50000000E-01
  8.50000000E-01  8.50000000E-01  8.50000000E-01  8.50000000E-01  8.50000000E-01
  8.50000000E-01  8.50000000E-01  8.50000000E-01  8.50000000E-01  8.50000000E-01
  8.50000000E-01  8.50000000E-01  8.50000000E-01  8.50000000E-01  8.50000000E-01
  8.50000000E-01  8.50000000E-01  8.50000000E-01  8.50000000E-01  8.50000000E-01
  8.50000000E-01  8.50000000E-01  8.50000000E-01  8.50000000E-01  8.50000000E-01
  8.50000000E-01  8.50000000E-01  8.50000000E-01  8.50000000E-01  8.50000000E-01
  8.50000000E-01  8.50000000E-01  8.50000000E-01  8.50000000E-01  8.50000000E-01
  8.50000000E-01  8.50000000E-01  8.50000000E-01  8.50000000E-01  8.50000000E-01
  8.50000000E-01  8.50000000E-01  8.50000000E-01  8.50000000E-01  8.50000000E-01
  8.50000000E-01  8.50000000E-01  8.50000000E-01  8.50000000E-01  8.50000000E-01
  8.50000000E-01  8.50000000E-01  8.50000000E-01  8.50000000E-01  8.50000000E-01
  8.50000000E-01  8.50000000E-01  8.50000000E-01  8.50000000E-01  8.50000000E-01
  8.50000000E-01  8.50000000E-01  8.50000000E-01  8.50000000E-01  8.50000000E-01
  8.50000000E-01  8.50000000E-01  8.50000000E-01  8.50000000E-01  8.50000000E-01
  8.50000000E-01  8.50000000E-01  8.50000000E-01  8.50000000E-01  8.50000000E-01
  8.50000000E-01  8.50000000E-01  8.50000000E-01  8.50000000E-01  8.50000000E-01
  8.50000000E-01  8.50000000E-01  8.50000000E-01  8.50000000E-01  8.50000000E-01
  8.50000000E-01  8.50000000E-01  8.50000000E-01  8.50000000E-01  8.50000000E-01
  8.50000000E-01  8.50000000E-01  8.50000000E-01  8.50000000E-01  8.50000000E-01
  8.50000000E-01  8.50000000E-01  8.50000000E-01  8.50000000E-01  8.50000000E-01
  8.50000000E-01  8.50000000E-01  8.50000000E-01  8.50000000E-01  8.50000000E-01
  8.50000000E-01  8.50000000E-01  8.50000000E-01  8.50000000E-01  8.50000000E-01
  8.50000000E-01  8.50000000E-01  8.50000000E-01  8.50000000E-01  8.50000000E-01
  8.50000000E-01  8.50000000E-01  8.50000000E-01  8.50000000E-01  8.50000000E-01
  8.50000000E-01  8.50000000E-01  8.50000000E-01  8.50000000E-01  8.50000000E-01
  8.50000000E-01  8.50000000E-01  8.50000000E-01  8.50000000E-01  8.50000000E-01
  8.50000000E-01  8.50000000E-01  8.50000000E-01  8.50000000E-01  8.50000000E-01
  8.50000000E-01  8.50000000E-01  8.50000000E-01  8.50000000E-01  8.50000000E-01
  8.50000000E-01  8.50000000E-01  8.50000000E-01  8.50000000E-01  8.50000000E-01
  8.50000000E-01  8.50000000E-01  8.50000000E-01  8.50000000E-01  8.50000000E-01
  8.50000000E-01  8.50000000E-01  8.50000000E-01  8.50000000E-01  8.50000000E-01
  8.50000000E-01  8.50000000E-01  8.50000000E-01  8.50000000E-01  8.50000000E-01
  8.50000000E-01  8.50000000E-01  8.50000000E-01  8.50000000E-01  8.50000000E-01
  8.50000000E-01  8.50000000E-01  8.50000000E-01  8.50000000E-01  8.50000000E-01
  8.50000000E-01  8.50000000E-01  8.50000000E-01  8.50000000E-01  8.50000000E-01
  8.50000000E-01  8.50000000E-01  8.50000000E-01  8.50000000E-01  8.50000000E-01
  8.50000000E-01  8.50000000E-01  8.50000000E-01  8.50000000E-01  8.50000000E-01
  8.50000000E-01  8.50000000E-01  8.50000000E-01  8.50000000E-01  8.50000000E-01
  8.50000000E-01  8.50000000E-01  8.50000000E-01  8.50000000E-01  8.50000000E-01
  8.50000000E-01  8.50000000E-01  8.50000000E-01  8.50000000E-01  8.50000000E-01
  8.50000000E-01  8.50000000E-01  8.50000000E-01  8.50000000E-01  8.50000000E-01
  8.50000000E-01  8.50000000E-01  8.50000000E-01  8.50000000E-01  8.50000000E-01
  8.50000000E-01  8.50000000E-01  8.50000000E-01  8.50000000E-01  8.50000000E-01
  8.50000000E-01  8.50000000E-01  8.50000000E-01  8.50000000E-01  8.50000000E-01
  8.50000000E-01  8.50000000E-01  8.50000000E-01  8.50000000E-01  8.50000000E-01
  8.50000000E-01  8.50000000E-01  8.50000000E-01  8.50000000E-01  8.50000000E-01
  8.50000000E-01  8.50000000E-01  8.50000000E-01  8.50000000E-01  8.50000000E-01
  8.50000000E-01  8.50000000E-01  8.50000000E-01  8.50000000E-01  8.50000000E-01
  8.50000000E-01  8.50000000E-01  8.50000000E-01  8.50000000E-01  8.50000000E-01
  8.50000000E-01  8.50000000E-01  8.50000000E-01  8.50000000E-01  8.50000000E-01
  8.50000000E-01  8.50000000E-01  8.50000000E-01  8.50000000E-01  8.50000000E-01
  8.50000000E-01  8.50000000E-01  8.50000000E-01  8.50000000E-01  8.50000000E-01
  8.50000000E-01  8.50000000E-01  8.50000000E-01  8.50000000E-01  8.50000000E-01
  8.50000000E-01  8.50000000E-01  8.50000000E-01  8.50000000E-01  8.50000000E-01
  8.50000000E-01  8.50000000E-01  8.50000000E-01  8.50000000E-01  8.50000000E-01
  8.50000000E-01  8.50000000E-01  8.50000000E-01  8.50000000E-01  8.50000000E-01
  8.50000000E-01  8.50000000E-01  8.50000000E-01  8.50000000E-01  8.50000000E-01
  8.50000000E-01  8.50000000E-01  8.50000000E-01  8.50000000E-01  8.50000000E-01
  8.50000000E-01  8.50000000E-01  8.50000000E-01  8.50000000E-01  8.50000000E-01
  8.50000000E-01  8.50000000E-01  8.50000000E-01  8.50000000E-01  8.50000000E-01
  8.50000000E-01  8.50000000E-01  8.50000000E-01  8.50000000E-01  8.50000000E-01
  8.50000000E-01  8.50000000E-01  8.50000000E-01  8.50000000E-01  8.50000000E-01
  8.50000000E-01  8.50000000E-01  8.50000000E-01  8.50000000E-01  8.50000000E-01
  8.50000000E-01  8.50000000E-01  8.50000000E-01  8.50000000E-01  8.50000000E-01
  8.50000000E-01  8.50000000E-01  8.50000000E-01  8.50000000E-01  8.50000000E-01
  8.50000000E-01  8.50000000E-01  8.50000000E-01  8.50000000E-01  8.50000000E-01
  8.50000000E-01  8.50000000E-01  8.50000000E-01  8.50000000E-01  8.50000000E-01
  8.50000000E-01  8.50000000E-01  8.50000000E-01  8.50000000E-01  8.50000000E-01
  8.50000000E-01  8.50000000E-01  8.50000000E-01  8.50000000E-01  8.50000000E-01
  8.50000000E-01  8.50000000E-01  8.50000000E-01  8.50000000E-01  8.50000000E-01
  8.50000000E-01  8.50000000E-01  8.50000000E-01  8.50000000E-01  8.50000000E-01
  8.50000000E-01  8.50000000E-01  8.50000000E-01  8.50000000E-01  8.50000000E-01
  8.50000000E-01  8.50000000E-01  8.50000000E-01  8.50000000E-01  8.50000000E-01
  8.50000000E-01  8.50000000E-01  8.50000000E-01  8.50000000E-01  8.50000000E-01
  8.50000000E-01  8.50000000E-01  8.50000000E-01  8.50000000E-01  8.50000000E-01
  8.50000000E-01  8.50000000E-01  8.50000000E-01  8.50000000E-01  8.50000000E-01
  8.50000000E-01  8.50000000E-01  8.50000000E-01  8.50000000E-01  8.50000000E-01
  8.50000000E-01  8.50000000E-01  8.50000000E-01  8.50000000E-01  8.50000000E-01
  8.50000000E-01  8.50000000E-01  8.50000000E-01  8.50000000E-01  8.50000000E-01
  8.50000000E-01  8.50000000E-01  8.50000000E-01  8.50000000E-01  8.50000000E-01
  8.50000000E-01  8.50000000E-01  8.50000000E-01  8.50000000E-01  8.50000000E-01
  8.50000000E-01  8.50000000E-01  8.50000000E-01  8.50000000E-01  8.50000000E-01
  8.50000000E-01  8.50000000E-01  8.50000000E-01  8.50000000E-01  8.50000000E-01
  8.50000000E-01  8.50000000E-01  8.50000000E-01  8.50000000E-01  8.50000000E-01
  8.50000000E-01  8.50000000E-01  8.50000000E-01  8.50000000E-01  8.50000000E-01
  8.50000000E-01  8.50000000E-01  8.50000000E-01  8.50000000E-01  8.50000000E-01
  8.50000000E-01  8.50000000E-01  8.50000000E-01  8.50000000E-01  8.50000000E-01
  8.50000000E-01  8.50000000E-01  8.50000000E-01  8.50000000E-01  8.50000000E-01
  8.50000000E-01  8.50000000E-01  8.50000000E-01  8.50000000E-01  8.50000000E-01
  8.50000000E-01  8.50000000E-01  8.50000000E-01  8.50000000E-01  8.50000000E-01
  8.50000000E-01  8.50000000E-01  8.50000000E-01  8.50000000E-01  8.50000000E-01
  8.50000000E-01  8.50000000E-01  8.50000000E-01  8.50000000E-01  8.50000000E-01
  8.50000000E-01  8.50000000E-01  8.50000000E-01  8.50000000E-01  8.50000000E-01
  8.50000000E-01  8.50000000E-01  8.50000000E-01  8.50000000E-01  8.50000000E-01
  8.50000000E-01  8.50000000E-01  8.50000000E-01  8.50000000E-01  8.50000000E-01
  8.50000000E-01  8.50000000E-01  8.50000000E-01  8.50000000E-01  8.50000000E-01
  8.50000000E-01  8.50000000E-01  8.50000000E-01  8.50000000E-01  8.50000000E-01
  8.50000000E-01  8.50000000E-01  8.50000000E-01  8.50000000E-01  8.50000000E-01
  8.50000000E-01  8.50000000E-01  8.50000000E-01  8.50000000E-01  8.50000000E-01
  8.50000000E-01  8.50000000E-01  8.50000000E-01  8.50000000E-01  8.50000000E-01
  8.50000000E-01  8.50000000E-01  8.50000000E-01  8.50000000E-01  8.50000000E-01
  8.50000000E-01  8.50000000E-01  8.50000000E-01  8.50000000E-01  8.50000000E-01
  8.50000000E-01  8.50000000E-01  8.50000000E-01  8.50000000E-01  8.50000000E-01
  8.50000000E-01  8.50000000E-01  8.50000000E-01  8.50000000E-01  8.50000000E-01
  8.50000000E-01  8.50000000E-01  8.50000000E-01  8.50000000E-01  8.50000000E-01
  8.50000000E-01  8.50000000E-01  8.50000000E-01  8.50000000E-01  8.50000000E-01
  8.50000000E-01  8.50000000E-01  8.50000000E-01  8.50000000E-01  8.50000000E-01
  8.50000000E-01  8.50000000E-01  8.50000000E-01  8.50000000E-01  8.50000000E-01
  8.50000000E-01  8.50000000E-01  8.50000000E-01  8.50000000E-01  8.50000000E-01
  8.50000000E-01  8.50000000E-01  8.50000000E-01  8.50000000E-01  8.50000000E-01
  8.50000000E-01  8.50000000E-01  8.50000000E-01  8.50000000E-01  8.50000000E-01
  8.50000000E-01  8.50000000E-01  8.50000000E-01  8.50000000E-01  8.50000000E-01
  8.50000000E-01  8.50000000E-01  8.50000000E-01  8.50000000E-01  8.50000000E-01
  8.50000000E-01  8.50000000E-01  8.50000000E-01  8.50000000E-01  8.50000000E-01
  8.50000000E-01  8.50000000E-01  8.50000000E-01  8.50000000E-01  8.50000000E-01
  8.50000000E-01  8.50000000E-01  8.50000000E-01  8.50000000E-01  8.50000000E-01
  8.50000000E-01  8.50000000E-01  8.50000000E-01  8.50000000E-01  8.50000000E-01
  8.50000000E-01  8.50000000E-01  8.50000000E-01  8.50000000E-01  8.50000000E-01
  8.50000000E-01  8.50000000E-01  8.50000000E-01  8.50000000E-01  8.50000000E-01
  8.50000000E-01  8.50000000E-01  8.50000000E-01  8.50000000E-01  8.50000000E-01
  8.50000000E-01  8.50000000E-01  8.50000000E-01  8.50000000E-01  8.50000000E-01
  8.50000000E-01  8.50000000E-01  8.50000000E-01  8.50000000E-01  8.50000000E-01
  8.50000000E-01  8.50000000E-01  8.50000000E-01  8.50000000E-01  8.50000000E-01
  8.50000000E-01  8.50000000E-01  8.50000000E-01  8.50000000E-01  8.50000000E-01
  8.50000000E-01  8.50000000E-01  8.50000000E-01  8.50000000E-01  8.50000000E-01
  8.50000000E-01  8.50000000E-01  8.50000000E-01  8.50000000E-01  8.50000000E-01
  8.50000000E-01  8.50000000E-01  8.50000000E-01  8.50000000E-01  8.50000000E-01
  8.50000000E-01  8.50000000E-01  8.50000000E-01  8.50000000E-01  8.50000000E-01
  8.50000000E-01  8.50000000E-01  8.50000000E-01  8.50000000E-01  8.50000000E-01
  8.50000000E-01  8.50000000E-01  8.50000000E-01  8.50000000E-01  8.50000000E-01
  8.50000000E-01  8.50000000E-01  8.50000000E-01  8.50000000E-01  8.50000000E-01
  8.50000000E-01  8.50000000E-01  8.50000000E-01  8.50000000E-01  8.50000000E-01
  8.50000000E-01  8.50000000E-01  8.50000000E-01  8.50000000E-01  8.50000000E-01
  8.50000000E-01  8.50000000E-01  8.50000000E-01  8.50000000E-01  8.50000000E-01
  8.50000000E-01  8.50000000E-01  8.50000000E-01  8.50000000E-01  8.50000000E-01
  8.50000000E-01  8.50000000E-01  8.50000000E-01  8.50000000E-01  8.50000000E-01
  8.50000000E-01  8.50000000E-01  8.50000000E-01  8.50000000E-01  8.50000000E-01
  8.50000000E-01  8.50000000E-01  8.50000000E-01  8.50000000E-01  8.50000000E-01
  8.50000000E-01  8.50000000E-01  8.50000000E-01  8.50000000E-01  8.50000000E-01
  8.50000000E-01  8.50000000E-01  8.50000000E-01  8.50000000E-01  8.50000000E-01
  8.50000000E-01  8.50000000E-01  8.50000000E-01  8.50000000E-01  8.50000000E-01
  8.50000000E-01  8.50000000E-01  8.50000000E-01  8.50000000E-01  8.50000000E-01
  8.50000000E-01  8.50000000E-01  8.50000000E-01  8.50000000E-01  8.50000000E-01
  8.50000000E-01  8.50000000E-01  8.50000000E-01  8.50000000E-01  8.50000000E-01
  8.50000000E-01  8.50000000E-01  8.50000000E-01  8.50000000E-01  8.50000000E-01
  8.50000000E-01  8.50000000E-01  8.50000000E-01  8.50000000E-01  8.50000000E-01
  8.50000000E-01  8.50000000E-01  8.50000000E-01  8.50000000E-01  8.50000000E-01
  8.50000000E-01  8.50000000E-01  8.50000000E-01  8.50000000E-01  8.50000000E-01
  8.50000000E-01  8.50000000E-01  8.50000000E-01  8.50000000E-01  8.50000000E-01
  8.50000000E-01  8.50000000E-01  8.50000000E-01  8.50000000E-01  8.50000000E-01
  8.50000000E-01  8.50000000E-01  8.50000000E-01  8.50000000E-01  8.50000000E-01
  8.50000000E-01  8.50000000E-01  8.50000000E-01  8.50000000E-01  8.50000000E-01
  8.50000000E-01  8.50000000E-01  8.50000000E-01  8.50000000E-01  8.50000000E-01
  8.50000000E-01  8.50000000E-01  8.50000000E-01  8.50000000E-01  8.50000000E-01
  8.50000000E-01  8.50000000E-01  8.50000000E-01  8.50000000E-01  8.50000000E-01
  8.50000000E-01  8.50000000E-01  8.50000000E-01  8.50000000E-01  8.50000000E-01
  8.50000000E-01  8.50000000E-01  8.50000000E-01  8.50000000E-01  8.50000000E-01
  8.50000000E-01  8.50000000E-01  8.50000000E-01  8.50000000E-01  8.50000000E-01
  8.50000000E-01  8.50000000E-01  8.50000000E-01  8.50000000E-01  8.50000000E-01
  8.50000000E-01  8.50000000E-01  8.50000000E-01  8.50000000E-01  8.50000000E-01
  8.50000000E-01  8.50000000E-01  8.50000000E-01  8.50000000E-01  8.50000000E-01
  8.50000000E-01  8.50000000E-01  8.50000000E-01  8.50000000E-01  8.50000000E-01
  8.50000000E-01  8.50000000E-01  8.50000000E-01  8.50000000E-01  8.50000000E-01
  8.50000000E-01  8.50000000E-01  8.50000000E-01  8.50000000E-01  8.50000000E-01
  8.50000000E-01  8.50000000E-01  8.50000000E-01  8.50000000E-01  8.50000000E-01
  8.50000000E-01  8.50000000E-01  8.50000000E-01  8.50000000E-01  8.50000000E-01
  8.50000000E-01  8.50000000E-01  8.50000000E-01  8.50000000E-01  8.50000000E-01
  8.50000000E-01  8.50000000E-01  8.50000000E-01  8.50000000E-01  8.50000000E-01
  8.50000000E-01  8.50000000E-01  8.50000000E-01  8.50000000E-01  8.50000000E-01
  8.50000000E-01  8.50000000E-01  8.50000000E-01  8.50000000E-01  8.50000000E-01
  8.50000000E-01  8.50000000E-01  8.50000000E-01  8.50000000E-01  8.50000000E-01
  8.50000000E-01  8.50000000E-01  8.50000000E-01  8.50000000E-01  8.50000000E-01
  8.50000000E-01  8.50000000E-01  8.50000000E-01  8.50000000E-01  8.50000000E-01
  8.50000000E-01  8.50000000E-01  8.50000000E-01  8.50000000E-01  8.50000000E-01
  8.50000000E-01  8.50000000E-01  8.50000000E-01  8.50000000E-01  8.50000000E-01
  8.50000000E-01  8.50000000E-01  8.50000000E-01  8.50000000E-01  8.50000000E-01
  8.50000000E-01  8.50000000E-01  8.50000000E-01  8.50000000E-01  8.50000000E-01
  8.50000000E-01  8.50000000E-01  8.50000000E-01  8.50000000E-01  8.50000000E-01
  8.50000000E-01  8.50000000E-01  8.50000000E-01  8.50000000E-01  8.50000000E-01
  8.50000000E-01  8.50000000E-01  8.50000000E-01  8.50000000E-01  8.50000000E-01
  8.50000000E-01  8.50000000E-01  8.50000000E-01  8.50000000E-01  8.50000000E-01
  8.50000000E-01  8.50000000E-01  8.50000000E-01  8.50000000E-01  8.50000000E-01
  8.50000000E-01  8.50000000E-01  8.50000000E-01  8.50000000E-01  8.50000000E-01
  8.50000000E-01  8.50000000E-01  8.50000000E-01  8.50000000E-01  8.50000000E-01
  8.50000000E-01  8.50000000E-01  8.50000000E-01  8.50000000E-01  8.50000000E-01
  8.50000000E-01  8.50000000E-01  8.50000000E-01  8.50000000E-01  8.50000000E-01
  8.50000000E-01  8.50000000E-01  8.50000000E-01  8.50000000E-01  8.50000000E-01
  8.50000000E-01  8.50000000E-01  8.50000000E-01  8.50000000E-01  8.50000000E-01
  8.50000000E-01  8.50000000E-01  8.50000000E-01  8.50000000E-01  8.50000000E-01
  8.50000000E-01  8.50000000E-01  8.50000000E-01  8.50000000E-01  8.50000000E-01
  8.50000000E-01  8.50000000E-01  8.50000000E-01  8.50000000E-01  8.50000000E-01
  8.50000000E-01  8.50000000E-01  8.50000000E-01  8.50000000E-01  8.50000000E-01
  8.50000000E-01  8.50000000E-01  8.50000000E-01  8.50000000E-01  8.50000000E-01
  8.50000000E-01  8.50000000E-01  8.50000000E-01  8.50000000E-01  8.50000000E-01
  8.50000000E-01  8.50000000E-01  8.50000000E-01  8.50000000E-01  8.50000000E-01
  8.50000000E-01  8.50000000E-01  8.50000000E-01  8.50000000E-01  8.50000000E-01
  8.50000000E-01  8.50000000E-01  8.50000000E-01  8.50000000E-01  8.50000000E-01
  8.50000000E-01  8.50000000E-01  8.50000000E-01  8.50000000E-01  8.50000000E-01
  8.50000000E-01  8.50000000E-01  8.50000000E-01  8.50000000E-01  8.50000000E-01
  8.50000000E-01  8.50000000E-01  8.50000000E-01  8.50000000E-01  8.50000000E-01
  8.50000000E-01  8.50000000E-01  8.50000000E-01  8.50000000E-01  8.50000000E-01
  8.50000000E-01  8.50000000E-01  8.50000000E-01  8.50000000E-01  8.50000000E-01
  8.50000000E-01  8.50000000E-01  8.50000000E-01  8.50000000E-01  8.50000000E-01
  8.50000000E-01  8.50000000E-01  8.50000000E-01  8.50000000E-01  8.50000000E-01
  8.50000000E-01  8.50000000E-01  8.50000000E-01  8.50000000E-01  8.50000000E-01
  8.50000000E-01  8.50000000E-01  8.50000000E-01  8.50000000E-01  8.50000000E-01
  8.50000000E-01  8.50000000E-01  8.50000000E-01  8.50000000E-01  8.50000000E-01
  8.50000000E-01  8.50000000E-01  8.50000000E-01  8.50000000E-01  8.50000000E-01
  8.50000000E-01  8.50000000E-01  8.50000000E-01  8.50000000E-01  8.50000000E-01
  8.50000000E-01  8.50000000E-01  8.50000000E-01  8.50000000E-01  8.50000000E-01
  8.50000000E-01  8.50000000E-01  8.50000000E-01  8.50000000E-01  8.50000000E-01
  8.50000000E-01  8.50000000E-01  8.50000000E-01  8.50000000E-01  8.50000000E-01
  8.50000000E-01  8.50000000E-01  8.50000000E-01  8.50000000E-01  8.50000000E-01
  8.50000000E-01  8.50000000E-01  8.50000000E-01  8.50000000E-01  8.50000000E-01
  8.50000000E-01  8.50000000E-01  8.50000000E-01  8.50000000E-01  8.50000000E-01
  8.50000000E-01  8.50000000E-01  8.50000000E-01  8.50000000E-01  8.50000000E-01
  8.50000000E-01  8.50000000E-01  8.50000000E-01  8.50000000E-01  8.50000000E-01
  8.50000000E-01  8.50000000E-01  8.50000000E-01  8.50000000E-01  8.50000000E-01
  8.50000000E-01  8.50000000E-01  8.50000000E-01  8.50000000E-01  8.50000000E-01
  8.50000000E-01  8.50000000E-01  8.50000000E-01  8.50000000E-01  8.50000000E-01
  8.50000000E-01  8.50000000E-01  8.50000000E-01  8.50000000E-01  8.50000000E-01
  8.50000000E-01  8.50000000E-01  8.50000000E-01  8.50000000E-01  8.50000000E-01
  8.50000000E-01  8.50000000E-01  8.50000000E-01  8.50000000E-01  8.50000000E-01
  8.50000000E-01  8.50000000E-01  8.50000000E-01  8.50000000E-01  8.50000000E-01
  8.50000000E-01  8.50000000E-01  8.50000000E-01  8.50000000E-01  8.50000000E-01
  8.50000000E-01  8.50000000E-01  8.50000000E-01  8.50000000E-01  8.50000000E-01
  8.50000000E-01  8.50000000E-01  8.50000000E-01  8.50000000E-01  8.50000000E-01
  8.50000000E-01  8.50000000E-01  8.50000000E-01  8.50000000E-01  8.50000000E-01
  8.50000000E-01  8.50000000E-01  8.50000000E-01  8.50000000E-01  8.50000000E-01
  8.50000000E-01  8.50000000E-01  8.50000000E-01  8.50000000E-01  8.50000000E-01
  8.50000000E-01  8.50000000E-01  8.50000000E-01  8.50000000E-01  8.50000000E-01
  8.50000000E-01  8.50000000E-01  8.50000000E-01  8.50000000E-01  8.50000000E-01
  8.50000000E-01  8.50000000E-01  8.50000000E-01  8.50000000E-01  8.50000000E-01
  8.50000000E-01  8.50000000E-01  8.50000000E-01  8.50000000E-01  8.50000000E-01
  8.50000000E-01  8.50000000E-01  8.50000000E-01  8.50000000E-01  8.50000000E-01
  8.50000000E-01  8.50000000E-01  8.50000000E-01  8.50000000E-01  8.50000000E-01
  8.50000000E-01  8.50000000E-01  8.50000000E-01  8.50000000E-01  8.50000000E-01
  8.50000000E-01  8.50000000E-01  8.50000000E-01  8.50000000E-01  8.50000000E-01
  8.50000000E-01  8.50000000E-01  8.50000000E-01  8.50000000E-01  8.50000000E-01
  8.50000000E-01  8.50000000E-01  8.50000000E-01  8.50000000E-01  8.50000000E-01
  8.50000000E-01  8.50000000E-01  8.50000000E-01  8.50000000E-01  8.50000000E-01
  8.50000000E-01  8.50000000E-01  8.50000000E-01  8.50000000E-01  8.50000000E-01
  8.50000000E-01  8.50000000E-01  8.50000000E-01  8.50000000E-01  8.50000000E-01
  8.50000000E-01  8.50000000E-01  8.50000000E-01  8.50000000E-01  8.50000000E-01
  8.50000000E-01  8.50000000E-01  8.50000000E-01  8.50000000E-01  8.50000000E-01
  8.50000000E-01  8.50000000E-01  8.50000000E-01  8.50000000E-01  8.50000000E-01
  8.50000000E-01  8.50000000E-01  8.50000000E-01  8.50000000E-01  8.50000000E-01
  8.50000000E-01  8.50000000E-01  8.50000000E-01  8.50000000E-01  8.50000000E-01
  8.50000000E-01  8.50000000E-01  8.50000000E-01  8.50000000E-01  8.50000000E-01
  8.50000000E-01  8.50000000E-01  8.50000000E-01  8.50000000E-01  8.50000000E-01
  8.50000000E-01  8.50000000E-01  8.50000000E-01  8.50000000E-01  8.50000000E-01
  8.50000000E-01  8.50000000E-01  8.50000000E-01  8.50000000E-01  8.50000000E-01
  8.50000000E-01  8.50000000E-01  8.50000000E-01  8.50000000E-01  8.50000000E-01
  8.50000000E-01  8.50000000E-01  8.50000000E-01  8.50000000E-01  8.50000000E-01
  8.50000000E-01  8.50000000E-01  8.50000000E-01  8.50000000E-01  8.50000000E-01
  8.50000000E-01  8.50000000E-01  8.50000000E-01  8.50000000E-01  8.50000000E-01
  8.50000000E-01  8.50000000E-01  8.50000000E-01  8.50000000E-01  8.50000000E-01
  8.50000000E-01  8.50000000E-01  8.50000000E-01  8.50000000E-01  8.50000000E-01
  8.50000000E-01  8.50000000E-01  8.50000000E-01  8.50000000E-01  8.50000000E-01
  8.50000000E-01  8.50000000E-01  8.50000000E-01  8.50000000E-01  8.50000000E-01
  8.50000000E-01  8.50000000E-01  8.50000000E-01  8.50000000E-01  8.50000000E-01
  8.50000000E-01  8.50000000E-01  8.50000000E-01  8.50000000E-01  8.50000000E-01
  8.50000000E-01  8.50000000E-01  8.50000000E-01  8.50000000E-01  8.50000000E-01
  8.50000000E-01  8.50000000E-01  8.50000000E-01  8.50000000E-01  8.50000000E-01
  8.50000000E-01  8.50000000E-01  8.50000000E-01  8.50000000E-01  8.50000000E-01
  8.50000000E-01  8.50000000E-01  8.50000000E-01  8.50000000E-01  8.50000000E-01
  8.50000000E-01  8.50000000E-01  8.50000000E-01  8.50000000E-01  8.50000000E-01
  8.50000000E-01  8.50000000E-01  8.50000000E-01  8.50000000E-01  8.50000000E-01
  8.50000000E-01  8.50000000E-01  8.50000000E-01  8.50000000E-01  8.50000000E-01
  8.50000000E-01  8.50000000E-01  8.50000000E-01  8.50000000E-01  8.50000000E-01
  8.50000000E-01  8.50000000E-01  8.50000000E-01  8.50000000E-01  8.50000000E-01
  8.50000000E-01  8.50000000E-01  8.50000000E-01  8.50000000E-01  8.50000000E-01
  8.50000000E-01  8.50000000E-01  8.50000000E-01  8.50000000E-01  8.50000000E-01
  8.50000000E-01  8.50000000E-01  8.50000000E-01  8.50000000E-01  8.50000000E-01
  8.50000000E-01  8.50000000E-01  8.50000000E-01  8.50000000E-01  8.50000000E-01
  8.50000000E-01  8.50000000E-01  8.50000000E-01  8.50000000E-01  8.50000000E-01
  8.50000000E-01  8.50000000E-01  8.50000000E-01  8.50000000E-01  8.50000000E-01
  8.50000000E-01  8.50000000E-01  8.50000000E-01  8.50000000E-01  8.50000000E-01
  8.50000000E-01  8.50000000E-01  8.50000000E-01  8.50000000E-01  8.50000000E-01
  8.50000000E-01  8.50000000E-01  8.50000000E-01  8.50000000E-01  8.50000000E-01
  8.50000000E-01  8.50000000E-01  8.50000000E-01  8.50000000E-01  8.50000000E-01
  8.50000000E-01  8.50000000E-01  8.50000000E-01  8.50000000E-01  8.50000000E-01
  8.50000000E-01  8.50000000E-01  8.50000000E-01  8.50000000E-01  8.50000000E-01
  8.50000000E-01  8.50000000E-01  8.50000000E-01  8.50000000E-01  8.50000000E-01
  8.50000000E-01  8.50000000E-01  8.50000000E-01  8.50000000E-01  8.50000000E-01
  8.50000000E-01  8.50000000E-01  8.50000000E-01  8.50000000E-01  8.50000000E-01
  8.50000000E-01  8.50000000E-01  8.50000000E-01  8.50000000E-01  8.50000000E-01
  8.50000000E-01  8.50000000E-01  8.50000000E-01  8.50000000E-01  8.50000000E-01
  8.50000000E-01  8.50000000E-01  8.50000000E-01  8.50000000E-01  8.50000000E-01
  8.50000000E-01  8.50000000E-01  8.50000000E-01  8.50000000E-01  8.50000000E-01
  8.50000000E-01  8.50000000E-01  8.50000000E-01  8.50000000E-01  8.50000000E-01
  8.50000000E-01  8.50000000E-01  8.50000000E-01  8.50000000E-01  8.50000000E-01
  8.50000000E-01  8.50000000E-01  8.50000000E-01  8.50000000E-01  8.50000000E-01
  8.50000000E-01  8.50000000E-01  8.50000000E-01  8.50000000E-01  8.50000000E-01
  8.50000000E-01  8.50000000E-01  8.50000000E-01  8.50000000E-01  8.50000000E-01
  8.50000000E-01  8.50000000E-01  8.50000000E-01  8.50000000E-01  8.50000000E-01
  8.50000000E-01  8.50000000E-01  8.50000000E-01  8.50000000E-01  8.50000000E-01
  8.50000000E-01  8.50000000E-01  8.50000000E-01  8.50000000E-01  8.50000000E-01
  8.50000000E-01  8.50000000E-01  8.50000000E-01  8.50000000E-01  8.50000000E-01
  8.50000000E-01  8.50000000E-01  8.50000000E-01  8.50000000E-01  8.50000000E-01
  8.50000000E-01  8.50000000E-01  8.50000000E-01  8.50000000E-01  8.50000000E-01
  8.50000000E-01  8.50000000E-01  8.50000000E-01  8.50000000E-01  8.50000000E-01
  8.50000000E-01  8.50000000E-01  8.50000000E-01  8.50000000E-01  8.50000000E-01
  8.50000000E-01  8.50000000E-01  8.50000000E-01  8.50000000E-01  8.50000000E-01
  8.50000000E-01  8.50000000E-01  8.50000000E-01  8.50000000E-01  8.50000000E-01
  8.50000000E-01  8.50000000E-01  8.50000000E-01  8.50000000E-01  8.50000000E-01
  8.50000000E-01  8.50000000E-01  8.50000000E-01  8.50000000E-01  8.50000000E-01
  8.50000000E-01  8.50000000E-01  8.50000000E-01  8.50000000E-01  8.50000000E-01
  8.50000000E-01  8.50000000E-01  8.50000000E-01  8.50000000E-01  8.50000000E-01
  8.50000000E-01  8.50000000E-01  8.50000000E-01  8.50000000E-01  8.50000000E-01
  8.50000000E-01  8.50000000E-01  8.50000000E-01  8.50000000E-01  8.50000000E-01
  8.50000000E-01  8.50000000E-01  8.50000000E-01  8.50000000E-01  8.50000000E-01
  8.50000000E-01  8.50000000E-01  8.50000000E-01  8.50000000E-01  8.50000000E-01
  8.50000000E-01  8.50000000E-01  8.50000000E-01  8.50000000E-01  8.50000000E-01
  8.50000000E-01  8.50000000E-01  8.50000000E-01  8.50000000E-01  8.50000000E-01
  8.50000000E-01  8.50000000E-01  8.50000000E-01  8.50000000E-01  8.50000000E-01
  8.50000000E-01  8.50000000E-01  8.50000000E-01  8.50000000E-01  8.50000000E-01
  8.50000000E-01  8.50000000E-01  8.50000000E-01  8.50000000E-01  8.50000000E-01
  8.50000000E-01  8.50000000E-01  8.50000000E-01  8.50000000E-01  8.50000000E-01
  8.50000000E-01  8.50000000E-01  8.50000000E-01  8.50000000E-01  8.50000000E-01
  8.50000000E-01  8.50000000E-01  8.50000000E-01  8.50000000E-01  8.50000000E-01
  8.50000000E-01  8.50000000E-01  8.50000000E-01  8.50000000E-01  8.50000000E-01
  8.50000000E-01  8.50000000E-01  8.50000000E-01  8.50000000E-01  8.50000000E-01
  8.50000000E-01  8.50000000E-01  8.50000000E-01  8.50000000E-01  8.50000000E-01
  8.50000000E-01  8.50000000E-01  8.50000000E-01  8.50000000E-01  8.50000000E-01
  8.50000000E-01  8.50000000E-01  8.50000000E-01  8.50000000E-01  8.50000000E-01
  8.50000000E-01  8.50000000E-01  8.50000000E-01  8.50000000E-01  8.50000000E-01
  8.50000000E-01  8.50000000E-01  8.50000000E-01  8.50000000E-01  8.50000000E-01
  8.50000000E-01  8.50000000E-01  8.50000000E-01  8.50000000E-01  8.50000000E-01
  8.50000000E-01  8.50000000E-01  8.50000000E-01  8.50000000E-01  8.50000000E-01
  8.50000000E-01  8.50000000E-01  8.50000000E-01  8.50000000E-01  8.50000000E-01
  8.50000000E-01  8.50000000E-01  8.50000000E-01  8.50000000E-01  8.50000000E-01
  8.50000000E-01  8.50000000E-01  8.50000000E-01  8.50000000E-01  8.50000000E-01
  8.50000000E-01  8.50000000E-01  8.50000000E-01  8.50000000E-01  8.50000000E-01
  8.50000000E-01  8.50000000E-01  8.50000000E-01  8.50000000E-01  8.50000000E-01
  8.50000000E-01  8.50000000E-01  8.50000000E-01  8.50000000E-01  8.50000000E-01
  8.50000000E-01  8.50000000E-01  8.50000000E-01  8.50000000E-01  8.50000000E-01
  8.50000000E-01  8.50000000E-01  8.50000000E-01  8.50000000E-01  8.50000000E-01
  8.50000000E-01  8.50000000E-01  8.50000000E-01  8.50000000E-01  8.50000000E-01
  8.50000000E-01  8.50000000E-01  8.50000000E-01  8.50000000E-01  8.50000000E-01
  8.50000000E-01  8.50000000E-01  8.50000000E-01  8.50000000E-01  8.50000000E-01
  8.50000000E-01  8.50000000E-01  8.50000000E-01  8.50000000E-01  8.50000000E-01
  8.50000000E-01  8.50000000E-01  8.50000000E-01  8.50000000E-01  8.50000000E-01
  8.50000000E-01  8.50000000E-01  8.50000000E-01  8.50000000E-01  8.50000000E-01
  8.50000000E-01  8.50000000E-01  8.50000000E-01  8.50000000E-01  8.50000000E-01
  8.50000000E-01  8.50000000E-01  8.50000000E-01  8.50000000E-01  8.50000000E-01
  8.50000000E-01  8.50000000E-01  8.50000000E-01  8.50000000E-01  8.50000000E-01
  8.50000000E-01  8.50000000E-01  8.50000000E-01  8.50000000E-01  8.50000000E-01
  8.50000000E-01  8.50000000E-01  8.50000000E-01  8.50000000E-01  8.50000000E-01
  8.50000000E-01  8.50000000E-01  8.50000000E-01  8.50000000E-01  8.50000000E-01
  8.50000000E-01  8.50000000E-01  8.50000000E-01  8.50000000E-01  8.50000000E-01
  8.50000000E-01  8.50000000E-01  8.50000000E-01  8.50000000E-01  8.50000000E-01
  8.50000000E-01  8.50000000E-01  8.50000000E-01  8.50000000E-01  8.50000000E-01
  8.50000000E-01  8.50000000E-01  8.50000000E-01  8.50000000E-01  8.50000000E-01
  8.50000000E-01  8.50000000E-01  8.50000000E-01  8.50000000E-01  8.50000000E-01
  8.50000000E-01  8.50000000E-01  8.50000000E-01  8.50000000E-01  8.50000000E-01
  8.50000000E-01  8.50000000E-01  8.50000000E-01  8.50000000E-01  8.50000000E-01
  8.50000000E-01  8.50000000E-01  8.50000000E-01  8.50000000E-01  8.50000000E-01
  8.50000000E-01  8.50000000E-01  8.50000000E-01  8.50000000E-01  8.50000000E-01
  8.50000000E-01  8.50000000E-01  8.50000000E-01  8.50000000E-01  8.50000000E-01
  8.50000000E-01  8.50000000E-01  8.50000000E-01  8.50000000E-01  8.50000000E-01
  8.50000000E-01  8.50000000E-01  8.50000000E-01  8.50000000E-01  8.50000000E-01
  8.50000000E-01  8.50000000E-01  8.50000000E-01  8.50000000E-01  8.50000000E-01
  8.50000000E-01  8.50000000E-01  8.50000000E-01  8.50000000E-01  8.50000000E-01
  8.50000000E-01  8.50000000E-01  8.50000000E-01  8.50000000E-01  8.50000000E-01
  8.50000000E-01  8.50000000E-01  8.50000000E-01  8.50000000E-01  8.50000000E-01
  8.50000000E-01  8.50000000E-01  8.50000000E-01  8.50000000E-01  8.50000000E-01
  8.50000000E-01  8.50000000E-01  8.50000000E-01  8.50000000E-01  8.50000000E-01
  8.50000000E-01  8.50000000E-01  8.50000000E-01  8.50000000E-01  8.50000000E-01
  8.50000000E-01  8.50000000E-01  8.50000000E-01  8.50000000E-01  8.50000000E-01
  8.50000000E-01  8.50000000E-01  8.50000000E-01  8.50000000E-01  8.50000000E-01
  8.50000000E-01  8.50000000E-01  8.50000000E-01  8.50000000E-01  8.50000000E-01
  8.50000000E-01  8.50000000E-01  8.50000000E-01  8.50000000E-01  8.50000000E-01
  8.50000000E-01  8.50000000E-01  8.50000000E-01  8.50000000E-01  8.50000000E-01
  8.50000000E-01  8.50000000E-01  8.50000000E-01  8.50000000E-01  8.50000000E-01
  8.50000000E-01  8.50000000E-01  8.50000000E-01  8.50000000E-01  8.50000000E-01
  8.50000000E-01  8.50000000E-01  8.50000000E-01  8.50000000E-01  8.50000000E-01
  8.50000000E-01  8.50000000E-01  8.50000000E-01  8.50000000E-01  8.50000000E-01
  8.50000000E-01  8.50000000E-01  8.50000000E-01  8.50000000E-01  8.50000000E-01
  8.50000000E-01  8.50000000E-01  8.50000000E-01  8.50000000E-01  8.50000000E-01
  8.50000000E-01  8.50000000E-01  8.50000000E-01  8.50000000E-01  8.50000000E-01
  8.50000000E-01  8.50000000E-01  8.50000000E-01  8.50000000E-01  8.50000000E-01
  8.50000000E-01  8.50000000E-01  8.50000000E-01  8.50000000E-01  8.50000000E-01
  8.50000000E-01  8.50000000E-01  8.50000000E-01  8.50000000E-01  8.50000000E-01
  8.50000000E-01  8.50000000E-01  8.50000000E-01  8.50000000E-01  8.50000000E-01
  8.50000000E-01  8.50000000E-01  8.50000000E-01  8.50000000E-01  8.50000000E-01
  8.50000000E-01  8.50000000E-01  8.50000000E-01  8.50000000E-01  8.50000000E-01
  8.50000000E-01  8.50000000E-01  8.50000000E-01  8.50000000E-01  8.50000000E-01
  8.50000000E-01  8.50000000E-01  8.50000000E-01  8.50000000E-01  8.50000000E-01
  8.50000000E-01  8.50000000E-01  8.50000000E-01  8.50000000E-01  8.50000000E-01
  8.50000000E-01  8.50000000E-01  8.50000000E-01  8.50000000E-01  8.50000000E-01
  8.50000000E-01  8.50000000E-01  8.50000000E-01  8.50000000E-01  8.50000000E-01
  8.50000000E-01  8.50000000E-01  8.50000000E-01  8.50000000E-01  8.50000000E-01
  8.50000000E-01  8.50000000E-01  8.50000000E-01  8.50000000E-01  8.50000000E-01
  8.50000000E-01  8.50000000E-01  8.50000000E-01  8.50000000E-01  8.50000000E-01
  8.50000000E-01  8.50000000E-01  8.50000000E-01  8.50000000E-01  8.50000000E-01
  8.50000000E-01  8.50000000E-01  8.50000000E-01  8.50000000E-01  8.50000000E-01
  8.50000000E-01  8.50000000E-01  8.50000000E-01  8.50000000E-01  8.50000000E-01
  8.50000000E-01  8.50000000E-01  8.50000000E-01  8.50000000E-01  8.50000000E-01
  8.50000000E-01  8.50000000E-01  8.50000000E-01  8.50000000E-01  8.50000000E-01
  8.50000000E-01  8.50000000E-01  8.50000000E-01  8.50000000E-01  8.50000000E-01
  8.50000000E-01  8.50000000E-01  8.50000000E-01  8.50000000E-01  8.50000000E-01
  8.50000000E-01  8.50000000E-01  8.50000000E-01  8.50000000E-01  8.50000000E-01
  8.50000000E-01  8.50000000E-01  8.50000000E-01  8.50000000E-01  8.50000000E-01
  8.50000000E-01  8.50000000E-01  8.50000000E-01  8.50000000E-01  8.50000000E-01
  8.50000000E-01  8.50000000E-01  8.50000000E-01  8.50000000E-01  8.50000000E-01
  8.50000000E-01  8.50000000E-01  8.50000000E-01  8.50000000E-01  8.50000000E-01
  8.50000000E-01  8.50000000E-01  8.50000000E-01  8.50000000E-01  8.50000000E-01
  8.50000000E-01  8.50000000E-01  8.50000000E-01  8.50000000E-01  8.50000000E-01
  8.50000000E-01  8.50000000E-01  8.50000000E-01  8.50000000E-01  8.50000000E-01
  8.50000000E-01  8.50000000E-01  8.50000000E-01  8.50000000E-01  8.50000000E-01
  8.50000000E-01  8.50000000E-01  8.50000000E-01  8.50000000E-01  8.50000000E-01
  8.50000000E-01  8.50000000E-01  8.50000000E-01  8.50000000E-01  8.50000000E-01
  8.50000000E-01  8.50000000E-01  8.50000000E-01  8.50000000E-01  8.50000000E-01
  8.50000000E-01  8.50000000E-01  8.50000000E-01  8.50000000E-01  8.50000000E-01
  8.50000000E-01  8.50000000E-01  8.50000000E-01  8.50000000E-01  8.50000000E-01
  8.50000000E-01  8.50000000E-01  8.50000000E-01  8.50000000E-01  8.50000000E-01
  8.50000000E-01  8.50000000E-01  8.50000000E-01  8.50000000E-01  8.50000000E-01
  8.50000000E-01  8.50000000E-01  8.50000000E-01  8.50000000E-01  8.50000000E-01
  8.50000000E-01  8.50000000E-01  8.50000000E-01  8.50000000E-01  8.50000000E-01
  8.50000000E-01  8.50000000E-01  8.50000000E-01  8.50000000E-01  8.50000000E-01
  8.50000000E-01  8.50000000E-01  8.50000000E-01  8.50000000E-01  8.50000000E-01
  8.50000000E-01  8.50000000E-01  8.50000000E-01  8.50000000E-01  8.50000000E-01
  8.50000000E-01  8.50000000E-01  8.50000000E-01  8.50000000E-01  8.50000000E-01
  8.50000000E-01  8.50000000E-01  8.50000000E-01  8.50000000E-01  8.50000000E-01
  8.50000000E-01  8.50000000E-01  8.50000000E-01  8.50000000E-01  8.50000000E-01
  8.50000000E-01  8.50000000E-01  8.50000000E-01  8.50000000E-01  8.50000000E-01
  8.50000000E-01  8.50000000E-01  8.50000000E-01  8.50000000E-01  8.50000000E-01
  8.50000000E-01  8.50000000E-01  8.50000000E-01  8.50000000E-01  8.50000000E-01
  8.50000000E-01  8.50000000E-01  8.50000000E-01  8.50000000E-01  8.50000000E-01
  8.50000000E-01  8.50000000E-01  8.50000000E-01  8.50000000E-01  8.50000000E-01
  8.50000000E-01  8.50000000E-01  8.50000000E-01  8.50000000E-01  8.50000000E-01
  8.50000000E-01  8.50000000E-01  8.50000000E-01  8.50000000E-01  8.50000000E-01
  8.50000000E-01  8.50000000E-01  8.50000000E-01  8.50000000E-01  8.50000000E-01
  8.50000000E-01  8.50000000E-01  8.50000000E-01  8.50000000E-01  8.50000000E-01
  8.50000000E-01  8.50000000E-01  8.50000000E-01  8.50000000E-01  8.50000000E-01
  8.50000000E-01  8.50000000E-01  8.50000000E-01  8.50000000E-01  8.50000000E-01
  8.50000000E-01  8.50000000E-01  8.50000000E-01  8.50000000E-01  8.50000000E-01
  8.50000000E-01  8.50000000E-01  8.50000000E-01  8.50000000E-01  8.50000000E-01
  8.50000000E-01  8.50000000E-01  8.50000000E-01  8.50000000E-01  8.50000000E-01
  8.50000000E-01  8.50000000E-01  8.50000000E-01  8.50000000E-01  8.50000000E-01
  8.50000000E-01  8.50000000E-01  8.50000000E-01  8.50000000E-01  8.50000000E-01
  8.50000000E-01  8.50000000E-01  8.50000000E-01  8.50000000E-01  8.50000000E-01
  8.50000000E-01  8.50000000E-01  8.50000000E-01  8.50000000E-01  8.50000000E-01
  8.50000000E-01  8.50000000E-01  8.50000000E-01  8.50000000E-01  8.50000000E-01
  8.50000000E-01  8.50000000E-01  8.50000000E-01  8.50000000E-01  8.50000000E-01
  8.50000000E-01  8.50000000E-01  8.50000000E-01  8.50000000E-01  8.50000000E-01
  8.50000000E-01  8.50000000E-01  8.50000000E-01  8.50000000E-01  8.50000000E-01
  8.50000000E-01  8.50000000E-01  8.50000000E-01  8.50000000E-01  8.50000000E-01
  8.50000000E-01  8.50000000E-01  8.50000000E-01  8.50000000E-01  8.50000000E-01
  8.50000000E-01  8.50000000E-01  8.50000000E-01  8.50000000E-01  8.50000000E-01
  8.50000000E-01  8.50000000E-01  8.50000000E-01  8.50000000E-01  8.50000000E-01
  8.50000000E-01  8.50000000E-01  8.50000000E-01  8.50000000E-01  8.50000000E-01
  8.50000000E-01  8.50000000E-01  8.50000000E-01  8.50000000E-01  8.50000000E-01
  8.50000000E-01  8.50000000E-01  8.50000000E-01  8.50000000E-01  8.50000000E-01
  8.50000000E-01  8.50000000E-01  8.50000000E-01  8.50000000E-01  8.50000000E-01
  8.50000000E-01  8.50000000E-01  8.50000000E-01  8.50000000E-01  8.50000000E-01
  8.50000000E-01  8.50000000E-01  8.50000000E-01  8.50000000E-01  8.50000000E-01
  8.50000000E-01  8.50000000E-01  8.50000000E-01  8.50000000E-01  8.50000000E-01
  8.50000000E-01  8.50000000E-01  8.50000000E-01  8.50000000E-01  8.50000000E-01
  8.50000000E-01  8.50000000E-01  8.50000000E-01  8.50000000E-01  8.50000000E-01
  8.50000000E-01  8.50000000E-01  8.50000000E-01  8.50000000E-01  8.50000000E-01
  8.50000000E-01  8.50000000E-01  8.50000000E-01  8.50000000E-01  8.50000000E-01
  8.50000000E-01  8.50000000E-01  8.50000000E-01  8.50000000E-01  8.50000000E-01
  8.50000000E-01  8.50000000E-01  8.50000000E-01  8.50000000E-01  8.50000000E-01
  8.50000000E-01  8.50000000E-01  8.50000000E-01  8.50000000E-01  8.50000000E-01
  8.50000000E-01  8.50000000E-01  8.50000000E-01  8.50000000E-01  8.50000000E-01
  8.50000000E-01  8.50000000E-01  8.50000000E-01  8.50000000E-01  8.50000000E-01
  8.50000000E-01  8.50000000E-01  8.50000000E-01  8.50000000E-01  8.50000000E-01
  8.50000000E-01  8.50000000E-01  8.50000000E-01  8.50000000E-01  8.50000000E-01
  8.50000000E-01  8.50000000E-01  8.50000000E-01  8.50000000E-01  8.50000000E-01
  8.50000000E-01  8.50000000E-01  8.50000000E-01  8.50000000E-01  8.50000000E-01
  8.50000000E-01  8.50000000E-01  8.50000000E-01  8.50000000E-01  8.50000000E-01
  8.50000000E-01  8.50000000E-01  8.50000000E-01  8.50000000E-01  8.50000000E-01
  8.50000000E-01  8.50000000E-01  8.50000000E-01  8.50000000E-01  8.50000000E-01
  8.50000000E-01  8.50000000E-01  8.50000000E-01  8.50000000E-01  8.50000000E-01
  8.50000000E-01  8.50000000E-01  8.50000000E-01  8.50000000E-01  8.50000000E-01
  8.50000000E-01  8.50000000E-01  8.50000000E-01  8.50000000E-01  8.50000000E-01
  8.50000000E-01  8.50000000E-01  8.50000000E-01  8.50000000E-01  8.50000000E-01
  8.50000000E-01  8.50000000E-01  8.50000000E-01  8.50000000E-01  8.50000000E-01
  8.50000000E-01  8.50000000E-01  8.50000000E-01  8.50000000E-01  8.50000000E-01
  8.50000000E-01  8.50000000E-01  8.50000000E-01  8.50000000E-01  8.50000000E-01
  8.50000000E-01  8.50000000E-01  8.50000000E-01  8.50000000E-01  8.50000000E-01
  8.50000000E-01  8.50000000E-01  8.50000000E-01  8.50000000E-01  8.50000000E-01
  8.50000000E-01  8.50000000E-01  8.50000000E-01  8.50000000E-01  8.50000000E-01
  8.50000000E-01  8.50000000E-01  8.50000000E-01  8.50000000E-01  8.50000000E-01
  8.50000000E-01  8.50000000E-01  8.50000000E-01  8.50000000E-01  8.50000000E-01
  8.50000000E-01  8.50000000E-01  8.50000000E-01  8.50000000E-01  8.50000000E-01
  8.50000000E-01  8.50000000E-01  8.50000000E-01  8.50000000E-01  8.50000000E-01
  8.50000000E-01  8.50000000E-01  8.50000000E-01  8.50000000E-01  8.50000000E-01
  8.50000000E-01  8.50000000E-01  8.50000000E-01  8.50000000E-01  8.50000000E-01
  8.50000000E-01  8.50000000E-01  8.50000000E-01  8.50000000E-01  8.50000000E-01
  8.50000000E-01  8.50000000E-01  8.50000000E-01  8.50000000E-01  8.50000000E-01
  8.50000000E-01  8.50000000E-01  8.50000000E-01  8.50000000E-01  8.50000000E-01
  8.50000000E-01  8.50000000E-01  8.50000000E-01  8.50000000E-01  8.50000000E-01
  8.50000000E-01  8.50000000E-01  8.50000000E-01  8.50000000E-01  8.50000000E-01
  8.50000000E-01  8.50000000E-01  8.50000000E-01  8.50000000E-01  8.50000000E-01
  8.50000000E-01  8.50000000E-01  8.50000000E-01  8.50000000E-01  8.50000000E-01
  8.50000000E-01  8.50000000E-01  8.50000000E-01  8.50000000E-01  8.50000000E-01
  8.50000000E-01  8.50000000E-01  8.50000000E-01  8.50000000E-01  8.50000000E-01
  8.50000000E-01  8.50000000E-01  8.50000000E-01  8.50000000E-01  8.50000000E-01
  8.50000000E-01  8.50000000E-01  8.50000000E-01  8.50000000E-01  8.50000000E-01
  8.50000000E-01  8.50000000E-01  8.50000000E-01  8.50000000E-01  8.50000000E-01
  8.50000000E-01  8.50000000E-01  8.50000000E-01  8.50000000E-01  8.50000000E-01
  8.50000000E-01  8.50000000E-01  8.50000000E-01  8.50000000E-01  8.50000000E-01
  8.50000000E-01  8.50000000E-01  8.50000000E-01  8.50000000E-01  8.50000000E-01
  8.50000000E-01  8.50000000E-01  8.50000000E-01  8.50000000E-01  8.50000000E-01
  8.50000000E-01  8.50000000E-01  8.50000000E-01  8.50000000E-01  8.50000000E-01
  8.50000000E-01  8.50000000E-01  8.50000000E-01  8.50000000E-01  8.50000000E-01
  8.50000000E-01  8.50000000E-01  8.50000000E-01  8.50000000E-01  8.50000000E-01
  8.50000000E-01  8.50000000E-01  8.50000000E-01  8.50000000E-01  8.50000000E-01
  8.50000000E-01  8.50000000E-01  8.50000000E-01  8.50000000E-01  8.50000000E-01
  8.50000000E-01  8.50000000E-01  8.50000000E-01  8.50000000E-01  8.50000000E-01
  8.50000000E-01  8.50000000E-01  8.50000000E-01  8.50000000E-01  8.50000000E-01
  8.50000000E-01  8.50000000E-01  8.50000000E-01  8.50000000E-01  8.50000000E-01
  8.50000000E-01  8.50000000E-01  8.50000000E-01  8.50000000E-01  8.50000000E-01
  8.50000000E-01  8.50000000E-01  8.50000000E-01  8.50000000E-01  8.50000000E-01
  8.50000000E-01  8.50000000E-01  8.50000000E-01  8.50000000E-01  8.50000000E-01
  8.50000000E-01  8.50000000E-01  8.50000000E-01  8.50000000E-01  8.50000000E-01
  8.50000000E-01  8.50000000E-01  8.50000000E-01  8.50000000E-01  8.50000000E-01
  8.50000000E-01  8.50000000E-01  8.50000000E-01  8.50000000E-01  8.50000000E-01
  8.50000000E-01  8.50000000E-01  8.50000000E-01  8.50000000E-01  8.50000000E-01
  8.50000000E-01  8.50000000E-01  8.50000000E-01  8.50000000E-01  8.50000000E-01
  8.50000000E-01  8.50000000E-01  8.50000000E-01  8.50000000E-01  8.50000000E-01
  8.50000000E-01  8.50000000E-01  8.50000000E-01  8.50000000E-01  8.50000000E-01
  8.50000000E-01  8.50000000E-01  8.50000000E-01  8.50000000E-01  8.50000000E-01
  8.50000000E-01  8.50000000E-01  8.50000000E-01  8.50000000E-01  8.50000000E-01
  8.50000000E-01  8.50000000E-01  8.50000000E-01  8.50000000E-01  8.50000000E-01
  8.50000000E-01  8.50000000E-01  8.50000000E-01  8.50000000E-01  8.50000000E-01
  8.50000000E-01  8.50000000E-01  8.50000000E-01  8.50000000E-01  8.50000000E-01
  8.50000000E-01  8.50000000E-01  8.50000000E-01  8.50000000E-01  8.50000000E-01
  8.50000000E-01  8.50000000E-01  8.50000000E-01  8.50000000E-01  8.50000000E-01
  8.50000000E-01  8.50000000E-01  8.50000000E-01  8.50000000E-01  8.50000000E-01
  8.50000000E-01  8.50000000E-01  8.50000000E-01  8.50000000E-01  8.50000000E-01
  8.50000000E-01  8.50000000E-01  8.50000000E-01  8.50000000E-01  8.50000000E-01
  8.50000000E-01  8.50000000E-01  8.50000000E-01  8.50000000E-01  8.50000000E-01
  8.50000000E-01  8.50000000E-01  8.50000000E-01  8.50000000E-01  8.50000000E-01
  8.50000000E-01  8.50000000E-01  8.50000000E-01  8.50000000E-01  8.50000000E-01
  8.50000000E-01  8.50000000E-01  8.50000000E-01  8.50000000E-01  8.50000000E-01
  8.50000000E-01  8.50000000E-01  8.50000000E-01  8.50000000E-01  8.50000000E-01
  8.50000000E-01  8.50000000E-01  8.50000000E-01  8.50000000E-01  8.50000000E-01
  8.50000000E-01  8.50000000E-01  8.50000000E-01  8.50000000E-01  8.50000000E-01
  8.50000000E-01  8.50000000E-01  8.50000000E-01  8.50000000E-01  8.50000000E-01
  8.50000000E-01  8.50000000E-01  8.50000000E-01  8.50000000E-01  8.50000000E-01
  8.50000000E-01  8.50000000E-01  8.50000000E-01  8.50000000E-01  8.50000000E-01
  8.50000000E-01  8.50000000E-01  8.50000000E-01  8.50000000E-01  8.50000000E-01
  8.50000000E-01  8.50000000E-01  8.50000000E-01  8.50000000E-01  8.50000000E-01
  8.50000000E-01  8.50000000E-01  8.50000000E-01  8.50000000E-01  8.50000000E-01
  8.50000000E-01  8.50000000E-01  8.50000000E-01  8.50000000E-01  8.50000000E-01
  8.50000000E-01  8.50000000E-01  8.50000000E-01  8.50000000E-01  8.50000000E-01
  8.50000000E-01  8.50000000E-01  8.50000000E-01  8.50000000E-01  8.50000000E-01
  8.50000000E-01  8.50000000E-01  8.50000000E-01  8.50000000E-01  8.50000000E-01
  8.50000000E-01  8.50000000E-01  8.50000000E-01  8.50000000E-01  8.50000000E-01
  8.50000000E-01  8.50000000E-01  8.50000000E-01  8.50000000E-01  8.50000000E-01
  8.50000000E-01  8.50000000E-01  8.50000000E-01  8.50000000E-01  8.50000000E-01
  8.50000000E-01  8.50000000E-01  8.50000000E-01  8.50000000E-01  8.50000000E-01
  8.50000000E-01  8.50000000E-01  8.50000000E-01  8.50000000E-01  8.50000000E-01
  8.50000000E-01  8.50000000E-01  8.50000000E-01  8.50000000E-01  8.50000000E-01
  8.50000000E-01  8.50000000E-01  8.50000000E-01  8.50000000E-01  8.50000000E-01
  8.50000000E-01  8.50000000E-01  8.50000000E-01  8.50000000E-01  8.50000000E-01
  8.50000000E-01  8.50000000E-01  8.50000000E-01  8.50000000E-01  8.50000000E-01
  8.50000000E-01  8.50000000E-01  8.50000000E-01  8.50000000E-01  8.50000000E-01
  8.50000000E-01  8.50000000E-01  8.50000000E-01  8.50000000E-01  8.50000000E-01
  8.50000000E-01  8.50000000E-01  8.50000000E-01  8.50000000E-01  8.50000000E-01
  8.50000000E-01  8.50000000E-01  8.50000000E-01  8.50000000E-01  8.50000000E-01
  8.50000000E-01  8.50000000E-01  8.50000000E-01  8.50000000E-01  8.50000000E-01
  8.50000000E-01  8.50000000E-01  8.50000000E-01  8.50000000E-01  8.50000000E-01
  8.50000000E-01  8.50000000E-01  8.50000000E-01  8.50000000E-01  8.50000000E-01
  8.50000000E-01  8.50000000E-01  8.50000000E-01  8.50000000E-01  8.50000000E-01
  8.50000000E-01  8.50000000E-01  8.50000000E-01  8.50000000E-01  8.50000000E-01
  8.50000000E-01  8.50000000E-01  8.50000000E-01  8.50000000E-01  8.50000000E-01
  8.50000000E-01  8.50000000E-01  8.50000000E-01  8.50000000E-01  8.50000000E-01
  8.50000000E-01  8.50000000E-01  8.50000000E-01  8.50000000E-01  8.50000000E-01
  8.50000000E-01  8.50000000E-01  8.50000000E-01  8.50000000E-01  8.50000000E-01
  8.50000000E-01  8.50000000E-01  8.50000000E-01  8.50000000E-01  8.50000000E-01
  8.50000000E-01  8.50000000E-01  8.50000000E-01  8.50000000E-01  8.50000000E-01
  8.50000000E-01  8.50000000E-01  8.50000000E-01  8.50000000E-01  8.50000000E-01
  8.50000000E-01  8.50000000E-01  8.50000000E-01  8.50000000E-01  8.50000000E-01
  8.50000000E-01  8.50000000E-01  8.50000000E-01  8.50000000E-01  8.50000000E-01
  8.50000000E-01  8.50000000E-01  8.50000000E-01  8.50000000E-01  8.50000000E-01
  8.50000000E-01  8.50000000E-01  8.50000000E-01  8.50000000E-01  8.50000000E-01
  8.50000000E-01  8.50000000E-01  8.50000000E-01  8.50000000E-01  8.50000000E-01
  8.50000000E-01  8.50000000E-01  8.50000000E-01  8.50000000E-01  8.50000000E-01
  8.50000000E-01  8.50000000E-01  8.50000000E-01  8.50000000E-01  8.50000000E-01
  8.50000000E-01  8.50000000E-01  8.50000000E-01  8.50000000E-01  8.50000000E-01
  8.50000000E-01  8.50000000E-01  8.50000000E-01  8.50000000E-01  8.50000000E-01
  8.50000000E-01  8.50000000E-01  8.50000000E-01  8.50000000E-01  8.50000000E-01
  8.50000000E-01  8.50000000E-01  8.50000000E-01  8.50000000E-01  8.50000000E-01
  8.50000000E-01  8.50000000E-01  8.50000000E-01  8.50000000E-01  8.50000000E-01
  8.50000000E-01  8.50000000E-01  8.50000000E-01  8.50000000E-01  8.50000000E-01
  8.50000000E-01  8.50000000E-01  8.50000000E-01  8.50000000E-01  8.50000000E-01
  8.50000000E-01  8.50000000E-01  8.50000000E-01  8.50000000E-01  8.50000000E-01
  8.50000000E-01  8.50000000E-01  8.50000000E-01  8.50000000E-01  8.50000000E-01
  8.50000000E-01  8.50000000E-01  8.50000000E-01  8.50000000E-01  8.50000000E-01
  8.50000000E-01  8.50000000E-01  8.50000000E-01  8.50000000E-01  8.50000000E-01
  8.50000000E-01  8.50000000E-01  8.50000000E-01  8.50000000E-01  8.50000000E-01
  8.50000000E-01  8.50000000E-01  8.50000000E-01  8.50000000E-01  8.50000000E-01
  8.50000000E-01  8.50000000E-01  8.50000000E-01  8.50000000E-01  8.50000000E-01
  8.50000000E-01  8.50000000E-01  8.50000000E-01  8.50000000E-01  8.50000000E-01
  8.50000000E-01  8.50000000E-01  8.50000000E-01  8.50000000E-01  8.50000000E-01
  8.50000000E-01  8.50000000E-01  8.50000000E-01  8.50000000E-01  8.50000000E-01
  8.50000000E-01  8.50000000E-01  8.50000000E-01  8.50000000E-01  8.50000000E-01
  8.50000000E-01  8.50000000E-01  8.50000000E-01  8.50000000E-01  8.50000000E-01
  8.50000000E-01  8.50000000E-01  8.50000000E-01  8.50000000E-01  8.50000000E-01
  8.50000000E-01  8.50000000E-01  8.50000000E-01  8.50000000E-01  8.50000000E-01
  8.50000000E-01  8.50000000E-01  8.50000000E-01  8.50000000E-01  8.50000000E-01
  8.50000000E-01  8.50000000E-01  8.50000000E-01  8.50000000E-01  8.50000000E-01
  8.50000000E-01  8.50000000E-01  8.50000000E-01  8.50000000E-01  8.50000000E-01
  8.50000000E-01  8.50000000E-01  8.50000000E-01  8.50000000E-01  8.50000000E-01
  8.50000000E-01  8.50000000E-01  8.50000000E-01  8.50000000E-01  8.50000000E-01
  8.50000000E-01  8.50000000E-01  8.50000000E-01  8.50000000E-01  8.50000000E-01
  8.50000000E-01  8.50000000E-01  8.50000000E-01  8.50000000E-01  8.50000000E-01
  8.50000000E-01  8.50000000E-01  8.50000000E-01  8.50000000E-01  8.50000000E-01
  8.50000000E-01  8.50000000E-01  8.50000000E-01  8.50000000E-01  8.50000000E-01
  8.50000000E-01  8.50000000E-01  8.50000000E-01  8.50000000E-01  8.50000000E-01
  8.50000000E-01  8.50000000E-01  8.50000000E-01  8.50000000E-01  8.50000000E-01
  8.50000000E-01  8.50000000E-01  8.50000000E-01  8.50000000E-01  8.50000000E-01
  8.50000000E-01  8.50000000E-01  8.50000000E-01  8.50000000E-01  8.50000000E-01
  8.50000000E-01  8.50000000E-01  8.50000000E-01  8.50000000E-01  8.50000000E-01
  8.50000000E-01  8.50000000E-01  8.50000000E-01  8.50000000E-01  8.50000000E-01
  8.50000000E-01  8.50000000E-01  8.50000000E-01  8.50000000E-01  8.50000000E-01
  8.50000000E-01  8.50000000E-01  8.50000000E-01  8.50000000E-01  8.50000000E-01
  8.50000000E-01  8.50000000E-01  8.50000000E-01  8.50000000E-01  8.50000000E-01
  8.50000000E-01  8.50000000E-01  8.50000000E-01  8.50000000E-01  8.50000000E-01
  8.50000000E-01  8.50000000E-01  8.50000000E-01  8.50000000E-01  8.50000000E-01
  8.50000000E-01  8.50000000E-01  8.50000000E-01  8.50000000E-01  8.50000000E-01
  8.50000000E-01  8.50000000E-01  8.50000000E-01  8.50000000E-01  8.50000000E-01
  8.50000000E-01  8.50000000E-01  8.50000000E-01  8.50000000E-01  8.50000000E-01
  8.50000000E-01  8.50000000E-01  8.50000000E-01  8.50000000E-01  8.50000000E-01
  8.50000000E-01  8.50000000E-01  8.50000000E-01  8.50000000E-01  8.50000000E-01
  8.50000000E-01  8.50000000E-01  8.50000000E-01  8.50000000E-01  8.50000000E-01
  8.50000000E-01  8.50000000E-01  8.50000000E-01  8.50000000E-01  8.50000000E-01
  8.50000000E-01  8.50000000E-01  8.50000000E-01  8.50000000E-01  8.50000000E-01
  8.50000000E-01  8.50000000E-01  8.50000000E-01  8.50000000E-01  8.50000000E-01
  8.50000000E-01  8.50000000E-01  8.50000000E-01  8.50000000E-01  8.50000000E-01
  8.50000000E-01  8.50000000E-01  8.50000000E-01  8.50000000E-01  8.50000000E-01
  8.50000000E-01  8.50000000E-01  8.50000000E-01  8.50000000E-01  8.50000000E-01
  8.50000000E-01  8.50000000E-01  8.50000000E-01  8.50000000E-01  8.50000000E-01
  8.50000000E-01  8.50000000E-01  8.50000000E-01  8.50000000E-01  8.50000000E-01
  8.50000000E-01  8.50000000E-01  8.50000000E-01  8.50000000E-01  8.50000000E-01
  8.50000000E-01  8.50000000E-01  8.50000000E-01  8.50000000E-01  8.50000000E-01
  8.50000000E-01  8.50000000E-01  8.50000000E-01  8.50000000E-01  8.50000000E-01
  8.50000000E-01  8.50000000E-01  8.50000000E-01  8.50000000E-01  8.50000000E-01
  8.50000000E-01  8.50000000E-01  8.50000000E-01  8.50000000E-01  8.50000000E-01
  8.50000000E-01  8.50000000E-01  8.50000000E-01  8.50000000E-01  8.50000000E-01
  8.50000000E-01  8.50000000E-01  8.50000000E-01  8.50000000E-01  8.50000000E-01
  8.50000000E-01  8.50000000E-01  8.50000000E-01  8.50000000E-01  8.50000000E-01
  8.50000000E-01  8.50000000E-01  8.50000000E-01  8.50000000E-01  8.50000000E-01
  8.50000000E-01  8.50000000E-01  8.50000000E-01  8.50000000E-01  8.50000000E-01
  8.50000000E-01  8.50000000E-01  8.50000000E-01  8.50000000E-01  8.50000000E-01
  8.50000000E-01  8.50000000E-01  8.50000000E-01  8.50000000E-01  8.50000000E-01
  8.50000000E-01  8.50000000E-01  8.50000000E-01  8.50000000E-01  8.50000000E-01
  8.50000000E-01  8.50000000E-01  8.50000000E-01  8.50000000E-01  8.50000000E-01
  8.50000000E-01  8.50000000E-01  8.50000000E-01  8.50000000E-01  8.50000000E-01
  8.50000000E-01  8.50000000E-01  8.50000000E-01  8.50000000E-01  8.50000000E-01
  8.50000000E-01  8.50000000E-01  8.50000000E-01  8.50000000E-01  8.50000000E-01
  8.50000000E-01  8.50000000E-01  8.50000000E-01  8.50000000E-01  8.50000000E-01
  8.50000000E-01  8.50000000E-01  8.50000000E-01  8.50000000E-01  8.50000000E-01
  8.50000000E-01  8.50000000E-01  8.50000000E-01  8.50000000E-01  8.50000000E-01
  8.50000000E-01  8.50000000E-01  8.50000000E-01  8.50000000E-01  8.50000000E-01
  8.50000000E-01  8.50000000E-01  8.50000000E-01  8.50000000E-01  8.50000000E-01
  8.50000000E-01  8.50000000E-01  8.50000000E-01  8.50000000E-01  8.50000000E-01
  8.50000000E-01  8.50000000E-01  8.50000000E-01  8.50000000E-01  8.50000000E-01
  8.50000000E-01  8.50000000E-01  8.50000000E-01  8.50000000E-01  8.50000000E-01
  8.50000000E-01  8.50000000E-01  8.50000000E-01  8.50000000E-01  8.50000000E-01
  8.50000000E-01  8.50000000E-01  8.50000000E-01  8.50000000E-01  8.50000000E-01
  8.50000000E-01  8.50000000E-01  8.50000000E-01  8.50000000E-01  8.50000000E-01
  8.50000000E-01  8.50000000E-01  8.50000000E-01  8.50000000E-01  8.50000000E-01
  8.50000000E-01  8.50000000E-01  8.50000000E-01  8.50000000E-01  8.50000000E-01
  8.50000000E-01  8.50000000E-01  8.50000000E-01  8.50000000E-01  8.50000000E-01
  8.50000000E-01  8.50000000E-01  8.50000000E-01  8.50000000E-01  8.50000000E-01
  8.50000000E-01  8.50000000E-01  8.50000000E-01  8.50000000E-01  8.50000000E-01
  8.50000000E-01  8.50000000E-01  8.50000000E-01  8.50000000E-01  8.50000000E-01
  8.50000000E-01  8.50000000E-01  8.50000000E-01  8.50000000E-01  8.50000000E-01
  8.50000000E-01  8.50000000E-01  8.50000000E-01  8.50000000E-01  8.50000000E-01
  8.50000000E-01  8.50000000E-01  8.50000000E-01  8.50000000E-01  8.50000000E-01
  8.50000000E-01  8.50000000E-01  8.50000000E-01  8.50000000E-01  8.50000000E-01
  8.50000000E-01  8.50000000E-01  8.50000000E-01  8.50000000E-01  8.50000000E-01
  8.50000000E-01  8.50000000E-01  8.50000000E-01  8.50000000E-01  8.50000000E-01
  8.50000000E-01  8.50000000E-01  8.50000000E-01  8.50000000E-01  8.50000000E-01
  8.50000000E-01  8.50000000E-01  8.50000000E-01  8.50000000E-01  8.50000000E-01
  8.50000000E-01  8.50000000E-01  8.50000000E-01  8.50000000E-01  8.50000000E-01
  8.50000000E-01  8.50000000E-01  8.50000000E-01  8.50000000E-01  8.50000000E-01
  8.50000000E-01  8.50000000E-01  8.50000000E-01  8.50000000E-01  8.50000000E-01
  8.50000000E-01  8.50000000E-01  8.50000000E-01  8.50000000E-01  8.50000000E-01
  8.50000000E-01  8.50000000E-01  8.50000000E-01  8.50000000E-01  8.50000000E-01
  8.50000000E-01  8.50000000E-01  8.50000000E-01  8.50000000E-01  8.50000000E-01
  8.50000000E-01  8.50000000E-01  8.50000000E-01  8.50000000E-01  8.50000000E-01
  8.50000000E-01  8.50000000E-01  8.50000000E-01  8.50000000E-01  8.50000000E-01
  8.50000000E-01  8.50000000E-01  8.50000000E-01  8.50000000E-01  8.50000000E-01
  8.50000000E-01  8.50000000E-01  8.50000000E-01  8.50000000E-01  8.50000000E-01
  8.50000000E-01  8.50000000E-01  8.50000000E-01  8.50000000E-01  8.50000000E-01
  8.50000000E-01  8.50000000E-01  8.50000000E-01  8.50000000E-01  8.50000000E-01
  8.50000000E-01  8.50000000E-01  8.50000000E-01  8.50000000E-01  8.50000000E-01
  8.50000000E-01  8.50000000E-01  8.50000000E-01  8.50000000E-01  8.50000000E-01
  8.50000000E-01  8.50000000E-01  8.50000000E-01  8.50000000E-01  8.50000000E-01
  8.50000000E-01  8.50000000E-01  8.50000000E-01  8.50000000E-01  8.50000000E-01
  8.50000000E-01  8.50000000E-01  8.50000000E-01  8.50000000E-01  8.50000000E-01
  8.50000000E-01  8.50000000E-01  8.50000000E-01  8.50000000E-01  8.50000000E-01
  8.50000000E-01  8.50000000E-01  8.50000000E-01  8.50000000E-01  8.50000000E-01
  8.50000000E-01  8.50000000E-01  8.50000000E-01  8.50000000E-01  8.50000000E-01
  8.50000000E-01  8.50000000E-01  8.50000000E-01  8.50000000E-01  8.50000000E-01
  8.50000000E-01  8.50000000E-01  8.50000000E-01  8.50000000E-01  8.50000000E-01
  8.50000000E-01  8.50000000E-01  8.50000000E-01  8.50000000E-01  8.50000000E-01
  8.50000000E-01  8.50000000E-01  8.50000000E-01  8.50000000E-01  8.50000000E-01
  8.50000000E-01  8.50000000E-01  8.50000000E-01  8.50000000E-01  8.50000000E-01
  8.50000000E-01  8.50000000E-01  8.50000000E-01  8.50000000E-01  8.50000000E-01
  8.50000000E-01  8.50000000E-01  8.50000000E-01  8.50000000E-01  8.50000000E-01
  8.50000000E-01  8.50000000E-01  8.50000000E-01  8.50000000E-01  8.50000000E-01
  8.50000000E-01  8.50000000E-01  8.50000000E-01  8.50000000E-01  8.50000000E-01
  8.50000000E-01  8.50000000E-01  8.50000000E-01  8.50000000E-01  8.50000000E-01
  8.50000000E-01  8.50000000E-01  8.50000000E-01  8.50000000E-01  8.50000000E-01
  8.50000000E-01  8.50000000E-01  8.50000000E-01  8.50000000E-01  8.50000000E-01
  8.50000000E-01  8.50000000E-01  8.50000000E-01  8.50000000E-01  8.50000000E-01
  8.50000000E-01  8.50000000E-01  8.50000000E-01  8.50000000E-01  8.50000000E-01
  8.50000000E-01  8.50000000E-01  8.50000000E-01  8.50000000E-01  8.50000000E-01
  8.50000000E-01  8.50000000E-01  8.50000000E-01  8.50000000E-01  8.50000000E-01
  8.50000000E-01  8.50000000E-01  8.50000000E-01  8.50000000E-01  8.50000000E-01
  8.50000000E-01  8.50000000E-01  8.50000000E-01  8.50000000E-01  8.50000000E-01
  8.50000000E-01  8.50000000E-01  8.50000000E-01  8.50000000E-01  8.50000000E-01
  8.50000000E-01  8.50000000E-01  8.50000000E-01  8.50000000E-01  8.50000000E-01
  8.50000000E-01  8.50000000E-01  8.50000000E-01  8.50000000E-01  8.50000000E-01
  8.50000000E-01  8.50000000E-01  8.50000000E-01  8.50000000E-01  8.50000000E-01
  8.50000000E-01  8.50000000E-01  8.50000000E-01  8.50000000E-01  8.50000000E-01
  8.50000000E-01  8.50000000E-01  8.50000000E-01  8.50000000E-01  8.50000000E-01
  8.50000000E-01  8.50000000E-01  8.50000000E-01  8.50000000E-01  8.50000000E-01
  8.50000000E-01  8.50000000E-01  8.50000000E-01  8.50000000E-01  8.50000000E-01
  8.50000000E-01  8.50000000E-01  8.50000000E-01  8.50000000E-01  8.50000000E-01
  8.50000000E-01  8.50000000E-01  8.50000000E-01  8.50000000E-01  8.50000000E-01
  8.50000000E-01  8.50000000E-01  8.50000000E-01  8.50000000E-01  8.50000000E-01
  8.50000000E-01  8.50000000E-01  8.50000000E-01  8.50000000E-01  8.50000000E-01
  8.50000000E-01  8.50000000E-01  8.50000000E-01  8.50000000E-01  8.50000000E-01
  8.50000000E-01  8.50000000E-01  8.50000000E-01  8.50000000E-01  8.50000000E-01
  8.50000000E-01  8.50000000E-01  8.50000000E-01  8.50000000E-01  8.50000000E-01
  8.50000000E-01  8.50000000E-01  8.50000000E-01  8.50000000E-01  8.50000000E-01
  8.50000000E-01  8.50000000E-01  8.50000000E-01  8.50000000E-01  8.50000000E-01
  8.50000000E-01  8.50000000E-01  8.50000000E-01  8.50000000E-01  8.50000000E-01
  8.50000000E-01  8.50000000E-01  8.50000000E-01  8.50000000E-01  8.50000000E-01
  8.50000000E-01  8.50000000E-01  8.50000000E-01  8.50000000E-01  8.50000000E-01
  8.50000000E-01  8.50000000E-01  8.50000000E-01  8.50000000E-01  8.50000000E-01
  8.50000000E-01  8.50000000E-01  8.50000000E-01  8.50000000E-01  8.50000000E-01
  8.50000000E-01  8.50000000E-01  8.50000000E-01  8.50000000E-01  8.50000000E-01
  8.50000000E-01  8.50000000E-01  8.50000000E-01  8.50000000E-01  8.50000000E-01
  8.50000000E-01  8.50000000E-01  8.50000000E-01  8.50000000E-01  8.50000000E-01
  8.50000000E-01  8.50000000E-01  8.50000000E-01  8.50000000E-01  8.50000000E-01
  8.50000000E-01  8.50000000E-01  8.50000000E-01  8.50000000E-01  8.50000000E-01
  8.50000000E-01  8.50000000E-01  8.50000000E-01  8.50000000E-01  8.50000000E-01
  8.50000000E-01  8.50000000E-01  8.50000000E-01  8.50000000E-01  8.50000000E-01
  8.50000000E-01  8.50000000E-01  8.50000000E-01  8.50000000E-01  8.50000000E-01
  8.50000000E-01  8.50000000E-01  8.50000000E-01  8.50000000E-01  8.50000000E-01
  8.50000000E-01  8.50000000E-01  8.50000000E-01  8.50000000E-01  8.50000000E-01
  8.50000000E-01  8.50000000E-01  8.50000000E-01  8.50000000E-01  8.50000000E-01
  8.50000000E-01  8.50000000E-01  8.50000000E-01  8.50000000E-01  8.50000000E-01
  8.50000000E-01  8.50000000E-01  8.50000000E-01  8.50000000E-01  8.50000000E-01
  8.50000000E-01  8.50000000E-01  8.50000000E-01  8.50000000E-01  8.50000000E-01
  8.50000000E-01  8.50000000E-01  8.50000000E-01  8.50000000E-01  8.50000000E-01
  8.50000000E-01  8.50000000E-01  8.50000000E-01  8.50000000E-01  8.50000000E-01
  8.50000000E-01  8.50000000E-01  8.50000000E-01  8.50000000E-01  8.50000000E-01
  8.50000000E-01  8.50000000E-01  8.50000000E-01  8.50000000E-01  8.50000000E-01
  8.50000000E-01  8.50000000E-01  8.50000000E-01  8.50000000E-01  8.50000000E-01
  8.50000000E-01  8.50000000E-01  8.50000000E-01  8.50000000E-01  8.50000000E-01
  8.50000000E-01  8.50000000E-01  8.50000000E-01  8.50000000E-01  8.50000000E-01
  8.50000000E-01  8.50000000E-01  8.50000000E-01  8.50000000E-01  8.50000000E-01
  8.50000000E-01  8.50000000E-01  8.50000000E-01  8.50000000E-01  8.50000000E-01
  8.50000000E-01  8.50000000E-01  8.50000000E-01  8.50000000E-01  8.50000000E-01
  8.50000000E-01  8.50000000E-01  8.50000000E-01  8.50000000E-01  8.50000000E-01
  8.50000000E-01  8.50000000E-01  8.50000000E-01  8.50000000E-01  8.50000000E-01
  8.50000000E-01  8.50000000E-01  8.50000000E-01  8.50000000E-01  8.50000000E-01
  8.50000000E-01  8.50000000E-01  8.50000000E-01  8.50000000E-01  8.50000000E-01
  8.50000000E-01  8.50000000E-01  8.50000000E-01  8.50000000E-01  8.50000000E-01
  8.50000000E-01  8.50000000E-01  8.50000000E-01  8.50000000E-01  8.50000000E-01
  8.50000000E-01  8.50000000E-01  8.50000000E-01  8.50000000E-01  8.50000000E-01
  8.50000000E-01  8.50000000E-01  8.50000000E-01  8.50000000E-01  8.50000000E-01
  8.50000000E-01  8.50000000E-01  8.50000000E-01  8.50000000E-01  8.50000000E-01
  8.50000000E-01  8.50000000E-01  8.50000000E-01  8.50000000E-01  8.50000000E-01
  8.50000000E-01  8.50000000E-01  8.50000000E-01  8.50000000E-01  8.50000000E-01
  8.50000000E-01  8.50000000E-01  8.50000000E-01  8.50000000E-01  8.50000000E-01
  8.50000000E-01  8.50000000E-01  8.50000000E-01  8.50000000E-01  8.50000000E-01
  8.50000000E-01  8.50000000E-01  8.50000000E-01  8.50000000E-01  8.50000000E-01
  8.50000000E-01  8.50000000E-01  8.50000000E-01  8.50000000E-01  8.50000000E-01
  8.50000000E-01  8.50000000E-01  8.50000000E-01  8.50000000E-01  8.50000000E-01
  8.50000000E-01  8.50000000E-01  8.50000000E-01  8.50000000E-01  8.50000000E-01
  8.50000000E-01  8.50000000E-01  8.50000000E-01  8.50000000E-01  8.50000000E-01
  8.50000000E-01  8.50000000E-01  8.50000000E-01  8.50000000E-01  8.50000000E-01
  8.50000000E-01  8.50000000E-01  8.50000000E-01  8.50000000E-01  8.50000000E-01
  8.50000000E-01  8.50000000E-01  8.50000000E-01  8.50000000E-01  8.50000000E-01
  8.50000000E-01  8.50000000E-01  8.50000000E-01  8.50000000E-01  8.50000000E-01
  8.50000000E-01  8.50000000E-01  8.50000000E-01  8.50000000E-01  8.50000000E-01
  8.50000000E-01  8.50000000E-01  8.50000000E-01  8.50000000E-01  8.50000000E-01
  8.50000000E-01  8.50000000E-01  8.50000000E-01  8.50000000E-01  8.50000000E-01
  8.50000000E-01  8.50000000E-01  8.50000000E-01  8.50000000E-01  8.50000000E-01
  8.50000000E-01  8.50000000E-01  8.50000000E-01  8.50000000E-01  8.50000000E-01
  8.50000000E-01  8.50000000E-01  8.50000000E-01  8.50000000E-01  8.50000000E-01
  8.50000000E-01  8.50000000E-01  8.50000000E-01  8.50000000E-01  8.50000000E-01
  8.50000000E-01  8.50000000E-01  8.50000000E-01  8.50000000E-01  8.50000000E-01
  8.50000000E-01  8.50000000E-01  8.50000000E-01  8.50000000E-01  8.50000000E-01
  8.50000000E-01  8.50000000E-01  8.50000000E-01  8.50000000E-01  8.50000000E-01
  8.50000000E-01  8.50000000E-01  8.50000000E-01  8.50000000E-01  8.50000000E-01
  8.50000000E-01  8.50000000E-01  8.50000000E-01  8.50000000E-01  8.50000000E-01
  8.50000000E-01  8.50000000E-01  8.50000000E-01  8.50000000E-01  8.50000000E-01
  8.50000000E-01  8.50000000E-01  8.50000000E-01  8.50000000E-01  8.50000000E-01
  8.50000000E-01  8.50000000E-01  8.50000000E-01  8.50000000E-01  8.50000000E-01
  8.50000000E-01  8.50000000E-01  8.50000000E-01  8.50000000E-01  8.50000000E-01
  8.50000000E-01  8.50000000E-01  8.50000000E-01  8.50000000E-01  8.50000000E-01
  8.50000000E-01  8.50000000E-01  8.50000000E-01  8.50000000E-01  8.50000000E-01
  8.50000000E-01  8.50000000E-01  8.50000000E-01  8.50000000E-01  8.50000000E-01
  8.50000000E-01  8.50000000E-01  8.50000000E-01  8.50000000E-01  8.50000000E-01
  8.50000000E-01  8.50000000E-01  8.50000000E-01  8.50000000E-01  8.50000000E-01
  8.50000000E-01  8.50000000E-01  8.50000000E-01  8.50000000E-01  8.50000000E-01
  8.50000000E-01  8.50000000E-01  8.50000000E-01  8.50000000E-01  8.50000000E-01
  8.50000000E-01  8.50000000E-01  8.50000000E-01  8.50000000E-01  8.50000000E-01
  8.50000000E-01  8.50000000E-01  8.50000000E-01  8.50000000E-01  8.50000000E-01
  8.50000000E-01  8.50000000E-01  8.50000000E-01  8.50000000E-01  8.50000000E-01
  8.50000000E-01  8.50000000E-01  8.50000000E-01  8.50000000E-01  8.50000000E-01
  8.50000000E-01  8.50000000E-01  8.50000000E-01  8.50000000E-01  8.50000000E-01
  8.50000000E-01  8.50000000E-01  8.50000000E-01  8.50000000E-01  8.50000000E-01
  8.50000000E-01  8.50000000E-01  8.50000000E-01  8.50000000E-01  8.50000000E-01
  8.50000000E-01  8.50000000E-01  8.50000000E-01  8.50000000E-01  8.50000000E-01
  8.50000000E-01  8.50000000E-01  8.50000000E-01  8.50000000E-01  8.50000000E-01
  8.50000000E-01  8.50000000E-01  8.50000000E-01  8.50000000E-01  8.50000000E-01
  8.50000000E-01  8.50000000E-01  8.50000000E-01  8.50000000E-01  8.50000000E-01
  8.50000000E-01  8.50000000E-01  8.50000000E-01  8.50000000E-01  8.50000000E-01
  8.50000000E-01  8.50000000E-01  8.50000000E-01  8.50000000E-01  8.50000000E-01
  8.50000000E-01  8.50000000E-01  8.50000000E-01  8.50000000E-01  8.50000000E-01
  8.50000000E-01  8.50000000E-01  8.50000000E-01  8.50000000E-01  8.50000000E-01
  8.50000000E-01  8.50000000E-01  8.50000000E-01  8.50000000E-01  8.50000000E-01
  8.50000000E-01  8.50000000E-01  8.50000000E-01  8.50000000E-01  8.50000000E-01
  8.50000000E-01  8.50000000E-01  8.50000000E-01  8.50000000E-01  8.50000000E-01
  8.50000000E-01  8.50000000E-01  8.50000000E-01  8.50000000E-01  8.50000000E-01
  8.50000000E-01  8.50000000E-01  8.50000000E-01  8.50000000E-01  8.50000000E-01
  8.50000000E-01  8.50000000E-01  8.50000000E-01  8.50000000E-01  8.50000000E-01
  8.50000000E-01  8.50000000E-01  8.50000000E-01  8.50000000E-01  8.50000000E-01
  8.50000000E-01  8.50000000E-01  8.50000000E-01  8.50000000E-01  8.50000000E-01
  8.50000000E-01  8.50000000E-01  8.50000000E-01  8.50000000E-01  8.50000000E-01
  8.50000000E-01  8.50000000E-01  8.50000000E-01  8.50000000E-01  8.50000000E-01
  8.50000000E-01  8.50000000E-01  8.50000000E-01  8.50000000E-01  8.50000000E-01
  8.50000000E-01  8.50000000E-01  8.50000000E-01  8.50000000E-01  8.50000000E-01
  8.50000000E-01  8.50000000E-01  8.50000000E-01  8.50000000E-01  8.50000000E-01
  8.50000000E-01  8.50000000E-01  8.50000000E-01  8.50000000E-01  8.50000000E-01
  8.50000000E-01  8.50000000E-01  8.50000000E-01  8.50000000E-01  8.50000000E-01
  8.50000000E-01  8.50000000E-01  8.50000000E-01  8.50000000E-01  8.50000000E-01
  8.50000000E-01  8.50000000E-01  8.50000000E-01  8.50000000E-01  8.50000000E-01
  8.50000000E-01  8.50000000E-01  8.50000000E-01  8.50000000E-01  8.50000000E-01
  8.50000000E-01  8.50000000E-01  8.50000000E-01  8.50000000E-01  8.50000000E-01
  8.50000000E-01  8.50000000E-01  8.50000000E-01  8.50000000E-01  8.50000000E-01
  8.50000000E-01  8.50000000E-01  8.50000000E-01  8.50000000E-01  8.50000000E-01
  8.50000000E-01  8.50000000E-01  8.50000000E-01  8.50000000E-01  8.50000000E-01
  8.50000000E-01  8.50000000E-01  8.50000000E-01  8.50000000E-01  8.50000000E-01
  8.50000000E-01  8.50000000E-01  8.50000000E-01  8.50000000E-01  8.50000000E-01
  8.50000000E-01  8.50000000E-01  8.50000000E-01  8.50000000E-01  8.50000000E-01
  8.50000000E-01  8.50000000E-01  8.50000000E-01  8.50000000E-01  8.50000000E-01
  8.50000000E-01  8.50000000E-01  8.50000000E-01  8.50000000E-01  8.50000000E-01
  8.50000000E-01  8.50000000E-01  8.50000000E-01  8.50000000E-01  8.50000000E-01
  8.50000000E-01  8.50000000E-01  8.50000000E-01  8.50000000E-01  8.50000000E-01
  8.50000000E-01  8.50000000E-01  8.50000000E-01  8.50000000E-01  8.50000000E-01
  8.50000000E-01  8.50000000E-01  8.50000000E-01  8.50000000E-01  8.50000000E-01
  8.50000000E-01  8.50000000E-01  8.50000000E-01  8.50000000E-01  8.50000000E-01
  8.50000000E-01  8.50000000E-01  8.50000000E-01  8.50000000E-01  8.50000000E-01
  8.50000000E-01  8.50000000E-01  8.50000000E-01  8.50000000E-01  8.50000000E-01
  8.50000000E-01  8.50000000E-01  8.50000000E-01  8.50000000E-01  8.50000000E-01
  8.50000000E-01  8.50000000E-01  8.50000000E-01  8.50000000E-01  8.50000000E-01
  8.50000000E-01  8.50000000E-01  8.50000000E-01  8.50000000E-01  8.50000000E-01
  8.50000000E-01  8.50000000E-01  8.50000000E-01  8.50000000E-01  8.50000000E-01
  8.50000000E-01  8.50000000E-01  8.50000000E-01  8.50000000E-01  8.50000000E-01
  8.50000000E-01  8.50000000E-01  8.50000000E-01  8.50000000E-01  8.50000000E-01
  8.50000000E-01  8.50000000E-01  8.50000000E-01  8.50000000E-01  8.50000000E-01
  8.50000000E-01  8.50000000E-01  8.50000000E-01  8.50000000E-01  8.50000000E-01
  8.50000000E-01  8.50000000E-01  8.50000000E-01  8.50000000E-01  8.50000000E-01
  8.50000000E-01  8.50000000E-01  8.50000000E-01  8.50000000E-01  8.50000000E-01
  8.50000000E-01  8.50000000E-01  8.50000000E-01  8.50000000E-01  8.50000000E-01
  8.50000000E-01  8.50000000E-01  8.50000000E-01  8.50000000E-01  8.50000000E-01
  8.50000000E-01  8.50000000E-01  8.50000000E-01  8.50000000E-01  8.50000000E-01
  8.50000000E-01  8.50000000E-01  8.50000000E-01  8.50000000E-01  8.50000000E-01
  8.50000000E-01  8.50000000E-01  8.50000000E-01  8.50000000E-01  8.50000000E-01
  8.50000000E-01  8.50000000E-01  8.50000000E-01  8.50000000E-01  8.50000000E-01
  8.50000000E-01  8.50000000E-01  8.50000000E-01  8.50000000E-01  8.50000000E-01
  8.50000000E-01  8.50000000E-01  8.50000000E-01  8.50000000E-01  8.50000000E-01
  8.50000000E-01  8.50000000E-01  8.50000000E-01  8.50000000E-01  8.50000000E-01
  8.50000000E-01  8.50000000E-01  8.50000000E-01  8.50000000E-01  8.50000000E-01
  8.50000000E-01  8.50000000E-01  8.50000000E-01  8.50000000E-01  8.50000000E-01
  8.50000000E-01  8.50000000E-01  8.50000000E-01  8.50000000E-01  8.50000000E-01
  8.50000000E-01  8.50000000E-01  8.50000000E-01  8.50000000E-01  8.50000000E-01
  8.50000000E-01  8.50000000E-01  8.50000000E-01  8.50000000E-01  8.50000000E-01
  8.50000000E-01  8.50000000E-01  8.50000000E-01  8.50000000E-01  8.50000000E-01
  8.50000000E-01  8.50000000E-01  8.50000000E-01  8.50000000E-01  8.50000000E-01
  8.50000000E-01  8.50000000E-01  8.50000000E-01  8.50000000E-01  8.50000000E-01
  8.50000000E-01  8.50000000E-01  8.50000000E-01  8.50000000E-01  8.50000000E-01
  8.50000000E-01  8.50000000E-01  8.50000000E-01  8.50000000E-01  8.50000000E-01
  8.50000000E-01  8.50000000E-01  8.50000000E-01  8.50000000E-01  8.50000000E-01
  8.50000000E-01  8.50000000E-01  8.50000000E-01  8.50000000E-01  8.50000000E-01
  8.50000000E-01  8.50000000E-01  8.50000000E-01  8.50000000E-01  8.50000000E-01
  8.50000000E-01  8.50000000E-01  8.50000000E-01  8.50000000E-01  8.50000000E-01
  8.50000000E-01  8.50000000E-01  8.50000000E-01  8.50000000E-01  8.50000000E-01
  8.50000000E-01  8.50000000E-01  8.50000000E-01  8.50000000E-01  8.50000000E-01
  8.50000000E-01  8.50000000E-01  8.50000000E-01  8.50000000E-01  8.50000000E-01
  8.50000000E-01  8.50000000E-01  8.50000000E-01  8.50000000E-01  8.50000000E-01
  8.50000000E-01  8.50000000E-01  8.50000000E-01  8.50000000E-01  8.50000000E-01
  8.50000000E-01  8.50000000E-01  8.50000000E-01  8.50000000E-01  8.50000000E-01
  8.50000000E-01  8.50000000E-01  8.50000000E-01  8.50000000E-01  8.50000000E-01
  8.50000000E-01  8.50000000E-01  8.50000000E-01  8.50000000E-01  8.50000000E-01
  8.50000000E-01  8.50000000E-01  8.50000000E-01  8.50000000E-01  8.50000000E-01
  8.50000000E-01  8.50000000E-01  8.50000000E-01  8.50000000E-01  8.50000000E-01
  8.50000000E-01  8.50000000E-01  8.50000000E-01  8.50000000E-01  8.50000000E-01
  8.50000000E-01  8.50000000E-01  8.50000000E-01  8.50000000E-01  8.50000000E-01
  8.50000000E-01  8.50000000E-01  8.50000000E-01  8.50000000E-01  8.50000000E-01
  8.50000000E-01  8.50000000E-01  8.50000000E-01  8.50000000E-01  8.50000000E-01
  8.50000000E-01  8.50000000E-01  8.50000000E-01  8.50000000E-01  8.50000000E-01
  8.50000000E-01  8.50000000E-01  8.50000000E-01  8.50000000E-01  8.50000000E-01
  8.50000000E-01  8.50000000E-01  8.50000000E-01  8.50000000E-01  8.50000000E-01
  8.50000000E-01  8.50000000E-01  8.50000000E-01  8.50000000E-01  8.50000000E-01
  8.50000000E-01  8.50000000E-01  8.50000000E-01  8.50000000E-01  8.50000000E-01
  8.50000000E-01  8.50000000E-01  8.50000000E-01  8.50000000E-01  8.50000000E-01
  8.50000000E-01  8.50000000E-01  8.50000000E-01  8.50000000E-01  8.50000000E-01
  8.50000000E-01  8.50000000E-01  8.50000000E-01  8.50000000E-01  8.50000000E-01
  8.50000000E-01  8.50000000E-01  8.50000000E-01  8.50000000E-01  8.50000000E-01
  8.50000000E-01  8.50000000E-01  8.50000000E-01  8.50000000E-01  8.50000000E-01
  8.50000000E-01  8.50000000E-01  8.50000000E-01  8.50000000E-01  8.50000000E-01
  8.50000000E-01  8.50000000E-01  8.50000000E-01  8.50000000E-01  8.50000000E-01
  8.50000000E-01  8.50000000E-01  8.50000000E-01  8.50000000E-01  8.50000000E-01
  8.50000000E-01  8.50000000E-01  8.50000000E-01  8.50000000E-01  8.50000000E-01
  8.50000000E-01  8.50000000E-01  8.50000000E-01  8.50000000E-01  8.50000000E-01
  8.50000000E-01  8.50000000E-01  8.50000000E-01  8.50000000E-01  8.50000000E-01
  8.50000000E-01  8.50000000E-01  8.50000000E-01  8.50000000E-01  8.50000000E-01
  8.50000000E-01  8.50000000E-01  8.50000000E-01  8.50000000E-01  8.50000000E-01
  8.50000000E-01  8.50000000E-01  8.50000000E-01  8.50000000E-01  8.50000000E-01
  8.50000000E-01  8.50000000E-01  8.50000000E-01  8.50000000E-01  8.50000000E-01
  8.50000000E-01  8.50000000E-01  8.50000000E-01  8.50000000E-01  8.50000000E-01
  8.50000000E-01  8.50000000E-01  8.50000000E-01  8.50000000E-01  8.50000000E-01
  8.50000000E-01  8.50000000E-01  8.50000000E-01  8.50000000E-01  8.50000000E-01
  8.50000000E-01  8.50000000E-01  8.50000000E-01  8.50000000E-01  8.50000000E-01
  8.50000000E-01  8.50000000E-01  8.50000000E-01  8.50000000E-01  8.50000000E-01
  8.50000000E-01  8.50000000E-01  8.50000000E-01  8.50000000E-01  8.50000000E-01
  8.50000000E-01  8.50000000E-01  8.50000000E-01  8.50000000E-01  8.50000000E-01
  8.50000000E-01  8.50000000E-01  8.50000000E-01  8.50000000E-01  8.50000000E-01
  8.50000000E-01  8.50000000E-01  8.50000000E-01  8.50000000E-01  8.50000000E-01
  8.50000000E-01  8.50000000E-01  8.50000000E-01  8.50000000E-01  8.50000000E-01
  8.50000000E-01  8.50000000E-01  8.50000000E-01  8.50000000E-01  8.50000000E-01
  8.50000000E-01  8.50000000E-01  8.50000000E-01  8.50000000E-01  8.50000000E-01
  8.50000000E-01  8.50000000E-01  8.50000000E-01  8.50000000E-01  8.50000000E-01
  8.50000000E-01  8.50000000E-01  8.50000000E-01  8.50000000E-01  8.50000000E-01
  8.50000000E-01  8.50000000E-01  8.50000000E-01  8.50000000E-01  8.50000000E-01
  8.50000000E-01  8.50000000E-01  8.50000000E-01  8.50000000E-01  8.50000000E-01
  8.50000000E-01  8.50000000E-01  8.50000000E-01  8.50000000E-01  8.50000000E-01
  8.50000000E-01  8.50000000E-01  8.50000000E-01  8.50000000E-01  8.50000000E-01
  8.50000000E-01  8.50000000E-01  8.50000000E-01  8.50000000E-01  8.50000000E-01
  8.50000000E-01  8.50000000E-01  8.50000000E-01  8.50000000E-01  8.50000000E-01
  8.50000000E-01  8.50000000E-01  8.50000000E-01  8.50000000E-01  8.50000000E-01
  8.50000000E-01  8.50000000E-01  8.50000000E-01  8.50000000E-01  8.50000000E-01
  8.50000000E-01  8.50000000E-01  8.50000000E-01  8.50000000E-01  8.50000000E-01
  8.50000000E-01  8.50000000E-01  8.50000000E-01  8.50000000E-01  8.50000000E-01
  8.50000000E-01  8.50000000E-01  8.50000000E-01  8.50000000E-01  8.50000000E-01
  8.50000000E-01  8.50000000E-01  8.50000000E-01  8.50000000E-01  8.50000000E-01
  8.50000000E-01  8.50000000E-01  8.50000000E-01  8.50000000E-01  8.50000000E-01
  8.50000000E-01  8.50000000E-01  8.50000000E-01  8.50000000E-01  8.50000000E-01
  8.50000000E-01  8.50000000E-01  8.50000000E-01  8.50000000E-01  8.50000000E-01
  8.50000000E-01  8.50000000E-01  8.50000000E-01  8.50000000E-01  8.50000000E-01
  8.50000000E-01  8.50000000E-01  8.50000000E-01  8.50000000E-01  8.50000000E-01
  8.50000000E-01  8.50000000E-01  8.50000000E-01  8.50000000E-01  8.50000000E-01
  8.50000000E-01  8.50000000E-01  8.50000000E-01  8.50000000E-01  8.50000000E-01
  8.50000000E-01  8.50000000E-01  8.50000000E-01  8.50000000E-01  8.50000000E-01
  8.50000000E-01  8.50000000E-01  8.50000000E-01  8.50000000E-01  8.50000000E-01
  8.50000000E-01  8.50000000E-01  8.50000000E-01  8.50000000E-01  8.50000000E-01
  8.50000000E-01  8.50000000E-01  8.50000000E-01  8.50000000E-01  8.50000000E-01
  8.50000000E-01  8.50000000E-01  8.50000000E-01  8.50000000E-01  8.50000000E-01
  8.50000000E-01  8.50000000E-01  8.50000000E-01  8.50000000E-01  8.50000000E-01
  8.50000000E-01  8.50000000E-01  8.50000000E-01  8.50000000E-01  8.50000000E-01
  8.50000000E-01  8.50000000E-01  8.50000000E-01  8.50000000E-01  8.50000000E-01
  8.50000000E-01  8.50000000E-01  8.50000000E-01  8.50000000E-01  8.50000000E-01
  8.50000000E-01  8.50000000E-01  8.50000000E-01  8.50000000E-01  8.50000000E-01
  8.50000000E-01  8.50000000E-01  8.50000000E-01  8.50000000E-01  8.50000000E-01
  8.50000000E-01  8.50000000E-01  8.50000000E-01  8.50000000E-01  8.50000000E-01
  8.50000000E-01  8.50000000E-01  8.50000000E-01  8.50000000E-01  8.50000000E-01
  8.50000000E-01  8.50000000E-01  8.50000000E-01  8.50000000E-01  8.50000000E-01
  8.50000000E-01  8.50000000E-01  8.50000000E-01  8.50000000E-01  8.50000000E-01
  8.50000000E-01  8.50000000E-01  8.50000000E-01  8.50000000E-01  8.50000000E-01
  8.50000000E-01  8.50000000E-01  8.50000000E-01  8.50000000E-01  8.50000000E-01
  8.50000000E-01  8.50000000E-01  8.50000000E-01  8.50000000E-01  8.50000000E-01
  8.50000000E-01  8.50000000E-01  8.50000000E-01  8.50000000E-01  8.50000000E-01
  8.50000000E-01  8.50000000E-01  8.50000000E-01  8.50000000E-01  8.50000000E-01
  8.50000000E-01  8.50000000E-01  8.50000000E-01  8.50000000E-01  8.50000000E-01
  8.50000000E-01  8.50000000E-01  8.50000000E-01  8.50000000E-01  8.50000000E-01
  8.50000000E-01  8.50000000E-01  8.50000000E-01  8.50000000E-01  8.50000000E-01
  8.50000000E-01  8.50000000E-01  8.50000000E-01  8.50000000E-01  8.50000000E-01
  8.50000000E-01  8.50000000E-01  8.50000000E-01  8.50000000E-01  8.50000000E-01
  8.50000000E-01  8.50000000E-01  8.50000000E-01  8.50000000E-01  8.50000000E-01
  8.50000000E-01  8.50000000E-01  8.50000000E-01  8.50000000E-01  8.50000000E-01
  8.50000000E-01  8.50000000E-01  8.50000000E-01  8.50000000E-01  8.50000000E-01
  8.50000000E-01  8.50000000E-01  8.50000000E-01  8.50000000E-01  8.50000000E-01
  8.50000000E-01  8.50000000E-01  8.50000000E-01  8.50000000E-01  8.50000000E-01
  8.50000000E-01  8.50000000E-01  8.50000000E-01  8.50000000E-01  8.50000000E-01
  8.50000000E-01  8.50000000E-01  8.50000000E-01  8.50000000E-01  8.50000000E-01
  8.50000000E-01  8.50000000E-01  8.50000000E-01  8.50000000E-01  8.50000000E-01
  8.50000000E-01  8.50000000E-01  8.50000000E-01  8.50000000E-01  8.50000000E-01
  8.50000000E-01  8.50000000E-01  8.50000000E-01  8.50000000E-01  8.50000000E-01
  8.50000000E-01  8.50000000E-01  8.50000000E-01  8.50000000E-01  8.50000000E-01
  8.50000000E-01  8.50000000E-01  8.50000000E-01  8.50000000E-01  8.50000000E-01
  8.50000000E-01  8.50000000E-01  8.50000000E-01  8.50000000E-01  8.50000000E-01
  8.50000000E-01  8.50000000E-01  8.50000000E-01  8.50000000E-01  8.50000000E-01
  8.50000000E-01  8.50000000E-01  8.50000000E-01  8.50000000E-01  8.50000000E-01
  8.50000000E-01  8.50000000E-01  8.50000000E-01  8.50000000E-01  8.50000000E-01
  8.50000000E-01  8.50000000E-01  8.50000000E-01  8.50000000E-01  8.50000000E-01
  8.50000000E-01  8.50000000E-01  8.50000000E-01  8.50000000E-01  8.50000000E-01
  8.50000000E-01  8.50000000E-01  8.50000000E-01  8.50000000E-01  8.50000000E-01
  8.50000000E-01  8.50000000E-01  8.50000000E-01  8.50000000E-01  8.50000000E-01
  8.50000000E-01  8.50000000E-01  8.50000000E-01  8.50000000E-01  8.50000000E-01
  8.50000000E-01  8.50000000E-01  8.50000000E-01  8.50000000E-01  8.50000000E-01
  8.50000000E-01  8.50000000E-01  8.50000000E-01  8.50000000E-01  8.50000000E-01
  8.50000000E-01  8.50000000E-01  8.50000000E-01  8.50000000E-01  8.50000000E-01
  8.50000000E-01  8.50000000E-01  8.50000000E-01  8.50000000E-01  8.50000000E-01
  8.50000000E-01  8.50000000E-01  8.50000000E-01  8.50000000E-01  8.50000000E-01
  8.50000000E-01  8.50000000E-01  8.50000000E-01  8.50000000E-01  8.50000000E-01
  8.50000000E-01  8.50000000E-01  8.50000000E-01  8.50000000E-01  8.50000000E-01
  8.50000000E-01  8.50000000E-01  8.50000000E-01  8.50000000E-01  8.50000000E-01
  8.50000000E-01  8.50000000E-01  8.50000000E-01  8.50000000E-01  8.50000000E-01
  8.50000000E-01  8.50000000E-01  8.50000000E-01  8.50000000E-01  8.50000000E-01
  8.50000000E-01  8.50000000E-01  8.50000000E-01  8.50000000E-01  8.50000000E-01
  8.50000000E-01  8.50000000E-01  8.50000000E-01  8.50000000E-01  8.50000000E-01
  8.50000000E-01  8.50000000E-01  8.50000000E-01  8.50000000E-01  8.50000000E-01
  8.50000000E-01  8.50000000E-01  8.50000000E-01  8.50000000E-01  8.50000000E-01
  8.50000000E-01  8.50000000E-01  8.50000000E-01  8.50000000E-01  8.50000000E-01
  8.50000000E-01  8.50000000E-01  8.50000000E-01  8.50000000E-01  8.50000000E-01
  8.50000000E-01  8.50000000E-01  8.50000000E-01  8.50000000E-01  8.50000000E-01
  8.50000000E-01  8.50000000E-01  8.50000000E-01  8.50000000E-01  8.50000000E-01
  8.50000000E-01  8.50000000E-01  8.50000000E-01  8.50000000E-01  8.50000000E-01
  8.50000000E-01  8.50000000E-01  8.50000000E-01  8.50000000E-01  8.50000000E-01
  8.50000000E-01  8.50000000E-01  8.50000000E-01  8.50000000E-01  8.50000000E-01
  8.50000000E-01  8.50000000E-01  8.50000000E-01  8.50000000E-01  8.50000000E-01
  8.50000000E-01  8.50000000E-01  8.50000000E-01  8.50000000E-01  8.50000000E-01
  8.50000000E-01  8.50000000E-01  8.50000000E-01  8.50000000E-01  8.50000000E-01
  8.50000000E-01  8.50000000E-01  8.50000000E-01  8.50000000E-01  8.50000000E-01
  8.50000000E-01  8.50000000E-01  8.50000000E-01  8.50000000E-01  8.50000000E-01
  8.50000000E-01  8.50000000E-01  8.50000000E-01  8.50000000E-01  8.50000000E-01
  8.50000000E-01  8.50000000E-01  8.50000000E-01  8.50000000E-01  8.50000000E-01
  8.50000000E-01  8.50000000E-01  8.50000000E-01  8.50000000E-01  8.50000000E-01
  8.50000000E-01  8.50000000E-01  8.50000000E-01  8.50000000E-01  8.50000000E-01
  8.50000000E-01  8.50000000E-01  8.50000000E-01  8.50000000E-01  8.50000000E-01
  8.50000000E-01  8.50000000E-01  8.50000000E-01  8.50000000E-01  8.50000000E-01
  8.50000000E-01  8.50000000E-01  8.50000000E-01  8.50000000E-01  8.50000000E-01
  8.50000000E-01  8.50000000E-01  8.50000000E-01  8.50000000E-01  8.50000000E-01
  8.50000000E-01  8.50000000E-01  8.50000000E-01  8.50000000E-01  8.50000000E-01
  8.50000000E-01  8.50000000E-01  8.50000000E-01  8.50000000E-01  8.50000000E-01
  8.50000000E-01  8.50000000E-01  8.50000000E-01  8.50000000E-01  8.50000000E-01
  8.50000000E-01  8.50000000E-01  8.50000000E-01  8.50000000E-01  8.50000000E-01
  8.50000000E-01  8.50000000E-01  8.50000000E-01  8.50000000E-01  8.50000000E-01
  8.50000000E-01  8.50000000E-01  8.50000000E-01  8.50000000E-01  8.50000000E-01
  8.50000000E-01  8.50000000E-01  8.50000000E-01  8.50000000E-01  8.50000000E-01
  8.50000000E-01  8.50000000E-01  8.50000000E-01  8.50000000E-01  8.50000000E-01
  8.50000000E-01  8.50000000E-01  8.50000000E-01  8.50000000E-01  8.50000000E-01
  8.50000000E-01  8.50000000E-01  8.50000000E-01  8.50000000E-01  8.50000000E-01
  8.50000000E-01  8.50000000E-01  8.50000000E-01  8.50000000E-01  8.50000000E-01
  8.50000000E-01  8.50000000E-01  8.50000000E-01  8.50000000E-01  8.50000000E-01
  8.50000000E-01  8.50000000E-01  8.50000000E-01  8.50000000E-01  8.50000000E-01
  8.50000000E-01  8.50000000E-01  8.50000000E-01  8.50000000E-01  8.50000000E-01
  8.50000000E-01  8.50000000E-01  8.50000000E-01  8.50000000E-01  8.50000000E-01
  8.50000000E-01  8.50000000E-01  8.50000000E-01  8.50000000E-01  8.50000000E-01
  8.50000000E-01  8.50000000E-01  8.50000000E-01  8.50000000E-01  8.50000000E-01
  8.50000000E-01  8.50000000E-01  8.50000000E-01  8.50000000E-01  8.50000000E-01
  8.50000000E-01  8.50000000E-01  8.50000000E-01  8.50000000E-01  8.50000000E-01
  8.50000000E-01  8.50000000E-01  8.50000000E-01  8.50000000E-01  8.50000000E-01
  8.50000000E-01  8.50000000E-01  8.50000000E-01  8.50000000E-01  8.50000000E-01
  8.50000000E-01  8.50000000E-01  8.50000000E-01  8.50000000E-01  8.50000000E-01
  8.50000000E-01  8.50000000E-01  8.50000000E-01  8.50000000E-01  8.50000000E-01
  8.50000000E-01  8.50000000E-01  8.50000000E-01  8.50000000E-01  8.50000000E-01
  8.50000000E-01  8.50000000E-01  8.50000000E-01  8.50000000E-01  8.50000000E-01
  8.50000000E-01  8.50000000E-01  8.50000000E-01  8.50000000E-01  8.50000000E-01
  8.50000000E-01  8.50000000E-01  8.50000000E-01  8.50000000E-01  8.50000000E-01
  8.50000000E-01  8.50000000E-01  8.50000000E-01  8.50000000E-01  8.50000000E-01
  8.50000000E-01  8.50000000E-01  8.50000000E-01  8.50000000E-01  8.50000000E-01
  8.50000000E-01  8.50000000E-01  8.50000000E-01  8.50000000E-01  8.50000000E-01
  8.50000000E-01  8.50000000E-01  8.50000000E-01  8.50000000E-01  8.50000000E-01
  8.50000000E-01  8.50000000E-01  8.50000000E-01  8.50000000E-01  8.50000000E-01
  8.50000000E-01  8.50000000E-01  8.50000000E-01  8.50000000E-01  8.50000000E-01
  8.50000000E-01  8.50000000E-01  8.50000000E-01  8.50000000E-01  8.50000000E-01
  8.50000000E-01  8.50000000E-01  8.50000000E-01  8.50000000E-01  8.50000000E-01
  8.50000000E-01  8.50000000E-01  8.50000000E-01  8.50000000E-01  8.50000000E-01
  8.50000000E-01  8.50000000E-01  8.50000000E-01  8.50000000E-01  8.50000000E-01
  8.50000000E-01  8.50000000E-01  8.50000000E-01  8.50000000E-01  8.50000000E-01
  8.50000000E-01  8.50000000E-01  8.50000000E-01  8.50000000E-01  8.50000000E-01
  8.50000000E-01  8.50000000E-01  8.50000000E-01  8.50000000E-01  8.50000000E-01
  8.50000000E-01  8.50000000E-01  8.50000000E-01  8.50000000E-01  8.50000000E-01
  8.50000000E-01  8.50000000E-01  8.50000000E-01  8.50000000E-01  8.50000000E-01
  8.50000000E-01  8.50000000E-01  8.50000000E-01  8.50000000E-01  8.50000000E-01
  8.50000000E-01  8.50000000E-01  8.50000000E-01  8.50000000E-01  8.50000000E-01
  8.50000000E-01  8.50000000E-01  8.50000000E-01  8.50000000E-01  8.50000000E-01
  8.50000000E-01  8.50000000E-01  8.50000000E-01  8.50000000E-01  8.50000000E-01
  8.50000000E-01  8.50000000E-01  8.50000000E-01  8.50000000E-01  8.50000000E-01
  8.50000000E-01  8.50000000E-01  8.50000000E-01  8.50000000E-01  8.50000000E-01
  8.50000000E-01  8.50000000E-01  8.50000000E-01  8.50000000E-01  8.50000000E-01
  8.50000000E-01  8.50000000E-01  8.50000000E-01  8.50000000E-01  8.50000000E-01
  8.50000000E-01  8.50000000E-01  8.50000000E-01  8.50000000E-01  8.50000000E-01
  8.50000000E-01  8.50000000E-01  8.50000000E-01  8.50000000E-01  8.50000000E-01
  8.50000000E-01  8.50000000E-01  8.50000000E-01  8.50000000E-01  8.50000000E-01
  8.50000000E-01  8.50000000E-01  8.50000000E-01  8.50000000E-01  8.50000000E-01
  8.50000000E-01  8.50000000E-01  8.50000000E-01  8.50000000E-01  8.50000000E-01
  8.50000000E-01  8.50000000E-01  8.50000000E-01  8.50000000E-01  8.50000000E-01
  8.50000000E-01  8.50000000E-01  8.50000000E-01  8.50000000E-01  8.50000000E-01
  8.50000000E-01  8.50000000E-01  8.50000000E-01  8.50000000E-01  8.50000000E-01
  8.50000000E-01  8.50000000E-01  8.50000000E-01  8.50000000E-01  8.50000000E-01
  8.50000000E-01  8.50000000E-01  8.50000000E-01  8.50000000E-01  8.50000000E-01
  8.50000000E-01  8.50000000E-01  8.50000000E-01  8.50000000E-01  8.50000000E-01
  8.50000000E-01  8.50000000E-01  8.50000000E-01  8.50000000E-01  8.50000000E-01
  8.50000000E-01  8.50000000E-01  8.50000000E-01  8.50000000E-01  8.50000000E-01
  8.50000000E-01  8.50000000E-01  8.50000000E-01  8.50000000E-01  8.50000000E-01
  8.50000000E-01  8.50000000E-01  8.50000000E-01  8.50000000E-01  8.50000000E-01
  8.50000000E-01  8.50000000E-01  8.50000000E-01  8.50000000E-01  8.50000000E-01
  8.50000000E-01  8.50000000E-01  8.50000000E-01  8.50000000E-01  8.50000000E-01
  8.50000000E-01  8.50000000E-01  8.50000000E-01  8.50000000E-01  8.50000000E-01
  8.50000000E-01  8.50000000E-01  8.50000000E-01  8.50000000E-01  8.50000000E-01
  8.50000000E-01  8.50000000E-01  8.50000000E-01  8.50000000E-01  8.50000000E-01
  8.50000000E-01  8.50000000E-01  8.50000000E-01  8.50000000E-01  8.50000000E-01
  8.50000000E-01  8.50000000E-01  8.50000000E-01  8.50000000E-01  8.50000000E-01
  8.50000000E-01  8.50000000E-01  8.50000000E-01  8.50000000E-01  8.50000000E-01
  8.50000000E-01  8.50000000E-01  8.50000000E-01  8.50000000E-01  8.50000000E-01
  8.50000000E-01  8.50000000E-01  8.50000000E-01  8.50000000E-01  8.50000000E-01
  8.50000000E-01  8.50000000E-01  8.50000000E-01  8.50000000E-01  8.50000000E-01
  8.50000000E-01  8.50000000E-01  8.50000000E-01  8.50000000E-01  8.50000000E-01
  8.50000000E-01  8.50000000E-01  8.50000000E-01  8.50000000E-01  8.50000000E-01
  8.50000000E-01  8.50000000E-01  8.50000000E-01  8.50000000E-01  8.50000000E-01
  8.50000000E-01  8.50000000E-01  8.50000000E-01  8.50000000E-01  8.50000000E-01
  8.50000000E-01  8.50000000E-01  8.50000000E-01  8.50000000E-01  8.50000000E-01
  8.50000000E-01  8.50000000E-01  8.50000000E-01  8.50000000E-01  8.50000000E-01
  8.50000000E-01  8.50000000E-01  8.50000000E-01  8.50000000E-01  8.50000000E-01
  8.50000000E-01  8.50000000E-01  8.50000000E-01  8.50000000E-01  8.50000000E-01
  8.50000000E-01  8.50000000E-01  8.50000000E-01  8.50000000E-01  8.50000000E-01
  8.50000000E-01  8.50000000E-01  8.50000000E-01  8.50000000E-01  8.50000000E-01
  8.50000000E-01  8.50000000E-01  8.50000000E-01  8.50000000E-01  8.50000000E-01
  8.50000000E-01  8.50000000E-01  8.50000000E-01  8.50000000E-01  8.50000000E-01
  8.50000000E-01  8.50000000E-01  8.50000000E-01  8.50000000E-01  8.50000000E-01
  8.50000000E-01  8.50000000E-01  8.50000000E-01  8.50000000E-01  8.50000000E-01
  8.50000000E-01  8.50000000E-01  8.50000000E-01  8.50000000E-01  8.50000000E-01
  8.50000000E-01  8.50000000E-01  8.50000000E-01  8.50000000E-01  8.50000000E-01
  8.50000000E-01  8.50000000E-01  8.50000000E-01  8.50000000E-01  8.50000000E-01
  8.50000000E-01  8.50000000E-01  8.50000000E-01  8.50000000E-01  8.50000000E-01
  8.50000000E-01  8.50000000E-01  8.50000000E-01  8.50000000E-01  8.50000000E-01
  8.50000000E-01  8.50000000E-01  8.50000000E-01  8.50000000E-01  8.50000000E-01
  8.50000000E-01  8.50000000E-01  8.50000000E-01  8.50000000E-01  8.50000000E-01
  8.50000000E-01  8.50000000E-01  8.50000000E-01  8.50000000E-01  8.50000000E-01
  8.50000000E-01  8.50000000E-01  8.50000000E-01  8.50000000E-01  8.50000000E-01
  8.50000000E-01  8.50000000E-01  8.50000000E-01  8.50000000E-01  8.50000000E-01
  8.50000000E-01  8.50000000E-01  8.50000000E-01  8.50000000E-01  8.50000000E-01
  8.50000000E-01  8.50000000E-01  8.50000000E-01  8.50000000E-01  8.50000000E-01
  8.50000000E-01  8.50000000E-01  8.50000000E-01  8.50000000E-01  8.50000000E-01
  8.50000000E-01  8.50000000E-01  8.50000000E-01  8.50000000E-01  8.50000000E-01
  8.50000000E-01  8.50000000E-01  8.50000000E-01  8.50000000E-01  8.50000000E-01
  8.50000000E-01  8.50000000E-01  8.50000000E-01  8.50000000E-01  8.50000000E-01
  8.50000000E-01  8.50000000E-01  8.50000000E-01  8.50000000E-01  8.50000000E-01
  8.50000000E-01  8.50000000E-01  8.50000000E-01  8.50000000E-01  8.50000000E-01
  8.50000000E-01  8.50000000E-01  8.50000000E-01  8.50000000E-01  8.50000000E-01
  8.50000000E-01  8.50000000E-01  8.50000000E-01  8.50000000E-01  8.50000000E-01
  8.50000000E-01  8.50000000E-01  8.50000000E-01  8.50000000E-01  8.50000000E-01
  8.50000000E-01  8.50000000E-01  8.50000000E-01  8.50000000E-01  8.50000000E-01
  8.50000000E-01  8.50000000E-01  8.50000000E-01  8.50000000E-01  8.50000000E-01
  8.50000000E-01  8.50000000E-01  8.50000000E-01  8.50000000E-01  8.50000000E-01
  8.50000000E-01  8.50000000E-01  8.50000000E-01  8.50000000E-01  8.50000000E-01
  8.50000000E-01  8.50000000E-01  8.50000000E-01  8.50000000E-01  8.50000000E-01
  8.50000000E-01  8.50000000E-01  8.50000000E-01  8.50000000E-01  8.50000000E-01
  8.50000000E-01  8.50000000E-01  8.50000000E-01  8.50000000E-01  8.50000000E-01
  8.50000000E-01  8.50000000E-01  8.50000000E-01  8.50000000E-01  8.50000000E-01
  8.50000000E-01  8.50000000E-01  8.50000000E-01  8.50000000E-01  8.50000000E-01
  8.50000000E-01  8.50000000E-01  8.50000000E-01  8.50000000E-01  8.50000000E-01
  8.50000000E-01  8.50000000E-01  8.50000000E-01  8.50000000E-01  8.50000000E-01
  8.50000000E-01  8.50000000E-01  8.50000000E-01  8.50000000E-01  8.50000000E-01
  8.50000000E-01  8.50000000E-01  8.50000000E-01  8.50000000E-01  8.50000000E-01
  8.50000000E-01  8.50000000E-01  8.50000000E-01  8.50000000E-01  8.50000000E-01
  8.50000000E-01  8.50000000E-01  8.50000000E-01  8.50000000E-01  8.50000000E-01
  8.50000000E-01  8.50000000E-01  8.50000000E-01  8.50000000E-01  8.50000000E-01
  8.50000000E-01  8.50000000E-01  8.50000000E-01  8.50000000E-01  8.50000000E-01
  8.50000000E-01  8.50000000E-01  8.50000000E-01  8.50000000E-01  8.50000000E-01
  8.50000000E-01  8.50000000E-01  8.50000000E-01  8.50000000E-01  8.50000000E-01
  8.50000000E-01  8.50000000E-01  8.50000000E-01  8.50000000E-01  8.50000000E-01
  8.50000000E-01  8.50000000E-01  8.50000000E-01  8.50000000E-01  8.50000000E-01
  8.50000000E-01  8.50000000E-01  8.50000000E-01  8.50000000E-01  8.50000000E-01
  8.50000000E-01  8.50000000E-01  8.50000000E-01  8.50000000E-01  8.50000000E-01
  8.50000000E-01  8.50000000E-01  8.50000000E-01  8.50000000E-01  8.50000000E-01
  8.50000000E-01  8.50000000E-01  8.50000000E-01  8.50000000E-01  8.50000000E-01
  8.50000000E-01  8.50000000E-01  8.50000000E-01  8.50000000E-01  8.50000000E-01
  8.50000000E-01  8.50000000E-01  8.50000000E-01  8.50000000E-01  8.50000000E-01
  8.50000000E-01  8.50000000E-01  8.50000000E-01  8.50000000E-01  8.50000000E-01
  8.50000000E-01  8.50000000E-01  8.50000000E-01  8.50000000E-01  8.50000000E-01
  8.50000000E-01  8.50000000E-01  8.50000000E-01  8.50000000E-01  8.50000000E-01
  8.50000000E-01  8.50000000E-01  8.50000000E-01  8.50000000E-01  8.50000000E-01
  8.50000000E-01  8.50000000E-01  8.50000000E-01  8.50000000E-01  8.50000000E-01
  8.50000000E-01  8.50000000E-01  8.50000000E-01  8.50000000E-01  8.50000000E-01
  8.50000000E-01  8.50000000E-01  8.50000000E-01  8.50000000E-01  8.50000000E-01
  8.50000000E-01  8.50000000E-01  8.50000000E-01  8.50000000E-01  8.50000000E-01
  8.50000000E-01  8.50000000E-01  8.50000000E-01  8.50000000E-01  8.50000000E-01
  8.50000000E-01  8.50000000E-01  8.50000000E-01  8.50000000E-01  8.50000000E-01
  8.50000000E-01  8.50000000E-01  8.50000000E-01  8.50000000E-01  8.50000000E-01
  8.50000000E-01  8.50000000E-01  8.50000000E-01  8.50000000E-01  8.50000000E-01
  8.50000000E-01  8.50000000E-01  8.50000000E-01  8.50000000E-01  8.50000000E-01
  8.50000000E-01  8.50000000E-01  8.50000000E-01  8.50000000E-01  8.50000000E-01
  8.50000000E-01  8.50000000E-01  8.50000000E-01  8.50000000E-01  8.50000000E-01
  8.50000000E-01  8.50000000E-01  8.50000000E-01  8.50000000E-01  8.50000000E-01
  8.50000000E-01  8.50000000E-01  8.50000000E-01  8.50000000E-01  8.50000000E-01
  8.50000000E-01  8.50000000E-01  8.50000000E-01  8.50000000E-01  8.50000000E-01
  8.50000000E-01  8.50000000E-01  8.50000000E-01  8.50000000E-01  8.50000000E-01
  8.50000000E-01  8.50000000E-01  8.50000000E-01  8.50000000E-01  8.50000000E-01
  8.50000000E-01  8.50000000E-01  8.50000000E-01  8.50000000E-01  8.50000000E-01
  8.50000000E-01  8.50000000E-01  8.50000000E-01  8.50000000E-01  8.50000000E-01
  8.50000000E-01  8.50000000E-01  8.50000000E-01  8.50000000E-01  8.50000000E-01
  8.50000000E-01  8.50000000E-01  8.50000000E-01  8.50000000E-01  8.50000000E-01
  8.50000000E-01  8.50000000E-01  8.50000000E-01  8.50000000E-01  8.50000000E-01
  8.50000000E-01  8.50000000E-01  8.50000000E-01  8.50000000E-01  8.50000000E-01
  8.50000000E-01  8.50000000E-01  8.50000000E-01  8.50000000E-01  8.50000000E-01
  8.50000000E-01  8.50000000E-01  8.50000000E-01  8.50000000E-01  8.50000000E-01
  8.50000000E-01  8.50000000E-01  8.50000000E-01  8.50000000E-01  8.50000000E-01
  8.50000000E-01  8.50000000E-01  8.50000000E-01  8.50000000E-01  8.50000000E-01
  8.50000000E-01  8.50000000E-01  8.50000000E-01  8.50000000E-01  8.50000000E-01
  8.50000000E-01  8.50000000E-01  8.50000000E-01  8.50000000E-01  8.50000000E-01
  8.50000000E-01  8.50000000E-01  8.50000000E-01  8.50000000E-01  8.50000000E-01
  8.50000000E-01  8.50000000E-01  8.50000000E-01  8.50000000E-01  8.50000000E-01
  8.50000000E-01  8.50000000E-01  8.50000000E-01  8.50000000E-01  8.50000000E-01
  8.50000000E-01  8.50000000E-01  8.50000000E-01  8.50000000E-01  8.50000000E-01
  8.50000000E-01  8.50000000E-01  8.50000000E-01  8.50000000E-01  8.50000000E-01
  8.50000000E-01  8.50000000E-01  8.50000000E-01  8.50000000E-01  8.50000000E-01
  8.50000000E-01  8.50000000E-01  8.50000000E-01  8.50000000E-01  8.50000000E-01
  8.50000000E-01  8.50000000E-01  8.50000000E-01  8.50000000E-01  8.50000000E-01
  8.50000000E-01  8.50000000E-01  8.50000000E-01  8.50000000E-01  8.50000000E-01
  8.50000000E-01  8.50000000E-01  8.50000000E-01  8.50000000E-01  8.50000000E-01
  8.50000000E-01  8.50000000E-01  8.50000000E-01  8.50000000E-01  8.50000000E-01
  8.50000000E-01  8.50000000E-01  8.50000000E-01  8.50000000E-01  8.50000000E-01
  8.50000000E-01  8.50000000E-01  8.50000000E-01  8.50000000E-01  8.50000000E-01
  8.50000000E-01  8.50000000E-01  8.50000000E-01  8.50000000E-01  8.50000000E-01
  8.50000000E-01  8.50000000E-01  8.50000000E-01  8.50000000E-01  8.50000000E-01
  8.50000000E-01  8.50000000E-01  8.50000000E-01  8.50000000E-01  8.50000000E-01
  8.50000000E-01  8.50000000E-01  8.50000000E-01  8.50000000E-01  8.50000000E-01
  8.50000000E-01  8.50000000E-01  8.50000000E-01  8.50000000E-01  8.50000000E-01
  8.50000000E-01  8.50000000E-01  8.50000000E-01  8.50000000E-01  8.50000000E-01
  8.50000000E-01  8.50000000E-01  8.50000000E-01  8.50000000E-01  8.50000000E-01
  8.50000000E-01  8.50000000E-01  8.50000000E-01  8.50000000E-01  8.50000000E-01
  8.50000000E-01  8.50000000E-01  8.50000000E-01  8.50000000E-01  8.50000000E-01
  8.50000000E-01  8.50000000E-01  8.50000000E-01  8.50000000E-01  8.50000000E-01
  8.50000000E-01  8.50000000E-01  8.50000000E-01  8.50000000E-01  8.50000000E-01
  8.50000000E-01  8.50000000E-01  8.50000000E-01  8.50000000E-01  8.50000000E-01
  8.50000000E-01  8.50000000E-01  8.50000000E-01  8.50000000E-01  8.50000000E-01
  8.50000000E-01  8.50000000E-01  8.50000000E-01  8.50000000E-01  8.50000000E-01
  8.50000000E-01  8.50000000E-01  8.50000000E-01  8.50000000E-01  8.50000000E-01
  8.50000000E-01  8.50000000E-01  8.50000000E-01  8.50000000E-01  8.50000000E-01
  8.50000000E-01  8.50000000E-01  8.50000000E-01  8.50000000E-01  8.50000000E-01
  8.50000000E-01  8.50000000E-01  8.50000000E-01  8.50000000E-01  8.50000000E-01
  8.50000000E-01  8.50000000E-01  8.50000000E-01  8.50000000E-01  8.50000000E-01
  8.50000000E-01  8.50000000E-01  8.50000000E-01  8.50000000E-01  8.50000000E-01
  8.50000000E-01  8.50000000E-01  8.50000000E-01  8.50000000E-01  8.50000000E-01
  8.50000000E-01  8.50000000E-01  8.50000000E-01  8.50000000E-01  8.50000000E-01
  8.50000000E-01  8.50000000E-01  8.50000000E-01  8.50000000E-01  8.50000000E-01
  8.50000000E-01  8.50000000E-01  8.50000000E-01  8.50000000E-01  8.50000000E-01
  8.50000000E-01  8.50000000E-01  8.50000000E-01  8.50000000E-01  8.50000000E-01
  8.50000000E-01  8.50000000E-01  8.50000000E-01  8.50000000E-01  8.50000000E-01
  8.50000000E-01  8.50000000E-01  8.50000000E-01  8.50000000E-01  8.50000000E-01
  8.50000000E-01  8.50000000E-01  8.50000000E-01  8.50000000E-01  8.50000000E-01
  8.50000000E-01  8.50000000E-01  8.50000000E-01  8.50000000E-01  8.50000000E-01
  8.50000000E-01  8.50000000E-01  8.50000000E-01  8.50000000E-01  8.50000000E-01
  8.50000000E-01  8.50000000E-01  8.50000000E-01  8.50000000E-01  8.50000000E-01
  8.50000000E-01  8.50000000E-01  8.50000000E-01  8.50000000E-01  8.50000000E-01
  8.50000000E-01  8.50000000E-01  8.50000000E-01  8.50000000E-01  8.50000000E-01
  8.50000000E-01  8.50000000E-01  8.50000000E-01  8.50000000E-01  8.50000000E-01
  8.50000000E-01  8.50000000E-01  8.50000000E-01  8.50000000E-01  8.50000000E-01
  8.50000000E-01  8.50000000E-01  8.50000000E-01  8.50000000E-01  8.50000000E-01
  8.50000000E-01  8.50000000E-01  8.50000000E-01  8.50000000E-01  8.50000000E-01
  8.50000000E-01  8.50000000E-01  8.50000000E-01  8.50000000E-01  8.50000000E-01
  8.50000000E-01  8.50000000E-01  8.50000000E-01  8.50000000E-01  8.50000000E-01
  8.50000000E-01  8.50000000E-01  8.50000000E-01  8.50000000E-01  8.50000000E-01
  8.50000000E-01  8.50000000E-01  8.50000000E-01  8.50000000E-01  8.50000000E-01
  8.50000000E-01  8.50000000E-01  8.50000000E-01  8.50000000E-01  8.50000000E-01
  8.50000000E-01  8.50000000E-01  8.50000000E-01  8.50000000E-01  8.50000000E-01
  8.50000000E-01  8.50000000E-01  8.50000000E-01  8.50000000E-01  8.50000000E-01
  8.50000000E-01  8.50000000E-01  8.50000000E-01  8.50000000E-01  8.50000000E-01
  8.50000000E-01  8.50000000E-01  8.50000000E-01  8.50000000E-01  8.50000000E-01
  8.50000000E-01  8.50000000E-01  8.50000000E-01  8.50000000E-01  8.50000000E-01
  8.50000000E-01  8.50000000E-01  8.50000000E-01  8.50000000E-01  8.50000000E-01
  8.50000000E-01  8.50000000E-01  8.50000000E-01  8.50000000E-01  8.50000000E-01
  8.50000000E-01  8.50000000E-01  8.50000000E-01  8.50000000E-01  8.50000000E-01
  8.50000000E-01  8.50000000E-01  8.50000000E-01  8.50000000E-01  8.50000000E-01
  8.50000000E-01  8.50000000E-01  8.50000000E-01  8.50000000E-01  8.50000000E-01
  8.50000000E-01  8.50000000E-01  8.50000000E-01  8.50000000E-01  8.50000000E-01
  8.50000000E-01  8.50000000E-01  8.50000000E-01  8.50000000E-01  8.50000000E-01
  8.50000000E-01  8.50000000E-01  8.50000000E-01  8.50000000E-01  8.50000000E-01
  8.50000000E-01  8.50000000E-01  8.50000000E-01  8.50000000E-01  8.50000000E-01
  8.50000000E-01  8.50000000E-01  8.50000000E-01  8.50000000E-01  8.50000000E-01
  8.50000000E-01  8.50000000E-01  8.50000000E-01  8.50000000E-01  8.50000000E-01
  8.50000000E-01  8.50000000E-01  8.50000000E-01  8.50000000E-01  8.50000000E-01
  8.50000000E-01  8.50000000E-01  8.50000000E-01  8.50000000E-01  8.50000000E-01
  8.50000000E-01  8.50000000E-01  8.50000000E-01  8.50000000E-01  8.50000000E-01
  8.50000000E-01  8.50000000E-01  8.50000000E-01  8.50000000E-01  8.50000000E-01
  8.50000000E-01  8.50000000E-01  8.50000000E-01  8.50000000E-01  8.50000000E-01
  8.50000000E-01  8.50000000E-01  8.50000000E-01  8.50000000E-01  8.50000000E-01
  8.50000000E-01  8.50000000E-01  8.50000000E-01  8.50000000E-01  8.50000000E-01
  8.50000000E-01  8.50000000E-01  8.50000000E-01  8.50000000E-01  8.50000000E-01
  8.50000000E-01  8.50000000E-01  8.50000000E-01  8.50000000E-01  8.50000000E-01
  8.50000000E-01  8.50000000E-01  8.50000000E-01  8.50000000E-01  8.50000000E-01
  8.50000000E-01  8.50000000E-01  8.50000000E-01  8.50000000E-01  8.50000000E-01
  8.50000000E-01  8.50000000E-01  8.50000000E-01  8.50000000E-01  8.50000000E-01
  8.50000000E-01  8.50000000E-01  8.50000000E-01  8.50000000E-01  8.50000000E-01
  8.50000000E-01  8.50000000E-01  8.50000000E-01  8.50000000E-01  8.50000000E-01
  8.50000000E-01  8.50000000E-01  8.50000000E-01  8.50000000E-01  8.50000000E-01
  8.50000000E-01  8.50000000E-01  8.50000000E-01  8.50000000E-01  8.50000000E-01
  8.50000000E-01  8.50000000E-01  8.50000000E-01  8.50000000E-01  8.50000000E-01
  8.50000000E-01  8.50000000E-01  8.50000000E-01  8.50000000E-01  8.50000000E-01
  8.50000000E-01  8.50000000E-01  8.50000000E-01  8.50000000E-01  8.50000000E-01
  8.50000000E-01  8.50000000E-01  8.50000000E-01  8.50000000E-01  8.50000000E-01
  8.50000000E-01  8.50000000E-01  8.50000000E-01  8.50000000E-01  8.50000000E-01
  8.50000000E-01  8.50000000E-01  8.50000000E-01  8.50000000E-01  8.50000000E-01
  8.50000000E-01  8.50000000E-01  8.50000000E-01  8.50000000E-01  8.50000000E-01
  8.50000000E-01  8.50000000E-01  8.50000000E-01  8.50000000E-01  8.50000000E-01
  8.50000000E-01  8.50000000E-01  8.50000000E-01  8.50000000E-01  8.50000000E-01
  8.50000000E-01  8.50000000E-01  8.50000000E-01  8.50000000E-01  8.50000000E-01
  8.50000000E-01  8.50000000E-01  8.50000000E-01  8.50000000E-01  8.50000000E-01
  8.50000000E-01  8.50000000E-01  8.50000000E-01  8.50000000E-01  8.50000000E-01
  8.50000000E-01  8.50000000E-01  8.50000000E-01  8.50000000E-01  8.50000000E-01
  8.50000000E-01  8.50000000E-01  8.50000000E-01  8.50000000E-01  8.50000000E-01
  8.50000000E-01  8.50000000E-01  8.50000000E-01  8.50000000E-01  8.50000000E-01
  8.50000000E-01  8.50000000E-01  8.50000000E-01  8.50000000E-01  8.50000000E-01
  8.50000000E-01  8.50000000E-01  8.50000000E-01  8.50000000E-01  8.50000000E-01
  8.50000000E-01  8.50000000E-01  8.50000000E-01  8.50000000E-01  8.50000000E-01
  8.50000000E-01  8.50000000E-01  8.50000000E-01  8.50000000E-01  8.50000000E-01
  8.50000000E-01  8.50000000E-01  8.50000000E-01  8.50000000E-01  8.50000000E-01
  8.50000000E-01  8.50000000E-01  8.50000000E-01  8.50000000E-01  8.50000000E-01
  8.50000000E-01  8.50000000E-01  8.50000000E-01  8.50000000E-01  8.50000000E-01
  8.50000000E-01  8.50000000E-01  8.50000000E-01  8.50000000E-01  8.50000000E-01
  8.50000000E-01  8.50000000E-01  8.50000000E-01  8.50000000E-01  8.50000000E-01
  8.50000000E-01  8.50000000E-01  8.50000000E-01  8.50000000E-01  8.50000000E-01
  8.50000000E-01  8.50000000E-01  8.50000000E-01  8.50000000E-01  8.50000000E-01
  8.50000000E-01  8.50000000E-01  8.50000000E-01  8.50000000E-01  8.50000000E-01
  8.50000000E-01  8.50000000E-01  8.50000000E-01  8.50000000E-01  8.50000000E-01
  8.50000000E-01  8.50000000E-01  8.50000000E-01  8.50000000E-01  8.50000000E-01
  8.50000000E-01  8.50000000E-01  8.50000000E-01  8.50000000E-01  8.50000000E-01
  8.50000000E-01  8.50000000E-01  8.50000000E-01  8.50000000E-01  8.50000000E-01
  8.50000000E-01  8.50000000E-01  8.50000000E-01  8.50000000E-01  8.50000000E-01
  8.50000000E-01  8.50000000E-01  8.50000000E-01  8.50000000E-01  8.50000000E-01
  8.50000000E-01  8.50000000E-01  8.50000000E-01  8.50000000E-01  8.50000000E-01
  8.50000000E-01  8.50000000E-01  8.50000000E-01  8.50000000E-01  8.50000000E-01
  8.50000000E-01  8.50000000E-01  8.50000000E-01  8.50000000E-01  8.50000000E-01
  8.50000000E-01  8.50000000E-01  8.50000000E-01  8.50000000E-01  8.50000000E-01
  8.50000000E-01  8.50000000E-01  8.50000000E-01  8.50000000E-01  8.50000000E-01
  8.50000000E-01  8.50000000E-01  8.50000000E-01  8.50000000E-01  8.50000000E-01
  8.50000000E-01  8.50000000E-01  8.50000000E-01  8.50000000E-01  8.50000000E-01
  8.50000000E-01  8.50000000E-01  8.50000000E-01  8.50000000E-01  8.50000000E-01
  8.50000000E-01  8.50000000E-01  8.50000000E-01  8.50000000E-01  8.50000000E-01
  8.50000000E-01  8.50000000E-01  8.50000000E-01  8.50000000E-01  8.50000000E-01
  8.50000000E-01  8.50000000E-01  8.50000000E-01  8.50000000E-01  8.50000000E-01
  8.50000000E-01  8.50000000E-01  8.50000000E-01  8.50000000E-01  8.50000000E-01
  8.50000000E-01  8.50000000E-01  8.50000000E-01  8.50000000E-01  8.50000000E-01
  8.50000000E-01  8.50000000E-01  8.50000000E-01  8.50000000E-01  8.50000000E-01
  8.50000000E-01  8.50000000E-01  8.50000000E-01  8.50000000E-01  8.50000000E-01
  8.50000000E-01  8.50000000E-01  8.50000000E-01  8.50000000E-01  8.50000000E-01
  8.50000000E-01  8.50000000E-01  8.50000000E-01  8.50000000E-01  8.50000000E-01
  8.50000000E-01  8.50000000E-01  8.50000000E-01  8.50000000E-01  8.50000000E-01
  8.50000000E-01  8.50000000E-01  8.50000000E-01  8.50000000E-01  8.50000000E-01
  8.50000000E-01  8.50000000E-01  8.50000000E-01  8.50000000E-01  8.50000000E-01
  8.50000000E-01  8.50000000E-01  8.50000000E-01  8.50000000E-01  8.50000000E-01
  8.50000000E-01  8.50000000E-01  8.50000000E-01  8.50000000E-01  8.50000000E-01
  8.50000000E-01  8.50000000E-01  8.50000000E-01  8.50000000E-01  8.50000000E-01
  8.50000000E-01  8.50000000E-01  8.50000000E-01  8.50000000E-01  8.50000000E-01
  8.50000000E-01  8.50000000E-01  8.50000000E-01  8.50000000E-01  8.50000000E-01
  8.50000000E-01  8.50000000E-01  8.50000000E-01  8.50000000E-01  8.50000000E-01
  8.50000000E-01  8.50000000E-01  8.50000000E-01  8.50000000E-01  8.50000000E-01
  8.50000000E-01  8.50000000E-01  8.50000000E-01  8.50000000E-01  8.50000000E-01
  8.50000000E-01  8.50000000E-01  8.50000000E-01  8.50000000E-01  8.50000000E-01
  8.50000000E-01  8.50000000E-01  8.50000000E-01  8.50000000E-01  8.50000000E-01
  8.50000000E-01  8.50000000E-01  8.50000000E-01  8.50000000E-01  8.50000000E-01
  8.50000000E-01  8.50000000E-01  8.50000000E-01  8.50000000E-01  8.50000000E-01
  8.50000000E-01  8.50000000E-01  8.50000000E-01  8.50000000E-01  8.50000000E-01
  8.50000000E-01  8.50000000E-01  8.50000000E-01  8.50000000E-01  8.50000000E-01
  8.50000000E-01  8.50000000E-01  8.50000000E-01  8.50000000E-01  8.50000000E-01
  8.50000000E-01  8.50000000E-01  8.50000000E-01  8.50000000E-01  8.50000000E-01
  8.50000000E-01  8.50000000E-01  8.50000000E-01  8.50000000E-01  8.50000000E-01
  8.50000000E-01  8.50000000E-01  8.50000000E-01  8.50000000E-01  8.50000000E-01
  8.50000000E-01  8.50000000E-01  8.50000000E-01  8.50000000E-01  8.50000000E-01
  8.50000000E-01  8.50000000E-01  8.50000000E-01  8.50000000E-01  8.50000000E-01
  8.50000000E-01  8.50000000E-01  8.50000000E-01  8.50000000E-01  8.50000000E-01
  8.50000000E-01  8.50000000E-01  8.50000000E-01  8.50000000E-01  8.50000000E-01
  8.50000000E-01  8.50000000E-01  8.50000000E-01  8.50000000E-01  8.50000000E-01
  8.50000000E-01  8.50000000E-01  8.50000000E-01  8.50000000E-01  8.50000000E-01
  8.50000000E-01  8.50000000E-01  8.50000000E-01  8.50000000E-01  8.50000000E-01
  8.50000000E-01  8.50000000E-01  8.50000000E-01  8.50000000E-01  8.50000000E-01
  8.50000000E-01  8.50000000E-01  8.50000000E-01  8.50000000E-01  8.50000000E-01
  8.50000000E-01  8.50000000E-01  8.50000000E-01  8.50000000E-01  8.50000000E-01
  8.50000000E-01  8.50000000E-01  8.50000000E-01  8.50000000E-01  8.50000000E-01
  8.50000000E-01  8.50000000E-01  8.50000000E-01  8.50000000E-01  8.50000000E-01
  8.50000000E-01  8.50000000E-01  8.50000000E-01  8.50000000E-01  8.50000000E-01
  8.50000000E-01  8.50000000E-01  8.50000000E-01  8.50000000E-01  8.50000000E-01
  8.50000000E-01  8.50000000E-01  8.50000000E-01  8.50000000E-01  8.50000000E-01
  8.50000000E-01  8.50000000E-01  8.50000000E-01  8.50000000E-01  8.50000000E-01
  8.50000000E-01  8.50000000E-01  8.50000000E-01  8.50000000E-01  8.50000000E-01
  8.50000000E-01  8.50000000E-01  8.50000000E-01  8.50000000E-01  8.50000000E-01
  8.50000000E-01  8.50000000E-01  8.50000000E-01  8.50000000E-01  8.50000000E-01
  8.50000000E-01  8.50000000E-01  8.50000000E-01  8.50000000E-01  8.50000000E-01
  8.50000000E-01  8.50000000E-01  8.50000000E-01  8.50000000E-01  8.50000000E-01
  8.50000000E-01  8.50000000E-01  8.50000000E-01  8.50000000E-01  8.50000000E-01
  8.50000000E-01  8.50000000E-01  8.50000000E-01  8.50000000E-01  8.50000000E-01
  8.50000000E-01  8.50000000E-01  8.50000000E-01  8.50000000E-01  8.50000000E-01
  8.50000000E-01  8.50000000E-01  8.50000000E-01  8.50000000E-01  8.50000000E-01
  8.50000000E-01  8.50000000E-01  8.50000000E-01  8.50000000E-01  8.50000000E-01
  8.50000000E-01  8.50000000E-01  8.50000000E-01  8.50000000E-01  8.50000000E-01
  8.50000000E-01  8.50000000E-01  8.50000000E-01  8.50000000E-01  8.50000000E-01
  8.50000000E-01  8.50000000E-01  8.50000000E-01  8.50000000E-01  8.50000000E-01
  8.50000000E-01  8.50000000E-01  8.50000000E-01  8.50000000E-01  8.50000000E-01
  8.50000000E-01  8.50000000E-01  8.50000000E-01  8.50000000E-01  8.50000000E-01
  8.50000000E-01  8.50000000E-01  8.50000000E-01  8.50000000E-01  8.50000000E-01
  8.50000000E-01  8.50000000E-01  8.50000000E-01  8.50000000E-01  8.50000000E-01
  8.50000000E-01  8.50000000E-01  8.50000000E-01  8.50000000E-01  8.50000000E-01
  8.50000000E-01  8.50000000E-01  8.50000000E-01  8.50000000E-01  8.50000000E-01
  8.50000000E-01  8.50000000E-01  8.50000000E-01  8.50000000E-01  8.50000000E-01
  8.50000000E-01  8.50000000E-01  8.50000000E-01  8.50000000E-01  8.50000000E-01
  8.50000000E-01  8.50000000E-01  8.50000000E-01  8.50000000E-01  8.50000000E-01
  8.50000000E-01  8.50000000E-01  8.50000000E-01  8.50000000E-01  8.50000000E-01
  8.50000000E-01  8.50000000E-01  8.50000000E-01  8.50000000E-01  8.50000000E-01
  8.50000000E-01  8.50000000E-01  8.50000000E-01  8.50000000E-01  8.50000000E-01
  8.50000000E-01  8.50000000E-01  8.50000000E-01  8.50000000E-01  8.50000000E-01
  8.50000000E-01  8.50000000E-01  8.50000000E-01  8.50000000E-01  8.50000000E-01
  8.50000000E-01  8.50000000E-01  8.50000000E-01  8.50000000E-01  8.50000000E-01
  8.50000000E-01  8.50000000E-01  8.50000000E-01  8.50000000E-01  8.50000000E-01
  8.50000000E-01  8.50000000E-01  8.50000000E-01  8.50000000E-01  8.50000000E-01
  8.50000000E-01  8.50000000E-01  8.50000000E-01  8.50000000E-01  8.50000000E-01
  8.50000000E-01  8.50000000E-01  8.50000000E-01  8.50000000E-01  8.50000000E-01
  8.50000000E-01  8.50000000E-01  8.50000000E-01  8.50000000E-01  8.50000000E-01
  8.50000000E-01  8.50000000E-01  8.50000000E-01  8.50000000E-01  8.50000000E-01
  8.50000000E-01  8.50000000E-01  8.50000000E-01  8.50000000E-01  8.50000000E-01
  8.50000000E-01  8.50000000E-01  8.50000000E-01  8.50000000E-01  8.50000000E-01
  8.50000000E-01  8.50000000E-01  8.50000000E-01  8.50000000E-01  8.50000000E-01
  8.50000000E-01  8.50000000E-01  8.50000000E-01  8.50000000E-01  8.50000000E-01
  8.50000000E-01  8.50000000E-01  8.50000000E-01  8.50000000E-01  8.50000000E-01
  8.50000000E-01  8.50000000E-01  8.50000000E-01  8.50000000E-01  8.50000000E-01
  8.50000000E-01  8.50000000E-01  8.50000000E-01  8.50000000E-01  8.50000000E-01
  8.50000000E-01  8.50000000E-01  8.50000000E-01  8.50000000E-01  8.50000000E-01
  8.50000000E-01  8.50000000E-01  8.50000000E-01  8.50000000E-01  8.50000000E-01
  8.50000000E-01  8.50000000E-01  8.50000000E-01  8.50000000E-01  8.50000000E-01
  8.50000000E-01  8.50000000E-01  8.50000000E-01  8.50000000E-01  8.50000000E-01
  8.50000000E-01  8.50000000E-01  8.50000000E-01  8.50000000E-01  8.50000000E-01
  8.50000000E-01  8.50000000E-01  8.50000000E-01  8.50000000E-01  8.50000000E-01
  8.50000000E-01  8.50000000E-01  8.50000000E-01  8.50000000E-01  8.50000000E-01
  8.50000000E-01  8.50000000E-01  8.50000000E-01  8.50000000E-01  8.50000000E-01
  8.50000000E-01  8.50000000E-01  8.50000000E-01  8.50000000E-01  8.50000000E-01
  8.50000000E-01  8.50000000E-01  8.50000000E-01  8.50000000E-01  8.50000000E-01
  8.50000000E-01  8.50000000E-01  8.50000000E-01  8.50000000E-01  8.50000000E-01
  8.50000000E-01  8.50000000E-01  8.50000000E-01  8.50000000E-01  8.50000000E-01
  8.50000000E-01  8.50000000E-01  8.50000000E-01  8.50000000E-01  8.50000000E-01
  8.50000000E-01  8.50000000E-01  8.50000000E-01  8.50000000E-01  8.50000000E-01
  8.50000000E-01  8.50000000E-01  8.50000000E-01  8.50000000E-01  8.50000000E-01
  8.50000000E-01  8.50000000E-01  8.50000000E-01  8.50000000E-01  8.50000000E-01
  8.50000000E-01  8.50000000E-01  8.50000000E-01  8.50000000E-01  8.50000000E-01
  8.50000000E-01  8.50000000E-01  8.50000000E-01  8.50000000E-01  8.50000000E-01
  8.50000000E-01  8.50000000E-01  8.50000000E-01  8.50000000E-01  8.50000000E-01
  8.50000000E-01  8.50000000E-01  8.50000000E-01  8.50000000E-01  8.50000000E-01
  8.50000000E-01  8.50000000E-01  8.50000000E-01  8.50000000E-01  8.50000000E-01
  8.50000000E-01  8.50000000E-01  8.50000000E-01  8.50000000E-01  8.50000000E-01
  8.50000000E-01  8.50000000E-01  8.50000000E-01  8.50000000E-01  8.50000000E-01
  8.50000000E-01  8.50000000E-01  8.50000000E-01  8.50000000E-01  8.50000000E-01
  8.50000000E-01  8.50000000E-01  8.50000000E-01  8.50000000E-01  8.50000000E-01
  8.50000000E-01  8.50000000E-01  8.50000000E-01  8.50000000E-01  8.50000000E-01
  8.50000000E-01  8.50000000E-01  8.50000000E-01  8.50000000E-01  8.50000000E-01
  8.50000000E-01  8.50000000E-01  8.50000000E-01  8.50000000E-01  8.50000000E-01
  8.50000000E-01  8.50000000E-01  8.50000000E-01  8.50000000E-01  8.50000000E-01
  8.50000000E-01  8.50000000E-01  8.50000000E-01  8.50000000E-01  8.50000000E-01
  8.50000000E-01  8.50000000E-01  8.50000000E-01  8.50000000E-01  8.50000000E-01
  8.50000000E-01  8.50000000E-01  8.50000000E-01  8.50000000E-01  8.50000000E-01
  8.50000000E-01  8.50000000E-01  8.50000000E-01  8.50000000E-01  8.50000000E-01
  8.50000000E-01  8.50000000E-01  8.50000000E-01  8.50000000E-01  8.50000000E-01
  8.50000000E-01  8.50000000E-01  8.50000000E-01  8.50000000E-01  8.50000000E-01
  8.50000000E-01  8.50000000E-01  8.50000000E-01  8.50000000E-01  8.50000000E-01
  8.50000000E-01  8.50000000E-01  8.50000000E-01  8.50000000E-01  8.50000000E-01
  8.50000000E-01  8.50000000E-01  8.50000000E-01  8.50000000E-01  8.50000000E-01
  8.50000000E-01  8.50000000E-01  8.50000000E-01  8.50000000E-01  8.50000000E-01
  8.50000000E-01  8.50000000E-01  8.50000000E-01  8.50000000E-01  8.50000000E-01
  8.50000000E-01  8.50000000E-01  8.50000000E-01  8.50000000E-01  8.50000000E-01
  8.50000000E-01  8.50000000E-01  8.50000000E-01  8.50000000E-01  8.50000000E-01
  8.50000000E-01  8.50000000E-01  8.50000000E-01  8.50000000E-01  8.50000000E-01
  8.50000000E-01  8.50000000E-01  8.50000000E-01  8.50000000E-01  8.50000000E-01
  8.50000000E-01  8.50000000E-01  8.50000000E-01  8.50000000E-01  8.50000000E-01
  8.50000000E-01  8.50000000E-01  8.50000000E-01  8.50000000E-01  8.50000000E-01
  8.50000000E-01  8.50000000E-01  8.50000000E-01  8.50000000E-01  8.50000000E-01
  8.50000000E-01  8.50000000E-01  8.50000000E-01  8.50000000E-01  8.50000000E-01
  8.50000000E-01  8.50000000E-01  8.50000000E-01  8.50000000E-01  8.50000000E-01
  8.50000000E-01  8.50000000E-01  8.50000000E-01  8.50000000E-01  8.50000000E-01
  8.50000000E-01  8.50000000E-01  8.50000000E-01  8.50000000E-01  8.50000000E-01
  8.50000000E-01  8.50000000E-01  8.50000000E-01  8.50000000E-01  8.50000000E-01
  8.50000000E-01  8.50000000E-01  8.50000000E-01  8.50000000E-01  8.50000000E-01
  8.50000000E-01  8.50000000E-01  8.50000000E-01  8.50000000E-01  8.50000000E-01
  8.50000000E-01  8.50000000E-01  8.50000000E-01  8.50000000E-01  8.50000000E-01
  8.50000000E-01  8.50000000E-01  8.50000000E-01  8.50000000E-01  8.50000000E-01
  8.50000000E-01  8.50000000E-01  8.50000000E-01  8.50000000E-01  8.50000000E-01
  8.50000000E-01  8.50000000E-01  8.50000000E-01  8.50000000E-01  8.50000000E-01
  8.50000000E-01  8.50000000E-01  8.50000000E-01  8.50000000E-01  8.50000000E-01
  8.50000000E-01  8.50000000E-01  8.50000000E-01  8.50000000E-01  8.50000000E-01
  8.50000000E-01  8.50000000E-01  8.50000000E-01  8.50000000E-01  8.50000000E-01
  8.50000000E-01  8.50000000E-01  8.50000000E-01  8.50000000E-01  8.50000000E-01
  8.50000000E-01  8.50000000E-01  8.50000000E-01  8.50000000E-01  8.50000000E-01
  8.50000000E-01  8.50000000E-01  8.50000000E-01  8.50000000E-01  8.50000000E-01
  8.50000000E-01  8.50000000E-01  8.50000000E-01  8.50000000E-01  8.50000000E-01
  8.50000000E-01  8.50000000E-01  8.50000000E-01  8.50000000E-01  8.50000000E-01
  8.50000000E-01  8.50000000E-01  8.50000000E-01  8.50000000E-01  8.50000000E-01
  8.50000000E-01  8.50000000E-01  8.50000000E-01  8.50000000E-01  8.50000000E-01
  8.50000000E-01  8.50000000E-01  8.50000000E-01  8.50000000E-01  8.50000000E-01
  8.50000000E-01  8.50000000E-01  8.50000000E-01  8.50000000E-01  8.50000000E-01
  8.50000000E-01  8.50000000E-01  8.50000000E-01  8.50000000E-01  8.50000000E-01
  8.50000000E-01  8.50000000E-01  8.50000000E-01  8.50000000E-01  8.50000000E-01
  8.50000000E-01  8.50000000E-01  8.50000000E-01  8.50000000E-01  8.50000000E-01
  8.50000000E-01  8.50000000E-01  8.50000000E-01  8.50000000E-01  8.50000000E-01
  8.50000000E-01  8.50000000E-01  8.50000000E-01  8.50000000E-01  8.50000000E-01
  8.50000000E-01  8.50000000E-01  8.50000000E-01  8.50000000E-01  8.50000000E-01
  8.50000000E-01  8.50000000E-01  8.50000000E-01  8.50000000E-01  8.50000000E-01
  8.50000000E-01  8.50000000E-01  8.50000000E-01  8.50000000E-01  8.50000000E-01
  8.50000000E-01  8.50000000E-01  8.50000000E-01  8.50000000E-01  8.50000000E-01
  8.50000000E-01  8.50000000E-01  8.50000000E-01  8.50000000E-01  8.50000000E-01
  8.50000000E-01  8.50000000E-01  8.50000000E-01  8.50000000E-01  8.50000000E-01
  8.50000000E-01  8.50000000E-01  8.50000000E-01  8.50000000E-01  8.50000000E-01
  8.50000000E-01  8.50000000E-01  8.50000000E-01  8.50000000E-01  8.50000000E-01
  8.50000000E-01  8.50000000E-01  8.50000000E-01  8.50000000E-01  8.50000000E-01
  8.50000000E-01  8.50000000E-01  8.50000000E-01  8.50000000E-01  8.50000000E-01
  8.50000000E-01  8.50000000E-01  8.50000000E-01  8.50000000E-01  8.50000000E-01
  8.50000000E-01  8.50000000E-01  8.50000000E-01  8.50000000E-01  8.50000000E-01
  8.50000000E-01  8.50000000E-01  8.50000000E-01  8.50000000E-01  8.50000000E-01
  8.50000000E-01  8.50000000E-01  8.50000000E-01  8.50000000E-01  8.50000000E-01
  8.50000000E-01  8.50000000E-01  8.50000000E-01  8.50000000E-01  8.50000000E-01
  8.50000000E-01  8.50000000E-01  8.50000000E-01  8.50000000E-01  8.50000000E-01
  8.50000000E-01  8.50000000E-01  8.50000000E-01  8.50000000E-01  8.50000000E-01
  8.50000000E-01  8.50000000E-01  8.50000000E-01  8.50000000E-01  8.50000000E-01
  8.50000000E-01  8.50000000E-01  8.50000000E-01  8.50000000E-01  8.50000000E-01
  8.50000000E-01  8.50000000E-01  8.50000000E-01  8.50000000E-01  8.50000000E-01
  8.50000000E-01  8.50000000E-01  8.50000000E-01  8.50000000E-01  8.50000000E-01
  8.50000000E-01  8.50000000E-01  8.50000000E-01  8.50000000E-01  8.50000000E-01
  8.50000000E-01  8.50000000E-01  8.50000000E-01  8.50000000E-01  8.50000000E-01
  8.50000000E-01  8.50000000E-01  8.50000000E-01  8.50000000E-01  8.50000000E-01
  8.50000000E-01  8.50000000E-01  8.50000000E-01  8.50000000E-01  8.50000000E-01
  8.50000000E-01  8.50000000E-01  8.50000000E-01  8.50000000E-01  8.50000000E-01
  8.50000000E-01  8.50000000E-01  8.50000000E-01  8.50000000E-01  8.50000000E-01
  8.50000000E-01  8.50000000E-01  8.50000000E-01  8.50000000E-01  8.50000000E-01
  8.50000000E-01  8.50000000E-01  8.50000000E-01  8.50000000E-01  8.50000000E-01
  8.50000000E-01  8.50000000E-01  8.50000000E-01  8.50000000E-01  8.50000000E-01
  8.50000000E-01  8.50000000E-01  8.50000000E-01  8.50000000E-01  8.50000000E-01
  8.50000000E-01  8.50000000E-01  8.50000000E-01  8.50000000E-01  8.50000000E-01
  8.50000000E-01  8.50000000E-01  8.50000000E-01  8.50000000E-01  8.50000000E-01
  8.50000000E-01  8.50000000E-01  8.50000000E-01  8.50000000E-01  8.50000000E-01
  8.50000000E-01  8.50000000E-01  8.50000000E-01  8.50000000E-01  8.50000000E-01
  8.50000000E-01  8.50000000E-01  8.50000000E-01  8.50000000E-01  8.50000000E-01
  8.50000000E-01  8.50000000E-01  8.50000000E-01  8.50000000E-01  8.50000000E-01
  8.50000000E-01  8.50000000E-01  8.50000000E-01  8.50000000E-01  8.50000000E-01
  8.50000000E-01  8.50000000E-01  8.50000000E-01  8.50000000E-01  8.50000000E-01
  8.50000000E-01  8.50000000E-01  8.50000000E-01  8.50000000E-01  8.50000000E-01
  8.50000000E-01  8.50000000E-01  8.50000000E-01  8.50000000E-01  8.50000000E-01
  8.50000000E-01  8.50000000E-01  8.50000000E-01  8.50000000E-01  8.50000000E-01
  8.50000000E-01  8.50000000E-01  8.50000000E-01  8.50000000E-01  8.50000000E-01
  8.50000000E-01  8.50000000E-01  8.50000000E-01  8.50000000E-01  8.50000000E-01
  8.50000000E-01  8.50000000E-01  8.50000000E-01  8.50000000E-01  8.50000000E-01
  8.50000000E-01  8.50000000E-01  8.50000000E-01  8.50000000E-01  8.50000000E-01
  8.50000000E-01  8.50000000E-01  8.50000000E-01  8.50000000E-01  8.50000000E-01
  8.50000000E-01  8.50000000E-01  8.50000000E-01  8.50000000E-01  8.50000000E-01
  8.50000000E-01  8.50000000E-01  8.50000000E-01  8.50000000E-01  8.50000000E-01
  8.50000000E-01  8.50000000E-01  8.50000000E-01  8.50000000E-01  8.50000000E-01
  8.50000000E-01  8.50000000E-01  8.50000000E-01  8.50000000E-01  8.50000000E-01
  8.50000000E-01  8.50000000E-01  8.50000000E-01  8.50000000E-01  8.50000000E-01
  8.50000000E-01  8.50000000E-01  8.50000000E-01  8.50000000E-01  8.50000000E-01
  8.50000000E-01  8.50000000E-01  8.50000000E-01  8.50000000E-01  8.50000000E-01
  8.50000000E-01  8.50000000E-01  8.50000000E-01  8.50000000E-01  8.50000000E-01
  8.50000000E-01  8.50000000E-01  8.50000000E-01  8.50000000E-01  8.50000000E-01
  8.50000000E-01  8.50000000E-01  8.50000000E-01  8.50000000E-01  8.50000000E-01
  8.50000000E-01  8.50000000E-01  8.50000000E-01  8.50000000E-01  8.50000000E-01
  8.50000000E-01  8.50000000E-01  8.50000000E-01  8.50000000E-01  8.50000000E-01
  8.50000000E-01  8.50000000E-01  8.50000000E-01  8.50000000E-01  8.50000000E-01
  8.50000000E-01  8.50000000E-01  8.50000000E-01  8.50000000E-01  8.50000000E-01
  8.50000000E-01  8.50000000E-01  8.50000000E-01  8.50000000E-01  8.50000000E-01
  8.50000000E-01  8.50000000E-01  8.50000000E-01  8.50000000E-01  8.50000000E-01
  8.50000000E-01  8.50000000E-01  8.50000000E-01  8.50000000E-01  8.50000000E-01
  8.50000000E-01  8.50000000E-01  8.50000000E-01  8.50000000E-01  8.50000000E-01
  8.50000000E-01  8.50000000E-01  8.50000000E-01  8.50000000E-01  8.50000000E-01
  8.50000000E-01  8.50000000E-01  8.50000000E-01  8.50000000E-01  8.50000000E-01
  8.50000000E-01  8.50000000E-01  8.50000000E-01  8.50000000E-01  8.50000000E-01
  8.50000000E-01  8.50000000E-01  8.50000000E-01  8.50000000E-01  8.50000000E-01
  8.50000000E-01  8.50000000E-01  8.50000000E-01  8.50000000E-01  8.50000000E-01
  8.50000000E-01  8.50000000E-01  8.50000000E-01  8.50000000E-01  8.50000000E-01
  8.50000000E-01  8.50000000E-01  8.50000000E-01  8.50000000E-01  8.50000000E-01
  8.50000000E-01  8.50000000E-01  8.50000000E-01  8.50000000E-01  8.50000000E-01
  8.50000000E-01  8.50000000E-01  8.50000000E-01  8.50000000E-01  8.50000000E-01
  8.50000000E-01  8.50000000E-01  8.50000000E-01  8.50000000E-01  8.50000000E-01
  8.50000000E-01  8.50000000E-01  8.50000000E-01  8.50000000E-01  8.50000000E-01
  8.50000000E-01  8.50000000E-01  8.50000000E-01  8.50000000E-01  8.50000000E-01
  8.50000000E-01  8.50000000E-01  8.50000000E-01  8.50000000E-01  8.50000000E-01
  8.50000000E-01  8.50000000E-01  8.50000000E-01  8.50000000E-01  8.50000000E-01
  8.50000000E-01  8.50000000E-01  8.50000000E-01  8.50000000E-01  8.50000000E-01
  8.50000000E-01  8.50000000E-01  8.50000000E-01  8.50000000E-01  8.50000000E-01
  8.50000000E-01  8.50000000E-01  8.50000000E-01  8.50000000E-01  8.50000000E-01
  8.50000000E-01  8.50000000E-01  8.50000000E-01  8.50000000E-01  8.50000000E-01
  8.50000000E-01  8.50000000E-01  8.50000000E-01  8.50000000E-01  8.50000000E-01
  8.50000000E-01  8.50000000E-01  8.50000000E-01  8.50000000E-01  8.50000000E-01
  8.50000000E-01  8.50000000E-01  8.50000000E-01  8.50000000E-01  8.50000000E-01
  8.50000000E-01  8.50000000E-01  8.50000000E-01  8.50000000E-01  8.50000000E-01
  8.50000000E-01  8.50000000E-01  8.50000000E-01  8.50000000E-01  8.50000000E-01
  8.50000000E-01  8.50000000E-01  8.50000000E-01  8.50000000E-01  8.50000000E-01
  8.50000000E-01  8.50000000E-01  8.50000000E-01  8.50000000E-01  8.50000000E-01
  8.50000000E-01  8.50000000E-01  8.50000000E-01  8.50000000E-01  8.50000000E-01
  8.50000000E-01  8.50000000E-01  8.50000000E-01  8.50000000E-01  8.50000000E-01
  8.50000000E-01  8.50000000E-01  8.50000000E-01  8.50000000E-01  8.50000000E-01
  8.50000000E-01  8.50000000E-01  8.50000000E-01  8.50000000E-01  8.50000000E-01
  8.50000000E-01  8.50000000E-01  8.50000000E-01  8.50000000E-01  8.50000000E-01
  8.50000000E-01  8.50000000E-01  8.50000000E-01  8.50000000E-01  8.50000000E-01
  8.50000000E-01  8.50000000E-01  8.50000000E-01  8.50000000E-01  8.50000000E-01
  8.50000000E-01  8.50000000E-01  8.50000000E-01  8.50000000E-01  8.50000000E-01
  8.50000000E-01  8.50000000E-01  8.50000000E-01  8.50000000E-01  8.50000000E-01
  8.50000000E-01  8.50000000E-01  8.50000000E-01  8.50000000E-01  8.50000000E-01
  8.50000000E-01  8.50000000E-01  8.50000000E-01  8.50000000E-01  8.50000000E-01
  8.50000000E-01  8.50000000E-01  8.50000000E-01  8.50000000E-01  8.50000000E-01
  8.50000000E-01  8.50000000E-01  8.50000000E-01  8.50000000E-01  8.50000000E-01
  8.50000000E-01  8.50000000E-01  8.50000000E-01  8.50000000E-01  8.50000000E-01
  8.50000000E-01  8.50000000E-01  8.50000000E-01  8.50000000E-01  8.50000000E-01
  8.50000000E-01  8.50000000E-01  8.50000000E-01  8.50000000E-01  8.50000000E-01
  8.50000000E-01  8.50000000E-01  8.50000000E-01  8.50000000E-01  8.50000000E-01
  8.50000000E-01  8.50000000E-01  8.50000000E-01  8.50000000E-01  8.50000000E-01
  8.50000000E-01  8.50000000E-01  8.50000000E-01  8.50000000E-01  8.50000000E-01
  8.50000000E-01  8.50000000E-01  8.50000000E-01  8.50000000E-01  8.50000000E-01
  8.50000000E-01  8.50000000E-01  8.50000000E-01  8.50000000E-01  8.50000000E-01
  8.50000000E-01  8.50000000E-01  8.50000000E-01  8.50000000E-01  8.50000000E-01
  8.50000000E-01  8.50000000E-01  8.50000000E-01  8.50000000E-01  8.50000000E-01
  8.50000000E-01  8.50000000E-01  8.50000000E-01  8.50000000E-01  8.50000000E-01
  8.50000000E-01  8.50000000E-01  8.50000000E-01  8.50000000E-01  8.50000000E-01
  8.50000000E-01  8.50000000E-01  8.50000000E-01  8.50000000E-01  8.50000000E-01
  8.50000000E-01  8.50000000E-01  8.50000000E-01  8.50000000E-01  8.50000000E-01
  8.50000000E-01  8.50000000E-01  8.50000000E-01  8.50000000E-01  8.50000000E-01
  8.50000000E-01  8.50000000E-01  8.50000000E-01  8.50000000E-01  8.50000000E-01
  8.50000000E-01  8.50000000E-01  8.50000000E-01  8.50000000E-01  8.50000000E-01
  8.50000000E-01  8.50000000E-01  8.50000000E-01  8.50000000E-01  8.50000000E-01
  8.50000000E-01  8.50000000E-01  8.50000000E-01  8.50000000E-01  8.50000000E-01
  8.50000000E-01  8.50000000E-01  8.50000000E-01  8.50000000E-01  8.50000000E-01
  8.50000000E-01  8.50000000E-01  8.50000000E-01  8.50000000E-01  8.50000000E-01
  8.50000000E-01  8.50000000E-01  8.50000000E-01  8.50000000E-01  8.50000000E-01
  8.50000000E-01  8.50000000E-01  8.50000000E-01  8.50000000E-01  8.50000000E-01
  8.50000000E-01  8.50000000E-01  8.50000000E-01  8.50000000E-01  8.50000000E-01
  8.50000000E-01  8.50000000E-01  8.50000000E-01  8.50000000E-01  8.50000000E-01
  8.50000000E-01  8.50000000E-01  8.50000000E-01  8.50000000E-01  8.50000000E-01
  8.50000000E-01  8.50000000E-01  8.50000000E-01  8.50000000E-01  8.50000000E-01
  8.50000000E-01  8.50000000E-01  8.50000000E-01  8.50000000E-01  8.50000000E-01
  8.50000000E-01  8.50000000E-01  8.50000000E-01  8.50000000E-01  8.50000000E-01
  8.50000000E-01  8.50000000E-01  8.50000000E-01  8.50000000E-01  8.50000000E-01
  8.50000000E-01  8.50000000E-01  8.50000000E-01  8.50000000E-01  8.50000000E-01
  8.50000000E-01  8.50000000E-01  8.50000000E-01  8.50000000E-01  8.50000000E-01
  8.50000000E-01  8.50000000E-01  8.50000000E-01  8.50000000E-01  8.50000000E-01
  8.50000000E-01  8.50000000E-01  8.50000000E-01  8.50000000E-01  8.50000000E-01
  8.50000000E-01  8.50000000E-01  8.50000000E-01  8.50000000E-01  8.50000000E-01
  8.50000000E-01  8.50000000E-01  8.50000000E-01  8.50000000E-01  8.50000000E-01
  8.50000000E-01  8.50000000E-01  8.50000000E-01  8.50000000E-01  8.50000000E-01
  8.50000000E-01  8.50000000E-01  8.50000000E-01  8.50000000E-01  8.50000000E-01
  8.50000000E-01  8.50000000E-01  8.50000000E-01  8.50000000E-01  8.50000000E-01
  8.50000000E-01  8.50000000E-01  8.50000000E-01  8.50000000E-01  8.50000000E-01
  8.50000000E-01  8.50000000E-01  8.50000000E-01  8.50000000E-01  8.50000000E-01
  8.50000000E-01  8.50000000E-01  8.50000000E-01  8.50000000E-01  8.50000000E-01
  8.50000000E-01  8.50000000E-01  8.50000000E-01  8.50000000E-01  8.50000000E-01
  8.50000000E-01  8.50000000E-01  8.50000000E-01  8.50000000E-01  8.50000000E-01
  8.50000000E-01  8.50000000E-01  8.50000000E-01  8.50000000E-01  8.50000000E-01
  8.50000000E-01  8.50000000E-01  8.50000000E-01  8.50000000E-01  8.50000000E-01
  8.50000000E-01  8.50000000E-01  8.50000000E-01  8.50000000E-01  8.50000000E-01
  8.50000000E-01  8.50000000E-01  8.50000000E-01  8.50000000E-01  8.50000000E-01
  8.50000000E-01  8.50000000E-01  8.50000000E-01  8.50000000E-01  8.50000000E-01
  8.50000000E-01  8.50000000E-01  8.50000000E-01  8.50000000E-01  8.50000000E-01
  8.50000000E-01  8.50000000E-01  8.50000000E-01  8.50000000E-01  8.50000000E-01
  8.50000000E-01  8.50000000E-01  8.50000000E-01  8.50000000E-01  8.50000000E-01
  8.50000000E-01  8.50000000E-01  8.50000000E-01  8.50000000E-01  8.50000000E-01
  8.50000000E-01  8.50000000E-01  8.50000000E-01  8.50000000E-01  8.50000000E-01
  8.50000000E-01  8.50000000E-01  8.50000000E-01  8.50000000E-01  8.50000000E-01
  8.50000000E-01  8.50000000E-01  8.50000000E-01  8.50000000E-01  8.50000000E-01
  8.50000000E-01  8.50000000E-01  8.50000000E-01  8.50000000E-01  8.50000000E-01
  8.50000000E-01  8.50000000E-01  8.50000000E-01  8.50000000E-01  8.50000000E-01
  8.50000000E-01  8.50000000E-01  8.50000000E-01  8.50000000E-01  8.50000000E-01
  8.50000000E-01  8.50000000E-01  8.50000000E-01  8.50000000E-01  8.50000000E-01
  8.50000000E-01  8.50000000E-01  8.50000000E-01  8.50000000E-01  8.50000000E-01
  8.50000000E-01  8.50000000E-01  8.50000000E-01  8.50000000E-01  8.50000000E-01
  8.50000000E-01  8.50000000E-01  8.50000000E-01  8.50000000E-01  8.50000000E-01
  8.50000000E-01  8.50000000E-01  8.50000000E-01  8.50000000E-01  8.50000000E-01
  8.50000000E-01  8.50000000E-01  8.50000000E-01  8.50000000E-01  8.50000000E-01
  8.50000000E-01  8.50000000E-01  8.50000000E-01  8.50000000E-01  8.50000000E-01
  8.50000000E-01  8.50000000E-01  8.50000000E-01  8.50000000E-01  8.50000000E-01
  8.50000000E-01  8.50000000E-01  8.50000000E-01  8.50000000E-01  8.50000000E-01
  8.50000000E-01  8.50000000E-01  8.50000000E-01  8.50000000E-01  8.50000000E-01
  8.50000000E-01  8.50000000E-01  8.50000000E-01  8.50000000E-01  8.50000000E-01
  8.50000000E-01  8.50000000E-01  8.50000000E-01  8.50000000E-01  8.50000000E-01
  8.50000000E-01  8.50000000E-01  8.50000000E-01  8.50000000E-01  8.50000000E-01
  8.50000000E-01  8.50000000E-01  8.50000000E-01  8.50000000E-01  8.50000000E-01
  8.50000000E-01  8.50000000E-01  8.50000000E-01  8.50000000E-01  8.50000000E-01
  8.50000000E-01  8.50000000E-01  8.50000000E-01  8.50000000E-01  8.50000000E-01
  8.50000000E-01  8.50000000E-01  8.50000000E-01  8.50000000E-01  8.50000000E-01
  8.50000000E-01  8.50000000E-01  8.50000000E-01  8.50000000E-01  8.50000000E-01
  8.50000000E-01  8.50000000E-01  8.50000000E-01  8.50000000E-01  8.50000000E-01
  8.50000000E-01  8.50000000E-01  8.50000000E-01  8.50000000E-01  8.50000000E-01
  8.50000000E-01  8.50000000E-01  8.50000000E-01  8.50000000E-01  8.50000000E-01
  8.50000000E-01  8.50000000E-01  8.50000000E-01  8.50000000E-01  8.50000000E-01
  8.50000000E-01  8.50000000E-01  8.50000000E-01  8.50000000E-01  8.50000000E-01
  8.50000000E-01  8.50000000E-01  8.50000000E-01  8.50000000E-01  8.50000000E-01
  8.50000000E-01  8.50000000E-01  8.50000000E-01  8.50000000E-01  8.50000000E-01
  8.50000000E-01  8.50000000E-01  8.50000000E-01  8.50000000E-01  8.50000000E-01
  8.50000000E-01  8.50000000E-01  8.50000000E-01  8.50000000E-01  8.50000000E-01
  8.50000000E-01  8.50000000E-01  8.50000000E-01  8.50000000E-01  8.50000000E-01
  8.50000000E-01  8.50000000E-01  8.50000000E-01  8.50000000E-01  8.50000000E-01
  8.50000000E-01  8.50000000E-01  8.50000000E-01  8.50000000E-01  8.50000000E-01
  8.50000000E-01  8.50000000E-01  8.50000000E-01  8.50000000E-01  8.50000000E-01
  8.50000000E-01  8.50000000E-01  8.50000000E-01  8.50000000E-01  8.50000000E-01
  8.50000000E-01  8.50000000E-01  8.50000000E-01  8.50000000E-01  8.50000000E-01
  8.50000000E-01  8.50000000E-01  8.50000000E-01  8.50000000E-01  8.50000000E-01
  8.50000000E-01  8.50000000E-01  8.50000000E-01  8.50000000E-01  8.50000000E-01
  8.50000000E-01  8.50000000E-01  8.50000000E-01  8.50000000E-01  8.50000000E-01
  8.50000000E-01  8.50000000E-01  8.50000000E-01  8.50000000E-01  8.50000000E-01
  8.50000000E-01  8.50000000E-01  8.50000000E-01  8.50000000E-01  8.50000000E-01
  8.50000000E-01  8.50000000E-01  8.50000000E-01  8.50000000E-01  8.50000000E-01
  8.50000000E-01  8.50000000E-01  8.50000000E-01  8.50000000E-01  8.50000000E-01
  8.50000000E-01  8.50000000E-01  8.50000000E-01  8.50000000E-01  8.50000000E-01
  8.50000000E-01  8.50000000E-01  8.50000000E-01  8.50000000E-01  8.50000000E-01
  8.50000000E-01  8.50000000E-01  8.50000000E-01  8.50000000E-01  8.50000000E-01
  8.50000000E-01  8.50000000E-01  8.50000000E-01  8.50000000E-01  8.50000000E-01
  8.50000000E-01  8.50000000E-01  8.50000000E-01  8.50000000E-01  8.50000000E-01
  8.50000000E-01  8.50000000E-01  8.50000000E-01  8.50000000E-01  8.50000000E-01
  8.50000000E-01  8.50000000E-01  8.50000000E-01  8.50000000E-01  8.50000000E-01
  8.50000000E-01  8.50000000E-01  8.50000000E-01  8.50000000E-01  8.50000000E-01
  8.50000000E-01  8.50000000E-01  8.50000000E-01  8.50000000E-01  8.50000000E-01
  8.50000000E-01  8.50000000E-01  8.50000000E-01  8.50000000E-01  8.50000000E-01
  8.50000000E-01  8.50000000E-01  8.50000000E-01  8.50000000E-01  8.50000000E-01
  8.50000000E-01  8.50000000E-01  8.50000000E-01  8.50000000E-01  8.50000000E-01
  8.50000000E-01  8.50000000E-01  8.50000000E-01  8.50000000E-01  8.50000000E-01
  8.50000000E-01  8.50000000E-01  8.50000000E-01  8.50000000E-01  8.50000000E-01
  8.50000000E-01  8.50000000E-01  8.50000000E-01  8.50000000E-01  8.50000000E-01
  8.50000000E-01  8.50000000E-01  8.50000000E-01  8.50000000E-01  8.50000000E-01
  8.50000000E-01  8.50000000E-01  8.50000000E-01  8.50000000E-01  8.50000000E-01
  8.50000000E-01  8.50000000E-01  8.50000000E-01  8.50000000E-01  8.50000000E-01
  8.50000000E-01  8.50000000E-01  8.50000000E-01  8.50000000E-01  8.50000000E-01
  8.50000000E-01  8.50000000E-01  8.50000000E-01  8.50000000E-01  8.50000000E-01
  8.50000000E-01  8.50000000E-01  8.50000000E-01  8.50000000E-01  8.50000000E-01
  8.50000000E-01  8.50000000E-01  8.50000000E-01  8.50000000E-01  8.50000000E-01
  8.50000000E-01  8.50000000E-01  8.50000000E-01  8.50000000E-01  8.50000000E-01
  8.50000000E-01  8.50000000E-01  8.50000000E-01  8.50000000E-01  8.50000000E-01
  8.50000000E-01  8.50000000E-01  8.50000000E-01  8.50000000E-01  8.50000000E-01
  8.50000000E-01  8.50000000E-01  8.50000000E-01  8.50000000E-01  8.50000000E-01
  8.50000000E-01  8.50000000E-01  8.50000000E-01  8.50000000E-01  8.50000000E-01
  8.50000000E-01  8.50000000E-01  8.50000000E-01  8.50000000E-01  8.50000000E-01
  8.50000000E-01  8.50000000E-01  8.50000000E-01  8.50000000E-01  8.50000000E-01
  8.50000000E-01  8.50000000E-01  8.50000000E-01  8.50000000E-01  8.50000000E-01
  8.50000000E-01  8.50000000E-01  8.50000000E-01  8.50000000E-01  8.50000000E-01
  8.50000000E-01  8.50000000E-01  8.50000000E-01  8.50000000E-01  8.50000000E-01
  8.50000000E-01  8.50000000E-01  8.50000000E-01  8.50000000E-01  8.50000000E-01
  8.50000000E-01  8.50000000E-01  8.50000000E-01  8.50000000E-01  8.50000000E-01
  8.50000000E-01  8.50000000E-01  8.50000000E-01  8.50000000E-01  8.50000000E-01
  8.50000000E-01  8.50000000E-01  8.50000000E-01  8.50000000E-01  8.50000000E-01
  8.50000000E-01  8.50000000E-01  8.50000000E-01  8.50000000E-01  8.50000000E-01
  8.50000000E-01  8.50000000E-01  8.50000000E-01  8.50000000E-01  8.50000000E-01
  8.50000000E-01  8.50000000E-01  8.50000000E-01  8.50000000E-01  8.50000000E-01
  8.50000000E-01  8.50000000E-01  8.50000000E-01  8.50000000E-01  8.50000000E-01
  8.50000000E-01  8.50000000E-01  8.50000000E-01  8.50000000E-01  8.50000000E-01
  8.50000000E-01  8.50000000E-01  8.50000000E-01  8.50000000E-01  8.50000000E-01
  8.50000000E-01  8.50000000E-01  8.50000000E-01  8.50000000E-01  8.50000000E-01
  8.50000000E-01  8.50000000E-01  8.50000000E-01  8.50000000E-01  8.50000000E-01
  8.50000000E-01  8.50000000E-01  8.50000000E-01  8.50000000E-01  8.50000000E-01
  8.50000000E-01  8.50000000E-01  8.50000000E-01  8.50000000E-01  8.50000000E-01
  8.50000000E-01  8.50000000E-01  8.50000000E-01  8.50000000E-01  8.50000000E-01
  8.50000000E-01  8.50000000E-01  8.50000000E-01  8.50000000E-01  8.50000000E-01
  8.50000000E-01  8.50000000E-01  8.50000000E-01  8.50000000E-01  8.50000000E-01
  8.50000000E-01  8.50000000E-01  8.50000000E-01  8.50000000E-01  8.50000000E-01
  8.50000000E-01  8.50000000E-01  8.50000000E-01  8.50000000E-01  8.50000000E-01
  8.50000000E-01  8.50000000E-01  8.50000000E-01  8.50000000E-01  8.50000000E-01
  8.50000000E-01  8.50000000E-01  8.50000000E-01  8.50000000E-01  8.50000000E-01
  8.50000000E-01  8.50000000E-01  8.50000000E-01  8.50000000E-01  8.50000000E-01
  8.50000000E-01  8.50000000E-01  8.50000000E-01  8.50000000E-01  8.50000000E-01
  8.50000000E-01  8.50000000E-01  8.50000000E-01  8.50000000E-01  8.50000000E-01
  8.50000000E-01  8.50000000E-01  8.50000000E-01  8.50000000E-01  8.50000000E-01
  8.50000000E-01  8.50000000E-01  8.50000000E-01  8.50000000E-01  8.50000000E-01
  8.50000000E-01  8.50000000E-01  8.50000000E-01  8.50000000E-01  8.50000000E-01
  8.50000000E-01  8.50000000E-01  8.50000000E-01  8.50000000E-01  8.50000000E-01
  8.50000000E-01  8.50000000E-01  8.50000000E-01  8.50000000E-01  8.50000000E-01
  8.50000000E-01  8.50000000E-01  8.50000000E-01  8.50000000E-01  8.50000000E-01
  8.50000000E-01  8.50000000E-01  8.50000000E-01  8.50000000E-01  8.50000000E-01
  8.50000000E-01  8.50000000E-01  8.50000000E-01  8.50000000E-01  8.50000000E-01
  8.50000000E-01  8.50000000E-01  8.50000000E-01  8.50000000E-01  8.50000000E-01
  8.50000000E-01  8.50000000E-01  8.50000000E-01  8.50000000E-01  8.50000000E-01
  8.50000000E-01  8.50000000E-01  8.50000000E-01  8.50000000E-01  8.50000000E-01
  8.50000000E-01  8.50000000E-01  8.50000000E-01  8.50000000E-01  8.50000000E-01
  8.50000000E-01  8.50000000E-01  8.50000000E-01  8.50000000E-01  8.50000000E-01
  8.50000000E-01  8.50000000E-01  8.50000000E-01  8.50000000E-01  8.50000000E-01
  8.50000000E-01  8.50000000E-01  8.50000000E-01  8.50000000E-01  8.50000000E-01
  8.50000000E-01  8.50000000E-01  8.50000000E-01  8.50000000E-01  8.50000000E-01
  8.50000000E-01  8.50000000E-01  8.50000000E-01  8.50000000E-01  8.50000000E-01
  8.50000000E-01  8.50000000E-01  8.50000000E-01  8.50000000E-01  8.50000000E-01
  8.50000000E-01  8.50000000E-01  8.50000000E-01  8.50000000E-01  8.50000000E-01
  8.50000000E-01  8.50000000E-01  8.50000000E-01  8.50000000E-01  8.50000000E-01
  8.50000000E-01  8.50000000E-01  8.50000000E-01  8.50000000E-01  8.50000000E-01
  8.50000000E-01  8.50000000E-01  8.50000000E-01  8.50000000E-01  8.50000000E-01
  8.50000000E-01  8.50000000E-01  8.50000000E-01  8.50000000E-01  8.50000000E-01
  8.50000000E-01  8.50000000E-01  8.50000000E-01  8.50000000E-01  8.50000000E-01
  8.50000000E-01  8.50000000E-01  8.50000000E-01  8.50000000E-01  8.50000000E-01
  8.50000000E-01  8.50000000E-01  8.50000000E-01  8.50000000E-01  8.50000000E-01
  8.50000000E-01  8.50000000E-01  8.50000000E-01  8.50000000E-01  8.50000000E-01
  8.50000000E-01  8.50000000E-01  8.50000000E-01  8.50000000E-01  8.50000000E-01
  8.50000000E-01  8.50000000E-01  8.50000000E-01  8.50000000E-01  8.50000000E-01
  8.50000000E-01  8.50000000E-01  8.50000000E-01  8.50000000E-01  8.50000000E-01
  8.50000000E-01  8.50000000E-01  8.50000000E-01  8.50000000E-01  8.50000000E-01
  8.50000000E-01  8.50000000E-01  8.50000000E-01  8.50000000E-01  8.50000000E-01
  8.50000000E-01  8.50000000E-01  8.50000000E-01  8.50000000E-01  8.50000000E-01
  8.50000000E-01  8.50000000E-01  8.50000000E-01  8.50000000E-01  8.50000000E-01
  8.50000000E-01  8.50000000E-01  8.50000000E-01  8.50000000E-01  8.50000000E-01
  8.50000000E-01  8.50000000E-01  8.50000000E-01  8.50000000E-01  8.50000000E-01
  8.50000000E-01  8.50000000E-01  8.50000000E-01  8.50000000E-01  8.50000000E-01
  8.50000000E-01  8.50000000E-01  8.50000000E-01  8.50000000E-01  8.50000000E-01
  8.50000000E-01  8.50000000E-01  8.50000000E-01  8.50000000E-01  8.50000000E-01
  8.50000000E-01  8.50000000E-01  8.50000000E-01  8.50000000E-01  8.50000000E-01
  8.50000000E-01  8.50000000E-01  8.50000000E-01  8.50000000E-01  8.50000000E-01
  8.50000000E-01  8.50000000E-01  8.50000000E-01  8.50000000E-01  8.50000000E-01
  8.50000000E-01  8.50000000E-01  8.50000000E-01  8.50000000E-01  8.50000000E-01
  8.50000000E-01  8.50000000E-01  8.50000000E-01  8.50000000E-01  8.50000000E-01
  8.50000000E-01  8.50000000E-01  8.50000000E-01  8.50000000E-01  8.50000000E-01
  8.50000000E-01  8.50000000E-01  8.50000000E-01  8.50000000E-01  8.50000000E-01
  8.50000000E-01  8.50000000E-01  8.50000000E-01  8.50000000E-01  8.50000000E-01
  8.50000000E-01  8.50000000E-01  8.50000000E-01  8.50000000E-01  8.50000000E-01
  8.50000000E-01  8.50000000E-01  8.50000000E-01  8.50000000E-01  8.50000000E-01
  8.50000000E-01  8.50000000E-01  8.50000000E-01  8.50000000E-01  8.50000000E-01
  8.50000000E-01  8.50000000E-01  8.50000000E-01  8.50000000E-01  8.50000000E-01
  8.50000000E-01  8.50000000E-01  8.50000000E-01  8.50000000E-01  8.50000000E-01
  8.50000000E-01  8.50000000E-01  8.50000000E-01  8.50000000E-01  8.50000000E-01
  8.50000000E-01  8.50000000E-01  8.50000000E-01  8.50000000E-01  8.50000000E-01
  8.50000000E-01  8.50000000E-01  8.50000000E-01  8.50000000E-01  8.50000000E-01
  8.50000000E-01  8.50000000E-01  8.50000000E-01  8.50000000E-01  8.50000000E-01
  8.50000000E-01  8.50000000E-01  8.50000000E-01  8.50000000E-01  8.50000000E-01
  8.50000000E-01  8.50000000E-01  8.50000000E-01  8.50000000E-01  8.50000000E-01
  8.50000000E-01  8.50000000E-01  8.50000000E-01  8.50000000E-01  8.50000000E-01
  8.50000000E-01  8.50000000E-01  8.50000000E-01  8.50000000E-01  8.50000000E-01
  8.50000000E-01  8.50000000E-01  8.50000000E-01  8.50000000E-01  8.50000000E-01
  8.50000000E-01  8.50000000E-01  8.50000000E-01  8.50000000E-01  8.50000000E-01
  8.50000000E-01  8.50000000E-01  8.50000000E-01  8.50000000E-01  8.50000000E-01
  8.50000000E-01  8.50000000E-01  8.50000000E-01  8.50000000E-01  8.50000000E-01
  8.50000000E-01  8.50000000E-01  8.50000000E-01  8.50000000E-01  8.50000000E-01
  8.50000000E-01  8.50000000E-01  8.50000000E-01  8.50000000E-01  8.50000000E-01
  8.50000000E-01  8.50000000E-01  8.50000000E-01  8.50000000E-01  8.50000000E-01
  8.50000000E-01  8.50000000E-01  8.50000000E-01  8.50000000E-01  8.50000000E-01
  8.50000000E-01  8.50000000E-01  8.50000000E-01  8.50000000E-01  8.50000000E-01
  8.50000000E-01  8.50000000E-01  8.50000000E-01  8.50000000E-01  8.50000000E-01
  8.50000000E-01  8.50000000E-01  8.50000000E-01  8.50000000E-01  8.50000000E-01
  8.50000000E-01  8.50000000E-01  8.50000000E-01  8.50000000E-01  8.50000000E-01
  8.50000000E-01  8.50000000E-01  8.50000000E-01  8.50000000E-01  8.50000000E-01
  8.50000000E-01  8.50000000E-01  8.50000000E-01  8.50000000E-01  8.50000000E-01
  8.50000000E-01  8.50000000E-01  8.50000000E-01  8.50000000E-01  8.50000000E-01
  8.50000000E-01  8.50000000E-01  8.50000000E-01  8.50000000E-01  8.50000000E-01
  8.50000000E-01  8.50000000E-01  8.50000000E-01  8.50000000E-01  8.50000000E-01
  8.50000000E-01  8.50000000E-01  8.50000000E-01  8.50000000E-01  8.50000000E-01
  8.50000000E-01  8.50000000E-01  8.50000000E-01  8.50000000E-01  8.50000000E-01
  8.50000000E-01  8.50000000E-01  8.50000000E-01  8.50000000E-01  8.50000000E-01
  8.50000000E-01  8.50000000E-01  8.50000000E-01  8.50000000E-01  8.50000000E-01
  8.50000000E-01  8.50000000E-01  8.50000000E-01  8.50000000E-01  8.50000000E-01
  8.50000000E-01  8.50000000E-01  8.50000000E-01  8.50000000E-01  8.50000000E-01
  8.50000000E-01  8.50000000E-01  8.50000000E-01  8.50000000E-01  8.50000000E-01
  8.50000000E-01  8.50000000E-01  8.50000000E-01  8.50000000E-01  8.50000000E-01
  8.50000000E-01  8.50000000E-01  8.50000000E-01  8.50000000E-01  8.50000000E-01
  8.50000000E-01  8.50000000E-01  8.50000000E-01  8.50000000E-01  8.50000000E-01
  8.50000000E-01  8.50000000E-01  8.50000000E-01  8.50000000E-01  8.50000000E-01
  8.50000000E-01  8.50000000E-01  8.50000000E-01  8.50000000E-01  8.50000000E-01
  8.50000000E-01  8.50000000E-01  8.50000000E-01  8.50000000E-01  8.50000000E-01
  8.50000000E-01  8.50000000E-01  8.50000000E-01  8.50000000E-01  8.50000000E-01
  8.50000000E-01  8.50000000E-01  8.50000000E-01  8.50000000E-01  8.50000000E-01
  8.50000000E-01  8.50000000E-01  8.50000000E-01  8.50000000E-01  8.50000000E-01
  8.50000000E-01  8.50000000E-01  8.50000000E-01  8.50000000E-01  8.50000000E-01
  8.50000000E-01  8.50000000E-01  8.50000000E-01  8.50000000E-01  8.50000000E-01
  8.50000000E-01  8.50000000E-01  8.50000000E-01  8.50000000E-01  8.50000000E-01
  8.50000000E-01  8.50000000E-01  8.50000000E-01  8.50000000E-01  8.50000000E-01
  8.50000000E-01  8.50000000E-01  8.50000000E-01  8.50000000E-01  8.50000000E-01
  8.50000000E-01  8.50000000E-01  8.50000000E-01  8.50000000E-01  8.50000000E-01
  8.50000000E-01  8.50000000E-01  8.50000000E-01  8.50000000E-01  8.50000000E-01
  8.50000000E-01  8.50000000E-01  8.50000000E-01  8.50000000E-01  8.50000000E-01
  8.50000000E-01  8.50000000E-01  8.50000000E-01  8.50000000E-01  8.50000000E-01
  8.50000000E-01  8.50000000E-01  8.50000000E-01  8.50000000E-01  8.50000000E-01
  8.50000000E-01  8.50000000E-01  8.50000000E-01  8.50000000E-01  8.50000000E-01
  8.50000000E-01  8.50000000E-01  8.50000000E-01  8.50000000E-01  8.50000000E-01
  8.50000000E-01  8.50000000E-01  8.50000000E-01  8.50000000E-01  8.50000000E-01
  8.50000000E-01  8.50000000E-01  8.50000000E-01  8.50000000E-01  8.50000000E-01
  8.50000000E-01  8.50000000E-01  8.50000000E-01  8.50000000E-01  8.50000000E-01
  8.50000000E-01  8.50000000E-01  8.50000000E-01  8.50000000E-01  8.50000000E-01
  8.50000000E-01  8.50000000E-01  8.50000000E-01  8.50000000E-01  8.50000000E-01
  8.50000000E-01  8.50000000E-01  8.50000000E-01  8.50000000E-01  8.50000000E-01
  8.50000000E-01  8.50000000E-01  8.50000000E-01  8.50000000E-01  8.50000000E-01
  8.50000000E-01  8.50000000E-01  8.50000000E-01  8.50000000E-01  8.50000000E-01
  8.50000000E-01  8.50000000E-01  8.50000000E-01  8.50000000E-01  8.50000000E-01
  8.50000000E-01  8.50000000E-01  8.50000000E-01  8.50000000E-01  8.50000000E-01
  8.50000000E-01  8.50000000E-01  8.50000000E-01  8.50000000E-01  8.50000000E-01
  8.50000000E-01  8.50000000E-01  8.50000000E-01  8.50000000E-01  8.50000000E-01
  8.50000000E-01  8.50000000E-01  8.50000000E-01  8.50000000E-01  8.50000000E-01
  8.50000000E-01  8.50000000E-01  8.50000000E-01  8.50000000E-01  8.50000000E-01
  8.50000000E-01  8.50000000E-01  8.50000000E-01  8.50000000E-01  8.50000000E-01
  8.50000000E-01  8.50000000E-01  8.50000000E-01  8.50000000E-01  8.50000000E-01
  8.50000000E-01  8.50000000E-01  8.50000000E-01  8.50000000E-01  8.50000000E-01
  8.50000000E-01  8.50000000E-01  8.50000000E-01  8.50000000E-01  8.50000000E-01
  8.50000000E-01  8.50000000E-01  8.50000000E-01  8.50000000E-01  8.50000000E-01
  8.50000000E-01  8.50000000E-01  8.50000000E-01  8.50000000E-01  8.50000000E-01
  8.50000000E-01  8.50000000E-01  8.50000000E-01  8.50000000E-01  8.50000000E-01
  8.50000000E-01  8.50000000E-01  8.50000000E-01  8.50000000E-01  8.50000000E-01
  8.50000000E-01  8.50000000E-01  8.50000000E-01  8.50000000E-01  8.50000000E-01
  8.50000000E-01  8.50000000E-01  8.50000000E-01  8.50000000E-01  8.50000000E-01
  8.50000000E-01  8.50000000E-01  8.50000000E-01  8.50000000E-01  8.50000000E-01
  8.50000000E-01  8.50000000E-01  8.50000000E-01  8.50000000E-01  8.50000000E-01
  8.50000000E-01  8.50000000E-01  8.50000000E-01  8.50000000E-01  8.50000000E-01
  8.50000000E-01  8.50000000E-01  8.50000000E-01  8.50000000E-01  8.50000000E-01
  8.50000000E-01  8.50000000E-01  8.50000000E-01  8.50000000E-01  8.50000000E-01
  8.50000000E-01  8.50000000E-01  8.50000000E-01  8.50000000E-01  8.50000000E-01
  8.50000000E-01  8.50000000E-01  8.50000000E-01  8.50000000E-01  8.50000000E-01
  8.50000000E-01  8.50000000E-01  8.50000000E-01  8.50000000E-01  8.50000000E-01
  8.50000000E-01  8.50000000E-01  8.50000000E-01  8.50000000E-01  8.50000000E-01
  8.50000000E-01  8.50000000E-01  8.50000000E-01  8.50000000E-01  8.50000000E-01
  8.50000000E-01  8.50000000E-01  8.50000000E-01  8.50000000E-01  8.50000000E-01
  8.50000000E-01  8.50000000E-01  8.50000000E-01  8.50000000E-01  8.50000000E-01
  8.50000000E-01  8.50000000E-01  8.50000000E-01  8.50000000E-01  8.50000000E-01
  8.50000000E-01  8.50000000E-01  8.50000000E-01  8.50000000E-01  8.50000000E-01
  8.50000000E-01  8.50000000E-01  8.50000000E-01  8.50000000E-01  8.50000000E-01
  8.50000000E-01  8.50000000E-01  8.50000000E-01  8.50000000E-01  8.50000000E-01
  8.50000000E-01  8.50000000E-01  8.50000000E-01  8.50000000E-01  8.50000000E-01
  8.50000000E-01  8.50000000E-01  8.50000000E-01  8.50000000E-01  8.50000000E-01
  8.50000000E-01  8.50000000E-01  8.50000000E-01  8.50000000E-01  8.50000000E-01
  8.50000000E-01  8.50000000E-01  8.50000000E-01  8.50000000E-01  8.50000000E-01
  8.50000000E-01  8.50000000E-01  8.50000000E-01  8.50000000E-01  8.50000000E-01
  8.50000000E-01  8.50000000E-01  8.50000000E-01  8.50000000E-01  8.50000000E-01
  8.50000000E-01  8.50000000E-01  8.50000000E-01  8.50000000E-01  8.50000000E-01
  8.50000000E-01  8.50000000E-01  8.50000000E-01  8.50000000E-01  8.50000000E-01
  8.50000000E-01  8.50000000E-01  8.50000000E-01  8.50000000E-01  8.50000000E-01
  8.50000000E-01  8.50000000E-01  8.50000000E-01  8.50000000E-01  8.50000000E-01
  8.50000000E-01  8.50000000E-01  8.50000000E-01  8.50000000E-01  8.50000000E-01
  8.50000000E-01  8.50000000E-01  8.50000000E-01  8.50000000E-01  8.50000000E-01
  8.50000000E-01  8.50000000E-01  8.50000000E-01  8.50000000E-01  8.50000000E-01
  8.50000000E-01  8.50000000E-01  8.50000000E-01  8.50000000E-01  8.50000000E-01
  8.50000000E-01  8.50000000E-01  8.50000000E-01  8.50000000E-01  8.50000000E-01
  8.50000000E-01  8.50000000E-01  8.50000000E-01  8.50000000E-01  8.50000000E-01
  8.50000000E-01  8.50000000E-01  8.50000000E-01  8.50000000E-01  8.50000000E-01
  8.50000000E-01  8.50000000E-01  8.50000000E-01  8.50000000E-01  8.50000000E-01
  8.50000000E-01  8.50000000E-01  8.50000000E-01  8.50000000E-01  8.50000000E-01
  8.50000000E-01  8.50000000E-01  8.50000000E-01  8.50000000E-01  8.50000000E-01
  8.50000000E-01  8.50000000E-01  8.50000000E-01  8.50000000E-01  8.50000000E-01
  8.50000000E-01  8.50000000E-01  8.50000000E-01  8.50000000E-01  8.50000000E-01
  8.50000000E-01  8.50000000E-01  8.50000000E-01  8.50000000E-01  8.50000000E-01
  8.50000000E-01  8.50000000E-01  8.50000000E-01  8.50000000E-01  8.50000000E-01
  8.50000000E-01  8.50000000E-01  8.50000000E-01  8.50000000E-01  8.50000000E-01
  8.50000000E-01  8.50000000E-01  8.50000000E-01  8.50000000E-01  8.50000000E-01
  8.50000000E-01  8.50000000E-01  8.50000000E-01  8.50000000E-01  8.50000000E-01
  8.50000000E-01  8.50000000E-01  8.50000000E-01  8.50000000E-01  8.50000000E-01
  8.50000000E-01  8.50000000E-01  8.50000000E-01  8.50000000E-01  8.50000000E-01
  8.50000000E-01  8.50000000E-01  8.50000000E-01  8.50000000E-01  8.50000000E-01
  8.50000000E-01  8.50000000E-01  8.50000000E-01  8.50000000E-01  8.50000000E-01
  8.50000000E-01  8.50000000E-01  8.50000000E-01  8.50000000E-01  8.50000000E-01
  8.50000000E-01  8.50000000E-01  8.50000000E-01  8.50000000E-01  8.50000000E-01
  8.50000000E-01  8.50000000E-01  8.50000000E-01  8.50000000E-01  8.50000000E-01
  8.50000000E-01  8.50000000E-01  8.50000000E-01  8.50000000E-01  8.50000000E-01
  8.50000000E-01  8.50000000E-01  8.50000000E-01  8.50000000E-01  8.50000000E-01
  8.50000000E-01  8.50000000E-01  8.50000000E-01  8.50000000E-01  8.50000000E-01
  8.50000000E-01  8.50000000E-01  8.50000000E-01  8.50000000E-01  8.50000000E-01
  8.50000000E-01  8.50000000E-01  8.50000000E-01  8.50000000E-01  8.50000000E-01
  8.50000000E-01  8.50000000E-01  8.50000000E-01  8.50000000E-01  8.50000000E-01
  8.50000000E-01  8.50000000E-01  8.50000000E-01  8.50000000E-01  8.50000000E-01
  8.50000000E-01  8.50000000E-01  8.50000000E-01  8.50000000E-01  8.50000000E-01
  8.50000000E-01  8.50000000E-01  8.50000000E-01  8.50000000E-01  8.50000000E-01
  8.50000000E-01  8.50000000E-01  8.50000000E-01  8.50000000E-01  8.50000000E-01
  8.50000000E-01  8.50000000E-01  8.50000000E-01  8.50000000E-01  8.50000000E-01
  8.50000000E-01  8.50000000E-01  8.50000000E-01  8.50000000E-01  8.50000000E-01
  8.50000000E-01  8.50000000E-01  8.50000000E-01  8.50000000E-01  8.50000000E-01
  8.50000000E-01  8.50000000E-01  8.50000000E-01  8.50000000E-01  8.50000000E-01
  8.50000000E-01  8.50000000E-01  8.50000000E-01  8.50000000E-01  8.50000000E-01
  8.50000000E-01  8.50000000E-01  8.50000000E-01  8.50000000E-01  8.50000000E-01
  8.50000000E-01  8.50000000E-01  8.50000000E-01  8.50000000E-01  8.50000000E-01
  8.50000000E-01  8.50000000E-01  8.50000000E-01  8.50000000E-01  8.50000000E-01
  8.50000000E-01  8.50000000E-01  8.50000000E-01  8.50000000E-01  8.50000000E-01
  8.50000000E-01  8.50000000E-01  8.50000000E-01  8.50000000E-01  8.50000000E-01
  8.50000000E-01  8.50000000E-01  8.50000000E-01  8.50000000E-01  8.50000000E-01
  8.50000000E-01  8.50000000E-01  8.50000000E-01  8.50000000E-01  8.50000000E-01
  8.50000000E-01  8.50000000E-01  8.50000000E-01  8.50000000E-01  8.50000000E-01
  8.50000000E-01  8.50000000E-01  8.50000000E-01  8.50000000E-01  8.50000000E-01
  8.50000000E-01  8.50000000E-01  8.50000000E-01  8.50000000E-01  8.50000000E-01
  8.50000000E-01  8.50000000E-01  8.50000000E-01  8.50000000E-01  8.50000000E-01
  8.50000000E-01  8.50000000E-01  8.50000000E-01  8.50000000E-01  8.50000000E-01
  8.50000000E-01  8.50000000E-01  8.50000000E-01  8.50000000E-01  8.50000000E-01
  8.50000000E-01  8.50000000E-01  8.50000000E-01  8.50000000E-01  8.50000000E-01
  8.50000000E-01  8.50000000E-01  8.50000000E-01  8.50000000E-01  8.50000000E-01
  8.50000000E-01  8.50000000E-01  8.50000000E-01  8.50000000E-01  8.50000000E-01
  8.50000000E-01  8.50000000E-01  8.50000000E-01  8.50000000E-01  8.50000000E-01
  8.50000000E-01  8.50000000E-01  8.50000000E-01  8.50000000E-01  8.50000000E-01
  8.50000000E-01  8.50000000E-01  8.50000000E-01  8.50000000E-01  8.50000000E-01
  8.50000000E-01  8.50000000E-01  8.50000000E-01  8.50000000E-01  8.50000000E-01
  8.50000000E-01  8.50000000E-01  8.50000000E-01  8.50000000E-01  8.50000000E-01
  8.50000000E-01  8.50000000E-01  8.50000000E-01  8.50000000E-01  8.50000000E-01
  8.50000000E-01  8.50000000E-01  8.50000000E-01  8.50000000E-01  8.50000000E-01
  8.50000000E-01  8.50000000E-01  8.50000000E-01  8.50000000E-01  8.50000000E-01
  8.50000000E-01  8.50000000E-01  8.50000000E-01  8.50000000E-01  8.50000000E-01
  8.50000000E-01  8.50000000E-01  8.50000000E-01  8.50000000E-01  8.50000000E-01
  8.50000000E-01  8.50000000E-01  8.50000000E-01  8.50000000E-01  8.50000000E-01
  8.50000000E-01  8.50000000E-01  8.50000000E-01  8.50000000E-01  8.50000000E-01
  8.50000000E-01  8.50000000E-01  8.50000000E-01  8.50000000E-01  8.50000000E-01
  8.50000000E-01  8.50000000E-01  8.50000000E-01  8.50000000E-01  8.50000000E-01
  8.50000000E-01  8.50000000E-01  8.50000000E-01  8.50000000E-01  8.50000000E-01
  8.50000000E-01  8.50000000E-01  8.50000000E-01  8.50000000E-01  8.50000000E-01
  8.50000000E-01  8.50000000E-01  8.50000000E-01  8.50000000E-01  8.50000000E-01
  8.50000000E-01  8.50000000E-01  8.50000000E-01  8.50000000E-01  8.50000000E-01
  8.50000000E-01  8.50000000E-01  8.50000000E-01  8.50000000E-01  8.50000000E-01
  8.50000000E-01  8.50000000E-01  8.50000000E-01  8.50000000E-01  8.50000000E-01
  8.50000000E-01  8.50000000E-01  8.50000000E-01  8.50000000E-01  8.50000000E-01
  8.50000000E-01  8.50000000E-01  8.50000000E-01  8.50000000E-01  8.50000000E-01
  8.50000000E-01  8.50000000E-01  8.50000000E-01  8.50000000E-01  8.50000000E-01
  8.50000000E-01  8.50000000E-01  8.50000000E-01  8.50000000E-01  8.50000000E-01
  8.50000000E-01  8.50000000E-01  8.50000000E-01  8.50000000E-01  8.50000000E-01
  8.50000000E-01  8.50000000E-01  8.50000000E-01  8.50000000E-01  8.50000000E-01
  8.50000000E-01  8.50000000E-01  8.50000000E-01  8.50000000E-01  8.50000000E-01
  8.50000000E-01  8.50000000E-01  8.50000000E-01  8.50000000E-01  8.50000000E-01
  8.50000000E-01  8.50000000E-01  8.50000000E-01  8.50000000E-01  8.50000000E-01
  8.50000000E-01  8.50000000E-01  8.50000000E-01  8.50000000E-01  8.50000000E-01
  8.50000000E-01  8.50000000E-01  8.50000000E-01  8.50000000E-01  8.50000000E-01
  8.50000000E-01  8.50000000E-01  8.50000000E-01  8.50000000E-01  8.50000000E-01
  8.50000000E-01  8.50000000E-01  8.50000000E-01  8.50000000E-01  8.50000000E-01
  8.50000000E-01  8.50000000E-01  8.50000000E-01  8.50000000E-01  8.50000000E-01
  8.50000000E-01  8.50000000E-01  8.50000000E-01  8.50000000E-01  8.50000000E-01
  8.50000000E-01  8.50000000E-01  8.50000000E-01  8.50000000E-01  8.50000000E-01
  8.50000000E-01  8.50000000E-01  8.50000000E-01  8.50000000E-01  8.50000000E-01
  8.50000000E-01  8.50000000E-01  8.50000000E-01  8.50000000E-01  8.50000000E-01
  8.50000000E-01  8.50000000E-01  8.50000000E-01  8.50000000E-01  8.50000000E-01
  8.50000000E-01  8.50000000E-01  8.50000000E-01  8.50000000E-01  8.50000000E-01
  8.50000000E-01  8.50000000E-01  8.50000000E-01  8.50000000E-01  8.50000000E-01
  8.50000000E-01  8.50000000E-01  8.50000000E-01  8.50000000E-01  8.50000000E-01
  8.50000000E-01  8.50000000E-01  8.50000000E-01  8.50000000E-01  8.50000000E-01
  8.50000000E-01  8.50000000E-01  8.50000000E-01  8.50000000E-01  8.50000000E-01
  8.50000000E-01  8.50000000E-01  8.50000000E-01  8.50000000E-01  8.50000000E-01
  8.50000000E-01  8.50000000E-01  8.50000000E-01  8.50000000E-01  8.50000000E-01
  8.50000000E-01  8.50000000E-01  8.50000000E-01  8.50000000E-01  8.50000000E-01
  8.50000000E-01  8.50000000E-01  8.50000000E-01  8.50000000E-01  8.50000000E-01
  8.50000000E-01  8.50000000E-01  8.50000000E-01  8.50000000E-01  8.50000000E-01
  8.50000000E-01  8.50000000E-01  8.50000000E-01  8.50000000E-01  8.50000000E-01
  8.50000000E-01  8.50000000E-01  8.50000000E-01  8.50000000E-01  8.50000000E-01
  8.50000000E-01  8.50000000E-01  8.50000000E-01  8.50000000E-01  8.50000000E-01
  8.50000000E-01  8.50000000E-01  8.50000000E-01  8.50000000E-01  8.50000000E-01
  8.50000000E-01  8.50000000E-01  8.50000000E-01  8.50000000E-01  8.50000000E-01
  8.50000000E-01  8.50000000E-01  8.50000000E-01  8.50000000E-01  8.50000000E-01
  8.50000000E-01  8.50000000E-01  8.50000000E-01  8.50000000E-01  8.50000000E-01
  8.50000000E-01  8.50000000E-01  8.50000000E-01  8.50000000E-01  8.50000000E-01
  8.50000000E-01  8.50000000E-01  8.50000000E-01  8.50000000E-01  8.50000000E-01
  8.50000000E-01  8.50000000E-01  8.50000000E-01  8.50000000E-01  8.50000000E-01
  8.50000000E-01  8.50000000E-01  8.50000000E-01  8.50000000E-01  8.50000000E-01
  8.50000000E-01  8.50000000E-01  8.50000000E-01  8.50000000E-01  8.50000000E-01
  8.50000000E-01  8.50000000E-01  8.50000000E-01  8.50000000E-01  8.50000000E-01
  8.50000000E-01  8.50000000E-01  8.50000000E-01  8.50000000E-01  8.50000000E-01
  8.50000000E-01  8.50000000E-01  8.50000000E-01  8.50000000E-01  8.50000000E-01
  8.50000000E-01  8.50000000E-01  8.50000000E-01  8.50000000E-01  8.50000000E-01
  8.50000000E-01  8.50000000E-01  8.50000000E-01  8.50000000E-01  8.50000000E-01
  8.50000000E-01  8.50000000E-01  8.50000000E-01  8.50000000E-01  8.50000000E-01
  8.50000000E-01  8.50000000E-01  8.50000000E-01  8.50000000E-01  8.50000000E-01
  8.50000000E-01  8.50000000E-01  8.50000000E-01  8.50000000E-01  8.50000000E-01
  8.50000000E-01  8.50000000E-01  8.50000000E-01  8.50000000E-01  8.50000000E-01
  8.50000000E-01  8.50000000E-01  8.50000000E-01  8.50000000E-01  8.50000000E-01
  8.50000000E-01  8.50000000E-01  8.50000000E-01  8.50000000E-01  8.50000000E-01
  8.50000000E-01  8.50000000E-01  8.50000000E-01  8.50000000E-01  8.50000000E-01
  8.50000000E-01  8.50000000E-01  8.50000000E-01  8.50000000E-01  8.50000000E-01
  8.50000000E-01  8.50000000E-01  8.50000000E-01  8.50000000E-01  8.50000000E-01
  8.50000000E-01  8.50000000E-01  8.50000000E-01  8.50000000E-01  8.50000000E-01
  8.50000000E-01  8.50000000E-01  8.50000000E-01  8.50000000E-01  8.50000000E-01
  8.50000000E-01  8.50000000E-01  8.50000000E-01  8.50000000E-01  8.50000000E-01
  8.50000000E-01  8.50000000E-01  8.50000000E-01  8.50000000E-01  8.50000000E-01
  8.50000000E-01  8.50000000E-01  8.50000000E-01  8.50000000E-01  8.50000000E-01
  8.50000000E-01  8.50000000E-01  8.50000000E-01  8.50000000E-01  8.50000000E-01
  8.50000000E-01  8.50000000E-01  8.50000000E-01  8.50000000E-01  8.50000000E-01
  8.50000000E-01  8.50000000E-01  8.50000000E-01  8.50000000E-01  8.50000000E-01
  8.50000000E-01  8.50000000E-01  8.50000000E-01  8.50000000E-01  8.50000000E-01
  8.50000000E-01  8.50000000E-01  8.50000000E-01  8.50000000E-01  8.50000000E-01
  8.50000000E-01  8.50000000E-01  8.50000000E-01  8.50000000E-01  8.50000000E-01
  8.50000000E-01  8.50000000E-01  8.50000000E-01  8.50000000E-01  8.50000000E-01
  8.50000000E-01  8.50000000E-01  8.50000000E-01  8.50000000E-01  8.50000000E-01
  8.50000000E-01  8.50000000E-01  8.50000000E-01  8.50000000E-01  8.50000000E-01
  8.50000000E-01  8.50000000E-01  8.50000000E-01  8.50000000E-01  8.50000000E-01
  8.50000000E-01  8.50000000E-01  8.50000000E-01  8.50000000E-01  8.50000000E-01
  8.50000000E-01  8.50000000E-01  8.50000000E-01  8.50000000E-01  8.50000000E-01
  8.50000000E-01  8.50000000E-01  8.50000000E-01  8.50000000E-01  8.50000000E-01
  8.50000000E-01  8.50000000E-01  8.50000000E-01  8.50000000E-01  8.50000000E-01
  8.50000000E-01  8.50000000E-01  8.50000000E-01  8.50000000E-01  8.50000000E-01
  8.50000000E-01  8.50000000E-01  8.50000000E-01  8.50000000E-01  8.50000000E-01
  8.50000000E-01  8.50000000E-01  8.50000000E-01  8.50000000E-01  8.50000000E-01
  8.50000000E-01  8.50000000E-01  8.50000000E-01  8.50000000E-01  8.50000000E-01
  8.50000000E-01  8.50000000E-01  8.50000000E-01  8.50000000E-01  8.50000000E-01
  8.50000000E-01  8.50000000E-01  8.50000000E-01  8.50000000E-01  8.50000000E-01
  8.50000000E-01  8.50000000E-01  8.50000000E-01  8.50000000E-01  8.50000000E-01
  8.50000000E-01  8.50000000E-01  8.50000000E-01  8.50000000E-01  8.50000000E-01
  8.50000000E-01  8.50000000E-01  8.50000000E-01  8.50000000E-01  8.50000000E-01
  8.50000000E-01  8.50000000E-01  8.50000000E-01  8.50000000E-01  8.50000000E-01
  8.50000000E-01  8.50000000E-01  8.50000000E-01  8.50000000E-01  8.50000000E-01
  8.50000000E-01  8.50000000E-01  8.50000000E-01  8.50000000E-01  8.50000000E-01
  8.50000000E-01  8.50000000E-01  8.50000000E-01  8.50000000E-01  8.50000000E-01
  8.50000000E-01  8.50000000E-01  8.50000000E-01  8.50000000E-01  8.50000000E-01
  8.50000000E-01  8.50000000E-01  8.50000000E-01  8.50000000E-01  8.50000000E-01
  8.50000000E-01  8.50000000E-01  8.50000000E-01  8.50000000E-01  8.50000000E-01
  8.50000000E-01  8.50000000E-01  8.50000000E-01  8.50000000E-01  8.50000000E-01
  8.50000000E-01  8.50000000E-01  8.50000000E-01  8.50000000E-01  8.50000000E-01
  8.50000000E-01  8.50000000E-01  8.50000000E-01  8.50000000E-01  8.50000000E-01
  8.50000000E-01  8.50000000E-01  8.50000000E-01  8.50000000E-01  8.50000000E-01
  8.50000000E-01  8.50000000E-01  8.50000000E-01  8.50000000E-01  8.50000000E-01
  8.50000000E-01  8.50000000E-01  8.50000000E-01  8.50000000E-01  8.50000000E-01
  8.50000000E-01  8.50000000E-01  8.50000000E-01  8.50000000E-01  8.50000000E-01
  8.50000000E-01  8.50000000E-01  8.50000000E-01  8.50000000E-01  8.50000000E-01
  8.50000000E-01  8.50000000E-01  8.50000000E-01  8.50000000E-01  8.50000000E-01
  8.50000000E-01  8.50000000E-01  8.50000000E-01  8.50000000E-01  8.50000000E-01
  8.50000000E-01  8.50000000E-01  8.50000000E-01  8.50000000E-01  8.50000000E-01
  8.50000000E-01  8.50000000E-01  8.50000000E-01  8.50000000E-01  8.50000000E-01
  8.50000000E-01  8.50000000E-01  8.50000000E-01  8.50000000E-01  8.50000000E-01
  8.50000000E-01  8.50000000E-01  8.50000000E-01  8.50000000E-01  8.50000000E-01
  8.50000000E-01  8.50000000E-01  8.50000000E-01  8.50000000E-01  8.50000000E-01
  8.50000000E-01  8.50000000E-01  8.50000000E-01  8.50000000E-01  8.50000000E-01
  8.50000000E-01  8.50000000E-01  8.50000000E-01  8.50000000E-01  8.50000000E-01
  8.50000000E-01  8.50000000E-01  8.50000000E-01  8.50000000E-01  8.50000000E-01
  8.50000000E-01  8.50000000E-01  8.50000000E-01  8.50000000E-01  8.50000000E-01
  8.50000000E-01  8.50000000E-01  8.50000000E-01  8.50000000E-01  8.50000000E-01
  8.50000000E-01  8.50000000E-01  8.50000000E-01  8.50000000E-01  8.50000000E-01
  8.50000000E-01  8.50000000E-01  8.50000000E-01  8.50000000E-01  8.50000000E-01
  8.50000000E-01  8.50000000E-01  8.50000000E-01  8.50000000E-01  8.50000000E-01
  8.50000000E-01  8.50000000E-01  8.50000000E-01  8.50000000E-01  8.50000000E-01
  8.50000000E-01  8.50000000E-01  8.50000000E-01  8.50000000E-01  8.50000000E-01
  8.50000000E-01  8.50000000E-01  8.50000000E-01  8.50000000E-01  8.50000000E-01
  8.50000000E-01  8.50000000E-01  8.50000000E-01  8.50000000E-01  8.50000000E-01
  8.50000000E-01  8.50000000E-01  8.50000000E-01  8.50000000E-01  8.50000000E-01
  8.50000000E-01  8.50000000E-01  8.50000000E-01  8.50000000E-01  8.50000000E-01
  8.50000000E-01  8.50000000E-01  8.50000000E-01  8.50000000E-01  8.50000000E-01
  8.50000000E-01  8.50000000E-01  8.50000000E-01  8.50000000E-01  8.50000000E-01
  8.50000000E-01  8.50000000E-01  8.50000000E-01  8.50000000E-01  8.50000000E-01
  8.50000000E-01  8.50000000E-01  8.50000000E-01  8.50000000E-01  8.50000000E-01
  8.50000000E-01  8.50000000E-01  8.50000000E-01  8.50000000E-01  8.50000000E-01
  8.50000000E-01  8.50000000E-01  8.50000000E-01  8.50000000E-01  8.50000000E-01
  8.50000000E-01  8.50000000E-01  8.50000000E-01  8.50000000E-01  8.50000000E-01
  8.50000000E-01  8.50000000E-01  8.50000000E-01  8.50000000E-01  8.50000000E-01
  8.50000000E-01  8.50000000E-01  8.50000000E-01  8.50000000E-01  8.50000000E-01
  8.50000000E-01  8.50000000E-01  8.50000000E-01  8.50000000E-01  8.50000000E-01
  8.50000000E-01  8.50000000E-01  8.50000000E-01  8.50000000E-01  8.50000000E-01
  8.50000000E-01  8.50000000E-01  8.50000000E-01  8.50000000E-01  8.50000000E-01
  8.50000000E-01  8.50000000E-01  8.50000000E-01  8.50000000E-01  8.50000000E-01
  8.50000000E-01  8.50000000E-01  8.50000000E-01  8.50000000E-01  8.50000000E-01
  8.50000000E-01  8.50000000E-01  8.50000000E-01  8.50000000E-01  8.50000000E-01
  8.50000000E-01  8.50000000E-01  8.50000000E-01  8.50000000E-01  8.50000000E-01
  8.50000000E-01  8.50000000E-01  8.50000000E-01  8.50000000E-01  8.50000000E-01
  8.50000000E-01  8.50000000E-01  8.50000000E-01  8.50000000E-01  8.50000000E-01
  8.50000000E-01  8.50000000E-01  8.50000000E-01  8.50000000E-01  8.50000000E-01
  8.50000000E-01  8.50000000E-01  8.50000000E-01  8.50000000E-01  8.50000000E-01
  8.50000000E-01  8.50000000E-01  8.50000000E-01  8.50000000E-01  8.50000000E-01
  8.50000000E-01  8.50000000E-01  8.50000000E-01  8.50000000E-01  8.50000000E-01
  8.50000000E-01  8.50000000E-01  8.50000000E-01  8.50000000E-01  8.50000000E-01
  8.50000000E-01  8.50000000E-01  8.50000000E-01  8.50000000E-01  8.50000000E-01
  8.50000000E-01  8.50000000E-01  8.50000000E-01  8.50000000E-01  8.50000000E-01
  8.50000000E-01  8.50000000E-01  8.50000000E-01  8.50000000E-01  8.50000000E-01
  8.50000000E-01  8.50000000E-01  8.50000000E-01  8.50000000E-01  8.50000000E-01
  8.50000000E-01  8.50000000E-01  8.50000000E-01  8.50000000E-01  8.50000000E-01
  8.50000000E-01  8.50000000E-01  8.50000000E-01  8.50000000E-01  8.50000000E-01
  8.50000000E-01  8.50000000E-01  8.50000000E-01  8.50000000E-01  8.50000000E-01
  8.50000000E-01  8.50000000E-01  8.50000000E-01  8.50000000E-01  8.50000000E-01
  8.50000000E-01  8.50000000E-01  8.50000000E-01  8.50000000E-01  8.50000000E-01
  8.50000000E-01  8.50000000E-01  8.50000000E-01  8.50000000E-01  8.50000000E-01
  8.50000000E-01  8.50000000E-01  8.50000000E-01  8.50000000E-01  8.50000000E-01
  8.50000000E-01  8.50000000E-01  8.50000000E-01  8.50000000E-01  8.50000000E-01
  8.50000000E-01  8.50000000E-01  8.50000000E-01  8.50000000E-01  8.50000000E-01
  8.50000000E-01  8.50000000E-01  8.50000000E-01  8.50000000E-01  8.50000000E-01
  8.50000000E-01  8.50000000E-01  8.50000000E-01  8.50000000E-01  8.50000000E-01
  8.50000000E-01  8.50000000E-01  8.50000000E-01  8.50000000E-01  8.50000000E-01
  8.50000000E-01  8.50000000E-01  8.50000000E-01  8.50000000E-01  8.50000000E-01
  8.50000000E-01  8.50000000E-01  8.50000000E-01  8.50000000E-01  8.50000000E-01
  8.50000000E-01  8.50000000E-01  8.50000000E-01  8.50000000E-01  8.50000000E-01
  8.50000000E-01  8.50000000E-01  8.50000000E-01  8.50000000E-01  8.50000000E-01
  8.50000000E-01  8.50000000E-01  8.50000000E-01  8.50000000E-01  8.50000000E-01
  8.50000000E-01  8.50000000E-01  8.50000000E-01  8.50000000E-01  8.50000000E-01
  8.50000000E-01  8.50000000E-01  8.50000000E-01  8.50000000E-01  8.50000000E-01
  8.50000000E-01  8.50000000E-01  8.50000000E-01  8.50000000E-01  8.50000000E-01
  8.50000000E-01  8.50000000E-01  8.50000000E-01  8.50000000E-01  8.50000000E-01
  8.50000000E-01  8.50000000E-01  8.50000000E-01  8.50000000E-01  8.50000000E-01
  8.50000000E-01  8.50000000E-01  8.50000000E-01  8.50000000E-01  8.50000000E-01
  8.50000000E-01  8.50000000E-01  8.50000000E-01  8.50000000E-01  8.50000000E-01
  8.50000000E-01  8.50000000E-01  8.50000000E-01  8.50000000E-01  8.50000000E-01
  8.50000000E-01  8.50000000E-01  8.50000000E-01  8.50000000E-01  8.50000000E-01
  8.50000000E-01  8.50000000E-01  8.50000000E-01  8.50000000E-01  8.50000000E-01
  8.50000000E-01  8.50000000E-01  8.50000000E-01  8.50000000E-01  8.50000000E-01
  8.50000000E-01  8.50000000E-01  8.50000000E-01  8.50000000E-01  8.50000000E-01
  8.50000000E-01  8.50000000E-01  8.50000000E-01  8.50000000E-01  8.50000000E-01
  8.50000000E-01  8.50000000E-01  8.50000000E-01  8.50000000E-01  8.50000000E-01
  8.50000000E-01  8.50000000E-01  8.50000000E-01  8.50000000E-01  8.50000000E-01
  8.50000000E-01  8.50000000E-01  8.50000000E-01  8.50000000E-01  8.50000000E-01
  8.50000000E-01  8.50000000E-01  8.50000000E-01  8.50000000E-01  8.50000000E-01
  8.50000000E-01  8.50000000E-01  8.50000000E-01  8.50000000E-01  8.50000000E-01
  8.50000000E-01  8.50000000E-01  8.50000000E-01  8.50000000E-01  8.50000000E-01
  8.50000000E-01  8.50000000E-01  8.50000000E-01  8.50000000E-01  8.50000000E-01
  8.50000000E-01  8.50000000E-01  8.50000000E-01  8.50000000E-01  8.50000000E-01
  8.50000000E-01  8.50000000E-01  8.50000000E-01  8.50000000E-01  8.50000000E-01
  8.50000000E-01  8.50000000E-01  8.50000000E-01  8.50000000E-01  8.50000000E-01
  8.50000000E-01  8.50000000E-01  8.50000000E-01  8.50000000E-01  8.50000000E-01
  8.50000000E-01  8.50000000E-01  8.50000000E-01  8.50000000E-01  8.50000000E-01
  8.50000000E-01  8.50000000E-01  8.50000000E-01  8.50000000E-01  8.50000000E-01
  8.50000000E-01  8.50000000E-01  8.50000000E-01  8.50000000E-01  8.50000000E-01
  8.50000000E-01  8.50000000E-01  8.50000000E-01  8.50000000E-01  8.50000000E-01
  8.50000000E-01  8.50000000E-01  8.50000000E-01  8.50000000E-01  8.50000000E-01
  8.50000000E-01  8.50000000E-01  8.50000000E-01  8.50000000E-01  8.50000000E-01
  8.50000000E-01  8.50000000E-01  8.50000000E-01  8.50000000E-01  8.50000000E-01
  8.50000000E-01  8.50000000E-01  8.50000000E-01  8.50000000E-01  8.50000000E-01
  8.50000000E-01  8.50000000E-01  8.50000000E-01  8.50000000E-01  8.50000000E-01
  8.50000000E-01  8.50000000E-01  8.50000000E-01  8.50000000E-01  8.50000000E-01
  8.50000000E-01  8.50000000E-01  8.50000000E-01  8.50000000E-01  8.50000000E-01
  8.50000000E-01  8.50000000E-01  8.50000000E-01  8.50000000E-01  8.50000000E-01
  8.50000000E-01  8.50000000E-01  8.50000000E-01  8.50000000E-01  8.50000000E-01
  8.50000000E-01  8.50000000E-01  8.50000000E-01  8.50000000E-01  8.50000000E-01
  8.50000000E-01  8.50000000E-01  8.50000000E-01  8.50000000E-01  8.50000000E-01
  8.50000000E-01  8.50000000E-01  8.50000000E-01  8.50000000E-01  8.50000000E-01
  8.50000000E-01  8.50000000E-01  8.50000000E-01  8.50000000E-01  8.50000000E-01
  8.50000000E-01  8.50000000E-01  8.50000000E-01  8.50000000E-01  8.50000000E-01
  8.50000000E-01  8.50000000E-01  8.50000000E-01  8.50000000E-01  8.50000000E-01
  8.50000000E-01  8.50000000E-01  8.50000000E-01  8.50000000E-01  8.50000000E-01
  8.50000000E-01  8.50000000E-01  8.50000000E-01  8.50000000E-01  8.50000000E-01
  8.50000000E-01  8.50000000E-01  8.50000000E-01  8.50000000E-01  8.50000000E-01
  8.50000000E-01  8.50000000E-01  8.50000000E-01  8.50000000E-01  8.50000000E-01
  8.50000000E-01  8.50000000E-01  8.50000000E-01  8.50000000E-01  8.50000000E-01
  8.50000000E-01  8.50000000E-01  8.50000000E-01  8.50000000E-01  8.50000000E-01
  8.50000000E-01  8.50000000E-01  8.50000000E-01  8.50000000E-01  8.50000000E-01
  8.50000000E-01  8.50000000E-01  8.50000000E-01  8.50000000E-01  8.50000000E-01
  8.50000000E-01  8.50000000E-01  8.50000000E-01  8.50000000E-01  8.50000000E-01
  8.50000000E-01  8.50000000E-01  8.50000000E-01  8.50000000E-01  8.50000000E-01
  8.50000000E-01  8.50000000E-01  8.50000000E-01  8.50000000E-01  8.50000000E-01
  8.50000000E-01  8.50000000E-01  8.50000000E-01  8.50000000E-01  8.50000000E-01
  8.50000000E-01  8.50000000E-01  8.50000000E-01  8.50000000E-01  8.50000000E-01
  8.50000000E-01  8.50000000E-01  8.50000000E-01  8.50000000E-01  8.50000000E-01
  8.50000000E-01  8.50000000E-01  8.50000000E-01  8.50000000E-01  8.50000000E-01
  8.50000000E-01  8.50000000E-01  8.50000000E-01  8.50000000E-01  8.50000000E-01
  8.50000000E-01  8.50000000E-01  8.50000000E-01  8.50000000E-01  8.50000000E-01
  8.50000000E-01  8.50000000E-01  8.50000000E-01  8.50000000E-01  8.50000000E-01
  8.50000000E-01  8.50000000E-01  8.50000000E-01  8.50000000E-01  8.50000000E-01
  8.50000000E-01  8.50000000E-01  8.50000000E-01  8.50000000E-01  8.50000000E-01
  8.50000000E-01  8.50000000E-01  8.50000000E-01  8.50000000E-01  8.50000000E-01
  8.50000000E-01  8.50000000E-01  8.50000000E-01  8.50000000E-01  8.50000000E-01
  8.50000000E-01  8.50000000E-01  8.50000000E-01  8.50000000E-01  8.50000000E-01
  8.50000000E-01  8.50000000E-01  8.50000000E-01  8.50000000E-01  8.50000000E-01
  8.50000000E-01  8.50000000E-01  8.50000000E-01  8.50000000E-01  8.50000000E-01
  8.50000000E-01  8.50000000E-01  8.50000000E-01  8.50000000E-01  8.50000000E-01
  8.50000000E-01  8.50000000E-01  8.50000000E-01  8.50000000E-01  8.50000000E-01
  8.50000000E-01  8.50000000E-01  8.50000000E-01  8.50000000E-01  8.50000000E-01
  8.50000000E-01  8.50000000E-01  8.50000000E-01  8.50000000E-01  8.50000000E-01
  8.50000000E-01  8.50000000E-01  8.50000000E-01  8.50000000E-01  8.50000000E-01
  8.50000000E-01  8.50000000E-01  8.50000000E-01  8.50000000E-01  8.50000000E-01
  8.50000000E-01  8.50000000E-01  8.50000000E-01  8.50000000E-01  8.50000000E-01
  8.50000000E-01  8.50000000E-01  8.50000000E-01  8.50000000E-01  8.50000000E-01
  8.50000000E-01  8.50000000E-01  8.50000000E-01  8.50000000E-01  8.50000000E-01
  8.50000000E-01  8.50000000E-01  8.50000000E-01  8.50000000E-01  8.50000000E-01
  8.50000000E-01  8.50000000E-01  8.50000000E-01  8.50000000E-01  8.50000000E-01
  8.50000000E-01  8.50000000E-01  8.50000000E-01  8.50000000E-01  8.50000000E-01
  8.50000000E-01  8.50000000E-01  8.50000000E-01  8.50000000E-01  8.50000000E-01
  8.50000000E-01  8.50000000E-01  8.50000000E-01  8.50000000E-01  8.50000000E-01
  8.50000000E-01  8.50000000E-01  8.50000000E-01  8.50000000E-01  8.50000000E-01
  8.50000000E-01  8.50000000E-01  8.50000000E-01  8.50000000E-01  8.50000000E-01
  8.50000000E-01  8.50000000E-01  8.50000000E-01  8.50000000E-01  8.50000000E-01
  8.50000000E-01  8.50000000E-01  8.50000000E-01  8.50000000E-01  8.50000000E-01
  8.50000000E-01  8.50000000E-01  8.50000000E-01  8.50000000E-01  8.50000000E-01
  8.50000000E-01  8.50000000E-01  8.50000000E-01  8.50000000E-01  8.50000000E-01
  8.50000000E-01  8.50000000E-01  8.50000000E-01  8.50000000E-01  8.50000000E-01
  8.50000000E-01  8.50000000E-01  8.50000000E-01  8.50000000E-01  8.50000000E-01
  8.50000000E-01  8.50000000E-01  8.50000000E-01  8.50000000E-01  8.50000000E-01
  8.50000000E-01  8.50000000E-01  8.50000000E-01  8.50000000E-01  8.50000000E-01
  8.50000000E-01  8.50000000E-01  8.50000000E-01  8.50000000E-01  8.50000000E-01
  8.50000000E-01  8.50000000E-01  8.50000000E-01  8.50000000E-01  8.50000000E-01
  8.50000000E-01  8.50000000E-01  8.50000000E-01  8.50000000E-01  8.50000000E-01
  8.50000000E-01  8.50000000E-01  8.50000000E-01  8.50000000E-01  8.50000000E-01
  8.50000000E-01  8.50000000E-01  8.50000000E-01  8.50000000E-01  8.50000000E-01
  8.50000000E-01  8.50000000E-01  8.50000000E-01  8.50000000E-01  8.50000000E-01
  8.50000000E-01  8.50000000E-01  8.50000000E-01  8.50000000E-01  8.50000000E-01
  8.50000000E-01  8.50000000E-01  8.50000000E-01  8.50000000E-01  8.50000000E-01
  8.50000000E-01  8.50000000E-01  8.50000000E-01  8.50000000E-01  8.50000000E-01
  8.50000000E-01  8.50000000E-01  8.50000000E-01  8.50000000E-01  8.50000000E-01
  8.50000000E-01  8.50000000E-01  8.50000000E-01  8.50000000E-01  8.50000000E-01
  8.50000000E-01  8.50000000E-01  8.50000000E-01  8.50000000E-01  8.50000000E-01
  8.50000000E-01  8.50000000E-01  8.50000000E-01  8.50000000E-01  8.50000000E-01
  8.50000000E-01  8.50000000E-01  8.50000000E-01  8.50000000E-01  8.50000000E-01
  8.50000000E-01  8.50000000E-01  8.50000000E-01  8.50000000E-01  8.50000000E-01
  8.50000000E-01  8.50000000E-01  8.50000000E-01  8.50000000E-01  8.50000000E-01
  8.50000000E-01  8.50000000E-01  8.50000000E-01  8.50000000E-01  8.50000000E-01
  8.50000000E-01  8.50000000E-01  8.50000000E-01  8.50000000E-01  8.50000000E-01
  8.50000000E-01  8.50000000E-01  8.50000000E-01  8.50000000E-01  8.50000000E-01
  8.50000000E-01  8.50000000E-01  8.50000000E-01  8.50000000E-01  8.50000000E-01
  8.50000000E-01  8.50000000E-01  8.50000000E-01  8.50000000E-01  8.50000000E-01
  8.50000000E-01  8.50000000E-01  8.50000000E-01  8.50000000E-01  8.50000000E-01
  8.50000000E-01  8.50000000E-01  8.50000000E-01  8.50000000E-01  8.50000000E-01
  8.50000000E-01  8.50000000E-01  8.50000000E-01  8.50000000E-01  8.50000000E-01
  8.50000000E-01  8.50000000E-01  8.50000000E-01  8.50000000E-01  8.50000000E-01
  8.50000000E-01  8.50000000E-01  8.50000000E-01  8.50000000E-01  8.50000000E-01
  8.50000000E-01  8.50000000E-01  8.50000000E-01  8.50000000E-01  8.50000000E-01
  8.50000000E-01  8.50000000E-01  8.50000000E-01  8.50000000E-01  8.50000000E-01
  8.50000000E-01  8.50000000E-01  8.50000000E-01  8.50000000E-01  8.50000000E-01
  8.50000000E-01  8.50000000E-01  8.50000000E-01  8.50000000E-01  8.50000000E-01
  8.50000000E-01  8.50000000E-01  8.50000000E-01  8.50000000E-01  8.50000000E-01
  8.50000000E-01  8.50000000E-01  8.50000000E-01  8.50000000E-01  8.50000000E-01
  8.50000000E-01  8.50000000E-01  8.50000000E-01  8.50000000E-01  8.50000000E-01
  8.50000000E-01  8.50000000E-01  8.50000000E-01  8.50000000E-01  8.50000000E-01
  8.50000000E-01  8.50000000E-01  8.50000000E-01  8.50000000E-01  8.50000000E-01
  8.50000000E-01  8.50000000E-01  8.50000000E-01  8.50000000E-01  8.50000000E-01
  8.50000000E-01  8.50000000E-01  8.50000000E-01  8.50000000E-01  8.50000000E-01
  8.50000000E-01  8.50000000E-01  8.50000000E-01  8.50000000E-01  8.50000000E-01
  8.50000000E-01  8.50000000E-01  8.50000000E-01  8.50000000E-01  8.50000000E-01
  8.50000000E-01  8.50000000E-01  8.50000000E-01  8.50000000E-01  8.50000000E-01
  8.50000000E-01  8.50000000E-01  8.50000000E-01  8.50000000E-01  8.50000000E-01
  8.50000000E-01  8.50000000E-01  8.50000000E-01  8.50000000E-01  8.50000000E-01
  8.50000000E-01  8.50000000E-01  8.50000000E-01  8.50000000E-01  8.50000000E-01
  8.50000000E-01  8.50000000E-01  8.50000000E-01  8.50000000E-01  8.50000000E-01
  8.50000000E-01  8.50000000E-01  8.50000000E-01  8.50000000E-01  8.50000000E-01
  8.50000000E-01  8.50000000E-01  8.50000000E-01  8.50000000E-01  8.50000000E-01
  8.50000000E-01  8.50000000E-01  8.50000000E-01  8.50000000E-01  8.50000000E-01
  8.50000000E-01  8.50000000E-01  8.50000000E-01  8.50000000E-01  8.50000000E-01
  8.50000000E-01  8.50000000E-01  8.50000000E-01  8.50000000E-01  8.50000000E-01
  8.50000000E-01  8.50000000E-01  8.50000000E-01  8.50000000E-01  8.50000000E-01
  8.50000000E-01  8.50000000E-01  8.50000000E-01  8.50000000E-01  8.50000000E-01
  8.50000000E-01  8.50000000E-01  8.50000000E-01  8.50000000E-01  8.50000000E-01
  8.50000000E-01  8.50000000E-01  8.50000000E-01  8.50000000E-01  8.50000000E-01
  8.50000000E-01  8.50000000E-01  8.50000000E-01  8.50000000E-01  8.50000000E-01
  8.50000000E-01  8.50000000E-01  8.50000000E-01  8.50000000E-01  8.50000000E-01
  8.50000000E-01  8.50000000E-01  8.50000000E-01  8.50000000E-01  8.50000000E-01
  8.50000000E-01  8.50000000E-01  8.50000000E-01  8.50000000E-01  8.50000000E-01
  8.50000000E-01  8.50000000E-01  8.50000000E-01  8.50000000E-01  8.50000000E-01
  8.50000000E-01  8.50000000E-01  8.50000000E-01  8.50000000E-01  8.50000000E-01
  8.50000000E-01  8.50000000E-01  8.50000000E-01  8.50000000E-01  8.50000000E-01
  8.50000000E-01  8.50000000E-01  8.50000000E-01  8.50000000E-01  8.50000000E-01
  8.50000000E-01  8.50000000E-01  8.50000000E-01  8.50000000E-01  8.50000000E-01
  8.50000000E-01  8.50000000E-01  8.50000000E-01  8.50000000E-01  8.50000000E-01
  8.50000000E-01  8.50000000E-01  8.50000000E-01  8.50000000E-01  8.50000000E-01
  8.50000000E-01  8.50000000E-01  8.50000000E-01  8.50000000E-01  8.50000000E-01
  8.50000000E-01  8.50000000E-01  8.50000000E-01  8.50000000E-01  8.50000000E-01
  8.50000000E-01  8.50000000E-01  8.50000000E-01  8.50000000E-01  8.50000000E-01
  8.50000000E-01  8.50000000E-01  8.50000000E-01  8.50000000E-01  8.50000000E-01
  8.50000000E-01  8.50000000E-01  8.50000000E-01  8.50000000E-01  8.50000000E-01
  8.50000000E-01  8.50000000E-01  8.50000000E-01  8.50000000E-01  8.50000000E-01
  8.50000000E-01  8.50000000E-01  8.50000000E-01  8.50000000E-01  8.50000000E-01
  8.50000000E-01  8.50000000E-01  8.50000000E-01  8.50000000E-01  8.50000000E-01
  8.50000000E-01  8.50000000E-01  8.50000000E-01  8.50000000E-01  8.50000000E-01
  8.50000000E-01  8.50000000E-01  8.50000000E-01  8.50000000E-01  8.50000000E-01
  8.50000000E-01  8.50000000E-01  8.50000000E-01  8.50000000E-01  8.50000000E-01
  8.50000000E-01  8.50000000E-01  8.50000000E-01  8.50000000E-01  8.50000000E-01
  8.50000000E-01  8.50000000E-01  8.50000000E-01  8.50000000E-01  8.50000000E-01
  8.50000000E-01  8.50000000E-01  8.50000000E-01  8.50000000E-01  8.50000000E-01
  8.50000000E-01  8.50000000E-01  8.50000000E-01  8.50000000E-01  8.50000000E-01
  8.50000000E-01  8.50000000E-01  8.50000000E-01  8.50000000E-01  8.50000000E-01
  8.50000000E-01  8.50000000E-01  8.50000000E-01  8.50000000E-01  8.50000000E-01
  8.50000000E-01  8.50000000E-01  8.50000000E-01  8.50000000E-01  8.50000000E-01
  8.50000000E-01  8.50000000E-01  8.50000000E-01  8.50000000E-01  8.50000000E-01
  8.50000000E-01  8.50000000E-01  8.50000000E-01  8.50000000E-01  8.50000000E-01
  8.50000000E-01  8.50000000E-01  8.50000000E-01  8.50000000E-01  8.50000000E-01
  8.50000000E-01  8.50000000E-01  8.50000000E-01  8.50000000E-01  8.50000000E-01
  8.50000000E-01  8.50000000E-01  8.50000000E-01  8.50000000E-01  8.50000000E-01
  8.50000000E-01  8.50000000E-01  8.50000000E-01  8.50000000E-01  8.50000000E-01
  8.50000000E-01  8.50000000E-01  8.50000000E-01  8.50000000E-01  8.50000000E-01
  8.50000000E-01  8.50000000E-01  8.50000000E-01  8.50000000E-01  8.50000000E-01
  8.50000000E-01  8.50000000E-01  8.50000000E-01  8.50000000E-01  8.50000000E-01
  8.50000000E-01  8.50000000E-01  8.50000000E-01  8.50000000E-01  8.50000000E-01
  8.50000000E-01  8.50000000E-01  8.50000000E-01  8.50000000E-01  8.50000000E-01
  8.50000000E-01  8.50000000E-01  8.50000000E-01  8.50000000E-01  8.50000000E-01
  8.50000000E-01  8.50000000E-01  8.50000000E-01  8.50000000E-01  8.50000000E-01
  8.50000000E-01  8.50000000E-01  8.50000000E-01  8.50000000E-01  8.50000000E-01
  8.50000000E-01  8.50000000E-01  8.50000000E-01  8.50000000E-01  8.50000000E-01
  8.50000000E-01  8.50000000E-01  8.50000000E-01  8.50000000E-01  8.50000000E-01
  8.50000000E-01  8.50000000E-01  8.50000000E-01  8.50000000E-01  8.50000000E-01
  8.50000000E-01  8.50000000E-01  8.50000000E-01  8.50000000E-01  8.50000000E-01
  8.50000000E-01  8.50000000E-01  8.50000000E-01  8.50000000E-01  8.50000000E-01
  8.50000000E-01  8.50000000E-01  8.50000000E-01  8.50000000E-01  8.50000000E-01
  8.50000000E-01  8.50000000E-01  8.50000000E-01  8.50000000E-01  8.50000000E-01
  8.50000000E-01  8.50000000E-01  8.50000000E-01  8.50000000E-01  8.50000000E-01
  8.50000000E-01  8.50000000E-01  8.50000000E-01  8.50000000E-01  8.50000000E-01
  8.50000000E-01  8.50000000E-01  8.50000000E-01  8.50000000E-01  8.50000000E-01
  8.50000000E-01  8.50000000E-01  8.50000000E-01  8.50000000E-01  8.50000000E-01
  8.50000000E-01  8.50000000E-01  8.50000000E-01  8.50000000E-01  8.50000000E-01
  8.50000000E-01  8.50000000E-01  8.50000000E-01  8.50000000E-01  8.50000000E-01
  8.50000000E-01  8.50000000E-01  8.50000000E-01  8.50000000E-01  8.50000000E-01
  8.50000000E-01  8.50000000E-01  8.50000000E-01  8.50000000E-01  8.50000000E-01
  8.50000000E-01  8.50000000E-01  8.50000000E-01  8.50000000E-01  8.50000000E-01
  8.50000000E-01  8.50000000E-01  8.50000000E-01  8.50000000E-01  8.50000000E-01
  8.50000000E-01  8.50000000E-01  8.50000000E-01  8.50000000E-01  8.50000000E-01
  8.50000000E-01  8.50000000E-01  8.50000000E-01  8.50000000E-01  8.50000000E-01
  8.50000000E-01  8.50000000E-01  8.50000000E-01  8.50000000E-01  8.50000000E-01
  8.50000000E-01  8.50000000E-01  8.50000000E-01  8.50000000E-01  8.50000000E-01
  8.50000000E-01  8.50000000E-01  8.50000000E-01  8.50000000E-01  8.50000000E-01
  8.50000000E-01  8.50000000E-01  8.50000000E-01  8.50000000E-01  8.50000000E-01
  8.50000000E-01  8.50000000E-01  8.50000000E-01  8.50000000E-01  8.50000000E-01
  8.50000000E-01  8.50000000E-01  8.50000000E-01  8.50000000E-01  8.50000000E-01
  8.50000000E-01  8.50000000E-01  8.50000000E-01  8.50000000E-01  8.50000000E-01
  8.50000000E-01  8.50000000E-01  8.50000000E-01  8.50000000E-01  8.50000000E-01
  8.50000000E-01  8.50000000E-01  8.50000000E-01  8.50000000E-01  8.50000000E-01
  8.50000000E-01  8.50000000E-01  8.50000000E-01  8.50000000E-01  8.50000000E-01
  8.50000000E-01  8.50000000E-01  8.50000000E-01  8.50000000E-01  8.50000000E-01
  8.50000000E-01  8.50000000E-01  8.50000000E-01  8.50000000E-01  8.50000000E-01
  8.50000000E-01  8.50000000E-01  8.50000000E-01  8.50000000E-01  8.50000000E-01
  8.50000000E-01  8.50000000E-01  8.50000000E-01  8.50000000E-01  8.50000000E-01
  8.50000000E-01  8.50000000E-01  8.50000000E-01  8.50000000E-01  8.50000000E-01
  8.50000000E-01  8.50000000E-01  8.50000000E-01  8.50000000E-01  8.50000000E-01
  8.50000000E-01  8.50000000E-01  8.50000000E-01  8.50000000E-01  8.50000000E-01
  8.50000000E-01  8.50000000E-01  8.50000000E-01  8.50000000E-01  8.50000000E-01
  8.50000000E-01  8.50000000E-01  8.50000000E-01  8.50000000E-01  8.50000000E-01
  8.50000000E-01  8.50000000E-01  8.50000000E-01  8.50000000E-01  8.50000000E-01
  8.50000000E-01  8.50000000E-01  8.50000000E-01  8.50000000E-01  8.50000000E-01
  8.50000000E-01  8.50000000E-01  8.50000000E-01  8.50000000E-01  8.50000000E-01
  8.50000000E-01  8.50000000E-01  8.50000000E-01  8.50000000E-01  8.50000000E-01
  8.50000000E-01  8.50000000E-01  8.50000000E-01  8.50000000E-01  8.50000000E-01
  8.50000000E-01  8.50000000E-01  8.50000000E-01  8.50000000E-01  8.50000000E-01
  8.50000000E-01  8.50000000E-01  8.50000000E-01  8.50000000E-01  8.50000000E-01
  8.50000000E-01  8.50000000E-01  8.50000000E-01  8.50000000E-01  8.50000000E-01
  8.50000000E-01  8.50000000E-01  8.50000000E-01  8.50000000E-01  8.50000000E-01
  8.50000000E-01  8.50000000E-01  8.50000000E-01  8.50000000E-01  8.50000000E-01
  8.50000000E-01  8.50000000E-01  8.50000000E-01  8.50000000E-01  8.50000000E-01
  8.50000000E-01  8.50000000E-01  8.50000000E-01  8.50000000E-01  8.50000000E-01
  8.50000000E-01  8.50000000E-01  8.50000000E-01  8.50000000E-01  8.50000000E-01
  8.50000000E-01  8.50000000E-01  8.50000000E-01  8.50000000E-01  8.50000000E-01
  8.50000000E-01  8.50000000E-01  8.50000000E-01  8.50000000E-01  8.50000000E-01
  8.50000000E-01  8.50000000E-01  8.50000000E-01  8.50000000E-01  8.50000000E-01
  8.50000000E-01  8.50000000E-01  8.50000000E-01  8.50000000E-01  8.50000000E-01
  8.50000000E-01  8.50000000E-01  8.50000000E-01  8.50000000E-01  8.50000000E-01
  8.50000000E-01  8.50000000E-01  8.50000000E-01  8.50000000E-01  8.50000000E-01
  8.50000000E-01  8.50000000E-01  8.50000000E-01  8.50000000E-01  8.50000000E-01
  8.50000000E-01  8.50000000E-01  8.50000000E-01  8.50000000E-01  8.50000000E-01
  8.50000000E-01  8.50000000E-01  8.50000000E-01  8.50000000E-01  8.50000000E-01
  8.50000000E-01  8.50000000E-01  8.50000000E-01  8.50000000E-01  8.50000000E-01
  8.50000000E-01  8.50000000E-01  8.50000000E-01  8.50000000E-01  8.50000000E-01
  8.50000000E-01  8.50000000E-01  8.50000000E-01  8.50000000E-01  8.50000000E-01
  8.50000000E-01  8.50000000E-01  8.50000000E-01  8.50000000E-01  8.50000000E-01
  8.50000000E-01  8.50000000E-01  8.50000000E-01  8.50000000E-01  8.50000000E-01
  8.50000000E-01  8.50000000E-01  8.50000000E-01  8.50000000E-01  8.50000000E-01
  8.50000000E-01  8.50000000E-01  8.50000000E-01  8.50000000E-01  8.50000000E-01
  8.50000000E-01  8.50000000E-01  8.50000000E-01  8.50000000E-01  8.50000000E-01
  8.50000000E-01  8.50000000E-01  8.50000000E-01  8.50000000E-01  8.50000000E-01
  8.50000000E-01  8.50000000E-01  8.50000000E-01  8.50000000E-01  8.50000000E-01
  8.50000000E-01  8.50000000E-01  8.50000000E-01  8.50000000E-01  8.50000000E-01
  8.50000000E-01  8.50000000E-01  8.50000000E-01  8.50000000E-01  8.50000000E-01
  8.50000000E-01  8.50000000E-01  8.50000000E-01  8.50000000E-01  8.50000000E-01
  8.50000000E-01  8.50000000E-01  8.50000000E-01  8.50000000E-01  8.50000000E-01
  8.50000000E-01  8.50000000E-01  8.50000000E-01  8.50000000E-01  8.50000000E-01
  8.50000000E-01  8.50000000E-01  8.50000000E-01  8.50000000E-01  8.50000000E-01
  8.50000000E-01  8.50000000E-01  8.50000000E-01  8.50000000E-01  8.50000000E-01
  8.50000000E-01  8.50000000E-01  8.50000000E-01  8.50000000E-01  8.50000000E-01
  8.50000000E-01  8.50000000E-01  8.50000000E-01  8.50000000E-01  8.50000000E-01
  8.50000000E-01  8.50000000E-01  8.50000000E-01  8.50000000E-01  8.50000000E-01
  8.50000000E-01  8.50000000E-01  8.50000000E-01  8.50000000E-01  8.50000000E-01
  8.50000000E-01  8.50000000E-01  8.50000000E-01  8.50000000E-01  8.50000000E-01
  8.50000000E-01  8.50000000E-01  8.50000000E-01  8.50000000E-01  8.50000000E-01
  8.50000000E-01  8.50000000E-01  8.50000000E-01  8.50000000E-01  8.50000000E-01
  8.50000000E-01  8.50000000E-01  8.50000000E-01  8.50000000E-01  8.50000000E-01
  8.50000000E-01  8.50000000E-01  8.50000000E-01  8.50000000E-01  8.50000000E-01
  8.50000000E-01  8.50000000E-01  8.50000000E-01  8.50000000E-01  8.50000000E-01
  8.50000000E-01  8.50000000E-01  8.50000000E-01  8.50000000E-01  8.50000000E-01
  8.50000000E-01  8.50000000E-01  8.50000000E-01  8.50000000E-01  8.50000000E-01
  8.50000000E-01  8.50000000E-01  8.50000000E-01  8.50000000E-01  8.50000000E-01
  8.50000000E-01  8.50000000E-01  8.50000000E-01  8.50000000E-01  8.50000000E-01
  8.50000000E-01  8.50000000E-01  8.50000000E-01  8.50000000E-01  8.50000000E-01
  8.50000000E-01  8.50000000E-01  8.50000000E-01  8.50000000E-01  8.50000000E-01
  8.50000000E-01  8.50000000E-01  8.50000000E-01  8.50000000E-01  8.50000000E-01
  8.50000000E-01  8.50000000E-01  8.50000000E-01  8.50000000E-01  8.50000000E-01
  8.50000000E-01  8.50000000E-01  8.50000000E-01  8.50000000E-01  8.50000000E-01
  8.50000000E-01  8.50000000E-01  8.50000000E-01  8.50000000E-01  8.50000000E-01
  8.50000000E-01  8.50000000E-01  8.50000000E-01  8.50000000E-01  8.50000000E-01
  8.50000000E-01  8.50000000E-01  8.50000000E-01  8.50000000E-01  8.50000000E-01
  8.50000000E-01  8.50000000E-01  8.50000000E-01  8.50000000E-01  8.50000000E-01
  8.50000000E-01  8.50000000E-01  8.50000000E-01  8.50000000E-01  8.50000000E-01
  8.50000000E-01  8.50000000E-01  8.50000000E-01  8.50000000E-01  8.50000000E-01
  8.50000000E-01  8.50000000E-01  8.50000000E-01  8.50000000E-01  8.50000000E-01
  8.50000000E-01  8.50000000E-01  8.50000000E-01  8.50000000E-01  8.50000000E-01
  8.50000000E-01  8.50000000E-01  8.50000000E-01  8.50000000E-01  8.50000000E-01
  8.50000000E-01  8.50000000E-01  8.50000000E-01  8.50000000E-01  8.50000000E-01
  8.50000000E-01  8.50000000E-01  8.50000000E-01  8.50000000E-01  8.50000000E-01
  8.50000000E-01  8.50000000E-01  8.50000000E-01  8.50000000E-01  8.50000000E-01
  8.50000000E-01  8.50000000E-01  8.50000000E-01  8.50000000E-01  8.50000000E-01
  8.50000000E-01  8.50000000E-01  8.50000000E-01  8.50000000E-01  8.50000000E-01
  8.50000000E-01  8.50000000E-01  8.50000000E-01  8.50000000E-01  8.50000000E-01
  8.50000000E-01  8.50000000E-01  8.50000000E-01  8.50000000E-01  8.50000000E-01
  8.50000000E-01  8.50000000E-01  8.50000000E-01  8.50000000E-01  8.50000000E-01
  8.50000000E-01  8.50000000E-01  8.50000000E-01  8.50000000E-01  8.50000000E-01
  8.50000000E-01  8.50000000E-01  8.50000000E-01  8.50000000E-01  8.50000000E-01
  8.50000000E-01  8.50000000E-01  8.50000000E-01  8.50000000E-01  8.50000000E-01
  8.50000000E-01  8.50000000E-01  8.50000000E-01  8.50000000E-01  8.50000000E-01
  8.50000000E-01  8.50000000E-01  8.50000000E-01  8.50000000E-01  8.50000000E-01
  8.50000000E-01  8.50000000E-01  8.50000000E-01  8.50000000E-01  8.50000000E-01
  8.50000000E-01  8.50000000E-01  8.50000000E-01  8.50000000E-01  8.50000000E-01
  8.50000000E-01  8.50000000E-01  8.50000000E-01  8.50000000E-01  8.50000000E-01
  8.50000000E-01  8.50000000E-01  8.50000000E-01  8.50000000E-01  8.50000000E-01
  8.50000000E-01  8.50000000E-01  8.50000000E-01  8.50000000E-01  8.50000000E-01
  8.50000000E-01  8.50000000E-01  8.50000000E-01  8.50000000E-01  8.50000000E-01
  8.50000000E-01  8.50000000E-01  8.50000000E-01  8.50000000E-01  8.50000000E-01
  8.50000000E-01  8.50000000E-01  8.50000000E-01  8.50000000E-01  8.50000000E-01
  8.50000000E-01  8.50000000E-01  8.50000000E-01  8.50000000E-01  8.50000000E-01
  8.50000000E-01  8.50000000E-01  8.50000000E-01  8.50000000E-01  8.50000000E-01
  8.50000000E-01  8.50000000E-01  8.50000000E-01  8.50000000E-01  8.50000000E-01
  8.50000000E-01  8.50000000E-01  8.50000000E-01  8.50000000E-01  8.50000000E-01
  8.50000000E-01  8.50000000E-01  8.50000000E-01  8.50000000E-01  8.50000000E-01
  8.50000000E-01  8.50000000E-01  8.50000000E-01  8.50000000E-01  8.50000000E-01
  8.50000000E-01  8.50000000E-01  8.50000000E-01  8.50000000E-01  8.50000000E-01
  8.50000000E-01  8.50000000E-01  8.50000000E-01  8.50000000E-01  8.50000000E-01
  8.50000000E-01  8.50000000E-01  8.50000000E-01  8.50000000E-01  8.50000000E-01
  8.50000000E-01  8.50000000E-01  8.50000000E-01  8.50000000E-01  8.50000000E-01
  8.50000000E-01  8.50000000E-01  8.50000000E-01  8.50000000E-01  8.50000000E-01
  8.50000000E-01  8.50000000E-01  8.50000000E-01  8.50000000E-01  8.50000000E-01
  8.50000000E-01  8.50000000E-01  8.50000000E-01  8.50000000E-01  8.50000000E-01
  8.50000000E-01  8.50000000E-01  8.50000000E-01  8.50000000E-01  8.50000000E-01
  8.50000000E-01  8.50000000E-01  8.50000000E-01  8.50000000E-01  8.50000000E-01
  8.50000000E-01  8.50000000E-01  8.50000000E-01  8.50000000E-01  8.50000000E-01
  8.50000000E-01  8.50000000E-01  8.50000000E-01  8.50000000E-01  8.50000000E-01
  8.50000000E-01  8.50000000E-01  8.50000000E-01  8.50000000E-01  8.50000000E-01
  8.50000000E-01  8.50000000E-01  8.50000000E-01  8.50000000E-01  8.50000000E-01
  8.50000000E-01  8.50000000E-01  8.50000000E-01  8.50000000E-01  8.50000000E-01
  8.50000000E-01  8.50000000E-01  8.50000000E-01  8.50000000E-01  8.50000000E-01
  8.50000000E-01  8.50000000E-01  8.50000000E-01  8.50000000E-01  8.50000000E-01
  8.50000000E-01  8.50000000E-01  8.50000000E-01  8.50000000E-01  8.50000000E-01
  8.50000000E-01  8.50000000E-01  8.50000000E-01  8.50000000E-01  8.50000000E-01
  8.50000000E-01  8.50000000E-01  8.50000000E-01  8.50000000E-01  8.50000000E-01
  8.50000000E-01  8.50000000E-01  8.50000000E-01  8.50000000E-01  8.50000000E-01
  8.50000000E-01  8.50000000E-01  8.50000000E-01  8.50000000E-01  8.50000000E-01
  8.50000000E-01  8.50000000E-01  8.50000000E-01  8.50000000E-01  8.50000000E-01
  8.50000000E-01  8.50000000E-01  8.50000000E-01  8.50000000E-01  8.50000000E-01
  8.50000000E-01  8.50000000E-01  8.50000000E-01  8.50000000E-01  8.50000000E-01
  8.50000000E-01  8.50000000E-01  8.50000000E-01  8.50000000E-01  8.50000000E-01
  8.50000000E-01  8.50000000E-01  8.50000000E-01  8.50000000E-01  8.50000000E-01
  8.50000000E-01  8.50000000E-01  8.50000000E-01  8.50000000E-01  8.50000000E-01
  8.50000000E-01  8.50000000E-01  8.50000000E-01  8.50000000E-01  8.50000000E-01
  8.50000000E-01  8.50000000E-01  8.50000000E-01  8.50000000E-01  8.50000000E-01
  8.50000000E-01  8.50000000E-01  8.50000000E-01  8.50000000E-01  8.50000000E-01
  8.50000000E-01  8.50000000E-01  8.50000000E-01  8.50000000E-01  8.50000000E-01
  8.50000000E-01  8.50000000E-01  8.50000000E-01  8.50000000E-01  8.50000000E-01
  8.50000000E-01  8.50000000E-01  8.50000000E-01  8.50000000E-01  8.50000000E-01
  8.50000000E-01  8.50000000E-01  8.50000000E-01  8.50000000E-01  8.50000000E-01
  8.50000000E-01  8.50000000E-01  8.50000000E-01  8.50000000E-01  8.50000000E-01
  8.50000000E-01  8.50000000E-01  8.50000000E-01  8.50000000E-01  8.50000000E-01
  8.50000000E-01  8.50000000E-01  8.50000000E-01  8.50000000E-01  8.50000000E-01
  8.50000000E-01  8.50000000E-01  8.50000000E-01  8.50000000E-01  8.50000000E-01
  8.50000000E-01  8.50000000E-01  8.50000000E-01  8.50000000E-01  8.50000000E-01
  8.50000000E-01  8.50000000E-01  8.50000000E-01  8.50000000E-01  8.50000000E-01
  8.50000000E-01  8.50000000E-01  8.50000000E-01  8.50000000E-01  8.50000000E-01
  8.50000000E-01  8.50000000E-01  8.50000000E-01  8.50000000E-01  8.50000000E-01
  8.50000000E-01  8.50000000E-01  8.50000000E-01  8.50000000E-01  8.50000000E-01
  8.50000000E-01  8.50000000E-01  8.50000000E-01  8.50000000E-01  8.50000000E-01
  8.50000000E-01  8.50000000E-01  8.50000000E-01  8.50000000E-01  8.50000000E-01
  8.50000000E-01  8.50000000E-01  8.50000000E-01  8.50000000E-01  8.50000000E-01
  8.50000000E-01  8.50000000E-01  8.50000000E-01  8.50000000E-01  8.50000000E-01
  8.50000000E-01  8.50000000E-01  8.50000000E-01  8.50000000E-01  8.50000000E-01
  8.50000000E-01  8.50000000E-01  8.50000000E-01  8.50000000E-01  8.50000000E-01
  8.50000000E-01  8.50000000E-01  8.50000000E-01  8.50000000E-01  8.50000000E-01
  8.50000000E-01  8.50000000E-01  8.50000000E-01  8.50000000E-01  8.50000000E-01
  8.50000000E-01  8.50000000E-01  8.50000000E-01  8.50000000E-01  8.50000000E-01
  8.50000000E-01  8.50000000E-01  8.50000000E-01  8.50000000E-01  8.50000000E-01
  8.50000000E-01  8.50000000E-01  8.50000000E-01  8.50000000E-01  8.50000000E-01
  8.50000000E-01  8.50000000E-01  8.50000000E-01  8.50000000E-01  8.50000000E-01
  8.50000000E-01  8.50000000E-01  8.50000000E-01  8.50000000E-01  8.50000000E-01
  8.50000000E-01  8.50000000E-01  8.50000000E-01  8.50000000E-01  8.50000000E-01
  8.50000000E-01  8.50000000E-01  8.50000000E-01  8.50000000E-01  8.50000000E-01
  8.50000000E-01  8.50000000E-01  8.50000000E-01  8.50000000E-01  8.50000000E-01
  8.50000000E-01  8.50000000E-01  8.50000000E-01  8.50000000E-01  8.50000000E-01
  8.50000000E-01  8.50000000E-01  8.50000000E-01  8.50000000E-01  8.50000000E-01
  8.50000000E-01  8.50000000E-01  8.50000000E-01  8.50000000E-01  8.50000000E-01
  8.50000000E-01  8.50000000E-01  8.50000000E-01  8.50000000E-01  8.50000000E-01
  8.50000000E-01  8.50000000E-01  8.50000000E-01  8.50000000E-01  8.50000000E-01
  8.50000000E-01  8.50000000E-01  8.50000000E-01  8.50000000E-01  8.50000000E-01
  8.50000000E-01  8.50000000E-01  8.50000000E-01  8.50000000E-01  8.50000000E-01
  8.50000000E-01  8.50000000E-01  8.50000000E-01  8.50000000E-01  8.50000000E-01
  8.50000000E-01  8.50000000E-01  8.50000000E-01  8.50000000E-01  8.50000000E-01
  8.50000000E-01  8.50000000E-01  8.50000000E-01  8.50000000E-01  8.50000000E-01
  8.50000000E-01  8.50000000E-01  8.50000000E-01  8.50000000E-01  8.50000000E-01
  8.50000000E-01  8.50000000E-01  8.50000000E-01  8.50000000E-01  8.50000000E-01
  8.50000000E-01  8.50000000E-01  8.50000000E-01  8.50000000E-01  8.50000000E-01
  8.50000000E-01  8.50000000E-01  8.50000000E-01  8.50000000E-01  8.50000000E-01
  8.50000000E-01  8.50000000E-01  8.50000000E-01  8.50000000E-01  8.50000000E-01
  8.50000000E-01  8.50000000E-01  8.50000000E-01  8.50000000E-01  8.50000000E-01
  8.50000000E-01  8.50000000E-01  8.50000000E-01  8.50000000E-01  8.50000000E-01
  8.50000000E-01  8.50000000E-01  8.50000000E-01  8.50000000E-01  8.50000000E-01
  8.50000000E-01  8.50000000E-01  8.50000000E-01  8.50000000E-01  8.50000000E-01
  8.50000000E-01  8.50000000E-01  8.50000000E-01  8.50000000E-01  8.50000000E-01
  8.50000000E-01  8.50000000E-01  8.50000000E-01  8.50000000E-01  8.50000000E-01
  8.50000000E-01  8.50000000E-01  8.50000000E-01  8.50000000E-01  8.50000000E-01
  8.50000000E-01  8.50000000E-01  8.50000000E-01  8.50000000E-01  8.50000000E-01
  8.50000000E-01  8.50000000E-01  8.50000000E-01  8.50000000E-01  8.50000000E-01
  8.50000000E-01  8.50000000E-01  8.50000000E-01  8.50000000E-01  8.50000000E-01
  8.50000000E-01  8.50000000E-01  8.50000000E-01  8.50000000E-01  8.50000000E-01
  8.50000000E-01  8.50000000E-01  8.50000000E-01  8.50000000E-01  8.50000000E-01
  8.50000000E-01  8.50000000E-01  8.50000000E-01  8.50000000E-01  8.50000000E-01
  8.50000000E-01  8.50000000E-01  8.50000000E-01  8.50000000E-01  8.50000000E-01
  8.50000000E-01  8.50000000E-01  8.50000000E-01  8.50000000E-01  8.50000000E-01
  8.50000000E-01  8.50000000E-01  8.50000000E-01  8.50000000E-01  8.50000000E-01
  8.50000000E-01  8.50000000E-01  8.50000000E-01  8.50000000E-01  8.50000000E-01
  8.50000000E-01  8.50000000E-01  8.50000000E-01  8.50000000E-01  8.50000000E-01
  8.50000000E-01  8.50000000E-01  8.50000000E-01  8.50000000E-01  8.50000000E-01
  8.50000000E-01  8.50000000E-01  8.50000000E-01  8.50000000E-01  8.50000000E-01
  8.50000000E-01  8.50000000E-01  8.50000000E-01  8.50000000E-01  8.50000000E-01
  8.50000000E-01  8.50000000E-01  8.50000000E-01  8.50000000E-01  8.50000000E-01
  8.50000000E-01  8.50000000E-01  8.50000000E-01  8.50000000E-01  8.50000000E-01
  8.50000000E-01  8.50000000E-01  8.50000000E-01  8.50000000E-01  8.50000000E-01
  8.50000000E-01  8.50000000E-01  8.50000000E-01  8.50000000E-01  8.50000000E-01
  8.50000000E-01  8.50000000E-01  8.50000000E-01  8.50000000E-01  8.50000000E-01
  8.50000000E-01  8.50000000E-01  8.50000000E-01  8.50000000E-01  8.50000000E-01
  8.50000000E-01  8.50000000E-01  8.50000000E-01  8.50000000E-01  8.50000000E-01
  8.50000000E-01  8.50000000E-01  8.50000000E-01  8.50000000E-01  8.50000000E-01
  8.50000000E-01  8.50000000E-01  8.50000000E-01  8.50000000E-01  8.50000000E-01
  8.50000000E-01  8.50000000E-01  8.50000000E-01  8.50000000E-01  8.50000000E-01
  8.50000000E-01  8.50000000E-01  8.50000000E-01  8.50000000E-01  8.50000000E-01
  8.50000000E-01  8.50000000E-01  8.50000000E-01  8.50000000E-01  8.50000000E-01
  8.50000000E-01  8.50000000E-01  8.50000000E-01  8.50000000E-01  8.50000000E-01
  8.50000000E-01  8.50000000E-01  8.50000000E-01  8.50000000E-01  8.50000000E-01
  8.50000000E-01  8.50000000E-01  8.50000000E-01  8.50000000E-01  8.50000000E-01
  8.50000000E-01  8.50000000E-01  8.50000000E-01  8.50000000E-01  8.50000000E-01
  8.50000000E-01  8.50000000E-01  8.50000000E-01  8.50000000E-01  8.50000000E-01
  8.50000000E-01  8.50000000E-01  8.50000000E-01  8.50000000E-01  8.50000000E-01
  8.50000000E-01  8.50000000E-01  8.50000000E-01  8.50000000E-01  8.50000000E-01
  8.50000000E-01  8.50000000E-01  8.50000000E-01  8.50000000E-01  8.50000000E-01
  8.50000000E-01  8.50000000E-01  8.50000000E-01  8.50000000E-01  8.50000000E-01
  8.50000000E-01  8.50000000E-01  8.50000000E-01  8.50000000E-01  8.50000000E-01
  8.50000000E-01  8.50000000E-01  8.50000000E-01  8.50000000E-01  8.50000000E-01
  8.50000000E-01  8.50000000E-01  8.50000000E-01  8.50000000E-01  8.50000000E-01
  8.50000000E-01  8.50000000E-01  8.50000000E-01  8.50000000E-01  8.50000000E-01
  8.50000000E-01  8.50000000E-01  8.50000000E-01  8.50000000E-01  8.50000000E-01
  8.50000000E-01  8.50000000E-01  8.50000000E-01  8.50000000E-01  8.50000000E-01
  8.50000000E-01  8.50000000E-01  8.50000000E-01  8.50000000E-01  8.50000000E-01
  8.50000000E-01  8.50000000E-01  8.50000000E-01  8.50000000E-01  8.50000000E-01
  8.50000000E-01  8.50000000E-01  8.50000000E-01  8.50000000E-01  8.50000000E-01
  8.50000000E-01  8.50000000E-01  8.50000000E-01  8.50000000E-01  8.50000000E-01
  8.50000000E-01  8.50000000E-01  8.50000000E-01  8.50000000E-01  8.50000000E-01
  8.50000000E-01  8.50000000E-01  8.50000000E-01  8.50000000E-01  8.50000000E-01
  8.50000000E-01  8.50000000E-01  8.50000000E-01  8.50000000E-01  8.50000000E-01
  8.50000000E-01  8.50000000E-01  8.50000000E-01  8.50000000E-01  8.50000000E-01
  8.50000000E-01  8.50000000E-01  8.50000000E-01  8.50000000E-01  8.50000000E-01
  8.50000000E-01  8.50000000E-01  8.50000000E-01  8.50000000E-01  8.50000000E-01
  8.50000000E-01  8.50000000E-01  8.50000000E-01  8.50000000E-01  8.50000000E-01
  8.50000000E-01  8.50000000E-01  8.50000000E-01  8.50000000E-01  8.50000000E-01
  8.50000000E-01  8.50000000E-01  8.50000000E-01  8.50000000E-01  8.50000000E-01
  8.50000000E-01  8.50000000E-01  8.50000000E-01  8.50000000E-01  8.50000000E-01
  8.50000000E-01  8.50000000E-01  8.50000000E-01  8.50000000E-01  8.50000000E-01
  8.50000000E-01  8.50000000E-01  8.50000000E-01  8.50000000E-01  8.50000000E-01
  8.50000000E-01  8.50000000E-01  8.50000000E-01  8.50000000E-01  8.50000000E-01
  8.50000000E-01  8.50000000E-01  8.50000000E-01  8.50000000E-01  8.50000000E-01
  8.50000000E-01  8.50000000E-01  8.50000000E-01  8.50000000E-01  8.50000000E-01
  8.50000000E-01  8.50000000E-01  8.50000000E-01  8.50000000E-01  8.50000000E-01
  8.50000000E-01  8.50000000E-01  8.50000000E-01  8.50000000E-01  8.50000000E-01
  8.50000000E-01  8.50000000E-01  8.50000000E-01  8.50000000E-01  8.50000000E-01
  8.50000000E-01  8.50000000E-01  8.50000000E-01  8.50000000E-01  8.50000000E-01
  8.50000000E-01  8.50000000E-01  8.50000000E-01  8.50000000E-01  8.50000000E-01
  8.50000000E-01  8.50000000E-01  8.50000000E-01  8.50000000E-01  8.50000000E-01
  8.50000000E-01  8.50000000E-01  8.50000000E-01  8.50000000E-01  8.50000000E-01
  8.50000000E-01  8.50000000E-01  8.50000000E-01  8.50000000E-01  8.50000000E-01
  8.50000000E-01  8.50000000E-01  8.50000000E-01  8.50000000E-01  8.50000000E-01
  8.50000000E-01  8.50000000E-01  8.50000000E-01  8.50000000E-01  8.50000000E-01
  8.50000000E-01  8.50000000E-01  8.50000000E-01  8.50000000E-01  8.50000000E-01
  8.50000000E-01  8.50000000E-01  8.50000000E-01  8.50000000E-01  8.50000000E-01
  8.50000000E-01  8.50000000E-01  8.50000000E-01  8.50000000E-01  8.50000000E-01
  8.50000000E-01  8.50000000E-01  8.50000000E-01  8.50000000E-01  8.50000000E-01
  8.50000000E-01  8.50000000E-01  8.50000000E-01  8.50000000E-01  8.50000000E-01
  8.50000000E-01  8.50000000E-01  8.50000000E-01  8.50000000E-01  8.50000000E-01
  8.50000000E-01  8.50000000E-01  8.50000000E-01  8.50000000E-01  8.50000000E-01
  8.50000000E-01  8.50000000E-01  8.50000000E-01  8.50000000E-01  8.50000000E-01
  8.50000000E-01  8.50000000E-01  8.50000000E-01  8.50000000E-01  8.50000000E-01
  8.50000000E-01  8.50000000E-01  8.50000000E-01  8.50000000E-01  8.50000000E-01
  8.50000000E-01  8.50000000E-01  8.50000000E-01  8.50000000E-01  8.50000000E-01
  8.50000000E-01  8.50000000E-01  8.50000000E-01  8.50000000E-01  8.50000000E-01
  8.50000000E-01  8.50000000E-01  8.50000000E-01  8.50000000E-01  8.50000000E-01
  8.50000000E-01  8.50000000E-01  8.50000000E-01  8.50000000E-01  8.50000000E-01
  8.50000000E-01  8.50000000E-01  8.50000000E-01  8.50000000E-01  8.50000000E-01
  8.50000000E-01  8.50000000E-01  8.50000000E-01  8.50000000E-01  8.50000000E-01
  8.50000000E-01  8.50000000E-01  8.50000000E-01  8.50000000E-01  8.50000000E-01
  8.50000000E-01  8.50000000E-01  8.50000000E-01  8.50000000E-01  8.50000000E-01
  8.50000000E-01  8.50000000E-01  8.50000000E-01  8.50000000E-01  8.50000000E-01
  8.50000000E-01  8.50000000E-01  8.50000000E-01  8.50000000E-01  8.50000000E-01
  8.50000000E-01  8.50000000E-01  8.50000000E-01  8.50000000E-01  8.50000000E-01
  8.50000000E-01  8.50000000E-01  8.50000000E-01  8.50000000E-01  8.50000000E-01
  8.50000000E-01  8.50000000E-01  8.50000000E-01  8.50000000E-01  8.50000000E-01
  8.50000000E-01  8.50000000E-01  8.50000000E-01  8.50000000E-01  8.50000000E-01
  8.50000000E-01  8.50000000E-01  8.50000000E-01  8.50000000E-01  8.50000000E-01
  8.50000000E-01  8.50000000E-01  8.50000000E-01  8.50000000E-01  8.50000000E-01
  8.50000000E-01  8.50000000E-01  8.50000000E-01  8.50000000E-01  8.50000000E-01
  8.50000000E-01  8.50000000E-01  8.50000000E-01  8.50000000E-01  8.50000000E-01
  8.50000000E-01  8.50000000E-01  8.50000000E-01  8.50000000E-01  8.50000000E-01
  8.50000000E-01  8.50000000E-01  8.50000000E-01  8.50000000E-01  8.50000000E-01
  8.50000000E-01  8.50000000E-01  8.50000000E-01  8.50000000E-01  8.50000000E-01
  8.50000000E-01  8.50000000E-01  8.50000000E-01  8.50000000E-01  8.50000000E-01
  8.50000000E-01  8.50000000E-01  8.50000000E-01  8.50000000E-01  8.50000000E-01
  8.50000000E-01  8.50000000E-01  8.50000000E-01  8.50000000E-01  8.50000000E-01
  8.50000000E-01  8.50000000E-01  8.50000000E-01  8.50000000E-01  8.50000000E-01
  8.50000000E-01  8.50000000E-01  8.50000000E-01  8.50000000E-01  8.50000000E-01
  8.50000000E-01  8.50000000E-01  8.50000000E-01  8.50000000E-01  8.50000000E-01
  8.50000000E-01  8.50000000E-01  8.50000000E-01  8.50000000E-01  8.50000000E-01
  8.50000000E-01  8.50000000E-01  8.50000000E-01  8.50000000E-01  8.50000000E-01
  8.50000000E-01  8.50000000E-01  8.50000000E-01  8.50000000E-01  8.50000000E-01
  8.50000000E-01  8.50000000E-01  8.50000000E-01  8.50000000E-01  8.50000000E-01
  8.50000000E-01  8.50000000E-01  8.50000000E-01  8.50000000E-01  8.50000000E-01
  8.50000000E-01  8.50000000E-01  8.50000000E-01  8.50000000E-01  8.50000000E-01
  8.50000000E-01  8.50000000E-01  8.50000000E-01  8.50000000E-01  8.50000000E-01
  8.50000000E-01  8.50000000E-01  8.50000000E-01  8.50000000E-01  8.50000000E-01
  8.50000000E-01  8.50000000E-01  8.50000000E-01  8.50000000E-01  8.50000000E-01
  8.50000000E-01  8.50000000E-01  8.50000000E-01  8.50000000E-01  8.50000000E-01
  8.50000000E-01  8.50000000E-01  8.50000000E-01  8.50000000E-01  8.50000000E-01
  8.50000000E-01  8.50000000E-01  8.50000000E-01  8.50000000E-01  8.50000000E-01
  8.50000000E-01  8.50000000E-01  8.50000000E-01  8.50000000E-01  8.50000000E-01
  8.50000000E-01  8.50000000E-01  8.50000000E-01  8.50000000E-01  8.50000000E-01
  8.50000000E-01  8.50000000E-01  8.50000000E-01  8.50000000E-01  8.50000000E-01
  8.50000000E-01  8.50000000E-01  8.50000000E-01  8.50000000E-01  8.50000000E-01
  8.50000000E-01  8.50000000E-01  8.50000000E-01  8.50000000E-01  8.50000000E-01
  8.50000000E-01  8.50000000E-01  8.50000000E-01  8.50000000E-01  8.50000000E-01
  8.50000000E-01  8.50000000E-01  8.50000000E-01  8.50000000E-01  8.50000000E-01
  8.50000000E-01  8.50000000E-01  8.50000000E-01  8.50000000E-01  8.50000000E-01
  8.50000000E-01  8.50000000E-01  8.50000000E-01  8.50000000E-01  8.50000000E-01
  8.50000000E-01  8.50000000E-01  8.50000000E-01  8.50000000E-01  8.50000000E-01
  8.50000000E-01  8.50000000E-01  8.50000000E-01  8.50000000E-01  8.50000000E-01
  8.50000000E-01  8.50000000E-01  8.50000000E-01  8.50000000E-01  8.50000000E-01
  8.50000000E-01  8.50000000E-01  8.50000000E-01  8.50000000E-01  8.50000000E-01
  8.50000000E-01  8.50000000E-01  8.50000000E-01  8.50000000E-01  8.50000000E-01
  8.50000000E-01  8.50000000E-01  8.50000000E-01  8.50000000E-01  8.50000000E-01
  8.50000000E-01  8.50000000E-01  8.50000000E-01  8.50000000E-01  8.50000000E-01
  8.50000000E-01  8.50000000E-01  8.50000000E-01  8.50000000E-01  8.50000000E-01
  8.50000000E-01  8.50000000E-01  8.50000000E-01  8.50000000E-01  8.50000000E-01
  8.50000000E-01  8.50000000E-01  8.50000000E-01  8.50000000E-01  8.50000000E-01
  8.50000000E-01  8.50000000E-01  8.50000000E-01  8.50000000E-01  8.50000000E-01
  8.50000000E-01  8.50000000E-01  8.50000000E-01  8.50000000E-01  8.50000000E-01
  8.50000000E-01  8.50000000E-01  8.50000000E-01  8.50000000E-01  8.50000000E-01
  8.50000000E-01  8.50000000E-01  8.50000000E-01  8.50000000E-01  8.50000000E-01
  8.50000000E-01  8.50000000E-01  8.50000000E-01  8.50000000E-01  8.50000000E-01
  8.50000000E-01  8.50000000E-01  8.50000000E-01  8.50000000E-01  8.50000000E-01
  8.50000000E-01  8.50000000E-01  8.50000000E-01  8.50000000E-01  8.50000000E-01
  8.50000000E-01  8.50000000E-01  8.50000000E-01  8.50000000E-01  8.50000000E-01
  8.50000000E-01  8.50000000E-01  8.50000000E-01  8.50000000E-01  8.50000000E-01
  8.50000000E-01  8.50000000E-01  8.50000000E-01  8.50000000E-01  8.50000000E-01
  8.50000000E-01  8.50000000E-01  8.50000000E-01  8.50000000E-01  8.50000000E-01
  8.50000000E-01  8.50000000E-01  8.50000000E-01  8.50000000E-01  8.50000000E-01
  8.50000000E-01  8.50000000E-01  8.50000000E-01  8.50000000E-01  8.50000000E-01
  8.50000000E-01  8.50000000E-01  8.50000000E-01  8.50000000E-01  8.50000000E-01
  8.50000000E-01  8.50000000E-01  8.50000000E-01  8.50000000E-01  8.50000000E-01
  8.50000000E-01  8.50000000E-01  8.50000000E-01  8.50000000E-01  8.50000000E-01
  8.50000000E-01  8.50000000E-01  8.50000000E-01  8.50000000E-01  8.50000000E-01
  8.50000000E-01  8.50000000E-01  8.50000000E-01  8.50000000E-01  8.50000000E-01
  8.50000000E-01  8.50000000E-01  8.50000000E-01  8.50000000E-01  8.50000000E-01
  8.50000000E-01  8.50000000E-01  8.50000000E-01  8.50000000E-01  8.50000000E-01
  8.50000000E-01  8.50000000E-01  8.50000000E-01  8.50000000E-01  8.50000000E-01
  8.50000000E-01  8.50000000E-01  8.50000000E-01  8.50000000E-01  8.50000000E-01
  8.50000000E-01  8.50000000E-01  8.50000000E-01  8.50000000E-01  8.50000000E-01
  8.50000000E-01  8.50000000E-01  8.50000000E-01  8.50000000E-01  8.50000000E-01
  8.50000000E-01  8.50000000E-01  8.50000000E-01  8.50000000E-01  8.50000000E-01
  8.50000000E-01  8.50000000E-01  8.50000000E-01  8.50000000E-01  8.50000000E-01
  8.50000000E-01  8.50000000E-01  8.50000000E-01  8.50000000E-01  8.50000000E-01
  8.50000000E-01  8.50000000E-01  8.50000000E-01  8.50000000E-01  8.50000000E-01
  8.50000000E-01  8.50000000E-01  8.50000000E-01  8.50000000E-01  8.50000000E-01
  8.50000000E-01  8.50000000E-01  8.50000000E-01  8.50000000E-01  8.50000000E-01
  8.50000000E-01  8.50000000E-01  8.50000000E-01  8.50000000E-01  8.50000000E-01
  8.50000000E-01  8.50000000E-01  8.50000000E-01  8.50000000E-01  8.50000000E-01
  8.50000000E-01  8.50000000E-01  8.50000000E-01  8.50000000E-01  8.50000000E-01
  8.50000000E-01  8.50000000E-01  8.50000000E-01  8.50000000E-01  8.50000000E-01
  8.50000000E-01  8.50000000E-01  8.50000000E-01  8.50000000E-01  8.50000000E-01
  8.50000000E-01  8.50000000E-01  8.50000000E-01  8.50000000E-01  8.50000000E-01
  8.50000000E-01  8.50000000E-01  8.50000000E-01  8.50000000E-01  8.50000000E-01
  8.50000000E-01  8.50000000E-01  8.50000000E-01  8.50000000E-01  8.50000000E-01
  8.50000000E-01  8.50000000E-01  8.50000000E-01  8.50000000E-01  8.50000000E-01
  8.50000000E-01  8.50000000E-01  8.50000000E-01  8.50000000E-01  8.50000000E-01
  8.50000000E-01  8.50000000E-01  8.50000000E-01  8.50000000E-01  8.50000000E-01
  8.50000000E-01  8.50000000E-01  8.50000000E-01  8.50000000E-01  8.50000000E-01
  8.50000000E-01  8.50000000E-01  8.50000000E-01  8.50000000E-01  8.50000000E-01
  8.50000000E-01  8.50000000E-01  8.50000000E-01  8.50000000E-01  8.50000000E-01
  8.50000000E-01  8.50000000E-01  8.50000000E-01  8.50000000E-01  8.50000000E-01
  8.50000000E-01  8.50000000E-01  8.50000000E-01  8.50000000E-01  8.50000000E-01
  8.50000000E-01  8.50000000E-01  8.50000000E-01  8.50000000E-01  8.50000000E-01
  8.50000000E-01  8.50000000E-01  8.50000000E-01  8.50000000E-01  8.50000000E-01
  8.50000000E-01  8.50000000E-01  8.50000000E-01  8.50000000E-01  8.50000000E-01
  8.50000000E-01  8.50000000E-01  8.50000000E-01  8.50000000E-01  8.50000000E-01
  8.50000000E-01  8.50000000E-01  8.50000000E-01  8.50000000E-01  8.50000000E-01
  8.50000000E-01  8.50000000E-01  8.50000000E-01  8.50000000E-01  8.50000000E-01
  8.50000000E-01  8.50000000E-01  8.50000000E-01  8.50000000E-01  8.50000000E-01
  8.50000000E-01  8.50000000E-01  8.50000000E-01  8.50000000E-01  8.50000000E-01
  8.50000000E-01  8.50000000E-01  8.50000000E-01  8.50000000E-01  8.50000000E-01
  8.50000000E-01  8.50000000E-01  8.50000000E-01  8.50000000E-01  8.50000000E-01
  8.50000000E-01  8.50000000E-01  8.50000000E-01  8.50000000E-01  8.50000000E-01
  8.50000000E-01  8.50000000E-01  8.50000000E-01  8.50000000E-01  8.50000000E-01
  8.50000000E-01  8.50000000E-01  8.50000000E-01  8.50000000E-01  8.50000000E-01
  8.50000000E-01  8.50000000E-01  8.50000000E-01  8.50000000E-01  8.50000000E-01
  8.50000000E-01  8.50000000E-01  8.50000000E-01  8.50000000E-01  8.50000000E-01
  8.50000000E-01  8.50000000E-01  8.50000000E-01  8.50000000E-01  8.50000000E-01
  8.50000000E-01  8.50000000E-01  8.50000000E-01  8.50000000E-01  8.50000000E-01
  8.50000000E-01  8.50000000E-01  8.50000000E-01  8.50000000E-01  8.50000000E-01
  8.50000000E-01  8.50000000E-01  8.50000000E-01  8.50000000E-01  8.50000000E-01
  8.50000000E-01  8.50000000E-01  8.50000000E-01  8.50000000E-01  8.50000000E-01
  8.50000000E-01  8.50000000E-01  8.50000000E-01  8.50000000E-01  8.50000000E-01
  8.50000000E-01  8.50000000E-01  8.50000000E-01  8.50000000E-01  8.50000000E-01
  8.50000000E-01  8.50000000E-01  8.50000000E-01  8.50000000E-01  8.50000000E-01
  8.50000000E-01  8.50000000E-01  8.50000000E-01  8.50000000E-01  8.50000000E-01
  8.50000000E-01  8.50000000E-01  8.50000000E-01  8.50000000E-01  8.50000000E-01
  8.50000000E-01  8.50000000E-01  8.50000000E-01  8.50000000E-01  8.50000000E-01
  8.50000000E-01  8.50000000E-01  8.50000000E-01  8.50000000E-01  8.50000000E-01
  8.50000000E-01  8.50000000E-01  8.50000000E-01  8.50000000E-01  8.50000000E-01
  8.50000000E-01  8.50000000E-01  8.50000000E-01  8.50000000E-01  8.50000000E-01
  8.50000000E-01  8.50000000E-01  8.50000000E-01  8.50000000E-01  8.50000000E-01
  8.50000000E-01  8.50000000E-01  8.50000000E-01  8.50000000E-01  8.50000000E-01
  8.50000000E-01  8.50000000E-01  8.50000000E-01  8.50000000E-01  8.50000000E-01
  8.50000000E-01  8.50000000E-01  8.50000000E-01  8.50000000E-01  8.50000000E-01
  8.50000000E-01  8.50000000E-01  8.50000000E-01  8.50000000E-01  8.50000000E-01
  8.50000000E-01  8.50000000E-01  8.50000000E-01  8.50000000E-01  8.50000000E-01
  8.50000000E-01  8.50000000E-01  8.50000000E-01  8.50000000E-01  8.50000000E-01
  8.50000000E-01  8.50000000E-01  8.50000000E-01  8.50000000E-01  8.50000000E-01
  8.50000000E-01  8.50000000E-01  8.50000000E-01  8.50000000E-01  8.50000000E-01
  8.50000000E-01  8.50000000E-01  8.50000000E-01  8.50000000E-01  8.50000000E-01
  8.50000000E-01  8.50000000E-01  8.50000000E-01  8.50000000E-01  8.50000000E-01
  8.50000000E-01  8.50000000E-01  8.50000000E-01  8.50000000E-01  8.50000000E-01
  8.50000000E-01  8.50000000E-01  8.50000000E-01  8.50000000E-01  8.50000000E-01
  8.50000000E-01  8.50000000E-01  8.50000000E-01  8.50000000E-01  8.50000000E-01
  8.50000000E-01  8.50000000E-01  8.50000000E-01  8.50000000E-01  8.50000000E-01
  8.50000000E-01  8.50000000E-01  8.50000000E-01  8.50000000E-01  8.50000000E-01
  8.50000000E-01  8.50000000E-01  8.50000000E-01  8.50000000E-01  8.50000000E-01
  8.50000000E-01  8.50000000E-01  8.50000000E-01  8.50000000E-01  8.50000000E-01
  8.50000000E-01  8.50000000E-01  8.50000000E-01  8.50000000E-01  8.50000000E-01
  8.50000000E-01  8.50000000E-01  8.50000000E-01  8.50000000E-01  8.50000000E-01
  8.50000000E-01  8.50000000E-01  8.50000000E-01  8.50000000E-01  8.50000000E-01
  8.50000000E-01  8.50000000E-01  8.50000000E-01  8.50000000E-01  8.50000000E-01
  8.50000000E-01  8.50000000E-01  8.50000000E-01  8.50000000E-01  8.50000000E-01
  8.50000000E-01  8.50000000E-01  8.50000000E-01  8.50000000E-01  8.50000000E-01
  8.50000000E-01  8.50000000E-01  8.50000000E-01  8.50000000E-01  8.50000000E-01
  8.50000000E-01  8.50000000E-01  8.50000000E-01  8.50000000E-01  8.50000000E-01
  8.50000000E-01  8.50000000E-01  8.50000000E-01  8.50000000E-01  8.50000000E-01
  8.50000000E-01  8.50000000E-01  8.50000000E-01  8.50000000E-01  8.50000000E-01
  8.50000000E-01  8.50000000E-01  8.50000000E-01  8.50000000E-01  8.50000000E-01
  8.50000000E-01  8.50000000E-01  8.50000000E-01  8.50000000E-01  8.50000000E-01
  8.50000000E-01  8.50000000E-01  8.50000000E-01  8.50000000E-01  8.50000000E-01
  8.50000000E-01  8.50000000E-01  8.50000000E-01  8.50000000E-01  8.50000000E-01
  8.50000000E-01  8.50000000E-01  8.50000000E-01  8.50000000E-01  8.50000000E-01
  8.50000000E-01  8.50000000E-01  8.50000000E-01  8.50000000E-01  8.50000000E-01
  8.50000000E-01  8.50000000E-01  8.50000000E-01  8.50000000E-01  8.50000000E-01
  8.50000000E-01  8.50000000E-01  8.50000000E-01  8.50000000E-01  8.50000000E-01
  8.50000000E-01  8.50000000E-01  8.50000000E-01  8.50000000E-01  8.50000000E-01
  8.50000000E-01  8.50000000E-01  8.50000000E-01  8.50000000E-01  8.50000000E-01
  8.50000000E-01  8.50000000E-01  8.50000000E-01  8.50000000E-01  8.50000000E-01
  8.50000000E-01  8.50000000E-01  8.50000000E-01  8.50000000E-01  8.50000000E-01
  8.50000000E-01  8.50000000E-01  8.50000000E-01  8.50000000E-01  8.50000000E-01
  8.50000000E-01  8.50000000E-01  8.50000000E-01  8.50000000E-01  8.50000000E-01
  8.50000000E-01  8.50000000E-01  8.50000000E-01  8.50000000E-01  8.50000000E-01
  8.50000000E-01  8.50000000E-01  8.50000000E-01  8.50000000E-01  8.50000000E-01
  8.50000000E-01  8.50000000E-01  8.50000000E-01  8.50000000E-01  8.50000000E-01
  8.50000000E-01  8.50000000E-01  8.50000000E-01  8.50000000E-01  8.50000000E-01
  8.50000000E-01  8.50000000E-01  8.50000000E-01  8.50000000E-01  8.50000000E-01
  8.50000000E-01  8.50000000E-01  8.50000000E-01  8.50000000E-01  8.50000000E-01
  8.50000000E-01  8.50000000E-01  8.50000000E-01  8.50000000E-01  8.50000000E-01
  8.50000000E-01  8.50000000E-01  8.50000000E-01  8.50000000E-01  8.50000000E-01
  8.50000000E-01  8.50000000E-01  8.50000000E-01  8.50000000E-01  8.50000000E-01
  8.50000000E-01  8.50000000E-01  8.50000000E-01  8.50000000E-01  8.50000000E-01
  8.50000000E-01  8.50000000E-01  8.50000000E-01  8.50000000E-01  8.50000000E-01
  8.50000000E-01  8.50000000E-01  8.50000000E-01  8.50000000E-01  8.50000000E-01
  8.50000000E-01  8.50000000E-01  8.50000000E-01  8.50000000E-01  8.50000000E-01
  8.50000000E-01  8.50000000E-01  8.50000000E-01  8.50000000E-01  8.50000000E-01
  8.50000000E-01  8.50000000E-01  8.50000000E-01  8.50000000E-01  8.50000000E-01
  8.50000000E-01  8.50000000E-01  8.50000000E-01  8.50000000E-01  8.50000000E-01
  8.50000000E-01  8.50000000E-01  8.50000000E-01  8.50000000E-01  8.50000000E-01
  8.50000000E-01  8.50000000E-01  8.50000000E-01  8.50000000E-01  8.50000000E-01
  8.50000000E-01  8.50000000E-01  8.50000000E-01  8.50000000E-01  8.50000000E-01
  8.50000000E-01  8.50000000E-01  8.50000000E-01  8.50000000E-01  8.50000000E-01
  8.50000000E-01  8.50000000E-01  8.50000000E-01  8.50000000E-01  8.50000000E-01
  8.50000000E-01  8.50000000E-01  8.50000000E-01  8.50000000E-01  8.50000000E-01
  8.50000000E-01  8.50000000E-01  8.50000000E-01  8.50000000E-01  8.50000000E-01
  8.50000000E-01  8.50000000E-01  8.50000000E-01  8.50000000E-01  8.50000000E-01
  8.50000000E-01  8.50000000E-01  8.50000000E-01  8.50000000E-01  8.50000000E-01
  8.50000000E-01  8.50000000E-01  8.50000000E-01  8.50000000E-01  8.50000000E-01
  8.50000000E-01  8.50000000E-01  8.50000000E-01  8.50000000E-01  8.50000000E-01
  8.50000000E-01  8.50000000E-01  8.50000000E-01  8.50000000E-01  8.50000000E-01
  8.50000000E-01  8.50000000E-01  8.50000000E-01  8.50000000E-01  8.50000000E-01
  8.50000000E-01  8.50000000E-01  8.50000000E-01  8.50000000E-01  8.50000000E-01
  8.50000000E-01  8.50000000E-01  8.50000000E-01  8.50000000E-01  8.50000000E-01
  8.50000000E-01  8.50000000E-01  8.50000000E-01  8.50000000E-01  8.50000000E-01
  8.50000000E-01  8.50000000E-01  8.50000000E-01  8.50000000E-01  8.50000000E-01
  8.50000000E-01  8.50000000E-01  8.50000000E-01  8.50000000E-01  8.50000000E-01
  8.50000000E-01  8.50000000E-01  8.50000000E-01  8.50000000E-01  8.50000000E-01
  8.50000000E-01  8.50000000E-01  8.50000000E-01  8.50000000E-01  8.50000000E-01
  8.50000000E-01  8.50000000E-01  8.50000000E-01  8.50000000E-01  8.50000000E-01
  8.50000000E-01  8.50000000E-01  8.50000000E-01  8.50000000E-01  8.50000000E-01
  8.50000000E-01  8.50000000E-01  8.50000000E-01  8.50000000E-01  8.50000000E-01
  8.50000000E-01  8.50000000E-01  8.50000000E-01  8.50000000E-01  8.50000000E-01
  8.50000000E-01  8.50000000E-01  8.50000000E-01  8.50000000E-01  8.50000000E-01
  8.50000000E-01  8.50000000E-01  8.50000000E-01  8.50000000E-01  8.50000000E-01
  8.50000000E-01  8.50000000E-01  8.50000000E-01  8.50000000E-01  8.50000000E-01
  8.50000000E-01  8.50000000E-01  8.50000000E-01  8.50000000E-01  8.50000000E-01
  8.50000000E-01  8.50000000E-01  8.50000000E-01  8.50000000E-01  8.50000000E-01
  8.50000000E-01  8.50000000E-01  8.50000000E-01  8.50000000E-01  8.50000000E-01
  8.50000000E-01  8.50000000E-01  8.50000000E-01  8.50000000E-01  8.50000000E-01
  8.50000000E-01  8.50000000E-01  8.50000000E-01  8.50000000E-01  8.50000000E-01
  8.50000000E-01  8.50000000E-01  8.50000000E-01  8.50000000E-01  8.50000000E-01
  8.50000000E-01  8.50000000E-01  8.50000000E-01  8.50000000E-01  8.50000000E-01
  8.50000000E-01  8.50000000E-01  8.50000000E-01  8.50000000E-01  8.50000000E-01
  8.50000000E-01  8.50000000E-01  8.50000000E-01  8.50000000E-01  8.50000000E-01
  8.50000000E-01  8.50000000E-01  8.50000000E-01  8.50000000E-01  8.50000000E-01
  8.50000000E-01  8.50000000E-01  8.50000000E-01  8.50000000E-01  8.50000000E-01
  8.50000000E-01  8.50000000E-01  8.50000000E-01  8.50000000E-01  8.50000000E-01
  8.50000000E-01  8.50000000E-01  8.50000000E-01  8.50000000E-01  8.50000000E-01
  8.50000000E-01  8.50000000E-01  8.50000000E-01  8.50000000E-01  8.50000000E-01
  8.50000000E-01  8.50000000E-01  8.50000000E-01  8.50000000E-01  8.50000000E-01
  8.50000000E-01  8.50000000E-01  8.50000000E-01  8.50000000E-01  8.50000000E-01
  8.50000000E-01  8.50000000E-01  8.50000000E-01  8.50000000E-01  8.50000000E-01
  8.50000000E-01  8.50000000E-01  8.50000000E-01  8.50000000E-01  8.50000000E-01
  8.50000000E-01  8.50000000E-01  8.50000000E-01  8.50000000E-01  8.50000000E-01
  8.50000000E-01  8.50000000E-01  8.50000000E-01  8.50000000E-01  8.50000000E-01
  8.50000000E-01  8.50000000E-01  8.50000000E-01  8.50000000E-01  8.50000000E-01
  8.50000000E-01  8.50000000E-01  8.50000000E-01  8.50000000E-01  8.50000000E-01
  8.50000000E-01  8.50000000E-01  8.50000000E-01  8.50000000E-01  8.50000000E-01
  8.50000000E-01  8.50000000E-01  8.50000000E-01  8.50000000E-01  8.50000000E-01
  8.50000000E-01  8.50000000E-01  8.50000000E-01  8.50000000E-01  8.50000000E-01
  8.50000000E-01  8.50000000E-01  8.50000000E-01  8.50000000E-01  8.50000000E-01
  8.50000000E-01  8.50000000E-01  8.50000000E-01  8.50000000E-01  8.50000000E-01
  8.50000000E-01  8.50000000E-01  8.50000000E-01  8.50000000E-01  8.50000000E-01
  8.50000000E-01  8.50000000E-01  8.50000000E-01  8.50000000E-01  8.50000000E-01
  8.50000000E-01  8.50000000E-01  8.50000000E-01  8.50000000E-01  8.50000000E-01
  8.50000000E-01  8.50000000E-01  8.50000000E-01  8.50000000E-01  8.50000000E-01
  8.50000000E-01  8.50000000E-01  8.50000000E-01  8.50000000E-01  8.50000000E-01
  8.50000000E-01  8.50000000E-01  8.50000000E-01  8.50000000E-01  8.50000000E-01
  8.50000000E-01  8.50000000E-01  8.50000000E-01  8.50000000E-01  8.50000000E-01
  8.50000000E-01  8.50000000E-01  8.50000000E-01  8.50000000E-01  8.50000000E-01
  8.50000000E-01  8.50000000E-01  8.50000000E-01  8.50000000E-01  8.50000000E-01
  8.50000000E-01  8.50000000E-01  8.50000000E-01  8.50000000E-01  8.50000000E-01
  8.50000000E-01  8.50000000E-01  8.50000000E-01  8.50000000E-01  8.50000000E-01
  8.50000000E-01  8.50000000E-01  8.50000000E-01  8.50000000E-01  8.50000000E-01
  8.50000000E-01  8.50000000E-01  8.50000000E-01  8.50000000E-01  8.50000000E-01
  8.50000000E-01  8.50000000E-01  8.50000000E-01  8.50000000E-01  8.50000000E-01
  8.50000000E-01  8.50000000E-01  8.50000000E-01  8.50000000E-01  8.50000000E-01
  8.50000000E-01  8.50000000E-01  8.50000000E-01  8.50000000E-01  8.50000000E-01
  8.50000000E-01  8.50000000E-01  8.50000000E-01  8.50000000E-01  8.50000000E-01
  8.50000000E-01  8.50000000E-01  8.50000000E-01  8.50000000E-01  8.50000000E-01
  8.50000000E-01  8.50000000E-01  8.50000000E-01  8.50000000E-01  8.50000000E-01
  8.50000000E-01  8.50000000E-01  8.50000000E-01  8.50000000E-01  8.50000000E-01
  8.50000000E-01  8.50000000E-01  8.50000000E-01  8.50000000E-01  8.50000000E-01
  8.50000000E-01  8.50000000E-01  8.50000000E-01  8.50000000E-01  8.50000000E-01
  8.50000000E-01  8.50000000E-01  8.50000000E-01  8.50000000E-01  8.50000000E-01
  8.50000000E-01  8.50000000E-01  8.50000000E-01  8.50000000E-01  8.50000000E-01
  8.50000000E-01  8.50000000E-01  8.50000000E-01  8.50000000E-01  8.50000000E-01
  8.50000000E-01  8.50000000E-01  8.50000000E-01  8.50000000E-01  8.50000000E-01
  8.50000000E-01  8.50000000E-01  8.50000000E-01  8.50000000E-01  8.50000000E-01
  8.50000000E-01  8.50000000E-01  8.50000000E-01  8.50000000E-01  8.50000000E-01
  8.50000000E-01  8.50000000E-01  8.50000000E-01  8.50000000E-01  8.50000000E-01
  8.50000000E-01  8.50000000E-01  8.50000000E-01  8.50000000E-01  8.50000000E-01
  8.50000000E-01  8.50000000E-01  8.50000000E-01  8.50000000E-01  8.50000000E-01
  8.50000000E-01  8.50000000E-01  8.50000000E-01  8.50000000E-01  8.50000000E-01
  8.50000000E-01  8.50000000E-01  8.50000000E-01  8.50000000E-01  8.50000000E-01
  8.50000000E-01  8.50000000E-01  8.50000000E-01  8.50000000E-01  8.50000000E-01
  8.50000000E-01  8.50000000E-01  8.50000000E-01  8.50000000E-01  8.50000000E-01
  8.50000000E-01  8.50000000E-01  8.50000000E-01  8.50000000E-01  8.50000000E-01
  8.50000000E-01  8.50000000E-01  8.50000000E-01  8.50000000E-01  8.50000000E-01
  8.50000000E-01  8.50000000E-01  8.50000000E-01  8.50000000E-01  8.50000000E-01
  8.50000000E-01  8.50000000E-01  8.50000000E-01  8.50000000E-01  8.50000000E-01
  8.50000000E-01  8.50000000E-01  8.50000000E-01  8.50000000E-01  8.50000000E-01
  8.50000000E-01  8.50000000E-01  8.50000000E-01  8.50000000E-01  8.50000000E-01
  8.50000000E-01  8.50000000E-01  8.50000000E-01  8.50000000E-01  8.50000000E-01
  8.50000000E-01  8.50000000E-01  8.50000000E-01  8.50000000E-01  8.50000000E-01
  8.50000000E-01  8.50000000E-01  8.50000000E-01  8.50000000E-01  8.50000000E-01
  8.50000000E-01  8.50000000E-01  8.50000000E-01  8.50000000E-01  8.50000000E-01
  8.50000000E-01  8.50000000E-01  8.50000000E-01  8.50000000E-01  8.50000000E-01
  8.50000000E-01  8.50000000E-01  8.50000000E-01  8.50000000E-01  8.50000000E-01
  8.50000000E-01  8.50000000E-01  8.50000000E-01  8.50000000E-01  8.50000000E-01
  8.50000000E-01  8.50000000E-01  8.50000000E-01  8.50000000E-01  8.50000000E-01
  8.50000000E-01  8.50000000E-01  8.50000000E-01  8.50000000E-01  8.50000000E-01
  8.50000000E-01  8.50000000E-01  8.50000000E-01  8.50000000E-01  8.50000000E-01
  8.50000000E-01  8.50000000E-01  8.50000000E-01  8.50000000E-01  8.50000000E-01
  8.50000000E-01  8.50000000E-01  8.50000000E-01  8.50000000E-01  8.50000000E-01
  8.50000000E-01  8.50000000E-01  8.50000000E-01  8.50000000E-01  8.50000000E-01
  8.50000000E-01  8.50000000E-01  8.50000000E-01  8.50000000E-01  8.50000000E-01
  8.50000000E-01  8.50000000E-01  8.50000000E-01  8.50000000E-01  8.50000000E-01
  8.50000000E-01  8.50000000E-01  8.50000000E-01  8.50000000E-01  8.50000000E-01
  8.50000000E-01  8.50000000E-01  8.50000000E-01  8.50000000E-01  8.50000000E-01
  8.50000000E-01  8.50000000E-01  8.50000000E-01  8.50000000E-01  8.50000000E-01
  8.50000000E-01  8.50000000E-01  8.50000000E-01  8.50000000E-01  8.50000000E-01
  8.50000000E-01  8.50000000E-01  8.50000000E-01  8.50000000E-01  8.50000000E-01
  8.50000000E-01  8.50000000E-01  8.50000000E-01  8.50000000E-01  8.50000000E-01
  8.50000000E-01  8.50000000E-01  8.50000000E-01  8.50000000E-01  8.50000000E-01
  8.50000000E-01  8.50000000E-01  8.50000000E-01  8.50000000E-01  8.50000000E-01
  8.50000000E-01  8.50000000E-01  8.50000000E-01  8.50000000E-01  8.50000000E-01
  8.50000000E-01  8.50000000E-01  8.50000000E-01  8.50000000E-01  8.50000000E-01
  8.50000000E-01  8.50000000E-01  8.50000000E-01  8.50000000E-01  8.50000000E-01
  8.50000000E-01  8.50000000E-01  8.50000000E-01  8.50000000E-01  8.50000000E-01
  8.50000000E-01  8.50000000E-01  8.50000000E-01  8.50000000E-01  8.50000000E-01
  8.50000000E-01  8.50000000E-01  8.50000000E-01  8.50000000E-01  8.50000000E-01
  8.50000000E-01  8.50000000E-01  8.50000000E-01  8.50000000E-01  8.50000000E-01
  8.50000000E-01  8.50000000E-01  8.50000000E-01  8.50000000E-01  8.50000000E-01
  8.50000000E-01  8.50000000E-01  8.50000000E-01  8.50000000E-01  8.50000000E-01
  8.50000000E-01  8.50000000E-01  8.50000000E-01  8.50000000E-01  8.50000000E-01
  8.50000000E-01  8.50000000E-01  8.50000000E-01  8.50000000E-01  8.50000000E-01
  8.50000000E-01  8.50000000E-01  8.50000000E-01  8.50000000E-01  8.50000000E-01
  8.50000000E-01  8.50000000E-01  8.50000000E-01  8.50000000E-01  8.50000000E-01
  8.50000000E-01  8.50000000E-01  8.50000000E-01  8.50000000E-01  8.50000000E-01
  8.50000000E-01  8.50000000E-01  8.50000000E-01  8.50000000E-01  8.50000000E-01
  8.50000000E-01  8.50000000E-01  8.50000000E-01  8.50000000E-01  8.50000000E-01
  8.50000000E-01  8.50000000E-01  8.50000000E-01  8.50000000E-01  8.50000000E-01
  8.50000000E-01  8.50000000E-01  8.50000000E-01  8.50000000E-01  8.50000000E-01
  8.50000000E-01  8.50000000E-01  8.50000000E-01  8.50000000E-01  8.50000000E-01
  8.50000000E-01  8.50000000E-01  8.50000000E-01  8.50000000E-01  8.50000000E-01
  8.50000000E-01  8.50000000E-01  8.50000000E-01  8.50000000E-01  8.50000000E-01
  8.50000000E-01  8.50000000E-01  8.50000000E-01  8.50000000E-01  8.50000000E-01
  8.50000000E-01  8.50000000E-01  8.50000000E-01  8.50000000E-01  8.50000000E-01
  8.50000000E-01  8.50000000E-01  8.50000000E-01  8.50000000E-01  8.50000000E-01
  8.50000000E-01  8.50000000E-01  8.50000000E-01  8.50000000E-01  8.50000000E-01
  8.50000000E-01  8.50000000E-01  8.50000000E-01  8.50000000E-01  8.50000000E-01
  8.50000000E-01  8.50000000E-01  8.50000000E-01  8.50000000E-01  8.50000000E-01
  8.50000000E-01  8.50000000E-01  8.50000000E-01  8.50000000E-01  8.50000000E-01
  8.50000000E-01  8.50000000E-01  8.50000000E-01  8.50000000E-01  8.50000000E-01
  8.50000000E-01  8.50000000E-01  8.50000000E-01  8.50000000E-01  8.50000000E-01
  8.50000000E-01  8.50000000E-01  8.50000000E-01  8.50000000E-01  8.50000000E-01
  8.50000000E-01  8.50000000E-01  8.50000000E-01  8.50000000E-01  8.50000000E-01
  8.50000000E-01  8.50000000E-01  8.50000000E-01  8.50000000E-01  8.50000000E-01
  8.50000000E-01  8.50000000E-01  8.50000000E-01  8.50000000E-01  8.50000000E-01
  8.50000000E-01  8.50000000E-01  8.50000000E-01  8.50000000E-01  8.50000000E-01
  8.50000000E-01  8.50000000E-01  8.50000000E-01  8.50000000E-01  8.50000000E-01
  8.50000000E-01  8.50000000E-01  8.50000000E-01  8.50000000E-01  8.50000000E-01
  8.50000000E-01  8.50000000E-01  8.50000000E-01  8.50000000E-01  8.50000000E-01
  8.50000000E-01  8.50000000E-01  8.50000000E-01  8.50000000E-01  8.50000000E-01
  8.50000000E-01  8.50000000E-01  8.50000000E-01  8.50000000E-01  8.50000000E-01
  8.50000000E-01  8.50000000E-01  8.50000000E-01  8.50000000E-01  8.50000000E-01
  8.50000000E-01  8.50000000E-01  8.50000000E-01  8.50000000E-01  8.50000000E-01
  8.50000000E-01  8.50000000E-01  8.50000000E-01  8.50000000E-01  8.50000000E-01
  8.50000000E-01  8.50000000E-01  8.50000000E-01  8.50000000E-01  8.50000000E-01
  8.50000000E-01  8.50000000E-01  8.50000000E-01  8.50000000E-01  8.50000000E-01
  8.50000000E-01  8.50000000E-01  8.50000000E-01  8.50000000E-01  8.50000000E-01
  8.50000000E-01  8.50000000E-01  8.50000000E-01  8.50000000E-01  8.50000000E-01
  8.50000000E-01  8.50000000E-01  8.50000000E-01  8.50000000E-01  8.50000000E-01
  8.50000000E-01  8.50000000E-01  8.50000000E-01  8.50000000E-01  8.50000000E-01
  8.50000000E-01  8.50000000E-01  8.50000000E-01  8.50000000E-01  8.50000000E-01
  8.50000000E-01  8.50000000E-01  8.50000000E-01  8.50000000E-01  8.50000000E-01
  8.50000000E-01  8.50000000E-01  8.50000000E-01  8.50000000E-01  8.50000000E-01
  8.50000000E-01  8.50000000E-01  8.50000000E-01  8.50000000E-01  8.50000000E-01
  8.50000000E-01  8.50000000E-01  8.50000000E-01  8.50000000E-01  8.50000000E-01
  8.50000000E-01  8.50000000E-01  8.50000000E-01  8.50000000E-01  8.50000000E-01
  8.50000000E-01  8.50000000E-01  8.50000000E-01  8.50000000E-01  8.50000000E-01
  8.50000000E-01  8.50000000E-01  8.50000000E-01  8.50000000E-01  8.50000000E-01
  8.50000000E-01  8.50000000E-01  8.50000000E-01  8.50000000E-01  8.50000000E-01
  8.50000000E-01  8.50000000E-01  8.50000000E-01  8.50000000E-01  8.50000000E-01
  8.50000000E-01  8.50000000E-01  8.50000000E-01  8.50000000E-01  8.50000000E-01
  8.50000000E-01  8.50000000E-01  8.50000000E-01  8.50000000E-01  8.50000000E-01
  8.50000000E-01  8.50000000E-01  8.50000000E-01  8.50000000E-01  8.50000000E-01
  8.50000000E-01  8.50000000E-01  8.50000000E-01  8.50000000E-01  8.50000000E-01
  8.50000000E-01  8.50000000E-01  8.50000000E-01  8.50000000E-01  8.50000000E-01
  8.50000000E-01  8.50000000E-01  8.50000000E-01  8.50000000E-01  8.50000000E-01
  8.50000000E-01  8.50000000E-01  8.50000000E-01  8.50000000E-01  8.50000000E-01
  8.50000000E-01  8.50000000E-01  8.50000000E-01  8.50000000E-01  8.50000000E-01
  8.50000000E-01  8.50000000E-01  8.50000000E-01  8.50000000E-01  8.50000000E-01
  8.50000000E-01  8.50000000E-01  8.50000000E-01  8.50000000E-01  8.50000000E-01
  8.50000000E-01  8.50000000E-01  8.50000000E-01  8.50000000E-01  8.50000000E-01
  8.50000000E-01  8.50000000E-01  8.50000000E-01  8.50000000E-01  8.50000000E-01
  8.50000000E-01  8.50000000E-01  8.50000000E-01  8.50000000E-01  8.50000000E-01
  8.50000000E-01  8.50000000E-01  8.50000000E-01  8.50000000E-01  8.50000000E-01
  8.50000000E-01  8.50000000E-01  8.50000000E-01  8.50000000E-01  8.50000000E-01
  8.50000000E-01  8.50000000E-01  8.50000000E-01  8.50000000E-01  8.50000000E-01
  8.50000000E-01  8.50000000E-01  8.50000000E-01  8.50000000E-01  8.50000000E-01
  8.50000000E-01  8.50000000E-01  8.50000000E-01  8.50000000E-01  8.50000000E-01
  8.50000000E-01  8.50000000E-01  8.50000000E-01  8.50000000E-01  8.50000000E-01
  8.50000000E-01  8.50000000E-01  8.50000000E-01  8.50000000E-01  8.50000000E-01
  8.50000000E-01  8.50000000E-01  8.50000000E-01  8.50000000E-01  8.50000000E-01
  8.50000000E-01  8.50000000E-01  8.50000000E-01  8.50000000E-01  8.50000000E-01
  8.50000000E-01  8.50000000E-01  8.50000000E-01  8.50000000E-01  8.50000000E-01
  8.50000000E-01  8.50000000E-01  8.50000000E-01  8.50000000E-01  8.50000000E-01
  8.50000000E-01  8.50000000E-01  8.50000000E-01  8.50000000E-01  8.50000000E-01
  8.50000000E-01  8.50000000E-01  8.50000000E-01  8.50000000E-01  8.50000000E-01
  8.50000000E-01  8.50000000E-01  8.50000000E-01  8.50000000E-01  8.50000000E-01
  8.50000000E-01  8.50000000E-01  8.50000000E-01  8.50000000E-01  8.50000000E-01
  8.50000000E-01  8.50000000E-01  8.50000000E-01  8.50000000E-01  8.50000000E-01
  8.50000000E-01  8.50000000E-01  8.50000000E-01  8.50000000E-01  8.50000000E-01
  8.50000000E-01  8.50000000E-01  8.50000000E-01  8.50000000E-01  8.50000000E-01
  8.50000000E-01  8.50000000E-01  8.50000000E-01  8.50000000E-01  8.50000000E-01
  8.50000000E-01  8.50000000E-01  8.50000000E-01  8.50000000E-01  8.50000000E-01
  8.50000000E-01  8.50000000E-01  8.50000000E-01  8.50000000E-01  8.50000000E-01
  8.50000000E-01  8.50000000E-01  8.50000000E-01  8.50000000E-01  8.50000000E-01
  8.50000000E-01  8.50000000E-01  8.50000000E-01  8.50000000E-01  8.50000000E-01
  8.50000000E-01  8.50000000E-01  8.50000000E-01  8.50000000E-01  8.50000000E-01
  8.50000000E-01  8.50000000E-01  8.50000000E-01  8.50000000E-01  8.50000000E-01
  8.50000000E-01  8.50000000E-01  8.50000000E-01  8.50000000E-01  8.50000000E-01
  8.50000000E-01  8.50000000E-01  8.50000000E-01  8.50000000E-01  8.50000000E-01
  8.50000000E-01  8.50000000E-01  8.50000000E-01  8.50000000E-01  8.50000000E-01
  8.50000000E-01  8.50000000E-01  8.50000000E-01  8.50000000E-01  8.50000000E-01
  8.50000000E-01  8.50000000E-01  8.50000000E-01  8.50000000E-01  8.50000000E-01
  8.50000000E-01  8.50000000E-01  8.50000000E-01  8.50000000E-01  8.50000000E-01
  8.50000000E-01  8.50000000E-01  8.50000000E-01  8.50000000E-01  8.50000000E-01
  8.50000000E-01  8.50000000E-01  8.50000000E-01  8.50000000E-01  8.50000000E-01
  8.50000000E-01  8.50000000E-01  8.50000000E-01  8.50000000E-01  8.50000000E-01
  8.50000000E-01  8.50000000E-01  8.50000000E-01  8.50000000E-01  8.50000000E-01
  8.50000000E-01  8.50000000E-01  8.50000000E-01  8.50000000E-01  8.50000000E-01
  8.50000000E-01  8.50000000E-01  8.50000000E-01  8.50000000E-01  8.50000000E-01
  8.50000000E-01  8.50000000E-01  8.50000000E-01  8.50000000E-01  8.50000000E-01
  8.50000000E-01  8.50000000E-01  8.50000000E-01  8.50000000E-01  8.50000000E-01
  8.50000000E-01  8.50000000E-01  8.50000000E-01  8.50000000E-01  8.50000000E-01
  8.50000000E-01  8.50000000E-01  8.50000000E-01  8.50000000E-01  8.50000000E-01
  8.50000000E-01  8.50000000E-01  8.50000000E-01  8.50000000E-01  8.50000000E-01
  8.50000000E-01  8.50000000E-01  8.50000000E-01  8.50000000E-01  8.50000000E-01
  8.50000000E-01  8.50000000E-01  8.50000000E-01  8.50000000E-01  8.50000000E-01
  8.50000000E-01  8.50000000E-01  8.50000000E-01  8.50000000E-01  8.50000000E-01
  8.50000000E-01  8.50000000E-01  8.50000000E-01  8.50000000E-01  8.50000000E-01
  8.50000000E-01  8.50000000E-01  8.50000000E-01  8.50000000E-01  8.50000000E-01
  8.50000000E-01  8.50000000E-01  8.50000000E-01  8.50000000E-01  8.50000000E-01
  8.50000000E-01  8.50000000E-01  8.50000000E-01  8.50000000E-01  8.50000000E-01
  8.50000000E-01  8.50000000E-01  8.50000000E-01  8.50000000E-01  8.50000000E-01
  8.50000000E-01  8.50000000E-01  8.50000000E-01  8.50000000E-01  8.50000000E-01
  8.50000000E-01  8.50000000E-01  8.50000000E-01  8.50000000E-01  8.50000000E-01
  8.50000000E-01  8.50000000E-01  8.50000000E-01  8.50000000E-01  8.50000000E-01
  8.50000000E-01  8.50000000E-01  8.50000000E-01  8.50000000E-01  8.50000000E-01
  8.50000000E-01  8.50000000E-01  8.50000000E-01  8.50000000E-01  8.50000000E-01
  8.50000000E-01  8.50000000E-01  8.50000000E-01  8.50000000E-01  8.50000000E-01
  8.50000000E-01  8.50000000E-01  8.50000000E-01  8.50000000E-01  8.50000000E-01
  8.50000000E-01  8.50000000E-01  8.50000000E-01  8.50000000E-01  8.50000000E-01
  8.50000000E-01  8.50000000E-01  8.50000000E-01  8.50000000E-01  8.50000000E-01
  8.50000000E-01  8.50000000E-01  8.50000000E-01  8.50000000E-01  8.50000000E-01
  8.50000000E-01  8.50000000E-01  8.50000000E-01  8.50000000E-01  8.50000000E-01
  8.50000000E-01  8.50000000E-01  8.50000000E-01  8.50000000E-01  8.50000000E-01
  8.50000000E-01  8.50000000E-01  8.50000000E-01  8.50000000E-01  8.50000000E-01
  8.50000000E-01  8.50000000E-01  8.50000000E-01  8.50000000E-01  8.50000000E-01
  8.50000000E-01  8.50000000E-01  8.50000000E-01  8.50000000E-01  8.50000000E-01
  8.50000000E-01  8.50000000E-01  8.50000000E-01  8.50000000E-01  8.50000000E-01
  8.50000000E-01  8.50000000E-01  8.50000000E-01  8.50000000E-01  8.50000000E-01
  8.50000000E-01  8.50000000E-01  8.50000000E-01  8.50000000E-01  8.50000000E-01
  8.50000000E-01  8.50000000E-01  8.50000000E-01  8.50000000E-01  8.50000000E-01
  8.50000000E-01  8.50000000E-01  8.50000000E-01  8.50000000E-01  8.50000000E-01
  8.50000000E-01  8.50000000E-01  8.50000000E-01  8.50000000E-01  8.50000000E-01
  8.50000000E-01  8.50000000E-01  8.50000000E-01  8.50000000E-01  8.50000000E-01
  8.50000000E-01  8.50000000E-01  8.50000000E-01  8.50000000E-01  8.50000000E-01
  8.50000000E-01  8.50000000E-01  8.50000000E-01  8.50000000E-01  8.50000000E-01
  8.50000000E-01  8.50000000E-01  8.50000000E-01  8.50000000E-01  8.50000000E-01
  8.50000000E-01  8.50000000E-01  8.50000000E-01  8.50000000E-01  8.50000000E-01
  8.50000000E-01  8.50000000E-01  8.50000000E-01  8.50000000E-01  8.50000000E-01
  8.50000000E-01  8.50000000E-01  8.50000000E-01  8.50000000E-01  8.50000000E-01
  8.50000000E-01  8.50000000E-01  8.50000000E-01  8.50000000E-01  8.50000000E-01
  8.50000000E-01  8.50000000E-01  8.50000000E-01  8.50000000E-01  8.50000000E-01
  8.50000000E-01  8.50000000E-01  8.50000000E-01  8.50000000E-01  8.50000000E-01
  8.50000000E-01  8.50000000E-01  8.50000000E-01  8.50000000E-01  8.50000000E-01
  8.50000000E-01  8.50000000E-01  8.50000000E-01  8.50000000E-01  8.50000000E-01
  8.50000000E-01  8.50000000E-01  8.50000000E-01  8.50000000E-01  8.50000000E-01
  8.50000000E-01  8.50000000E-01  8.50000000E-01  8.50000000E-01  8.50000000E-01
  8.50000000E-01  8.50000000E-01  8.50000000E-01  8.50000000E-01  8.50000000E-01
  8.50000000E-01  8.50000000E-01  8.50000000E-01  8.50000000E-01  8.50000000E-01
  8.50000000E-01  8.50000000E-01  8.50000000E-01  8.50000000E-01  8.50000000E-01
  8.50000000E-01  8.50000000E-01  8.50000000E-01  8.50000000E-01  8.50000000E-01
  8.50000000E-01  8.50000000E-01  8.50000000E-01  8.50000000E-01  8.50000000E-01
  8.50000000E-01  8.50000000E-01  8.50000000E-01  8.50000000E-01  8.50000000E-01
  8.50000000E-01  8.50000000E-01  8.50000000E-01  8.50000000E-01  8.50000000E-01
  8.50000000E-01  8.50000000E-01  8.50000000E-01  8.50000000E-01  8.50000000E-01
  8.50000000E-01  8.50000000E-01  8.50000000E-01  8.50000000E-01  8.50000000E-01
  8.50000000E-01  8.50000000E-01  8.50000000E-01  8.50000000E-01  8.50000000E-01
  8.50000000E-01  8.50000000E-01  8.50000000E-01  8.50000000E-01  8.50000000E-01
  8.50000000E-01  8.50000000E-01  8.50000000E-01  8.50000000E-01  8.50000000E-01
  8.50000000E-01  8.50000000E-01  8.50000000E-01  8.50000000E-01  8.50000000E-01
  8.50000000E-01  8.50000000E-01  8.50000000E-01  8.50000000E-01  8.50000000E-01
  8.50000000E-01  8.50000000E-01  8.50000000E-01  8.50000000E-01  8.50000000E-01
  8.50000000E-01  8.50000000E-01  8.50000000E-01  8.50000000E-01  8.50000000E-01
  8.50000000E-01  8.50000000E-01  8.50000000E-01  8.50000000E-01  8.50000000E-01
  8.50000000E-01  8.50000000E-01  8.50000000E-01  8.50000000E-01  8.50000000E-01
  8.50000000E-01  8.50000000E-01  8.50000000E-01  8.50000000E-01  8.50000000E-01
  8.50000000E-01  8.50000000E-01  8.50000000E-01  8.50000000E-01  8.50000000E-01
  8.50000000E-01  8.50000000E-01  8.50000000E-01  8.50000000E-01  8.50000000E-01
  8.50000000E-01  8.50000000E-01  8.50000000E-01  8.50000000E-01  8.50000000E-01
  8.50000000E-01  8.50000000E-01  8.50000000E-01  8.50000000E-01  8.50000000E-01
  8.50000000E-01  8.50000000E-01  8.50000000E-01  8.50000000E-01  8.50000000E-01
  8.50000000E-01  8.50000000E-01  8.50000000E-01  8.50000000E-01  8.50000000E-01
  8.50000000E-01  8.50000000E-01  8.50000000E-01  8.50000000E-01  8.50000000E-01
  8.50000000E-01  8.50000000E-01  8.50000000E-01  8.50000000E-01  8.50000000E-01
  8.50000000E-01  8.50000000E-01  8.50000000E-01  8.50000000E-01  8.50000000E-01
  8.50000000E-01  8.50000000E-01  8.50000000E-01  8.50000000E-01  8.50000000E-01
  8.50000000E-01  8.50000000E-01  8.50000000E-01  8.50000000E-01  8.50000000E-01
  8.50000000E-01  8.50000000E-01  8.50000000E-01  8.50000000E-01  8.50000000E-01
  8.50000000E-01  8.50000000E-01  8.50000000E-01  8.50000000E-01  8.50000000E-01
  8.50000000E-01  8.50000000E-01  8.50000000E-01  8.50000000E-01  8.50000000E-01
  8.50000000E-01  8.50000000E-01  8.50000000E-01  8.50000000E-01  8.50000000E-01
  8.50000000E-01  8.50000000E-01  8.50000000E-01  8.50000000E-01  8.50000000E-01
  8.50000000E-01  8.50000000E-01  8.50000000E-01  8.50000000E-01  8.50000000E-01
  8.50000000E-01  8.50000000E-01  8.50000000E-01  8.50000000E-01  8.50000000E-01
  8.50000000E-01  8.50000000E-01  8.50000000E-01  8.50000000E-01  8.50000000E-01
  8.50000000E-01  8.50000000E-01  8.50000000E-01  8.50000000E-01  8.50000000E-01
  8.50000000E-01  8.50000000E-01  8.50000000E-01  8.50000000E-01  8.50000000E-01
  8.50000000E-01  8.50000000E-01  8.50000000E-01  8.50000000E-01  8.50000000E-01
  8.50000000E-01  8.50000000E-01  8.50000000E-01  8.50000000E-01  8.50000000E-01
  8.50000000E-01  8.50000000E-01  8.50000000E-01  8.50000000E-01  8.50000000E-01
  8.50000000E-01  8.50000000E-01  8.50000000E-01  8.50000000E-01  8.50000000E-01
  8.50000000E-01  8.50000000E-01  8.50000000E-01  8.50000000E-01  8.50000000E-01
  8.50000000E-01  8.50000000E-01  8.50000000E-01  8.50000000E-01  8.50000000E-01
  8.50000000E-01  8.50000000E-01  8.50000000E-01  8.50000000E-01  8.50000000E-01
  8.50000000E-01  8.50000000E-01  8.50000000E-01  8.50000000E-01  8.50000000E-01
  8.50000000E-01  8.50000000E-01  8.50000000E-01  8.50000000E-01  8.50000000E-01
  8.50000000E-01  8.50000000E-01  8.50000000E-01  8.50000000E-01  8.50000000E-01
  8.50000000E-01  8.50000000E-01  8.50000000E-01  8.50000000E-01  8.50000000E-01
  8.50000000E-01  8.50000000E-01  8.50000000E-01  8.50000000E-01  8.50000000E-01
  8.50000000E-01  8.50000000E-01  8.50000000E-01  8.50000000E-01  8.50000000E-01
  8.50000000E-01  8.50000000E-01  8.50000000E-01  8.50000000E-01  8.50000000E-01
  8.50000000E-01  8.50000000E-01  8.50000000E-01  8.50000000E-01  8.50000000E-01
  8.50000000E-01  8.50000000E-01  8.50000000E-01  8.50000000E-01  8.50000000E-01
  8.50000000E-01  8.50000000E-01  8.50000000E-01  8.50000000E-01  8.50000000E-01
  8.50000000E-01  8.50000000E-01  8.50000000E-01  8.50000000E-01  8.50000000E-01
  8.50000000E-01  8.50000000E-01  8.50000000E-01  8.50000000E-01  8.50000000E-01
  8.50000000E-01  8.50000000E-01  8.50000000E-01  8.50000000E-01  8.50000000E-01
  8.50000000E-01  8.50000000E-01  8.50000000E-01  8.50000000E-01  8.50000000E-01
  8.50000000E-01  8.50000000E-01  8.50000000E-01  8.50000000E-01  8.50000000E-01
  8.50000000E-01  8.50000000E-01  8.50000000E-01  8.50000000E-01  8.50000000E-01
  8.50000000E-01  8.50000000E-01  8.50000000E-01  8.50000000E-01  8.50000000E-01
  8.50000000E-01  8.50000000E-01  8.50000000E-01  8.50000000E-01  8.50000000E-01
  8.50000000E-01  8.50000000E-01  8.50000000E-01  8.50000000E-01  8.50000000E-01
  8.50000000E-01  8.50000000E-01  8.50000000E-01  8.50000000E-01  8.50000000E-01
  8.50000000E-01  8.50000000E-01  8.50000000E-01  8.50000000E-01  8.50000000E-01
  8.50000000E-01  8.50000000E-01  8.50000000E-01  8.50000000E-01  8.50000000E-01
  8.50000000E-01  8.50000000E-01  8.50000000E-01  8.50000000E-01  8.50000000E-01
  8.50000000E-01  8.50000000E-01  8.50000000E-01  8.50000000E-01  8.50000000E-01
  8.50000000E-01  8.50000000E-01  8.50000000E-01  8.50000000E-01  8.50000000E-01
  8.50000000E-01  8.50000000E-01  8.50000000E-01  8.50000000E-01  8.50000000E-01
  8.50000000E-01  8.50000000E-01  8.50000000E-01  8.50000000E-01  8.50000000E-01
  8.50000000E-01  8.50000000E-01  8.50000000E-01  8.50000000E-01  8.50000000E-01
  8.50000000E-01  8.50000000E-01  8.50000000E-01  8.50000000E-01  8.50000000E-01
  8.50000000E-01  8.50000000E-01  8.50000000E-01  8.50000000E-01  8.50000000E-01
  8.50000000E-01  8.50000000E-01  8.50000000E-01  8.50000000E-01  8.50000000E-01
  8.50000000E-01  8.50000000E-01  8.50000000E-01  8.50000000E-01  8.50000000E-01
  8.50000000E-01  8.50000000E-01  8.50000000E-01  8.50000000E-01  8.50000000E-01
  8.50000000E-01  8.50000000E-01  8.50000000E-01  8.50000000E-01  8.50000000E-01
  8.50000000E-01  8.50000000E-01  8.50000000E-01  8.50000000E-01  8.50000000E-01
  8.50000000E-01  8.50000000E-01  8.50000000E-01  8.50000000E-01  8.50000000E-01
  8.50000000E-01  8.50000000E-01  8.50000000E-01  8.50000000E-01  8.50000000E-01
  8.50000000E-01  8.50000000E-01  8.50000000E-01  8.50000000E-01  8.50000000E-01
  8.50000000E-01  8.50000000E-01  8.50000000E-01  8.50000000E-01  8.50000000E-01
  8.50000000E-01  8.50000000E-01  8.50000000E-01  8.50000000E-01  8.50000000E-01
  8.50000000E-01  8.50000000E-01  8.50000000E-01  8.50000000E-01  8.50000000E-01
  8.50000000E-01  8.50000000E-01  8.50000000E-01  8.50000000E-01  8.50000000E-01
  8.50000000E-01  8.50000000E-01  8.50000000E-01  8.50000000E-01  8.50000000E-01
  8.50000000E-01  8.50000000E-01  8.50000000E-01  8.50000000E-01  8.50000000E-01
  8.50000000E-01  8.50000000E-01  8.50000000E-01  8.50000000E-01  8.50000000E-01
  8.50000000E-01  8.50000000E-01  8.50000000E-01  8.50000000E-01  8.50000000E-01
  8.50000000E-01  8.50000000E-01  8.50000000E-01  8.50000000E-01  8.50000000E-01
  8.50000000E-01  8.50000000E-01  8.50000000E-01  8.50000000E-01  8.50000000E-01
  8.50000000E-01  8.50000000E-01  8.50000000E-01  8.50000000E-01  8.50000000E-01
  8.50000000E-01  8.50000000E-01  8.50000000E-01  8.50000000E-01  8.50000000E-01
  8.50000000E-01  8.50000000E-01  8.50000000E-01  8.50000000E-01  8.50000000E-01
  8.50000000E-01  8.50000000E-01  8.50000000E-01  8.50000000E-01  8.50000000E-01
  8.50000000E-01  8.50000000E-01  8.50000000E-01  8.50000000E-01  8.50000000E-01
  8.50000000E-01  8.50000000E-01  8.50000000E-01  8.50000000E-01  8.50000000E-01
  8.50000000E-01  8.50000000E-01  8.50000000E-01  8.50000000E-01  8.50000000E-01
  8.50000000E-01  8.50000000E-01  8.50000000E-01  8.50000000E-01  8.50000000E-01
  8.50000000E-01  8.50000000E-01  8.50000000E-01  8.50000000E-01  8.50000000E-01
  8.50000000E-01  8.50000000E-01  8.50000000E-01  8.50000000E-01  8.50000000E-01
  8.50000000E-01  8.50000000E-01  8.50000000E-01  8.50000000E-01  8.50000000E-01
  8.50000000E-01  8.50000000E-01  8.50000000E-01  8.50000000E-01  8.50000000E-01
  8.50000000E-01  8.50000000E-01  8.50000000E-01  8.50000000E-01  8.50000000E-01
  8.50000000E-01  8.50000000E-01  8.50000000E-01  8.50000000E-01  8.50000000E-01
  8.50000000E-01  8.50000000E-01  8.50000000E-01  8.50000000E-01  8.50000000E-01
  8.50000000E-01  8.50000000E-01  8.50000000E-01  8.50000000E-01  8.50000000E-01
  8.50000000E-01  8.50000000E-01  8.50000000E-01  8.50000000E-01  8.50000000E-01
  8.50000000E-01  8.50000000E-01  8.50000000E-01  8.50000000E-01  8.50000000E-01
  8.50000000E-01  8.50000000E-01  8.50000000E-01  8.50000000E-01  8.50000000E-01
  8.50000000E-01  8.50000000E-01  8.50000000E-01  8.50000000E-01  8.50000000E-01
  8.50000000E-01  8.50000000E-01  8.50000000E-01  8.50000000E-01  8.50000000E-01
  8.50000000E-01  8.50000000E-01  8.50000000E-01  8.50000000E-01  8.50000000E-01
  8.50000000E-01  8.50000000E-01  8.50000000E-01  8.50000000E-01  8.50000000E-01
  8.50000000E-01  8.50000000E-01  8.50000000E-01  8.50000000E-01  8.50000000E-01
  8.50000000E-01  8.50000000E-01  8.50000000E-01  8.50000000E-01  8.50000000E-01
  8.50000000E-01  8.50000000E-01  8.50000000E-01  8.50000000E-01  8.50000000E-01
  8.50000000E-01  8.50000000E-01  8.50000000E-01  8.50000000E-01  8.50000000E-01
  8.50000000E-01  8.50000000E-01  8.50000000E-01  8.50000000E-01  8.50000000E-01
  8.50000000E-01  8.50000000E-01  8.50000000E-01  8.50000000E-01  8.50000000E-01
  8.50000000E-01  8.50000000E-01  8.50000000E-01  8.50000000E-01  8.50000000E-01
  8.50000000E-01  8.50000000E-01  8.50000000E-01  8.50000000E-01  8.50000000E-01
  8.50000000E-01  8.50000000E-01  8.50000000E-01  8.50000000E-01  8.50000000E-01
  8.50000000E-01  8.50000000E-01  8.50000000E-01  8.50000000E-01  8.50000000E-01
  8.50000000E-01  8.50000000E-01  8.50000000E-01  8.50000000E-01  8.50000000E-01
  8.50000000E-01  8.50000000E-01  8.50000000E-01  8.50000000E-01  8.50000000E-01
  8.50000000E-01  8.50000000E-01  8.50000000E-01  8.50000000E-01  8.50000000E-01
  8.50000000E-01  8.50000000E-01  8.50000000E-01  8.50000000E-01  8.50000000E-01
  8.50000000E-01  8.50000000E-01  8.50000000E-01  8.50000000E-01  8.50000000E-01
  8.50000000E-01  8.50000000E-01  8.50000000E-01  8.50000000E-01  8.50000000E-01
  8.50000000E-01  8.50000000E-01  8.50000000E-01  8.50000000E-01  8.50000000E-01
  8.50000000E-01  8.50000000E-01  8.50000000E-01  8.50000000E-01  8.50000000E-01
  8.50000000E-01  8.50000000E-01  8.50000000E-01  8.50000000E-01  8.50000000E-01
  8.50000000E-01  8.50000000E-01  8.50000000E-01  8.50000000E-01  8.50000000E-01
  8.50000000E-01  8.50000000E-01  8.50000000E-01  8.50000000E-01  8.50000000E-01
  8.50000000E-01  8.50000000E-01  8.50000000E-01  8.50000000E-01  8.50000000E-01
  8.50000000E-01  8.50000000E-01  8.50000000E-01  8.50000000E-01  8.50000000E-01
  8.50000000E-01  8.50000000E-01  8.50000000E-01  8.50000000E-01  8.50000000E-01
  8.50000000E-01  8.50000000E-01  8.50000000E-01  8.50000000E-01  8.50000000E-01
  8.50000000E-01  8.50000000E-01  8.50000000E-01  8.50000000E-01  8.50000000E-01
  8.50000000E-01  8.50000000E-01  8.50000000E-01  8.50000000E-01  8.50000000E-01
  8.50000000E-01  8.50000000E-01  8.50000000E-01  8.50000000E-01  8.50000000E-01
  8.50000000E-01  8.50000000E-01  8.50000000E-01  8.50000000E-01  8.50000000E-01
  8.50000000E-01  8.50000000E-01  8.50000000E-01  8.50000000E-01  8.50000000E-01
  8.50000000E-01  8.50000000E-01  8.50000000E-01  8.50000000E-01  8.50000000E-01
  8.50000000E-01  8.50000000E-01  8.50000000E-01  8.50000000E-01  8.50000000E-01
  8.50000000E-01  8.50000000E-01  8.50000000E-01  8.50000000E-01  8.50000000E-01
  8.50000000E-01  8.50000000E-01  8.50000000E-01  8.50000000E-01  8.50000000E-01
  8.50000000E-01  8.50000000E-01  8.50000000E-01  8.50000000E-01  8.50000000E-01
  8.50000000E-01  8.50000000E-01  8.50000000E-01  8.50000000E-01  8.50000000E-01
  8.50000000E-01  8.50000000E-01  8.50000000E-01  8.50000000E-01  8.50000000E-01
  8.50000000E-01  8.50000000E-01  8.50000000E-01  8.50000000E-01  8.50000000E-01
  8.50000000E-01  8.50000000E-01  8.50000000E-01  8.50000000E-01  8.50000000E-01
  8.50000000E-01  8.50000000E-01  8.50000000E-01  8.50000000E-01  8.50000000E-01
  8.50000000E-01  8.50000000E-01  8.50000000E-01  8.50000000E-01  8.50000000E-01
  8.50000000E-01  8.50000000E-01  8.50000000E-01  8.50000000E-01  8.50000000E-01
  8.50000000E-01  8.50000000E-01  8.50000000E-01  8.50000000E-01  8.50000000E-01
  8.50000000E-01  8.50000000E-01  8.50000000E-01  8.50000000E-01  8.50000000E-01
  8.50000000E-01  8.50000000E-01  8.50000000E-01  8.50000000E-01  8.50000000E-01
  8.50000000E-01  8.50000000E-01  8.50000000E-01  8.50000000E-01  8.50000000E-01
  8.50000000E-01  8.50000000E-01  8.50000000E-01  8.50000000E-01  8.50000000E-01
  8.50000000E-01  8.50000000E-01  8.50000000E-01  8.50000000E-01  8.50000000E-01
  8.50000000E-01  8.50000000E-01  8.50000000E-01  8.50000000E-01  8.50000000E-01
  8.50000000E-01  8.50000000E-01  8.50000000E-01  8.50000000E-01  8.50000000E-01
  8.50000000E-01  8.50000000E-01  8.50000000E-01  8.50000000E-01  8.50000000E-01
  8.50000000E-01  8.50000000E-01  8.50000000E-01  8.50000000E-01  8.50000000E-01
  8.50000000E-01  8.50000000E-01  8.50000000E-01  8.50000000E-01  8.50000000E-01
  8.50000000E-01  8.50000000E-01  8.50000000E-01  8.50000000E-01  8.50000000E-01
  8.50000000E-01  8.50000000E-01  8.50000000E-01  8.50000000E-01  8.50000000E-01
  8.50000000E-01  8.50000000E-01  8.50000000E-01  8.50000000E-01  8.50000000E-01
  8.50000000E-01  8.50000000E-01  8.50000000E-01  8.50000000E-01  8.50000000E-01
  8.50000000E-01  8.50000000E-01  8.50000000E-01  8.50000000E-01  8.50000000E-01
  8.50000000E-01  8.50000000E-01  8.50000000E-01  8.50000000E-01  8.50000000E-01
  8.50000000E-01  8.50000000E-01  8.50000000E-01  8.50000000E-01  8.50000000E-01
  8.50000000E-01  8.50000000E-01  8.50000000E-01  8.50000000E-01  8.50000000E-01
  8.50000000E-01  8.50000000E-01  8.50000000E-01  8.50000000E-01  8.50000000E-01
  8.50000000E-01  8.50000000E-01  8.50000000E-01  8.50000000E-01  8.50000000E-01
  8.50000000E-01  8.50000000E-01  8.50000000E-01  8.50000000E-01  8.50000000E-01
  8.50000000E-01  8.50000000E-01  8.50000000E-01  8.50000000E-01  8.50000000E-01
  8.50000000E-01  8.50000000E-01  8.50000000E-01  8.50000000E-01  8.50000000E-01
  8.50000000E-01  8.50000000E-01  8.50000000E-01  8.50000000E-01  8.50000000E-01
  8.50000000E-01  8.50000000E-01  8.50000000E-01  8.50000000E-01  8.50000000E-01
  8.50000000E-01  8.50000000E-01  8.50000000E-01  8.50000000E-01  8.50000000E-01
  8.50000000E-01  8.50000000E-01  8.50000000E-01  8.50000000E-01  8.50000000E-01
  8.50000000E-01  8.50000000E-01  8.50000000E-01  8.50000000E-01  8.50000000E-01
  8.50000000E-01  8.50000000E-01  8.50000000E-01  8.50000000E-01  8.50000000E-01
  8.50000000E-01  8.50000000E-01  8.50000000E-01  8.50000000E-01  8.50000000E-01
  8.50000000E-01  8.50000000E-01  8.50000000E-01  8.50000000E-01  8.50000000E-01
  8.50000000E-01  8.50000000E-01  8.50000000E-01  8.50000000E-01  8.50000000E-01
  8.50000000E-01  8.50000000E-01  8.50000000E-01  8.50000000E-01  8.50000000E-01
  8.50000000E-01  8.50000000E-01  8.50000000E-01  8.50000000E-01  8.50000000E-01
  8.50000000E-01  8.50000000E-01  8.50000000E-01  8.50000000E-01  8.50000000E-01
  8.50000000E-01  8.50000000E-01  8.50000000E-01  8.50000000E-01  8.50000000E-01
  8.50000000E-01  8.50000000E-01  8.50000000E-01  8.50000000E-01  8.50000000E-01
  8.50000000E-01  8.50000000E-01  8.50000000E-01  8.50000000E-01  8.50000000E-01
  8.50000000E-01  8.50000000E-01  8.50000000E-01  8.50000000E-01  8.50000000E-01
  8.50000000E-01  8.50000000E-01  8.50000000E-01  8.50000000E-01  8.50000000E-01
  8.50000000E-01  8.50000000E-01  8.50000000E-01  8.50000000E-01  8.50000000E-01
  8.50000000E-01  8.50000000E-01  8.50000000E-01  8.50000000E-01  8.50000000E-01
  8.50000000E-01  8.50000000E-01  8.50000000E-01  8.50000000E-01  8.50000000E-01
  8.50000000E-01  8.50000000E-01  8.50000000E-01  8.50000000E-01  8.50000000E-01
  8.50000000E-01  8.50000000E-01  8.50000000E-01  8.50000000E-01  8.50000000E-01
  8.50000000E-01  8.50000000E-01  8.50000000E-01  8.50000000E-01  8.50000000E-01
  8.50000000E-01  8.50000000E-01  8.50000000E-01  8.50000000E-01  8.50000000E-01
  8.50000000E-01  8.50000000E-01  8.50000000E-01  8.50000000E-01  8.50000000E-01
  8.50000000E-01  8.50000000E-01  8.50000000E-01  8.50000000E-01  8.50000000E-01
  8.50000000E-01  8.50000000E-01  8.50000000E-01  8.50000000E-01  8.50000000E-01
  8.50000000E-01  8.50000000E-01  8.50000000E-01  8.50000000E-01  8.50000000E-01
  8.50000000E-01  8.50000000E-01  8.50000000E-01  8.50000000E-01  8.50000000E-01
  8.50000000E-01  8.50000000E-01  8.50000000E-01  8.50000000E-01  8.50000000E-01
  8.50000000E-01  8.50000000E-01  8.50000000E-01  8.50000000E-01  8.50000000E-01
  8.50000000E-01  8.50000000E-01  8.50000000E-01  8.50000000E-01  8.50000000E-01
  8.50000000E-01  8.50000000E-01  8.50000000E-01  8.50000000E-01  8.50000000E-01
  8.50000000E-01  8.50000000E-01  8.50000000E-01  8.50000000E-01  8.50000000E-01
  8.50000000E-01  8.50000000E-01  8.50000000E-01  8.50000000E-01  8.50000000E-01
  8.50000000E-01  8.50000000E-01  8.50000000E-01  8.50000000E-01  8.50000000E-01
  8.50000000E-01  8.50000000E-01  8.50000000E-01  8.50000000E-01  8.50000000E-01
  8.50000000E-01  8.50000000E-01  8.50000000E-01  8.50000000E-01  8.50000000E-01
  8.50000000E-01  8.50000000E-01  8.50000000E-01  8.50000000E-01  8.50000000E-01
  8.50000000E-01  8.50000000E-01  8.50000000E-01  8.50000000E-01  8.50000000E-01
  8.50000000E-01  8.50000000E-01  8.50000000E-01  8.50000000E-01  8.50000000E-01
  8.50000000E-01  8.50000000E-01  8.50000000E-01  8.50000000E-01  8.50000000E-01
  8.50000000E-01  8.50000000E-01  8.50000000E-01  8.50000000E-01  8.50000000E-01
  8.50000000E-01  8.50000000E-01  8.50000000E-01  8.50000000E-01  8.50000000E-01
  8.50000000E-01  8.50000000E-01  8.50000000E-01  8.50000000E-01  8.50000000E-01
  8.50000000E-01  8.50000000E-01  8.50000000E-01  8.50000000E-01  8.50000000E-01
  8.50000000E-01  8.50000000E-01  8.50000000E-01  8.50000000E-01  8.50000000E-01
  8.50000000E-01  8.50000000E-01  8.50000000E-01  8.50000000E-01  8.50000000E-01
  8.50000000E-01  8.50000000E-01  8.50000000E-01  8.50000000E-01  8.50000000E-01
  8.50000000E-01  8.50000000E-01  8.50000000E-01  8.50000000E-01  8.50000000E-01
  8.50000000E-01  8.50000000E-01  8.50000000E-01  8.50000000E-01  8.50000000E-01
  8.50000000E-01  8.50000000E-01  8.50000000E-01  8.50000000E-01  8.50000000E-01
  8.50000000E-01  8.50000000E-01  8.50000000E-01  8.50000000E-01  8.50000000E-01
  8.50000000E-01  8.50000000E-01  8.50000000E-01  8.50000000E-01  8.50000000E-01
  8.50000000E-01  8.50000000E-01  8.50000000E-01  8.50000000E-01  8.50000000E-01
  8.50000000E-01  8.50000000E-01  8.50000000E-01  8.50000000E-01  8.50000000E-01
  8.50000000E-01  8.50000000E-01  8.50000000E-01  8.50000000E-01  8.50000000E-01
  8.50000000E-01  8.50000000E-01  8.50000000E-01  8.50000000E-01  8.50000000E-01
  8.50000000E-01  8.50000000E-01  8.50000000E-01  8.50000000E-01  8.50000000E-01
  8.50000000E-01  8.50000000E-01  8.50000000E-01  8.50000000E-01  8.50000000E-01
  8.50000000E-01  8.50000000E-01  8.50000000E-01  8.50000000E-01  8.50000000E-01
  8.50000000E-01  8.50000000E-01  8.50000000E-01  8.50000000E-01  8.50000000E-01
  8.50000000E-01  8.50000000E-01  8.50000000E-01  8.50000000E-01  8.50000000E-01
  8.50000000E-01  8.50000000E-01  8.50000000E-01  8.50000000E-01  8.50000000E-01
  8.50000000E-01  8.50000000E-01  8.50000000E-01  8.50000000E-01  8.50000000E-01
  8.50000000E-01  8.50000000E-01  8.50000000E-01  8.50000000E-01  8.50000000E-01
  8.50000000E-01  8.50000000E-01  8.50000000E-01  8.50000000E-01  8.50000000E-01
  8.50000000E-01  8.50000000E-01  8.50000000E-01  8.50000000E-01  8.50000000E-01
  8.50000000E-01  8.50000000E-01  8.50000000E-01  8.50000000E-01  8.50000000E-01
  8.50000000E-01  8.50000000E-01  8.50000000E-01  8.50000000E-01  8.50000000E-01
  8.50000000E-01  8.50000000E-01  8.50000000E-01  8.50000000E-01  8.50000000E-01
  8.50000000E-01  8.50000000E-01  8.50000000E-01  8.50000000E-01  8.50000000E-01
  8.50000000E-01  8.50000000E-01  8.50000000E-01  8.50000000E-01  8.50000000E-01
  8.50000000E-01  8.50000000E-01  8.50000000E-01  8.50000000E-01  8.50000000E-01
  8.50000000E-01  8.50000000E-01  8.50000000E-01  8.50000000E-01  8.50000000E-01
  8.50000000E-01  8.50000000E-01  8.50000000E-01  8.50000000E-01  8.50000000E-01
  8.50000000E-01  8.50000000E-01  8.50000000E-01  8.50000000E-01  8.50000000E-01
  8.50000000E-01  8.50000000E-01  8.50000000E-01  8.50000000E-01  8.50000000E-01
  8.50000000E-01  8.50000000E-01  8.50000000E-01  8.50000000E-01  8.50000000E-01
  8.50000000E-01  8.50000000E-01  8.50000000E-01  8.50000000E-01  8.50000000E-01
  8.50000000E-01  8.50000000E-01  8.50000000E-01  8.50000000E-01  8.50000000E-01
  8.50000000E-01  8.50000000E-01  8.50000000E-01  8.50000000E-01  8.50000000E-01
  8.50000000E-01  8.50000000E-01  8.50000000E-01  8.50000000E-01  8.50000000E-01
  8.50000000E-01  8.50000000E-01  8.50000000E-01  8.50000000E-01  8.50000000E-01
  8.50000000E-01  8.50000000E-01  8.50000000E-01  8.50000000E-01  8.50000000E-01
  8.50000000E-01  8.50000000E-01  8.50000000E-01  8.50000000E-01  8.50000000E-01
  8.50000000E-01  8.50000000E-01  8.50000000E-01  8.50000000E-01  8.50000000E-01
  8.50000000E-01  8.50000000E-01  8.50000000E-01  8.50000000E-01  8.50000000E-01
  8.50000000E-01  8.50000000E-01  8.50000000E-01  8.50000000E-01  8.50000000E-01
  8.50000000E-01  8.50000000E-01  8.50000000E-01  8.50000000E-01  8.50000000E-01
  8.50000000E-01  8.50000000E-01  8.50000000E-01  8.50000000E-01  8.50000000E-01
  8.50000000E-01  8.50000000E-01  8.50000000E-01  8.50000000E-01  8.50000000E-01
  8.50000000E-01  8.50000000E-01  8.50000000E-01  8.50000000E-01  8.50000000E-01
  8.50000000E-01  8.50000000E-01  8.50000000E-01  8.50000000E-01  8.50000000E-01
  8.50000000E-01  8.50000000E-01  8.50000000E-01  8.50000000E-01  8.50000000E-01
  8.50000000E-01  8.50000000E-01  8.50000000E-01  8.50000000E-01  8.50000000E-01
  8.50000000E-01  8.50000000E-01  8.50000000E-01  8.50000000E-01  8.50000000E-01
  8.50000000E-01  8.50000000E-01  8.50000000E-01  8.50000000E-01  8.50000000E-01
  8.50000000E-01  8.50000000E-01  8.50000000E-01  8.50000000E-01  8.50000000E-01
  8.50000000E-01  8.50000000E-01  8.50000000E-01  8.50000000E-01  8.50000000E-01
  8.50000000E-01  8.50000000E-01  8.50000000E-01  8.50000000E-01  8.50000000E-01
  8.50000000E-01  8.50000000E-01  8.50000000E-01  8.50000000E-01  8.50000000E-01
  8.50000000E-01  8.50000000E-01  8.50000000E-01  8.50000000E-01  8.50000000E-01
  8.50000000E-01  8.50000000E-01  8.50000000E-01  8.50000000E-01  8.50000000E-01
  8.50000000E-01  8.50000000E-01  8.50000000E-01  8.50000000E-01  8.50000000E-01
  8.50000000E-01  8.50000000E-01  8.50000000E-01  8.50000000E-01  8.50000000E-01
  8.50000000E-01  8.50000000E-01  8.50000000E-01  8.50000000E-01  8.50000000E-01
  8.50000000E-01  8.50000000E-01  8.50000000E-01  8.50000000E-01  8.50000000E-01
  8.50000000E-01  8.50000000E-01  8.50000000E-01  8.50000000E-01  8.50000000E-01
  8.50000000E-01  8.50000000E-01  8.50000000E-01  8.50000000E-01  8.50000000E-01
  8.50000000E-01  8.50000000E-01  8.50000000E-01  8.50000000E-01  8.50000000E-01
  8.50000000E-01  8.50000000E-01  8.50000000E-01  8.50000000E-01  8.50000000E-01
  8.50000000E-01  8.50000000E-01  8.50000000E-01  8.50000000E-01  8.50000000E-01
  8.50000000E-01  8.50000000E-01  8.50000000E-01  8.50000000E-01  8.50000000E-01
  8.50000000E-01  8.50000000E-01  8.50000000E-01  8.50000000E-01  8.50000000E-01
  8.50000000E-01  8.50000000E-01  8.50000000E-01  8.50000000E-01  8.50000000E-01
  8.50000000E-01  8.50000000E-01  8.50000000E-01  8.50000000E-01  8.50000000E-01
  8.50000000E-01  8.50000000E-01  8.50000000E-01  8.50000000E-01  8.50000000E-01
  8.50000000E-01  8.50000000E-01  8.50000000E-01  8.50000000E-01  8.50000000E-01
  8.50000000E-01  8.50000000E-01  8.50000000E-01  8.50000000E-01  8.50000000E-01
  8.50000000E-01  8.50000000E-01  8.50000000E-01  8.50000000E-01  8.50000000E-01
  8.50000000E-01  8.50000000E-01  8.50000000E-01  8.50000000E-01  8.50000000E-01
  8.50000000E-01  8.50000000E-01  8.50000000E-01  8.50000000E-01  8.50000000E-01
  8.50000000E-01  8.50000000E-01  8.50000000E-01  8.50000000E-01  8.50000000E-01
  8.50000000E-01  8.50000000E-01  8.50000000E-01  8.50000000E-01  8.50000000E-01
  8.50000000E-01  8.50000000E-01  8.50000000E-01  8.50000000E-01  8.50000000E-01
  8.50000000E-01  8.50000000E-01  8.50000000E-01  8.50000000E-01  8.50000000E-01
  8.50000000E-01  8.50000000E-01  8.50000000E-01  8.50000000E-01  8.50000000E-01
  8.50000000E-01  8.50000000E-01  8.50000000E-01  8.50000000E-01  8.50000000E-01
  8.50000000E-01  8.50000000E-01  8.50000000E-01  8.50000000E-01  8.50000000E-01
  8.50000000E-01  8.50000000E-01  8.50000000E-01  8.50000000E-01  8.50000000E-01
  8.50000000E-01  8.50000000E-01  8.50000000E-01  8.50000000E-01  8.50000000E-01
  8.50000000E-01  8.50000000E-01  8.50000000E-01  8.50000000E-01  8.50000000E-01
  8.50000000E-01  8.50000000E-01  8.50000000E-01  8.50000000E-01  8.50000000E-01
  8.50000000E-01  8.50000000E-01  8.50000000E-01  8.50000000E-01  8.50000000E-01
  8.50000000E-01  8.50000000E-01  8.50000000E-01  8.50000000E-01  8.50000000E-01
  8.50000000E-01  8.50000000E-01  8.50000000E-01  8.50000000E-01  8.50000000E-01
  8.50000000E-01  8.50000000E-01  8.50000000E-01  8.50000000E-01  8.50000000E-01
  8.50000000E-01  8.50000000E-01  8.50000000E-01  8.50000000E-01  8.50000000E-01
  8.50000000E-01  8.50000000E-01  8.50000000E-01  8.50000000E-01  8.50000000E-01
  8.50000000E-01  8.50000000E-01  8.50000000E-01  8.50000000E-01  8.50000000E-01
  8.50000000E-01  8.50000000E-01  8.50000000E-01  8.50000000E-01  8.50000000E-01
  8.50000000E-01  8.50000000E-01  8.50000000E-01  8.50000000E-01  8.50000000E-01
  8.50000000E-01  8.50000000E-01  8.50000000E-01  8.50000000E-01  8.50000000E-01
  8.50000000E-01  8.50000000E-01  8.50000000E-01  8.50000000E-01  8.50000000E-01
  8.50000000E-01  8.50000000E-01  8.50000000E-01  8.50000000E-01  8.50000000E-01
  8.50000000E-01  8.50000000E-01  8.50000000E-01  8.50000000E-01  8.50000000E-01
  8.50000000E-01  8.50000000E-01  8.50000000E-01  8.50000000E-01  8.50000000E-01
  8.50000000E-01  8.50000000E-01  8.50000000E-01  8.50000000E-01  8.50000000E-01
  8.50000000E-01  8.50000000E-01  8.50000000E-01  8.50000000E-01  8.50000000E-01
  8.50000000E-01  8.50000000E-01  8.50000000E-01  8.50000000E-01  8.50000000E-01
  8.50000000E-01  8.50000000E-01  8.50000000E-01  8.50000000E-01  8.50000000E-01
  8.50000000E-01  8.50000000E-01  8.50000000E-01  8.50000000E-01  8.50000000E-01
  8.50000000E-01  8.50000000E-01  8.50000000E-01  8.50000000E-01  8.50000000E-01
  8.50000000E-01  8.50000000E-01  8.50000000E-01  8.50000000E-01  8.50000000E-01
  8.50000000E-01  8.50000000E-01  8.50000000E-01  8.50000000E-01  8.50000000E-01
  8.50000000E-01  8.50000000E-01  8.50000000E-01  8.50000000E-01  8.50000000E-01
  8.50000000E-01  8.50000000E-01  8.50000000E-01  8.50000000E-01  8.50000000E-01
  8.50000000E-01  8.50000000E-01  8.50000000E-01  8.50000000E-01  8.50000000E-01
  8.50000000E-01  8.50000000E-01  8.50000000E-01  8.50000000E-01  8.50000000E-01
  8.50000000E-01  8.50000000E-01  8.50000000E-01  8.50000000E-01  8.50000000E-01
  8.50000000E-01  8.50000000E-01  8.50000000E-01  8.50000000E-01  8.50000000E-01
  8.50000000E-01  8.50000000E-01  8.50000000E-01  8.50000000E-01  8.50000000E-01
  8.50000000E-01  8.50000000E-01  8.50000000E-01  8.50000000E-01  8.50000000E-01
  8.50000000E-01  8.50000000E-01  8.50000000E-01  8.50000000E-01  8.50000000E-01
  8.50000000E-01  8.50000000E-01  8.50000000E-01  8.50000000E-01  8.50000000E-01
  8.50000000E-01  8.50000000E-01  8.50000000E-01  8.50000000E-01  8.50000000E-01
  8.50000000E-01  8.50000000E-01  8.50000000E-01  8.50000000E-01  8.50000000E-01
  8.50000000E-01  8.50000000E-01  8.50000000E-01  8.50000000E-01  8.50000000E-01
  8.50000000E-01  8.50000000E-01  8.50000000E-01  8.50000000E-01  8.50000000E-01
  8.50000000E-01  8.50000000E-01  8.50000000E-01  8.50000000E-01  8.50000000E-01
  8.50000000E-01  8.50000000E-01  8.50000000E-01  8.50000000E-01  8.50000000E-01
  8.50000000E-01  8.50000000E-01  8.50000000E-01  8.50000000E-01  8.50000000E-01
  8.50000000E-01  8.50000000E-01  8.50000000E-01  8.50000000E-01  8.50000000E-01
  8.50000000E-01  8.50000000E-01  8.50000000E-01  8.50000000E-01  8.50000000E-01
  8.50000000E-01  8.50000000E-01  8.50000000E-01  8.50000000E-01  8.50000000E-01
  8.50000000E-01  8.50000000E-01  8.50000000E-01  8.50000000E-01  8.50000000E-01
  8.50000000E-01  8.50000000E-01  8.50000000E-01  8.50000000E-01  8.50000000E-01
  8.50000000E-01  8.50000000E-01  8.50000000E-01  8.50000000E-01  8.50000000E-01
  8.50000000E-01  8.50000000E-01  8.50000000E-01  8.50000000E-01  8.50000000E-01
  8.50000000E-01  8.50000000E-01  8.50000000E-01  8.50000000E-01  8.50000000E-01
  8.50000000E-01  8.50000000E-01  8.50000000E-01  8.50000000E-01  8.50000000E-01
  8.50000000E-01  8.50000000E-01  8.50000000E-01  8.50000000E-01  8.50000000E-01
  8.50000000E-01  8.50000000E-01  8.50000000E-01  8.50000000E-01  8.50000000E-01
  8.50000000E-01  8.50000000E-01  8.50000000E-01  8.50000000E-01  8.50000000E-01
  8.50000000E-01  8.50000000E-01  8.50000000E-01  8.50000000E-01  8.50000000E-01
  8.50000000E-01  8.50000000E-01  8.50000000E-01  8.50000000E-01  8.50000000E-01
  8.50000000E-01  8.50000000E-01  8.50000000E-01  8.50000000E-01  8.50000000E-01
  8.50000000E-01  8.50000000E-01  8.50000000E-01  8.50000000E-01  8.50000000E-01
  8.50000000E-01  8.50000000E-01  8.50000000E-01  8.50000000E-01  8.50000000E-01
  8.50000000E-01  8.50000000E-01  8.50000000E-01  8.50000000E-01  8.50000000E-01
  8.50000000E-01  8.50000000E-01  8.50000000E-01  8.50000000E-01  8.50000000E-01
  8.50000000E-01  8.50000000E-01  8.50000000E-01  8.50000000E-01  8.50000000E-01
  8.50000000E-01  8.50000000E-01  8.50000000E-01  8.50000000E-01  8.50000000E-01
  8.50000000E-01  8.50000000E-01  8.50000000E-01  8.50000000E-01  8.50000000E-01
  8.50000000E-01  8.50000000E-01  8.50000000E-01  8.50000000E-01  8.50000000E-01
  8.50000000E-01  8.50000000E-01  8.50000000E-01  8.50000000E-01  8.50000000E-01
  8.50000000E-01  8.50000000E-01  8.50000000E-01  8.50000000E-01  8.50000000E-01
  8.50000000E-01  8.50000000E-01  8.50000000E-01  8.50000000E-01  8.50000000E-01
  8.50000000E-01  8.50000000E-01  8.50000000E-01  8.50000000E-01  8.50000000E-01
  8.50000000E-01  8.50000000E-01  8.50000000E-01  8.50000000E-01  8.50000000E-01
  8.50000000E-01  8.50000000E-01  8.50000000E-01  8.50000000E-01  8.50000000E-01
%FLAG IPOL                                                                      
%FORMAT(1I8)                                                                    
       0
